/*--------------------------------*- C++ -*----------------------------------*\
| =========                 |                                                 |
| \\      /  F ield         | OpenFOAM: The Open Source CFD Toolbox           |
|  \\    /   O peration     | Version:  2206                                  |
|   \\  /    A nd           | Website:  www.openfoam.com                      |
|    \\/     M anipulation  |                                                 |
\*---------------------------------------------------------------------------*/
FoamFile
{
    version     2.0;
    format      ascii;
    arch        "LSB;label=32;scalar=64";
    class       volScalarField;
    location    "1400";
    object      epsilon;
}
// * * * * * * * * * * * * * * * * * * * * * * * * * * * * * * * * * * * * * //

dimensions      [0 2 -3 0 0 0 0];

internalField   nonuniform List<scalar> 
7480
(
5.7740336
15.518752
18.081379
15.978422
12.856756
10.357992
8.6717858
7.519439
6.672993
6.0086215
5.4696653
5.028009
4.6646619
4.3645837
4.1155733
3.9073436
3.7322457
3.5844769
3.4588406
3.3516177
3.2583827
3.1763918
3.1033469
3.0374015
2.9773255
2.9221193
2.8710836
2.8235465
2.7789169
2.7367052
2.6966269
2.6584879
2.6220837
2.5872443
2.5537831
2.5215988
2.4904591
2.460306
2.4310546
2.4026085
2.3748987
2.3478624
2.3214509
2.2956309
2.2703642
2.2456226
2.2213697
2.197568
2.1741955
2.1512287
2.1286489
2.1064433
2.0845961
2.0630984
2.0419353
2.021096
2.0005711
1.9803472
1.9604116
1.9407548
1.9213745
1.9022661
1.8834226
1.8648381
1.8465076
1.8284263
1.8105868
1.7929829
1.7756109
1.758467
1.7415468
1.7248458
1.7083602
1.6920873
1.6760228
1.6601623
1.6445019
1.6290378
1.6137664
1.598684
1.5837869
1.5690709
1.5545325
1.5401671
1.5259705
1.5119375
1.498063
1.4843396
1.4707619
1.4573152
1.4439997
1.4307711
1.4176701
1.4045246
1.3915804
1.3781528
1.3652238
1.3504353
1.3386348
1.3161025
0.34616544
1.599103
2.8406938
3.2971829
3.1719335
2.8637047
2.5629067
2.3186607
2.1201432
1.9502162
1.8019536
1.6737765
1.5643109
1.4713824
1.3925683
1.3251846
1.2674299
1.2179398
1.1753901
1.1385041
1.1061593
1.0774531
1.0516499
1.028211
1.0067731
0.98702739
0.96875428
0.9517141
0.93570534
0.92056923
0.90621005
0.89255931
0.87954625
0.86710956
0.85517757
0.84371914
0.83264541
0.82193884
0.81157144
0.80150776
0.79172003
0.78218673
0.77289019
0.76381621
0.75495123
0.74628386
0.73780006
0.72948682
0.72133466
0.7133353
0.70548197
0.69776896
0.69019052
0.68274229
0.67541884
0.66821609
0.66113003
0.65415564
0.64728794
0.64052363
0.6338612
0.62729883
0.62083367
0.6144633
0.60818576
0.60199905
0.59590033
0.58988728
0.58395838
0.57811208
0.57234666
0.56666035
0.56105168
0.5555195
0.55006217
0.54467802
0.53936557
0.53412341
0.52895015
0.52384442
0.51880483
0.51382996
0.50891841
0.50406867
0.49927923
0.49454835
0.4898743
0.4852548
0.48068791
0.47616971
0.47169896
0.46726548
0.46287513
0.45849127
0.45415883
0.44973526
0.44540712
0.4406671
0.43663082
0.42934005
0.010422188
0.063573134
0.16379254
0.28154722
0.38479999
0.47606995
0.55962047
0.63112406
0.68690994
0.7283129
0.75692289
0.77350392
0.77936873
0.77674168
0.76820394
0.7561443
0.74223006
0.72745747
0.7124121
0.69742728
0.68271752
0.66841591
0.65457837
0.6412594
0.62849965
0.61628946
0.60467571
0.59359125
0.58298831
0.57282646
0.56309177
0.55376652
0.54482494
0.53624269
0.52798268
0.52003643
0.51235352
0.50493139
0.49775391
0.49080056
0.48405441
0.47750241
0.47113343
0.46493711
0.45890395
0.4530254
0.44729127
0.44169287
0.43622292
0.43087515
0.42564434
0.42052533
0.41551335
0.41060415
0.40579322
0.40107705
0.39645185
0.39191358
0.38745834
0.38308337
0.37878667
0.37456612
0.37041917
0.36634352
0.36233726
0.35839841
0.35452462
0.35071394
0.34696485
0.34327585
0.33964534
0.33607179
0.33255383
0.32909027
0.32567969
0.32232072
0.31901208
0.31575259
0.31254107
0.30937638
0.30625739
0.30318298
0.30015204
0.29716344
0.29421605
0.29130866
0.28844004
0.28560877
0.28281344
0.28005205
0.2773231
0.27462251
0.27195017
0.26929356
0.26666254
0.26401128
0.26138715
0.25861349
0.25613691
0.25181923
0.00038748817
0.0025374652
0.0091070087
0.019267582
0.032086729
0.047200488
0.066782606
0.09101922
0.12647411
0.17016488
0.21726537
0.26308802
0.30625453
0.34573953
0.38028896
0.40878706
0.4307473
0.44644025
0.45671054
0.46261168
0.46511896
0.46502791
0.46296137
0.45941028
0.45478048
0.44938017
0.44347178
0.43724042
0.43081505
0.42429677
0.41776277
0.41127175
0.40486412
0.3985709
0.39240265
0.38638031
0.38047907
0.3747253
0.36911498
0.363647
0.35831861
0.35312699
0.34806911
0.34314127
0.33833956
0.33365988
0.3290963
0.32464426
0.32029942
0.31605783
0.31191597
0.30787011
0.30391678
0.3000526
0.29627396
0.29257791
0.28896125
0.28542071
0.28195314
0.27855614
0.27522766
0.27196564
0.26876777
0.26563192
0.26255623
0.2595388
0.25657753
0.25367066
0.25081667
0.24801408
0.24526138
0.2425571
0.23989991
0.2372886
0.23472183
0.23219832
0.22971689
0.22727641
0.22487577
0.22251392
0.22018981
0.21790242
0.21565074
0.21343379
0.21125055
0.20910003
0.20698117
0.20489289
0.202834
0.20080319
0.19879902
0.19681947
0.19486282
0.19292456
0.19100391
0.18908682
0.187178
0.18521118
0.1834011
0.18032407
4.239161e-05
0.00015173151
0.00054438758
0.0014347352
0.0029321823
0.0049537186
0.0075001849
0.010727347
0.015252398
0.021951634
0.031472306
0.046276934
0.06651926
0.090991571
0.11835418
0.14742284
0.17729823
0.20680291
0.23450145
0.2590485
0.27957592
0.29585534
0.30817303
0.31706664
0.32311519
0.32683047
0.32866043
0.32899185
0.3281522
0.32640637
0.32396453
0.32099635
0.3176375
0.31399499
0.31015129
0.30617993
0.3021149
0.29800365
0.2938785
0.28976213
0.28567222
0.28162349
0.2776272
0.27369146
0.26982248
0.26602469
0.26229972
0.25864838
0.25507096
0.25156769
0.24813858
0.24478293
0.24149974
0.23828776
0.23514535
0.23207103
0.22906297
0.22611918
0.22323755
0.22041645
0.21765446
0.21495006
0.2123015
0.20970716
0.20716549
0.20467491
0.20223373
0.19984046
0.19749378
0.1951924
0.19293499
0.19072025
0.18854698
0.18641406
0.1843203
0.18226455
0.18024573
0.17826282
0.17631481
0.17440074
0.17251964
0.1706706
0.1688527
0.16706506
0.16530677
0.16357697
0.16187475
0.16019918
0.15854927
0.15692404
0.15532219
0.15374265
0.15218325
0.15064291
0.14911705
0.14760476
0.14609514
0.14456832
0.14314151
0.14074529
1.7529168e-05
3.1617065e-05
6.9011581e-05
0.00014957727
0.00030156968
0.0005520714
0.0009261666
0.0014453255
0.002143408
0.0030943045
0.0043906494
0.00628859
0.0091024387
0.013153949
0.019279759
0.028565013
0.041049451
0.056751242
0.075190944
0.09581996
0.11790604
0.14040071
0.16203864
0.18166975
0.19855779
0.21246328
0.22352346
0.23205634
0.23841775
0.24294158
0.24593075
0.24765747
0.24835788
0.24822946
0.2474352
0.24611601
0.2443753
0.24230466
0.23997969
0.23746042
0.23479547
0.23202456
0.22918017
0.22628873
0.22337155
0.22044581
0.21752517
0.21462008
0.21173879
0.20888796
0.20607296
0.20329777
0.2005655
0.19787843
0.19523807
0.19264571
0.19010166
0.18760582
0.18515784
0.18275748
0.1804044
0.17809813
0.17583786
0.17362277
0.171452
0.16932462
0.16723953
0.16519572
0.16319229
0.16122826
0.15930265
0.15741442
0.15556264
0.15374643
0.15196479
0.15021679
0.1485015
0.14681807
0.14516563
0.14354334
0.14195038
0.14038594
0.13884922
0.13733945
0.13585585
0.13439766
0.13296408
0.13155436
0.13016762
0.12880312
0.1274597
0.1261368
0.12483223
0.12354648
0.12227379
0.12101891
0.11976575
0.11851481
0.1173406
0.11537381
1.3163516e-05
1.705117e-05
2.4841385e-05
3.8717985e-05
6.1793333e-05
9.8045369e-05
0.0001527085
0.0002323684
0.00034524339
0.00050342811
0.00072185652
0.0010263147
0.0014565592
0.0020627103
0.0029325317
0.0042325572
0.0061542297
0.0089200004
0.013212888
0.019694099
0.028618914
0.040184412
0.054086202
0.069967743
0.087180536
0.10479149
0.12175115
0.1371846
0.15058734
0.16182632
0.17100688
0.17833209
0.18402548
0.18830728
0.19138726
0.19346084
0.19469372
0.19522891
0.19518984
0.19468052
0.19378806
0.19258525
0.19113293
0.18948204
0.18767491
0.18574664
0.18372653
0.1816385
0.17950216
0.17733376
0.17514667
0.17295195
0.1707586
0.16857401
0.16640417
0.16425402
0.16212739
0.16002721
0.15795565
0.1559145
0.15390516
0.15192871
0.14998575
0.14807665
0.1462017
0.14436088
0.14255389
0.14078044
0.13904026
0.13733291
0.13565793
0.13401471
0.13240269
0.1308213
0.12926988
0.12774776
0.12625429
0.12478881
0.12335067
0.12193921
0.12055378
0.11919372
0.11785838
0.11654713
0.11525931
0.11399429
0.1127514
0.11153002
0.11032943
0.10914902
0.10798782
0.10684553
0.10572016
0.10461287
0.10351787
0.10244215
0.10136889
0.10030701
0.099312841
0.097642646
1.1847345e-05
1.349639e-05
1.6247328e-05
2.0474994e-05
2.668088e-05
3.5489444e-05
4.7706813e-05
6.4417087e-05
8.7044646e-05
0.00011761743
0.0001588976
0.00021492242
0.00029186253
0.00039832018
0.00054674457
0.00075800501
0.0010628093
0.0014987386
0.0021410353
0.003115378
0.0045857335
0.0067419483
0.010213562
0.015430252
0.02268424
0.032096817
0.043464952
0.056426592
0.070349098
0.08439327
0.097737405
0.10979305
0.12028118
0.12916397
0.13652927
0.14251371
0.14726807
0.15094686
0.15369965
0.15566276
0.15695692
0.15768776
0.1579467
0.15781238
0.15735197
0.15662244
0.15567238
0.15454275
0.15326792
0.15187682
0.15039367
0.14883891
0.14722964
0.14558021
0.14390271
0.1422072
0.14050213
0.13879444
0.13708982
0.13539295
0.13370775
0.13203748
0.13038469
0.12875144
0.12713941
0.12554994
0.12398393
0.12244209
0.12092496
0.1194329
0.1179661
0.1165246
0.11510834
0.1137172
0.11235097
0.11100935
0.10969202
0.10839864
0.1071288
0.1058821
0.10465811
0.10345637
0.10227642
0.10111778
0.099979971
0.098862495
0.097764839
0.096686508
0.095626923
0.094585636
0.093561838
0.092555408
0.091564593
0.090590861
0.089628845
0.088686128
0.087747109
0.086823314
0.085964376
0.084512681
1.1232564e-05
1.2182846e-05
1.3494288e-05
1.5281832e-05
1.768957e-05
2.087942e-05
2.5028975e-05
3.0352822e-05
3.7126455e-05
4.5720203e-05
5.6637078e-05
7.0574806e-05
8.8548828e-05
0.00011200586
0.00014301377
0.00018470217
0.00024192602
0.00032133731
0.00043337997
0.00059531564
0.00083418895
0.0011834463
0.0017177564
0.0025508861
0.0038282672
0.0058159581
0.0090170444
0.013741059
0.020256334
0.028517014
0.038343527
0.04931483
0.060788468
0.072055378
0.082541164
0.09191422
0.10005972
0.10699146
0.11278173
0.11752914
0.12134528
0.12434378
0.12663207
0.12830847
0.1294613
0.13016853
0.13049854
0.13051068
0.13025607
0.12977854
0.12911549
0.12829889
0.12735602
0.12631005
0.12518077
0.12398494
0.12273686
0.12144864
0.12013048
0.11879097
0.11743735
0.11607578
0.11471139
0.11334848
0.11199063
0.1106409
0.10930177
0.10797525
0.10666303
0.10536647
0.10408668
0.1028245
0.10158056
0.10035535
0.099149207
0.097962348
0.096794884
0.095646847
0.094518203
0.093408849
0.092318636
0.091247366
0.090194804
0.089160685
0.088144712
0.087146571
0.086165916
0.085202405
0.084255619
0.083325251
0.082410669
0.081511884
0.080627421
0.079758827
0.078901382
0.078062468
0.077228459
0.07641071
0.075657368
0.07437465
1.081435e-05
1.1478395e-05
1.2267916e-05
1.32087e-05
1.436282e-05
1.5800513e-05
1.7594666e-05
1.98239e-05
2.2562644e-05
2.5899282e-05
2.9948915e-05
3.4865176e-05
4.0853022e-05
4.818405e-05
5.7255094e-05
6.862619e-05
8.3126694e-05
0.00010192848
0.00012674249
0.0001601981
0.00020654195
0.00027158737
0.00036532714
0.00050473773
0.00071507467
0.0010364136
0.001547211
0.0023626841
0.0036212738
0.0057144339
0.0089711556
0.013660076
0.019866407
0.027496811
0.036264526
0.045673207
0.055128466
0.064114749
0.072305269
0.079556616
0.085842094
0.091193753
0.095674034
0.099362364
0.10234426
0.10470364
0.10651965
0.10786496
0.10880489
0.10939739
0.10969327
0.10973693
0.10956694
0.10921666
0.1087149
0.10808641
0.10735257
0.10653174
0.10563968
0.10468983
0.10369367
0.10266101
0.10160024
0.10051849
0.099421822
0.098315455
0.097203824
0.096090648
0.094979075
0.093871777
0.092770995
0.091678596
0.090596112
0.089524815
0.08846575
0.087419757
0.086387504
0.085369518
0.084366202
0.083377851
0.082404665
0.081446765
0.080504199
0.079576962
0.078664988
0.07776818
0.076886384
0.076019442
0.07516711
0.074329236
0.073505375
0.072695656
0.07189889
0.071116614
0.070344814
0.069590315
0.068841684
0.068108821
0.067440587
0.066293681
1.0470993e-05
1.0978675e-05
1.1534591e-05
1.2127116e-05
1.2782246e-05
1.3541434e-05
1.4449342e-05
1.5547925e-05
1.6871054e-05
1.8448752e-05
2.031343e-05
2.2502962e-05
2.50723e-05
2.8105581e-05
3.169833e-05
3.5979062e-05
4.1129325e-05
4.7404209e-05
5.5132504e-05
6.4790894e-05
7.7126933e-05
9.319303e-05
0.00011459315
0.00014392325
0.00018524277
0.00024477346
0.00033347011
0.00047021315
0.00068074487
0.0010199567
0.001576958
0.0024657271
0.0039466622
0.0063402015
0.0099023381
0.014762147
0.020879464
0.028046087
0.035861287
0.043825172
0.051493029
0.058572554
0.064922164
0.070498229
0.075309975
0.079396897
0.082816275
0.085632886
0.087912441
0.089718357
0.091109746
0.092140573
0.09285933
0.093309073
0.093527819
0.09354884
0.093401258
0.093110482
0.092698611
0.092184765
0.091585432
0.09091486
0.090185349
0.08940749
0.088590396
0.087741945
0.086868948
0.085977227
0.085071765
0.084156844
0.083236132
0.082312759
0.08138938
0.080468247
0.079551282
0.078640099
0.077736059
0.076840299
0.075953767
0.075077244
0.074211365
0.073356639
0.072513463
0.071682144
0.070862902
0.070055891
0.069261195
0.068478865
0.067708861
0.066951204
0.066205652
0.065472456
0.064750717
0.064041929
0.063342783
0.062659418
0.061982544
0.06132012
0.0607224
0.059688198
1.0172348e-05
1.0573089e-05
1.0998201e-05
1.1423305e-05
1.1853391e-05
1.2310578e-05
1.282463e-05
1.3425182e-05
1.4136193e-05
1.4976015e-05
1.5960171e-05
1.7103141e-05
1.8421773e-05
1.9940464e-05
2.1688664e-05
2.3702538e-05
2.6029131e-05
2.8727675e-05
3.1899847e-05
3.5675493e-05
4.0223026e-05
4.5775485e-05
5.2670686e-05
6.1372892e-05
7.2608211e-05
8.7469631e-05
0.00010768542
0.00013620808
0.00017734881
0.00023878083
0.00033443601
0.00048497058
0.00073025313
0.0011418962
0.0018169917
0.0029566325
0.0048450082
0.0077177343
0.011704757
0.016791535
0.02280819
0.029411121
0.036174519
0.042724826
0.048816733
0.054326103
0.059206967
0.063458072
0.0671057
0.070192365
0.072767891
0.07488418
0.076592164
0.077939939
0.078971907
0.079728325
0.080245368
0.080555282
0.080686625
0.08066452
0.080510948
0.080245118
0.079883791
0.079441564
0.078931115
0.078363474
0.077748254
0.077093777
0.076407236
0.075694858
0.074962036
0.074213429
0.073453054
0.07268436
0.071910332
0.07113353
0.070356153
0.069580084
0.068806933
0.068038071
0.06727466
0.066517678
0.065767946
0.065026145
0.064292836
0.063568478
0.062853432
0.062147997
0.061452368
0.060766769
0.060091176
0.059425982
0.058770579
0.058126423
0.057490875
0.056869384
0.056254637
0.05565258
0.055114787
0.05417673
9.9082127e-06
1.022787e-05
1.0564322e-05
1.0892946e-05
1.1208661e-05
1.1520315e-05
1.1845465e-05
1.2204573e-05
1.2616068e-05
1.309477e-05
1.3652468e-05
1.4298635e-05
1.5041677e-05
1.5891018e-05
1.6857846e-05
1.7955417e-05
1.9199948e-05
2.0610423e-05
2.2215683e-05
2.4054765e-05
2.6176308e-05
2.8642987e-05
3.1532085e-05
3.4985681e-05
3.9185613e-05
4.4374691e-05
5.091002e-05
5.9337233e-05
7.0440944e-05
8.5490927e-05
0.00010669362
0.00013746062
0.00018364139
0.00025621639
0.00037237592
0.00056448333
0.0008936919
0.0014454409
0.0023971251
0.0039959072
0.0064551238
0.0098826925
0.014269146
0.019455551
0.025129972
0.030926703
0.036540117
0.041774977
0.046530712
0.050766723
0.054478973
0.057686833
0.060423112
0.062727002
0.064639991
0.066203219
0.067455991
0.068434929
0.069173578
0.069702264
0.070048127
0.07023532
0.070285227
0.070216721
0.070046385
0.069788772
0.069456656
0.069061211
0.068612183
0.068118069
0.067586283
0.067023287
0.066434704
0.06582541
0.065199654
0.064561123
0.063913016
0.063258108
0.0625988
0.061937168
0.061275004
0.060613848
0.059955022
0.059299659
0.058648721
0.058003029
0.057363271
0.056730038
0.056103797
0.055485006
0.054873889
0.054270999
0.053676029
0.053090421
0.052512163
0.05194607
0.051386596
0.05083782
0.050352214
0.049498229
9.6716354e-06
9.9282226e-06
1.0198173e-05
1.0461122e-05
1.0708893e-05
1.0943054e-05
1.1172426e-05
1.1409566e-05
1.1667366e-05
1.1957437e-05
1.2289716e-05
1.2672325e-05
1.311187e-05
1.3614206e-05
1.4185192e-05
1.4831138e-05
1.5559164e-05
1.6377264e-05
1.7295816e-05
1.8328714e-05
1.9493493e-05
2.0812285e-05
2.2310449e-05
2.4027602e-05
2.6017242e-05
2.8347773e-05
3.1105289e-05
3.4433472e-05
3.8548877e-05
4.3729151e-05
5.0419341e-05
5.9260499e-05
7.1254079e-05
8.8183708e-05
0.00011290763
0.00015029168
0.00020972726
0.00030626458
0.00046904928
0.00075385224
0.0012388979
0.0020980301
0.0035456407
0.0057712882
0.0088474441
0.012754968
0.017326059
0.022270328
0.027276731
0.032103221
0.036601217
0.040693774
0.044349094
0.047564488
0.050355886
0.052749744
0.054777839
0.056473957
0.057871797
0.059003701
0.059899935
0.060588355
0.061094269
0.061440486
0.061647394
0.061733132
0.061713794
0.061603609
0.061415116
0.061159344
0.060845984
0.060483548
0.060079497
0.059640358
0.059171846
0.05867896
0.058166069
0.057636992
0.05709506
0.056543179
0.055983881
0.05541937
0.054851557
0.054282106
0.053712451
0.053143839
0.05257734
0.052013888
0.051454263
0.050899198
0.050349191
0.049804992
0.049266603
0.048735482
0.048210212
0.047695052
0.047186013
0.046685558
0.046246489
0.045467716
9.4564738e-06
9.6638947e-06
9.8822596e-06
1.0095953e-05
1.0296923e-05
1.0483609e-05
1.0659761e-05
1.0832316e-05
1.100929e-05
1.1198735e-05
1.1408298e-05
1.1644814e-05
1.1914125e-05
1.2221198e-05
1.257045e-05
1.296605e-05
1.3412146e-05
1.3913043e-05
1.4473626e-05
1.5099901e-05
1.5799295e-05
1.6581088e-05
1.7455984e-05
1.8438134e-05
1.9546479e-05
2.0805481e-05
2.2244422e-05
2.390471e-05
2.5847969e-05
2.815326e-05
3.0924232e-05
3.4341644e-05
3.8660407e-05
4.4253364e-05
5.1704017e-05
6.1852334e-05
7.6262257e-05
9.7471787e-05
0.00012990136
0.00018226827
0.00026852941
0.00041756481
0.00068350254
0.0011423148
0.0019760618
0.0033703193
0.0054743396
0.0083395436
0.011913917
0.01600967
0.020357581
0.024702213
0.028860653
0.032724497
0.036237568
0.039377651
0.042145103
0.044554273
0.046627469
0.048391093
0.049873092
0.05110134
0.052102621
0.052902081
0.053522919
0.053986275
0.054311261
0.054515047
0.054612973
0.05461869
0.05454431
0.054400563
0.054196931
0.053941773
0.053642454
0.05330546
0.052936493
0.052540565
0.052122081
0.051684904
0.051232423
0.050767609
0.050293062
0.049811059
0.049323586
0.048832384
0.048338966
0.047844665
0.047350623
0.046857889
0.046367272
0.045879754
0.045395661
0.044916515
0.044441451
0.043974278
0.04351236
0.043056835
0.042660244
0.041950209
9.2575652e-06
9.4265967e-06
9.6046038e-06
9.7799089e-06
9.9455971e-06
1.0099089e-05
1.0241617e-05
1.0376796e-05
1.0509238e-05
1.0643951e-05
1.0786137e-05
1.09409e-05
1.111301e-05
1.1306766e-05
1.1526011e-05
1.1774226e-05
1.2054593e-05
1.2370138e-05
1.2723913e-05
1.3119228e-05
1.3559864e-05
1.405032e-05
1.4595807e-05
1.5202632e-05
1.5878774e-05
1.6634444e-05
1.7481979e-05
1.8436982e-05
1.9520963e-05
2.0762249e-05
2.2195241e-05
2.3871978e-05
2.5865978e-05
2.8276815e-05
3.1240431e-05
3.5009211e-05
3.9923132e-05
4.6515791e-05
5.5581121e-05
6.8590691e-05
8.7934809e-05
0.00011798945
0.00016748067
0.00025021704
0.00039774621
0.00066310963
0.0011406143
0.0020017541
0.0034108946
0.0054732241
0.0082114774
0.011533054
0.015233535
0.019072737
0.022851054
0.026436451
0.029752642
0.032760934
0.035448039
0.037817385
0.039882606
0.041663201
0.043181607
0.044461297
0.045525537
0.046396634
0.047095515
0.047641526
0.048052346
0.048344003
0.048530929
0.048626065
0.048640972
0.048585939
0.048470102
0.048301563
0.048087495
0.047834242
0.047547406
0.047231932
0.046892185
0.046532006
0.046154783
0.045763494
0.045360761
0.04494889
0.044529906
0.044105598
0.043677523
0.043247097
0.042815478
0.042383919
0.041953095
0.041524633
0.041098201
0.040677253
0.040260335
0.039847555
0.039490622
0.038844698
9.0708528e-06
9.2097513e-06
9.3560313e-06
9.501004e-06
9.639003e-06
9.767295e-06
9.885941e-06
9.9967862e-06
1.0102438e-05
1.0205848e-05
1.0310251e-05
1.0419048e-05
1.0535682e-05
1.066351e-05
1.0805727e-05
1.0965326e-05
1.1145047e-05
1.1347418e-05
1.1574836e-05
1.1829657e-05
1.2114306e-05
1.2431418e-05
1.2783922e-05
1.3175159e-05
1.3609081e-05
1.4090548e-05
1.4625432e-05
1.5220842e-05
1.5885864e-05
1.6632332e-05
1.7474617e-05
1.8431874e-05
1.9530204e-05
2.0804514e-05
2.2298066e-05
2.408175e-05
2.6252466e-05
2.8939868e-05
3.2368821e-05
3.6883998e-05
4.3000143e-05
5.1517418e-05
6.3934548e-05
8.2623171e-05
0.00011241905
0.00016215357
0.00024821609
0.00040603274
0.0006902112
0.0012208181
0.0021544101
0.0036272628
0.0057027446
0.0083604494
0.011465326
0.014811791
0.018200589
0.021485173
0.024573879
0.027414884
0.029983691
0.032274414
0.03429308
0.036052963
0.037571414
0.038867724
0.039961746
0.040873012
0.041620202
0.042220825
0.042691066
0.043045736
0.043298284
0.043460846
0.043544326
0.043558482
0.043512029
0.043412728
0.043267483
0.043082422
0.042862983
0.042613982
0.042339683
0.042043859
0.041729844
0.041400589
0.041058696
0.040706476
0.040345955
0.039978968
0.039607067
0.039231821
0.038854277
0.03847622
0.03809783
0.037722311
0.037349233
0.036977971
0.036658874
0.036073907
8.8932652e-06
9.0083301e-06
9.1295036e-06
9.2503139e-06
9.3661975e-06
9.4745757e-06
9.5749609e-06
9.6682549e-06
9.755963e-06
9.8398422e-06
9.9218489e-06
1.0004104e-05
1.0088859e-05
1.0178458e-05
1.0275287e-05
1.0381721e-05
1.0500044e-05
1.0632414e-05
1.0780881e-05
1.0947397e-05
1.1133855e-05
1.1342149e-05
1.1574246e-05
1.1832243e-05
1.211846e-05
1.2435563e-05
1.2786687e-05
1.3175515e-05
1.360651e-05
1.4085267e-05
1.4618602e-05
1.5215047e-05
1.5885641e-05
1.664491e-05
1.7510573e-05
1.850762e-05
1.9670613e-05
2.1043162e-05
2.2691331e-05
2.4712609e-05
2.7239416e-05
3.0486357e-05
3.4819069e-05
4.0754136e-05
4.9176618e-05
6.1637754e-05
8.0830454e-05
0.0001124191
0.00016596605
0.00026261001
0.00044195326
0.00077422094
0.0013952624
0.0024433966
0.0040105382
0.0061228833
0.0087062137
0.011597232
0.014609596
0.017591195
0.020440083
0.023094755
0.025522079
0.027708607
0.029653942
0.031365936
0.032857397
0.03414384
0.035241983
0.03616876
0.036940687
0.037573478
0.038081829
0.038479316
0.038778357
0.038990235
0.039125149
0.039192278
0.039199855
0.039155249
0.039065039
0.038935091
0.038770625
0.038576285
0.038356195
0.03811402
0.037853011
0.03757606
0.037285725
0.03698431
0.036673806
0.036356149
0.036032786
0.03570571
0.035375607
0.035045528
0.034715941
0.034385753
0.034103491
0.033577541
8.7225118e-06
8.818567e-06
8.9197147e-06
9.021122e-06
9.1191453e-06
9.2114649e-06
9.297334e-06
9.3771154e-06
9.4516871e-06
9.5221378e-06
9.5896883e-06
9.6556582e-06
9.721461e-06
9.7886121e-06
9.8587305e-06
9.9335211e-06
1.0014719e-05
1.0104048e-05
1.0203208e-05
1.0313848e-05
1.043756e-05
1.057589e-05
1.0730371e-05
1.090255e-05
1.1094033e-05
1.1306544e-05
1.1541996e-05
1.180255e-05
1.2090702e-05
1.2409433e-05
1.2762314e-05
1.3153667e-05
1.358884e-05
1.4074652e-05
1.4619452e-05
1.5234013e-05
1.5932786e-05
1.6733966e-05
1.766215e-05
1.8752047e-05
2.0049288e-05
2.1618921e-05
2.3563966e-05
2.6020783e-05
2.9221629e-05
3.3551898e-05
3.9580604e-05
4.8345013e-05
6.1543872e-05
8.2589803e-05
0.00011808554
0.0001803453
0.0002972883
0.00051373347
0.00093136782
0.001679617
0.0028678121
0.0045476799
0.0066913383
0.0091773446
0.011840163
0.014530022
0.017139722
0.019601252
0.021875153
0.023942126
0.025796584
0.027441875
0.028886934
0.030143976
0.031226914
0.032150297
0.032928628
0.033575917
0.034105421
0.034529496
0.034859538
0.035105969
0.035278264
0.035384994
0.035433885
0.035431878
0.035385195
0.035299406
0.035179484
0.03502987
0.034854523
0.034656976
0.034440373
0.034207542
0.033960962
0.033702978
0.033435477
0.033160709
0.032879865
0.032595935
0.03231018
0.032021289
0.03177555
0.031307709
8.5568941e-06
8.6376616e-06
8.7227038e-06
8.8084004e-06
8.8918598e-06
8.9710517e-06
9.0451225e-06
9.1141074e-06
9.178494e-06
9.2389726e-06
9.2963438e-06
9.3514682e-06
9.4052519e-06
9.4586589e-06
9.5127327e-06
9.5686076e-06
9.6274896e-06
9.6906384e-06
9.7593529e-06
9.834948e-06
9.9187305e-06
1.0011986e-05
1.0115981e-05
1.0231969e-05
1.0361206e-05
1.0504975e-05
1.0664622e-05
1.0841593e-05
1.103748e-05
1.1254083e-05
1.149348e-05
1.1758107e-05
1.2050863e-05
1.2375304e-05
1.2735754e-05
1.3137543e-05
1.3587518e-05
1.4094272e-05
1.4668782e-05
1.5325736e-05
1.6084245e-05
1.6969392e-05
1.8017769e-05
1.927717e-05
2.0817819e-05
2.2750482e-05
2.5220895e-05
2.8505484e-05
3.301816e-05
3.9458576e-05
4.9030768e-05
6.3847068e-05
8.8519555e-05
0.00013095606
0.00020966849
0.00035867174
0.00064626324
0.0011874436
0.0020954868
0.0034376922
0.0052193831
0.0073555511
0.0097039168
0.012122239
0.014502297
0.016772502
0.018889242
0.020828997
0.022582217
0.024148656
0.025534055
0.026747817
0.027801402
0.028707238
0.029477989
0.030126088
0.030663433
0.031101224
0.031449865
0.031718934
0.031917188
0.032052587
0.032132335
0.032162934
0.032150234
0.032099489
0.032015408
0.031902218
0.031763692
0.031603231
0.031423848
0.031228344
0.031019077
0.030798609
0.030568639
0.030332182
0.030091211
0.02984442
0.02963549
0.029225741
8.3951584e-06
8.4635351e-06
8.5355215e-06
8.6083953e-06
8.6798726e-06
8.7482112e-06
8.8125399e-06
8.8726935e-06
8.9289005e-06
8.9815888e-06
9.0312972e-06
9.0786172e-06
9.1241637e-06
9.1685753e-06
9.2125297e-06
9.2567623e-06
9.3020674e-06
9.3493e-06
9.3993767e-06
9.4532651e-06
9.5119656e-06
9.5764958e-06
9.6478801e-06
9.7271445e-06
9.8153136e-06
9.9134169e-06
1.0022503e-05
1.0143656e-05
1.0278017e-05
1.0426819e-05
1.059142e-05
1.0773347e-05
1.0974349e-05
1.1196482e-05
1.1442187e-05
1.1714387e-05
1.2016684e-05
1.2353526e-05
1.2730432e-05
1.315446e-05
1.3634656e-05
1.4182459e-05
1.4813414e-05
1.5547753e-05
1.6412492e-05
1.7447529e-05
1.870361e-05
2.0262679e-05
2.2246082e-05
2.4822636e-05
2.8331288e-05
3.3247209e-05
4.0484027e-05
5.1476167e-05
6.9329949e-05
9.9866849e-05
0.00015531327
0.00026165193
0.0004657924
0.00086547793
0.0015689243
0.0026519577
0.0041413678
0.0059819095
0.0080539947
0.010225815
0.012391304
0.014477767
0.016439358
0.018249848
0.019896863
0.021377416
0.022694696
0.023855773
0.024870018
0.025747996
0.026500736
0.027139236
0.027674148
0.028115588
0.028473023
0.028755222
0.028970246
0.029125452
0.029227533
0.02928255
0.029295976
0.02927275
0.029217312
0.029133671
0.02902541
0.028895828
0.028747786
0.028584203
0.028407299
0.028220192
0.028025501
0.027822128
0.027650813
0.027299936
8.2363862e-06
8.2946458e-06
8.3559699e-06
8.418301e-06
8.479842e-06
8.5391205e-06
8.5953012e-06
8.6481033e-06
8.6975806e-06
8.7439771e-06
8.7876509e-06
8.8290185e-06
8.8685191e-06
8.9066024e-06
8.943733e-06
8.9804014e-06
9.0171299e-06
9.0544812e-06
9.0930686e-06
9.1335575e-06
9.17666e-06
9.223126e-06
9.2737357e-06
9.3292922e-06
9.390613e-06
9.4585278e-06
9.5338801e-06
9.6175309e-06
9.7103671e-06
9.8133159e-06
9.9273616e-06
1.0053568e-05
1.0193107e-05
1.0347298e-05
1.0517653e-05
1.0705927e-05
1.0914203e-05
1.1144986e-05
1.1401311e-05
1.1686923e-05
1.2006513e-05
1.2365902e-05
1.27726e-05
1.3236259e-05
1.3769198e-05
1.4388459e-05
1.5115716e-05
1.5981654e-05
1.7030809e-05
1.8319829e-05
1.9948399e-05
2.2051951e-05
2.4859169e-05
2.8756102e-05
3.4403635e-05
4.2915884e-05
5.6417994e-05
7.9375569e-05
0.00012015167
0.00019878581
0.00034920493
0.00065147121
0.0012050727
0.0020915681
0.0033490099
0.0049441778
0.0067776932
0.0087295373
0.010698188
0.012611873
0.014424105
0.016107211
0.017646973
0.019038431
0.020282799
0.021385268
0.022353458
0.023196342
0.023923513
0.024544689
0.025069393
0.025506743
0.025865334
0.026153174
0.026377657
0.02654557
0.026663106
0.0267359
0.026769058
0.026767213
0.026734538
0.026674861
0.026591571
0.026487985
0.026366854
0.026231468
0.026085043
0.025926869
0.025794437
0.02550393
8.0799132e-06
8.129855e-06
8.1824104e-06
8.2360156e-06
8.2892597e-06
8.3409136e-06
8.3902078e-06
8.4368032e-06
8.4806391e-06
8.5218283e-06
8.5605971e-06
8.5972366e-06
8.6320672e-06
8.6654203e-06
8.6976342e-06
8.7290568e-06
8.7600474e-06
8.7909838e-06
8.8222731e-06
8.8543584e-06
8.8877214e-06
8.9228816e-06
8.9603952e-06
9.0008518e-06
9.044869e-06
9.0930881e-06
9.1461726e-06
9.2048057e-06
9.2696915e-06
9.3415593e-06
9.4211697e-06
9.5093241e-06
9.6068789e-06
9.7147642e-06
9.8340076e-06
9.965763e-06
1.011135e-05
1.0272303e-05
1.0450432e-05
1.0647901e-05
1.0867345e-05
1.1111977e-05
1.1385793e-05
1.1693828e-05
1.2042356e-05
1.2439615e-05
1.2896064e-05
1.3425437e-05
1.40469e-05
1.4784412e-05
1.5674465e-05
1.676667e-05
1.8133877e-05
1.9890899e-05
2.2208981e-05
2.5392262e-05
2.9939308e-05
3.6769329e-05
4.7391798e-05
6.5299161e-05
9.6618817e-05
0.00015662551
0.00027305754
0.00050829614
0.00095341152
0.0016906596
0.0027647958
0.0041582073
0.005788139
0.0075461653
0.0093366931
0.011090386
0.01276138
0.014321597
0.015755811
0.01705774
0.018227146
0.019267741
0.020185716
0.020988699
0.021685044
0.022283342
0.022792101
0.023219536
0.02357344
0.023861114
0.024089334
0.024264343
0.024391865
0.024477131
0.024524899
0.024539534
0.024524964
0.024484933
0.02442273
0.024341876
0.024246141
0.024135361
0.024043493
0.023815492
7.9252688e-06
7.9683272e-06
8.0136241e-06
8.0599629e-06
8.1062374e-06
8.1514312e-06
8.1948555e-06
8.2361511e-06
8.2751858e-06
8.3119807e-06
8.3466648e-06
8.3794343e-06
8.4105214e-06
8.4401749e-06
8.4686509e-06
8.49621e-06
8.5231157e-06
8.5496363e-06
8.5760525e-06
8.6026633e-06
8.629791e-06
8.6577839e-06
8.6870199e-06
8.717908e-06
8.7508871e-06
8.7864252e-06
8.8250179e-06
8.8671869e-06
8.9134778e-06
8.9644615e-06
9.0207337e-06
9.0829186e-06
9.1516741e-06
9.2277e-06
9.3117493e-06
9.404643e-06
9.5072901e-06
9.6207129e-06
9.7460794e-06
9.8847444e-06
1.0038307e-05
1.0208672e-05
1.0398142e-05
1.0609546e-05
1.0846349e-05
1.1112923e-05
1.1414764e-05
1.1758809e-05
1.2154314e-05
1.2612864e-05
1.315044e-05
1.3788521e-05
1.4556334e-05
1.5496577e-05
1.6668428e-05
1.8166185e-05
2.0131437e-05
2.2798602e-05
2.657107e-05
3.2203286e-05
4.0872714e-05
5.5275811e-05
8.0385579e-05
0.0001280042
0.00022119382
0.00041019693
0.00077713687
0.0014017876
0.0023321898
0.0035611373
0.0050188917
0.0066076914
0.0082385721
0.0098456998
0.011384811
0.012828246
0.014160452
0.015374378
0.016468771