/*--------------------------------*- C++ -*----------------------------------*\
| =========                 |                                                 |
| \\      /  F ield         | OpenFOAM: The Open Source CFD Toolbox           |
|  \\    /   O peration     | Version:  2206                                  |
|   \\  /    A nd           | Website:  www.openfoam.com                      |
|    \\/     M anipulation  |                                                 |
\*---------------------------------------------------------------------------*/
FoamFile
{
    version     2.0;
    format      ascii;
    arch        "LSB;label=32;scalar=64";
    class       volScalarField;
    location    "1400";
    object      k;
}
// * * * * * * * * * * * * * * * * * * * * * * * * * * * * * * * * * * * * * //

dimensions      [0 2 -2 0 0 0 0];

internalField   nonuniform List<scalar> 
7480
(
0.032179188
0.062205194
0.068877359
0.063427571
0.054871042
0.047508661
0.042201534
0.038374812
0.03543805
0.033045018
0.031038208
0.02934406
0.027912773
0.026702471
0.025676934
0.02480337
0.024056723
0.023417482
0.022867046
0.022391989
0.021974775
0.021604577
0.021272079
0.020969651
0.020692229
0.020435645
0.020197003
0.019973445
0.019762416
0.019561778
0.019370323
0.01918725
0.019011685
0.018842904
0.018680085
0.018522807
0.018369996
0.018221417
0.018076701
0.017935412
0.017797242
0.017661911
0.017529206
0.017398985
0.017271082
0.017145375
0.017021703
0.016899894
0.016779852
0.016661475
0.01654468
0.016429418
0.016315621
0.016203255
0.016092256
0.01598258
0.01587419
0.015767027
0.015661033
0.015556169
0.015452433
0.015349811
0.015248275
0.015147801
0.015048374
0.014949975
0.014852573
0.014756145
0.014660676
0.014566155
0.014472566
0.014379892
0.01428812
0.014197241
0.01410724
0.014018099
0.013929804
0.013842341
0.013755695
0.013669853
0.013584799
0.013500518
0.013416995
0.01333421
0.013252144
0.013170773
0.013090074
0.013010007
0.012930548
0.012851614
0.012773211
0.01269508
0.012617465
0.012539346
0.012462184
0.012381888
0.012304327
0.01221531
0.012144045
0.012007386
0.0025364706
0.0095623571
0.016656599
0.020687097
0.021734542
0.021465414
0.020831121
0.020182869
0.019550412
0.018921707
0.018312635
0.017748258
0.017242656
0.016797975
0.016410996
0.016068886
0.015770609
0.015514621
0.01529539
0.015104583
0.014935748
0.014783204
0.014642309
0.014510492
0.01438665
0.014269446
0.014158512
0.014051929
0.013948407
0.013847164
0.013748245
0.013651658
0.013557179
0.013464662
0.013373587
0.013284149
0.013195332
0.013107566
0.013020748
0.012934665
0.012849195
0.012764293
0.012679953
0.012596169
0.012512927
0.012430237
0.012348018
0.012266228
0.012184858
0.0121039
0.012023373
0.011943285
0.011863644
0.011784469
0.011705746
0.011627497
0.01154972
0.011472399
0.011395515
0.011319076
0.011243113
0.011167643
0.011092666
0.011018187
0.010944216
0.01087076
0.010797808
0.010725358
0.01065342
0.010582001
0.010511101
0.01044072
0.010370861
0.010301532
0.01023273
0.010164452
0.010096696
0.010029463
0.0099627495
0.0098965548
0.0098308757
0.0097657088
0.0097010496
0.0096368925
0.009573231
0.0095100562
0.0094473577
0.0093851212
0.0093233299
0.0092619585
0.0092009809
0.0091403399
0.0090800083
0.0090198071
0.0089598077
0.0088993103
0.0088388649
0.0087754215
0.0087190182
0.008616831
0.00022755949
0.0005779397
0.0013128501
0.0026343407
0.004208899
0.0058223454
0.0072755799
0.0085097817
0.0095742
0.010502611
0.011299387
0.011959747
0.012487717
0.012900537
0.013221639
0.013479066
0.013688089
0.013857087
0.01399211
0.014097724
0.014178215
0.014237034
0.01427631
0.014299644
0.014310004
0.014308752
0.014300696
0.014284281
0.014260489
0.014229956
0.014194349
0.014154573
0.014111167
0.01406474
0.014015112
0.013963361
0.013908272
0.013851387
0.013792586
0.013731931
0.013669566
0.013605679
0.013540472
0.013474103
0.013406721
0.013338476
0.013269368
0.013199479
0.013128896
0.013057698
0.012985997
0.012913868
0.01284139
0.012768641
0.012695655
0.012622509
0.012549242
0.012475874
0.012402416
0.012328919
0.012255449
0.012182055
0.012108761
0.012035598
0.011962602
0.011889799
0.011817195
0.011744808
0.011672668
0.011600798
0.011529212
0.011457923
0.01138695
0.011316314
0.011246022
0.011176081
0.011106501
0.011037291
0.01096846
0.010900013
0.010831957
0.010764296
0.010697033
0.01063017
0.010563707
0.010497644
0.010431976
0.010366699
0.010301798
0.010237268
0.010173071
0.010109208
0.01004557
0.0099822132
0.0099188037
0.0098555792
0.0097915666
0.0097267875
0.0096663371
0.0095606781
0.00016816838
0.00018056656
0.00021131089
0.00029158539
0.00045683662
0.00070121836
0.0011549315
0.0017923128
0.0026161947
0.0035365135
0.0044942444
0.0054742083
0.0064639014
0.0074404358
0.0083724151
0.0092310966
0.0099982701
0.010668666
0.011247483
0.011744521
0.012169662
0.012531637
0.012838665
0.013097395
0.013314412
0.013494771
0.013643988
0.013766683
0.013866223
0.013946252
0.014009342
0.014057869
0.014093788
0.014119084
0.014134665
0.014142357
0.014140178
0.014132025
0.014117136
0.014096503
0.014070692
0.014040256
0.014005706
0.01396747
0.013925954
0.01388152
0.0138343
0.013784591
0.013732617
0.013678596
0.013622764
0.013565303
0.013506396
0.013446208
0.013384843
0.01332246
0.013259155
0.013195001
0.013130059
0.013064434
0.012998243
0.012931573
0.012864486
0.012797048
0.01272933
0.012661384
0.012593241
0.012524944
0.012456549
0.012388098
0.012319626
0.012251165
0.012182749
0.012114418
0.012046192
0.011978093
0.011910143
0.011842364
0.011774775
0.011707395
0.011640238
0.011573319
0.011506651
0.011440244
0.011374108
0.011308248
0.011242669
0.011177375
0.01111236
0.011047628
0.010983145
0.010918942
0.01085488
0.01079113
0.010727185
0.010663725
0.010599111
0.010534879
0.010473405
0.010368543
0.00017136215
0.00017401239
0.00017607808
0.00017848403
0.00018475746
0.00019705201
0.00022699852
0.00029097385
0.00039794887
0.00059964554
0.00091576723
0.0013528768
0.0019230627
0.0025911192
0.0033470334
0.0041826033
0.0050806403
0.0060111578
0.0069360118
0.0078182951
0.0086315336
0.0093634579
0.010013386
0.010586223
0.0110885
0.011526485
0.01190677
0.012236043
0.012520975
0.012767043
0.01297882
0.013160484
0.013315722
0.013447451
0.01355864
0.013652308
0.013729221
0.013791947
0.01384207
0.013880673
0.013908898
0.013927916
0.013938707
0.0139421
0.013938897
0.013929806
0.013915317
0.01389584
0.013871778
0.013843566
0.013811643
0.013776343
0.013737985
0.013696869
0.01365324
0.013607385
0.013559478
0.013509677
0.013458111
0.013404972
0.013350446
0.013294678
0.013237779
0.013179873
0.013121075
0.013061478
0.013001144
0.012940157
0.012878605
0.01281656
0.012754084
0.012691231
0.012628064
0.012564645
0.012501013
0.012437207
0.01237327
0.012309238
0.012245147
0.01218103
0.012116914
0.012052829
0.011988798
0.011924843
0.011860984
0.011797239
0.011733622
0.011670147
0.011606817
0.01154365
0.011480616
0.011417772
0.011354968
0.011292448
0.011229619
0.011167427
0.011103876
0.011041452
0.010980822
0.010878807
0.00017356282
0.00017835225
0.00018062065
0.00018132452
0.00018146486
0.00018135622
0.00018150558
0.00018285392
0.00018721819
0.00019956467
0.00022741805
0.00028012074
0.00036562981
0.00051731532
0.00075083586
0.0010878429
0.0015383756
0.0020947443
0.002756695
0.0035174938
0.0043573575
0.0052429536
0.0061336211
0.0069918547
0.0077919855
0.0085220458
0.009180051
0.0097687984
0.01029284
0.01075731
0.011167649
0.011529364
0.011847643
0.012127063
0.012371842
0.01258617
0.012772932
0.012935203
0.013075717
0.013196751
0.013300348
0.013388228
0.013461972
0.013523006
0.013572535
0.013611639
0.013641439
0.013662815
0.013676574
0.013683414
0.01368395
0.013678713
0.013668235
0.013652994
0.013633428
0.013610009
0.013583004
0.013552692
0.013519351
0.013483275
0.013444705
0.013403865
0.013360939
0.013316108
0.013269568
0.013221473
0.013171932
0.013121084
0.013069062
0.013015975
0.012961923
0.012906994
0.012851285
0.012794888
0.012737868
0.01268029
0.012622219
0.012563714
0.012504831
0.012445621
0.012386132
0.012326406
0.012266485
0.012206405
0.0121462
0.012085901
0.012025534
0.011965127
0.011904693
0.011844265
0.011783823
0.011723444
0.011662978
0.011602722
0.011542044
0.01148205
0.011420575
0.011360693
0.011302007
0.011203977
0.00017334538
0.00017975825
0.0001838556
0.00018582106
0.00018634169
0.00018615714
0.00018557995
0.00018477688
0.00018406092
0.00018337498
0.0001837034
0.0001854717
0.00019045457
0.00020231484
0.00022612022
0.00026974899
0.00033987587
0.00046325284
0.00065914771
0.00094941277
0.001350602
0.0018623993
0.0024862809
0.0032131031
0.0040188465
0.004866825
0.0057162648
0.0065331884
0.0072967712
0.0079984542
0.0086369902
0.0092142003
0.0097332124
0.010197988
0.01061299
0.010982953
0.01131204
0.011604198
0.011863155
0.012092252
0.012294491
0.01247253
0.01262875
0.012765305
0.012884097
0.012986811
0.013075036
0.013150165
0.013213442
0.013265969
0.013308717
0.0133426
0.013368385
0.013386772
0.013398419
0.013403852
0.013403667
0.013398361
0.013388392
0.013374138
0.013355957
0.01333418
0.013309088
0.013280966
0.013250098
0.013216707
0.013180959
0.013143068
0.013103215
0.013061574
0.013018301
0.01297354
0.012927409
0.01288003
0.012831511
0.012781953
0.012731451
0.012680092
0.012627959
0.012575126
0.012521663
0.012467636
0.012413104
0.012358123
0.012302743
0.012247013
0.012190975
0.01213467
0.012078128
0.012021394
0.011964464
0.011907431
0.011850159
0.011792973
0.011735245
0.011678162
0.011619517
0.011562725
0.011506737
0.01141352
0.00017168161
0.00017859256
0.00018375658
0.00018671362
0.00018806803
0.00018854419
0.00018837342
0.00018792457
0.00018723623
0.00018640987
0.00018556937
0.00018480064
0.00018419134
0.00018388303
0.00018440609
0.0001865412
0.00019169784
0.00020283281
0.00022455311
0.00026423637
0.00032967685
0.0004458458
0.00063470429
0.00091800248
0.0013122456
0.0018205171
0.0024414428
0.003159834
0.0039454229
0.0047588422
0.0055626377
0.0063301295
0.0070472952
0.0077090014
0.0083144748
0.0088650797
0.0093634051
0.0098128746
0.010217284
0.010580402
0.010905861
0.011197074
0.011457186
0.011689098
0.011895445
0.012078599
0.012240749
0.012383872
0.012509748
0.01261997
0.012715958
0.012799007
0.012870264
0.012930759
0.012981437
0.013023113
0.013056585
0.013082567
0.01310171
0.013114586
0.013121711
0.013123561
0.013120583
0.013113152
0.013101604
0.01308628
0.013067513
0.013045565
0.013020687
0.012993119
0.012963078
0.012930768
0.012896361
0.012860033
0.01282193
0.012782197
0.012740968
0.012698365
0.012654503
0.012609488
0.012563417
0.012516384
0.01246847
0.012419756
0.012370314
0.01232021
0.012269508
0.012218265
0.012166531
0.012114366
0.012061783
0.012008893
0.011955577
0.011902182
0.011848103
0.011794562
0.011739391
0.011686178
0.011633469
0.011545777
0.00016920107
0.00017586811
0.0001814478
0.00018513781
0.00018714707
0.00018801573
0.00018820902
0.00018806635
0.00018773295
0.00018726447
0.00018669956
0.00018604314
0.000185323
0.00018460987
0.00018395321
0.00018336603
0.00018290589
0.00018285287
0.00018368528
0.00018636435
0.00019208097
0.00020387974
0.00022684626
0.00026835089
0.00034051578
0.00046746676
0.000673791
0.00098099794
0.0013997112
0.0019333446
0.0025735221
0.0032959709
0.0040643216
0.0048403685
0.0055942801
0.0063084737
0.0069749396
0.0075908458
0.0081559481
0.0086716549
0.009140492
0.0095655145
0.0099499183
0.010296906
0.010609585
0.010890874
0.011143518
0.011370067
0.011572856
0.011754017
0.011915471
0.012058972
0.012186103
0.012298289
0.012396829
0.012482879
0.012557513
0.012621711
0.012676368
0.012722285
0.012760183
0.012790718
0.012814499
0.012832064
0.01284389
0.012850436
0.012852139
0.012849377
0.012842496
0.01283182
0.012817646
0.012800249
0.012779878
0.01275675
0.012731084
0.012703075
0.012672901
0.012640731
0.012606718
0.012571007
0.012533731
0.012495014
0.012454969
0.012413704
0.012371316
0.012327898
0.012283535
0.012238307
0.012192283
0.012145544
0.012098124
0.012050149
0.012001525
0.011952612
0.011902849
0.011853456
0.011802357
0.011753207
0.011704277
0.011622782
0.00016645729
0.00017242731
0.00017786344
0.00018192883
0.00018450239
0.00018589007
0.00018649844
0.00018664553
0.00018652915
0.00018626178
0.0001858981
0.00018546139
0.00018496319
0.00018441866
0.00018383759
0.00018322302
0.00018261092
0.00018200305
0.00018144144
0.00018100267
0.00018080862
0.00018114029
0.0001825705
0.00018610195
0.00019341517
0.00020805713
0.00023636471
0.00028630133
0.00037786466
0.00053529972
0.00078291603
0.0011381977
0.001607098
0.0021857845
0.0028543764
0.0035792631
0.0043228494
0.0050543527
0.0057545347
0.0064136923
0.007027569
0.0075947915
0.0081158607
0.0085925353
0.0090272324
0.0094226459
0.009781591
0.010106872
0.010401192
0.01066711
0.010907004
0.011123079
0.011317367
0.011491719
0.011647831
0.011787237
0.011911345
0.012021447
0.012118726
0.012204255
0.012279001
0.012343843
0.012399589
0.012446966
0.012486629
0.012519183
0.012545202
0.012565196
0.01257963
0.012588935
0.012593504
0.012593701
0.012589858
0.012582273
0.012571228
0.012556984
0.012539778
0.012519831
0.012497349
0.01247252
0.01244552
0.012416513
0.012385648
0.012353067
0.012318899
0.012283266
0.012246279
0.012208046
0.012168658
0.012128222
0.012086792
0.012044515
0.012001327
0.011957595
0.011912813
0.011868177
0.011821741
0.011777158
0.011732475
0.01165785
0.00016383325
0.00016892
0.00017382999
0.000177871
0.00018078022
0.00018263034
0.00018367419
0.00018417889
0.00018434156
0.00018429012
0.00018410324
0.00018382594
0.00018348314
0.00018309017
0.00018265732
0.00018218944
0.00018169509
0.00018117559
0.00018062567
0.00018007125
0.00017952782
0.00017902266
0.00017861923
0.00017840995
0.00017857831
0.00017949643
0.00018197145
0.00018715632
0.00019772259
0.00021869517
0.0002575678
0.00032907534
0.00045741769
0.00066818327
0.00098203376
0.0014071422
0.0019423057
0.0025699568
0.0032581119
0.0039702027
0.0046759852
0.0053561946
0.0060005802
0.0066041233
0.0071647538
0.0076823845
0.0081582361
0.0085942424
0.0089927054
0.0093561057
0.0096869484
0.0099876873
0.010260672
0.01050811
0.010732066
0.010934442
0.011116998
0.011281361
0.011429032
0.011561383
0.011679664
0.01178501
0.011878466
0.011960981
0.012033413
0.012096552
0.012151134
0.012197825
0.012237235
0.012269921
0.012296396
0.01231713
0.012332557
0.012343067
0.012349026
0.01235077
0.012348608
0.012342827
0.012333691
0.012321445
0.012306315
0.012288513
0.012268231
0.012245652
0.012220942
0.012194258
0.012165744
0.012135538
0.012103762
0.012070545
0.012035971
0.01200021
0.011963227
0.0119254
0.011886284
0.011847043
0.011805873
0.011766392
0.011726424
0.01165936
0.00016151816
0.0001657231
0.00016993691
0.00017364791
0.00017659482
0.00017872355
0.0001801376
0.0001810061
0.00018148491
0.00018169357
0.00018171818
0.00018161641
0.00018142543
0.0001811689
0.00018086286
0.00018051782
0.00018014119
0.00017973763
0.00017930712
0.00017885416
0.00017838235
0.00017789412
0.0001773934
0.00017690898
0.00017646518
0.00017610611
0.00017592319
0.00017605147
0.00017678421
0.0001787471
0.00018298599
0.00019156597
0.00020876446
0.00024166603
0.00030277237
0.00041582074
0.00060679573
0.00089740896
0.0012972804
0.0018058795
0.0024057962
0.0030653805
0.0037492792
0.0044289541
0.0050863412
0.0057115118
0.0062992807
0.0068473201
0.0073552603
0.0078239844
0.0082550814
0.0086505457
0.0090125702
0.0093434007
0.0096452601
0.0099202875
0.010170519
0.010397877
0.010604162
0.010791043
0.01096006
0.011112628
0.011250049
0.011373519
0.011484128
0.011582875
0.011670688
0.011748414
0.011816827
0.011876638
0.011928497
0.011973006
0.012010714
0.012042122
0.012067695
0.012087861
0.012103014
0.012113517
0.012119706
0.012121892
0.012120363
0.012115385
0.012107203
0.012096047
0.012082129
0.012065645
0.01204678
0.012025705
0.012002577
0.011977556
0.011950759
0.011922377
0.011892416
0.011861258
0.011828531
0.011795355
0.011760083
0.011726282
0.011691515
0.011632744
0.00015956088
0.00016298405
0.0001664911
0.00016972009
0.0001724656
0.00017464177
0.0001762646
0.00017741276
0.00017818072
0.00017865633
0.00017891425
0.00017901228
0.00017899277
0.00017888567
0.00017871243
0.00017848852
0.00017822451
0.00017792786
0.00017760286
0.00017725293
0.00017688075
0.00017648806
0.00017607513
0.00017564679
0.00017520843
0.00017476379
0.00017433266
0.00017394415
0.000173638
0.00017349877
0.00017365419
0.00017435656
0.00017614113
0.0001799937
0.00018771505
0.00020329511
0.00023359463
0.00029085681
0.0003985059
0.00058295491
0.00086541388
0.0012559347
0.0017526556
0.0023363118
0.0029746044
0.0036338001
0.004288071
0.0049214079
0.0055247777
0.0060932755
0.0066246685
0.0071185449
0.0075756125
0.0079972371
0.0083851753
0.0087413763
0.0090678656
0.0093666672
0.0096397537
0.0098890136
0.010116229
0.01032307
0.010511092
0.010681739
0.010836345
0.010976137
0.011102252
0.011215737
0.011317554
0.011408584
0.011489641
0.011561471
0.011624762
0.011680143
0.011728193
0.011769449
0.011804402
0.011833507
0.011857186
0.011875824
0.011889782
0.011899391
0.011904958
0.011906769
0.011905088
0.011900159
0.011892212
0.01188146
0.011868098
0.011852324
0.01183429
0.011814214
0.011792145
0.011768475
0.011742904
0.011716512
0.011687809
0.011660314
0.011631264
0.01158157
0.00015793629
0.00016071004
0.00016358517
0.00016630649
0.00016872473
0.00017076621
0.00017241746
0.00017370466
0.00017467087
0.00017536528
0.00017583825
0.00017613548
0.00017629529
0.00017634811
0.00017631769
0.00017622242
0.00017607571
0.00017588749
0.00017566488
0.00017541303
0.00017513568
0.00017483549
0.00017451399
0.00017417277
0.00017381381
0.00017343808
0.000173049
0.00017265295
0.0001722568
0.00017187392
0.00017153927
0.00017129281
0.0001712162
0.00017143819
0.00017219702
0.00017400843
0.00017784303
0.00018549146
0.00020100189
0.00023128198
0.00028985721
0.00040027453
0.00058955066
0.00087685898
0.0012714543
0.0017681204
0.0023440373
0.002966158
0.0036032111
0.0042328656
0.0048415901
0.0054215859
0.005968568
0.0064806291
0.0069574381
0.007399634
0.0078084575
0.0081855003
0.0085325386
0.0088514234
0.0091440074
0.0094121005
0.0096574397
0.0098816749
0.010086356
0.010272928
0.01044274
0.010597046
0.010737004
0.010863684
0.010978074
0.011081084
0.011173557
0.011256264
0.01132992
0.01139518
0.011452652
0.011502896
0.011546428
0.011583726
0.011615231
0.011641352
0.011662467
0.011678927
0.011691054
0.011699153
0.011703502
0.011704364
0.01170198
0.011696587
0.01168838
0.01167761
0.011664371
0.011649069
0.011631481
0.011612646
0.011591233
0.011570721
0.011547951
0.011508175
0.00015659319
0.00015884492
0.00016119169
0.00016345054
0.00016551257
0.00016732349
0.00016886904
0.00017015703
0.00017120321
0.00017202821
0.00017265771
0.00017311957
0.00017344102
0.00017364674
0.00017375818
0.00017379348
0.00017376696
0.00017368982
0.00017357083
0.00017341668
0.00017323237
0.00017302163
0.00017278711
0.00017253073
0.00017225409
0.00017195826
0.00017164444
0.00017131451
0.00017097053
0.00017061505
0.00017025573
0.00016990205
0.00016956603
0.00016928651
0.00016910515
0.00016910655
0.00016942922
0.00017032086
0.00017233525
0.00017646934
0.00018473416
0.0002015636
0.00023426256
0.00029909877
0.0004203089
0.00062514033
0.00092913905
0.0013389409
0.0018438292
0.0024168007
0.0030250821
0.0036411282
0.0042465717
0.0048303565
0.0053860027
0.0059100186
0.0064009445
0.0068586203
0.0072837076
0.0076773824
0.0080411228
0.0083765688
0.0086854247
0.0089693984
0.0092301572
0.0094693015
0.0096883525
0.009888746
0.010071828
0.010238853
0.010390989
0.010529321
0.010654853
0.010768516
0.010871166
0.0109636
0.011046549
0.011120692
0.011186656
0.01124502
0.01129632
0.011341053
0.011379676
0.011412616
0.011440267
0.011462995
0.01148114
0.01149502
0.011504928
0.011511148
0.011513923
0.011513541
0.011510147
0.011504164
0.01149545
0.011485009
0.011471662
0.011458872
0.011442992
0.011414049
0.00015547894
0.00015731638
0.00015923556
0.00016110266
0.00016283508
0.00016439205
0.00016576457
0.00016695845
0.00016798147
0.00016884126
0.00016954784
0.00017011388
0.00017055407
0.00017088396
0.00017111903
0.0001712739
0.00017136124
0.00017139172
0.00017137431
0.00017131627
0.00017122338
0.00017110006
0.00017094974
0.00017077501
0.00017057782
0.0001703596
0.0001701215
0.00016986463
0.00016959008
0.0001692988
0.00016899291
0.00016867548
0.00016834929
0.00016802342
0.00016770912
0.00016742108
0.00016719957
0.00016709189
0.00016719497
0.00016766026
0.00016877321
0.00017118404
0.00017596645
0.00018561342
0.00020532509
0.00024332704
0.00032002647
0.00046126632
0.00069068164
0.0010218284
0.0014551959
0.0019728151
0.0025442856
0.0031390156
0.0037342125
0.0043154289
0.004873912
0.0054045416
0.00590467
0.0063732928
0.0068104638
0.0072169204
0.0075938205
0.0079425695
0.0082646994
0.0085617881
0.008835409
0.0090870983
0.0093183343
0.0095305234
0.009724994
0.0099029937
0.01006569
0.010214171
0.010349447
0.010472458
0.010584074
0.010685103
0.010776293
0.010858335
0.010931873
0.010997499
0.011055765
0.011107181
0.011152219
0.011191321
0.011224894
0.011253318
0.011276947
0.011296119
0.011311128
0.011322309
0.01132986
0.011334228
0.011335353
0.011334211
0.011329774
0.011325507
0.011317185
0.011300075
0.00015454859
0.00015605757
0.00015763486
0.00015918106
0.00016063119
0.00016195191
0.00016313694
0.00016419324
0.00016512874
0.00016594888
0.00016665805
0.0001672609
0.00016776326
0.00016817239
0.00016849683
0.00016874594
0.00016892877
0.00016905371
0.0001691284
0.00016915951
0.00016915263
0.00016911232
0.00016904228
0.00016894543
0.00016882405
0.00016867989
0.00016851432
0.00016832844
0.00016812321
0.00016789939
0.00016765791
0.00016740005
0.00016712694
0.00016684112
0.00016654654
0.00016624717
0.00016595323
0.00016567784
0.00016543995
0.00016528441
0.00016526652
0.00016550627
0.00016617367
0.00016762928
0.00017068482
0.00017658963
0.00018865589
0.00021302008
0.00026188565
0.00035783705
0.00052841993
0.00079240266
0.0011589774
0.0016198542
0.0021498773
0.0027178874
0.0032976266
0.0038713296
0.0044279324
0.0049607037
0.005465826
0.0059414562
0.0063870396
0.0068028628
0.0071897482
0.0075488467
0.0078814982
0.008189139
0.0084732386
0.0087352568
0.0089766158
0.0091986825
0.0094027588
0.0095900745
0.0097617856
0.0099189742
0.010062651
0.010193758
0.010313171
0.010421704
0.010520114
0.010609103
0.010689322
0.010761377
0.010825828
0.010883197
0.01093397
0.010978598
0.0110175
0.011051077
0.011079682
0.011103701
0.011123391
0.011139229
0.01115124
0.011160381
0.011165766
0.011170895
0.011170865
0.011166675
0.0001537663
0.00015501362
0.00015631771
0.00015760404
0.00015882043
0.00015993778
0.00016094966
0.00016186245
0.00016268498
0.00016342406
0.00016408425
0.00016466844
0.00016517887
0.00016561805
0.00016598942
0.00016629746
0.00016654719
0.00016674384
0.00016689268
0.00016699877
0.00016706664
0.00016710027
0.000167103
0.00016707765
0.0001670265
0.00016695136
0.00016685371
0.00016673473
0.00016659537
0.00016643642
0.00016625857
0.00016606257
0.0001658491
0.00016561913
0.00016537423
0.00016511602
0.00016484763
0.00016457375
0.0001642999
0.00016403838
0.00016380451
0.00016362457
0.00016354944
0.00016364836
0.00016407546
0.00016503402
0.00016702627
0.00017100481
0.00017890219
0.00019512983
0.00022723827
0.00029332762
0.0004190069
0.00062835722
0.00093618785
0.0013429731
0.0018302925
0.0023685431
0.0029292812
0.0034918135
0.0040428669
0.0045741832
0.0050808338
0.0055601601
0.0060110084
0.0064332161
0.0068272672
0.0071940569
0.0075347334
0.0078505872
0.0081429768
0.0084132777
0.0086628486
0.0088930089
0.0091050241
0.0093000978
0.0094793676
0.0096439037
0.0097947097
0.0099327239
0.010058822
0.01017382
0.010278477
0.010373502
0.010459551
0.010537237
0.010607128
0.010669757
0.010725616
0.010775175
0.010818854
0.010857093
0.010890218
0.010918741
0.010942774
0.010963265
0.010979464
0.010994935
0.011004
0.01101392
0.00015310411
0.00015414153
0.00015522623
0.00015630209
0.00015732693
0.00015827474
0.00015913784
0.00015992037
0.00016063041
0.00016127564
0.00016186209
0.00016239376
0.00016287294
0.00016330099
0.00016367912
0.00016400895
0.0001642925
0.00016453218
0.00016473079
0.00016489134
0.00016501682
0.00016511001
0.00016517346
0.00016520938
0.00016521967
0.00016520593
0.00016516947
0.00016511138
0.00016503257
0.00016493377
0.00016481561
0.00016467863
0.00016452336
0.00016435031
0.00016416022
0.00016395388
0.00016373247
0.0001634979
0.00016325235
0.00016299989
0.00016274612
0.00016249894
0.00016227336
0.00016208787
0.00016198075
0.00016200876
0.00016227254
0.00016294834
0.00016434774
0.00016719845
0.00017268007
0.00018385668
0.00020659535
0.0002531562
0.0003459724
0.00051243456
0.00077070644
0.0011284527
0.0015742986
0.0020817224
0.0026214142
0.0031703396
0.003713203
0.00424032
0.0047457309
0.0052260154
0.0056794558
0.0061054658
0.0065042091
0.0068763374
0.0072228107
0.0075447738
0.0078434722
0.0081201934
0.0083762268
0.0086128379
0.0088312505
0.0090326368
0.0092181106
0.0093887248
0.0095454704
0.0096892772
0.0098210158
0.0099414996
0.010051488
0.01015169
0.010242767
0.010325335
0.01039997
0.010467215
0.010527566
0.010581523
0.010629487
0.01067201
0.010709298
0.010742295
0.010770385
0.010797225
0.010816262
0.010841594
0.00015254027
0.00015340801
0.00015431533
0.00015521983
0.00015608748
0.00015689511
0.00015763388
0.00015830531
0.00015891545
0.00015947139
0.00015997977
0.00016044581
0.00016087309
0.00016126375
0.00016161902
0.00016193977
0.00016222671
0.00016248064
0.00016270258
0.00016289386
0.00016305591
0.00016319023
0.00016329828
0.00016338144
0.00016344094
0.00016347786
0.00016349314
0.00016348759
0.00016346188
0.00016341658
0.00016335218
0.00016326907
0.00016316764
0.00016304821
0.00016291116
0.00016275692
0.00016258601
0.00016239924
0.00016219761
0.00016198268
0.00016175678
0.00016152298
0.00016128661
0.00016105443
0.00016083823
0.00016065562
0.0001605328
0.00016051815
0.00016068578
0.00016119005
0.00016223907
0.00016434233
0.00016845464
0.00017662241
0.00019341347
0.00022712776
0.00029732444
0.00043031829
0.00064811168
0.00096336535
0.0013710644
0.0018484948
0.0023665491
0.0029005391
0.0034334564
0.0039543572
0.0044563663
0.0049353836
0.0053891852
0.0058168025
0.006218106
0.0065935198
0.0069438256
0.007270028
0.0075732607
0.0078547217
0.0081156298
0.0083571938
0.0085805929
0.008786964
0.0089773933
0.0091529121
0.0093144951
0.00946306
0.0095994683
0.0097245283
0.0098389961
0.0099435809
0.010038944
0.01012571
0.010204454
0.010275747
0.010340066
0.010398012
0.010449887
0.010496643
0.01053779
0.010577113
0.010607079
0.010649241
0.00015205766
0.00015278724
0.00015355011
0.00015431416
0.00015505204
0.00015574339
0.00015637881
0.00015695754
0.0001574833
0.00015796169
0.00015839878
0.00015880013
0.00015917021
0.00015951228
0.00015982848
0.00016012021
0.00016038825
0.00016063302
0.00016085487
0.00016105417
0.00016123137
0.00016138693
0.0001615214
0.00016163529
0.00016172911
0.00016180333
0.00016185836
0.00016189457
0.00016191228
0.00016191177
0.00016189328
0.00016185699
0.0001618031
0.00016173175
0.0001616431
0.00016153735
0.0001614147
0.00016127549
0.00016112014
0.00016094931
0.00016076398
0.00016056548
0.00016035597
0.00016013832
0.00015991703
0.0001596988
0.00015949293
0.00015931497
0.00015918684
0.00015914846
0.00015926242
0.00015964156
0.00016047744
0.0001621271
0.00016539071
0.00017163095
0.000184439
0.00021041395
0.00026495532
0.00037270879
0.00055814922
0.00083756472
0.0012113721
0.0016608408
0.0021577581
0.0026763825
0.0031983365
0.0037116218
0.0042085948
0.0046845797
0.0051369172
0.0055643047
0.0059663521
0.0063432781
0.006695701
0.0070244931
0.0073306819
0.0076153789
0.007879733
0.0081248959
0.008352001
0.0085621477
0.008756392
0.0089357412
0.0091011508
0.0092535239
0.0093937115
0.0095225147
0.0096406846
0.0097489319
0.0098479146
0.0099382785
0.010020584
0.010095485
0.010163385
0.010225252
0.010280718
0.010333727
0.010375663
0.010436201
0.00015164273
0.00015225904
0.00015290346
0.00015355161
0.0001541816
0.00015477581
0.00015532485
0.00015582632
0.00015628191
0.00015669549
0.00015707191
0.00015741624
0.00015773305
0.00015802618
0.00015829861
0.00015855252
0.00015878936
0.00015901
0.00015921491
0.00015940434
0.00015957841
0.00015973711
0.00015988044
0.00016000833
0.00016012074
0.00016021758
0.00016029878
0.00016036425
0.0001604139
0.00016044768
0.00016046548
0.00016046724
0.0001604529
0.00016042237
0.00016037562
0.00016031262
0.00016023335
0.00016013787
0.00016002628
0.00015989878
0.00015975574
0.0001595977
0.00015942555
0.00015924055
0.00015904462
0.00015884061
0.00015863247
0.00015842632
0.0001582305
0.00015805871
0.00015793139
0.00015788114
0.00015796103
0.00015826239
0.00015896595
0.00016032537
0.00016298253
0.0001680463
0.00017829556
0.00019925695
0.00024307363
0.00033206753
0.00049239459
0.00074256991
0.0010873655
0.0015117557
0.001988828
0.0024923277
0.0030028821
0.0035076653
0.0039984215
0.0044700103
0.0049194146
0.0053450519
0.0057463103
0.006123229
0.0064762803
0.0068062174
0.0071139693
0.0074005667
0.007667091
0.0079146388
0.0081442971
0.0083571274
0.0085541545
0.0087363607
0.0089046811
0.0090600037
0.0092031673
0.0093349675
0.009456148
0.0095674323
0.0096694668
0.0097629665
0.0098484345
0.0099268663
0.0099980118
0.010066003
0.010121036
0.010201633
0.00015128461
0.00015180747
0.00015235412
0.00015290604
0.00015344575
0.00015395819
0.0001544344
0.00015487098
0.00015526806
0.00015562794
0.00015595415
0.00015625081
0.00015652203
0.0001567716
0.00015700282
0.00015721839
0.0001574204
0.00015761033
0.00015778918
0.00015795755
0.00015811575
0.00015826382
0.00015840165
0.000158529
0.00015864554
0.0001587509
0.00015884467
0.00015892643
0.00015899578
0.0001590523
0.00015909563
0.00015912539
0.00015914127
0.00015914295
0.00015913015
0.00015910263
0.00015906017
0.00015900259
0.00015892976
0.0001588416
0.00015873812
0.00015861943
0.00015848582
0.00015833776
0.00015817605
0.00015800192
0.00015781713
0.00015762438
0.00015742733
0.00015723163
0.00015704544
0.00015688095
0.00015675664
0.00015670055
0.00015676331
0.00015701956
0.00015762154
0.00015879442
0.00016105824
0.00016537778
0.00017396198
0.00019151883
0.0002279089
0.00030350074
0.00044470695
0.00067162637
0.00099238939
0.001395095
0.0018542095
0.0023433622
0.0028425485
0.0033383588
0.0038220897
0.0042882536
0.0047335582
0.0051561996