/*--------------------------------*- C++ -*----------------------------------*\
| =========                 |                                                 |
| \\      /  F ield         | OpenFOAM: The Open Source CFD Toolbox           |
|  \\    /   O peration     | Version:  2206                                  |
|   \\  /    A nd           | Website:  www.openfoam.com                      |
|    \\/     M anipulation  |                                                 |
\*---------------------------------------------------------------------------*/
FoamFile
{
    version     2.0;
    format      ascii;
    arch        "LSB;label=32;scalar=64";
    class       volScalarField;
    location    "1400";
    object      nut;
}
// * * * * * * * * * * * * * * * * * * * * * * * * * * * * * * * * * * * * * //

dimensions      [0 2 -1 0 0 0 0];

internalField   nonuniform List<scalar> 
7480
(
1.6140365e-05
2.2440836e-05
2.3613694e-05
2.2660255e-05
2.1076453e-05
1.9611578e-05
1.8483765e-05
1.762583e-05
1.6937974e-05
1.6356096e-05
1.585167e-05
1.5412989e-05
1.50324e-05
1.4702886e-05
1.4417783e-05
1.4170406e-05
1.3955494e-05
1.3768832e-05
1.3606051e-05
1.3463978e-05
1.3337957e-05
1.3225131e-05
1.3122968e-05
1.3029349e-05
1.2942874e-05
1.2862378e-05
1.2787055e-05
1.2716088e-05
1.2648734e-05
1.2584361e-05
1.2522625e-05
1.2463307e-05
1.2406154e-05
1.2350961e-05
1.2297482e-05
1.2245601e-05
1.2194983e-05
1.2145564e-05
1.2097236e-05
1.2049865e-05
1.200336e-05
1.1957634e-05
1.1912626e-05
1.1868294e-05
1.1824589e-05
1.1781477e-05
1.1738908e-05
1.1696829e-05
1.1655212e-05
1.1614026e-05
1.1573247e-05
1.1532862e-05
1.1492851e-05
1.1453207e-05
1.1413909e-05
1.1374946e-05
1.1336309e-05
1.1297979e-05
1.1259939e-05
1.1222178e-05
1.1184698e-05
1.1147496e-05
1.1110565e-05
1.1073899e-05
1.1037495e-05
1.100135e-05
1.0965453e-05
1.0929799e-05
1.0894385e-05
1.0859209e-05
1.0824266e-05
1.0789554e-05
1.0755069e-05
1.0720811e-05
1.0686776e-05
1.0652958e-05
1.0619355e-05
1.0585964e-05
1.055278e-05
1.0519801e-05
1.0487023e-05
1.0454441e-05
1.0422052e-05
1.0389849e-05
1.0357827e-05
1.0325978e-05
1.0294295e-05
1.0262764e-05
1.0231375e-05
1.0200098e-05
1.0168937e-05
1.0137789e-05
1.010675e-05
1.0075414e-05
1.0044367e-05
1.0011955e-05
9.9805474e-06
9.9443798e-06
9.9153301e-06
9.8593822e-06
1.6727016e-06
5.1463106e-06
8.7900376e-06
1.1681499e-05
1.3403538e-05
1.4480808e-05
1.5238246e-05
1.5811428e-05
1.6225165e-05
1.6522676e-05
1.6749451e-05
1.6937781e-05
1.7105184e-05
1.7259603e-05
1.7405876e-05
1.7536287e-05
1.7661007e-05
1.778685e-05
1.7913546e-05
1.8035383e-05
1.8150091e-05
1.8254976e-05
1.8348073e-05
1.8429967e-05
1.8502493e-05
1.8566391e-05
1.8623621e-05
1.8672732e-05
1.8713396e-05
1.8745962e-05
1.8771896e-05
1.8792139e-05
1.8807127e-05
1.8817393e-05
1.8822703e-05
1.8824006e-05
1.8820148e-05
1.8812525e-05
1.8801289e-05
1.8786467e-05
1.8768205e-05
1.8746732e-05
1.8722336e-05
1.8695219e-05
1.8665577e-05
1.8633623e-05
1.8599373e-05
1.8562956e-05
1.8524508e-05
1.8484148e-05
1.8442051e-05
1.8398331e-05
1.8353114e-05
1.8306517e-05
1.8258604e-05
1.82095e-05
1.8159275e-05
1.8107977e-05
1.8055641e-05
1.8002355e-05
1.7948224e-05
1.7893325e-05
1.7837711e-05
1.7781436e-05
1.7724566e-05
1.7667152e-05
1.7609218e-05
1.7550805e-05
1.749197e-05
1.7432756e-05
1.7373198e-05
1.7313329e-05
1.7253185e-05
1.7192809e-05
1.7132226e-05
1.7071457e-05
1.7010531e-05
1.6949474e-05
1.688831e-05
1.682706e-05
1.6765747e-05
1.670439e-05
1.6643007e-05
1.6581615e-05
1.652023e-05
1.6458867e-05
1.6397535e-05
1.6336252e-05
1.6275016e-05
1.6213859e-05
1.6152727e-05
1.6091758e-05
1.6030651e-05
1.5970038e-05
1.5908606e-05
1.5848869e-05
1.5786227e-05
1.5727795e-05
1.5669794e-05
1.5564539e-05
4.4717087e-07
4.7286149e-07
9.470626e-07
2.218376e-06
4.1432818e-06
6.4086665e-06
8.5130298e-06
1.0326773e-05
1.201013e-05
1.3630729e-05
1.518101e-05
1.6642708e-05
1.8008007e-05
1.9283306e-05
2.0480311e-05
2.1625067e-05
2.2719021e-05
2.3756298e-05
2.4733048e-05
2.5647295e-05
2.649992e-05
2.7291963e-05
2.8022884e-05
2.86985e-05
2.9323578e-05
2.989932e-05
3.0439278e-05
3.0936544e-05
3.139435e-05
3.1814607e-05
3.2202849e-05
3.2561871e-05
3.2893599e-05
3.3200492e-05
3.3482351e-05
3.3743387e-05
3.3979666e-05
3.419768e-05
3.4396894e-05
3.4578066e-05
3.4742237e-05
3.4890513e-05
3.5024034e-05
3.5143742e-05
3.5250548e-05
3.534536e-05
3.5428484e-05
3.5500602e-05
3.5562348e-05
3.5614292e-05
3.5657117e-05
3.5691353e-05
3.5717547e-05
3.5736212e-05
3.5747685e-05
3.575247e-05
3.5750905e-05
3.574326e-05
3.5729759e-05
3.5710767e-05
3.5686692e-05
3.5657848e-05
3.5624476e-05
3.5586832e-05
3.5545187e-05
3.5499764e-05
3.5450708e-05
3.5398213e-05
3.5342504e-05
3.5283768e-05
3.5222168e-05
3.5157847e-05
3.5090973e-05
3.5021718e-05
3.49502e-05
3.4876537e-05
3.4800854e-05
3.4723269e-05
3.4643894e-05
3.4562838e-05
3.44802e-05
3.4396079e-05
3.4310563e-05
3.4223745e-05
3.4135704e-05
3.4046526e-05
3.3956283e-05
3.3865065e-05
3.3772915e-05
3.3679983e-05
3.3586178e-05
3.3491964e-05
3.3396604e-05
3.3301992e-05
3.3204664e-05
3.3111917e-05
3.3011301e-05
3.2925334e-05
3.2831764e-05
3.2668636e-05
6.5685992e-06
1.1564239e-06
4.4127621e-07
3.971429e-07
5.8538135e-07
9.3756757e-07
1.7975938e-06
3.1764134e-06
4.8705835e-06
6.614899e-06
8.3669151e-06
1.0251421e-05
1.2278617e-05
1.4410871e-05
1.6589385e-05
1.8760826e-05
2.0886693e-05
2.2945599e-05
2.4929418e-05
2.6834685e-05
2.8657315e-05
3.0393389e-05
3.2043319e-05
3.36056e-05
3.5082025e-05
3.6472006e-05
3.7779757e-05
3.9010439e-05
4.0166874e-05
4.1256065e-05
4.2281292e-05
4.3246665e-05
4.4155897e-05
4.5014242e-05
4.5822801e-05
4.6587682e-05
4.7295679e-05
4.7966529e-05
4.8593034e-05
4.9179631e-05
4.9728354e-05
5.0241391e-05
5.0720911e-05
5.116878e-05
5.1586924e-05
5.1977159e-05
5.2340021e-05
5.2677181e-05
5.2989884e-05
5.3279358e-05
5.3547029e-05
5.3794013e-05
5.4021515e-05
5.4230641e-05
5.4422138e-05
5.4597133e-05
5.4756363e-05
5.4900451e-05
5.5029924e-05
5.5145613e-05
5.5248402e-05
5.5338988e-05
5.541792e-05
5.5485802e-05
5.5543246e-05
5.559076e-05
5.5628699e-05
5.5657521e-05
5.5677735e-05
5.5689769e-05
5.5694e-05
5.5690776e-05
5.5680485e-05
5.5663528e-05
5.5640189e-05
5.5610754e-05
5.5575519e-05
5.5534768e-05
5.548877e-05
5.5437782e-05
5.5382048e-05
5.5321805e-05
5.5257274e-05
5.5188673e-05
5.5116208e-05
5.5040082e-05
5.4960484e-05
5.4877625e-05
5.4791649e-05
5.4702858e-05
5.4611201e-05
5.4517456e-05
5.4420629e-05
5.4323638e-05
5.4221535e-05
5.4125154e-05
5.4016514e-05
5.3930498e-05
5.3829003e-05
5.365674e-05
6.2343673e-05
1.7960857e-05
5.1256022e-06
1.9983405e-06
1.0477448e-06
7.0546089e-07
6.1832468e-07
7.1032662e-07
9.3445616e-07
1.4742287e-06
2.398193e-06
3.5595444e-06
5.0035931e-06
6.6407348e-06
8.5188113e-06
1.0679996e-05
1.3103129e-05
1.5725415e-05
1.846361e-05
2.1236627e-05
2.3983838e-05
2.6670774e-05
2.9282608e-05
3.1810758e-05
3.4247649e-05
3.6585902e-05
3.882246e-05
4.0958061e-05
4.2997531e-05
4.4943256e-05
4.6796724e-05
4.8560837e-05
5.0238904e-05
5.183221e-05
5.3345913e-05
5.4787056e-05
5.6151606e-05
5.744763e-05
5.8678196e-05
5.984418e-05
6.0948069e-05
6.1993466e-05
6.2983307e-05
6.3920126e-05
6.4806892e-05
6.5646369e-05
6.6440197e-05
6.7189645e-05
6.789624e-05
6.856202e-05
6.9189294e-05
6.9779728e-05
7.0335068e-05
7.0857097e-05
7.1347301e-05
7.1807683e-05
7.2239305e-05
7.2643211e-05
7.3020278e-05
7.3371997e-05
7.3699829e-05
7.4004916e-05
7.428818e-05
7.45507e-05
7.4793518e-05
7.5017496e-05
7.5223248e-05
7.5411607e-05
7.5583454e-05
7.5739519e-05
7.5880474e-05
7.6006932e-05
7.61196e-05
7.6219184e-05
7.6306184e-05
7.6381126e-05
7.6444541e-05
7.6496942e-05
7.6538814e-05
7.6570625e-05
7.6592818e-05
7.6605825e-05
7.6610053e-05
7.66059e-05
7.6593745e-05
7.6573962e-05
7.6546902e-05
7.6512941e-05
7.6472373e-05
7.6425684e-05
7.6372926e-05
7.6315175e-05
7.6251333e-05
7.6185097e-05
7.6110621e-05
7.6041104e-05
7.5954931e-05
7.5896508e-05
7.5813509e-05
7.567827e-05
0.00015466591
9.0547855e-05
4.2545666e-05
1.97829e-05
9.8274291e-06
5.3618194e-06
3.2013514e-06
2.0820223e-06
1.471749e-06
1.1583686e-06
1.0601409e-06
1.123e-06
1.3218067e-06
1.8310366e-06
2.631667e-06
3.728554e-06
5.1887165e-06
6.9587171e-06
9.096083e-06
1.162126e-05
1.4492819e-05
1.7620784e-05
2.0895742e-05
2.4218358e-05
2.7520216e-05
3.0764252e-05
3.3932011e-05
3.7011046e-05
3.9992116e-05
4.286946e-05
4.5640797e-05
4.8306081e-05
5.0866109e-05
5.3321268e-05
5.567366e-05
5.7928169e-05
6.0085043e-05
6.2148012e-05
6.4120816e-05
6.600629e-05
6.7807672e-05
6.9527205e-05
7.1167682e-05
7.2732089e-05
7.4222677e-05
7.5641741e-05
7.6993373e-05
7.8280308e-05
7.9505418e-05
8.0671112e-05
8.1779498e-05
8.2832422e-05
8.3832253e-05
8.478126e-05
8.5681711e-05
8.6536634e-05
8.7347052e-05
8.8114484e-05
8.8840725e-05
8.9527844e-05
9.0177444e-05
9.0791088e-05
9.1370093e-05
9.191586e-05
9.2430116e-05
9.2914194e-05
9.3368962e-05
9.3795738e-05
9.4195832e-05
9.4570298e-05
9.492015e-05
9.524632e-05
9.554991e-05
9.5831985e-05
9.6093283e-05
9.633463e-05
9.6556845e-05
9.6760717e-05
9.6946998e-05
9.7116411e-05
9.7269648e-05
9.740738e-05
9.7530247e-05
9.7638871e-05
9.7733848e-05
9.7815764e-05
9.7885173e-05
9.7942655e-05
9.7988695e-05
9.8023992e-05
9.8048752e-05
9.8064342e-05
9.8069667e-05
9.8069031e-05
9.8056095e-05
9.8045606e-05
9.8013481e-05
9.8012059e-05
9.7972763e-05
9.7921879e-05
0.00020544481
0.00017055559
0.00012246738
8.0263783e-05
5.0573258e-05
3.1810817e-05
2.0297448e-05
1.3223934e-05
8.8316191e-06
6.0115327e-06
4.2075182e-06
3.0165968e-06
2.2412854e-06
1.7859108e-06
1.5692011e-06
1.5472459e-06
1.6893105e-06
2.1652788e-06
2.9594449e-06
4.1192346e-06
5.7364622e-06
7.7683806e-06
1.0286234e-05
1.3279874e-05
1.6673463e-05
2.034267e-05
2.4154282e-05
2.8001901e-05
3.1821124e-05
3.5579963e-05
3.9260314e-05
4.2847778e-05
4.6331562e-05
4.9705497e-05
5.2966953e-05
5.6116131e-05
5.9152406e-05
6.20767e-05
6.4891185e-05
6.759808e-05
7.0199922e-05
7.2699028e-05
7.5097885e-05
7.7399262e-05
7.9605717e-05
8.1719661e-05
8.374452e-05
8.5683466e-05
8.7539644e-05
8.9315959e-05
9.1015007e-05
9.2639872e-05
9.4192823e-05
9.567614e-05
9.7092435e-05
9.8443201e-05
9.9731728e-05
0.00010096062
0.00010213255
0.00010324942
0.00010431322
0.00010532593
0.00010628919
0.00010720505
0.00010807576
0.00010890292
0.00010968759
0.00011043168
0.00011113676
0.00011180441
0.00011243614
0.00011303345
0.00011359747
0.00011412947
0.00011463066
0.00011510221
0.00011554526
0.00011596092
0.00011635024
0.00011671422
0.00011705385
0.00011737007
0.00011766378
0.00011793587
0.00011818719
0.00011841857
0.00011863079
0.00011882467
0.00011900094
0.00011916051
0.00011930379
0.00011943244
0.00011954545
0.0001196476
0.00011973234
0.00011981544
0.00011987096
0.00011995867
0.00011998901
0.00012007212
0.00022390771
0.00021269223
0.0001870451
0.0001532395
0.00011930875
9.0150809e-05
6.694241e-05
4.9341069e-05
3.6247681e-05
2.6589405e-05
1.9504632e-05
1.4301043e-05
1.0461707e-05
7.6400023e-06
5.597686e-06
4.1316163e-06
3.1118713e-06
2.4705464e-06
2.1196142e-06
2.0170513e-06
2.133097e-06
2.653545e-06
3.5498349e-06
4.9153813e-06
6.8320107e-06
9.2933022e-06
1.2342309e-05
1.5925285e-05
1.9914578e-05
2.4151121e-05
2.8493334e-05
3.2846783e-05
3.7161204e-05
4.1409252e-05
4.5570772e-05
4.9630786e-05
5.3579855e-05
5.7413092e-05
6.1128047e-05
6.4723518e-05
6.8199625e-05
7.1557242e-05
7.4797644e-05
7.79226e-05
8.0934132e-05
8.3834283e-05
8.662573e-05
8.931138e-05
9.1894255e-05
9.4377333e-05
9.6763396e-05
9.9055492e-05
0.00010125633
0.0001033685
0.00010539477
0.00010733728
0.00010919904
0.00011098297
0.00011269205
0.00011432879
0.00011589558
0.00011739474
0.00011882893
0.00012020005
0.00012150979
0.00012276044
0.0001239547
0.00012509431
0.00012618112
0.00012721706
0.000128204
0.00012914378
0.00013003794
0.0001308882
0.00013169597
0.00013246281
0.0001331902
0.00013387956
0.00013453226
0.00013514962
0.00013573293
0.00013628341
0.00013680228
0.0001372907
0.00013774978
0.00013818064
0.00013858432
0.0001389619
0.00013931435
0.00013964285
0.00013994804
0.00014023185
0.00014049343
0.00014073797
0.00014095886
0.00014117262
0.00014135164
0.00014156346
0.00014169106
0.00014196032
0.00022938754
0.00022849039
0.00021958159
0.00020186327
0.00017819327
0.00015237456
0.00012737387
0.00010487347
8.5435829e-05
6.9031155e-05
5.5389601e-05
4.413876e-05
3.4907468e-05
2.7384927e-05
2.1295085e-05
1.638356e-05
1.2445585e-05
9.3645066e-06
7.0068433e-06
5.2507446e-06
3.9805837e-06
3.1611283e-06
2.6961508e-06
2.5407242e-06
2.7259303e-06
3.3816036e-06
4.5313615e-06
6.3031626e-06
8.7047948e-06
1.1796604e-05
1.5545556e-05
1.9825845e-05
2.4456677e-05
2.9263951e-05
3.4124032e-05
3.8968025e-05
4.3758669e-05
4.8470079e-05
5.3082659e-05
5.7583881e-05
6.1966756e-05
6.6227004e-05
7.0361945e-05
7.4370505e-05
7.82527e-05
8.2009082e-05
8.564096e-05
8.9150233e-05
9.2539182e-05
9.5810309e-05
9.8966131e-05
0.0001020094
0.00010494282
0.00010776903
0.0001104908
0.00011311055
0.00011563113
0.00011805553
0.00012038684
0.00012262791
0.00012478146
0.00012685008
0.0001288366
0.00013074342
0.00013257266
0.00013432676
0.00013600853
0.00013762028
0.00013916419
0.00014064251
0.00014205741
0.00014341109
0.00014470559
0.00014594259
0.00014712418
0.00014825216
0.00014932833
0.00015035442
0.00015133213
0.00015226309
0.0001531489
0.00015399111
0.00015479121
0.00015555066
0.00015627087
0.00015695324
0.00015759909
0.00015820979
0.00015878655
0.00015933084
0.00015984355
0.00016032689
0.00016078022
0.00016120905
0.00016160685
0.00016199074
0.00016233144
0.00016270506
0.00016295979
0.0001634699
0.00023059384
0.00023311671
0.00023208394
0.00022552021
0.00021330783
0.00019682656
0.00017791473
0.00015815707
0.00013878609
0.00012055974
0.00010385115
8.8788693e-05
7.5368337e-05
6.352562e-05
5.3124766e-05
4.4026349e-05
3.6104015e-05
2.9248545e-05
2.3377239e-05
1.8405817e-05
1.424533e-05
1.0873342e-05
8.2114864e-06
6.1755917e-06
4.7083875e-06
3.75902e-06
3.249812e-06
3.1223644e-06
3.5485726e-06
4.5129791e-06
6.1492831e-06
8.5354182e-06
1.1700593e-05
1.5637772e-05
2.0220085e-05
2.5244585e-05
3.0507513e-05
3.5860444e-05
4.1218577e-05
4.6535293e-05
5.1778855e-05
5.6925799e-05
6.1960882e-05
6.6874915e-05
7.1661892e-05
7.631791e-05
8.0841016e-05
8.5230622e-05
8.9487082e-05
9.3611478e-05
9.7605309e-05
0.0001014705
0.00010520921
0.00010882373
0.00011231651
0.0001156899
0.00011894649
0.00012208912
0.00012512077
0.00012804439
0.00013086284
0.00013357887
0.00013619537
0.00013871505
0.00014114035
0.00014347383
0.00014571842
0.00014787675
0.00014995134
0.00015194466
0.00015385919
0.00015569738
0.00015746159
0.00015915389
0.00016077658
0.0001623318
0.00016382164
0.00016524816
0.00016661335
0.00016791915
0.00016916746
0.00017036013
0.00017149895
0.00017258568
0.00017362203
0.00017460967
0.00017555022
0.00017644531
0.00017729646
0.00017810541
0.0001788733
0.00017960264
0.000180293
0.00018095021
0.00018156789
0.00018216367
0.00018270647
0.00018328213
0.00018369632
0.00018450463
0.0002307059
0.00023391319
0.00023577064
0.00023479849
0.00023011089
0.00022167858
0.00021013128
0.00019635853
0.00018127873
0.00016568364
0.00015016964
0.0001351501
0.00012084833
0.00010734454
9.4728418e-05
8.3030769e-05
7.2239931e-05
6.2319642e-05
5.3259087e-05
4.5041961e-05
3.7609707e-05
3.095103e-05
2.5057646e-05
1.9904427e-05
1.5493826e-05
1.1846494e-05
8.9370071e-06
6.7043508e-06
5.1685737e-06
4.2202594e-06
3.7862173e-06
3.9526483e-06
4.7713191e-06
6.3376849e-06
8.7651144e-06
1.2071715e-05
1.6261415e-05
2.1194437e-05
2.6640885e-05
3.2370115e-05
3.8215569e-05
4.4081975e-05
4.9915568e-05
5.5679412e-05
6.1346891e-05
6.6900761e-05
7.2330149e-05
7.7627774e-05
8.2789052e-05
8.7811509e-05
9.2694004e-05
9.7436455e-05
0.00010203956
0.00010650448
0.00011083283
0.00011502636
0.00011908714
0.00012301751
0.00012682013
0.00013049773
0.00013405307
0.00013748888
0.00014080798
0.00014401316
0.00014710706
0.00015009232
0.00015297186
0.00015574851
0.00015842499
0.00016100399
0.00016348815
0.00016588016
0.0001681826
0.00017039787
0.00017252847
0.0001745768
0.00017654524
0.00017843611
0.00018025167
0.00018199416
0.00018366575
0.00018526857
0.00018680469
0.00018827617
0.00018968499
0.0001910331
0.00019232242
0.00019355485
0.00019473218
0.00019585644
0.00019692903
0.00019795275
0.00019892741
0.00019985913
0.0002007417
0.00020159328
0.00020238079
0.00020320112
0.00020380966
0.00020497623
0.000230815
0.00023377965
0.00023631771
0.00023756905
0.00023678588
0.00023352192
0.00022772275
0.00021963864
0.00020969646
0.00019839255
0.00018620944
0.00017357086
0.00016080791
0.00014814076
0.0001357402
0.00012373365
0.00011220414
0.00010120921
9.0708709e-05
8.0699458e-05
7.1198611e-05
6.2220388e-05
5.3771041e-05
4.5895031e-05
3.859889e-05
3.1910534e-05
2.586615e-05
2.0479481e-05
1.5859926e-05
1.2042622e-05
9.010838e-06
6.8102622e-06
5.3713349e-06
4.6030648e-06
4.5406919e-06
5.2632919e-06
6.8396364e-06
9.3914683e-06
1.2940404e-05
1.7479526e-05
2.2838594e-05
2.8754094e-05
3.4973194e-05
4.1320405e-05
4.7696311e-05
5.4042585e-05
6.0318651e-05
6.649621e-05
7.2556979e-05
7.8488962e-05
8.428406e-05
8.9937216e-05
9.5445506e-05
0.0001008074
0.00010602243
0.00011109087
0.00011601357
0.00012079192
0.00012542775
0.00012992322
0.00013428065
0.00013850245
0.00014259119
0.00014654954
0.00015038008
0.00015408544
0.00015766844
0.00016113194
0.00016447874
0.00016771161
0.00017083334
0.00017384668
0.00017675443
0.00017955917
0.00018226358
0.00018487028
0.00018738183
0.0001898008
0.00019212968
0.00019437095
0.00019652702
0.00019860027
0.00020059305
0.00020250765
0.00020434632
0.0002061113
0.00020780474
0.00020942883
0.00021098563
0.00021247744
0.00021390592
0.00021527414
0.00021658218
0.0002178364
0.00021903082
0.00022018413
0.00022126104
0.00022237085
0.00022321117
0.00022479885
0.00023125973
0.00023374778
0.00023614725
0.00023799271
0.00023883268
0.00023827277
0.00023605901
0.00023210772
0.00022648523
0.00021937213
0.00021101882
0.00020170357
0.00019169786
0.00018123493
0.00017051004
0.00015968628
0.00014889404
0.00013824311
0.00012778585
0.00011755152
0.00010757101
9.7871193e-05
8.8488297e-05
7.9365654e-05
7.0505966e-05
6.1945547e-05
5.3727512e-05
4.5891777e-05
3.8521828e-05
3.1689493e-05
2.5437507e-05
1.990402e-05
1.5205247e-05
1.1380209e-05
8.5164596e-06
6.5893909e-06
5.4951609e-06
5.2674525e-06
5.9624032e-06
7.6541514e-06
1.0442047e-05
1.4364859e-05
1.9374821e-05
2.5249953e-05
3.1689029e-05
3.842651e-05
4.5289395e-05
5.2180114e-05
5.9038108e-05
6.5821081e-05
7.2500649e-05
7.9058445e-05
8.5482049e-05
9.1763068e-05
9.7896128e-05
0.00010387787
0.00010970644
0.00011538115
0.00012090218
0.00012627041
0.00013148714
0.00013655408
0.00014147318
0.00014624665
0.00015087679
0.00015536601
0.00015971687
0.00016393208
0.00016801436
0.00017196644
0.0001757911
0.00017949113
0.00018306936
0.00018652852
0.00018987136
0.00019310063
0.00019621905
0.00019922934
0.00020213417
0.0002049362
0.00020763805
0.00021024231
0.00021275154
0.00021516825
0.00021749494
0.00021973406
0.00022188803
0.00022395927
0.0002259501
0.00022786306
0.00022970009
0.00023146449
0.00023315661
0.00023478304
0.00023633805
0.00023784089
0.00023925383
0.00024069998
0.00024181197
0.00024388646
0.00023211674
0.00023412997
0.0002361609
0.00023794832
0.00023925193
0.00023983239
0.00023947352
0.00023801061
0.00023534808
0.00023146836
0.00022642655
0.00022033317
0.00021333362
0.00020558518
0.00019724184
0.00018844748
0.00017933091
0.00017000866
0.00016057257
0.00015108949
0.00014161267
0.00013218494
0.00012285552
0.00011362989
0.00010450807
9.5502001e-05
8.6645587e-05
7.791296e-05
6.9276118e-05
6.0798298e-05
5.2525773e-05
4.4561054e-05
3.7027336e-05
2.9996413e-05
2.3635809e-05
1.8132102e-05
1.3572546e-05
1.0110987e-05
7.7521888e-06
6.3861609e-06
6.1034476e-06
6.8730057e-06
8.822467e-06
1.1990278e-05
1.6444709e-05
2.2059049e-05
2.8541169e-05
3.5555307e-05
4.2838041e-05
5.0229964e-05
5.7639873e-05
6.5008064e-05
7.2293301e-05
7.9468317e-05
8.6514912e-05
9.3420595e-05
0.00010017702
0.00010677873
0.00011322232
0.00011950594
0.00012562882
0.00013159108
0.00013739346
0.0001430372
0.00014852389
0.00015385538
0.00015903373
0.00016406125
0.00016894039
0.00017367366
0.00017826368
0.00018271313
0.00018702476
0.0001912013
0.00019524551
0.00019916018
0.00020294808
0.00020661203
0.00021015479
0.00021357914
0.00021688785
0.00022008366
0.00022316929
0.00022614744
0.00022902079
0.00023179199
0.00023446367
0.00023703848
0.00023951893
0.00024190782
0.00024420731
0.00024642093
0.00024854931
0.00025059922
0.0002525652
0.00025446707
0.00025626453
0.00025809573
0.00025952165
0.00026215144
0.00023337751
0.00023498328
0.00023663094
0.0002381595
0.00023944017
0.00024035077
0.00024076598
0.00024055865
0.00023961114
0.00023783342
0.00023517631
0.00023163399
0.00022723961
0.00022205572
0.00021616342
0.00020965333
0.00020261828
0.00019515025
0.00018733487
0.00017924627
0.00017094756
0.00016249137
0.00015392914
0.0001452976
0.00013661962
0.00012791187
0.00011920126
0.0001104962
0.0001017791
9.3056882e-05
8.4362037e-05
7.5651699e-05
6.6935079e-05
5.8282867e-05
4.9777362e-05
4.1610916e-05
3.3877354e-05
2.678547e-05
2.0576762e-05
1.5376941e-05
1.1437868e-05
8.7567474e-06
7.2261694e-06
7.0483254e-06
8.0459837e-06
1.0435818e-05
1.4192935e-05
1.9347421e-05
2.5682029e-05
3.2835361e-05
4.045672e-05
4.8303497e-05
5.6235851e-05
6.4169389e-05
7.2047116e-05
7.9830785e-05
8.7495056e-05
9.5022548e-05
0.00010240135
0.00010962344
0.00011668354
0.00012357839
0.00013030619
0.00013686625
0.00014325867
0.00014948411
0.00015554372
0.00016143904
0.00016717189
0.00017274434
0.00017815861
0.0001834171
0.00018852231
0.00019347684
0.00019828331
0.00020294444
0.00020746296
0.00021184167
0.00021608336
0.00022019084
0.00022416696
0.00022801453
0.00023173639
0.00023533535
0.00023881423
0.00024217583
0.00024542296
0.00024855841
0.00025158492
0.00025450545
0.00025732239
0.00026003946
0.00026265755
0.00026518358
0.00026761239
0.00026996438
0.00027219653
0.00027446323
0.00027624748
0.00027950391
0.00023501137
0.00023628462
0.0002375982
0.00023884332
0.00023994271
0.00024083628
0.00024146679
0.00024176647
0.00024165401
0.00024104426
0.0002398618
0.00023805042
0.00023557814
0.00023243779
0.00022864414
0.00022422938
0.00021923765
0.00021372123
0.00020773672
0.00020134065
0.00019458676
0.00018752389
0.00018019856
0.0001726523
0.00016491899
0.00015702451
0.00014899453
0.00014085057
0.00013259958
0.00012424413
0.00011580295
0.000107265
9.8613457e-05
8.9856943e-05
8.1028691e-05
7.2057716e-05
6.3021424e-05
5.4019781e-05
4.5264907e-05
3.6883964e-05
2.9153365e-05
2.2352489e-05
1.6639395e-05
1.2392084e-05
9.5393877e-06
8.0359629e-06
8.0811932e-06
9.5661077e-06
1.2587226e-05
1.7169403e-05
2.320941e-05
3.0371831e-05
3.8244901e-05
4.6496091e-05
5.4920482e-05
6.3399714e-05
7.185754e-05
8.0242408e-05
8.852003e-05
9.6667114e-05
0.00010466762
0.00011251067
0.0001201889
0.00012769751
0.00013503351
0.00014219522
0.00014918195
0.00015599379
0.00016263143
0.00016909603
0.0001753891
0.00018151244
0.0001874681
0.0001932583
0.0001988854
0.00020435186
0.00020966026
0.00021481325
0.00021981354
0.00022466389
0.00022936712
0.00023392605
0.00023834353
0.00024262246
0.0002467657
0.00025077617
0.00025465675
0.00025841041
0.00026203999
0.00026554862
0.00026893886
0.00027221459
0.00027537694
0.00027843294
0.00028137776
0.00028423235
0.0002869509
0.00028970512
0.00029189415
0.00029585124
0.00023698698
0.00023799305
0.00023903162
0.00024002462
0.00024091849
0.00024167979
0.00024228646
0.00024271277
0.0002429191
0.00024285221
0.00024245204
0.00024165917
0.00024042164
0.00023869961
0.00023646778
0.00023371555
0.0002304453
0.00022667044
0.00022241331
0.00021770239
0.00021256975
0.00020704862
0.00020117271
0.00019497528
0.00018848741
0.00018173613
0.00017474607
0.00016754013
0.00016013528
0.00015254136
0.00014477145
0.0001368309
0.00012871485
0.00012041792
0.00011195578
0.00010329112
9.4415615e-05
8.536401e-05
7.6102054e-05
6.6660457e-05
5.71666e-05
4.7853901e-05
3.8871504e-05
3.0608384e-05
2.332343e-05
1.730798e-05
1.2904861e-05
1.0058252e-05
8.9430137e-06
9.439786e-06
1.1664672e-05
1.5579565e-05
2.1198667e-05
2.8246505e-05
3.6281351e-05
4.4884651e-05
5.3772474e-05
6.2780381e-05
7.1807657e-05
8.078722e-05
8.9674511e-05
9.8439625e-05
0.00010706197
0.00011552739
0.00012382614
0.00013195158
0.00013989932
0.00014766662
0.000155252
0.0001626549
0.00016987551
0.00017691458
0.0001837733
0.00019045321
0.00019695611
0.00020328405
0.00020943921
0.00021542398
0.00022124083
0.00022689234
0.0002323812
0.00023771013
0.00024288194
0.00024789947
0.00025276559
0.00025748325
0.00026205538
0.00026648499
0.00027077503
0.00027492872
0.00027894877
0.00028283915
0.00028660124
0.00029024209
0.00029375726
0.00029716818
0.00030042624
0.00030372139
0.00030636349
0.0003110979
0.00023927844
0.00024007003
0.00024088608
0.00024166887
0.00024237731
0.00024298803
0.00024349253
0.00024388588
0.00024415593
0.00024427913
0.00024422137
0.00024394114
0.00024339376
0.00024253581
0.00024132891
0.00023974212
0.000237753
0.00023534784
0.00023252136
0.00022927577
0.00022561941
0.00022156515
0.00021712924
0.00021233039
0.0002071886
0.00020172373
0.00019595495
0.00018990091
0.00018357842
0.00017700037
0.00017017852
0.00016312206
0.00015583465
0.00014831396
0.00014056521
0.00013257767
0.00012433403
0.00011583843
0.00010706738
9.7997466e-05
8.8653609e-05
7.9037648e-05
6.9139058e-05
5.9141748e-05
4.9268701e-05
3.9768815e-05
3.1062545e-05
2.3410953e-05
1.7356197e-05
1.304904e-05
1.0515481e-05
1.0001923e-05
1.1324759e-05
1.454326e-05
1.9668256e-05
2.6510697e-05
3.4630135e-05
4.3536223e-05
5.2859911e-05
6.2380555e-05
7.1967886e-05
8.1537287e-05
9.1032493e-05
0.00010041588
0.00010966164
0.00011875189
0.0001276742
0.00013641995
0.00014498329
0.00015336038
0.00016154887
0.00016954757
0.00017735611
0.00018497482
0.00019240453
0.00019964649
0.00020670226
0.00021357368
0.00022026282
0.0002267719
0.00023310333
0.00023925962
0.00024524338
0.00025105733
0.00025670426
0.00026218703
0.00026750856
0.00027267185
0.00027767988
0.0002825359
0.00028724271
0.00029180433
0.00029622235
0.00030050378
0.00030464459
0.00030866666
0.00031251856
0.00031640934
0.0003195544
0.00032514528
0.00024186591
0.00024248441
0.00024312062
0.00024373141
0.00024428372
0.00024475808
0.00024514948
0.00024546006
0.00024569069
0.00024583605
0.00024588288
0.00024580985
0.00024558896
0.0002451879
0.00024457277
0.0002437106
0.00024257121
0.00024112864
0.00023936205
0.00023725614
0.00023480101
0.00023199168
0.00022882754
0.00022531173
0.00022145044
0.00021725204
0.00021272627
0.00020788382
0.00020273575
0.00019729213
0.00019156217
0.00018555394
0.00017927317
0.0001727213
0.00016590033
0.00015880771
0.00015143296
0.00014376991
0.00013580565
0.00012751711
0.00011889534
0.00010992831
0.00010057466
9.0870557e-05
8.0809956e-05
7.0404823e-05
5.9875638e-05
4.9430009e-05
3.9498914e-05
3.0463554e-05
2.2726377e-05
1.6869279e-05
1.2921287e-05
1.1227467e-05
1.1566559e-05
1.4070485e-05
1.8641025e-05
2.5201091e-05
3.3335251e-05
4.2498254e-05
5.223434e-05
6.2256946e-05
7.2399592e-05
8.2557393e-05
9.2661135e-05
0.00010266471
0.00011253659
0.00012225492
0.00013180444
0.00014117452
0.00015035778
0.00015934923
0.00016814564
0.0001767451
0.00018514669
0.00019335028
0.00020135633
0.00020916578
0.00021677996
0.00022420051
0.00023142934
0.00023846855
0.00024532044
0.00025198745
0.00025847216
0.00026477728
0.00027090557
0.00027685997
0.0002826434
0.00028825906
0.00029370981
0.00029899961
0.00030413026
0.00030910867
0.00031393121
0.00031862016
0.00032312128
0.00032766347
0.00033136287
0.00033789166
0.00024473459
0.00024521237
0.00024570248
0.00024617268
0.00024659601
0.00024695508
0.00024724482
0.00024746817
0.00024763002
0.0002477333
0.0002477767
0.00024775332
0.00024765033
0.00024744942
0.0002471281
0.00024666117
0.00024602213
0.00024518468
0.00024412394
0.00024281743
0.00024124566
0.00023939253
0.00023724536
0.00023479492
0.00023203519
0.00022896302
0.00022557768
0.00022188042
0.00021787407
0.00021356233
0.00020894924
0.00020403889
0.00019883482
0.00019333865
0.00018755107
0.00018147102
0.00017509297
0.00016840998
0.00016141256
0.00015408428
0.00014640868
0.00013837093
0.00012993858
0.00012110012
0.00011183709
0.00010210423
9.1962245e-05
8.1350908e-05
7.0379235e-05
5.9262173e-05
4.8315306e-05
3.8071538e-05
2.8851557e-05
2.1439197e-05
1.6057679e-05
1.2944515e-05
1.2311027e-05
1.4034894e-05
1.8040862e-05
2.4297275e-05
3.2414481e-05
4.1808421e-05
5.1942934e-05
6.2462175e-05
7.3159177e-05
8.3906664e-05
9.4621482e-05
0.00010524852
0.0001157503
0.0001261009
0.00013628215
0.00014628129
0.0001560894
0.00016570029
0.0001751098
0.0001843153
0.00019331528
0.00020210915
0.00021069699
0.00021907944
0.00022725758
0.00023523287
0.00024300704
0.00025058209
0.00025796021
0.0002651438
0.0002721354
0.00027893773
0.00028555356
0.00029198599
0.00029823782
0.00030431291
0.0003102132
0.00031594542
0.00032150638
0.00032691867
0.00033212527
0.00033737558
0.00034168194
0.0003492322
0.00024787356
0.00024823607
0.00024860664
0.00024896131
0.00024927809
0.00024954133
0.00024974524
0.00024989143
0.00024998475
0.00025003043
0.00025003225
0.00024999108
0.00024990391
0.00024976345
0.00024955826
0.00024927327
0.00024889039
0.00024838941
0.00024774898
0.0002469475
0.00024596386
0.00024477814
0.00024337207
0.00024172942
0.0002398362
0.00023768077
0.00023525376
0.00023254798
0.00022955817
0.0002262807
0.00022271319
0.00021885416
0.00021470266
0.0002102575
0.00020551704
0.00020047897
0.00019513899
0.00018949088
0.00018352662
0.00017723428
0.00017059875
0.00016360454
0.00015622754
0.00014844494
0.00014023532
0.00013155637
0.00012240522
0.00011273501
0.00010251874
9.1833157e-05
8.0575463e-05
6.8988904e-05
5.7251489e-05
4.5956563e-05
3.5509442e-05
2.6546812e-05
1.9712399e-05
1.5228868e-05
1.3564238e-05
1.4445274e-05
1.7870684e-05
2.3807438e-05
3.188995e-05
4.1501009e-05
5.2027948e-05
6.3043594e-05
7.4297434e-05
8.5638361e-05
9.6968769e-05
0.00010822423
0.00011936117
0.00013034942
0.00014116788
0.00015180166
0.00016224022
0.00017247616
0.00018250439
0.00019232154
0.00020192554
0.00021131531
0.00022049057
0.00022945166
0.00023819943
0.00024673513
0.00025506036
0.00026317699
0.00027108717
0.00027879327
0.00028629779
0.00029360359
0.00030071334
0.00030763071
0.00031435772
0.00032090082