/*--------------------------------*- C++ -*----------------------------------*\
| =========                 |                                                 |
| \\      /  F ield         | OpenFOAM: The Open Source CFD Toolbox           |
|  \\    /   O peration     | Version:  2206                                  |
|   \\  /    A nd           | Website:  www.openfoam.com                      |
|    \\/     M anipulation  |                                                 |
\*---------------------------------------------------------------------------*/
FoamFile
{
    version     2.0;
    format      ascii;
    arch        "LSB;label=32;scalar=64";
    class       volScalarField;
    location    "1400";
    object      p;
}
// * * * * * * * * * * * * * * * * * * * * * * * * * * * * * * * * * * * * * //

dimensions      [0 2 -2 0 0 0 0];

internalField   nonuniform List<scalar> 
7480
(
0.062889775
0.051983343
0.036582435
0.027215439
0.021922288
0.018740605
0.016731566
0.015194687
0.013847113
0.012723973
0.011832839
0.011132483
0.010601621
0.010213753
0.0099377796
0.009751282
0.0096338868
0.0095710748
0.0095443551
0.0095397423
0.0095592645
0.0095809748
0.0095962635
0.0096073866
0.0096123511
0.0096099248
0.0096008959
0.0095854536
0.0095621657
0.0095315841
0.0094949609
0.0094527725
0.0094054884
0.0093538929
0.0092979953
0.0092379244
0.0091739144
0.0091058983
0.009034219
0.0089593068
0.0088812369
0.0087999106
0.0087158667
0.0086291882
0.0085398641
0.00844828
0.0083542498
0.0082578953
0.0081594151
0.008058569
0.0079556906
0.0078507485
0.0077437636
0.0076348973
0.0075239223
0.007411064
0.0072962321
0.0071794336
0.0070606583
0.0069398572
0.0068171453
0.0066923827
0.0065656752
0.0064369156
0.0063061303
0.0061732722
0.0060383066
0.0059012027
0.005761929
0.0056204801
0.005476804
0.0053308976
0.0051827089
0.0050322475
0.0048794556
0.0047243433
0.0045668616
0.0044070409
0.0042448447
0.0040803239
0.0039134648
0.0037443448
0.0035730061
0.0033995378
0.0032240948
0.0030467998
0.0028679792
0.0026878271
0.002507034
0.0023257393
0.0021458306
0.0019661902
0.001793881
0.0016193482
0.0014736855
0.0013034466
0.0012446355
0.0010397466
0.0018314513
-0.0018185056
0.059200021
0.050978317
0.038646186
0.029357888
0.023043313
0.019239095
0.016976525
0.015346995
0.013962461
0.01282368
0.011921635
0.011211604
0.010672503
0.010276812
0.0099932704
0.0097999144
0.0096766459
0.009608573
0.0095796375
0.0095765256
0.0095890832
0.0096038837
0.0096168338
0.0096259463
0.009629104
0.0096251283
0.0096147537
0.0095981074
0.0095737512
0.0095422424
0.0095048071
0.0094618885
0.009413948
0.0093617599
0.0093053232
0.0092447648
0.0091803159
0.009111902
0.0090398583
0.0089646128
0.0088862355
0.0088046257
0.0087203209
0.0086333994
0.0085438496
0.0084520553
0.0083578285
0.0082612915
0.0081626404
0.0080616341
0.0079586058
0.0078535224
0.0077464044
0.0076374125
0.0075263189
0.0074133487
0.0072984108
0.0071815123
0.0070626422
0.0069417513
0.0068189542
0.0066941103
0.0065673258
0.006438493
0.0063076379
0.0061747134
0.0060396848
0.0059025208
0.0057631899
0.0056216863
0.0054779583
0.0053320022
0.0051837662
0.0050332595
0.0048804246
0.0047252712
0.0045677502
0.004407892
0.00424566
0.0040811051
0.0039142134
0.0037450624
0.003573694
0.0034001974
0.0032247275
0.0030474068
0.0028685619
0.0026883866
0.0025075717
0.0023262564
0.0021463287
0.0019666703
0.0017943461
0.0016197985
0.0014741273
0.0013038803
0.0012450741
0.0010402674
0.0018318653
-0.0018179439
0.055433333
0.048668165
0.037881898
0.029125144
0.023304155
0.019749912
0.017474488
0.015750014
0.014281391
0.013092025
0.012153229
0.011412375
0.010849317
0.010433411
0.010132424
0.0099245131
0.0097884066
0.0097087783
0.0096702329
0.0096584123
0.0096597856
0.0096667547
0.0096734256
0.0096767895
0.0096749144
0.0096666571
0.0096525674
0.0096325261
0.0096051268
0.0095709741
0.0095312367
0.0094862512
0.0094364552
0.0093825916
0.0093246351
0.0092626851
0.0091969821
0.0091274501
0.0090543704
0.0089781809
0.0088989378
0.008816533
0.0087315015
0.0086439083
0.008553738
0.0084613697
0.0083666078
0.0082695763
0.0081704661
0.0080690314
0.0079656055
0.00786015
0.0077526845
0.0076433669
0.0075319671
0.0074187103
0.0073035023
0.0071863497
0.0070672407
0.0069461247
0.0068231153
0.0066980707
0.0065710967
0.0064420845
0.0063110598
0.0061779746
0.0060427937
0.0059054857
0.005766018
0.0056243848
0.0054805335
0.0053344604
0.0051861132
0.005035501
0.0048825655
0.0047273166
0.0045697049
0.0044097603
0.0042474461
0.004082813
0.0039158469
0.0037466251
0.0035751894
0.0034016288
0.003226098
0.0030487196
0.00286982
0.0026895929
0.0025087293
0.0023273679
0.0021473982
0.0019676995
0.0017953426
0.0016207601
0.0014750744
0.0013048006
0.0012460234
0.0010412213
0.0018329469
-0.001817211
0.05252928
0.046953507
0.037629759
0.02943814
0.023878907
0.020302651
0.017934079
0.016158761
0.014657644
0.013438529
0.012466054
0.011690075
0.011098017
0.01065649
0.010332175
0.010103464
0.009948146
0.009851333
0.0097976121
0.009772404
0.0097624788
0.0097598053
0.00975785
0.0097535593
0.0097447948
0.0097304467
0.0097109793
0.0096860204
0.0096541839
0.0096161443
0.0095729602
0.0095248388
0.0094722127
0.0094157872
0.0093554965
0.0092913394
0.0092236377
0.0091523369
0.0090775857
0.0089998774
0.00891924
0.0088355516
0.008749346
0.0086606667
0.0085694935
0.0084761959
0.0083805651
0.0082827311
0.0081828754
0.0080807451
0.0079766744
0.0078706163
0.0077625888
0.0076527452
0.0075408513
0.0074271329
0.0073114904
0.007193929
0.0070744355
0.0069529585
0.0068296097
0.0067042444
0.0065769682
0.0064476706
0.0063163765
0.0061830363
0.0060476141
0.0059100778
0.0057703942
0.0056285562
0.0054845108
0.0053382536
0.0051897318
0.0050389537
0.0048858609
0.0047304625
0.0045727087
0.0044126293
0.0042501869
0.0040854319
0.00391835
0.0037490181
0.0035774777
0.0034038177
0.0032281926
0.0030507245
0.0028717401
0.0026914326
0.0025104935
0.0023290607
0.0021490255
0.0019692642
0.0017968555
0.0016222191
0.0014765062
0.0013061904
0.0012474475
0.0010425941
0.0018346141
-0.0018162272
0.049800579
0.045124909
0.037168307
0.029793078
0.024516901
0.020886439
0.018395028
0.016524407
0.014952116
0.013715951
0.012740155
0.011956685
0.011348505
0.010884703
0.010540597
0.010293992
0.01012227
0.010010557
0.0099413521
0.0099013017
0.009878552
0.0098643366
0.0098530667
0.0098411557
0.0098255969
0.0098050863
0.0097800922
0.0097500764
0.0097135915
0.0096713805
0.009624373
0.0095726848
0.0095167703
0.0094573351
0.009394285
0.0093274948
0.0092573888
0.0091839293
0.0091071306
0.0090275463
0.008945176
0.0088598837
0.008772205
0.0086821569
0.0085897152
0.0084952402
0.0083985025
0.0082996395
0.0081988252
0.0080957985
0.0079908964
0.0078840597
0.0077753054
0.0076647821
0.0075522498
0.0074379353
0.0073217305
0.0072036396
0.0070836481
0.0069617041
0.0068379166
0.0067121369
0.0065844703
0.0064548044
0.0063231627
0.0061894936
0.0060537602
0.0059159299
0.0057759682
0.0056338667
0.0054895715
0.0053430775
0.0051943314
0.0050433407
0.0048900459
0.0047344558
0.0045765201
0.0044162679
0.0042536613
0.0040887505
0.0039215204
0.0037520478
0.0035803737
0.0034065867
0.003230841
0.0030532586
0.0028741657
0.0026937556
0.0025127198
0.0023311957
0.0021510761
0.0019712346
0.0017987572
0.0016240519
0.0014782967
0.0013079271
0.0012492086
0.0010442928
0.0018366864
-0.0018150025
0.047260962
0.043201516
0.036477264
0.029926484
0.024942828
0.021374604
0.018843458
0.016917992
0.015309327
0.014033281
0.013017819
0.012194107
0.011559561
0.011077211
0.01072402
0.010465745
0.010277003
0.010154479
0.010076054
0.01002761
0.0099973076
0.0099744079
0.009954197
0.0099336346
0.0099100792
0.0098827776
0.00985236
0.0098177384
0.0097770382
0.0097310318
0.0096804837
0.009625387
0.0095662292
0.0095037585
0.0094378636
0.0093683685
0.009295764
0.0092199914
0.0091410042
0.0090593935
0.0089751298
0.0088880625
0.0087987415
0.0087071525
0.008613268
0.0085174511
0.0084194502
0.0083194093
0.0082174944
0.0081134328
0.008007566
0.0078998218
0.0077902186
0.0076789003
0.0075656215
0.007450609
0.0073337436
0.0072150302
0.0070944537
0.0069719606
0.0068476564
0.006721388
0.0065932608
0.0064631602
0.0063311089
0.0061970517
0.0060609511
0.005922774
0.0057824842
0.0056400721
0.0054954823
0.0053487093
0.0051996991
0.0050484579
0.0048949252
0.0047391096
0.0045809597
0.0044205042
0.0042577047
0.0040926106
0.0039252064
0.0037555685
0.0035837374
0.0034098013
0.003233914
0.0030561972
0.002876977
0.0026964463
0.0025152967
0.002333665
0.0021534454
0.0019735093
0.0018009484
0.001626162
0.0014803483
0.0013099145
0.0012512024
0.0010462242
0.0018390298
-0.0018135783
0.045039261
0.041381575
0.035640865
0.029855994
0.025221107
0.021774126
0.019238746
0.017281927
0.015662738
0.01436132
0.013316676
0.012465142
0.011799702
0.011286706
0.010904707
0.010619261
0.010407922
0.010272445
0.010185715
0.010129184
0.010091941
0.010065482
0.010043516
0.01002117
0.0099946422
0.0099626882
0.0099267657
0.0098866355
0.0098408891
0.009790901
0.0097371472
0.0096791294
0.0096172159
0.0095521433
0.0094837142
0.0094117461
0.0093368127
0.0092588133
0.0091776805
0.0090940649
0.0090078972
0.0089190138
0.0088279959
0.0087347949
0.0086393826
0.008542136
0.0084427834
0.0083414795
0.0082383798
0.0081331946
0.0080262757
0.0079175371
0.0078069983
0.0076948005
0.0075806902
0.0074648974
0.0073472942
0.0072278866
0.0071066567
0.0069835476
0.0068586623
0.0067318428
0.0066031958
0.0064726045
0.0063400903
0.006205594
0.0060690775
0.0059305075
0.0057898459
0.0056470816
0.005502158
0.0053550689
0.0052057588
0.0050542333
0.0049004307
0.0047443589
0.004585966
0.0044252798
0.0042622611
0.004096959
0.0039293572
0.0037595316
0.0035875222
0.0034134167
0.0032373687
0.0030594993
0.0028801344
0.0026994665
0.0025181873
0.0023364331
0.0021560988
0.0019760546
0.0018033957
0.0016285165
0.0014826274
0.001312119
0.0012533918
0.0010483462
0.0018415876
-0.0018119601
0.043110068
0.039795919
0.034804941
0.029666109
0.02538147
0.022081537
0.019575435
0.017610741
0.015987493
0.014667698
0.013602362
0.012733538
0.012046209
0.011507991
0.011102643
0.010792899
0.010556833
0.010400019
0.010292374
0.010217389
0.010166415
0.010132577
0.010107427
0.01008281
0.010056256
0.010025984
0.0099913901
0.0099517035
0.0099044088
0.0098512794
0.0097937861
0.0097321119
0.0096671626
0.0095997173
0.0095291909
0.0094552092
0.0093783869
0.009298523
0.0092155229
0.0091301207
0.0090422068
0.0089516178
0.0088589818
0.0087642164
0.0086673023
0.0085686344
0.0084679179
0.0083653296
0.0082610149
0.0081546671
0.0080466549
0.0079368761
0.0078253521
0.0077122226
0.0075972235
0.0074805929
0.0073621971
0.0072420426
0.007120107
0.0069963299
0.0068708127
0.0067433929
0.0066141786
0.0064830497
0.0063500265
0.0062150477
0.0060780742
0.0059390713
0.0057979995
0.0056548464
0.0055095543
0.0053621156
0.0052124735
0.0050606329
0.0049065309
0.0047501752
0.0045915124
0.0044305702
0.0042673081
0.0041017748
0.0039339533
0.003763919
0.0035917113
0.0034174174
0.0032411903
0.0030631509
0.0028836247
0.0027028038
0.0025213798
0.0023394886
0.0021590253
0.0019788598
0.0018060884
0.0016311048
0.0014851227
0.0013145286
0.0012557624
0.0010506402
0.0018443288
-0.0018101318
0.041391564
0.038416059
0.034052773
0.029455047
0.025481172
0.022325581
0.019865379
0.017907334
0.016286667
0.014957797
0.013877857
0.012993965
0.012286591
0.011727786
0.011299359
0.010968766
0.010714385
0.010537335
0.010410521
0.010318787
0.010253082
0.010205183
0.010167609
0.010132477
0.010099283
0.01006754
0.010033128
0.0099940526
0.0099497552
0.0098997852
0.0098445184
0.0097831556
0.0097166059
0.009646599
0.0095733817
0.0094970683
0.0094184943
0.0093371389
0.0092526914
0.0091659181
0.0090766158
0.0089846126
0.0088905962
0.0087944482
0.0086961723
0.0085961905
0.0084941847
0.0083903659
0.008284873
0.0081773825
0.0080682867
0.0079574661
0.0078449482
0.0077308719
0.0076149627
0.0074974697
0.0073782515
0.0072573176
0.0071346423
0.0070101624
0.0068839782
0.0067559226
0.006626106
0.0064944032
0.0063608347
0.0062253386
0.0060878748
0.0059484062
0.005806892
0.0056633189
0.0055176279
0.0053698102
0.005219808
0.005067625
0.0049131975
0.0047565325
0.0045975758
0.0044363542
0.0042728264
0.0041070406
0.003938979
0.0037687164
0.0035962915
0.0034217911
0.0032453679
0.0030671419
0.0028874386
0.0027064495
0.0025248659
0.0023428236
0.0021622174
0.0019819177
0.0018090195
0.00163392
0.0014878265
0.0013171354
0.0012583043
0.0010530938
0.0018472256
-0.0018080703
0.039834557
0.037173503
0.033360882
0.029244498
0.025555966
0.022539098
0.02013042
0.018184978
0.016569396
0.015235575
0.01414395
0.013246732
0.012522079
0.01194467
0.011494902
0.01114487
0.010872812
0.010675966
0.010531574
0.010425142
0.010345719
0.01028481
0.010236454
0.010192001
0.010150311
0.010110758
0.010068973
0.010023974
0.0099779491
0.0099288251
0.0098751303
0.0098168656
0.0097539667
0.0096867484
0.0096147689
0.0095378108
0.0094575227
0.0093742204
0.0092880446
0.0092000032
0.0091096317
0.0090165905
0.0089215727
0.0088243733
0.0087250122
0.0086239446
0.008520827
0.0084159209
0.0083093628
0.0082008157
0.0080907047
0.0079788927
0.0078654184
0.0077504216
0.0076336175
0.00751527
0.0073952287
0.0072735087
0.0071500822
0.0070248847
0.0068980159
0.0067693042
0.0066388634
0.0065065636
0.006372426
0.0062363876
0.0060984081
0.0059584484
0.0058164666
0.0056724483
0.0055263334
0.0053781126
0.0052277261
0.0050751773
0.0049204016
0.0047634053
0.0046041331
0.0044426113
0.0042787978
0.00411274
0.0039444193
0.0037739104
0.0036012509
0.0034265274
0.0032498917
0.0030714636
0.0028915681
0.0027103963
0.0025286391
0.0023464322
0.0021656695
0.0019852228
0.0018121834
0.0016369567
0.0014907327
0.0013199331
0.0012610091
0.0010556964
0.0018502519
-0.0018057485
0.038413275
0.036031223
0.032696594
0.029017142
0.02560365
0.022728476
0.020379002
0.018452272
0.016843661
0.015506663
0.014404751
0.013495103
0.012754602
0.012159542
0.011690053
0.011321107
0.011031624
0.01081609
0.010654939
0.010533108
0.010439852
0.010366849
0.010308166
0.010255303
0.010206063
0.010159465
0.010111358
0.010061147
0.010010146
0.0099560254
0.0098976906
0.0098373415
0.0097752232
0.0097098878
0.0096406874
0.0095673416
0.0094899919
0.0094083208
0.0093220242
0.0092328103
0.0091410085
0.0090467174
0.0089508041
0.0088528373
0.0087527285
0.0086509103
0.0085469747
0.0084412316
0.0083338144
0.0082243756
0.0081133854
0.0080006909
0.0078863492
0.007770504
0.0076528608
0.0075337028
0.0074128705
0.007290387
0.007166224
0.007040317
0.0069127665
0.0067833961
0.006652325
0.0065194193
0.0063847013
0.006248107
0.0061095962
0.0059691289
0.0058266619
0.0056821802
0.0055356228
0.0053869798
0.0052361901
0.0050832566
0.0049281137
0.0047707673
0.0046111613
0.0044493212
0.0042852041
0.004118857
0.0039502605
0.0037794888
0.0036065788
0.0034316165
0.0032547534
0.0030761086
0.0028960067
0.0027146385
0.0025326942
0.0023503098
0.0021693772
0.0019887714
0.0018155764
0.0016402112
0.001493837
0.0013229171
0.0012638705
0.0010584397
0.0018533823
-0.0018031345
0.037110268
0.034972718
0.032047695
0.028761705
0.025614606
0.022887436
0.020607756
0.018708386
0.017110737
0.015773182
0.014662772
0.013741536
0.01298604
0.012373945
0.011885583
0.011498074
0.01119135
0.010957804
0.010779954
0.010642851
0.010536112
0.010451142
0.010381687
0.010320034
0.010263197
0.010209885
0.010156425
0.010101644
0.010046104
0.0099877454
0.009925907
0.0098622372
0.0097966371
0.0097277296
0.0096563813
0.0095836512
0.0095081608
0.0094290727
0.0093462314
0.0092598687
0.0091696783
0.0090754398
0.0089786677
0.0088796347
0.0087786508
0.0086762095
0.0085717154
0.0084654396
0.0083574559
0.0082473798
0.0081357298
0.0080223325
0.0079072729
0.0077907035
0.0076723222
0.0075524383
0.0074308837
0.0073076923
0.0071828367
0.0070562542
0.0069280479
0.006798037
0.0066663481
0.0065328436
0.0063975483
0.0062603971
0.0061213511
0.0059803697
0.005837409
0.0056924538
0.0055454422
0.0053963644
0.0052451581
0.0050918258
0.0049363012
0.0047785901
0.0046186351
0.0044564618
0.0042920262
0.004125375
0.0039564879
0.0037854389
0.0036122641
0.0034370491
0.0032599448
0.0030810699
0.0029007485
0.0027191708
0.0025370267
0.0023544524
0.0021733373
0.0019925604
0.0018191955
0.0016436808
0.0014971362
0.0013260839
0.0012668832
0.0010613162
0.001856591
-0.0018001917
0.035911595
0.033988159
0.031412542
0.02847733
0.02558504
0.023010597
0.020811066
0.018948711
0.017367814
0.016033658
0.014917478
0.013986127
0.013216769
0.012588428
0.012081972
0.011676338
0.011352515
0.011101334
0.010906876
0.010754671
0.010634392
0.010537393
0.010457189
0.010386562
0.010321924
0.010261749
0.010202666
0.010143039
0.010083126
0.010021182
0.0099564184
0.009889879
0.0098213401
0.0097497841
0.0096760504
0.0096007703
0.0095225
0.0094415875
0.0093593684
0.0092748
0.0091870897
0.0090960744
0.0090019184
0.0089042172
0.00880324
0.0087001117
0.0085948184
0.008487969
0.0083795725
0.0082690983
0.0081570568
0.008043208
0.0079276512
0.0078105454
0.0076915813
0.0075711032
0.0074489352
0.0073251278
0.0071996559
0.0070724613
0.0069436512
0.0068130412
0.0066807678
0.0065466903
0.0064108372
0.0062731431
0.006133571
0.0059920808
0.0058486283
0.0057031986
0.0055557296
0.0054062116
0.0052545818
0.0051008424
0.0049449268
0.0047868407
0.004626526
0.004464008
0.0042992421
0.0041322748
0.0039630849
0.0037917463
0.0036182944
0.0034428144
0.0032654567
0.0030863395
0.0029057866
0.0027239877
0.0025416319
0.0023588559
0.0021775461
0.0019965867
0.0018230378
0.0016473628
0.001500627
0.0013294301
0.0012700421
0.0010643188
0.001859851
-0.0017968781
0.034805529
0.033070007
0.030792429
0.028167867
0.025516128
0.023096239
0.020985328
0.019169146
0.017611469
0.016285459
0.015166979
0.014227677
0.013446062
0.012802612
0.012279027
0.011855869
0.011515195
0.011246764
0.011035894
0.010868669
0.010734799
0.010625688
0.010534691
0.010454895
0.010382378
0.010315249
0.010250254
0.01018559
0.010121229
0.010055553
0.0099876389
0.0099182186
0.0098471458
0.0097735355
0.0096978546
0.0096204338
0.0095401379
0.0094574629
0.0093732847
0.009286494
0.0091974476
0.0091071618
0.0090147497
0.0089194994
0.0088214604
0.0087205912
0.0086162275
0.0085092551
0.0084002972
0.0082892563
0.0081768495
0.0080627193
0.0079468943
0.0078294874
0.007710154
0.0075892696
0.0074666467
0.0073423572
0.0072163819
0.0070886703
0.0069593374
0.0068281957
0.0066953945
0.0065607907
0.0064244181
0.0062862119
0.0061461381
0.0060041577
0.0058602273
0.0057143328
0.0055664124
0.0054164574
0.0052644046
0.0051102567
0.0049539467
0.0047954806
0.0046348
0.0044719302
0.0043068259
0.0041395337
0.0039700318
0.003798394
0.0036246549
0.0034488997
0.0032712783
0.0030919083
0.0029111131
0.0027290824
0.002546504
0.0023635156
0.0021819995
0.0020008467
0.0018271001
0.0016512542
0.0015043059
0.0013329523
0.001273342
0.0010674401
0.0018631326
-0.0017931461
0.033781995
0.032211885
0.030189077
0.027838559
0.025411496
0.023145199
0.02112902
0.019366929
0.017838867
0.016526044
0.015409187
0.014464628
0.013672777
0.0130157
0.012476176
0.012036283
0.01167917
0.011393951
0.011166938
0.010984815
0.010837385
0.010716125
0.010614271
0.010525153
0.010444604
0.010370375
0.010299323
0.0102295
0.010160556
0.010090965
0.010019741
0.0099473574
0.0098736679
0.0097978476
0.0097201609
0.0096408829
0.0095590915
0.0094750435
0.0093892793
0.0093009465
0.0092105359
0.0091186192
0.0090243725
0.0089284197
0.0088312689
0.0087321047
0.0086301971
0.0085257889
0.0084185699
0.0083080758
0.0081954304
0.0080808469
0.007964685
0.0078470664
0.0077275391
0.007606459
0.0074835847
0.0073589954
0.0072326733
0.0071045778
0.0069748355
0.0068432579
0.0067100113
0.006574951
0.0064381183
0.0062994498
0.0061589156
0.0060164791
0.0058720982
0.0057257608
0.0055774061
0.005427027
0.0052745604
0.0051200102
0.0049633092
0.0048044645
0.0046434172
0.0044801933
0.0043147469
0.004147125
0.0039773052
0.0038053615
0.003631328
0.0034552897
0.0032773962
0.0030977647
0.0029167184
0.0027344465
0.0025516358
0.0023684252
0.0021866923
0.002005336
0.0018313782
0.0016553516
0.0015081689
0.0013366465
0.001276777
0.0010706721
0.0018664032
-0.001788942
0.032832246
0.031408175
0.02960389
0.027494646
0.025275704
0.023159781
0.021242181
0.019540582
0.018048004
0.016753333
0.015642186
0.014695396
0.013895645
0.013226716
0.012672663
0.012217023
0.011844069
0.011542615
0.011299819
0.011102994
0.010942092
0.010808685
0.01069594
0.010597385
0.010508663
0.010427211
0.010349962
0.010274832
0.010201176
0.010127535
0.010052874
0.0099774313
0.0099010184
0.0098228575
0.0097430816
0.0096618946
0.0095784914
0.0094930064
0.0094058936
0.0093164723
0.0092250197
0.0091318742
0.0090364567
0.0089394115
0.0088407744
0.008740085
0.0086381683
0.0085348209
0.0084292744
0.0083212645
0.008210773
0.0080973133
0.0079813375
0.0078634493
0.0077435995
0.007622334
0.0074993357
0.007374626
0.0072481437
0.0071198371
0.0069898375
0.0068579537
0.0067243733
0.0065889516
0.006451741
0.0063126806
0.0061717462
0.0060289045
0.005884116
0.0057373716
0.0055886121
0.0054378329
0.0052849717
0.0051300341
0.0049729536
0.0048137386
0.0046523304
0.0044887556
0.0043229685
0.0041550165
0.0039848768
0.0038126242
0.0036382922
0.0034619657
0.0032837943
0.0031038948
0.0029225902
0.0027400696
0.0025570185
0.0023735773
0.0021916178
0.0020100488
0.0018358669
0.0016596502
0.0015122109
0.0013405079
0.0012803402
0.0010740058
0.0018696262
-0.0017842053
0.031948647
0.030653857
0.029037771
0.027140812
0.025113431
0.023142985
0.021325866
0.019689644
0.018237676
0.016965807
0.015864403
0.014918551
0.014113429
0.013434642
0.012867655
0.012397441
0.012009418
0.011692391
0.011434269
0.011223017
0.011048792
0.010903288
0.010779654
0.01067158
0.01057457
0.010485792
0.010402214
0.010321636
0.010243158
0.010165352
0.010087132
0.010008526
0.0099292895
0.0098486861
0.0097667316
0.0096835578
0.0095984507
0.0095114576
0.0094229536
0.009332346
0.0092398172
0.0091456797
0.0090494602
0.0089515504
0.008851916
0.0087503053
0.0086474588
0.0085427102
0.0084361381
0.0083285898
0.0082194079
0.0081078319
0.0079940502
0.0078777426
0.0077584863
0.0076371494
0.0075139033
0.0073890294
0.0072624635
0.00713409
0.0070040002
0.0068719712
0.0067382024
0.0066025449
0.0064650645
0.0063257052
0.0061844512
0.0060412737
0.0058961374
0.0057490371
0.0055999161
0.0054487733
0.005295548
0.0051402484
0.0049828088
0.00482324
0.0046614836
0.0044975679
0.0043314471
0.0041631698
0.0039927131
0.0038201526
0.0036455215
0.0034689051
0.0032904529
0.0031102815
0.0029287138
0.0027459388
0.0025626409
0.0023789621
0.0021967676
0.0020149778
0.0018405596
0.0016641442
0.0015164258
0.0013445305
0.0012840238
0.0010774304
0.0018727606
-0.0017788683
0.031124513
0.029944437
0.028491149
0.026781026
0.024929091
0.023098025
0.021381693
0.019814355
0.018407305
0.017162455
0.016074634
0.0151329
0.014325027
0.01363851
0.013060323
0.012576858
0.012174693
0.011842858
0.011569968
0.011344646
0.011157313
0.010999815
0.01086533
0.010747691
0.010642307
0.010546114
0.01045609
0.010369941
0.010286536
0.010204454
0.010122561
0.010040694
0.0099585474
0.0098754137
0.0097912019
0.0097059703
0.0096190802
0.0095305021
0.0094405359
0.009348667
0.0092550117
0.0091598411
0.0090627265
0.0089639749
0.0088636046
0.0087613766
0.0086577509
0.0085521887
0.0084448884
0.0083363763
0.0082259894
0.008114204
0.0080011658
0.0078861901
0.0077690108
0.0076494745
0.007527155
0.0074024523
0.0072757345
0.0071472163
0.0070170679
0.0068850049
0.0067511954
0.0066154513
0.0064778381
0.0063382997
0.0061968296
0.0060534061
0.0059079999
0.0057606112
0.0056111873
0.0054597313
0.0053061849
0.0051505597
0.0049927919
0.004832895
0.0046708116
0.0045065722
0.0043401315
0.0041715397
0.004000774
0.0038279115
0.003652985
0.0034760807
0.0032973481
0.0031169039
0.0029350709
0.0027520383
0.002568489
0.0023845675
0.0022021311
0.0020201137
0.0018454478
0.0016688261
0.0015208058
0.0013487071
0.0012878184
0.0010809337
0.0018757599
-0.0017728546
0.030353972
0.029275899
0.027964076
0.026418559
0.024726685
0.023028085
0.021411553
0.019915389
0.018556762
0.017342664
0.016272002
0.015337488
0.014529495
0.01383745
0.013249885
0.012754604
0.012339353
0.011993573
0.011706562
0.011467608
0.011267446
0.011098115
0.010952857
0.010825646
0.010711826
0.010608149
0.010511581
0.010419749
0.010331321
0.010244859
0.010159185
0.010073964
0.009988826
0.009903078
0.0098165352
0.0097291841
0.009640444
0.0095502195
0.0094587359
0.0093655439
0.0092706985
0.0091744271
0.0090763556
0.0089767322
0.0088755777
0.0087726473
0.0086683363
0.0085622319
0.0084544074
0.0083452112
0.0082341581
0.0081217509
0.0080076547
0.0078918716
0.0077750537
0.0076566163
0.0075359462
0.0074130461
0.0072875001
0.0071593857
0.0070291991
0.0068970137
0.0067631603
0.006627414
0.0064897955
0.0063502141
0.0062086556
0.0060650992
0.0059195215
0.0057719301
0.0056222777
0.0054705736
0.0053167627
0.0051608611
0.0050028071
0.0048426181
0.0046802383
0.0045157008
0.0043489615
0.0041800728
0.0040090123
0.0038358589
0.0036606458
0.0034834599
0.0033044512
0.0031237367
0.0029416393
0.0027583486
0.002574546
0.0023903787
0.0022076952
0.002025445
0.0018505211
0.0016736865
0.0015253413
0.0013530287
0.0012917129
0.0010845012
0.0018785712
-0.0017660789
0.029631848
0.028644662
0.02745632
0.026056056
0.024509768
0.022936204
0.021417447
0.01999369
0.018686219
0.017506111
0.016455881
0.015531555
0.014726041
0.014030692
0.013435626
0.012930046
0.012502866
0.012144086
0.011843681
0.011591608
0.011378964
0.011198012
0.011042104
0.010905348
0.010783065
0.010671852
0.010568661
0.010471049
0.010377509
0.010286571
0.010197014
0.010108353
0.010020143
0.0099316998
0.009842755
0.0097532246
0.0096625718
0.0095706445
0.0094775968
0.0093830307
0.0092869472
0.0091895301
0.0090904527
0.0089899013
0.0088878974
0.008784217
0.0086792055
0.0085724949
0.0084641037
0.0083543782
0.0082429062
0.0081299657
0.0080152888
0.0078989894
0.0077814112
0.0076620589
0.0075413106
0.0074191594
0.0072948959
0.00716852
0.0070396727
0.0069080709
0.0067742749
0.0066384466
0.0065007979
0.0063612337
0.0062196953
0.0060761291
0.005930498
0.0057828102
0.0056330223
0.0054811514
0.0053271469
0.005171031
0.0050127452
0.0048523114
0.0046896759
0.0045248755
0.0043578674
0.0041887069
0.0040173727
0.003843946
0.0036684603
0.0034910042
0.0033117283
0.0031307499
0.0029483927
0.0027648464
0.0025807913
0.0023963774
0.0022134438
0.0020309573
0.0018557665
0.0016787137
0.0015300208
0.0013574846
0.0012956943
0.0010881157
0.0018811338
-0.0017584457
0.028953568
0.028047529
0.02696745
0.025695618
0.024281459
0.022825229
0.021401401
0.020050369
0.018796059
0.01765268
0.016625832
0.015714499
0.014913991
0.014217556
0.013616893
0.013102587
0.012664717
0.012293951
0.011980952
0.01171634
0.011491621
0.011299316
0.011132923
0.01098669
0.010855943
0.010737167
0.010627292
0.010523816
0.010425084
0.010329584
0.01023605
0.010143863
0.010052506
0.0099612908
0.0098698751
0.0097781069
0.0096854807
0.0095917954
0.0094971381
0.00940115
0.0093037862
0.0092051873
0.0091050645
0.0090035473
0.0089006559
0.0087961852
0.0086904197
0.008583043
0.0084740564
0.0083637773
0.0082518155
0.0081383874
0.0080233301
0.0079066533
0.0077885678
0.0076687235
0.0075474489
0.0074244526
0.0072998512
0.0071738951
0.0070460209
0.0069160285
0.0067836259
0.0066485074
0.006511014
0.0063714086
0.0062298519
0.0060863166
0.0059407245
0.0057930512
0.005643237
0.0054912984
0.0053371877
0.005180934
0.0050224835
0.0048618639
0.0046990246
0.0045340063
0.0043667686
0.0041973701
0.004025791
0.0038521154
0.0036763778
0.0034986684
0.0033191391
0.003137908
0.0029552993
0.0027715037
0.0025872
0.0024025419
0.0022193575
0.0020366335
0.0018611682
0.0016838937
0.0015348303
0.0013620615
0.0012997474
0.0010917573
0.0018833792
-0.0017498482
0.028315076
0.02748165
0.026496896
0.02533889
0.024044464
0.022697794
0.021365417
0.020086643
0.018886825
0.017782419
0.016781569
0.015885839
0.01509277
0.014397435
0.013793086
0.013271666
0.012824408
0.012442731
0.012117996
0.011841491
0.011605162
0.011401824
0.011225151
0.011069547
0.01093037
0.010804025
0.010687423
0.010578017
0.010474023
0.010373881
0.010276285
0.010180493
0.010085916
0.0099918553
0.009897902
0.0098038389
0.0097091806
0.0096136836
0.0095173717
0.0094199152
0.0093212298
0.0092214139
0.0091202085
0.0090176947
0.008913887
0.0088085945
0.0087020448
0.008593969
0.0084843496
0.0083734612
0.0082609616
0.0081470382
0.0080315482
0.0079144589
0.0077959901
0.0076758323
0.0075541481
0.0074307163
0.0073057392
0.0071790503
0.0070506062
0.0069208396
0.0067892759
0.0066555311
0.0065194046
0.0063805897
0.0062392685
0.0060957313
0.0059501346
0.0058025025
0.005652741
0.0055008351
0.0053467188
0.0051904196
0.005031886
0.0048711525
0.0047081724
0.0045429921
0.0043755737
0.0042059802
0.0040341934
0.0038603012
0.0036843391
0.0035063998
0.0033266368
0.0031451691
0.0029623222
0.0027782877
0.002593743
0.002408846
0.0022254131
0.0020424527
0.0018667075
0.0016892093
0.0015397531
0.001366744
0.0013038543
0.0010954024
0.0018852421
-0.0017401666
0.027712773
0.026944477
0.026044003
0.024987134
0.023801108
0.022556314
0.021311442
0.0201038
0.018959182
0.017895508
0.016922926
0.016045197
0.015261881
0.01456978
0.013963647
0.01343675
0.012981457
0.012589995
0.012254438
0.011966741
0.011719323
0.01150532
0.011318619
0.011153786
0.011006244
0.010872348
0.010748998
0.010633612
0.010524296
0.010419444
0.010317706
0.010218235
0.010120369
0.010023392
0.0099268372
0.0098304233
0.0097336764
0.0096363153
0.0095383043
0.0094393342
0.0093392866
0.0092382186
0.009135895
0.0090323543
0.0089276022
0.0088214595
0.0087141037
0.0086053047
0.0084950257
0.0083835019
0.0082704358
0.0081559769
0.0080400001
0.0079224712
0.0078035973
0.0076830731
0.0075610272
0.0074373181
0.0073120042
0.0071849336
0.0070561633
0.0069258229
0.0067936522
0.0066599333
0.0065244868
0.0063868531
0.0062468494
0.0061041471
0.0059588437
0.0058112425
0.0056614894
0.0055096335
0.00535558
0.0051993264
0.0050408023
0.0048800405
0.0047169957
0.0045517205
0.0043841807
0.0042144446
0.0040424962
0.0038684278
0.0036922765
0.0035141377
0.003334167
0.0031524847
0.002969418
0.0027851596
0.0026003857
0.0024152591
0.0022315829
0.0020483902
0.0018723618
0.0016946401
0.0015447693
0.0013715136
0.0013079941
0.0010990233
0.0018866685
-0.0017292657
0.027143453
0.026433727