/*--------------------------------*- C++ -*----------------------------------*\
| =========                 |                                                 |
| \\      /  F ield         | OpenFOAM: The Open Source CFD Toolbox           |
|  \\    /   O peration     | Version:  2206                                  |
|   \\  /    A nd           | Website:  www.openfoam.com                      |
|    \\/     M anipulation  |                                                 |
\*---------------------------------------------------------------------------*/
FoamFile
{
    version     2.0;
    format      ascii;
    arch        "LSB;label=32;scalar=64";
    class       surfaceScalarField;
    location    "1400";
    object      phi;
}
// * * * * * * * * * * * * * * * * * * * * * * * * * * * * * * * * * * * * * //

dimensions      [0 3 -1 0 0 0 0];

oriented        oriented;

internalField   nonuniform List<scalar> 
14782
(
0.00064615919
7.5243882e-05
-0.00072140307
0.00055262928
9.3529912e-05
0.00046311101
8.9518271e-05
0.00039121384
7.1897167e-05
0.00033998984
5.1223995e-05
0.00030390905
3.6080794e-05
0.00027716123
2.6747817e-05
0.00025603292
2.1128314e-05
0.00023854085
1.7492066e-05
0.00022380019
1.4740661e-05
0.00021133298
1.246721e-05
0.00020075994
1.0573039e-05
0.00019178117
8.9787746e-06
0.00018414244
7.638725e-06
0.00017761905
6.5233923e-06
0.00017202991
5.5891372e-06
0.00016722643
4.8034861e-06
0.00016308512
4.1413096e-06
0.00015949491
3.5902054e-06
0.00015634741
3.1474976e-06
0.00015356748
2.7799298e-06
0.00015107732
2.4901688e-06
0.00014882017
2.2571492e-06
0.00014675707
2.0630992e-06
0.00014485583
1.9012362e-06
0.00014309103
1.7648049e-06
0.00014144325
1.647776e-06
0.00013989502
1.5482352e-06
0.00013842949
1.4655237e-06
0.00013703511
1.3943784e-06
0.00013570507
1.3300419e-06
0.00013443303
1.2720455e-06
0.00013321289
1.2201398e-06
0.00013203955
1.1733313e-06
0.00013090843
1.1311239e-06
0.0001298142
1.0942335e-06
0.0001287525
1.0617017e-06
0.00012772085
1.0316464e-06
0.0001267162
1.0046514e-06
0.00012573605
9.8014485e-07
0.00012477839
9.5766028e-07
0.00012384112
9.3727681e-07
0.00012292308
9.1803721e-07
0.00012202311
8.9996492e-07
0.00012113994
8.8317442e-07
0.00012027272
8.6721789e-07
0.0001194201
8.526173e-07
0.00011858108
8.3902057e-07
0.00011775507
8.2601427e-07
0.00011694113
8.1393953e-07
0.00011613888
8.022525e-07
0.0001153478
7.9107595e-07
0.00011456744
7.803619e-07
0.00011379753
7.6990924e-07
0.00011303749
7.600389e-07
0.0001122871
7.5039099e-07
0.00011154594
7.4115811e-07
0.00011081359
7.3234897e-07
0.00011008971
7.2388559e-07
0.00010937405
7.1565609e-07
0.00010866659
7.0745786e-07
0.00010796708
6.995153e-07
0.00010727536
6.9171551e-07
0.00010659124
6.8412082e-07
0.00010591459
6.7665462e-07
0.0001052452
6.693848e-07
0.00010458288
6.6232618e-07
0.00010392746
6.5541667e-07
0.00010327884
6.4862412e-07
0.0001026369
6.4193926e-07
0.0001020015
6.3539675e-07
0.00010137254
6.2896273e-07
0.0001007499
6.2263244e-07
0.00010013352
6.1638778e-07
9.9523232e-05
6.1028457e-07
9.8918939e-05
6.0429301e-07
9.8320511e-05
5.9842814e-07
9.7727854e-05
5.9265716e-07
9.7140843e-05
5.8701041e-07
9.6559382e-05
5.8146135e-07
9.5983338e-05
5.7604399e-07
9.5412602e-05
5.707363e-07
9.4847038e-05
5.6556348e-07
9.4286501e-05
5.6053747e-07
9.373084e-05
5.5566055e-07
9.3179855e-05
5.509856e-07
9.2633347e-05
5.4650734e-07
9.2091023e-05
5.4232405e-07
9.1552589e-05
5.3843424e-07
9.1017543e-05
5.3504638e-07
9.0485423e-05
5.3211949e-07
8.995512e-05
5.3030354e-07
8.9426079e-05
5.2904062e-07
8.889485e-05
5.3122886e-07
8.8362508e-05
5.3234203e-07
8.7813332e-05
5.4917572e-07
8.7262506e-05
5.5082658e-07
8.6614353e-05
6.4815296e-07
8.6353236e-05
2.6111661e-07
1.2004208e-06
0.00078824925
8.141949e-05
-0.00079442485
0.00076959354
0.00011218561
0.00073470757
0.00012440424
0.0006874213
0.00011918344
0.00063531754
0.00010332776
0.00058568784
8.5710489e-05
0.00054200202
7.0433636e-05
0.0005048692
5.8261135e-05
0.00047357695
4.8784322e-05
0.00044716868
4.1148926e-05
0.00042475295
3.4882944e-05
0.00040559391
2.9732073e-05
0.00038914266
2.5430029e-05
0.00037497105
2.1810331e-05
0.00036272949
1.876495e-05
0.00035212981
1.6188823e-05
0.00034291609
1.4017201e-05
0.00033486549
1.2191912e-05
0.00032778637
1.0669331e-05
0.00032151694
9.4169184e-06
0.0003159222
8.3746753e-06
0.00031088326
7.5291099e-06
0.00030630657
6.8338332e-06
0.00030211919
6.2504786e-06
0.000298261
5.7594273e-06
0.00029468369
5.3421165e-06
0.00029134875
4.9827145e-06
0.00028822214
4.6748519e-06
0.0002852743
4.4133632e-06
0.00028248274
4.1859337e-06
0.00027983111
3.9816777e-06
0.00027730482
3.7983355e-06
0.0002748908
3.634161e-06
0.00027257775
3.4863796e-06
0.00027035605
3.3528162e-06
0.00026821514
3.235146e-06
0.00026614615
3.1306934e-06
0.00026414344
3.0343551e-06
0.0002622004
2.9476909e-06
0.00026031162
2.8689274e-06
0.00025847265
2.7966255e-06
0.00025667928
2.7306481e-06
0.0002549284
2.6689193e-06
0.00025321716
2.6112061e-06
0.00025154279
2.5575404e-06
0.00024990302
2.5069953e-06
0.00024829515
2.4604862e-06
0.00024671699
2.4171782e-06
0.00024516689
2.3761173e-06
0.00024364301
2.3378184e-06
0.00024214412
2.3011453e-06
0.00024066896
2.2662346e-06
0.00023921642
2.2329033e-06
0.00023778561
2.2007162e-06
0.00023637541
2.1702382e-06
0.00023498506
2.1407365e-06
0.00023361365
2.1125701e-06
0.00023226025
2.0857524e-06
0.00023092407
2.0600679e-06
0.00022960454
2.0351861e-06
0.00022830133
2.0106615e-06
0.00022701391
1.9869392e-06
0.00022574182
1.9638077e-06
0.00022448459
1.9413446e-06
0.00022324186
1.9193841e-06
0.00022201318
1.8980702e-06
0.00022079807
1.8774308e-06
0.00021959619
1.8573025e-06
0.00021840722
1.8375925e-06
0.00021723088
1.8182775e-06
0.00021606686
1.7994212e-06
0.00021491487
1.7809457e-06
0.00021377469
1.7628193e-06
0.00021264606
1.7450097e-06
0.00021152871
1.7276351e-06
0.00021042237
1.7106327e-06
0.00020932678
1.6940204e-06
0.00020824171
1.6777297e-06
0.0002071669
1.6618161e-06
0.00020610214
1.6462277e-06
0.00020504715
1.6310328e-06
0.0002040017
1.6161884e-06
0.00020296551
1.6017503e-06
0.0002019383
1.5877497e-06
0.00020091975
1.5742066e-06
0.0001999095
1.5612378e-06
0.00019890713
1.5488763e-06
0.00019791213
1.5373191e-06
0.00019692387
1.5267022e-06
0.00019594158
1.5173346e-06
0.00019496401
1.5096901e-06
0.00019399
1.5043069e-06
0.00019301658
1.5024688e-06
0.00019204171
1.5060996e-06
0.00019105824
1.5158081e-06
0.00019005636
1.551056e-06
0.00018902439
1.5827944e-06
0.000187915
1.7575417e-06
0.00018702195
1.154168e-06
2.7522433e-06
0.00082992507
7.8035294e-05
-0.00082654088
0.00083419266
0.00010791803
0.00083521211
0.00012338479
0.0008283598
0.00012603575
0.00081013772
0.00012154984
0.00078252396
0.00011332424
0.00074983117
0.00010312643
0.00071563039
9.2461915e-05
0.00068211659
8.2298128e-05
0.00065061874
7.2646775e-05
0.0006217878
6.3713882e-05
0.0005958289
5.5690974e-05
0.0005726958
4.8563131e-05
0.00055218256
4.2323568e-05
0.00053401487
3.6932638e-05
0.00051791556
3.2288141e-05
0.00050361795
2.8314805e-05
0.00049088346
2.4926401e-05
0.00047950153
2.2051267e-05
0.00046928998
1.9628467e-05
0.00046008526
1.7579391e-05
0.00045174544
1.5868937e-05
0.00044414952
1.4429747e-05
0.00043719523
1.3204775e-05
0.00043079451
1.2160141e-05
0.000424871
1.1265628e-05
0.00041936248
1.0491239e-05
0.00041421858
9.8187432e-06
0.0004093957
9.2362507e-06
0.00040485715
8.7244818e-06
0.0004005719
8.2669243e-06
0.00039651293
7.8573057e-06
0.00039265676
7.4903302e-06
0.00038898351
7.1596338e-06
0.000385476
6.8603197e-06
0.00038211659
6.5945639e-06
0.00037889074
6.3565422e-06
0.0003757874
6.1376967e-06
0.00037279492
5.9401629e-06
0.00036990396
5.7598901e-06
0.00036710638
5.5942069e-06
0.00036439458
5.4424489e-06
0.00036176224
5.3012607e-06
0.00035920365
5.1697913e-06
0.00035671351
5.0476863e-06
0.00035428718
4.9333198e-06
0.00035192004
4.8276274e-06
0.00034960804
4.7291766e-06
0.0003473478
4.6363582e-06
0.00034513599
4.5496348e-06
0.00034296988
4.4672502e-06
0.00034084691
4.3892069e-06
0.00033876475
4.3150648e-06
0.00033672141
4.2440527e-06
0.00033471484
4.1768117e-06
0.00033274333
4.1122451e-06
0.00033080511
4.0507854e-06
0.00032889851
3.9923528e-06
0.00032702206
3.93652e-06
0.00032517454
3.8827049e-06
0.00032335498
3.8302202e-06
0.00032156227
3.7796529e-06
0.00031979541
3.7306668e-06
0.00031805346
3.6832943e-06
0.00031633558
3.6372652e-06
0.00031464089
3.5927638e-06
0.00031296852
3.5497948e-06
0.00031131775
3.5080691e-06
0.00030968793
3.4674177e-06
0.00030807843
3.4277812e-06
0.00030648863
3.3892212e-06
0.00030491797
3.3516018e-06
0.00030336594
3.3148507e-06
0.00030183203
3.2789162e-06
0.00030031571
3.2439563e-06
0.00029881648
3.2098671e-06
0.00029733384
3.1766549e-06
0.00029586736
3.1442125e-06
0.00029441657
3.1126058e-06
0.00029298104
3.0817561e-06
0.00029156032
3.0517564e-06
0.00029015396
3.0225422e-06
0.00028876152
2.9941964e-06
0.0002873825
2.9667708e-06
0.00028601639
2.9403127e-06
0.00028466263
2.9150028e-06
0.00028332055
2.8909494e-06
0.00028198944
2.8684329e-06
0.00028066829
2.847853e-06
0.00027935614
2.8294857e-06
0.00027805098
2.8148431e-06
0.00027675175
2.8035417e-06
0.00027545319
2.8010264e-06
0.00027415507
2.804219e-06
0.00027284241
2.8284664e-06
0.00027151313
2.8803379e-06
0.00027012833
2.9675985e-06
0.00026869578
3.1900909e-06
0.00026726631
2.583633e-06
4.4243202e-06
0.00086024822
7.4459828e-05
-0.00085667275
0.00086640322
0.00010176303
0.00087242584
0.00011736216
0.0008766643
0.00012179729
0.00087809426
0.00012011988
0.00087526931
0.0001161492
0.00086694625
0.00011144949
0.0008528299
0.00010657827
0.00083379336
0.00010133466
0.00081152214
9.4917997e-05
0.00078740636
8.7829661e-05
0.00076255451
8.0542829e-05
0.00073788904
7.3228599e-05
0.00071409912
6.611349e-05
0.00069164641
5.9385344e-05
0.00067079064
5.3143908e-05
0.00065161683
4.7488616e-05
0.00063409287
4.2450364e-05
0.0006181156
3.8028538e-05
0.00060355395
3.4190113e-05
0.00059026959
3.0863753e-05
0.00057813013
2.8008396e-05
0.00056701169
2.5548192e-05
0.00055679985
2.3416616e-05
0.00054738958
2.1570407e-05
0.00053868484
1.997037e-05
0.00053060294
1.8573143e-05
0.00052307542
1.7346259e-05
0.00051604168
1.6269996e-05
0.00050944829
1.531787e-05
0.0005032485
1.4466709e-05
0.00049740131
1.3704499e-05
0.0004918704
1.3021242e-05
0.00048662491
1.2405121e-05
0.00048163822
1.1847011e-05
0.00047688632
1.1346461e-05
0.00047234798
1.0894885e-05
0.00046800428
1.0481397e-05
0.00046383828
1.0106166e-05
0.00045983506
9.763106e-06
0.00045598154
9.4477265e-06
0.00045226565
9.1583394e-06
0.00044867689
8.8900188e-06
0.00044520579
8.6408939e-06
0.0004418436
8.4098791e-06
0.00043858274
8.1941742e-06
0.00043541605
7.9943188e-06
0.00043233703
7.8081971e-06
0.00042934008
7.6333056e-06
0.00042641988
7.4698404e-06
0.00042357176
7.3153652e-06
0.00042079138
7.1695859e-06
0.00041807479
7.0316569e-06
0.00041541856
6.9002896e-06
0.00041281935
6.7760181e-06
0.00041027422
6.6573734e-06
0.00040778028
6.5447279e-06
0.00040533489
6.4377413e-06
0.00040293572
6.3356894e-06
0.00040058067
6.2377518e-06
0.00039826789
6.1430022e-06
0.00039599548
6.0520616e-06
0.00039376175
5.9644045e-06
0.00039156508
5.879956e-06
0.00038940404
5.7983116e-06
0.00038727716
5.7196388e-06
0.0003851831
5.6438595e-06
0.00038312063
5.5705363e-06
0.00038108864
5.4994119e-06
0.00037908606
5.4303585e-06
0.00037711189
5.3633924e-06
0.00037516519
5.2983006e-06
0.00037324508
5.2349617e-06
0.0003713507
5.1732897e-06
0.00036948121
5.113446e-06
0.00036763581
5.0552686e-06
0.00036581373
4.9987385e-06
0.00036401424
4.9437017e-06
0.00036223663
4.890218e-06
0.00036048021
4.8381738e-06
0.00035874429
4.7876739e-06
0.00035702821
4.7386276e-06
0.00035533127
4.6911366e-06
0.00035365277
4.6452698e-06
0.00035199198
4.6011042e-06
0.0003503481
4.5588807e-06
0.00034872024
4.5188043e-06
0.00034710745
4.4812282e-06
0.00034550841
4.4468937e-06
0.00034392193
4.4159666e-06
0.00034234545
4.391318e-06
0.00034077783
4.3711679e-06
0.00033921232
4.366534e-06
0.00033764958
4.366954e-06
0.00033606975
4.4083036e-06
0.00033447512
4.4749653e-06
0.00033280936
4.6333552e-06
0.00033111419
4.8852578e-06
0.00032926696
4.4308651e-06
6.2061307e-06
0.000890231
7.1425512e-05
-0.00088719669
0.00089606233
9.5931703e-05
0.00090239311
0.00011103138
0.00090773491
0.00011645549
0.00091150071
0.00011635408
0.00091403766
0.00011361225
0.00091514133
0.00011034582
0.00091441517
0.00010730443
0.00091155966
0.00010419017
0.00090557465
0.000100903
0.00089604478
9.7359534e-05
0.00088309881
9.3488805e-05
0.00086736391
8.8963489e-05
0.00084955069
8.3926712e-05
0.00083030118
7.8634862e-05
0.0008102538
7.3191279e-05
0.00079001708
6.7725336e-05
0.00077011873
6.234872e-05
0.00075096168
5.7185591e-05
0.00073281085
5.234094e-05
0.00071579697
4.7877628e-05
0.00069994539
4.3859977e-05
0.00068521868
4.0274903e-05
0.00067155023
3.7085062e-05
0.00065886219
3.4258451e-05
0.00064707338
3.1759184e-05
0.00063610395
2.9542571e-05
0.00062587803
2.7572176e-05
0.00061632371
2.5824318e-05
0.00060737593
2.4265647e-05
0.00059897673
2.286591e-05
0.00059107348
2.1607752e-05
0.0005836184
2.0476318e-05
0.00057656971
1.945381e-05
0.00056989015
1.852657e-05
0.00056354763
1.7688986e-05
0.00055751341
1.6929107e-05
0.00055176031
1.6234497e-05
0.00054626474
1.5601727e-05
0.00054100573
1.5022122e-05
0.00053596436
1.4489093e-05
0.00053112311
1.3999594e-05
0.00052646652
1.3546602e-05
0.0005219806
1.3126815e-05
0.00051765238
1.2738102e-05
0.00051347066
1.237589e-05
0.00050942527
1.2039709e-05
0.00050550698
1.1726489e-05
0.00050170759
1.1432695e-05
0.00049801924
1.1158194e-05
0.00049443487
1.0899735e-05
0.00049094798
1.0656475e-05
0.00048755264
1.0426999e-05
0.00048424361
1.0209321e-05
0.0004810159
1.0003722e-05
0.000477865
9.808275e-06
0.00047478666
9.6230678e-06
0.00047177711
9.4472936e-06
0.00046883292
9.2798725e-06
0.00046595088
9.1197988e-06
0.00046312801
8.9658677e-06
0.00046036148
8.8185934e-06
0.00045764871
8.6771787e-06
0.00045498728
8.5413805e-06
0.00045237498
8.4106097e-06
0.00044980968
8.2849404e-06
0.00044728941
8.1641365e-06
0.00044481235
8.0475948e-06
0.00044237681
7.9349523e-06
0.0004399812
7.8259662e-06
0.00043762403
7.7205579e-06
0.00043530392
7.6184166e-06
0.00043301951
7.5193662e-06
0.00043076955
7.4232573e-06
0.00042855278
7.330208e-06
0.00042636807
7.2399767e-06
0.00042421431
7.152504e-06
0.00042209044
7.0675756e-06
0.00041999543
6.9852265e-06
0.00041792831
6.9052949e-06
0.0004158881
6.8278823e-06
0.00041387386
6.7528621e-06
0.00041188466
6.6803435e-06
0.00040991952
6.6104054e-06
0.00040797747
6.543151e-06
0.00040605748
6.4788761e-06
0.00040415839
6.4178923e-06
0.000402279
6.3606196e-06
0.00040041771
6.3081848e-06
0.00039857307
6.2606076e-06
0.00039674208
6.2223016e-06
0.0003949234
6.1898503e-06
0.0003931093
6.1806388e-06
0.00039130067
6.175581e-06
0.00038947469
6.2342793e-06
0.00038763564
6.314016e-06
0.00038571642
6.552577e-06
0.0003837786
6.8230772e-06
0.00038157547
6.6339988e-06
8.1235027e-06
0.00092103756
6.8774033e-05
-0.00091838608
0.00092624162
9.0727649e-05
0.00093205943
0.00010521357
0.00093718256
0.00011133237
0.00094128256
0.00011225407
0.00094428122
0.00011061359
0.00094641301
0.00010821403
0.00094789419
0.00010582324
0.00094885676
0.0001032276
0.00094916576
0.00010059401
0.00094850212
9.8023171e-05
0.0009465704
9.5420528e-05
0.0009427492
9.2784683e-05
0.0009365795
9.0096417e-05
0.00092785316
8.7361197e-05
0.00091668051
8.4363929e-05
0.00090339392
8.1011933e-05
0.0008883257
7.7416932e-05
0.00087186935
7.3641947e-05
0.00085450645
6.9703836e-05
0.00083675289
6.5631194e-05
0.00081907922
6.1533649e-05
0.00080186351
5.749061e-05
0.00078535952
5.3589047e-05
0.00076970006
4.9917918e-05
0.0007549274
4.6531836e-05
0.00074103226
4.343772e-05
0.00072797971
4.0624723e-05
0.00071572178
3.8082244e-05
0.00070420622
3.578121e-05
0.00069337909
3.3693043e-05
0.00068318609
3.1800752e-05
0.00067357527
3.0087131e-05
0.00066449896
2.8530118e-05
0.00065591225
2.7113284e-05
0.00064777442
2.5826813e-05
0.00064004941
2.465412e-05
0.0006327032
2.3580711e-05
0.00062570487
2.2600054e-05
0.00061902714
2.1699855e-05
0.00061264511
2.087112e-05
0.00060653559
2.0109114e-05
0.00060067787
1.9404326e-05
0.00059505304
1.8751642e-05
0.00058964366
1.8147479e-05
0.0005844343
1.7585249e-05
0.00057941093
1.7063085e-05
0.00057456094
1.6576476e-05
0.00056987302
1.6120618e-05
0.00056533637
1.5694837e-05
0.0005609413
1.5294808e-05
0.00055667885
1.4918931e-05
0.00055254074
1.4565101e-05
0.00054851959
1.4230479e-05
0.00054460828
1.3915025e-05
0.00054080044
1.3616118e-05
0.0005370903
1.3333207e-05
0.00053347268
1.3064911e-05
0.00052994278
1.2809776e-05
0.000526496
1.2566578e-05
0.00052312814
1.2333725e-05
0.00051983524
1.2111496e-05
0.00051661369
1.1898727e-05
0.00051346011
1.1694968e-05
0.00051037131
1.1499404e-05
0.00050734436
1.1311889e-05
0.00050437656
1.1131941e-05
0.00050146537
1.0958786e-05
0.0004986084
1.0791918e-05
0.00049580345
1.0630916e-05
0.00049304845
1.0475555e-05
0.00049034146
1.0325408e-05
0.00048768059
1.0180239e-05
0.00048506406
1.0039784e-05
0.00048249021
9.9040614e-06
0.00047995746
9.7727319e-06
0.00047746428
9.645676e-06
0.00047500926
9.5225997e-06
0.00047259099
9.4034914e-06
0.00047020817
9.2881234e-06
0.00046785947
9.1765756e-06
0.00046554366
9.0686718e-06
0.00046325949
8.9645145e-06
0.00046100572
8.8641818e-06
0.00045878107
8.7677956e-06
0.00045658425
8.6756989e-06
0.00045441383
8.5883117e-06
0.00045226833
8.5061164e-06
0.00045014587
8.4306498e-06
0.0004480447
8.3617696e-06
0.00044596147
8.30554e-06
0.00044389453
8.2567917e-06
0.00044183543
8.2397362e-06
0.00043978498
8.2260303e-06
0.00043771844
8.300816e-06
0.00043564081
8.3916469e-06
0.00043347783
8.7155557e-06
0.00043130401
8.9968945e-06
0.00042877335
9.1646653e-06
1.0194663e-05
0.00095283615
6.6430924e-05
-0.00095049304
0.00095747928
8.6084522e-05
0.00096281668
9.9876168e-05
0.00096759792
0.00010655113
0.0009714712
0.00010838078
0.00097445046
0.00010763433
0.00097676496
0.00010589953
0.00097864712
0.00010394109
0.0009801051
0.00010176962
0.00098118243
9.9516681e-05
0.00098193172
9.7273874e-05
0.0009823687
9.4983553e-05
0.00098242481
9.2728566e-05
0.00098190963
9.0611601e-05
0.00098067391
8.8596916e-05
0.00097833892
8.6698916e-05
0.00097442446
8.4926399e-05
0.00096864365
8.3197738e-05
0.00096080277
8.1482825e-05
0.00095090395
7.9602661e-05
0.00093909133
7.7443809e-05
0.00092557028
7.5054702e-05
0.00091066803
7.2392865e-05
0.00089482837
6.9428708e-05
0.00087853923
6.620705e-05
0.00086224623
6.2824839e-05
0.00084629709
5.9386864e-05
0.00083091528
5.6006529e-05
0.0008162126
5.2784927e-05
0.00080222896
4.9764853e-05
0.00078896535
4.6956647e-05
0.00077640266
4.4363441e-05
0.00076451088
4.1978918e-05
0.00075325402
3.9786975e-05
0.00074259191
3.777539e-05
0.00073248366
3.5935065e-05
0.0007228909
3.4246884e-05
0.00071377648
3.2695129e-05
0.00070510482
3.1271718e-05
0.00069684346
2.9961212e-05
0.00068896243
2.8752148e-05
0.00068143361
2.7637936e-05
0.00067423141
2.6606524e-05
0.00066733221
2.5650844e-05
0.00066071415
2.4765534e-05
0.00065435746
2.3941947e-05
0.00064824375
2.3176794e-05
0.00064235647
2.2463755e-05
0.0006366807
2.1796389e-05
0.00063120241
2.1173122e-05
0.00062590894
2.0588279e-05
0.00062078855
2.0039323e-05
0.0006158304
1.9523251e-05
0.00061102466
1.9036215e-05
0.00060636198
1.8577705e-05
0.00060183387
1.8144232e-05
0.00059743263
1.7734447e-05
0.00059315128
1.7346263e-05
0.00058898333
1.6977723e-05
0.00058492269
1.6627215e-05
0.00058096377
1.6292645e-05
0.00057710132
1.597395e-05
0.00057333054
1.566951e-05
0.00056964684
1.5378668e-05
0.00056604594
1.51003e-05
0.00056252398
1.4833855e-05
0.00055907738
1.4578536e-05
0.00055570275
1.4333411e-05
0.00055239691
1.4097767e-05
0.00054915688
1.3870945e-05
0.00054597991
1.3652525e-05
0.0005428634
1.3441915e-05
0.00053980486
1.3238779e-05
0.00053680194
1.3042702e-05
0.00053385244
1.2853561e-05
0.00053095429
1.2670886e-05
0.00052810549
1.2494473e-05
0.00052530417
1.2323921e-05
0.00052254851
1.2159147e-05
0.0005198368
1.1999835e-05
0.00051716736
1.1846022e-05
0.00051453856
1.1697464e-05
0.00051194884
1.155424e-05
0.00050939661
1.1416414e-05
0.00050688029
1.1284113e-05
0.00050439827
1.1157718e-05
0.00050194883
1.1037754e-05
0.00049953018
1.0924761e-05
0.00049714014
1.0820697e-05
0.00049477665
1.0725252e-05
0.00049243599
1.0646205e-05
0.0004901162
1.0576584e-05
0.00048780823
1.0547698e-05
0.00048551262
1.052164e-05
0.00048320329
1.0610151e-05
0.00048088531
1.0709621e-05
0.00047847925
1.1121623e-05
0.00047606929
1.140685e-05
0.00047322223
1.2011726e-05
1.2433132e-05
0.00098578978
6.4358716e-05
-0.00098371758
0.00098993251
8.1941799e-05
0.00099484771
9.4960963e-05
0.00099937973
0.00010201911
0.0010031065
0.00010465401
0.00100602
0.00010472084
0.001008308
0.00010361151
0.0010101743
0.00010207484
0.0010116948
0.0001002491
0.0010129387
9.8272807e-05
0.0010139571
9.6255428e-05
0.0010147417
9.4198917e-05
0.0010152928
9.217755e-05
0.0010156739
9.0230457e-05
0.0010158383
8.8432519e-05
0.0010157431
8.6794156e-05
0.0010153618
8.530764e-05
0.0010145243
8.4035281e-05
0.0010130413
8.2965822e-05
0.0010105828
8.2061104e-05
0.0010067711
8.1255515e-05
0.0010012966
8.0529277e-05
0.00099395304
7.9736385e-05
0.0009846876
7.8694142e-05
0.0009735607
7.7333951e-05
0.00096075912
7.5626424e-05
0.00094662839
7.3517597e-05
0.00093163146
7.1003451e-05
0.000916248
6.816839e-05
0.00090089164
6.5121217e-05
0.00088585701
6.1991279e-05
0.00087131669
5.8903753e-05
0.00085735405
5.5941562e-05
0.00084400155
5.3139475e-05
0.00083126395
5.0512989e-05
0.00081912959
4.8069427e-05
0.00080757746
4.5799011e-05
0.00079657998
4.3692605e-05
0.00078610613
4.1745573e-05
0.0007761249
3.994244e-05
0.0007666056
3.8271446e-05
0.00075751807
3.6725473e-05
0.00074883395
3.5290639e-05
0.00074052633
3.3958461e-05
0.00073256983
3.2722043e-05
0.00072494101
3.1570766e-05
0.00071761773
3.0500067e-05
0.0007105797
2.950179e-05
0.00070380837
2.8567719e-05
0.00069728632
2.769517e-05
0.00069099768
2.6876925e-05
0.00068492768
2.610932e-05
0.00067906275
2.5388182e-05
0.00067339047
2.4708493e-05
0.00066789912
2.4069056e-05
0.00066257795
2.3465405e-05
0.00065741698
2.289541e-05
0.00065240713
2.2356118e-05
0.00064754
2.1844852e-05
0.0006428078
2.1359412e-05
0.00063820335
2.0897093e-05
0.00063371991
2.0457393e-05
0.00062935128
2.003814e-05
0.00062509159
1.9638362e-05
0.00062093534
1.925655e-05
0.00061687752
1.8891668e-05
0.00061291353
1.8542531e-05
0.00060903898
1.8207959e-05
0.00060524977
1.7886977e-05
0.00060154207
1.7578647e-05
0.00059791229
1.7282302e-05
0.0005943571
1.6997109e-05
0.0005908733
1.6722577e-05
0.0005874579
1.6458106e-05
0.00058410807
1.6203386e-05
0.00058082117
1.5957792e-05
0.00057759465
1.5720992e-05
0.00057442612
1.5492451e-05
0.00057131328
1.5271982e-05
0.00056825396
1.5059155e-05
0.00056524604
1.4853939e-05
0.00056228751
1.4656001e-05
0.00055937637
1.4465377e-05
0.00055651069
1.4282095e-05
0.00055368852
1.4106277e-05
0.00055090791
1.3938327e-05
0.0005481668
1.3778866e-05
0.00054546308
1.3628484e-05
0.00054279421
1.3489566e-05
0.00054015783
1.3361632e-05
0.00053754982
1.3254213e-05
0.00053496789
1.3158521e-05
0.00053240246
1.3113122e-05
0.00052985368
1.3070422e-05
0.00052729444
1.3169391e-05
0.0005247296
1.3274465e-05
0.00052207558
1.3775638e-05
0.00051942487
1.4057557e-05
0.00051626284
1.5173761e-05
1.4850805e-05
0.001019953
6.2503767e-05
-0.001018098
0.0010236452
7.8249591e-05
0.0010281579
9.0448219e-05
0.0010324683
9.7708753e-05
0.0010361119
0.00010101043
0.0010390198
0.00010181287
0.0010413249
0.00010130649
0.001043196
0.00010020366
0.0010447225
9.8722649e-05
0.0010459757
9.7019605e-05
0.0010470116
9.5219518e-05
0.0010478533
9.3357186e-05
0.0010485253
9.1505592e-05
0.0010490463
8.9709487e-05
0.0010494333
8.8045444e-05
0.0010496872
8.6540346e-05
0.001049822
8.5172822e-05
0.0010498438
8.4013469e-05
0.0010497304
8.3079186e-05
0.0010494402
8.2351306e-05
0.0010488695
8.1826273e-05
0.0010478962
8.1502492e-05
0.0010463035
8.1329083e-05
0.0010437484
8.1249309e-05
0.0010398762
8.1206133e-05
0.001034361
8.1141603e-05
0.0010269987
8.0879881e-05
0.0010177394
8.0262748e-05
0.0010066485
7.9259341e-05
0.00099397045
7.7799248e-05
0.0009801178
7.5843936e-05
0.00096557779
7.3443763e-05
0.00095080455
7.0714799e-05
0.00093614609
6.7797939e-05
0.00092182309
6.4835988e-05
0.00090795442
6.1938095e-05
0.0008945984
5.915503e-05
0.00088177952
5.6511488e-05
0.00086950169
5.4023402e-05
0.0008577562
5.168793e-05
0.0008465256
4.9502038e-05
0.00083578745
4.7463624e-05
0.00082551766
4.556043e-05
0.00081569097
4.3785156e-05
0.00080628191
4.2131096e-05
0.00079726598
4.0586696e-05
0.00078861914
3.914691e-05
0.00078031866
3.7802268e-05
0.00077234328
3.65431e-05
0.00076467268
3.5365765e-05
0.00075728813
3.4261483e-05
0.00075017201
3.322544e-05
0.00074330802
3.2252171e-05
0.00073668114
3.1335369e-05
0.00073027717
3.0473023e-05
0.00072408302
2.965956e-05
0.00071808641
2.8892016e-05
0.00071227604
2.8166487e-05
0.00070664145
2.7479443e-05
0.00070117293
2.6827932e-05
0.00069586153
2.6208492e-05
0.00069069882
2.5620102e-05
0.00068567704
2.5059922e-05
0.00068078891
2.4526495e-05
0.00067602762
2.4017836e-05
0.00067138685
2.3532443e-05
0.00066686073
2.3068649e-05
0.0006624438
2.2624887e-05
0.00065813092
2.2199856e-05
0.00065391728
2.1792287e-05
0.00064979837
2.1401214e-05
0.00064576998
2.1025499e-05
0.00064182813
2.0664426e-05
0.00063796908
2.0317159e-05
0.0006341893
1.9983169e-05
0.00063048546
1.9661627e-05
0.00062685441
1.9352038e-05
0.00062329317
1.9053691e-05
0.00061979889
1.8766264e-05
0.00061636887
1.8489182e-05
0.00061300049
1.8222317e-05
0.00060969127
1.7965222e-05
0.00060643878
1.7717864e-05
0.00060324066
1.7480216e-05
0.00060009456
1.7252375e-05
0.00059699814
1.7034752e-05
0.00059394895
1.6828052e-05
0.00059094453
1.6632907e-05
0.00058798197
1.6452124e-05
0.00058505855
1.6285054e-05
0.00058216976
1.6143e-05
0.00057931291
1.6015367e-05
0.00057647797
1.5948067e-05
0.00057366459
1.5883798e-05
0.00057084484
1.5989149e-05
0.00056802316
1.6096143e-05
0.00056511248
1.6686317e-05
0.00056221306
1.6956978e-05
0.00055873124
1.8655572e-05
1.7459372e-05
0.0010553217
6.0808962e-05
-0.0010536269
0.0010586231
7.4948231e-05
0.0010627486
8.6322669e-05
0.0010668263
9.363108e-05
0.0010703874
9.7449351e-05
0.0010733064
9.8893833e-05
0.0010756574
9.8955469e-05
0.0010775727
9.8288433e-05
0.0010791376
9.7157659e-05
0.0010804201
9.573712e-05
0.0010814753
9.4164338e-05
0.0010823348
9.2497737e-05
0.0010830289
9.0811424e-05
0.0010835793
8.9159107e-05
0.0010840131
8.7611621e-05
0.0010843487
8.6204761e-05
0.0010845904
8.4931085e-05
0.0010847538
8.3850127e-05
0.0010848542
8.297878e-05
0.0010848884
8.2317096e-05
0.001084856
8.1858655e-05
0.0010847561
8.1602366e-05
0.0010845461
8.1539128e-05
0.0010841597
8.1635712e-05
0.0010834944
8.1871436e-05
0.0010824092
8.2226823e-05
0.0010806305
8.2658551e-05
0.0010777875
8.3105786e-05
0.0010735198
8.3527056e-05
0.0010675257
8.3793278e-05
0.0010596413
8.3728401e-05
0.0010498459
8.3239088e-05
0.0010383039
8.2256834e-05
0.0010253781
8.0723769e-05
0.0010115498
7.8664254e-05
0.00099729579
7.6192106e-05
0.00098299801
7.3452812e-05
0.00096890869
7.0600806e-05
0.00095517167
6.7760425e-05
0.00094186453
6.4995063e-05
0.00092902689
6.2339683e-05
0.00091667484
5.9815674e-05
0.00090480958
5.7425688e-05
0.00089342184
5.5172903e-05
0.00088249625
5.3056682e-05
0.00087201454
5.1068404e-05
0.00086195605
4.92054e-05
0.00085229949
4.745883e-05
0.00084302364
4.5818951e-05
0.00083410727
4.4282137e-05
0.00082553018
4.2838575e-05
0.00081727293
4.1482687e-05
0.00080931718
4.0207924e-05
0.00080164575
3.9006794e-05
0.00079424224
3.7876533e-05
0.00078709138
3.6810421e-05
0.00078017875
3.5804649e-05
0.0007734909
3.4854339e-05
0.00076701528
3.3955056e-05
0.00076074022
3.3103002e-05
0.00075465487
3.229384e-05
0.00074874902
3.1525944e-05
0.00074301324
3.0795706e-05
0.00073743867
3.010106e-05
0.00073201708
2.943943e-05
0.00072674072
2.8808802e-05
0.0007216024
2.8206973e-05
0.0007165954
2.7631885e-05
0.00071171343
2.7081822e-05
0.0007069506
2.6555121e-05
0.00070230136
2.6050457e-05
0.00069776052
2.5566333e-05
0.00069332322
2.5101727e-05
0.00068898487
2.4655513e-05
0.00068474114
2.4226903e-05
0.00068058795
2.3814814e-05
0.00067652145
2.3418539e-05
0.00067253798
2.3037154e-05
0.00066863409
2.2670163e-05
0.00066480646
2.2316811e-05
0.00066105193
2.1976841e-05
0.00065736749
2.1649661e-05
0.00065375022
2.1335142e-05
0.00065019725
2.1033179e-05
0.00064670581
2.074382e-05
0.0006432731
2.0467464e-05
0.00063989626
2.0204886e-05
0.00063657242
1.9956745e-05
0.00063329828
1.9726266e-05
0.0006300707
1.9512629e-05
0.00062688479
1.9328915e-05
0.00062373742
1.9162741e-05
0.00062061807
1.9067414e-05
0.0006175259
1.8975966e-05
0.00061443221
1.9082843e-05
0.00061134097
1.9187381e-05
0.00060816191
1.9865377e-05
0.00060500308
2.0115811e-05
0.00060119222
2.2466431e-05
2.0270965e-05
0.0010918851
5.923019e-05
-0.0010903063
0.0010948597
7.1973593e-05
0.0010986272
8.2555192e-05
0.0011024603
8.9797952e-05
0.0011059164
9.3993296e-05
0.001108833
9.5977228e-05
0.0011112308
9.6557616e-05
0.0011132035
9.6315775e-05
0.0011148249
9.5536183e-05
0.0011161569
9.4405124e-05
0.0011172522
9.3069062e-05
0.0011181453
9.1604693e-05
0.0011188675
9.0089213e-05
0.0011194432
8.8583341e-05
0.0011199
8.7154902e-05
0.0011202597
8.5845015e-05
0.0011205327
8.4658045e-05
0.0011207377
8.3645158e-05
0.0011208893
8.2827154e-05
0.0011209969
8.2209575e-05
0.0011210646
8.1790916e-05
0.0011211031
8.1563842e-05
0.0011211147
8.1527506e-05
0.0011210902
8.1660285e-05
0.0011210173
8.1944263e-05
0.0011208714
8.2372815e-05
0.001120605
8.2924856e-05
0.0011201345
8.3576299e-05
0.0011193437
8.4317924e-05
0.0011180175
8.5119482e-05
0.0011158171
8.5928761e-05
0.0011123589
8.6697264e-05
0.001107281
8.7334784e-05
0.0011003369
8.7667816e-05
0.0010914434
8.7557743e-05
0.0010807076
8.6927935e-05
0.001068458
8.5702378e-05
0.0010551703
8.3888505e-05
0.0010413334
8.1597422e-05
0.0010273458
7.8982589e-05
0.001013475
7.621048e-05
0.00099987824
7.3412459e-05
0.00098664517
7.0658759e-05
0.00097382563
6.7992442e-05
0.00096144447
6.5437844e-05
0.00094951017
6.3002699e-05
0.00093801964
6.0695933e-05
0.00092696317
5.8515301e-05
0.00091632691
5.6455207e-05
0.00090609401
5.4515038e-05