/*--------------------------------*- C++ -*----------------------------------*\
| =========                 |                                                 |
| \\      /  F ield         | OpenFOAM: The Open Source CFD Toolbox           |
|  \\    /   O peration     | Version:  2206                                  |
|   \\  /    A nd           | Website:  www.openfoam.com                      |
|    \\/     M anipulation  |                                                 |
\*---------------------------------------------------------------------------*/
FoamFile
{
    version     2.0;
    format      ascii;
    arch        "LSB;label=32;scalar=64";
    class       volVectorField;
    location    "1400";
    object      U;
}
// * * * * * * * * * * * * * * * * * * * * * * * * * * * * * * * * * * * * * //

dimensions      [0 1 -1 0 0 0 0];

internalField   nonuniform List<vector> 
7480
(
(0.86076752 0.014763151 5.8357874e-16)
(0.74498172 0.025621657 0)
(0.62910001 0.027257318 0)
(0.52581653 0.019483765 0)
(0.45018318 0.0094031705 0)
(0.39798479 0.0037519883 0)
(0.36027771 0.001719801 0)
(0.33117265 0.0012086845 0)
(0.30747591 0.0010853594 0)
(0.28758721 0.00096776246 0)
(0.27075633 0.0008177217 0)
(0.25649966 0.00067135621 0)
(0.24440265 0.00054351869 0)
(0.23411912 0.00043809669 0)
(0.22535536 0.00035442635 0)
(0.21785507 0.00028717587 0)
(0.21141821 0.00023275391 0)
(0.20588121 0.00018581889 0)
(0.20108411 0.00021188356 -7.3639687e-18)
(0.19692891 0.00028602682 -1.6666614e-17)
(0.19325342 0.00013535821 0)
(0.18998273 9.0549007e-05 0)
(0.18703809 7.75511e-05 0)
(0.18435512 6.8983906e-05 0)
(0.18189182 6.1637389e-05 0)
(0.1796118 5.5393121e-05 0)
(0.17748981 5.0093889e-05 0)
(0.17550189 4.5770225e-05 0)
(0.17362652 4.2368807e-05 0)
(0.17184534 3.9459439e-05 0)
(0.17014797 3.6750888e-05 0)
(0.16852694 3.4304752e-05 0)
(0.16697408 3.2128916e-05 0)
(0.16548289 3.0166735e-05 0)
(0.16404641 2.8407179e-05 0)
(0.16266051 2.6886738e-05 0)
(0.1613161 2.5528958e-05 0)
(0.16001113 2.4244064e-05 0)
(0.15874179 2.3089858e-05 0)
(0.15750428 2.2026654e-05 0)
(0.156296 2.1037953e-05 0)
(0.15511431 2.0133262e-05 0)
(0.15395721 1.9262338e-05 0)
(0.15282341 1.843652e-05 0)
(0.15171126 1.7663832e-05 0)
(0.15061961 1.692112e-05 0)
(0.14954701 1.6235088e-05 0)
(0.14849186 1.5586542e-05 0)
(0.14745331 1.4959972e-05 0)
(0.14643034 1.4373984e-05 0)
(0.14542215 1.3804005e-05 0)
(0.14442824 1.3258767e-05 0)
(0.14344792 1.2736839e-05 0)
(0.14248086 1.2230413e-05 0)
(0.14152643 1.1752679e-05 0)
(0.14058417 1.1288754e-05 0)
(0.13965373 1.0846671e-05 0)
(0.13873453 1.0425054e-05 0)
(0.13782606 1.0021171e-05 0)
(0.13692794 9.6329137e-06 0)
(0.13604009 9.2545248e-06 0)
(0.13516234 8.893029e-06 0)
(0.13429439 8.543619e-06 0)
(0.13343604 8.2086306e-06 0)
(0.13258709 7.8854829e-06 0)
(0.13174735 7.575622e-06 0)
(0.13091653 7.2787003e-06 0)
(0.13009441 6.9931341e-06 0)
(0.12928084 6.7182657e-06 0)
(0.12847568 6.4536018e-06 0)
(0.12767877 6.1996396e-06 0)
(0.12688995 5.9552494e-06 0)
(0.12610908 5.7203103e-06 0)
(0.12533608 5.4940421e-06 0)
(0.12457078 5.2772003e-06 0)
(0.12381302 5.0687479e-06 0)
(0.12306266 4.8688364e-06 0)
(0.12231955 4.6765145e-06 0)
(0.12158357 4.4921312e-06 0)
(0.12085457 4.3148418e-06 0)
(0.12013242 4.1449629e-06 0)
(0.11941696 3.9817831e-06 0)
(0.11870804 3.8253814e-06 0)
(0.11800549 3.6755663e-06 0)
(0.11730912 3.5319097e-06 0)
(0.11661871 3.3948268e-06 0)
(0.11593405 3.2634321e-06 0)
(0.11525475 3.1389263e-06 0)
(0.11458062 3.0193677e-06 0)
(0.11391083 2.908685e-06 0)
(0.11324554 2.7997935e-06 0)
(0.11258214 2.7093167e-06 0)
(0.11192332 2.6044717e-06 0)
(0.11125868 2.5604805e-06 0)
(0.11060367 2.4268746e-06 0)
(0.10991644 2.5343003e-06 0)
(0.10925837 2.226469e-06 -3.4136685e-21)
(0.10848611 6.2240449e-06 7.0088941e-20)
(0.10788474 -1.7036623e-06 -3.2233372e-19)
(0.10671184 1.2351404e-05 -1.1193145e-18)
(0.95766345 0.024830763 0)
(0.94369068 0.032454869 0)
(0.91263359 0.032573656 0)
(0.8611001 0.028759155 0)
(0.79835184 0.022916132 0)
(0.73541145 0.017277526 0)
(0.67857597 0.012887864 0)
(0.62986449 0.0098228595 0)
(0.58888033 0.0077457909 0)
(0.55438971 0.0062557896 0)
(0.52519234 0.0051168335 0)
(0.50030787 0.004218767 0)
(0.47897548 0.0034897008 0)
(0.4606209 0.0028913278 0)
(0.44478231 0.0024004013 0)
(0.43108635 0.0019960085 0)
(0.41920702 0.0016648099 0)
(0.4088565 0.0013951371 0)
(0.39978102 0.0011767748 0)
(0.3917736 0.00099678153 0)
(0.38465333 0.00084953619 0)
(0.37826863 0.00074434197 0)
(0.3724916 0.00065558696 0)
(0.36722266 0.00058103843 0)
(0.36238436 0.00051927383 0)
(0.35790918 0.0004674811 0)
(0.35374941 0.00042332269 0)
(0.34985919 0.00038582172 0)
(0.34620085 0.00035416746 0)
(0.3427424 0.00032677251 0)
(0.33946163 0.0003023172 0)
(0.33634058 0.00028046547 0)
(0.3333622 0.00026095442 0)
(0.33051241 0.00024344039 0)
(0.32777742 0.00022766043 0)
(0.32514815 0.000213672 0)
(0.32260812 0.00020114919 0)
(0.32015228 0.00018962307 0)
(0.3177723 0.00017918237 0)
(0.31546057 0.00016962909 0)
(0.31321149 0.00016082644 0)
(0.31101981 0.00015273305 0)
(0.30888105 0.00014516934 0)
(0.30679184 0.00013810074 0)
(0.30474867 0.00013151004 0)
(0.30274869 0.00012531742 0)
(0.3007888 0.00011956368 0)
(0.2988659 0.00011417714 0)
(0.29697785 0.00010908775 0)
(0.29512247 0.00010431444 0)
(0.29329791 9.9780362e-05 0)
(0.29150277 9.548437e-05 0)
(0.2897355 9.1408171e-05 0)
(0.28799506 8.7521995e-05 0)
(0.28628011 8.3846987e-05 0)
(0.28458956 8.0338809e-05 0)
(0.28292247 7.7007174e-05 0)
(0.28127766 7.3845277e-05 0)
(0.27965405 7.0837316e-05 0)
(0.27805079 6.7964082e-05 0)
(0.27646746 6.5202722e-05 0)
(0.27490354 6.2566771e-05 0)
(0.27335838 6.0042867e-05 0)
(0.27183143 5.7630086e-05 0)
(0.27032221 5.5318214e-05 0)
(0.26883025 5.3108115e-05 0)
(0.26735493 5.0996565e-05 0)
(0.26589576 4.8974577e-05 0)
(0.26445236 4.7035934e-05 0)
(0.2630244 4.5176753e-05 0)
(0.26161149 4.3395928e-05 0)
(0.26021327 4.1688177e-05 0)
(0.25882942 4.0049918e-05 0)
(0.2574597 3.8477515e-05 0)
(0.25610377 3.6971463e-05 0)
(0.25476128 3.5527488e-05 0)
(0.25343192 3.414364e-05 0)
(0.2521154 3.2815861e-05 0)
(0.25081143 3.1543257e-05 0)
(0.24951972 3.0322402e-05 0)
(0.24823997 2.9152692e-05 0)
(0.24697188 2.8031081e-05 0)
(0.24571516 2.6956688e-05 0)
(0.24446944 2.5928061e-05 0)
(0.2432344 2.4943473e-05 0)
(0.24200958 2.4003074e-05 0)
(0.24079459 2.3105047e-05 0)
(0.23958876 2.2250849e-05 0)
(0.23839165 2.1439435e-05 0)
(0.23720188 2.0674484e-05 0)
(0.23601956 1.9956577e-05 0)
(0.23484033 1.9296787e-05 0)
(0.23366838 1.8692864e-05 0)
(0.23248651 1.8195731e-05 0)
(0.23131953 1.7739325e-05 0)
(0.23009867 1.7678707e-05 0)
(0.22892282 1.7378863e-05 6.1245167e-21)
(0.22755487 1.9284866e-05 0)
(0.22646518 9.823e-06 0)
(0.22437843 3.1058093e-05 0)
(0.96666825 0.026217713 0)
(0.97152814 0.035058419 0)
(0.97651338 0.038607472 0)
(0.9753029 0.037486489 0)
(0.96070995 0.034270684 0)
(0.93258043 0.029934118 0)
(0.89596465 0.025242344 0)
(0.8559978 0.020852418 0)
(0.81593884 0.017132725 0)
(0.77771376 0.014079336 0)
(0.74237402 0.011600461 0)
(0.7103717 0.0096039639 0)
(0.68175824 0.0079830047 0)
(0.6563546 0.0066596576 0)
(0.63385578 0.005579117 0)
(0.61393214 0.0046930513 0)
(0.59626089 0.0039649448 0)
(0.58054555 0.0033651941 0)
(0.56652321 0.0028702653 0)
(0.55396563 0.0024633506 0)
(0.54267423 0.0021341256 0)
(0.53246843 0.0018657932 0)
(0.52319585 0.0016434224 0)
(0.51472731 0.001458162 0)
(0.50695275 0.0013030477 0)
(0.49977638 0.0011721869 0)
(0.49311652 0.0010603241 0)
(0.48690921 0.00096424827 0)
(0.4810999 0.00088185878 0)
(0.47564253 0.00081013721 0)
(0.47049752 0.00074658378 0)
(0.46563141 0.00069007968 0)
(0.46101476 0.00063974439 0)
(0.45662249 0.00059465146 0)
(0.45243279 0.00055408489 0)
(0.44842764 0.00051803582 0)
(0.44458379 0.00048571951 0)
(0.44089051 0.00045616228 0)
(0.4373328 0.00042939525 0)
(0.43389856 0.00040495619 0)
(0.43057789 0.00038251175 0)
(0.42736161 0.00036190864 0)
(0.42424151 0.00034279241 0)
(0.42121076 0.00032503215 0)
(0.41826287 0.00030853987 0)
(0.41539215 0.00029314235 0)
(0.41259318 0.00027885772 0)
(0.40986075 0.00026553537 0)
(0.40719067 0.00025302487 0)
(0.40457899 0.00024131947 0)
(0.40202218 0.00023027257 0)
(0.39951722 0.0002198562 0)
(0.39706116 0.00021001829 0)
(0.39465162 0.00020069162 0)
(0.39228615 0.00019189064 0)
(0.38996261 0.00018353265 0)
(0.387679 0.00017562078 0)
(0.38543325 0.00016813234 0)
(0.38322351 0.00016102879 0)
(0.38104818 0.00015426622 0)
(0.37890608 0.00014779893 0)
(0.37679602 0.00014164136 0)
(0.37471671 0.00013576618 0)
(0.37266701 0.00013016383 0)
(0.37064592 0.00012481208 0)
(0.36865246 0.0001197076 0)
(0.36668554 0.00011484037 0)
(0.36474426 0.0001101901 0)
(0.3628278 0.00010574193 0)
(0.36093545 0.00010148569 0)
(0.35906648 9.7415912e-05 0)
(0.35722018 9.35206e-05 0)
(0.35539592 8.9790467e-05 0)
(0.35359315 8.6217167e-05 0)
(0.35181124 8.279911e-05 0)
(0.35004957 7.9526921e-05 0)
(0.34830757 7.6394864e-05 0)
(0.3465847 7.3394234e-05 0)
(0.34488043 7.052146e-05 0)
(0.34319425 6.7769213e-05 0)
(0.34152563 6.51348e-05 0)
(0.33987404 6.2611704e-05 0)
(0.33823899 6.01971e-05 0)
(0.3366199 5.7887399e-05 0)
(0.33501623 5.5678845e-05 0)
(0.3334273 5.3570629e-05 0)
(0.33185248 5.1559742e-05 0)
(0.33029083 4.9647178e-05 0)
(0.32874167 4.7833843e-05 0)
(0.32720315 4.6121164e-05 0)
(0.32567528 4.452368e-05 0)
(0.32415246 4.3037241e-05 0)
(0.32263974 4.1717895e-05 0)
(0.32111539 4.0548589e-05 0)
(0.3196101 3.9652216e-05 0)
(0.31803785 3.9266622e-05 0)
(0.31652059 3.9101371e-05 4.5086439e-21)
(0.31476204 4.1305659e-05 0)
(0.31333729 2.9633313e-05 0)
(0.31066528 5.7214619e-05 -9.8181995e-21)
(0.96959559 0.024368577 0)
(0.97513087 0.032505898 0)
(0.9831243 0.036269837 0)
(0.98972034 0.036543906 0)
(0.99325809 0.034786753 0)
(0.99291419 0.032312384 0)
(0.98672379 0.029687373 0)
(0.97390199 0.02706804 0)
(0.95460817 0.024408758 0)
(0.93079107 0.021566516 0)
(0.90420008 0.018747588 0)
(0.87621787 0.016129616 0)
(0.847996 0.013793196 0)
(0.82044303 0.011764181 0)
(0.79420788 0.010024848 0)
(0.76968876 0.0085444228 0)
(0.74706581 0.007296208 0)
(0.72635311 0.0062503484 0)
(0.70745974 0.0053815827 0)
(0.69024283 0.0046634694 0)
(0.6745478 0.0040668767 0)
(0.66021837 0.0035705331 0)
(0.64711009 0.0031545045 0)
(0.63508852 0.0028024957 0)
(0.62402877 0.0025037582 0)
(0.61381829 0.0022493319 0)
(0.6043532 0.0020307794 0)
(0.59555011 0.0018420429 0)
(0.58733709 0.0016788004 0)
(0.57965017 0.0015361962 0)
(0.57243247 0.0014102018 0)
(0.56563477 0.0012985653 0)
(0.55921385 0.0011994197 0)
(0.55313107 0.0011108506 0)
(0.54735504 0.0010313386 0)
(0.54185709 0.00096034749 0)
(0.53661183 0.00089664172 0)
(0.53159641 0.00083873707 0)
(0.52679104 0.00078631891 0)
(0.52217737 0.00073860796 0)
(0.51773987 0.0006949494 0)
(0.51346442 0.00065498288 0)
(0.50933818 0.00061811304 0)
(0.50535002 0.00058404018 0)
(0.50148965 0.00055254108 0)
(0.49774781 0.00052328348 0)
(0.49411637 0.00049620477 0)
(0.49058742 0.00047104501 0)
(0.48715422 0.00044753628 0)
(0.48381066 0.00042561025 0)
(0.48055107 0.00040503048 0)
(0.47737042 0.00038571606 0)
(0.47426394 0.00036755696 0)
(0.47122756 0.00035042577 0)
(0.46825743 0.00033430699 0)
(0.46535005 0.00031907039 0)
(0.46250213 0.00030469701 0)
(0.45971049 0.00029113136 0)
(0.45697234 0.00027829986 0)
(0.45428517 0.00026612724 0)
(0.45164682 0.00025453945 0)
(0.44905516 0.00024354092 0)
(0.44650813 0.0002330826 0)
(0.44400387 0.00022313826 0)
(0.44154068 0.00021366818 0)
(0.43911695 0.00020465887 0)
(0.43673102 0.00019608756 0)
(0.43438146 0.00018791827 0)
(0.43206697 0.00018012394 0)
(0.42978632 0.00017268424 0)
(0.42753834 0.00016558514 0)
(0.42532193 0.00015880488 0)
(0.42313606 0.00015232583 0)
(0.42097977 0.00014613254 0)
(0.41885208 0.00014021827 0)
(0.41675207 0.00013456631 0)
(0.41467884 0.00012916498 0)
(0.41263155 0.00012399925 0)
(0.4106094 0.00011906089 0)
(0.40861159 0.00011433718 0)
(0.40663736 0.0001098217 0)
(0.40468591 0.00010550319 0)
(0.40275651 0.00010137558 0)
(0.40084835 9.7432007e-05 0)
(0.39896065 9.3665808e-05 0)
(0.39709251 9.0074133e-05 0)
(0.39524307 8.6652515e-05 0)
(0.39341113 8.3400166e-05 0)
(0.39159577 8.0321232e-05 0)
(0.38979481 7.7411546e-05 0)
(0.38800805 7.4707265e-05 0)
(0.38622919 7.2174644e-05 0)
(0.38446347 6.9963142e-05 0)
(0.38268692 6.7923938e-05 0)
(0.38093248 6.6510151e-05 0)
(0.37910627 6.5607139e-05 0)
(0.37733932 6.5773946e-05 3.4326957e-21)
(0.37530786 6.787651e-05 0)
(0.37363176 5.6717959e-05 0)
(0.37055172 8.4707061e-05 7.5984733e-21)
(0.97151608 0.023214548 0)
(0.97645155 0.030464314 0)
(0.98379677 0.034213326 0)
(0.99086736 0.034699244 0)
(0.99599744 0.033423079 0)
(0.99909059 0.03155298 0)
(1.0015366 0.029666673 0)
(1.0014068 0.027915775 0)
(0.99982438 0.026229837 0)
(0.99514098 0.024494103 0)
(0.98666498 0.022691276 0)
(0.97420929 0.020830257 0)
(0.95828266 0.018859154 0)
(0.93973053 0.016856067 0)
(0.91926726 0.014923692 0)
(0.89758295 0.013125403 0)
(0.87538199 0.011507029 0)
(0.85329566 0.010065369 0)
(0.83184122 0.008798086 0)
(0.81138354 0.0076993432 0)
(0.79213411 0.0067541394 0)
(0.77416591 0.0059515654 0)
(0.75746033 0.0052720825 0)
(0.7419534 0.0046938178 0)
(0.72756243 0.0041991898 0)
(0.7141999 0.0037738177 0)
(0.70177624 0.0034050556 0)
(0.69020564 0.0030837957 0)
(0.67940734 0.002803829 0)
(0.66930588 0.0025582549 0)
(0.65983423 0.0023412659 0)
(0.65093223 0.0021490889 0)
(0.64254518 0.0019784959 0)
(0.63462348 0.0018262878 0)
(0.62712506 0.0016899451 0)
(0.62001053 0.0015680779 0)
(0.61324944 0.0014586048 0)
(0.60680907 0.0013594731 0)
(0.60066276 0.0012698737 0)
(0.59478583 0.0011884418 0)
(0.58915682 0.0011141487 0)
(0.58375581 0.0010463343 0)
(0.57856466 0.00098405284 0)
(0.57356751 0.0009267447 0)
(0.56874958 0.00087397728 0)
(0.56409748 0.00082517157 0)
(0.5595999 0.00078009443 0)
(0.55524604 0.00073832608 0)
(0.55102654 0.00069945173 0)
(0.54693266 0.00066331196 0)
(0.54295614 0.00062954885 0)
(0.53908968 0.00059799009 0)
(0.5353264 0.00056843851 0)
(0.53166025 0.00054067931 0)
(0.5280857 0.00051464228 0)
(0.52459754 0.00049013199 0)
(0.52119096 0.00046708294 0)
(0.51786155 0.00044538504 0)
(0.51460546 0.00042491707 0)
(0.51141904 0.00040556689 0)
(0.50829893 0.00038722238 0)
(0.50524195 0.00036986356 0)
(0.50224511 0.00035340917 0)
(0.49930572 0.00033780699 0)
(0.49642124 0.00032299232 0)
(0.49358932 0.00030893367 0)
(0.49080766 0.00029558795 0)
(0.48807425 0.00028289849 0)
(0.48538715 0.00027082163 0)
(0.48274458 0.00025932165 0)
(0.48014485 0.00024837088 0)
(0.47758639 0.00023793415 0)
(0.47506771 0.00022798256 0)
(0.4725874 0.00021849012 0)
(0.47014406 0.00020944108 0)
(0.46773641 0.00020080856 0)
(0.4653632 0.00019257252 0)
(0.46302325 0.00018470937 0)
(0.46071544 0.00017720396 0)
(0.45843866 0.00017003624 0)
(0.45619185 0.00016319415 0)
(0.45397396 0.00015666009 0)
(0.45178398 0.00015042313 0)
(0.44962085 0.00014447177 0)
(0.44748354 0.00013879527 0)
(0.44537092 0.00013338751 0)
(0.44328187 0.00012824188 0)
(0.44121495 0.00012335458 0)
(0.43916903 0.00011873341 0)
(0.43714162 0.0001143663 0)
(0.43513228 0.00011031551 0)
(0.4331343 0.00010650897 0)
(0.43115274 0.000103211 0)
(0.42916267 0.00010010333 0)
(0.42719728 9.805438e-05 0)
(0.42515998 9.6461185e-05 0)
(0.42318345 9.7039747e-05 2.8098787e-21)
(0.42093342 9.8621879e-05 5.6381512e-20)
(0.41904637 9.0042228e-05 0)
(0.4156356 0.00011407804 0)
(0.9729971 0.02236421 0)
(0.97742649 0.028799391 0)
(0.98376784 0.03236671 0)
(0.9899633 0.033110641 0)
(0.99495997 0.032277114 0)
(0.99869692 0.030761248 0)
(1.001312 0.029115468 0)
(1.0031614 0.027572924 0)
(1.0043558 0.026065228 0)
(1.0052188 0.024607688 0)
(1.0049919 0.023224727 0)
(1.0037797 0.021894041 0)
(1.0008844 0.020580181 0)
(0.9956472 0.019265524 0)
(0.98778068 0.017958677 0)
(0.97712092 0.016607094 0)
(0.96407634 0.015200819 0)
(0.94895533 0.013806688 0)
(0.93213592 0.01246058 0)
(0.9140837 0.011195456 0)
(0.89535309 0.010029109 0)
(0.8764804 0.0089687045 0)
(0.85792721 0.0080150993 0)
(0.84002985 0.0071673761 0)
(0.82298665 0.006423265 0)
(0.80687927 0.0057764133 0)
(0.79171503 0.0052143241 0)
(0.77746539 0.0047232885 0)
(0.76408425 0.0042927697 0)
(0.75151728 0.0039126592 0)
(0.73970763 0.0035751107 0)
(0.72859752 0.003275113 0)
(0.71813007 0.0030082338 0)
(0.70825234 0.0027698751 0)
(0.69891601 0.002556377 0)
(0.69007434 0.0023652071 0)
(0.68168829 0.0021933161 0)
(0.67372024 0.0020380218 0)
(0.66613582 0.0018977354 0)
(0.65890427 0.0017704382 0)
(0.65199833 0.0016545458 0)
(0.64539254 0.001548967 0)
(0.63906354 0.0014523099 0)
(0.63299063 0.0013636522 0)
(0.62715454 0.001282258 0)
(0.62153777 0.0012072301 0)
(0.61612493 0.0011380949 0)
(0.61090188 0.0010742031 0)
(0.60585611 0.0010149303 0)
(0.600976 0.00095997606 0)
(0.59625056 0.00090881992 0)
(0.59167008 0.00086116348 0)
(0.58722536 0.00081669255 0)
(0.58290816 0.00077507219 0)
(0.57871093 0.00073615431 0)
(0.57462634 0.00069964866 0)
(0.57064808 0.00066540946 0)
(0.56677034 0.0006332535 0)
(0.56298795 0.0006029997 0)
(0.55929588 0.00057448705 0)
(0.5556895 0.00054755147 0)
(0.55216448 0.00052213352 0)
(0.54871681 0.00049810689 0)
(0.54534283 0.00047538464 0)
(0.54203905 0.00045386893 0)
(0.53880223 0.00043349866 0)
(0.53562939 0.00041420119 0)
(0.53251779 0.00039589429 0)
(0.52946481 0.00037851186 0)
(0.52646802 0.00036199623 0)
(0.52352516 0.00034630037 0)
(0.52063413 0.00033137178 0)
(0.5177929 0.00031716698 0)
(0.51499953 0.00030364469 0)
(0.51225219 0.00029077559 0)
(0.50954916 0.00027851956 0)
(0.50688883 0.00026684536 0)
(0.50426962 0.0002557182 0)
(0.50169005 0.00024511341 0)
(0.49914868 0.0002350013 0)
(0.49664413 0.000225362 0)
(0.49417504 0.00021616964 0)
(0.49174011 0.00020740665 0)
(0.489338 0.00019905526 0)
(0.48696742 0.00019109921 0)
(0.48462698 0.00018352776 0)
(0.48231532 0.00017633113 0)
(0.48003075 0.00016950131 0)
(0.47777189 0.00016304946 0)
(0.47553599 0.00015695403 0)
(0.47332236 0.00015130547 0)
(0.47112401 0.00014598863 0)
(0.46894564 0.00014139432 0)
(0.46676203 0.00013701509 0)
(0.46460564 0.00013418107 0)
(0.46237976 0.00013172958 0)
(0.46021519 0.00013271421 0)
(0.4577757 0.00013347258 0)
(0.4557017 0.00012903254 1.124767e-19)
(0.4520019 0.00014583215 0)
(0.97434382 0.021582716 0)
(0.97824498 0.027339121 0)
(0.98380257 0.030726331 0)
(0.98927405 0.03167211 0)
(0.99378786 0.031141808 0)
(0.99727035 0.029909316 0)
(0.99990349 0.028483205 0)
(1.001989 0.027081907 0)
(1.0037019 0.025686435 0)
(1.0049818 0.024335152 0)
(1.0059053 0.023054634 0)
(1.0064973 0.021823024 0)
(1.0068036 0.020651645 0)
(1.006601 0.019561259 0)
(1.005741 0.018537727 0)
(1.0040523 0.017564513 0)
(1.0009272 0.016633294 0)
(0.99601044 0.015720188 0)
(0.98904615 0.01481333 0)
(0.97990594 0.013871315 0)
(0.96872764 0.012885731 0)
(0.95566774 0.011894138 0)
(0.94099241 0.010915033 0)
(0.9251081 0.0099695455 0)
(0.90851894 0.0090729178 0)
(0.89172103 0.0082361807 0)
(0.87513133 0.0074688588 0)
(0.85904239 0.006775858 0)
(0.84361699 0.0061592024 0)
(0.82892171 0.0056135208 0)
(0.81497011 0.0051290861 0)
(0.80174993 0.0046973288 0)
(0.78923451 0.0043111472 0)
(0.777389 0.0039644142 0)
(0.76617404 0.0036527837 0)
(0.75554665 0.0033729274 0)
(0.7454664 0.0031207863 0)
(0.73589475 0.0028929543 0)
(0.72679417 0.0026870826 0)
(0.71812959 0.0025003497 0)
(0.70986932 0.0023305304 0)
(0.70198364 0.0021760068 0)
(0.69444495 0.0020348262 0)
(0.68722819 0.0019056118 0)
(0.68031007 0.0017872343 0)
(0.6736693 0.0016783918 0)
(0.66728639 0.0015782905 0)
(0.66114338 0.0014859776 0)
(0.65522432 0.0014005621 0)
(0.64951445 0.0013215546 0)
(0.64400003 0.0012482237 0)
(0.63866868 0.0011800969 0)
(0.63350878 0.0011167015 0)
(0.62850982 0.0010575511 0)
(0.62366207 0.0010023874 0)
(0.61895621 0.00095080078 0)
(0.61438408 0.00090253892 0)
(0.60993814 0.00085731706 0)
(0.6056116 0.00081487315 0)
(0.60139797 0.00077498095 0)
(0.5972913 0.00073740893 0)
(0.593286 0.00070204065 0)
(0.58937698 0.00066869202 0)
(0.58555947 0.00063723247 0)
(0.58182886 0.00060751881 0)
(0.57818097 0.00057944536 0)
(0.57461207 0.00055290149 0)
(0.5711186 0.00052777429 0)
(0.56769714 0.00050396787 0)
(0.56434457 0.00048139562 0)
(0.56105796 0.00045998468 0)
(0.55783459 0.00043965932 0)
(0.55467185 0.00042035667 0)
(0.55156724 0.00040201588 0)
(0.54851845 0.00038458932 0)
(0.5455233 0.00036801983 0)
(0.5425797 0.00035226157 0)
(0.53968568 0.00033726541 0)
(0.53683934 0.0003229942 0)
(0.53403888 0.00030940597 0)
(0.53128257 0.00029647054 0)
(0.52856871 0.00028415157 0)
(0.52589569 0.00027242275 0)
(0.52326187 0.0002612582 0)
(0.52066567 0.00025063445 0)
(0.51810542 0.00024053457 0)
(0.5155795 0.00023094435 0)
(0.51308597 0.00022185025 0)
(0.51062317 0.00021326607 0)
(0.50818814 0.00020515943 0)
(0.50577989 0.00019764972 0)
(0.50339123 0.00019057596 0)
(0.50102643 0.00018446144 0)
(0.4986603 0.00017859963 0)
(0.49632413 0.00017480702 0)
(0.49392238 0.00017132424 0)
(0.4915824 0.00017265299 0)
(0.48897016 0.00017234164 0)
(0.48672488 0.00017331488 1.0060795e-19)
(0.48276083 0.00018018903 0)
(0.97575004 0.020868403 0)
(0.97910733 0.025996504 0)
(0.98398571 0.02923471 0)
(0.98891828 0.030359283 0)
(0.99308578 0.030088654 0)
(0.9963504 0.029105023 0)
(0.99886916 0.027866875 0)
(1.0008749 0.026589834 0)
(1.0025335 0.02529987 0)
(1.0038895 0.024036634 0)
(1.0049996 0.022822235 0)
(1.0058962 0.021649806 0)
(1.0065568 0.020535246 0)
(1.0069814 0.019489822 0)
(1.0073168 0.018516593 0)
(1.0072979 0.017618325 0)
(1.0071181 0.016795382 0)
(1.0065453 0.016041698 0)
(1.0054451 0.01534856 0)
(1.0035905 0.01470112 0)
(1.000551 0.014077276 0)
(0.99600873 0.013465474 0)
(0.98966638 0.012831671 0)
(0.98141456 0.012141847 0)
(0.97126221 0.011403102 0)
(0.95932031 0.010634298 0)
(0.94585106 0.0098547301 0)
(0.93128 0.0090885767 0)
(0.91609892 0.0083492901 0)
(0.90076943 0.0076511734 0)
(0.88564768 0.0070051839 0)
(0.87095921 0.0064182573 0)
(0.85681973 0.0058908602 0)
(0.84327785 0.0054172743 0)
(0.8303483 0.004990646 0)
(0.81802568 0.0046055762 0)
(0.80629253 0.0042568215 0)
(0.79512405 0.003940534 0)
(0.78449033 0.0036539872 0)
(0.77436008 0.0033937011 0)
(0.76470275 0.0031568579 0)
(0.75548803 0.0029413014 0)
(0.74668672 0.0027444846 0)
(0.73827155 0.0025645285 0)
(0.73021648 0.0023998393 0)
(0.72249738 0.002248659 0)
(0.71509171 0.00210983 0)
(0.70797832 0.0019820248 0)
(0.70113808 0.0018640187 0)
(0.69455323 0.0017550665 0)
(0.68820723 0.0016541689 0)
(0.68208498 0.0015606364 0)
(0.67617239 0.001473798 0)
(0.67045667 0.0013929781 0)
(0.6649259 0.0013177774 0)
(0.6595689 0.0012476317 0)
(0.65437542 0.0011821505 0)
(0.64933602 0.0011209263 0)
(0.6444421 0.0010635938 0)
(0.63968562 0.0010098372 0)
(0.6350592 0.0009593366 0)
(0.63055593 0.00091190298 0)
(0.62616943 0.00086727812 0)
(0.62189375 0.00082527347 0)
(0.61772321 0.00078569024 0)
(0.61365259 0.00074836706 0)
(0.6096772 0.0007131429 0)
(0.60579258 0.00067986447 0)
(0.60199452 0.00064839832 0)
(0.59827908 0.00061862109 0)
(0.59464261 0.00059042713 0)
(0.59108166 0.00056371095 0)
(0.58759304 0.00053838494 0)
(0.58417365 0.00051436277 0)
(0.58082063 0.00049157327 0)
(0.57753125 0.00046993832 0)
(0.57430296 0.00044939342 0)
(0.57113332 0.00042987145 0)
(0.56801999 0.00041131938 0)
(0.56496077 0.00039367991 0)
(0.56195354 0.00037690971 0)
(0.55899624 0.00036095944 0)
(0.5560869 0.00034579167 0)
(0.55322357 0.00033137026 0)
(0.55040436 0.00031766262 0)
(0.54762729 0.00030464384 0)
(0.54489047 0.00029229371 0)
(0.54219169 0.00028059174 0)
(0.53952902 0.00026955326 0)
(0.53689925 0.00025913383 0)
(0.53430111 0.00024948161 0)
(0.53172724 0.00024038816 0)
(0.52918141 0.00023251207 0)
(0.52663868 0.00022494284 0)
(0.52412895 0.00021999687 0)
(0.52155847 0.0002152977 0)
(0.51905052 0.00021687108 0)
(0.51627526 0.00021524742 -1.9953845e-20)
(0.5138692 0.00022276879 0)
(0.50965628 0.00021732151 -2.5704592e-21)
(0.97719498 0.020238004 0)
(0.98007438 0.024777404 0)
(0.98432506 0.02782553 0)
(0.98878108 0.029089329 0)
(0.99267777 0.029067314 0)
(0.99580662 0.028324037 0)
(0.99826026 0.027267193 0)
(1.0002201 0.026114159 0)
(1.0018265 0.024921976 0)
(1.0031455 0.023733178 0)
(1.0042307 0.022576346 0)
(1.0051243 0.021455963 0)
(1.0058457 0.020388419 0)
(1.0064096 0.019379525 0)
(1.0068471 0.018442043 0)
(1.0071479 0.017578075 0)
(1.0073269 0.016776001 0)
(1.0074123 0.016045663 0)
(1.0073635 0.015388354 0)
(1.0071912 0.014796209 0)
(1.0068031 0.014259287 0)
(1.0060907 0.013771136 0)
(1.0049285 0.013318074 0)
(1.0030208 0.012884227 0)
(1.0000082 0.012452188 0)
(0.99556899 0.012007101 0)
(0.98939704 0.011513268 0)
(0.98141207 0.010948091 0)
(0.97159969 0.010333152 0)
(0.96010154 0.0096824427 0)
(0.94724887 0.0090183179 0)
(0.93350276 0.0083586005 0)
(0.91933843 0.0077206598 0)
(0.90515121 0.0071193805 0)
(0.89121091 0.0065644509 0)
(0.87766962 0.0060597177 0)
(0.86460276 0.0056019588 0)
(0.85204553 0.005185711 0)
(0.84000955 0.0048067394 0)
(0.82849095 0.0044607908 0)
(0.8174762 0.0041448256 0)
(0.80694534 0.0038565049 0)
(0.79687554 0.0035928654 0)
(0.78724301 0.0033516407 0)
(0.77802316 0.0031308235 0)
(0.76919192 0.0029282021 0)
(0.76072601 0.0027422448 0)
(0.75260282 0.0025712209 0)
(0.74480134 0.0024135307 0)
(0.73730163 0.002268126 0)
(0.73008491 0.0021336925 0)
(0.72313381 0.002009281 0)
(0.71643201 0.0018939737 0)
(0.7099646 0.001786868 0)
(0.70371756 0.0016873854 0)
(0.69767781 0.0015947768 0)
(0.69183319 0.001508496 0)
(0.68617241 0.0014279849 0)
(0.68068505 0.0013527451 0)
(0.67536144 0.0012823435 0)
(0.67019268 0.0012163512 0)
(0.66517045 0.0011544882 0)
(0.66028696 0.0010964056 0)
(0.65553504 0.0010418418 0)
(0.65090795 0.00099052717 0)
(0.64639937 0.00094223108 0)
(0.64200347 0.00089673139 0)
(0.63771485 0.00085382386 0)
(0.63352842 0.0008133273 0)
(0.62943941 0.00077507355 0)
(0.62544336 0.00073891645 0)
(0.62153609 0.00070471277 0)
(0.61771369 0.00067234235 0)
(0.61397245 0.00064168809 0)
(0.61030889 0.00061265024 0)
(0.60671974 0.0005851244 0)
(0.60320188 0.00055902286 0)
(0.59975237 0.00053425627 0)
(0.59636843 0.00051075192 0)
(0.5930474 0.00048843366 0)
(0.58978672 0.00046724185 0)
(0.58658396 0.00044711118 0)
(0.58343678 0.00042799046 0)
(0.58034287 0.00040983083 0)
(0.57729999 0.00039258835 0)
(0.57430587 0.0003762281 0)
(0.5713583 0.00036072211 0)
(0.56845479 0.00034604125 0)
(0.56559311 0.00033220103 0)
(0.56276984 0.00031914363 0)
(0.55998335 0.0003070453 0)
(0.55722619 0.00029564891 0)
(0.55450158 0.00028574949 0)
(0.5517849 0.00027623017 0)
(0.5491046 0.00026991491 0)
(0.54636903 0.00026379807 0)
(0.54369725 0.00026548761 9.3884369e-22)
(0.54076432 0.00026229398 0)
(0.53820442 0.00027742645 8.7057885e-20)
(0.53375218 0.00025740893 0)
(0.97861479 0.01967299 0)
(0.98110987 0.023693069 0)
(0.98479988 0.026523896 0)
(0.98880006 0.027865609 0)
(0.99243447 0.028052089 0)
(0.99544487 0.027530973 0)
(0.99785714 0.026654205 0)
(0.99980226 0.025631633 0)
(1.0013959 0.024540188 0)
(1.0027031 0.023428822 0)
(1.0037758 0.022332399 0)
(1.0046556 0.021262979 0)
(1.0053702 0.020236867 0)
(1.0059416 0.019262696 0)
(1.0063923 0.018353774 0)
(1.0067447 0.017512181 0)
(1.0070102 0.016731297 0)
(1.007197 0.016020239 0)
(1.0073106 0.015377412 0)
(1.007382 0.01479519 0)
(1.0073724 0.014269381 0)
(1.0073206 0.013798949 0)
(1.0071863 0.013376398 0)
(1.0069266 0.012991275 0)
(1.0064655 0.012636001 0)
(1.0056872 0.012303876 0)
(1.0044421 0.011984448 0)
(1.0023707 0.011665399 0)
(0.99914599 0.011332204 0)
(0.99442227 0.010959231 0)
(0.98798817 0.010517764 0)
(0.97975275 0.010012716 0)
(0.96977071 0.0094583932 0)
(0.95829556 0.008874185 0)
(0.94574982 0.0082813126 0)
(0.93260557 0.0076973675 0)
(0.91927613 0.0071387762 0)
(0.90605476 0.006616753 0)
(0.8931149 0.0061368675 0)
(0.88054961 0.0056976177 0)
(0.86840853 0.0052950185 0)
(0.85671536 0.0049257186 0)
(0.8454765 0.0045863517 0)
(0.83468709 0.004274659 0)
(0.82433481 0.003988576 0)
(0.8144036 0.0037256468 0)
(0.80487519 0.0034841042 0)
(0.79572974 0.0032618915 0)
(0.78694748 0.0030570693 0)
(0.77850862 0.0028682927 0)
(0.7703938 0.0026939141 0)
(0.76258466 0.0025327001 0)
(0.75506357 0.002383455 0)
(0.74781413 0.0022450175 0)
(0.74082076 0.0021165996 0)
(0.73406872 0.0019972377 0)
(0.72754428 0.0018862049 0)
(0.72123448 0.001782768 0)
(0.7151273 0.0016862708 0)
(0.70921147 0.001596138 0)
(0.70347659 0.0015118083 0)
(0.69791291 0.0014328925 0)
(0.69251129 0.0013589318 0)
(0.68726327 0.001289571 0)
(0.68216094 0.0012244539 0)
(0.67719689 0.0011632717 0)
(0.67236417 0.0011057286 0)
(0.66765637 0.0010515544 0)
(0.66306745 0.0010005095 0)
(0.65859176 0.00095237177 0)
(0.65422399 0.00090694595 0)
(0.64995918 0.00086404271 0)
(0.64579267 0.00082350145 0)
(0.64172007 0.00078516738 0)
(0.63773724 0.00074890617 0)
(0.63384031 0.00071458164 0)
(0.63002558 0.00068207755 0)
(0.62628958 0.00065127761 0)
(0.62262901 0.00062208512 0)
(0.61904072 0.00059440115 0)
(0.61552174 0.00056814608 0)
(0.61206918 0.00054323537 0)
(0.60868031 0.00051960102 0)
(0.60535244 0.00049717871 0)
(0.60208297 0.00047591061 0)
(0.5988693 0.00045574951 0)
(0.59570887 0.00043665759 0)
(0.59259891 0.00041859523 0)
(0.58953689 0.00040157649 0)
(0.58651912 0.00038552873 0)
(0.58354365 0.00037065518 0)
(0.58060289 0.000356649 0)
(0.57769955 0.00034444168 0)
(0.57480935 0.00033270898 0)
(0.57195928 0.00032478657 0)
(0.56905984 0.00031703195 0)
(0.56622604 0.00031868391 0)
(0.56313793 0.00031364102 0)
(0.56042852 0.00033740867 0)
(0.55574262 0.00030063943 0)
(0.97996527 0.019152449 0)
(0.98215824 0.022724489 0)
(0.98537016 0.025338125 0)
(0.98894222 0.02670974 0)
(0.9923056 0.027057114 0)
(0.99518444 0.026729425 0)
(0.99755054 0.026022973 0)
(0.99948655 0.025131703 0)
(1.0010819 0.024143623 0)
(1.0023946 0.023113709 0)
(1.003473 0.022081417 0)
(1.004357 0.021064801 0)
(1.0050755 0.020081389 0)
(1.0056521 0.019142671 0)
(1.0061093 0.018261203 0)
(1.0064708 0.017441446 0)
(1.0067518 0.016679763 0)
(1.0069632 0.015983253 0)
(1.0071185 0.015350661 0)
(1.0072342 0.014778534 0)
(1.0073106 0.01426275 0)
(1.007355 0.013797331 0)
(1.0073801 0.013377964 0)
(1.0073739 0.012998574 0)
(1.0073352 0.012654088 0)
(1.007243 0.012340429 0)
(1.0070707 0.012052133 0)
(1.0067619 0.011782374 0)