# Region        : all region0
# Cells         : 13056
# Volume        : 2.33333000e+00
# Time          	min(p)	min(k)	min(epsilon)	min(nut)
1               	2.73419246e-07	9.29038611e-05	5.57024553e-03	2.11542672e-11
2               	3.39062547e-07	5.83684452e-05	3.13537993e-03	3.33939541e-11
3               	-9.04574420e-05	3.72327107e-05	1.78501180e-03	2.50107825e-11
4               	-3.61807898e-04	2.41355097e-05	1.02898671e-03	1.54797788e-11
5               	-5.71117099e-04	1.59118245e-05	6.01352911e-04	1.06305722e-11
6               	-7.25379984e-04	1.06759270e-05	3.56742173e-04	8.29824436e-12
7               	-8.53521320e-04	7.29339802e-06	2.15096245e-04	6.47614509e-12
8               	-9.71832770e-04	5.07482580e-06	1.31970555e-04	5.61253279e-12
9               	-1.08416979e-03	3.59674555e-06	8.24774350e-05	4.86473165e-12
10              	-1.19078325e-03	2.59612553e-06	5.25489215e-05	4.28858831e-12
11              	-1.29355077e-03	1.90766998e-06	3.41512724e-05	3.98384629e-12
12              	-1.39594422e-03	1.42623715e-06	2.26455390e-05	3.66405803e-12
13              	-1.49900992e-03	1.08410536e-06	1.53207949e-05	3.35034105e-12
14              	-1.60377964e-03	8.37089718e-07	1.05723737e-05	3.16072869e-12
15              	-1.71087909e-03	6.55979793e-07	7.43740245e-06	3.05870833e-12
16              	-1.81987949e-03	5.21204972e-07	5.32977446e-06	2.84147238e-12
17              	-1.93077629e-03	4.19475518e-07	3.88736508e-06	2.67289775e-12
18              	-2.04397376e-03	3.41644642e-07	2.88298165e-06	2.55991297e-12
19              	-2.15990300e-03	2.81332526e-07	2.17184986e-06	2.48991518e-12
20              	-2.27808938e-03	2.34030624e-07	1.66026098e-06	2.38326733e-12
21              	-2.39853901e-03	1.96511862e-07	1.28660972e-06	2.25091830e-12
22              	-2.52165147e-03	1.66437746e-07	1.00977175e-06	2.15148448e-12
23              	-2.64757271e-03	1.42093222e-07	8.01882073e-07	2.07866158e-12
24              	-2.77647252e-03	1.22206497e-07	6.43784846e-07	2.02782861e-12
25              	-2.90857940e-03	1.05825466e-07	5.22126046e-07	1.96127726e-12
26              	-3.04398324e-03	9.22304376e-08	4.27475238e-07	1.85928609e-12
27              	-3.18271392e-03	8.08729448e-08	3.53091782e-07	1.77665652e-12
28              	-3.32461472e-03	7.13324884e-08	2.94099252e-07	1.71025346e-12
29              	-3.46971459e-03	6.32853104e-08	2.46932075e-07	1.65765169e-12
30              	-3.61803330e-03	5.64814150e-08	2.08958138e-07	1.61703870e-12
31              	-3.76957329e-03	5.07272654e-08	1.78217025e-07	1.56417949e-12
32              	-3.92435337e-03	4.58723825e-08	1.53235741e-07	1.48442770e-12
33              	-4.08235890e-03	4.17986530e-08	1.32896915e-07	1.41661209e-12
34              	-4.24356322e-03	3.84115893e-08	1.16343043e-07	1.35907964e-12
35              	-4.40798121e-03	3.56331238e-08	1.02905978e-07	1.31046144e-12
36              	-4.57559927e-03	3.33957535e-08	9.20546098e-08	1.26961504e-12
37              	-4.74639185e-03	3.16379978e-08	8.33561839e-08	1.23558264e-12
38              	-4.92022918e-03	3.03011759e-08	7.64482976e-08	1.18593819e-12
39              	-5.09691131e-03	2.93274824e-08	7.10195062e-08	1.12390577e-12
40              	-5.27628896e-03	2.86592547e-08	6.67968854e-08	1.06962939e-12
41              	-5.45824264e-03	2.82392401e-08	6.35389936e-08	1.02214408e-12
42              	-5.64268143e-03	2.80115980e-08	6.10326696e-08	9.80625949e-13
43              	-5.82949464e-03	2.79233417e-08	5.90921495e-08	9.44369688e-13
44              	-6.01854573e-03	2.79259226e-08	5.75591650e-08	9.12769464e-13
45              	-6.20978238e-03	2.79766902e-08	5.63029990e-08	8.85303327e-13
46              	-6.40298444e-03	2.80400098e-08	5.52198454e-08	8.43654057e-13
47              	-6.59795366e-03	2.80878911e-08	5.42311838e-08	7.96881530e-13
48              	-6.79445132e-03	2.81000602e-08	5.32811786e-08	7.55304869e-13
49              	-6.99228257e-03	2.80634960e-08	5.23333218e-08	7.18317390e-13
50              	-7.19143951e-03	2.79715249e-08	5.13666526e-08	6.85395706e-13
51              	-7.39174936e-03	2.78226195e-08	5.03719194e-08	6.56080411e-13
52              	-7.59286556e-03	2.76190724e-08	4.93480062e-08	6.29970605e-13
53              	-7.79453588e-03	2.73657010e-08	4.82988670e-08	6.06717537e-13
54              	-7.99647716e-03	2.70687101e-08	4.72311004e-08	5.86017584e-13
55              	-8.19858444e-03	2.67347890e-08	4.61521977e-08	5.54576501e-13
56              	-8.40071364e-03	2.63704704e-08	4.50694105e-08	5.21248372e-13
57              	-8.60271332e-03	2.59817383e-08	4.39891300e-08	4.91401044e-13
58              	-8.80443687e-03	2.55738417e-08	4.29166438e-08	4.64647589e-13
59              	-9.00581731e-03	2.51512580e-08	4.18561395e-08	4.40632085e-13
60              	-9.20649577e-03	2.45816068e-08	4.08108410e-08	4.19057035e-13
61              	-9.40631624e-03	2.29332118e-08	3.97831948e-08	3.99655866e-13
62              	-9.60485584e-03	2.12912946e-08	3.87750528e-08	3.82192914e-13
63              	-9.80202014e-03	1.95959817e-08	3.77878227e-08	3.66461891e-13
64              	-9.99869565e-03	1.80619477e-08	3.68225797e-08	3.52282570e-13
65              	-1.01947839e-02	1.66735008e-08	3.58801408e-08	3.31388996e-13
66              	-1.03897880e-02	1.53135482e-08	3.49611121e-08	3.09907732e-13
67              	-1.05832389e-02	1.39278709e-08	3.40659185e-08	2.90279455e-13
68              	-1.07749681e-02	1.26820973e-08	3.31948236e-08	2.72496271e-13
69              	-1.09654991e-02	1.15631202e-08	3.23479463e-08	2.56533647e-13
70              	-1.11542373e-02	1.05582183e-08	3.15252761e-08	2.42163084e-13
71              	-1.13409212e-02	9.65542516e-09	3.07266890e-08	2.29207301e-13
72              	-1.15254434e-02	8.76805506e-09	2.99519637e-08	2.17514740e-13
73              	-1.17080916e-02	7.88416687e-09	2.92007965e-08	2.06948993e-13
74              	-1.18887964e-02	7.09633528e-09	2.84728165e-08	1.97389315e-13
75              	-1.20674236e-02	6.39509181e-09	2.77675980e-08	1.88729901e-13
76              	-1.22437237e-02	5.77180448e-09	2.70846717e-08	1.76973908e-13
77              	-1.24178839e-02	5.21817667e-09	2.64235345e-08	1.64488612e-13
78              	-1.25900096e-02	4.72645840e-09	2.57836574e-08	1.53090838e-13
79              	-1.27602863e-02	4.28952439e-09	2.51644921e-08	1.42675549e-13
80              	-1.29281881e-02	3.89137231e-09	2.45654769e-08	1.33151507e-13
81              	-1.30937073e-02	3.46311433e-09	2.39860417e-08	1.24510356e-13
82              	-1.32569462e-02	3.08542747e-09	2.34256117e-08	1.16767994e-13
83              	-1.34187476e-02	2.75290083e-09	2.28836114e-08	1.09803589e-13
84              	-1.35781785e-02	2.46057459e-09	2.23594677e-08	1.03526354e-13
85              	-1.37344806e-02	2.20412052e-09	2.18526119e-08	9.78617111e-14
86              	-1.38877099e-02	1.97939534e-09	2.05361278e-08	9.27429987e-14
87              	-1.40382115e-02	1.78251648e-09	1.92263593e-08	8.81107759e-14
88              	-1.41864067e-02	1.60996774e-09	1.80270211e-08	8.27801670e-14
89              	-1.43322613e-02	1.45860353e-09	1.69281214e-08	7.63297119e-14
90              	-1.44756272e-02	1.32565753e-09	1.59205744e-08	7.04541525e-14
91              	-1.46172722e-02	1.19111242e-09	1.48613456e-08	6.51074445e-14
92              	-1.47563105e-02	1.05580699e-09	1.37998642e-08	6.02377548e-14
93              	-1.48920189e-02	9.37702224e-10	1.28384572e-08	5.57994351e-14
94              	-1.50246796e-02	8.34781014e-10	1.19668013e-08	5.17523221e-14
95              	-1.51545480e-02	7.45161260e-10	1.11756397e-08	4.80616379e-14
96              	-1.52817367e-02	6.67345705e-10	1.04566866e-08	4.47541401e-14
97              	-1.54063990e-02	5.99932971e-10	9.80258623e-09	4.09806686e-14
98              	-1.55291530e-02	5.41564296e-10	9.10779930e-09	3.61421789e-14
99              	-1.56495152e-02	4.91002778e-10	8.41752601e-09	3.20139223e-14
100             	-1.57678872e-02	4.47155621e-10	7.79769653e-09	2.84784900e-14
101             	-1.58839953e-02	4.09066463e-10	7.24066576e-09	2.54370852e-14
102             	-1.59975181e-02	3.75901238e-10	6.73953858e-09	2.28082597e-14
103             	-1.61083784e-02	3.38161893e-10	6.28811896e-09	2.02121707e-14
104             	-1.62163710e-02	3.00619227e-10	5.88087124e-09	1.74368755e-14
105             	-1.63227199e-02	2.68003150e-10	5.51288282e-09	1.50769369e-14
106             	-1.64270503e-02	2.39713600e-10	5.17319773e-09	1.30704783e-14
107             	-1.65285392e-02	2.15189669e-10	4.77491024e-09	1.13668779e-14
108             	-1.66256391e-02	1.94011892e-10	4.41825832e-09	9.95341558e-15
109             	-1.67193273e-02	1.75816267e-10	4.09835411e-09	8.77708856e-15
110             	-1.68101009e-02	1.60214236e-10	3.81125900e-09	7.78715863e-15
111             	-1.68984682e-02	1.46840301e-10	3.55352763e-09	6.94861438e-15
112             	-1.69849870e-02	1.35368886e-10	3.32203581e-09	6.23467552e-15
113             	-1.70702261e-02	1.25513383e-10	3.11393261e-09	5.62322936e-15
114             	-1.71529821e-02	1.17024405e-10	2.92662497e-09	5.09579276e-15
115             	-1.72328507e-02	1.05639538e-10	2.75776801e-09	4.63769017e-15
116             	-1.73100667e-02	9.44294787e-11	2.58373531e-09	4.22779259e-15
117             	-1.73847557e-02	8.47117007e-11	2.39428970e-09	3.65788536e-15
118             	-1.74565804e-02	7.63028844e-11	2.22518236e-09	3.17503375e-15
119             	-1.75253988e-02	6.90313016e-11	2.07367141e-09	2.76654418e-15
120             	-1.75922954e-02	6.27908715e-11	1.93746620e-09	2.43240189e-15
121             	-1.76574808e-02	5.74802302e-11	1.81481851e-09	2.15733461e-15
122             	-1.77207711e-02	5.29800686e-11	1.70439556e-09	1.92774965e-15
123             	-1.77814386e-02	4.91747678e-11	1.60502042e-09	1.73461531e-15
124             	-1.78381611e-02	4.59600731e-11	1.51559166e-09	1.57111145e-15
125             	-1.78922527e-02	4.32425571e-11	1.43507388e-09	1.43150065e-15
126             	-1.79440106e-02	4.02407385e-11	1.36064347e-09	1.31117775e-15
127             	-1.79937941e-02	3.60758033e-11	1.26459805e-09	1.20646581e-15
128             	-1.80419252e-02	3.24655829e-11	1.17925555e-09	1.11306207e-15
129             	-1.80890935e-02	2.93473747e-11	1.10314899e-09	9.64898040e-16
130             	-1.81344172e-02	2.66574959e-11	1.03495551e-09	8.39917420e-16
131             	-1.81780223e-02	2.43486503e-11	9.73559388e-10	7.36594285e-16
132             	-1.82194717e-02	2.23978454e-11	9.18120288e-10	6.53369170e-16
133             	-1.82590193e-02	2.07645326e-11	8.68101677e-10	5.84869336e-16
134             	-1.82968680e-02	1.94052440e-11	8.23052798e-10	5.27878269e-16
135             	-1.83331753e-02	1.82792706e-11	7.82539178e-10	4.80105661e-16
136             	-1.83683568e-02	1.73496458e-11	7.46135516e-10	4.39685254e-16
137             	-1.84016939e-02	1.62469960e-11	7.03043857e-10	4.05093341e-16
138             	-1.84327800e-02	1.46150432e-11	6.57222006e-10	3.75108686e-16
139             	-1.84617181e-02	1.32039537e-11	6.16616790e-10	3.49619866e-16
140             	-1.84882008e-02	1.19890642e-11	5.80492554e-10	3.07570921e-16
141             	-1.85119625e-02	1.09448323e-11	5.48181003e-10	2.67975663e-16
142             	-1.85338849e-02	1.00552834e-11	5.19137714e-10	2.35623444e-16
143             	-1.85541767e-02	9.31267337e-12	4.92994315e-10	2.09778939e-16
144             	-1.85731959e-02	8.70102889e-12	4.69552538e-10	1.88665696e-16
145             	-1.85907089e-02	8.20282678e-12	4.48653865e-10	1.71231144e-16
146             	-1.86066265e-02	7.80145229e-12	4.30142050e-10	1.56722604e-16
147             	-1.86211587e-02	7.48193309e-12	4.10655069e-10	1.44517776e-16
148             	-1.86348220e-02	6.88684496e-12	3.85221773e-10	1.34107015e-16
149             	-1.86471619e-02	6.22747932e-12	3.62963302e-10	1.25164533e-16
150             	-1.86579385e-02	5.66038783e-12	3.43472285e-10	1.17591278e-16
151             	-1.86678798e-02	5.17450894e-12	3.26373413e-10	1.02323113e-16
152             	-1.86771044e-02	4.75903510e-12	3.11344343e-10	8.95228513e-17
153             	-1.86863625e-02	4.41222570e-12	2.98150845e-10	7.94519487e-17
154             	-1.86949346e-02	4.12907847e-12	2.86695384e-10	7.13709086e-17
155             	-1.87021718e-02	3.90211431e-12	2.76943084e-10	6.47833842e-17
156             	-1.87074453e-02	3.72361657e-12	2.68865784e-10	5.93694211e-17
157             	-1.87098801e-02	3.58629748e-12	2.55105485e-10	5.48805148e-17
158             	-1.87099553e-02	3.41684618e-12	2.41162153e-10	5.11073085e-17
159             	-1.87085283e-02	3.09922313e-12	2.29297695e-10	4.78720997e-17
160             	-1.87061261e-02	2.82527127e-12	2.19282882e-10	4.51693831e-17
161             	-1.87028043e-02	2.59040793e-12	2.10907227e-10	4.15303198e-17
162             	-1.86986323e-02	2.38947041e-12	2.03979831e-10	3.64040000e-17
163             	-1.86935327e-02	2.21979861e-12	1.98356865e-10	3.22559002e-17
164             	-1.86873860e-02	2.08076958e-12	1.93967782e-10	2.89881438e-17
165             	-1.86805596e-02	1.96937740e-12	1.90816015e-10	2.63469864e-17
166             	-1.86731437e-02	1.88202214e-12	1.79959483e-10	2.41879583e-17
167             	-1.86649947e-02	1.81518097e-12	1.70808660e-10	2.24086093e-17
168             	-1.86558967e-02	1.76563695e-12	1.63233633e-10	2.09235726e-17
169             	-1.86455603e-02	1.64324955e-12	1.57083971e-10	1.91231940e-17
170             	-1.86345476e-02	1.50202828e-12	1.52231457e-10	1.66223051e-17
171             	-1.86224859e-02	1.37999472e-12	1.48566786e-10	1.45575000e-17
172             	-1.86091961e-02	1.27494096e-12	1.45989091e-10	1.28311761e-17
173             	-1.85946837e-02	1.18462330e-12	1.44417730e-10	1.13669862e-17
174             	-1.85787407e-02	1.10883514e-12	1.41418570e-10	1.01120779e-17
175             	-1.85616810e-02	1.04708365e-12	1.33640911e-10	9.02893541e-18
176             	-1.85435001e-02	9.97992934e-13	1.27153659e-10	8.09020816e-18
177             	-1.85244279e-02	9.60013377e-13	1.21899832e-10	7.27520768e-18
178             	-1.85048328e-02	9.31673786e-13	1.17805794e-10	6.56759907e-18
179             	-1.84843326e-02	9.11649725e-13	1.14800423e-10	5.95395348e-18
180             	-1.84627745e-02	8.57876031e-13	1.12823245e-10	5.32797833e-18
181             	-1.84402795e-02	7.90295386e-13	1.11830350e-10	4.36907877e-18
182             	-1.84168855e-02	7.31742679e-13	1.11792824e-10	3.59995841e-18
183             	-1.83925836e-02	6.81344990e-13	1.10033406e-10	2.98356336e-18
184             	-1.83674668e-02	6.38144993e-13	1.04532329e-10	2.48980574e-18
185             	-1.83416562e-02	6.01848760e-13	9.99282659e-11	2.09484241e-18
186             	-1.83150583e-02	5.72695562e-13	9.62024750e-11	1.77988679e-18
187             	-1.82879468e-02	5.50275205e-13	9.34201964e-11	1.52840952e-18
188             	-1.82601133e-02	5.34002123e-13	9.15877966e-11	1.32712043e-18
189             	-1.82320558e-02	5.23297962e-13	9.06956680e-11	1.16557225e-18
190             	-1.82039323e-02	5.17642495e-13	9.07357950e-11	1.03525244e-18
191             	-1.81756805e-02	5.01414172e-13	9.17095232e-11	9.27435594e-19
192             	-1.81474192e-02	4.67507883e-13	9.14129614e-11	8.36115032e-19
193             	-1.81185046e-02	4.38313782e-13	8.74084396e-11	7.57520234e-19
194             	-1.80881929e-02	4.13553778e-13	8.42777941e-11	6.89265746e-19
195             	-1.80567685e-02	3.92815336e-13	8.19331535e-11	6.29797789e-19
196             	-1.80247377e-02	3.75860483e-13	8.03308858e-11	5.78032580e-19
197             	-1.79919217e-02	3.63055038e-13	7.94703552e-11	5.15640320e-19
198             	-1.79582805e-02	3.54476921e-13	7.94288558e-11	4.12924961e-19
199             	-1.79239037e-02	3.49993628e-13	8.02799208e-11	3.32964801e-19
200             	-1.78889023e-02	3.49430743e-13	8.20714351e-11	2.70747111e-19
201             	-1.78533892e-02	3.52637306e-13	8.28318246e-11	2.22328967e-19
202             	-1.78174512e-02	3.41014584e-13	7.96330734e-11	1.84627315e-19
203             	-1.77811394e-02	3.23648425e-13	7.73546903e-11	1.55243870e-19
204             	-1.77443421e-02	3.09252921e-13	7.59355570e-11	1.32441966e-19
205             	-1.77070076e-02	2.97706124e-13	7.53119298e-11	1.14719920e-19
206             	-1.76692772e-02	2.88828408e-13	7.54481310e-11	1.00905403e-19
207             	-1.76310775e-02	2.82672999e-13	7.63485023e-11	9.01100845e-20
208             	-1.75925152e-02	2.79681787e-13	7.80574329e-11	8.15681695e-20
209             	-1.75543072e-02	2.80035360e-13	8.07040864e-11	7.45098545e-20
210             	-1.75159204e-02	2.83777953e-13	8.10659670e-11	6.84987647e-20
211             	-1.74770898e-02	2.90934337e-13	7.84238469e-11	6.32833963e-20
212             	-1.74376258e-02	2.81233830e-13	7.67462240e-11	5.87299865e-20
213             	-1.73968177e-02	2.71016395e-13	7.59977731e-11	5.47672387e-20
214             	-1.73545648e-02	2.63168590e-13	7.61438033e-11	4.50086586e-20
215             	-1.73114448e-02	2.57636227e-13	7.71482946e-11	3.52994384e-20
216             	-1.72678238e-02	2.54340790e-13	7.90064680e-11	2.79726521e-20
217             	-1.72235760e-02	2.53493301e-13	8.17527075e-11	2.24430078e-20
218             	-1.71787649e-02	2.55586316e-13	8.51665958e-11	1.82662936e-20
219             	-1.71333992e-02	2.60818479e-13	8.21877710e-11	1.51076941e-20
220             	-1.70873661e-02	2.66932045e-13	8.02356661e-11	1.27162642e-20
221             	-1.70406111e-02	2.57821780e-13	7.92897262e-11	1.09128997e-20
222             	-1.69929306e-02	2.50785127e-13	7.93355083e-11	9.55521011e-21
223             	-1.69442947e-02	2.45914215e-13	8.03470532e-11	8.53368219e-21
224             	-1.68948098e-02	2.43161204e-13	8.23035809e-11	7.76789453e-21
225             	-1.68443955e-02	2.42483412e-13	8.52178240e-11	7.17834465e-21
226             	-1.67933220e-02	2.44314598e-13	8.71584329e-11	6.69624243e-21
227             	-1.67418694e-02	2.35710047e-13	8.42520830e-11	6.28608042e-21
228             	-1.66904655e-02	1.95615525e-13	8.23888540e-11	5.93077249e-21
229             	-1.66393598e-02	1.62970389e-13	8.15600471e-11	5.62319609e-21
230             	-1.65883328e-02	1.36533150e-13	8.17552017e-11	4.34402528e-21
231             	-1.65371210e-02	1.15232198e-13	8.29479991e-11	3.33156313e-21
232             	-1.64855026e-02	9.81541899e-14	8.51250496e-11	2.59226828e-21
233             	-1.64330575e-02	8.45297438e-14	8.66781540e-11	2.05156870e-21
234             	-1.63795952e-02	7.37181835e-14	8.34297226e-11	1.65511401e-21
235             	-1.63253598e-02	6.51920120e-14	8.12146037e-11	1.36358909e-21
236             	-1.62703647e-02	5.85216253e-14	8.00182383e-11	1.14870072e-21
237             	-1.62147199e-02	5.33773729e-14	7.98190954e-11	9.90771650e-22
238             	-1.61584567e-02	4.94838129e-14	8.05860810e-11	8.75091812e-22
239             	-1.61016068e-02	4.50140213e-14	8.23040032e-11	7.90673256e-22
240             	-1.60441083e-02	3.67547315e-14	7.85478554e-11	7.29558944e-22
241             	-1.59861941e-02	2.99378095e-14	7.57252750e-11	6.83078769e-22
242             	-1.59280073e-02	2.43759049e-14	7.38710689e-11	6.45191250e-22
243             	-1.58696992e-02	1.98794520e-14	7.29430928e-11	6.13004342e-22
244             	-1.58112405e-02	1.62721805e-14	7.29022094e-11	5.85304746e-22
245             	-1.57526153e-02	1.33974474e-14	7.07607221e-11	4.73783419e-22
246             	-1.56937633e-02	1.11198933e-14	6.72663788e-11	3.53690043e-22
247             	-1.56348345e-02	9.32492830e-15	6.46743533e-11	2.68440368e-22
248             	-1.55756127e-02	7.91719722e-15	6.29235082e-11	2.07758747e-22
249             	-1.55160830e-02	6.81855744e-15	6.19632704e-11	1.64384759e-22
250             	-1.54563166e-02	5.96597327e-15	5.81696487e-11	1.33236581e-22
251             	-1.53963939e-02	5.30915677e-15	5.48900319e-11	1.10764096e-22
252             	-1.53359703e-02	4.80841560e-15	5.23795597e-11	9.44968468e-23
253             	-1.52752141e-02	4.43469060e-15	5.04863612e-11	8.27920626e-23
254             	-1.52142568e-02	4.16321862e-15	4.65986760e-11	7.44042904e-23
255             	-1.51530815e-02	3.54157135e-15	4.34464920e-11	6.84598670e-23
256             	-1.50915581e-02	2.86647556e-15	4.09564057e-11	6.42515066e-23
257             	-1.50298090e-02	2.31860074e-15	3.73612887e-11	6.10426112e-23
258             	-1.49679772e-02	1.87877357e-15	3.42785609e-11	5.84574308e-23
259             	-1.49063997e-02	1.52875792e-15	3.10502072e-11	5.63267938e-23
260             	-1.48447196e-02	1.25221168e-15	2.79171610e-11	5.14329150e-23
261             	-1.47829143e-02	1.03502295e-15	2.46593059e-11	3.80510208e-23
262             	-1.47211382e-02	1.00000000e-15	2.17273766e-11	3.58406752e-23
263             	-1.46594960e-02	1.00000000e-15	1.91023033e-11	3.66211128e-23
264             	-1.45983178e-02	1.00000000e-15	1.69372353e-11	3.60222115e-23
265             	-1.45374974e-02	1.00000000e-15	1.51626133e-11	3.60025663e-23
266             	-1.44769200e-02	1.00000000e-15	1.37093444e-11	3.41615217e-23
267             	-1.44163602e-02	1.00000000e-15	1.25219623e-11	3.45638457e-23
268             	-1.43558409e-02	1.00000000e-15	1.15532534e-11	3.38338710e-23
269             	-1.42952875e-02	1.00000000e-15	1.07857910e-11	3.21680513e-23
270             	-1.42345920e-02	1.00000000e-15	1.02018076e-11	3.16522721e-23
271             	-1.41740142e-02	1.00000000e-15	9.77039739e-12	3.09458656e-23
272             	-1.41138635e-02	1.00000000e-15	9.46043301e-12	3.00971210e-23
273             	-1.40541205e-02	1.00000000e-15	9.24667907e-12	2.92391511e-23
274             	-1.39943966e-02	1.00000000e-15	9.11052733e-12	2.83886655e-23
275             	-1.39346186e-02	1.00000000e-15	9.03888851e-12	2.75527314e-23
276             	-1.38747865e-02	1.00000000e-15	9.02285252e-12	2.67356878e-23
277             	-1.38148691e-02	1.00000000e-15	9.05659116e-12	2.60092579e-23
278             	-1.37548417e-02	1.00000000e-15	9.13977813e-12	2.52300881e-23
279             	-1.36946157e-02	1.00000000e-15	9.27213255e-12	2.44765404e-23
280             	-1.36345786e-02	1.00000000e-15	9.45270252e-12	2.37485804e-23
281             	-1.35746468e-02	1.00000000e-15	9.68086957e-12	2.30459418e-23
282             	-1.35148927e-02	1.00000000e-15	9.95690972e-12	2.24012915e-23
283             	-1.34552180e-02	1.00000000e-15	1.02821027e-11	2.17462152e-23
284             	-1.33955399e-02	1.00000000e-15	1.06586499e-11	2.11370982e-23
285             	-1.33358782e-02	1.00000000e-15	1.10895529e-11	2.05282669e-23
286             	-1.32760672e-02	1.00000000e-15	1.13867407e-11	1.99610022e-23
287             	-1.32160843e-02	1.00000000e-15	1.16546468e-11	1.94113396e-23
288             	-1.31560053e-02	1.00000000e-15	1.19514283e-11	1.90379240e-23
289             	-1.30957737e-02	1.00000000e-15	1.22829560e-11	1.91592294e-23
290             	-1.30354063e-02	1.00000000e-15	1.26631788e-11	1.95658570e-23
291             	-1.29748966e-02	1.00000000e-15	1.30967249e-11	2.01954286e-23
292             	-1.29142240e-02	1.00000000e-15	1.35839447e-11	2.10087344e-23
293             	-1.28536133e-02	1.00000000e-15	1.41244436e-11	2.19786710e-23
294             	-1.27930897e-02	1.00000000e-15	1.47183153e-11	2.30861474e-23
295             	-1.27325735e-02	1.00000000e-15	1.53664164e-11	2.43184735e-23
296             	-1.26721204e-02	1.00000000e-15	1.60839288e-11	2.56668946e-23
297             	-1.26117875e-02	1.00000000e-15	1.68766432e-11	2.71259619e-23
298             	-1.25515744e-02	1.00000000e-15	1.77482008e-11	2.86928958e-23
299             	-1.24914931e-02	1.00000000e-15	1.87023786e-11	3.03670804e-23
300             	-1.24314670e-02	1.00000000e-15	1.97436222e-11	3.21496530e-23
301             	-1.23712718e-02	1.00000000e-15	2.08771041e-11	3.40431692e-23
302             	-1.23109519e-02	1.00000000e-15	2.21086748e-11	3.60513305e-23
303             	-1.22504209e-02	1.00000000e-15	2.34447806e-11	3.81787655e-23
304             	-1.21897543e-02	1.00000000e-15	2.48924045e-11	4.04308574e-23
305             	-1.21290619e-02	1.00000000e-15	2.64590244e-11	4.28136125e-23
306             	-1.20683028e-02	1.00000000e-15	2.81525791e-11	4.53335608e-23
307             	-1.20075236e-02	1.00822936e-15	2.99814408e-11	4.79976797e-23
308             	-1.19467898e-02	1.04275409e-15	3.19850287e-11	5.08631227e-23
309             	-1.18861406e-02	1.10000640e-15	3.42625500e-11	5.40819769e-23
310             	-1.18255772e-02	1.17830651e-15	3.68658672e-11	5.77283898e-23
311             	-1.17650675e-02	1.27741410e-15	3.98253561e-11	6.18592585e-23
312             	-1.17049984e-02	1.39810646e-15	4.31662479e-11	6.65243567e-23
313             	-1.16452271e-02	1.54193622e-15	4.69146920e-11	7.17721821e-23
314             	-1.15854773e-02	1.71110396e-15	5.10997225e-11	7.76532688e-23
315             	-1.15256206e-02	1.90839714e-15	5.57538169e-11	8.42220860e-23
316             	-1.14658121e-02	2.13716806e-15	6.09129963e-11	9.15381345e-23
317             	-1.14061291e-02	2.40133590e-15	6.66167873e-11	9.96665748e-23
318             	-1.13465626e-02	2.70540375e-15	7.29081509e-11	1.08678564e-22
319             	-1.12869862e-02	3.05448529e-15	7.98334081e-11	1.18651388e-22
320             	-1.12274142e-02	3.45433761e-15	8.74421667e-11	1.29668431e-22
321             	-1.11678901e-02	3.91139755e-15	9.57872466e-11	1.41818990e-22
322             	-1.11084368e-02	4.43281980e-15	1.04924598e-10	1.55197915e-22
323             	-1.10491074e-02	5.02651551e-15	1.14913202e-10	1.69905081e-22
324             	-1.09899287e-02	5.70118975e-15	1.25814962e-10	1.86044640e-22
325             	-1.09310060e-02	6.46637730e-15	1.37694559e-10	2.03724034e-22
326             	-1.08723133e-02	7.33247548e-15	1.50619295e-10	2.23052737e-22
327             	-1.08139057e-02	8.31077379e-15	1.64658885e-10	2.44140687e-22
328             	-1.07557351e-02	9.41348131e-15	1.79885238e-10	2.67096383e-22
329             	-1.06977345e-02	1.06537445e-14	1.96372203e-10	2.92024585e-22
330             	-1.06398671e-02	1.20456636e-14	2.14195243e-10	3.19023604e-22
331             	-1.05821426e-02	1.36043207e-14	2.33431096e-10	3.48189812e-22
332             	-1.05245664e-02	1.53458275e-14	2.54158334e-10	3.79647163e-22
333             	-1.04671447e-02	1.69913591e-14	2.76462384e-10	4.13458219e-22
334             	-1.04098224e-02	1.82553957e-14	3.00431471e-10	4.49709987e-22
335             	-1.03523987e-02	1.96008631e-14	3.26153056e-10	4.88707984e-22
336             	-1.02950165e-02	2.10362676e-14	3.53693086e-10	5.30768353e-22
337             	-1.02377493e-02	2.25699881e-14	3.83101750e-10	5.76195806e-22
338             	-1.01806571e-02	2.42104249e-14	4.14426167e-10	6.25305749e-22
339             	-1.01237543e-02	2.59661047e-14	4.47718189e-10	6.78428242e-22
340             	-1.00670191e-02	2.78457508e-14	4.83037880e-10	7.35910551e-22
341             	-1.00104425e-02	2.98583250e-14	5.20454311e-10	7.98118698e-22
342             	-9.95403094e-03	3.20130506e-14	5.60044891e-10	8.65438374e-22
343             	-9.89778419e-03	3.43194244e-14	6.01894073e-10	9.38275475e-22
344             	-9.84165964e-03	3.67872221e-14	6.46091920e-10	1.01705648e-21
345             	-9.78565425e-03	3.94265009e-14	6.92732803e-10	1.10222876e-21
346             	-9.72979851e-03	4.22476013e-14	7.41914310e-10	1.19426096e-21
347             	-9.67414889e-03	4.52611493e-14	7.93736399e-10	1.29364332e-21
348             	-9.61870787e-03	4.84780576e-14	8.48300735e-10	1.40088806e-21
349             	-9.56339436e-03	5.19095277e-14	9.05710191e-10	1.51652983e-21
350             	-9.50827483e-03	5.55670507e-14	9.66068449e-10	1.64112605e-21
351             	-9.45341927e-03	5.94624077e-14	1.02947969e-09	1.77525732e-21
352             	-9.39880078e-03	6.36076700e-14	1.09604835e-09	1.91952779e-21
353             	-9.34440357e-03	6.80151971e-14	1.16587887e-09	2.07456539e-21
354             	-9.29015236e-03	7.26976346e-14	1.23907550e-09	2.24102222e-21
355             	-9.23604553e-03	7.76679103e-14	1.31574214e-09	2.41957464e-21
356             	-9.18213068e-03	8.29392298e-14	1.39598215e-09	2.61092353e-21
357             	-9.12825675e-03	8.85250703e-14	1.47989816e-09	2.81579434e-21
358             	-9.07439568e-03	9.44391736e-14	1.56759192e-09	3.03493717e-21
359             	-9.02072069e-03	1.00695538e-13	1.65916414e-09	3.26912672e-21
360             	-8.96740324e-03	1.07308410e-13	1.75471431e-09	3.51916229e-21
361             	-8.91418947e-03	1.14292274e-13	1.85434052e-09	3.78586758e-21
362             	-8.86097531e-03	1.21661838e-13	1.95813931e-09	4.07009052e-21
363             	-8.80772248e-03	1.29432027e-13	2.06620551e-09	4.37270306e-21
364             	-8.75449846e-03	1.37617968e-13	2.17863203e-09	4.69460081e-21
365             	-8.70135459e-03	1.46234975e-13	2.29550972e-09	5.03670269e-21
366             	-8.64831073e-03	1.55298537e-13	2.41692719e-09	5.39995053e-21
367             	-8.59538003e-03	1.64824302e-13	2.54297063e-09	5.78530856e-21
368             	-8.54257418e-03	1.74828061e-13	2.67372364e-09	6.19376286e-21
369             	-8.48991530e-03	1.85325731e-13	2.80926710e-09	6.62632079e-21
370             	-8.43739472e-03	1.96333343e-13	2.94967893e-09	7.08401031e-21
371             	-8.38500596e-03	2.07867019e-13	3.09172569e-09	7.56787928e-21
372             	-8.33275348e-03	2.19942954e-13	3.22186386e-09	8.07899472e-21
373             	-8.28056417e-03	2.32577405e-13	3.35570348e-09	8.61844195e-21
374             	-8.22847121e-03	2.45786662e-13	3.49327751e-09	9.18732373e-21
375             	-8.17647914e-03	2.59587038e-13	3.63461621e-09	9.78675937e-21
376             	-8.12464312e-03	2.73994843e-13	3.77974712e-09	1.04178837e-20
377             	-8.07301868e-03	2.89026369e-13	3.92869488e-09	1.10818461e-20
378             	-8.02158637e-03	3.04725931e-13	4.08148120e-09	1.17819795e-20
379             	-7.97033797e-03	3.21146362e-13	4.23815698e-09	1.25203013e-20
380             	-7.91927408e-03	3.38343962e-13	4.39880917e-09	1.32990668e-20
381             	-7.86839374e-03	3.56378152e-13	4.56354886e-09	1.41211733e-20
382             	-7.81766660e-03	3.75310018e-13	4.73249868e-09	1.49899004e-20