# y+ ()         
# Time          	patch           	min             	max             	average         
2000            	bottom	3.04197697e-03	1.43453696e-02	3.91388246e-03
