/*--------------------------------*- C++ -*----------------------------------*\
| =========                 |                                                 |
| \\      /  F ield         | OpenFOAM: The Open Source CFD Toolbox           |
|  \\    /   O peration     | Version:  2206                                  |
|   \\  /    A nd           | Website:  www.openfoam.com                      |
|    \\/     M anipulation  |                                                 |
\*---------------------------------------------------------------------------*/
FoamFile
{
    version     2.0;
    format      ascii;
    arch        "LSB;label=32;scalar=64";
    class       volScalarField;
    location    "200";
    object      nut;
}
// * * * * * * * * * * * * * * * * * * * * * * * * * * * * * * * * * * * * * //

dimensions      [0 2 -1 0 0 0 0];

internalField   nonuniform List<scalar> 
13056
(
1.3245487e-11
1.3245861e-11
1.3246618e-11
1.3247604e-11
1.3248788e-11
1.3250166e-11
1.3251746e-11
1.3253537e-11
1.3255558e-11
1.3257836e-11
1.3260403e-11
1.3263305e-11
1.32666e-11
1.3270365e-11
1.3274716e-11
1.327979e-11
1.3285881e-11
1.3293163e-11
1.3302794e-11
1.3314139e-11
1.3333868e-11
1.3353132e-11
1.3418e-11
1.3394964e-11
7.4715834e-21
4.6331576e-21
6.6760336e-21
9.5693622e-21
1.3119285e-20
1.7315216e-20
2.2177033e-20
2.768908e-20
3.3807849e-20
4.0462047e-20
4.7550891e-20
5.4950895e-20
6.2526282e-20
7.0138605e-20
7.7655076e-20
8.4955491e-20
9.1937451e-20
9.8519181e-20
1.046402e-19
1.1026056e-19
1.1535886e-19
1.1992959e-19
1.2398013e-19
1.2752788e-19
1.3059758e-19
1.3321892e-19
1.3542455e-19
1.3724847e-19
1.387248e-19
1.3988687e-19
1.4076662e-19
1.413942e-19
1.4179763e-19
1.4200273e-19
1.4203308e-19
1.4191009e-19
1.4165308e-19
1.4127942e-19
1.4080469e-19
1.402428e-19
1.3960612e-19
1.3890561e-19
1.38151e-19
1.373509e-19
1.3651294e-19
1.3564383e-19
1.3474953e-19
1.3383532e-19
1.3290584e-19
1.3196514e-19
1.3101678e-19
1.3006392e-19
1.2910933e-19
1.2815546e-19
1.2720444e-19
1.2625813e-19
1.2531823e-19
1.2438623e-19
1.2346338e-19
1.2255078e-19
1.2164942e-19
1.2076013e-19
1.1988368e-19
1.1902068e-19
1.1817168e-19
1.1733721e-19
1.1651774e-19
1.1571359e-19
1.1492503e-19
1.1415231e-19
1.1339561e-19
1.1265505e-19
1.119307e-19
1.1122266e-19
1.1053094e-19
1.0985547e-19
1.0919613e-19
1.0855274e-19
1.0792508e-19
1.0731288e-19
1.0671578e-19
1.0613333e-19
1.0556499e-19
1.0501018e-19
1.0446823e-19
1.039383e-19
1.0341955e-19
1.029103e-19
1.0241289e-19
1.0192387e-19
1.014454e-19
1.009792e-19
1.0052387e-19
1.0007832e-19
9.9641458e-20
9.9212405e-20
9.8790493e-20
9.837518e-20
9.7965995e-20
9.7562521e-20
9.7164397e-20
9.6771262e-20
9.6382707e-20
9.5998118e-20
9.5616954e-20
9.5237396e-20
9.4860123e-20
9.4473779e-20
9.4097083e-20
9.3649741e-20
9.3262356e-20
9.2665242e-20
1.3245487e-11
1.3245862e-11
1.3246621e-11
1.324761e-11
1.3248797e-11
1.3250181e-11
1.3251765e-11
1.3253561e-11
1.3255589e-11
1.3257873e-11
1.3260448e-11
1.3263358e-11
1.3266663e-11
1.3270438e-11
1.3274801e-11
1.3279889e-11
1.3285996e-11
1.3293296e-11
1.330295e-11
1.3314323e-11
1.3334095e-11
1.3353401e-11
1.3418401e-11
1.3395393e-11
6.1141285e-19
3.8133229e-19
5.5001475e-19
7.8934732e-19
1.0834268e-18
1.4314644e-18
1.835163e-18
2.2932546e-18
2.8021298e-18
3.3558377e-18
3.9459468e-18
4.5621142e-18
5.1929608e-18
5.8268818e-18
6.4527485e-18
7.0604923e-18
7.6415439e-18
8.1890685e-18
8.6980225e-18
9.1650848e-18
9.5884929e-18
9.9678129e-18
1.030369e-17
1.0597604e-17
1.0851647e-17
1.1068321e-17
1.1250372e-17
1.1400651e-17
1.152202e-17
1.1617268e-17
1.1689068e-17
1.1739938e-17
1.1772218e-17
1.1788061e-17
1.1789432e-17
1.1778114e-17
1.1755715e-17
1.172368e-17
1.1683305e-17
1.1635744e-17
1.1582024e-17
1.1523054e-17
1.145964e-17
1.1392497e-17
1.1322255e-17
1.1249471e-17
1.1174638e-17
1.109819e-17
1.1020513e-17
1.0941939e-17
1.0862764e-17
1.0783247e-17
1.0703617e-17
1.0624075e-17
1.0544797e-17
1.0465935e-17
1.038763e-17
1.0310003e-17
1.0233157e-17
1.0157182e-17
1.0082159e-17
1.0008157e-17
9.9352367e-18
9.8634493e-18
9.7928389e-18
9.7234496e-18
9.6553183e-18
9.588471e-18
9.5229303e-18
9.4587154e-18
9.3958406e-18
9.3343145e-18
9.2741438e-18
9.2153351e-18
9.1578892e-18
9.1017994e-18
9.0470543e-18
8.9936389e-18
8.9415345e-18
8.8907181e-18
8.841159e-18
8.7928188e-18
8.7456527e-18
8.6996111e-18
8.6546376e-18
8.6106626e-18
8.5676151e-18
8.5253552e-18
8.4840737e-18
8.4434945e-18
8.4038017e-18
8.3651382e-18
8.3273839e-18
8.2904482e-18
8.2542381e-18
8.2186799e-18
8.1837174e-18
8.149305e-18
8.1154029e-18
8.0819759e-18
8.0489939e-18
8.0164266e-18
7.9842398e-18
7.9523823e-18
7.9208088e-18
7.8893683e-18
7.8581171e-18
7.8261112e-18
7.794907e-18
7.7578329e-18
7.7257344e-18
7.6762672e-18
1.3245487e-11
1.3245865e-11
1.3246631e-11
1.3247629e-11
1.3248827e-11
1.3250224e-11
1.3251823e-11
1.3253636e-11
1.3255682e-11
1.3257987e-11
1.3260585e-11
1.3263521e-11
1.3266854e-11
1.3270661e-11
1.327506e-11
1.3280189e-11
1.3286344e-11
1.32937e-11
1.3303425e-11
1.3314879e-11
1.3334784e-11
1.3354219e-11
1.3419617e-11
1.3396622e-11
4.8585209e-18
3.0440553e-18
4.3968186e-18
6.3209345e-18
8.6900728e-18
1.1498885e-17
1.4761731e-17
1.8468737e-17
2.2590769e-17
2.7079387e-17
3.1865725e-17
3.6865181e-17
4.1984595e-17
4.7128936e-17
5.2207097e-17
5.7136712e-17
6.1847762e-17
6.6284512e-17
7.0405946e-17
7.4185195e-17
7.7608165e-17
8.0671628e-17
8.338116e-17
8.5749138e-17
8.7792885e-17
8.953304e-17
9.0992167e-17
9.219367e-17
9.3160965e-17
9.391687e-17
9.4483185e-17
9.4880441e-17
9.5127695e-17
9.5242455e-17
9.5240686e-17
9.5136858e-17
9.494401e-17
9.467384e-17
9.4336831e-17
9.3942328e-17
9.3498615e-17
9.3013034e-17
9.2492088e-17
9.194153e-17
9.1366441e-17
9.0771296e-17
9.0160049e-17
8.9536205e-17
8.8902841e-17
8.8262635e-17
8.7617946e-17
8.6970856e-17
8.6323191e-17
8.5676555e-17
8.5032347e-17
8.4391795e-17
8.3756005e-17
8.3125949e-17
8.2502444e-17
8.1886204e-17
8.1277864e-17
8.0677973e-17
8.0087013e-17
7.9505384e-17
7.8933431e-17
7.8371503e-17
7.7819887e-17
7.7278786e-17
7.674837e-17
7.6228791e-17
7.5720154e-17
7.5222519e-17
7.4735936e-17
7.4260449e-17
7.3796057e-17
7.33427e-17
7.2900277e-17
7.246866e-17
7.2047691e-17
7.1637177e-17
7.1236862e-17
7.0846429e-17
7.0465507e-17
7.0093687e-17
6.9730509e-17
6.93754e-17
6.9027776e-17
6.8686503e-17
6.835309e-17
6.8025405e-17
6.7705009e-17
6.7393037e-17
6.7088497e-17
6.6790637e-17
6.6498691e-17
6.6212052e-17
6.5930258e-17
6.5652932e-17
6.5379747e-17
6.5110413e-17
6.4844684e-17
6.458231e-17
6.4323014e-17
6.4066379e-17
6.3812037e-17
6.3558762e-17
6.3307017e-17
6.3049152e-17
6.2797774e-17
6.249891e-17
6.2240229e-17
6.1841676e-17
1.3245487e-11
1.324587e-11
1.3246647e-11
1.3247661e-11
1.3248879e-11
1.3250297e-11
1.3251921e-11
1.3253763e-11
1.3255841e-11
1.3258182e-11
1.3260819e-11
1.3263798e-11
1.3267179e-11
1.3271041e-11
1.3275502e-11
1.3280701e-11
1.3286937e-11
1.3294389e-11
1.3304234e-11
1.3315827e-11
1.3335956e-11
1.3355609e-11
1.3421685e-11
1.3398691e-11
1.9557956e-17
1.2305214e-17
1.7809799e-17
2.5667675e-17
3.5371973e-17
4.6906835e-17
6.0334983e-17
7.5618077e-17
9.2636496e-17
1.1118883e-16
1.3098739e-16
1.5167793e-16
1.7286993e-16
1.9416487e-16
2.1518084e-16
2.3557295e-16
2.5504854e-16
2.7337526e-16
2.903829e-16
3.0596074e-16
3.2005172e-16
3.3264427e-16
3.4376355e-16
3.5346297e-16
3.6181635e-16
3.6891109e-16
3.7484234e-16
3.7970847e-16
3.8360764e-16
3.8663529e-16
3.888824e-16
3.904345e-16
3.9137084e-16
3.9176411e-16
3.9168048e-16
3.9117986e-16
3.9031612e-16
3.8913757e-16
3.8768739e-16
3.8600408e-16
3.8412168e-16
3.8207035e-16
3.7987676e-16
3.7756447e-16
3.7515427e-16
3.7266445e-16
3.7011114e-16
3.6750864e-16
3.6486947e-16
3.6220452e-16
3.5952337e-16
3.5683447e-16
3.5414521e-16
3.5146207e-16
3.4879071e-16
3.4613607e-16
3.4350261e-16
3.4089423e-16
3.3831422e-16
3.3576543e-16
3.3325038e-16
3.3077127e-16
3.2833001e-16
3.2592818e-16
3.2356714e-16
3.2124827e-16
3.1897269e-16
3.1674118e-16
3.145544e-16
3.1241291e-16
3.103171e-16
3.0826718e-16
3.062633e-16
3.043056e-16
3.0239404e-16
3.0052832e-16
2.9870799e-16
2.9693246e-16
2.9520106e-16
2.9351295e-16
2.9186703e-16
2.9026193e-16
2.8869611e-16
2.8716782e-16
2.8567514e-16
2.8421566e-16
2.827869e-16
2.8138419e-16
2.8001354e-16
2.7866676e-16
2.7735069e-16
2.7606991e-16
2.748202e-16
2.7359835e-16
2.7240112e-16
2.7122595e-16
2.7007089e-16
2.6893435e-16
2.6781495e-16
2.6671146e-16
2.6562284e-16
2.6454807e-16
2.6348597e-16
2.6243481e-16
2.6139308e-16
2.603557e-16
2.593246e-16
2.582682e-16
2.5723854e-16
2.5601321e-16
2.5495306e-16
2.5332027e-16
1.3245487e-11
1.3245877e-11
1.3246671e-11
1.3247708e-11
1.3248952e-11
1.3250402e-11
1.3252063e-11
1.3253946e-11
1.3256071e-11
1.3258462e-11
1.3261156e-11
1.3264198e-11
1.326765e-11
1.327159e-11
1.327614e-11
1.3281439e-11
1.3287793e-11
1.3295382e-11
1.3305401e-11
1.3317194e-11
1.3337646e-11
1.3357614e-11
1.3424663e-11
1.340166e-11
5.6949624e-17
3.5972216e-17
5.2203203e-17
7.5484886e-17
1.0435139e-16
1.3877986e-16
1.789728e-16
2.2482489e-16
2.7597942e-16
3.318255e-16
3.9148502e-16
4.5387347e-16
5.1779338e-16
5.8202223e-16
6.4538909e-16
7.0683807e-16
7.654753e-16
8.2059377e-16
8.7167837e-16
9.1839747e-16
9.6058425e-16
9.9821108e-16
1.0313623e-15
1.0602076e-15
1.0849782e-15
1.1059456e-15
1.1234036e-15
1.1376549e-15
1.1490003e-15
1.1577315e-15
1.1641259e-15
1.1684435e-15
1.1709247e-15
1.1717895e-15
1.1712379e-15
1.1694503e-15
1.1665891e-15
1.1627992e-15
1.1582101e-15
1.1529371e-15
1.1470819e-15
1.1407345e-15
1.1339744e-15
1.1268715e-15
1.1194877e-15
1.1118771e-15
1.1040874e-15
1.096161e-15
1.0881347e-15
1.0800407e-15
1.0719071e-15
1.0637586e-15
1.0556169e-15
1.047501e-15
1.0394273e-15
1.0314102e-15
1.0234628e-15
1.0155962e-15
1.0078201e-15
1.0001425e-15
9.9257081e-16
9.8511124e-16
9.7776925e-16
9.7054929e-16
9.634552e-16
9.5649086e-16
9.4965944e-16
9.4296304e-16
9.3640343e-16
9.299821e-16
9.2370003e-16
9.1755763e-16
9.1155523e-16
9.0569307e-16
8.9997082e-16
8.9438741e-16
8.8894134e-16
8.8363071e-16
8.784533e-16
8.7340644e-16
8.6848667e-16
8.6368973e-16
8.5901077e-16
8.5444447e-16
8.4998485e-16
8.456245e-16
8.4135582e-16
8.371647e-16
8.3306836e-16
8.2904459e-16
8.2511549e-16
8.2129438e-16
8.1756808e-16
8.1392657e-16
8.1035985e-16
8.0686e-16
8.0342101e-16
8.0003795e-16
7.9670651e-16
7.9342294e-16
7.9018406e-16
7.8698671e-16
7.8382734e-16
7.8070069e-16
7.7760216e-16
7.7451655e-16
7.7144963e-16
7.683066e-16
7.6524375e-16
7.6159426e-16
7.5843845e-16
7.5358034e-16
1.3245486e-11
1.3245887e-11
1.3246703e-11
1.3247769e-11
1.3249051e-11
1.3250544e-11
1.3252254e-11
1.3254192e-11
1.3256377e-11
1.3258837e-11
1.3261607e-11
1.3264733e-11
1.3268278e-11
1.3272324e-11
1.3276992e-11
1.3282426e-11
1.3288937e-11
1.3296709e-11
1.330696e-11
1.3319019e-11
1.33399e-11
1.3360288e-11
1.342863e-11
1.3405614e-11
1.3762882e-16
8.7262482e-17
1.2705616e-16
1.8448046e-16
2.560324e-16
3.4173272e-16
4.4213487e-16
5.5700673e-16
6.8546237e-16
8.2595121e-16
9.7622643e-16
1.1335028e-15
1.2946988e-15
1.4566671e-15
1.616395e-15
1.7711708e-15
1.9187058e-15
2.0571981e-15
2.185344e-15
2.3023154e-15
2.4077086e-15
2.5014777e-15
2.5838618e-15
2.6553169e-15
2.7164526e-15
2.7679781e-15
2.8106561e-15
2.845268e-15
2.8725875e-15
2.8933619e-15
2.9082993e-15
2.9180616e-15
2.9232593e-15
2.9244493e-15
2.9221366e-15
2.9167759e-15
2.908775e-15
2.8984976e-15
2.8862678e-15
2.8723733e-15
2.8570677e-15
2.8405746e-15
2.8230912e-15
2.804791e-15
2.7858267e-15
2.7663318e-15
2.7464239e-15
2.7262068e-15
2.705771e-15
2.6851951e-15
2.6645476e-15
2.6438888e-15
2.6232715e-15
2.6027415e-15
2.5823386e-15
2.5620974e-15
2.5420491e-15
2.5222208e-15
2.5026352e-15
2.4833118e-15
2.4642676e-15
2.4455175e-15
2.4270742e-15
2.4089481e-15
2.391148e-15
2.3736827e-15
2.3565597e-15
2.3397835e-15
2.3233577e-15
2.3072857e-15
2.2915692e-15
2.2762088e-15
2.2612046e-15
2.2465567e-15
2.2322639e-15
2.2183229e-15
2.2047294e-15
2.1914781e-15
2.178563e-15
2.1659769e-15
2.1537107e-15
2.141753e-15
2.1300914e-15
2.1187119e-15
2.1075991e-15
2.0967339e-15
2.0860965e-15
2.0756516e-15
2.0654398e-15
2.0554124e-15
2.0456297e-15
2.0361237e-15
2.02686e-15
2.0178123e-15
2.0089546e-15
2.0002664e-15
1.9917323e-15
1.9833392e-15
1.9750762e-15
1.9669334e-15
1.9589027e-15
1.9509761e-15
1.9431444e-15
1.9353943e-15
1.9277142e-15
1.920066e-15
1.9124642e-15
1.9046711e-15
1.8970787e-15
1.888018e-15
1.8801882e-15
1.868142e-15
1.3245486e-11
1.3245899e-11
1.3246744e-11
1.3247849e-11
1.3249177e-11
1.3250725e-11
1.3252497e-11
1.3254506e-11
1.325677e-11
1.3259317e-11
1.3262184e-11
1.3265418e-11
1.3269083e-11
1.3273262e-11
1.3278082e-11
1.3283688e-11
1.32904e-11
1.3298405e-11
1.3308952e-11
1.332135e-11
1.3342779e-11
1.3363701e-11
1.3433686e-11
1.3410659e-11
2.9530305e-16
1.8793117e-16
2.7471578e-16
4.0085702e-16
5.589646e-16
7.492966e-16
9.7322015e-16
1.2303051e-15
1.5185926e-15
1.8345603e-15
2.173054e-15
2.5276554e-15
2.8912478e-15
3.2565572e-15
3.6166271e-15
3.9652098e-15
4.2970509e-15
4.6080365e-15
4.895217e-15
5.1567477e-15
5.3917673e-15
5.600237e-15
5.7827701e-15
5.9404705e-15
6.0747857e-15
6.1873813e-15
6.2800356e-15
6.3545596e-15
6.4127377e-15
6.4562861e-15
6.4868247e-15
6.5058624e-15
6.5147859e-15
6.5148564e-15
6.5072141e-15
6.4928831e-15
6.4727785e-15
6.4477149e-15
6.4184162e-15
6.3855231e-15
6.3495993e-15
6.3111405e-15
6.2705826e-15
6.2283083e-15
6.1846535e-15
6.1399115e-15
6.0943394e-15
6.048164e-15
6.0015828e-15
5.9547659e-15
5.9078622e-15
5.861002e-15
5.8142984e-15
5.7678502e-15
5.7217423e-15
5.6760485e-15
5.6308352e-15
5.5861598e-15
5.5420698e-15
5.498606e-15
5.4558042e-15
5.4136948e-15
5.372304e-15
5.3316527e-15
5.2917585e-15
5.2526396e-15
5.2143103e-15
5.1767791e-15
5.1400527e-15
5.1041367e-15
5.0690334e-15
5.0347424e-15
5.0012631e-15
4.9685942e-15
4.9367311e-15
4.9056653e-15
4.8753858e-15
4.8458795e-15
4.8171316e-15
4.7891249e-15
4.7618372e-15
4.735242e-15
4.7093097e-15
4.6840084e-15
4.6593021e-15
4.6351465e-15
4.6114958e-15
4.5882703e-15
4.5655544e-15
4.5432579e-15
4.5215275e-15
4.500432e-15
4.4798906e-15
4.4598414e-15
4.4402239e-15
4.4209909e-15
4.4021061e-15
4.3835398e-15
4.3652658e-15
4.3472618e-15
4.3295089e-15
4.3119888e-15
4.2946806e-15
4.2775539e-15
4.2605829e-15
4.2436817e-15
4.2268835e-15
4.209655e-15
4.1928755e-15
4.1728144e-15
4.1554921e-15
4.1288601e-15
1.3245486e-11
1.3245915e-11
1.3246795e-11
1.3247947e-11
1.3249334e-11
1.325095e-11
1.32528e-11
1.3254897e-11
1.3257259e-11
1.3259915e-11
1.3262903e-11
1.3266271e-11
1.3270085e-11
1.3274431e-11
1.3279439e-11
1.3285259e-11
1.3292221e-11
1.3300515e-11
1.3311429e-11
1.3324248e-11
1.3346354e-11
1.3367936e-11
1.3439949e-11
1.3416922e-11
5.8428785e-16
3.7323882e-16
5.4810707e-16
8.0441975e-16
1.1279046e-15
1.5196165e-15
1.9827181e-15
2.5165441e-15
3.1170947e-15
3.7769341e-15
4.485056e-15
5.2276823e-15
5.9894952e-15
6.7548275e-15
7.5087112e-15
8.2377377e-15
8.9306784e-15
9.5787989e-15
1.0175902e-14
1.0718188e-14
1.1203977e-14
1.1633352e-14
1.2007779e-14
1.2329759e-14
1.2602501e-14
1.2829655e-14
1.3015087e-14
1.3162706e-14
1.3276345e-14
1.3359671e-14
1.341613e-14
1.344892e-14
1.3460967e-14
1.3454924e-14
1.3433181e-14
1.3397876e-14
1.3350916e-14
1.3293991e-14
1.3228599e-14
1.3156063e-14
1.3077542e-14
1.2994053e-14
1.2906487e-14
1.2815626e-14
1.2722152e-14
1.262666e-14
1.252967e-14
1.2431638e-14
1.2332963e-14
1.2233984e-14
1.2134999e-14
1.2036266e-14
1.193801e-14
1.1840426e-14
1.1743681e-14
1.1647919e-14
1.1553269e-14
1.1459842e-14
1.1367731e-14
1.1277013e-14
1.1187756e-14
1.1100017e-14
1.1013844e-14
1.0929276e-14
1.0846345e-14
1.0765083e-14
1.0685516e-14
1.0607657e-14
1.0531516e-14
1.0457101e-14
1.0384413e-14
1.0313448e-14
1.02442e-14
1.0176664e-14
1.0110827e-14
1.0046668e-14
9.984161e-15
9.9232753e-15
9.8639775e-15
9.8062285e-15
9.749979e-15
9.6951708e-15
9.6417391e-15
9.5896149e-15
9.5387206e-15
9.4889608e-15
9.4402358e-15
9.3923798e-15
9.3455532e-15
9.2996103e-15
9.2548846e-15
9.2115116e-15
9.1693152e-15
9.1281601e-15
9.0879158e-15
9.0484805e-15
9.0097765e-15
8.9717391e-15
8.9343117e-15
8.8974461e-15
8.8611026e-15
8.8252417e-15
8.7898193e-15
8.7547714e-15
8.7200437e-15
8.6854575e-15
8.651083e-15
8.6158109e-15
8.5814695e-15
8.5403261e-15
8.5048312e-15
8.4503039e-15
1.3245486e-11
1.3245934e-11
1.3246857e-11
1.3248068e-11
1.3249525e-11
1.3251225e-11
1.3253171e-11
1.3255374e-11
1.3257857e-11
1.3260646e-11
1.3263781e-11
1.3267313e-11
1.3271309e-11
1.3275859e-11
1.3281096e-11
1.3287177e-11
1.3294442e-11
1.3303089e-11
1.3314449e-11
1.332778e-11
1.3350708e-11
1.3373093e-11
1.3447559e-11
1.3424555e-11
1.0911339e-15
6.9973913e-16
1.0329583e-15
1.526053e-15
2.1532603e-15
2.9178438e-15
3.8267986e-15
4.879356e-15
6.0678049e-15
7.3772241e-15
8.7852291e-15
1.026363e-14
1.1780995e-14
1.3305148e-14
1.480539e-14
1.6254296e-14
1.7629017e-14
1.891191e-14
2.0090612e-14
2.1157717e-14
2.2110179e-14
2.2948545e-14
2.3676161e-14
2.4298431e-14
2.4822149e-14
2.5254947e-14
2.5604835e-14
2.5879857e-14
2.6087849e-14
2.6236269e-14
2.6332094e-14
2.6381764e-14
2.639115e-14
2.6365552e-14
2.6309727e-14
2.6227915e-14
2.6123882e-14
2.6000955e-14
2.5862076e-14
2.5709827e-14
2.5546471e-14
2.5373981e-14
2.5194085e-14
2.5008287e-14
2.4817901e-14
2.4624067e-14
2.4427778e-14
2.4229903e-14
2.4031195e-14
2.3832299e-14
2.3633771e-14
2.3436098e-14
2.3239697e-14
2.304493e-14
2.2852104e-14
2.2661484e-14
2.2473307e-14
2.2287775e-14
2.2105052e-14
2.1925276e-14
2.1748567e-14
2.1575025e-14
2.1404733e-14
2.1237753e-14
2.1074138e-14
2.0913944e-14
2.0757209e-14
2.060395e-14
2.0454179e-14
2.0307902e-14
2.0165113e-14
2.0025796e-14
1.9889934e-14
1.9757509e-14
1.9628486e-14
1.9502818e-14
1.9380445e-14
1.9261301e-14
1.9145314e-14
1.9032399e-14
1.8922451e-14
1.8815349e-14
1.8710959e-14
1.8609137e-14
1.8509725e-14
1.8412527e-14
1.8317337e-14
1.8223828e-14
1.8132282e-14
1.8042502e-14
1.7955207e-14
1.7870648e-14
1.7788462e-14
1.7708368e-14
1.7630097e-14
1.7553443e-14
1.7478247e-14
1.7404375e-14
1.7331712e-14
1.7260158e-14
1.7189634e-14
1.7120059e-14
1.7051345e-14
1.6983364e-14
1.6916007e-14
1.6848922e-14
1.6782249e-14
1.6713798e-14
1.6647178e-14
1.6567175e-14
1.6498225e-14
1.6392398e-14
1.3245486e-11
1.3245956e-11
1.3246931e-11
1.3248213e-11
1.3249756e-11
1.3251556e-11
1.3253617e-11
1.3255951e-11
1.3258577e-11
1.3261527e-11
1.326484e-11
1.3268568e-11
1.3272784e-11
1.3277579e-11
1.3283092e-11
1.3289487e-11
1.3297117e-11
1.3306187e-11
1.3318082e-11
1.3332027e-11
1.3355937e-11
1.3379282e-11
1.3456672e-11
1.3433731e-11
1.9524769e-15
1.2573974e-15
1.8670518e-15
2.7788532e-15
3.9488165e-15
5.3857006e-15
7.1044906e-15
9.1049524e-15
1.137286e-14
1.3879332e-14
1.6580373e-14
1.9420205e-14
2.2336429e-14
2.5265123e-14
2.8145377e-14
3.0922969e-14
3.3552962e-14
3.6000961e-14
3.8243204e-14
4.0265849e-14
4.2063719e-14
4.363872e-14
4.4998208e-14
4.615349e-14
4.711849e-14
4.7908643e-14
4.8539995e-14
4.9028542e-14
4.9389764e-14
4.9638307e-14
4.9787795e-14
4.9850747e-14
4.983852e-14
4.9761322e-14
4.9628271e-14
4.9447469e-14
4.9226076e-14
4.8970397e-14
4.8685981e-14
4.8377687e-14
4.8049751e-14
4.7705856e-14
4.7349213e-14
4.698261e-14
4.660847e-14
4.6228886e-14
4.5845676e-14
4.5460426e-14
4.5074502e-14
4.4689067e-14
4.4305124e-14
4.392354e-14
4.354506e-14
4.3170321e-14
4.2799865e-14
4.2434151e-14
4.2073589e-14
4.171853e-14
4.1369251e-14
4.1025982e-14
4.0688921e-14
4.035823e-14
4.0034043e-14
3.9716453e-14
3.9405536e-14
3.9101377e-14
3.8804031e-14
3.851351e-14
3.8229816e-14
3.7952946e-14
3.768287e-14
3.741954e-14
3.7162911e-14
3.6912932e-14
3.6669523e-14
3.6432575e-14
3.6201965e-14
3.597755e-14
3.5759179e-14
3.5546678e-14
3.5339833e-14
3.5138397e-14
3.49421e-14
3.475066e-14
3.4563762e-14
3.4381016e-14
3.4202014e-14
3.402613e-14
3.3853837e-14
3.3684939e-14
3.3520922e-14
3.3362235e-14
3.3208157e-14
3.3058124e-14
3.291161e-14
3.2768207e-14
3.2627603e-14
3.2489534e-14
3.2353769e-14
3.2220116e-14
3.2088418e-14
3.195852e-14
3.1830248e-14
3.1703355e-14
3.1577636e-14
3.1452416e-14
3.1327969e-14
3.1200124e-14
3.1075753e-14
3.0926015e-14
3.0797102e-14
3.0599438e-14
1.3245486e-11
1.3245983e-11
1.324702e-11
1.3248385e-11
1.3250031e-11
1.3251952e-11
1.325415e-11
1.3256638e-11
1.3259437e-11
1.3262578e-11
1.3266103e-11
1.3270067e-11
1.3274543e-11
1.327963e-11
1.3285471e-11
1.3292239e-11
1.3300303e-11
1.3309875e-11
1.3322405e-11
1.3337076e-11
1.3362148e-11
1.3386628e-11
1.3467461e-11
1.3444645e-11
3.3822028e-15
2.1883467e-15
3.2703864e-15
4.9076648e-15
7.0287667e-15
9.6551952e-15
1.2818292e-14
1.6520287e-14
2.0735854e-14
2.541055e-14
3.0459996e-14
3.5776416e-14
4.1238818e-14
4.6723165e-14
5.2111438e-14
5.7298977e-14
6.2199574e-14
6.6747884e-14
7.0899486e-14
7.4629356e-14
7.7929279e-14
8.0804637e-14
8.3271162e-14
8.5351951e-14
8.7074861e-14
8.8470367e-14
8.9569846e-14
9.0404318e-14
9.1003601e-14
9.1395726e-14
9.1606623e-14
9.1659988e-14
9.157721e-14
9.1377419e-14
9.1077626e-14
9.0692875e-14
9.0236404e-14
8.9719823e-14
8.9153302e-14
8.8545714e-14
8.7904756e-14
8.72371e-14
8.654853e-14
8.5844054e-14
8.5128e-14
8.4404093e-14
8.3675549e-14
8.2945166e-14
8.221534e-14
8.1488099e-14
8.0765182e-14
8.0048082e-14
7.9338074e-14
7.8636241e-14
7.7943493e-14
7.7260598e-14
7.6588237e-14
7.5926983e-14
7.5277285e-14
7.4639504e-14
7.4013947e-14
7.3400859e-14
7.2800435e-14
7.2212802e-14
7.1638053e-14
7.1076303e-14
7.0527615e-14
6.9991971e-14
6.9469341e-14
6.8959682e-14
6.8462905e-14
6.7978891e-14
6.7507526e-14
6.7048686e-14
6.6602189e-14
6.6167808e-14
6.5745282e-14
6.533432e-14
6.4934616e-14
6.454582e-14
6.4167506e-14
6.3799185e-14
6.3440332e-14
6.3090403e-14
6.2748787e-14
6.241473e-14
6.2087444e-14
6.1765764e-14
6.1450438e-14
6.1141448e-14
6.084177e-14
6.0552185e-14
6.0271298e-14
5.9998021e-14
5.9731344e-14
5.9470489e-14
5.9214861e-14
5.8963951e-14
5.8717315e-14
5.8474588e-14
5.8235472e-14
5.7999675e-14
5.7766866e-14
5.753658e-14
5.7308437e-14
5.7081188e-14
5.6855345e-14
5.6623186e-14
5.6397432e-14
5.6124889e-14
5.5890519e-14
5.5531537e-14
1.3245485e-11
1.3246015e-11
1.3247124e-11
1.3248589e-11
1.3250357e-11
1.3252419e-11
1.325478e-11
1.3257451e-11
1.3260454e-11
1.3263821e-11
1.3267597e-11
1.3271838e-11
1.3276624e-11
1.3282054e-11
1.3288284e-11
1.329549e-11
1.3304065e-11
1.3314228e-11
1.3327505e-11
1.3343029e-11
1.3369461e-11
1.3395271e-11
1.3480116e-11
1.3457518e-11
5.712428e-15
3.7157801e-15
5.5922289e-15
8.4675823e-15
1.2231587e-14
1.6933865e-14
2.2638748e-14
2.9355874e-14
3.704154e-14
4.5595131e-14
5.4857693e-14
6.4624552e-14
7.4665068e-14
8.4742616e-14
9.4632455e-14
1.041361e-13
1.1309116e-13
1.2137588e-13
1.28909e-13
1.3564653e-13
1.4157647e-13
1.4671249e-13
1.5108747e-13
1.5474772e-13
1.5774797e-13
1.6014732e-13
1.62006e-13
1.6338306e-13
1.6433484e-13
1.6491398e-13
1.6516885e-13
1.6514342e-13
1.6487716e-13
1.6440519e-13
1.6375857e-13
1.6296466e-13
1.6204741e-13
1.6102771e-13
1.5992381e-13
1.5875152e-13
1.5752453e-13
1.5625462e-13
1.5495197e-13
1.5362535e-13
1.5228231e-13
1.509293e-13
1.4957186e-13
1.482148e-13
1.468622e-13
1.4551749e-13
1.441836e-13
1.4286303e-13
1.4155788e-13
1.4026993e-13
1.3900066e-13
1.3775129e-13
1.3652291e-13
1.3531642e-13
1.3413251e-13
1.3297171e-13
1.3183445e-13
1.3072109e-13
1.2963188e-13
1.2856694e-13
1.2752638e-13
1.265103e-13
1.2551876e-13
1.2455165e-13
1.2360884e-13
1.2269018e-13
1.2179546e-13
1.2092439e-13
1.2007671e-13
1.1925214e-13
1.1845029e-13
1.1767069e-13
1.1691281e-13
1.1617606e-13
1.1545985e-13
1.1476349e-13
1.1408613e-13
1.1342685e-13
1.1278463e-13
1.1215845e-13
1.1154714e-13
1.1094928e-13
1.1036338e-13
1.097873e-13
1.0922218e-13
1.086686e-13
1.0813239e-13
1.0761486e-13
1.071134e-13
1.0662594e-13
1.0615059e-13
1.0568591e-13
1.0523079e-13
1.0478427e-13
1.043455e-13
1.0391382e-13
1.0348868e-13
1.0306952e-13
1.0265575e-13
1.0224649e-13
1.0184106e-13
1.014372e-13
1.0103584e-13
1.0062297e-13
1.0022167e-13
9.9735807e-14
9.9318495e-14
9.8680017e-14
1.3245485e-11
1.3246051e-11
1.3247246e-11
1.3248828e-11
1.3250738e-11
1.3252968e-11
1.325552e-11
1.3258406e-11
1.3261649e-11
1.3265282e-11
1.3269352e-11
1.3273919e-11
1.3279067e-11
1.3284901e-11
1.3291584e-11
1.3299305e-11
1.3308476e-11
1.331933e-11
1.3333476e-11
1.3349995e-11
1.3378006e-11
1.3405362e-11
1.3494841e-11
1.3472593e-11
9.4547324e-15
6.1882478e-15
9.3841919e-15
1.4347846e-14
2.0918471e-14
2.9205453e-14
3.9338806e-14
5.1347206e-14
6.5157392e-14
8.058628e-14
9.7338442e-14
1.1503015e-13
1.332273e-13
1.5148419e-13
1.6937835e-13
1.8653832e-13
2.026625e-13
2.1752739e-13
2.3098688e-13
2.4296556e-13
2.5344813e-13
2.6246688e-13
2.7008927e-13
2.7640679e-13
2.8152545e-13
2.8555821e-13
2.8861904e-13
2.9081871e-13
2.9226215e-13
2.9304666e-13
2.9326115e-13
2.9298592e-13
2.9229264e-13
2.9124474e-13
2.8989803e-13
2.883014e-13
2.8649743e-13
2.8452309e-13
2.8241048e-13
2.8018735e-13
2.7787751e-13
2.7550141e-13
2.7307662e-13
2.7061818e-13
2.6813896e-13
2.6564991e-13
2.6316037e-13
2.6067841e-13
2.5821082e-13
2.5576328e-13
2.5334056e-13
2.5094672e-13
2.4858514e-13
2.4625865e-13
2.4396956e-13
2.4171976e-13
2.3951089e-13
2.3734431e-13
2.35221e-13
2.3314169e-13
2.3110695e-13
2.2911721e-13
2.2717272e-13
2.2527356e-13
2.2341973e-13
2.216113e-13
2.198482e-13
2.181301e-13
2.1645666e-13
2.1482748e-13
2.1324206e-13
2.1169976e-13
2.1020004e-13
2.0874227e-13
2.0732565e-13
2.0594922e-13
2.0461194e-13
2.0331268e-13
2.0205025e-13
2.0082333e-13
1.9963031e-13
1.9846942e-13
1.9733875e-13
1.962364e-13
1.951602e-13
1.9410748e-13
1.9307545e-13
1.920603e-13
1.9106362e-13
1.9008757e-13
1.891433e-13
1.8823302e-13
1.8735187e-13
1.8649606e-13
1.8566209e-13
1.8484734e-13
1.8404978e-13
1.8326762e-13
1.8249934e-13
1.8174367e-13
1.8099965e-13
1.8026627e-13
1.7954241e-13
1.7882652e-13
1.7811737e-13
1.7741089e-13
1.7670882e-13
1.7598607e-13
1.7528392e-13
1.7443124e-13
1.7369978e-13
1.7258197e-13
1.3245485e-11
1.3246094e-11
1.3247388e-11
1.3249106e-11
1.3251183e-11
1.3253609e-11
1.3256384e-11
1.3259521e-11
1.3263044e-11
1.3266988e-11
1.3271401e-11
1.3276349e-11
1.3281918e-11
1.3288222e-11
1.3295433e-11
1.3303752e-11
1.3313617e-11
1.3325271e-11
1.3340424e-11
1.3358094e-11
1.3387925e-11
1.3417064e-11
1.3511854e-11
1.3490137e-11
1.5390655e-14
1.0147229e-14
1.5513208e-14
2.3966535e-14
3.5289906e-14
4.9716025e-14
6.7504183e-14
8.8727935e-14
1.1326808e-13
1.407956e-13
1.7076713e-13
2.0247036e-13
2.3509618e-13
2.6781328e-13
2.9983543e-13
3.3047471e-13
3.5917701e-13
3.8553707e-13
4.0929606e-13
4.3032775e-13
4.4861761e-13
4.6423837e-13
4.7732619e-13
4.8805949e-13
4.966412e-13
5.0328472e-13
5.0820318e-13
5.1160195e-13
5.1367403e-13
5.1459718e-13
5.145327e-13
5.1362539e-13
5.1200375e-13
5.0978079e-13
5.0705546e-13
5.0391389e-13
5.0043075e-13
4.9667051e-13
4.9268884e-13
4.885336e-13
4.8424568e-13
4.7985996e-13
4.7540625e-13
4.709099e-13
4.663925e-13
4.6187229e-13
4.573647e-13
4.5288297e-13
4.484382e-13
4.4403953e-13
4.3969458e-13
4.3540977e-13
4.3119036e-13
4.270407e-13
4.2296426e-13
4.1896382e-13
4.1504178e-13
4.1120005e-13
4.0743992e-13
4.0376227e-13
4.0016775e-13
3.9665671e-13
3.9322932e-13
3.8988538e-13
3.8662459e-13
3.8344684e-13
3.8035173e-13
3.7733843e-13
3.744061e-13
3.7155384e-13
3.6878051e-13
3.6608482e-13
3.634656e-13
3.6092156e-13
3.5845106e-13
3.5605223e-13
3.5372306e-13
3.5146133e-13
3.4926482e-13
3.4713098e-13
3.4505679e-13
3.430389e-13
3.4107383e-13
3.3915803e-13
3.372875e-13
3.3545736e-13
3.3366244e-13
3.31896e-13
3.301601e-13
3.2846046e-13
3.2681804e-13
3.2523654e-13
3.2370714e-13
3.222229e-13
3.2077752e-13
3.1936629e-13
3.1798554e-13
3.1663205e-13
3.1530301e-13
3.139962e-13
3.1270985e-13
3.1144217e-13
3.1019113e-13
3.0895396e-13
3.0772849e-13
3.0650754e-13
3.0529424e-13
3.0404423e-13
3.0283044e-13
3.0135192e-13
3.0008518e-13
2.9815166e-13
1.3245485e-11
1.3246143e-11
1.3247552e-11
1.3249428e-11
1.3251699e-11
1.3254352e-11
1.3257387e-11
1.3260816e-11
1.3264664e-11
1.3268969e-11
1.3273781e-11
1.327917e-11
1.3285228e-11
1.3292076e-11
1.3299898e-11
1.3308908e-11
1.3319573e-11
1.3332151e-11
1.3348463e-11
1.3367455e-11
1.339937e-11
1.3430552e-11
1.3531381e-11
1.3510444e-11
2.4703722e-14
1.6429618e-14
2.5335283e-14
3.9575007e-14
5.8888349e-14
8.3756369e-14
1.1469003e-13
1.5186303e-13
1.9508777e-13
2.4377914e-13
2.9694625e-13
3.5327736e-13
4.1127625e-13
4.6940475e-13
5.2621145e-13
5.8043314e-13
6.3106109e-13
6.7736784e-13
7.1890075e-13
7.5545379e-13
7.8702642e-13
8.1377647e-13
8.3597476e-13
8.539654e-13
8.6813277e-13
8.7887602e-13
8.865897e-13
8.916507e-13
8.9441043e-13
8.9519021e-13
8.9427966e-13
8.9193707e-13
8.8839026e-13
8.8383841e-13
8.7845484e-13
8.7238964e-13
8.6577212e-13
8.5871334e-13
8.5130861e-13
8.4363947e-13
8.3577514e-13
8.2777432e-13
8.1968681e-13
8.1155479e-13
8.0341384e-13
7.9529381e-13
7.872198e-13
7.7921314e-13
7.7129156e-13
7.6346947e-13
7.5575875e-13
7.4816925e-13
7.4070893e-13
7.3338423e-13
7.2620013e-13
7.191605e-13
7.1226863e-13
7.0552703e-13
6.9893716e-13
6.9249984e-13
6.862155e-13
6.8008419e-13
6.7410557e-13
6.6827875e-13
6.6260271e-13
6.5707679e-13
6.5169982e-13
6.4646992e-13
6.4138521e-13
6.3644373e-13
6.3164311e-13
6.2698072e-13
6.2245418e-13
6.180609e-13
6.1379762e-13
6.0966077e-13
6.0564646e-13
6.0175053e-13
5.9796876e-13
5.9429638e-13
5.9072775e-13
5.8725667e-13
5.8387673e-13
5.8058153e-13
5.7736375e-13
5.7421445e-13
5.7112427e-13
5.6808137e-13
5.6508805e-13
5.6215753e-13
5.5932868e-13
5.5660761e-13
5.5397856e-13
5.5142902e-13
5.4894782e-13
5.4652661e-13
5.4415887e-13
5.4183883e-13
5.3956142e-13
5.3732273e-13
5.3511966e-13
5.32949e-13
5.3080714e-13
5.2868917e-13
5.265913e-13
5.2450102e-13
5.2242383e-13
5.2028214e-13
5.1820348e-13
5.1566369e-13
5.1349036e-13
5.101771e-13
1.3245484e-11
1.3246198e-11
1.324774e-11
1.32498e-11
1.3252295e-11
1.325521e-11
1.3258546e-11
1.3262313e-11
1.3266537e-11
1.3271259e-11
1.3276532e-11
1.3282429e-11
1.3289051e-11
1.3296526e-11
1.3305052e-11
1.3314856e-11
1.3326439e-11
1.3340076e-11
1.3357713e-11
1.3378218e-11
1.3412503e-11
1.3446011e-11
1.3553655e-11
1.353383e-11
3.9169112e-14
2.6322134e-14
4.0961138e-14
6.4731322e-14
9.7392176e-14
1.3991473e-13
1.9329478e-13
2.5792078e-13
3.3350935e-13
4.1902964e-13
5.1268776e-13
6.1208467e-13
7.1447207e-13
8.1702312e-13
9.1707719e-13
1.0123315e-12
1.1009639e-12
1.1816801e-12
1.253698e-12
1.3166902e-12
1.3707044e-12
1.416073e-12
1.4533276e-12
1.4831248e-12
1.506186e-12
1.5232507e-12
1.535043e-12
1.5422481e-12
1.5455002e-12
1.5453747e-12
1.5423869e-12
1.5369932e-12