/*--------------------------------*- C++ -*----------------------------------*\
| =========                 |                                                 |
| \\      /  F ield         | OpenFOAM: The Open Source CFD Toolbox           |
|  \\    /   O peration     | Version:  2206                                  |
|   \\  /    A nd           | Website:  www.openfoam.com                      |
|    \\/     M anipulation  |                                                 |
\*---------------------------------------------------------------------------*/
FoamFile
{
    version     2.0;
    format      ascii;
    arch        "LSB;label=32;scalar=64";
    class       volScalarField;
    location    "200";
    object      nuTilda;
}
// * * * * * * * * * * * * * * * * * * * * * * * * * * * * * * * * * * * * * //

dimensions      [0 2 -1 0 0 0 0];

internalField   nonuniform List<scalar> 
13056
(
1.9999996e-06
2.0000137e-06
2.0000423e-06
2.0000795e-06
2.0001242e-06
2.0001762e-06
2.0002358e-06
2.0003034e-06
2.0003797e-06
2.0004656e-06
2.0005624e-06
2.0006719e-06
2.0007961e-06
2.000938e-06
2.001102e-06
2.0012932e-06
2.0015227e-06
2.0017969e-06
2.0021594e-06
2.0025861e-06
2.0033276e-06
2.0040507e-06
2.0064802e-06
2.0056185e-06
9.7468744e-09
8.6493102e-09
9.4763662e-09
1.0368906e-08
1.121992e-08
1.2025944e-08
1.2793462e-08
1.3523507e-08
1.4215646e-08
1.486874e-08
1.5481102e-08
1.6051141e-08
1.6577837e-08
1.7060882e-08
1.750067e-08
1.7898229e-08
1.8255146e-08
1.8573442e-08
1.8855448e-08
1.910369e-08
1.9320793e-08
1.9509395e-08
1.9672078e-08
1.9811324e-08
1.9929481e-08
2.0028742e-08
2.0111134e-08
2.017851e-08
2.0232555e-08
2.0274794e-08
2.0306596e-08
2.0329191e-08
2.0343677e-08
2.0351029e-08
2.0352117e-08
2.0347709e-08
2.033849e-08
2.0325064e-08
2.0307969e-08
2.0287678e-08
2.0264613e-08
2.0239145e-08
2.0211601e-08
2.0182273e-08
2.015142e-08
2.011927e-08
2.0086026e-08
2.0051871e-08
2.0016965e-08
1.998145e-08
1.9945454e-08
1.990909e-08
1.9872459e-08
1.9835652e-08
1.979875e-08
1.9761825e-08
1.9724944e-08
1.9688167e-08
1.9651547e-08
1.9615132e-08
1.9578964e-08
1.9543084e-08
1.9507527e-08
1.9472325e-08
1.9437507e-08
1.9403101e-08
1.9369135e-08
1.9335629e-08
1.9302602e-08
1.9270074e-08
1.923806e-08
1.9206572e-08
1.9175624e-08
1.9145227e-08
1.911539e-08
1.9086119e-08
1.9057416e-08
1.9029282e-08
1.9001715e-08
1.8974711e-08
1.8948261e-08
1.8922354e-08
1.8896971e-08
1.8872093e-08
1.8847696e-08
1.8823748e-08
1.8800217e-08
1.8777031e-08
1.87543e-08
1.8731872e-08
1.870985e-08
1.8688317e-08
1.8667214e-08
1.8646495e-08
1.8626113e-08
1.8606029e-08
1.8586217e-08
1.8566652e-08
1.8547315e-08
1.8528188e-08
1.8509257e-08
1.8490506e-08
1.8471918e-08
1.8453463e-08
1.8435118e-08
1.8416796e-08
1.839853e-08
1.8379768e-08
1.8361419e-08
1.8339557e-08
1.8320562e-08
1.8291167e-08
1.9999996e-06
2.0000137e-06
2.0000424e-06
2.0000797e-06
2.0001245e-06
2.0001767e-06
2.0002365e-06
2.0003043e-06
2.0003808e-06
2.000467e-06
2.0005641e-06
2.0006739e-06
2.0007985e-06
2.0009408e-06
2.0011053e-06
2.001297e-06
2.001527e-06
2.0018019e-06
2.0021652e-06
2.002593e-06
2.0033361e-06
2.0040608e-06
2.0064952e-06
2.0056345e-06
2.9315401e-08
2.6051822e-08
2.8549979e-08
3.1248505e-08
3.3822998e-08
3.6262467e-08
3.8586098e-08
4.0796722e-08
4.2892787e-08
4.4870659e-08
4.6725075e-08
4.8451111e-08
5.0045608e-08
5.1507593e-08
5.2838246e-08
5.4040698e-08
5.5119781e-08
5.6081656e-08
5.6933429e-08
5.7682799e-08
5.8337766e-08
5.8906358e-08
5.9396437e-08
5.9815554e-08
6.0170846e-08
6.046898e-08
6.0716108e-08
6.0917857e-08
6.1079343e-08
6.1205185e-08
6.1299535e-08
6.1366119e-08
6.1408258e-08
6.1428908e-08
6.1430694e-08
6.1415945e-08
6.1386726e-08
6.1344863e-08
6.1291977e-08
6.1229505e-08
6.115871e-08
6.1080713e-08
6.0996505e-08
6.0906961e-08
6.0812861e-08
6.0714893e-08
6.0613668e-08
6.0509735e-08
6.0403577e-08
6.0295622e-08
6.0186251e-08
6.0075804e-08
5.9964587e-08
5.9852872e-08
5.97409e-08
5.9628889e-08
5.951704e-08
5.9405533e-08
5.9294528e-08
5.9184164e-08
5.9074573e-08
5.8965873e-08
5.8858171e-08
5.8751561e-08
5.864613e-08
5.8541965e-08
5.8439145e-08
5.8337733e-08
5.8237786e-08
5.813936e-08
5.8042501e-08
5.7947248e-08
5.7853637e-08
5.7761703e-08
5.7671474e-08
5.7582965e-08
5.7496182e-08
5.7411126e-08
5.7327793e-08
5.7246167e-08
5.7166224e-08
5.7087922e-08
5.7011211e-08
5.6936028e-08
5.6862301e-08
5.6789932e-08
5.6718821e-08
5.6648749e-08
5.6580048e-08
5.6512271e-08
5.6445738e-08
5.6380703e-08
5.6316979e-08
5.6254427e-08
5.6192901e-08
5.6132285e-08
5.6072493e-08
5.6013453e-08
5.5955107e-08
5.5897398e-08
5.5840282e-08
5.5783712e-08
5.5727633e-08
5.5671961e-08
5.561662e-08
5.5561347e-08
5.5506243e-08
5.5449637e-08
5.5394282e-08
5.5328298e-08
5.5270978e-08
5.5182291e-08
1.9999996e-06
2.0000139e-06
2.0000428e-06
2.0000804e-06
2.0001257e-06
2.0001784e-06
2.0002387e-06
2.0003071e-06
2.0003843e-06
2.0004713e-06
2.0005693e-06
2.00068e-06
2.0008057e-06
2.0009492e-06
2.001115e-06
2.0013083e-06
2.0015401e-06
2.0018171e-06
2.0021831e-06
2.0026139e-06
2.003362e-06
2.0040915e-06
2.0065407e-06
2.0056805e-06
4.9219616e-08
4.379004e-08
4.8006146e-08
5.2566315e-08
5.6920415e-08
6.104866e-08
6.4982516e-08
6.8726069e-08
7.2276142e-08
7.5626136e-08
7.8766792e-08
8.1689512e-08
8.4388778e-08
8.6862858e-08
8.9113724e-08
9.1146714e-08
9.297008e-08
9.4594355e-08
9.6031683e-08
9.7295223e-08
9.8398632e-08
9.9355614e-08
1.0017958e-07
1.0088339e-07
1.014792e-07
1.0197836e-07
1.0239134e-07
1.0272768e-07
1.0299608e-07
1.0320437e-07
1.033596e-07
1.0346808e-07
1.0353542e-07
1.0356663e-07
1.0356615e-07
1.0353791e-07
1.034854e-07
1.0341171e-07
1.0331956e-07
1.0321137e-07
1.0308928e-07
1.0295517e-07
1.0281071e-07
1.0265737e-07
1.0249646e-07
1.0232914e-07
1.0215644e-07
1.0197926e-07
1.0179844e-07
1.0161467e-07
1.0142861e-07
1.0124082e-07
1.0105181e-07
1.0086203e-07
1.006719e-07
1.0048177e-07
1.0029198e-07
1.0010283e-07
9.991459e-08
9.9727491e-08
9.9541751e-08
9.9357568e-08
9.9175119e-08
9.8994562e-08
9.8816041e-08
9.8639702e-08
9.8465673e-08
9.8294061e-08
9.8124961e-08
9.7958463e-08
9.7794646e-08
9.7633571e-08
9.7475299e-08
9.7319887e-08
9.7167381e-08
9.7017801e-08
9.687116e-08
9.6727456e-08
9.6586677e-08
9.6448798e-08
9.6313774e-08
9.6181533e-08
9.6051986e-08
9.5925028e-08
9.5800531e-08
9.5678329e-08
9.5558247e-08
9.5439918e-08
9.5323887e-08
9.5209436e-08
9.5097129e-08
9.4987392e-08
9.4879901e-08
9.4774413e-08
9.4670677e-08
9.4568493e-08
9.4467713e-08
9.4368215e-08
9.4269893e-08
9.4172656e-08
9.4076424e-08
9.3981116e-08
9.3886641e-08
9.3792854e-08
9.3699626e-08
9.3606512e-08
9.3513684e-08
9.3418312e-08
9.3325058e-08
9.3213822e-08
9.311722e-08
9.2967792e-08
1.9999996e-06
2.000014e-06
2.0000434e-06
2.0000817e-06
2.0001276e-06
2.0001811e-06
2.0002424e-06
2.0003119e-06
2.0003903e-06
2.0004786e-06
2.0005781e-06
2.0006905e-06
2.000818e-06
2.0009635e-06
2.0011317e-06
2.0013275e-06
2.0015625e-06
2.001843e-06
2.0022135e-06
2.0026496e-06
2.003406e-06
2.0041437e-06
2.006618e-06
2.0057579e-06
6.9717704e-08
6.2091835e-08
6.8104681e-08
7.4620618e-08
8.0849442e-08
8.6760339e-08
9.2396284e-08
9.776167e-08
1.0285081e-07
1.0765334e-07
1.1215524e-07
1.1634368e-07
1.2021041e-07
1.2375275e-07
1.269735e-07
1.2988038e-07
1.3248537e-07
1.3480376e-07
1.368532e-07
1.386528e-07
1.4022235e-07
1.4158173e-07
1.4275034e-07
1.437468e-07
1.4458867e-07
1.4529231e-07
1.4587282e-07
1.4634395e-07
1.4671821e-07
1.4700685e-07
1.4721999e-07
1.4736666e-07
1.4745494e-07
1.4749197e-07
1.474841e-07
1.4743695e-07
1.4735549e-07
1.4724413e-07
1.4710676e-07
1.4694682e-07
1.4676734e-07
1.46571e-07
1.4636016e-07
1.4613693e-07
1.4590315e-07
1.4566047e-07
1.4541032e-07
1.4515403e-07
1.4489273e-07
1.4462743e-07
1.4435904e-07
1.4408836e-07
1.4381611e-07
1.4354294e-07
1.432694e-07
1.4299601e-07
1.4272325e-07
1.4245153e-07
1.4218123e-07
1.4191268e-07
1.4164618e-07
1.4138201e-07
1.4112042e-07
1.4086162e-07
1.4060582e-07
1.4035323e-07
1.4010401e-07
1.3985833e-07
1.3961631e-07
1.3937807e-07
1.3914373e-07
1.3891336e-07
1.3868706e-07
1.384649e-07
1.3824694e-07
1.380332e-07
1.378237e-07
1.3761844e-07
1.3741739e-07
1.3722051e-07
1.3702773e-07
1.3683895e-07
1.3665403e-07
1.3647282e-07
1.3629512e-07
1.3612071e-07
1.3594932e-07
1.3578041e-07
1.3561476e-07
1.354514e-07
1.3529119e-07
1.3513473e-07
1.3498154e-07
1.3483125e-07
1.3468351e-07
1.3453801e-07
1.3439455e-07
1.3425293e-07
1.3411301e-07
1.3397465e-07
1.3383773e-07
1.3370214e-07
1.3356774e-07
1.3343433e-07
1.3330171e-07
1.3316926e-07
1.3303721e-07
1.3290152e-07
1.3276886e-07
1.3261047e-07
1.3247297e-07
1.3226036e-07
1.9999996e-06
2.0000143e-06
2.0000443e-06
2.0000834e-06
2.0001304e-06
2.0001851e-06
2.0002478e-06
2.0003189e-06
2.000399e-06
2.0004892e-06
2.0005908e-06
2.0007055e-06
2.0008357e-06
2.0009842e-06
2.0011557e-06
2.0013554e-06
2.0015947e-06
2.0018804e-06
2.0022575e-06
2.002701e-06
2.0034694e-06
2.0042189e-06
2.0067292e-06
2.0058691e-06
9.107201e-08
8.1190274e-08
8.9112062e-08
9.7718593e-08
1.0595874e-07
1.1378731e-07
1.212576e-07
1.2837289e-07
1.3512365e-07
1.4149453e-07
1.4746569e-07
1.5301919e-07
1.5814349e-07
1.6283475e-07
1.670966e-07
1.7093941e-07
1.7437933e-07
1.7743703e-07
1.8013631e-07
1.8250294e-07
1.8456361e-07
1.8634503e-07
1.8787328e-07
1.8917334e-07
1.9026875e-07
1.911814e-07
1.9193146e-07
1.9253728e-07
1.9301552e-07
1.9338116e-07
1.9364763e-07
1.9382694e-07
1.9392976e-07
1.9396555e-07
1.9394272e-07
1.9386868e-07
1.9374999e-07
1.9359244e-07
1.9340115e-07
1.9318064e-07
1.9293491e-07
1.9266745e-07
1.9238137e-07
1.9207941e-07
1.9176398e-07
1.9143723e-07
1.9110105e-07
1.9075714e-07
1.9040698e-07
1.9005191e-07
1.8969308e-07
1.8933154e-07
1.8896823e-07
1.8860396e-07
1.8823949e-07
1.8787546e-07
1.875125e-07
1.8715114e-07
1.8679186e-07
1.864351e-07
1.8608124e-07
1.8573063e-07
1.8538359e-07
1.8504042e-07
1.8470136e-07
1.8436667e-07
1.8403659e-07
1.837113e-07
1.8339097e-07
1.8307576e-07
1.8276581e-07
1.8246121e-07
1.8216207e-07
1.8186849e-07
1.8158054e-07
1.8129826e-07
1.8102163e-07
1.8075067e-07
1.8048532e-07
1.8022553e-07
1.7997119e-07
1.7972217e-07
1.7947826e-07
1.7923927e-07
1.7900493e-07
1.7877492e-07
1.7854888e-07
1.7832611e-07
1.7810757e-07
1.7789211e-07
1.7768096e-07
1.7747489e-07
1.7727324e-07
1.7707551e-07
1.768812e-07
1.7668991e-07
1.7650134e-07
1.7631524e-07
1.761314e-07
1.7594964e-07
1.7576981e-07
1.7559173e-07
1.7541523e-07
1.7524004e-07
1.750659e-07
1.7489197e-07
1.7471858e-07
1.7454035e-07
1.7436614e-07
1.7415788e-07
1.7397718e-07
1.7369791e-07
1.9999996e-06
2.0000147e-06
2.0000455e-06
2.0000858e-06
2.0001341e-06
2.0001905e-06
2.000255e-06
2.0003281e-06
2.0004106e-06
2.0005034e-06
2.0006078e-06
2.0007257e-06
2.0008594e-06
2.0010119e-06
2.0011878e-06
2.0013925e-06
2.0016378e-06
2.0019304e-06
2.0023161e-06
2.0027696e-06
2.0035541e-06
2.0043192e-06
2.0068775e-06
2.006017e-06
1.1355063e-07
1.0132558e-07
1.1130409e-07
1.2217991e-07
1.3261295e-07
1.4253905e-07
1.5202006e-07
1.6105615e-07
1.6963213e-07
1.7772593e-07
1.8531042e-07
1.9236137e-07
1.9886319e-07
2.0481053e-07
2.1020792e-07
2.1506875e-07
2.1941399e-07
2.2327044e-07
2.2666902e-07
2.2964311e-07
2.3222726e-07
2.3445601e-07
2.3636302e-07
2.3798046e-07
2.393386e-07
2.4046555e-07
2.4138714e-07
2.4212688e-07
2.4270601e-07
2.4314363e-07
2.4345684e-07
2.4366089e-07
2.4376932e-07
2.4379412e-07
2.4374591e-07
2.4363404e-07
2.434668e-07
2.4325145e-07
2.4299446e-07
2.4270148e-07
2.4237752e-07
2.4202697e-07
2.4165369e-07
2.4126112e-07
2.4085226e-07
2.4042979e-07
2.3999605e-07
2.3955316e-07
2.3910297e-07
2.386471e-07
2.3818701e-07
2.3772399e-07
2.3725918e-07
2.367936e-07
2.3632818e-07
2.358637e-07
2.3540094e-07
2.3494055e-07
2.3448313e-07
2.3402918e-07
2.335792e-07
2.3313362e-07
2.3269281e-07
2.3225714e-07
2.318269e-07
2.3140241e-07
2.3098396e-07
2.3057176e-07
2.3016603e-07
2.2976695e-07
2.2937467e-07
2.2898932e-07
2.2861102e-07
2.2823989e-07
2.27876e-07
2.2751938e-07
2.2717003e-07
2.2682791e-07
2.2649298e-07
2.2616514e-07
2.2584425e-07
2.2553012e-07
2.2522249e-07
2.2492109e-07
2.2462558e-07
2.2433552e-07
2.2405044e-07
2.2376946e-07
2.2349373e-07
2.2322198e-07
2.229559e-07
2.2269643e-07
2.2244269e-07
2.2219404e-07
2.2194979e-07
2.2170943e-07
2.2147257e-07
2.2123888e-07
2.2100809e-07
2.2077994e-07
2.2055425e-07
2.2033079e-07
2.2010934e-07
2.1988954e-07
2.1967107e-07
2.1945286e-07
2.1923533e-07
2.1901164e-07
2.1879306e-07
2.1853135e-07
2.1830443e-07
2.1795392e-07
1.9999996e-06
2.0000152e-06
2.000047e-06
2.0000887e-06
2.0001389e-06
2.0001973e-06
2.0002642e-06
2.00034e-06
2.0004254e-06
2.0005215e-06
2.0006296e-06
2.0007515e-06
2.0008897e-06
2.0010473e-06
2.0012289e-06
2.0014401e-06
2.0016929e-06
2.0019942e-06
2.002391e-06
2.0028572e-06
2.0036622e-06
2.0044472e-06
2.0070663e-06
2.0062057e-06
1.3742925e-07
1.2274729e-07
1.3496871e-07
1.4834045e-07
1.6119749e-07
1.7345054e-07
1.8516759e-07
1.9634299e-07
2.0695338e-07
2.1696776e-07
2.2634965e-07
2.35067e-07
2.430992e-07
2.5043896e-07
2.5709175e-07
2.630745e-07
2.6841379e-07
2.731437e-07
2.773034e-07
2.8093521e-07
2.8408284e-07
2.8678987e-07
2.8909873e-07
2.9104988e-07
2.9268128e-07
2.9402816e-07
2.9512278e-07
2.9599445e-07
2.9666962e-07
2.9717201e-07
2.975228e-07
2.9774085e-07
2.978429e-07
2.978437e-07
2.9775632e-07
2.9759224e-07
2.9736161e-07
2.9707333e-07
2.9673528e-07
2.9635436e-07
2.9593667e-07
2.9548754e-07
2.9501166e-07
2.9451318e-07
2.9399575e-07
2.9346258e-07
2.9291652e-07
2.923601e-07
2.9179555e-07
2.9122482e-07
2.9064965e-07
2.9007158e-07
2.8949198e-07
2.8891208e-07
2.8833295e-07
2.8775557e-07
2.8718081e-07
2.8660948e-07
2.8604226e-07
2.8547978e-07
2.849226e-07
2.8437123e-07
2.8382612e-07
2.8328767e-07
2.8275625e-07
2.8223223e-07
2.8171594e-07
2.8120764e-07
2.8070755e-07
2.802159e-07
2.7973287e-07
2.7925858e-07
2.7879317e-07
2.7833677e-07
2.7788946e-07
2.7745125e-07
2.7702212e-07
2.7660203e-07
2.7619088e-07
2.7578856e-07
2.7539487e-07
2.7500954e-07
2.7463224e-07
2.7426262e-07
2.7390025e-07
2.7354456e-07
2.7319495e-07
2.7285031e-07
2.7251197e-07
2.7217865e-07
2.7185261e-07
2.7153496e-07
2.7122459e-07
2.7092062e-07
2.706222e-07
2.7032867e-07
2.7003952e-07
2.6975434e-07
2.6947277e-07
2.6919448e-07
2.6891924e-07
2.6864676e-07
2.6837677e-07
2.6810881e-07
2.6784248e-07
2.6757646e-07
2.6731127e-07
2.6703847e-07
2.6677197e-07
2.664523e-07
2.6617534e-07
2.6574784e-07
1.9999996e-06
2.0000157e-06
2.000049e-06
2.0000925e-06
2.0001448e-06
2.0002058e-06
2.0002756e-06
2.0003547e-06
2.0004438e-06
2.000544e-06
2.0006567e-06
2.0007837e-06
2.0009275e-06
2.0010913e-06
2.00128e-06
2.0014993e-06
2.0017614e-06
2.0020736e-06
2.0024842e-06
2.0029661e-06
2.0037964e-06
2.004606e-06
2.0073003e-06
2.0064399e-06
1.6299299e-07
1.4571656e-07
1.6040894e-07
1.7655617e-07
1.9212341e-07
2.0698826e-07
2.2122156e-07
2.3480824e-07
2.4771352e-07
2.5989448e-07
2.7130274e-07
2.8189638e-07
2.9164851e-07
3.0054934e-07
3.0860543e-07
3.1583787e-07
3.2227997e-07
3.2797442e-07
3.3297026e-07
3.3732036e-07
3.4107922e-07
3.4430111e-07
3.4703868e-07
3.4934204e-07
3.5125814e-07
3.5283037e-07
3.5409841e-07
3.5509823e-07
3.5586219e-07
3.5641925e-07
3.5679522e-07
3.5701303e-07
3.5709295e-07
3.5705287e-07
3.5690853e-07
3.5667379e-07
3.5636084e-07
3.5598037e-07
3.5554181e-07
3.5505342e-07
3.5452245e-07
3.5395526e-07
3.5335743e-07
3.5273387e-07
3.5208892e-07
3.5142636e-07
3.5074954e-07
3.5006146e-07
3.4936474e-07
3.4866165e-07
3.4795425e-07
3.4724432e-07
3.4653348e-07
3.4582314e-07
3.4511455e-07
3.4440884e-07
3.4370704e-07
3.4301007e-07
3.4231873e-07
3.4163372e-07
3.409557e-07
3.4028524e-07
3.3962288e-07
3.3896906e-07
3.383242e-07
3.3768872e-07
3.37063e-07
3.3644732e-07
3.3584194e-07
3.3524711e-07
3.34663e-07
3.3408977e-07
3.3352755e-07
3.3297649e-07
3.3243664e-07
3.31908e-07
3.3139054e-07
3.3088415e-07
3.3038873e-07
3.299041e-07
3.2942999e-07
3.2896605e-07
3.2851186e-07
3.2806696e-07
3.2763081e-07
3.2720269e-07
3.2678184e-07
3.2636691e-07
3.2595936e-07
3.2555802e-07
3.2516587e-07
3.2478423e-07
3.2441164e-07
3.2404701e-07
3.2368925e-07
3.2333753e-07
3.2299122e-07
3.2264978e-07
3.2231275e-07
3.2197974e-07
3.2165044e-07
3.2132451e-07
3.210016e-07
3.2068113e-07
3.2036265e-07
3.2004451e-07
3.1972738e-07
3.1940098e-07
3.1908223e-07
3.1869909e-07
3.1836743e-07
3.1785591e-07
1.9999996e-06
2.0000165e-06
2.0000513e-06
2.000097e-06
2.000152e-06
2.0002162e-06
2.0002896e-06
2.0003727e-06
2.0004664e-06
2.0005716e-06
2.0006898e-06
2.000823e-06
2.0009736e-06
2.0011451e-06
2.0013424e-06
2.0015715e-06
2.001845e-06
2.0021705e-06
2.0025978e-06
2.0030989e-06
2.0039598e-06
2.0047993e-06
2.0075843e-06
2.0067252e-06
1.9053805e-07
1.7050858e-07
1.8794592e-07
2.0720709e-07
2.2583245e-07
2.4365634e-07
2.6074807e-07
2.770785e-07
2.9259716e-07
3.0724544e-07
3.2095968e-07
3.336856e-07
3.4538836e-07
3.5605504e-07
3.6569344e-07
3.7432967e-07
3.8200517e-07
3.8877297e-07
3.9469398e-07
3.9983372e-07
4.0425954e-07
4.0803837e-07
4.1123497e-07
4.1391081e-07
4.1612332e-07
4.1792546e-07
4.1936551e-07
4.204871e-07
4.2132941e-07
4.219274e-07
4.2231214e-07
4.2251115e-07
4.2254872e-07
4.2244622e-07
4.2222243e-07
4.2189381e-07
4.2147483e-07
4.2097813e-07
4.2041486e-07
4.1979475e-07
4.1912633e-07
4.1841704e-07
4.1767344e-07
4.1690125e-07
4.1610552e-07
4.1529066e-07
4.1446055e-07
4.1361867e-07
4.1276803e-07
4.1191129e-07
4.1105077e-07
4.1018855e-07
4.0932647e-07
4.0846614e-07
4.07609e-07
4.0675631e-07
4.0590926e-07
4.0506889e-07
4.042361e-07
4.0341169e-07
4.0259639e-07
4.0179085e-07
4.0099565e-07
4.0021131e-07
3.9943827e-07
3.9867701e-07
3.9792795e-07
3.971914e-07
3.9646762e-07
3.9575688e-07
3.9505938e-07
3.9437526e-07
3.9370465e-07
3.930477e-07
3.9240444e-07
3.9177485e-07
3.9115884e-07
3.9055627e-07
3.8996698e-07
3.8939072e-07
3.8882713e-07
3.8827576e-07
3.8773608e-07
3.8720751e-07
3.8668934e-07
3.861807e-07
3.856806e-07
3.8518744e-07
3.8470278e-07
3.8422569e-07
3.837601e-07
3.8330747e-07
3.8286601e-07
3.8243431e-07
3.8201102e-07
3.815951e-07
3.8118577e-07
3.8078236e-07
3.8038429e-07
3.7999108e-07
3.7960233e-07
3.7921764e-07
3.7883655e-07
3.7845839e-07
3.7808259e-07
3.7770718e-07
3.7733297e-07
3.7694761e-07
3.7657143e-07
3.7611818e-07
3.7572623e-07
3.7512226e-07
1.9999996e-06
2.0000173e-06
2.0000541e-06
2.0001025e-06
2.0001607e-06
2.0002287e-06
2.0003064e-06
2.0003945e-06
2.0004935e-06
2.0006048e-06
2.0007297e-06
2.0008703e-06
2.0010292e-06
2.0012099e-06
2.0014176e-06
2.0016585e-06
2.0019457e-06
2.002287e-06
2.0027344e-06
2.0032584e-06
2.004156e-06
2.0050312e-06
2.0079244e-06
2.007068e-06
2.2037315e-07
1.9741509e-07
2.1792211e-07
2.4070139e-07
2.6280217e-07
2.8400289e-07
3.0436551e-07
3.2384085e-07
3.4235733e-07
3.5983579e-07
3.7619307e-07
3.9135931e-07
4.0528977e-07
4.1796755e-07
4.2940192e-07
4.3962513e-07
4.4868849e-07
4.5665765e-07
4.6360785e-07
4.6961983e-07
4.7477641e-07
4.7915962e-07
4.8284865e-07
4.8591841e-07
4.8843869e-07
4.9047365e-07
4.9208163e-07
4.9331516e-07
4.942213e-07
4.9484189e-07
4.9521403e-07
4.9537049e-07
4.9534012e-07
4.9514819e-07
4.9481688e-07
4.9436559e-07
4.938113e-07
4.9316883e-07
4.924512e-07
4.9166975e-07
4.9083441e-07
4.8995381e-07
4.8903552e-07
4.8808617e-07
4.8711155e-07
4.8611674e-07
4.8510618e-07
4.8408385e-07
4.8305319e-07
4.820172e-07
4.8097855e-07
4.7993956e-07
4.7890232e-07
4.7786865e-07
4.7684015e-07
4.7581825e-07
4.7480426e-07
4.7379935e-07
4.7280453e-07
4.7182067e-07
4.7084857e-07
4.6988896e-07
4.6894248e-07
4.6800967e-07
4.6709103e-07
4.6618707e-07
4.6529826e-07
4.6442489e-07
4.6356727e-07
4.6272566e-07
4.6190026e-07
4.6109119e-07
4.6029859e-07
4.5952257e-07
4.5876315e-07
4.5802025e-07
4.5729374e-07
4.5658339e-07
4.5588899e-07
4.5521018e-07
4.5454652e-07
4.5389741e-07
4.5326216e-07
4.5264005e-07
4.5203022e-07
4.5143153e-07
4.508428e-07
4.5026206e-07
4.4969099e-07
4.4912906e-07
4.4858134e-07
4.480495e-07
4.4753129e-07
4.4702495e-07
4.4652882e-07
4.4604162e-07
4.4556237e-07
4.4509025e-07
4.4462455e-07
4.4416465e-07
4.4371007e-07
4.4326034e-07
4.4281489e-07
4.4237291e-07
4.419337e-07
4.4149492e-07
4.4105756e-07
4.406069e-07
4.4016715e-07
4.3963596e-07
4.3917709e-07
4.384707e-07
1.9999995e-06
2.0000183e-06
2.0000574e-06
2.000109e-06
2.0001711e-06
2.0002436e-06
2.0003265e-06
2.0004204e-06
2.000526e-06
2.0006444e-06
2.0007774e-06
2.0009268e-06
2.0010955e-06
2.0012872e-06
2.0015073e-06
2.0017621e-06
2.0020656e-06
2.0024257e-06
2.0028969e-06
2.0034481e-06
2.0043889e-06
2.0053064e-06
2.0083267e-06
2.0074756e-06
2.528204e-07
2.2674684e-07
2.5070441e-07
2.7747952e-07
3.0355123e-07
3.2862642e-07
3.5275222e-07
3.7585177e-07
3.9782557e-07
4.1856772e-07
4.3797031e-07
4.5594391e-07
4.7243141e-07
4.8741095e-07
5.008936e-07
5.1291917e-07
5.2355109e-07
5.328704e-07
5.4096976e-07
5.4794838e-07
5.5390768e-07
5.5894785e-07
5.6316529e-07
5.666509e-07
5.6948911e-07
5.7175725e-07
5.7352543e-07
5.7485659e-07
5.758069e-07
5.7642618e-07
5.7675842e-07
5.768424e-07
5.7671212e-07
5.7639731e-07
5.7592396e-07
5.7531476e-07
5.7458948e-07
5.7376536e-07
5.7285747e-07
5.7187895e-07
5.7084121e-07
5.6975419e-07
5.6862657e-07
5.6746591e-07
5.6627883e-07
5.650711e-07
5.6384777e-07
5.626133e-07
5.613716e-07
5.6012605e-07
5.5887961e-07
5.5763491e-07
5.5639425e-07
5.5515967e-07
5.5393293e-07
5.5271562e-07
5.5150917e-07
5.5031488e-07
5.4913384e-07
5.47967e-07
5.4681524e-07
5.4567933e-07
5.4455997e-07
5.4345773e-07
5.4237313e-07
5.4130673e-07
5.4025901e-07
5.3923029e-07
5.3822085e-07
5.3723096e-07
5.362608e-07
5.3531047e-07
5.3438009e-07
5.3346974e-07
5.3257938e-07
5.3170887e-07
5.30858e-07
5.3002648e-07
5.2921396e-07
5.2842e-07
5.2764401e-07
5.268852e-07
5.2614274e-07
5.254157e-07
5.2470301e-07
5.2400326e-07
5.2331498e-07
5.2263582e-07
5.219675e-07
5.2131011e-07
5.2067015e-07
5.2004949e-07
5.1944534e-07
5.1885553e-07
5.1827802e-07
5.1771124e-07
5.1715401e-07
5.1660531e-07
5.1606424e-07
5.1553008e-07
5.1500224e-07
5.1448013e-07
5.1396308e-07
5.1345008e-07
5.1294034e-07
5.1243109e-07
5.1192347e-07
5.1140008e-07
5.1088959e-07
5.1027124e-07
5.097377e-07
5.0891721e-07
1.9999995e-06
2.0000195e-06
2.0000614e-06
2.0001167e-06
2.0001834e-06
2.0002612e-06
2.0003503e-06
2.0004511e-06
2.0005643e-06
2.0006913e-06
2.0008337e-06
2.0009936e-06
2.0011739e-06
2.0013785e-06
2.0016132e-06
2.0018845e-06
2.0022072e-06
2.0025895e-06
2.0030885e-06
2.0036716e-06
2.0046631e-06
2.00563e-06
2.0087983e-06
2.0079559e-06
2.8821554e-07
2.5883602e-07
2.8668729e-07
3.1801827e-07
3.4864457e-07
3.7818233e-07
4.0665425e-07
4.3394628e-07
4.5992231e-07
4.8444205e-07
5.0736628e-07
5.2858107e-07
5.4801392e-07
5.6563684e-07
5.8146322e-07
5.9554221e-07
6.0795214e-07
6.1879291e-07
6.2817846e-07
6.3623037e-07
6.4307259e-07
6.4882713e-07
6.5361098e-07
6.5753412e-07
6.6069828e-07
6.6319639e-07
6.6511234e-07
6.6652123e-07
6.6748982e-07
6.6807712e-07
6.683351e-07
6.6830937e-07
6.6803983e-07
6.6756124e-07
6.6690388e-07
6.6609411e-07
6.6515484e-07
6.6410598e-07
6.6296486e-07
6.6174658e-07
6.6046419e-07
6.5912904e-07
6.5775099e-07
6.5633861e-07
6.5489941e-07
6.5343986e-07
6.5196564e-07
6.5048176e-07
6.4899258e-07
6.4750187e-07
6.4601291e-07
6.445286e-07
6.4305148e-07
6.4158378e-07
6.4012744e-07
6.3868416e-07
6.3725553e-07
6.3584294e-07
6.3444758e-07
6.3307044e-07
6.3171248e-07
6.3037451e-07
6.2905726e-07
6.2776133e-07
6.2648724e-07
6.2523561e-07
6.240069e-07
6.2280143e-07
6.2161947e-07
6.2046127e-07
6.1932698e-07
6.1821665e-07
6.1713037e-07
6.1606817e-07
6.1502994e-07
6.1401545e-07
6.1302438e-07
6.1205632e-07
6.1111082e-07
6.1018729e-07
6.0928494e-07
6.0840279e-07
6.0753976e-07
6.0669473e-07
6.0586636e-07
6.0505291e-07
6.0425252e-07
6.0346245e-07
6.0268438e-07
6.0191927e-07
6.0117536e-07
6.0045476e-07
5.9975403e-07
5.9907051e-07
5.9840172e-07
5.9774576e-07
5.9710118e-07
5.9646676e-07
5.9584138e-07
5.9522416e-07
5.9461442e-07
5.9401141e-07
5.9341434e-07
5.9282202e-07
5.9223348e-07
5.9164546e-07
5.9105935e-07
5.9045459e-07
5.8986501e-07
5.891488e-07
5.8853156e-07
5.8758341e-07
1.9999995e-06
2.0000209e-06
2.000066e-06
2.0001257e-06
2.0001978e-06
2.0002819e-06
2.0003782e-06
2.0004871e-06
2.0006094e-06
2.0007464e-06
2.0008999e-06
2.001072e-06
2.001266e-06
2.0014858e-06
2.0017374e-06
2.0020281e-06
2.0023731e-06
2.0027813e-06
2.0033129e-06
2.003933e-06
2.0049834e-06
2.0060076e-06
2.0093467e-06
2.008518e-06
3.2690723e-07
2.9403845e-07
3.2629576e-07
3.6283476e-07
3.9869859e-07
4.3338931e-07
4.6689316e-07
4.9904697e-07
5.2966728e-07
5.5856986e-07
5.8557607e-07
6.1054144e-07
6.3337444e-07
6.5403962e-07
6.7255329e-07
6.8897625e-07
7.0340522e-07
7.1596324e-07
7.2679021e-07
7.3603492e-07
7.4384854e-07
7.5037934e-07
7.5576901e-07
7.6015021e-07
7.6364526e-07
7.6636544e-07
7.6841085e-07
7.6987077e-07
7.7082429e-07
7.7134104e-07
7.7148215e-07
7.7130107e-07
7.7084439e-07
7.7015257e-07
7.6926073e-07
7.6819935e-07
7.6699482e-07
7.6566999e-07
7.6424473e-07
7.6273623e-07
7.6115936e-07
7.5952698e-07
7.5785021e-07
7.5613874e-07
7.5440094e-07
7.526441e-07
7.5087452e-07
7.4909778e-07
7.4731871e-07
7.4554144e-07
7.437696e-07
7.4200635e-07
7.4025446e-07
7.3851636e-07
7.3679412e-07
7.350896e-07
7.3340448e-07
7.3174026e-07
7.3009818e-07
7.2847931e-07
7.2688464e-07
7.2531501e-07
7.2377118e-07
7.2225374e-07
7.2076322e-07
7.1930026e-07
7.1786531e-07
7.1645867e-07
7.1508057e-07
7.1373123e-07
7.1241073e-07
7.1111908e-07
7.0985629e-07
7.0862234e-07
7.07417e-07
7.0623994e-07
7.0509069e-07
7.039687e-07
7.0287336e-07
7.018039e-07
7.0075928e-07
6.9973828e-07
6.9873956e-07
6.977617e-07
6.9680306e-07
6.9586149e-07
6.949347e-07
6.9401944e-07
6.931173e-07
6.922304e-07
6.9136911e-07
6.9053578e-07
6.8972623e-07
6.8893722e-07
6.8816574e-07
6.8740951e-07
6.8666681e-07
6.8593612e-07
6.852161e-07
6.8450569e-07
6.8380405e-07
6.8311033e-07
6.8242354e-07
6.8174226e-07
6.8106537e-07
6.8038903e-07
6.797149e-07
6.7901881e-07
6.7834051e-07
6.7751404e-07
6.7680265e-07
6.7571115e-07
1.9999995e-06
2.0000225e-06
2.0000713e-06
2.0001362e-06
2.0002146e-06
2.0003061e-06
2.0004108e-06
2.0005292e-06
2.000662e-06
2.0008107e-06
2.0009771e-06
2.0011636e-06
2.0013734e-06
2.0016108e-06
2.0018823e-06
2.0021954e-06
2.0025665e-06
2.0030046e-06
2.0035738e-06
2.0042369e-06
2.0053549e-06
2.0064452e-06
2.0099797e-06
2.0091716e-06
3.6925509e-07
3.3273545e-07
3.6998798e-07
4.1249009e-07
4.5438589e-07
4.9503547e-07
5.3437347e-07
5.7217294e-07
6.0818978e-07
6.4218403e-07
6.739277e-07
7.0323844e-07
7.300013e-07
7.5417177e-07
7.7577001e-07
7.9487128e-07
8.1159505e-07
8.2609272e-07
8.3853588e-07
8.4910637e-07
8.5798825e-07
8.6536141e-07
8.7139704e-07
8.7625489e-07
8.8008162e-07
8.8301017e-07
8.8515966e-07
8.8663591e-07
8.8753231e-07
8.879308e-07
8.8790298e-07
8.875113e-07
8.8680994e-07
8.8584581e-07
8.8465947e-07
8.8328601e-07
8.8175568e-07
8.8009461e-07
8.7832541e-07
8.7646762e-07
8.7453804e-07
8.7255115e-07
8.7051946e-07
8.684538e-07
8.6636352e-07
8.6425667e-07
8.6214026e-07
8.6002042e-07
8.5790246e-07
8.5579091e-07
8.536897e-07
8.5160226e-07
8.4953157e-07
8.4748024e-07
8.4545049e-07
8.4344427e-07
8.4146337e-07
8.3950937e-07
8.3758358e-07
8.3568709e-07
8.338209e-07
8.3198589e-07
8.301828e-07
8.2841222e-07
8.2667466e-07
8.2497075e-07
8.2330093e-07
8.2166543e-07
8.2006445e-07
8.1849813e-07
8.1696649e-07
8.1546943e-07
8.1400689e-07
8.1257875e-07
8.1118464e-07
8.0982407e-07
8.0849641e-07
8.0720091e-07
8.0593676e-07
8.0470295e-07
8.0349818e-07
8.0232088e-07
8.0116939e-07
8.0004198e-07
7.989366e-07
7.9785061e-07
7.9678121e-07
7.9572455e-07
7.9468204e-07
7.9365732e-07
7.9266331e-07
7.9170262e-07
7.9077025e-07
7.8986223e-07
7.8897498e-07
7.8810579e-07
7.8725258e-07
7.8641352e-07
7.8558699e-07
7.8477172e-07
7.8396674e-07
7.8317101e-07
7.8238334e-07
7.8160205e-07
7.8082584e-07
7.8005018e-07
7.7927707e-07
7.7847817e-07
7.7770006e-07
7.7674907e-07
7.759315e-07
7.7467859e-07
1.9999995e-06
2.0000243e-06
2.0000775e-06
2.0001484e-06
2.0002341e-06
2.0003342e-06
2.0004487e-06
2.000578e-06
2.0007231e-06
2.0008854e-06
2.0010668e-06
2.0012699e-06
2.0014981e-06
2.001756e-06
2.0020504e-06
2.0023894e-06
2.0027904e-06
2.0032631e-06
2.0038755e-06
2.0045879e-06
2.0057834e-06
2.0069493e-06
2.0107055e-06
2.0099273e-06
4.156261e-07
3.7533501e-07
4.1825742e-07
4.6759242e-07
5.1643963e-07
5.6398387e-07
6.1008963e-07
6.5444815e-07
6.967384e-07
7.3665031e-07
7.7389441e-07
8.0824161e-07
8.3954826e-07
8.6775902e-07
8.9289901e-07
9.1506159e-07
9.3439419e-07
9.5108302e-07
9.6533826e-07
9.7738184e-07
9.8743751e-07
9.9572309e-07
1.0024451e-06
1.0077954e-06
1.0119495e-06
1.0150658e-06
1.0172858e-06
1.0187344e-06
1.0195218e-06
1.0197439e-06
1.0194845e-06
1.0188162e-06
1.0178019e-06
1.0164956e-06
1.0149442e-06
1.0131877e-06
1.0112609e-06
1.0091933e-06
1.0070106e-06
1.004735e-06
1.0023852e-06
9.9997762e-07
9.9752613e-07
9.9504279e-07
9.9253795e-07
9.9002051e-07
9.8749816e-07
9.8497761e-07
9.8246466e-07
9.799642e-07
9.7748046e-07
9.7501715e-07
9.7257742e-07
9.7016405e-07
9.6777939e-07
9.6542545e-07
9.6310412e-07
9.6081705e-07
9.5856555e-07
9.5635075e-07
9.5417364e-07
9.5203508e-07
9.4993581e-07
9.4787637e-07
9.4585722e-07
9.4387898e-07
9.4194204e-07
9.4004655e-07
9.3819262e-07
9.3638033e-07
9.3460956e-07
9.3288009e-07
9.3119176e-07
9.2954431e-07
9.2793718e-07
9.263697e-07
9.24841e-07
9.2335009e-07
9.2189594e-07
9.2047723e-07
9.1909228e-07
9.1773916e-07
9.164158e-07
9.1512007e-07
9.1384944e-07
9.1260071e-07
9.1137042e-07
9.1015406e-07
9.0895274e-07
9.07772e-07
9.0662783e-07
9.0552315e-07
9.0445197e-07
9.0340955e-07
9.0239159e-07
9.0139491e-07
9.0041703e-07
8.9945575e-07
8.9850913e-07
8.9757567e-07
8.9665422e-07
8.9574354e-07
8.9484221e-07
8.9394824e-07
8.9306011e-07
8.9217254e-07
8.9128791e-07
8.9037304e-07
8.8948238e-07
8.883905e-07
8.8745296e-07
8.8601792e-07
1.9999995e-06
2.0000264e-06
2.0000847e-06
2.0001624e-06
2.0002565e-06
2.0003665e-06
2.0004924e-06
2.0006345e-06
2.0007938e-06
2.0009717e-06
2.0011705e-06
2.0013927e-06
2.0016421e-06
2.0019235e-06
2.0022443e-06
2.0026131e-06
2.0030485e-06
2.0035607e-06
2.0042226e-06
2.0049913e-06
2.0062747e-06
2.0075265e-06
2.0115325e-06
2.0107965e-06
4.6638884e-07
4.2227219e-07
4.7163412e-07
5.2879926e-07
5.8565687e-07
6.4117722e-07
6.9513198e-07
7.4710876e-07
7.966898e-07
8.4347739e-07
8.8710598e-07
9.272891e-07
9.6384811e-07
9.9671474e-07
1.0259207e-06
1.0515816e-06
1.0738796e-06
1.0930431e-06
1.1093295e-06
1.123009e-06
1.1343532e-06
1.1436253e-06
1.1510739e-06
1.1569292e-06
1.1614005e-06
1.1646762e-06
1.1669238e-06
1.1682907e-06
1.1689061e-06
1.1688824e-06