/*--------------------------------*- C++ -*----------------------------------*\
| =========                 |                                                 |
| \\      /  F ield         | OpenFOAM: The Open Source CFD Toolbox           |
|  \\    /   O peration     | Version:  2206                                  |
|   \\  /    A nd           | Website:  www.openfoam.com                      |
|    \\/     M anipulation  |                                                 |
\*---------------------------------------------------------------------------*/
FoamFile
{
    version     2.0;
    format      ascii;
    arch        "LSB;label=32;scalar=64";
    class       volScalarField;
    location    "200";
    object      p;
}
// * * * * * * * * * * * * * * * * * * * * * * * * * * * * * * * * * * * * * //

dimensions      [0 2 -2 0 0 0 0];

internalField   nonuniform List<scalar> 
13056
(
0.011516046
0.011616625
0.011830437
0.012103951
0.012435348
0.012824939
0.013271058
0.013773036
0.014332251
0.014951948
0.015637136
0.01639492
0.017235104
0.018171489
0.01922295
0.020418198
0.021794572
0.023424823
0.025376681
0.02791913
0.03103624
0.036332836
0.041627323
0.08122733
0.051080285
0.0014090955
0.00017715882
0.0011375445
0.0017175786
0.0021901528
0.0024705695
0.0026679334
0.0028191034
0.0029256071
0.0029998188
0.0030527251
0.0030903014
0.0031165776
0.0031343468
0.0031458045
0.0031526964
0.003156265
0.0031574381
0.0031570017
0.0031555451
0.0031534775
0.0031511288
0.0031487413
0.0031465239
0.0031446163
0.0031430705
0.0031419441
0.003141275
0.0031410674
0.0031413368
0.0031420721
0.0031432312
0.0031447838
0.0031467035
0.0031489578
0.0031515135
0.003154338
0.0031574111
0.0031606918
0.0031641259
0.0031676846
0.0031713383
0.0031750539
0.0031788009
0.0031825497
0.0031862775
0.0031899563
0.0031935395
0.0031969846
0.0032002601
0.0032033305
0.003206157
0.0032087053
0.0032109281
0.0032127952
0.0032142712
0.0032152654
0.0032157061
0.0032155436
0.0032147099
0.0032131319
0.0032107288
0.0032074376
0.0032031886
0.0031978079
0.0031911544
0.0031831434
0.003173653
0.0031625308
0.0031496865
0.0031349743
0.003118083
0.003098806
0.0030770201
0.0030524854
0.0030250871
0.0029945793
0.0029604421
0.0029224312
0.0028802835
0.0028338626
0.0027828171
0.0027264754
0.0026644767
0.0025966718
0.0025226912
0.002441671
0.0023531854
0.002258654
0.0021608608
0.0020615936
0.0019614327
0.0018609872
0.001760373
0.001659266
0.0015579082
0.0014569292
0.0013566254
0.0012567203
0.001157378
0.0010590582
0.0009624908
0.00086812949
0.00077640734
0.00068766465
0.00060574099
0.00052666741
0.00047623634
0.00040125988
0.0005589145
-0.00038574939
0.011516046
0.011616625
0.011830437
0.012103951
0.012435349
0.012824939
0.013271059
0.013773037
0.014332251
0.014951948
0.015637137
0.016394921
0.017235106
0.018171491
0.019222953
0.020418201
0.021794577
0.02342483
0.02537669
0.027919147
0.031036262
0.036332885
0.041627381
0.081222443
0.051091838
0.0014164861
0.000178991
0.0011383652
0.0017180733
0.0021904985
0.0024708291
0.0026681387
0.0028192708
0.0029257467
0.0029999373
0.0030528272
0.0030903904
0.003116656
0.0031344163
0.0031458666
0.0031527522
0.0031563154
0.0031574837
0.0031570433
0.0031555832
0.0031535123
0.0031511608
0.0031487708
0.0031465512
0.0031446415
0.0031430939
0.0031419659
0.0031412955
0.0031410872
0.0031413544
0.0031420886
0.0031432466
0.0031447983
0.003146717
0.0031489705
0.0031515254
0.0031543493
0.0031574216
0.0031607018
0.0031641353
0.0031676935
0.0031713466
0.0031750618
0.0031788083
0.0031825567
0.0031862841
0.0031899626
0.0031935453
0.0031969901
0.0032002653
0.0032033354
0.0032061617
0.0032087097
0.0032109323
0.0032127991
0.0032142749
0.0032152689
0.0032157094
0.0032155467
0.0032147129
0.0032131347
0.0032107314
0.00320744
0.0032031909
0.0031978101
0.0031911564
0.0031831453
0.0031736548
0.0031625325
0.003149688
0.0031349757
0.0031180843
0.0030988072
0.0030770213
0.0030524865
0.0030250881
0.0029945803
0.0029604429
0.0029224321
0.0028802843
0.0028338633
0.0027828178
0.002726476
0.0026644773
0.0025966723
0.0025226917
0.0024416714
0.0023531858
0.0022586544
0.0021608611
0.0020615939
0.001961433
0.0018609875
0.0017603733
0.0016592662
0.0015579085
0.0014569294
0.0013566256
0.0012567205
0.0011573783
0.0010590584
0.000962491
0.00086812968
0.00077640753
0.00068766485
0.00060574119
0.0005266676
0.00047623656
0.00040126012
0.00055891475
-0.00038574923
0.011516046
0.011616625
0.011830438
0.012103951
0.012435349
0.012824939
0.013271059
0.013773037
0.014332252
0.014951949
0.015637138
0.016394922
0.017235107
0.018171493
0.019222956
0.020418205
0.021794582
0.023424838
0.025376701
0.027919166
0.031036288
0.03633294
0.041627432
0.081217488
0.051107708
0.0014236947
0.00018115847
0.0011393436
0.0017186625
0.0021909101
0.0024711381
0.002668383
0.00281947
0.0029259126
0.0030000783
0.0030529487
0.0030904963
0.0031167492
0.003134499
0.0031459404
0.0031528185
0.0031563753
0.0031575381
0.0031570927
0.0031556284
0.0031535538
0.003151199
0.003148806
0.0031465837
0.0031446716
0.0031431218
0.0031419918
0.0031413198
0.0031411104
0.0031413754
0.0031421082
0.003143265
0.0031448155
0.0031467332
0.0031489857
0.0031515397
0.0031543626
0.0031574342
0.0031607136
0.0031641465
0.003167704
0.0031713565
0.0031750711
0.0031788172
0.0031825651
0.0031862919
0.00318997
0.0031935524
0.0031969968
0.0032002716
0.0032033414
0.0032061673
0.003208715
0.0032109373
0.0032128039
0.0032142793
0.0032152731
0.0032157133
0.0032155504
0.0032147164
0.003213138
0.0032107345
0.003207443
0.0032031936
0.0031978127
0.0031911589
0.0031831476
0.003173657
0.0031625345
0.0031496899
0.0031349775
0.003118086
0.0030988088
0.0030770227
0.0030524878
0.0030250894
0.0029945814
0.002960444
0.0029224331
0.0028802852
0.0028338642
0.0027828185
0.0027264768
0.0026644779
0.0025966729
0.0025226922
0.002441672
0.0023531863
0.0022586548
0.0021608615
0.0020615942
0.0019614334
0.0018609878
0.0017603736
0.0016592665
0.0015579087
0.0014569297
0.0013566258
0.0012567208
0.0011573785
0.0010590586
0.00096249124
0.00086812992
0.00077640776
0.00068766508
0.00060574142
0.00052666783
0.00047623683
0.0004012604
0.00055891503
-0.00038574905
0.011516046
0.011616625
0.011830438
0.012103952
0.012435349
0.012824939
0.013271059
0.013773038
0.014332252
0.01495195
0.015637139
0.016394923
0.017235109
0.018171495
0.019222959
0.020418209
0.021794588
0.023424845
0.025376712
0.027919185
0.031036313
0.036332993
0.041627487
0.081212633
0.051125427
0.001428861
0.00018320274
0.0011403046
0.0017192419
0.0021913149
0.002471442
0.0026686234
0.002819666
0.002926076
0.003000217
0.0030530683
0.0030906006
0.0031168409
0.0031345804
0.0031460131
0.0031528839
0.0031564343
0.0031575916
0.0031571415
0.0031556729
0.0031535946
0.0031512365
0.0031488405
0.0031466156
0.0031447011
0.0031431492
0.0031420173
0.0031413435
0.0031411328
0.0031413961
0.0031421275
0.003143283
0.0031448324
0.003146749
0.0031490005
0.0031515537
0.0031543758
0.0031574466
0.0031607253
0.0031641574
0.0031677143
0.0031713663
0.0031750803
0.0031788258
0.0031825733
0.0031862997
0.0031899773
0.0031935593
0.0031970033
0.0032002777
0.0032033472
0.0032061728
0.0032087202
0.0032109422
0.0032128085
0.0032142837
0.0032152772
0.0032157172
0.0032155541
0.0032147199
0.0032131412
0.0032107376
0.0032074459
0.0032031963
0.0031978152
0.0031911612
0.0031831499
0.0031736591
0.0031625364
0.0031496918
0.0031349792
0.0031180876
0.0030988103
0.0030770241
0.0030524891
0.0030250906
0.0029945825
0.002960445
0.002922434
0.0028802861
0.002833865
0.0027828193
0.0027264775
0.0026644786
0.0025966735
0.0025226928
0.0024416725
0.0023531867
0.0022586553
0.0021608619
0.0020615946
0.0019614337
0.0018609881
0.0017603739
0.0016592668
0.001557909
0.00145693
0.0013566261
0.001256721
0.0011573788
0.0010590589
0.00096249148
0.00086813015
0.00077640799
0.0006876653
0.00060574165
0.00052666806
0.00047623709
0.00040126067
0.00055891532
-0.00038574888
0.011516046
0.011616626
0.011830438
0.012103952
0.012435349
0.01282494
0.01327106
0.013773038
0.014332253
0.01495195
0.01563714
0.016394924
0.017235111
0.018171497
0.019222962
0.020418213
0.021794593
0.023424854
0.025376724
0.027919204
0.031036339
0.036333048
0.041627553
0.081207431
0.051144284
0.0014344011
0.00018527142
0.0011412892
0.0017198357
0.0021917299
0.0024717536
0.0026688699
0.0028198669
0.0029262435
0.0030003593
0.0030531909
0.0030907075
0.003116935
0.0031346638
0.0031460876
0.0031529508
0.0031564947
0.0031576464
0.0031571914
0.0031557185
0.0031536364
0.0031512749
0.003148876
0.0031466484
0.0031447314
0.0031431773
0.0031420434
0.0031413677
0.0031411556
0.0031414172
0.0031421473
0.0031433015
0.0031448497
0.0031467653
0.0031490158
0.003151568
0.0031543893
0.0031574592
0.0031607372
0.0031641687
0.0031677249
0.0031713762
0.0031750897
0.0031788347
0.0031825816
0.0031863076
0.0031899848
0.0031935663
0.0031970099
0.003200284
0.0032033531
0.0032061784
0.0032087255
0.0032109472
0.0032128132
0.0032142882
0.0032152814
0.0032157212
0.0032155578
0.0032147234
0.0032131446
0.0032107407
0.0032074488
0.0032031991
0.0031978178
0.0031911637
0.0031831522
0.0031736612
0.0031625385
0.0031496937
0.003134981
0.0031180892
0.0030988118
0.0030770255
0.0030524904
0.0030250918
0.0029945837
0.0029604461
0.002922435
0.002880287
0.0028338658
0.0027828201
0.0027264782
0.0026644792
0.0025966741
0.0025226933
0.002441673
0.0023531872
0.0022586557
0.0021608623
0.002061595
0.0019614341
0.0018609885
0.0017603742
0.0016592671
0.0015579093
0.0014569303
0.0013566264
0.0012567213
0.001157379
0.0010590591
0.00096249172
0.00086813039
0.00077640822
0.00068766553
0.00060574189
0.0005266683
0.00047623736
0.00040126095
0.00055891561
-0.0003857487
0.011516046
0.011616626
0.011830438
0.012103952
0.012435349
0.01282494
0.01327106
0.013773039
0.014332253
0.014951951
0.015637141
0.016394926
0.017235112
0.0181715
0.019222965
0.020418218
0.0217946
0.023424863
0.025376736
0.027919226
0.031036368
0.036333107
0.041627628
0.081201657
0.051163932
0.0014414771
0.00018747089
0.0011423347
0.0017204665
0.0021921706
0.0024720846
0.0026691317
0.0028200802
0.0029264213
0.0030005103
0.0030533211
0.003090821
0.0031170349
0.0031347524
0.0031461668
0.0031530219
0.0031565589
0.0031577047
0.0031572444
0.003155767
0.0031536808
0.0031513158
0.0031489136
0.0031466831
0.0031447636
0.0031432072
0.0031420711
0.0031413935
0.0031411796
0.0031414397
0.0031421683
0.0031433212
0.0031448681
0.0031467825
0.003149032
0.0031515832
0.0031544036
0.0031574727
0.0031607498
0.0031641806
0.0031677362
0.0031713868
0.0031750997
0.0031788442
0.0031825905
0.003186316
0.0031899927
0.0031935738
0.003197017
0.0032002907
0.0032033594
0.0032061844
0.0032087311
0.0032109525
0.0032128182
0.0032142929
0.0032152859
0.0032157254
0.0032155618
0.0032147271
0.0032131481
0.003210744
0.0032074519
0.003203202
0.0031978206
0.0031911663
0.0031831546
0.0031736635
0.0031625406
0.0031496956
0.0031349828
0.003118091
0.0030988134
0.003077027
0.0030524918
0.0030250931
0.0029945849
0.0029604472
0.002922436
0.002880288
0.0028338667
0.0027828209
0.0027264789
0.0026644799
0.0025966748
0.0025226939
0.0024416735
0.0023531877
0.0022586562
0.0021608627
0.0020615954
0.0019614344
0.0018609888
0.0017603746
0.0016592675
0.0015579096
0.0014569306
0.0013566267
0.0012567216
0.0011573793
0.0010590594
0.00096249198
0.00086813064
0.00077640847
0.00068766578
0.00060574214
0.00052666854
0.00047623765
0.00040126124
0.00055891592
-0.00038574852
0.011516046
0.011616626
0.011830438
0.012103952
0.01243535
0.01282494
0.013271061
0.013773039
0.014332254
0.014951952
0.015637142
0.016394927
0.017235115
0.018171502
0.019222969
0.020418223
0.021794607
0.023424873
0.02537675
0.02791925
0.031036401
0.036333174
0.041627698
0.081195192
0.051184604
0.0014494579
0.00018984131
0.0011434602
0.0017211456
0.0021926452
0.002472441
0.0026694135
0.00282031
0.0029266129
0.003000673
0.0030534613
0.0030909432
0.0031171425
0.0031348478
0.003146252
0.0031530985
0.0031566281
0.0031577674
0.0031573015
0.0031558192
0.0031537287
0.0031513597
0.0031489541
0.0031467206
0.0031447983
0.0031432393
0.003142101
0.0031414212
0.0031412055
0.0031414639
0.0031421909
0.0031433423
0.0031448879
0.0031468011
0.0031490494
0.0031515996
0.0031544189
0.0031574872
0.0031607635
0.0031641934
0.0031677482
0.0031713982
0.0031751105
0.0031788543
0.0031826001
0.003186325
0.0031900012
0.0031935819
0.0031970246
0.0032002979
0.0032033662
0.0032061908
0.0032087371
0.0032109582
0.0032128236
0.003214298
0.0032152907
0.0032157299
0.0032155661
0.0032147311
0.0032131519
0.0032107476
0.0032074553
0.0032032052
0.0031978235
0.003191169
0.0031831572
0.0031736659
0.0031625429
0.0031496978
0.0031349848
0.0031180928
0.0030988152
0.0030770286
0.0030524933
0.0030250945
0.0029945862
0.0029604484
0.0029224372
0.002880289
0.0028338677
0.0027828218
0.0027264798
0.0026644807
0.0025966755
0.0025226946
0.0024416741
0.0023531882
0.0022586567
0.0021608632
0.0020615958
0.0019614348
0.0018609892
0.0017603749
0.0016592678
0.00155791
0.0014569309
0.001356627
0.0012567219
0.0011573796
0.0010590597
0.00096249225
0.00086813091
0.00077640874
0.00068766604
0.00060574241
0.00052666881
0.00047623796
0.00040126155
0.00055891625
-0.00038574832
0.011516046
0.011616626
0.011830438
0.012103952
0.01243535
0.012824941
0.013271061
0.01377304
0.014332255
0.014951953
0.015637144
0.016394929
0.017235117
0.018171506
0.019222973
0.020418228
0.021794614
0.023424884
0.025376766
0.027919278
0.031036438
0.036333249
0.041627756
0.081187897
0.051206584
0.001458028
0.00019241248
0.0011446812
0.0017218827
0.0021931603
0.0024728278
0.0026697195
0.0028205594
0.0029268208
0.0030008496
0.0030536135
0.0030910759
0.0031172592
0.0031349514
0.0031463445
0.0031531816
0.0031567031
0.0031578354
0.0031573635
0.0031558758
0.0031537806
0.0031514074
0.0031489981
0.0031467612
0.0031448359
0.0031432742
0.0031421334
0.0031414514
0.0031412336
0.0031414901
0.0031422154
0.0031433653
0.0031449094
0.0031468213
0.0031490683
0.0031516173
0.0031544356
0.0031575029
0.0031607782
0.0031642073
0.0031677614
0.0031714106
0.0031751222
0.0031788653
0.0031826105
0.0031863348
0.0031900105
0.0031935906
0.0031970329
0.0032003057
0.0032033736
0.0032061978
0.0032087437
0.0032109644
0.0032128295
0.0032143035
0.0032152959
0.0032157348
0.0032155707
0.0032147355
0.003213156
0.0032107515
0.0032074589
0.0032032086
0.0031978267
0.0031911721
0.00318316
0.0031736686
0.0031625453
0.0031497001
0.003134987
0.0031180949
0.0030988171
0.0030770304
0.003052495
0.003025096
0.0029945876
0.0029604497
0.0029224384
0.0028802901
0.0028338687
0.0027828227
0.0027264806
0.0026644815
0.0025966762
0.0025226953
0.0024416747
0.0023531888
0.0022586572
0.0021608637
0.0020615963
0.0019614353
0.0018609896
0.0017603753
0.0016592682
0.0015579103
0.0014569312
0.0013566273
0.0012567222
0.0011573799
0.00105906
0.00096249255
0.00086813121
0.00077640903
0.00068766633
0.0006057427
0.0005266691
0.00047623829
0.00040126189
0.00055891662
-0.0003857481
0.011516046
0.011616626
0.011830438
0.012103953
0.01243535
0.012824941
0.013271062
0.01377304
0.014332256
0.014951954
0.015637145
0.016394931
0.01723512
0.018171509
0.019222978
0.020418235
0.021794624
0.023424898
0.025376784
0.027919309
0.03103648
0.036333336
0.041627806
0.081179591
0.051230106
0.0014673051
0.00019522088
0.0011460154
0.0017226886
0.0021937234
0.0024732508
0.002670054
0.0028208321
0.0029270481
0.0030010426
0.0030537799
0.003091221
0.0031173869
0.0031350647
0.0031464457
0.0031532725
0.0031567852
0.0031579099
0.0031574313
0.0031559377
0.0031538373
0.0031514596
0.0031490462
0.0031468056
0.003144877
0.0031433124
0.0031421688
0.0031414844
0.0031412643
0.0031415188
0.0031422422
0.0031433903
0.0031449329
0.0031468433
0.003149089
0.0031516367
0.0031544539
0.00315752
0.0031607944
0.0031642225
0.0031677757
0.0031714241
0.0031751349
0.0031788773
0.0031826218
0.0031863455
0.0031900206
0.0031936001
0.0031970419
0.0032003142
0.0032033816
0.0032062053
0.0032087509
0.0032109711
0.0032128358
0.0032143095
0.0032153015
0.0032157402
0.0032155757
0.0032147402
0.0032131604
0.0032107557
0.0032074629
0.0032032123
0.0031978302
0.0031911753
0.0031831631
0.0031736714
0.003162548
0.0031497026
0.0031349893
0.0031180971
0.0030988191
0.0030770323
0.0030524967
0.0030250977
0.0029945891
0.0029604512
0.0029224397
0.0028802913
0.0028338698
0.0027828238
0.0027264816
0.0026644824
0.002596677
0.002522696
0.0024416754
0.0023531895
0.0022586578
0.0021608642
0.0020615968
0.0019614357
0.0018609901
0.0017603758
0.0016592686
0.0015579107
0.0014569316
0.0013566277
0.0012567226
0.0011573802
0.0010590603
0.00096249288
0.00086813153
0.00077640935
0.00068766665
0.00060574302
0.00052666942
0.00047623866
0.00040126227
0.00055891702
-0.00038574786
0.011516046
0.011616626
0.011830439
0.012103953
0.012435351
0.012824942
0.013271062
0.013773041
0.014332257
0.014951956
0.015637147
0.016394934
0.017235123
0.018171513
0.019222984
0.020418243
0.021794634
0.023424913
0.025376806
0.027919346
0.031036529
0.036333437
0.04162786
0.081170053
0.051255381
0.0014774704
0.00019830879
0.0011474832
0.0017235755
0.0021943433
0.0024737163
0.0026704222
0.0028211323
0.0029272983
0.0030012552
0.0030539631
0.0030913807
0.0031175275
0.0031351894
0.003146557
0.0031533725
0.0031568755
0.0031579918
0.0031575059
0.0031560059
0.0031538998
0.0031515171
0.0031490991
0.0031468545
0.0031449223
0.0031433543
0.0031422078
0.0031415207
0.0031412982
0.0031415504
0.0031422717
0.0031434179
0.0031449587
0.0031468675
0.0031491117
0.0031516581
0.0031544739
0.0031575389
0.0031608121
0.0031642393
0.0031677914
0.003171439
0.0031751489
0.0031788905
0.0031826343
0.0031863573
0.0031900317
0.0031936106
0.0031970518
0.0032003235
0.0032033904
0.0032062137
0.0032087587
0.0032109786
0.0032128428
0.0032143161
0.0032153078
0.0032157461
0.0032155813
0.0032147455
0.0032131653
0.0032107603
0.0032074672
0.0032032164
0.0031978341
0.0031911789
0.0031831665
0.0031736746
0.003162551
0.0031497054
0.0031349919
0.0031180995
0.0030988213
0.0030770344
0.0030524987
0.0030250995
0.0029945908
0.0029604527
0.0029224411
0.0028802927
0.0028338711
0.0027828249
0.0027264826
0.0026644833
0.0025966779
0.0025226968
0.0024416762
0.0023531902
0.0022586584
0.0021608648
0.0020615973
0.0019614363
0.0018609905
0.0017603762
0.001659269
0.0015579111
0.001456932
0.0013566281
0.0012567229
0.0011573806
0.0010590607
0.00096249324
0.00086813188
0.0007764097
0.00068766699
0.00060574337
0.00052666977
0.00047623906
0.00040126268
0.00055891745
-0.00038574759
0.011516046
0.011616626
0.011830439
0.012103953
0.012435351
0.012824942
0.013271063
0.013773042
0.014332258
0.014951957
0.015637149
0.016394937
0.017235127
0.018171518
0.01922299
0.020418252
0.021794646
0.023424931
0.02537683
0.027919388
0.031036586
0.036333554
0.041627924
0.081159024
0.051282609
0.0014886829
0.00020172286
0.0011491067
0.0017245572
0.0021950294
0.0024742318
0.0026708299
0.0028214647
0.0029275754
0.0030014906
0.003054166
0.0030915576
0.0031176831
0.0031353275
0.0031466804
0.0031534833
0.0031569755
0.0031580825
0.0031575885
0.0031560813
0.003153969
0.0031515806
0.0031491577
0.0031469086
0.0031449723
0.0031434008
0.003142251
0.0031415609
0.0031413356
0.0031415853
0.0031423043
0.0031434484
0.0031449873
0.0031468943
0.0031491369
0.0031516817
0.0031544961
0.0031575598
0.0031608318
0.0031642577
0.0031678089
0.0031714554
0.0031751644
0.0031789051
0.0031826481
0.0031863703
0.003190044
0.0031936222
0.0031970627
0.0032003338
0.0032034002
0.0032062228
0.0032087674
0.0032109867
0.0032128506
0.0032143234
0.0032153146
0.0032157525
0.0032155874
0.0032147512
0.0032131708
0.0032107654
0.003207472
0.0032032209
0.0031978383
0.0031911829
0.0031831702
0.0031736781
0.0031625542
0.0031497084
0.0031349947
0.0031181021
0.0030988238
0.0030770367
0.0030525008
0.0030251014
0.0029945926
0.0029604544
0.0029224427
0.0028802941
0.0028338724
0.0027828261
0.0027264838
0.0026644844
0.0025966789
0.0025226977
0.002441677
0.0023531909
0.0022586591
0.0021608655
0.0020615979
0.0019614368
0.0018609911
0.0017603767
0.0016592695
0.0015579116
0.0014569325
0.0013566285
0.0012567234
0.001157381
0.0010590611
0.00096249364
0.00086813227
0.00077641009
0.00068766738
0.00060574376
0.00052667016
0.00047623951
0.00040126314
0.00055891794
-0.0003857473
0.011516046
0.011616627
0.011830439
0.012103954
0.012435352
0.012824943
0.013271064
0.013773043
0.01433226
0.014951959
0.015637152
0.01639494
0.017235131
0.018171524
0.019222998
0.020418262
0.021794661
0.023424952
0.025376859
0.027919437
0.031036651
0.03633369
0.041628
0.081146191
0.051311978
0.0015011032
0.00020551448
0.0011509107
0.0017256489
0.0021957925
0.002474805
0.0026712834
0.0028218344
0.0029278836
0.0030017523
0.0030543916
0.0030917544
0.0031178563
0.003135481
0.0031468175
0.0031536065
0.0031570868
0.0031581834
0.0031576803
0.0031561653
0.0031540459
0.0031516513
0.0031492229
0.0031469688
0.003145028
0.0031434524
0.0031422989
0.0031416055
0.0031413772
0.0031416241
0.0031423406
0.0031434824
0.0031450191
0.0031469241
0.0031491648
0.0031517079
0.0031545208
0.0031575829
0.0031608536
0.0031642783
0.0031678282
0.0031714736
0.0031751815
0.0031789213
0.0031826633
0.0031863847
0.0031900576
0.003193635
0.0031970748
0.0032003453
0.003203411
0.003206233
0.003208777
0.0032109958
0.0032128591
0.0032143315
0.0032153222
0.0032157597
0.0032155941
0.0032147575
0.0032131767
0.003210771
0.0032074773
0.0032032259
0.0031978429
0.0031911872
0.0031831742
0.0031736819
0.0031625578
0.0031497117
0.0031349979
0.003118105
0.0030988265
0.0030770392
0.0030525032
0.0030251036
0.0029945946
0.0029604563
0.0029224444
0.0028802957
0.0028338739
0.0027828275
0.002726485
0.0026644856
0.0025966799
0.0025226987
0.0024416779
0.0023531917
0.0022586599
0.0021608662
0.0020615986
0.0019614375
0.0018609917
0.0017603773
0.0016592701
0.0015579121
0.001456933
0.001356629
0.0012567238
0.0011573815
0.0010590615
0.00096249408
0.00086813271
0.00077641052
0.0006876678
0.0006057442
0.00052667059
0.00047624001
0.00040126365
0.00055891848
-0.00038574697
0.011516046
0.011616627
0.01183044
0.012103954
0.012435352
0.012824944
0.013271065
0.013773045
0.014332261
0.014951962
0.015637155
0.016394944
0.017235136
0.018171531
0.019223007
0.020418274
0.021794677
0.023424976
0.025376892
0.027919493
0.031036727
0.036333847
0.041628092
0.081131179
0.051343648
0.0015149126
0.00020974065
0.0011529227
0.0017268672
0.0021966441
0.002475445
0.0026717896
0.0028222471
0.0029282277
0.0030020446
0.0030546436
0.003091974
0.0031180496
0.0031356525
0.0031469707
0.0031537441
0.003157211
0.0031582961
0.0031577829
0.003156259
0.0031541318
0.0031517303
0.0031492956
0.0031470359
0.0031450902
0.00314351
0.0031423525
0.0031416553
0.0031414236
0.0031416674
0.0031423811
0.0031435202
0.0031450545
0.0031469573
0.0031491959
0.0031517372
0.0031545483
0.0031576088
0.0031608779
0.0031643011
0.0031678497
0.0031714939
0.0031752007
0.0031789393
0.0031826804
0.0031864007
0.0031900727
0.0031936493
0.0031970883
0.003200358
0.003203423
0.0032062444
0.0032087877
0.0032110059
0.0032128686
0.0032143404
0.0032153307
0.0032157676
0.0032156016
0.0032147646
0.0032131834
0.0032107772
0.0032074831
0.0032032314
0.0031978481
0.0031911921
0.0031831788
0.0031736861
0.0031625618
0.0031497154
0.0031350013
0.0031181082
0.0030988295
0.003077042
0.0030525057
0.003025106
0.0029945969
0.0029604583
0.0029224463
0.0028802975
0.0028338755
0.002782829
0.0027264864
0.0026644868
0.0025966811
0.0025226998
0.0024416789
0.0023531927
0.0022586607
0.002160867
0.0020615994
0.0019614382
0.0018609924
0.001760378
0.0016592707
0.0015579127
0.0014569336
0.0013566296
0.0012567244
0.001157382
0.0010590621
0.00096249458
0.0008681332
0.000776411
0.00068766828
0.00060574469
0.00052667108
0.00047624057
0.00040126422
0.00055891909
-0.0003857466
0.011516046
0.011616627
0.01183044
0.012103955
0.012435353
0.012824945
0.013271066
0.013773046
0.014332263
0.014951964
0.015637158
0.016394948
0.017235142
0.018171539
0.019223017
0.020418289
0.021794696
0.023425003
0.02537693
0.027919557
0.031036814
0.036334029
0.041628202
0.081113539
0.051377743
0.0015303173
0.00021446485
0.0011551731
0.0017282311
0.0021975977
0.0024761616
0.0026723564
0.0028227092
0.002928613
0.003002372
0.0030549257
0.00309222
0.0031182661
0.0031358446
0.0031471422
0.0031538982
0.0031573501
0.0031584222
0.0031578978
0.0031563639
0.0031542279
0.0031518186
0.003149377
0.0031471111
0.0031451598
0.0031435745
0.0031424124
0.003141711
0.0031414755
0.0031417158
0.0031424263
0.0031435625
0.0031450941
0.0031469944
0.0031492308
0.0031517699
0.003154579
0.0031576377
0.0031609051
0.0031643267
0.0031678738
0.0031715166
0.003175222
0.0031789595
0.0031826994
0.0031864187
0.0031900896
0.0031936653
0.0031971033
0.0032003722
0.0032034364
0.003206257
0.0032087996
0.0032110171
0.0032128792
0.0032143504
0.0032153401
0.0032157765
0.0032156099
0.0032147724
0.0032131907
0.0032107841
0.0032074896
0.0032032375
0.0031978538
0.0031911974
0.0031831838
0.0031736908
0.0031625662
0.0031497196
0.0031350051
0.0031181118
0.0030988328
0.0030770451
0.0030525086
0.0030251087
0.0029945993
0.0029604606
0.0029224484
0.0028802994
0.0028338773
0.0027828307
0.002726488
0.0026644883
0.0025966824
0.002522701
0.00244168
0.0023531937
0.0022586617
0.0021608679
0.0020616002
0.0019614389
0.0018609931
0.0017603787
0.0016592714
0.0015579134
0.0014569342
0.0013566302
0.001256725
0.0011573826
0.0010590626
0.00096249513
0.00086813374
0.00077641154
0.00068766882
0.00060574524
0.00052667162
0.0004762412
0.00040126486
0.00055891977
-0.00038574619
0.011516046
0.011616627
0.011830441
0.012103955
0.012435354
0.012824946
0.013271067
0.013773048
0.014332266
0.014951967
0.015637162
0.016394953
0.017235149
0.018171548
0.019223029
0.020418305
0.021794719
0.023425035
0.025376973
0.027919632
0.031036914
0.036334237
0.041628335
0.081092728
0.051414331
0.0015475522
0.00021975803
0.0011576962
0.0017297616
0.0021986678
0.0024769659
0.0026729927
0.002823228
0.0029290456
0.0030027394
0.0030552425
0.0030924962
0.0031185092
0.0031360602
0.0031473348
0.0031540712
0.0031575063
0.0031585638
0.0031580267
0.0031564817
0.0031543358
0.0031519178
0.0031494684
0.0031471955
0.0031452378
0.0031436469
0.0031424796
0.0031417736
0.0031415338
0.0031417702
0.0031424771
0.00314361
0.0031451386
0.003147036
0.0031492698
0.0031518065
0.0031546134
0.00315767
0.0031609355
0.0031643554
0.0031679008
0.003171542
0.003175246
0.0031789821
0.0031827206
0.0031864387
0.0031901085
0.0031936831
0.0031971202
0.0032003881
0.0032034513
0.0032062711
0.0032088129
0.0032110297
0.003212891
0.0032143616
0.0032153506
0.0032157864
0.0032156192
0.0032147812
0.003213199
0.0032107919
0.0032074969
0.0032032443
0.0031978602
0.0031912034
0.0031831894
0.003173696
0.0031625711
0.0031497241
0.0031350094
0.0031181158
0.0030988365
0.0030770485
0.0030525118
0.0030251116
0.0029946021
0.0029604632
0.0029224508
0.0028803016
0.0028338793
0.0027828325
0.0027264897
0.0026644898
0.0025966839
0.0025227023
0.0024416813
0.0023531948
0.0022586627
0.0021608689
0.0020616011
0.0019614398
0.0018609939
0.0017603795
0.0016592721
0.0015579141
0.0014569349
0.0013566308
0.0012567256
0.0011573832
0.0010590633
0.00096249576
0.00086813435
0.00077641215
0.00068766942
0.00060574585
0.00052667223
0.00047624191
0.00040126558
0.00055892054
-0.00038574572
0.011516046
0.011616628
0.011830441
0.012103956
0.012435355
0.012824947
0.013271069
0.01377305
0.014332268
0.014951971
0.015637167
0.016394959
0.017235156
0.018171558
0.019223043
0.020418323
0.021794744
0.023425071
0.025377023
0.027919716
0.031037028
0.036334474
0.041628495
0.081068094
0.051453411
0.0015668865
0.00022569965
0.0011605303
0.0017314823
0.002199871
0.0024778704
0.0026737082
0.0028238115
0.0029295321
0.0030031527
0.0030555988
0.0030928069
0.0031187826
0.0031363027
0.0031475514
0.0031542657
0.0031576819
0.0031587231
0.0031581717
0.0031566141
0.0031544572
0.0031520293
0.0031495711
0.0031472903
0.0031453256
0.0031437283
0.0031425551
0.0031418438
0.0031415992
0.0031418312
0.0031425341
0.0031436633
0.0031451885
0.0031470828
0.0031493137
0.0031518477
0.0031546521
0.0031577063
0.0031609697
0.0031643875
0.003167931
0.0031715705
0.0031752728
0.0031790074
0.0031827445
0.0031864612
0.0031901297
0.0031937031
0.003197139
0.0032004059
0.0032034681
0.0032062869
0.0032088278
0.0032110437
0.0032129043
0.003214374
0.0032153623
0.0032157974
0.0032156296
0.003214791
0.0032132082
0.0032108005
0.003207505
0.0032032519
0.0031978673
0.0031912101
0.0031831956
0.0031737019
0.0031625765
0.0031497292
0.0031350141
0.0031181202
0.0030988406
0.0030770523
0.0030525153
0.0030251149
0.0029946051
0.002960466
0.0029224534
0.002880304
0.0028338816
0.0027828346
0.0027264916
0.0026644916
0.0025966855
0.0025227038
0.0024416827
0.0023531961
0.0022586639
0.0021608699
0.0020616021
0.0019614408
0.0018609948
0.0017603803
0.001659273
0.0015579149
0.0014569357
0.0013566316
0.0012567264
0.001157384
0.001059064
0.00096249646
0.00086813504
0.00077641283
0.0006876701
0.00060574654
0.00052667292
0.00047624271
0.0004012664
0.00055892141
-0.0003857452
0.011516046
0.011616628
0.011830442
0.012103957
0.012435356
0.012824948
0.013271071
0.013773053
0.014332271
0.014951975
0.015637172
0.016394966
0.017235165
0.01817157
0.019223059
0.020418345
0.021794773
0.023425113
0.02537708
0.027919812
0.031037157
0.036334743
0.041628688
0.081038854
0.051494878
0.0015886325
0.00023237893
0.0011637184
0.0017334199
0.0022012261
0.0024788892
0.0026745142
0.0028244687
0.0029300801
0.0030036183
0.0030560001
0.0030931568
0.0031190906
0.0031365759
0.0031477953
0.0031544849
0.0031578797
0.0031589025
0.0031583349
0.0031567633
0.0031545938
0.0031521548
0.0031496867
0.0031473971
0.0031454244
0.0031438198
0.0031426402
0.0031419229
0.0031416729
0.0031418999
0.0031425983
0.0031437233
0.0031452446
0.0031471354
0.003149363
0.0031518939
0.0031546955
0.0031577472
0.003161008
0.0031644236
0.003167965
0.0031716025
0.003175303
0.0031790358
0.0031827713
0.0031864864
0.0031901535
0.0031937255
0.0031971602
0.0032004258
0.0032034869
0.0032063047
0.0032088445
0.0032110595
0.0032129191
0.003214388
0.0032153755
0.0032158098
0.0032156413
0.0032148019
0.0032132184
0.0032108101
0.003207514
0.0032032603
0.0031978752
0.0031912175
0.0031832026
0.0031737084
0.0031625825
0.0031497348
0.0031350194
0.0031181251
0.0030988452
0.0030770565