/*--------------------------------*- C++ -*----------------------------------*\
| =========                 |                                                 |
| \\      /  F ield         | OpenFOAM: The Open Source CFD Toolbox           |
|  \\    /   O peration     | Version:  2206                                  |
|   \\  /    A nd           | Website:  www.openfoam.com                      |
|    \\/     M anipulation  |                                                 |
\*---------------------------------------------------------------------------*/
FoamFile
{
    version     2.0;
    format      ascii;
    arch        "LSB;label=32;scalar=64";
    class       surfaceScalarField;
    location    "200";
    object      phi;
}
// * * * * * * * * * * * * * * * * * * * * * * * * * * * * * * * * * * * * * //

dimensions      [0 3 -1 0 0 0 0];

oriented        oriented;

internalField   nonuniform List<scalar> 
25880
(
2.0046466e-06
7.5543915e-12
2.0046295e-06
1.7070106e-11
2.0046088e-06
2.0678655e-11
2.0045855e-06
2.3310942e-11
2.0045587e-06
2.6869258e-11
2.0045276e-06
3.1109263e-11
2.0044915e-06
3.6041966e-11
2.0044496e-06
4.1867461e-11
2.0044008e-06
4.883649e-11
2.0043436e-06
5.7247977e-11
2.0042761e-06
6.749224e-11
2.0041959e-06
8.0137544e-11
2.0041e-06
9.5963621e-11
2.0039836e-06
1.16329e-10
2.0038408e-06
1.4279184e-10
2.003661e-06
1.7981518e-10
2.0034321e-06
2.2893642e-10
2.0031189e-06
3.1322864e-10
2.0027069e-06
4.1194535e-10
2.0020164e-06
6.9047526e-10
2.001135e-06
8.8141857e-10
1.9989192e-06
2.2157804e-09
1.9984508e-06
4.684879e-10
1.0032515e-06
9.951993e-07
4.4455382e-09
9.9880592e-07
2.1589031e-09
2.2866352e-09
1.6535445e-09
5.0535854e-10
1.411912e-09
2.4163251e-10
1.2649972e-09
1.4691476e-10
1.1614161e-09
1.035811e-10
1.0829072e-09
7.8508973e-11
1.02021e-09
6.2697132e-11
9.6859626e-10
5.1613751e-11
9.2513691e-10
4.3459348e-11
8.8783976e-10
3.7297149e-11
8.553481e-10
3.2491661e-11
8.2670958e-10
2.8638521e-11
8.0122297e-10
2.5486603e-11
7.7835358e-10
2.2869388e-11
7.5768593e-10
2.0667652e-11
7.3889314e-10
1.8792787e-11
7.2171324e-10
1.7179903e-11
7.0593238e-10
1.5780856e-11
6.9137506e-10
1.4557316e-11
6.778956e-10
1.3479461e-11
6.6537085e-10
1.2524748e-11
6.5369638e-10
1.1674468e-11
6.4278303e-10
1.091335e-11
6.3255427e-10
1.0228759e-11
6.2294387e-10
9.6104025e-12
6.138939e-10
9.0499688e-12
6.0535356e-10
8.5403407e-12
5.9727824e-10
8.0753207e-12
5.8962839e-10
7.6498428e-12
5.8236906e-10
7.2593318e-12
5.7546926e-10
6.8997975e-12
5.6890107e-10
6.5681983e-12
5.6263936e-10
6.2617067e-12
5.5666162e-10
5.9777424e-12
5.5094751e-10
5.714104e-12
5.4547862e-10
5.4688878e-12
5.4023832e-10
5.2403048e-12
5.3521159e-10
5.0267245e-12
5.3038472e-10
4.8268731e-12
5.2574506e-10
4.6396629e-12
5.2128107e-10
4.4639895e-12
5.1698223e-10
4.2988367e-12
5.1283887e-10
4.1433658e-12
5.0884209e-10
3.9967813e-12
5.0498372e-10
3.8583675e-12
5.0125632e-10
3.7273945e-12
4.9765312e-10
3.6032031e-12
4.9416771e-10
3.4854118e-12
4.9079412e-10
3.3735928e-12
4.8752687e-10
3.2672423e-12
4.8436093e-10
3.1659392e-12
4.8129162e-10
3.0693153e-12
4.7831457e-10
2.9770497e-12
4.7542572e-10
2.888853e-12
4.726214e-10
2.8043193e-12
4.6989831e-10
2.7230893e-12
4.6725324e-10
2.645068e-12
4.6468314e-10
2.5701047e-12
4.6218518e-10
2.4979549e-12
4.5975676e-10
2.4284177e-12
4.5739548e-10
2.3612891e-12
4.5509901e-10
2.296465e-12
4.5286521e-10
2.2338064e-12
4.5069224e-10
2.1729698e-12
4.4857842e-10
2.1138142e-12
4.4652192e-10
2.0565019e-12
4.4452095e-10
2.0009655e-12
4.4257396e-10
1.9469941e-12
4.4067942e-10
1.8945455e-12
4.3883583e-10
1.8435852e-12
4.3704191e-10
1.7939222e-12
4.3529644e-10
1.7454746e-12
4.3359804e-10
1.6983962e-12
4.3194527e-10
1.6527745e-12
4.3033668e-10
1.608583e-12
4.2877093e-10
1.5657536e-12
4.2724676e-10
1.5241687e-12
4.2576287e-10
1.4838957e-12
4.2431765e-10
1.4452208e-12
4.229093e-10
1.4083413e-12
4.215361e-10
1.3732099e-12
4.2019643e-10
1.3396694e-12
4.188886e-10
1.3078231e-12
4.176105e-10
1.2781029e-12
4.1635966e-10
1.250842e-12
4.1513365e-10
1.2260141e-12
4.1393058e-10
1.2030653e-12
4.1274932e-10
1.1812609e-12
4.1163501e-10
1.114308e-12
4.1060311e-10
1.0319025e-12
4.0964042e-10
9.6269039e-13
4.0873659e-10
9.0383159e-13
4.0788256e-10
8.5402965e-13
4.0707101e-10
8.1154425e-13
4.0629621e-10
7.7480594e-13
4.055533e-10
7.4291252e-13
4.0483813e-10
7.151657e-13
4.0414733e-10
6.9079629e-13
4.0347816e-10
6.6917288e-13
4.0282812e-10
6.500364e-13
4.0219479e-10
6.3333931e-13
4.0157555e-10
6.1924016e-13
4.0096806e-10
6.0748897e-13
4.0036823e-10
5.9982584e-13
3.9977486e-10
5.9337156e-13
3.9917028e-10
6.0457474e-13
3.9857141e-10
5.98871e-13
3.9787942e-10
6.9199528e-13
3.9717577e-10
7.0365192e-13
3.9643203e-10
7.4373036e-13
4.5487525e-13
2.0345202e-06
1.5386583e-11
2.0345025e-06
3.4780504e-11
2.0344811e-06
4.214366e-11
2.0344569e-06
4.7509561e-11
2.034429e-06
5.4761011e-11
2.0343967e-06
6.339806e-11
2.0343593e-06
7.3442111e-11
2.0343158e-06
8.5301031e-11
2.0342652e-06
9.9485256e-11
2.0342058e-06
1.1660251e-10
2.0341359e-06
1.3744606e-10
2.0340529e-06
1.6317095e-10
2.0339535e-06
1.9536179e-10
2.033833e-06
2.367799e-10
2.0336852e-06
2.9059024e-10
2.0334992e-06
3.6586467e-10
2.0332624e-06
4.6571535e-10
2.0329386e-06
6.3704121e-10
2.0325129e-06
8.3761314e-10
2.0317999e-06
1.4035122e-09
2.0308898e-06
1.791488e-09
2.028603e-06
4.5025285e-09
2.0281161e-06
9.5541956e-10
1.0246245e-06
1.9986909e-06
1.3563338e-08
2.0098671e-06
6.6052609e-09
9.2447128e-09
5.059109e-09
2.0515104e-09
4.3196684e-09
9.8107312e-10
3.8700446e-09
5.9653853e-10
3.553031e-09
4.2059471e-10
3.3127525e-09
3.1878738e-10
3.1208682e-09
2.5458149e-10
2.9629037e-09
2.0957823e-10
2.8298957e-09
1.764673e-10
2.7157475e-09
1.5144538e-10
2.6163066e-09
1.3193254e-10
2.5286584e-09
1.1628676e-10
2.4506567e-09
1.0348832e-10
2.380665e-09
9.286101e-11
2.317412e-09
8.3920733e-11
2.259897e-09
7.6307715e-11
2.2073184e-09
6.9758479e-11
2.1590218e-09
6.4077491e-11
2.11447e-09
5.9109163e-11
2.073217e-09
5.4732427e-11
2.0348861e-09
5.0855681e-11
1.9991575e-09
4.7403002e-11
1.9657585e-09
4.4312372e-11
1.9344548e-09
4.1532486e-11
1.9050436e-09
3.9021554e-11
1.8773478e-09
3.6745821e-11
1.8512117e-09
3.4676389e-11
1.8264989e-09
3.2788096e-11
1.8030884e-09
3.1060372e-11
1.7808731e-09
2.9474624e-11
1.7597582e-09
2.8014669e-11
1.7396583e-09
2.6668143e-11
1.7204964e-09
2.5423569e-11
1.7022037e-09
2.427047e-11
1.6847179e-09
2.3199904e-11
1.6679827e-09
2.2204143e-11
1.651947e-09
2.1275922e-11
1.6365651e-09
2.040862e-11
1.621795e-09
1.9597065e-11
1.6075978e-09
1.8836838e-11
1.5939383e-09
1.8123456e-11
1.5807844e-09
1.7452793e-11
1.5681063e-09
1.6821442e-11
1.5558769e-09
1.6226174e-11
1.5440712e-09
1.5664082e-11
1.5326664e-09
1.5132204e-11
1.5216417e-09
1.4627861e-11
1.5109776e-09
1.4149505e-11
1.5006558e-09
1.3695397e-11
1.4906596e-09
1.3263494e-11
1.4809734e-09
1.2852085e-11
1.471583e-09
1.2459675e-11
1.4624751e-09
1.2084961e-11
1.4536372e-09
1.1726768e-11
1.4450581e-09
1.1383448e-11
1.4367276e-09
1.1053544e-11
1.428636e-09
1.0736667e-11
1.4207739e-09
1.0432206e-11
1.4131327e-09
1.0139171e-11
1.4057044e-09
9.8567446e-12
1.3984816e-09
9.5840987e-12
1.3914572e-09
9.3208116e-12
1.3846247e-09
9.0663186e-12
1.3779785e-09
8.8192265e-12
1.3715133e-09
8.5789625e-12
1.3652236e-09
8.346185e-12
1.359104e-09
8.1206226e-12
1.3531496e-09
7.9014188e-12
1.3473557e-09
7.6884025e-12
1.3417179e-09
7.4814353e-12
1.336232e-09
7.2797428e-12
1.3308945e-09
7.0829905e-12
1.3257011e-09
6.8918057e-12
1.3206473e-09
6.7065466e-12
1.3157288e-09
6.5271029e-12
1.3109414e-09
6.353201e-12
1.3062812e-09
6.1843654e-12
1.3017442e-09
6.0208659e-12
1.2973256e-09
5.8638711e-12
1.2930197e-09
5.7141821e-12
1.2888213e-09
5.5716078e-12
1.2847255e-09
5.4355089e-12
1.280727e-09
5.3063023e-12
1.2768194e-09
5.1857484e-12
1.272995e-09
5.0752047e-12
1.2692464e-09
4.9745628e-12
1.2655679e-09
4.8815663e-12
1.261956e-09
4.7932544e-12
1.2585485e-09
4.5217892e-12
1.2553928e-09
4.1876165e-12
1.2524485e-09
3.9069562e-12
1.249684e-09
3.6682796e-12
1.2470717e-09
3.466332e-12
1.2445892e-09
3.2940532e-12
1.242219e-09
3.1450711e-12
1.2399461e-09
3.0157346e-12
1.2377581e-09
2.9032178e-12
1.2356445e-09
2.8043994e-12
1.233597e-09
2.7167115e-12
1.2316079e-09
2.6391048e-12
1.2296698e-09
2.5713936e-12
1.2277748e-09
2.5142261e-12
1.2259157e-09
2.4665848e-12
1.22408e-09
2.4355369e-12
1.222264e-09
2.4093706e-12
1.2204137e-09
2.4549497e-12
1.2185808e-09
2.4317239e-12
1.2164626e-09
2.8101921e-12
1.21431e-09
2.8562456e-12
1.2120272e-09
3.0265695e-12
1.8378734e-12
2.0947128e-06
2.3639453e-11
2.0946942e-06
5.3457144e-11
2.0946715e-06
6.4792558e-11
2.094646e-06
7.3044279e-11
2.0946165e-06
8.4191909e-11
2.0945825e-06
9.7463708e-11
2.094543e-06
1.1289084e-10
2.0944972e-06
1.3110046e-10
2.0944438e-06
1.5287633e-10
2.0943813e-06
1.7915031e-10
2.0943076e-06
2.1113834e-10
2.0942202e-06
2.5061106e-10
2.0941155e-06
2.9999717e-10
2.0939888e-06
3.6352969e-10
2.0938333e-06
4.4605695e-10
2.0936377e-06
5.6148645e-10
2.0933888e-06
7.1456754e-10
2.0930487e-06
9.7719806e-10
2.0926017e-06
1.2845369e-09
2.0918536e-06
2.1516626e-09
2.0908989e-06
2.7461632e-09
2.0885012e-06
6.9002763e-09
2.0879877e-06
1.4688623e-09
1.0616544e-06
3.0250243e-06
2.3451107e-08
3.0480703e-06
1.1445729e-08
2.125009e-08
8.7662894e-09
4.73095e-09
7.4846537e-09
2.2627088e-09
6.7052486e-09
1.3759435e-09
6.1557073e-09
9.7013608e-10
5.7391817e-09
7.3531292e-10
5.4065485e-09
5.872147e-10
5.1327143e-09
4.8341248e-10
4.9021417e-09
4.0703982e-10
4.7042627e-09
3.4932445e-10
4.531879e-09
3.0431617e-10
4.3799382e-09
2.6822762e-10
4.2447199e-09
2.3870665e-10
4.1233874e-09
2.1419351e-10
4.0137365e-09
1.9357158e-10
3.9140332e-09
1.7601106e-10
3.8228874e-09
1.6090425e-10
3.7391648e-09
1.4780005e-10
3.6619343e-09
1.3633971e-10
3.5904227e-09
1.2624398e-10
3.5239769e-09
1.1730148e-10
3.4620428e-09
1.0933716e-10
3.4041472e-09
1.0220797e-10
3.3498841e-09
9.5795561e-11
3.2989021e-09
9.0003539e-11
3.2508939e-09
8.4754043e-11
3.2055899e-09
7.9980412e-11
3.1627533e-09
7.5624618e-11
3.1221745e-09
7.1639212e-11
3.0836679e-09
6.7981282e-11
3.047069e-09
6.461353e-11
3.0122297e-09
6.150742e-11
2.9790168e-09
5.8636477e-11
2.9473107e-09
5.5976535e-11
2.9170037e-09
5.3506972e-11
2.8879979e-09
5.1209957e-11
2.8602051e-09
4.9068732e-11
2.8335456e-09
4.7068028e-11
2.8079468e-09
4.5195909e-11
2.7833415e-09
4.3442184e-11
2.7596684e-09
4.1796511e-11
2.7368718e-09
4.0249374e-11
2.7149003e-09
3.8792912e-11
2.6937068e-09
3.7419678e-11
2.673248e-09
3.6122969e-11
2.6534842e-09
3.4895948e-11
2.6343796e-09
3.3732439e-11
2.6159003e-09
3.2628867e-11
2.5980144e-09
3.1581224e-11
2.5806931e-09
3.0584797e-11
2.5639096e-09
2.9635639e-11
2.547639e-09
2.8730301e-11
2.5318581e-09
2.786578e-11
2.5165455e-09
2.7039364e-11
2.5016817e-09
2.6247255e-11
2.4872492e-09
2.5486091e-11
2.4732309e-09
2.4754975e-11
2.4596106e-09
2.4052491e-11
2.4463734e-09
2.3376365e-11
2.4335054e-09
2.2724716e-11
2.4209939e-09
2.2095624e-11
2.4088266e-09
2.1488123e-11
2.396992e-09
2.0900912e-11
2.3854805e-09
2.0330778e-11
2.374283e-09
1.9776398e-11
2.3633899e-09
1.9239296e-11
2.3527917e-09
1.8718847e-11
2.34248e-09
1.8213076e-11
2.3324468e-09
1.7721591e-11
2.3226842e-09
1.7244075e-11
2.3131852e-09
1.6778742e-11
2.3039434e-09
1.632482e-11
2.2949514e-09
1.5883767e-11
2.2862015e-09
1.5456411e-11
2.2776862e-09
1.5042494e-11
2.269398e-09
1.4641391e-11
2.2613303e-09
1.4252004e-11
2.2534762e-09
1.3874957e-11
2.2458271e-09
1.351296e-11
2.2383735e-09
1.3167863e-11
2.2311058e-09
1.2839222e-11
2.2240158e-09
1.2525555e-11
2.2170943e-09
1.2227827e-11
2.2103299e-09
1.1950119e-11
2.2037095e-09
1.169557e-11
2.1972202e-09
1.146392e-11
2.1908518e-09
1.1249948e-11
2.1845982e-09
1.1046891e-11
2.1786981e-09
1.0421861e-11
2.1732334e-09
9.6523002e-12
2.1681344e-09
9.0059987e-12
2.1633463e-09
8.4563838e-12
2.1588212e-09
7.9913532e-12
2.1545207e-09
7.5946321e-12
2.1504142e-09
7.2515409e-12
2.1464762e-09
6.953693e-12
2.1426849e-09
6.6945931e-12
2.1390222e-09
6.4670377e-12
2.1354738e-09
6.2650965e-12
2.1320266e-09
6.0863692e-12
2.1286675e-09
5.930444e-12
2.1253829e-09
5.7988242e-12
2.1221604e-09
5.6891522e-12
2.1189782e-09
5.6177339e-12
2.11583e-09
5.5575356e-12
2.112622e-09
5.6629019e-12
2.1094444e-09
5.6093838e-12
2.1057717e-09
6.4828984e-12
2.10204e-09
6.5879326e-12
2.098077e-09
6.9895971e-12
4.2295317e-12
2.1861214e-06
3.2472698e-11
2.1861014e-06
7.3465156e-11
2.1860771e-06
8.907143e-11
2.1860497e-06
1.004184e-10
2.1860182e-06
1.1574179e-10
2.1859817e-06
1.3397629e-10
2.1859394e-06
1.5516213e-10
2.1858903e-06
1.8016154e-10
2.1858332e-06
2.1005051e-10
2.1857662e-06
2.4610637e-10
2.1856873e-06
2.8999524e-10
2.1855938e-06
3.4414354e-10
2.1854819e-06
4.1187885e-10
2.1853465e-06
4.9900196e-10
2.1851804e-06
6.1215165e-10
2.1849715e-06
7.7038736e-10
2.1847058e-06
9.8018507e-10
2.184343e-06
1.3400767e-09
2.1838665e-06
1.7610475e-09
2.1830694e-06
2.9487627e-09
2.1820525e-06
3.763061e-09
2.1794997e-06
9.4529984e-09
2.1789496e-06
2.0189756e-09
1.1152003e-06
4.0887736e-06
3.4693698e-08
4.1285769e-06
1.6969176e-08
3.8974612e-08
1.2995957e-08
8.7041694e-09
1.1095177e-08
4.1634888e-09
9.9390634e-09
2.5320569e-09
9.1238966e-09
1.7853029e-09
8.5060264e-09
1.3531831e-09
8.0125999e-09
1.0806412e-09
7.6063926e-09
8.8961983e-10
7.2643575e-09
7.490749e-10
6.970819e-09
6.4286295e-10
6.7151002e-09
5.6003497e-10
6.4897063e-09
4.9362152e-10
6.2891189e-09
4.3929408e-10
6.1091302e-09
3.9418219e-10
5.9464707e-09
3.5623102e-10
5.7985682e-09
3.239136e-10
5.6633608e-09
2.9611166e-10
5.5391659e-09
2.7199496e-10
5.4246021e-09
2.5090347e-10
5.3185227e-09
2.3232336e-10
5.2199587e-09
2.1586548e-10
5.1280881e-09
2.0120781e-10
5.042209e-09
1.8808705e-10
4.9617191e-09
1.7628544e-10
4.8860971e-09
1.6562558e-10
4.814887e-09
1.5596416e-10
4.7476889e-09
1.4717852e-10
4.6841516e-09
1.3916188e-10
4.6239639e-09
1.3182688e-10
4.5668506e-09
1.2509457e-10
4.5125679e-09
1.1889631e-10
4.4608957e-09
1.1317957e-10
4.4116366e-09
1.0789562e-10
4.3646131e-09
1.03e-10
4.3196653e-09
9.8454743e-11
4.2766483e-09
9.4227042e-11
4.2354309e-09
9.0286052e-11
4.1958953e-09
8.6603672e-11
4.1579333e-09
8.3157927e-11
4.1214454e-09
7.9930063e-11
4.0863409e-09
7.6901052e-11
4.0525368e-09
7.4053377e-11
4.0199572e-09
7.1372568e-11
3.9885319e-09
6.8844924e-11
3.9581968e-09
6.6458108e-11
3.9288932e-09
6.4199537e-11
3.9005678e-09
6.2057841e-11
3.8731702e-09
6.0026439e-11
3.8466535e-09
5.8097958e-11
3.8209746e-09
5.6263726e-11
3.7960937e-09
5.4516478e-11
3.7719742e-09
5.284987e-11
3.7485816e-09
5.1258372e-11
3.725884e-09
4.9736996e-11
3.7038525e-09
4.8278754e-11
3.6824611e-09
4.6877458e-11
3.6616846e-09
4.5531459e-11
3.641499e-09
4.4238138e-11
3.621882e-09
4.2993334e-11
3.6028131e-09
4.1793589e-11
3.5842734e-09
4.0635352e-11
3.5662446e-09
3.9516863e-11
3.5487098e-09
3.8435723e-11
3.5316546e-09
3.7386019e-11
3.5150657e-09
3.6365324e-11
3.4989285e-09
3.537645e-11
3.4832291e-09
3.4418251e-11
3.4679551e-09
3.3487091e-11
3.4530944e-09
3.2582256e-11
3.4386353e-09
3.1703172e-11
3.4245675e-09
3.0846541e-11
3.4108814e-09
3.0010952e-11
3.3975661e-09
2.9199117e-11
3.3846099e-09
2.8412561e-11
3.3720016e-09
2.76508e-11
3.3597303e-09
2.6912694e-11
3.3477861e-09
2.6196222e-11
3.3361585e-09
2.5502542e-11
3.3248348e-09
2.4836679e-11
3.3138006e-09
2.4202037e-11
3.303042e-09
2.3597786e-11
3.2925464e-09
2.3021184e-11
3.2823002e-09
2.2474021e-11
3.2722865e-09
2.1963861e-11
3.2624856e-09
2.1496485e-11
3.2528781e-09
2.1071394e-11
3.2434491e-09
2.0678948e-11
3.2341891e-09
2.0306857e-11
3.2254516e-09
1.9159412e-11
3.2173576e-09
1.7746262e-11
3.2098041e-09
1.6559522e-11
3.2027101e-09
1.5550338e-11
3.196005e-09
1.4696471e-11
3.1896316e-09
1.3968003e-11
3.1835452e-09
1.3337974e-11
3.1777079e-09
1.2791037e-11
3.1720872e-09
1.2315283e-11
3.1666568e-09
1.1897445e-11
3.1613952e-09
1.1526603e-11
3.1562832e-09
1.119839e-11
3.1513016e-09
1.0912086e-11
3.1464299e-09
1.0670473e-11
3.1416499e-09
1.0469186e-11
3.1369294e-09
1.0338253e-11
3.132259e-09
1.0227899e-11
3.1274995e-09
1.0422386e-11
3.1227847e-09
1.0324256e-11
3.1173347e-09
1.1932814e-11
3.1117972e-09
1.212549e-11
3.1059127e-09
1.2874071e-11
7.7752515e-12
2.3101081e-06
4.2068049e-11
2.3100863e-06
9.5221169e-11
2.3100599e-06
1.1549023e-10
2.3100301e-06
1.3020741e-10
2.3099958e-06
1.5007358e-10
2.3099561e-06
1.7370158e-10
2.3099101e-06
2.0113988e-10
2.3098567e-06
2.3350645e-10
2.3097946e-06
2.7219433e-10
2.3097219e-06
3.1885448e-10
2.3096362e-06
3.7563941e-10
2.3095347e-06
4.4568432e-10
2.3094133e-06
5.3328779e-10
2.3092663e-06
6.4594505e-10
2.3090862e-06
7.9222657e-10
2.3088599e-06
9.9676041e-10
2.3085722e-06
1.2678681e-09
2.3081794e-06
1.7328697e-09
2.3076639e-06
2.2765247e-09
2.3068023e-06
3.8103569e-09
2.3057034e-06
4.8619595e-09
2.3029464e-06
1.220998e-08
2.302348e-06
2.6173811e-09
1.1864047e-06
5.2047169e-06
4.7951752e-08
5.2670299e-06
2.35051e-08
6.3421264e-08
1.7999982e-08
1.4209288e-08
1.5365894e-08
6.797577e-09
1.3763445e-08
4.1345057e-09
1.2633543e-08
2.9152048e-09
1.1777087e-08
2.2096396e-09
1.1093122e-08
1.7646063e-09
1.053005e-08
1.4526914e-09
1.0055927e-08
1.2231978e-09
9.6490259e-09
1.0497641e-09
9.2945483e-09
9.1451258e-10
8.9821059e-09
8.060639e-10
8.7040498e-09
7.1735022e-10
8.4545478e-09
6.4368423e-10
8.2290681e-09
5.8171068e-10
8.0240453e-09
5.2893637e-10
7.8366216e-09
4.8353535e-10
7.6644647e-09
4.4415187e-10
7.5056598e-09
4.097084e-10
7.3586172e-09
3.7936598e-10
7.2219937e-09
3.5248896e-10
7.0946498e-09
3.2855168e-10
6.9756127e-09
3.0712421e-10
6.8640471e-09
2.8785095e-10
6.7592305e-09
2.7044219e-10
6.6605308e-09
2.5466392e-10
6.5673935e-09
2.4031583e-10
6.4793317e-09
2.2722359e-10
6.3959141e-09
2.152445e-10
6.3167591e-09
2.0424962e-10
6.2415285e-09
1.941269e-10
6.1699175e-09
1.8479051e-10
6.1016523e-09
1.761609e-10
6.0364868e-09
1.6816545e-10
5.9741994e-09
1.6074216e-10
5.914589e-09
1.5383744e-10
5.8574741e-09
1.4740094e-10
5.802691e-09
1.4138675e-10
5.75009e-09
1.3575898e-10
5.699533e-09
1.30487e-10
5.6508943e-09
1.2553974e-10
5.6040591e-09
1.2088861e-10
5.5589217e-09
1.1650994e-10
5.5153853e-09
1.1238139e-10
5.4733606e-09
1.0848281e-10
5.4327665e-09
1.0479364e-10
5.393529e-09
1.0129531e-10
5.3555784e-09
9.7977063e-11
5.3188494e-09
9.4826876e-11
5.2832826e-09
9.1830584e-11
5.2488227e-09
8.8976326e-11
5.2154189e-09
8.6253738e-11
5.1830235e-09
8.3653792e-11
5.1515921e-09
8.1168348e-11
5.1210849e-09
7.8785997e-11
5.0914657e-09
7.649663e-11
5.0626996e-09
7.429756e-11
5.0347532e-09
7.2184488e-11
5.0075959e-09
7.0150659e-11
4.9811991e-09
6.8190437e-11
4.9555364e-09
6.6297992e-11
4.9305828e-09
6.447048e-11
4.9063146e-09
6.270398e-11
4.8827117e-09
6.0988834e-11
4.859756e-09
5.9321091e-11
4.8374271e-09
5.7705368e-11
4.8157055e-09
5.6139791e-11
4.7945742e-09
5.4618427e-11
4.7740163e-09
5.3140128e-11
4.7540155e-09
5.1703964e-11
4.7345575e-09
5.0304536e-11
4.7156289e-09
4.8939563e-11
4.6972145e-09
4.7613533e-11
4.6792981e-09
4.6328933e-11
4.661864e-09
4.508496e-11
4.6448969e-09
4.3879767e-11
4.6283831e-09
4.2710049e-11
4.6123079e-09
4.1577732e-11
4.5966535e-09
4.0491096e-11
4.5813998e-09
3.9455702e-11
4.5665274e-09
3.8470155e-11
4.5520187e-09
3.7529946e-11
4.5378546e-09
3.6638046e-11
4.5240116e-09
3.580691e-11
4.5104621e-09
3.5045986e-11
4.4971791e-09
3.4354406e-11
4.4841416e-09
3.371638e-11
4.4713363e-09
3.3112156e-11
4.4592514e-09
3.1244341e-11
4.4480544e-09
2.8943234e-11
4.437603e-09
2.701095e-11
4.4277856e-09
2.5367801e-11
4.4185045e-09
2.3977558e-11
4.4096811e-09
2.2791414e-11
4.4012535e-09
2.1765485e-11
4.3931697e-09
2.0874888e-11
4.3853847e-09
2.0100262e-11
4.3778622e-09
1.9419915e-11
4.3705728e-09
1.8816018e-11
4.3634897e-09
1.8281542e-11
4.3565864e-09
1.7815396e-11
4.3498347e-09
1.7422142e-11
4.3432093e-09
1.7094603e-11
4.3366657e-09
1.688186e-11
4.330191e-09
1.6702601e-11
4.3235919e-09
1.7021452e-11
4.317054e-09
1.6862131e-11
4.3094959e-09
1.9490908e-11
4.3018154e-09
1.980601e-11
4.2936509e-09
2.1038597e-11
1.2690975e-11
2.4685206e-06
5.2635706e-11
2.4684966e-06
1.1920842e-10
2.4684675e-06
1.4464165e-10
2.4684346e-06
1.6308029e-10
2.4683967e-06
1.8795781e-10
2.4683529e-06
2.175293e-10
2.4683022e-06
2.5185031e-10
2.4682434e-06
2.9232098e-10
2.4681749e-06
3.4068304e-10
2.4680947e-06
3.9899694e-10
2.4680004e-06
4.6994786e-10
2.4678887e-06
5.5744727e-10
2.4677551e-06
6.6685683e-10
2.4675935e-06
8.0752759e-10
2.4673956e-06
9.9014184e-10
2.4671469e-06
1.2454276e-09
2.4668311e-06
1.5837033e-09
2.4664001e-06
2.1638235e-09
2.4658349e-06
2.8417047e-09
2.4648911e-06
4.7541962e-09
2.4636876e-06
6.0654294e-09
2.4606703e-06
1.522736e-08
2.4600101e-06
3.2775739e-09
1.2767302e-06
6.3879967e-06
6.4000277e-08
6.4797599e-06
3.144323e-08
9.5978311e-08
2.407616e-08
2.1576358e-08
2.0550496e-08
1.0323241e-08
1.8405161e-08
6.2798399e-09
1.6892421e-08
4.4279447e-09
1.5745729e-08
3.3563315e-09
1.4829971e-08
2.6803647e-09
1.4076067e-08
2.2065955e-09
1.3441249e-08
1.8580159e-09
1.289643e-08
1.5945828e-09
1.24218e-08
1.3891427e-09
1.2003451e-08
1.2244128e-09
1.1631143e-08
1.0896584e-09
1.1297067e-08
9.7775968e-10
1.0995158e-08
8.8362032e-10
1.0720641e-08
8.0345367e-10
1.0469689e-08
7.3448648e-10
1.0239182e-08
6.7465936e-10
1.0026554e-08
6.2233605e-10
9.829678e-09
5.7624223e-10
9.6467547e-09
5.3541225e-10
9.4762585e-09
4.9904785e-10
9.3168867e-09
4.6649602e-10
9.1675211e-09
4.3721661e-10
9.0271938e-09
4.1076949e-10
8.8950584e-09
3.8679926e-10
8.7703726e-09
3.6500162e-10
8.6524844e-09
3.4511179e-10
8.540816e-09
3.2691295e-10
8.4348564e-09
3.1020922e-10
8.3341528e-09
2.9483046e-10
8.2382971e-09
2.8064619e-10
8.1469224e-09
2.675356e-10
8.0596995e-09
2.5538837e-10
7.9763314e-09
2.441103e-10
7.8965488e-09
2.3362e-10
7.8201088e-09
2.2384097e-10
7.7467921e-09
2.1470346e-10
7.6763981e-09
2.0615292e-10
7.6087423e-09
1.9814283e-10
7.543656e-09
1.9062602e-10
7.4809856e-09
1.8355901e-10
7.4205897e-09
1.7690589e-10
7.3623384e-09
1.7063267e-10
7.3061124e-09
1.6470878e-10
7.2518031e-09
1.5910298e-10
7.1993114e-09
1.5378704e-10
7.1485438e-09
1.4874462e-10
7.0994132e-09
1.4395746e-10
7.0518397e-09
1.3940405e-10
7.0057497e-09
1.3506638e-10
6.9610747e-09
1.3092869e-10
6.9177512e-09
1.2697729e-10
6.8757198e-09
1.231998e-10
6.8349269e-09
1.195789e-10
6.7953243e-09
1.1609923e-10
6.7568651e-09
1.1275673e-10
6.7195048e-09
1.0954482e-10
6.6832022e-09
1.064533e-10
6.6479189e-09
1.0347365e-10
6.61362e-09
1.0059695e-10
6.5802715e-09
9.7818931e-11
6.5478419e-09
9.5133633e-11
6.5163043e-09
9.2526375e-11
6.4856342e-09
8.9991189e-11
6.4558045e-09
8.7535132e-11
6.4267889e-09
8.5155357e-11
6.3985645e-09
8.2842851e-11
6.3711087e-09
8.0595912e-11
6.3443995e-09
7.8413138e-11
6.3184178e-09
7.6286292e-11
6.2931454e-09
7.4211971e-11
6.2685618e-09
7.21971e-11
6.2446453e-09
7.0245449e-11
6.2213745e-09
6.8355774e-11
6.1987289e-09
6.6525291e-11
6.17669e-09
6.474897e-11
6.1552379e-09
6.302982e-11
6.1343485e-09
6.1380551e-11
6.1139946e-09
5.9809611e-11
6.0941499e-09
5.8314803e-11
6.0747907e-09
5.6889216e-11
6.0558912e-09
5.5537468e-11
6.0374195e-09
5.4278672e-11
6.0193383e-09
5.3127182e-11
6.0016111e-09
5.2081576e-11
5.9842097e-09
5.1117791e-11
5.9671154e-09
5.0206413e-11
5.9509794e-09
4.7380423e-11
5.9360252e-09
4.3897378e-11
5.9220633e-09
4.0972882e-11
5.908945e-09
3.8486059e-11
5.8965406e-09
3.6382012e-11
5.8847453e-09
3.4586719e-11
5.873477e-09
3.303379e-11
5.8626661e-09
3.1685768e-11
5.8522529e-09
3.0513394e-11
5.8421892e-09
2.9483659e-11
5.8324357e-09
2.8569505e-11
5.8229568e-09
2.776045e-11
5.8137172e-09
2.705499e-11
5.8046793e-09
2.6460087e-11
5.7958091e-09
2.5964743e-11
5.7870474e-09
2.5643625e-11
5.7783768e-09
2.5373153e-11
5.7695383e-09
2.585994e-11
5.7607806e-09
2.5619805e-11
5.7506547e-09
2.96169e-11
5.7403628e-09
3.0097877e-11
5.7294199e-09
3.1981438e-11
1.9276666e-11
2.6637196e-06
6.4422266e-11
2.6636928e-06
1.4599549e-10
2.6636602e-06
1.7722446e-10
2.6636235e-06
1.9982598e-10
2.6635811e-06
2.3030305e-10
2.6635322e-06
2.6650812e-10
2.6634755e-06
3.0850222e-10
2.6634098e-06
3.5800076e-10
2.6633334e-06
4.1713379e-10
2.663244e-06
4.8841616e-10
2.6631388e-06
5.751235e-10
2.6630142e-06
6.8202798e-10
2.6628654e-06
8.1566928e-10
2.6626855e-06
9.8745612e-10
2.6624652e-06
1.2104074e-09
2.6621886e-06
1.5220151e-09
2.6618375e-06
1.9347824e-09
2.6613588e-06
2.6425309e-09
2.6607315e-06
3.4690555e-09
2.6596848e-06
5.8008466e-09
2.6583506e-06
7.3996042e-09
2.655008e-06
1.8570016e-08
2.6542701e-06
4.0154626e-09
1.3880031e-06
7.6542637e-06
8.3772759e-08
7.7839902e-06
4.1256702e-08
1.3849437e-07
3.1585857e-08
3.1247204e-08
2.6956696e-08
1.4952402e-08
2.4139145e-08
9.0973911e-09
2.2152336e-08
6.4147537e-09
2.0646212e-08
4.8624548e-09
1.9443388e-08
3.883189e-09
1.845314e-08
3.1968441e-09
1.7619296e-08
2.6918594e-09
1.6903658e-08
2.3102209e-09
1.6280209e-08
2.0125915e-09
1.5730685e-08
1.7739374e-09
1.5241635e-08
1.578708e-09
1.4802806e-08
1.4165886e-09
1.440623e-08
1.2801966e-09
1.4045637e-08
1.1640466e-09
1.3716002e-08
1.0641213e-09
1.3413224e-08
9.7743722e-10
1.3133936e-08
9.0162441e-10
1.2875341e-08
8.3483705e-10
1.2635078e-08
7.7567573e-10
1.2411141e-08
7.2298434e-10
1.220182e-08
6.7581691e-10
1.2005646e-08
6.3339087e-10
1.1821347e-08
5.9506851e-10
1.1647811e-08
5.6033493e-10
1.1484064e-08
5.2874929e-10
1.1329247e-08
4.9992799e-10
1.1182603e-08
4.735568e-10
1.1043461e-08
4.4935194e-10
1.0911224e-08
4.2706694e-10
1.0785358e-08
4.0651263e-10
1.0665379e-08
3.8751403e-10
1.0550857e-08
3.6991126e-10
1.0441399e-08
3.5356785e-10
1.0336653e-08
3.3836585e-10
1.02363e-08
3.2419442e-10
1.0140051e-08
3.1095248e-10
1.0047643e-08
2.9856094e-10
9.958833e-09
2.8695245e-10
9.8734004e-09
2.7605863e-10
9.7911429e-09
2.6581651e-10
9.7118748e-09
2.5617399e-10
9.6354256e-09
2.4708189e-10
9.5616385e-09
2.3849591e-10
9.4903707e-09
2.3037075e-10
9.4214923e-09
2.2266549e-10
9.3548804e-09
2.1535646e-10
9.2904207e-09
2.0841722e-10
9.2280081e-09
2.0181662e-10
9.1675459e-09
1.9552855e-10
9.1089444e-09
1.8953019e-10
9.05212e-09
1.8380168e-10
8.9969947e-09
1.7832513e-10
8.9434982e-09
1.7307544e-10
8.891567e-09
1.6803035e-10
8.8411398e-09
1.6318397e-10
8.7921579e-09
1.5852675e-10
8.7445672e-09
1.54044e-10
8.6983174e-09
1.4972339e-10
8.6533624e-09
1.4555196e-10
8.6096578e-09
1.4152359e-10
8.5671618e-09
1.3762962e-10
8.5258394e-09
1.3384878e-10
8.4856581e-09
1.3017247e-10
8.4465822e-09
1.2661101e-10
8.4085773e-09
1.2316026e-10
8.371613e-09
1.1980717e-10
8.3356596e-09
1.1654934e-10
8.3006879e-09
1.1338475e-10
8.2666728e-09
1.1030142e-10
8.2335903e-09
1.0729452e-10
8.2014131e-09
1.0437428e-10
8.1701124e-09
1.0154614e-10
8.1396599e-09
9.8808259e-11
8.1100286e-09
9.6156637e-11
8.0811936e-09
9.3583967e-11
8.0531286e-09
9.1094771e-11
8.0258015e-09
8.8707689e-11
7.9991761e-09
8.6434963e-11
7.9732177e-09
8.427326e-11
7.9478944e-09
8.2212462e-11
7.9231724e-09
8.0259457e-11
7.8990088e-09
7.8442278e-11
7.8753543e-09
7.6781706e-11
7.8521604e-09
7.5275501e-11
7.8293895e-09
7.3888677e-11
7.8070163e-09
7.2579646e-11
7.7858916e-09
6.8505091e-11
7.7663084e-09
6.3480545e-11
7.7480191e-09
5.9262247e-11
7.7308298e-09
5.5675369e-11
7.7145712e-09
5.2640605e-11
7.699107e-09
5.0050916e-11
7.6843302e-09
4.7810612e-11
7.6701499e-09
4.5866027e-11
7.6564883e-09
4.4175009e-11
7.6432823e-09
4.2689638e-11
7.630481e-09
4.137076e-11
7.6180379e-09
4.0203546e-11
7.6059069e-09
3.918608e-11
7.5940385e-09
3.8328493e-11
7.5823885e-09
3.7614683e-11
7.5708791e-09
3.7153045e-11
7.5594878e-09
3.676442e-11
7.5478737e-09
3.7474073e-11
7.5363639e-09
3.7129554e-11
7.5230531e-09
4.2927752e-11
7.509521e-09
4.3629933e-11
7.4951309e-09
4.6371557e-11
2.7935052e-11
2.898614e-06
7.772057e-11
2.8985837e-06
1.7625959e-10
2.8985469e-06
2.1407281e-10
2.8985053e-06
2.4138642e-10
2.8984574e-06
2.7819396e-10
2.898402e-06
3.2188941e-10
2.898338e-06
3.7253713e-10
2.8982638e-06
4.3220878e-10
2.8981774e-06
5.0347191e-10
2.8980765e-06
5.8935121e-10
2.8979578e-06
6.937841e-10
2.8978174e-06
8.2250765e-10
2.8976497e-06
9.8338145e-10
2.897447e-06
1.190121e-09
2.897199e-06
1.4583588e-09
2.8968879e-06
1.8331708e-09
2.8964932e-06
2.3294728e-09
2.8959554e-06
3.1802915e-09
2.8952513e-06
4.173239e-09
2.8940777e-06
6.9744357e-09
2.8925821e-06
8.8951236e-09
2.8888383e-06
2.2313852e-08
2.8880037e-06
4.8500922e-09
1.5224666e-06
9.0198008e-06
1.0841375e-07
9.1980431e-06
5.3530198e-08
1.9337792e-07
4.0975432e-08
4.380197e-08
3.496441e-08
2.0963424e-08
3.1304681e-08
1.2757121e-08
2.8723902e-08
8.9955321e-09
2.6767397e-08
6.81896e-09
2.5204854e-08
5.4457325e-09
2.3918436e-08
4.4832621e-09
2.283518e-08
3.7751148e-09
2.1905471e-08
3.2399302e-09
2.1095518e-08
2.822544e-09
2.0381599e-08
2.4878569e-09
1.9746243e-08
2.2140642e-09
1.9176131e-08
1.9867007e-09
1.8660913e-08
1.795414e-09
1.8192447e-08
1.6325129e-09
1.7764204e-08
1.492364e-09
1.7370857e-08
1.3707839e-09
1.7008032e-08
1.2644497e-09
1.6672096e-08
1.170773e-09
1.6359981e-08
1.0877913e-09
1.6069081e-08
1.0138835e-09
1.5797175e-08
9.4772337e-10
1.5542353e-08
8.8821323e-10
1.5302962e-08
8.3445865e-10
1.507756e-08
7.8573759e-10
1.4864877e-08
7.4143182e-10
1.4663802e-08
7.0100339e-10
1.4473347e-08
6.6401144e-10
1.4292641e-08
6.3005799e-10
1.4120911e-08
5.9879743e-10
1.3957459e-08
5.6996426e-10
1.380166e-08
5.4331315e-10
1.3652951e-08
5.1861984e-10
1.3510826e-08
4.9569287e-10
1.3374825e-08
4.7436682e-10
1.3244533e-08
4.5448624e-10
1.3119577e-08
4.359093e-10
1.2999613e-08
4.1852501e-10
1.2884326e-08
4.0223893e-10
1.277343e-08
3.8695519e-10
1.2666661e-08
3.7258544e-10
1.2563778e-08
3.5905658e-10
1.246456e-08
3.4629963e-10
1.2368804e-08
3.342525e-10
1.2276323e-08
3.2285161e-10
1.2186949e-08
3.1203956e-10
1.2100522e-08
3.0178308e-10
1.2016894e-08
2.9204518e-10
1.1935929e-08
2.8278216e-10
1.18575e-08
2.739574e-10
1.1781491e-08
2.6553889e-10
1.1707794e-08
2.5749879e-10
1.1636307e-08
2.4981203e-10
1.1566939e-08
2.4244342e-10
1.1499608e-08
2.3536169e-10
1.1434233e-08
2.2855864e-10
1.1370739e-08
2.2202082e-10
1.1309055e-08
2.1572774e-10
1.1249116e-08
2.0966219e-10
1.1190863e-08
2.038059e-10
1.1134236e-08
1.9815037e-10
1.1079182e-08
1.9268346e-10
1.1025655e-08
1.873753e-10
1.0973614e-08
1.8221395e-10
1.0923011e-08
1.7721402e-10
1.0873802e-08
1.7236967e-10
1.0825946e-08
1.6766261e-10
1.0779406e-08
1.6308961e-10
1.0734143e-08
1.5864785e-10
1.0690124e-08
1.5432042e-10
1.0647317e-08
1.5010075e-10
1.0605688e-08
1.4600351e-10
1.0565198e-08