/*--------------------------------*- C++ -*----------------------------------*\
| =========                 |                                                 |
| \\      /  F ield         | OpenFOAM: The Open Source CFD Toolbox           |
|  \\    /   O peration     | Version:  2206                                  |
|   \\  /    A nd           | Website:  www.openfoam.com                      |
|    \\/     M anipulation  |                                                 |
\*---------------------------------------------------------------------------*/
FoamFile
{
    version     2.0;
    format      ascii;
    arch        "LSB;label=32;scalar=64";
    class       volVectorField;
    location    "200";
    object      U;
}
// * * * * * * * * * * * * * * * * * * * * * * * * * * * * * * * * * * * * * //

dimensions      [0 1 -1 0 0 0 0];

internalField   nonuniform List<vector> 
13056
(
(1 9.3569528e-11 4.9643043e-25)
(0.99999291 2.3968882e-10 0)
(0.99998314 3.2944683e-10 0)
(0.99997234 4.2133737e-10 0)
(0.99995998 5.507995e-10 0)
(0.99994566 7.2296866e-10 0)
(0.99992908 9.490646e-10 0)
(0.99990986 1.2482691e-09 0)
(0.99988749 1.6470736e-09 0)
(0.99986135 2.1814377e-09 0)
(0.99983063 2.9012321e-09 0)
(0.99979432 3.8784649e-09 0)
(0.99975104 5.2161155e-09 0)
(0.999699 7.0792212e-09 0)
(0.9996355 9.6906838e-09 0)
(0.99955716 1.3542989e-08 0)
(0.99945694 1.902111e-08 0)
(0.99932962 2.8500466e-08 0)
(0.99914618 4.0691536e-08 0)
(0.99891924 7.3288515e-08 0)
(0.99846281 9.932726e-08 0)
(0.99803616 2.6156691e-07 0)
(0.9962702 5.8225495e-08 -5.372808e-21)
(0.99753179 0.0001243356 8.997718e-18)
(0.0031753375 0.00012467936 0)
(0.0012509979 7.3589181e-08 -1.2623747e-20)
(0.00090144279 4.7616492e-08 4.0496585e-18)
(0.00074762792 6.0882412e-09 0)
(0.00066062044 3.7002291e-09 0)
(0.00060117145 2.5890175e-09 0)
(0.00055734307 1.9496895e-09 0)
(0.00052288462 1.5449334e-09 0)
(0.00049481876 1.2605319e-09 0)
(0.0004714104 1.0517478e-09 0)
(0.0004514752 8.9423993e-10 0)
(0.00043421141 7.7136339e-10 0)
(0.0004190682 6.7286883e-10 0)
(0.00040564693 5.9237587e-10 0)
(0.00039364705 5.2559447e-10 0)
(0.00038283593 4.6946198e-10 0)
(0.0003730319 4.2171199e-10 0)
(0.00036409068 3.8066962e-10 1.7972509e-26)
(0.00035589528 3.4516208e-10 0)
(0.00034834944 3.1413619e-10 -2.1423133e-26)
(0.0003413744 2.8683082e-10 0)
(0.00033490362 2.6273832e-10 0)
(0.00032888083 2.4131936e-10 0)
(0.00032325814 2.2219944e-10 0)
(0.00031799452 2.0505225e-10 0)
(0.00031305467 1.8961042e-10 0)
(0.00030840783 1.7525838e-10 0)
(0.000304027 1.6123736e-10 0)
(0.0002998885 1.3934508e-10 0)
(0.0002959715 5.3256385e-10 -4.3806822e-20)
(0.0002922574 1.3146009e-10 0)
(0.00028872994 1.2267396e-10 0)
(0.00028537446 1.14602e-10 0)
(0.00028217777 1.0717192e-10 0)
(0.00027912802 1.0031723e-10 0)
(0.00027621457 9.3980819e-11 0)
(0.0002734278 8.8113555e-11 0)
(0.00027075896 8.2670352e-11 0)
(0.0002682002 7.7609475e-11 0)
(0.00026574441 7.2897195e-11 0)
(0.000263385 6.8505532e-11 0)
(0.00026111595 6.4406748e-11 0)
(0.00025893178 6.0575281e-11 0)
(0.00025682747 5.6989097e-11 0)
(0.00025479838 5.3628787e-11 0)
(0.0002528403 5.0476843e-11 0)
(0.00025094928 4.751537e-11 0)
(0.00024912184 4.4728574e-11 0)
(0.00024735471 4.2105478e-11 0)
(0.00024564478 3.9635507e-11 0)
(0.00024398919 3.7307066e-11 0)
(0.00024238534 3.5110026e-11 0)
(0.0002408308 3.3035503e-11 0)
(0.00023932334 3.1075599e-11 0)
(0.00023786084 2.9223411e-11 0)
(0.00023644136 2.7470732e-11 0)
(0.00023506319 2.581013e-11 0)
(0.00023372473 2.4237231e-11 0)
(0.00023242439 2.2748685e-11 0)
(0.00023116072 2.1339767e-11 0)
(0.00022993235 2.000492e-11 0)
(0.00022873805 1.8740286e-11 0)
(0.00022757664 1.7543161e-11 0)
(0.000226447 1.6409704e-11 0)
(0.00022534811 1.5334525e-11 0)
(0.00022427916 1.4315621e-11 0)
(0.00022323927 1.3353249e-11 0)
(0.00022222749 1.2444493e-11 0)
(0.00022124301 1.1585913e-11 0)
(0.00022028507 1.0776129e-11 0)
(0.0002193529 1.0012904e-11 0)
(0.0002184458 9.2926562e-12 0)
(0.00021756318 8.6145394e-12 0)
(0.0002167044 7.9791819e-12 0)
(0.00021586874 7.3847894e-12 0)
(0.00021505547 6.8291083e-12 0)
(0.00021426388 6.3098476e-12 0)
(0.00021349333 5.8245321e-12 0)
(0.00021274322 5.3730755e-12 0)
(0.00021201284 4.9561034e-12 0)
(0.00021130129 4.5721739e-12 0)
(0.00021060768 4.2178947e-12 0)
(0.00020993116 3.8901849e-12 0)
(0.00020927098 3.5887868e-12 0)
(0.0002086262 3.3146015e-12 0)
(0.00020799564 3.0659777e-12 0)
(0.00020737801 2.839737e-12 0)
(0.00020677215 2.6318703e-12 0)
(0.00020617738 2.4421095e-12 0)
(0.00020560635 2.2792295e-12 0)
(0.00020507298 2.1471815e-12 0)
(0.00020457685 2.0381176e-12 0)
(0.00020411252 1.9457762e-12 0)
(0.00020367511 1.8676437e-12 0)
(0.00020326048 1.8001971e-12 0)
(0.00020286545 1.7413478e-12 0)
(0.00020248747 1.6907635e-12 0)
(0.00020212427 1.6473041e-12 0)
(0.00020177396 1.6087813e-12 0)
(0.00020143507 1.5740153e-12 0)
(0.00020110634 1.5435027e-12 0)
(0.00020078655 1.5179082e-12 0)
(0.00020047447 1.4977012e-12 0)
(0.00020016874 1.4817698e-12 0)
(0.0001998684 1.4755282e-12 0)
(0.00019957031 1.4710655e-12 0)
(0.00019927641 1.5157336e-12 0)
(0.00019896711 1.5133321e-12 0)
(0.000198679 1.7760003e-12 0)
(0.00019827651 6.4491842e-12 0)
(0.00019797774 1.8869903e-12 3.817791e-24)
(0.00019753036 4.1872347e-12 0)
(1 2.8529063e-10 0)
(0.99999276 7.3201039e-10 0)
(0.99998276 1.0064058e-09 0)
(0.99997172 1.2871502e-09 0)
(0.99995907 1.6826238e-09 0)
(0.99994443 2.2084109e-09 0)
(0.99992747 2.8986815e-09 0)
(0.99990782 3.8119458e-09 0)
(0.99988496 5.0289862e-09 0)
(0.99985825 6.6594089e-09 0)
(0.99982688 8.8551862e-09 0)
(0.99978979 1.1835724e-08 0)
(0.99974562 1.5914737e-08 0)
(0.99969252 2.1594959e-08 0)
(0.99962774 2.955511e-08 0)
(0.99954785 4.129516e-08 0)
(0.9994457 5.7985738e-08 0)
(0.99931597 8.686122e-08 0)
(0.99912915 1.2398309e-07 0)
(0.99889815 2.2322559e-07 0)
(0.9984338 3.0250393e-07 0)
(0.99799978 7.9647305e-07 0)
(0.99620409 1.7384872e-07 1.9949483e-20)
(0.99748457 0.00037368341 -7.8665422e-21)
(0.0095369153 0.0003752064 0)
(0.0037712762 1.2252094e-06 0)
(0.0027175145 2.6658424e-07 2.7374295e-22)
(0.0022537878 1.245496e-07 0)
(0.0019914127 7.5040562e-08 0)
(0.0018121424 5.2427117e-08 0)
(0.0016799728 3.9364409e-08 0)
(0.001576061 3.1134812e-08 0)
(0.0014914266 2.5379213e-08 0)
(0.0014208369 2.1154069e-08 0)
(0.0013607208 1.7966657e-08 0)
(0.0013086607 1.5485738e-08 0)
(0.0012629953 1.3500938e-08 0)
(0.0012225227 1.1881228e-08 0)
(0.0011863363 1.0539535e-08 0)
(0.0011537348 9.4135993e-09 0)
(0.0011241703 8.4573072e-09 0)
(0.0010972078 7.6368768e-09 -2.2129154e-25)
(0.0010724943 6.9271166e-09 2.1835037e-24)
(0.0010497398 6.3081965e-09 2.344508e-24)
(0.0010287065 5.7646376e-09 0)
(0.001009194 5.28458e-09 0)
(0.00099103242 4.8583567e-09 0)
(0.00097407746 4.4780264e-09 0)
(0.00095820535 4.1370551e-09 0)
(0.00094330965 3.830111e-09 0)
(0.00092929758 3.5530402e-09 0)
(0.0009160877 3.3025253e-09 0)
(0.00090360863 3.0810986e-09 0)
(0.00089179757 2.8969167e-09 0)
(0.00088059838 2.6743468e-09 0)
(0.00086996205 2.499655e-09 0)
(0.00085984439 2.3391482e-09 0)
(0.00085020557 2.1913623e-09 0)
(0.0008410099 2.0549826e-09 0)
(0.00083222531 1.92888e-09 0)
(0.00082382273 1.8120735e-09 0)
(0.00081577581 1.7036621e-09 0)
(0.00080806087 1.6028376e-09 0)
(0.00080065647 1.5089398e-09 0)
(0.00079354275 1.421394e-09 0)
(0.00078670154 1.3396456e-09 0)
(0.00078011632 1.263192e-09 0)
(0.00077377197 1.1916054e-09 0)
(0.00076765447 1.1244889e-09 0)
(0.00076175111 1.0614862e-09 0)
(0.00075605004 1.0022549e-09 0)
(0.00075054072 9.46488e-10 0)
(0.00074521329 8.9396516e-10 0)
(0.00074005837 8.4446264e-10 0)
(0.00073506737 7.9774887e-10 0)
(0.00073023242 7.536239e-10 0)
(0.00072554622 7.1190998e-10 0)
(0.000721002 6.7244867e-10 0)
(0.00071659341 6.3509592e-10 0)
(0.00071231457 5.9968991e-10 0)
(0.00070816035 5.6608819e-10 0)
(0.00070412593 5.3421025e-10 0)
(0.00070020649 5.0396582e-10 -2.3369763e-25)
(0.00069639762 4.7525003e-10 0)
(0.00069269528 4.4797395e-10 0)
(0.00068909569 4.2205162e-10 0)
(0.00068559535 3.9741813e-10 0)
(0.00068219083 3.7400648e-10 0)
(0.00067887904 3.5171988e-10 0)
(0.0006756576 3.3049965e-10 0)
(0.00067252383 3.1033586e-10 0)
(0.00066947485 2.9118291e-10 0)
(0.0006665082 2.7297644e-10 0)
(0.00066362163 2.556788e-10 0)
(0.00066081281 2.3925504e-10 0)
(0.00065807957 2.2365199e-10 0)
(0.00065542018 2.08832e-10 0)
(0.00065283271 1.9478599e-10 0)
(0.00065031495 1.8149624e-10 0)
(0.00064786472 1.6893149e-10 0)
(0.00064547988 1.5705704e-10 0)
(0.00064315847 1.4583508e-10 0)
(0.00064089869 1.3524588e-10 0)
(0.00063869836 1.2528779e-10 0)
(0.00063655483 1.1594842e-10 0)
(0.00063446533 1.0719428e-10 0)
(0.00063242735 9.8984817e-11 0)
(0.00063043859 9.1299394e-11 0)
(0.00062849622 8.4137806e-11 0)
(0.00062659662 7.7489414e-11 0)
(0.00062473597 7.1319085e-11 0)
(0.00062291075 6.5564347e-11 0)
(0.00062111883 6.0160065e-11 0)
(0.00061939837 5.5288504e-11 0)
(0.00061779123 5.1172688e-11 0)
(0.00061629621 4.7714551e-11 0)
(0.00061489693 4.4773391e-11 0)
(0.00061357868 4.2284885e-11 0)
(0.00061232896 4.0162626e-11 0)
(0.0006111383 3.8327868e-11 0)
(0.00060999892 3.6734692e-11 0)
(0.00060890405 3.5348252e-11 0)
(0.000607848 3.4130882e-11 0)
(0.00060682631 3.3051172e-11 0)
(0.00060583521 3.2095436e-11 0)
(0.000604871 3.1260754e-11 0)
(0.00060393005 3.0554915e-11 0)
(0.00060300817 2.9966001e-11 0)
(0.0006021025 2.9578991e-11 0)
(0.00060120361 2.9252405e-11 0)
(0.00060031734 2.9792527e-11 0)
(0.0005993846 2.9502495e-11 0)
(0.0005985157 3.4071259e-11 0)
(0.00059730201 3.5119624e-11 0)
(0.00059640083 3.6643983e-11 -5.998215e-24)
(0.00059505142 2.2654742e-11 1.3134137e-24)
(1 4.857297e-10 0)
(0.99999259 1.2465005e-09 0)
(0.99998235 1.714221e-09 0)
(0.99997103 2.1924763e-09 0)
(0.99995807 2.8660698e-09 0)
(0.99994306 3.7613921e-09 0)
(0.99992568 4.9364789e-09 0)
(0.99990556 6.4908509e-09 0)
(0.99988215 8.561875e-09 0)
(0.9998548 1.1335856e-08 0)
(0.99982269 1.5071053e-08 0)
(0.99978476 2.0140282e-08 0)
(0.99973958 2.7076509e-08 0)
(0.9996853 3.6733778e-08 0)
(0.9996191 5.0264648e-08 0)
(0.9995375 7.0216877e-08 0)
(0.99943319 9.8575849e-08 0)
(0.99930079 1.4762874e-07 0)
(0.99911022 2.1066841e-07 0)
(0.99887471 3.7917509e-07 0)
(0.99840158 5.1378896e-07 0)
(0.99795939 1.3525223e-06 0)
(0.99613081 2.964467e-07 -1.0569304e-20)
(0.99743206 0.00062681409 6.7990274e-55)
(0.016002722 0.00063055873 -6.7962173e-55)
(0.0063472231 3.4356143e-06 0)
(0.0045735829 7.6214265e-07 -1.4719691e-22)
(0.0037930034 3.6194623e-07 0)
(0.0033512539 2.1816091e-07 0)
(0.0030494247 1.5243101e-07 0)
(0.0028268898 1.1446404e-07 0)
(0.0026519341 9.053963e-08 0)
(0.0025094352 7.38054e-08 0)
(0.0023905827 6.152067e-08 0)
(0.0022893645 5.2253031e-08 0)
(0.0022017101 4.5038962e-08 0)
(0.0021248226 3.9267106e-08 0)
(0.0020566781 3.4556682e-08 0)
(0.0019957506 3.0654534e-08 0)
(0.001940859 2.7379676e-08 0)
(0.001891081 2.4598061e-08 0)
(0.001845684 2.2211453e-08 0)
(0.0018040739 2.0146783e-08 0)
(0.0017657624 1.8346209e-08 -2.4912207e-24)
(0.0017303491 1.6764742e-08 0)
(0.0016974964 1.5368094e-08 0)
(0.0016669186 1.4127999e-08 0)
(0.0016383725 1.3021413e-08 0)
(0.0016116496 1.2029333e-08 0)
(0.0015865709 1.1136245e-08 0)
(0.0015629801 1.0329499e-08 0)
(0.0015407401 9.5982188e-09 0)
(0.0015197307 8.9309528e-09 0)
(0.0014998461 8.3179928e-09 5.9521165e-26)
(0.0014809918 7.773422e-09 0)
(0.0014630853 7.2651485e-09 0)
(0.0014460522 6.7981481e-09 0)
(0.0014298254 6.3681654e-09 0)
(0.0014143448 5.971374e-09 0)
(0.0013995564 5.604488e-09 0)
(0.0013854113 5.2646535e-09 0)
(0.0013718652 4.9492496e-09 0)
(0.001358878 4.6559221e-09 0)
(0.0013464138 4.3827493e-09 0)
(0.0013344391 4.1280602e-09 0)
(0.0013229233 3.8902422e-09 0)
(0.0013118386 3.6678321e-09 0)
(0.0013011595 3.459584e-09 0)
(0.0012908624 3.2643446e-09 0)
(0.001280926 3.081078e-09 0)
(0.0012713302 2.9087866e-09 0)
(0.0012620574 2.7465764e-09 0)
(0.0012530909 2.5938062e-09 0)
(0.0012444149 2.4498267e-09 0)
(0.001236015 2.3139645e-09 0)
(0.001227878 2.1856375e-09 0)
(0.0012199915 2.0643287e-09 0)
(0.0012123441 1.9495775e-09 0)
(0.0012049251 1.8409653e-09 0)
(0.0011977247 1.7380214e-09 0)
(0.0011907342 1.6403311e-09 0)
(0.0011839456 1.5476586e-09 0)
(0.0011773505 1.4597435e-09 0)
(0.0011709418 1.3762841e-09 0)
(0.0011647125 1.297018e-09 0)
(0.0011586562 1.2216954e-09 0)
(0.0011527672 1.1501297e-09 0)
(0.0011470396 1.0821248e-09 0)
(0.0011414682 1.0173979e-09 0)
(0.001136049 9.5578036e-10 0)
(0.0011307775 8.972449e-10 0)
(0.0011256488 8.4165766e-10 0)
(0.0011206588 7.8883082e-10 0)
(0.0011158037 7.3865595e-10 0)
(0.0011110795 6.9103041e-10 0)
(0.0011064827 6.4579739e-10 0)
(0.0011020102 6.0284945e-10 0)
(0.0010976589 5.6216292e-10 0)
(0.0010934249 5.2368424e-10 0)
(0.0010893047 4.8732048e-10 0)
(0.0010852945 4.5296959e-10 0)
(0.0010813912 4.2052025e-10 0)
(0.0010775916 3.8991669e-10 0)
(0.001073892 3.6115615e-10 0)
(0.001070288 3.3420047e-10 0)
(0.0010667749 3.0894811e-10 0)
(0.0010633485 2.8527842e-10 0)
(0.0010600048 2.6313294e-10 0)
(0.0010567391 2.4251348e-10 0)
(0.0010535452 2.2338649e-10 0)
(0.0010504168 2.0564613e-10 0)
(0.0010473477 1.8910825e-10 0)
(0.0010443346 1.7359091e-10 0)
(0.0010414413 1.5962309e-10 0)
(0.0010387384 1.4783538e-10 0)
(0.0010362237 1.3793572e-10 0)
(0.0010338699 1.2951694e-10 0)
(0.0010316521 1.2239391e-10 0)
(0.0010295495 1.1631711e-10 0)
(0.001027546 1.1106188e-10 0)
(0.0010256287 1.064997e-10 0)
(0.0010237861 1.0253099e-10 0)
(0.0010220088 9.90454e-11 0)
(0.0010202891 9.5952235e-11 0)
(0.0010186208 9.3214706e-11 0)
(0.0010169977 9.0826447e-11 0)
(0.0010154137 8.8810434e-11 0)
(0.0010138617 8.7130587e-11 0)
(0.0010123368 8.603677e-11 0)
(0.0010108234 8.5114928e-11 0)
(0.001009331 8.672908e-11 0)
(0.0010077604 8.59101e-11 0)
(0.0010062972 9.9289389e-11 0)
(0.0010042534 1.007567e-10 0)
(0.0010027355 1.0699111e-10 0)
(0.0010004627 6.4757583e-11 0)
(1 6.9875319e-10 1.0672054e-24)
(0.9999924 1.7938752e-09 0)
(0.99998188 2.4677379e-09 0)
(0.99997026 3.1563153e-09 0)
(0.99995694 4.1259633e-09 0)
(0.99994152 5.4144354e-09 0)
(0.99992368 7.1050159e-09 0)
(0.99990302 9.3407487e-09 0)
(0.999879 1.2319019e-08 0)
(0.99985094 1.6307413e-08 0)
(0.99981801 2.1676773e-08 0)
(0.99977912 2.8962369e-08 0)
(0.99973282 3.8929258e-08 0)
(0.99967722 5.2803311e-08 0)
(0.99960944 7.2238173e-08 0)
(0.99952592 1.0089023e-07 0)
(0.99941921 1.4160404e-07 0)
(0.99928382 2.1201235e-07 0)
(0.99908906 3.0246154e-07 0)
(0.99884853 5.4419634e-07 0)
(0.99836562 7.3731332e-07 0)
(0.99791431 1.9404575e-06 0)
(0.99604915 4.2688405e-07 0)
(0.99737339 0.00088744537 -3.547139e-55)
(0.022665873 0.00089463193 3.5456773e-55)
(0.0090169857 7.0741499e-06 0)
(0.0064969544 1.5713574e-06 0)
(0.005387806 7.4558321e-07 0)
(0.0047599441 4.4943017e-07 0)
(0.0043309519 3.1402457e-07 0)
(0.0040146483 2.3580896e-07 0)
(0.003765972 1.8652099e-07 0)
(0.0035634277 1.5204705e-07 0)
(0.0033944925 1.2673931e-07 0)
(0.0032506214 1.0764687e-07 0)
(0.0031260294 9.278504e-08 0)
(0.0030167413 8.0894363e-08 0)
(0.0029198803 7.1190354e-08 0)
(0.0028332775 6.3151466e-08 0)
(0.0027552543 5.6404848e-08 0)
(0.0026844997 5.0674363e-08 0)
(0.0026199726 4.5757642e-08 0)
(0.0025608285 4.150412e-08 0)
(0.0025063734 3.7794676e-08 0)
(0.002456038 3.4536642e-08 0)
(0.0024093426 3.1659336e-08 0)
(0.002365881 2.9104557e-08 0)
(0.0023253076 2.6824826e-08 0)
(0.0022873261 2.4780994e-08 0)
(0.0022516819 2.2941102e-08 0)
(0.0022181528 2.127917e-08 0)
(0.002186544 1.9773095e-08 0)
(0.0021566845 1.8403786e-08 0)
(0.0021284241 1.7145816e-08 6.3543027e-26)
(0.0021016284 1.6013201e-08 0)
(0.0020761801 1.4966087e-08 0)
(0.0020519735 1.4004003e-08 0)
(0.0020289131 1.311818e-08 0)
(0.0020069135 1.2300736e-08 0)
(0.0019858981 1.1544903e-08 0)
(0.0019657972 1.08448e-08 0)
(0.0019465477 1.0195028e-08 0)
(0.001928093 9.5907366e-09 0)
(0.0019103818 9.0279672e-09 0)
(0.0018933665 8.5032768e-09 0)
(0.0018770037 8.0133435e-09 0)
(0.0018612538 7.5551531e-09 0)
(0.0018460805 7.1261384e-09 0)
(0.0018314505 6.7239237e-09 0)
(0.0018173333 6.3463751e-09 0)
(0.0018037004 5.9914373e-09 0)
(0.0017905267 5.6572687e-09 0)
(0.0017777886 5.3425478e-09 0)
(0.0017654636 5.0459373e-09 0)
(0.0017535312 4.7660498e-09 0)
(0.0017419726 4.5016866e-09 0)
(0.0017307703 4.2517823e-09 0)
(0.001719908 4.0153879e-09 0)
(0.0017093706 3.7916413e-09 0)
(0.0016991441 3.5795728e-09 0)
(0.0016892161 3.3783283e-09 0)
(0.0016795751 3.187422e-09 0)
(0.0016702095 3.0063161e-09 0)
(0.0016611089 2.8343909e-09 0)
(0.0016522636 2.6711063e-09 0)
(0.0016436644 2.5159453e-09 0)
(0.0016353031 2.3685255e-09 0)
(0.0016271713 2.2284422e-09 0)
(0.0016192618 2.0951132e-09 0)
(0.0016115688 1.9681906e-09 0)
(0.0016040858 1.8476184e-09 0)
(0.001596806 1.7331212e-09 0)
(0.0015897235 1.6243116e-09 0)
(0.0015828328 1.5209665e-09 0)
(0.0015761284 1.4228746e-09 0)
(0.0015696051 1.3297126e-09 0)
(0.0015632586 1.2412588e-09 0)
(0.0015570844 1.157465e-09 0)
(0.0015510771 1.0782208e-09 0)
(0.0015452314 1.0033343e-09 0)
(0.0015395422 9.3259557e-10 0)
(0.0015340047 8.6577498e-10 0)
(0.0015286147 8.027573e-10 0)
(0.0015233668 7.4353729e-10 0)
(0.0015182547 6.8803613e-10 0)
(0.0015132715 6.3604445e-10 0)
(0.0015084113 5.8731318e-10 0)
(0.0015036685 5.4172163e-10 0)
(0.0014990363 4.9927397e-10 0)
(0.0014945058 4.5990113e-10 0)
(0.0014900679 4.2338458e-10 0)
(0.0014857141 3.8934414e-10 0)
(0.0014814391 3.5740655e-10 0)
(0.0014773339 3.2866136e-10 0)
(0.0014734981 3.0440456e-10 0)
(0.0014699291 2.8403351e-10 0)
(0.0014665877 2.667102e-10 0)
(0.0014634391 2.5205282e-10 0)
(0.0014604535 2.3954841e-10 0)
(0.0014576084 2.2873413e-10 0)
(0.0014548853 2.1934601e-10 0)
(0.001452268 2.1117947e-10 0)
(0.0014497431 2.0400714e-10 0)
(0.0014473 1.9764191e-10 0)
(0.0014449296 1.9200839e-10 0)
(0.0014426232 1.8709386e-10 0)
(0.0014403721 1.8294589e-10 0)
(0.0014381663 1.7948991e-10 0)
(0.001435999 1.7724057e-10 0)
(0.0014338477 1.7534465e-10 0)
(0.0014317263 1.7867385e-10 0)
(0.0014294934 1.7698783e-10 0)
(0.001427413 2.0455745e-10 0)
(0.0014245071 2.0775403e-10 0)
(0.0014223483 2.2061415e-10 0)
(0.0014191162 1.3329866e-10 0)
(1 9.2846612e-10 0)
(0.99999219 2.3847501e-09 0)
(0.99998135 3.2816849e-09 0)
(0.99996939 4.1975221e-09 0)
(0.99995567 5.486939e-09 0)
(0.99993979 7.1998106e-09 0)
(0.99992143 9.4465158e-09 0)
(0.99990016 1.2416957e-08 0)
(0.99987545 1.6373101e-08 0)
(0.9998466 2.166991e-08 0)
(0.99981274 2.8799198e-08 0)
(0.99977278 3.847074e-08 0)
(0.99972522 5.169879e-08 0)
(0.99966813 7.010841e-08 0)
(0.99959857 9.5890698e-08 0)
(0.9995129 1.3389183e-07 0)
(0.99940349 1.8787509e-07 0)
(0.99926477 2.8120941e-07 0)
(0.99906531 4.0105954e-07 0)
(0.99881914 7.213162e-07 0)
(0.99832529 9.7716613e-07 0)
(0.99786378 2.5709922e-06 0)
(0.99595771 5.677458e-07 0)
(0.99730751 0.0011592649 0)
(0.029620557 0.0011711863 0)
(0.01182008 1.2312671e-05 0)
(0.0085159093 2.7266821e-06 0)
(0.0070615233 1.2932505e-06 0)
(0.0062379737 7.7963975e-07 0)
(0.005675275 5.4475525e-07 0)
(0.005260366 4.0907529e-07 0)
(0.0049341642 3.2357171e-07 0)
(0.004668474 2.6376834e-07 0)
(0.0044468685 2.1986579e-07 0)
(0.0042581398 1.8674486e-07 0)
(0.0040947002 1.609629e-07 0)
(0.0039513356 1.4033514e-07 0)
(0.0038242725 1.2350071e-07 0)
(0.0037106661 1.0955483e-07 0)
(0.0036083145 9.7850686e-08 0)
(0.0035154983 8.7909285e-08 0)
(0.0034308516 7.9379581e-08 0)
(0.0033532671 7.2000349e-08 0)
(0.0032818339 6.5564995e-08 0)
(0.0032158057 5.991277e-08 0)
(0.0031545529 5.4921018e-08 0)
(0.0030975429 5.04888e-08 0)
(0.003044322 4.6533755e-08 0)
(0.0029945018 4.2987961e-08 0)
(0.002947748 3.9795978e-08 0)
(0.0029037694 3.691286e-08 0)
(0.0028623102 3.4300289e-08 0)
(0.0028231463 3.1925911e-08 0)
(0.0027860804 2.9754066e-08 0)
(0.0027509363 2.7776947e-08 0)
(0.00271756 2.5960347e-08 0)
(0.0026858129 2.4291261e-08 0)
(0.0026555697 2.2754482e-08 0)
(0.0026267186 2.1336335e-08 0)
(0.0025991587 2.0025074e-08 0)
(0.0025727987 1.8810499e-08 0)
(0.002547556 1.7683244e-08 0)
(0.0025233562 1.6634894e-08 0)
(0.0025001319 1.565858e-08 0)
(0.0024778209 1.4748328e-08 0)
(0.0024563661 1.3898376e-08 0)
(0.0024357155 1.3103495e-08 0)
(0.0024158217 1.2359231e-08 0)
(0.0023966409 1.1661462e-08 0)
(0.0023781329 1.1006487e-08 0)
(0.0023602606 1.039074e-08 0)
(0.002342991 9.8110252e-09 0)
(0.0023262931 9.2650507e-09 0)
(0.0023101374 8.7504963e-09 0)
(0.002294497 8.2649558e-09 0)
(0.0022793472 7.8063492e-09 0)
(0.0022646651 7.3728285e-09 0)
(0.0022504294 6.9627474e-09 0)
(0.0022366202 6.5746103e-09 0)
(0.0022232191 6.2067354e-09 0)
(0.0022102099 5.8576409e-09 0)
(0.0021975775 5.5264842e-09 0)
(0.0021853067 5.2123303e-09 0)
(0.0021733839 4.9141071e-09 0)
(0.0021617962 4.6308782e-09 0)
(0.0021505317 4.3617442e-09 0)
(0.0021395795 4.1060435e-09 0)
(0.0021289288 3.8630736e-09 0)
(0.0021185699 3.6318244e-09 0)
(0.0021084953 3.4116925e-09 0)
(0.0020986965 3.2025815e-09 0)
(0.0020891645 3.0040132e-09 0)
(0.0020798915 2.8153156e-09 0)
(0.0020708704 2.6361016e-09 0)
(0.0020620939 2.4660048e-09 0)
(0.002053555 2.3044635e-09 0)
(0.0020452483 2.1510932e-09 0)
(0.0020371677 2.0058116e-09 0)
(0.002029306 1.8684267e-09 0)
(0.0020216565 1.7386044e-09 0)
(0.0020142123 1.6159803e-09 0)
(0.002006967 1.5001555e-09 0)
(0.0019999151 1.3909301e-09 0)
(0.0019930494 1.2882962e-09 0)
(0.0019863615 1.192116e-09 0)
(0.0019798426 1.1020249e-09 0)
(0.0019734846 1.0175892e-09 0)
(0.0019672803 9.3859982e-10 0)
(0.0019612205 8.6506521e-10 0)
(0.0019552936 7.968648e-10 0)
(0.0019494874 7.3361764e-10 0)
(0.0019437907 6.7466265e-10 0)
(0.0019381968 6.1935627e-10 0)
(0.001932824 5.6958781e-10 0)
(0.001927803 5.2759635e-10 0)
(0.0019231302 4.9233345e-10 0)
(0.0019187546 4.6234672e-10 0)
(0.0019146306 4.3697502e-10 0)
(0.0019107195 4.1532905e-10 0)
(0.0019069917 3.9660768e-10 0)
(0.0019034233 3.8035551e-10 0)
(0.0018999931 3.6621894e-10 0)
(0.0018966834 3.5380314e-10 0)
(0.0018934804 3.4278336e-10 0)
(0.0018903725 3.3303031e-10 0)
(0.0018873482 3.2452309e-10 0)
(0.0018843959 3.1734456e-10 0)
(0.0018815028 3.1136462e-10 0)
(0.0018786599 3.0747651e-10 0)
(0.0018758377 3.0419972e-10 0)
(0.0018730544 3.0999117e-10 0)
(0.0018701244 3.0707751e-10 0)
(0.0018673944 3.5493043e-10 0)
(0.0018635805 3.6064677e-10 0)
(0.0018607464 3.8301143e-10 -7.7270368e-24)
(0.0018565037 2.3117274e-10 1.6919821e-24)
(1 1.179729e-09 0)
(0.99999195 3.0317433e-09 0)
(0.99998076 4.1736054e-09 0)
(0.9999684 5.3385601e-09 0)
(0.99995424 6.9783424e-09 0)
(0.99993785 9.155939e-09 0)
(0.99991889 1.2011207e-08 0)
(0.99989694 1.5785213e-08 0)
(0.99987144 2.0810394e-08 0)
(0.99984169 2.7536966e-08 0)
(0.9998068 3.6588539e-08 0)
(0.99976562 4.8864959e-08 0)
(0.99971665 6.5651776e-08 0)
(0.99965788 8.9008573e-08 0)
(0.99958631 1.2171089e-07 0)
(0.99949821 1.6989951e-07 0)
(0.99938577 2.3833347e-07 0)
(0.99924328 3.5662226e-07 0)
(0.99903854 5.0844595e-07 0)
(0.99878603 9.1406231e-07 0)
(0.99827989 1.2381111e-06 0)
(0.99780691 3.2565603e-06 0)
(0.99585493 7.2227005e-07 0)
(0.99723328 0.00144601 0)
(0.036963142 0.0014642413 0)
(0.014797972 1.9311101e-05 0)
(0.010660113 4.2937327e-06 0)
(0.008838616 2.0366555e-06 0)
(0.0078068159 1.2279685e-06 0)
(0.0071018253 8.5802944e-07 0)
(0.006581964 6.4433673e-07 0)
(0.0061732435 5.0966187e-07 0)
(0.0058403381 4.1546763e-07 0)
(0.0055626662 3.4631803e-07 0)
(0.005326186 2.9414963e-07 0)
(0.0051213917 2.5354025e-07 0)
(0.0049417508 2.2104902e-07 0)
(0.0047825355 1.9453254e-07 0)
(0.0046401817 1.7256565e-07 0)
(0.0045119309 1.5412963e-07 0)
(0.0043956286 1.3847006e-07 0)
(0.0042895637 1.2503405e-07 1.0245594e-24)
(0.0041923486 1.1341012e-07 0)
(0.0041028423 1.0327295e-07 -3.4837719e-24)
(0.0040201094 9.4369348e-08 0)
(0.0039433613 8.6506079e-08 0)
(0.0038719302 7.9524195e-08 0)
(0.003805248 7.3293966e-08 0)
(0.0037428277 6.7708407e-08 0)
(0.0036842505 6.2680185e-08 0)
(0.0036291514 5.8138315e-08 0)
(0.0035772099 5.4022338e-08 0)
(0.0035281451 5.0281014e-08 0)
(0.0034817099 4.6866639e-08 0)
(0.0034376833 4.3747038e-08 0)
(0.0033958724 4.088543e-08 0)
(0.0033561034 3.8256196e-08 0)
(0.0033182195 3.5835384e-08 0)
(0.0032820804 3.3601453e-08 0)
(0.0032475596 3.1535901e-08 0)
(0.003214543 2.9622657e-08 0)
(0.0031829268 2.784697e-08 0)
(0.0031526178 2.6195582e-08 0)
(0.0031235317 2.4657668e-08 0)
(0.0030955903 2.3223822e-08 0)
(0.0030687222 2.1884968e-08 0)
(0.0030428624 2.0632867e-08 0)
(0.0030179513 1.9460502e-08 0)
(0.0029939339 1.8361381e-08 0)
(0.0029707601 1.7329676e-08 0)
(0.0029483833 1.6359768e-08 0)
(0.0029267622 1.5446622e-08 0)
(0.0029058579 1.4586626e-08 0)
(0.0028856334 1.3776129e-08 0)
(0.0028660551 1.3011339e-08 0)
(0.0028470921 1.228898e-08 0)
(0.0028287155 1.1606142e-08 0)
(0.0028108988 1.0960231e-08 0)
(0.002793617 1.0348892e-08 0)
(0.002776847 9.7694754e-09 0)
(0.0027605685 9.2196476e-09 0)
(0.0027447628 8.6980817e-09 0)
(0.0027294106 8.2033023e-09 0)
(0.002714495 7.7336248e-09 1.670305e-25)
(0.0026999997 7.2875754e-09 0)
(0.0026859099 6.8637339e-09 0)
(0.0026722119 6.4610606e-09 0)
(0.0026588922 6.0784485e-09 0)
(0.0026459385 5.7143054e-09 0)
(0.0026333415 5.367682e-09 0)
(0.0026210906 5.0384286e-09 0)
(0.0026091743 4.7257904e-09 0)
(0.0025975829 4.4287088e-09 0)
(0.0025863075 4.1465747e-09 0)
(0.0025753389 3.8788106e-09 0)
(0.0025646683 3.6245293e-09 0)
(0.0025542889 3.3831266e-09 0)
(0.002544193 3.154476e-09 0)
(0.0025343716 2.938273e-09 0)
(0.0025248159 2.7339891e-09 0)
(0.0025155175 2.54105e-09 0)
(0.0025064684 2.3588253e-09 0)
(0.0024976613 2.1870011e-09 0)
(0.0024890875 2.0255674e-09 0)
(0.002480736 1.8743051e-09 0)
(0.0024725958 1.7326357e-09 0)
(0.0024646566 1.5998731e-09 0)
(0.0024569093 1.4756887e-09 0)
(0.0024493423 1.3600987e-09 0)
(0.002441941 1.252911e-09 0)
(0.0024346899 1.1535213e-09 0)
(0.0024275747 1.0608852e-09 0)
(0.002420587 9.7399804e-10 0)
(0.0024138743 8.958344e-10 0)
(0.0024075996 8.2989983e-10 0)
(0.0024017585 7.7453516e-10 0)
(0.0023962877 7.2745524e-10 0)
(0.0023911301 6.8762202e-10 0)
(0.0023862376 6.5363568e-10 0)
(0.0023815736 6.2423903e-10 0)
(0.002377108 5.9872049e-10 0)
(0.0023728146 5.765257e-10 0)
(0.0023686713 5.570319e-10 0)
(0.002364661 5.3972773e-10 0)
(0.0023607691 5.2441282e-10 0)
(0.0023569812 5.1105686e-10 0)
(0.0023532832 4.9979102e-10 0)
(0.0023496587 4.9040874e-10 0)
(0.0023460966 4.8431875e-10 0)
(0.0023425599 4.791879e-10 0)
(0.0023390718 4.8835113e-10 0)
(0.0023353989 4.8379238e-10 0)
(0.0023319765 5.5923406e-10 0)
(0.0023271944 5.6829365e-10 0)
(0.0023236398 6.0374841e-10 0)
(0.0023183189 3.6405387e-10 -9.656629e-25)
(1 1.4582286e-09 0)
(0.99999168 3.7497036e-09 0)
(0.99998009 5.1641869e-09 0)
(0.99996729 6.6059241e-09 0)
(0.99995262 8.6347815e-09 0)
(0.99993564 1.1328112e-08 0)
(0.999916 1.485826e-08 0)
(0.99989328 1.9522889e-08 0)
(0.9998669 2.573235e-08 0)
(0.99983613 3.4042054e-08 0)
(0.99980006 4.5221072e-08 0)
(0.99975751 6.0378964e-08 0)
(0.99970693 8.1100459e-08 0)
(0.99964627 1.0992424e-07 0)
(0.99957244 1.5026954e-07 0)
(0.99948159 2.0970393e-07 0)
(0.99936572 2.940792e-07 0)
(0.99921897 4.3988151e-07 0)
(0.99900827 6.2692313e-07 0)
(0.99874861 1.1265195e-06 0)
(0.99822861 1.5256611e-06 0)
(0.99774271 4.0115104e-06 0)
(0.99573906 8.9349184e-07 0)
(0.99714941 0.0017515211 0)
(0.044793232 0.0017779708 0)
(0.017994688 2.8517538e-05 0)
(0.012961049 6.3671366e-06 0)
(0.010745032 3.0205891e-06 0)
(0.0094892347 1.8215023e-06 0)
(0.00863119 1.2727805e-06 0)
(0.0079984201 9.5581938e-07 0)
(0.0075009201 7.5604626e-07 0)
(0.0070956972 6.163212e-07 0)
(0.0067577009 5.1374642e-07 0)
(0.0064698403 4.3636015e-07 0)
(0.0062205473 3.7611943e-07 0)
(0.0060018715 3.2792075e-07 0)
(0.0058080586 2.8858479e-07 0)
(0.0056347707 2.5599749e-07 0)
(0.0054786506 2.2864772e-07 0)
(0.005337076 2.0541648e-07 0)
(0.0052079643 1.8548367e-07 0)
(0.0050896265 1.6823891e-07 0)
(0.0049806738 1.531997e-07 8.0101272e-35)
(0.0048799676 1.3999051e-07 0)
(0.0047865478 1.283246e-07 0)
(0.0046996017 1.1796627e-07 0)
(0.0046184376 1.0872307e-07 0)
(0.0045424627 1.0043629e-07 0)
(0.0044711671 9.2976359e-08 0)
(0.0044041065 8.6237886e-08 0)
(0.0043408905 8.0131075e-08 0)
(0.0042811774 7.4579011e-08 0)
(0.004224666 6.9516651e-08 0)
(0.0041710876 6.4886949e-08 0)
(0.0041202072 6.0641468e-08 0)
(0.0040718132 5.6740741e-08 0)
(0.0040257146 5.3149239e-08 0)
(0.0039817406 4.9835003e-08 0)
(0.0039397375 4.6770582e-08 0)
(0.003899566 4.3932134e-08 0)
(0.0038610999 4.1297774e-08 0)
(0.0038242258 3.884783e-08 0)
(0.0037888409 3.6566239e-08 0)
(0.0037548502 3.4439046e-08 0)
(0.0037221666 3.245279e-08 0)
(0.003690711 3.0595247e-08 0)
(0.003660411 2.8856002e-08 0)
(0.0036311995 2.7225428e-08 0)
(0.0036030157 2.5694879e-08 0)
(0.0035758027 2.4256015e-08 0)
(0.0035495102 2.2901369e-08 0)
(0.0035240909 2.1625579e-08 0)
(0.0034994999 2.0423229e-08 0)
(0.0034756962 1.9288699e-08 0)
(0.0034526421 1.8217126e-08 0)
(0.0034303026 1.7204192e-08 0)
(0.0034086454 1.624605e-08 0)
(0.00338764 1.5339208e-08 0)
(0.0033672583 1.4479736e-08 0)
(0.0033474757 1.3664169e-08 0)
(0.0033282692 1.2890541e-08 0)
(0.0033096156 1.215666e-08 5.9816653e-25)
(0.0032914941 1.1460032e-08 1.9437294e-25)
(0.0032738849 1.0798474e-08 0)
(0.0032567702 1.0169873e-08 0)
(0.003240133 9.5726903e-09 0)
(0.003223957 9.0052833e-09 0)
(0.0032082272 8.4652876e-09 0)
(0.0031929322 7.9512978e-09 0)
(0.0031780592 7.4630948e-09 0)
(0.003163594 6.9995571e-09 0)
(0.003149525 6.5591131e-09 0)
(0.0031358411 6.140861e-09 0)
(0.0031225309 5.743943e-09 0)
(0.0031095841 5.3670383e-09 0)
(0.003096992 5.0092539e-09 0)
(0.0030847453 4.6704077e-09 0)
(0.0030728328 4.3500441e-09 0)
(0.003061244 4.0473751e-09 0)
(0.0030499683 3.7615472e-09 0)
(0.0030389958 3.4916219e-09 0)
(0.0030283179 3.2371363e-09 0)
(0.0030179234 2.9980791e-09 0)
(0.0030077991 2.7741218e-09 0)
(0.0029979311 2.5643982e-09 0)
(0.0029883072 2.3678845e-09 0)
(0.0029789158 2.1840957e-09 0)
(0.0029697428 2.0130607e-09 0)
(0.0029607701 1.8544902e-09 0)
(0.0029519786 1.7074801e-09 0)
(0.0029433509 1.5704753e-09 0)
(0.0029348764 1.4420019e-09 0)
(0.0029267336 1.3264699e-09 0)
(0.0029191198 1.2290409e-09 0)
(0.00291203 1.1472396e-09 0)
(0.0029053877 1.0776812e-09 0)
(0.0028991238 1.0188297e-09 0)
(0.0028931803 9.6861237e-10 0)
(0.0028875129 9.2517274e-10 0)
(0.0028820855 8.8746572e-10 0)
(0.002876866 8.5467337e-10 0)
(0.002871828 8.2587013e-10 0)