/*--------------------------------*- C++ -*----------------------------------*\
| =========                 |                                                 |
| \\      /  F ield         | OpenFOAM: The Open Source CFD Toolbox           |
|  \\    /   O peration     | Version:  2206                                  |
|   \\  /    A nd           | Website:  www.openfoam.com                      |
|    \\/     M anipulation  |                                                 |
\*---------------------------------------------------------------------------*/
FoamFile
{
    version     2.0;
    format      ascii;
    arch        "LSB;label=32;scalar=64";
    class       volScalarField;
    location    "1700";
    object      epsilon;
}
// * * * * * * * * * * * * * * * * * * * * * * * * * * * * * * * * * * * * * //

dimensions      [0 2 -3 0 0 0 0];

internalField   nonuniform List<scalar> 
13056
(
0.0074191553
0.0072701929
0.0071848896
0.0071399105
0.0071120058
0.0070923801
0.0070777014
0.0070663745
0.0070574642
0.0070503641
0.0070446631
0.0070400781
0.0070364152
0.0070335489
0.0070314148
0.0070300065
0.0070294201
0.0070298152
0.0070318556
0.0070359039
0.0070459841
0.0070684945
0.0070752866
0.0088409579
0.029773546
0.0017658718
0.004963813
0.00035368604
0.0018400495
0.00017315127
0.0010434052
0.00010765329
0.00069294419
0.00052081079
0.00050031013
0.00041518706
0.00037837798
0.00033140944
0.00029910613
0.00026883321
0.0002440217
0.00022223197
0.00020339583
0.00018685705
0.00017228041
0.00015934688
0.00014781198
0.00013747328
0.0001281651
0.00011975021
0.00011211369
0.00010515879
9.8803755e-05
9.2978892e-05
8.7624734e-05
8.2690204e-05
7.8130925e-05
7.3908334e-05
6.9988887e-05
6.6343182e-05
6.2945338e-05
5.9772642e-05
5.6805029e-05
5.4024548e-05
5.1415214e-05
4.8962791e-05
4.6654526e-05
4.4478959e-05
4.242576e-05
4.0485695e-05
3.8650411e-05
3.6912242e-05
3.5264241e-05
3.3700125e-05
3.2214141e-05
3.0801053e-05
2.9456045e-05
2.8174723e-05
2.6953131e-05
2.578755e-05
2.4674518e-05
2.36109e-05
2.259379e-05
2.1620497e-05
2.0688532e-05
1.9795581e-05
1.8939532e-05
1.8118426e-05
1.7330394e-05
1.6573706e-05
1.5846765e-05
1.5148075e-05
1.4476242e-05
1.3829957e-05
1.3207999e-05
1.2609265e-05
1.2032678e-05
1.1477219e-05
1.0941958e-05
1.0426012e-05
9.9285541e-06
9.4488036e-06
8.9860307e-06
8.5395689e-06
8.1087661e-06
7.6930046e-06
7.2917142e-06
6.9043543e-06
6.530407e-06
6.1693939e-06
5.8208684e-06
5.4842718e-06
5.1595678e-06
4.8544737e-06
4.5767257e-06
4.3246731e-06
4.0949414e-06
3.8850349e-06
3.6926036e-06
3.5156575e-06
3.3524725e-06
3.2015503e-06
3.0615865e-06
2.931444e-06
2.8101177e-06
2.6967062e-06
2.5904014e-06
2.4904522e-06
2.396184e-06
2.3068495e-06
2.2219201e-06
2.1401171e-06
2.061978e-06
1.9814981e-06
1.9133702e-06
1.813573e-06
0.0074179343
0.0072688803
0.0071835198
0.0071385088
0.0071105836
0.0070909433
0.0070762533
0.0070649173
0.0070559994
0.0070488928
0.0070431859
0.0070385952
0.0070349265
0.0070320539
0.0070299125
0.0070284952
0.007027897
0.0070282761
0.0070302912
0.0070343058
0.0070443071
0.0070667333
0.0070730213
0.0088385331
0.029195611
0.0017501952
0.0048731482
0.00035019009
0.0018106449
0.00017151663
0.0010280476
0.00010675325
0.00068337296
0.00051408692
0.00049376995
0.00040996656
0.0003736616
0.00032738782
0.00029553232
0.00026568592
0.00024121302
0.00021971886
0.00020113347
0.00018481233
0.00017042479
0.00015765695
0.00014626799
0.00013605853
0.00012686536
0.00011855327
0.00011100901
0.00010413723
9.7857337e-05
9.2100638e-05
8.6808496e-05
8.193055e-05
7.7423036e-05
7.3247923e-05
6.9372122e-05
6.576663e-05
6.2405915e-05
5.9267564e-05
5.6331781e-05
5.3580851e-05
5.0998996e-05
4.8572166e-05
4.6287775e-05
4.4134507e-05
4.2102166e-05
4.0181634e-05
3.8364664e-05
3.6643686e-05
3.5011841e-05
3.346292e-05
3.1991246e-05
3.0591642e-05
2.9259354e-05
2.7990041e-05
2.6779795e-05
2.5624939e-05
2.4522055e-05
2.3468045e-05
2.2460035e-05
2.1495369e-05
2.0571585e-05
1.9686397e-05
1.8837716e-05
1.8023607e-05
1.7242223e-05
1.6491851e-05
1.5770916e-05
1.5077936e-05
1.4411534e-05
1.3770415e-05
1.3153372e-05
1.2559314e-05
1.1987176e-05
1.1435951e-05
1.0904719e-05
1.0392605e-05
9.8987928e-06
9.4225091e-06
8.9630323e-06
8.5197032e-06
8.091876e-06
7.6789399e-06
7.2803306e-06
6.8955132e-06
6.5239749e-06
6.1652423e-06
5.8188735e-06
5.4843154e-06
5.1615324e-06
4.8581946e-06
4.5820018e-06
4.331328e-06
4.1028253e-06
3.8940165e-06
3.7025689e-06
3.5265066e-06
3.3641179e-06
3.213915e-06
3.0746024e-06
2.9450508e-06
2.824262e-06
2.7113405e-06
2.6054836e-06
2.5059449e-06
2.412054e-06
2.323068e-06
2.238461e-06
2.15696e-06
2.0791032e-06
1.9988952e-06
1.9309967e-06
1.8315354e-06
0.00741406
0.0072647199
0.007179182
0.0071340725
0.0071060847
0.0070863994
0.0070716752
0.0070603122
0.0070513723
0.0070442474
0.0070385248
0.00703392
0.0070302383
0.0070273528
0.007025198
0.0070237658
0.0070231494
0.0070235056
0.0070254861
0.0070294559
0.0070393521
0.007061676
0.0070672556
0.0088311075
0.028621882
0.0017345222
0.0047820451
0.00034665653
0.0017810101
0.00016986057
0.0010125468
0.00010583993
0.00067370339
0.00050728404
0.00048715866
0.00040468516
0.00036889109
0.00032331803
0.0002919155
0.0002624998
0.00023836925
0.00021717379
0.00019884193
0.00018274086
0.00016854454
0.00015594429
0.00014470296
0.00013462426
0.00012554746
0.0001173394
0.00010988851
0.00010310085
9.689703e-05
9.1209336e-05
8.5979984e-05
8.1159332e-05
7.6704238e-05
7.2577207e-05
6.8745612e-05
6.5180852e-05
6.1857748e-05
5.8754193e-05
5.5850659e-05
5.312967e-05
5.0575662e-05
4.817477e-05
4.5914574e-05
4.3783909e-05
4.1772711e-05
3.9871982e-05
3.807358e-05
3.6370034e-05
3.4754571e-05
3.3221063e-05
3.1763901e-05
3.0377977e-05
2.9058593e-05
2.7801464e-05
2.6602729e-05
2.5458759e-05
2.4366175e-05
2.3321916e-05
2.2323147e-05
2.1367239e-05
2.0451763e-05
1.9574458e-05
1.8733262e-05
1.7926262e-05
1.7151632e-05
1.6407681e-05
1.5692849e-05
1.5005674e-05
1.4344795e-05
1.3708929e-05
1.3096886e-05
1.2507586e-05
1.1939977e-05
1.1393062e-05
1.0865931e-05
1.035772e-05
9.8676216e-06
9.394871e-06
8.9387544e-06
8.4986197e-06
8.0738282e-06
7.6637756e-06
7.2679036e-06
6.8856829e-06
6.5166064e-06
6.1602055e-06
5.8160428e-06
5.4835711e-06
5.1627557e-06
4.8612183e-06
4.5866208e-06
4.3373625e-06
4.1101224e-06
3.9024419e-06
3.7120061e-06
3.5368537e-06
3.3752853e-06
3.2258239e-06
3.0871832e-06
2.9582419e-06
2.8380085e-06
2.7255939e-06
2.6202007e-06
2.5210874e-06
2.427588e-06
2.3389639e-06
2.2546922e-06
2.1735057e-06
2.0959429e-06
2.0160202e-06
1.9483617e-06
1.849252e-06
0.0074074103
0.0072575804
0.0071717392
0.0071264616
0.0070983666
0.0070786047
0.0070638223
0.0070524135
0.0070434368
0.0070362814
0.0070305331
0.0070259059
0.007022204
0.0070192996
0.007017126
0.0070156741
0.007015035
0.0070153638
0.0070173046
0.0070212244
0.0070310033
0.0070532233
0.0070579723
0.0088186289
0.02804467
0.0017186404
0.0046892688
0.00034303624
0.0017507385
0.00016815962
0.00099668827
0.00010489929
0.00066380088
0.00050030611
0.00048038374
0.00039926833
0.00036399925
0.00031914244
0.00028820438
0.00025922951
0.00023544982
0.00021456035
0.00019648834
0.0001806128
0.00016661252
0.00015418409
0.00014309414
0.00013314954
0.0001241921
0.00011609074
0.00010873565
0.00010203431
9.5908542e-05
9.0291667e-05
8.5126759e-05
8.0364918e-05
7.5963638e-05
7.1885971e-05
6.8099766e-05
6.4576833e-05
6.1292354e-05
5.8224535e-05
5.5354126e-05
5.2663897e-05
5.0138496e-05
4.7764254e-05
4.5528921e-05
4.3421485e-05
4.1432018e-05
3.9551644e-05
3.7772331e-05
3.6086708e-05
3.448809e-05
3.297043e-05
3.1528195e-05
3.0156342e-05
2.8850234e-05
2.7605641e-05
2.6418752e-05
2.5285984e-05
2.4204002e-05
2.3169783e-05
2.2180527e-05
2.1233639e-05
2.032672e-05
1.9457537e-05
1.8624053e-05
1.7824379e-05
1.7056711e-05
1.6319379e-05
1.5610842e-05
1.4929655e-05
1.4274472e-05
1.3644029e-05
1.3037147e-05
1.245276e-05
1.1889827e-05
1.1347365e-05
1.0824473e-05
1.0320298e-05
9.8340409e-06
9.3649459e-06
8.9123074e-06
8.4754808e-06
8.0538343e-06
7.6467706e-06
7.2537376e-06
6.8742118e-06
6.5076914e-06
6.1537133e-06
5.8118447e-06
5.4815442e-06
5.1627779e-06
4.8631176e-06
4.5901854e-06
4.3424059e-06
4.1164858e-06
3.9099861e-06
3.7206103e-06
3.5464119e-06
3.3857045e-06
3.2370222e-06
3.0990881e-06
2.9707893e-06
2.8511416e-06
2.739262e-06
2.6343588e-06
2.5356957e-06
2.442611e-06
2.3543708e-06
2.2704553e-06
2.1896036e-06
2.112354e-06
2.0327378e-06
1.9653361e-06
1.8666028e-06
0.0073977945
0.0072472565
0.0071609769
0.0071154563
0.0070872066
0.007067334
0.0070524677
0.0070409931
0.0070319635
0.0070247645
0.0070189797
0.0070143211
0.0070105914
0.0070076614
0.0070054633
0.0070039864
0.0070033197
0.0070036164
0.007005512
0.007009376
0.0070190243
0.0070411384
0.0070449236
0.0088007654
0.027456993
0.0017023516
0.0045936377
0.00033928096
0.0017194357
0.0001663905
0.00098026262
0.00010391728
0.00065353324
0.00049305848
0.00047335405
0.00039364248
0.00035891973
0.00031480404
0.00028434821
0.00025583012
0.00023241449
0.00021184238
0.00019404001
0.0001783985
0.00016460169
0.00015235163
0.00014141884
0.00013161349
0.00012278001
0.00011478949
0.0001075339
0.00010092224
9.4877579e-05
8.9334295e-05
8.4236364e-05
7.953565e-05
7.519031e-05
7.1163963e-05
6.7424951e-05
6.3945512e-05
6.0701201e-05
5.7670551e-05
5.4834598e-05
5.2176366e-05
4.968073e-05
4.7334218e-05
4.5124758e-05
4.3041497e-05
4.1074651e-05
3.9215467e-05
3.7456029e-05
3.5789067e-05
3.4207993e-05
3.2706841e-05
3.1280155e-05
2.9922961e-05
2.8630687e-05
2.7399158e-05
2.6224617e-05
2.5103529e-05
2.40326e-05
2.3008852e-05
2.2029519e-05
2.1092041e-05
2.0194051e-05
1.9333345e-05
1.8507912e-05
1.7715887e-05
1.6955491e-05
1.6225074e-05
1.5523115e-05
1.4848186e-05
1.419896e-05
1.3574188e-05
1.2972706e-05
1.239346e-05
1.1835424e-05
1.1297625e-05
1.0779175e-05
1.027923e-05
9.7970006e-06
9.3317407e-06
8.8827531e-06
8.4494007e-06
8.031059e-06
7.627138e-06
7.2370919e-06
6.8604032e-06
6.4965761e-06
6.1451526e-06
5.805705e-06
5.4776981e-06
5.1610986e-06
4.8634257e-06
4.5922588e-06
4.3460487e-06
4.121531e-06
3.9162872e-06
3.72804e-06
3.5548585e-06
3.39507e-06
3.2472201e-06
3.1100421e-06
2.9824317e-06
2.8634122e-06
2.7521074e-06
2.6477314e-06
2.5495534e-06
2.4569163e-06
2.3690912e-06
2.2855615e-06
2.2050731e-06
2.1281636e-06
2.0488826e-06
1.9817614e-06
1.8834393e-06
0.0073849544
0.0072334706
0.0071466049
0.0071007595
0.007072303
0.0070522827
0.0070373043
0.0070257418
0.0070166417
0.007009385
0.0070035519
0.0069988521
0.0069950862
0.0069921235
0.0069898945
0.0069883869
0.0069876872
0.0069879465
0.0069897909
0.0069935928
0.0070030957
0.0070251017
0.0070277771
0.0087770714
0.026852514
0.0016854702
0.0044940153
0.00033534289
0.0016867159
0.00016452987
0.00096306333
0.00010287967
0.0006427696
0.00048544694
0.00046597903
0.00038773424
0.00035358639
0.00031024588
0.00028029627
0.00025225668
0.00022922298
0.00020898364
0.00019146417
0.00017606818
0.0001624849
0.00015042204
0.00013965424
0.00012999509
0.00012129177
0.00011341765
0.00010626658
9.9749132e-05
9.3789684e-05
8.8323727e-05
8.329618e-05
7.8659713e-05
7.4373174e-05
7.0400779e-05
6.6711385e-05
6.3277681e-05
6.0075612e-05
5.7084055e-05
5.4284346e-05
5.1659776e-05
4.9195456e-05
4.6878123e-05
4.4695893e-05
4.2638078e-05
4.0695043e-05
3.8858169e-05
3.7119659e-05
3.5472351e-05
3.3909754e-05
3.2425993e-05
3.101569e-05
2.9673945e-05
2.8396251e-05
2.7178494e-05
2.6016972e-05
2.4908198e-05
2.384893e-05
2.2836227e-05
2.1867364e-05
2.0939819e-05
2.0051254e-05
1.9199499e-05
1.8382568e-05
1.7598625e-05
1.6845913e-05
1.6122805e-05
1.54278e-05
1.4759491e-05
1.4116568e-05
1.3497797e-05
1.2902032e-05
1.2328232e-05
1.1775384e-05
1.1242529e-05
1.0728789e-05
1.0233332e-05
9.7553783e-06
9.2941917e-06
8.8490837e-06
8.4194253e-06
8.0046e-06
7.6040249e-06
7.2171613e-06
6.8434979e-06
6.482545e-06
6.1338504e-06
5.7969913e-06
5.4714391e-06
5.1571614e-06
4.861621e-06
4.5923512e-06
4.3478295e-06
4.1248224e-06
3.9209331e-06
3.7339044e-06
3.5618224e-06
3.4030287e-06
3.2560813e-06
3.1197242e-06
2.9928622e-06
2.8745268e-06
2.7638489e-06
2.6600489e-06
2.5624017e-06
2.4702552e-06
2.3828858e-06
2.2997804e-06
2.2196924e-06
2.1431584e-06
2.0642499e-06
1.99744e-06
1.8995743e-06
0.0073685664
0.0072158744
0.0071282594
0.0070819986
0.0070532776
0.0070330684
0.0070179468
0.0070062722
0.0069970822
0.0069897519
0.0069838575
0.0069791055
0.0069752942
0.0069722908
0.0069700239
0.0069684792
0.0069677405
0.0069679566
0.006969743
0.0069734761
0.0069828175
0.007004713
0.0070061178
0.0087469925
0.026225518
0.0016678226
0.0043893072
0.00033117426
0.0016522005
0.00016255418
0.00094488592
0.0001017719
0.00063137957
0.00047737722
0.0004581681
0.00038147005
0.00034793284
0.00030541071
0.00027599748
0.00024846387
0.00022583462
0.00020594752
0.00018872765
0.00017359171
0.00016023464
0.00014837012
0.00013777717
0.00012827297
0.00011970764
0.00011195695
0.00010491671
9.8499174e-05
9.2630111e-05
8.7246188e-05
8.2293321e-05
7.7725029e-05
7.3500893e-05
6.9585764e-05
6.5949043e-05
6.2563894e-05
5.940668e-05
5.6456638e-05
5.3695423e-05
5.110661e-05
4.867556e-05
4.6389231e-05
4.4235936e-05
4.2205166e-05
4.0287443e-05
3.8474288e-05
3.675803e-05
3.5131624e-05
3.3588681e-05
3.212342e-05
3.0730549e-05
2.9405244e-05
2.8143069e-05
2.6939974e-05
2.5792314e-05
2.4696657e-05
2.3649808e-05
2.2648874e-05
2.169117e-05
2.0774212e-05
1.9895697e-05
1.9053488e-05
1.8245629e-05
1.7470309e-05
1.6725799e-05
1.6010495e-05
1.5322919e-05
1.4661683e-05
1.4025496e-05
1.3413142e-05
1.2823492e-05
1.2255519e-05
1.1708226e-05
1.1180665e-05
1.0671973e-05
1.0181327e-05
9.7079603e-06
9.2511455e-06
8.8102041e-06
8.3845156e-06
7.9734716e-06
7.5764974e-06
7.1930614e-06
6.822659e-06
6.4648072e-06
6.1190595e-06
5.7849988e-06
5.4621031e-06
5.1503413e-06
4.8571151e-06
4.5899073e-06
4.3472232e-06
4.1258621e-06
3.9234505e-06
3.7377532e-06
3.566874e-06
3.4091702e-06
3.2632129e-06
3.1277578e-06
3.0017195e-06
2.8841381e-06
2.7741523e-06
2.6709892e-06
2.57393e-06
2.482328e-06
2.3954653e-06
2.3128327e-06
2.2331916e-06
2.1570772e-06
2.0785875e-06
2.0121274e-06
1.9147746e-06
0.0073482436
0.0071940515
0.0071055048
0.0070587275
0.0070296777
0.0070092336
0.006993934
0.00698212
0.0069728183
0.0069653969
0.0069594266
0.0069546102
0.0069507432
0.0069476902
0.0069453774
0.0069437887
0.0069430044
0.0069431708
0.0069448918
0.0069485484
0.0069577107
0.0069794934
0.0069794494
0.0087098708
0.025570926
0.0016492481
0.0042784624
0.00032672722
0.0016155178
0.00016043951
0.00092552743
0.00010057903
0.00061923294
0.0004687546
0.00044983033
0.00037477582
0.00034189218
0.00030024072
0.00027140022
0.0002444058
0.0002222082
0.00020269686
0.00018579678
0.00017093841
0.00015782287
0.00014617018
0.00013576398
0.00012642534
0.00011800745
0.00011038865
0.00010346689
9.715616e-05
9.1383738e-05
8.6087538e-05
8.1214541e-05
7.6719174e-05
7.25618e-05
6.8707942e-05
6.5127588e-05
6.1794407e-05
5.8685205e-05
5.5779607e-05
5.3059609e-05
5.0509087e-05
4.8113669e-05
4.586055e-05
4.3738256e-05
4.1736465e-05
3.9845867e-05
3.8058135e-05
3.6365732e-05
3.4761737e-05
3.3239872e-05
3.1794454e-05
3.0420283e-05
2.9112618e-05
2.7867098e-05
2.6679741e-05
2.5546964e-05
2.4465392e-05
2.3431884e-05
2.2443594e-05
2.1497882e-05
2.0592303e-05
1.9724594e-05
1.8892651e-05
1.8094551e-05
1.7328511e-05
1.6592831e-05
1.588593e-05
1.5206356e-05
1.4552741e-05
1.3923816e-05
1.3318383e-05
1.2735329e-05
1.2173646e-05
1.1632351e-05
1.111051e-05
1.0607273e-05
1.0121831e-05
9.653427e-06
9.2013456e-06
8.7649183e-06
8.3435337e-06
7.9365923e-06
7.5435278e-06
7.1638163e-06
6.7969607e-06
6.4424846e-06
6.0999482e-06
5.7689401e-06
5.4489459e-06
5.1399353e-06
4.8492437e-06
4.5842978e-06
4.3436322e-06
4.1240815e-06
3.9232973e-06
3.7390682e-06
3.5695174e-06
3.4130188e-06
3.2681582e-06
3.1337035e-06
3.0085803e-06
2.891838e-06
2.7826236e-06
2.6801717e-06
2.5837701e-06
2.4927781e-06
2.406484e-06
2.3243829e-06
2.2452454e-06
2.1696045e-06
2.0915898e-06
2.0255263e-06
1.9287552e-06
0.0073235375
0.0071675189
0.007077836
0.0070304284
0.0070009775
0.0069802469
0.0069647301
0.0069527461
0.0069433084
0.0069357759
0.0069297134
0.0069248191
0.0069208846
0.006917772
0.0069154046
0.0069137639
0.0069129265
0.006913036
0.0069146835
0.0069182553
0.0069272189
0.0069488868
0.0069471961
0.0086649515
0.02488434
0.0016296
0.0041604817
0.00032195373
0.0015763042
0.00015816153
0.00090478688
9.9285639e-05
0.0006061997
0.00045948396
0.00044087444
0.00036757688
0.00033539694
0.00029467746
0.00026645224
0.00024003597
0.00021830188
0.00019919388
0.00018263727
0.00016807705
0.00015522101
0.00014379596
0.00013359051
0.00012442985
0.00011617052
0.00010869357
0.00010189924
9.5703438e-05
9.0035007e-05
8.4833219e-05
8.0046195e-05
7.5629337e-05
7.1543848e-05
6.7755975e-05
6.4236331e-05
6.095913e-05
5.7901656e-05
5.504395e-05
5.2368372e-05
4.9859122e-05
4.7502117e-05
4.5284807e-05
4.3195943e-05
4.1225407e-05
3.9364071e-05
3.7603769e-05
3.593711e-05
3.4357303e-05
3.2858191e-05
3.1434198e-05
3.0080223e-05
2.8791611e-05
2.7564085e-05
2.6393734e-05
2.5277043e-05
2.4210699e-05
2.3191617e-05
2.2217002e-05
2.1284263e-05
2.0390999e-05
1.9534988e-05
1.8714161e-05
1.7926631e-05
1.7170646e-05
1.6444534e-05
1.5746745e-05
1.5075848e-05
1.4430503e-05
1.3809459e-05
1.321154e-05
1.2635653e-05
1.2080806e-05
1.1546031e-05
1.1030413e-05
1.0533114e-05
1.0053338e-05
9.5903424e-06
9.1434221e-06
8.7119198e-06
8.2952341e-06
7.8927751e-06
7.5039856e-06
7.1283501e-06
6.7653794e-06
6.4146044e-06
6.0755924e-06
5.7479384e-06
5.4311356e-06
5.1251551e-06
4.8372595e-06
4.5748128e-06
4.3363803e-06
4.118835e-06
3.9198561e-06
3.7372578e-06
3.5691844e-06
3.4140283e-06
3.270391e-06
3.137054e-06
3.0129547e-06
2.8971527e-06
2.7888042e-06
2.6871518e-06
2.5914908e-06
2.5011869e-06
2.4155354e-06
2.3340359e-06
2.2554695e-06
2.1803664e-06
2.1028937e-06
2.0372827e-06
1.9411754e-06
0.0072939394
0.0071357286
0.0070446794
0.0069965135
0.0069665798
0.0069455045
0.0069297265
0.0069175382
0.0069079368
0.006900271
0.0068940978
0.00688911
0.0068850951
0.0068819116
0.0068794798
0.0068777782
0.0068768794
0.0068769239
0.0068784887
0.0068819664
0.0068907101
0.0069122614
0.0069087037
0.0086113892
0.02416212
0.0016087492
0.004034431
0.00031680565
0.0015342074
0.00015569551
0.00088246649
9.7875829e-05
0.00059215071
0.00044947012
0.00043120909
0.00035979822
0.00032837925
0.00028866197
0.00026110075
0.00023530728
0.00021407323
0.00019540024
0.00017921426
0.0001649758
0.00015239992
0.00014122067
0.00013123205
0.00012226367
0.00011417565
0.00010685202
0.00010019546
9.4123895e-05
8.8567918e-05
8.3468242e-05
7.877422e-05
7.4442303e-05
7.0434601e-05
6.6718142e-05
6.3264214e-05
6.0047621e-05
5.7046159e-05
5.4240318e-05
5.1612853e-05
4.9148316e-05
4.6832932e-05
4.4654427e-05
4.2601797e-05
4.0665145e-05
3.8835537e-05
3.7104982e-05
3.5466245e-05
3.391268e-05
3.2438257e-05
3.1037518e-05
2.9705464e-05
2.8437541e-05
2.7229554e-05
2.6077677e-05
2.4978462e-05
2.3928666e-05
2.2925264e-05
2.1965519e-05
2.1046889e-05
2.0167022e-05
1.9323739e-05
1.8515013e-05
1.7738991e-05
1.6993957e-05
1.6278271e-05
1.5590412e-05
1.4928978e-05
1.4292651e-05
1.3680207e-05
1.3090492e-05
1.2522431e-05
1.1975052e-05
1.1447406e-05
1.0938593e-05
1.0447791e-05
9.9742197e-06
9.5171485e-06
9.0758856e-06
8.6497856e-06
8.2382578e-06
7.8407227e-06
7.4566329e-06
7.0854822e-06
6.7267896e-06
6.3800944e-06
6.0449713e-06
5.7210221e-06
5.4077487e-06
5.1051235e-06
4.8203286e-06
4.5606579e-06
4.3247091e-06
4.1093971e-06
3.9124311e-06
3.7316535e-06
3.565232e-06
3.4115789e-06
3.2693131e-06
3.137231e-06
3.014283e-06
2.89954e-06
2.7921681e-06
2.6914188e-06
2.5965958e-06
2.5070717e-06
2.4221496e-06
2.3413342e-06
2.2634182e-06
2.1889285e-06
2.1120763e-06
2.0469836e-06
1.9516367e-06
0.0072588821
0.0070980695
0.0070053946
0.006956326
0.0069258178
0.0069043321
0.0068882432
0.0068758116
0.0068660157
0.0068581913
0.0068518866
0.006846788
0.0068426778
0.0068394107
0.0068369033
0.0068351307
0.0068341612
0.0068341318
0.0068356037
0.0068389772
0.0068474774
0.0068689109
0.0068632411
0.0085482551
0.023401484
0.0015865871
0.0038994622
0.00031123499
0.0014888922
0.00015301639
0.00085837398
9.6333268e-05
0.00057695892
0.00043861867
0.00042074366
0.00035136506
0.00032077132
0.00028213517
0.00025529273
0.00023017235
0.00020947948
0.00019127717
0.00017549247
0.00016160242
0.00014933002
0.00013841709
0.00012866345
0.00011990351
0.00011200126
0.0001048439
9.8336766e-05
9.2400012e-05
8.6966069e-05
8.1977226e-05
7.7384167e-05
7.3144481e-05
6.9221256e-05
6.5582368e-05
6.2199835e-05
5.9049096e-05
5.6108506e-05
5.335904e-05
5.0783882e-05
4.8367962e-05
4.6097843e-05
4.3961546e-05
4.1948337e-05
4.0048555e-05
3.8253478e-05
3.6555304e-05
3.4946968e-05
3.3421979e-05
3.1974447e-05
3.0599039e-05
2.9290874e-05
2.8045497e-05
2.6858812e-05
2.5727077e-05
2.4646923e-05
2.3615178e-05
2.2628887e-05
2.168537e-05
2.0782144e-05
1.9916907e-05
1.9087528e-05
1.8292023e-05
1.752858e-05
1.6795521e-05
1.6091238e-05
1.5414244e-05
1.4763167e-05
1.4136716e-05
1.3533693e-05
1.2952967e-05
1.2393487e-05
1.18543e-05
1.1334476e-05
1.0833135e-05
1.0349471e-05
9.8827187e-06
9.4321632e-06
8.9971261e-06
8.576975e-06
8.1711309e-06
7.7790256e-06
7.4001227e-06
7.0339254e-06
6.6799623e-06
6.3377816e-06
6.0069659e-06
5.6871247e-06
5.3777692e-06
5.0788732e-06
4.7975296e-06
4.5409536e-06
4.3077771e-06
4.0949608e-06
3.9002472e-06
3.7215096e-06
3.5569412e-06
3.4049765e-06
3.2642534e-06
3.1335848e-06
3.0119355e-06
2.8983886e-06
2.7921214e-06
2.6923954e-06
2.598523e-06
2.509885e-06
2.4257929e-06
2.3457573e-06
2.2685838e-06
2.1947953e-06
2.1186546e-06
2.0541566e-06
1.9596823e-06
0.0072177418
0.0070538691
0.0069592766
0.0069091424
0.0068779559
0.0068559858
0.00683953
0.0068268113
0.0068167858
0.0068087744
0.0068023148
0.0067970857
0.0067928637
0.0067894986
0.0067869031
0.0067850484
0.0067839977
0.0067838842
0.006785252
0.0067885101
0.0067967411
0.0068180558
0.0068100014
0.0084745449
0.022600627
0.0015630317
0.0037548417
0.00030519437
0.0014400472
0.00015009895
0.00083232616
9.4641276e-05
0.00056050138
0.00042683721
0.0004093894
0.0003422037
0.0003125062
0.00027503853
0.00024897553
0.00022458396
0.00020447793
0.00018678591
0.00017143653
0.00015792451
0.00014598151
0.00013535774
0.00012585932
0.00011732582
0.00010962543
0.0001026488
9.6304133e-05
9.051397e-05
8.521276e-05
8.0344492e-05
7.5861294e-05
7.1721987e-05
6.7890721e-05
6.4336289e-05
6.1031503e-05
5.7952492e-05
5.5078214e-05
5.2390174e-05
4.9872019e-05
4.7509092e-05
4.528832e-05
4.3198048e-05
4.1227832e-05
3.9368268e-05
3.7610866e-05
3.5948028e-05
3.4372875e-05
3.2879083e-05
3.1460914e-05
3.0113174e-05
2.8831103e-05
2.7610363e-05
2.6446958e-05
2.5337242e-05
2.4277929e-05
2.3265927e-05
2.2298355e-05
2.1372597e-05
2.0486232e-05
1.9637013e-05
1.8822862e-05
1.8041842e-05
1.7292185e-05
1.6572252e-05
1.5880475e-05
1.52154e-05
1.4575689e-05
1.396008e-05
1.3367404e-05
1.2796555e-05
1.2246507e-05
1.1716328e-05
1.1205112e-05
1.0711996e-05
1.0236193e-05
9.7769555e-06
9.3335844e-06
8.9054163e-06
8.4918329e-06
8.092268e-06
7.7061658e-06
7.3330015e-06
6.9722892e-06
6.6235676e-06
6.2863944e-06
5.9603614e-06
5.6450862e-06
5.34009e-06
5.0453484e-06
4.7678552e-06
4.5147368e-06
4.2846613e-06
4.07464e-06
3.8824518e-06
3.7060042e-06
3.5435187e-06
3.393454e-06
3.2544692e-06
3.1253956e-06
3.0052133e-06
2.8930197e-06
2.788004e-06
2.6894387e-06
2.5966461e-06
2.509016e-06
2.4258693e-06
2.3467231e-06
2.2703978e-06
2.1974112e-06
2.1220867e-06
2.0582712e-06
1.9647983e-06
0.0071698397
0.0070023955
0.0069055573
0.0068541741
0.0068221925
0.0067996547
0.0067827688
0.0067697137
0.0067594192
0.0067511887
0.0067445478
0.0067391662
0.0067348136
0.0067313344
0.0067286366
0.0067266872
0.0067255434
0.0067253347
0.0067265859
0.0067297162
0.0067376497
0.0067588456
0.0067481044
0.0083891887
0.021758851
0.0015380337
0.0035999868
0.00029863765
0.0013873963
0.0001469181
0.00080415376
9.2782981e-05
0.000542662
0.00041403732
0.00039706123
0.00033224297
0.00030351903
0.00026731503
0.00024209768
0.00021849584
0.00019902657
0.00018188822
0.00016701145
0.00015390997
0.00014232482
0.0001320153
0.00012279433
0.00011450708
0.00010702627
0.00010024629
9.4078432e-05
8.8447853e-05
8.3291172e-05
7.8554228e-05
7.4190711e-05
7.0160778e-05
6.6429734e-05
6.2967368e-05
5.9747351e-05
5.6746562e-05
5.3944616e-05
5.1323591e-05
4.8867638e-05
4.6562548e-05
4.4395645e-05
4.2355627e-05
4.0432362e-05
3.861673e-05
3.690049e-05
3.5276266e-05
3.3737382e-05
3.2277696e-05
3.0891636e-05
2.9574156e-05
2.8320633e-05
2.712685e-05
2.5988926e-05
2.4903314e-05
2.3866822e-05
2.2876445e-05
2.192938e-05
2.1023084e-05
2.0155201e-05
1.9323547e-05
1.8526098e-05
1.7760971e-05
1.7026444e-05
1.6320922e-05
1.564288e-05
1.49909e-05
1.436368e-05
1.3759993e-05
1.3178696e-05
1.2618716e-05
1.2079051e-05
1.1558795e-05
1.1057062e-05
1.0573013e-05
1.0105881e-05
9.6549373e-06
9.2194992e-06
8.7989205e-06
8.3925981e-06
7.99998e-06
7.6205236e-06
7.253717e-06
6.8990863e-06
6.5561811e-06
6.2245696e-06
5.9038535e-06
5.5936593e-06
5.2935192e-06
5.0034107e-06
4.7302175e-06
4.4809656e-06
4.254362e-06
4.0474734e-06
3.858119e-06
3.6842439e-06
3.5241009e-06
3.3761757e-06
3.2391505e-06
3.1118771e-06
2.9933528e-06
2.8826903e-06
2.7790925e-06
2.6818437e-06
2.5902777e-06
2.5037938e-06
2.4217235e-06
2.3435915e-06
2.2682345e-06
2.1961646e-06
2.1217749e-06
2.058742e-06
1.9664173e-06
0.0071144458
0.0069428612
0.0068434088
0.0067905705
0.0067576627
0.0067344634
0.0067170764
0.0067036294
0.0066930215
0.0066845359
0.006677684
0.006672125
0.0066676208
0.0066640094
0.0066611935
0.0066591351
0.0066578852
0.0066575686
0.0066586894
0.0066616784
0.0066692835
0.0066903613
0.0066765996
0.0082910625
0.02087669
0.0015115846
0.0034345106
0.00029152084
0.0013307114
0.00014344929
0.00077370806
9.0741563e-05
0.00052333544
0.00040013709
0.00038368018
0.00032141606
0.00029374867
0.00025891056
0.00023461014
0.00021186366
0.00019308503
0.00017654721
0.00016218339
0.00014952761
0.00013833116
0.00012836309
0.0001194437
0.00011142421
0.00010418223
9.7616203e-05
9.1640783e-05
8.6183933e-05
8.1184638e-05
7.6590733e-05
7.2357608e-05
6.8446869e-05
6.4825071e-05
6.1463082e-05
5.8335508e-05
5.5420041e-05
5.269701e-05
5.0149115e-05
4.7761054e-05
4.5519106e-05
4.3411026e-05
4.1425894e-05
3.9553922e-05
3.7786293e-05
3.611504e-05
3.4533029e-05
3.3033801e-05
3.1611416e-05
3.026048e-05
2.897611e-05
2.7753829e-05
2.6589556e-05
2.5479531e-05
2.4420318e-05
2.3408828e-05
2.2442147e-05
2.151756e-05
2.0632601e-05
1.9784986e-05
1.89726e-05
1.819348e-05
1.7445798e-05
1.6727884e-05
1.6038192e-05
1.5375241e-05
1.4737655e-05
1.4124171e-05
1.3533596e-05
1.2964823e-05
1.2416807e-05
1.1888578e-05
1.1379254e-05
1.0887976e-05
1.0413927e-05
9.9563633e-06
9.5145754e-06
9.0879006e-06
8.6757105e-06
8.2774186e-06
7.8924883e-06
7.5203917e-06
7.160631e-06
6.8127451e-06
6.4762958e-06
6.1508629e-06
5.8360584e-06
5.5315192e-06
5.236789e-06
4.9518478e-06
4.6834563e-06
4.4385279e-06
4.2158107e-06
4.0124325e-06
3.8262568e-06
3.6552706e-06
3.4977609e-06
3.3522435e-06
3.2174262e-06
3.0921832e-06
2.9755313e-06
2.8665997e-06
2.7646066e-06
2.6688497e-06
2.5786751e-06
2.4934931e-06
2.4126469e-06
2.3356694e-06
2.261416e-06
2.190392e-06
2.1170712e-06
2.0549336e-06
1.9639226e-06
0.0070507826
0.0068744272
0.0067719486
0.0067174239
0.0066834425
0.0066594767
0.006641509
0.0066276078
0.0066166367
0.0066078556
0.0066007593
0.006594995
0.0065903155
0.0065865517
0.0065835998
0.0065814166
0.006580046
0.0065796076
0.0065805825
0.0065834155
0.0065906585
0.0066116201
0.0065944714
0.008179003
0.019956021
0.0014837262
0.0032582752
0.00028380331
0.0012698294
0.00013966903
0.00074086909
8.850058e-05
0.000502432
0.00038506449
0.00036917652
0.00030966306
0.00028313992
0.00024977585
0.0002264679
0.00020464648
0.00018661581
0.00017072842
0.00015692057
0.00014474806
0.00013397326
0.00012437576
0.00011578381
0.00010805513
0.00010107266
9.4739181e-05
8.8972989e-05
8.3705088e-05
7.8877015e-05
7.4438773e-05
7.0347586e-05
6.6566629e-05
6.3063812e-05
5.9811175e-05
5.6784335e-05
5.3961866e-05
5.1324868e-05
4.8856719e-05
4.654271e-05
4.436965e-05
4.2325759e-05
4.0400536e-05
3.8584562e-05
3.6869353e-05
3.5247238e-05
3.3711345e-05
3.2255454e-05
3.087384e-05
2.9561306e-05
2.8313144e-05
2.7125038e-05
2.5993051e-05
2.4913559e-05
2.3883245e-05
2.2899129e-05
2.19584e-05
2.1058439e-05
2.0196863e-05
1.9371467e-05
1.8580209e-05
1.7821191e-05
1.7092649e-05
1.639297e-05
1.5720657e-05
1.507428e-05
1.4452509e-05
1.385412e-05
1.3277963e-05
1.2722964e-05
1.2188115e-05
1.1672474e-05
1.117519e-05
1.0695431e-05
1.0232407e-05
9.7853952e-06
9.3537109e-06
8.9367114e-06
8.5337881e-06
8.1443729e-06
7.7679457e-06
7.4039949e-06
7.052038e-06
6.7116278e-06
6.3823394e-06
6.0637653e-06
5.7555292e-06
5.4572785e-06
5.1685704e-06
4.889387e-06
4.6263525e-06
4.3862535e-06
4.1678818e-06
3.9684326e-06
3.7858184e-06
3.618072e-06
3.4635187e-06
3.3207071e-06
3.1883736e-06
3.0654172e-06
2.9508759e-06
2.8438979e-06
2.7437176e-06
2.649648e-06
2.5610487e-06
2.477342e-06
2.3978846e-06
2.3222183e-06
2.2492199e-06
2.1793862e-06
2.1072838e-06
2.0461677e-06
1.9566555e-06
0.0069780317
0.0067962101
0.0066902458
0.0066337761
0.0065985563
0.0065737063
0.0065550687
0.0065406436
0.0065292537
0.0065201319
0.0065127537
0.0065067529
0.0065018717
0.0064979327
0.006494825
0.0064924994
0.0064909916
0.006490416
0.0064912282
0.006493889
0.0065007336
0.0065215821
0.0065006473
0.0080518254
0.019000137
0.0014545612
0.0030714518
0.00027544923
0.001204672
0.00013555565
0.00070555591
8.6044399e-05
0.00047988383
0.00036876163
0.0003534939
0.00029693417
0.00027164637
0.00023986874
0.00021763211
0.00019680859
0.0001795859
0.00016440128
0.0001511946
0.00013954488
0.00012922648
0.00012003026
0.00011179306
0.0001043796
9.7678509e-05
9.1597283e-05
8.6058132e-05
8.0995338e-05
7.6353194e-05
7.2084037e-05
6.8147076e-05
6.4507181e-05
6.1133725e-05
5.8000012e-05
5.5082754e-05
5.2361478e-05
4.9818121e-05
4.7436791e-05
4.5203425e-05
4.3105401e-05
4.1131448e-05
3.9271514e-05
3.7516584e-05
3.5858534e-05
3.4290011e-05
3.280443e-05
3.1395829e-05
3.0058716e-05
2.8788107e-05
2.7579485e-05
2.6428708e-05
2.5331998e-05
2.4285874e-05
2.3287151e-05
2.2332968e-05
2.1420626e-05
2.0547608e-05
1.9711621e-05
1.8910548e-05
1.8142426e-05
1.740543e-05
1.6697861e-05
1.6018168e-05
1.5364911e-05
1.4736713e-05