/*--------------------------------*- C++ -*----------------------------------*\
| =========                 |                                                 |
| \\      /  F ield         | OpenFOAM: The Open Source CFD Toolbox           |
|  \\    /   O peration     | Version:  2206                                  |
|   \\  /    A nd           | Website:  www.openfoam.com                      |
|    \\/     M anipulation  |                                                 |
\*---------------------------------------------------------------------------*/
FoamFile
{
    version     2.0;
    format      ascii;
    arch        "LSB;label=32;scalar=64";
    class       volScalarField;
    location    "1700";
    object      k;
}
// * * * * * * * * * * * * * * * * * * * * * * * * * * * * * * * * * * * * * //

dimensions      [0 2 -2 0 0 0 0];

internalField   nonuniform List<scalar> 
13056
(
0.00012588673
0.0001141416
0.00010990499
0.00010775784
0.00010639895
0.00010544282
0.00010473275
0.00010418768
0.00010375933
0.00010341652
0.00010313811
0.00010290919
0.00010271898
0.00010255948
0.0001024246
0.00010230978
0.00010221111
0.00010212672
0.00010205124
0.00010199587
0.00010190576
0.00010204757
0.00010100871
0.00010600714
1.7699229e-05
2.6918001e-06
5.3614357e-06
9.2147384e-07
2.7666757e-06
5.723854e-07
1.8954292e-06
4.1695566e-07
1.4427951e-06
1.1926806e-06
1.1611785e-06
1.0254189e-06
9.6388097e-07
8.8236657e-07
8.240552e-07
7.6746971e-07
7.1949042e-07
6.7599535e-07
6.3723661e-07
6.0220682e-07
5.7046621e-07
5.4154557e-07
5.1508515e-07
4.9077764e-07
4.6836639e-07
4.4763432e-07
4.283955e-07
4.1049021e-07
3.9378092e-07
3.7814807e-07
3.6348799e-07
3.4971015e-07
3.3673436e-07
3.2448976e-07
3.129138e-07
3.0195075e-07
2.9155078e-07
2.8166965e-07
2.7226774e-07
2.6330898e-07
2.5476078e-07
2.465938e-07
2.3878138e-07
2.3129926e-07
2.2412527e-07
2.1723944e-07
2.1062354e-07
2.0426047e-07
1.9813459e-07
1.9223161e-07
1.8653831e-07
1.8104252e-07
1.7573288e-07
1.7059895e-07
1.6563137e-07
1.608211e-07
1.5615957e-07
1.5163904e-07
1.4725223e-07
1.4299234e-07
1.38853e-07
1.3482822e-07
1.3091255e-07
1.2710088e-07
1.2338822e-07
1.1976988e-07
1.1624155e-07
1.1279912e-07
1.0943875e-07
1.0615673e-07
1.0294963e-07
9.9814357e-08
9.67478e-08
9.3746939e-08
9.0809039e-08
8.793145e-08
8.5111677e-08
8.2347306e-08
7.9636065e-08
7.6975911e-08
7.4364737e-08
7.1800506e-08
6.9281332e-08
6.6805385e-08
6.4370841e-08
6.1976007e-08
5.9619272e-08
5.7298113e-08
5.5013515e-08
5.2822802e-08
5.0788192e-08
4.8905892e-08
4.7158173e-08
4.5532478e-08
4.401621e-08
4.2598541e-08
4.1269892e-08
4.0021766e-08
3.884662e-08
3.773776e-08
3.6689143e-08
3.56952e-08
3.4750812e-08
3.385103e-08
3.2991295e-08
3.216609e-08
3.137164e-08
3.0596807e-08
2.9847404e-08
2.9065594e-08
2.8395461e-08
2.7399261e-08
0.00012587704
0.00011412457
0.0001098852
0.00010773662
0.00010637682
0.00010542005
0.0001047095
0.00010416406
0.00010373542
0.00010339238
0.00010311378
0.0001028847
0.00010269435
0.00010253474
0.00010239977
0.00010228486
0.00010218612
0.00010210167
0.00010202613
0.00010197071
0.00010188054
0.00010202242
0.00010098297
0.00010598448
1.7653766e-05
2.6677905e-06
5.2502176e-06
9.1153906e-07
2.7136325e-06
5.6563056e-07
1.8611329e-06
4.1216828e-07
1.4180059e-06
1.1733218e-06
1.1421316e-06
1.0091328e-06
9.4870329e-07
8.6877935e-07
8.1154197e-07
7.5601503e-07
7.0890955e-07
6.6620193e-07
6.2813316e-07
5.9372007e-07
5.6253086e-07
5.3410668e-07
5.0809516e-07
4.8419533e-07
4.6215575e-07
4.4176371e-07
4.2283702e-07
4.052191e-07
3.8877516e-07
3.7338798e-07
3.5895591e-07
3.4539019e-07
3.3261216e-07
3.2055233e-07
3.0914934e-07
2.9834851e-07
2.8810096e-07
2.7836325e-07
2.6909654e-07
2.6026539e-07
2.5183784e-07
2.4378507e-07
2.3608093e-07
2.2870159e-07
2.2162528e-07
2.1483242e-07
2.0830507e-07
2.0202645e-07
1.9598119e-07
1.9015527e-07
1.8453569e-07
1.7911047e-07
1.7386848e-07
1.6879945e-07
1.6389418e-07
1.5914377e-07
1.5453982e-07
1.5007471e-07
1.4574129e-07
1.4153286e-07
1.3744318e-07
1.3346634e-07
1.2959699e-07
1.258301e-07
1.2216077e-07
1.1858438e-07
1.150967e-07
1.1169367e-07
1.0837151e-07
1.0512659e-07
1.0195552e-07
9.8855274e-08
9.582277e-08
9.2855041e-08
8.9949395e-08
8.7103225e-08
8.4314074e-08
8.1579562e-08
7.8897456e-08
7.6265741e-08
7.3682342e-08
7.1145252e-08
6.8652615e-08
6.6202623e-08
6.3793482e-08
6.1423522e-08
5.9091156e-08
5.6793896e-08
5.4532717e-08
5.2364324e-08
5.0350323e-08
4.8487029e-08
4.6756911e-08
4.514755e-08
4.3646483e-08
4.2242998e-08
4.0927615e-08
3.9691927e-08
3.8528468e-08
3.7430619e-08
3.6392396e-08
3.5408289e-08
3.4473233e-08
3.358233e-08
3.2731068e-08
3.1913986e-08
3.1127348e-08
3.0360124e-08
2.961809e-08
2.884386e-08
2.8180268e-08
2.719393e-08
0.00012584582
0.00011407081
0.00010982307
0.00010767018
0.00010630761
0.00010534889
0.00010463688
0.00010409032
0.00010366079
0.00010331704
0.00010303785
0.00010280829
0.00010261754
0.00010245758
0.00010232232
0.00010220716
0.0001021082
0.00010202355
0.00010194784
0.00010189229
0.00010180192
0.000101944
0.00010090284
0.00010591282
1.7611314e-05
2.6437798e-06
5.1389879e-06
9.0152432e-07
2.6604154e-06
5.5880957e-07
1.8266679e-06
4.073287e-07
1.3930679e-06
1.1538206e-06
1.1229549e-06
9.92724e-07
9.3341155e-07
8.5508381e-07
7.9892718e-07
7.4446402e-07
6.9823765e-07
6.5632202e-07
6.1894757e-07
5.8515509e-07
5.545209e-07
5.2659655e-07
5.0103704e-07
4.7754781e-07
4.558826e-07
4.3583312e-07
4.1722091e-07
3.9989258e-07
3.8371606e-07
3.685765e-07
3.5437428e-07
3.410224e-07
3.2844377e-07
3.1657025e-07
3.0534169e-07
2.9470447e-07
2.8461064e-07
2.7501762e-07
2.6588727e-07
2.5718488e-07
2.4887905e-07
2.4094152e-07
2.3334664e-07
2.2607102e-07
2.190933e-07
2.1239426e-07
2.0595629e-07
1.9976292e-07
1.9379906e-07
1.8805093e-07
1.8250576e-07
1.7715181e-07
1.7197813e-07
1.6697463e-07
1.6213228e-07
1.5744233e-07
1.5289654e-07
1.484874e-07
1.4420791e-07
1.4005147e-07
1.3601195e-07
1.3208355e-07
1.28261e-07
1.2453937e-07
1.2091383e-07
1.1737983e-07
1.1393323e-07
1.1057002e-07
1.072865e-07
1.0407909e-07
1.0094445e-07
9.7879611e-08
9.4881541e-08
9.1947318e-08
8.9074296e-08
8.6259907e-08
8.3501732e-08
8.0797431e-08
7.8144805e-08
7.5541869e-08
7.298658e-08
7.0476963e-08
6.8011188e-08
6.5587476e-08
6.3204058e-08
6.0859289e-08
5.8551605e-08
5.6278555e-08
5.4041104e-08
5.1895329e-08
4.9902217e-08
4.805819e-08
4.6345918e-08
4.4753117e-08
4.3267464e-08
4.1878361e-08
4.0576432e-08
3.9353358e-08
3.8201755e-08
3.7115074e-08
3.6087395e-08
3.5113268e-08
3.4187679e-08
3.3305786e-08
3.2463121e-08
3.1654284e-08
3.0875573e-08
3.0116074e-08
2.9381516e-08
2.8614996e-08
2.7958047e-08
2.6981722e-08
0.00012579212
0.00011397866
0.00010971666
0.00010755639
0.00010618912
0.00010522707
0.00010451258
0.0001039641
0.00010353306
0.0001031881
0.00010290792
0.00010267754
0.0001024861
0.00010232556
0.0001021898
0.00010207421
0.00010197487
0.0001018899
0.00010181389
0.0001017581
0.00010166739
0.00010180983
0.00010076577
0.00010578992
1.7571612e-05
2.6194509e-06
5.0262629e-06
8.912966e-07
2.606312e-06
5.5183191e-07
1.7915707e-06
4.0237162e-07
1.3676447e-06
1.1339118e-06
1.1033887e-06
9.7596933e-07
9.177982e-07
8.410937e-07
7.8603934e-07
7.3265948e-07
6.8732947e-07
6.4622113e-07
6.0955472e-07
5.7639519e-07
5.463272e-07
5.1891283e-07
4.938146e-07
4.7074445e-07
4.4946142e-07
4.2976169e-07
4.114706e-07
3.9443801e-07
3.7853463e-07
3.6364801e-07
3.496806e-07
3.365472e-07
3.2417231e-07
3.1248919e-07
3.0143889e-07
2.9096888e-07
2.8103219e-07
2.7158705e-07
2.6259612e-07
2.5402535e-07
2.4584398e-07
2.3802428e-07
2.3054112e-07
2.2337157e-07
2.1649468e-07
2.0989159e-07
2.0354505e-07
1.9743888e-07
1.9155827e-07
1.8588971e-07
1.8042068e-07
1.7513964e-07
1.7003585e-07
1.650994e-07
1.6032143e-07
1.5569336e-07
1.5120708e-07
1.4685523e-07
1.4263093e-07
1.3852771e-07
1.3453953e-07
1.3066072e-07
1.2688608e-07
1.2321078e-07
1.1963006e-07
1.1613948e-07
1.1273493e-07
1.0941251e-07
1.0616856e-07
1.0299956e-07
9.990224e-08
9.6873669e-08
9.3910874e-08
9.1010982e-08
8.8171387e-08
8.5389565e-08
8.2663137e-08
7.99898e-08
7.7367392e-08
7.4793961e-08
7.2267495e-08
6.9786049e-08
6.7347824e-08
6.4951066e-08
6.2594036e-08
6.0275113e-08
5.7992757e-08
5.5744553e-08
5.3531457e-08
5.1408905e-08
4.9437244e-08
4.7613004e-08
4.5919061e-08
4.4343271e-08
4.2873453e-08
4.1499127e-08
4.0211021e-08
3.9000909e-08
3.786149e-08
3.6786286e-08
3.5769445e-08
3.4805575e-08
3.388972e-08
3.3017088e-08
3.2183262e-08
3.1382902e-08
3.0612342e-08
2.9860787e-08
2.9133917e-08
2.8375339e-08
2.7725223e-08
2.6759198e-08
0.00012571447
0.00011384547
0.00010956289
0.00010739199
0.00010601793
0.00010505107
0.000104333
0.00010378177
0.00010334855
0.00010300184
0.00010272023
0.00010248866
0.00010229623
0.00010213485
0.00010199837
0.00010188216
0.00010178228
0.00010169683
0.00010162039
0.00010156426
0.00010147307
0.00010161599
0.00010056779
0.00010561226
1.753434e-05
2.594509e-06
4.9106523e-06
8.8072689e-07
2.550645e-06
5.4460909e-07
1.7553972e-06
3.9723288e-07
1.3414122e-06
1.1133388e-06
1.0831818e-06
9.586525e-07
9.0166189e-07
8.2662798e-07
7.727116e-07
7.2044835e-07
6.7604346e-07
6.3576802e-07
5.998325e-07
5.6732636e-07
5.3784304e-07
5.1095537e-07
4.8633364e-07
4.6369647e-07
4.4280836e-07
4.234701e-07
4.0551094e-07
3.8878407e-07
3.7316309e-07
3.5853802e-07
3.4481342e-07
3.3190598e-07
3.1974183e-07
3.0825565e-07
2.9738976e-07
2.8709275e-07
2.7731863e-07
2.6802652e-07
2.5917985e-07
2.5074529e-07
2.4269271e-07
2.3499497e-07
2.2762744e-07
2.2056768e-07
2.1379516e-07
2.0729141e-07
2.0103951e-07
1.9502361e-07
1.8922921e-07
1.8364305e-07
1.7825285e-07
1.7304731e-07
1.6801589e-07
1.6314888e-07
1.5843758e-07
1.5387359e-07
1.4944895e-07
1.4515644e-07
1.409893e-07
1.3694121e-07
1.3300622e-07
1.2917877e-07
1.2545377e-07
1.2182647e-07
1.182922e-07
1.148466e-07
1.1148565e-07
1.0820549e-07
1.0500255e-07
1.0187336e-07
9.8814727e-08
9.5823756e-08
9.2897534e-08
9.0033235e-08
8.7228301e-08
8.4480252e-08
8.1786749e-08
7.914553e-08
7.6554469e-08
7.4011647e-08
7.1515087e-08
6.9062875e-08
6.6653242e-08
6.4284463e-08
6.1954827e-08
5.966274e-08
5.7406685e-08
5.5184287e-08
5.299649e-08
5.0898065e-08
4.8948697e-08
4.7145023e-08
4.5470134e-08
4.3912026e-08
4.2458672e-08
4.109971e-08
3.9825978e-08
3.8629345e-08
3.7502597e-08
3.6439332e-08
3.5433763e-08
3.4480564e-08
3.3574834e-08
3.2711838e-08
3.1887209e-08
3.1095669e-08
3.0333592e-08
2.9590305e-08
2.8871434e-08
2.8121136e-08
2.7478133e-08
2.6522829e-08
0.00012561089
0.00011366771
0.00010935763
0.00010717254
0.00010578942
0.00010481615
0.0001040933
0.00010353838
0.00010310226
0.00010275321
0.00010246969
0.00010223654
0.00010204279
0.00010188028
0.00010174284
0.0001016258
0.0001015252
0.00010143912
0.0001013621
0.00010130553
0.00010121368
0.00010135725
0.00010030356
0.00010537512
1.7499411e-05
2.5686809e-06
4.79085e-06
8.6968924e-07
2.4927672e-06
5.3705396e-07
1.7177193e-06
3.9184893e-07
1.3140566e-06
1.0918516e-06
1.0620898e-06
9.4056227e-07
8.8480588e-07
8.1150948e-07
7.5878051e-07
7.0768048e-07
6.6424059e-07
6.2483369e-07
5.8966072e-07
5.5783635e-07
5.2896324e-07
5.0262539e-07
4.785012e-07
4.563162e-07
4.358406e-07
4.1687994e-07
3.9926758e-07
3.8286018e-07
3.6753433e-07
3.5318261e-07
3.3971184e-07
3.2704062e-07
3.150968e-07
3.0381654e-07
2.9314348e-07
2.8302739e-07
2.7342329e-07
2.6429123e-07
2.5559545e-07
2.4730337e-07
2.3938552e-07
2.3181536e-07
2.245688e-07
2.1762391e-07
2.109606e-07
2.0456079e-07
1.9840793e-07
1.9248651e-07
1.8678231e-07
1.8128238e-07
1.7597469e-07
1.7084817e-07
1.658925e-07
1.6109817e-07
1.5645666e-07
1.5195975e-07
1.4759963e-07
1.4336924e-07
1.3926195e-07
1.3527156e-07
1.3139227e-07
1.276186e-07
1.2394558e-07
1.2036854e-07
1.1688292e-07
1.1348442e-07
1.1016912e-07
1.0693323e-07
1.0377324e-07
1.0068577e-07
9.7667654e-08
9.4716076e-08
9.1828173e-08
8.9001171e-08
8.623256e-08
8.3519907e-08
8.0860914e-08
7.8253362e-08
7.5695164e-08
7.3184435e-08
7.0719234e-08
6.8297681e-08
6.5918037e-08
6.3578609e-08
6.1277713e-08
5.9013784e-08
5.6785332e-08
5.4590019e-08
5.2428782e-08
5.0355693e-08
4.842974e-08
4.664767e-08
4.4992796e-08
4.3453268e-08
4.2017211e-08
4.0674394e-08
3.9415768e-08
3.8233302e-08
3.7119873e-08
3.6069157e-08
3.507544e-08
3.4133459e-08
3.3238375e-08
3.2385512e-08
3.1570554e-08
3.078829e-08
3.0035134e-08
2.9300543e-08
2.8590085e-08
2.7848509e-08
2.721299e-08
2.6268963e-08
0.00012547893
0.00011344094
0.00010909573
0.0001068925
0.0001054978
0.00010451635
0.00010378739
0.00010322777
0.00010278794
0.0001024359
0.00010214994
0.00010191478
0.00010171934
0.0001015554
0.00010141673
0.00010129864
0.00010119711
0.00010111023
0.00010103247
0.00010097532
0.00010088264
0.00010102703
9.9966367e-05
0.00010507257
1.7466982e-05
2.5417153e-06
4.6656324e-06
8.5806022e-07
2.4320599e-06
5.290803e-07
1.6781235e-06
3.8615648e-07
1.2852725e-06
1.0692056e-06
1.0398737e-06
9.2149152e-07
8.6703711e-07
7.9556396e-07
7.4408516e-07
6.9420785e-07
6.5178371e-07
6.1329072e-07
5.7892057e-07
5.4781403e-07
5.1958362e-07
4.9382498e-07
4.7022504e-07
4.4851659e-07
4.284758e-07
4.0991325e-07
3.9266656e-07
3.7659608e-07
3.615815e-07
3.4751813e-07
3.3431513e-07
3.2189314e-07
3.1018179e-07
2.9911884e-07
2.8864929e-07
2.7872414e-07
2.692995e-07
2.6033638e-07
2.517999e-07
2.4365823e-07
2.3588262e-07
2.2844716e-07
2.2132834e-07
2.1450474e-07
2.0795676e-07
2.0166671e-07
1.9561844e-07
1.897968e-07
1.8418788e-07
1.7877903e-07
1.7355848e-07
1.6851543e-07
1.6363977e-07
1.5892222e-07
1.5435444e-07
1.4992839e-07
1.4563643e-07
1.4147167e-07
1.3742761e-07
1.334982e-07
1.2967775e-07
1.2596092e-07
1.2234281e-07
1.1881889e-07
1.1538468e-07
1.1203597e-07
1.0876891e-07
1.0557982e-07
1.0246523e-07
9.9421848e-08
9.6446573e-08
9.3536644e-08
9.0689256e-08
8.7901693e-08
8.5171494e-08
8.2496275e-08
7.9873784e-08
7.7301846e-08
7.4778414e-08
7.2301642e-08
6.9869623e-08
6.7480517e-08
6.5132615e-08
6.2824257e-08
6.055379e-08
5.8319679e-08
5.6120459e-08
5.3953837e-08
5.1820736e-08
4.9774495e-08
4.787336e-08
4.6114191e-08
4.4480537e-08
4.2960708e-08
4.1542994e-08
4.0217298e-08
3.8974693e-08
3.7807254e-08
3.6707952e-08
3.5670549e-08
3.4689406e-08
3.3759328e-08
3.2875541e-08
3.2033429e-08
3.1228735e-08
3.0456314e-08
2.9712628e-08
2.8987269e-08
2.8285739e-08
2.7553433e-08
2.6925861e-08
2.5993802e-08
0.00012531566
0.00011315988
0.00010877101
0.00010654525
0.00010513617
0.00010414455
0.00010340802
0.00010284257
0.00010239813
0.00010204239
0.0001017534
0.00010151573
0.00010131819
0.00010115248
0.00010101229
0.00010089288
0.00010079021
0.00010070232
0.00010062366
0.0001005658
0.00010047208
0.00010061747
9.9548195e-05
0.00010469755
1.7437481e-05
2.5133861e-06
4.5338635e-06
8.4571872e-07
2.3679344e-06
5.2060256e-07
1.6362117e-06
3.8009234e-07
1.2547638e-06
1.0451617e-06
1.0162999e-06
9.0123712e-07
8.4816606e-07
7.7861998e-07
7.2846701e-07
6.7988437e-07
6.3853726e-07
6.0101302e-07
5.6749434e-07
5.3714922e-07
5.0960074e-07
4.8445683e-07
4.6141343e-07
4.40211e-07
4.20632e-07
4.0249232e-07
3.8563412e-07
3.6992162e-07
3.5523782e-07
3.4148093e-07
3.2856257e-07
3.1640553e-07
3.0494135e-07
2.9410945e-07
2.8385633e-07
2.7413423e-07
2.6490046e-07
2.5611703e-07
2.4774998e-07
2.3976832e-07
2.3214403e-07
2.2485188e-07
2.1786897e-07
2.1117443e-07
2.0474915e-07
1.9857592e-07
1.9263896e-07
1.8692349e-07
1.8141598e-07
1.7610406e-07
1.7097627e-07
1.6602205e-07
1.6123157e-07
1.5659574e-07
1.5210643e-07
1.4775581e-07
1.4353642e-07
1.3944152e-07
1.3546478e-07
1.3160028e-07
1.2784248e-07
1.2418616e-07
1.2062654e-07
1.1715918e-07
1.137797e-07
1.1048401e-07
1.0726834e-07
1.0412907e-07
1.0106285e-07
9.8066428e-08
9.5136787e-08
9.2271226e-08
8.9467003e-08
8.672146e-08
8.4032192e-08
8.1396864e-08
7.8813276e-08
7.6279296e-08
7.3792925e-08
7.1352353e-08
6.8955715e-08
6.6601208e-08
6.4287159e-08
6.2011941e-08
5.9773936e-08
5.7571639e-08
5.5403614e-08
5.3267612e-08
5.1164546e-08
4.9146971e-08
4.7272342e-08
4.5537635e-08
4.3926649e-08
4.2427865e-08
4.102975e-08
3.972235e-08
3.8496865e-08
3.7345485e-08
3.6261285e-08
3.5238113e-08
3.4270411e-08
3.3353059e-08
3.2481351e-08
3.1650736e-08
3.0857017e-08
3.0095124e-08
2.9361565e-08
2.8646079e-08
2.7954098e-08
2.7231718e-08
2.6612647e-08
2.5693388e-08
0.00012511776
0.00011281841
0.00010837633
0.00010612312
0.00010469653
0.00010369254
0.00010294678
0.00010237422
0.00010192418
0.00010156393
0.00010127126
0.00010103054
0.00010083044
0.00010066257
0.00010052053
0.00010039953
0.00010029546
0.00010020636
0.00010012659
0.00010006786
9.9972889e-05
0.00010011948
9.9039772e-05
0.00010424193
1.7411637e-05
2.483498e-06
4.3945076e-06
8.3254631e-07
2.2998365e-06
5.1153598e-07
1.5916031e-06
3.7359341e-07
1.2222444e-06
1.0194872e-06
9.9114118e-07
8.7960054e-07
8.2800727e-07
7.6050932e-07
7.1177023e-07
6.645662e-07
6.2436753e-07
5.8787603e-07
5.5526558e-07
5.2573277e-07
4.9891205e-07
4.7442434e-07
4.5197521e-07
4.3131323e-07
4.1222754e-07
3.945397e-07
3.7809668e-07
3.627668e-07
3.4843663e-07
3.3500742e-07
3.2239341e-07
3.1051973e-07
2.9931992e-07
2.8873519e-07
2.7871358e-07
2.6920875e-07
2.6017919e-07
2.5158805e-07
2.4340232e-07
2.355919e-07
2.2812956e-07
2.209908e-07
2.1415336e-07
2.0759699e-07
2.0130308e-07
1.952549e-07
1.8943711e-07
1.8383533e-07
1.784364e-07
1.7322828e-07
1.6819981e-07
1.6334073e-07
1.5864145e-07
1.5409314e-07
1.4968788e-07
1.4541804e-07
1.4127637e-07
1.3725629e-07
1.3335165e-07
1.2955669e-07
1.25866e-07
1.222745e-07
1.1877752e-07
1.1537076e-07
1.1204993e-07
1.0881104e-07
1.0565043e-07
1.0256456e-07
9.955016e-08
9.6604066e-08
9.3723332e-08
9.0905325e-08
8.814737e-08
8.5446871e-08
8.2801482e-08
8.0208924e-08
7.7667048e-08
7.5173775e-08
7.2727149e-08
7.0325406e-08
6.7966722e-08
6.5649335e-08
6.3371611e-08
6.1131958e-08
5.8928794e-08
5.6760648e-08
5.4626115e-08
5.2522993e-08
5.0452185e-08
4.8465405e-08
4.6619259e-08
4.4910841e-08
4.3324219e-08
4.1848057e-08
4.047101e-08
3.918328e-08
3.7976203e-08
3.6842093e-08
3.5774132e-08
3.4766266e-08
3.3813022e-08
3.290936e-08
3.2050645e-08
3.1232399e-08
3.0450489e-08
2.9699924e-08
2.8977262e-08
2.8272402e-08
2.7590695e-08
2.6879009e-08
2.6269088e-08
2.53636e-08
0.00012488153
0.00011240967
0.00010790363
0.00010561745
0.00010416983
0.00010315098
0.00010239416
0.00010181307
0.0001013563
0.00010099064
0.00010069356
0.00010044919
0.00010024602
0.00010007556
9.9931299e-05
9.9808376e-05
9.9702637e-05
9.961208e-05
9.9530981e-05
9.9471211e-05
9.9374741e-05
9.9522764e-05
9.8430603e-05
0.00010369649
1.7390521e-05
2.4518939e-06
4.2466501e-06
8.1842805e-07
2.2272548e-06
5.0179693e-07
1.5439392e-06
3.6659686e-07
1.1874416e-06
9.9195805e-07
9.6417878e-07
8.5638951e-07
8.063808e-07
7.4106819e-07
6.9384279e-07
6.4811267e-07
6.0914354e-07
5.737575e-07
5.421198e-07
5.1345718e-07
4.8741638e-07
4.6363212e-07
4.4182024e-07
4.2173795e-07
4.0318154e-07
3.8597857e-07
3.6998117e-07
3.5506206e-07
3.4111158e-07
3.2803425e-07
3.1574716e-07
3.0417786e-07
2.9326208e-07
2.8294292e-07
2.7317011e-07
2.6389876e-07
2.550887e-07
2.4670424e-07
2.3871343e-07
2.310871e-07
2.237989e-07
2.1682507e-07
2.1014407e-07
2.0373627e-07
1.9758365e-07
1.9166997e-07
1.8598036e-07
1.8050087e-07
1.7521873e-07
1.7012227e-07
1.6520066e-07
1.6044393e-07
1.5584278e-07
1.5138862e-07
1.4707379e-07
1.4289086e-07
1.3883282e-07
1.3489326e-07
1.3106621e-07
1.2734607e-07
1.237276e-07
1.2020585e-07
1.1677631e-07
1.1343476e-07
1.1017706e-07
1.0699932e-07
1.0389797e-07
1.0086959e-07
9.7910976e-08
9.5019068e-08
9.2190994e-08
8.9424194e-08
8.6716063e-08
8.4064076e-08
8.1465948e-08
7.891946e-08
7.642252e-08
7.3973102e-08
7.1569303e-08
6.9209403e-08
6.6891624e-08
6.4614248e-08
6.2375683e-08
6.0174376e-08
5.8008783e-08
5.5877469e-08
5.3779064e-08
5.1711415e-08
4.9675415e-08
4.7721873e-08
4.5906476e-08
4.4226444e-08
4.2666131e-08
4.12144e-08
3.986011e-08
3.8593627e-08
3.7406436e-08
3.6290984e-08
3.5240571e-08
3.4249245e-08
3.3311626e-08
3.242276e-08
3.157809e-08
3.0773214e-08
3.000407e-08
2.926575e-08
2.8554871e-08
2.78615e-08
2.7190901e-08
2.6490786e-08
2.5890762e-08
2.500016e-08
0.00012460292
0.00011192601
0.00010734394
0.0001050186
0.00010354601
0.00010250953
0.00010173957
0.00010114837
0.00010068362
0.00010031154
0.00010000922
9.976051e-05
9.9553715e-05
9.9380171e-05
9.9233283e-05
9.9108089e-05
9.9000368e-05
9.8908082e-05
9.8825408e-05
9.8764407e-05
9.8666163e-05
9.8815877e-05
9.7709022e-05
0.00010305104
1.7375598e-05
2.418467e-06
4.089526e-06
8.0325392e-07
2.1497328e-06
4.9130365e-07
1.4928908e-06
3.5904066e-07
1.150101e-06
9.6236202e-07
9.3520545e-07
8.3142075e-07
7.8311469e-07
7.2013943e-07
6.7453837e-07
6.3038797e-07
5.927385e-07
5.585388e-07
5.2794568e-07
5.0021774e-07
4.7501499e-07
4.5198688e-07
4.3086023e-07
4.1140148e-07
3.9341452e-07
3.7673337e-07
3.6121564e-07
3.4673879e-07
3.331972e-07
3.2049888e-07
3.0856395e-07
2.9732261e-07
2.867129e-07
2.7667997e-07
2.6717533e-07
2.5815568e-07
2.4958227e-07
2.4142067e-07
2.3364005e-07
2.2621226e-07
2.1911187e-07
2.1231593e-07
2.0580368e-07
1.9955617e-07
1.9355599e-07
1.8778744e-07
1.8223614e-07
1.7688863e-07
1.7173254e-07
1.6675658e-07
1.6195029e-07
1.5730403e-07
1.5280879e-07
1.4845627e-07
1.4423904e-07
1.4014994e-07
1.3618218e-07
1.3232954e-07
1.2858625e-07
1.2494691e-07
1.2140642e-07
1.1796e-07
1.1460326e-07
1.1133214e-07
1.0814261e-07
1.0503091e-07
1.0199357e-07
9.9027275e-08
9.6128931e-08
9.3295558e-08
9.0524374e-08
8.7812898e-08
8.5158603e-08
8.2559037e-08
8.0011983e-08
7.7515288e-08
7.5066919e-08
7.2664909e-08
7.030741e-08
6.7992753e-08
6.5719208e-08
6.3485106e-08
6.1288899e-08
5.9129075e-08
5.7004135e-08
5.491268e-08
5.2853378e-08
5.0824129e-08
4.8825816e-08
4.6908271e-08
4.5126186e-08
4.3476906e-08
4.1945102e-08
4.0519846e-08
3.9190219e-08
3.7946766e-08
3.6781132e-08
3.5685907e-08
3.465452e-08
3.3681129e-08
3.2760455e-08
3.1887634e-08
3.1058198e-08
3.0267825e-08
2.9512528e-08
2.8787493e-08
2.8089396e-08
2.7408491e-08
2.6749944e-08
2.6062394e-08
2.5473109e-08
2.4598653e-08
0.00012427761
0.00011135914
0.00010668748
0.00010431601
0.00010281404
0.00010175682
0.00010097142
0.00010036832
9.9894191e-05
9.9514577e-05
9.9206098e-05
9.8952291e-05
9.8741228e-05
9.856407e-05
9.841409e-05
9.8286229e-05
9.8176179e-05
9.8081863e-05
9.7997341e-05
9.7934895e-05
9.7834574e-05
9.7986262e-05
9.6862255e-05
0.00010229441
1.7368777e-05
2.3831753e-06
3.922557e-06
7.8692086e-07
2.0668847e-06
4.7997738e-07
1.4381679e-06
3.5086429e-07
1.1099926e-06
9.3050393e-07
9.0403043e-07
8.0452392e-07
7.5804858e-07
6.975756e-07
6.5371919e-07
6.1126371e-07
5.7503214e-07
5.4210703e-07
5.1263694e-07
4.8591418e-07
4.6161312e-07
4.3939889e-07
4.1901009e-07
4.0022298e-07
3.828496e-07
3.6673085e-07
3.5173026e-07
3.3773031e-07
3.2462974e-07
3.1234031e-07
3.0078538e-07
2.8989798e-07
2.7961865e-07
2.6989473e-07
2.6067965e-07
2.5193182e-07
2.4361401e-07
2.3569314e-07
2.2813958e-07
2.2092631e-07
2.1402884e-07
2.0742515e-07
2.0109529e-07
1.9502104e-07
1.8918564e-07
1.8357398e-07
1.7817223e-07
1.7296741e-07
1.6794761e-07
1.6310197e-07
1.584204e-07
1.538936e-07
1.4951291e-07
1.4527031e-07
1.4115866e-07
1.3717105e-07
1.3330094e-07
1.2954234e-07
1.2588967e-07
1.2233774e-07
1.1888162e-07
1.155167e-07
1.1223875e-07
1.0904384e-07
1.0592809e-07
1.0288786e-07
9.9919799e-08
9.7020715e-08
9.4187607e-08
9.1417602e-08
8.870801e-08
8.6056435e-08
8.3460434e-08
8.0917635e-08
7.8425895e-08
7.5983131e-08
7.3587376e-08
7.1236726e-08
6.8929393e-08
6.6663761e-08
6.4438155e-08
6.2250958e-08
6.0100669e-08
5.7985823e-08
5.5904965e-08
5.3856741e-08
5.1839855e-08
4.9852268e-08
4.789485e-08
4.6016376e-08
4.4270457e-08
4.2654572e-08
4.1153726e-08
3.9757225e-08
3.8454388e-08
3.7235953e-08
3.609374e-08
3.5020493e-08
3.4009781e-08
3.3055883e-08
3.2153626e-08
3.1298247e-08
3.048537e-08
2.9710764e-08
2.8970523e-08
2.8259933e-08
2.7575735e-08
2.6908386e-08
2.6262944e-08
2.5589067e-08
2.5011462e-08
2.415456e-08
0.00012390107
0.00011070009
0.00010592364
0.00010349827
0.000101962
0.00010088057
0.00010007715
9.9460179e-05
9.8975107e-05
9.8586702e-05
9.8271044e-05
9.8011296e-05
9.7795258e-05
9.7613886e-05
9.7460304e-05
9.7329334e-05
9.721657e-05
9.711989e-05
9.7033215e-05
9.6969088e-05
9.6866354e-05
9.7020329e-05
9.5876495e-05
0.00010141457
1.7372464e-05
2.3460617e-06
3.7453971e-06
7.6933574e-07
1.9784169e-06
4.6774398e-07
1.3795322e-06
3.4200988e-07
1.0669201e-06
8.9621216e-07
8.7048578e-07
7.7554699e-07
7.3103854e-07
6.7324327e-07
6.3125986e-07
5.9062237e-07
5.5591382e-07
5.2435786e-07
4.9609497e-07
4.7045314e-07
4.471222e-07
4.2578403e-07
4.0618981e-07
3.8812626e-07
3.7141411e-07
3.5590166e-07
3.4145871e-07
3.2797318e-07
3.1534844e-07
3.0350028e-07
2.9235554e-07
2.818503e-07
2.7192775e-07
2.6253761e-07
2.5363535e-07
2.4518122e-07
2.3713962e-07
2.2947893e-07
2.2217083e-07
2.1518946e-07
2.0851142e-07
2.0211563e-07
1.9598302e-07
1.9009617e-07
1.8443903e-07
1.7899712e-07
1.7375717e-07
1.6870676e-07
1.6383445e-07
1.5912984e-07
1.5458326e-07
1.5018578e-07
1.4592907e-07
1.4180547e-07
1.3780811e-07
1.3393038e-07
1.3016601e-07
1.2650922e-07
1.2295469e-07
1.1949741e-07
1.1613267e-07
1.1285602e-07
1.0966341e-07
1.0655106e-07
1.0351522e-07
1.0055242e-07
9.7659422e-08
9.4833156e-08
9.2070738e-08
8.9369402e-08
8.6726561e-08
8.4139909e-08
8.1607097e-08
7.9125838e-08
7.6694067e-08
7.4309779e-08
7.1971078e-08
6.967613e-08
6.742321e-08
6.5210761e-08
6.3037167e-08
6.0900866e-08
5.8800411e-08
5.6734386e-08
5.4701385e-08
5.2700099e-08
5.0729277e-08
4.8786942e-08
4.6873951e-08
4.5037935e-08
4.3331326e-08
4.1751745e-08
4.0284559e-08
3.8919326e-08
3.7645623e-08
3.64544e-08
3.5337663e-08
3.4288326e-08
3.3300109e-08
3.2367421e-08
3.1485206e-08
3.064881e-08
2.9853958e-08
2.9096514e-08
2.8372662e-08
2.7677797e-08
2.7008733e-08
2.6356143e-08
2.572497e-08
2.5065988e-08
2.4501104e-08
2.3663308e-08
0.00012346861
0.00010993937
0.00010504113
0.00010255319
0.00010097712
9.9867634e-05
9.9043329e-05
9.8410293e-05
9.7912553e-05
9.7513968e-05
9.719e-05
9.6923375e-05
9.6701577e-05
9.651533e-05
9.6357579e-05
9.6223012e-05
9.6107109e-05
9.6007693e-05
9.5918529e-05
9.5852459e-05
9.5746946e-05
9.5903549e-05
9.4736999e-05
0.00010039865
1.7389609e-05
2.3072793e-06
3.5579856e-06
7.5041903e-07
1.8841521e-06
4.5453609e-07
1.3168131e-06
3.3242364e-07
1.0207317e-06
8.593471e-07
8.3443467e-07
7.4436317e-07
7.0196349e-07
6.4702865e-07
6.0705247e-07
5.6836189e-07
5.3528672e-07
5.0519934e-07
4.7823232e-07
4.5375134e-07
4.3146282e-07
4.1106651e-07
3.9232699e-07
3.7504208e-07
3.590418e-07
3.441823e-07
3.3034013e-07
3.1740898e-07
3.0529719e-07
2.9392487e-07
2.8322259e-07
2.7312965e-07
2.6359214e-07
2.5456227e-07
2.4599774e-07
2.3786076e-07
2.3011748e-07
2.2273785e-07
2.1569495e-07
2.0896418e-07
2.0252328e-07
1.9635221e-07
1.9043285e-07
1.8474864e-07
1.7928427e-07
1.7402594e-07
1.6896101e-07
1.6407762e-07
1.5936489e-07
1.5481288e-07
1.5041235e-07
1.461548e-07
1.4203229e-07
1.3803747e-07
1.3416381e-07
1.3040503e-07
1.2675513e-07
1.2320857e-07
1.1976028e-07
1.164055e-07
1.1313971e-07
1.0995867e-07
1.0685848e-07
1.0383554e-07
1.0088628e-07
9.8007355e-08
9.5195681e-08
9.2448314e-08
8.9762494e-08
8.7135573e-08
8.4565075e-08
8.2048794e-08
7.9584477e-08
7.7169933e-08
7.4803183e-08
7.2482305e-08
7.0205479e-08
6.7970946e-08
6.5777052e-08
6.3622302e-08
6.1505144e-08
5.9424079e-08
5.7377714e-08
5.5364689e-08
5.338365e-08
5.1433338e-08
4.951255e-08
4.7619376e-08
4.5754658e-08
4.396479e-08
4.2300918e-08
4.0760812e-08
3.9330231e-08
3.7999007e-08
3.6756995e-08
3.5595375e-08
3.4506358e-08
3.3483038e-08
3.2519303e-08
3.1609701e-08
3.0749302e-08
2.9933573e-08
2.9158343e-08
2.8419587e-08
2.7713582e-08
2.7035842e-08
2.6383258e-08
2.5746745e-08
2.5131113e-08
2.4488363e-08
2.3937334e-08
2.3120344e-08
0.00012297552
0.00010906704
0.00010402806
0.00010146789
9.9845958e-05
9.8704144e-05
9.7855795e-05
9.7204263e-05
9.6691945e-05
9.6281649e-05
9.5948121e-05
9.5673587e-05
9.5445167e-05
9.5253315e-05
9.5090769e-05
9.4952067e-05
9.4832556e-05
9.4729996e-05
9.4637974e-05
9.4569674e-05
9.4460983e-05
9.4620584e-05
9.3428193e-05
9.9233171e-05
1.7423739e-05
2.2671233e-06
3.3606048e-06
7.3010959e-07
1.7840593e-06
4.4029592e-07
1.2499266e-06
3.2205788e-07
9.7133379e-07
8.1981159e-07
7.9578142e-07
7.1087942e-07
6.7073298e-07
6.1884457e-07
5.8101291e-07
5.444014e-07
5.1307307e-07
4.845567e-07
4.5897709e-07
4.3573961e-07
4.1456847e-07
3.9518237e-07
3.7736007e-07
3.609112e-07
3.4567562e-07
3.3151783e-07
3.1832156e-07
3.0598665e-07
2.9442675e-07
2.8356656e-07
2.7334062e-07
2.636917e-07
2.5456896e-07
2.4592729e-07
2.3772678e-07
2.2993169e-07
2.2251008e-07
2.1543358e-07
2.0867675e-07
2.0221636e-07
1.9603136e-07
1.9010283e-07
1.8441368e-07
1.7894826e-07
1.7369207e-07
1.6863202e-07
1.6375614e-07
1.5905321e-07
1.5451289e-07
1.5012576e-07
1.4588309e-07
1.4177678e-07
1.3779931e-07
1.3394371e-07
1.3020378e-07
1.2657361e-07
1.230475e-07
1.1962014e-07
1.1628676e-07
1.1304284e-07
1.0988409e-07
1.0680647e-07
1.0380629e-07
1.008801e-07
9.802453e-08
9.5236379e-08
9.2512724e-08
8.985076e-08
8.7247862e-08
8.470151e-08
8.2209345e-08
7.9769268e-08
7.7379134e-08
7.5036854e-08
7.2740542e-08
7.0488362e-08
6.8278583e-08
6.6109524e-08
6.3979608e-08
6.1887407e-08
5.983144e-08
5.7810272e-08
5.5822572e-08
5.386704e-08
5.1942379e-08
5.0047384e-08
4.8180902e-08
4.6341096e-08
4.4528796e-08
4.278905e-08
4.117161e-08
3.9674397e-08
3.8283598e-08
3.6989339e-08
3.5781779e-08
3.4652345e-08
3.3593468e-08
3.2598443e-08
3.1661337e-08
3.0776846e-08
2.9940182e-08
2.9146937e-08
2.8393061e-08
2.7674639e-08
2.6988057e-08
2.6328956e-08
2.5694313e-08
2.50753e-08
2.4476584e-08
2.3851511e-08
2.331557e-08
2.2521221e-08
0.00012241721
0.00010807286
0.0001028721
0.00010022903
9.8554504e-05
9.7375665e-05
9.6499792e-05
9.5827097e-05
9.5298104e-05
9.4874415e-05
9.4529958e-05
9.4246384e-05
9.4010394e-05
9.3812135e-05
9.3644112e-05
9.3500686e-05
9.3377053e-05
9.3270904e-05
9.3175621e-05
9.3104776e-05
9.2992474e-05
9.3155473e-05
9.1933888e-05
9.7904077e-05
1.7478966e-05
2.2260715e-06
3.1539416e-06
7.0837048e-07
1.6782859e-06
4.2497873e-07
1.1788975e-06
3.1087337e-07
9.1870681e-07
7.7756319e-07
7.5448359e-07
6.7504679e-07
6.3729674e-07
5.8863886e-07
5.5308859e-07
5.1868822e-07
4.8922054e-07
4.6237819e-07
4.3827832e-07
4.1636797e-07
3.9639018e-07
3.7808376e-07
3.612424e-07
3.4568816e-07
3.3127129e-07
3.1786516e-07
3.0536107e-07
2.9366543e-07
2.8269747e-07
2.7238679e-07
2.6267216e-07