/*--------------------------------*- C++ -*----------------------------------*\
| =========                 |                                                 |
| \\      /  F ield         | OpenFOAM: The Open Source CFD Toolbox           |
|  \\    /   O peration     | Version:  2206                                  |
|   \\  /    A nd           | Website:  www.openfoam.com                      |
|    \\/     M anipulation  |                                                 |
\*---------------------------------------------------------------------------*/
FoamFile
{
    version     2.0;
    format      ascii;
    arch        "LSB;label=32;scalar=64";
    class       volScalarField;
    location    "1700";
    object      nut;
}
// * * * * * * * * * * * * * * * * * * * * * * * * * * * * * * * * * * * * * //

dimensions      [0 2 -1 0 0 0 0];

internalField   nonuniform List<scalar> 
13056
(
6.5406618e-09
5.4703397e-09
5.1268852e-09
4.957118e-09
4.8503347e-09
4.775696e-09
4.7206045e-09
4.6785102e-09
4.6455304e-09
4.6191772e-09
4.5977702e-09
4.5801283e-09
4.5653915e-09
4.552913e-09
4.5421817e-09
4.5327867e-09
4.5243134e-09
4.5164884e-09
4.5083998e-09
4.5008176e-09
4.4862504e-09
4.4843933e-09
4.3881014e-09
3.8619308e-09
3.1605365e-11
1.2324913e-11
1.7394457e-11
7.2110555e-12
1.2495241e-11
5.6832942e-12
1.0342296e-11
4.8506514e-12
9.0232739e-12
8.2039001e-12
8.0948827e-12
7.6069411e-12
7.3751676e-12
7.056409e-12
6.819264e-12
6.5809633e-12
6.3719332e-12
6.1763265e-12
5.9966477e-12
5.8294926e-12
5.6737822e-12
5.5280884e-12
5.3913406e-12
5.2625887e-12
5.1410247e-12
5.0259517e-12
4.9167584e-12
4.8129085e-12
4.7139322e-12
4.6194125e-12
4.5289823e-12
4.4423165e-12
4.3591207e-12
4.2791299e-12
4.2021071e-12
4.1278376e-12
4.056126e-12
3.9867971e-12
3.9196924e-12
3.8546638e-12
3.7915757e-12
3.7303046e-12
3.6707366e-12
3.6127664e-12
3.5562963e-12
3.501238e-12
3.4475097e-12
3.3950327e-12
3.3437338e-12
3.2935457e-12
3.244405e-12
3.1962524e-12
3.1490316e-12
3.1026902e-12
3.0571817e-12
3.0124592e-12
2.9684769e-12
2.9251934e-12
2.882569e-12
2.8405658e-12
2.7991475e-12
2.7582792e-12
2.7179292e-12
2.678067e-12
2.6386614e-12
2.5996822e-12
2.5611015e-12
2.5228916e-12
2.4850258e-12
2.4474775e-12
2.4102214e-12
2.3732344e-12
2.3364918e-12
2.2999681e-12
2.26364e-12
2.2274833e-12
2.1914746e-12
2.1555895e-12
2.1198042e-12
2.084096e-12
2.0484401e-12
2.0128107e-12
1.9771822e-12
1.9415281e-12
1.90582e-12
1.8700293e-12
1.8341263e-12
1.7980646e-12
1.7618505e-12
1.7264112e-12
1.692833e-12
1.6611641e-12
1.6312091e-12
1.6028432e-12
1.5759264e-12
1.5503373e-12
1.5259655e-12
1.5027108e-12
1.480482e-12
1.4591966e-12
1.438778e-12
1.4191528e-12
1.4002512e-12
1.382002e-12
1.3643369e-12
1.3471635e-12
1.3304208e-12
1.313886e-12
1.2976934e-12
1.2805829e-12
1.2657321e-12
1.2433275e-12
6.5407329e-09
5.4696841e-09
5.1260033e-09
4.9561251e-09
4.8492726e-09
4.7745858e-09
4.7194591e-09
4.6773381e-09
4.6443377e-09
4.6179682e-09
4.5965484e-09
4.5788964e-09
4.5641519e-09
4.5516678e-09
4.540933e-09
4.5315367e-09
4.5230649e-09
4.5152449e-09
4.5071679e-09
4.4996039e-09
4.4850824e-09
4.4832862e-09
4.3872595e-09
3.861332e-09
3.206568e-11
1.2214459e-11
1.6990593e-11
7.1268452e-12
1.2215917e-11
5.6028386e-12
1.0120363e-11
4.7798643e-12
8.8379425e-12
8.0435827e-12
7.9352266e-12
7.4610387e-12
7.2349094e-12
6.9247933e-12
6.6937121e-12
6.4616298e-12
6.2579255e-12
6.0672747e-12
5.8920728e-12
5.7290326e-12
5.5771011e-12
5.4348968e-12
5.3013813e-12
5.175633e-12
5.0568674e-12
4.9444077e-12
4.8376604e-12
4.7361046e-12
4.6392841e-12
4.5467939e-12
4.4582775e-12
4.3734193e-12
4.2919332e-12
4.2135618e-12
4.138075e-12
4.0652641e-12
3.9949391e-12
3.9269299e-12
3.8610823e-12
3.7972526e-12
3.7353088e-12
3.6751311e-12
3.6166087e-12
3.5596396e-12
3.5041286e-12
3.4499901e-12
3.3971444e-12
3.345515e-12
3.2950306e-12
3.2456257e-12
3.1972385e-12
3.1498115e-12
3.1032897e-12
3.0576221e-12
3.0127633e-12
2.9686678e-12
2.9252907e-12
2.8825919e-12
2.8405324e-12
2.7990754e-12
2.7581856e-12
2.7178288e-12
2.6779739e-12
2.6385913e-12
2.5996503e-12
2.5611215e-12
2.5229774e-12
2.4851908e-12
2.4477357e-12
2.4105858e-12
2.3737162e-12
2.3371043e-12
2.3007257e-12
2.2645552e-12
2.2285697e-12
2.1927454e-12
2.1570589e-12
2.1214863e-12
2.0860036e-12
2.0505883e-12
2.0152157e-12
1.9798598e-12
1.9444952e-12
1.9090951e-12
1.873631e-12
1.8380739e-12
1.8023938e-12
1.7665441e-12
1.7305301e-12
1.6952728e-12
1.6618534e-12
1.6303224e-12
1.6004863e-12
1.5722222e-12
1.545392e-12
1.5198755e-12
1.4955637e-12
1.4723572e-12
1.4501659e-12
1.4289083e-12
1.4085083e-12
1.3888934e-12
1.3699943e-12
1.3517401e-12
1.334063e-12
1.3168709e-12
1.3001027e-12
1.2835357e-12
1.2673045e-12
1.2501429e-12
1.2352408e-12
1.2127506e-12
6.5409082e-09
5.4676297e-09
5.1232618e-09
4.9530471e-09
4.8459843e-09
4.7711513e-09
4.7159173e-09
4.6737147e-09
4.6406507e-09
4.6142308e-09
4.5927705e-09
4.5750858e-09
4.5603148e-09
4.5478094e-09
4.5370581e-09
4.5276498e-09
4.5191709e-09
4.5113495e-09
4.5032803e-09
4.4957342e-09
4.4812647e-09
4.479554e-09
4.3838291e-09
3.859332e-09
3.2551369e-11
1.210397e-11
1.6588401e-11
7.0421619e-12
1.1936842e-11
5.5218373e-12
9.8982482e-12
4.7085581e-12
8.6522381e-12
7.8827356e-12
7.7750943e-12
7.3146007e-12
7.0941236e-12
6.7926247e-12
6.5676066e-12
6.3417342e-12
6.1433552e-12
5.9576588e-12
5.7869349e-12
5.6280113e-12
5.4798617e-12
5.3411505e-12
5.2108714e-12
5.0881313e-12
4.9721691e-12
4.8623279e-12
4.758032e-12
4.6587758e-12
4.5641167e-12
4.4736616e-12
4.3870648e-12
4.3040197e-12
4.2242489e-12
4.1475026e-12
4.0735573e-12
4.0022105e-12
3.9332776e-12
3.8665934e-12
3.8020083e-12
3.7393826e-12
3.6785884e-12
3.6195091e-12
3.5620374e-12
3.5060743e-12
3.4515275e-12
3.3983136e-12
3.3463555e-12
3.2955785e-12
3.2459133e-12
3.1972964e-12
3.1496675e-12
3.1029708e-12
3.0571527e-12
3.0121635e-12
2.9679592e-12
2.9244952e-12
2.881728e-12
2.8396185e-12
2.7981287e-12
2.7572227e-12
2.7168661e-12
2.6770256e-12
2.6376708e-12
2.5987727e-12
2.5603014e-12
2.5222281e-12
2.4845258e-12
2.4471679e-12
2.4101289e-12
2.373383e-12
2.3369057e-12
2.3006749e-12
2.2646663e-12
2.2288554e-12
2.1932191e-12
2.157734e-12
2.122377e-12
2.0871242e-12
2.0519519e-12
2.0168378e-12
1.981757e-12
1.9466838e-12
1.9115926e-12
1.8764567e-12
1.8412473e-12
1.8059353e-12
1.7704905e-12
1.734866e-12
1.6990664e-12
1.6640059e-12
1.6307608e-12
1.599383e-12
1.5696815e-12
1.5415351e-12
1.5148075e-12
1.4893799e-12
1.4651443e-12
1.4420027e-12
1.419866e-12
1.3986533e-12
1.3782895e-12
1.3587026e-12
1.3398239e-12
1.3215831e-12
1.3039128e-12
1.2867211e-12
1.2699474e-12
1.2533687e-12
1.2371201e-12
1.2199313e-12
1.2049996e-12
1.1824589e-12
6.5411997e-09
5.4641132e-09
5.1185747e-09
4.9477869e-09
4.8403657e-09
4.7652837e-09
4.7098667e-09
4.667525e-09
4.6343523e-09
4.607846e-09
4.586316e-09
4.5685745e-09
4.553757e-09
4.5412136e-09
4.5304315e-09
4.520999e-09
4.5125028e-09
4.5046713e-09
4.4966028e-09
4.48907e-09
4.4746495e-09
4.4730387e-09
4.3775974e-09
3.8557887e-09
3.3071774e-11
1.1992024e-11
1.618258e-11
6.9559249e-12
1.165435e-11
5.4392661e-12
9.6730294e-12
4.6358513e-12
8.4637163e-12
7.7192327e-12
7.612372e-12
7.165692e-12
6.9509522e-12
6.6581595e-12
6.4392858e-12
6.2196985e-12
6.0267163e-12
5.84604e-12
5.6798561e-12
5.525107e-12
5.3807938e-12
5.245627e-12
5.1186332e-12
4.9989474e-12
4.8858323e-12
4.7786512e-12
4.6768461e-12
4.5799272e-12
4.4874653e-12
4.3990795e-12
4.3144347e-12
4.233234e-12
4.1552084e-12
4.0801157e-12
4.0077393e-12
3.9378828e-12
3.8703673e-12
3.8050324e-12
3.7417331e-12
3.680334e-12
3.6207109e-12
3.562751e-12
3.5063503e-12
3.4514128e-12
3.3978491e-12
3.3455784e-12
3.2945256e-12
3.2446182e-12
3.1957892e-12
3.1479766e-12
3.1011221e-12
3.0551711e-12
3.0100719e-12
2.9657759e-12
2.9222405e-12
2.8794223e-12
2.837279e-12
2.7957725e-12
2.7548658e-12
2.7145241e-12
2.6747138e-12
2.6354024e-12
2.5965604e-12
2.5581595e-12
2.5201704e-12
2.482565e-12
2.4453169e-12
2.4084001e-12
2.3717896e-12
2.3354601e-12
2.2993875e-12
2.2635502e-12
2.2279242e-12
2.1924855e-12
2.1572112e-12
2.1220784e-12
2.087064e-12
2.0521444e-12
2.0172962e-12
1.9824972e-12
1.9477227e-12
1.912947e-12
1.8781446e-12
1.8432886e-12
1.8083504e-12
1.7733008e-12
1.7381092e-12
1.7027287e-12
1.6671633e-12
1.6323201e-12
1.5992695e-12
1.5680651e-12
1.5385183e-12
1.5105096e-12
1.4839045e-12
1.4585856e-12
1.4344463e-12
1.4113895e-12
1.3893273e-12
1.3681796e-12
1.347872e-12
1.3283333e-12
1.3094955e-12
1.2912887e-12
1.2736461e-12
1.2564761e-12
1.2397184e-12
1.2231504e-12
1.2069073e-12
1.1897168e-12
1.1747787e-12
1.1522244e-12
6.5416268e-09
5.4590361e-09
5.1118078e-09
4.9401929e-09
4.8322547e-09
4.7568134e-09
4.7011326e-09
4.65859e-09
4.6252605e-09
4.5986293e-09
4.5769984e-09
4.5591743e-09
4.5442889e-09
4.5316894e-09
4.5208613e-09
4.5113918e-09
4.5028671e-09
4.4950164e-09
4.4869411e-09
4.4794169e-09
4.4650424e-09
4.4635469e-09
4.3683716e-09
3.8505906e-09
3.3636534e-11
1.1877306e-11
1.5768253e-11
6.8670987e-12
1.1365022e-11
5.3541377e-12
9.4419569e-12
4.5608927e-12
8.2700654e-12
7.551052e-12
7.4450508e-12
7.0124686e-12
6.8036238e-12
6.5197318e-12
6.3071608e-12
6.0940118e-12
5.9065656e-12
5.7310381e-12
5.5695135e-12
5.4190494e-12
5.2786759e-12
5.1471503e-12
5.0235325e-12
4.9069867e-12
4.7967993e-12
4.6923544e-12
4.5931121e-12
4.4985984e-12
4.4083983e-12
4.3221432e-12
4.2395088e-12
4.1602081e-12
4.0839806e-12
4.0105921e-12
3.939833e-12
3.8715131e-12
3.8054592e-12
3.741516e-12
3.6795432e-12
3.6194098e-12
3.5609955e-12
3.5041911e-12
3.4488962e-12
3.395018e-12
3.34247e-12
3.2911738e-12
3.2410567e-12
3.1920485e-12
3.1440841e-12
3.0971035e-12
3.0510501e-12
3.0058711e-12
2.9615161e-12
2.9179381e-12
2.8750957e-12
2.8329467e-12
2.7914502e-12
2.750569e-12
2.7102675e-12
2.6705115e-12
2.6312687e-12
2.5925073e-12
2.5541985e-12
2.516315e-12
2.478828e-12
2.4417101e-12
2.4049357e-12
2.3684793e-12
2.3323163e-12
2.2964222e-12
2.2607733e-12
2.2253483e-12
2.1901239e-12
2.1550763e-12
2.120183e-12
2.0854215e-12
2.0507689e-12
2.016202e-12
1.9816976e-12
1.9472336e-12
1.9127856e-12
1.878328e-12
1.8438354e-12
1.8092811e-12
1.7746363e-12
1.7398718e-12
1.7049572e-12
1.6698453e-12
1.6345397e-12
1.5999397e-12
1.5671091e-12
1.5361033e-12
1.5067359e-12
1.4788892e-12
1.4524307e-12
1.4272444e-12
1.4032249e-12
1.3802763e-12
1.3583118e-12
1.3372522e-12
1.317024e-12
1.2975566e-12
1.2787827e-12
1.2606331e-12
1.2430413e-12
1.2259165e-12
1.2091986e-12
1.1926657e-12
1.1764528e-12
1.1592883e-12
1.1443683e-12
1.1218397e-12
6.5422181e-09
5.4522663e-09
5.1027805e-09
4.9300613e-09
4.8214332e-09
4.7455125e-09
4.6894796e-09
4.6466689e-09
4.6131301e-09
4.5863321e-09
4.5645662e-09
4.5466317e-09
4.531655e-09
4.5189799e-09
4.5080892e-09
4.4985685e-09
4.4900035e-09
4.4821235e-09
4.4740334e-09
4.4665126e-09
4.4521807e-09
4.4508169e-09
4.3558898e-09
3.8435867e-09
3.4256901e-11
1.1758608e-11
1.534094e-11
6.7746873e-12
1.1065659e-11
5.2654957e-12
9.2024373e-12
4.4828573e-12
8.0690916e-12
7.3762634e-12
7.2712137e-12
6.8531653e-12
6.650441e-12
6.375743e-12
6.1697047e-12
5.9632202e-12
5.7815132e-12
5.6113223e-12
5.4546302e-12
5.3086118e-12
5.1723275e-12
5.0445827e-12
4.9244719e-12
4.811189e-12
4.704045e-12
4.6024454e-12
4.5058688e-12
4.4138578e-12
4.3260117e-12
4.2419748e-12
4.161434e-12
4.0841122e-12
4.0097582e-12
3.9381458e-12
3.8690725e-12
3.8023547e-12
3.737825e-12
3.6753336e-12
3.6147448e-12
3.5559322e-12
3.4987798e-12
3.443182e-12
3.389042e-12
3.3362704e-12
3.2847837e-12
3.2345061e-12
3.1853674e-12
3.1372996e-12
3.0902397e-12
3.0441298e-12
2.9989151e-12
2.9545444e-12
2.910969e-12
2.8681434e-12
2.8260274e-12
2.7845803e-12
2.7437624e-12
2.7035377e-12
2.6638715e-12
2.6247311e-12
2.5860848e-12
2.5479019e-12
2.5101545e-12
2.4728159e-12
2.4358582e-12
2.3992546e-12
2.3629804e-12
2.3270104e-12
2.2913209e-12
2.2558879e-12
2.2206882e-12
2.1857009e-12
2.1509033e-12
2.1162719e-12
2.0817849e-12
2.0474198e-12
2.0131544e-12
1.9789656e-12
1.9448306e-12
1.9107276e-12
1.8766323e-12
1.8425194e-12
1.8083636e-12
1.7741384e-12
1.7398151e-12
1.7053647e-12
1.6707565e-12
1.6359437e-12
1.6009294e-12
1.5666045e-12
1.5340251e-12
1.503248e-12
1.4740897e-12
1.446434e-12
1.4201505e-12
1.3951247e-12
1.3712525e-12
1.3484394e-12
1.3265993e-12
1.3056544e-12
1.2855319e-12
1.2661619e-12
1.2474779e-12
1.2294113e-12
1.2118963e-12
1.1948427e-12
1.1781907e-12
1.1617197e-12
1.1455641e-12
1.1284554e-12
1.1135803e-12
1.0911194e-12
6.5430134e-09
5.4436393e-09
5.0912675e-09
4.9171377e-09
4.8076286e-09
4.731096e-09
4.6746137e-09
4.6314609e-09
4.5976548e-09
4.5706439e-09
4.5487056e-09
4.5306298e-09
4.5155363e-09
4.5027641e-09
4.4917925e-09
4.4822051e-09
4.4735866e-09
4.4656663e-09
4.4575525e-09
4.4500295e-09
4.4357366e-09
4.4345219e-09
4.3398241e-09
3.8345873e-09
3.4946103e-11
1.1634841e-11
1.4896555e-11
6.6777321e-12
1.0753285e-11
5.1724117e-12
8.952029e-12
4.4009436e-12
7.8587141e-12
7.1930231e-12
7.0890309e-12
6.6860909e-12
6.4897764e-12
6.2246561e-12
6.0254481e-12
5.8259226e-12
5.6502175e-12
5.485607e-12
5.3339717e-12
5.1926065e-12
5.0606046e-12
4.9368211e-12
4.8203863e-12
4.7105251e-12
4.6065738e-12
4.50796e-12
4.4141819e-12
4.3247991e-12
4.2394258e-12
4.1577196e-12
4.0793794e-12
4.0041384e-12
3.9317547e-12
3.8620106e-12
3.7947114e-12
3.7296799e-12
3.666755e-12
3.6057923e-12
3.5466615e-12
3.4892407e-12
3.4334181e-12
3.3790923e-12
3.3261702e-12
3.274566e-12
3.2241992e-12
3.1749967e-12
3.126891e-12
3.0798165e-12
3.0337123e-12
2.9885226e-12
2.9441945e-12
2.9006787e-12
2.8579282e-12
2.8158989e-12
2.774552e-12
2.7338484e-12
2.6937497e-12
2.654221e-12
2.615229e-12
2.5767419e-12
2.5387292e-12
2.5011612e-12
2.4640108e-12
2.4272521e-12
2.3908581e-12
2.3548028e-12
2.3190621e-12
2.2836117e-12
2.2484283e-12
2.2134887e-12
2.1787702e-12
2.1442525e-12
2.1099133e-12
2.0757298e-12
2.0416805e-12
2.0077433e-12
1.9738965e-12
1.9401175e-12
1.9063836e-12
1.8726735e-12
1.8389632e-12
1.8052276e-12
1.7714417e-12
1.7375792e-12
1.7036116e-12
1.66951e-12
1.6352441e-12
1.6007671e-12
1.5660819e-12
1.53207e-12
1.4997786e-12
1.469266e-12
1.4403515e-12
1.4129207e-12
1.3868454e-12
1.3620124e-12
1.3383193e-12
1.3156726e-12
1.2939878e-12
1.2731877e-12
1.2532005e-12
1.2339574e-12
1.2153924e-12
1.1974378e-12
1.1800283e-12
1.1630747e-12
1.1465176e-12
1.1301377e-12
1.114069e-12
1.0970485e-12
1.082247e-12
1.0598993e-12
6.5440659e-09
5.4329609e-09
5.0770007e-09
4.9011187e-09
4.790516e-09
4.7132242e-09
4.6561844e-09
4.6126074e-09
4.5784699e-09
4.5511948e-09
4.5290426e-09
4.5107914e-09
4.4955526e-09
4.4826593e-09
4.4715867e-09
4.4619154e-09
4.4532287e-09
4.4452561e-09
4.4371085e-09
4.429577e-09
4.4153189e-09
4.4142727e-09
4.3197827e-09
3.823365e-09
3.571981e-11
1.1505058e-11
1.4431429e-11
6.5753135e-12
1.0425155e-11
5.0739853e-12
8.6884507e-12
4.3143733e-12
7.6369716e-12
6.9995782e-12
6.896763e-12
6.5096312e-12
6.3200741e-12
6.0649987e-12
5.8729805e-12
5.6807715e-12
5.5113869e-12
5.3526523e-12
5.2063455e-12
5.0698856e-12
4.9424004e-12
4.822797e-12
4.7102433e-12
4.6039963e-12
4.5034189e-12
4.4079618e-12
4.3171432e-12
4.2305408e-12
4.1477846e-12
4.068546e-12
3.9925363e-12
3.9194995e-12
3.8492038e-12
3.7814404e-12
3.7160222e-12
3.6527794e-12
3.5915571e-12
3.5322169e-12
3.4746338e-12
3.4186909e-12
3.3642809e-12
3.3113066e-12
3.259679e-12
3.209316e-12
3.1601403e-12
3.1120818e-12
3.0650755e-12
3.0190584e-12
2.9739721e-12
2.9297628e-12
2.8863797e-12
2.8437755e-12
2.8019047e-12
2.7607251e-12
2.7201992e-12
2.6802896e-12
2.6409594e-12
2.6021749e-12
2.5639039e-12
2.5261161e-12
2.4887819e-12
2.4518729e-12
2.4153626e-12
2.3792263e-12
2.3434377e-12
2.3079718e-12
2.2728051e-12
2.2379141e-12
2.2032763e-12
2.1688691e-12
2.1346705e-12
2.1006608e-12
2.0668182e-12
2.0331204e-12
1.9995466e-12
1.9660752e-12
1.9326849e-12
1.8993534e-12
1.8660587e-12
1.8327796e-12
1.7994927e-12
1.7661733e-12
1.7327966e-12
1.6993365e-12
1.6657652e-12
1.6320537e-12
1.598172e-12
1.5640739e-12
1.529762e-12
1.4961073e-12
1.4641468e-12
1.4339402e-12
1.4053097e-12
1.3781428e-12
1.3523136e-12
1.3277105e-12
1.3042325e-12
1.2817877e-12
1.2602926e-12
1.2396714e-12
1.2198531e-12
1.2007697e-12
1.1823563e-12
1.1645457e-12
1.1472737e-12
1.1304518e-12
1.1140212e-12
1.0977647e-12
1.0818152e-12
1.0649182e-12
1.0502215e-12
1.0280359e-12
6.5454464e-09
5.4200087e-09
5.0596716e-09
4.8816549e-09
4.7697209e-09
4.6915053e-09
4.6337875e-09
4.5896945e-09
4.555154e-09
4.5275578e-09
4.5051454e-09
4.4866808e-09
4.4712651e-09
4.4582241e-09
4.447028e-09
4.4372537e-09
4.4284826e-09
4.420444e-09
4.4122517e-09
4.4047045e-09
4.3904765e-09
4.3896198e-09
4.2953138e-09
3.8096551e-09
3.6596732e-11
1.136849e-11
1.3942363e-11
6.4665567e-12
1.007879e-11
4.9693468e-12
8.4096037e-12
4.2223943e-12
7.4020386e-12
6.7942793e-12
6.6927742e-12
6.3222599e-12
6.1398608e-12
5.8953712e-12
5.7109587e-12
5.5264811e-12
5.3637862e-12
5.2112705e-12
5.0706077e-12
4.9393458e-12
4.8166497e-12
4.701481e-12
4.5930473e-12
4.490639e-12
4.3936466e-12
4.3015451e-12
4.213874e-12
4.1302298e-12
4.050259e-12
3.9736478e-12
3.9001204e-12
3.8294324e-12
3.7613623e-12
3.6957106e-12
3.6322989e-12
3.5709644e-12
3.5115593e-12
3.4539513e-12
3.3980211e-12
3.343657e-12
3.2907566e-12
3.239227e-12
3.1889837e-12
3.1399485e-12
3.0920475e-12
3.0452137e-12
2.9993847e-12
2.9545005e-12
2.9105049e-12
2.8673467e-12
2.8249771e-12
2.7833508e-12
2.7424243e-12
2.702157e-12
2.6625132e-12
2.6234569e-12
2.5849531e-12
2.5469691e-12
2.5094743e-12
2.4724397e-12
2.4358369e-12
2.3996384e-12
2.3638191e-12
2.3283549e-12
2.2932207e-12
2.2583924e-12
2.2238471e-12
2.1895625e-12
2.1555165e-12
2.1216875e-12
2.0880541e-12
2.0545973e-12
2.021296e-12
1.9881284e-12
1.9550744e-12
1.9221129e-12
1.889223e-12
1.8563833e-12
1.823572e-12
1.7907686e-12
1.7579499e-12
1.7250918e-12
1.6921699e-12
1.6591586e-12
1.6260303e-12
1.5927566e-12
1.5593078e-12
1.5256382e-12
1.4917505e-12
1.4585036e-12
1.426923e-12
1.3970698e-12
1.368769e-12
1.3419103e-12
1.3163702e-12
1.2920388e-12
1.2688167e-12
1.2466135e-12
1.225347e-12
1.2049426e-12
1.1853304e-12
1.1664434e-12
1.1482174e-12
1.1305865e-12
1.113487e-12
1.0968316e-12
1.0805624e-12
1.0644644e-12
1.0486691e-12
1.0319337e-12
1.0173756e-12
9.9540445e-13
6.5472477e-09
5.4045351e-09
5.0389331e-09
4.8583525e-09
4.744821e-09
4.6654976e-09
4.6069671e-09
4.562256e-09
4.5272328e-09
4.4992518e-09
4.4765278e-09
4.4578073e-09
4.4421795e-09
4.4289613e-09
4.4176166e-09
4.407718e-09
4.3988444e-09
4.3907247e-09
4.3824752e-09
4.3749044e-09
4.360701e-09
4.3600569e-09
4.2659085e-09
3.7931567e-09
3.7599382e-11
1.1224604e-11
1.3426708e-11
6.3506429e-12
9.7120239e-12
4.8576648e-12
8.1136088e-12
4.1242854e-12
7.1522542e-12
6.5756043e-12
6.4755549e-12
6.1225587e-12
5.9477638e-12
5.7144645e-12
5.5381226e-12
5.3618413e-12
5.20625e-12
5.0603385e-12
4.9256744e-12
4.7999398e-12
4.6823396e-12
4.5718926e-12
4.4678485e-12
4.3695323e-12
4.2763638e-12
4.187843e-12
4.1035323e-12
4.0230477e-12
3.9460533e-12
3.8722507e-12
3.8013779e-12
3.7332027e-12
3.6675146e-12
3.604124e-12
3.5428612e-12
3.4835714e-12
3.4261139e-12
3.3703632e-12
3.3162057e-12
3.2635354e-12
3.2122552e-12
3.1622768e-12
3.1135202e-12
3.0659118e-12
3.0193809e-12
2.9738638e-12
2.9293013e-12
2.8856361e-12
2.8428148e-12
2.8007885e-12
2.7595108e-12
2.7189385e-12
2.6790301e-12
2.6397469e-12
2.6010549e-12
2.56292e-12
2.5253088e-12
2.48819e-12
2.4515346e-12
2.4153149e-12
2.3795039e-12
2.3440754e-12
2.3090051e-12
2.2742702e-12
2.2398465e-12
2.2057109e-12
2.1718416e-12
2.1382169e-12
2.1048159e-12
2.0716175e-12
2.0386013e-12
2.0057489e-12
1.9730399e-12
1.9404535e-12
1.9079699e-12
1.8755689e-12
1.8432301e-12
1.8109326e-12
1.7786555e-12
1.7463785e-12
1.7140793e-12
1.681734e-12
1.649319e-12
1.616809e-12
1.5841771e-12
1.5513954e-12
1.5184347e-12
1.48525e-12
1.4518439e-12
1.4190622e-12
1.387917e-12
1.3584704e-12
1.3305507e-12
1.30405e-12
1.2788471e-12
1.2548341e-12
1.2319133e-12
1.2099957e-12
1.1890009e-12
1.1688554e-12
1.1494904e-12
1.13084e-12
1.1128411e-12
1.0954286e-12
1.07854e-12
1.0620893e-12
1.0460191e-12
1.0301176e-12
1.0145144e-12
9.9798191e-13
9.8359853e-13
9.6189822e-13
6.5495905e-09
5.3862703e-09
5.0144029e-09
4.8307763e-09
4.7153495e-09
4.6347127e-09
4.5752192e-09
4.5297759e-09
4.4941811e-09
4.4657446e-09
4.4426516e-09
4.4236283e-09
4.4077492e-09
4.3943209e-09
4.3827996e-09
4.3727531e-09
4.3637569e-09
4.3555392e-09
4.3472188e-09
4.3396155e-09
4.3254304e-09
4.325024e-09
4.2310048e-09
3.7735326e-09
3.8755041e-11
1.1073176e-11
1.2882477e-11
6.2268258e-12
9.3230755e-12
4.7381577e-12
7.7988587e-12
4.0193656e-12
6.8861643e-12
6.3421926e-12
6.2437562e-12
5.9092472e-12
5.7425398e-12
5.5210854e-12
5.3533194e-12
5.1857402e-12
5.0377042e-12
4.8988173e-12
4.7705396e-12
4.6506931e-12
4.5385251e-12
4.4331153e-12
4.3337574e-12
4.2398124e-12
4.1507309e-12
4.0660396e-12
3.9853242e-12
3.908222e-12
3.8344152e-12
3.7636222e-12
3.6955951e-12
3.6301147e-12
3.5669822e-12
3.5060185e-12
3.4470632e-12
3.3899697e-12
3.3346051e-12
3.2808507e-12
3.2285996e-12
3.1777515e-12
3.1282148e-12
3.0799063e-12
3.0327511e-12
2.9866798e-12
2.9416258e-12
2.8975286e-12
2.8543324e-12
2.8119827e-12
2.770429e-12
2.7296252e-12
2.6895273e-12
2.6500942e-12
2.6112867e-12
2.5730681e-12
2.5354061e-12
2.4982688e-12
2.4616248e-12
2.4254438e-12
2.3896987e-12
2.3543633e-12
2.3194122e-12
2.2848202e-12
2.2505643e-12
2.2166229e-12
2.1829729e-12
2.1495922e-12
2.11646e-12
2.0835557e-12
2.0508593e-12
2.0183506e-12
1.98601e-12
1.95382e-12
1.9217611e-12
1.889813e-12
1.8579569e-12
1.8261732e-12
1.7944423e-12
1.762744e-12
1.7310579e-12
1.6993646e-12
1.6676423e-12
1.6358678e-12
1.604018e-12
1.5720686e-12
1.539993e-12
1.507764e-12
1.475353e-12
1.4427162e-12
1.409856e-12
1.3776036e-12
1.3469554e-12
1.3179746e-12
1.2904932e-12
1.2644055e-12
1.2395931e-12
1.21595e-12
1.1933804e-12
1.1717971e-12
1.1511213e-12
1.1312807e-12
1.1122079e-12
1.093838e-12
1.0761092e-12
1.0589575e-12
1.0423214e-12
1.0261163e-12
1.010286e-12
9.9462184e-13
9.7925161e-13
9.6296604e-13
9.4879603e-13
9.2742642e-13
6.5526312e-09
5.364926e-09
4.9856662e-09
4.7984534e-09
4.6807982e-09
4.5986187e-09
4.537995e-09
4.4916927e-09
4.4554274e-09
4.4264569e-09
4.4029314e-09
4.3835529e-09
4.3673791e-09
4.3537043e-09
4.3419758e-09
4.331755e-09
4.3226138e-09
4.3142795e-09
4.3058729e-09
4.298227e-09
4.2840533e-09
4.2839118e-09
4.1899924e-09
3.7504103e-09
4.0096994e-11
1.0914397e-11
1.2308476e-11
6.0944548e-12
8.9106365e-12
4.6101091e-12
7.4640873e-12
3.9070067e-12
6.6025762e-12
6.092891e-12
5.9962348e-12
5.6812243e-12
5.5231132e-12
5.3141922e-12
5.1555361e-12
4.9971951e-12
4.8571939e-12
4.7257791e-12
4.6043013e-12
4.490728e-12
4.3843524e-12
4.284318e-12
4.1899647e-12
4.1006915e-12
4.0159806e-12
3.9353869e-12
3.858521e-12
3.785042e-12
3.7146519e-12
3.647086e-12
3.582112e-12
3.5195242e-12
3.4591362e-12
3.4007799e-12
3.3443048e-12
3.2895729e-12
3.2364595e-12
3.1848536e-12
3.1346548e-12
3.0857693e-12
3.0381111e-12
2.9916027e-12
2.9461742e-12
2.9017614e-12
2.8583013e-12
2.8157373e-12
2.7740167e-12
2.7330886e-12
2.6929054e-12
2.6534237e-12
2.6146022e-12
2.5764022e-12
2.5387868e-12
2.5017214e-12
2.4651758e-12
2.4291202e-12
2.3935253e-12
2.3583623e-12
2.3236058e-12
2.2892316e-12
2.2552154e-12
2.2215335e-12
2.1881643e-12
2.1550873e-12
2.1222808e-12
2.0897237e-12
2.0573965e-12
2.0252794e-12
1.9933536e-12
1.9615999e-12
1.9299998e-12
1.8985364e-12
1.8671912e-12
1.835945e-12
1.8047795e-12
1.7736762e-12
1.7426161e-12
1.71158e-12
1.6805481e-12
1.6495018e-12
1.61842e-12
1.5872804e-12
1.5560607e-12
1.5247371e-12
1.4932839e-12
1.4616747e-12
1.4298818e-12
1.3978623e-12
1.3656189e-12
1.3339661e-12
1.3038828e-12
1.2754329e-12
1.2484524e-12
1.222838e-12
1.1984743e-12
1.1752575e-12
1.1530937e-12
1.1318975e-12
1.111592e-12
1.0921063e-12
1.0733743e-12
1.0553325e-12
1.0379201e-12
1.0210746e-12
1.0047357e-12
9.8882042e-13
9.732735e-13
9.5789049e-13
9.4279656e-13
9.2680477e-13
9.1288909e-13
8.9191344e-13
6.5565721e-09
5.3402001e-09
4.9522804e-09
4.7608769e-09
4.640622e-09
4.556645e-09
4.4947053e-09
4.4474036e-09
4.4103587e-09
4.3807673e-09
4.3567389e-09
4.3369478e-09
4.3204314e-09
4.3064698e-09
4.2944999e-09
4.2840761e-09
4.2747654e-09
4.2662939e-09
4.2577841e-09
4.2500845e-09
4.2359143e-09
4.2360672e-09
4.1422186e-09
3.7233818e-09
4.1666091e-11
1.0749007e-11
1.1704462e-11
5.9530063e-12
8.4739802e-12
4.4728903e-12
7.1084541e-12
3.7866504e-12
6.3006288e-12
5.826813e-12
5.7321119e-12
5.4376198e-12
5.2886257e-12
5.0929406e-12
4.9439432e-12
4.7953927e-12
4.6639219e-12
4.5404427e-12
4.4261942e-12
4.3192956e-12
4.2190882e-12
4.1247832e-12
4.0357689e-12
3.9514834e-12
3.871442e-12
3.7952288e-12
3.7224808e-12
3.6528802e-12
3.5861493e-12
3.5220418e-12
3.4603414e-12
3.4008568e-12
3.3434144e-12
3.2878582e-12
3.2340477e-12
3.1818542e-12
3.1311617e-12
3.081867e-12
3.0338771e-12
2.9871048e-12
2.9414702e-12
2.8969016e-12
2.8533351e-12
2.8107111e-12
2.7689712e-12
2.7280625e-12
2.6879359e-12
2.6485439e-12
2.6098422e-12
2.5717903e-12
2.5343497e-12
2.4974844e-12
2.4611598e-12
2.4253437e-12
2.3900079e-12
2.3551253e-12
2.3206688e-12
2.2866106e-12
2.2529278e-12
2.2195979e-12
2.1865983e-12
2.1539067e-12
2.1215028e-12
2.0893675e-12
2.0574804e-12
2.0258218e-12
1.9943733e-12
1.9631164e-12
1.9320333e-12
1.9011059e-12
1.8703167e-12
1.8396501e-12
1.8090883e-12
1.778613e-12
1.7482072e-12
1.717853e-12
1.6875326e-12
1.6572273e-12
1.6269186e-12
1.5965885e-12
1.5662168e-12
1.5357821e-12
1.505263e-12
1.4746365e-12
1.4438779e-12
1.4129618e-12
1.3818612e-12
1.3505347e-12
1.3189853e-12
1.2880087e-12
1.2585639e-12
1.2307156e-12
1.2043038e-12
1.1792281e-12
1.1553761e-12
1.1326464e-12
1.110947e-12
1.0901949e-12
1.0703149e-12
1.0512377e-12
1.0328986e-12
1.0152356e-12
9.9818935e-13
9.8169855e-13
9.6570429e-13
9.5012556e-13
9.3490826e-13
9.1985261e-13
9.0508077e-13
8.8943209e-13
8.758138e-13
8.5529835e-13
6.561673e-09
5.3117837e-09
4.9137806e-09
4.7175118e-09
4.594245e-09
4.5081882e-09
4.4447275e-09
4.3962714e-09
4.3583266e-09
4.3280188e-09
4.3034105e-09
4.2831433e-09
4.2662318e-09
4.2519393e-09
4.2396909e-09
4.2290323e-09
4.219525e-09
4.2108937e-09
4.2022623e-09
4.1944968e-09
4.1803214e-09
4.1807999e-09
4.0869955e-09
3.6920061e-09
4.3512726e-11
1.0578473e-11
1.1071317e-11
5.8021233e-12
8.0130858e-12
4.3259878e-12
6.7316453e-12
3.6578309e-12
5.9798755e-12
5.5434095e-12
5.4508438e-12
5.1778592e-12
5.0384971e-12
4.8567404e-12
4.7179479e-12
4.5797389e-12
4.4572957e-12
4.3422184e-12
4.2356328e-12
4.1358152e-12
4.0421581e-12
3.9539438e-12
3.8706104e-12
3.7916364e-12
3.7165716e-12
3.6450307e-12
3.5766779e-12
3.5112195e-12
3.4483994e-12
3.3879903e-12
3.3297928e-12
3.2736306e-12
3.219344e-12
3.1667891e-12
3.1158362e-12
3.0663664e-12
3.0182727e-12
2.9714604e-12
2.925844e-12
2.8813435e-12
2.8378854e-12
2.7954042e-12
2.7538422e-12
2.7131452e-12
2.6732591e-12
2.634135e-12
2.5957277e-12
2.5579933e-12
2.520891e-12
2.4843834e-12
2.4484349e-12
2.4130123e-12
2.3780837e-12
2.343619e-12
2.3095927e-12
2.2759805e-12
2.2427574e-12
2.209897e-12
2.1773788e-12
2.1451824e-12
2.1132866e-12
2.081671e-12
2.0503166e-12
2.0192058e-12
1.9883196e-12
1.9576398e-12
1.9271492e-12
1.8968306e-12
1.8666674e-12
1.8366429e-12
1.8067406e-12
1.776946e-12
1.7472424e-12
1.7176126e-12
1.6880407e-12
1.6585097e-12
1.6290029e-12
1.5995026e-12
1.5699912e-12
1.5404518e-12
1.5108651e-12
1.4812107e-12
1.4514682e-12
1.4216156e-12
1.3916293e-12
1.361485e-12
1.3311567e-12
1.3006046e-12
1.269832e-12
1.2396139e-12
1.2108867e-12
1.1837156e-12
1.1579453e-12
1.1334781e-12
1.1102051e-12
1.0880271e-12
1.0668549e-12
1.0466073e-12
1.0272115e-12
1.0085997e-12
9.9070886e-13
9.734784e-13
9.5685051e-13
9.407655e-13
9.2516595e-13
9.0997297e-13
8.9513378e-13
8.8045391e-13
8.6605204e-13
8.5079793e-13
8.3752186e-13
8.1753538e-13
6.5682675e-09
5.2793687e-09
4.8696869e-09
4.6678026e-09
4.5410679e-09
4.4526203e-09
4.3874131e-09
4.3376329e-09
4.2986565e-09
4.2675278e-09
4.2422553e-09
4.221443e-09
4.2040791e-09
4.1894078e-09
4.1768402e-09
4.1659123e-09
4.1561792e-09
4.1473636e-09
4.1385903e-09
4.1307455e-09
4.1165555e-09
4.1173927e-09
4.0236061e-09
3.6558131e-09
4.5699344e-11
1.0405224e-11
1.041123e-11
5.6416654e-12
7.528775e-12
4.1690388e-12
6.3339867e-12
3.5202024e-12
5.64038e-12
5.2425524e-12
5.1523047e-12
4.9017389e-12
4.7724978e-12
4.6053224e-12
4.4772572e-12
4.3499189e-12
4.236984e-12
4.130761e-12
4.0322615e-12
3.9399233e-12
3.8531926e-12
3.7714259e-12
3.694113e-12
3.6207734e-12
3.5509923e-12
3.484416e-12
3.4207369e-12
3.3596868e-12
3.3010315e-12
3.2445639e-12
3.1901022e-12
3.1374857e-12
3.0865689e-12
3.0372209e-12
2.9893231e-12
2.9427667e-12
2.8974544e-12
2.8533004e-12
2.810227e-12
2.7681617e-12
2.7270381e-12
2.6867968e-12
2.647387e-12
2.6087601e-12
2.5708665e-12
2.5336614e-12
2.4971037e-12
2.4611535e-12
2.4257734e-12
2.3909295e-12
2.3565892e-12
2.3227222e-12
2.2892994e-12
2.2562932e-12
2.2236808e-12
2.191441e-12
2.1595511e-12
2.1279858e-12
2.0967278e-12
2.0657584e-12
2.0350584e-12
2.0046089e-12
1.9743927e-12
1.9443936e-12
1.9145942e-12
1.8849779e-12
1.8555287e-12
1.8262311e-12
1.7970697e-12
1.7680289e-12
1.7390938e-12
1.7102508e-12
1.6814847e-12
1.6527794e-12
1.6241199e-12
1.5954907e-12
1.5668759e-12
1.5382591e-12
1.5096238e-12
1.4809541e-12
1.4522319e-12
1.4234379e-12
1.3945527e-12
1.3655556e-12
1.3364241e-12
1.3071351e-12
1.2776641e-12
1.2479727e-12
1.2180647e-12
1.1886921e-12
1.1607662e-12
1.1343525e-12
1.1093005e-12
1.0855156e-12
1.0628925e-12
1.0413347e-12
1.0207555e-12
1.0010761e-12
9.8222607e-13
9.6413936e-13
9.4675454e-13
9.300128e-13
9.1385796e-13
8.9823204e-13
8.8307929e-13
8.6832322e-13
8.5391246e-13
8.3965856e-13
8.256762e-13
8.1086979e-13
7.9798214e-13
7.7859531e-13
6.5767828e-09
5.2426592e-09
4.8195146e-09
4.6111832e-09
4.4804783e-09
4.3892989e-09
4.3220992e-09
4.2708097e-09
4.2306585e-09
4.1985958e-09
4.1725678e-09
4.1511357e-09
4.1332575e-09
4.1181554e-09
4.1052248e-09
4.0939905e-09
4.0839998e-09
4.0749735e-09
4.0660365e-09
4.0580979e-09
4.0438831e-09
4.0451135e-09
3.9513194e-09
3.6143051e-09
4.8303581e-11
1.0232952e-11
9.7278669e-12
5.4717695e-12
7.0228525e-12
4.0018728e-12
5.9165653e-12
3.3735731e-12
5.2828216e-12
4.9246274e-12
4.8368797e-12
4.6095114e-12
4.4908303e-12
4.3388153e-12
4.2219514e-12
4.1059663e-12
4.0029822e-12
3.9060328e-12
3.8160141e-12
3.7315295e-12
3.6520805e-12
3.5771014e-12
3.5061337e-12
3.4387387e-12
3.3745377e-12
3.3132093e-12
3.2544752e-12
3.1980929e-12
3.1438516e-12
3.0915645e-12
3.041068e-12