/*--------------------------------*- C++ -*----------------------------------*\
| =========                 |                                                 |
| \\      /  F ield         | OpenFOAM: The Open Source CFD Toolbox           |
|  \\    /   O peration     | Version:  2206                                  |
|   \\  /    A nd           | Website:  www.openfoam.com                      |
|    \\/     M anipulation  |                                                 |
\*---------------------------------------------------------------------------*/
FoamFile
{
    version     2.0;
    format      ascii;
    arch        "LSB;label=32;scalar=64";
    class       volScalarField;
    location    "1700";
    object      p;
}
// * * * * * * * * * * * * * * * * * * * * * * * * * * * * * * * * * * * * * //

dimensions      [0 2 -2 0 0 0 0];

internalField   nonuniform List<scalar> 
13056
(
0.011706598
0.01181311
0.012034509
0.012313909
0.012654845
0.01305656
0.013515809
0.014031767
0.01460603
0.01524191
0.015944419
0.016720759
0.017580831
0.018538781
0.019613294
0.020834398
0.02223668
0.023900362
0.025872985
0.028468758
0.031544227
0.036943734
0.041886146
0.082724396
0.052011948
0.0015117186
0.00077802062
0.0018664405
0.0023805571
0.0028031195
0.0030691541
0.0032603787
0.0034000779
0.0034977892
0.0035662027
0.003614978
0.003649759
0.0036740876
0.0036904362
0.003700833
0.0037066519
0.0037087684
0.0037079435
0.0037047986
0.0036997295
0.0036930294
0.0036849782
0.0036757769
0.0036656044
0.0036545817
0.0036427896
0.0036303204
0.0036172414
0.0036036128
0.003589494
0.0035749084
0.0035598723
0.0035444138
0.0035285536
0.0035123046
0.0034956814
0.003478701
0.003461356
0.0034436378
0.0034255517
0.0034070952
0.0033882663
0.0033690591
0.0033494721
0.0033295038
0.003309129
0.0032883293
0.0032670974
0.0032454196
0.0032232792
0.0032006638
0.0031775515
0.0031539356
0.0031297909
0.0031050715
0.0030797626
0.0030538393
0.0030272712
0.00300003
0.0029720834
0.0029434
0.0029139493
0.0028836778
0.0028525343
0.0028204794
0.0027874629
0.00275343
0.0027183273
0.0026820884
0.0026446592
0.0026059641
0.0025659038
0.0025244049
0.0024813752
0.0024367144
0.0023903182
0.0023420653
0.0022918416
0.0022395056
0.0021848866
0.0021278323
0.0020681621
0.0020056856
0.0019401885
0.0018714706
0.0017992768
0.001723337
0.0016437709
0.0015611015
0.0014771461
0.0013941765
0.0013128327
0.0012329981
0.0011546925
0.0010779498
0.0010028175
0.00092937368
0.00085773215
0.00078804229
0.00072048117
0.0006552877
0.00059279317
0.00053340746
0.00047775897
0.0004264745
0.00038111596
0.00034204344
0.00031520319
0.00029388368
0.00043806565
-0.00039411863
0.011706598
0.01181311
0.012034509
0.012313909
0.012654845
0.01305656
0.013515809
0.014031767
0.01460603
0.015241911
0.015944419
0.016720759
0.017580831
0.018538782
0.019613295
0.020834399
0.022236681
0.023900364
0.025872988
0.028468763
0.031544234
0.036943746
0.041886188
0.082719174
0.052023694
0.0015193236
0.00078001258
0.001867304
0.0023810843
0.002803492
0.0030694361
0.0032606027
0.0034002612
0.0034979427
0.0035663338
0.0036150914
0.0036498583
0.0036741755
0.0036905146
0.0037009034
0.0037067155
0.0037088262
0.0037079962
0.003704847
0.0036997741
0.0036930705
0.0036850162
0.0036758123
0.0036656373
0.0036546124
0.0036428184
0.0036303474
0.0036172666
0.0036036365
0.0035895163
0.0035749295
0.0035598921
0.0035444326
0.0035285714
0.0035123215
0.0034956974
0.0034787162
0.0034613704
0.0034436515
0.0034255647
0.0034071075
0.0033882781
0.0033690703
0.0033494828
0.003329514
0.0033091387
0.0032883386
0.0032671063
0.0032454281
0.0032232873
0.0032006715
0.0031775589
0.0031539426
0.0031297976
0.0031050779
0.0030797688
0.0030538452
0.0030272768
0.0030000354
0.0029720885
0.0029434049
0.002913954
0.0028836823
0.0028525386
0.0028204835
0.0027874668
0.0027534337
0.0027183309
0.0026820918
0.0026446624
0.0026059672
0.0025659068
0.0025244078
0.0024813779
0.0024367169
0.0023903206
0.0023420676
0.0022918438
0.0022395077
0.0021848886
0.0021278342
0.0020681638
0.0020056872
0.0019401901
0.0018714721
0.0017992782
0.0017233383
0.0016437721
0.0015611027
0.0014771472
0.0013941775
0.0013128337
0.001232999
0.0011546934
0.0010779507
0.0010028183
0.00092937445
0.00085773288
0.00078804299
0.00072048184
0.00065528835
0.0005927938
0.00053340806
0.00047775955
0.00042647507
0.00038111652
0.00034204399
0.00031520375
0.00029388427
0.00043806626
-0.00039411823
0.011706598
0.01181311
0.012034509
0.012313909
0.012654845
0.013056561
0.01351581
0.014031767
0.01460603
0.015241911
0.01594442
0.016720759
0.017580832
0.018538783
0.019613296
0.020834401
0.022236683
0.023900367
0.025872992
0.028468768
0.03154424
0.03694376
0.041886224
0.082714313
0.052039707
0.0015263969
0.00078220619
0.0018683134
0.0023817006
0.0028039275
0.0030697658
0.0032608644
0.0034004753
0.0034981221
0.0035664869
0.003615224
0.0036499745
0.0036742783
0.0036906063
0.0037009858
0.0037067899
0.0037088938
0.0037080579
0.0037049035
0.0036998261
0.0036931185
0.0036850607
0.0036758536
0.0036656758
0.0036546483
0.0036428519
0.0036303788
0.0036172961
0.0036036642
0.0035895424
0.0035749541
0.0035599154
0.0035444546
0.0035285922
0.0035123412
0.003495716
0.0034787339
0.0034613872
0.0034436675
0.0034255799
0.003407122
0.0033882919
0.0033690834
0.0033494952
0.0033295259
0.00330915
0.0032883494
0.0032671167
0.0032454379
0.0032232968
0.0032006805
0.0031775675
0.0031539509
0.0031298055
0.0031050855
0.0030797759
0.0030538521
0.0030272834
0.0030000417
0.0029720946
0.0029434107
0.0029139595
0.0028836875
0.0028525436
0.0028204883
0.0027874714
0.0027534381
0.0027183351
0.0026820958
0.0026446662
0.0026059708
0.0025659103
0.002524411
0.002481381
0.0024367199
0.0023903235
0.0023420703
0.0022918464
0.0022395102
0.0021848909
0.0021278364
0.0020681659
0.0020056892
0.0019401919
0.0018714738
0.0017992798
0.0017233399
0.0016437736
0.0015611041
0.0014771485
0.0013941787
0.0013128348
0.0012330001
0.0011546944
0.0010779517
0.0010028192
0.00092937534
0.00085773374
0.00078804381
0.00072048263
0.0006552891
0.00059279452
0.00053340876
0.00047776024
0.00042647573
0.00038111717
0.00034204463
0.0003152044
0.00029388493
0.00043806698
-0.00039411779
0.011706598
0.01181311
0.012034509
0.012313909
0.012654845
0.013056561
0.01351581
0.014031767
0.014606031
0.015241911
0.01594442
0.01672076
0.017580833
0.018538784
0.019613297
0.020834402
0.022236685
0.023900369
0.025872995
0.028468774
0.031544247
0.036943772
0.041886259
0.082709594
0.052057447
0.001531413
0.0007842447
0.0018692915
0.002382298
0.0028043496
0.0030700854
0.0032611181
0.0034006829
0.003498296
0.0035666353
0.0036153526
0.0036500871
0.0036743779
0.0036906951
0.0037010655
0.003706862
0.0037089593
0.0037081177
0.0037049584
0.0036998765
0.0036931651
0.0036851039
0.0036758937
0.0036657131
0.0036546831
0.0036428845
0.0036304093
0.0036173248
0.0036036911
0.0035895677
0.0035749779
0.0035599379
0.0035444759
0.0035286123
0.0035123602
0.0034957341
0.003478751
0.0034614035
0.003443683
0.0034255946
0.003407136
0.0033883052
0.0033690961
0.0033495074
0.0033295374
0.0033091611
0.0032883599
0.0032671267
0.0032454475
0.0032233059
0.0032006892
0.0031775759
0.0031539589
0.0031298131
0.0031050928
0.0030797829
0.0030538588
0.0030272898
0.0030000478
0.0029721004
0.0029434162
0.0029139648
0.0028836926
0.0028525485
0.002820493
0.0027874758
0.0027534423
0.0027183391
0.0026820996
0.0026446699
0.0026059743
0.0025659136
0.0025244142
0.0024813841
0.0024367228
0.0023903262
0.0023420729
0.0022918489
0.0022395125
0.0021848931
0.0021278385
0.0020681679
0.0020056911
0.0019401937
0.0018714755
0.0017992814
0.0017233414
0.001643775
0.0015611054
0.0014771497
0.0013941799
0.0013128359
0.0012330012
0.0011546954
0.0010779526
0.0010028201
0.00092937621
0.00085773457
0.00078804461
0.00072048339
0.00065528984
0.00059279523
0.00053340945
0.0004777609
0.00042647638
0.0003811178
0.00034204526
0.00031520503
0.00029388554
0.00043806767
-0.00039411738
0.011706598
0.01181311
0.012034509
0.012313909
0.012654845
0.013056561
0.01351581
0.014031767
0.014606031
0.015241912
0.015944421
0.01672076
0.017580833
0.018538784
0.019613298
0.020834403
0.022236687
0.023900372
0.025872998
0.028468779
0.031544254
0.036943784
0.041886299
0.082704478
0.052076288
0.0015371816
0.00078633273
0.0018702992
0.0023829136
0.0028047846
0.0030704146
0.0032613795
0.0034008968
0.0034984751
0.0035667882
0.003615485
0.0036502031
0.0036744805
0.0036907866
0.0037011477
0.0037069363
0.0037090268
0.0037081794
0.0037050148
0.0036999285
0.0036932131
0.0036851483
0.0036759349
0.0036657515
0.003654719
0.003642918
0.0036304407
0.0036173542
0.0036037188
0.0035895938
0.0035750025
0.0035599611
0.0035444978
0.0035286331
0.0035123799
0.0034957528
0.0034787687
0.0034614203
0.0034436989
0.0034256097
0.0034071504
0.0033883189
0.0033691092
0.0033495198
0.0033295493
0.0033091724
0.0032883707
0.003267137
0.0032454574
0.0032233153
0.0032006982
0.0031775845
0.0031539671
0.003129821
0.0031051003
0.0030797901
0.0030538656
0.0030272963
0.0030000541
0.0029721064
0.002943422
0.0029139703
0.0028836978
0.0028525535
0.0028204978
0.0027874804
0.0027534467
0.0027183433
0.0026821036
0.0026446737
0.002605978
0.0025659171
0.0025244175
0.0024813872
0.0024367258
0.0023903291
0.0023420756
0.0022918514
0.002239515
0.0021848954
0.0021278407
0.00206817
0.0020056931
0.0019401956
0.0018714773
0.0017992831
0.0017233429
0.0016437765
0.0015611067
0.001477151
0.0013941811
0.0013128371
0.0012330022
0.0011546965
0.0010779536
0.0010028211
0.0009293771
0.00085773542
0.00078804543
0.00072048418
0.00065529059
0.00059279596
0.00053341015
0.00047776158
0.00042647704
0.00038111846
0.0003420459
0.00031520568
0.00029388616
0.00043806838
-0.00039411696
0.011706598
0.01181311
0.012034509
0.012313909
0.012654845
0.013056561
0.01351581
0.014031767
0.014606031
0.015241912
0.015944421
0.016720761
0.017580834
0.018538785
0.019613299
0.020834405
0.022236689
0.023900375
0.025873003
0.028468786
0.031544263
0.036943799
0.041886345
0.082698784
0.052095921
0.0015444733
0.00078856237
0.0018713723
0.0023835691
0.0028052478
0.0030707652
0.0032616579
0.0034011246
0.0034986659
0.0035669511
0.003615626
0.0036503266
0.0036745897
0.0036908841
0.0037012353
0.0037070154
0.0037090987
0.003708245
0.003705075
0.0036999839
0.0036932642
0.0036851956
0.0036759789
0.0036657924
0.0036547571
0.0036429537
0.0036304741
0.0036173856
0.0036037483
0.0035896216
0.0035750287
0.0035599858
0.0035445211
0.0035286552
0.0035124008
0.0034957726
0.0034787875
0.0034614382
0.0034437159
0.0034256259
0.0034071658
0.0033883336
0.0033691231
0.0033495331
0.003329562
0.0033091845
0.0032883823
0.003267148
0.0032454679
0.0032233254
0.0032007078
0.0031775936
0.0031539759
0.0031298293
0.0031051083
0.0030797978
0.0030538729
0.0030273033
0.0030000608
0.0029721128
0.0029434281
0.0029139762
0.0028837034
0.0028525588
0.0028205029
0.0027874853
0.0027534514
0.0027183478
0.0026821079
0.0026446778
0.0026059818
0.0025659207
0.002524421
0.0024813905
0.002436729
0.0023903321
0.0023420785
0.0022918542
0.0022395175
0.0021848979
0.002127843
0.0020681722
0.0020056951
0.0019401975
0.0018714791
0.0017992848
0.0017233445
0.001643778
0.0015611082
0.0014771524
0.0013941824
0.0013128383
0.0012330034
0.0011546976
0.0010779546
0.0010028221
0.00092937806
0.00085773633
0.0007880463
0.00072048501
0.0006552914
0.00059279674
0.0005334109
0.00047776231
0.00042647775
0.00038111915
0.00034204658
0.00031520637
0.00029388683
0.00043806915
-0.00039411651
0.011706598
0.01181311
0.012034509
0.012313909
0.012654846
0.013056561
0.01351581
0.014031768
0.014606031
0.015241912
0.015944422
0.016720762
0.017580835
0.018538787
0.019613301
0.020834407
0.022236692
0.023900379
0.025873008
0.028468794
0.031544274
0.036943816
0.041886398
0.082692417
0.052116598
0.0015524707
0.00079096292
0.0018725267
0.0023842746
0.0028057462
0.0030711425
0.0032619575
0.0034013697
0.0034988713
0.0035671263
0.0036157777
0.0036504596
0.0036747073
0.0036909889
0.0037013295
0.0037071005
0.003709176
0.0037083156
0.0037051397
0.0037000434
0.0036933191
0.0036852465
0.0036760261
0.0036658364
0.0036547982
0.0036429921
0.0036305101
0.0036174194
0.0036037801
0.0035896515
0.0035750569
0.0035600124
0.0035445463
0.003528679
0.0035124233
0.0034957939
0.0034788078
0.0034614574
0.0034437342
0.0034256433
0.0034071823
0.0033883493
0.0033691381
0.0033495474
0.0033295756
0.0033091975
0.0032883947
0.0032671599
0.0032454792
0.0032233362
0.0032007181
0.0031776035
0.0031539853
0.0031298384
0.0031051169
0.003079806
0.0030538808
0.0030273109
0.003000068
0.0029721197
0.0029434347
0.0029139825
0.0028837094
0.0028525646
0.0028205084
0.0027874905
0.0027534564
0.0027183525
0.0026821124
0.0026446821
0.002605986
0.0025659247
0.0025244248
0.0024813941
0.0024367324
0.0023903354
0.0023420816
0.0022918571
0.0022395203
0.0021849005
0.0021278455
0.0020681745
0.0020056974
0.0019401997
0.0018714811
0.0017992867
0.0017233463
0.0016437797
0.0015611098
0.0014771539
0.0013941838
0.0013128396
0.0012330046
0.0011546987
0.0010779558
0.0010028231
0.00092937908
0.00085773731
0.00078804724
0.00072048591
0.00065529226
0.00059279757
0.00053341171
0.00047776309
0.00042647851
0.0003811199
0.00034204731
0.00031520711
0.00029388755
0.00043806996
-0.00039411603
0.011706598
0.01181311
0.012034509
0.012313909
0.012654846
0.013056561
0.01351581
0.014031768
0.014606032
0.015241913
0.015944422
0.016720763
0.017580836
0.018538788
0.019613303
0.02083441
0.022236695
0.023900384
0.025873014
0.028468804
0.031544287
0.036943839
0.04188646
0.082685234
0.05213859
0.0015610397
0.00079356418
0.001873778
0.0023850394
0.0028062865
0.0030715515
0.0032622822
0.0034016354
0.0034990938
0.0035673163
0.0036159422
0.0036506036
0.0036748347
0.0036911026
0.0037014316
0.0037071928
0.0037092598
0.0037083921
0.0037052098
0.0037001079
0.0036933787
0.0036853017
0.0036760774
0.0036658842
0.0036548427
0.0036430337
0.0036305491
0.003617456
0.0036038145
0.0035896838
0.0035750874
0.0035600412
0.0035445735
0.0035287047
0.0035124477
0.0034958171
0.0034788297
0.0034614783
0.003443754
0.0034256621
0.0034072002
0.0033883664
0.0033691544
0.0033495629
0.0033295904
0.0033092116
0.0032884081
0.0032671727
0.0032454915
0.0032233479
0.0032007293
0.0031776142
0.0031539955
0.0031298481
0.0031051262
0.0030798149
0.0030538894
0.003027319
0.0030000758
0.0029721271
0.0029434418
0.0029139893
0.0028837159
0.0028525708
0.0028205143
0.0027874962
0.0027534618
0.0027183577
0.0026821174
0.0026446868
0.0026059905
0.002565929
0.0025244289
0.002481398
0.0024367361
0.0023903389
0.002342085
0.0022918603
0.0022395234
0.0021849034
0.0021278483
0.0020681771
0.0020056998
0.0019402019
0.0018714833
0.0017992888
0.0017233482
0.0016437815
0.0015611115
0.0014771555
0.0013941853
0.001312841
0.001233006
0.0011547
0.001077957
0.0010028243
0.00092938019
0.00085773837
0.00078804825
0.00072048689
0.0006552932
0.00059279848
0.00053341258
0.00047776394
0.00042647934
0.00038112071
0.00034204811
0.00031520792
0.00029388833
0.00043807085
-0.00039411551
0.011706598
0.01181311
0.012034509
0.012313909
0.012654846
0.013056562
0.013515811
0.014031769
0.014606032
0.015241914
0.015944423
0.016720764
0.017580838
0.01853879
0.019613305
0.020834413
0.0222367
0.02390039
0.025873022
0.028468816
0.031544303
0.036943866
0.041886533
0.082677056
0.052162124
0.001570341
0.00079640405
0.0018751443
0.0023858747
0.0028068766
0.0030719983
0.0032626368
0.0034019256
0.0034993369
0.0035675237
0.0036161219
0.003650761
0.0036749739
0.0036912267
0.0037015431
0.0037072936
0.0037093514
0.0037084757
0.0037052864
0.0037001784
0.0036934438
0.003685362
0.0036761334
0.0036659363
0.0036548914
0.0036430792
0.0036305917
0.0036174959
0.003603852
0.0035897192
0.0035751208
0.0035600727
0.0035446033
0.0035287329
0.0035124744
0.0034958423
0.0034788537
0.003461501
0.0034437756
0.0034256827
0.0034072198
0.003388385
0.0033691721
0.0033495798
0.0033296065
0.003309227
0.0032884228
0.0032671867
0.0032455048
0.0032233607
0.0032007416
0.0031776259
0.0031540066
0.0031298588
0.0031051364
0.0030798247
0.0030538987
0.0030273279
0.0030000843
0.0029721353
0.0029434496
0.0029139967
0.0028837231
0.0028525776
0.0028205208
0.0027875024
0.0027534677
0.0027183634
0.0026821228
0.002644692
0.0026059954
0.0025659337
0.0025244334
0.0024814023
0.0024367401
0.0023903427
0.0023420886
0.0022918637
0.0022395267
0.0021849065
0.0021278512
0.0020681799
0.0020057025
0.0019402045
0.0018714856
0.001799291
0.0017233503
0.0016437834
0.0015611133
0.0014771572
0.0013941869
0.0013128426
0.0012330075
0.0011547014
0.0010779583
0.0010028256
0.0009293814
0.00085773953
0.00078804936
0.00072048796
0.00065529423
0.00059279946
0.00053341354
0.00047776487
0.00042648024
0.00038112159
0.00034204898
0.0003152088
0.00029388918
0.00043807182
-0.00039411494
0.011706598
0.01181311
0.01203451
0.012313909
0.012654846
0.013056562
0.013515811
0.014031769
0.014606033
0.015241914
0.015944424
0.016720765
0.017580839
0.018538792
0.019613308
0.020834417
0.022236705
0.023900397
0.025873031
0.028468831
0.031544323
0.036943901
0.041886621
0.082667665
0.052187411
0.0015805354
0.00079952501
0.0018766462
0.0023867931
0.0028075254
0.0030724894
0.0032630267
0.0034022447
0.0034996041
0.0035677518
0.0036163193
0.003650934
0.0036751269
0.0036913632
0.0037016656
0.0037074043
0.003709452
0.0037085675
0.0037053707
0.0037002559
0.0036935154
0.0036854283
0.0036761949
0.0036659935
0.0036549448
0.0036431291
0.0036306385
0.0036175399
0.0036038934
0.0035897581
0.0035751574
0.0035601073
0.003544636
0.0035287638
0.0035125037
0.0034958701
0.0034788801
0.003461526
0.0034437994
0.0034257053
0.0034072413
0.0033884055
0.0033691917
0.0033495984
0.0033296243
0.0033092439
0.0032884389
0.0032672021
0.0032455196
0.0032233747
0.003200755
0.0031776387
0.0031540189
0.0031298705
0.0031051476
0.0030798354
0.0030539089
0.0030273377
0.0030000937
0.0029721442
0.0029434581
0.0029140049
0.0028837309
0.0028525851
0.0028205279
0.0027875092
0.0027534742
0.0027183696
0.0026821287
0.0026446977
0.0026060008
0.0025659388
0.0025244383
0.0024814069
0.0024367446
0.002390347
0.0023420926
0.0022918676
0.0022395303
0.0021849099
0.0021278545
0.002068183
0.0020057054
0.0019402072
0.0018714883
0.0017992934
0.0017233526
0.0016437856
0.0015611153
0.0014771591
0.0013941888
0.0013128443
0.0012330091
0.001154703
0.0010779598
0.001002827
0.00092938273
0.00085774081
0.00078805058
0.00072048913
0.00065529536
0.00059280055
0.00053341459
0.00047776589
0.00042648123
0.00038112256
0.00034204993
0.00031520977
0.00029389011
0.00043807289
-0.00039411431
0.011706598
0.01181311
0.01203451
0.01231391
0.012654847
0.013056562
0.013515812
0.01403177
0.014606034
0.015241916
0.015944426
0.016720767
0.017580842
0.018538795
0.019613312
0.020834422
0.022236711
0.023900406
0.025873043
0.02846885
0.031544348
0.036943945
0.041886724
0.082656806
0.052214654
0.0015917713
0.00080297343
0.001878306
0.0023878083
0.0028082426
0.0030730323
0.0032634577
0.0034025973
0.0034998995
0.0035680038
0.0036165376
0.0036511252
0.0036752961
0.003691514
0.0037018011
0.0037075268
0.0037095633
0.0037086691
0.0037054637
0.0037003416
0.0036935944
0.0036855015
0.0036762629
0.0036660569
0.0036550039
0.0036431844
0.0036306902
0.0036175884
0.003603939
0.0035898011
0.0035751979
0.0035601456
0.0035446721
0.003528798
0.0035125361
0.0034959008
0.0034789092
0.0034615537
0.0034438257
0.0034257303
0.0034072651
0.0033884281
0.0033692132
0.003349619
0.0033296439
0.0033092626
0.0032884568
0.0032672192
0.0032455358
0.0032233903
0.0032007698
0.0031776529
0.0031540325
0.0031298835
0.00310516
0.0030798472
0.0030539202
0.0030273486
0.003000104
0.0029721541
0.0029434676
0.0029140139
0.0028837395
0.0028525934
0.0028205358
0.0027875167
0.0027534814
0.0027183765
0.0026821353
0.0026447039
0.0026060067
0.0025659445
0.0025244437
0.0024814121
0.0024367495
0.0023903516
0.0023420971
0.0022918718
0.0022395343
0.0021849137
0.0021278581
0.0020681864
0.0020057086
0.0019402103
0.0018714911
0.0017992961
0.0017233552
0.001643788
0.0015611176
0.0014771612
0.0013941908
0.0013128462
0.0012330109
0.0011547047
0.0010779614
0.0010028285
0.00092938421
0.00085774221
0.00078805193
0.00072049042
0.0006552966
0.00059280175
0.00053341575
0.00047776701
0.00042648232
0.00038112363
0.00034205099
0.00031521084
0.00029389115
0.00043807406
-0.00039411362
0.011706598
0.011813111
0.01203451
0.01231391
0.012654847
0.013056563
0.013515812
0.01403177
0.014606035
0.015241917
0.015944427
0.016720769
0.017580844
0.018538799
0.019613317
0.020834428
0.022236719
0.023900417
0.025873057
0.028468872
0.031544378
0.036943997
0.041886847
0.082644173
0.052244039
0.001604209
0.00080680037
0.0018801483
0.0023889356
0.0028090388
0.0030736351
0.0032639362
0.0034029888
0.0035002274
0.0035682837
0.0036167799
0.0036513375
0.0036754838
0.0036916815
0.0037019515
0.0037076627
0.0037096867
0.0037087818
0.0037055671
0.0037004367
0.0036936822
0.0036855828
0.0036763384
0.0036661271
0.0036550695
0.0036432457
0.0036307477
0.0036176424
0.0036039897
0.0035898488
0.0035752429
0.003560188
0.0035447122
0.003528836
0.003512572
0.0034959349
0.0034789415
0.0034615844
0.0034438548
0.003425758
0.0034072915
0.0033884533
0.0033692372
0.0033496418
0.0033296656
0.0033092833
0.0032884766
0.0032672381
0.0032455539
0.0032234075
0.0032007863
0.0031776686
0.0031540475
0.0031298979
0.0031051738
0.0030798604
0.0030539328
0.0030273606
0.0030001155
0.0029721651
0.0029434781
0.002914024
0.0028837491
0.0028526025
0.0028205446
0.0027875251
0.0027534894
0.0027183841
0.0026821426
0.0026447109
0.0026060134
0.0025659508
0.0025244497
0.0024814178
0.0024367549
0.0023903568
0.002342102
0.0022918765
0.0022395387
0.002184918
0.0021278621
0.0020681902
0.0020057122
0.0019402136
0.0018714943
0.0017992992
0.001723358
0.0016437907
0.0015611201
0.0014771636
0.001394193
0.0013128483
0.0012330129
0.0011547065
0.0010779632
0.0010028302
0.00092938584
0.00085774378
0.00078805343
0.00072049186
0.00065529798
0.00059280309
0.00053341704
0.00047776826
0.00042648354
0.00038112483
0.00034205216
0.00031521203
0.00029389229
0.00043807537
-0.00039411285
0.011706598
0.011813111
0.01203451
0.01231391
0.012654847
0.013056563
0.013515813
0.014031771
0.014606036
0.015241918
0.015944429
0.016720772
0.017580848
0.018538803
0.019613322
0.020834436
0.022236729
0.023900431
0.025873075
0.028468899
0.031544414
0.036944061
0.041886992
0.082629396
0.052275729
0.0016180293
0.00081106247
0.0018822006
0.0023901917
0.0028099261
0.0030743067
0.0032644693
0.003403425
0.0035005927
0.0035685955
0.0036170499
0.003651574
0.003675693
0.003691868
0.0037021191
0.0037078141
0.0037098243
0.0037089074
0.0037056822
0.0037005426
0.00369378
0.0036856734
0.0036764225
0.0036662054
0.0036551425
0.003643314
0.0036308117
0.0036177024
0.0036040462
0.003589902
0.003575293
0.0035602353
0.003544757
0.0035288783
0.0035126121
0.0034959729
0.0034789776
0.0034616186
0.0034438874
0.0034257889
0.0034073209
0.0033884813
0.0033692638
0.0033496672
0.0033296899
0.0033093065
0.0032884987
0.0032672591
0.003245574
0.0032234267
0.0032008047
0.0031776862
0.0031540643
0.0031299139
0.0031051891
0.003079875
0.0030539468
0.003027374
0.0030001283
0.0029721773
0.0029434898
0.0029140352
0.0028837598
0.0028526127
0.0028205544
0.0027875344
0.0027534983
0.0027183926
0.0026821507
0.0026447186
0.0026060208
0.0025659579
0.0025244564
0.0024814242
0.002436761
0.0023903626
0.0023421075
0.0022918817
0.0022395437
0.0021849227
0.0021278665
0.0020681944
0.0020057162
0.0019402174
0.0018714979
0.0017993025
0.0017233612
0.0016437936
0.0015611229
0.0014771662
0.0013941954
0.0013128507
0.0012330151
0.0011547087
0.0010779652
0.0010028321
0.00092938766
0.00085774552
0.0007880551
0.00072049346
0.00065529953
0.00059280457
0.00053341847
0.00047776965
0.00042648489
0.00038112615
0.00034205346
0.00031521335
0.00029389357
0.00043807683
-0.00039411199
0.011706598
0.011813111
0.012034511
0.012313911
0.012654848
0.013056564
0.013515814
0.014031773
0.014606038
0.01524192
0.015944432
0.016720775
0.017580852
0.018538808
0.019613329
0.020834444
0.022236741
0.023900446
0.025873095
0.02846893
0.031544456
0.036944136
0.041887162
0.082612032
0.052309847
0.0016334368
0.0008158228
0.0018844933
0.0023915955
0.0028109176
0.0030750573
0.0032650651
0.0034039125
0.003501001
0.0035689439
0.0036173516
0.0036518382
0.0036759267
0.0036920765
0.0037023063
0.0037079833
0.0037099781
0.0037090477
0.0037058109
0.003700661
0.0036938893
0.0036857746
0.0036765165
0.0036662929
0.0036552242
0.0036433903
0.0036308832
0.0036177695
0.0036041093
0.0035899614
0.003575349
0.0035602882
0.0035448069
0.0035289256
0.0035126569
0.0034960153
0.0034790178
0.0034616568
0.0034439237
0.0034258235
0.0034073538
0.0033885126
0.0033692937
0.0033496956
0.003329717
0.0033093323
0.0032885233
0.0032672827
0.0032455965
0.0032234482
0.0032008252
0.0031777058
0.003154083
0.0031299318
0.0031052062
0.0030798914
0.0030539625
0.0030273889
0.0030001426
0.002972191
0.0029435029
0.0029140477
0.0028837718
0.0028526242
0.0028205653
0.0027875449
0.0027535083
0.0027184021
0.0026821597
0.0026447273
0.002606029
0.0025659657
0.0025244639
0.0024814314
0.0024367678
0.0023903691
0.0023421137
0.0022918875
0.0022395492
0.0021849279
0.0021278715
0.0020681991
0.0020057206
0.0019402216
0.0018715018
0.0017993062
0.0017233647
0.0016437969
0.001561126
0.0014771691
0.0013941982
0.0013128533
0.0012330176
0.001154711
0.0010779674
0.0010028343
0.0009293897
0.00085774747
0.00078805697
0.00072049525
0.00065530125
0.00059280623
0.00053342008
0.00047777121
0.00042648641
0.00038112764
0.00034205492
0.00031521483
0.000293895
0.00043807846
-0.00039411103
0.011706598
0.011813111
0.012034511
0.012313911
0.012654849
0.013056565
0.013515815
0.014031774
0.014606039
0.015241923
0.015944435
0.016720778
0.017580856
0.018538814
0.019613337
0.020834455
0.022236754
0.023900465
0.025873119
0.028468967
0.031544506
0.036944224
0.041887363
0.082591549
0.052346465
0.0016506634
0.00082115181
0.0018870605
0.0023931681
0.0028120282
0.003075898
0.0032657324
0.0034044584
0.0035014583
0.0035693341
0.0036176895
0.0036521342
0.0036761885
0.00369231
0.003702516
0.0037081728
0.0037101502
0.0037092049
0.0037059549
0.0037007935
0.0036940117
0.0036858879
0.0036766217
0.0036663909
0.0036553156
0.0036434758
0.0036309633
0.0036178447
0.0036041799
0.0035900279
0.0035754117
0.0035603474
0.0035448628
0.0035289785
0.003512707
0.0034960628
0.0034790629
0.0034616997
0.0034439644
0.0034258622
0.0034073906
0.0033885476
0.003369327
0.0033497275
0.0033297473
0.0033093613
0.0032885509
0.0032673091
0.0032456217
0.0032234722
0.0032008481
0.0031777277
0.003154104
0.0031299518
0.0031052254
0.0030799097
0.00305398
0.0030274057
0.0030001586
0.0029722063
0.0029435175
0.0029140617
0.0028837851
0.0028526369
0.0028205775
0.0027875565
0.0027535194
0.0027184127
0.0026821699
0.002644737
0.0026060383
0.0025659746
0.0025244723
0.0024814394
0.0024367754
0.0023903763
0.0023421205
0.0022918941
0.0022395554
0.0021849338
0.0021278771
0.0020682044
0.0020057256
0.0019402263
0.0018715063
0.0017993104
0.0017233686
0.0016438006
0.0015611295
0.0014771724
0.0013942013
0.0013128562
0.0012330203
0.0011547136
0.0010779699
0.0010028367
0.00092939198
0.00085774965
0.00078805905
0.00072049726
0.00065530318
0.00059280809
0.00053342187
0.00047777295
0.0004264881
0.0003811293
0.00034205656
0.00031521648
0.0002938966
0.00043808028
-0.00039410995
0.011706598
0.011813111
0.012034511
0.012313912
0.012654849
0.013056566
0.013515816
0.014031776
0.014606041
0.015241925
0.015944438
0.016720783
0.017580862
0.018538822
0.019613346
0.020834467
0.02223677
0.023900487
0.025873147
0.02846901
0.031544564
0.036944324
0.041887599
0.082567304
0.052385584
0.0016699755
0.00082712837
0.0018899404
0.0023949329
0.0028132744
0.0030768414
0.0032664811
0.003405071
0.0035019714
0.003569772
0.0036180686
0.0036524663
0.0036764822
0.0036925719
0.0037027512
0.0037083854
0.0037103434
0.0037093812
0.0037061166
0.0037009423
0.003694149
0.0036860151
0.0036767398
0.0036665009
0.0036554182
0.0036435718
0.0036310532
0.003617929
0.0036042592
0.0035901025
0.0035754821
0.0035604138
0.0035449256
0.0035290379
0.0035127632
0.0034961162
0.0034791135
0.0034617477
0.00344401
0.0034259056
0.0034074319
0.0033885869
0.0033693645
0.0033497632
0.0033297813
0.0033093937
0.0032885819
0.0032673386
0.0032456499
0.0032234992
0.0032008739
0.0031777524
0.0031541275
0.0031299743
0.0031052469
0.0030799303
0.0030539997
0.0030274245
0.0030001766
0.0029722235
0.002943534
0.0029140774
0.0028838002
0.0028526513
0.0028205912
0.0027875696
0.002753532
0.0027184247
0.0026821813
0.0026447478
0.0026060486
0.0025659844
0.0025244817
0.0024814483
0.002436784
0.0023903844
0.0023421283
0.0022919014
0.0022395624
0.0021849404
0.0021278833
0.0020682103
0.0020057312
0.0019402316
0.0018715113
0.0017993151
0.0017233731
0.0016438048
0.0015611334
0.0014771761
0.0013942048
0.0013128595
0.0012330235
0.0011547166
0.0010779728
0.0010028393
0.00092939453
0.00085775209
0.0007880614
0.00072049951
0.00065530534
0.00059281018
0.00053342389
0.0004777749
0.00042649
0.00038113116
0.00034205839
0.00031521834
0.00029389839
0.00043808232
-0.00039410874
0.011706598
0.011813112
0.012034512
0.012313913
0.01265485
0.013056567
0.013515818
0.014031777
0.014606044
0.015241928
0.015944442
0.016720788
0.017580868
0.01853883
0.019613357
0.020834481
0.022236788
0.023900512
0.025873179
0.028469058
0.031544629
0.036944438
0.041887875
0.082538527
0.052427103
0.0016916819
0.00083384104
0.0018931757
0.0023969165
0.0028146751
0.0030779016
0.0032673226
0.0034057595
0.0035025479
0.003570264
0.0036184946
0.0036528394
0.0036768123
0.0036928662
0.0037030156
0.0037086243
0.0037105604
0.0037095793
0.0037062982
0.0037011094
0.0036943033
0.003686158
0.0036768725
0.0036666244
0.0036555334
0.0036436795
0.0036311541
0.0036180238
0.0036043483
0.0035901864
0.0035755612
0.0035604884
0.0035449961
0.0035291046
0.0035128264
0.0034961761
0.0034791703
0.0034618017
0.0034440613
0.0034259543
0.0034074783
0.0033886311
0.0033694066
0.0033498033
0.0033298196
0.0033094302
0.0032886167
0.0032673719
0.0032456816
0.0032235295
0.0032009029
0.00317778
0.003154154
0.0031299996
0.0031052711
0.0030799534
0.0030540217
0.0030274456
0.0030001968
0.0029722428
0.0029435524
0.002914095
0.002883817
0.0028526674
0.0028206066
0.0027875843
0.002753546
0.0027184381