/*--------------------------------*- C++ -*----------------------------------*\
| =========                 |                                                 |
| \\      /  F ield         | OpenFOAM: The Open Source CFD Toolbox           |
|  \\    /   O peration     | Version:  2206                                  |
|   \\  /    A nd           | Website:  www.openfoam.com                      |
|    \\/     M anipulation  |                                                 |
\*---------------------------------------------------------------------------*/
FoamFile
{
    version     2.0;
    format      ascii;
    arch        "LSB;label=32;scalar=64";
    class       surfaceScalarField;
    location    "1700";
    object      phi;
}
// * * * * * * * * * * * * * * * * * * * * * * * * * * * * * * * * * * * * * //

dimensions      [0 3 -1 0 0 0 0];

oriented        oriented;

internalField   nonuniform List<scalar> 
25880
(
2.0046205e-06
3.3606391e-11
2.0045413e-06
7.9244591e-11
2.0044424e-06
9.8897321e-11
2.0043301e-06
1.1227279e-10
2.0042006e-06
1.2957406e-10
2.0040517e-06
1.4883437e-10
2.0038814e-06
1.7031807e-10
2.0036862e-06
1.9518762e-10
2.0034618e-06
2.2442824e-10
2.0032027e-06
2.590838e-10
2.0029022e-06
3.005253e-10
2.0025513e-06
3.5083913e-10
2.0021387e-06
4.1261514e-10
2.0016478e-06
4.9097091e-10
2.0010577e-06
5.9005676e-10
2.0003299e-06
7.2775209e-10
1.9994289e-06
9.0105703e-10
1.9982259e-06
1.2029674e-09
1.9967065e-06
1.5193952e-09
1.9942582e-06
2.4482922e-09
1.9912091e-06
3.0490926e-09
1.9840314e-06
7.1776913e-09
1.9811521e-06
2.8793843e-09
9.9527378e-07
9.8587828e-07
4.3937991e-09
9.9087998e-07
2.1101445e-09
2.2836546e-09
1.5985529e-09
5.115916e-10
1.3506002e-09
2.4795267e-10
1.1978875e-09
1.5271269e-10
1.0889952e-09
1.0889229e-10
1.0057898e-09
8.3205388e-11
9.3908864e-10
6.6701201e-11
8.8396934e-10
5.5119304e-11
8.3732901e-10
4.6640328e-11
7.9710511e-10
4.0223893e-11
7.6189959e-10
3.5205527e-11
7.3072021e-10
3.1179378e-11
7.0283056e-10
2.7889645e-11
6.77669e-10
2.5161565e-11
6.5480175e-10
2.2867254e-11
6.3388628e-10
2.0915465e-11
6.1464652e-10
1.9239762e-11
5.9686017e-10
1.7786349e-11
5.8034388e-10
1.6516294e-11
5.6494418e-10
1.5399695e-11
5.5053278e-10
1.4411404e-11
5.3700077e-10
1.353201e-11
5.2425537e-10
1.2745396e-11
5.1221708e-10
1.2038292e-11
5.0081715e-10
1.1399927e-11
4.8999552e-10
1.0821626e-11
4.7969961e-10
1.0295912e-11
4.6988318e-10
9.8164375e-12
4.6050542e-10
9.3777568e-12
4.5153036e-10
8.9750553e-12
4.4292591e-10
8.6044518e-12
4.3466316e-10
8.2627557e-12
4.2671616e-10
7.9469992e-12
4.190616e-10
7.6545562e-12
4.1167837e-10
7.3832319e-12
4.0454737e-10
7.1309944e-12
3.9765143e-10
6.8959487e-12
3.9097479e-10
6.6766348e-12
3.8450294e-10
6.4718508e-12
3.7822258e-10
6.2803646e-12
3.7212153e-10
6.1010498e-12
3.6618857e-10
5.9329566e-12
3.6041332e-10
5.7752518e-12
3.5478625e-10
5.6270691e-12
3.4929866e-10
5.4875874e-12
3.4394237e-10
5.3562887e-12
3.3870964e-10
5.232729e-12
3.3359331e-10
5.1163378e-12
3.2858669e-10
5.0066159e-12
3.2368355e-10
4.903144e-12
3.1887799e-10
4.805551e-12
3.141645e-10
4.7134918e-12
3.0953802e-10
4.6264862e-12
3.0499379e-10
4.544227e-12
3.0052713e-10
4.4666548e-12
2.9613362e-10
4.3935153e-12
2.9180912e-10
4.3245005e-12
2.8754969e-10
4.2594247e-12
2.8335159e-10
4.1981088e-12
2.7921119e-10
4.1403962e-12
2.7512511e-10
4.0860747e-12
2.710902e-10
4.0349101e-12
2.6710335e-10
3.9868544e-12
2.6316146e-10
3.9418917e-12
2.5926159e-10
3.8998687e-12
2.5540093e-10
3.8606639e-12
2.5157673e-10
3.8242001e-12
2.4778631e-10
3.7904137e-12
2.4402706e-10
3.7592481e-12
2.4029653e-10
3.7305352e-12
2.3659231e-10
3.7042207e-12
2.329119e-10
3.680407e-12
2.2925285e-10
3.659047e-12
2.2561278e-10
3.6400706e-12
2.2198931e-10
3.6234747e-12
2.1838004e-10
3.6092664e-12
2.1478258e-10
3.5974583e-12
2.1119461e-10
3.5879791e-12
2.0761375e-10
3.5808554e-12
2.0403752e-10
3.5762319e-12
2.0046337e-10
3.5741505e-12
1.9688873e-10
3.5746417e-12
1.933109e-10
3.5778307e-12
1.8972707e-10
3.5838247e-12
1.8613439e-10
3.5926817e-12
1.8252926e-10
3.6051276e-12
1.7890938e-10
3.6198831e-12
1.7527269e-10
3.6366888e-12
1.7176745e-10
3.5052445e-12
1.6846543e-10
3.3020189e-12
1.6534695e-10
3.1184721e-12
1.6239721e-10
2.9497395e-12
1.5960235e-10
2.794869e-12
1.5694908e-10
2.6532649e-12
1.5442546e-10
2.5236163e-12
1.5202069e-10
2.4047789e-12
1.4972493e-10
2.2957568e-12
1.475293e-10
2.1956327e-12
1.4542565e-10
2.1036474e-12
1.4340635e-10
2.0192967e-12
1.4146414e-10
1.9422165e-12
1.3959186e-10
1.8722769e-12
1.3778247e-10
1.8093875e-12
1.3602798e-10
1.7544949e-12
1.3432059e-10
1.7073839e-12
1.3264671e-10
1.6738856e-12
1.3100084e-10
1.6458671e-12
1.2933199e-10
1.6688455e-12
1.2772044e-10
1.6115574e-12
1.2588646e-10
1.8339789e-12
1.0846507e-12
2.0344939e-06
6.778241e-11
2.0344133e-06
1.5984543e-10
2.0343127e-06
1.9949994e-10
2.0341985e-06
2.2648363e-10
2.0340667e-06
2.6138344e-10
2.0339153e-06
3.0023422e-10
2.033742e-06
3.4356871e-10
2.0335435e-06
3.9373146e-10
2.0333152e-06
4.5270955e-10
2.0330517e-06
5.2260813e-10
2.032746e-06
6.0619199e-10
2.0323892e-06
7.0766864e-10
2.0319695e-06
8.3226059e-10
2.0314702e-06
9.9028808e-10
2.0308701e-06
1.1901195e-09
2.0301301e-06
1.4678111e-09
2.0292138e-06
1.8173071e-09
2.0279907e-06
2.4261437e-09
2.0264458e-06
3.0642321e-09
2.0239568e-06
4.9373348e-09
2.020857e-06
6.1488788e-09
2.0135604e-06
1.4474248e-08
2.0106286e-06
5.8111882e-09
1.0164951e-06
1.9800118e-06
1.3406128e-08
1.993969e-06
6.4565275e-09
9.2332548e-09
4.891376e-09
2.076743e-09
4.1326796e-09
1.006649e-09
3.6653811e-09
6.200112e-10
3.3321724e-09
4.4210106e-10
3.0775673e-09
3.3781048e-10
2.8734663e-09
2.7080217e-10
2.7048053e-09
2.2378035e-10
2.5620902e-09
1.8935537e-10
2.4390096e-09
1.6330455e-10
2.331285e-09
1.4293008e-10
2.2358802e-09
1.2658415e-10
2.1505418e-09
1.1322809e-10
2.073551e-09
1.0215231e-10
2.0035807e-09
9.2837631e-11
1.9395825e-09
8.4913614e-11
1.8807119e-09
7.8110429e-11
1.8262885e-09
7.2209748e-11
1.7757512e-09
6.7053528e-11
1.7286306e-09
6.2520283e-11
1.6845341e-09
5.850796e-11
1.6431283e-09
5.4937751e-11
1.6041295e-09
5.1744213e-11
1.5672943e-09
4.8873481e-11
1.5324124e-09
4.6281819e-11
1.4993001e-09
4.3934006e-11
1.4677963e-09
4.179969e-11
1.4377596e-09
3.9853101e-11
1.4090652e-09
3.8072127e-11
1.3816031e-09
3.6437225e-11
1.3552749e-09
3.4932637e-11
1.3299922e-09
3.3545407e-11
1.3056758e-09
3.2263487e-11
1.2822541e-09
3.1076217e-11
1.2596626e-09
2.9974685e-11
1.237843e-09
2.8950643e-11
1.2167425e-09
2.7996397e-11
1.1963132e-09
2.710602e-11
1.1765104e-09
2.6274632e-11
1.1572935e-09
2.549723e-11
1.1386253e-09
2.4769242e-11
1.1204715e-09
2.4086812e-11
1.1028002e-09
2.3446557e-11
1.0855823e-09
2.284496e-11
1.0687912e-09
2.2278689e-11
1.0524018e-09
2.1745639e-11
1.0363905e-09
2.1244008e-11
1.0207354e-09
2.0771479e-11
1.005416e-09
2.0326027e-11
9.9041318e-10
1.9905949e-11
9.7570899e-10
1.9509738e-11
9.6128649e-10
1.9135993e-11
9.4713021e-10
1.8782765e-11
9.3322563e-10
1.8448808e-11
9.1955841e-10
1.8133878e-11
9.0611498e-10
1.7836944e-11
8.9288272e-10
1.7556756e-11
8.7984959e-10
1.7292559e-11
8.6700407e-10
1.7043627e-11
8.5433514e-10
1.6809324e-11
8.4183243e-10
1.6588788e-11
8.2948627e-10
1.6381069e-11
8.1728715e-10
1.6185972e-11
8.0522561e-10
1.600343e-11
7.9329266e-10
1.5832824e-11
7.8147966e-10
1.567366e-11
7.6977824e-10
1.5525623e-11
7.581802e-10
1.5388456e-11
7.4667752e-10
1.5261929e-11
7.3526269e-10
1.514536e-11
7.2392838e-10
1.5038528e-11
7.1266694e-10
1.4941849e-11
7.0147086e-10
1.4855131e-11
6.9033284e-10
1.477809e-11
6.792456e-10
1.4710713e-11
6.6820184e-10
1.465303e-11
6.571942e-10
1.4605092e-11
6.4621557e-10
1.4566608e-11
6.3525874e-10
1.4537687e-11
6.2431606e-10
1.4518917e-11
6.1337974e-10
1.4510467e-11
6.0244192e-10
1.4512461e-11
5.9149435e-10
1.4525408e-11
5.8052843e-10
1.4549742e-11
5.6953541e-10
1.45857e-11
5.5850431e-10
1.4636228e-11
5.4742806e-10
1.4696131e-11
5.3630038e-10
1.476437e-11
5.2557489e-10
1.4230735e-11
5.1547125e-10
1.3405663e-11
5.0592923e-10
1.2660486e-11
4.9690351e-10
1.1975459e-11
4.8835167e-10
1.1346711e-11
4.8023311e-10
1.0771821e-11
4.7251126e-10
1.0245469e-11
4.6515303e-10
9.7630079e-12
4.5812839e-10
9.320395e-12
4.5141012e-10
8.9139059e-12
4.4497331e-10
8.5404582e-12
4.387946e-10
8.1980053e-12
4.3285175e-10
7.8850683e-12
4.2712291e-10
7.6011199e-12
4.215865e-10
7.3457914e-12
4.1621807e-10
7.1229268e-12
4.1099381e-10
6.9316485e-12
4.0587206e-10
6.7956311e-12
4.0083608e-10
6.6818446e-12
3.9572984e-10
6.7750906e-12
3.9079955e-10
6.5418478e-12
3.851836e-10
7.4499283e-12
4.3964544e-12
2.0946858e-06
1.0305974e-10
2.0946026e-06
2.4306134e-10
2.0944987e-06
3.0338378e-10
2.0943808e-06
3.444224e-10
2.0942447e-06
3.9749334e-10
2.0940883e-06
4.5657092e-10
2.0939094e-06
5.224644e-10
2.0937044e-06
5.9873838e-10
2.0934687e-06
6.8841398e-10
2.0931966e-06
7.9469151e-10
2.092881e-06
9.2177387e-10
2.0925127e-06
1.0760571e-09
2.0920794e-06
1.2654799e-09
2.091564e-06
1.5057306e-09
2.0909446e-06
1.8095281e-09
2.0901807e-06
2.2316838e-09
2.089235e-06
2.7629806e-09
2.0879727e-06
3.6885009e-09
2.0863785e-06
4.6584389e-09
2.0838102e-06
7.5056092e-09
2.0806119e-06
9.3472202e-09
2.0730838e-06
2.200228e-08
2.0700539e-06
8.8411699e-09
1.0532492e-06
2.9968164e-06
2.3180203e-08
3.024038e-06
1.118903e-08
2.1224428e-08
8.4769079e-09
4.7888651e-09
7.1620992e-09
2.3214578e-09
6.3522265e-09
1.4298839e-09
5.7747482e-09
1.0195793e-09
5.3334984e-09
7.7906028e-10
4.9797791e-09
6.2452154e-10
4.6874799e-09
5.1607956e-10
4.4401476e-09
4.3668765e-10
4.2268436e-09
3.7660849e-10
4.0401531e-09
3.2962061e-10
3.8748136e-09
2.9192369e-10
3.7269196e-09
2.6112208e-10
3.5934926e-09
2.355793e-10
3.4722322e-09
2.1409799e-10
3.3613219e-09
1.9582391e-10
3.2592978e-09
1.8013455e-10
3.164981e-09
1.6652658e-10
3.0773989e-09
1.5463558e-10
2.9957381e-09
1.4418117e-10
2.9193179e-09
1.3492812e-10
2.847561e-09
1.2669466e-10
2.7799753e-09
1.1932986e-10
2.7161393e-09
1.1270952e-10
2.6556884e-09
1.0673275e-10
2.598304e-09
1.0131834e-10
2.5437074e-09
9.6396286e-11
2.4916534e-09
9.1907158e-11
2.4419255e-09
8.7799966e-11
2.3943331e-09
8.4029639e-11
2.3487059e-09
8.0559836e-11
2.3048907e-09
7.7360678e-11
2.2627498e-09
7.4404382e-11
2.2221596e-09
7.1666361e-11
2.1830082e-09
6.9126066e-11
2.1451944e-09
6.6764473e-11
2.108627e-09
6.4563843e-11
2.0732225e-09
6.2510505e-11
2.0389039e-09
6.0593201e-11
2.0056007e-09
5.8800398e-11
1.9732484e-09
5.7121551e-11
1.9417875e-09
5.5547769e-11
1.9111628e-09
5.4071247e-11
1.8813239e-09
5.2683876e-11
1.8522246e-09
5.1377973e-11
1.8238215e-09
5.0148683e-11
1.7960737e-09
4.8991848e-11
1.7689431e-09
4.7902129e-11
1.7423942e-09
4.6874851e-11
1.7163941e-09
4.5906089e-11
1.6909115e-09
4.4992369e-11
1.665917e-09
4.4130459e-11
1.6413839e-09
4.3315865e-11
1.617287e-09
4.2545713e-11
1.5936014e-09
4.1819438e-11
1.5703037e-09
4.1134666e-11
1.5473719e-09
4.0488511e-11
1.5247853e-09
3.9879235e-11
1.5025237e-09
3.9305162e-11
1.4805682e-09
3.8764824e-11
1.4589008e-09
3.8256236e-11
1.4375047e-09
3.7777207e-11
1.4163633e-09
3.7327285e-11
1.3954605e-09
3.6906319e-11
1.3747804e-09
3.6512876e-11
1.3543082e-09
3.614582e-11
1.3340294e-09
3.5804426e-11
1.3139298e-09
3.54881e-11
1.2939954e-09
3.519631e-11
1.2742133e-09
3.4927486e-11
1.2545707e-09
3.4681117e-11
1.2350544e-09
3.445816e-11
1.2156513e-09
3.4258177e-11
1.1963489e-09
3.408051e-11
1.1771345e-09
3.392513e-11
1.1579954e-09
3.3792106e-11
1.138919e-09
3.3681552e-11
1.1198928e-09
3.3592804e-11
1.1009043e-09
3.3526109e-11
1.0819404e-09
3.3482823e-11
1.0629876e-09
3.3463336e-11
1.0440321e-09
3.3467936e-11
1.0250597e-09
3.3497794e-11
1.0060555e-09
3.3553913e-11
9.870044e-10
3.3636839e-11
9.6788727e-10
3.3753362e-11
9.4869189e-10
3.3891508e-11
9.2940736e-10
3.4048896e-11
9.1081983e-10
3.2818267e-11
8.9330998e-10
3.0915511e-11
8.7677346e-10
2.9197007e-11
8.6113169e-10
2.7617232e-11
8.4631116e-10
2.6167245e-11
8.3224151e-10
2.4841464e-11
8.1885937e-10
2.3627616e-11
8.0610739e-10
2.2514987e-11
7.9393353e-10
2.1494253e-11
7.8229061e-10
2.0556825e-11
7.7113547e-10
1.9695595e-11
7.6042764e-10
1.8905841e-11
7.5012855e-10
1.8184154e-11
7.4020036e-10
1.7529317e-11
7.3060567e-10
1.6940477e-11
7.213021e-10
1.6426499e-11
7.1224839e-10
1.5985356e-11
7.0337238e-10
1.5671637e-11
6.9464505e-10
1.5409177e-11
6.8579606e-10
1.5624084e-11
6.7725241e-10
1.5085496e-11
6.6751693e-10
1.7185407e-11
1.0131128e-11
2.1860933e-06
1.3999266e-10
2.1860061e-06
3.3020597e-10
2.1858973e-06
4.1219479e-10
2.1857738e-06
4.6795874e-10
2.1856312e-06
5.4006085e-10
2.1854675e-06
6.2032119e-10
2.1852801e-06
7.0983777e-10
2.1850654e-06
8.1345236e-10
2.1848185e-06
9.3526856e-10
2.1845336e-06
1.0796328e-09
2.1842031e-06
1.2522527e-09
2.1838174e-06
1.4618146e-09
2.1833637e-06
1.7190989e-09
2.1828241e-06
2.045411e-09
2.1821756e-06
2.4580202e-09
2.1813759e-06
3.0313637e-09
2.180386e-06
3.752905e-09
2.1790647e-06
5.0097988e-09
2.1773962e-06
6.3269321e-09
2.1747086e-06
1.0193149e-08
2.1713619e-06
1.2693934e-08
2.1634854e-06
2.9878837e-08
2.1603084e-06
1.2018099e-08
1.1063896e-06
4.0507352e-06
3.4294448e-08
4.0961332e-06
1.6590752e-08
3.8928124e-08
1.256966e-08
8.8099574e-09
1.062012e-08
4.2709983e-09
9.4191814e-09
2.6308219e-09
8.5628646e-09
1.8758962e-09
7.9085563e-09
1.4333686e-09
7.3840473e-09
1.1490305e-09
6.9506156e-09
9.4951125e-10
6.5838639e-09
8.0343938e-10
6.2675718e-09
6.9290054e-10
5.9907437e-09
6.0644876e-10
5.7455757e-09
5.3709164e-10
5.5262767e-09
4.8042114e-10
5.3284297e-09
4.3342622e-10
5.1486238e-09
3.9390391e-10
4.9841652e-09
3.6028259e-10
4.8328831e-09
3.3141655e-10
4.6930297e-09
3.0638006e-10
4.5631625e-09
2.8450274e-10
4.4420753e-09
2.6526832e-10
4.3287592e-09
2.4824427e-10
4.2223577e-09
2.330961e-10
4.1221415e-09
2.1954614e-10
4.0274851e-09
2.0736584e-10
3.9378483e-09
1.9636963e-10
3.8527586e-09
1.8640805e-10
3.7718025e-09
1.7735233e-10
3.6946166e-09
1.6909311e-10
3.6208799e-09
1.6153659e-10
3.5503097e-09
1.5459985e-10
3.4826535e-09
1.4821603e-10
3.4176841e-09
1.4233014e-10
3.3551974e-09
1.3689107e-10
3.2950101e-09
1.318536e-10
3.2369563e-09
1.271799e-10
3.1808858e-09
1.2283499e-10
3.1266634e-09
1.1878622e-10
3.0741655e-09
1.1500844e-10
3.0232777e-09
1.1148094e-10
2.9738956e-09
1.081825e-10
2.9259235e-09
1.0509372e-10
2.879273e-09
1.0219824e-10
2.8338626e-09
9.9481699e-11
2.7896172e-09
9.6929182e-11
2.7464687e-09
9.4526555e-11
2.7043525e-09
9.2264881e-11
2.6632078e-09
9.0136509e-11
2.6229783e-09
8.813162e-11
2.5836116e-09
8.6241611e-11
2.5450584e-09
8.4459261e-11
2.5072726e-09
8.2778178e-11
2.4702106e-09
8.1192416e-11
2.4338328e-09
7.9693709e-11
2.3981017e-09
7.8276768e-11
2.3629806e-09
7.6940551e-11
2.3284346e-09
7.5680692e-11
2.2944312e-09
7.4491883e-11
2.2609395e-09
7.3370924e-11
2.22793e-09
7.2314732e-11
2.1953742e-09
7.1320607e-11
2.1632455e-09
7.0384895e-11
2.1315191e-09
6.9503568e-11
2.1001706e-09
6.8675793e-11
2.0691757e-09
6.7901291e-11
2.0385111e-09
6.7177428e-11
2.0081548e-09
6.650211e-11
1.9780852e-09
6.5874007e-11
1.9482813e-09
6.5292023e-11
1.9187225e-09
6.4755183e-11
1.8893893e-09
6.4260595e-11
1.8602631e-09
6.3807323e-11
1.8313242e-09
6.3397122e-11
1.8025532e-09
6.302919e-11
1.7739314e-09
6.2702316e-11
1.74544e-09
6.2416447e-11
1.7170604e-09
6.2171706e-11
1.6887737e-09
6.1968309e-11
1.6605615e-09
6.1805031e-11
1.6324052e-09
6.1682327e-11
1.6042854e-09
6.1602689e-11
1.5761819e-09
6.156684e-11
1.5480745e-09
6.1575305e-11
1.5199421e-09
6.1630241e-11
1.4917625e-09
6.1733493e-11
1.4635132e-09
6.1886064e-11
1.4351662e-09
6.2100446e-11
1.4067031e-09
6.2354615e-11
1.3781077e-09
6.2644216e-11
1.3505459e-09
6.0380093e-11
1.3245821e-09
5.6879325e-11
1.3000615e-09
5.371755e-11
1.2768677e-09
5.0811036e-11
1.2548917e-09
4.8143312e-11
1.234029e-09
4.5704104e-11
1.2141858e-09
4.3470833e-11
1.195277e-09
4.1423785e-11
1.1772255e-09
3.9545807e-11
1.1599612e-09
3.7821097e-11
1.1434202e-09
3.6236574e-11
1.1275425e-09
3.4783555e-11
1.1122709e-09
3.3455762e-11
1.0975493e-09
3.2250955e-11
1.0833222e-09
3.1167569e-11
1.0695268e-09
3.0221902e-11
1.0561019e-09
2.9410229e-11
1.0429406e-09
2.8832958e-11
1.0299997e-09
2.8350007e-11
1.0168787e-09
2.8745091e-11
1.0042107e-09
2.7753553e-11
9.8977303e-10
3.1623049e-11
1.863179e-11
2.3100785e-06
1.7916885e-10
2.309986e-06
4.2267395e-10
2.3098706e-06
5.2768218e-10
2.3097394e-06
5.9907998e-10
2.3095881e-06
6.9137862e-10
2.3094143e-06
7.9411707e-10
2.3092155e-06
9.0869867e-10
2.3089876e-06
1.0413197e-09
2.3087256e-06
1.1972319e-09
2.3084233e-06
1.3819968e-09
2.3080726e-06
1.6029174e-09
2.3076633e-06
1.8711076e-09
2.307182e-06
2.2003599e-09
2.3066095e-06
2.6179346e-09
2.3059216e-06
3.1459212e-09
2.3050734e-06
3.8795634e-09
2.3040235e-06
4.8027912e-09
2.3026224e-06
6.4109633e-09
2.3008532e-06
8.0960871e-09
2.2980041e-06
1.3042298e-08
2.2944563e-06
1.6241704e-08
2.2861075e-06
3.8227637e-08
2.2827316e-06
1.5394038e-08
1.1770508e-06
5.1564159e-06
4.7402481e-08
5.2257815e-06
2.2984812e-08
6.3345793e-08
1.7414504e-08
1.4380265e-08
1.471365e-08
6.971852e-09
1.3049751e-08
4.2947219e-09
1.1863339e-08
3.0623076e-09
1.0956808e-08
2.3398992e-09
1.0230119e-08
1.8757203e-09
9.6296151e-09
1.5500148e-09
9.1214961e-09
1.3115584e-09
8.6832888e-09
1.1311078e-09
8.2997582e-09
9.8997941e-10
7.9600918e-09
8.76758e-10
7.6562658e-09
7.8424711e-10
7.3821609e-09
7.0753111e-10
7.1330511e-09
6.4301379e-10
6.9052039e-09
5.8812976e-10
6.6956124e-09
5.4100801e-10
6.5018546e-09
5.0013789e-10
6.3219321e-09
4.6442526e-10
6.1541738e-09
4.3302663e-10
5.9971817e-09
4.0523634e-10
5.8497695e-09
3.8050827e-10
5.7109265e-09
3.5838915e-10
5.5797865e-09
3.3850591e-10
5.4556005e-09
3.2055559e-10
5.3377143e-09
3.0429421e-10
5.2255551e-09
2.8951156e-10
5.1186191e-09
2.7602915e-10
5.0164619e-09
2.6369382e-10
4.9186915e-09
2.5237023e-10
4.8249583e-09
2.4194923e-10
4.7349473e-09
2.3234106e-10
4.6483761e-09
2.2346229e-10
4.5649906e-09
2.1523908e-10
4.4845608e-09
2.076097e-10
4.4068788e-09
2.0051703e-10
4.3317572e-09
1.939078e-10
4.2590247e-09
1.8774093e-10
4.188523e-09
1.8198262e-10
4.1201073e-09
1.7659823e-10
4.053645e-09
1.7155608e-10
3.9890137e-09
1.6682948e-10
3.9261004e-09
1.6239498e-10
3.8648014e-09
1.5822824e-10
3.8050218e-09
1.5430618e-10
3.7466724e-09
1.5061421e-10
3.6896691e-09
1.4713984e-10
3.6339337e-09
1.4386705e-10
3.5793935e-09
1.4078179e-10
3.5259805e-09
1.3787227e-10
3.4736306e-09
1.3512806e-10
3.4222836e-09
1.3253945e-10
3.3718843e-09
1.3009295e-10
3.3223812e-09
1.2777994e-10
3.273723e-09
1.2559869e-10
3.2258616e-09
1.2354209e-10
3.178752e-09
1.2160147e-10
3.1323514e-09
1.1977161e-10
3.0866186e-09
1.1804748e-10
3.0415146e-09
1.1642466e-10
2.9970023e-09
1.148972e-10
2.9530473e-09
1.1345852e-10
2.9096158e-09
1.1210726e-10
2.8666742e-09
1.1084296e-10
2.8241903e-09
1.0966132e-10
2.7821335e-09
1.0855893e-10
2.7404739e-09
1.0753361e-10
2.6991823e-09
1.0658358e-10
2.6582302e-09
1.0570724e-10
2.617591e-09
1.0489988e-10
2.5772383e-09
1.0415996e-10
2.5371451e-09
1.0349035e-10
2.4972846e-09
1.0288973e-10
2.4576307e-09
1.0235615e-10
2.4181577e-09
1.0188949e-10
2.3788394e-09
1.0148998e-10
2.3396498e-09
1.0115796e-10
2.3005634e-09
1.0089143e-10
2.2615546e-09
1.0069113e-10
2.2225961e-09
1.0056114e-10
2.1836603e-09
1.0050262e-10
2.1447192e-09
1.0051644e-10
2.1057433e-09
1.0060613e-10
2.0667021e-09
1.0077468e-10
2.0275644e-09
1.0102375e-10
1.9882912e-09
1.0137371e-10
1.9488571e-09
1.0178863e-10
1.9092399e-09
1.0226144e-10
1.8710545e-09
9.8565493e-11
1.8350831e-09
9.2850756e-11
1.8011112e-09
8.7689399e-11
1.7689775e-09
8.2944769e-11
1.7385309e-09
7.858995e-11
1.7096268e-09
7.4608159e-11
1.6821351e-09
7.096254e-11
1.655938e-09
6.7620913e-11
1.6309285e-09
6.4555273e-11
1.6070098e-09
6.1739826e-11
1.5840931e-09
5.9153222e-11
1.5620954e-09
5.6781279e-11
1.5409374e-09
5.4613752e-11
1.5205414e-09
5.2646982e-11
1.5008306e-09
5.0878409e-11
1.4817178e-09
4.9334633e-11
1.4631185e-09
4.8009572e-11
1.4448844e-09
4.7067082e-11
1.4269558e-09
4.6278609e-11
1.4087779e-09
4.6922959e-11
1.3912276e-09
4.5303834e-11
1.3712238e-09
5.1626861e-11
3.0407142e-11
2.4684891e-06
2.2122116e-10
2.4683898e-06
5.219697e-10
2.4682658e-06
6.5173532e-10
2.4681249e-06
7.3993306e-10
2.4679624e-06
8.5392322e-10
2.4677757e-06
9.8080137e-10
2.4675621e-06
1.1222974e-09
2.4673173e-06
1.2860613e-09
2.467036e-06
1.4785769e-09
2.4667113e-06
1.7067096e-09
2.4663347e-06
1.9794733e-09
2.4658953e-06
2.3105861e-09
2.4653785e-06
2.7170706e-09
2.4647639e-06
3.2325742e-09
2.4640255e-06
3.8843538e-09
2.4631151e-06
4.7899705e-09
2.4619883e-06
5.9295466e-09
2.4604848e-06
7.9145012e-09
2.4585866e-06
9.9942569e-09
2.4555304e-06
1.6098534e-08
2.451725e-06
2.0047093e-08
2.4427712e-06
4.7181423e-08
2.4391398e-06
1.9025473e-08
1.2666852e-06
6.3288705e-06
6.3271246e-08
6.4291954e-06
3.0753664e-08
9.5863375e-08
2.3301312e-08
2.1832616e-08
1.9687634e-08
1.058553e-08
1.7461165e-08
6.5211914e-09
1.5873647e-08
4.6498252e-09
1.4660635e-08
3.552911e-09
1.3688275e-08
2.8480809e-09
1.2884762e-08
2.3535274e-09
1.2204869e-08
1.9914519e-09
1.1618524e-08
1.7174524e-09
1.1105341e-08
1.5031619e-09
1.0650853e-08
1.3312469e-09
1.024432e-08
1.1907793e-09
9.8775568e-09
1.0742947e-09
9.544238e-09
9.7633263e-10
9.2393696e-09
8.9299815e-10
8.9589284e-09
8.214492e-10
8.6996734e-09
7.5939291e-10
8.4589303e-09
7.051683e-10
8.2344636e-09
6.5749334e-10
8.0244026e-09
6.1529739e-10
7.8271598e-09
5.7775106e-10
7.6413829e-09
5.4416609e-10
7.4659127e-09
5.1397602e-10
7.2997475e-09
4.8672087e-10
7.1420115e-09
4.6203015e-10
6.9919384e-09
4.3958468e-10
6.8488541e-09
4.1911344e-10
6.712164e-09
4.0038391e-10
6.5813437e-09
3.8319058e-10
6.4559252e-09
3.6736771e-10
6.3354872e-09
3.5277901e-10
6.2196517e-09
3.3929781e-10
6.1080788e-09
3.2681198e-10
6.0004607e-09
3.1522781e-10
5.8965192e-09
3.0445855e-10
5.7960037e-09
2.9442334e-10
5.6986848e-09
2.850598e-10
5.6043508e-09
2.7631659e-10
5.5128079e-09
2.6814112e-10
5.4238787e-09
2.6048531e-10
5.3373996e-09
2.5330861e-10
5.2532191e-09
2.4657543e-10
5.1711986e-09
2.402488e-10
5.0912111e-09
2.3429369e-10
5.0131373e-09
2.2868795e-10
4.9368646e-09
2.234126e-10
4.8622883e-09
2.1844331e-10
4.7893113e-09
2.1375876e-10
4.7178425e-09
2.0934106e-10
4.6477962e-09
2.0517435e-10
4.5790918e-09
2.012439e-10
4.5116555e-09
1.9752924e-10
4.4454182e-09
1.9401724e-10
4.3803116e-09
1.9070532e-10
4.316271e-09
1.8758265e-10
4.2532364e-09
1.8463609e-10
4.1911503e-09
1.818577e-10
4.1299579e-09
1.7923984e-10
4.0696067e-09
1.7677582e-10
4.0100474e-09
1.7445659e-10
3.9512337e-09
1.7227215e-10
3.8931205e-09
1.7022045e-10
3.8356627e-09
1.6830079e-10
3.7788174e-09
1.6650664e-10
3.7225435e-09
1.6483281e-10
3.6668011e-09
1.6327601e-10
3.6115512e-09
1.6183352e-10
3.5567555e-09
1.6050292e-10
3.5023783e-09
1.5927706e-10
3.4483846e-09
1.581536e-10
3.3947381e-09
1.5713689e-10
3.3414029e-09
1.5622495e-10
3.2883443e-09
1.5541478e-10
3.2355275e-09
1.5470624e-10
3.1829178e-09
1.5409964e-10
3.1304803e-09
1.5359552e-10
3.0781809e-09
1.5319084e-10
3.0259853e-09
1.5288673e-10
2.9738571e-09
1.5268935e-10
2.9217592e-09
1.5260052e-10
2.8696541e-09
1.5262152e-10
2.8175025e-09
1.527577e-10
2.7652636e-09
1.5301365e-10
2.7128955e-09
1.5339184e-10
2.660346e-09
1.5392322e-10
2.6075814e-09
1.5455324e-10
2.5545716e-09
1.5527124e-10
2.5034776e-09
1.4965948e-10
2.455346e-09
1.4098233e-10
2.40989e-09
1.3314542e-10
2.3668934e-09
1.2594131e-10
2.3261543e-09
1.193291e-10
2.2874792e-09
1.1328327e-10
2.2506938e-09
1.0774787e-10
2.2156407e-09
1.0267404e-10
2.1821767e-09
9.8019257e-11
2.1501722e-09
9.3744355e-11
2.1195085e-09
8.9816915e-11
2.0900744e-09
8.6215402e-11
2.0617639e-09
8.292426e-11
2.0344729e-09
7.9937928e-11
2.0080988e-09
7.7252515e-11
1.9825251e-09
7.4908399e-11
1.9576383e-09
7.2896346e-11
1.9332403e-09
7.1465057e-11
1.9092512e-09
7.0267724e-11
1.8849291e-09
7.1245063e-11
1.8614467e-09
6.8786259e-11
1.8346796e-09
7.8393915e-11
4.6161952e-11
2.6636858e-06
2.66841e-10
2.663578e-06
6.2973996e-10
2.6634433e-06
7.8642543e-10
2.6632904e-06
8.9287214e-10
2.6631139e-06
1.0304099e-09
2.6629112e-06
1.1834904e-09
2.6626793e-06
1.3541961e-09
2.6624136e-06
1.5517539e-09
2.6621082e-06
1.783984e-09
2.6617557e-06
2.059165e-09
2.661347e-06
2.3881656e-09
2.6608701e-06
2.7875265e-09
2.6603094e-06
3.2777706e-09
2.6596425e-06
3.8994684e-09
2.6588414e-06
4.6854725e-09
2.6578538e-06
5.7775351e-09
2.6566317e-06
7.1516277e-09
2.6550013e-06
9.5449639e-09
2.6529432e-06
1.2052351e-08
2.6496303e-06
1.9411377e-08
2.6455058e-06
2.4171677e-08
2.6358026e-06
5.6884588e-08
2.6318534e-06
2.297463e-08
1.377106e-06
7.583618e-06
8.282474e-08
7.7234767e-06
4.036197e-08
1.3832615e-07
3.05823e-08
3.1612286e-08
2.5839702e-08
1.5328128e-08
2.2917379e-08
9.4435148e-09
2.0833737e-08
6.7334675e-09
1.9241642e-08
5.145006e-09
1.7965418e-08
4.1243046e-09
1.6910811e-08
3.4081347e-09
1.6018456e-08
2.8838062e-09
1.5248888e-08
2.4870207e-09
1.4575347e-08
2.1767035e-09
1.3978841e-08
1.927753e-09
1.3445278e-08
1.7243422e-09
1.2963911e-08
1.5556616e-09
1.252644e-08
1.4138037e-09
1.2126309e-08
1.2931288e-09
1.1758239e-08
1.1895194e-09
1.1417975e-08
1.0996567e-09
1.1102007e-08
1.0211358e-09
1.0807402e-08
9.5209862e-10
1.0531704e-08
8.9099569e-10
1.0272829e-08
8.3662579e-10
1.0029003e-08
7.8799225e-10
9.7987042e-09
7.4427483e-10
9.5806176e-09
7.0480741e-10
9.3735943e-09
6.6905347e-10
9.1766282e-09
6.3655082e-10
8.9888346e-09
6.0690701e-10
8.8094332e-09
5.797853e-10
8.6377356e-09
5.5488816e-10
8.4731278e-09
5.3197554e-10
8.3150567e-09
5.1085008e-10
8.1630262e-09
4.9132834e-10
8.0165902e-09
4.7324799e-10
7.8753447e-09
4.564733e-10
7.7389246e-09
4.4087866e-10
7.607001e-09
4.2634698e-10
7.4792728e-09
4.1278793e-10
7.3554622e-09
4.0012716e-10
7.2353149e-09
3.8828851e-10
7.1185978e-09
3.7720237e-10
7.0050964e-09
3.6681001e-10
6.8946119e-09
3.5705989e-10
6.7869622e-09
3.4789849e-10
6.6819808e-09
3.392751e-10
6.5795112e-09
3.311576e-10
6.4794053e-09
3.2351853e-10
6.3815259e-09
3.1632265e-10
6.2857456e-09
3.0953911e-10
6.1919447e-09
3.0314197e-10
6.1000107e-09
2.9710829e-10
6.0098379e-09
2.9141672e-10
5.9213295e-09
2.8603764e-10
5.8343947e-09
2.8095204e-10
5.7489439e-09
2.7615615e-10
5.6648922e-09
2.7163431e-10
5.5821608e-09
2.6736749e-10
5.5006744e-09
2.6334419e-10
5.4203608e-09
2.5955336e-10
5.3411514e-09
2.5598528e-10
5.2629811e-09
2.5262687e-10
5.1857896e-09
2.4946367e-10
5.1095174e-09
2.4649268e-10
5.0341053e-09
2.4371288e-10
4.9594971e-09
2.4111483e-10
4.8856389e-09
2.3869102e-10
4.8124782e-09
2.3643667e-10
4.7399639e-09
2.3434785e-10
4.6680457e-09
2.3242106e-10
4.5966769e-09
2.3064593e-10
4.5258114e-09
2.290191e-10
4.4554014e-09
2.2754685e-10
4.3854001e-09
2.262263e-10
4.3157617e-09
2.2505313e-10
4.2464408e-09
2.2402713e-10
4.1773917e-09
2.2314874e-10
4.1085685e-09
2.2241875e-10
4.0399265e-09
2.2183277e-10
3.9714209e-09
2.2139241e-10
3.9030036e-09
2.2110663e-10
3.8346261e-09
2.20978e-10
3.7662392e-09
2.2100844e-10
3.6977912e-09
2.2120567e-10
3.6292286e-09
2.2157632e-10
3.5604964e-09
2.22124e-10
3.4915261e-09
2.2289349e-10
3.4222735e-09
2.2380585e-10
3.352699e-09
2.2484572e-10
3.2856389e-09
2.1671956e-10
3.222467e-09
2.0415428e-10
3.1628067e-09
1.9280574e-10
3.1063744e-09
1.8237363e-10
3.0529048e-09
1.7279864e-10
3.0021443e-09
1.6404382e-10
2.953864e-09
1.5602814e-10
2.9078572e-09
1.4868084e-10
2.8639361e-09
1.4194034e-10
2.8219306e-09
1.3574993e-10
2.7816848e-09
1.3006266e-10
2.7430529e-09
1.2484736e-10
2.7058957e-09
1.2008147e-10
2.6700766e-09
1.1575696e-10
2.635461e-09
1.1186818e-10
2.6018958e-09
1.0847357e-10
2.5692324e-09
1.0555978e-10
2.5372106e-09
1.0348678e-10
2.5057256e-09
1.0175275e-10
2.4738043e-09
1.0316634e-10
2.4429849e-09
9.9605655e-11
2.4078529e-09
1.1352599e-10
6.6839279e-11
2.8985773e-06
3.1679348e-10
2.8984592e-06
7.4781114e-10
2.8983116e-06
9.3405371e-10
2.898144e-06
1.0605135e-09
2.8979505e-06
1.2238559e-09
2.8977284e-06
1.4056465e-09
2.8974742e-06
1.6083517e-09
2.897183e-06
1.8429246e-09
2.8968484e-06
2.1186484e-09
2.8964622e-06
2.4453483e-09
2.8960144e-06
2.8359216e-09
2.895492e-06
3.3099966e-09
2.8948778e-06
3.8919238e-09
2.8941474e-06
4.6298466e-09
2.8932702e-06
5.562733e-09
2.8921889e-06
6.8587973e-09
2.8908511e-06
8.4894414e-09
2.8890666e-06
1.1329475e-08
2.8868145e-06
1.4304494e-08
2.8831904e-06
2.3035428e-08
2.8786788e-06
2.8683326e-08
2.8680672e-06
6.7496129e-08
2.8637308e-06
2.7311039e-08
1.5105408e-06
8.936808e-06
1.0719616e-07
9.1268213e-06
5.2384383e-08
1.9313792e-07
3.9693102e-08
4.4303567e-08
3.3537991e-08
2.148324e-08
2.9744869e-08
1.3236636e-08
2.7040388e-08
9.4379489e-09
2.4973917e-08
7.2114765e-09
2.3317453e-08
5.7807693e-09
2.1948638e-08
4.7769497e-09
2.0790422e-08
4.0420217e-09
1.979158e-08
3.4858628e-09
1.8917377e-08
3.0509067e-09
1.8143162e-08
2.7019681e-09
1.7450643e-08
2.4168611e-09
1.6825871e-08
2.1804336e-09
1.6258072e-08
1.9816022e-09
1.5738739e-08
1.8124625e-09
1.5261017e-08
1.6672409e-09
1.4819386e-08
1.5412876e-09
1.4409289e-08
1.4312328e-09
1.4026919e-08
1.3344691e-09
1.3669088e-08
1.2488266e-09
1.3333092e-08
1.1726213e-09
1.3016628e-08
1.1044561e-09
1.2717722e-08
1.0431814e-09
1.2434666e-08
9.8786365e-10
1.2165968e-08
9.3775071e-10
1.1910324e-08
8.9219481e-10
1.1666586e-08
8.5064587e-10
1.1433739e-08
8.1263194e-10
1.1210891e-08
7.7773599e-10
1.0997245e-08
7.4562157e-10
1.0792083e-08
7.1601203e-10
1.0594761e-08
6.8865028e-10
1.04047e-08
6.6330879e-10
1.0221376e-08
6.397973e-10
1.0044315e-08
6.1793979e-10
9.8730901e-09
5.9757214e-10
9.7073102e-09
5.7856774e-10
9.546615e-09
5.6082236e-10
9.3906743e-09
5.4422926e-10
9.2391858e-09
5.2869089e-10
9.0918709e-09
5.1412492e-10
8.9484716e-09
5.0045912e-10
8.8087517e-09
4.8761847e-10
8.6724949e-09
4.755319e-10
8.5394981e-09
4.6415439e-10
8.4095692e-09
4.5344744e-10
8.2825301e-09
4.4336168e-10
8.1582154e-09
4.3385384e-10
8.0364698e-09
4.2488759e-10
7.9171473e-09
4.1643077e-10
7.8001106e-09
4.0845345e-10
7.6852341e-09
4.0091411e-10
7.5724e-09
3.9378613e-10
7.4614919e-09
3.8706421e-10
7.3523998e-09
3.8072638e-10
7.2450213e-09
3.74746e-10
7.1392586e-09
3.6910694e-10
7.0350183e-09
3.6379369e-10
6.9322109e-09
3.5879268e-10
6.8307522e-09
3.5408552e-10
6.7305639e-09
3.4965198e-10
6.6315687e-09
3.4548784e-10
6.5336899e-09
3.4159167e-10
6.4368545e-09
3.3795024e-10
6.3409925e-09
3.3455304e-10
6.2460358e-09
3.3139335e-10
6.151918e-09
3.2846566e-10
6.058574e-09
3.2576507e-10
5.9659429e-09
3.2327707e-10
5.873965e-09
3.2099692e-10