/*--------------------------------*- C++ -*----------------------------------*\
| =========                 |                                                 |
| \\      /  F ield         | OpenFOAM: The Open Source CFD Toolbox           |
|  \\    /   O peration     | Version:  2206                                  |
|   \\  /    A nd           | Website:  www.openfoam.com                      |
|    \\/     M anipulation  |                                                 |
\*---------------------------------------------------------------------------*/
FoamFile
{
    version     2.0;
    format      ascii;
    arch        "LSB;label=32;scalar=64";
    class       volVectorField;
    location    "1700";
    object      U;
}
// * * * * * * * * * * * * * * * * * * * * * * * * * * * * * * * * * * * * * //

dimensions      [0 1 -1 0 0 0 0];

internalField   nonuniform List<vector> 
13056
(
(1 4.190687e-10 4.244114e-25)
(0.99996847 1.1215616e-09 0)
(0.99992188 1.5883635e-09 0)
(0.99987012 2.0457462e-09 0)
(0.99981037 2.6776922e-09 0)
(0.99974141 3.4867236e-09 0)
(0.99966248 4.5206183e-09 0)
(0.99957216 5.8653305e-09 0)
(0.99946852 7.628001e-09 0)
(0.99934915 9.9481342e-09 0)
(0.99921107 1.3016095e-08 0)
(0.99905052 1.710621e-08 0)
(0.99886244 2.2592137e-08 0)
(0.99864048 3.0093527e-08 0)
(0.99837457 4.0328415e-08 0)
(0.99805399 5.519274e-08 0)
(0.99765155 7.5374427e-08 0)
(0.9971577 1.1018679e-07 0)
(0.99645766 1.5106032e-07 0)
(0.99564236 2.6150547e-07 0)
(0.99403391 3.4574628e-07 0)
(0.99258591 8.525771e-07 0)
(0.98692899 3.5349226e-07 -4.7570835e-21)
(0.98960289 0.00012317001 7.7636735e-18)
(0.0031468245 0.00012368022 0)
(0.0012281367 6.4932084e-08 -1.031481e-20)
(0.00087564622 4.6361764e-08 3.4232766e-18)
(0.0007185449 5.3190104e-09 0)
(0.00062851972 3.2486024e-09 0)
(0.00056630542 2.2952128e-09 0)
(0.00051994498 1.7376566e-09 0)
(0.00048333431 1.3797033e-09 0)
(0.00045342692 1.1289843e-09 0)
(0.00042836346 9.457168e-10 0)
(0.00040691026 8.0720882e-10 0)
(0.00038824491 6.9902948e-10 0)
(0.00037179603 6.1236547e-10 0)
(0.00035714572 5.4165559e-10 0)
(0.00034397759 4.8310504e-10 0)
(0.000332048 4.3393028e-10 0)
(0.00032116804 3.9214843e-10 0)
(0.00031118505 3.5631546e-10 1.6515435e-25)
(0.00030197637 3.2527152e-10 0)
(0.00029344299 2.9817159e-10 0)
(0.00028550105 2.7436582e-10 0)
(0.00027808137 2.5331224e-10 0)
(0.00027112517 2.3459029e-10 0)
(0.00026458261 2.1785272e-10 0)
(0.00025841101 2.0281428e-10 0)
(0.00025257374 1.89243e-10 0)
(0.00024703888 1.7695083e-10 0)
(0.00024177844 1.6577658e-10 0)
(0.00023676796 1.5558377e-10 0)
(0.00023198578 1.4625571e-10 0)
(0.00022741286 1.3769029e-10 0)
(0.00022303237 1.2980404e-10 0)
(0.00021882912 1.2252726e-10 0)
(0.00021478946 1.1579639e-10 0)
(0.00021090118 1.0955552e-10 0)
(0.00020715323 1.037573e-10 0)
(0.00020353558 9.835867e-11 0)
(0.00020003923 9.3320294e-11 0)
(0.00019665604 8.8610514e-11 0)
(0.00019337846 8.4202384e-11 0)
(0.00019019954 8.006966e-11 0)
(0.00018711296 7.6188649e-11 0)
(0.0001841129 7.2538887e-11 0)
(0.00018119398 6.9102239e-11 0)
(0.00017835123 6.5860971e-11 0)
(0.00017558013 6.2798706e-11 0)
(0.0001728765 5.9903321e-11 0)
(0.00017023636 5.7163972e-11 0)
(0.00016765599 5.456888e-11 0)
(0.00016513194 5.210759e-11 0)
(0.000162661 4.9770964e-11 0)
(0.00016024016 4.7550741e-11 0)
(0.00015786656 4.5439305e-11 0)
(0.00015553754 4.3428081e-11 0)
(0.00015325072 4.1510589e-11 0)
(0.00015100373 3.9682882e-11 0)
(0.00014879428 3.7939344e-11 0)
(0.00014662024 3.6274195e-11 0)
(0.00014447961 3.4682965e-11 0)
(0.00014237047 3.3161428e-11 0)
(0.00014029099 3.1705719e-11 0)
(0.00013823939 3.0311727e-11 0)
(0.00013621407 2.8975396e-11 0)
(0.0001342135 2.7694221e-11 0)
(0.00013223609 2.6465968e-11 0)
(0.00013028034 2.5287543e-11 0)
(0.00012834482 2.4156223e-11 0)
(0.00012642814 2.3069685e-11 0)
(0.00012452896 2.2025779e-11 0)
(0.00012264595 2.1022486e-11 0)
(0.00012077782 2.0057252e-11 0)
(0.00011892341 1.9128294e-11 0)
(0.00011708149 1.823469e-11 0)
(0.00011525078 1.7374738e-11 0)
(0.00011343011 1.6546717e-11 0)
(0.00011161828 1.5749286e-11 0)
(0.00010981409 1.4981188e-11 0)
(0.00010801636 1.4241226e-11 0)
(0.00010622389 1.3527912e-11 0)
(0.00010443553 1.2840207e-11 0)
(0.00010265007 1.2177509e-11 0)
(0.00010086622 1.1538819e-11 0)
(9.9082726e-05 1.0923128e-11 0)
(9.729827e-05 1.0329739e-11 0)
(9.5511458e-05 9.7578785e-12 0)
(9.3720873e-05 9.2066378e-12 0)
(9.1925059e-05 8.6767536e-12 0)
(9.0121852e-05 8.1640747e-12 0)
(8.8311162e-05 7.6673737e-12 0)
(8.6531796e-05 7.2031862e-12 0)
(8.4836861e-05 6.7856246e-12 0)
(8.3237443e-05 6.4084897e-12 0)
(8.172563e-05 6.0617722e-12 0)
(8.0294552e-05 5.7435378e-12 0)
(7.893725e-05 5.4525664e-12 0)
(7.7647447e-05 5.1861619e-12 0)
(7.6419492e-05 4.9419737e-12 0)
(7.5248251e-05 4.7179553e-12 0)
(7.4129065e-05 4.5122218e-12 0)
(7.3057716e-05 4.3232134e-12 0)
(7.2030302e-05 4.149895e-12 0)
(7.1043108e-05 3.9915199e-12 0)
(7.0092595e-05 3.8478217e-12 0)
(6.9175177e-05 3.7186171e-12 0)
(6.8287408e-05 3.6058488e-12 0)
(6.7424755e-05 3.5090955e-12 0)
(6.6583989e-05 3.4402863e-12 0)
(6.5754752e-05 3.3829096e-12 0)
(6.4941952e-05 3.4298898e-12 0)
(6.4089749e-05 1.3867177e-11 0)
(6.3334584e-05 3.7434284e-12 2.5937958e-24)
(6.2257179e-05 9.3552649e-12 0)
(1 1.2647814e-09 0)
(0.99996841 3.3853578e-09 0)
(0.99992171 4.7946871e-09 0)
(0.99986983 6.175417e-09 0)
(0.99980994 8.0830041e-09 0)
(0.99974082 1.0525105e-08 0)
(0.99966171 1.3645908e-08 0)
(0.99957119 1.7704832e-08 0)
(0.99946731 2.3025234e-08 0)
(0.99934768 3.0028136e-08 0)
(0.9992093 3.9288038e-08 0)
(0.9990484 5.1632818e-08 0)
(0.99885992 6.8190074e-08 0)
(0.99863749 9.082975e-08 0)
(0.99837104 1.2171852e-07 0)
(0.99804981 1.665777e-07 0)
(0.99764659 2.2748232e-07 0)
(0.99715179 3.3253635e-07 0)
(0.99645047 4.5587665e-07 0)
(0.99563371 7.8914233e-07 0)
(0.99402254 1.043342e-06 0)
(0.99257208 2.5727153e-06 0)
(0.98690594 1.0655711e-06 1.7007285e-20)
(0.98958038 0.00037019566 -6.5517224e-21)
(0.0094514935 0.00037222019 0)
(0.0037025632 1.2080339e-06 0)
(0.0026399811 2.6475694e-07 2.149951e-22)
(0.0021663912 1.2669277e-07 0)
(0.0018949522 7.7344707e-08 0)
(0.0017073749 5.4653912e-08 0)
(0.0015675951 4.1374165e-08 0)
(0.001457214 3.2851359e-08 0)
(0.001367043 2.6881411e-08 0)
(0.0012914771 2.251764e-08 0)
(0.0012267964 1.9219518e-08 0)
(0.0011705213 1.6643672e-08 0)
(0.0011209288 1.4580326e-08 0)
(0.0010767591 1.2896874e-08 0)
(0.0010370581 1.1502692e-08 0)
(0.0010010913 1.0331744e-08 0)
(0.00096828913 9.3368618e-09 0)
(0.00093819121 8.4836221e-09 -2.4352466e-25)
(0.00091042788 7.7444319e-09 -2.9740226e-25)
(0.00088470045 7.0991734e-09 0)
(0.00086075624 6.5323484e-09 0)
(0.00083838655 6.0310565e-09 0)
(0.00081741426 5.5852861e-09 0)
(0.00079768905 5.1867655e-09 0)
(0.00077908225 4.8287047e-09 0)
(0.00076148344 4.5055788e-09 0)
(0.00074479635 4.2129077e-09 0)
(0.00072893663 3.9468555e-09 0)
(0.0007138305 3.7041714e-09 0)
(0.00069941269 3.482077e-09 0)
(0.00068562578 3.2781424e-09 0)
(0.00067241902 3.0903788e-09 0)
(0.00065974663 2.9171261e-09 0)
(0.00064756745 2.7568712e-09 0)
(0.00063584464 2.6082834e-09 0)
(0.00062454493 2.4702347e-09 0)
(0.00061363808 2.3417e-09 0)
(0.00060309693 2.2217435e-09 0)
(0.00059289694 2.1096107e-09 0)
(0.00058301533 2.0046594e-09 0)
(0.00057343119 1.9062655e-09 0)
(0.00056412544 1.8138646e-09 0)
(0.00055508055 1.7269697e-09 0)
(0.00054628031 1.6451487e-09 0)
(0.00053770969 1.5679796e-09 0)
(0.00052935507 1.4950729e-09 0)
(0.00052120391 1.4261392e-09 0)
(0.00051324414 1.3609203e-09 0)
(0.00050546454 1.2991361e-09 0)
(0.00049785478 1.2405376e-09 0)
(0.00049040514 1.1849072e-09 0)
(0.00048310653 1.1320482e-09 0)
(0.00047595035 1.0817791e-09 0)
(0.00046892857 1.0338963e-09 0)
(0.00046203403 9.8824537e-10 0)
(0.00045525959 9.4473157e-10 0)
(0.00044859829 9.0322185e-10 0)
(0.00044204377 8.635785e-10 0)
(0.00043558998 8.2569504e-10 0)
(0.00042923112 7.8947086e-10 0)
(0.00042296167 7.5481394e-10 0)
(0.00041677631 7.2162638e-10 0)
(0.00041067017 6.8981183e-10 0)
(0.00040463861 6.5931038e-10 0)
(0.00039867691 6.3006881e-10 0)
(0.0003927805 6.020136e-10 0)
(0.0003869451 5.7507986e-10 0)
(0.00038116649 5.4921232e-10 0)
(0.00037544065 5.2435979e-10 0)
(0.00036976355 5.0047409e-10 0)
(0.00036413131 4.7749459e-10 0)
(0.00035854044 4.5537883e-10 0)
(0.0003529872 4.3410463e-10 0)
(0.0003474678 4.1363167e-10 0)
(0.00034197864 3.939189e-10 0)
(0.00033651613 3.7493442e-10 0)
(0.00033107669 3.5664832e-10 0)
(0.00032565669 3.39032e-10 0)
(0.00032025254 3.2205013e-10 0)
(0.00031486081 3.0567803e-10 0)
(0.00030947781 2.8990121e-10 0)
(0.00030409968 2.7469595e-10 0)
(0.00029872261 2.6003825e-10 0)
(0.00029334264 2.4591148e-10 0)
(0.00028795556 2.322972e-10 0)
(0.00028255711 2.1917386e-10 0)
(0.0002771429 2.0655889e-10 0)
(0.0002717064 1.9435327e-10 0)
(0.00026624734 1.8252931e-10 0)
(0.00026088271 1.7147909e-10 0)
(0.00025577263 1.6153713e-10 0)
(0.00025095053 1.5255789e-10 0)
(0.00024639255 1.4430337e-10 0)
(0.00024207799 1.3672701e-10 0)
(0.00023798585 1.2979966e-10 0)
(0.00023409721 1.2345716e-10 0)
(0.00023039504 1.1764355e-10 0)
(0.00022686386 1.1231012e-10 0)
(0.00022348962 1.0741198e-10 0)
(0.0002202596 1.0291199e-10 0)
(0.00021716205 9.8785494e-11 0)
(0.00021418575 9.5014668e-11 0)
(0.00021132005 9.1593168e-11 0)
(0.00020855413 8.8516557e-11 0)
(0.00020587761 8.5831155e-11 0)
(0.00020327681 8.3526408e-11 0)
(0.000200742 8.1887619e-11 0)
(0.00019824198 8.0516792e-11 0)
(0.00019579151 8.1640952e-11 0)
(0.00019322234 7.9169784e-11 0)
(0.00019094558 8.9745238e-11 -4.0119401e-24)
(0.00018769729 5.3244849e-11 2.5615946e-25)
(1 2.1313126e-09 0)
(0.99996832 5.7051796e-09 0)
(0.9999215 8.0808279e-09 0)
(0.99986946 1.0407978e-08 0)
(0.99980939 1.3622925e-08 0)
(0.99974007 1.7738652e-08 0)
(0.99966073 2.2998107e-08 0)
(0.99956994 2.9838423e-08 0)
(0.99946577 3.8804471e-08 0)
(0.9993458 5.0605666e-08 0)
(0.99920703 6.6210005e-08 0)
(0.99904569 8.7012385e-08 0)
(0.9988567 1.1491264e-07 0)
(0.99863368 1.5306131e-07 0)
(0.99836653 2.0510865e-07 0)
(0.99804448 2.806939e-07 0)
(0.99764026 3.8331156e-07 0)
(0.99714426 5.6031031e-07 0)
(0.99644129 7.6811029e-07 0)
(0.99562267 1.3295604e-06 0)
(0.99400806 1.7578171e-06 0)
(0.99255448 4.3343669e-06 0)
(0.98687666 1.796829e-06 -9.010691e-21)
(0.98955178 0.00062096257 5.3752715e-55)
(0.01585976 0.00062557174 -5.3744146e-55)
(0.0062320044 3.4284549e-06 0)
(0.0044436485 7.7043411e-07 -1.1156809e-22)
(0.0036465696 3.7098912e-07 0)
(0.0031896499 2.2649766e-07 0)
(0.0028739064 1.6004875e-07 0)
(0.002638617 1.2115966e-07 0)
(0.0024528166 9.6200759e-08 0)
(0.0023010355 7.8718459e-08 0)
(0.0021738389 6.593944e-08 0)
(0.0020649654 5.6281135e-08 0)
(0.0019702409 4.8738029e-08 0)
(0.0018867653 4.2695783e-08 0)
(0.0018124174 3.7766029e-08 0)
(0.0017455916 3.368338e-08 0)
(0.0016850514 3.0254452e-08 0)
(0.001629838 2.7341123e-08 0)
(0.0015791764 2.4842552e-08 0)
(0.0015324446 2.2677966e-08 0)
(0.0014891397 2.0788463e-08 0)
(0.0014488363 1.9128622e-08 0)
(0.0014111832 1.7660687e-08 0)
(0.0013758822 1.6355337e-08 0)
(0.0013426804 1.518835e-08 0)
(0.0013113611 1.4139842e-08 0)
(0.0012817384 1.3193634e-08 0)
(0.0012536504 1.2336608e-08 0)
(0.001226955 1.1557529e-08 0)
(0.0012015281 1.0846879e-08 0)
(0.0011772598 1.0196522e-08 0)
(0.0011540534 9.5993424e-09 0)
(0.0011318236 9.0495168e-09 0)
(0.0011104932 8.5421827e-09 0)
(0.001089993 8.0729101e-09 0)
(0.0010702609 7.6378023e-09 0)
(0.001051241 7.2335561e-09 0)
(0.0010328824 6.8571692e-09 0)
(0.0010151394 6.5059026e-09 0)
(0.00099797057 6.1775456e-09 0)
(0.00098133767 5.8702181e-09 0)
(0.00096520546 5.5820925e-09 0)
(0.00094954186 5.3115164e-09 0)
(0.00093431734 5.0570632e-09 0)
(0.00091950461 4.8174678e-09 0)
(0.00090507837 4.5914945e-09 0)
(0.00089101573 4.378003e-09 0)
(0.00087729553 4.1761455e-09 0)
(0.00086389749 3.9851659e-09 0)
(0.00085080273 3.8042441e-09 0)
(0.00083799383 3.632651e-09 0)
(0.00082545445 3.4697491e-09 0)
(0.00081316929 3.314963e-09 0)
(0.00080112387 3.1677607e-09 0)
(0.00078930467 3.0275461e-09 0)
(0.00077769964 2.8938672e-09 0)
(0.00076629677 2.7664463e-09 0)
(0.00075508434 2.6448939e-09 0)
(0.00074405164 2.5288069e-09 0)
(0.00073318849 2.4178732e-09 0)
(0.00072248512 2.3117984e-09 0)
(0.00071193226 2.210313e-09 0)
(0.00070152094 2.1131303e-09 0)
(0.00069124295 2.0199682e-09 0)
(0.00068109052 1.9306512e-09 0)
(0.00067105566 1.8450235e-09 0)
(0.0006611307 1.7628698e-09 0)
(0.00065130843 1.6840001e-09 0)
(0.00064158176 1.6082524e-09 0)
(0.0006319439 1.5354771e-09 0)
(0.00062238808 1.4655329e-09 0)
(0.00061290778 1.3982423e-09 0)
(0.00060349711 1.333481e-09 0)
(0.00059414978 1.271184e-09 0)
(0.0005848594 1.2112333e-09 0)
(0.00057561993 1.1535086e-09 0)
(0.00056642531 1.0979166e-09 0)
(0.00055726953 1.0443696e-09 0)
(0.00054814648 9.9278393e-10 0)
(0.00053905009 9.4305611e-10 0)
(0.00052997461 8.9511387e-10 0)
(0.00052091383 8.4891478e-10 0)
(0.00051186124 8.0438937e-10 0)
(0.00050281043 7.614674e-10 0)
(0.00049375475 7.2010011e-10 0)
(0.00048468711 6.8023355e-10 0)
(0.00047560032 6.4180459e-10 0)
(0.000466487 6.0486427e-10 0)
(0.00045733616 5.6912263e-10 0)
(0.00044814734 5.3449903e-10 0)
(0.00043911746 5.0214107e-10 0)
(0.00043051606 4.730278e-10 0)
(0.00042239939 4.467337e-10 0)
(0.0004147273 4.2256204e-10 0)
(0.00040746492 4.0037634e-10 0)
(0.00040057693 3.8009102e-10 0)
(0.00039403149 3.6151834e-10 0)
(0.00038779991 3.444944e-10 0)
(0.00038185615 3.2887652e-10 0)
(0.00037617654 3.1453329e-10 0)
(0.00037073971 3.0135593e-10 0)
(0.00036552583 2.8927225e-10 0)
(0.00036051607 2.7823003e-10 0)
(0.00035569246 2.6821069e-10 0)
(0.00035103681 2.5920121e-10 0)
(0.00034653164 2.513372e-10 0)
(0.00034215394 2.4458769e-10 0)
(0.00033788733 2.3978804e-10 0)
(0.00033367929 2.3577274e-10 0)
(0.00032955465 2.3906237e-10 0)
(0.00032523039 2.3038533e-10 0)
(0.00032139807 2.6291132e-10 0)
(0.00031593047 1.547772e-10 0)
(1 3.0322651e-09 8.757282e-25)
(0.99996822 8.1177834e-09 0)
(0.99992123 1.1499049e-08 0)
(0.999869 1.4810783e-08 0)
(0.99980871 1.9385584e-08 0)
(0.99973914 2.5242072e-08 0)
(0.99965951 3.2725851e-08 0)
(0.9995684 4.2458819e-08 0)
(0.99946386 5.5216141e-08 0)
(0.99934347 7.2007037e-08 0)
(0.99920422 9.4208536e-08 0)
(0.99904233 1.2380491e-07 0)
(0.99885271 1.6349861e-07 0)
(0.99862896 2.1777114e-07 0)
(0.99836095 2.9181435e-07 0)
(0.99803789 3.9933925e-07 0)
(0.99763242 5.4531375e-07 0)
(0.99713494 7.9708602e-07 0)
(0.99642994 1.092657e-06 0)
(0.99560904 1.8912117e-06 0)
(0.99399018 2.5003357e-06 0)
(0.99253276 6.1650039e-06 0)
(0.98684059 2.5581848e-06 0)
(0.98951653 0.00087917673 -2.8043466e-55)
(0.022464023 0.00088758454 2.8039021e-55)
(0.0088541296 7.076398e-06 0)
(0.0063135202 1.5912283e-06 0)
(0.0051811379 7.6506113e-07 0)
(0.0045319056 4.671114e-07 0)
(0.0040832826 3.3007029e-07 0)
(0.0037489695 2.4986817e-07 0)
(0.0034849771 1.98394e-07 0)
(0.0032693212 1.6234015e-07 0)
(0.0030885963 1.3598568e-07 0)
(0.0029339061 1.1606713e-07 0)
(0.0027993199 1.0051091e-07 0)
(0.0026807164 8.8050017e-08 0)
(0.002575082 7.7883448e-08 0)
(0.0024801353 6.9463875e-08 0)
(0.0023941191 6.2392475e-08 0)
(0.0023156715 5.6384418e-08 0)
(0.0022436912 5.1231674e-08 0)
(0.0021772946 4.6767716e-08 0)
(0.0021157667 4.2871087e-08 0)
(0.0020585034 3.9448055e-08 0)
(0.0020050058 3.6420794e-08 0)
(0.00195485 3.3728826e-08 0)
(0.0019076767 3.1322199e-08 0)
(0.0018631782 2.9159908e-08 0)
(0.0018210902 2.7208588e-08 0)
(0.0017811827 2.5441182e-08 0)
(0.0017432538 2.3834524e-08 0)
(0.0017071272 2.2368985e-08 0)
(0.0016726467 2.1027784e-08 0)
(0.001639675 1.979625e-08 0)
(0.0016080908 1.8662372e-08 0)
(0.0015777845 1.7616121e-08 0)
(0.0015486577 1.6648364e-08 0)
(0.0015206224 1.5751062e-08 0)
(0.0014935988 1.4917405e-08 0)
(0.0014675149 1.4141201e-08 0)
(0.0014423055 1.3416802e-08 0)
(0.001417912 1.2739648e-08 0)
(0.0013942799 1.2105861e-08 0)
(0.0013713592 1.1511675e-08 0)
(0.0013491042 1.0953679e-08 0)
(0.0013274732 1.0428933e-08 0)
(0.0013064272 9.9348271e-09 0)
(0.0012859303 9.4688136e-09 0)
(0.0012659501 9.028541e-09 0)
(0.0012464563 8.6122607e-09 0)
(0.0012274203 8.2184129e-09 0)
(0.0012088152 7.8453069e-09 0)
(0.0011906163 7.491439e-09 0)
(0.0011728003 7.1554945e-09 0)
(0.0011553454 6.8362869e-09 0)
(0.0011382312 6.5327188e-09 0)
(0.0011214385 6.2435614e-09 0)
(0.00110495 5.9678822e-09 0)
(0.0010887487 5.7051084e-09 0)
(0.001072818 5.454437e-09 0)
(0.0010571427 5.2150364e-09 0)
(0.0010417082 4.9862634e-09 0)
(0.0010265008 4.7675106e-09 0)
(0.0010115073 4.5582222e-09 0)
(0.00099671478 4.3578071e-09 0)
(0.00098211175 4.1656836e-09 0)
(0.0009676871 3.9814897e-09 0)
(0.00095342951 3.8049038e-09 0)
(0.00093932805 3.6354822e-09 0)
(0.00092537249 3.472833e-09 0)
(0.00091155277 3.3166224e-09 0)
(0.00089785923 3.1665413e-09 0)
(0.00088428225 3.0222987e-09 0)
(0.00087081257 2.8835287e-09 0)
(0.00085744181 2.7499747e-09 0)
(0.00084416106 2.6215026e-09 0)
(0.0008309612 2.4978691e-09 0)
(0.00081783369 2.3788263e-09 0)
(0.0008047699 2.2641815e-09 0)
(0.00079176129 2.1537542e-09 0)
(0.00077879918 2.0473715e-09 0)
(0.00076587496 1.9448202e-09 0)
(0.00075298044 1.8459512e-09 0)
(0.00074010679 1.750677e-09 0)
(0.0007272448 1.6588544e-09 0)
(0.00071438533 1.5703385e-09 0)
(0.00070151893 1.4850287e-09 0)
(0.00068863554 1.4028137e-09 0)
(0.00067572495 1.3235635e-09 0)
(0.00066277666 1.2473832e-09 0)
(0.00064977506 1.1736749e-09 0)
(0.0006367195 1.1022728e-09 0)
(0.00062388974 1.0355429e-09 0)
(0.00061166877 9.7550354e-10 0)
(0.00060013653 9.2127805e-10 0)
(0.00058923594 8.7143017e-10 0)
(0.00057891748 8.2567748e-10 0)
(0.00056913095 7.8384405e-10 0)
(0.00055983111 7.4554248e-10 0)
(0.00055097721 7.1043478e-10 0)
(0.00054253223 6.7822671e-10 0)
(0.00053446259 6.4864724e-10 0)
(0.00052673787 6.2147209e-10 0)
(0.00051932993 5.9655231e-10 0)
(0.000512212 5.7378023e-10 0)
(0.00050535857 5.5311749e-10 0)
(0.00049874379 5.3453722e-10 0)
(0.0004923428 5.1831902e-10 0)
(0.00048612294 5.0439897e-10 0)
(0.00048006094 4.9449946e-10 0)
(0.00047408219 4.8621741e-10 0)
(0.00046822192 4.9299669e-10 0)
(0.00046207827 4.7584521e-10 0)
(0.00045663324 5.4230628e-10 0)
(0.00044886478 3.1950894e-10 0)
(1 3.9818256e-09 0)
(0.9999681 1.0661316e-08 0)
(0.99992091 1.5103604e-08 0)
(0.99986845 1.9453752e-08 0)
(0.99980789 2.5462472e-08 0)
(0.99973801 3.3154445e-08 0)
(0.99965803 4.2983439e-08 0)
(0.99956653 5.5766065e-08 0)
(0.99946154 7.2520189e-08 0)
(0.99934064 9.4570944e-08 0)
(0.99920081 1.2372634e-07 0)
(0.99903826 1.625916e-07 0)
(0.99884787 2.1471469e-07 0)
(0.99862323 2.8597926e-07 0)
(0.99835418 3.8320072e-07 0)
(0.99802989 5.2437921e-07 0)
(0.99762292 7.1603247e-07 0)
(0.99712365 1.0465746e-06 0)
(0.9964162 1.4345955e-06 0)
(0.99559252 2.482861e-06 0)
(0.99396853 3.2824728e-06 0)
(0.99250648 8.0931265e-06 0)
(0.986797 3.361893e-06 0)
(0.98947391 0.0011484912 0)
(0.029357763 0.0011619958 0)
(0.011607982 1.2301752e-05 0)
(0.0082774538 2.7600799e-06 0)
(0.0067929667 1.3266768e-06 0)
(0.0059417218 8.1005299e-07 0)
(0.0053535252 5.7239532e-07 0)
(0.0049151982 4.3331099e-07 0)
(0.0045690756 3.4404443e-07 0)
(0.0042863282 2.8152124e-07 0)
(0.0040493794 2.3581811e-07 0)
(0.003846566 2.0127589e-07 0)
(0.0036701114 1.742989e-07 0)
(0.003514612 1.5268985e-07 0)
(0.0033761166 1.3505956e-07 0)
(0.0032516336 1.2045885e-07 0)
(0.0031388596 1.0819608e-07 0)
(0.0030360087 9.7777356e-08 0)
(0.0029416368 8.8841797e-08 0)
(0.0028545858 8.1100719e-08 0)
(0.002773918 7.4343524e-08 0)
(0.0026988415 6.8407554e-08 0)
(0.002628702 6.3157916e-08 0)
(0.002562944 5.848972e-08 0)
(0.0025010963 5.4316341e-08 0)
(0.0024427553 5.0566674e-08 0)
(0.0023875749 4.7182856e-08 0)
(0.0023352531 4.4117967e-08 0)
(0.0022855255 4.1331835e-08 0)
(0.0022381607 3.8790418e-08 0)
(0.0021929542 3.646462e-08 0)
(0.0021497258 3.4328998e-08 0)
(0.0021083165 3.2362722e-08 0)
(0.0020685826 3.0548403e-08 0)
(0.0020303952 2.88702e-08 0)
(0.0019936387 2.7314175e-08 0)
(0.0019582088 2.5868518e-08 0)
(0.0019240107 2.452249e-08 0)
(0.0018909593 2.3266299e-08 0)
(0.0018589775 2.2092036e-08 0)
(0.001827994 2.0992978e-08 0)
(0.0017979432 1.996259e-08 0)
(0.0017687653 1.8994961e-08 0)
(0.0017404053 1.8084991e-08 0)
(0.0017128124 1.7228154e-08 0)
(0.0016859394 1.6420033e-08 0)
(0.0016597437 1.565655e-08 0)
(0.0016341859 1.4934672e-08 0)
(0.0016092282 1.4251695e-08 0)
(0.0015848354 1.3604686e-08 0)
(0.0015609752 1.2991038e-08 0)
(0.001537617 1.2408471e-08 0)
(0.0015147323 1.1854928e-08 0)
(0.0014922943 1.1328506e-08 0)
(0.0014702776 1.0827073e-08 0)
(0.0014486599 1.0349014e-08 0)
(0.0014274187 9.8933337e-09 0)
(0.0014065323 9.4586402e-09 0)
(0.0013859807 9.0434917e-09 0)
(0.0013657449 8.6467727e-09 0)
(0.0013458068 8.2674298e-09 0)
(0.001326149 7.9044993e-09 0)
(0.0013067549 7.556956e-09 0)
(0.0012876091 7.2237914e-09 0)
(0.0012686972 6.9043777e-09 0)
(0.0012500044 6.598157e-09 0)
(0.0012315162 6.3043601e-09 0)
(0.0012132193 6.0223073e-09 0)
(0.0011951006 5.7514197e-09 0)
(0.0011771472 5.4911614e-09 0)
(0.0011593467 5.2410277e-09 0)
(0.0011416868 5.0003841e-09 0)
(0.0011241567 4.7687859e-09 0)
(0.0011067445 4.546e-09 0)
(0.0010894384 4.3316049e-09 0)
(0.0010722272 4.1251706e-09 0)
(0.0010550994 3.9263629e-09 0)
(0.0010380441 3.7348687e-09 0)
(0.0010210497 3.5503885e-09 0)
(0.001004105 3.3725525e-09 0)
(0.00098719918 3.2011019e-09 0)
(0.00097032075 3.0358851e-09 0)
(0.00095345761 2.8766537e-09 0)
(0.00093659777 2.7231565e-09 0)
(0.00091972885 2.5752191e-09 0)
(0.00090283765 2.4326486e-09 0)
(0.00088591078 2.2952192e-09 0)
(0.00086893448 2.1631133e-09 0)
(0.00085188829 2.0352943e-09 0)
(0.00083477134 1.9114756e-09 0)
(0.00081795043 1.7957586e-09 0)
(0.00080192767 1.6916424e-09 0)
(0.00078680792 1.5976083e-09 0)
(0.00077251632 1.5111661e-09 0)
(0.00075898792 1.4318256e-09 0)
(0.00074615693 1.3592815e-09 0)
(0.00073396404 1.292862e-09 0)
(0.0007223558 1.2319811e-09 0)
(0.0007112837 1.1761284e-09 0)
(0.00070070369 1.1248339e-09 0)
(0.0006905759 1.0777087e-09 0)
(0.00068086345 1.0344946e-09 0)
(0.00067153122 9.950047e-10 0)
(0.00066254577 9.5917251e-10 0)
(0.00065387322 9.269514e-10 0)
(0.00064548098 8.9882604e-10 0)
(0.00063732624 8.7468563e-10 0)
(0.00062937847 8.575161e-10 0)
(0.00062153992 8.4315203e-10 0)
(0.00061385668 8.5489815e-10 0)
(0.00060580224 8.2542094e-10 0)
(0.0005986633 9.4054248e-10 -5.1682743e-24)
(0.00058847813 5.5406699e-10 3.3001525e-25)
(1 4.9952095e-09 0)
(0.99996796 1.3376783e-08 0)
(0.99992052 1.8952893e-08 0)
(0.99986778 2.4412165e-08 0)
(0.9998069 3.1952081e-08 0)
(0.99973666 4.1603944e-08 0)
(0.99965626 5.3936915e-08 0)
(0.99956429 6.9975389e-08 0)
(0.99945876 9.0996209e-08 0)
(0.99933725 1.1866158e-07 0)
(0.99919673 1.5523928e-07 0)
(0.99903338 2.0399695e-07 0)
(0.99884208 2.6938443e-07 0)
(0.99861638 3.5878081e-07 0)
(0.99834609 4.807328e-07 0)
(0.99802033 6.5781484e-07 0)
(0.99761156 8.9819476e-07 0)
(0.99711014 1.3127521e-06 0)
(0.99639977 1.7993642e-06 0)
(0.99557278 3.113884e-06 0)
(0.99394267 4.116609e-06 0)
(0.99247507 1.0149186e-05 0)
(0.986745 4.2212789e-06 0)
(0.98942306 0.0014326066 0)
(0.036636652 0.0014527931 0)
(0.014534558 1.9282344e-05 0)
(0.010364708 4.3451551e-06 0)
(0.0085060806 2.0887093e-06 0)
(0.0074401092 1.2754184e-06 0)
(0.006703564 9.0122132e-07 0)
(0.0061546818 6.8223561e-07 0)
(0.0057212663 5.4168439e-07 0)
(0.0053672105 4.4324326e-07 0)
(0.0050705045 3.7128457e-07 0)
(0.0048165439 3.168984e-07 0)
(0.0045955904 2.7442383e-07 0)
(0.0044008772 2.404012e-07 0)
(0.0042274564 2.1264309e-07 0)
(0.0040715819 1.8965494e-07 0)
(0.0039303693 1.7034784e-07 0)
(0.0038015821 1.5394417e-07 0)
(0.0036834122 1.3987558e-07 6.5338914e-25)
(0.0035744097 1.2768769e-07 0)
(0.0034733997 1.1704897e-07 -6.7412885e-35)
(0.0033793912 1.0770314e-07 0)
(0.0032915646 9.9437916e-08 0)
(0.0032092244 9.2088142e-08 0)
(0.0031317805 8.551743e-08 0)
(0.0030587277 7.9613827e-08 0)
(0.0029896324 7.4286234e-08 0)
(0.0029241166 6.9460772e-08 0)
(0.0028618492 6.5074195e-08 0)
(0.0028025404 6.1072906e-08 0)
(0.0027459342 5.7411094e-08 0)
(0.0026918049 5.4048703e-08 0)
(0.0026399533 5.0952938e-08 0)
(0.0025901997 4.8096417e-08 0)
(0.0025423826 4.54542e-08 0)
(0.0024963571 4.3004347e-08 0)
(0.0024519929 4.0728258e-08 0)
(0.002409171 3.860903e-08 0)
(0.0023677849 3.6631243e-08 0)
(0.0023277382 3.4782448e-08 0)
(0.0022889415 3.3052057e-08 0)
(0.0022513127 3.142978e-08 0)
(0.002214777 2.9906315e-08 0)
(0.0021792653 2.8473629e-08 0)
(0.0021447142 2.7124598e-08 0)
(0.0021110646 2.5852267e-08 0)
(0.002078263 2.4650215e-08 0)
(0.0020462602 2.3513668e-08 0)
(0.0020150089 2.2438366e-08 0)
(0.0019844649 2.1419694e-08 0)
(0.0019545877 2.0453547e-08 0)
(0.0019253391 1.9536335e-08 0)
(0.0018966836 1.8664819e-08 0)
(0.0018685872 1.7836002e-08 0)
(0.0018410185 1.7046531e-08 0)
(0.0018139492 1.6293859e-08 0)
(0.0017873516 1.5576421e-08 0)
(0.0017611982 1.4892024e-08 0)
(0.0017354639 1.4238401e-08 0)
(0.0017101252 1.3613793e-08 0)
(0.0016851591 1.3016543e-08 0)
(0.0016605441 1.2445132e-08 0)
(0.0016362592 1.1897948e-08 0)
(0.0016122853 1.1373403e-08 0)
(0.0015886043 1.0870507e-08 0)
(0.0015651976 1.0388383e-08 0)
(0.0015420471 9.9258187e-09 0)
(0.0015191362 9.481745e-09 0)
(0.0014964482 9.05525e-09 0)
(0.0014739674 8.6454903e-09 0)
(0.001451678 8.2516708e-09 0)
(0.0014295647 7.8727931e-09 0)
(0.0014076138 7.5081568e-09 0)
(0.0013858107 7.1573948e-09 0)
(0.0013641404 6.8198434e-09 0)
(0.0013425888 6.4948257e-09 0)
(0.0013211419 6.1818158e-09 0)
(0.0012997855 5.8803204e-09 0)
(0.0012785055 5.589868e-09 0)
(0.0012572876 5.3098765e-09 0)
(0.0012361185 5.0399385e-09 0)
(0.0012149837 4.7798151e-09 0)
(0.001193868 4.5291154e-09 0)
(0.0011727565 4.2874437e-09 0)
(0.0011516335 4.0545255e-09 0)
(0.0011304827 3.8300571e-09 0)
(0.0011092872 3.6136833e-09 0)
(0.0010880298 3.4056905e-09 0)
(0.0010666849 3.2044477e-09 0)
(0.0010452513 3.0095044e-09 0)
(0.0010241885 2.8273163e-09 0)
(0.001004125 2.6633908e-09 0)
(0.00098519235 2.515339e-09 0)
(0.00096729665 2.379241e-09 0)
(0.00095035662 2.2543249e-09 0)
(0.00093428986 2.1401089e-09 0)
(0.00091902211 2.0355358e-09 0)
(0.00090448645 1.9396825e-09 0)
(0.00089062212 1.8517458e-09 0)
(0.00087737398 1.7709857e-09 0)
(0.0008646921 1.6967899e-09 0)
(0.0008525303 1.6287515e-09 0)
(0.00084084462 1.5665766e-09 0)
(0.00082959318 1.5101602e-09 0)
(0.00081873354 1.4594289e-09 0)
(0.00080822492 1.4151456e-09 0)
(0.00079801371 1.3771359e-09 0)
(0.00078806169 1.3500991e-09 0)
(0.00077824651 1.3274811e-09 0)
(0.00076862577 1.3459564e-09 0)
(0.0007585407 1.2995254e-09 0)
(0.00074960137 1.4809458e-09 0)
(0.0007368476 8.72156e-10 -1.883534e-25)
(1 6.0889274e-09 0)
(0.99996779 1.6308773e-08 0)
(0.99992006 2.3110509e-08 0)
(0.99986699 2.9768019e-08 0)
(0.99980573 3.8961673e-08 0)
(0.99973505 5.0730139e-08 0)
(0.99965416 6.5767059e-08 0)
(0.99956163 8.5321054e-08 0)
(0.99945547 1.1094844e-07 0)
(0.99933324 1.446751e-07 0)
(0.99919189 1.8926484e-07 0)
(0.9990276 2.4869987e-07 0)
(0.99883522 3.284027e-07 0)
(0.99860826 4.3736539e-07 0)
(0.99833649 5.8600119e-07 0)
(0.99800899 8.0181762e-07 0)
(0.9975981 1.0947583e-06 0)
(0.99709414 1.5999281e-06 0)
(0.9963803 2.1928541e-06 0)
(0.9955494 3.7944259e-06 0)
(0.99391206 5.0161415e-06 0)
(0.99243792 1.2366095e-05 0)
(0.98668353 5.1509003e-06 0)
(0.989363 0.0017353302 0)
(0.044399599 0.0017641206 0)
(0.017677415 2.84816e-05 0)
(0.012606377 6.4422397e-06 0)
(0.010346016 3.0969999e-06 0)
(0.0090493999 1.8912321e-06 0)
(0.0081535189 1.336347e-06 0)
(0.0074858911 1.0116297e-06 0)
(0.0069587187 8.0321249e-07 0)
(0.0065280745 6.5724212e-07 0)
(0.0061671868 5.5054003e-07 0)
(0.0058582926 4.6989466e-07 0)
(0.0055895465 4.0691262e-07 0)
(0.0053527173 3.5646362e-07 0)
(0.0051417862 3.1530386e-07 0)
(0.0049521971 2.8121709e-07 0)
(0.0047804412 2.5258863e-07 0)
(0.0046237986 2.2826552e-07 0)
(0.0044800695 2.0740469e-07 0)
(0.004347491 1.8933263e-07 0)
(0.0042246335 1.7355782e-07 7.2718503e-35)
(0.004110292 1.5969994e-07 0)
(0.0040034695 1.4744443e-07 0)
(0.0039033201 1.3654632e-07 0)
(0.003809126 1.2680341e-07 0)
(0.0037202726 1.1804967e-07 0)
(0.0036362328 1.1015003e-07 0)
(0.0035565467 1.0299494e-07 0)
(0.0034808115 9.6490624e-08 0)
(0.0034086749 9.0557602e-08 0)
(0.0033398253 8.5127949e-08 0)
(0.0032739884 8.0142275e-08 0)
(0.0032109218 7.5551947e-08 0)
(0.0031504071 7.1316364e-08 0)
(0.0030922475 6.7398546e-08 0)
(0.0030362672 6.376596e-08 0)
(0.0029823073 6.0391027e-08 0)
(0.0029302235 5.7248685e-08 0)
(0.0028798859 5.4316069e-08 0)
(0.0028311775 5.1574719e-08 0)
(0.0027839894 4.9008934e-08 0)
(0.0027382218 4.6603459e-08 0)
(0.0026937836 4.43445e-08 0)
(0.0026505911 4.2220145e-08 0)
(0.0026085668 4.0219833e-08 0)
(0.002567639 3.8333248e-08 0)
(0.0025277427 3.6550873e-08 0)
(0.0024888179 3.4865627e-08 0)
(0.0024508071 3.3271193e-08 0)
(0.0024136566 3.1760728e-08 0)
(0.0023773172 3.0328147e-08 0)
(0.0023417423 2.8968124e-08 0)
(0.0023068887 2.7675858e-08 0)
(0.0022727152 2.6446906e-08 0)
(0.0022391835 2.5276295e-08 0)
(0.0022062593 2.4160249e-08 0)
(0.0021739087 2.3096447e-08 0)
(0.0021420984 2.2081638e-08 0)
(0.002110798 2.1112458e-08 0)
(0.0020799785 2.0186302e-08 0)
(0.0020496124 1.9300712e-08 0)
(0.0020196732 1.8453436e-08 0)
(0.0019901356 1.7642082e-08 0)
(0.0019609762 1.6864296e-08 0)
(0.0019321731 1.6118612e-08 0)
(0.0019037035 1.5403727e-08 0)
(0.0018755456 1.4717846e-08 0)
(0.0018476791 1.4059382e-08 0)
(0.0018200838 1.3426983e-08 0)
(0.0017927404 1.2819399e-08 0)
(0.0017656298 1.223545e-08 0)
(0.0017387335 1.1673657e-08 0)
(0.0017120346 1.1132981e-08 0)
(0.0016855155 1.0612878e-08 0)
(0.0016591579 1.0112362e-08 0)
(0.0016329447 9.6304317e-09 0)
(0.0016068588 9.1663059e-09 0)
(0.001580883 8.7192537e-09 0)
(0.0015550001 8.2885758e-09 0)
(0.0015291929 7.8734091e-09 0)
(0.0015034449 7.4731497e-09 0)
(0.0014777386 7.087443e-09 0)
(0.0014520556 6.7157094e-09 0)
(0.0014263775 6.3573626e-09 0)
(0.0014006857 6.0119952e-09 0)
(0.0013749599 5.6791571e-09 0)
(0.0013491798 5.3583214e-09 0)
(0.0013233243 5.0499127e-09 0)
(0.0012973625 4.7515132e-09 0)
(0.0012712928 4.4624568e-09 0)
(0.0012456739 4.1923127e-09 0)
(0.0012212707 3.9492452e-09 0)
(0.0011982428 3.7297148e-09 0)
(0.0011764762 3.5279111e-09 0)
(0.0011558719 3.3426879e-09 0)
(0.0011363298 3.1733306e-09 0)