/*--------------------------------*- C++ -*----------------------------------*\
| =========                 |                                                 |
| \\      /  F ield         | OpenFOAM: The Open Source CFD Toolbox           |
|  \\    /   O peration     | Version:  2206                                  |
|   \\  /    A nd           | Website:  www.openfoam.com                      |
|    \\/     M anipulation  |                                                 |
\*---------------------------------------------------------------------------*/
FoamFile
{
    version     2.0;
    format      ascii;
    arch        "LSB;label=32;scalar=64";
    class       volScalarField;
    location    "1300";
    object      k;
}
// * * * * * * * * * * * * * * * * * * * * * * * * * * * * * * * * * * * * * //

dimensions      [0 2 -2 0 0 0 0];

internalField   nonuniform List<scalar> 
13056
(
9.4934763e-05
7.7095108e-05
7.5966478e-05
7.5929991e-05
7.5979929e-05
7.5997689e-05
7.6002558e-05
7.6005074e-05
7.6007716e-05
7.6011018e-05
7.6015209e-05
7.6020506e-05
7.6027175e-05
7.6035575e-05
7.6046187e-05
7.6059731e-05
7.6077289e-05
7.6100171e-05
7.6133945e-05
7.616716e-05
7.6301498e-05
7.6091205e-05
7.7815662e-05
2.0923094e-05
3.1311565e-07
4.8634899e-08
2.4661769e-08
1.6640153e-08
1.2718024e-08
1.0329339e-08
8.7150594e-09
7.5363471e-09
6.635652e-09
5.9250972e-09
5.3491247e-09
4.8719458e-09
4.4698225e-09
4.1262073e-09
3.8290634e-09
3.5694341e-09
3.3405855e-09
3.1372377e-09
2.9553135e-09
2.791568e-09
2.643358e-09
2.5085423e-09
2.385353e-09
2.272322e-09
2.1682204e-09
2.0720129e-09
1.9828166e-09
1.899875e-09
1.8225378e-09
1.7502422e-09
1.6825006e-09
1.618888e-09
1.5590295e-09
1.5025941e-09
1.4492902e-09
1.3988588e-09
1.3510693e-09
1.3057173e-09
1.2626213e-09
1.2216174e-09
1.1825564e-09
1.145305e-09
1.1097438e-09
1.075766e-09
1.0432749e-09
1.0121842e-09
9.8241859e-10
9.5391166e-10
9.2660441e-10
9.0044584e-10
8.7539169e-10
8.5140485e-10
8.2845557e-10
8.0652498e-10
7.8561163e-10
7.6572171e-10
7.4686973e-10
7.2908103e-10
7.1238959e-10
6.968431e-10
6.8251846e-10
6.6952277e-10
6.5799304e-10
6.4814008e-10
6.4031329e-10
6.345202e-10
6.3206326e-10
6.3232752e-10
6.3654194e-10
6.4512105e-10
6.5888057e-10
6.7858362e-10
7.0466448e-10
7.3712654e-10
7.7620971e-10
8.2126127e-10
8.6924209e-10
9.154327e-10
9.5688567e-10
9.8909726e-10
1.0147134e-09
1.0334513e-09
1.0472216e-09
1.0571715e-09
1.0641244e-09
1.0686188e-09
1.0710338e-09
1.0716589e-09
1.0705111e-09
1.0676255e-09
1.0632347e-09
1.0575426e-09
1.0507914e-09
1.0432755e-09
1.0351831e-09
1.0266771e-09
1.0179644e-09
1.0091757e-09
1.0003631e-09
9.9158502e-10
9.8292934e-10
9.7443266e-10
9.6609037e-10
9.57884e-10
9.4981974e-10
9.4189405e-10
9.3413658e-10
9.2618944e-10
9.1863837e-10
9.0929865e-10
9.017505e-10
8.9083008e-10
9.4930443e-05
7.7087308e-05
7.5958567e-05
7.5922015e-05
7.5971942e-05
7.5989702e-05
7.599457e-05
7.5997086e-05
7.5999728e-05
7.600303e-05
7.6007221e-05
7.6012518e-05
7.6019187e-05
7.6027587e-05
7.6038199e-05
7.6051744e-05
7.6069303e-05
7.6092185e-05
7.6125959e-05
7.6159173e-05
7.6293514e-05
7.6083191e-05
7.7807691e-05
2.0925378e-05
4.8177823e-08
7.4688001e-09
3.7872734e-09
2.5554042e-09
1.9530888e-09
1.5862624e-09
1.33836e-09
1.157347e-09
1.0190286e-09
9.0990982e-10
8.2145854e-10
7.4817886e-10
6.8642541e-10
6.3365702e-10
5.8802518e-10
5.4815441e-10
5.1301059e-10
4.8178287e-10
4.5384514e-10
4.286991e-10
4.0593881e-10
3.8523547e-10
3.6631761e-10
3.4895972e-10
3.3297311e-10
3.1819879e-10
3.0450117e-10
2.9176405e-10
2.7988759e-10
2.6878535e-10
2.5838241e-10
2.4861357e-10
2.3942128e-10
2.3075479e-10
2.2256922e-10
2.148248e-10
2.0748612e-10
2.0052178e-10
1.939039e-10
1.8760733e-10
1.8160917e-10
1.7588892e-10
1.7042826e-10
1.6521077e-10
1.602216e-10
1.5544743e-10
1.5087664e-10
1.4649923e-10
1.4230655e-10
1.3829042e-10
1.3444403e-10
1.3076171e-10
1.2723891e-10
1.2387276e-10
1.2066304e-10
1.1761065e-10
1.1471747e-10
1.1198674e-10
1.0942697e-10
1.0704418e-10
1.0484992e-10
1.0286087e-10
1.0109832e-10
9.9594882e-11
9.8403985e-11
9.7523528e-11
9.7153526e-11
9.721756e-11
9.7893792e-11
9.9247107e-11
1.0140399e-10
1.0448254e-10
1.0854944e-10
1.1360374e-10
1.1967841e-10
1.2666471e-10
1.3408595e-10
1.4121435e-10
1.4760369e-10
1.5256722e-10
1.5651679e-10
1.5940989e-10
1.6154099e-10
1.6308602e-10
1.6417035e-10
1.6487559e-10
1.6525943e-10
1.6536597e-10
1.6519752e-10
1.6475919e-10
1.6408678e-10
1.6321199e-10
1.621726e-10
1.6101427e-10
1.597663e-10
1.5845406e-10
1.5710956e-10
1.5575306e-10
1.5439269e-10
1.5303756e-10
1.517012e-10
1.503893e-10
1.4910119e-10
1.4783406e-10
1.4658887e-10
1.4536509e-10
1.4416722e-10
1.4294044e-10
1.4177433e-10
1.4033397e-10
1.3916866e-10
1.3748262e-10
9.4916674e-05
7.706284e-05
7.5933773e-05
7.5897025e-05
7.5946918e-05
7.5964675e-05
7.5969542e-05
7.5972058e-05
7.5974699e-05
7.5978001e-05
7.5982192e-05
7.5987489e-05
7.5994159e-05
7.600256e-05
7.6013173e-05
7.6026718e-05
7.6044278e-05
7.606716e-05
7.6100934e-05
7.6134142e-05
7.6268489e-05
7.6058098e-05
7.7782549e-05
2.0926719e-05
1.5093508e-08
2.3299048e-09
1.1814451e-09
7.971631e-10
6.0927571e-10
4.9484829e-10
4.1751741e-10
3.610516e-10
3.1790391e-10
2.8386473e-10
2.5627215e-10
2.3341234e-10
2.141484e-10
1.9768769e-10
1.8345338e-10
1.710163e-10
1.6005379e-10
1.5031287e-10
1.4159824e-10
1.3375449e-10
1.2665499e-10
1.2019719e-10
1.1429641e-10
1.088823e-10
1.03896e-10
9.928793e-11
9.5015651e-11
9.1042952e-11
8.7338667e-11
8.3875796e-11
8.0630951e-11
7.758387e-11
7.4716993e-11
7.2014766e-11
6.9462832e-11
6.7048643e-11
6.4761164e-11
6.2590621e-11
6.0528335e-11
5.8566479e-11
5.66979e-11
5.4916203e-11
5.3215621e-11
5.1591076e-11
5.0037833e-11
4.8551463e-11
4.7127886e-11
4.5765244e-11
4.446329e-11
4.3217483e-11
4.2025625e-11
4.0886107e-11
3.9797662e-11
3.8759649e-11
3.7772129e-11
3.683514e-11
3.5947302e-11
3.5106055e-11
3.433295e-11
3.3622679e-11
3.2977729e-11
3.2404914e-11
3.1912843e-11
3.151376e-11
3.1224289e-11
3.1027783e-11
3.0987949e-11
3.1176148e-11
3.1596352e-11
3.2277908e-11
3.3270018e-11
3.4617819e-11
3.6344985e-11
3.8446396e-11
4.0914739e-11
4.3669618e-11
4.6498183e-11
4.9136729e-11
5.1456658e-11
5.3260816e-11
5.4708297e-11
5.5796943e-11
5.6630223e-11
5.726664e-11
5.7742952e-11
5.8082008e-11
5.830116e-11
5.8413267e-11
5.841752e-11
5.8313818e-11
5.811391e-11
5.7831169e-11
5.7481499e-11
5.7082904e-11
5.6647728e-11
5.6186493e-11
5.5711166e-11
5.5229563e-11
5.4745372e-11
5.4262252e-11
5.3785007e-11
5.3315813e-11
5.285477e-11
5.2401167e-11
5.1955381e-11
5.1517384e-11
5.1088216e-11
5.0651412e-11
5.0232787e-11
4.9730079e-11
4.9314312e-11
4.8711928e-11
9.4893025e-05
7.7020915e-05
7.5891296e-05
7.5854213e-05
7.5904048e-05
7.59218e-05
7.5926668e-05
7.5929182e-05
7.5931823e-05
7.5935124e-05
7.5939315e-05
7.5944613e-05
7.5951283e-05
7.5959685e-05
7.5970299e-05
7.5983846e-05
7.6001406e-05
7.6024289e-05
7.6058062e-05
7.609126e-05
7.6225613e-05
7.6015115e-05
7.7739427e-05
2.0927259e-05
6.7676864e-09
1.0275716e-09
5.2106003e-10
3.5158335e-10
2.6873783e-10
2.1828665e-10
1.8418983e-10
1.5929134e-10
1.4026474e-10
1.2525422e-10
1.130848e-10
1.0300257e-10
9.4506996e-11
8.7248675e-11
8.0972752e-11
7.5489674e-11
7.0656864e-11
6.6362692e-11
6.2521099e-11
5.9063614e-11
5.5934442e-11
5.3088378e-11
5.0488093e-11
4.8102587e-11
4.5905906e-11
4.387622e-11
4.19944e-11
4.0244571e-11
3.8612941e-11
3.7087512e-11
3.5657898e-11
3.4315425e-11
3.3053463e-11
3.1865991e-11
3.074563e-11
2.9686457e-11
2.8683648e-11
2.7732945e-11
2.6830583e-11
2.5973187e-11
2.5157566e-11
2.4380915e-11
2.3640576e-11
2.2934454e-11
2.2260223e-11
2.1615184e-11
2.0996297e-11
2.0406272e-11
1.985192e-11
1.9325789e-11
1.8826797e-11
1.8354803e-11
1.7909825e-11
1.7492463e-11
1.7103369e-11
1.6742276e-11
1.6403884e-11
1.6077905e-11
1.582322e-11
1.5620032e-11
1.5467584e-11
1.5374442e-11
1.5351368e-11
1.5411863e-11
1.5567661e-11
1.5781689e-11
1.6087788e-11
1.6734954e-11
1.7623815e-11
1.8799038e-11
2.031733e-11
2.22309e-11
2.4568622e-11
2.7329596e-11
3.0485535e-11
3.3893994e-11
3.7273717e-11
4.0339066e-11
4.295237e-11
4.5030497e-11
4.6710091e-11
4.8046454e-11
4.913487e-11
5.0030458e-11
5.0759331e-11
5.1338797e-11
5.1784811e-11
5.2105522e-11
5.2297435e-11
5.2355568e-11
5.228801e-11
5.2113129e-11
5.1852685e-11
5.1528245e-11
5.1156711e-11
5.0752039e-11
5.032687e-11
4.9890099e-11
4.9447416e-11
4.9003405e-11
4.8562398e-11
4.8126846e-11
4.7697818e-11
4.7275515e-11
4.6860383e-11
4.6452863e-11
4.6052259e-11
4.5652432e-11
4.5259249e-11
4.4828716e-11
4.444566e-11
4.3888263e-11
9.4858825e-05
7.6960299e-05
7.5829882e-05
7.5792317e-05
7.5842067e-05
7.5859813e-05
7.586468e-05
7.5867193e-05
7.5869832e-05
7.5873133e-05
7.5877324e-05
7.5882622e-05
7.5889294e-05
7.5897697e-05
7.5908312e-05
7.5921861e-05
7.5939423e-05
7.5962306e-05
7.5996078e-05
7.602926e-05
7.616362e-05
7.5952973e-05
7.7677061e-05
2.0927276e-05
3.8021854e-09
5.4881617e-10
2.7829587e-10
1.8779299e-10
1.4359285e-10
1.166844e-10
9.8494972e-11
8.5208928e-11
7.5054481e-11
6.7042359e-11
6.0543077e-11
5.5158141e-11
5.0622166e-11
4.6748946e-11
4.3401431e-11
4.0477831e-11
3.7901396e-11
3.5612359e-11
3.356493e-11
3.1722717e-11
3.0056034e-11
2.8540803e-11
2.7157136e-11
2.5888519e-11
2.4721116e-11
2.3643354e-11
2.2644162e-11
2.1715232e-11
2.0849115e-11
2.0039243e-11
1.9279935e-11
1.8567093e-11
1.7899435e-11
1.7275465e-11
1.6689162e-11
1.6136593e-11
1.5615287e-11
1.51231e-11
1.465817e-11
1.4218881e-11
1.3803446e-11
1.3410434e-11
1.3038307e-11
1.2686301e-11
1.2352822e-11
1.2035103e-11
1.1729248e-11
1.1443428e-11
1.119464e-11
1.096889e-11
1.0765649e-11
1.0586268e-11
1.0432315e-11
1.0306288e-11
1.0210548e-11
1.0145583e-11
1.0102127e-11
1.0059966e-11
1.0133584e-11
1.0287213e-11
1.0520803e-11
1.0852628e-11
1.1306128e-11
1.191109e-11
1.269699e-11
1.3640649e-11
1.4782398e-11
1.6489633e-11
1.8664495e-11
2.1408115e-11
2.4836291e-11
2.9056552e-11
3.4131548e-11
4.0069343e-11
4.6804922e-11
5.4019371e-11
6.1118865e-11
6.7527092e-11
7.293761e-11
7.7295855e-11
8.0823977e-11
8.3692794e-11
8.607675e-11
8.8081588e-11
8.9750686e-11
9.1115807e-11
9.2208944e-11
9.3042218e-11
9.360676e-11
9.3888143e-11
9.3898065e-11
9.3676934e-11
9.3272537e-11
9.2729876e-11
9.2086072e-11
9.1371438e-11
9.0610862e-11
8.9822487e-11
8.9019315e-11
8.8211073e-11
8.7405564e-11
8.6607756e-11
8.5820719e-11
8.5045796e-11
8.428391e-11
8.3536396e-11
8.2800104e-11
8.2074143e-11
8.1348762e-11
8.0601061e-11
7.9902695e-11
7.8883731e-11
9.4813167e-05
7.6879316e-05
7.5747833e-05
7.5709623e-05
7.5759258e-05
7.5776996e-05
7.5781862e-05
7.5784373e-05
7.578701e-05
7.579031e-05
7.5794501e-05
7.57998e-05
7.5806473e-05
7.5814878e-05
7.5825496e-05
7.5839046e-05
7.585661e-05
7.5879493e-05
7.5913263e-05
7.5946426e-05
7.6080791e-05
7.586995e-05
7.7593736e-05
2.0927211e-05
2.5919999e-09
3.3185192e-10
1.682832e-10
1.1358493e-10
8.6952576e-11
7.0756378e-11
5.9800925e-11
5.1791631e-11
4.5666852e-11
4.0832209e-11
3.6904065e-11
3.3648769e-11
3.0909333e-11
2.8573982e-11
2.6558294e-11
2.4799831e-11
2.3251045e-11
2.1875519e-11
2.0645899e-11
1.9540537e-11
1.8541704e-11
1.7634972e-11
1.6808411e-11
1.6052123e-11
1.5357794e-11
1.4718602e-11
1.4126407e-11
1.3576411e-11
1.3064011e-11
1.2585024e-11
1.2135829e-11
1.1714824e-11
1.1324903e-11
1.0968e-11
1.0637195e-11
1.0328914e-11
1.004188e-11
9.7750544e-12
9.5276137e-12
9.2989567e-12
9.0878424e-12
8.8936201e-12
8.7154397e-12
8.5535799e-12
8.4068266e-12
8.2718677e-12
8.1432913e-12
8.0358431e-12
7.9796334e-12
7.9526279e-12
7.9552967e-12
7.9914537e-12
8.0655697e-12
8.1836958e-12
8.3523556e-12
8.5763183e-12
8.8486801e-12
9.1458352e-12
9.6198209e-12
1.0236796e-11
1.1008603e-11
1.197398e-11
1.3183066e-11
1.470054e-11
1.659616e-11
1.8878245e-11
2.1626224e-11
2.5411164e-11
3.0164444e-11
3.6103855e-11
4.3472966e-11
5.2499e-11
6.3317419e-11
7.5954568e-11
9.0278831e-11
1.0561952e-10
1.2072929e-10
1.3439255e-10
1.4592269e-10
1.5525049e-10
1.6280105e-10
1.6896771e-10
1.7410814e-10
1.7844471e-10
1.8206741e-10
1.8504502e-10
1.8744714e-10
1.8929822e-10
1.9057918e-10
1.9125757e-10
1.913556e-10
1.9096005e-10
1.9017346e-10
1.8909127e-10
1.8779314e-10
1.8634394e-10
1.8479571e-10
1.8318669e-10
1.8154504e-10
1.7989147e-10
1.7824189e-10
1.7660676e-10
1.7499302e-10
1.7340398e-10
1.7184161e-10
1.7030895e-10
1.6879844e-10
1.6731428e-10
1.6582458e-10
1.6431591e-10
1.6288649e-10
1.6079927e-10
9.4754917e-05
7.6775862e-05
7.5643009e-05
7.5603973e-05
7.5653462e-05
7.5671188e-05
7.5676053e-05
7.5678561e-05
7.5681196e-05
7.5684495e-05
7.5688686e-05
7.5693986e-05
7.570066e-05
7.5709067e-05
7.5719688e-05
7.5733241e-05
7.5750807e-05
7.577369e-05
7.5807457e-05
7.5840595e-05
7.5974967e-05
7.5763879e-05
7.7487295e-05
2.0927711e-05
2.1667063e-09
2.2230804e-10
1.1274543e-10
7.6149464e-11
5.8477069e-11
4.7761084e-11
4.04998e-11
3.517857e-11
3.110357e-11
2.7883425e-11
2.5257408e-11
2.3080108e-11
2.125183e-11
1.9699126e-11
1.8363286e-11
1.7201291e-11
1.6179393e-11
1.5272709e-11
1.4463504e-11
1.3737905e-11
1.3084425e-11
1.2493629e-11
1.1957697e-11
1.1470153e-11
1.1025526e-11
1.0619565e-11
1.0244748e-11
9.8980416e-12
9.5763235e-12
9.2766246e-12
8.9963512e-12
8.7356259e-12
8.5012719e-12
8.2984659e-12
8.1184314e-12
7.9573204e-12
7.8146739e-12
7.6902611e-12
7.5840723e-12
7.4963861e-12
7.4260992e-12
7.3733134e-12
7.3382811e-12
7.3225875e-12
7.3259746e-12
7.3455109e-12
7.3754593e-12
7.4355751e-12
7.5663469e-12
7.7425815e-12
7.9675145e-12
8.2491239e-12
8.5968933e-12
9.0231083e-12
9.5417925e-12
1.016578e-11
1.0894102e-11
1.1700685e-11
1.279398e-11
1.4147664e-11
1.5796667e-11
1.7816828e-11
2.0306698e-11
2.33945e-11
2.7224482e-11
3.1865987e-11
3.748425e-11
4.4990035e-11
5.4383117e-11
6.6092609e-11
8.059568e-11
9.8338631e-11
1.195907e-10
1.44413e-10
1.7256038e-10
2.0273574e-10
2.3251018e-10
2.5949294e-10
2.8228487e-10
3.0075689e-10
3.1570576e-10
3.2792367e-10
3.3810786e-10
3.4669792e-10
3.5387387e-10
3.5977581e-10
3.6454426e-10
3.6822803e-10
3.707901e-10
3.7216589e-10
3.7239788e-10
3.7165728e-10
3.7014639e-10
3.6805289e-10
3.6553396e-10
3.6271749e-10
3.597054e-10
3.5657285e-10
3.5337547e-10
3.5015405e-10
3.4693955e-10
3.4375252e-10
3.4060682e-10
3.3750921e-10
3.3446354e-10
3.314759e-10
3.28531e-10
3.2564018e-10
3.2273502e-10
3.1980695e-10
3.1702187e-10
3.1295429e-10
9.4682719e-05
7.6647403e-05
7.5512837e-05
7.5472774e-05
7.5522078e-05
7.553979e-05
7.5544653e-05
7.5547158e-05
7.554979e-05
7.5553088e-05
7.5557278e-05
7.5562579e-05
7.5569256e-05
7.5577666e-05
7.558829e-05
7.5601846e-05
7.5619414e-05
7.5642298e-05
7.5676062e-05
7.5709169e-05
7.5843545e-05
7.5632152e-05
7.735515e-05
2.0929675e-05
2.220264e-09
1.6686719e-10
8.4648962e-11
5.7255367e-11
4.4265852e-11
3.6441652e-11
3.1119277e-11
2.719837e-11
2.4186488e-11
2.1800945e-11
1.9843059e-11
1.8218123e-11
1.6858802e-11
1.571223e-11
1.4731975e-11
1.3884568e-11
1.314184e-11
1.2484346e-11
1.1899719e-11
1.1378558e-11
1.0912863e-11
1.0495923e-11
1.0122145e-11
9.7869264e-12
9.4863219e-12
9.21768e-12
8.9730045e-12
8.7498889e-12
8.5462055e-12
8.3599057e-12
8.1891261e-12
8.0351912e-12
7.9077844e-12
7.8146126e-12
7.7458045e-12
7.6975011e-12
7.670021e-12
7.6639453e-12
7.6801508e-12
7.7199576e-12
7.7821009e-12
7.8676154e-12
7.9783919e-12
8.1179645e-12
8.2876256e-12
8.4853221e-12
8.7053585e-12
8.9744755e-12
9.3473208e-12
9.7957809e-12
1.0327921e-11
1.0958629e-11
1.1705751e-11
1.2592049e-11
1.3644233e-11
1.4888985e-11
1.6336428e-11
1.7959122e-11
2.0054711e-11
2.2611178e-11
2.570352e-11
2.9470557e-11
3.4093074e-11
3.9807525e-11
4.6886477e-11
5.5512195e-11
6.6008774e-11
7.981793e-11
9.7081516e-11
1.1858789e-10
1.4521242e-10
1.7777523e-10
2.167748e-10
2.623342e-10
3.1402303e-10
3.6949169e-10
4.2430948e-10
4.7407646e-10
5.1615618e-10
5.5029495e-10
5.7791655e-10
6.0049131e-10
6.1929796e-10
6.3514982e-10
6.483846e-10
6.5926758e-10
6.6806244e-10
6.7486109e-10
6.7959643e-10
6.821496e-10
6.8259809e-10
6.8125704e-10
6.7849886e-10
6.7466865e-10
6.7005567e-10
6.6489532e-10
6.5937479e-10
6.5363222e-10
6.4777007e-10
6.4186337e-10
6.3596888e-10
6.3012438e-10
6.2435547e-10
6.1867471e-10
6.1308917e-10
6.0761013e-10
6.0220923e-10
5.9690901e-10
5.9158051e-10
5.8621787e-10
5.8111102e-10
5.7365205e-10
9.4595011e-05
7.6490983e-05
7.5354313e-05
7.5312996e-05
7.5362072e-05
7.5379766e-05
7.5384627e-05
7.5387128e-05
7.5389756e-05
7.5393052e-05
7.5397242e-05
7.5402545e-05
7.5409224e-05
7.5417637e-05
7.5428265e-05
7.5441826e-05
7.5459396e-05
7.548228e-05
7.5516039e-05
7.5549109e-05
7.5683491e-05
7.5471725e-05
7.719428e-05
2.0934318e-05
2.6690467e-09
1.4516392e-10
7.3670806e-11
4.9951395e-11
3.9057016e-11
3.2574487e-11
2.8134627e-11
2.4833593e-11
2.2284653e-11
2.0258139e-11
1.8582996e-11
1.7190764e-11
1.6031047e-11
1.5060982e-11
1.4238972e-11
1.3535675e-11
1.2922933e-11
1.2382765e-11
1.1905765e-11
1.1485205e-11
1.1115015e-11
1.0789882e-11
1.0505332e-11
1.0257731e-11
1.0043885e-11
9.8622758e-12
9.7031201e-12
9.5638858e-12
9.4432217e-12
9.3399012e-12
9.2526705e-12
9.1840652e-12
9.1470595e-12
9.1523319e-12
9.188632e-12
9.2520556e-12
9.3438626e-12
9.4656628e-12
9.6195152e-12
9.8082001e-12
1.0029982e-11
1.028723e-11
1.0584357e-11
1.0927948e-11
1.1321788e-11
1.1765401e-11
1.2253576e-11
1.2823834e-11
1.3551936e-11
1.440616e-11
1.5402518e-11
1.6567086e-11
1.7931288e-11
1.9534943e-11
2.1425518e-11
2.3652649e-11
2.6246266e-11
2.9180717e-11
3.2888199e-11
3.738352e-11
4.28086e-11
4.9405134e-11
5.7488317e-11
6.7471914e-11
7.9840655e-11
9.4976038e-11
1.1347575e-10
1.3758273e-10
1.6770989e-10
2.0523333e-10
2.5168054e-10
3.0848443e-10
3.7652059e-10
4.560174e-10
5.4625078e-10
6.4316439e-10
7.3906299e-10
8.2624926e-10
9.000314e-10
9.5993081e-10
1.0083871e-09
1.0479823e-09
1.0809495e-09
1.1087181e-09
1.1318884e-09
1.1509348e-09
1.1663257e-09
1.178225e-09
1.1865169e-09
1.1909939e-09
1.1917913e-09
1.1894601e-09
1.1846513e-09
1.1779684e-09
1.1699169e-09
1.1609085e-09
1.1512703e-09
1.1412436e-09
1.1310077e-09
1.1206937e-09
1.1104007e-09
1.1001948e-09
1.0901207e-09
1.0802006e-09
1.0704467e-09
1.0608788e-09
1.0514473e-09
1.0421924e-09
1.032887e-09
1.0235267e-09
1.0146092e-09
1.0015842e-09
9.4490024e-05
7.6303224e-05
7.5164e-05
7.5121173e-05
7.5169971e-05
7.5187643e-05
7.51925e-05
7.5194996e-05
7.5197621e-05
7.5200914e-05
7.5205104e-05
7.5210408e-05
7.521709e-05
7.5225507e-05
7.5236139e-05
7.5249705e-05
7.5267279e-05
7.5290162e-05
7.5323916e-05
7.5356942e-05
7.5491328e-05
7.5279114e-05
7.7001237e-05
2.0943241e-05
3.5360312e-09
1.5044975e-10
7.6394729e-11
5.1952768e-11
4.1177287e-11
3.487136e-11
3.0512946e-11
2.723287e-11
2.4683223e-11
2.264659e-11
2.0952095e-11
1.9541652e-11
1.8371428e-11
1.7400786e-11
1.6586606e-11
1.5899219e-11
1.5305158e-11
1.4784473e-11
1.4329117e-11
1.3933941e-11
1.3593768e-11
1.3303747e-11
1.3059737e-11
1.2858434e-11
1.2696831e-11
1.2574364e-11
1.2477788e-11
1.2403738e-11
1.2351612e-11
1.23211e-11
1.2311596e-11
1.2327168e-11
1.2385277e-11
1.2500645e-11
1.2659991e-11
1.2859298e-11
1.3101134e-11
1.3388573e-11
1.3725402e-11
1.4116583e-11
1.4559517e-11
1.5058591e-11
1.5622173e-11
1.6261651e-11
1.698483e-11
1.7794035e-11
1.8685461e-11
1.9712958e-11
2.0983292e-11
2.2460695e-11
2.4173976e-11
2.6166966e-11
2.8492678e-11
3.121807e-11
3.4423786e-11
3.8196614e-11
4.2600666e-11
4.7618897e-11
5.3880032e-11
6.1447837e-11
7.0573168e-11
8.1661587e-11
9.524251e-11
1.1201282e-10
1.3279861e-10
1.5831928e-10
1.8962477e-10
2.3014498e-10
2.8077812e-10
3.4383778e-10
4.2189213e-10
5.1735273e-10
6.3169924e-10
7.6533319e-10
9.1707378e-10
1.0801614e-09
1.2417079e-09
1.3887452e-09
1.5132645e-09
1.6144057e-09
1.696214e-09
1.7630488e-09
1.8186681e-09
1.8654889e-09
1.9045361e-09
1.9366231e-09
1.9625479e-09
1.9825915e-09
1.996561e-09
2.0041078e-09
2.0054593e-09
2.0015434e-09
1.9934565e-09
1.982214e-09
1.9686675e-09
1.9535099e-09
1.9372917e-09
1.9204194e-09
1.9031947e-09
1.8858384e-09
1.8685172e-09
1.8513424e-09
1.8343894e-09
1.8176953e-09
1.8012811e-09
1.7851799e-09
1.7693079e-09
1.753734e-09
1.7380742e-09
1.722325e-09
1.7073186e-09
1.6853998e-09
9.4365797e-05
7.6080322e-05
7.4938026e-05
7.48934e-05
7.4941863e-05
7.4959506e-05
7.496436e-05
7.4966849e-05
7.4969469e-05
7.4972759e-05
7.4976949e-05
7.4982254e-05
7.4988939e-05
7.4997361e-05
7.5007999e-05
7.502157e-05
7.5039147e-05
7.5062031e-05
7.5095778e-05
7.5128752e-05
7.5263141e-05
7.5050397e-05
7.6772142e-05
2.0958509e-05
4.9185252e-09
1.8319369e-10
9.3067483e-11
6.3456721e-11
5.0888228e-11
4.3652542e-11
3.8607081e-11
3.4765632e-11
3.1761189e-11
2.9351058e-11
2.7337548e-11
2.5659689e-11
2.427133e-11
2.3126835e-11
2.217497e-11
2.13813e-11
2.0700793e-11
2.0107785e-11
1.9594292e-11
1.9155982e-11
1.8787739e-11
1.8484352e-11
1.8241301e-11
1.8055066e-11
1.7922308e-11
1.7843434e-11
1.7799464e-11
1.7785338e-11
1.7801351e-11
1.7848429e-11
1.7926831e-11
1.804275e-11
1.8219955e-11
1.8478839e-11
1.8803266e-11
1.9189125e-11
1.9640908e-11
2.0163872e-11
2.0764409e-11
2.1450807e-11
2.2219047e-11
2.3076626e-11
2.4038116e-11
2.5122407e-11
2.6343766e-11
2.7709405e-11
2.9218682e-11
3.0949638e-11
3.305366e-11
3.5491449e-11
3.831211e-11
4.1587216e-11
4.5403564e-11
4.9870586e-11
5.5121055e-11
6.1300792e-11
6.8531172e-11
7.6816463e-11
8.7067459e-11
9.9433966e-11
1.1434072e-10
1.3244979e-10
1.546261e-10
1.8201063e-10
2.1596832e-10
2.5777477e-10
3.0920791e-10
3.7543874e-10
4.5819583e-10
5.6126205e-10
6.8883707e-10
8.4486758e-10
1.0317833e-09
1.2502637e-09
1.4984272e-09
1.7653019e-09
2.0298794e-09
2.2709182e-09
2.475162e-09
2.641126e-09
2.7753517e-09
2.8849899e-09
2.9761914e-09
3.0529274e-09
3.1168946e-09
3.1694443e-09
3.2118959e-09
3.2447159e-09
3.2675915e-09
3.2799527e-09
3.2821722e-09
3.2757688e-09
3.2625374e-09
3.2441403e-09
3.2219715e-09
3.1971652e-09
3.1706227e-09
3.1430093e-09
3.1148187e-09
3.0864126e-09
3.0580639e-09
3.0299545e-09
3.0022081e-09
2.9748855e-09
2.9480209e-09
2.9216686e-09
2.8956915e-09
2.8702025e-09
2.8445724e-09
2.8187982e-09
2.7942378e-09
2.7583642e-09
9.4220187e-05
7.5818044e-05
7.4672077e-05
7.4625327e-05
7.4673385e-05
7.4690993e-05
7.4695842e-05
7.4698324e-05
7.4700937e-05
7.4704224e-05
7.4708413e-05
7.471372e-05
7.4720409e-05
7.4728836e-05
7.473948e-05
7.4753058e-05
7.477064e-05
7.4793523e-05
7.4827262e-05
7.4860175e-05
7.4994566e-05
7.4781203e-05
7.6502683e-05
2.0982735e-05
6.986932e-09
2.4945173e-10
1.2677354e-10
8.6590563e-11
6.9981937e-11
6.0535412e-11
5.3905828e-11
4.8816071e-11
4.4818222e-11
4.1601956e-11
3.8911162e-11
3.666771e-11
3.4813513e-11
3.328969e-11
3.2028947e-11
3.0986867e-11
3.0098521e-11
2.9327751e-11
2.8665338e-11
2.8107153e-11
2.7647307e-11
2.7279339e-11
2.6997573e-11
2.6797674e-11
2.6675401e-11
2.6632323e-11
2.6640513e-11
2.6692013e-11
2.6788376e-11
2.6932378e-11
2.7125589e-11
2.7377248e-11
2.7719963e-11
2.8182069e-11
2.8743668e-11
2.9400729e-11
3.016064e-11
3.1031964e-11
3.202505e-11
3.3153262e-11
3.4410356e-11
3.5808613e-11
3.7372295e-11
3.9131905e-11
4.1111981e-11
4.3328054e-11
4.5785754e-11
4.8598438e-11
5.1980919e-11
5.5892615e-11
6.0414433e-11
6.5660782e-11
7.1770714e-11
7.8919321e-11
8.732026e-11
9.7211824e-11
1.0880901e-10
1.2215945e-10
1.3857516e-10
1.583521e-10
1.8218836e-10
2.1114259e-10
2.4659866e-10
2.9038529e-10
3.4470628e-10
4.1173276e-10
4.9439309e-10
6.0039853e-10
7.3285345e-10
8.9781454e-10
1.1020069e-09
1.3517548e-09
1.6509624e-09
2.0007481e-09
2.3981646e-09
2.8257527e-09
3.2499611e-09
3.6367282e-09
3.964614e-09
4.2311331e-09
4.4466652e-09
4.6226881e-09
4.7690592e-09
4.8921628e-09
4.994744e-09
5.0789943e-09
5.1470461e-09
5.1996555e-09
5.2363254e-09
5.2561435e-09
5.259707e-09
5.2494507e-09
5.2282509e-09
5.1987719e-09
5.1632479e-09
5.1234968e-09
5.0809629e-09
5.0367123e-09
4.9915367e-09
4.9460154e-09
4.900586e-09
4.8555401e-09
4.8110757e-09
4.7672905e-09
4.7242391e-09
4.6820087e-09
4.6403795e-09
4.5995328e-09
4.5584596e-09
4.517157e-09
4.4777984e-09
4.4203099e-09
9.4050877e-05
7.5511721e-05
7.4361389e-05
7.431215e-05
7.4359724e-05
7.4377288e-05
7.4382131e-05
7.4384603e-05
7.4387208e-05
7.4390491e-05
7.4394679e-05
7.4399988e-05
7.4406681e-05
7.4415115e-05
7.4425766e-05
7.4439352e-05
7.4456938e-05
7.4479821e-05
7.451355e-05
7.4546394e-05
7.4680784e-05
7.4466709e-05
7.6188109e-05
2.1019168e-05
9.9999873e-09
3.611803e-10
1.8359638e-10
1.2552792e-10
1.0189663e-10
8.8554335e-11
7.9154994e-11
7.1903345e-11
6.6193478e-11
6.1592618e-11
5.7744797e-11
5.4536353e-11
5.1884932e-11
4.9707633e-11
4.7910543e-11
4.6432457e-11
4.5176749e-11
4.4090116e-11
4.3160569e-11
4.2383577e-11
4.1751498e-11
4.1255494e-11
4.0887744e-11
4.0642352e-11
4.0513435e-11
4.0504121e-11
4.0572901e-11
4.0707151e-11
4.0910326e-11
4.1188096e-11
4.1544111e-11
4.1992027e-11
4.2576731e-11
4.3337648e-11
4.4250162e-11
4.5310769e-11
4.6531247e-11
4.7925161e-11
4.9508882e-11
5.1303497e-11
5.3299339e-11
5.5516033e-11
5.7992849e-11
6.0778128e-11
6.3912565e-11
6.7425496e-11
7.133406e-11
7.580276e-11
8.1135972e-11
8.7297013e-11
9.4416102e-11
1.0267323e-10
1.1228754e-10
1.2353472e-10
1.3675274e-10
1.5232318e-10
1.7061122e-10
1.917445e-10
2.1760347e-10
2.4872564e-10
2.8623389e-10
3.3179441e-10
3.8758639e-10
4.5649373e-10
5.4201281e-10
6.477329e-10
7.7837643e-10
9.4535049e-10
1.1539864e-09
1.4138273e-09
1.7354714e-09
2.1288907e-09
2.6002559e-09
3.1513694e-09
3.7776747e-09
4.4518064e-09
5.1210113e-09
5.7315497e-09
6.2493524e-09
6.6703578e-09
7.0107968e-09
7.288792e-09
7.5198884e-09
7.7141806e-09
7.8760313e-09
8.008932e-09
8.116268e-09
8.1992438e-09
8.2570805e-09
8.2883411e-09
8.2939679e-09
8.2778004e-09
8.2443749e-09
8.1978928e-09
8.1418776e-09
8.0791961e-09
8.0121257e-09
7.942348e-09
7.8711113e-09
7.7993294e-09
7.7276922e-09
7.6566594e-09
7.5865436e-09
7.5174987e-09
7.449611e-09
7.383018e-09
7.3173728e-09
7.2529618e-09
7.1881934e-09
7.1230643e-09
7.0609998e-09
6.9703461e-09
9.3855399e-05
7.5156248e-05
7.4000749e-05
7.3948605e-05
7.3995602e-05
7.4013112e-05
7.4017947e-05
7.4020408e-05
7.4023004e-05
7.4026281e-05
7.4030468e-05
7.4035779e-05
7.4042477e-05
7.4050918e-05
7.4061577e-05
7.4075171e-05
7.4092763e-05
7.4115646e-05
7.4149362e-05
7.4182127e-05
7.4316512e-05
7.410164e-05
7.5823225e-05
2.1071777e-05
1.4333223e-08
5.3789082e-10
2.7346082e-10
1.8706822e-10
1.5219946e-10
1.3259171e-10
1.1875094e-10
1.0804517e-10
9.9605214e-11
9.279939e-11
8.7114098e-11
8.2374158e-11
7.8455614e-11
7.5236415e-11
7.2581253e-11
7.0402699e-11
6.8555256e-11
6.6958858e-11
6.5596704e-11
6.4463175e-11
6.354757e-11
6.2837128e-11
6.232051e-11
6.1989241e-11
6.1834769e-11
6.1862449e-11
6.2010421e-11
6.2258754e-11
6.2613863e-11
6.3085982e-11
6.3682108e-11
6.4422305e-11
6.5368438e-11
6.6575361e-11
6.8012821e-11
6.9678724e-11
7.1591488e-11
7.3772254e-11
7.6246511e-11
7.9047061e-11
8.2159028e-11
8.561325e-11
8.9472083e-11
9.3811086e-11
9.8696113e-11
1.0417896e-10
1.1029679e-10
1.1728792e-10
1.2558282e-10
1.351587e-10
1.4622161e-10
1.5905129e-10
1.7398877e-10
1.9146288e-10
2.1200126e-10
2.3620559e-10
2.6467847e-10
2.9768697e-10
3.3791573e-10
3.8629311e-10
4.4459622e-10
5.1541572e-10
6.0214129e-10
7.0926437e-10
8.4225781e-10
1.0069285e-09
1.2107692e-09
1.4705572e-09
1.7951668e-09
2.1994503e-09
2.6999041e-09
3.3120579e-09
4.0455413e-09
4.9032123e-09
5.8780967e-09
6.9277978e-09
7.970363e-09
8.9220613e-09
9.7294877e-09
1.0386125e-08
1.0917071e-08
1.1350579e-08
1.1710861e-08
1.2013674e-08
1.2265857e-08
1.2472895e-08
1.2640091e-08
1.2769337e-08
1.2859426e-08
1.2908123e-08
1.2916895e-08
1.2891724e-08
1.2839673e-08
1.2767286e-08
1.2680052e-08
1.2582435e-08
1.2477982e-08
1.2369312e-08
1.225837e-08
1.2146578e-08
1.2035011e-08
1.1924386e-08
1.1815188e-08
1.1707658e-08
1.1601931e-08
1.1498219e-08
1.1395984e-08
1.1295671e-08
1.1194801e-08
1.109337e-08
1.0996711e-08
1.0855528e-08
9.3631155e-05
7.4746081e-05
7.3584483e-05
7.3528967e-05
7.3575279e-05
7.3592722e-05
7.3597547e-05
7.3599995e-05
7.3602579e-05
7.360585e-05
7.3610034e-05
7.3615347e-05
7.3622051e-05
7.36305e-05
7.3641168e-05
7.3654772e-05
7.3672369e-05
7.3695252e-05
7.3728954e-05
7.3761629e-05
7.3896003e-05
7.3680246e-05
7.5402408e-05
2.1145325e-05
2.052177e-08
8.0966787e-10
4.1166826e-10
2.8168902e-10
2.2945022e-10
2.0013732e-10
1.7942573e-10
1.6338497e-10
1.50732e-10
1.4052571e-10
1.3201181e-10
1.2491526e-10
1.1904513e-10
1.1421821e-10
1.1023657e-10
1.069731e-10
1.042081e-10
1.018206e-10
9.9786128e-11
9.8097069e-11
9.6737835e-11
9.5689522e-11
9.49353e-11
9.4462651e-11
9.4258879e-11
9.4332613e-11
9.4591715e-11
9.5004968e-11
9.5583422e-11
9.6344504e-11
9.7300551e-11
9.8480941e-11
9.9970939e-11
1.0184685e-10
1.0407203e-10
1.0664738e-10
1.0960133e-10
1.1296645e-10
1.1678201e-10
1.2109851e-10
1.2589319e-10
1.3121394e-10
1.371584e-10
1.4384345e-10
1.513738e-10
1.5983714e-10
1.6930434e-10
1.8011999e-10
1.9289208e-10
2.0762938e-10
2.2465382e-10
2.4439604e-10
2.6738173e-10
2.9427148e-10
3.2588076e-10
3.6314725e-10
4.0704445e-10
4.5807354e-10
5.2005703e-10
5.9454568e-10
6.8431709e-10
7.933613e-10
9.2690086e-10
1.0918632e-09
1.2967254e-09
1.5507292e-09
1.8656121e-09
2.2659533e-09
2.7661901e-09
3.3892164e-09
4.1604642e-09
5.1038855e-09
6.2343591e-09
7.5563606e-09
9.059296e-09
1.0678071e-08
1.2286556e-08
1.3755557e-08
1.5002242e-08
1.6016303e-08
1.6836214e-08
1.7505588e-08
1.8061773e-08
1.8529119e-08
1.8918236e-08
1.9237645e-08
1.9495567e-08
1.9694938e-08
1.9833909e-08
1.9909034e-08
1.9922577e-08
1.9883763e-08
1.980349e-08
1.9691849e-08
1.9557307e-08
1.9406749e-08
1.9245646e-08
1.9078039e-08
1.8906926e-08
1.8734503e-08
1.8562426e-08
1.8391801e-08
1.8223378e-08
1.8057527e-08
1.7894456e-08
1.7734494e-08
1.7576809e-08
1.7422089e-08
1.726651e-08
1.7110067e-08
1.6960984e-08
1.6743226e-08
9.3375448e-05
7.4275248e-05
7.3106465e-05
7.3047051e-05
7.3092552e-05
7.3109912e-05
7.3114723e-05
7.3117155e-05
7.3119726e-05
7.3122988e-05
7.312717e-05
7.3132485e-05
7.3139195e-05
7.3147652e-05
7.3158331e-05
7.3171945e-05
7.3189549e-05
7.3212431e-05
7.3246115e-05
7.3278691e-05
7.3413046e-05
7.3196307e-05
7.4919618e-05
2.1245434e-05
2.932096e-08
1.2219343e-09
6.2131932e-10
4.2520512e-10
3.4655763e-10
3.0247587e-10
2.7131508e-10
2.4716692e-10
2.2811438e-10
2.1274456e-10
1.9994125e-10
1.8927218e-10
1.8044153e-10
1.7317255e-10
1.6717378e-10
1.6225886e-10
1.5809641e-10
1.5450362e-10
1.5144417e-10
1.4890722e-10
1.4686963e-10
1.4530311e-10
1.4418244e-10
1.4348892e-10
1.4320354e-10
1.4333982e-10
1.4376074e-10
1.4441779e-10
1.4532928e-10
1.4652388e-10
1.4802238e-10
1.498677e-10