/*--------------------------------*- C++ -*----------------------------------*\
| =========                 |                                                 |
| \\      /  F ield         | OpenFOAM: The Open Source CFD Toolbox           |
|  \\    /   O peration     | Version:  2206                                  |
|   \\  /    A nd           | Website:  www.openfoam.com                      |
|    \\/     M anipulation  |                                                 |
\*---------------------------------------------------------------------------*/
FoamFile
{
    version     2.0;
    format      ascii;
    arch        "LSB;label=32;scalar=64";
    class       volScalarField;
    location    "1300";
    object      nut;
}
// * * * * * * * * * * * * * * * * * * * * * * * * * * * * * * * * * * * * * //

dimensions      [0 2 -1 0 0 0 0];

internalField   nonuniform List<scalar> 
13056
(
1.9367362e-07
1.9153901e-07
1.9164373e-07
1.9188233e-07
1.9202011e-07
1.9208379e-07
1.9211635e-07
1.9213659e-07
1.9215143e-07
1.9216363e-07
1.9217457e-07
1.9218514e-07
1.9219605e-07
1.9220799e-07
1.9222176e-07
1.9223817e-07
1.9225921e-07
1.9228371e-07
1.9233026e-07
1.9232978e-07
1.926432e-07
1.9193109e-07
1.9104158e-07
1.0700984e-09
2.6214552e-16
4.071793e-17
2.0647235e-17
1.3931407e-17
1.0647737e-17
8.6478911e-18
7.2963898e-18
6.3095526e-18
5.5554761e-18
4.9605879e-18
4.4783744e-18
4.0788724e-18
3.7422082e-18
3.4545281e-18
3.2057543e-18
2.9883884e-18
2.7967927e-18
2.6265466e-18
2.4742366e-18
2.3371463e-18
2.2130624e-18
2.1001925e-18
1.9970565e-18
1.9024251e-18
1.8152694e-18
1.7347229e-18
1.6600464e-18
1.5906063e-18
1.5258583e-18
1.4653313e-18
1.4086169e-18
1.3553594e-18
1.3052449e-18
1.2579963e-18
1.2133694e-18
1.1711474e-18
1.1311373e-18
1.0931678e-18
1.0570872e-18
1.022758e-18
9.900555e-19
9.58868e-19
9.2909562e-19
9.0064887e-19
8.7344678e-19
8.4741712e-19
8.2249686e-19
7.9863039e-19
7.7576832e-19
7.5386793e-19
7.3289219e-19
7.1281002e-19
6.9359651e-19
6.7523586e-19
6.5772686e-19
6.410747e-19
6.2529152e-19
6.1039852e-19
5.9642418e-19
5.8340841e-19
5.7141558e-19
5.6053538e-19
5.508825e-19
5.4263344e-19
5.3608072e-19
5.3123066e-19
5.2917367e-19
5.2939491e-19
5.3292329e-19
5.4010586e-19
5.5162555e-19
5.6812127e-19
5.8995659e-19
6.1713435e-19
6.4985543e-19
6.8757332e-19
7.2774365e-19
7.6641518e-19
8.0112029e-19
8.2808835e-19
8.495346e-19
8.6522231e-19
8.7675101e-19
8.8508119e-19
8.909023e-19
8.9466507e-19
8.9668693e-19
8.972103e-19
8.9624936e-19
8.9383348e-19
8.9015746e-19
8.8539188e-19
8.7973967e-19
8.7344729e-19
8.6667214e-19
8.5955081e-19
8.5225637e-19
8.4489836e-19
8.3752028e-19
8.3017115e-19
8.2292447e-19
8.1581091e-19
8.0882661e-19
8.019561e-19
7.9520457e-19
7.8856905e-19
7.8207438e-19
7.754209e-19
7.6909902e-19
7.6127965e-19
7.5496022e-19
7.4581747e-19
1.9367301e-07
1.9153764e-07
1.9164243e-07
1.9188109e-07
1.9201891e-07
1.9208261e-07
1.9211517e-07
1.9213543e-07
1.9215027e-07
1.9216247e-07
1.9217342e-07
1.9218399e-07
1.921949e-07
1.9220685e-07
1.9222062e-07
1.9223703e-07
1.9225807e-07
1.9228257e-07
1.9232913e-07
1.9232864e-07
1.9264209e-07
1.9192994e-07
1.9104126e-07
1.0863382e-09
2.4596909e-16
3.8053765e-17
1.9296275e-17
1.3019863e-17
9.9510471e-18
8.082055e-18
6.8189845e-18
5.8967173e-18
5.191981e-18
4.6360173e-18
4.1853552e-18
3.8119929e-18
3.4973571e-18
3.2285005e-18
2.9960048e-18
2.792862e-18
2.6138031e-18
2.4546969e-18
2.3123533e-18
2.1842334e-18
2.068269e-18
1.9627848e-18
1.8663976e-18
1.7779586e-18
1.6965063e-18
1.6212306e-18
1.5514407e-18
1.4865447e-18
1.4260336e-18
1.3694672e-18
1.3164639e-18
1.2666912e-18
1.2198561e-18
1.1756999e-18
1.1339941e-18
1.0945359e-18
1.057145e-18
1.0216613e-18
9.8794294e-19
9.5586156e-19
9.2530057e-19
8.9615552e-19
8.6833305e-19
8.4174953e-19
8.163292e-19
7.9200424e-19
7.6871534e-19
7.4641168e-19
7.2504941e-19
7.0458665e-19
6.8498867e-19
6.6622651e-19
6.4827696e-19
6.311254e-19
6.1477064e-19
5.9921713e-19
5.8447389e-19
5.7055693e-19
5.5751256e-19
5.4536988e-19
5.3418727e-19
5.2404947e-19
5.1506472e-19
5.0739863e-19
5.0132201e-19
4.9681786e-19
4.9490481e-19
4.95218e-19
4.9864645e-19
5.0551955e-19
5.1648009e-19
5.3212766e-19
5.5279883e-19
5.7848392e-19
6.0934233e-19
6.4481e-19
6.8245601e-19
7.1858932e-19
7.5096966e-19
7.7611204e-19
7.9612305e-19
8.1077939e-19
8.2157729e-19
8.2940772e-19
8.3490436e-19
8.3847854e-19
8.404211e-19
8.4095524e-19
8.4009225e-19
8.3785817e-19
8.3443495e-19
8.2998374e-19
8.2469627e-19
8.1880466e-19
8.1245764e-19
8.0578414e-19
7.989468e-19
7.9204867e-19
7.85131e-19
7.7824001e-19
7.714446e-19
7.6477361e-19
7.5822363e-19
7.5178032e-19
7.4544858e-19
7.3922571e-19
7.3313466e-19
7.268963e-19
7.209668e-19
7.1364135e-19
7.0771568e-19
6.9914213e-19
1.9367103e-07
1.9153333e-07
1.9163831e-07
1.9187717e-07
1.9201511e-07
1.9207887e-07
1.9211146e-07
1.9213174e-07
1.9214659e-07
1.9215881e-07
1.9216976e-07
1.9218034e-07
1.9219126e-07
1.9220321e-07
1.9221699e-07
1.922334e-07
1.9225446e-07
1.9227896e-07
1.9232553e-07
1.9232503e-07
1.9263857e-07
1.9192637e-07
1.9103826e-07
1.1057694e-09
2.3536514e-16
3.6279258e-17
1.8396442e-17
1.2412735e-17
9.4871123e-18
7.7053452e-18
6.501214e-18
5.6219759e-18
4.9501165e-18
4.420087e-18
3.9904369e-18
3.6344818e-18
3.3345195e-18
3.0782074e-18
2.8565635e-18
2.6629046e-18
2.4922062e-18
2.3405293e-18
2.204833e-18
2.0826971e-18
1.97215e-18
1.8715949e-18
1.779713e-18
1.6954091e-18
1.6177667e-18
1.5460138e-18
1.4794889e-18
1.4176285e-18
1.3599472e-18
1.3060244e-18
1.2554958e-18
1.2080462e-18
1.1634035e-18
1.1213266e-18
1.0815904e-18
1.0439991e-18
1.0083807e-18
9.7458298e-19
9.424709e-19
9.1192252e-19
8.8282646e-19
8.5508302e-19
8.2860184e-19
8.0330382e-19
7.7911447e-19
7.559632e-19
7.3378405e-19
7.1255404e-19
6.9228051e-19
6.7288215e-19
6.5432355e-19
6.3657941e-19
6.1962928e-19
6.0346292e-19
5.8807937e-19
5.7347465e-19
5.5961071e-19
5.4642311e-19
5.3436834e-19
5.2330606e-19
5.1325809e-19
5.043288e-19
4.9664831e-19
4.9039629e-19
4.857908e-19
4.8236196e-19
4.8109086e-19
4.8397455e-19
4.9044388e-19
5.0094237e-19
5.1621288e-19
5.3691591e-19
5.633413e-19
5.9525467e-19
6.3224737e-19
6.7265519e-19
7.1295578e-19
7.4948284e-19
7.8125102e-19
8.0563356e-19
8.2539464e-19
8.4032301e-19
8.5192896e-19
8.6097343e-19
8.6787792e-19
8.7286385e-19
8.761133e-19
8.7778041e-19
8.7783626e-19
8.7627342e-19
8.7326655e-19
8.6901593e-19
8.6376022e-19
8.5776981e-19
8.5123004e-19
8.4429891e-19
8.3715621e-19
8.2991934e-19
8.2264365e-19
8.1538412e-19
8.0821292e-19
8.0116275e-19
7.9423508e-19
7.8741921e-19
7.8072079e-19
7.7413942e-19
7.6769073e-19
7.6112712e-19
7.5483692e-19
7.472823e-19
7.4103487e-19
7.3198333e-19
1.9366764e-07
1.9152595e-07
1.9163125e-07
1.9187044e-07
1.9200859e-07
1.9207244e-07
1.921051e-07
1.921254e-07
1.9214028e-07
1.9215251e-07
1.9216348e-07
1.9217407e-07
1.92185e-07
1.9219697e-07
1.9221076e-07
1.9222718e-07
1.9224825e-07
1.9227276e-07
1.9231936e-07
1.9231883e-07
1.926325e-07
1.9192027e-07
1.9103254e-07
1.1270376e-09
2.3081977e-16
3.5019532e-17
1.7757679e-17
1.1981925e-17
9.1585377e-18
7.4391483e-18
6.277118e-18
5.4285694e-18
4.7801356e-18
4.2685704e-18
3.853814e-18
3.5101922e-18
3.2206541e-18
2.9732918e-18
2.7594141e-18
2.572557e-18
2.4078604e-18
2.2615198e-18
2.1306025e-18
2.0127748e-18
1.9061354e-18
1.8091438e-18
1.7205277e-18
1.6392307e-18
1.5643682e-18
1.4951962e-18
1.431058e-18
1.3714146e-18
1.3157949e-18
1.263788e-18
1.2150383e-18
1.1692537e-18
1.1262239e-18
1.0857547e-18
1.0475786e-18
1.0114871e-18
9.7731591e-19
9.4491977e-19
9.1417032e-19
8.8495244e-19
8.571573e-19
8.3068789e-19
8.0544769e-19
7.8136485e-19
7.5835189e-19
7.3629873e-19
7.1507541e-19
6.9483958e-19
6.7594676e-19
6.5802656e-19
6.410293e-19
6.2494753e-19
6.0977457e-19
5.9552771e-19
5.8220872e-19
5.697573e-19
5.5780746e-19
5.4573178e-19
5.3688786e-19
5.299613e-19
5.2473918e-19
5.2149554e-19
5.2055397e-19
5.2224691e-19
5.2648147e-19
5.2941727e-19
5.3203421e-19
5.5339752e-19
5.8274466e-19
6.2153229e-19
6.7161179e-19
7.3466069e-19
8.1153943e-19
9.0202179e-19
1.0047868e-18
1.1145536e-18
1.2216701e-18
1.3171837e-18
1.3978728e-18
1.46159e-18
1.5133012e-18
1.554612e-18
1.588568e-18
1.6168102e-18
1.6400173e-18
1.6585897e-18
1.6729387e-18
1.6832753e-18
1.6894639e-18
1.6913357e-18
1.6891492e-18
1.6834971e-18
1.6750817e-18
1.6645997e-18
1.6525967e-18
1.6395236e-18
1.6257885e-18
1.6116789e-18
1.5973784e-18
1.583035e-18
1.5687888e-18
1.5547188e-18
1.5408597e-18
1.5272178e-18
1.5138075e-18
1.5006431e-18
1.4877022e-18
1.4747862e-18
1.462085e-18
1.4481761e-18
1.4358019e-18
1.4177958e-18
1.9366273e-07
1.9151526e-07
1.9162102e-07
1.918607e-07
1.9199915e-07
1.9206315e-07
1.9209588e-07
1.9211623e-07
1.9213114e-07
1.921434e-07
1.9215439e-07
1.92165e-07
1.9217595e-07
1.9218793e-07
1.9220173e-07
1.9221818e-07
1.9223926e-07
1.9226379e-07
1.9231042e-07
1.9230985e-07
1.9262371e-07
1.9191144e-07
1.9102401e-07
1.1500821e-09
2.3656012e-16
3.4176348e-17
1.7330292e-17
1.1694386e-17
8.9418065e-18
7.2660337e-18
6.1332455e-18
5.3058231e-18
4.6734224e-18
4.1744351e-18
3.7695615e-18
3.4341024e-18
3.151574e-18
2.9103816e-18
2.7019542e-18
2.5199289e-18
2.3595187e-18
2.2170014e-18
2.0895255e-18
1.9748252e-18
1.871052e-18
1.7767068e-18
1.6905509e-18
1.6115559e-18
1.5388601e-18
1.4717422e-18
1.4094832e-18
1.3515789e-18
1.2975576e-18
1.2469979e-18
1.1995369e-18
1.1549405e-18
1.1132255e-18
1.0743674e-18
1.0378917e-18
1.0035134e-18
9.7107784e-19
9.404513e-19
9.1151743e-19
8.8417495e-19
8.583119e-19
8.3383053e-19
8.105973e-19
7.8856153e-19
7.6757091e-19
7.4733777e-19
7.2744975e-19
7.0882934e-19
6.9332023e-19
6.7931342e-19
6.6669455e-19
6.5552974e-19
6.4586753e-19
6.3783987e-19
6.3146802e-19
6.2641257e-19
6.2078971e-19
6.1138654e-19
6.1459142e-19
6.2387976e-19
6.3799968e-19
6.5804111e-19
6.8537853e-19
7.2167207e-19
7.6812109e-19
8.2011159e-19
8.7910551e-19
9.8058166e-19
1.1098462e-18
1.2728773e-18
1.4765103e-18
1.727033e-18
2.0279582e-18
2.3793132e-18
2.7763208e-18
3.1986177e-18
3.609926e-18
3.9770046e-18
4.2848003e-18
4.5315725e-18
4.7317251e-18
4.8949113e-18
5.0312948e-18
5.1467496e-18
5.2434302e-18
5.3228166e-18
5.3865277e-18
5.4351453e-18
5.4680961e-18
5.4845178e-18
5.4850875e-18
5.4721634e-18
5.448536e-18
5.4168335e-18
5.3792239e-18
5.3374775e-18
5.2930479e-18
5.246995e-18
5.200078e-18
5.1528651e-18
5.1058119e-18
5.0592088e-18
5.0132349e-18
4.9679687e-18
4.923464e-18
4.8797988e-18
4.8367892e-18
4.7943825e-18
4.7520105e-18
4.7083315e-18
4.6675369e-18
4.6080151e-18
1.9365617e-07
1.9150095e-07
1.9160734e-07
1.9184768e-07
1.9198653e-07
1.9205072e-07
1.9208355e-07
1.9210396e-07
1.9211892e-07
1.9213121e-07
1.9214223e-07
1.9215286e-07
1.9216384e-07
1.9217584e-07
1.9218967e-07
1.9220613e-07
1.9222724e-07
1.9225179e-07
1.9229847e-07
1.9229784e-07
1.9261195e-07
1.9189963e-07
1.9101261e-07
1.1751674e-09
2.6307602e-16
3.3896436e-17
1.7189009e-17
1.1601824e-17
8.8810478e-18
7.2262656e-18
6.1068949e-18
5.2885287e-18
4.6626861e-18
4.1686414e-18
3.7667609e-18
3.4337006e-18
3.1536153e-18
2.9150929e-18
2.7093465e-18
2.5298904e-18
2.3718348e-18
2.2314569e-18
2.1059641e-18
1.9931464e-18
1.8911937e-18
1.7986328e-18
1.7142454e-18
1.6370197e-18
1.5661056e-18
1.5008041e-18
1.440148e-18
1.3837064e-18
1.3309735e-18
1.2814642e-18
1.2347652e-18
1.1908102e-18
1.1503368e-18
1.1138605e-18
1.0802184e-18
1.0488616e-18
1.0196561e-18
9.9249452e-19
9.6729053e-19
9.4397937e-19
9.2243101e-19
9.0253645e-19
8.8402492e-19
8.6690303e-19
8.5077951e-19
8.347323e-19
8.173477e-19
8.0215672e-19
7.9613155e-19
7.9341351e-19
7.936494e-19
7.9720204e-19
8.0446726e-19
8.1601906e-19
8.3236637e-19
8.535566e-19
8.7734751e-19
8.9882968e-19
9.4385947e-19
1.0043573e-18
1.0800186e-18
1.1746133e-18
1.2929802e-18
1.4412084e-18
1.6250822e-18
1.8394355e-18
2.0889516e-18
2.4544471e-18
2.9134232e-18
3.4868336e-18
4.1980776e-18
5.0688339e-18
6.1116438e-18
7.3278896e-18
8.7024966e-18
1.0167007e-17
1.1598309e-17
1.2881517e-17
1.3958565e-17
1.4826761e-17
1.553041e-17
1.6106219e-17
1.658823e-17
1.6996857e-17
1.7339692e-17
1.7622308e-17
1.7850679e-17
1.8026801e-17
1.8148714e-17
1.8213275e-17
1.8222585e-17
1.8184899e-17
1.8109982e-17
1.8006919e-17
1.7883295e-17
1.7745287e-17
1.759785e-17
1.7444626e-17
1.7288295e-17
1.7130829e-17
1.6973743e-17
1.6818035e-17
1.6664363e-17
1.6513044e-17
1.6364264e-17
1.6218313e-17
1.6074473e-17
1.5933139e-17
1.579128e-17
1.5647606e-17
1.5511486e-17
1.5312726e-17
1.9364779e-07
1.9148265e-07
1.9158984e-07
1.9183102e-07
1.9197038e-07
1.9203481e-07
1.9206777e-07
1.9208827e-07
1.9210329e-07
1.9211562e-07
1.9212668e-07
1.9213734e-07
1.9214835e-07
1.9216038e-07
1.9217424e-07
1.9219073e-07
1.9221187e-07
1.9223645e-07
1.9228318e-07
1.9228248e-07
1.9259691e-07
1.9188453e-07
1.9099829e-07
1.2027089e-09
3.3150087e-16
3.4709465e-17
1.7603189e-17
1.1888967e-17
9.1281574e-18
7.4534722e-18
6.318518e-18
5.4867162e-18
4.8495981e-18
4.3460125e-18
3.9335662e-18
3.5915224e-18
3.3050339e-18
3.0626571e-18
2.8546103e-18
2.673772e-18
2.5147462e-18
2.3736364e-18
2.2476784e-18
2.1347104e-18
2.0329422e-18
1.9409021e-18
1.8573689e-18
1.7813294e-18
1.7119245e-18
1.6484813e-18
1.5892878e-18
1.5340964e-18
1.4822727e-18
1.4331175e-18
1.3860443e-18
1.3414569e-18
1.3021876e-18
1.2703354e-18
1.2427227e-18
1.2180126e-18
1.1961217e-18
1.1770127e-18
1.1606809e-18
1.1471646e-18
1.1362901e-18
1.1280275e-18
1.1222199e-18
1.1190731e-18
1.1182408e-18
1.1185931e-18
1.118202e-18
1.1222614e-18
1.1415127e-18
1.168072e-18
1.2019685e-18
1.2443818e-18
1.2966731e-18
1.3606444e-18
1.4381929e-18
1.5305827e-18
1.635172e-18
1.7435563e-18
1.9039092e-18
2.1052905e-18
2.3505643e-18
2.6509537e-18
3.0209583e-18
3.4791253e-18
4.0446885e-18
4.7151508e-18
5.5071509e-18
6.6096628e-18
7.9893233e-18
9.708983e-18
1.1838443e-17
1.444263e-17
1.7559799e-17
2.1196137e-17
2.530994e-17
2.9701753e-17
3.4008263e-17
3.7884199e-17
4.1143906e-17
4.3778146e-17
4.5911938e-17
4.7658606e-17
4.9119402e-17
5.0356343e-17
5.1393223e-17
5.2248025e-17
5.2939573e-17
5.3474155e-17
5.3846043e-17
5.4045736e-17
5.4079363e-17
5.397177e-17
5.3752332e-17
5.3448298e-17
5.308249e-17
5.2673478e-17
5.2236064e-17
5.1781159e-17
5.1316842e-17
5.0849033e-17
5.0382232e-17
4.9919421e-17
4.9462612e-17
4.9012786e-17
4.8570504e-17
4.8136648e-17
4.7709e-17
4.72892e-17
4.6867324e-17
4.64421e-17
4.6037657e-17
4.5446973e-17
1.9363741e-07
1.9145987e-07
1.9156806e-07
1.9181031e-07
1.919503e-07
1.9201504e-07
1.9204816e-07
1.9206876e-07
1.9208385e-07
1.9209624e-07
1.9210734e-07
1.9211805e-07
1.9212909e-07
1.9214115e-07
1.9215505e-07
1.9217158e-07
1.9219275e-07
1.9221736e-07
1.9226416e-07
1.9226338e-07
1.925782e-07
1.9186574e-07
1.9098103e-07
1.2332369e-09
4.9082092e-16
3.7855904e-17
1.9203546e-17
1.2987793e-17
1.0036287e-17
8.2564401e-18
7.0450714e-18
6.1523306e-18
5.4660948e-18
4.92211e-18
4.4693766e-18
4.09334e-18
3.7812731e-18
3.5212991e-18
3.3007446e-18
3.1105979e-18
2.9440149e-18
2.7965411e-18
2.6653898e-18
2.5484486e-18
2.4439205e-18
2.3502962e-18
2.2663165e-18
2.1909422e-18
2.12328e-18
2.0627212e-18
2.0068979e-18
1.9554936e-18
1.907858e-18
1.8632548e-18
1.8210375e-18
1.7818935e-18
1.749951e-18
1.728438e-18
1.713158e-18
1.7024182e-18
1.6962739e-18
1.6948503e-18
1.6983368e-18
1.7070191e-18
1.7206097e-18
1.739277e-18
1.7631767e-18
1.7930196e-18
1.8286446e-18
1.868589e-18
1.9099687e-18
1.9616295e-18
2.0423998e-18
2.140345e-18
2.2565566e-18
2.3942482e-18
2.5571997e-18
2.7502849e-18
2.9789423e-18
3.2477607e-18
3.554283e-18
3.8837369e-18
4.3320537e-18
4.884156e-18
5.5519011e-18
6.3651447e-18
7.3625908e-18
8.594193e-18
1.0114107e-17
1.1934393e-17
1.4106999e-17
1.7057712e-17
2.0746394e-17
2.5341103e-17
3.1028243e-17
3.7981668e-17
4.6305023e-17
5.6018428e-17
6.7017283e-17
7.8779678e-17
9.0344238e-17
1.0078374e-16
1.0957894e-16
1.1669735e-16
1.224611e-16
1.2717765e-16
1.311177e-16
1.3444937e-16
1.3723891e-16
1.3953722e-16
1.413966e-16
1.428347e-16
1.4383654e-16
1.443767e-16
1.4447148e-16
1.4418756e-16
1.4360373e-16
1.4279302e-16
1.4181667e-16
1.4072447e-16
1.3955605e-16
1.3834064e-16
1.3709993e-16
1.3584979e-16
1.3460224e-16
1.3336527e-16
1.321443e-16
1.3094199e-16
1.2975983e-16
1.2860021e-16
1.2745713e-16
1.2633535e-16
1.2520759e-16
1.2407257e-16
1.2299172e-16
1.2141305e-16
1.936248e-07
1.9143207e-07
1.9154148e-07
1.9178504e-07
1.919258e-07
1.9199091e-07
1.9202424e-07
1.9204496e-07
1.9206013e-07
1.920726e-07
1.9208375e-07
1.9209451e-07
1.921056e-07
1.9211771e-07
1.9213164e-07
1.9214821e-07
1.9216944e-07
1.9219408e-07
1.9224097e-07
1.9224008e-07
1.9255538e-07
1.9184279e-07
1.9096088e-07
1.2673957e-09
8.2733619e-16
4.6001192e-17
2.3345683e-17
1.5827946e-17
1.2370675e-17
1.0311192e-17
8.8998855e-18
7.8501431e-18
7.0389897e-18
6.3935189e-18
5.852955e-18
5.4031956e-18
5.0311753e-18
4.7235312e-18
4.4647301e-18
4.2438788e-18
4.0515451e-18
3.881978e-18
3.7322102e-18
3.6001244e-18
3.4838111e-18
3.3815966e-18
3.29207e-18
3.2140805e-18
3.1466128e-18
3.0891703e-18
3.037941e-18
2.9923954e-18
2.9518622e-18
2.9155605e-18
2.8827477e-18
2.8546942e-18
2.8381201e-18
2.8385126e-18
2.8496848e-18
2.8692738e-18
2.8976485e-18
2.9353028e-18
2.9828676e-18
3.041194e-18
3.1097306e-18
3.1891152e-18
3.2802959e-18
3.3851763e-18
3.5041716e-18
3.6354029e-18
3.7743861e-18
3.9374814e-18
4.1597911e-18
4.42192e-18
4.7276434e-18
5.0848929e-18
5.5030929e-18
5.9942687e-18
6.5722285e-18
7.249816e-18
8.0271542e-18
8.8789435e-18
9.9975436e-18
1.1363812e-17
1.3012485e-17
1.5016772e-17
1.747178e-17
2.0500999e-17
2.4242147e-17
2.8755262e-17
3.4184047e-17
4.1445141e-17
5.0519182e-17
6.1819834e-17
7.5805849e-17
9.2905935e-17
1.1337787e-16
1.3727759e-16
1.6436075e-16
1.9336422e-16
2.2193957e-16
2.4779506e-16
2.696093e-16
2.8728347e-16
3.0158986e-16
3.1329232e-16
3.230582e-16
3.3130623e-16
3.3820491e-16
3.4388507e-16
3.4847929e-16
3.5203283e-16
3.545095e-16
3.558467e-16
3.5608464e-16
3.5538792e-16
3.5395103e-16
3.519542e-16
3.4954853e-16
3.4685698e-16
3.4397725e-16
3.4098147e-16
3.3792319e-16
3.3484159e-16
3.3176627e-16
3.2871696e-16
3.2570706e-16
3.2274314e-16
3.198289e-16
3.1697023e-16
3.1415229e-16
3.1138714e-16
3.086069e-16
3.0581016e-16
3.0314581e-16
2.9925422e-16
1.936097e-07
1.913986e-07
1.9150948e-07
1.9175463e-07
1.9189632e-07
1.9196189e-07
1.9199546e-07
1.9201633e-07
1.9203161e-07
1.9204416e-07
1.9205538e-07
1.920662e-07
1.9207734e-07
1.920895e-07
1.9210349e-07
1.9212011e-07
1.9214139e-07
1.9216608e-07
1.9221308e-07
1.9221205e-07
1.9252793e-07
1.9181514e-07
1.9093799e-07
1.3059622e-09
1.5037601e-15
6.5210701e-17
3.311283e-17
2.2517113e-17
1.7840425e-17
1.5100477e-17
1.3205617e-17
1.1778934e-17
1.0669111e-17
9.7817547e-18
9.0341277e-18
8.4109425e-18
7.8971531e-18
7.4755706e-18
7.1244258e-18
6.8287214e-18
6.5732671e-18
6.3493404e-18
6.1534594e-18
5.9834009e-18
5.8369322e-18
5.7119577e-18
5.6066842e-18
5.519676e-18
5.449618e-18
5.3962346e-18
5.352707e-18
5.3179639e-18
5.2913419e-18
5.2720597e-18
5.2592599e-18
5.2553741e-18
5.2720811e-18
5.3191993e-18
5.3868639e-18
5.4715379e-18
5.5742779e-18
5.6963823e-18
5.8394484e-18
6.0055677e-18
6.1936098e-18
6.4052725e-18
6.6433801e-18
6.9125102e-18
7.2146151e-18
7.547539e-18
7.9043701e-18
8.3163257e-18
8.8499724e-18
9.4729454e-18
1.0195339e-17
1.1035503e-17
1.2015379e-17
1.3162827e-17
1.4510403e-17
1.6090127e-17
1.7911607e-17
1.9933773e-17
2.2536472e-17
2.5701392e-17
2.9517337e-17
3.4153421e-17
3.9829699e-17
4.6833171e-17
5.5490452e-17
6.5992397e-17
7.870246e-17
9.5518084e-17
1.1652981e-16
1.4269614e-16
1.7508022e-16
2.146771e-16
2.6208906e-16
3.1745731e-16
3.8023978e-16
4.4754936e-16
5.1397666e-16
5.7419268e-16
6.2505566e-16
6.6629879e-16
6.9967529e-16
7.2696697e-16
7.4972299e-16
7.6892304e-16
7.8496796e-16
7.9817128e-16
8.088474e-16
8.1710468e-16
8.2286047e-16
8.2596987e-16
8.265263e-16
8.2491202e-16
8.2157882e-16
8.1694519e-16
8.1136207e-16
8.05115e-16
7.9843087e-16
7.9147717e-16
7.8437823e-16
7.7722507e-16
7.7008641e-16
7.6300807e-16
7.5602115e-16
7.4914097e-16
7.423761e-16
7.3574025e-16
7.2919889e-16
7.227803e-16
7.1632638e-16
7.0983544e-16
7.0365076e-16
6.9461726e-16
1.9359182e-07
1.9135872e-07
1.9147137e-07
1.9171844e-07
1.9186123e-07
1.9192735e-07
1.919612e-07
1.9198225e-07
1.9199766e-07
1.9201031e-07
1.9202162e-07
1.9203251e-07
1.9204371e-07
1.9205594e-07
1.9206998e-07
1.9208667e-07
1.9210802e-07
1.9213276e-07
1.9217987e-07
1.9217869e-07
1.9249526e-07
1.9178218e-07
1.9091263e-07
1.3498759e-09
2.8236189e-15
1.0692489e-16
5.4322311e-17
3.7036818e-17
2.969192e-17
2.5458657e-17
2.2505012e-17
2.0255174e-17
1.8494184e-17
1.7080168e-17
1.5884588e-17
1.4886678e-17
1.4065651e-17
1.3395675e-17
1.2842206e-17
1.238186e-17
1.19873e-17
1.1643424e-17
1.134557e-17
1.109121e-17
1.0877364e-17
1.0700995e-17
1.0559462e-17
1.0450695e-17
1.0372721e-17
1.0325717e-17
1.0296808e-17
1.0283661e-17
1.0285741e-17
1.0302455e-17
1.0332887e-17
1.0381728e-17
1.0469874e-17
1.0615218e-17
1.0801346e-17
1.1022769e-17
1.1282007e-17
1.1582062e-17
1.192658e-17
1.2320284e-17
1.2760823e-17
1.3252197e-17
1.3801452e-17
1.4418934e-17
1.5110334e-17
1.5874024e-17
1.6699844e-17
1.7647629e-17
1.8843194e-17
2.0232667e-17
2.1840286e-17
2.3706601e-17
2.5880317e-17
2.8423097e-17
3.14079e-17
3.4909239e-17
3.8963476e-17
4.3508881e-17
4.9280644e-17
5.6279255e-17
6.4714814e-17
7.4961075e-17
8.750496e-17
1.0298374e-16
1.2213403e-16
1.4546838e-16
1.7384804e-16
2.1108162e-16
2.5760457e-16
3.1554047e-16
3.8724524e-16
4.7492672e-16
5.7992835e-16
7.0258366e-16
8.4173539e-16
9.9105889e-16
1.1386271e-15
1.2725987e-15
1.3858684e-15
1.477774e-15
1.5521359e-15
1.612922e-15
1.6635705e-15
1.7062693e-15
1.7419253e-15
1.7712523e-15
1.7949599e-15
1.8132945e-15
1.8260754e-15
1.8329817e-15
1.8342209e-15
1.8306416e-15
1.8232468e-15
1.8129654e-15
1.8005763e-15
1.7867134e-15
1.7718803e-15
1.7564487e-15
1.7406947e-15
1.7248202e-15
1.7089778e-15
1.6932692e-15
1.6777634e-15
1.6624945e-15
1.6474815e-15
1.6327548e-15
1.6182378e-15
1.6039935e-15
1.5896704e-15
1.5752665e-15
1.5615412e-15
1.5414936e-15
1.9357085e-07
1.9131159e-07
1.9142633e-07
1.916757e-07
1.9181981e-07
1.9188657e-07
1.9192077e-07
1.9194204e-07
1.919576e-07
1.9197036e-07
1.9198177e-07
1.9199274e-07
1.9200403e-07
1.9201632e-07
1.9203044e-07
1.920472e-07
1.9206862e-07
1.9209343e-07
1.9214069e-07
1.9213932e-07
1.9245671e-07
1.9174318e-07
1.908853e-07
1.4002802e-09
5.3489326e-15
1.9377177e-16
9.8481279e-17
6.7262913e-17
5.4346809e-17
4.6992469e-17
4.1828169e-17
3.786162e-17
3.4743692e-17
3.2232976e-17
3.0108896e-17
2.833494e-17
2.6876285e-17
2.5688686e-17
2.4712258e-17
2.3907046e-17
2.322086e-17
2.2625406e-17
2.2113502e-17
2.1681932e-17
2.1326124e-17
2.1041058e-17
2.0822312e-17
2.0666487e-17
2.0570242e-17
2.0534682e-17
2.0534988e-17
2.0566038e-17
2.0627773e-17
2.072033e-17
2.0843e-17
2.1004795e-17
2.1243419e-17
2.1591535e-17
2.2021377e-17
2.2524363e-17
2.3106048e-17
2.3772957e-17
2.4532975e-17
2.5396271e-17
2.6357982e-17
2.7426964e-17
2.8619416e-17
2.9957775e-17
3.145629e-17
3.3116342e-17
3.4924339e-17
3.6994269e-17
3.9561542e-17
4.2538174e-17
4.5978935e-17
4.9970438e-17
5.4617081e-17
6.00508e-17
6.6429173e-17
7.3917691e-17
8.2619449e-17
9.2452006e-17
1.0481229e-16
1.1976907e-16
1.3779457e-16
1.5968771e-16
1.8649031e-16
2.1956976e-16
2.6052633e-16
3.1061387e-16
3.7177729e-16
4.5148494e-16
5.51078e-16
6.7510489e-16
8.2861303e-16
1.0163375e-15
1.2411721e-15
1.5038679e-15
1.802024e-15
2.1222217e-15
2.439016e-15
2.7269806e-15
2.9706394e-15
3.1684447e-15
3.3284673e-15
3.4592409e-15
3.5681412e-15
3.6598857e-15
3.7364512e-15
3.7994004e-15
3.8502764e-15
3.8896187e-15
3.917044e-15
3.9318657e-15
3.9345293e-15
3.9268557e-15
3.9109962e-15
3.8889438e-15
3.8623697e-15
3.8326337e-15
3.8008161e-15
3.7677145e-15
3.7339209e-15
3.6998689e-15
3.6658856e-15
3.6321891e-15
3.5989277e-15
3.5661744e-15
3.53397e-15
3.5023798e-15
3.4712393e-15
3.4406839e-15
3.4099594e-15
3.3790626e-15
3.3496205e-15
3.3066164e-15
1.9354644e-07
1.9125626e-07
1.9137348e-07
1.9162558e-07
1.9177123e-07
1.9183876e-07
1.9187337e-07
1.9189489e-07
1.9191063e-07
1.9192353e-07
1.9193505e-07
1.9194613e-07
1.9195751e-07
1.9196989e-07
1.9198409e-07
1.9200093e-07
1.9202245e-07
1.9204733e-07
1.9209476e-07
1.9209317e-07
1.9241153e-07
1.9169735e-07
1.9085669e-07
1.4585771e-09
1.0114434e-14
3.7005898e-16
1.8812434e-16
1.2861911e-16
1.0438148e-16
9.0683017e-17
8.1027528e-17
7.3575243e-17
6.7703355e-17
6.2967849e-17
5.8967081e-17
5.5625634e-17
5.2876928e-17
5.0638749e-17
4.8801884e-17
4.7294254e-17
4.6013846e-17
4.4905679e-17
4.3957423e-17
4.3164411e-17
4.2518807e-17
4.2011546e-17
4.1634589e-17
4.1381833e-17
4.1247164e-17
4.123358e-17
4.1293045e-17
4.1414478e-17
4.1599161e-17
4.1849301e-17
4.2165181e-17
4.2563989e-17
4.3113661e-17
4.3873534e-17
4.4796581e-17
4.5869562e-17
4.710421e-17
4.8514201e-17
5.0116022e-17
5.1930904e-17
5.3948911e-17
5.6188921e-17
5.8686416e-17
6.1488646e-17
6.4628625e-17
6.8117129e-17
7.1939207e-17
7.6310106e-17
8.1665471e-17
8.7865867e-17
9.5030163e-17
1.0333869e-16
1.1300944e-16
1.243175e-16
1.3759397e-16
1.5319418e-16
1.713761e-16
1.9205289e-16
2.1783895e-16
2.489918e-16
2.865348e-16
3.3213267e-16
3.879581e-16
4.568695e-16
5.4224617e-16
6.4697595e-16
7.7529501e-16
9.4159521e-16
1.1493846e-15
1.4081574e-15
1.728452e-15
2.1201634e-15
2.5893616e-15
3.1376778e-15
3.7602384e-15
4.4292593e-15
5.0918047e-15
5.6946877e-15
6.20515e-15
6.6197312e-15
6.9550813e-15
7.2290749e-15
7.457128e-15
7.6491436e-15
7.8093084e-15
7.9409437e-15
8.0473124e-15
8.1295605e-15
8.1868952e-15
8.2178842e-15
8.2234593e-15
8.2074267e-15
8.1742837e-15
8.1281957e-15
8.0726561e-15
8.0105072e-15
7.9440069e-15
7.8748225e-15
7.8041916e-15
7.7330203e-15
7.6619924e-15
7.5915639e-15
7.5220446e-15
7.4535872e-15
7.386277e-15
7.3202505e-15
7.2551639e-15
7.1913007e-15
7.1270834e-15
7.0625073e-15
7.0009707e-15
6.9110882e-15
1.9351825e-07
1.9119166e-07
1.9131179e-07
1.9156712e-07
1.9171459e-07
1.9178302e-07
1.9181811e-07
1.9183993e-07
1.9185589e-07
1.9186896e-07
1.9188061e-07
1.918918e-07
1.9190329e-07
1.9191577e-07
1.9193007e-07
1.9194701e-07
1.9196864e-07
1.9199361e-07
1.9204123e-07
1.9203938e-07
1.9235887e-07
1.9164378e-07
1.9082784e-07
1.5264983e-09
1.9016099e-14
7.2191505e-16
3.6706212e-16
2.5109221e-16
2.0424827e-16
1.7788238e-16
1.5926199e-16
1.4485393e-16
1.3348818e-16
1.2431588e-16
1.1658386e-16
1.1012766e-16
1.0481198e-16
1.004779e-16
9.6921326e-17
9.4008643e-17
9.1539332e-17
8.9405286e-17
8.7583864e-17
8.6067471e-17
8.4841725e-17
8.3889481e-17
8.3195466e-17
8.2748192e-17
8.2536023e-17
8.2565783e-17
8.2744745e-17
8.3049421e-17
8.3484412e-17
8.4057078e-17
8.477067e-17
8.565772e-17
8.6840027e-17
8.8424687e-17
9.0332583e-17
9.254391e-17
9.5082796e-17
9.7977216e-17
1.0126087e-16
1.0497713e-16
1.0910595e-16
1.1368655e-16
1.1879418e-16
1.2452617e-16
1.3095546e-16
1.3811719e-16
1.4600322e-16
1.550166e-16
1.6595579e-16
1.7860866e-16
1.932259e-16
2.1017569e-16
2.2990414e-16
2.5297362e-16
2.800652e-16
3.1192285e-16
3.4914729e-16
3.9170697e-16
4.4443752e-16
5.0805965e-16
5.8473135e-16
6.7785406e-16
7.9187022e-16
9.3263601e-16
1.1071336e-15
1.3217395e-15
1.5854292e-15
1.925583e-15
2.3506029e-15
2.8799172e-15
3.5350951e-15
4.3364046e-15
5.2963187e-15
6.4182864e-15
7.6925756e-15
9.0627274e-15
1.0420729e-14
1.1657545e-14
1.270535e-14
1.3556659e-14
1.4245201e-14
1.4807658e-14
1.5275613e-14
1.5669428e-14
1.5997775e-14
1.6267556e-14
1.6485518e-14
1.6654043e-14
1.677152e-14
1.6835021e-14
1.6846455e-14
1.6813621e-14
1.6745733e-14
1.6651323e-14
1.653755e-14
1.6410235e-14
1.6274006e-14
1.6132276e-14
1.5987584e-14
1.5841783e-14
1.5696277e-14
1.5551997e-14
1.5409581e-14
1.5269339e-14
1.5131448e-14
1.4996186e-14
1.486285e-14
1.473202e-14
1.4600465e-14
1.4468176e-14
1.4342112e-14
1.4157979e-14
1.9348587e-07
1.911166e-07
1.9124015e-07
1.9149927e-07
1.9164888e-07
1.9171836e-07
1.9175402e-07
1.9177619e-07
1.917924e-07
1.9180566e-07
1.9181747e-07
1.918288e-07
1.9184041e-07
1.9185301e-07
1.9186743e-07
1.9188449e-07
1.9190623e-07
1.919313e-07
1.9197915e-07
1.9197699e-07
1.9229782e-07
1.9158136e-07
1.9080021e-07
1.6062003e-09
3.5513198e-14
1.4158436e-15
7.2000379e-16
4.926645e-16
4.0123064e-16
3.4988183e-16
3.1358425e-16
2.8546316e-16
2.6326885e-16
2.4535369e-16
2.3028802e-16
2.1771281e-16
2.0734838e-16
1.98883e-16
1.9193153e-16
1.8624338e-16
1.8142524e-16
1.7726441e-16
1.7371792e-16
1.7077236e-16
1.6840042e-16
1.6656902e-16
1.6524861e-16
1.6441711e-16
1.6405203e-16
1.6416782e-16
1.6458636e-16
1.6525877e-16
1.6619734e-16
1.6742132e-16
1.6894152e-16
1.708191e-16
1.732712e-16
1.7648993e-16
1.8034362e-16
1.8480413e-16
1.8992017e-16
1.9574798e-16
2.0235535e-16
2.0982941e-16
2.1813028e-16
2.2733782e-16
2.3760799e-16
2.4913798e-16
2.620837e-16
2.7653793e-16
2.9252217e-16
3.1078588e-16
3.327813e-16
3.5820373e-16
3.8757072e-16
4.2162261e-16
4.6125824e-16
5.0760975e-16
5.6205544e-16
6.2612286e-16
7.0114673e-16
7.8731342e-16
8.9348894e-16
1.0214554e-15
1.1756697e-15
1.3629765e-15
1.5923207e-15
1.8755137e-15
2.2267389e-15
2.659648e-15
3.1928545e-15
3.8779679e-15
4.7340204e-15
5.8001584e-15
7.1198506e-15
8.7339702e-15
1.066774e-14
1.2928302e-14
1.5496467e-14
1.8259162e-14
2.0999288e-14
2.3496805e-14
2.5613674e-14
2.7334106e-14
2.8725476e-14
2.9861873e-14
3.0807002e-14
3.1602055e-14
3.2264691e-14
3.2808996e-14
3.3248693e-14
3.3588639e-14
3.3825614e-14
3.3953716e-14
3.3976801e-14
3.3910599e-14
3.3773691e-14
3.3583292e-14
3.3353835e-14
3.3097066e-14
3.2822315e-14
3.2536471e-14
3.2244649e-14
3.1950592e-14
3.1657127e-14
3.1366136e-14
3.1078902e-14
3.0796055e-14
3.0517948e-14
3.0245144e-14
2.9976223e-14
2.9712358e-14
2.9447028e-14
2.9180222e-14
2.8925969e-14
2.8554598e-14
1.9344891e-07
1.9102973e-07
1.9115727e-07
1.9142085e-07
1.9157294e-07
1.9164367e-07
1.9167999e-07
1.9170257e-07
1.9171907e-07
1.9173255e-07
1.9174456e-07
1.9175605e-07
1.917678e-07
1.9178054e-07
1.9179509e-07
1.9181228e-07
1.9183417e-07
1.9185935e-07
1.9190745e-07
1.9190494e-07
1.9222733e-07
1.9150883e-07
1.9077578e-07
1.7003889e-09
6.5891699e-14
2.7723558e-15
1.4100455e-15
9.6497743e-16
7.8637498e-16
6.8619454e-16
6.1535001e-16
5.6043254e-16
5.1708192e-16
4.8208884e-16
4.5272963e-16
4.2823325e-16
4.0802284e-16
3.9148554e-16
3.7789249e-16
3.6677182e-16
3.5735576e-16
3.4922748e-16
3.4230424e-16
3.365613e-16
3.3194606e-16
3.2839424e-16
3.2584844e-16
3.2426589e-16
3.2360295e-16
3.2388917e-16
3.2478401e-16
3.2618747e-16
3.2812871e-16
3.306533e-16
3.3378961e-16
3.3765206e-16