/*--------------------------------*- C++ -*----------------------------------*\
| =========                 |                                                 |
| \\      /  F ield         | OpenFOAM: The Open Source CFD Toolbox           |
|  \\    /   O peration     | Version:  2206                                  |
|   \\  /    A nd           | Website:  www.openfoam.com                      |
|    \\/     M anipulation  |                                                 |
\*---------------------------------------------------------------------------*/
FoamFile
{
    version     2.0;
    format      ascii;
    arch        "LSB;label=32;scalar=64";
    class       volScalarField;
    location    "1300";
    object      omega;
}
// * * * * * * * * * * * * * * * * * * * * * * * * * * * * * * * * * * * * * //

dimensions      [0 0 -1 0 0 0 0];

internalField   nonuniform List<scalar> 
13056
(
490.17911
402.50343
396.39428
395.71122
395.68735
395.64864
395.60693
395.57834
395.56154
395.55361
395.5529
395.55871
395.57095
395.59008
395.61694
395.65364
395.70166
395.77025
395.85006
396.02374
396.07678
396.45065
407.32316
19552.495
1.1944345e+09
1.1944345e+09
1.1944345e+09
1.1944345e+09
1.1944345e+09
1.1944345e+09
1.1944345e+09
1.1944345e+09
1.1944345e+09
1.1944345e+09
1.1944345e+09
1.1944345e+09
1.1944345e+09
1.1944345e+09
1.1944345e+09
1.1944345e+09
1.1944345e+09
1.1944345e+09
1.1944345e+09
1.1944345e+09
1.1944345e+09
1.1944345e+09
1.1944345e+09
1.1944345e+09
1.1944345e+09
1.1944345e+09
1.1944345e+09
1.1944345e+09
1.1944345e+09
1.1944345e+09
1.1944345e+09
1.1944345e+09
1.1944345e+09
1.1944345e+09
1.1944345e+09
1.1944345e+09
1.1944345e+09
1.1944345e+09
1.1944345e+09
1.1944345e+09
1.1944345e+09
1.1944345e+09
1.1944345e+09
1.1944345e+09
1.1944345e+09
1.1944345e+09
1.1944345e+09
1.1944345e+09
1.1944345e+09
1.1944345e+09
1.1944345e+09
1.1944345e+09
1.1944345e+09
1.1944345e+09
1.1944345e+09
1.1944345e+09
1.1944345e+09
1.1944345e+09
1.1944345e+09
1.1944345e+09
1.1944345e+09
1.1944345e+09
1.1944345e+09
1.1944345e+09
1.1944345e+09
1.1944345e+09
1.1944345e+09
1.1944345e+09
1.1944345e+09
1.1944345e+09
1.1944345e+09
1.1944345e+09
1.1944345e+09
1.1944345e+09
1.1944345e+09
1.1944345e+09
1.1944345e+09
1.1944345e+09
1.1944345e+09
1.1944345e+09
1.1944345e+09
1.1944345e+09
1.1944345e+09
1.1944345e+09
1.1944345e+09
1.1944345e+09
1.1944345e+09
1.1944345e+09
1.1944345e+09
1.1944345e+09
1.1944345e+09
1.1944345e+09
1.1944345e+09
1.1944345e+09
1.1944345e+09
1.1944345e+09
1.1944345e+09
1.1944345e+09
1.1944345e+09
1.1944345e+09
1.1944345e+09
1.1944345e+09
1.1944345e+09
1.1944345e+09
1.1944345e+09
1.1944345e+09
1.1944345e+09
1.1944345e+09
1.1944345e+09
1.1944345e+09
1.1944345e+09
1.1944345e+09
490.15836
402.46558
396.3557
395.67221
395.64823
395.60949
395.56776
395.53916
395.52236
395.51442
395.51371
395.51952
395.53176
395.55088
395.57775
395.61444
395.66246
395.73106
395.81087
395.98456
396.03761
396.41127
407.28212
19262.305
1.9586942e+08
1.9626968e+08
1.9626966e+08
1.9626966e+08
1.9626967e+08
1.9626968e+08
1.9626969e+08
1.962697e+08
1.9626971e+08
1.9626972e+08
1.9626973e+08
1.9626974e+08
1.9626975e+08
1.9626976e+08
1.9626977e+08
1.9626978e+08
1.9626979e+08
1.962698e+08
1.9626981e+08
1.9626982e+08
1.9626984e+08
1.9626985e+08
1.9626986e+08
1.9626988e+08
1.962699e+08
1.9626991e+08
1.9626993e+08
1.9626996e+08
1.9626998e+08
1.9627001e+08
1.9627004e+08
1.9627008e+08
1.9627011e+08
1.9627014e+08
1.9627018e+08
1.9627021e+08
1.9627025e+08
1.962703e+08
1.9627035e+08
1.962704e+08
1.9627046e+08
1.9627053e+08
1.9627061e+08
1.962707e+08
1.9627082e+08
1.9627096e+08
1.9627115e+08
1.9627136e+08
1.9627152e+08
1.962717e+08
1.9627191e+08
1.9627216e+08
1.9627245e+08
1.9627281e+08
1.9627326e+08
1.9627385e+08
1.9627475e+08
1.9627619e+08
1.9627714e+08
1.9627812e+08
1.9627933e+08
1.9628084e+08
1.9628275e+08
1.9628528e+08
1.9628898e+08
1.9629634e+08
1.963075e+08
1.9631265e+08
1.9631904e+08
1.9632694e+08
1.9633668e+08
1.9634864e+08
1.9636336e+08
1.9638185e+08
1.9640587e+08
1.9643727e+08
1.9647559e+08
1.9651607e+08
1.965508e+08
1.9657886e+08
1.9659875e+08
1.9661316e+08
1.96623e+08
1.9662949e+08
1.9663372e+08
1.9663663e+08
1.9663884e+08
1.9664063e+08
1.9664212e+08
1.966433e+08
1.9664418e+08
1.9664481e+08
1.9664524e+08
1.9664553e+08
1.966457e+08
1.966458e+08
1.9664583e+08
1.9664582e+08
1.9664577e+08
1.9664571e+08
1.9664562e+08
1.9664552e+08
1.9664541e+08
1.9664529e+08
1.9664518e+08
1.9664507e+08
1.9664495e+08
1.9664489e+08
1.9664475e+08
1.9664495e+08
1.9664488e+08
1.9664474e+08
490.09226
402.34688
396.23483
395.55005
395.52573
395.4869
395.44513
395.4165
395.39967
395.39172
395.391
395.3968
395.40903
395.42815
395.45502
395.49171
395.53974
395.60834
395.68815
395.86185
395.91495
396.28789
407.15691
18925.03
64128050
64221401
64221390
64221392
64221408
64221431
64221454
64221477
64221501
64221526
64221577
64221628
64221668
64221690
64221705
64221716
64221728
64221741
64221754
64221768
64221784
64221801
64221820
64221841
64221865
64221893
64221943
64222010
64222100
64222226
64222398
64222603
64222768
64222829
64222860
64222895
64222934
64222978
64223029
64223087
64223154
64223241
64223392
64223616
64223981
64224639
64225825
64227049
64227273
64227418
64227590
64227820
64228181
64228718
64229645
64231506
64236265
64247017
64249596
64250505
64251747
64253547
64256421
64261824
64275175
64324689
64411842
64416916
64423992
64434375
64450190
64475309
64516812
64588146
64713182
64921254
65218887
65560846
65864436
66110474
66281381
66399398
66472941
66513830
66533495
66541888
66545229
66546561
66547171
66547515
66547734
66547881
66547981
66548045
66548084
66548105
66548113
66548110
66548100
66548085
66548066
66548043
66548018
66547992
66547966
66547941
66547913
66547900
66547867
66547914
66547897
66547865
489.97874
402.1435
396.02778
395.3408
395.31589
395.2769
395.23505
395.20637
395.18951
395.18153
395.18079
395.18658
395.1988
395.21792
395.24479
395.28148
395.32951
395.39812
395.47793
395.65164
395.70484
396.07654
406.94339
18568.377
29320220
29342813
29342800
29342811
29342875
29342963
29343057
29343153
29343256
29343366
29343607
29343854
29344038
29344134
29344183
29344218
29344253
29344289
29344329
29344373
29344422
29344477
29344539
29344611
29344694
29344791
29345003
29345298
29345713
29346309
29347140
29348142
29348927
29349162
29349236
29349318
29349412
29349523
29349654
29349811
29349999
29350272
29350852
29351786
29353423
29356541
29362354
29368321
29369058
29369315
29369635
29370150
29371224
29373047
29376697
29384926
29407790
29461186
29472115
29473911
29476709
29481445
29490445
29510683
29569248
29809547
30238259
30240385
30242773
30246278
30251598
30260092
30274095
30298155
30340303
30410375
30510461
30625240
30726953
30809253
30866354
30905752
30930290
30943928
30950486
30953285
30954399
30954843
30955046
30955161
30955234
30955283
30955316
30955338
30955351
30955358
30955360
30955359
30955356
30955351
30955345
30955337
30955329
30955320
30955311
30955303
30955294
30955289
30955278
30955294
30955288
30955278
489.81457
401.84944
395.72841
395.03825
395.01251
394.97329
394.93133
394.90257
394.88566
394.87765
394.87688
394.88264
394.89486
394.91397
394.94083
394.97753
395.02556
395.09418
395.174
395.34772
395.40106
395.77096
406.63507
18196.332
16072808
16058362
16058349
16058388
16058595
16058885
16059193
16059512
16059854
16060223
16061040
16061880
16062503
16062823
16062978
16063085
16063189
16063301
16063422
16063557
16063708
16063879
16064075
16064301
16064564
16064875
16065578
16066567
16067969
16069989
16072816
16076233
16078894
16079661
16079868
16080098
16080366
16080684
16081064
16081524
16082086
16082925
16084814
16087903
16093396
16103968
16123792
16144123
16146421
16147024
16147798
16149180
16152406
16158111
16169541
16196327
16273026
16454347
16488326
16489096
16490295
16492325
16496181
16504852
16529933
16632674
16815272
16816175
16817190
16818680
16820940
16824549
16830498
16840718
16858614
16888349
16930781
16979385
17022406
17057182
17081292
17097918
17108270
17114023
17116788
17117969
17118438
17118626
17118712
17118760
17118791
17118811
17118825
17118834
17118840
17118843
17118844
17118844
17118842
17118840
17118837
17118834
17118831
17118827
17118823
17118820
17118816
17118814
17118809
17118816
17118814
17118809
489.5954
401.45658
395.32845
394.63403
394.60716
394.56763
394.52553
394.49667
394.47968
394.47162
394.47081
394.47656
394.48875
394.50785
394.53471
394.57142
394.61945
394.68809
394.76791
394.94165
394.99517
395.36267
406.2231
17807.856
9852665.1
9790171.6
9790163.1
9790264.7
9790801.5
9791555.2
9792362
9793202.1
9794108.3
9795087.8
9797294.1
9799563.9
9801237.7
9802082.6
9802472.5
9802729.4
9802978.5
9803245.2
9803538
9803864.6
9804233.2
9804653.5
9805137.1
9805699.3
9806359
9807144.5
9808996.5
9811626.6
9815380.6
9820816
9828451.1
9837692.5
9844859.1
9846834.7
9847263
9847737.6
9848300.6
9848975.7
9849795.4
9850804.9
9852056.4
9854028.7
9858816.8
9866824.3
9881322.4
9909605.4
9963068.7
10017797
10023009
10023308
10023691
10024377
10025976
10028805
10034470
10047744
10085719
10175271
10192006
10192385
10192976
10193976
10195876
10200149
10212505
10263064
10352669
10353111
10353609
10354338
10355446
10357214
10360129
10365135
10373900
10388457
10409216
10432976
10453989
10470964
10482727
10490837
10495884
10498689
10500037
10500612
10500841
10500933
10500974
10500998
10501013
10501023
10501030
10501034
10501037
10501038
10501039
10501039
10501038
10501037
10501036
10501034
10501032
10501031
10501029
10501027
10501025
10501024
10501022
10501025
10501024
10501022
489.31576
400.95467
394.81744
394.11755
394.08924
394.04932
394.00703
393.97805
393.96097
393.95284
393.95199
393.9577
393.96987
393.98896
394.01581
394.05252
394.10057
394.16922
394.24904
394.42281
394.47656
394.841
405.69627
17400.479
6536050.2
6404824.7
6404829.8
6405053.2
6406229.3
6407897.3
6409699.2
6411589.1
6413638.7
6415863.8
6420994.8
6426274.2
6430139.8
6432037.8
6432852.1
6433342.5
6433807.6
6434308.5
6434863.5
6435488.6
6436201.1
6437021.8
6437976.2
6439097.4
6440427.7
6442029.3
6446124.9
6452033.8
6460567.8
6473038.5
6490666.3
6512043.6
6528454.1
6532499.7
6532777.7
6533036.4
6533343.3
6533711.3
6534158.1
6534708.3
6535390.5
6536466
6539075.8
6543439.9
6551339.1
6566740.5
6595820.1
6625529
6628351.2
6628513.6
6628721.7
6629093.8
6629961.7
6631496.5
6634570.5
6641771.2
6662358.6
6710815.8
6719847.9
6720052.8
6720372.1
6720912.6
6721939.3
6724247.6
6730921.8
6758211.6
6806468.7
6806706.5
6806974.1
6807366.8
6807962.8
6808914.2
6810482.3
6813175.5
6817889.6
6825716.4
6836873
6849635
6860915.7
6870023.5
6876332.8
6880681
6883387.2
6884890.6
6885613.4
6885921.8
6886044.6
6886093.5
6886115.9
6886128.6
6886136.6
6886142
6886145.7
6886148
6886149.5
6886150.3
6886150.5
6886150.4
6886150.1
6886149.5
6886148.8
6886148
6886147
6886146.1
6886145.1
6886144.2
6886143.2
6886142.7
6886141.5
6886143.2
6886142.6
6886141.4
488.96914
400.33142
394.18281
393.47611
393.446
393.4056
393.36306
393.33392
393.31673
393.30852
393.30761
393.31328
393.32542
393.3445
393.37135
393.40806
393.45611
393.52479
393.60461
393.77842
393.83245
394.19311
405.04101
16971.333
4523572.5
4407956.9
4407986.1
4408398.4
4410580.6
4413724.5
4417169.9
4420823.9
4424820.5
4429186.9
4439782.3
4450674.2
4458499.1
4462054.9
4463227.8
4463633.3
4463917.5
4464209.7
4464532.5
4464896
4465310.3
4465787.5
4466342.4
4466994.4
4467767.8
4468698.9
4471081.6
4474516.7
4479476.6
4486721.7
4496956.3
4509355.5
4518860.5
4521199.3
4521360.2
4521510.1
4521687.9
4521901.1
4522160
4522478.8
4522874
4523497.6
4525009.8
4527538.2
4532113.9
4541031.7
4557854
4575010.5
4576636.2
4576729.9
4576850.1
4577065
4577566.2
4578452.4
4580227.5
4584384.8
4596265.5
4624186.1
4629377.4
4629495.3
4629679.1
4629990.2
4630581.1
4631909.6
4635750.6
4651446.8
4679150.7
4679286.9
4679440.5
4679665.8
4680007.7
4680553.6
4681453.2
4682998.2
4685702.2
4690190.4
4696585.9
4703898.3
4710359.2
4715573.6
4719184.8
4721673.2
4723221.6
4724081.8
4724495.3
4724671.8
4724742
4724770
4724782.8
4724790.1
4724794.7
4724797.8
4724799.9
4724801.2
4724802
4724802.5
4724802.6
4724802.6
4724802.4
4724802
4724801.6
4724801.2
4724800.6
4724800.1
4724799.5
4724799
4724798.4
4724798.2
4724797.5
4724798.5
4724798.1
4724797.4
488.54801
399.57245
393.40989
392.69485
392.66254
392.62153
392.57871
392.54937
392.53204
392.52373
392.52275
392.52837
392.54048
392.55953
392.58638
392.62309
392.67116
392.73987
392.81969
392.99354
393.04791
393.40403
404.24133
16517.586
3226072.7
3155655.7
3155650.1
3155898.8
3157226
3159138.7
3161234.7
3163457.4
3165887.9
3168542.8
3174976.7
3181592.1
3186342.4
3188500.5
3189212.3
3189458.3
3189630.8
3189808.1
3190004
3190224.5
3190476
3190765.5
3191102.3
3191497.9
3191967.2
3192532.3
3193979.1
3196063.6
3199072.7
3203466.8
3209670.6
3217180.1
3222929
3224340.8
3224438
3224528.7
3224636.3
3224765.3
3224922
3225114.9
3225354.1
3225731.7
3226646.9
3228177
3230945.8
3236340.2
3246508.4
3256862
3257840.5
3257897
3257969.6
3258099.3
3258401.8
3258936.8
3260008.1
3262517.2
3269685
3286507.8
3289628
3289699
3289809.6
3289996.9
3290352.6
3291152.5
3293464.7
3302909.8
3319552.9
3319634.7
3319726.9
3319862.2
3320067.5
3320395.3
3320935.6
3321863.3
3323486.8
3326181
3330019
3334405.7
3338280.3
3341406.3
3343570.9
3345062.2
3345990.1
3346505.5
3346753.3
3346859
3346901.1
3346917.8
3346925.5
3346929.9
3346932.6
3346934.5
3346935.7
3346936.5
3346937
3346937.3
3346937.4
3346937.3
3346937.2
3346937
3346936.8
3346936.5
3346936.2
3346935.9
3346935.5
3346935.2
3346934.9
3346934.7
3346934.3
3346934.9
3346934.7
3346934.3
488.04386
398.66134
392.48187
391.75676
391.72179
391.68005
391.63687
391.6073
391.5898
391.58137
391.5803
391.58586
391.59793
391.61696
391.6438
391.68052
391.7286
391.79735
391.87717
392.05108
392.10585
392.45658
403.27877
16036.637
2351459.7
2307132.9
2307103.6
2307257
2308089
2309288.7
2310603.6
2311997.7
2313522.1
2315186.9
2319216.1
2323360.6
2326335.6
2327686.7
2328132.3
2328286.3
2328394.3
2328505.3
2328627.9
2328766
2328923.4
2329104.7
2329315.5
2329563.2
2329857
2330210.8
2331117.3
2332422.4
2334306.2
2337056.2
2340937
2345630.9
2349219.6
2350099.1
2350159.7
2350216.4
2350283.6
2350364.2
2350462
2350582.6
2350732
2350968.1
2351539.8
2352495.8
2354225.4
2357594.4
2363940.5
2370392.8
2371000.8
2371036.1
2371081.3
2371162.2
2371350.8
2371684.3
2372352.2
2373916.2
2378383.3
2388855.2
2390792.7
2390836.9
2390905.7
2391022.2
2391243.5
2391741.1
2393179.5
2399053.4
2409388.2
2409438.8
2409496.1
2409580.1
2409707.6
2409911.1
2410246.5
2410822.4
2411830.1
2413502.3
2415883.8
2418604.8
2421007.6
2422945.6
2424287.4
2425211.7
2425786.7
2426106.2
2426259.7
2426325.2
2426351.3
2426361.7
2426366.5
2426369.1
2426370.9
2426372
2426372.8
2426373.3
2426373.6
2426373.8
2426373.8
2426373.8
2426373.7
2426373.6
2426373.4
2426373.3
2426373.1
2426372.9
2426372.7
2426372.5
2426372.2
2426372.1
2426371.9
2426372.3
2426372.1
2426371.9
487.44724
397.57959
391.37981
390.64266
390.60451
390.56188
390.51828
390.48843
390.47073
390.46215
390.46098
390.46646
390.47849
390.49749
390.52432
390.56105
390.60914
390.67794
390.75776
390.93175
390.98698
391.33145
402.13233
15526.249
1741922.5
1713293.3
1713246
1713341.6
1713874.6
1714644.4
1715488.1
1716382.8
1717360.9
1718429.1
1721010.9
1723668
1725574.7
1726440.5
1726725.9
1726824.6
1726893.7
1726964.8
1727043.4
1727131.9
1727232.7
1727348.9
1727484
1727642.7
1727831
1728057.6
1728639
1729475.4
1730682.5
1732444.3
1734929.5
1737933.2
1740226.7
1740787.6
1740826.3
1740862.5
1740905.5
1740957.1
1741019.6
1741096.7
1741192.3
1741343.4
1741709.2
1742320.7
1743427.1
1745581.7
1749638
1753756.2
1754143.2
1754165.7
1754194.5
1754246.2
1754366.6
1754579.6
1755006.1
1756004.8
1758856.7
1765535.2
1766767.9
1766796
1766839.9
1766914.2
1767055.3
1767372.4
1768289.4
1772033
1778610.3
1778642.5
1778679
1778732.4
1778813.5
1778943
1779156.5
1779523
1780164.2
1781228
1782742.8
1784473.2
1786000.8
1787232.7
1788085.5
1788672.9
1789038.3
1789241.3
1789338.8
1789380.5
1789397
1789403.6
1789406.7
1789408.4
1789409.5
1789410.2
1789410.7
1789411
1789411.2
1789411.3
1789411.3
1789411.3
1789411.3
1789411.2
1789411.1
1789411
1789410.9
1789410.7
1789410.6
1789410.5
1789410.3
1789410.3
1789410.1
1789410.4
1789410.3
1789410.1
486.74782
396.30659
390.08258
389.33119
389.28924
389.24555
389.20145
389.17126
389.15332
389.14457
389.14327
389.14867
389.16064
389.17961
389.20642
389.24316
389.29128
389.36013
389.43996
389.61403
389.66979
390.0071
400.7783
14984.669
1306229.2
1287348.2
1287285.7
1287344.8
1287691.7
1288193.9
1288744.6
1289328.6
1289967.2
1290664.4
1292347.7
1294081.1
1295324.6
1295889.2
1296075.3
1296139.6
1296184.6
1296231
1296282.2
1296339.9
1296405.6
1296481.4
1296569.4
1296672.9
1296795.7
1296943.5
1297323
1297868.5
1298655.7
1299804.5
1301424.4
1303380.9
1304872.9
1305236.9
1305262.1
1305285.7
1305313.7
1305347.2
1305388
1305438.2
1305500.4
1305598.9
1305837.1
1306235.3
1306955.8
1308358.7
1310998.5
1313674.8
1313925.5
1313940.2
1313958.9
1313992.5
1314070.8
1314209.3
1314486.7
1315136.1
1316990.3
1321328.3
1322127
1322145.2
1322173.7
1322221.9
1322313.5
1322519.5
1323114.9
1325545.3
1329809.8
1329830.7
1329854.3
1329889
1329941.6
1330025.5
1330163.9
1330401.5
1330817.2
1331506.9
1332488.6
1333609.9
1334599.6
1335397.5
1335949.8
1336330.2
1336566.8
1336698.3
1336761.4
1336788.4
1336799.1
1336803.4
1336805.4
1336806.5
1336807.2
1336807.7
1336808
1336808.2
1336808.3
1336808.4
1336808.4
1336808.4
1336808.3
1336808.3
1336808.2
1336808.2
1336808.1
1336808
1336807.9
1336807.8
1336807.7
1336807.7
1336807.6
1336807.7
1336807.7
1336807.6
485.93441
394.8196
388.56686
387.7987
387.75224
387.70731
387.66261
387.63202
387.6138
387.60484
387.6034
387.60869
387.62059
387.63952
387.66632
387.70307
387.75121
387.82013
387.89996
388.07415
388.13051
388.45976
399.19014
14410.735
988684.84
976007.39
975931.01
975966.32
976194.48
976526.12
976890.15
977276.34
977698.64
978159.79
979271.75
980417.65
981239.54
981612.59
981735.52
981777.97
981807.71
981838.31
981872.13
981910.23
981953.67
982003.71
982061.91
982130.3
982211.43
982309.1
982560.15
982920.77
983441.13
984200.33
985270.56
986562.3
987546.16
987785.66
987802.23
987817.79
987836.25
987858.4
987885.3
987918.42
987959.48
988024.55
988181.82
988444.74
988920.38
989846.42
991588.09
993351.52
993516.24
993525.89
993538.25
993560.42
993612.04
993703.34
993886.2
994314.42
995536.87
998394.23
998919.03
998931.07
998949.82
998981.56
999041.88
999177.52
999569.66
1001170
1003974.5
1003988.2
1004003.7
1004026.5
1004061.1
1004116.3
1004207.4
1004363.6
1004637
1005090.5
1005736
1006473
1007123.5
1007647.8
1008010.8
1008260.7
1008416.2
1008502.5
1008544
1008561.7
1008568.8
1008571.6
1008572.9
1008573.6
1008574.1
1008574.4
1008574.6
1008574.7
1008574.8
1008574.9
1008574.9
1008574.9
1008574.8
1008574.8
1008574.8
1008574.7
1008574.7
1008574.6
1008574.5
1008574.5
1008574.4
1008574.4
1008574.3
1008574.4
1008574.4
1008574.3
484.99508
393.09375
386.80704
386.0193
385.9675
385.92109
385.87569
385.84463
385.82607
385.81688
385.81526
385.82043
385.83225
385.85114
385.87792
385.91468
385.96285
386.03184
386.11169
386.28602
386.34304
386.66343
397.33838
13803.996
753741.51
745088.8
744998.77
745018.01
745168.9
745389.79
745632.67
745890.51
746172.56
746480.59
747222.61
747987.9
748536.69
748785.71
748867.73
748896.02
748915.84
748936.23
748958.78
748984.19
749013.17
749046.57
749085.41
749131.06
749185.22
749250.43
749418.24
749659.1
750006.63
750513.62
751228.09
752089.9
752745.48
752904.69
752915.71
752926.08
752938.39
752953.16
752971.09
752993.18
753020.57
753064.01
753168.93
753344.34
753661.68
754279.44
755440.83
756615.18
756724.53
756730.96
756739.19
756753.97
756788.36
756849.2
756971.07
757256.46
758071.11
759973.66
760322.23
760330.24
760342.72
760363.85
760404
760494.3
760755.37
761820.71
763685.42
763694.51
763704.84
763719.99
763742.99
763779.72
763840.24
763944.15
764125.95
764427.47
764856.59
765346.5
765778.79
766127.2
766368.36
766534.42
766637.71
766695.08
766722.66
766734.42
766739.11
766740.97
766741.83
766742.31
766742.62
766742.83
766742.97
766743.05
766743.11
766743.14
766743.15
766743.14
766743.13
766743.1
766743.07
766743.04
766743
766742.97
766742.93
766742.89
766742.85
766742.83
766742.78
766742.85
766742.82
766742.78
483.91727
391.10198
384.77528
383.96473
383.90666
383.85849
383.81227
383.78067
383.76172
383.75224
383.75041
383.75544
383.76717
383.786
383.81276
383.84954
383.89774
383.96682
384.04668
384.2212
384.27895
384.58984
395.19039
13164.812
577863.2
571862.51
571758.45
571766.41
571866.16
572014.05
572177.12
572350.47
572540.21
572747.51
573246.54
573761.66
574130.98
574298.51
574353.64
574372.62
574385.9
574399.58
574414.72
574431.79
574451.26
574473.71
574499.84
574530.54
574566.98
574610.86
574723.92
574886.08
575120.06
575461.36
575942.2
576521.85
576962.24
577068.94
577076.33
577083.29
577091.56
577101.48
577113.54
577128.38
577146.79
577176.03
577246.6
577364.59
577578.05
577993.56
578774.41
579562.96
579636.16
579640.47
579645.99
579655.92
579679.03
579719.91
579801.81
579993.6
580541.04
581818.53
582052.01
582057.38
582065.75
582079.94
582106.89
582167.52
582342.81
583058.05
584308.53
584314.62
584321.54
584331.7
584347.12
584371.75
584412.35
584482.05
584603.98
584806.19
585093.95
585422.42
585712.22
585945.75
586107.4
586218.69
586287.92
586326.37
586344.86
586352.74
586355.88
586357.13
586357.71
586358.03
586358.24
586358.38
586358.47
586358.53
586358.56
586358.58
586358.59
586358.58
586358.57
586358.55
586358.53
586358.51
586358.48
586358.46
586358.43
586358.41
586358.38
586358.37
586358.33
586358.37
586358.36
586358.32
482.68791
388.81513
382.44146
381.60445
381.53901
381.48879
381.44161
381.40936
381.38995
381.38014
381.37807
381.38294
381.39455
381.41332
381.44006
381.47685
381.52509
381.59428
381.67416
381.8489
381.90743
382.20852
392.71033
12494.456
444987.15
440756.67
440637.77
440637.38
440702.78
440801.92
440911.79
441028.85
441157.15
441297.42
441635.01
441983.84
442233.88
442347.25
442384.5
442397.28
442406.21
442415.42
442425.62
442437.14
442450.29
442465.46
442483.13
442503.9
442528.55
442558.25
442634.9
442744.76
442903.28
443134.48
443460.13
443852.47
444150.19
444222.15
444227.12
444231.83
444237.41
444244.12
444252.26
444262.3
444274.76
444294.56
444342.32
444422.2
444566.7
444847.97
445376.37
445909.3
445958.61
445961.52
445965.25
445971.97
445987.59
446015.24
446070.63
446200.37
446570.66
447434.11
447591.53
447595.16
447600.81
447610.39
447628.61
447669.58
447788.06
448271.47
449115.67
449119.78
449124.45
449131.3
449141.72
449158.35
449185.76
449232.83
449315.16
449451.7
449645.98
449867.71
450063.32
450220.93
450330.02
450405.13
450451.85
450477.79
450490.27
450495.59
450497.71
450498.56
450498.94
450499.16
450499.3
450499.39
450499.45
450499.49
450499.52
450499.53
450499.53
450499.53
450499.52
450499.5
450499.49
450499.47
450499.45
450499.44
450499.42
450499.4
450499.38
450499.37
450499.34
450499.37
450499.36
450499.33
481.29364
386.20196
379.77323
378.90564
378.83157
378.77894
378.73062
378.69762
378.67768
378.66748
378.66514
378.66981
378.68129
378.69998
378.72669
378.76351
378.81179
378.88111
378.96101
379.13604
379.19538
379.48691
389.85895
11795.19
343872.45
340837.03
340702.12
340695.16
340737.11
340803.33
340877.38
340956.58
341043.58
341138.82
341368.21
341605.51
341775.57
341852.6
341877.85
341886.45
341892.45
341898.65
341905.53
341913.32
341922.22
341932.51
341944.49
341958.59
341975.35
341995.54
342047.74
342122.53
342230.44
342387.83
342609.47
342876.36
343078.63
343127.38
343130.75
343133.93
343137.72
343142.26
343147.79
343154.61
343163.07
343176.54
343209.03
343263.37
343361.69
343553.06
343912.44
344274.45
344307.84
344309.81
344312.34
344316.9
344327.52
344346.31
344383.96
344472.17
344723.93
345310.57
345417.26
345419.72
345423.56
345430.06
345442.43
345470.26
345550.76
345879.21
346452.16
346454.94
346458.1
346462.76
346469.82
346481.11
346499.72
346531.68
346587.57
346680.26
346812.14
346962.62
347095.38
347202.32
347276.35
347327.31
347359.01
347376.62
347385.08
347388.7
347390.14
347390.71
347390.97
347391.12
347391.22
347391.28
347391.32
347391.34
347391.36
347391.36
347391.36
347391.36
347391.35
347391.34
347391.33
347391.32
347391.3
347391.29
347391.27
347391.26
347391.25
347391.24
347391.22
347391.24
347391.23
347391.21
479.72108
383.22933
376.73612
375.83326
375.74912
375.69367
375.64403
375.61016
375.58959
375.57894
375.57628
375.58071
375.59204
375.61065
375.63733
375.67417
375.7225
375.79197
375.87191
376.04729
376.10746
376.39018
386.59395
11070.321
266487.97
264268.06
264115.71
264103.15
264128.81
264172.54
264222.21
264275.73
264334.75
264399.51
264555.86
264717.81
264833.84
264886.32
264903.44
264909.21
264913.21
264917.36
264921.99
264927.24
264933.27
264940.24
264948.39
264957.98
264969.39
264983.15
265018.83
265069.92
265143.66
265251.22
265402.65
265584.9
265722.86
265756.02
265758.29
265760.45
265763.02
265766.11
265769.87
265774.51
265780.28
265789.47
265811.66
265848.77
265915.92
266046.64
266292.05
266538.95
266561.64
266562.98
266564.7
266567.8
266575.04
266587.86
266613.56
266673.77
266845.65
267245.86
267318.47
267320.14
267322.75
267327.18
267335.61
267354.59
267409.52
267633.6
268024.09
268025.98
268028.13
268031.3
268036.12
268043.81
268056.5
268078.29
268116.4
268179.6
268269.5
268372.08
268462.56
268535.45
268585.9
268620.64
268642.24
268654.24
268660.01
268662.47
268663.46
268663.85
268664.03
268664.13
268664.19
268664.23
268664.26
268664.28
268664.28
268664.29
268664.29
268664.28
268664.27
268664.26
268664.25
268664.24
268664.23
268664.22
268664.21
268664.2
268664.18
268664.18
268664.16
268664.17
268664.16
268664.15
477.9572
379.86237
373.29374
372.35033
372.25444
372.19567
372.14451
372.10962
372.08832
372.07715
372.0741
372.07827
372.08942
372.10792
372.13456
372.17143
372.21982
372.28947
372.36945
372.54527
372.60624
372.88161
382.86987
10324.209
206997.23
205340.16
205168.68
205150.99
205165.03
205193.18
205226.12
205262.05
205301.97
205345.95
205452.69
205563.44
205642.75
205678.54
205690.12
205693.94
205696.56
205699.3
205702.38
205705.9
205709.96
205714.67
205720.2
205726.72
205734.49
205743.88
205768.33
205803.32
205853.85
205927.56
206031.34
206156.18
206250.55
206273.17
206274.7
206276.15
206277.89
206279.99
206282.55
206285.71
206289.64
206295.93
206311.12
206336.54
206382.54
206472.11
206640.23
206809.16
206824.63
206825.53
206826.7
206828.81
206833.76
206842.53
206860.12
206901.36
207019.07
207293
207342.56
207343.7
207345.48
207348.5
207354.27
207367.26
207404.85
207558.24
207825.27
207826.56
207828.02
207830.19
207833.48
207838.74
207847.42
207862.33
207888.41
207931.65
207993.15
208063.32
208125.22
208175.07
208209.58
208233.34
208248.12
208256.33
208260.27
208261.96
208262.63
208262.9
208263.03
208263.1
208263.14
208263.17
208263.18
208263.19
208263.19
208263.19
208263.19
208263.18
208263.17
208263.17
208263.16
208263.15
208263.14
208263.13
208263.11
208263.1
208263.09
208263.09
208263.08
208263.08
208263.07
208263.05
475.98975
376.0649
369.40806
368.4181
368.30853
368.24589
368.19293
368.15686
368.13473
368.12294
368.11945
368.1233
368.13425
368.15263
368.17922
368.21611
368.26458
368.33444
368.41447
368.59085
368.65252
368.92287
378.63832
9562.233
161098.87
159835.57
159643.1
159620.3
159625.78
159642.94
159664.23
159688.01
159714.78
159744.5
159817.36
159893.14
159947.37
159971.74
159979.5
159981.96
159983.62
159985.38
159987.38
159989.7
159992.4
159995.56
159999.28
160003.7
160008.98
160015.38
160032.15
160056.16
160090.85
160141.47
160212.75
160298.45
160363.16
160378.61
160379.63
160380.6
160381.77
160383.19
160384.92
160387.07
160389.75
160394.06
160404.47
160421.92
160453.51
160515.03
160630.48
160746.36
160756.93
160757.53
160758.32
160759.76
160763.14
160769.15
160781.22
160809.53
160890.36
161078.33
161112.26
161113.03
161114.24
161116.31
161120.26
161129.16
161154.96
161260.24
161443.32
161444.2
161445.2
161446.68
161448.94
161452.55
161458.51
161468.74
161486.64
161516.31
161558.51
161606.65
161649.11
161683.32
161706.99
161723.29
161733.43
161739.07
161741.78
161742.94
161743.4
161743.59
161743.67
161743.72
161743.75
161743.77
161743.78
161743.78
161743.78
161743.77
161743.77
161743.76
161743.75
161743.74
161743.73
161743.72
161743.71
161743.7
161743.69
161743.68
161743.67
161743.66
161743.65
161743.65
161743.64
161743.63
473.80789
371.79983
365.03983
363.99652
363.87105
363.80387
363.74883
363.71139
363.68827
363.67577
363.67176
363.67525
363.68595
363.70419
363.73073
363.76765
363.8162
363.88631
363.9664
364.14347
364.20568
364.47451
373.84825
8790.7033
125586.44
124603.68
124388.17
124359.97
124358.82
124368.03
124381.07
124396.34
124413.97
124433.82
124483.44
124535.22
124572.23
124588.73
124593.84
124595.33
124596.3
124597.36
124598.6
124600.08
124601.82
124603.9
124606.38
124609.34
124612.9
124617.24
124628.73
124645.21
124669.05
124703.86
124752.9
124811.84
124856.28
124866.83
124867.5
124868.13
124868.91
124869.85
124871.02
124872.47
124874.29
124877.23
124884.38
124896.36
124918.09
124960.43
125039.87
125119.5
125126.73
125127.13
125127.65
125128.63
125130.94
125135.06
125143.36
125162.82
125218.43
125347.69
125370.95
125371.47
125372.29
125373.71
125376.41
125382.53
125400.26
125472.67
125598.47
125599.07
125599.75
125600.77
125602.32
125604.8
125608.9
125615.95
125628.26
125648.68
125677.71
125710.82
125740.04
125763.56
125779.85
125791.07
125798.05
125801.92
125803.79
125804.59
125804.92
125805.04
125805.1
125805.13
125805.15
125805.16
125805.17
125805.16
125805.16
125805.15
125805.15
125805.14
125805.13
125805.11
125805.1
125805.09
125805.08
125805.07
125805.06
125805.05
125805.04
125805.03
125805.02
125805.01
125805
125804.98
471.40284
367.02987
360.14916
359.04482
358.90084
358.82835
358.77088
358.73185
358.70759
358.69426
358.68965
358.69272
358.70313
358.7212
358.74767
358.78463
358.83327
358.90366
358.98384
359.16176
359.22425
359.49651
368.44649
8016.7127
98047.202
97269.619
97028.935
96994.74
96988.119
96991.367
96998.412
97007.612
97018.784
97031.719
97065.305