/*--------------------------------*- C++ -*----------------------------------*\
| =========                 |                                                 |
| \\      /  F ield         | OpenFOAM: The Open Source CFD Toolbox           |
|  \\    /   O peration     | Version:  2206                                  |
|   \\  /    A nd           | Website:  www.openfoam.com                      |
|    \\/     M anipulation  |                                                 |
\*---------------------------------------------------------------------------*/
FoamFile
{
    version     2.0;
    format      ascii;
    arch        "LSB;label=32;scalar=64";
    class       volScalarField;
    location    "1300";
    object      p;
}
// * * * * * * * * * * * * * * * * * * * * * * * * * * * * * * * * * * * * * //

dimensions      [0 2 -2 0 0 0 0];

internalField   nonuniform List<scalar> 
13056
(
0.012027276
0.012131211
0.012351206
0.012631925
0.012972074
0.013371911
0.013829562
0.014344233
0.014917259
0.015551879
0.01625311
0.017028097
0.017886718
0.018842949
0.019915747
0.021134494
0.022535866
0.024196327
0.026175519
0.028768193
0.031888308
0.037347599
0.042426955
0.08078408
0.05114733
0.0023403865
0.0010123797
0.0018854689
0.002435376
0.0028805096
0.0031523134
0.0033426231
0.0034876145
0.00359252
0.0036666051
0.003719736
0.003758215
0.0037856435
0.0038043825
0.0038164493
0.0038232675
0.0038257348
0.0038246648
0.0038207171
0.0038143019
0.0038057488
0.003795342
0.0037833017
0.0037698124
0.0037550014
0.0037389535
0.0037217522
0.0037034587
0.003684124
0.0036637914
0.0036424657
0.0036201412
0.003596821
0.0035724959
0.0035471473
0.003520753
0.0034932862
0.0034646918
0.0034348977
0.0034038338
0.003371424
0.0033375938
0.0033022586
0.0032653297
0.003226724
0.0031863427
0.0031440647
0.0030997725
0.003053356
0.0030047014
0.002953734
0.002900399
0.0028447287
0.0027867739
0.0027265339
0.0026642201
0.0026000714
0.0025344177
0.0024680812
0.0024023151
0.0023389273
0.0022805611
0.0022312405
0.0021955229
0.0021754815
0.0021846402
0.0022271786
0.0023028492
0.002424573
0.0025970426
0.0028214267
0.0030925825
0.0034030861
0.003745055
0.0040750516
0.0043418277
0.0045074332
0.0045786072
0.004555751
0.0044574004
0.0043339299
0.0041922001
0.0040421882
0.0038896915
0.0037340016
0.0035781947
0.0034204966
0.0032571668
0.0030923767
0.0029278333
0.0027647943
0.0026052744
0.0024483095
0.0022926218
0.0021411029
0.0019936355
0.0018485913
0.0017063716
0.0015686019
0.0014352543
0.0013047936
0.0011779458
0.0010553654
0.00093925206
0.00082922471
0.00072775631
0.00063134246
0.0005690504
0.00048217086
0.00066751876
-0.00051338401
0.012027276
0.012131211
0.012351206
0.012631925
0.012972074
0.013371911
0.013829563
0.014344233
0.01491726
0.01555188
0.01625311
0.017028098
0.017886718
0.01884295
0.019915749
0.021134496
0.022535868
0.02419633
0.026175523
0.028768199
0.031888315
0.037347614
0.04242699
0.080779283
0.051158614
0.0023476052
0.0010142275
0.0018863053
0.0024358885
0.0028808699
0.0031525859
0.0033428396
0.0034877918
0.0035926685
0.0036667318
0.0037198458
0.0037583112
0.0037857286
0.0038044584
0.0038165175
0.0038233291
0.0038257907
0.0038247159
0.003820764
0.003814345
0.0038057886
0.0037953789
0.0037833359
0.0037698442
0.0037550311
0.0037389813
0.0037217782
0.0037034831
0.003684147
0.003663813
0.0036424861
0.0036201604
0.0035968391
0.003572513
0.0035471635
0.0035207684
0.0034933008
0.0034647056
0.0034349108
0.0034038462
0.0033714358
0.003337605
0.0033022693
0.0032653398
0.0032267336
0.0031863518
0.0031440733
0.0030997808
0.0030533638
0.0030047088
0.002953741
0.0029004056
0.002844735
0.0027867797
0.0027265394
0.0026642252
0.0026000761
0.002534422
0.0024680852
0.0024023187
0.0023389304
0.0022805637
0.0022312427
0.0021955245
0.0021754824
0.0021846404
0.0022271781
0.0023028479
0.0024245709
0.0025970396
0.0028214227
0.0030925777
0.0034030806
0.003745049
0.0040750454
0.0043418219
0.0045074281
0.004578603
0.0045557481
0.0044573983
0.0043339284
0.0041921991
0.0040421876
0.003889691
0.0037340013
0.0035781946
0.0034204966
0.0032571669
0.0030923769
0.0029278336
0.0027647946
0.0026052748
0.0024483099
0.0022926223
0.0021411034
0.001993636
0.0018485918
0.0017063721
0.0015686024
0.0014352547
0.0013047941
0.0011779462
0.0010553658
0.00093925253
0.00082922517
0.00072775677
0.00063134292
0.0005690509
0.0004821714
0.00066751931
-0.00051338366
0.012027276
0.012131211
0.012351206
0.012631926
0.012972074
0.013371911
0.013829563
0.014344233
0.01491726
0.01555188
0.016253111
0.017028098
0.017886719
0.018842951
0.01991575
0.021134498
0.02253587
0.024196333
0.026175527
0.028768206
0.031888323
0.037347631
0.042427015
0.080774438
0.051174125
0.0023546091
0.0010164188
0.0018873055
0.0024365013
0.0028813008
0.0031529117
0.0033430986
0.0034880039
0.0035928461
0.0036668833
0.003719977
0.0037584261
0.0037858303
0.0038045491
0.003816599
0.0038234027
0.0038258577
0.003824777
0.00382082
0.0038143965
0.0038058361
0.0037954229
0.0037833769
0.0037698823
0.0037550666
0.0037390145
0.0037218094
0.0037035123
0.0036841744
0.0036638388
0.0036425104
0.0036201834
0.0035968608
0.0035725335
0.0035471829
0.0035207867
0.0034933182
0.0034647221
0.0034349265
0.0034038611
0.00337145
0.0033376184
0.003302282
0.003265352
0.0032267451
0.0031863628
0.0031440837
0.0030997906
0.0030533731
0.0030047176
0.0029537494
0.0029004135
0.0028447424
0.0027867867
0.0027265459
0.0026642313
0.0026000817
0.0025344272
0.0024680899
0.0024023229
0.0023389341
0.0022805669
0.0022312452
0.0021955264
0.0021754836
0.0021846407
0.0022271776
0.0023028464
0.0024245683
0.0025970359
0.002821418
0.003092572
0.0034030741
0.0037450418
0.0040750379
0.0043418149
0.0045074221
0.004578598
0.0045557446
0.0044573958
0.0043339267
0.0041921979
0.0040421868
0.0038896905
0.003734001
0.0035781945
0.0034204966
0.0032571671
0.0030923772
0.0029278339
0.002764795
0.0026052752
0.0024483104
0.0022926229
0.0021411039
0.0019936366
0.0018485924
0.0017063727
0.001568603
0.0014352553
0.0013047947
0.0011779468
0.0010553664
0.00093925309
0.00082922572
0.00072775733
0.00063134347
0.0005690515
0.00048217203
0.00066751998
-0.00051338325
0.012027276
0.012131211
0.012351206
0.012631926
0.012972074
0.013371912
0.013829563
0.014344233
0.01491726
0.015551881
0.016253112
0.017028099
0.01788672
0.018842952
0.019915752
0.0211345
0.022535873
0.024196337
0.026175532
0.028768212
0.031888331
0.037347645
0.04242704
0.08076971
0.05119143
0.0023597873
0.0010184805
0.0018882852
0.0024371017
0.002881723
0.0031532309
0.0033433523
0.0034882116
0.00359302
0.0036670318
0.0037201056
0.0037585388
0.0037859299
0.003804638
0.0038166788
0.0038234749
0.0038259232
0.0038248368
0.0038208749
0.003814447
0.0038058828
0.0037954661
0.0037834169
0.0037699196
0.0037551014
0.0037390471
0.0037218399
0.0037035409
0.0036842013
0.0036638642
0.0036425343
0.0036202059
0.003596882
0.0035725536
0.0035472019
0.0035208048
0.0034933353
0.0034647383
0.0034349419
0.0034038757
0.0033714638
0.0033376316
0.0033022945
0.0032653638
0.0032267564
0.0031863735
0.0031440939
0.0030998003
0.0030533823
0.0030047263
0.0029537576
0.0029004213
0.0028447497
0.0027867936
0.0027265523
0.0026642373
0.0026000872
0.0025344322
0.0024680945
0.002402327
0.0023389377
0.00228057
0.0022312477
0.0021955282
0.0021754847
0.002184641
0.002227177
0.0023028449
0.0024245658
0.0025970323
0.0028214133
0.0030925664
0.0034030677
0.0037450348
0.0040750307
0.0043418081
0.0045074162
0.0045785933
0.0045557412
0.0044573934
0.004333925
0.0041921968
0.004042186
0.00388969
0.0037340008
0.0035781943
0.0034204966
0.0032571672
0.0030923774
0.0029278342
0.0027647955
0.0026052757
0.002448311
0.0022926234
0.0021411045
0.0019936371
0.0018485929
0.0017063733
0.0015686036
0.0014352559
0.0013047953
0.0011779474
0.001055367
0.00093925364
0.00082922626
0.00072775787
0.00063134401
0.00056905209
0.00048217263
0.00066752063
-0.00051338286
0.012027276
0.012131211
0.012351207
0.012631926
0.012972074
0.013371912
0.013829563
0.014344234
0.014917261
0.015551881
0.016253112
0.0170281
0.017886721
0.018842954
0.019915753
0.021134502
0.022535875
0.02419634
0.026175536
0.028768218
0.031888338
0.03734766
0.042427068
0.080764646
0.051209835
0.0023655401
0.0010205655
0.0018892883
0.0024377165
0.0028821554
0.0031535577
0.003343612
0.0034884243
0.0035931982
0.0036671838
0.0037202372
0.0037586541
0.003786032
0.003804729
0.0038167605
0.0038235487
0.0038259904
0.0038248981
0.003820931
0.0038144987
0.0038059305
0.0037955103
0.003783458
0.0037699578
0.0037551371
0.0037390804
0.0037218711
0.0037035702
0.0036842288
0.0036638901
0.0036425587
0.0036202289
0.0035969038
0.0035725742
0.0035472214
0.0035208232
0.0034933527
0.0034647548
0.0034349576
0.0034038906
0.003371478
0.003337645
0.0033023073
0.003265376
0.0032267679
0.0031863844
0.0031441043
0.0030998102
0.0030533916
0.0030047352
0.002953766
0.0029004292
0.0028447572
0.0027868006
0.0027265589
0.0026642434
0.0026000929
0.0025344374
0.0024680992
0.0024023312
0.0023389414
0.0022805731
0.0022312502
0.0021955301
0.0021754859
0.0021846413
0.0022271765
0.0023028433
0.0024245632
0.0025970287
0.0028214086
0.0030925607
0.0034030611
0.0037450275
0.0040750233
0.0043418011
0.0045074101
0.0045785886
0.0045557377
0.0044573908
0.0043339233
0.0041921956
0.0040421852
0.0038896895
0.0037340005
0.0035781942
0.0034204967
0.0032571673
0.0030923776
0.0029278346
0.0027647959
0.0026052762
0.0024483115
0.002292624
0.0021411051
0.0019936377
0.0018485935
0.0017063739
0.0015686042
0.0014352565
0.0013047959
0.001177948
0.0010553675
0.0009392542
0.00082922682
0.00072775843
0.00063134456
0.0005690527
0.00048217323
0.0006675213
-0.00051338246
0.012027276
0.012131211
0.012351207
0.012631926
0.012972075
0.013371912
0.013829564
0.014344234
0.014917261
0.015551882
0.016253113
0.017028101
0.017886722
0.018842955
0.019915755
0.021134504
0.022535878
0.024196344
0.02617554
0.028768224
0.031888347
0.037347674
0.042427101
0.080759026
0.051229022
0.0023727098
0.0010227828
0.0018903536
0.0024383695
0.0028826146
0.0031539049
0.0033438879
0.0034886503
0.0035933874
0.0036673452
0.003720377
0.0037587766
0.0037861403
0.0038048257
0.0038168474
0.0038236272
0.0038260617
0.0038249632
0.0038209907
0.0038145536
0.0038059812
0.0037955573
0.0037835016
0.0037699984
0.003755175
0.0037391158
0.0037219042
0.0037036013
0.0036842581
0.0036639176
0.0036425846
0.0036202534
0.0035969269
0.003572596
0.003547242
0.0035208428
0.0034933713
0.0034647724
0.0034349743
0.0034039064
0.003371493
0.0033376593
0.0033023209
0.0032653889
0.0032267802
0.0031863961
0.0031441154
0.0030998206
0.0030534016
0.0030047446
0.0029537749
0.0029004376
0.0028447651
0.002786808
0.0027265659
0.0026642499
0.0026000989
0.0025344429
0.0024681042
0.0024023357
0.0023389454
0.0022805765
0.0022312529
0.0021955322
0.002175487
0.0021846416
0.0022271759
0.0023028417
0.0024245605
0.0025970247
0.0028214035
0.0030925546
0.0034030541
0.0037450199
0.0040750154
0.0043417937
0.0045074037
0.0045785835
0.004555734
0.0044573882
0.0043339214
0.0041921943
0.0040421844
0.003889689
0.0037340002
0.0035781941
0.0034204967
0.0032571675
0.0030923779
0.0029278349
0.0027647963
0.0026052767
0.002448312
0.0022926246
0.0021411057
0.0019936384
0.0018485942
0.0017063746
0.0015686048
0.0014352571
0.0013047965
0.0011779486
0.0010553681
0.0009392548
0.0008292274
0.00072775902
0.00063134515
0.00056905334
0.00048217388
0.000667522
-0.00051338204
0.012027276
0.012131212
0.012351207
0.012631926
0.012972075
0.013371912
0.013829564
0.014344234
0.014917261
0.015551882
0.016253114
0.017028102
0.017886723
0.018842956
0.019915757
0.021134506
0.022535881
0.024196348
0.026175545
0.028768232
0.031888356
0.037347689
0.04242714
0.080752736
0.051249217
0.0023806313
0.0010251721
0.0018915001
0.0024390725
0.0028831089
0.0031542786
0.0033441849
0.0034888935
0.003593591
0.003667519
0.0037205275
0.0037589085
0.003786257
0.0038049297
0.0038169408
0.0038237117
0.0038261384
0.0038250333
0.0038210549
0.0038146127
0.0038060358
0.0037956078
0.0037835485
0.0037700421
0.0037552157
0.0037391539
0.0037219399
0.0037036348
0.0036842895
0.0036639472
0.0036426125
0.0036202797
0.0035969518
0.0035726195
0.0035472643
0.0035208638
0.0034933913
0.0034647914
0.0034349922
0.0034039235
0.0033715092
0.0033376747
0.0033023355
0.0032654028
0.0032267934
0.0031864086
0.0031441273
0.0030998319
0.0030534123
0.0030047547
0.0029537845
0.0029004467
0.0028447737
0.002786816
0.0027265734
0.0026642568
0.0026001053
0.0025344489
0.0024681096
0.0024023405
0.0023389496
0.0022805801
0.0022312558
0.0021955344
0.0021754883
0.0021846419
0.0022271752
0.0023028399
0.0024245575
0.0025970205
0.002821398
0.003092548
0.0034030466
0.0037450116
0.0040750069
0.0043417857
0.0045073967
0.0045785781
0.00455573
0.0044573853
0.0043339195
0.0041921929
0.0040421834
0.0038896884
0.0037339998
0.003578194
0.0034204967
0.0032571676
0.0030923782
0.0029278353
0.0027647968
0.0026052772
0.0024483126
0.0022926252
0.0021411064
0.001993639
0.0018485949
0.0017063752
0.0015686055
0.0014352578
0.0013047972
0.0011779492
0.0010553688
0.00093925544
0.00082922804
0.00072775966
0.00063134578
0.00056905403
0.00048217457
0.00066752277
-0.00051338159
0.012027276
0.012131212
0.012351207
0.012631926
0.012972075
0.013371912
0.013829564
0.014344235
0.014917262
0.015551883
0.016253114
0.017028103
0.017886725
0.018842958
0.019915759
0.021134509
0.022535884
0.024196352
0.026175551
0.02876824
0.031888367
0.037347705
0.042427187
0.080745642
0.051270693
0.0023891372
0.0010277625
0.0018927432
0.0024398348
0.002883645
0.0031546839
0.003344507
0.0034891572
0.0035938119
0.0036677074
0.0037206907
0.0037590515
0.0037863834
0.0038050425
0.0038170421
0.0038238033
0.0038262216
0.0038251092
0.0038211246
0.0038146768
0.0038060949
0.0037956626
0.0037835994
0.0037700895
0.0037552599
0.0037391952
0.0037219786
0.0037036711
0.0036843237
0.0036639793
0.0036426428
0.0036203083
0.0035969787
0.003572645
0.0035472884
0.0035208867
0.0034934129
0.0034648119
0.0034350117
0.003403942
0.0033715268
0.0033376914
0.0033023513
0.0032654178
0.0032268077
0.0031864222
0.0031441402
0.0030998442
0.0030534239
0.0030047657
0.0029537949
0.0029004565
0.0028447829
0.0027868247
0.0027265815
0.0026642644
0.0026001123
0.0025344553
0.0024681154
0.0024023458
0.0023389542
0.002280584
0.002231259
0.0021955367
0.0021754897
0.0021846423
0.0022271745
0.002302838
0.0024245543
0.002597016
0.0028213921
0.0030925409
0.0034030385
0.0037450027
0.0040749977
0.004341777
0.0045073892
0.0045785722
0.0045557257
0.0044573822
0.0043339173
0.0041921915
0.0040421825
0.0038896878
0.0037339995
0.0035781938
0.0034204967
0.0032571678
0.0030923785
0.0029278357
0.0027647973
0.0026052778
0.0024483133
0.0022926259
0.0021411071
0.0019936398
0.0018485956
0.001706376
0.0015686063
0.0014352586
0.0013047979
0.0011779499
0.0010553695
0.00093925614
0.00082922872
0.00072776035
0.00063134646
0.00056905477
0.00048217532
0.00066752359
-0.0005133811
0.012027276
0.012131212
0.012351207
0.012631926
0.012972075
0.013371913
0.013829565
0.014344235
0.014917263
0.015551884
0.016253115
0.017028104
0.017886726
0.01884296
0.019915761
0.021134512
0.022535888
0.024196357
0.026175557
0.028768249
0.031888379
0.037347722
0.042427242
0.080737572
0.051293679
0.0023983608
0.0010305904
0.0018941008
0.0024406675
0.0028842305
0.0031551265
0.0033448588
0.0034894453
0.0035940531
0.0036679132
0.0037208689
0.0037592076
0.0037865216
0.0038051657
0.0038171528
0.0038239033
0.0038263125
0.0038251922
0.0038212007
0.0038147468
0.0038061596
0.0037957225
0.003783655
0.0037701412
0.0037553082
0.0037392403
0.0037220209
0.0037037108
0.0036843609
0.0036640144
0.0036426758
0.0036203395
0.0035970082
0.0035726729
0.0035473148
0.0035209116
0.0034934366
0.0034648343
0.003435033
0.0034039622
0.003371546
0.0033377096
0.0033023687
0.0032654343
0.0032268233
0.0031864371
0.0031441543
0.0030998576
0.0030534366
0.0030047777
0.0029538062
0.0029004672
0.002844793
0.0027868342
0.0027265904
0.0026642727
0.00260012
0.0025344623
0.0024681218
0.0024023515
0.0023389592
0.0022805883
0.0022312624
0.0021955393
0.0021754912
0.0021846427
0.0022271738
0.0023028359
0.0024245508
0.002597011
0.0028213857
0.0030925331
0.0034030296
0.0037449929
0.0040749876
0.0043417675
0.004507381
0.0045785658
0.0045557209
0.0044573788
0.004333915
0.0041921899
0.0040421814
0.0038896871
0.0037339991
0.0035781936
0.0034204967
0.003257168
0.0030923788
0.0029278362
0.0027647979
0.0026052785
0.002448314
0.0022926267
0.0021411079
0.0019936406
0.0018485964
0.0017063768
0.0015686071
0.0014352594
0.0013047987
0.0011779507
0.0010553703
0.0009392569
0.00082922947
0.0007277611
0.00063134721
0.00056905559
0.00048217614
0.0006675245
-0.00051338056
0.012027276
0.012131212
0.012351207
0.012631927
0.012972075
0.013371913
0.013829565
0.014344236
0.014917263
0.015551885
0.016253116
0.017028105
0.017886728
0.018842962
0.019915764
0.021134515
0.022535893
0.024196363
0.026175564
0.028768259
0.031888392
0.03734774
0.042427308
0.080728313
0.051318383
0.0024084648
0.0010336978
0.001895593
0.0024415829
0.0028848743
0.0031556132
0.0033452456
0.0034897619
0.0035943182
0.0036681395
0.0037210649
0.0037593793
0.0037866734
0.0038053012
0.0038172745
0.0038240132
0.0038264125
0.0038252834
0.0038212843
0.0038148238
0.0038062306
0.0037957882
0.0037837161
0.0037701981
0.0037553612
0.00373929
0.0037220674
0.0037037544
0.0036844019
0.0036640529
0.0036427122
0.0036203737
0.0035970406
0.0035727035
0.0035473437
0.0035209391
0.0034934626
0.003464859
0.0034350564
0.0034039844
0.0033715671
0.0033377297
0.0033023877
0.0032654524
0.0032268405
0.0031864534
0.0031441698
0.0030998723
0.0030534505
0.003004791
0.0029538187
0.002900479
0.0028448041
0.0027868447
0.0027266002
0.0026642818
0.0026001284
0.0025344701
0.0024681288
0.0024023578
0.0023389647
0.002280593
0.0022312662
0.0021955421
0.0021754929
0.0021846431
0.0022271729
0.0023028336
0.002424547
0.0025970055
0.0028213786
0.0030925246
0.0034030198
0.0037449822
0.0040749766
0.0043417571
0.004507372
0.0045785587
0.0045557157
0.004457375
0.0043339124
0.0041921881
0.0040421802
0.0038896863
0.0037339987
0.0035781935
0.0034204968
0.0032571682
0.0030923792
0.0029278367
0.0027647985
0.0026052792
0.0024483148
0.0022926275
0.0021411087
0.0019936415
0.0018485973
0.0017063777
0.001568608
0.0014352602
0.0013047995
0.0011779516
0.0010553711
0.00093925774
0.0008292303
0.00072776193
0.00063134803
0.00056905649
0.00048217704
0.00066752549
-0.00051337997
0.012027276
0.012131212
0.012351207
0.012631927
0.012972076
0.013371914
0.013829565
0.014344237
0.014917264
0.015551886
0.016253118
0.017028107
0.01788673
0.018842965
0.019915767
0.02113452
0.022535898
0.02419637
0.026175573
0.02876827
0.031888407
0.03734776
0.042427387
0.080717617
0.051345005
0.0024196007
0.0010371307
0.001897242
0.0024425948
0.0028855859
0.0031561512
0.003345673
0.003490112
0.0035946114
0.0036683896
0.0037212814
0.003759569
0.0037868413
0.0038054509
0.003817409
0.0038241348
0.0038265229
0.0038253843
0.0038213767
0.0038149088
0.0038063091
0.003795861
0.0037837836
0.003770261
0.0037554199
0.0037393448
0.0037221187
0.0037038026
0.0036844472
0.0036640956
0.0036427523
0.0036204116
0.0035970764
0.0035727373
0.0035473758
0.0035209694
0.0034934913
0.0034648862
0.0034350823
0.0034040089
0.0033715904
0.0033377518
0.0033024087
0.0032654724
0.0032268595
0.0031864714
0.0031441869
0.0030998885
0.0030534659
0.0030048056
0.0029538326
0.0029004921
0.0028448164
0.0027868562
0.0027266109
0.0026642918
0.0026001377
0.0025344786
0.0024681366
0.0024023647
0.0023389708
0.0022805982
0.0022312704
0.0021955453
0.0021754948
0.0021846436
0.002227172
0.0023028311
0.0024245427
0.0025969995
0.0028213708
0.0030925151
0.003403009
0.0037449703
0.0040749643
0.0043417456
0.004507362
0.0045785509
0.00455571
0.0044573709
0.0043339095
0.0041921861
0.0040421789
0.0038896855
0.0037339982
0.0035781933
0.0034204968
0.0032571684
0.0030923796
0.0029278372
0.0027647992
0.00260528
0.0024483156
0.0022926284
0.0021411097
0.0019936425
0.0018485983
0.0017063787
0.001568609
0.0014352612
0.0013048005
0.0011779525
0.0010553721
0.00093925866
0.00082923121
0.00072776285
0.00063134894
0.00056905748
0.00048217804
0.00066752658
-0.00051337932
0.012027276
0.012131212
0.012351208
0.012631927
0.012972076
0.013371914
0.013829566
0.014344237
0.014917265
0.015551887
0.016253119
0.017028109
0.017886732
0.018842968
0.019915771
0.021134524
0.022535904
0.024196377
0.026175582
0.028768282
0.031888424
0.037347781
0.04242748
0.080705181
0.051373727
0.0024319278
0.0010409399
0.0018990724
0.0024437184
0.002886376
0.0031567485
0.0033461477
0.0034905006
0.0035949368
0.0036686672
0.0037215219
0.0037597797
0.0037870276
0.0038056171
0.0038175582
0.0038242697
0.0038266455
0.0038254962
0.0038214793
0.0038150032
0.0038063963
0.0037959417
0.0037838586
0.0037703307
0.003755485
0.0037394057
0.0037221757
0.0037038561
0.0036844975
0.0036641429
0.0036427969
0.0036204537
0.0035971161
0.0035727749
0.0035474113
0.0035210031
0.0034935232
0.0034649165
0.003435111
0.0034040362
0.0033716163
0.0033377764
0.0033024321
0.0032654946
0.0032268806
0.0031864915
0.0031442059
0.0030999066
0.003053483
0.0030048218
0.0029538479
0.0029005066
0.0028448301
0.002786869
0.0027266229
0.002664303
0.002600148
0.0025344881
0.0024681452
0.0024023724
0.0023389776
0.0022806039
0.0022312751
0.0021955487
0.0021754968
0.0021846441
0.002227171
0.0023028282
0.002424538
0.0025969927
0.0028213621
0.0030925047
0.003402997
0.0037449571
0.0040749508
0.0043417328
0.004507351
0.0045785422
0.0045557036
0.0044573663
0.0043339064
0.004192184
0.0040421774
0.0038896846
0.0037339976
0.0035781931
0.0034204968
0.0032571687
0.00309238
0.0029278378
0.0027647999
0.0026052808
0.0024483166
0.0022926294
0.0021411108
0.0019936435
0.0018485994
0.0017063798
0.0015686101
0.0014352623
0.0013048016
0.0011779536
0.0010553731
0.00093925969
0.00082923222
0.00072776386
0.00063134994
0.00056905858
0.00048217915
0.0006675278
-0.00051337859
0.012027276
0.012131212
0.012351208
0.012631927
0.012972077
0.013371915
0.013829567
0.014344238
0.014917266
0.015551888
0.016253121
0.017028111
0.017886735
0.018842971
0.019915775
0.02113453
0.02253591
0.024196386
0.026175592
0.028768296
0.031888442
0.037347802
0.042427591
0.080690647
0.051404711
0.0024456244
0.0010451818
0.0019011114
0.0024449703
0.0028872564
0.003157414
0.0033466765
0.0034909336
0.0035952993
0.0036689766
0.0037217898
0.0037600144
0.0037872353
0.0038058023
0.0038177246
0.00382442
0.0038267821
0.0038256209
0.0038215936
0.0038151084
0.0038064934
0.0037960316
0.0037839421
0.0037704085
0.0037555575
0.0037394735
0.0037222393
0.0037039157
0.0036845535
0.0036641956
0.0036428466
0.0036205005
0.0035971603
0.0035728167
0.0035474509
0.0035210406
0.0034935588
0.0034649502
0.0034351429
0.0034040666
0.0033716451
0.0033378038
0.0033024581
0.0032655193
0.0032269041
0.0031865138
0.0031442271
0.0030999267
0.0030535021
0.0030048398
0.002953865
0.0029005227
0.0028448453
0.0027868833
0.0027266363
0.0026643154
0.0026001595
0.0025344986
0.0024681548
0.002402381
0.0023389852
0.0022806103
0.0022312802
0.0021955526
0.0021754991
0.0021846447
0.0022271698
0.0023028251
0.0024245328
0.0025969853
0.0028213524
0.003092493
0.0034029836
0.0037449425
0.0040749357
0.0043417186
0.0045073387
0.0045785325
0.0045556965
0.0044573612
0.0043339029
0.0041921816
0.0040421758
0.0038896835
0.0037339971
0.0035781928
0.0034204969
0.0032571689
0.0030923805
0.0029278385
0.0027648008
0.0026052818
0.0024483177
0.0022926306
0.002141112
0.0019936447
0.0018486006
0.001706381
0.0015686113
0.0014352635
0.0013048028
0.0011779548
0.0010553743
0.00093926083
0.00082923334
0.00072776499
0.00063135106
0.00056905981
0.00048218038
0.00066752916
-0.00051337779
0.012027276
0.012131212
0.012351208
0.012631928
0.012972077
0.013371915
0.013829568
0.014344239
0.014917268
0.01555189
0.016253123
0.017028114
0.017886738
0.018842975
0.01991578
0.021134536
0.022535918
0.024196396
0.026175604
0.028768312
0.031888463
0.037347823
0.042427723
0.080673581
0.051438081
0.0024608923
0.0010499187
0.0019033893
0.0024463694
0.0028882403
0.0031581578
0.0033472674
0.0034914175
0.0035957045
0.0036693223
0.0037220891
0.0037602766
0.0037874672
0.0038060092
0.0038179104
0.003824588
0.0038269347
0.0038257602
0.0038217214
0.003815226
0.0038066019
0.0037961321
0.0037840354
0.0037704954
0.0037556386
0.0037395492
0.0037223102
0.0037039823
0.003684616
0.0036642545
0.0036429021
0.0036205529
0.0035972098
0.0035728635
0.0035474951
0.0035210825
0.0034935985
0.0034649879
0.0034351787
0.0034041005
0.0033716773
0.0033378344
0.0033024872
0.0032655469
0.0032269303
0.0031865387
0.0031442508
0.0030999491
0.0030535234
0.00300486
0.0029538841
0.0029005407
0.0028448623
0.0027868992
0.0027266512
0.0026643293
0.0026001723
0.0025345104
0.0024681655
0.0024023906
0.0023389936
0.0022806175
0.002231286
0.0021955569
0.0021755016
0.0021846454
0.0022271686
0.0023028216
0.0024245269
0.0025969769
0.0028213415
0.0030924799
0.0034029686
0.0037449261
0.0040749188
0.0043417027
0.0045073249
0.0045785217
0.0045556886
0.0044573555
0.0043338989
0.0041921789
0.004042174
0.0038896824
0.0037339964
0.0035781925
0.0034204969
0.0032571693
0.003092381
0.0029278393
0.0027648017
0.0026052829
0.0024483188
0.0022926318
0.0021411133
0.0019936461
0.001848602
0.0017063824
0.0015686126
0.0014352648
0.0013048041
0.0011779561
0.0010553755
0.00093926211
0.0008292346
0.00072776626
0.00063135232
0.00056906118
0.00048218175
0.00066753067
-0.00051337688
0.012027276
0.012131212
0.012351208
0.012631928
0.012972078
0.013371916
0.013829569
0.01434424
0.014917269
0.015551892
0.016253125
0.017028116
0.017886742
0.01884298
0.019915786
0.021134543
0.022535927
0.024196407
0.026175617
0.028768328
0.031888486
0.037347842
0.042427879
0.08065346
0.051473909
0.0024779611
0.0010552206
0.0019059399
0.0024479366
0.0028893424
0.0031589909
0.0033479293
0.0034919594
0.0035961583
0.0036697094
0.0037224244
0.0037605704
0.003787727
0.0038062409
0.0038181186
0.0038247761
0.0038271057
0.0038259163
0.0038218644
0.0038153576
0.0038067235
0.0037962447
0.0037841399
0.0037705926
0.0037557293
0.0037396341
0.0037223897
0.0037040569
0.0036846861
0.0036643204
0.0036429642
0.0036206115
0.0035972652
0.0035729158
0.0035475447
0.0035211294
0.0034936429
0.00346503
0.0034352187
0.0034041385
0.0033717134
0.0033378687
0.0033025197
0.0032655778
0.0032269597
0.0031865666
0.0031442773
0.0030999743
0.0030535473
0.0030048826
0.0029539054
0.0029005609
0.0028448813
0.0027869171
0.0027266679
0.0026643448
0.0026001867
0.0025345236
0.0024681775
0.0024024014
0.002339003
0.0022806255
0.0022312925
0.0021955618
0.0021755045
0.0021846461
0.0022271671
0.0023028176
0.0024245203
0.0025969675
0.0028213294
0.0030924653
0.0034029519
0.0037449077
0.0040748999
0.0043416849
0.0045073095
0.0045785096
0.0045556797
0.0044573491
0.0043338945
0.0041921758
0.004042172
0.0038896811
0.0037339957
0.0035781922
0.0034204969
0.0032571696
0.0030923817
0.0029278401
0.0027648028
0.0026052841
0.0024483202
0.0022926333
0.0021411148
0.0019936476
0.0018486035
0.0017063839
0.0015686142
0.0014352664
0.0013048056
0.0011779575
0.001055377
0.00093926354
0.00082923601
0.00072776768
0.00063135372
0.00056906271
0.00048218329
0.00066753237
-0.00051337587
0.012027276
0.012131213
0.012351209
0.012631929
0.012972078
0.013371917
0.01382957
0.014344242
0.014917271
0.015551894
0.016253128
0.01702812
0.017886746
0.018842985
0.019915792
0.021134551
0.022535936
0.024196419
0.026175632
0.028768346
0.031888511
0.037347857
0.042428064
0.080629658
0.0515122
0.0024970937
0.0010611656
0.0019088011
0.0024496953
0.0028905792
0.0031599259
0.003348672
0.0034925676
0.0035966675
0.0036701438
0.0037228005
0.0037608999
0.0037880186
0.0038065009
0.0038183521
0.0038249872
0.0038272974
0.0038260913
0.0038220249
0.0038155053
0.0038068598
0.0037963709
0.0037842572
0.0037707018
0.0037558312
0.0037397293
0.0037224789
0.0037041405
0.0036847648
0.0036643944
0.003643034
0.0036206773
0.0035973273
0.0035729746
0.0035476003
0.0035211821
0.0034936928
0.0034650774
0.0034352636
0.0034041811
0.0033717539
0.0033379071
0.0033025563
0.0032656126
0.0032269927
0.003186598
0.003144307
0.0031000025
0.003053574
0.0030049079
0.0029539294
0.0029005836
0.0028449026
0.0027869371
0.0027266866
0.0026643623
0.0026002029
0.0025345384
0.002468191
0.0024024135
0.0023390136
0.0022806346
0.0022312997
0.0021955672
0.0021755077
0.0021846469
0.0022271655
0.0023028132
0.0024245129
0.002596957
0.0028213157
0.0030924489
0.0034029331
0.0037448871
0.0040748788
0.004341665
0.0045072922
0.004578496
0.0045556697
0.0044573419
0.0043338896
0.0041921724
0.0040421697
0.0038896796
0.0037339948
0.0035781919
0.003420497
0.00325717
0.0030923824
0.0029278411
0.0027648039
0.0026052855
0.0024483217
0.0022926349
0.0021411164
0.0019936493
0.0018486052
0.0017063856
0.0015686159
0.0014352681
0.0013048073
0.0011779592
0.0010553786
0.00093926515
0.00082923759
0.00072776926
0.0006313553
0.00056906443
0.00048218502
0.00066753427
-0.00051337474
0.012027276
0.012131213
0.012351209
0.012631929
0.012972079
0.013371918
0.013829571
0.014344243
0.014917273
0.015551896
0.016253131
0.017028124
0.017886751
0.018842991
0.019915799
0.02113456
0.022535947
0.024196432
0.026175647
0.028768364
0.031888538
0.037347865
0.042428283
0.080601419
0.05155286
0.0025185946
0.0010678412
0.0019120155
0.0024516719
0.0028919693
0.0031609767
0.0033495067
0.003493251
0.0035972397
0.003670632
0.0037232233
0.0037612702
0.0037883461
0.003806793
0.0038186145
0.0038252243
0.0038275129
0.0038262881
0.0038222053
0.0038156712
0.003807013
0.0037965128
0.0037843889
0.0037708244
0.0037559456
0.0037398363
0.0037225791
0.0037042346
0.0036848531
0.0036644776
0.0036431123
0.0036207513
0.0035973971
0.0035730406
0.0035476628
0.0035212412
0.0034937489
0.0034651305
0.0034353141
0.003404229
0.0033717994
0.0033379503
0.0033025973
0.0032656516
0.0032270298
0.0031866332
0.0031443404
0.0031000342
0.0030536041
0.0030049364
0.0029539564
0.002900609
0.0028449266
0.0027869596
0.0027267077
0.0026643819
0.002600221
0.0025345551
0.0024682061
0.002402427
0.0023390255
0.0022806447
0.0022313079
0.0021955733
0.0021755113
0.0021846478
0.0022271636
0.0023028082
0.0024245046
0.0025969451
0.0028213004
0.0030924305
0.003402912
0.003744864
0.004074855
0.0043416426
0.0045072728
0.0045784808
0.0045556585