/*--------------------------------*- C++ -*----------------------------------*\
| =========                 |                                                 |
| \\      /  F ield         | OpenFOAM: The Open Source CFD Toolbox           |
|  \\    /   O peration     | Version:  2206                                  |
|   \\  /    A nd           | Website:  www.openfoam.com                      |
|    \\/     M anipulation  |                                                 |
\*---------------------------------------------------------------------------*/
FoamFile
{
    version     2.0;
    format      ascii;
    arch        "LSB;label=32;scalar=64";
    class       surfaceScalarField;
    location    "1300";
    object      phi;
}
// * * * * * * * * * * * * * * * * * * * * * * * * * * * * * * * * * * * * * //

dimensions      [0 3 -1 0 0 0 0];

oriented        oriented;

internalField   nonuniform List<scalar> 
25880
(
2.0045927e-06
6.1467203e-11
2.0044342e-06
1.584594e-10
2.0042225e-06
2.1175288e-10
2.0039798e-06
2.4262214e-10
2.0037018e-06
2.7799765e-10
2.003384e-06
3.1788011e-10
2.0030223e-06
3.6170497e-10
2.0026113e-06
4.1094537e-10
2.0021438e-06
4.6750309e-10
2.0016105e-06
5.3332143e-10
2.0009998e-06
6.1070685e-10
2.0002968e-06
7.030203e-10
1.9994822e-06
8.1459874e-10
1.9985286e-06
9.5352012e-10
1.9974015e-06
1.1271378e-09
1.9960387e-06
1.3627995e-09
1.9943803e-06
1.6584054e-09
1.992224e-06
2.1562573e-09
1.9895415e-06
2.6825949e-09
1.9853734e-06
4.1680883e-09
1.9802192e-06
5.1541573e-09
1.9678655e-06
1.2353734e-08
1.960021e-06
7.844426e-09
9.8420617e-07
9.7581488e-07
4.3432909e-09
9.7986288e-07
2.1006465e-09
2.2426445e-09
1.5909189e-09
5.0972756e-10
1.3445666e-09
2.4635233e-10
1.1923168e-09
1.5224982e-10
1.0842853e-09
1.0803143e-10
1.0018439e-09
8.2441466e-11
9.35684e-10
6.6159866e-11
8.8097065e-10
5.471335e-11
8.34689e-10
4.6281653e-11
7.9478476e-10
3.9904236e-11
7.5985518e-10
3.4929587e-11
7.289148e-10
3.0940381e-11
7.0123625e-10
2.7678547e-11
6.7626341e-10
2.4972842e-11
6.5356632e-10
2.2697086e-11
6.328043e-10
2.0762019e-11
6.1370341e-10
1.9100889e-11
5.9604427e-10
1.7659149e-11
5.7964507e-10
1.6399194e-11
5.6435398e-10
1.5291095e-11
5.5004398e-10
1.4309998e-11
5.3660735e-10
1.3436631e-11
5.239523e-10
1.2655045e-11
5.1200023e-10
1.1952075e-11
5.0068314e-10
1.131709e-11
4.8994166e-10
1.0741474e-11
4.7972388e-10
1.021778e-11
4.6998422e-10
9.7396652e-12
4.6068254e-10
9.3016791e-12
4.5178349e-10
8.8990463e-12
4.4325558e-10
8.5279176e-12
4.3507048e-10
8.1850982e-12
4.2720287e-10
7.8676093e-12
4.1963006e-10
7.5728109e-12
4.123316e-10
7.298457e-12
4.0528915e-10
7.0424499e-12
3.9848635e-10
6.8028003e-12
3.9190844e-10
6.5779111e-12
3.8554184e-10
6.3665972e-12
3.7937418e-10
6.1676605e-12
3.733944e-10
5.9797838e-12
3.6759265e-10
5.8017526e-12
3.619601e-10
5.6325458e-12
3.5648892e-10
5.4711839e-12
3.5117242e-10
5.3164998e-12
3.4600507e-10
5.1673454e-12
3.4098229e-10
5.0227846e-12
3.3610042e-10
4.8818614e-12
3.3135683e-10
4.7435948e-12
3.2674982e-10
4.6070076e-12
3.2227884e-10
4.470979e-12
3.179449e-10
4.3339466e-12
3.1375164e-10
4.1932527e-12
3.0970527e-10
4.0463785e-12
3.0581367e-10
3.8915929e-12
3.0208691e-10
3.7267593e-12
2.9853727e-10
3.5496468e-12
2.9517963e-10
3.3576334e-12
2.9203378e-10
3.145849e-12
2.8912624e-10
2.9075426e-12
2.8649052e-10
2.6357226e-12
2.8417184e-10
2.3186736e-12
2.8223913e-10
1.9327176e-12
2.8073998e-10
1.4991504e-12
2.798238e-10
9.1617205e-13
2.7957554e-10
2.4825852e-13
2.8006074e-10
-4.8519879e-13
2.8145744e-10
-1.396699e-12
2.8388482e-10
-2.4273787e-12
2.8748618e-10
-3.6013618e-12
2.9234542e-10
-4.8592451e-12
2.9844782e-10
-6.1023922e-12
3.0574286e-10
-7.2950451e-12
3.1411048e-10
-8.3676244e-12
3.2312382e-10
-9.013333e-12
3.3201523e-10
-8.8914113e-12
3.4009159e-10
-8.0763612e-12
3.4674969e-10
-6.658092e-12
3.5188504e-10
-5.1353533e-12
3.5577809e-10
-3.8930539e-12
3.5860395e-10
-2.8258528e-12
3.6065228e-10
-2.048327e-12
3.6210551e-10
-1.4532305e-12
3.6308757e-10
-9.8206091e-13
3.636807e-10
-5.9313127e-13
3.6394386e-10
-2.6316399e-13
3.6390458e-10
3.9282951e-14
3.6356171e-10
3.4286677e-13
3.629394e-10
6.2231133e-13
3.6207965e-10
8.5975758e-13
3.6101579e-10
1.063856e-12
3.5979217e-10
1.2236195e-12
3.5844875e-10
1.3434194e-12
3.5701457e-10
1.4341786e-12
3.5552071e-10
1.4938583e-12
3.5399589e-10
1.5248242e-12
3.5245571e-10
1.5401787e-12
3.5090971e-10
1.5460012e-12
3.4937077e-10
1.5389441e-12
3.4785002e-10
1.5207436e-12
3.4635056e-10
1.499458e-12
3.448706e-10
1.4799619e-12
3.4340928e-10
1.4613208e-12
3.4196709e-10
1.4421934e-12
3.4054663e-10
1.4204577e-12
3.3911823e-10
1.4283976e-12
3.3770268e-10
1.4155496e-12
3.3615301e-10
1.5496718e-12
3.3459607e-10
1.5569457e-12
3.3288995e-10
1.7061137e-12
1.0222776e-12
2.0344656e-06
1.2392358e-10
2.0343046e-06
3.1950218e-10
2.0340893e-06
4.2699277e-10
2.0338427e-06
4.8925049e-10
2.0335601e-06
5.6058443e-10
2.033237e-06
6.4100372e-10
2.0328693e-06
7.2937045e-10
2.0324516e-06
8.286541e-10
2.0319764e-06
9.4268877e-10
2.0314344e-06
1.0753922e-09
2.0308136e-06
1.2314139e-09
2.0300991e-06
1.4175292e-09
2.0292713e-06
1.6424804e-09
2.0283022e-06
1.9225517e-09
2.0271568e-06
2.2725641e-09
2.0257719e-06
2.7476487e-09
2.0240868e-06
3.3435603e-09
2.0218959e-06
4.3471647e-09
2.0191703e-06
5.4081507e-09
2.0149359e-06
8.4025263e-09
2.0096999e-06
1.0390193e-08
1.9971503e-06
2.4903243e-08
1.9891738e-06
1.582093e-08
1.0051631e-06
1.9598256e-06
1.3252083e-08
1.9717739e-06
6.4273958e-09
9.0673319e-09
4.8680173e-09
2.069106e-09
4.1142211e-09
1.0001486e-09
3.6483431e-09
6.1812786e-10
3.3177653e-09
4.3860923e-10
3.0654967e-09
3.3471008e-10
2.8630523e-09
2.6860428e-10
2.6956336e-09
2.2213199e-10
2.5540157e-09
1.8789955e-10
2.4319128e-09
1.6200711e-10
2.3250324e-09
1.4181005e-10
2.2303587e-09
1.2561405e-10
2.145666e-09
1.1237125e-10
2.0692526e-09
1.0138629e-10
1.9998027e-09
9.2146925e-11
1.936274e-09
8.4290775e-11
1.8778281e-09
7.754674e-11
1.8237938e-09
7.1693434e-11
1.7736148e-09
6.6578204e-11
1.7268265e-09
6.2079461e-11
1.6830401e-09
5.8096339e-11
1.6419262e-09
5.4550586e-11
1.6032037e-09
5.137746e-11
1.5666323e-09
4.8523503e-11
1.5320038e-09
4.5945558e-11
1.4991367e-09
4.3608645e-11
1.4678719e-09
4.1482527e-11
1.4380701e-09
3.9541454e-11
1.4096085e-09
3.7763299e-11
1.3823789e-09
3.6128675e-11
1.3562849e-09
3.4621953e-11
1.3312398e-09
3.3230162e-11
1.3071662e-09
3.1941209e-11
1.2839946e-09
3.0744376e-11
1.2616625e-09
2.9630545e-11
1.2401138e-09
2.8591199e-11
1.2192983e-09
2.7618264e-11
1.199171e-09
2.6705254e-11
1.1796902e-09
2.5847358e-11
1.1608182e-09
2.5039711e-11
1.142521e-09
2.4276966e-11
1.1247686e-09
2.3554192e-11
1.1075339e-09
2.2867243e-11
1.0907929e-09
2.2212143e-11
1.0745252e-09
2.1584154e-11
1.058714e-09
2.0978616e-11
1.043345e-09
2.0391727e-11
1.0284073e-09
1.9819604e-11
1.0138926e-09
1.9258267e-11
9.9979587e-10
1.8703746e-11
9.8611536e-10
1.815149e-11
9.7285415e-10
1.7595155e-11
9.6002345e-10
1.7023955e-11
9.4764217e-10
1.6427664e-11
9.3573451e-10
1.5799248e-11
9.2433123e-10
1.5130036e-11
9.1346991e-10
1.4410969e-11
9.0319616e-10
1.3631389e-11
8.9357048e-10
1.2771523e-11
8.8467406e-10
1.1803963e-11
8.7660947e-10
1.0700313e-11
8.6951514e-10
9.4130042e-12
8.6360191e-10
7.8459438e-12
8.5901547e-10
6.0855941e-12
8.5621308e-10
3.7185569e-12
8.5545453e-10
1.0068158e-12
8.5694031e-10
-1.9709828e-12
8.612153e-10
-5.6716913e-12
8.6864404e-10
-9.8561235e-12
8.7966487e-10
-1.4622188e-11
8.9453435e-10
-1.9728725e-11
9.1320735e-10
-2.4775391e-11
9.3552923e-10
-2.9616931e-11
9.6113194e-10
-3.3970337e-11
9.8870929e-10
-3.6590683e-11
1.015913e-09
-3.6095113e-11
1.040623e-09
-3.2786316e-11
1.0609938e-09
-2.7028893e-11
1.0767059e-09
-2.0847519e-11
1.0886176e-09
-1.5804728e-11
1.0972642e-09
-1.1472422e-11
1.1035318e-09
-8.3159691e-12
1.1079786e-09
-5.9000624e-12
1.1109838e-09
-3.9871885e-12
1.1127989e-09
-2.4082172e-12
1.1136043e-09
-1.0685751e-12
1.1134842e-09
1.5935534e-13
1.1124352e-09
1.3918663e-12
1.1105311e-09
2.526407e-12
1.1079004e-09
3.490416e-12
1.1046453e-09
4.3190111e-12
1.1009013e-09
4.9676364e-12
1.0967907e-09
5.4540155e-12
1.0924024e-09
5.8224616e-12
1.0878315e-09
6.0647527e-12
1.0831658e-09
6.1904858e-12
1.0784532e-09
6.2528206e-12
1.0737228e-09
6.2764446e-12
1.0690139e-09
6.2477957e-12
1.0643607e-09
6.173919e-12
1.0597727e-09
6.0874985e-12
1.0552443e-09
6.0083367e-12
1.050773e-09
5.932637e-12
1.0463602e-09
5.8549786e-12
1.0420139e-09
5.7667197e-12
1.0376434e-09
5.7989302e-12
1.0333123e-09
5.746614e-12
1.0285708e-09
6.2912593e-12
1.0238086e-09
6.3191446e-12
1.0185805e-09
6.9341885e-12
4.1379074e-12
2.0946567e-06
1.8831142e-10
2.0944906e-06
4.8556381e-10
2.0942686e-06
6.4898083e-10
2.0940143e-06
7.4362369e-10
2.0937228e-06
8.5204392e-10
2.0933895e-06
9.742682e-10
2.0930104e-06
1.1085679e-09
2.0925796e-06
1.2594545e-09
2.0920895e-06
1.4327541e-09
2.0915305e-06
1.6344197e-09
2.0908904e-06
1.8715161e-09
2.0901535e-06
2.1543374e-09
2.0892999e-06
2.4961662e-09
2.0883007e-06
2.9217444e-09
2.0871196e-06
3.4535874e-09
2.0856918e-06
4.1754631e-09
2.0839545e-06
5.0809017e-09
2.0816959e-06
6.6057726e-09
2.0788863e-06
8.2177546e-09
2.0745217e-06
1.2767096e-08
2.069125e-06
1.5786899e-08
2.0561908e-06
3.7837423e-08
2.0479621e-06
2.4049614e-08
1.0414814e-06
2.9663063e-06
2.2914173e-08
2.9903412e-06
1.1138448e-08
2.0843057e-08
8.4364291e-09
4.7711252e-09
7.1301149e-09
2.3064628e-09
6.322711e-09
1.4255318e-09
5.7497884e-09
1.0115318e-09
5.3125861e-09
7.7191238e-10
4.9617376e-09
6.194528e-10
4.6715915e-09
5.1227804e-10
4.4261601e-09
4.3333093e-10
4.2145503e-09
3.7361699e-10
4.0293222e-09
3.2703808e-10
3.8652494e-09
2.8968684e-10
3.7184743e-09
2.591464e-10
3.5860476e-09
2.3381302e-10
3.4656891e-09
2.1250538e-10
3.3555921e-09
1.9438776e-10
3.2543041e-09
1.7883478e-10
3.1606615e-09
1.6533604e-10
3.0737001e-09
1.5353954e-10
2.9926149e-09
1.4316468e-10
2.9167323e-09
1.3397896e-10
2.845481e-09
1.2580188e-10
2.7783743e-09
1.1848415e-10
2.7149953e-09
1.1190248e-10
2.6549836e-09
1.0595734e-10
2.5980241e-09
1.0056806e-10
2.5438418e-09
9.5664902e-11
2.4921947e-09
9.1188492e-11
2.4428702e-09
8.7087795e-11
2.3956808e-09
8.3318106e-11
2.3504594e-09
7.9843382e-11
2.3070558e-09
7.6633704e-11
2.2653358e-09
7.3661187e-11
2.2251791e-09
7.0901114e-11
2.1864772e-09
6.8332456e-11
2.1491328e-09
6.5935572e-11
2.1130592e-09
6.3691845e-11
2.0781782e-09
6.1586316e-11
2.0444177e-09
5.9607887e-11
2.011712e-09
5.774534e-11
1.9800026e-09
5.5986343e-11
1.9492373e-09
5.4319525e-11
1.9193692e-09
5.2735326e-11
1.8903568e-09
5.1224574e-11
1.8621646e-09
4.9776345e-11
1.8347633e-09
4.8379892e-11
1.8081286e-09
4.7026445e-11
1.7822412e-09
4.5707053e-11
1.7570869e-09
4.4412532e-11
1.7326569e-09
4.3133725e-11
1.7089483e-09
4.1860139e-11
1.6859663e-09
4.057714e-11
1.6637304e-09
3.9259858e-11
1.6422733e-09
3.7884715e-11
1.6216371e-09
3.6435474e-11
1.601875e-09
3.4892149e-11
1.5830521e-09
3.3233841e-11
1.5652476e-09
3.1435948e-11
1.5485662e-09
2.9452874e-11
1.5331488e-09
2.7221403e-11
1.5191731e-09
2.4676036e-11
1.506879e-09
2.1707062e-11
1.496632e-09
1.809294e-11
1.4886846e-09
1.4033027e-11
1.4838292e-09
8.5739694e-12
1.4825159e-09
2.3200375e-12
1.4850924e-09
-4.5474386e-12
1.4925027e-09
-1.3082025e-11
1.5053786e-09
-2.2732023e-11
1.5244795e-09
-3.3723057e-11
1.5502498e-09
-4.5499036e-11
1.5826113e-09
-5.7136869e-11
1.6212957e-09
-6.8301332e-11
1.6656644e-09
-7.8339063e-11
1.7134538e-09
-8.4380055e-11
1.7605949e-09
-8.3236273e-11
1.8034146e-09
-7.5605935e-11
1.8387152e-09
-6.2329544e-11
1.8659434e-09
-4.8075671e-11
1.886586e-09
-3.6447358e-11
1.9015707e-09
-2.6457129e-11
1.9124329e-09
-1.917816e-11
1.9201397e-09
-1.3606852e-11
1.925348e-09
-9.1954694e-12
1.9284939e-09
-5.5541376e-12
1.92989e-09
-2.4646656e-12
1.9296821e-09
3.6720983e-13
1.9278644e-09
3.2095982e-12
1.9245647e-09
5.8260931e-12
1.9200058e-09
8.0492777e-12
1.9143647e-09
9.9601327e-12
1.9078764e-09
1.1455983e-11
1.9007527e-09
1.2577665e-11
1.8931479e-09
1.3427327e-11
1.8852265e-09
1.3986091e-11
1.8771409e-09
1.427608e-11
1.8689739e-09
1.4419832e-11
1.8607761e-09
1.447429e-11
1.8526156e-09
1.4408226e-11
1.8445517e-09
1.4237879e-11
1.8366006e-09
1.4038575e-11
1.8287529e-09
1.3855995e-11
1.8210042e-09
1.3681389e-11
1.8133569e-09
1.3502284e-11
1.8058249e-09
1.3298726e-11
1.7982509e-09
1.3372924e-11
1.7907454e-09
1.3252114e-11
1.7825286e-09
1.4508031e-11
1.7742772e-09
1.4570547e-11
1.7652117e-09
1.5999702e-11
9.5289808e-12
2.1860629e-06
2.5560643e-10
2.1858893e-06
6.5916869e-10
2.1856572e-06
8.811e-10
2.1853912e-06
1.0096209e-09
2.1850864e-06
1.1568206e-09
2.1847379e-06
1.3227546e-09
2.1843414e-06
1.5050772e-09
2.183891e-06
1.709911e-09
2.1833786e-06
1.9451639e-09
2.1827941e-06
2.2189158e-09
2.1821248e-06
2.540755e-09
2.1813545e-06
2.9246528e-09
2.180462e-06
3.3886347e-09
2.1794175e-06
3.9662804e-09
2.178183e-06
4.6881414e-09
2.1766905e-06
5.6679092e-09
2.1748746e-06
6.8967736e-09
2.1725141e-06
8.9662985e-09
2.1695779e-06
1.1153937e-08
2.1650173e-06
1.7327773e-08
2.1593783e-06
2.1425808e-08
2.1458642e-06
5.1351548e-08
2.1372577e-06
3.2656181e-08
1.0940039e-06
4.0095601e-06
3.3901562e-08
4.0504435e-06
1.6515617e-08
3.8229002e-08
1.2509648e-08
8.7770943e-09
1.0572704e-08
4.243407e-09
9.3754374e-09
2.6227981e-09
8.5258698e-09
1.8610994e-09
7.8775603e-09
1.4202219e-09
7.3573078e-09
1.1397053e-09
6.9270686e-09
9.4251721e-10
6.5631347e-09
7.9726481e-10
6.2493538e-09
6.8739791e-10
5.9746937e-09
6.0169823e-10
5.7314036e-09
5.3297693e-10
5.5137631e-09
4.7678686e-10
5.317399e-09
4.3017713e-10
5.1389301e-09
3.9097425e-10
4.9756772e-09
3.5764073e-10
4.8254864e-09
3.2902553e-10
4.6866325e-09
3.0418995e-10
4.5576856e-09
2.8248644e-10
4.4374519e-09
2.6339836e-10
4.3249327e-09
2.4649814e-10
4.219281e-09
2.3145368e-10
4.1197748e-09
2.1799027e-10
4.0257962e-09
2.0588111e-10
3.9368105e-09
1.9494307e-10
3.8523508e-09
1.8502771e-10
3.772009e-09
1.7600674e-10
3.6954265e-09
1.6777092e-10
3.622288e-09
1.6022634e-10
3.5523153e-09
1.5329077e-10
3.4852608e-09
1.4689789e-10
3.4209019e-09
1.4099264e-10
3.3590393e-09
1.3552373e-10
3.2994948e-09
1.3044568e-10
3.2421074e-09
1.257198e-10
3.186733e-09
1.2130996e-10
3.133243e-09
1.1718191e-10
3.0815212e-09
1.1330812e-10
3.0314609e-09
1.0966817e-10
2.9829648e-09
1.0624142e-10
2.935946e-09
1.0300518e-10
2.890327e-09
9.9938542e-11
2.8460384e-09
9.7023906e-11
2.8030186e-09
9.4244398e-11
2.761215e-09
9.1579924e-11
2.7205842e-09
8.9010711e-11
2.68109e-09
8.6520622e-11
2.6427039e-09
8.4093185e-11
2.6054049e-09
8.1711504e-11
2.5691799e-09
7.9358728e-11
2.5340245e-09
7.7015553e-11
2.4999466e-09
7.4655048e-11
2.4669749e-09
7.2231468e-11
2.4351582e-09
6.9701433e-11
2.4045586e-09
6.7035055e-11
2.3752552e-09
6.4195574e-11
2.3473445e-09
6.1144525e-11
2.3209439e-09
5.7836612e-11
2.2962088e-09
5.4187942e-11
2.273348e-09
5.0082199e-11
2.2526252e-09
4.539885e-11
2.2343962e-09
3.9936042e-11
2.2192029e-09
3.3286265e-11
2.2074197e-09
2.5816227e-11
2.2002216e-09
1.577209e-11
2.1982762e-09
4.2654555e-12
2.2020987e-09
-8.3699647e-12
2.213089e-09
-2.4072344e-11
2.2321837e-09
-4.1826772e-11
2.2605086e-09
-6.2047951e-11
2.2987225e-09
-8.3712934e-11
2.3467093e-09
-1.0512363e-10
2.4040707e-09
-1.2566275e-10
2.469859e-09
-1.4412729e-10
2.5407174e-09
-1.5523853e-10
2.610614e-09
-1.5313281e-10
2.6741028e-09
-1.3909475e-10
2.7264438e-09
-1.1467056e-10
2.7668163e-09
-8.8448206e-11
2.7974248e-09
-6.7055841e-11
2.8196445e-09
-4.8676841e-11
2.8357516e-09
-3.5285237e-11
2.8471799e-09
-2.5035181e-11
2.8549034e-09
-1.6918964e-11
2.8595688e-09
-1.021953e-11
2.8616395e-09
-4.5353246e-12
2.8613317e-09
6.749903e-13
2.8586367e-09
5.9045735e-12
2.8537442e-09
1.0718605e-11
2.8469845e-09
1.4808953e-11
2.8386201e-09
1.8324595e-11
2.8289993e-09
2.1076748e-11
2.8184365e-09
2.3140483e-11
2.8071601e-09
2.4703676e-11
2.7954145e-09
2.5731716e-11
2.7834253e-09
2.6265298e-11
2.7713154e-09
2.6529778e-11
2.7591597e-09
2.6629939e-11
2.7470595e-09
2.6508403e-11
2.7351024e-09
2.6195033e-11
2.7233126e-09
2.5828344e-11
2.7116762e-09
2.549239e-11
2.7001865e-09
2.5171094e-11
2.6888472e-09
2.4841543e-11
2.677679e-09
2.446701e-11
2.6664486e-09
2.4603324e-11
2.6553198e-09
2.4380911e-11
2.6431368e-09
2.6690961e-11
2.6309032e-09
2.6804225e-11
2.6174577e-09
2.944512e-11
1.7517954e-11
2.3100465e-06
3.2683354e-10
2.3098627e-06
8.4297168e-10
2.3096168e-06
1.1269114e-09
2.3093351e-06
1.2913267e-09
2.3090124e-06
1.4795942e-09
2.3086433e-06
1.6918124e-09
2.3082234e-06
1.9249832e-09
2.3077464e-06
2.1869336e-09
2.3072038e-06
2.4877744e-09
2.3065848e-06
2.8378371e-09
2.3058762e-06
3.2493801e-09
2.3050606e-06
3.7402651e-09
2.3041157e-06
4.3335359e-09
2.3030099e-06
5.0721235e-09
2.3017029e-06
5.9950789e-09
2.3001231e-06
7.2477579e-09
2.298201e-06
8.8188547e-09
2.2957026e-06
1.1464682e-08
2.2925952e-06
1.4261356e-08
2.2877692e-06
2.2153798e-08
2.2818025e-06
2.7392467e-08
2.2675036e-06
6.5650454e-08
2.2583867e-06
4.177309e-08
1.1638517e-06
5.1040951e-06
4.6860565e-08
5.1674346e-06
2.288054e-08
6.2209027e-08
1.7331385e-08
1.432625e-08
1.4647981e-08
6.9268114e-09
1.2989183e-08
4.2815958e-09
1.1812113e-08
3.038169e-09
1.0913889e-08
2.3184465e-09
1.0193095e-08
1.860499e-09
9.597014e-09
1.5385984e-09
9.0927975e-09
1.3014813e-09
8.6580679e-09
1.1221275e-09
8.2775398e-09
9.8222627e-10
7.9404743e-09
8.7004244e-10
7.6389456e-09
7.7831563e-10
7.3668944e-09
7.0222825e-10
7.1196364e-09
6.3823226e-10
6.8934593e-09
5.8381788e-10
6.6853794e-09
5.3710545e-10
6.4930061e-09
4.965632e-10
6.3143583e-09
4.6113421e-10
6.1477823e-09
4.2997438e-10
5.9918943e-09
4.0238617e-10
5.8455206e-09
3.7782735e-10
5.7076614e-09
3.5584948e-10
5.5774602e-09
3.3608231e-10
5.4541764e-09
3.1822691e-10
5.3371631e-09
3.0204096e-10
5.2258548e-09
2.8731503e-10
5.119755e-09
2.7387077e-10
5.0184264e-09
2.6155493e-10
4.9214839e-09
2.5023324e-10
4.8285844e-09
2.3979744e-10
4.7394194e-09
2.3015766e-10
4.6537129e-09
2.2123017e-10
4.5712179e-09
2.1294073e-10
4.4917115e-09
2.0522617e-10
4.414994e-09
1.9802752e-10
4.340887e-09
1.9128886e-10
4.2692298e-09
1.8496528e-10
4.1998746e-09
1.7902342e-10
4.1326864e-09
1.7342959e-10
4.0675449e-09
1.6814675e-10
4.0043426e-09
1.6314076e-10
3.9429836e-09
1.5838291e-10
3.8833824e-09
1.5384564e-10
3.8254662e-09
1.4949615e-10
3.7691747e-09
1.4530217e-10
3.714458e-09
1.4123736e-10
3.6612763e-09
1.3727482e-10
3.6096009e-09
1.3338696e-10
3.5594133e-09
1.2954629e-10
3.5107076e-09
1.2572127e-10
3.4634947e-09
1.2186795e-10
3.4178145e-09
1.1791166e-10
3.3737343e-09
1.137816e-10
3.3313405e-09
1.0942894e-10
3.2907423e-09
1.047937e-10
3.2520738e-09
9.981307e-11
3.2154974e-09
9.4413044e-11
3.1812286e-09
8.8456673e-11
3.1495568e-09
8.1754065e-11
3.1208472e-09
7.4108415e-11
3.095593e-09
6.5190221e-11
3.0745449e-09
5.4334383e-11
3.0582217e-09
4.2139446e-11
3.0482511e-09
2.5742696e-11
3.0455582e-09
6.9582961e-12
3.0508569e-09
-1.3668625e-11
3.0660861e-09
-3.9301602e-11
3.0925436e-09
-6.8284247e-11
3.1317885e-09
-1.0129279e-10
3.1847332e-09
-1.3665769e-10
3.2512169e-09
-1.7160734e-10
3.3306872e-09
-2.0513301e-10
3.4218296e-09
-2.3526972e-10
3.5199941e-09
-2.5340298e-10
3.616825e-09
-2.4996373e-10
3.704779e-09
-2.2704875e-10
3.7772904e-09
-1.8718197e-10
3.8332223e-09
-1.4438007e-10
3.875628e-09
-1.094616e-10
3.9064128e-09
-7.9461585e-11
3.9287291e-09
-5.7601619e-11
3.9445635e-09
-4.0869543e-11
3.955265e-09
-2.7620435e-11
3.9617296e-09
-1.6684133e-11
3.9645992e-09
-7.4049641e-12
3.9641735e-09
1.1006831e-12
3.9604404e-09
9.637672e-12
3.9536627e-09
1.7496382e-11
3.944298e-09
2.4173653e-11
3.9327099e-09
2.9912645e-11
3.9193813e-09
3.4405377e-11
3.9047475e-09
3.7774308e-11
3.8891251e-09
4.0326033e-11
3.8728526e-09
4.2004242e-11
3.8562425e-09
4.2875358e-11
3.8394652e-09
4.3307106e-11
3.8226246e-09
4.3470563e-11
3.8058608e-09
4.3272189e-11
3.7892951e-09
4.2760706e-11
3.7729613e-09
4.2162115e-11
3.7568401e-09
4.1613637e-11
3.7409221e-09
4.1089071e-11
3.7252126e-09
4.0551058e-11
3.70974e-09
3.9939638e-11
3.6941815e-09
4.0161788e-11
3.6787638e-09
3.9798607e-11
3.6618866e-09
4.356816e-11
3.6449395e-09
4.3751374e-11
3.6263097e-09
4.8074906e-11
2.8582816e-11
2.4684549e-06
4.0308379e-10
2.4682581e-06
1.0398027e-09
2.4679948e-06
1.3902149e-09
2.467693e-06
1.5931009e-09
2.4673472e-06
1.8253595e-09
2.4669519e-06
2.087151e-09
2.4665021e-06
2.3747794e-09
2.4659911e-06
2.6978951e-09
2.46541e-06
3.0689676e-09
2.4647471e-06
3.5007377e-09
2.4639881e-06
4.0083218e-09
2.4631146e-06
4.6137452e-09
2.4621027e-06
5.3454207e-09
2.4609186e-06
6.2562871e-09
2.4595192e-06
7.3944864e-09
2.4578277e-06
8.9392632e-09
2.4557699e-06
1.0876618e-08
2.4530954e-06
1.4139177e-08
2.4497692e-06
1.7587527e-08
2.4446042e-06
2.7318795e-08
2.4382189e-06
3.3777818e-08
2.4229175e-06
8.0951838e-08
2.4131488e-06
5.1541796e-08
1.2524602e-06
6.2647837e-06
6.2549632e-08
6.3573452e-06
3.0613912e-08
9.4144747e-08
2.3190141e-08
2.1750021e-08
1.9599805e-08
1.0517148e-08
1.7380183e-08
6.5012178e-09
1.5805152e-08
4.6132001e-09
1.4603246e-08
3.5203519e-09
1.3638773e-08
2.8249725e-09
1.2841176e-08
2.336195e-09
1.2166502e-08
1.9761553e-09
1.1584809e-08
1.703821e-09
1.1075642e-08
1.4913928e-09
1.0624632e-08
1.3210526e-09
1.0221172e-08
1.1817751e-09
9.857156e-09
1.0662447e-09
9.5263142e-09
9.69074e-10
9.2236798e-09
8.8645234e-10
8.9452606e-09
8.1552463e-10
8.6878578e-09
7.5396598e-10
8.4488202e-09
7.0017185e-10
8.2259352e-09
6.5285937e-10
8.0173512e-09
6.1097014e-10
7.8214978e-09
5.7368069e-10
7.6370372e-09
5.403101e-10
7.4628233e-09
5.1029622e-10
7.2978651e-09
4.8318513e-10
7.1412972e-09
4.5860888e-10
6.9923627e-09
4.3624948e-10
6.8503973e-09
4.1583615e-10
6.7148161e-09
3.9713617e-10
6.5851036e-09
3.799457e-10
6.4608007e-09
3.6410034e-10
6.3414948e-09
3.4946364e-10
6.2268165e-09
3.3590845e-10
6.1164352e-09
3.2332205e-10
6.0100528e-09
3.1160855e-10
5.9074019e-09
3.0067838e-10
5.8082441e-09
2.9044666e-10
5.7123642e-09
2.8084518e-10
5.6195643e-09
2.7182331e-10
5.529664e-09
2.6332987e-10
5.4425022e-09
2.5530862e-10
5.3579352e-09
2.4770774e-10
5.2758345e-09
2.4048362e-10
5.1960857e-09
2.3359442e-10
5.1185915e-09
2.2699035e-10
5.0432713e-09
2.2062241e-10
4.970058e-09
2.1445058e-10
4.8988988e-09
2.0843404e-10
4.8297549e-09
2.025309e-10
4.7626018e-09
1.9669938e-10
4.6974314e-09
1.9089161e-10
4.6342585e-09
1.8504085e-10
4.5731365e-09
1.7903375e-10
4.5141553e-09
1.7276279e-10
4.4574304e-09
1.6615383e-10
4.4031083e-09
1.5911578e-10
4.3513681e-09
1.5155325e-10
4.3024274e-09
1.433538e-10
4.2565746e-09
1.3430948e-10
4.2141967e-09
1.2413192e-10
4.1757829e-09
1.1252225e-10
4.1419929e-09
9.8980167e-11
4.1138313e-09
8.2495967e-11
4.0919923e-09
6.3978483e-11
4.0786537e-09
3.9081303e-11
4.0750537e-09
1.0558269e-11
4.0821471e-09
-2.076203e-11
4.1025281e-09
-5.968261e-11
4.1379329e-09
-1.0368906e-10
4.1904471e-09
-1.5380699e-10
4.2612915e-09
-2.0750203e-10
4.3502505e-09
-2.6056635e-10
4.456584e-09
-3.1146655e-10
4.5785318e-09
-3.5721752e-10
4.7098722e-09
-3.8474331e-10
4.8394273e-09
-3.7951886e-10
4.9571058e-09
-3.4472729e-10
5.0541243e-09
-2.8420045e-10
5.1289615e-09
-2.1921724e-10
5.1857021e-09
-1.6620223e-10
5.2268947e-09
-1.2065422e-10
5.2567567e-09
-8.7463609e-11
5.2779456e-09
-6.2058391e-11
5.2922663e-09
-4.1941114e-11
5.3009177e-09
-2.5335597e-11
5.3047588e-09
-1.1246027e-11
5.3041903e-09
1.6691395e-12
5.2991963e-09
1.4631723e-11
5.2901281e-09
2.6564532e-11
5.2775984e-09
3.6703341e-11
5.2620938e-09
4.5417307e-11
5.2442601e-09
5.2239089e-11
5.2246799e-09
5.7354482e-11
5.203777e-09
6.1228885e-11
5.1820042e-09
6.3777079e-11
5.1597797e-09
6.5099907e-11
5.1373313e-09
6.5755481e-11
5.1147982e-09
6.6003602e-11
5.092368e-09
6.5702439e-11
5.0702028e-09
6.4925926e-11
5.0483478e-09
6.4017043e-11
5.0267773e-09
6.3184151e-11
5.0054789e-09
6.2387549e-11
4.9844593e-09
6.1570561e-11
4.9637568e-09
6.0642165e-11
4.9429398e-09
6.0978846e-11
4.922311e-09
6.0427338e-11
4.8997308e-09
6.614835e-11
4.8770572e-09
6.6424991e-11
4.8521285e-09
7.3003618e-11
4.3385741e-11
2.6636489e-06
4.8553267e-10
2.663436e-06
1.2527156e-09
2.6631511e-06
1.675116e-09
2.6628246e-06
1.9196552e-09
2.6624504e-06
2.1995148e-09
2.6620226e-06
2.5149403e-09
2.6615359e-06
2.8614821e-09
2.660983e-06
3.2507611e-09
2.6603542e-06
3.6977967e-09
2.659637e-06
4.2179351e-09
2.658816e-06
4.8293817e-09
2.657871e-06
5.5586619e-09
2.6567765e-06
6.4399914e-09
2.6554956e-06
7.5371255e-09
2.6539821e-06
8.9080277e-09
2.6521528e-06
1.0768574e-08
2.6499276e-06
1.3101827e-08
2.6470358e-06
1.7030993e-08
2.6434397e-06
2.1183619e-08
2.6378565e-06
3.2901996e-08
2.6309546e-06
4.0679702e-08
2.6144166e-06
9.7489818e-08
2.6038432e-06
6.211523e-08
1.3616223e-06
7.5070045e-06
8.188263e-08
7.6370849e-06
4.0178243e-08
1.3584913e-07
3.0436467e-08
3.1491797e-08
2.5724493e-08
1.5229122e-08
2.2811184e-08
9.4145263e-09
2.0743911e-08
6.6804735e-09
1.9166382e-08
5.0978812e-09
1.7900506e-08
4.0908481e-09
1.6853661e-08
3.3830401e-09
1.5968154e-08
2.8616626e-09
1.5204686e-08
2.4672881e-09
1.4536413e-08
2.159666e-09
1.3944471e-08
1.9129948e-09
1.3414939e-08
1.7113069e-09
1.2937176e-08
1.5440075e-09
1.2502955e-08
1.4032952e-09
1.2105756e-08
1.283652e-09
1.1740339e-08
1.1809417e-09
1.1402505e-08
1.0917993e-09
1.1088776e-08
1.0139015e-09
1.0796246e-08
9.4538902e-10
1.0522486e-08
8.8473005e-10
1.0265435e-08
8.3073195e-10
1.0023336e-08
7.8240872e-10
9.7946861e-09
7.389463e-10
9.5781838e-09
6.9968738e-10
9.3726936e-09
6.6409912e-10
9.177222e-09
6.3172103e-10
8.9908972e-09
6.0216101e-10
8.8129513e-09
5.7508205e-10
8.642708e-09
5.5018901e-10
8.4795645e-09
5.272438e-10
8.3229794e-09
5.060488e-10
8.1724679e-09
4.8641992e-10
8.027596e-09
4.6819392e-10
7.8879726e-09
4.5123194e-10
7.7532467e-09
4.3540429e-10
7.6231053e-09
4.2058808e-10
7.497266e-09
4.0668451e-10
7.375469e-09
3.9362025e-10
7.2574777e-09
3.8132119e-10
7.1430804e-09
3.6970592e-10
7.0320888e-09
3.5869935e-10
6.9243341e-09
3.4823836e-10
6.8196661e-09
3.3826237e-10
6.7179572e-09
3.2869927e-10
6.6191015e-09
3.1947811e-10
6.5230111e-09
3.1054094e-10
6.4296165e-09
3.0182864e-10
6.3388669e-09
2.9328053e-10
6.2507302e-09
2.8483612e-10
6.1651957e-09
2.7642608e-10
6.0822828e-09
2.6795375e-10
6.0020615e-09
2.5925503e-10
5.9246501e-09
2.5017423e-10
5.8502e-09
2.4060392e-10
5.7789035e-09
2.3041225e-10
5.7109957e-09
2.1946103e-10
5.6467622e-09
2.075873e-10
5.5865818e-09
1.9448992e-10
5.5309624e-09
1.7975129e-10
5.4805462e-09
1.6293848e-10
5.4361993e-09
1.4332708e-10
5.3992401e-09
1.1945515e-10
5.3705796e-09
9.2639001e-11
5.3530762e-09
5.6584698e-11
5.3483555e-09
1.5278986e-11
5.35767e-09
-3.0076548e-11
5.3844242e-09
-8.6436801e-11
5.4308966e-09
-1.5016153e-10
5.4998238e-09
-2.2273416e-10
5.5928075e-09
-3.0048576e-10
5.709565e-09
-3.7732379e-10
5.8491233e-09
-4.5102483e-10
6.00917e-09
-5.1726423e-10
6.1815399e-09
-5.5711328e-10
6.351566e-09
-5.4954491e-10
6.5060062e-09
-4.991675e-10
6.6333344e-09
-4.1152866e-10
6.7315541e-09
-3.1743686e-10
6.8060252e-09
-2.4067336e-10
6.8600918e-09
-1.7472083e-10
6.8992877e-09
-1.2665949e-10
6.9271003e-09
-8.987102e-11
6.9458984e-09
-6.073919e-11
6.9572556e-09
-3.6692782e-11
6.9622989e-09
-1.6289397e-11
6.9615546e-09
2.4134865e-12
6.9550015e-09
2.1184771e-11
6.9431011e-09
3.8465014e-11
6.9266572e-09
5.3147196e-11
6.9063087e-09
6.5765806e-11
6.8829033e-09
7.5644537e-11
6.8572055e-09
8.3052207e-11
6.8297718e-09
8.866257e-11
6.8011963e-09
9.2352646e-11
6.7720277e-09
9.426845e-11
6.7425654e-09
9.5217813e-11
6.712992e-09
9.5577019e-11
6.6835534e-09
9.5140987e-11
6.6544627e-09
9.4016707e-11
6.6257791e-09
9.270058e-11
6.5974689e-09
9.1494335e-11
6.5695159e-09
9.0340622e-11
6.541929e-09
8.9157427e-11
6.5147582e-09
8.7812993e-11
6.4874375e-09
8.8299531e-11
6.4603639e-09
8.7500914e-11
6.4307312e-09
9.5781105e-11
6.4009758e-09
9.6180377e-11
6.3682568e-09
1.0572255e-10
6.2812786e-11
2.8985373e-06
5.7546035e-10
2.898305e-06
1.4850416e-09
2.897994e-06
1.9860994e-09
2.8976375e-06
2.2761388e-09
2.8972291e-06
2.6079591e-09
2.8967621e-06
2.9819219e-09
2.8962308e-06
3.3927566e-09
2.8956274e-06
3.8542324e-09
2.894941e-06
4.3841493e-09
2.8941583e-06
5.0006949e-09
2.8932622e-06
5.7254425e-09
2.892231e-06
6.5898237e-09
2.8910367e-06
7.6343792e-09
2.8896391e-06
8.9346573e-09
2.8879878e-06
1.0559322e-08
2.8859922e-06
1.2764191e-08
2.883565e-06
1.5529086e-08
2.8804109e-06
2.0185004e-08
2.8764892e-06
2.5105323e-08
2.8704017e-06
3.8989571e-08
2.8628769e-06
4.8204497e-08
2.8448479e-06
1.1551883e-07
2.8333025e-06
7.3660592e-08
1.4935408e-06
8.8467662e-06
1.0598045e-07
9.0246452e-06
5.2145511e-08
1.8968407e-07
3.9503943e-08
4.4133365e-08
3.3388558e-08
2.1344506e-08
2.9607175e-08
1.3195909e-08
2.6923911e-08
9.3637379e-09
2.4876329e-08
7.1454631e-09
2.323329e-08
5.7338873e-09
2.1874546e-08
4.741784e-09
2.0725212e-08
4.0109967e-09
1.9734284e-08
3.4582164e-09
1.8866915e-08
3.027035e-09
1.809862e-08
2.6812894e-09
1.7411331e-08
2.3985962e-09
1.6791234e-08
2.1641037e-09
1.6227652e-08
1.9668772e-09
1.5712121e-08
1.7991828e-09
1.5237842e-08
1.6552207e-09
1.4799365e-08
1.5302766e-09
1.4392172e-08
1.4210945e-09
1.4012495e-08
1.325066e-09
1.365718e-08
1.2400454e-09
1.3323551e-08
1.1643609e-09
1.3009329e-08
1.0966304e-09
1.2712563e-08
1.035713e-09
1.2431563e-08
9.8068728e-10
1.2164855e-08
9.3080642e-10
1.1911151e-08
8.8542497e-10
1.1669319e-08
8.4399337e-10
1.1438362e-08
8.0603927e-10
1.1217402e-08
7.71149e-10
1.1005657e-08
7.3898885e-10
1.0802424e-08
7.0928182e-10
1.0607074e-08
6.8176986e-10
1.0419043e-08
6.5622421e-10
1.0237825e-08
6.3245022e-10
1.0062963e-08
6.1026613e-10
9.8940518e-09
5.894997e-10
9.7307238e-09
5.7001246e-10
9.5726425e-09
5.517016e-10
9.4195004e-09
5.3446326e-10
9.271023e-09
5.181833e-10
9.1269658e-09
5.0275653e-10
8.9871098e-09
4.8809443e-10
8.85126e-09
4.741121e-10
8.7192508e-09
4.6070851e-10
8.5909447e-09
4.477842e-10
8.4662277e-09
4.3525794e-10
8.3450095e-09
4.2304684e-10
8.2272242e-09
4.1106587e-10
8.1128301e-09
3.9923022e-10
8.0018134e-09
3.8744271e-10
7.8941994e-09
3.7556783e-10
7.7900787e-09
3.6337564e-10
7.689605e-09
3.5064795e-10
7.5929748e-09
3.372341e-10
7.5004378e-09
3.229493e-10
7.412299e-09
3.0759982e-10
7.3289292e-09
2.9095706e-10
7.2508203e-09
2.7259889e-10
7.1786316e-09
2.5193995e-10
7.1131968e-09
2.2837331e-10
7.0556402e-09
2.0088368e-10
7.0076731e-09
1.674222e-10
6.9704776e-09
1.2983454e-10
6.9477638e-09
7.929847e-11
6.9416423e-09
2.1400541e-11
6.9537378e-09
-4.2172037e-11
6.9884685e-09