/*--------------------------------*- C++ -*----------------------------------*\
| =========                 |                                                 |
| \\      /  F ield         | OpenFOAM: The Open Source CFD Toolbox           |
|  \\    /   O peration     | Version:  2206                                  |
|   \\  /    A nd           | Website:  www.openfoam.com                      |
|    \\/     M anipulation  |                                                 |
\*---------------------------------------------------------------------------*/
FoamFile
{
    version     2.0;
    format      ascii;
    arch        "LSB;label=32;scalar=64";
    class       volVectorField;
    location    "1300";
    object      U;
}
// * * * * * * * * * * * * * * * * * * * * * * * * * * * * * * * * * * * * * //

dimensions      [0 1 -1 0 0 0 0];

internalField   nonuniform List<vector> 
13056
(
(0.99999999 7.6674015e-10 5.0639398e-25)
(0.99994233 2.2433051e-09 0)
(0.99984444 3.401765e-09 0)
(0.99973197 4.4219392e-09 0)
(0.99960337 5.746295e-09 0)
(0.99945578 7.448721e-09 0)
(0.99928748 9.6027444e-09 0)
(0.99909627 1.2351733e-08 0)
(0.998879 1.5893562e-08 0)
(0.99863156 2.0483021e-08 0)
(0.99834885 2.6456733e-08 0)
(0.99802446 3.4286063e-08 0)
(0.99764996 4.4612865e-08 0)
(0.9972146 5.8459045e-08 0)
(0.996702 7.7054723e-08 0)
(0.9960938 1.033798e-07 0)
(0.99534732 1.3876124e-07 0)
(0.99444365 1.9755239e-07 0)
(0.99320581 2.6677264e-07 0)
(0.99176808 4.4530882e-07 0)
(0.98907633 5.8459336e-07 0)
(0.98660287 1.4677528e-06 0)
(0.9768486 9.6246546e-07 -5.1713735e-21)
(0.97860883 0.00012190961 8.8312452e-18)
(0.0031012944 0.00012231374 0)
(0.001223242 7.2858939e-08 -1.230877e-20)
(0.0008710665 4.7754916e-08 4.0827754e-18)
(0.00071551431 6.0634644e-09 0)
(0.00062553241 3.7157291e-09 0)
(0.00056373696 2.6124667e-09 0)
(0.00051781624 1.9752961e-09 0)
(0.0004815276 1.5701049e-09 0)
(0.00045183798 1.2857456e-09 0)
(0.00042696162 1.0766855e-09 0)
(0.00040567908 9.1876154e-10 0)
(0.0003871619 7.9572421e-10 0)
(0.00037084006 6.9720458e-10 0)
(0.00035630108 6.1676981e-10 0)
(0.00034323218 5.5013844e-10 0)
(0.0003313916 4.9416851e-10 0)
(0.00032059237 4.4662673e-10 0)
(0.00031068171 4.058613e-10 2.3563518e-25)
(0.00030153922 3.7052706e-10 0)
(0.00029306652 3.3967681e-10 0)
(0.00028518071 3.1257096e-10 0)
(0.00027781323 2.8859079e-10 0)
(0.00027090598 2.6725877e-10 0)
(0.00026440962 2.4818069e-10 0)
(0.00025828195 2.3103207e-10 0)
(0.00025248676 2.1555029e-10 0)
(0.00024699246 2.0152123e-10 0)
(0.00024177143 1.8876108e-10 0)
(0.00023679949 1.7711392e-10 0)
(0.00023205536 1.6644631e-10 0)
(0.0002275203 1.5664238e-10 0)
(0.00022317779 1.476075e-10 0)
(0.00021901293 1.3926212e-10 0)
(0.00021501237 1.3153363e-10 0)
(0.00021116421 1.2435822e-10 0)
(0.00020745771 1.1768128e-10 0)
(0.00020388321 1.1145295e-10 0)
(0.00020043209 1.0562732e-10 0)
(0.00019709664 1.0016673e-10 0)
(0.00019386985 9.5041372e-11 0)
(0.00019074519 9.02225e-11 0)
(0.00018771684 8.5681003e-11 0)
(0.0001847796 8.1390688e-11 0)
(0.00018192884 7.7329398e-11 0)
(0.00017916039 7.3476638e-11 0)
(0.0001764706 6.9810553e-11 0)
(0.00017385646 6.6310917e-11 0)
(0.00017131548 6.2961472e-11 0)
(0.00016884556 5.9746748e-11 0)
(0.00016644517 5.6652048e-11 0)
(0.00016411321 5.3663858e-11 0)
(0.0001618491 5.0768075e-11 0)
(0.00015965288 4.7947036e-11 0)
(0.00015752552 4.5172951e-11 0)
(0.00015546972 4.2422525e-11 0)
(0.00015348897 3.9683469e-11 0)
(0.00015158769 3.6940997e-11 0)
(0.0001497715 3.4181823e-11 0)
(0.00014804705 3.1391446e-11 0)
(0.00014642261 2.8537516e-11 0)
(0.00014490968 2.5576196e-11 0)
(0.00014352328 2.2469097e-11 0)
(0.00014228192 1.9146377e-11 0)
(0.00014121238 1.5448328e-11 0)
(0.00014035693 1.161765e-11 0)
(0.00013972011 2.5770281e-11 0)
(0.00013944921 2.1362495e-12 -3.2501888e-25)
(0.00013947783 -3.469441e-12 0)
(0.00013994136 -9.2398707e-12 0)
(0.00014088065 -1.5497121e-11 0)
(0.00014237447 -2.2139631e-11 0)
(0.00014448689 -2.8724325e-11 0)
(0.00014723673 -3.4638778e-11 0)
(0.00015058942 -3.9705441e-11 0)
(0.00015452964 -4.3628445e-11 0)
(0.00015895075 -4.4978174e-11 0)
(0.00016352837 -4.2411323e-11 0)
(0.00016781758 -3.6784988e-11 0)
(0.00017157608 -1.0873958e-10 9.2906596e-21)
(0.00017444042 -2.1195219e-11 0)
(0.00017668554 -1.5273922e-11 0)
(0.00017830981 -1.0507426e-11 0)
(0.00017949411 -7.2113365e-12 0)
(0.00018034498 -4.8354264e-12 0)
(0.00018093719 -3.0838037e-12 0)
(0.00018131897 -1.756147e-12 0)
(0.00018152381 -7.4786543e-13 0)
(0.00018157683 1.3047875e-13 0)
(0.00018147961 8.2278263e-13 0)
(0.0001812349 1.4616824e-12 0)
(0.00018086188 2.0224351e-12 0)
(0.00018037713 2.50457e-12 0)
(0.0001798005 2.8819984e-12 0)
(0.00017915636 3.1649843e-12 0)
(0.00017846019 3.3795582e-12 0)
(0.00017772551 3.520748e-12 0)
(0.0001769698 3.5940767e-12 0)
(0.00017620422 3.6305525e-12 0)
(0.0001754332 3.6445636e-12 0)
(0.00017466181 3.6281618e-12 0)
(0.00017389783 3.5853786e-12 0)
(0.0001731446 3.5353094e-12 0)
(0.00017240185 3.4894468e-12 0)
(0.00017166807 3.4456779e-12 0)
(0.00017094393 3.4006534e-12 0)
(0.00017022922 3.34952e-12 0)
(0.00016952677 3.3681868e-12 0)
(0.00016880411 3.3388789e-12 0)
(0.00016811459 3.6533414e-12 0)
(0.0001672578 1.3852702e-11 0)
(0.00016656214 3.97708e-12 4.825676e-24)
(0.00016555052 9.132554e-12 0)
(0.99999999 2.3130702e-09 0)
(0.99994226 6.7687696e-09 0)
(0.99984422 1.0265168e-08 0)
(0.99973158 1.3343982e-08 0)
(0.99960278 1.7340415e-08 0)
(0.99945495 2.2477612e-08 0)
(0.99928639 2.8977428e-08 0)
(0.99909489 3.7272388e-08 0)
(0.99887728 4.795948e-08 0)
(0.99862947 6.1807385e-08 0)
(0.99834635 7.9831642e-08 0)
(0.99802149 1.0345425e-07 0)
(0.99764647 1.3461147e-07 0)
(0.99721051 1.7638602e-07 0)
(0.99669723 2.3248846e-07 0)
(0.99608825 3.1190796e-07 0)
(0.99534084 4.1864567e-07 0)
(0.9944361 5.9599954e-07 0)
(0.99319686 8.048059e-07 0)
(0.99175759 1.3433458e-06 0)
(0.98906323 1.7634821e-06 0)
(0.98658741 4.4275572e-06 0)
(0.97682402 2.9024354e-06 1.919511e-20)
(0.97857936 0.00036640834 -7.2292021e-21)
(0.009315077 0.00036809145 0)
(0.0036877336 1.2008273e-06 0)
(0.0026261783 2.6907167e-07 3.8551419e-22)
(0.0021572509 1.2708506e-07 0)
(0.0018859502 7.785151e-08 0)
(0.0016996339 5.4743132e-08 0)
(0.0015611792 4.1388377e-08 0)
(0.0014517685 3.2897951e-08 0)
(0.0013622545 2.6939896e-08 0)
(0.0012872525 2.255925e-08 0)
(0.0012230861 1.9250045e-08 0)
(0.0011672576 1.6671932e-08 0)
(0.0011180481 1.4607618e-08 0)
(0.0010742139 1.2922262e-08 0)
(0.001034812 1.1526129e-08 0)
(0.00099911347 1.0353407e-08 0)
(0.0009665546 9.357429e-09 0)
(0.00093667468 8.5033235e-09 -3.5631201e-25)
(0.00090911086 7.7629338e-09 -4.3810388e-25)
(0.00088356635 7.1165743e-09 0)
(0.00085979131 6.5486078e-09 0)
(0.00083757898 6.046162e-09 0)
(0.00081675423 5.5992062e-09 0)
(0.00079716827 5.1994798e-09 0)
(0.00077869391 4.8401842e-09 0)
(0.00076122194 4.5158135e-09 0)
(0.00074465712 4.2218809e-09 0)
(0.00072891617 3.9545359e-09 0)
(0.00071392624 3.7105107e-09 0)
(0.00069962312 3.4870098e-09 0)
(0.00068595035 3.2816063e-09 0)
(0.00067285807 3.0923153e-09 0)
(0.0006603014 2.9174697e-09 0)
(0.00064824009 2.7555493e-09 0)
(0.00063663823 2.6052169e-09 0)
(0.00062546348 2.4653279e-09 0)
(0.0006146867 2.334838e-09 0)
(0.00060428187 2.2127858e-09 0)
(0.00059422581 2.098381e-09 0)
(0.00058449731 1.9909989e-09 0)
(0.00057507675 1.8900376e-09 0)
(0.00056594654 1.794887e-09 0)
(0.00055709102 1.7049983e-09 0)
(0.00054849623 1.6199068e-09 0)
(0.0005401496 1.5391834e-09 0)
(0.00053204012 1.4623706e-09 0)
(0.00052415873 1.3890438e-09 0)
(0.00051649786 1.3188618e-09 0)
(0.00050905128 1.2515001e-09 0)
(0.0005018143 1.1866508e-09 0)
(0.00049478363 1.1240299e-09 0)
(0.00048795753 1.0633425e-09 0)
(0.00048133609 1.0042171e-09 0)
(0.00047492229 9.4607218e-10 0)
(0.00046872422 8.884192e-10 0)
(0.00046275243 8.3099612e-10 0)
(0.00045702023 7.7349552e-10 0)
(0.00045154461 7.1563807e-10 0)
(0.00044634557 6.5711611e-10 0)
(0.00044144805 5.9725158e-10 0)
(0.00043688679 5.3512715e-10 0)
(0.00043270705 4.6992952e-10 0)
(0.00042896464 4.0017842e-10 0)
(0.00042574032 3.2265196e-10 0)
(0.0004231615 2.4187353e-10 0)
(0.00042124205 1.448205e-10 4.3877548e-25)
(0.00042042566 3.7037003e-11 1.0276792e-24)
(0.00042051259 -7.0251331e-11 0)
(0.00042191068 -1.9513064e-10 0)
(0.00042474323 -3.2632574e-10 0)
(0.00042924761 -4.6544816e-10 0)
(0.00043561693 -6.0316055e-10 0)
(0.00044390786 -7.2673022e-10 0)
(0.00045401616 -8.3260699e-10 0)
(0.00046589542 -9.1422604e-10 0)
(0.00047922393 -9.4157289e-10 0)
(0.00049302386 -8.8698313e-10 0)
(0.00050595423 -7.683631e-10 0)
(0.00051728447 -6.1209916e-10 -1.2983171e-24)
(0.00052591975 -4.4253611e-10 -1.3102296e-24)
(0.00053268806 -3.1856727e-10 0)
(0.000537585 -2.1924042e-10 0)
(0.00054115555 -1.5041484e-10 0)
(0.00054372094 -1.0082672e-10 0)
(0.00054550648 -6.4254936e-11 0)
(0.00054665761 -3.652279e-11 0)
(0.00054727526 -1.5206069e-11 0)
(0.00054743519 2.1039264e-12 0)
(0.00054714215 1.7378975e-11 0)
(0.00054640441 3.0740386e-11 0)
(0.00054527982 4.2467291e-11 0)
(0.00054381839 5.2547112e-11 0)
(0.00054207991 6.0437324e-11 0)
(0.00054013792 6.6353954e-11 0)
(0.00053803907 7.0836145e-11 0)
(0.00053582411 7.3783397e-11 0)
(0.00053354575 7.5312591e-11 0)
(0.00053123763 7.6070756e-11 0)
(0.00052891309 7.635811e-11 0)
(0.00052658747 7.6009384e-11 0)
(0.00052428415 7.5110372e-11 0)
(0.00052201326 7.4058971e-11 0)
(0.00051977398 7.3095973e-11 0)
(0.00051756173 7.2175138e-11 0)
(0.00051537855 7.1230383e-11 0)
(0.00051322383 7.015674e-11 0)
(0.00051110605 7.0549028e-11 0)
(0.00050892743 6.9913437e-11 0)
(0.00050684862 7.6539907e-11 0)
(0.00050426594 7.8011757e-11 0)
(0.0005021686 8.4312864e-11 -7.464405e-24)
(0.00049911866 5.1148109e-11 1.1556981e-24)
(0.99999999 3.8958425e-09 0)
(0.99994219 1.1401555e-08 0)
(0.99984399 1.729249e-08 0)
(0.99973115 2.2479519e-08 0)
(0.99960211 2.9211919e-08 0)
(0.99945403 3.786587e-08 0)
(0.99928517 4.881507e-08 0)
(0.99909334 6.2787993e-08 0)
(0.99887537 8.0790118e-08 0)
(0.99862715 1.0411609e-07 0)
(0.99834356 1.3447627e-07 0)
(0.99801818 1.7426552e-07 0)
(0.99764257 2.2674469e-07 0)
(0.99720595 2.9710541e-07 0)
(0.99669192 3.9159607e-07 0)
(0.99608206 5.2535517e-07 0)
(0.99533363 7.0511811e-07 0)
(0.99442769 1.0038011e-06 0)
(0.99318691 1.3554403e-06 0)
(0.99174593 2.2623286e-06 0)
(0.98904867 2.969823e-06 0)
(0.98657023 7.4561948e-06 0)
(0.97679677 4.8905106e-06 -1.0169616e-20)
(0.97854674 0.00061463434 6.7678877e-55)
(0.015631314 0.00061861056 -6.7655809e-55)
(0.0062069453 3.3665544e-06 0)
(0.0044204214 7.6861801e-07 -2.0633738e-22)
(0.0036311809 3.6894906e-07 0)
(0.0031745042 2.2602718e-07 0)
(0.0028608812 1.5893813e-07 0)
(0.0026278209 1.2016359e-07 0)
(0.0024436535 9.5512033e-08 0)
(0.0022929784 7.8214007e-08 0)
(0.0021667309 6.5495645e-08 0)
(0.0020587229 5.5887887e-08 0)
(0.0019647499 4.8402782e-08 0)
(0.0018819187 4.2409471e-08 0)
(0.0018081355 3.7516414e-08 0)
(0.001741813 3.3463061e-08 0)
(0.0016817243 3.0058344e-08 0)
(0.0016269203 2.716677e-08 0)
(0.0015766256 2.4687076e-08 0)
(0.0015302296 2.2537543e-08 0)
(0.0014872325 2.0661017e-08 0)
(0.0014472138 1.9012076e-08 0)
(0.0014098255 1.755336e-08 0)
(0.0013747729 1.6255745e-08 0)
(0.0013418054 1.5095248e-08 0)
(0.001310709 1.4052132e-08 0)
(0.0012812998 1.3110412e-08 0)
(0.0012534176 1.225706e-08 0)
(0.0012269221 1.1480898e-08 0)
(0.0012016908 1.0772439e-08 0)
(0.0011776155 1.0123567e-08 0)
(0.0011546013 9.5272359e-09 0)
(0.0011325641 8.9776831e-09 0)
(0.0011114285 8.4700687e-09 0)
(0.0010911267 7.9999788e-09 0)
(0.0010715982 7.5635315e-09 0)
(0.0010527887 7.1574039e-09 0)
(0.001034649 6.7785638e-09 0)
(0.0010171354 6.4242207e-09 0)
(0.0010002088 6.0920799e-09 0)
(0.0009838336 5.7803275e-09 0)
(0.00096797674 5.4872159e-09 0)
(0.00095260858 5.2109743e-09 0)
(0.00093770278 4.9500089e-09 0)
(0.00092323586 4.7029709e-09 0)
(0.00090918663 4.4686144e-09 0)
(0.00089553658 4.2456113e-09 0)
(0.00088227044 4.0327295e-09 0)
(0.0008693755 3.8289773e-09 0)
(0.00085684124 3.6334133e-09 0)
(0.00084465979 3.4451433e-09 0)
(0.00083282559 3.2633429e-09 0)
(0.00082133574 3.0871554e-09 0)
(0.00081019036 2.9155026e-09 0)
(0.0007993945 2.7466965e-09 0)
(0.00078896177 2.5793193e-09 0)
(0.00077890992 2.4126092e-09 0)
(0.00076926136 2.2456744e-09 0)
(0.00076004467 2.0777035e-09 0)
(0.00075129357 1.9078016e-09 0)
(0.00074305 1.7340006e-09 0)
(0.00073537249 1.5536368e-09 0)
(0.0007283372 1.364349e-09 0)
(0.00072203811 1.1618407e-09 0)
(0.00071661118 9.3675088e-10 0)
(0.00071227086 7.022713e-10 0)
(0.00070904059 4.137776e-10 9.3012508e-25)
(0.00070766687 1.0832213e-10 -5.4465076e-25)
(0.00070781402 -2.0441873e-10 0)
(0.00071016806 -5.664914e-10 0)
(0.00071493672 -9.4736728e-10 0)
(0.0007225194 -1.3512565e-09 0)
(0.00073324103 -1.7510595e-09 0)
(0.00074719696 -2.1098118e-09 0)
(0.00076421176 -2.4171809e-09 0)
(0.00078420693 -2.6541016e-09 0)
(0.00080664074 -2.7335025e-09 0)
(0.0008298675 -2.5750634e-09 0)
(0.00085163058 -2.2307822e-09 0)
(0.00087070029 -1.7488414e-09 0)
(0.00088523479 -1.2848524e-09 0)
(0.00089662676 -9.2499113e-10 0)
(0.00090486935 -6.3659388e-10 0)
(0.00091087945 -4.3676523e-10 0)
(0.00091519772 -2.9278491e-10 0)
(0.00091820334 -1.8659483e-10 0)
(0.00092014112 -1.0607377e-10 0)
(0.00092118091 -4.4209085e-11 0)
(0.00092145022 6.1821294e-12 0)
(0.00092095708 5.0434459e-11 0)
(0.00091971539 8.9230054e-11 0)
(0.00091782252 1.2327882e-10 0)
(0.00091536267 1.5254457e-10 0)
(0.00091243649 1.7545388e-10 0)
(0.00090916772 1.9263296e-10 0)
(0.00090563495 2.0564626e-10 0)
(0.00090190674 2.1420399e-10 0)
(0.00089807181 2.1864505e-10 0)
(0.00089418677 2.2084673e-10 0)
(0.0008902741 2.2168104e-10 0)
(0.00088635962 2.2066923e-10 0)
(0.00088248268 2.1806009e-10 0)
(0.0008786603 2.1500772e-10 0)
(0.00087489114 2.1221168e-10 0)
(0.00087116751 2.0953785e-10 0)
(0.00086749279 2.0679495e-10 0)
(0.000863866 2.0367755e-10 0)
(0.00086030138 2.04815e-10 0)
(0.00085663444 2.0296591e-10 0)
(0.0008531354 2.2220365e-10 0)
(0.00084878883 2.2282974e-10 0)
(0.00084525857 2.4497763e-10 0)
(0.00084012485 1.4581953e-10 0)
(0.99999999 5.5390385e-09 1.0852341e-24)
(0.9999421 1.6212484e-08 0)
(0.99984372 2.4591482e-08 0)
(0.99973066 3.1968745e-08 0)
(0.99960137 4.1542975e-08 0)
(0.999453 5.3849571e-08 0)
(0.99928381 6.9419919e-08 0)
(0.99909161 8.9289729e-08 0)
(0.99887323 1.1488858e-07 0)
(0.99862454 1.4805714e-07 0)
(0.99834043 1.9122709e-07 0)
(0.99801448 2.4780318e-07 0)
(0.99763821 3.2242114e-07 0)
(0.99720085 4.2246154e-07 0)
(0.99668597 5.5680657e-07 0)
(0.99607514 7.4697727e-07 0)
(0.99532556 1.0025443e-06 0)
(0.99441829 1.4271652e-06 0)
(0.99317578 1.9270496e-06 0)
(0.99173289 3.2162105e-06 0)
(0.9890324 4.2219196e-06 0)
(0.98655104 1.0599565e-05 0)
(0.97676638 6.9559248e-06 0)
(0.97851042 0.00087023332 -3.5308823e-55)
(0.022141128 0.00087769328 3.5296881e-55)
(0.008818393 6.9416623e-06 0)
(0.0062805309 1.5846188e-06 0)
(0.0051592713 7.5995228e-07 0)
(0.0045103978 4.6558643e-07 0)
(0.0040647847 3.2739378e-07 0)
(0.0037336366 2.4752154e-07 0)
(0.0034719638 1.9674061e-07 0)
(0.0032578795 1.6110895e-07 0)
(0.0030785027 1.3491083e-07 0)
(0.0029250418 1.1511996e-07 0)
(0.0027915229 9.9701571e-08 0)
(0.0026738348 8.7356192e-08 0)
(0.0025690026 7.7277234e-08 0)
(0.0024747707 6.8927952e-08 0)
(0.0023893959 6.1914779e-08 0)
(0.0023115299 5.5958631e-08 0)
(0.0022400708 5.0850854e-08 0)
(0.0021741511 4.6423176e-08 0)
(0.0021130605 4.2557882e-08 0)
(0.0020562017 3.9161348e-08 0)
(0.0020030803 3.6156652e-08 0)
(0.0019532773 3.3483798e-08 0)
(0.001906437 3.1093384e-08 0)
(0.0018622551 2.8944755e-08 0)
(0.0018204704 2.7004985e-08 0)
(0.0017808553 2.5247238e-08 0)
(0.0017432104 2.3648489e-08 0)
(0.0017073617 2.2189194e-08 0)
(0.0016731554 2.0852638e-08 0)
(0.0016404567 1.9624308e-08 0)
(0.0016091462 1.8492334e-08 0)
(0.0015791167 1.7446743e-08 0)
(0.0015502718 1.6478447e-08 0)
(0.0015225257 1.5579448e-08 0)
(0.001495801 1.4742902e-08 0)
(0.0014700281 1.3962564e-08 0)
(0.0014451447 1.3232685e-08 0)
(0.0014210954 1.2548539e-08 0)
(0.0013978295 1.1906389e-08 0)
(0.0013753 1.1302636e-08 0)
(0.0013534648 1.0733631e-08 0)
(0.0013322866 1.0196093e-08 0)
(0.0013117319 9.6872423e-09 0)
(0.0012917707 9.204513e-09 0)
(0.0012723766 8.7451697e-09 0)
(0.001253528 8.3066744e-09 0)
(0.0012352068 7.8869843e-09 0)
(0.001217398 7.4841599e-09 0)
(0.0012000905 7.0963597e-09 0)
(0.0011832764 6.7218849e-09 0)
(0.0011669515 6.358971e-09 0)
(0.0011511161 6.0053968e-09 0)
(0.0011357772 5.6576862e-09 0)
(0.0011209543 5.3129189e-09 0)
(0.0011066725 4.9695242e-09 0)
(0.0010929638 4.6256663e-09 0)
(0.0010798686 4.2796731e-09 0)
(0.001067435 3.9296984e-09 0)
(0.0010557226 3.5716886e-09 0)
(0.0010448144 3.2001571e-09 0)
(0.0010348188 2.8102382e-09 0)
(0.0010258693 2.3930821e-09 0)
(0.0010181591 1.929415e-09 0)
(0.0010119928 1.4463965e-09 0)
(0.001007404 8.5299046e-10 -5.064762e-25)
(0.0010054528 2.2283327e-10 0)
(0.0010056629 -4.2121916e-10 0)
(0.0010090085 -1.1670885e-09 0)
(0.0010157849 -1.9516214e-09 0)
(0.0010265594 -2.7835295e-09 0)
(0.0010417936 -3.6070017e-09 0)
(0.0010616228 -4.3459131e-09 0)
(0.0010857979 -4.9789622e-09 0)
(0.0011142067 -5.4668344e-09 0)
(0.0011460793 -5.6302501e-09 0)
(0.0011790779 -5.3038394e-09 0)
(0.0012099969 -4.5947024e-09 0)
(0.0012370893 -3.6057079e-09 1.4983832e-24)
(0.0012577393 -2.6464415e-09 0)
(0.0012739244 -1.9052542e-09 0)
(0.0012856356 -1.3112564e-09 0)
(0.001294175 -8.9966234e-10 0)
(0.0013003107 -6.0309691e-10 0)
(0.0013045814 -3.8436518e-10 0)
(0.0013073349 -2.185069e-10 0)
(0.0013088125 -9.1070858e-11 0)
(0.0013091954 1.2712993e-11 0)
(0.0013084949 1.0387836e-10 0)
(0.0013067308 1.837923e-10 0)
(0.0013040415 2.5392734e-10 0)
(0.0013005467 3.1420888e-10 0)
(0.0012963893 3.6139877e-10 0)
(0.0012917451 3.9678444e-10 0)
(0.0012867258 4.2358842e-10 0)
(0.0012814288 4.4121576e-10 0)
(0.0012759802 4.5036436e-10 0)
(0.0012704603 4.5489931e-10 0)
(0.0012649013 4.566171e-10 0)
(0.0012593397 4.5453306e-10 0)
(0.0012538313 4.4915941e-10 0)
(0.0012484005 4.4287195e-10 0)
(0.0012430454 4.3711191e-10 0)
(0.0012377549 4.3160331e-10 0)
(0.0012325339 4.2595295e-10 0)
(0.0012273811 4.1953118e-10 0)
(0.0012223165 4.2187083e-10 0)
(0.0012171068 4.1805834e-10 0)
(0.0012121354 4.5767612e-10 0)
(0.0012059607 4.5938495e-10 0)
(0.0012009449 5.0481229e-10 0)
(0.0011936509 3.0033111e-10 0)
(0.99999999 7.2675548e-09 0)
(0.99994201 2.1274647e-08 0)
(0.99984342 3.227331e-08 0)
(0.99973011 4.1956281e-08 0)
(0.99960054 5.4521505e-08 0)
(0.99945184 7.0672261e-08 0)
(0.99928228 9.1105857e-08 0)
(0.99908967 1.1718118e-07 0)
(0.99887082 1.5077394e-07 0)
(0.99862162 1.9429919e-07 0)
(0.99833692 2.509473e-07 0)
(0.99801032 3.2518519e-07 0)
(0.99763332 4.2309456e-07 0)
(0.99719512 5.5435805e-07 0)
(0.99667929 7.3062724e-07 0)
(0.99606737 9.8013543e-07 0)
(0.9953165 1.3154318e-06 0)
(0.99440774 1.8725024e-06 0)
(0.99316328 2.528282e-06 0)
(0.99171826 4.2194038e-06 0)
(0.98901414 5.5386736e-06 0)
(0.98652951 1.3905113e-05 0)
(0.97673236 9.1301967e-06 0)
(0.97846981 0.0011368263 0)
(0.028936733 0.0011490296 0)
(0.011560956 1.2080924e-05 0)
(0.0082342227 2.7494036e-06 0)
(0.0067642982 1.3179998e-06 0)
(0.0059135416 8.0751528e-07 0)
(0.0053292869 5.678357e-07 0)
(0.0048951063 4.2930266e-07 0)
(0.0045520238 3.412248e-07 0)
(0.0042713368 2.7942507e-07 0)
(0.0040361551 2.3398708e-07 0)
(0.0038349526 1.996615e-07 0)
(0.0036598969 1.729197e-07 0)
(0.0035055973 1.5150793e-07 0)
(0.0033681532 1.3402712e-07 0)
(0.0032446073 1.1954626e-07 0)
(0.0031326739 1.0738276e-07 0)
(0.0030305852 9.7052585e-08 0)
(0.0029368965 8.8193753e-08 0)
(0.0028504707 8.0514505e-08 0)
(0.0027703761 7.3810701e-08 0)
(0.0026958299 6.7919853e-08 0)
(0.0026261836 6.2708612e-08 0)
(0.0025608881 5.807291e-08 0)
(0.0024994768 5.3927064e-08 0)
(0.002441551 5.0200565e-08 0)
(0.0023867682 4.6836304e-08 0)
(0.0023348297 4.3787737e-08 0)
(0.0022854745 4.1014931e-08 0)
(0.0022384741 3.848399e-08 0)
(0.0021936271 3.6165922e-08 0)
(0.0021507566 3.403556e-08 0)
(0.0021097063 3.2072311e-08 0)
(0.0020703353 3.0258885e-08 0)
(0.0020325175 2.8579513e-08 0)
(0.0019961402 2.7020329e-08 0)
(0.0019611022 2.5569461e-08 0)
(0.0019273119 2.4216076e-08 0)
(0.0018946879 2.2950208e-08 0)
(0.0018631574 2.1763657e-08 0)
(0.001832654 2.0649942e-08 0)
(0.0018031161 1.9602821e-08 0)
(0.0017744885 1.8615966e-08 0)
(0.0017467222 1.7683685e-08 0)
(0.0017197735 1.6801158e-08 0)
(0.0016936027 1.5963934e-08 0)
(0.0016681756 1.5167271e-08 0)
(0.0016434636 1.4406766e-08 0)
(0.001619443 1.3678875e-08 0)
(0.0015960943 1.2980235e-08 0)
(0.0015734028 1.2307652e-08 0)
(0.0015513581 1.165818e-08 0)
(0.0015299549 1.1028756e-08 0)
(0.0015091933 1.041553e-08 0)
(0.0014890828 9.8124732e-09 0)
(0.0014696487 9.2145211e-09 0)
(0.0014509242 8.6189479e-09 0)
(0.0014329509 8.0225704e-09 0)
(0.0014157821 7.4224875e-09 0)
(0.0013994807 6.8154935e-09 0)
(0.0013841248 6.1945577e-09 0)
(0.0013698234 5.5501642e-09 0)
(0.0013567186 4.8738714e-09 0)
(0.0013449854 4.1503316e-09 0)
(0.0013348772 3.3461279e-09 0)
(0.0013267933 2.5083517e-09 0)
(0.0013207779 1.4799037e-09 0)
(0.0013182205 3.8613851e-10 0)
(0.0013184973 -7.3083362e-10 0)
(0.0013228848 -2.0244736e-09 0)
(0.0013317705 -3.3851323e-09 0)
(0.0013458979 -4.827913e-09 0)
(0.001365872 -6.2560379e-09 0)
(0.0013918704 -7.5374997e-09 0)
(0.001423566 -8.6353151e-09 0)
(0.0014608116 -9.4812464e-09 0)
(0.0015025971 -9.764471e-09 0)
(0.001545858 -9.1982901e-09 0)
(0.0015863926 -7.9684335e-09 0)
(0.0016219105 -6.2565139e-09 0)
(0.0016489834 -4.5897319e-09 0)
(0.0016702028 -3.3043373e-09 0)
(0.0016855574 -2.2742008e-09 0)
(0.0016967535 -1.5603688e-09 0)
(0.0017047985 -1.0460248e-09 0)
(0.0017103982 -6.6666234e-10 0)
(0.0017140086 -3.7900205e-10 0)
(0.0017159463 -1.5797445e-10 0)
(0.0017164486 2.2022404e-11 0)
(0.0017155305 1.8014607e-10 0)
(0.0017132179 3.1874985e-10 0)
(0.0017096922 4.4039136e-10 0)
(0.0017051104 5.4494115e-10 0)
(0.0016996598 6.2678662e-10 0)
(0.001693571 6.8815915e-10 0)
(0.0016869905 7.346457e-10 0)
(0.0016800459 7.6521812e-10 0)
(0.0016729024 7.8108663e-10 0)
(0.0016656656 7.889519e-10 0)
(0.0016583773 7.9193016e-10 0)
(0.0016510857 7.88316e-10 0)
(0.001643864 7.7899733e-10 0)
(0.0016367439 7.6809249e-10 0)
(0.0016297229 7.5810132e-10 0)
(0.0016227868 7.4854592e-10 0)
(0.0016159418 7.3874523e-10 0)
(0.0016091862 7.2760697e-10 0)
(0.0016025463 7.3165832e-10 0)
(0.0015957163 7.2504292e-10 0)
(0.0015891985 7.9373179e-10 0)
(0.0015811042 7.9706291e-10 0)
(0.0015745281 8.7572931e-10 -9.6158179e-24)
(0.0015649652 5.2081725e-10 1.4888251e-24)
(0.99999999 9.107783e-09 0)
(0.9999419 2.6665661e-08 0)
(0.99984309 4.0456169e-08 0)
(0.99972949 5.2595956e-08 0)
(0.99959959 6.834739e-08 0)
(0.99945053 8.8592953e-08 0)
(0.99928055 1.1420666e-07 0)
(0.99908747 1.4689145e-07 0)
(0.9988681 1.8899799e-07 0)
(0.99861831 2.4355284e-07 0)
(0.99833296 3.1455402e-07 0)
(0.99800562 4.0759908e-07 0)
(0.99762779 5.3030874e-07 0)
(0.99718866 6.9481588e-07 0)
(0.99667175 9.1571903e-07 0)
(0.9960586 1.2283955e-06 0)
(0.99530628 1.6485607e-06 0)
(0.99439583 2.3466076e-06 0)
(0.99314919 3.1683007e-06 0)
(0.99170176 5.2871667e-06 0)
(0.98899357 6.9400934e-06 0)
(0.98650526 1.742303e-05 0)
(0.97669411 1.1446958e-05 0)
(0.97842424 0.0014180831 0)
(0.036112529 0.001436565 0)
(0.014475454 1.8939099e-05 0)
(0.010310607 4.3288036e-06 0)
(0.0084701868 2.0752139e-06 0)
(0.0074048498 1.2715159e-06 0)
(0.0066732346 8.9411871e-07 0)
(0.0061295398 6.7598121e-07 0)
(0.0056999296 5.3728844e-07 0)
(0.0053484536 4.3997836e-07 0)
(0.0050539593 3.6843185e-07 0)
(0.004802015 3.1438243e-07 0)
(0.0045828124 2.7227461e-07 0)
(0.004389601 2.3855978e-07 0)
(0.0042174961 2.1103475e-07 0)
(0.0040627945 1.8823344e-07 0)
(0.0039226341 1.6908105e-07 0)
(0.0037948012 1.5281547e-07 0)
(0.0036774865 1.3886652e-07 9.6716621e-25)
(0.0035692666 1.2677498e-07 0)
(0.0034689743 1.1621945e-07 -8.9384177e-35)
(0.0033756296 1.069439e-07 0)
(0.0032884205 9.873846e-08 0)
(0.0032066594 9.1439247e-08 0)
(0.0031297621 8.4911349e-08 0)
(0.0030572291 7.9043745e-08 0)
(0.0029886316 7.3746511e-08 0)
(0.0029235959 6.8946357e-08 0)
(0.0028617948 6.4580406e-08 0)
(0.0028029423 6.0595288e-08 0)
(0.0027467863 5.6945352e-08 0)
(0.0026931052 5.3590972e-08 0)
(0.0026417031 5.0499724e-08 0)
(0.002592404 4.7644379e-08 0)
(0.0025450497 4.5000112e-08 0)
(0.0024994992 4.2545087e-08 0)
(0.0024556256 4.0260613e-08 0)
(0.0024133145 3.8129632e-08 0)
(0.0023724637 3.6136452e-08 0)
(0.0023329821 3.4268164e-08 0)
(0.0022947866 3.251456e-08 0)
(0.0022578001 3.086581e-08 0)
(0.0022219535 2.9311953e-08 0)
(0.0021871853 2.7844026e-08 0)
(0.0021534408 2.6454439e-08 0)
(0.0021206706 2.5136185e-08 0)
(0.0020888314 2.3881796e-08 0)
(0.0020578876 2.268434e-08 0)
(0.0020278097 2.1538237e-08 0)
(0.001998573 2.0438192e-08 0)
(0.0019701593 1.9379173e-08 0)
(0.0019425554 1.8356541e-08 0)
(0.0019157548 1.7365477e-08 0)
(0.0018897577 1.6399914e-08 0)
(0.0018645758 1.5450363e-08 0)
(0.0018402409 1.450885e-08 0)
(0.0018167944 1.357108e-08 0)
(0.0017942887 1.2632042e-08 0)
(0.0017727904 1.1687167e-08 0)
(0.0017523781 1.0731401e-08 0)
(0.0017331498 9.7536732e-09 0)
(0.0017152421 8.7389999e-09 0)
(0.0016988328 7.6740857e-09 0)
(0.0016841412 6.5347667e-09 0)
(0.0016714845 5.2684389e-09 0)
(0.0016613629 3.9492464e-09 0)
(0.0016538314 2.3299555e-09 0)
(0.0016506302 6.0758017e-10 0)
(0.0016509783 -1.1511966e-09 0)
(0.0016564736 -3.1881152e-09 0)
(0.0016676016 -5.3305454e-09 0)
(0.001685293 -7.6022156e-09 0)
(0.0017103051 -9.8507779e-09 0)
(0.0017428602 -1.1868407e-08 0)
(0.0017825489 -1.3596798e-08 0)
(0.0018291858 -1.4928446e-08 0)
(0.001881506 -1.537412e-08 0)
(0.0019356726 -1.4482559e-08 0)
(0.0019864256 -1.2546165e-08 0)
(0.0020308975 -9.8513077e-09 0)
(0.0020647964 -7.2266298e-09 -9.6372016e-25)
(0.0020913664 -5.2028357e-09 0)
(0.0021105934 -3.5809201e-09 0)
(0.0021246136 -2.4569722e-09 0)
(0.002134688 -1.6471104e-09 0)
(0.0021417005 -1.0497718e-09 0)
(0.0021462221 -5.9682574e-10 0)
(0.0021486491 -2.4879274e-10 0)
(0.0021492785 3.4634667e-11 0)
(0.0021481293 2.8361837e-10 0)
(0.0021452339 5.0186627e-10 0)
(0.0021408194 6.9340256e-10 0)
(0.0021350824 8.5802333e-10 0)
(0.0021282576 9.8689624e-10 0)
(0.0021206336 1.0835335e-09 0)
(0.0021123937 1.1567281e-09 0)
(0.0021036981 1.2048671e-09 0)
(0.0020947534 1.2298558e-09 0)
(0.0020856918 1.2422404e-09 0)
(0.0020765658 1.2469285e-09 0)
(0.0020674356 1.2412385e-09 0)
(0.0020583928 1.2265677e-09 0)
(0.0020494773 1.2093973e-09 0)
(0.002040686 1.1936637e-09 0)
(0.0020320009 1.1786159e-09 0)
(0.00202343 1.1631825e-09 0)
(0.002014971 1.1456439e-09 0)
(0.0020066569 1.1520117e-09 0)
(0.001998105 1.1415931e-09 0)
(0.0019899437 1.2497032e-09 0)
(0.00197981 1.2549654e-09 0)
(0.0019715756 1.3790878e-09 0)
(0.0019596011 8.1976833e-10 -8.4971873e-25)
(0.99999999 1.1088002e-08 0)
(0.99994179 3.2468837e-08 0)
(0.99984271 4.9267089e-08 0)
(0.9997288 6.4053144e-08 0)
(0.99959853 8.3235508e-08 0)
(0.99944904 1.0789007e-07 0)
(0.9992786 1.3908107e-07 0)
(0.99908499 1.7888166e-07 0)
(0.99886502 2.301536e-07 0)
(0.99861457 2.9658147e-07 0)
(0.99832848 3.8303226e-07 0)
(0.99800031 4.9631997e-07 0)
(0.99762154 6.4572091e-07 0)
(0.99718134 8.4600384e-07 0)
(0.99666323 1.1149367e-06 0)
(0.99604869 1.4955816e-06 0)
(0.99529472 2.0070558e-06 0)
(0.99438237 2.8567625e-06 0)
(0.99313327 3.856921e-06 0)
(0.99168312 6.4358331e-06 0)
(0.98897034 8.4475998e-06 0)
(0.98647787 2.1207002e-05 0)
(0.97665099 1.3942337e-05 0)
(0.97837297 0.0017177762 0)
(0.043766138 0.0017443969 0)
(0.017605251 2.7972146e-05 0)
(0.012540622 6.4178509e-06 0)
(0.010302368 3.0770103e-06 0)
(0.0090065528 1.885444e-06 0)
(0.0081166597 1.3258314e-06 0)
(0.0074553352 1.0023661e-06 0)
(0.0069327889 7.9670011e-07 0)
(0.006505282 6.5240559e-07 0)
(0.0061470833 5.4631463e-07 0)
(0.0058406401 4.6616804e-07 0)
(0.0055740225 4.0372912e-07 0)
(0.005339019 3.5373604e-07 0)
(0.0051296879 3.1292153e-07 0)
(0.0049415247 2.791115e-07 0)
(0.0047710483 2.507122e-07 0)
(0.0046155658 2.2659361e-07 0)
(0.0044728767 2.0590998e-07 0)
(0.0043412499 1.8798063e-07 0)
(0.0042192652 1.7232902e-07 9.6419008e-35)
(0.0041057309 1.5857524e-07 0)
(0.0039996593 1.4640827e-07 0)
(0.0039002142 1.3558504e-07 0)
(0.0038066847 1.2590553e-07 0)
(0.0037184637 1.172051e-07 0)
(0.0036350294 1.0935041e-07 0)
(0.0035559271 1.022328e-07 0)
(0.0034807591 9.5759011e-08 0)
(0.0034091775 8.9849923e-08 0)
(0.0033408757 8.4437841e-08 0)
(0.003275584 7.946401e-08 0)
(0.0032130643 7.4880349e-08 0)
(0.0031531023 7.0646481e-08 0)
(0.0030955058 6.6725598e-08 0)
(0.0030401032 6.3085321e-08 0)
(0.0029867403 5.9697935e-08 0)
(0.0029352777 5.6538148e-08 0)
(0.0028855913 5.3582693e-08 0)
(0.0028375704 5.0812426e-08 0)
(0.0027911136 4.8212212e-08 0)
(0.0027461272 4.5767474e-08 0)
(0.0027025274 4.3463441e-08 0)
(0.0026602391 4.1286823e-08 0)
(0.002619196 3.9226367e-08 0)
(0.0025793378 3.7271683e-08 0)
(0.002540612 3.5411696e-08 0)
(0.0025029754 3.363613e-08 0)
(0.0024663918 3.1936711e-08 0)
(0.0024308314 3.0305582e-08 0)
(0.0023962719 2.8735288e-08 0)
(0.0023626975 2.7218945e-08 0)
(0.0023301 2.5749407e-08 0)
(0.0022984797 2.4317679e-08 0)
(0.0022678511 2.2909693e-08 0)
(0.0022382527 2.1513627e-08 0)
(0.0022097348 2.0123107e-08 0)
(0.0021823611 1.8730706e-08 0)
(0.0021562127 1.7329644e-08 0)
(0.0021313853 1.5912418e-08 0)
(0.0021079981 1.4462614e-08 0)
(0.0020862172 1.2958013e-08 0)
(0.0020662588 1.1378893e-08 0)
(0.00204839 9.6894312e-09 0)
(0.0020329964 7.8116407e-09 0)
(0.0020206865 5.8554714e-09 0)
(0.002011527 3.4542936e-09 0)
(0.0020076348 9.0031531e-10 0)
(0.0020080599 -1.7076477e-09 0)
(0.0020147455 -4.7279628e-09 0)
(0.0020282823 -7.9047181e-09 0)
(0.0020498018 -1.127301e-08 0)
(0.0020802251 -1.4606996e-08 0)
(0.0021198223 -1.7598556e-08 0)
(0.0021680956 -2.0161113e-08 0)
(0.0022248184 -2.2135184e-08 0)
(0.0022884516 -2.2795621e-08 0)
(0.0023543296 -2.1473541e-08 0)
(0.0024160561 -1.8602436e-08 0)
(0.0024701438 -1.4606674e-08 0)
(0.0025113736 -1.0715344e-08 -1.1218986e-24)
(0.0025436901 -7.7146904e-09 0)
(0.0025670766 -5.3098676e-09 0)
(0.0025841304 -3.6433184e-09 0)
(0.0025963849 -2.4424633e-09 0)
(0.0026049152 -1.5567166e-09 0)
(0.0026104157 -8.850779e-10 0)
(0.0026133684 -3.6899836e-10 0)