0 	0 	0.00016935431 	0 	0 	0 	-0.0024319214 	-2.2726294e-08 	0
0.0001001001 	5.4427174e-13 	0.00017452819 	0.015184328 	2.3085047e-07 	1.979097e-39 	0 	0 	0
0.0002002002 	2.091373e-11 	0.0001772628 	0.029375823 	6.8942543e-07 	-2.553584e-37 	0 	0 	0
0.0003003003 	1.7788835e-10 	0.00017931429 	0.043219399 	1.3616841e-06 	0 	0 	0 	0
0.0004004004 	7.8485237e-10 	0.00018094779 	0.056871141 	2.2119717e-06 	0 	0 	0 	0
0.0005005005 	2.5629942e-09 	0.00018241936 	0.070378606 	3.2707982e-06 	0 	0 	0 	0
0.0006006006 	6.6302706e-09 	0.00018360669 	0.08379014 	4.4638002e-06 	0 	0 	0 	0
0.0007007007 	1.4921965e-08 	0.00018480452 	0.09710084 	5.8819932e-06 	0 	0 	0 	0
0.0008008008 	2.9652776e-08 	0.00018589037 	0.11033313 	7.4611372e-06 	0 	0 	0 	0
0.0009009009 	5.4159114e-08 	0.00018688142 	0.12348607 	9.2010431e-06 	0 	0 	0 	0
0.001001001 	9.212053e-08 	0.00018779363 	0.13655675 	1.1093871e-05 	0 	0 	0 	0
0.0011011011 	1.460574e-07 	0.00018864122 	0.14954442 	1.3121473e-05 	0 	0 	0 	0
0.0012012012 	2.2133441e-07 	0.0001895404 	0.1624198 	1.5367861e-05 	0 	0 	0 	0
0.0013013013 	3.2977104e-07 	0.00019039262 	0.17514197 	1.7804127e-05 	0 	0 	0 	0
0.0014014014 	4.5920119e-07 	0.00019109405 	0.18777938 	2.0241413e-05 	0 	0 	0 	0
0.0015015015 	6.295443e-07 	0.00019200102 	0.20019573 	2.3030785e-05 	0 	0 	0 	0
0.0016016016 	8.3303598e-07 	0.00019263019 	0.21246585 	2.5733102e-05 	0 	0 	0 	0
0.0017017017 	1.0731037e-06 	0.00019349554 	0.22451272 	2.8760348e-05 	0 	0 	0 	0
0.0018018018 	1.350134e-06 	0.00019406865 	0.23636317 	3.1665044e-05 	0 	0 	0 	0
0.0019019019 	1.670011e-06 	0.00019489942 	0.24791223 	3.4914383e-05 	0 	0 	0 	0
0.002002002 	2.0052512e-06 	0.00019542718 	0.25938132 	3.7953319e-05 	0 	0 	0 	0
0.0021021021 	2.4053582e-06 	0.00019622825 	0.27030167 	4.139446e-05 	0 	0 	0 	0
0.0022022022 	2.8063647e-06 	0.00019691082 	0.28123078 	4.4741469e-05 	0 	0 	0 	0
0.0023023023 	3.247037e-06 	0.00019749131 	0.29173132 	4.8111095e-05 	0 	0 	0 	0
0.0024024024 	3.7129254e-06 	0.0001982638 	0.30191857 	5.1704349e-05 	0 	0 	0 	0
0.0025025025 	4.1803688e-06 	0.0001988386 	0.31211842 	5.5151062e-05 	0 	0 	0 	0
0.0026026026 	4.6693049e-06 	0.00019943846 	0.32177781 	5.8714777e-05 	0 	0 	0 	0
0.0027027027 	5.1670768e-06 	0.00020017864 	0.33118131 	6.2427623e-05 	0 	0 	0 	0
0.0028028028 	5.6653971e-06 	0.00020081754 	0.34059049 	6.6073802e-05 	0 	0 	0 	0
0.0029029029 	6.1651037e-06 	0.00020126882 	0.34969627 	6.9649414e-05 	1.5831527e-36 	0 	0 	0
0.003003003 	6.6640188e-06 	0.00020196842 	0.35831936 	7.3467519e-05 	5.5304461e-36 	0 	0 	0
0.0031031031 	7.162934e-06 	0.00020266803 	0.36694246 	7.7285623e-05 	9.4777395e-36 	0 	0 	0
0.0032032032 	7.6630722e-06 	0.00020310396 	0.37557924 	8.0957487e-05 	1.0984716e-35 	0 	0 	0
0.0033033033 	8.1600317e-06 	0.00020363616 	0.38368858 	8.4774152e-05 	1.0991142e-35 	0 	0 	0
0.0034034034 	8.6552255e-06 	0.00020428465 	0.39155741 	8.8696342e-05 	1.1000452e-35 	0 	0 	0
0.0035035035 	9.1504192e-06 	0.00020493314 	0.39942623 	9.2618532e-05 	1.1009762e-35 	0 	0 	0
0.0036036036 	9.6468833e-06 	0.00020536801 	0.40730556 	9.6447264e-05 	1.1013986e-35 	0 	0 	0
0.0037037037 	1.0138108e-05 	0.00020578951 	0.41482249 	0.00010033198 	8.0168189e-36 	0 	0 	0
0.0038038038 	1.0622983e-05 	0.00020637645 	0.42196512 	0.00010435145 	1.9967571e-36 	0 	0 	0
0.0039039039 	1.1107859e-05 	0.00020696338 	0.42910774 	0.00010837091 	-4.0233047e-36 	0 	0 	0
0.004004004 	1.1592734e-05 	0.00020755032 	0.43625037 	0.00011239038 	-1.0043367e-35 	0 	0 	0
0.0041041041 	1.2079347e-05 	0.00020780744 	0.44340877 	0.00011631304 	-1.0368407e-35 	0 	0 	0
0.0042042042 	1.2540365e-05 	0.00020825644 	0.45002832 	0.00012037606 	-1.0373962e-35 	0 	0 	0
0.0043043043 	1.2993336e-05 	0.00020877141 	0.45647887 	0.00012448476 	-1.0381257e-35 	0 	0 	0
0.0044044044 	1.3446308e-05 	0.00020928638 	0.46292942 	0.00012859346 	-1.0388551e-35 	0 	0 	0
0.0045045045 	1.389928e-05 	0.00020980135 	0.46937997 	0.00013270215 	-1.0395846e-35 	0 	0 	0
0.0046046046 	1.4353115e-05 	0.00021009199 	0.47584164 	0.00013678931 	-1.0397678e-35 	0 	0 	0
0.0047047047 	1.4784423e-05 	0.00021039697 	0.48203458 	0.00014092159 	-8.184235e-36 	0 	0 	0
0.0048048048 	1.518299e-05 	0.00021083046 	0.48783655 	0.00014512898 	-2.7946241e-36 	0 	0 	0
0.0049049049 	1.5581557e-05 	0.00021126396 	0.49363852 	0.00014933637 	2.5949869e-36 	0 	0 	0
0.005005005 	1.5980124e-05 	0.00021169745 	0.49944049 	0.00015354376 	7.9845978e-36 	0 	0 	0
0.0051051051 	1.6378691e-05 	0.00021213095 	0.50524246 	0.00015775115 	1.3374209e-35 	0 	0 	0
0.0052052052 	1.6777791e-05 	0.0002123499 	0.51105636 	0.00016199828 	1.6751635e-35 	0 	0 	0
0.0053053053 	1.7150569e-05 	0.00021259642 	0.51664946 	0.00016627925 	1.8365037e-35 	0 	0 	0
0.0054054054 	1.7477533e-05 	0.00021294285 	0.5218564 	0.00017060928 	1.7405059e-35 	0 	0 	0
0.0055055055 	1.7804496e-05 	0.00021328928 	0.52706334 	0.0001749393 	1.6445081e-35 	0 	0 	0
0.0056056056 	1.813146e-05 	0.00021363571 	0.53227028 	0.00017926933 	1.5485104e-35 	0 	0 	0
0.0057057057 	1.8458423e-05 	0.00021398214 	0.53747722 	0.00018359936 	1.4525126e-35 	0 	0 	0
0.0058058058 	1.8785325e-05 	0.00021428328 	0.54268729 	0.00018795757 	1.3174304e-35 	0 	0 	0
0.0059059059 	1.9112039e-05 	0.00021444405 	0.54790706 	0.00019240312 	1.0612142e-35 	0 	0 	0
0.006006006 	1.9393828e-05 	0.00021465752 	0.5528352 	0.00019686923 	7.447572e-36 	0 	0 	0
0.0061061061 	1.9636731e-05 	0.0002149166 	0.55751091 	0.00020135312 	3.7615496e-36 	0 	0 	0
0.0062062062 	1.9879633e-05 	0.00021517569 	0.56218661 	0.00020583701 	7.5527244e-38 	0 	0 	0
0.0063063063 	2.0122535e-05 	0.00021543477 	0.56686232 	0.00021032091 	-3.6104951e-36 	0 	0 	0
0.0064064064 	2.0365438e-05 	0.00021569385 	0.57153803 	0.0002148048 	-7.2965175e-36 	0 	0 	0
0.0065065065 	2.060834e-05 	0.00021595294 	0.57621373 	0.00021928869 	-1.098254e-35 	0 	0 	0
0.0066066066 	2.0850618e-05 	0.00021611752 	0.58089877 	0.00022390565 	-1.3723473e-35 	0 	0 	0
0.0067067067 	2.1092687e-05 	0.00021625058 	0.58558693 	0.000228567 	-1.6149179e-35 	0 	0 	0
0.0068068068 	2.1267149e-05 	0.00021641981 	0.58988203 	0.00023324993 	-1.5967959e-35 	0 	0 	0
0.0069069069 	2.1426806e-05 	0.00021659697 	0.59409105 	0.0002379376 	-1.5215826e-35 	0 	0 	0
0.007007007 	2.1586463e-05 	0.00021677413 	0.59830007 	0.00024262526 	-1.4463694e-35 	0 	0 	0
0.0071071071 	2.1746119e-05 	0.00021695129 	0.60250909 	0.00024731293 	-1.3711561e-35 	0 	0 	0
0.0072072072 	2.1905776e-05 	0.00021712845 	0.60671811 	0.00025200059 	-1.2959429e-35 	0 	0 	0
0.0073073073 	2.2065433e-05 	0.00021730561 	0.61092713 	0.00025668826 	-1.2207296e-35 	0 	0 	0
0.0074074074 	2.2224793e-05 	0.00021746303 	0.6151396 	0.00026143846 	-1.1099358e-35 	0 	0 	0
0.0075075075 	2.2383405e-05 	0.00021757054 	0.61936077 	0.00026634675 	-9.0919305e-36 	0 	0 	0
0.0076076076 	2.2534593e-05 	0.000217678 	0.6235382 	0.00027126077 	-7.1901171e-36 	0 	0 	0
0.0077077077 	2.2621501e-05 	0.00021778502 	0.62733692 	0.00027622435 	-6.2026723e-36 	0 	0 	0
0.0078078078 	2.270841e-05 	0.00021789204 	0.63113563 	0.00028118793 	-5.2152276e-36 	0 	0 	0
0.0079079079 	2.2795318e-05 	0.00021799906 	0.63493434 	0.00028615151 	-4.2277828e-36 	0 	0 	0
0.008008008 	2.2882227e-05 	0.00021810608 	0.63873305 	0.00029111509 	-3.240338e-36 	0 	0 	0
0.0081081081 	2.2969135e-05 	0.00021821311 	0.64253176 	0.00029607867 	-2.2528932e-36 	0 	0 	0
0.0082082082 	2.3056044e-05 	0.00021832013 	0.64633047 	0.00030104225 	-1.2654485e-36 	0 	0 	0
0.0083083083 	2.3142952e-05 	0.00021842715 	0.65012918 	0.00030600584 	-2.7800369e-37 	0 	0 	0
0.0084084084 	2.3228959e-05 	0.00021851927 	0.65393636 	0.00031113579 	0 	0 	0 	0
0.0085085085 	2.3314613e-05 	0.00021860556 	0.65774687 	0.00031633095 	0 	0 	0 	0
0.0086086086 	2.3387444e-05 	0.00021868329 	0.66146082 	0.00032155707 	0 	0 	0 	0
0.0087087087 	2.3422955e-05 	0.00021873608 	0.66489374 	0.00032687335 	0 	0 	0 	0
0.0088088088 	2.3458465e-05 	0.00021878888 	0.66832667 	0.00033218963 	0 	0 	0 	0
0.0089089089 	2.3493976e-05 	0.00021884168 	0.6717596 	0.00033750591 	0 	0 	0 	0
0.009009009 	2.3529487e-05 	0.00021889447 	0.67519252 	0.0003428222 	0 	0 	0 	0
0.0091091091 	2.3564997e-05 	0.00021894727 	0.67862545 	0.00034813848 	0 	0 	0 	0
0.0092092092 	2.3600508e-05 	0.00021900006 	0.68205837 	0.00035345476 	0 	0 	0 	0
0.0093093093 	2.3636019e-05 	0.00021905286 	0.6854913 	0.00035877104 	0 	0 	0 	0
0.0094094094 	2.3671529e-05 	0.00021910566 	0.68892422 	0.00036408732 	0 	0 	0 	0
0.0095095095 	2.3706223e-05 	0.00021917561 	0.69236727 	0.00036959033 	0 	0 	0 	0
0.0096096096 	2.3740839e-05 	0.00021924722 	0.69581129 	0.00037511127 	0 	0 	0 	0
0.0097097097 	2.3773372e-05 	0.00021931144 	0.69920934 	0.0003806564 	0 	0 	0 	0
0.0098098098 	2.3791981e-05 	0.00021932631 	0.70229998 	0.00038636327 	0 	0 	0 	0
0.0099099099 	2.3810591e-05 	0.00021934118 	0.70539061 	0.00039207015 	0 	0 	0 	0
0.01001001 	2.38292e-05 	0.00021935604 	0.70848125 	0.00039777703 	0 	0 	0 	0
0.01011011 	2.3847809e-05 	0.00021937091 	0.71157188 	0.00040348391 	0 	0 	0 	0
0.01021021 	2.3866419e-05 	0.00021938578 	0.71466252 	0.00040919079 	0 	0 	0 	0
0.01031031 	2.3885028e-05 	0.00021940064 	0.71775315 	0.00041489767 	0 	0 	0 	0
0.01041041 	2.3903637e-05 	0.00021941551 	0.72084379 	0.00042060454 	0 	0 	0 	0
0.010510511 	2.3922247e-05 	0.00021943038 	0.72393442 	0.00042631142 	0 	0 	0 	0
0.010610611 	2.3940856e-05 	0.00021944525 	0.72702506 	0.0004320183 	0 	0 	0 	0
0.010710711 	2.3959279e-05 	0.00021949491 	0.73012245 	0.00043783344 	0 	0 	0 	0
0.010810811 	2.3977624e-05 	0.00021955918 	0.73322268 	0.00044369405 	0 	0 	0 	0
0.010910911 	2.3995969e-05 	0.00021962345 	0.73632292 	0.00044955466 	0 	0 	0 	0
0.011011011 	2.4019093e-05 	0.00021964605 	0.73922495 	0.00045552476 	0 	0 	0 	0
0.011111111 	2.4045959e-05 	0.00021963601 	0.74197182 	0.00046158056 	0 	0 	0 	0
0.011211211 	2.4072824e-05 	0.00021962597 	0.74471869 	0.00046763636 	0 	0 	0 	0
0.011311311 	2.4099689e-05 	0.00021961593 	0.74746555 	0.00047369215 	0 	0 	0 	0
0.011411411 	2.4126555e-05 	0.00021960589 	0.75021242 	0.00047974795 	0 	0 	0 	0
0.011511512 	2.415342e-05 	0.00021959586 	0.75295929 	0.00048580375 	0 	0 	0 	0
0.011611612 	2.4180285e-05 	0.00021958582 	0.75570616 	0.00049185955 	0 	0 	0 	0
0.011711712 	2.420715e-05 	0.00021957578 	0.75845303 	0.00049791535 	0 	0 	0 	0
0.011811812 	2.4234016e-05 	0.00021956574 	0.7611999 	0.00050397115 	0 	0 	0 	0
0.011911912 	2.4260881e-05 	0.0002195557 	0.76394677 	0.00051002695 	0 	0 	0 	0
0.012012012 	2.4287746e-05 	0.00021954567 	0.76669364 	0.00051608275 	0 	0 	0 	0
0.012112112 	2.4314657e-05 	0.00021960214 	0.76944704 	0.00052223541 	0 	0 	0 	0
0.012212212 	2.4341571e-05 	0.00021966504 	0.77220107 	0.00052839743 	0 	0 	0 	0
0.012312312 	2.4368486e-05 	0.00021972794 	0.7749551 	0.00053455944 	0 	0 	0 	0
0.012412412 	2.4400068e-05 	0.00021975773 	0.77757762 	0.00054076761 	0 	0 	0 	0
0.012512513 	2.443992e-05 	0.00021972884 	0.77996716 	0.00054705757 	0 	0 	0 	0
0.012612613 	2.4479772e-05 	0.00021969996 	0.7823567 	0.00055334754 	0 	0 	0 	0
0.012712713 	2.4519624e-05 	0.00021967108 	0.78474624 	0.0005596375 	0 	0 	0 	0
0.012812813 	2.4559475e-05 	0.00021964219 	0.78713577 	0.00056592746 	0 	0 	0 	0
0.012912913 	2.4599327e-05 	0.00021961331 	0.78952531 	0.00057221742 	0 	0 	0 	0
0.013013013 	2.4639179e-05 	0.00021958443 	0.79191485 	0.00057850738 	0 	0 	0 	0
0.013113113 	2.4679031e-05 	0.00021955554 	0.79430439 	0.00058479734 	0 	0 	0 	0
0.013213213 	2.4718883e-05 	0.00021952666 	0.79669393 	0.0005910873 	0 	0 	0 	0
0.013313313 	2.4758735e-05 	0.00021949778 	0.79908347 	0.00059737726 	0 	0 	0 	0
0.013413413 	2.4798587e-05 	0.00021946889 	0.80147301 	0.00060366722 	0 	0 	0 	0
0.013513514 	2.4838438e-05 	0.00021944001 	0.80386255 	0.00060995718 	0 	0 	0 	0
0.013613614 	2.4878297e-05 	0.00021944192 	0.80625343 	0.00061627467 	0 	0 	0 	0
0.013713714 	2.491817e-05 	0.00021950629 	0.80864705 	0.00062264802 	0 	0 	0 	0
0.013813814 	2.4958042e-05 	0.00021957065 	0.81104066 	0.00062902137 	0 	0 	0 	0
0.013913914 	2.4997915e-05 	0.00021963502 	0.81343428 	0.00063539472 	0 	0 	0 	0
0.014014014 	2.5038897e-05 	0.00021966302 	0.81571036 	0.0006417675 	0 	0 	0 	0
0.014114114 	2.5082257e-05 	0.00021961306 	0.81773463 	0.00064813905 	0 	0 	0 	0
0.014214214 	2.5125616e-05 	0.00021956311 	0.8197589 	0.0006545106 	0 	0 	0 	0
0.014314314 	2.5168976e-05 	0.00021951315 	0.82178317 	0.00066088215 	0 	0 	0 	0
0.014414414 	2.5212336e-05 	0.0002194632 	0.82380744 	0.0006672537 	0 	0 	0 	0
0.014514515 	2.5255696e-05 	0.00021941324 	0.82583171 	0.00067362525 	0 	0 	0 	0
0.014614615 	2.5299055e-05 	0.00021936329 	0.82785598 	0.0006799968 	0 	0 	0 	0
0.014714715 	2.5342415e-05 	0.00021931333 	0.82988025 	0.00068636835 	0 	0 	0 	0
0.014814815 	2.5385775e-05 	0.00021926338 	0.83190452 	0.00069273989 	0 	0 	0 	0
0.014914915 	2.5429134e-05 	0.00021921343 	0.83392879 	0.00069911144 	0 	0 	0 	0
0.015015015 	2.5472494e-05 	0.00021916347 	0.83595306 	0.00070548299 	0 	0 	0 	0
0.015115115 	2.5515854e-05 	0.00021911352 	0.83797733 	0.00071185454 	0 	0 	0 	0
0.015215215 	2.5559214e-05 	0.00021906356 	0.8400016 	0.00071822609 	0 	0 	0 	0
0.015315315 	2.5602573e-05 	0.00021901361 	0.84202587 	0.00072459764 	0 	0 	0 	0
0.015415415 	2.5645788e-05 	0.0002190474 	0.84405071 	0.00073103049 	0 	0 	0 	0
0.015515516 	2.5688949e-05 	0.00021911272 	0.84607577 	0.00073748642 	0 	0 	0 	0
0.015615616 	2.5732109e-05 	0.00021917803 	0.84810082 	0.00074394234 	0 	0 	0 	0
0.015715716 	2.5775269e-05 	0.00021924335 	0.85012588 	0.00075039826 	0 	0 	0 	0
0.015815816 	2.5815672e-05 	0.00021928037 	0.85208152 	0.00075681979 	0 	0 	0 	0
0.015915916 	2.584462e-05 	0.00021919989 	0.85374882 	0.00076309843 	0 	0 	0 	0
0.016016016 	2.5873569e-05 	0.00021911941 	0.85541612 	0.00076937707 	0 	0 	0 	0
0.016116116 	2.5902517e-05 	0.00021903893 	0.85708343 	0.00077565571 	0 	0 	0 	0
0.016216216 	2.5931465e-05 	0.00021895844 	0.85875073 	0.00078193435 	0 	0 	0 	0
0.016316316 	2.5960413e-05 	0.00021887796 	0.86041803 	0.00078821299 	0 	0 	0 	0
0.016416416 	2.5989362e-05 	0.00021879748 	0.86208534 	0.00079449163 	0 	0 	0 	0
0.016516517 	2.601831e-05 	0.000218717 	0.86375264 	0.00080077027 	0 	0 	0 	0
0.016616617 	2.6047258e-05 	0.00021863652 	0.86541994 	0.00080704891 	0 	0 	0 	0
0.016716717 	2.6076206e-05 	0.00021855603 	0.86708724 	0.00081332756 	0 	0 	0 	0
0.016816817 	2.6105154e-05 	0.00021847555 	0.86875455 	0.0008196062 	0 	0 	0 	0
0.016916917 	2.6134103e-05 	0.00021839507 	0.87042185 	0.00082588484 	0 	0 	0 	0
0.017017017 	2.6163051e-05 	0.00021831459 	0.87208915 	0.00083216348 	0 	0 	0 	0
0.017117117 	2.6191999e-05 	0.00021823411 	0.87375646 	0.00083844212 	0 	0 	0 	0
0.017217217 	2.6220947e-05 	0.00021815362 	0.87542376 	0.00084472076 	0 	0 	0 	0
0.017317317 	2.6249896e-05 	0.00021807314 	0.87709106 	0.0008509994 	0 	0 	0 	0
0.017417417 	2.6277625e-05 	0.00021811226 	0.87875671 	0.00085735445 	0 	0 	0 	0
0.017517518 	2.630512e-05 	0.00021817437 	0.88042204 	0.00086372418 	0 	0 	0 	0
0.017617618 	2.6332615e-05 	0.00021823648 	0.88208736 	0.00087009391 	0 	0 	0 	0
0.017717718 	2.6360111e-05 	0.00021829859 	0.88375269 	0.00087646364 	0 	0 	0 	0
0.017817818 	2.6387606e-05 	0.0002183607 	0.88541802 	0.00088283337 	0 	0 	0 	0
0.017917918 	2.6365969e-05 	0.00021829492 	0.88685571 	0.00088903853 	0 	0 	0 	0
0.018018018 	2.6325055e-05 	0.00021817897 	0.88820408 	0.00089517911 	0 	0 	0 	0
0.018118118 	2.628414e-05 	0.00021806302 	0.88955245 	0.00090131969 	0 	0 	0 	0
0.018218218 	2.6243225e-05 	0.00021794707 	0.89090082 	0.00090746028 	0 	0 	0 	0
0.018318318 	2.6202311e-05 	0.00021783112 	0.8922492 	0.00091360086 	0 	0 	0 	0
0.018418418 	2.6161396e-05 	0.00021771517 	0.89359757 	0.00091974144 	0 	0 	0 	0
0.018518519 	2.6120481e-05 	0.00021759922 	0.89494594 	0.00092588202 	0 	0 	0 	0
0.018618619 	2.6079567e-05 	0.00021748327 	0.89629431 	0.00093202261 	0 	0 	0 	0
0.018718719 	2.6038652e-05 	0.00021736732 	0.89764268 	0.00093816319 	0 	0 	0 	0
0.018818819 	2.5997738e-05 	0.00021725137 	0.89899105 	0.00094430377 	0 	0 	0 	0
0.018918919 	2.5956823e-05 	0.00021713542 	0.90033942 	0.00095044435 	0 	0 	0 	0
0.019019019 	2.5915908e-05 	0.00021701947 	0.90168779 	0.00095658494 	0 	0 	0 	0
0.019119119 	2.5874994e-05 	0.00021690352 	0.90303616 	0.00096272552 	0 	0 	0 	0
0.019219219 	2.5834079e-05 	0.00021678757 	0.90438453 	0.0009688661 	0 	0 	0 	0
0.019319319 	2.5793165e-05 	0.00021667162 	0.9057329 	0.00097500668 	0 	0 	0 	0
0.019419419 	2.575225e-05 	0.00021655566 	0.90708128 	0.00098114727 	0 	0 	0 	0
0.01951952 	2.5711335e-05 	0.00021643971 	0.90842965 	0.00098728785 	0 	0 	0 	0
0.01961962 	2.5667944e-05 	0.00021638754 	0.9097769 	0.00099345768 	0 	0 	0 	0
0.01971972 	2.5620345e-05 	0.00021644368 	0.91112226 	0.00099967721 	0 	0 	0 	0
0.01981982 	2.5572746e-05 	0.00021649983 	0.91246762 	0.0010058967 	0 	0 	0 	0
0.01991992 	2.5525147e-05 	0.00021655598 	0.91381298 	0.0010121163 	0 	0 	0 	0
0.02002002 	2.5477548e-05 	0.00021661212 	0.91515834 	0.0010183358 	0 	0 	0 	0
0.02012012 	2.5429949e-05 	0.00021666827 	0.9165037 	0.0010245553 	0 	0 	0 	0
0.02022022 	2.5340081e-05 	0.00021660682 	0.91769521 	0.0010306602 	0 	0 	0 	0
0.02032032 	2.5220296e-05 	0.00021646213 	0.91877782 	0.0010366841 	0 	0 	0 	0
0.02042042 	2.510051e-05 	0.00021631744 	0.91986043 	0.0010427079 	0 	0 	0 	0
0.020520521 	2.4980724e-05 	0.00021617275 	0.92094304 	0.0010487317 	0 	0 	0 	0
0.020620621 	2.4860939e-05 	0.00021602807 	0.92202566 	0.0010547555 	0 	0 	0 	0
0.020720721 	2.4741153e-05 	0.00021588338 	0.92310827 	0.0010607793 	0 	0 	0 	0
0.020820821 	2.4621367e-05 	0.00021573869 	0.92419088 	0.0010668031 	0 	0 	0 	0
0.020920921 	2.4501582e-05 	0.000215594 	0.92527349 	0.001072827 	0 	0 	0 	0
0.021021021 	2.4381796e-05 	0.00021544932 	0.9263561 	0.0010788508 	0 	0 	0 	0
0.021121121 	2.426201e-05 	0.00021530463 	0.92743871 	0.0010848746 	0 	0 	0 	0
0.021221221 	2.4142225e-05 	0.00021515994 	0.92852133 	0.0010908984 	0 	0 	0 	0
0.021321321 	2.4022439e-05 	0.00021501525 	0.92960394 	0.0010969222 	0 	0 	0 	0
0.021421421 	2.3902653e-05 	0.00021487056 	0.93068655 	0.001102946 	0 	0 	0 	0
0.021521522 	2.3782868e-05 	0.00021472588 	0.93176916 	0.0011089699 	0 	0 	0 	0
0.021621622 	2.3663082e-05 	0.00021458119 	0.93285177 	0.0011149937 	0 	0 	0 	0
0.021721722 	2.3543296e-05 	0.0002144365 	0.93393439 	0.0011210175 	0 	0 	0 	0
0.021821822 	2.3423511e-05 	0.00021429181 	0.935017 	0.0011270413 	0 	0 	0 	0
0.021921922 	2.3303725e-05 	0.00021414713 	0.93609961 	0.0011330651 	0 	0 	0 	0
0.022022022 	2.3183939e-05 	0.00021400244 	0.93718222 	0.0011390889 	0 	0 	0 	0
0.022122122 	2.3064154e-05 	0.00021385775 	0.93826483 	0.0011451128 	0 	0 	0 	0
0.022222222 	2.2936267e-05 	0.00021390815 	0.93934373 	0.00115119 	0 	0 	0 	0
0.022322322 	2.2808274e-05 	0.00021396112 	0.94042258 	0.001157268 	0 	0 	0 	0
0.022422422 	2.2680281e-05 	0.00021401409 	0.94150144 	0.0011633459 	0 	0 	0 	0
0.022522523 	2.2552288e-05 	0.00021406706 	0.94258029 	0.0011694238 	0 	0 	0 	0
0.022622623 	2.2424295e-05 	0.00021412003 	0.94365914 	0.0011755018 	0 	0 	0 	0
0.022722723 	2.2296301e-05 	0.000214173 	0.94473799 	0.0011815797 	0 	0 	0 	0
0.022822823 	2.2154727e-05 	0.00021412657 	0.94571034 	0.0011875074 	0 	0 	0 	0
0.022922923 	2.1996646e-05 	0.0002139593 	0.94655325 	0.0011932523 	0 	0 	0 	0
0.023023023 	2.1838564e-05 	0.00021379204 	0.94739616 	0.0011989973 	0 	0 	0 	0
0.023123123 	2.1680483e-05 	0.00021362478 	0.94823907 	0.0012047423 	0 	0 	0 	0
0.023223223 	2.1522402e-05 	0.00021345751 	0.94908198 	0.0012104872 	0 	0 	0 	0
0.023323323 	2.136432e-05 	0.00021329025 	0.94992489 	0.0012162322 	0 	0 	0 	0
0.023423423 	2.1206239e-05 	0.00021312299 	0.9507678 	0.0012219771 	0 	0 	0 	0
0.023523524 	2.1048157e-05 	0.00021295572 	0.95161071 	0.0012277221 	0 	0 	0 	0
0.023623624 	2.0890076e-05 	0.00021278846 	0.95245362 	0.001233467 	0 	0 	0 	0
0.023723724 	2.0731995e-05 	0.0002126212 	0.95329653 	0.001239212 	0 	0 	0 	0
0.023823824 	2.0573913e-05 	0.00021245393 	0.95413944 	0.0012449569 	0 	0 	0 	0
0.023923924 	2.0415832e-05 	0.00021228667 	0.95498235 	0.0012507019 	0 	0 	0 	0
0.024024024 	2.025775e-05 	0.00021211941 	0.95582526 	0.0012564468 	0 	0 	0 	0
0.024124124 	2.0099669e-05 	0.00021195214 	0.95666817 	0.0012621918 	0 	0 	0 	0
0.024224224 	1.9941588e-05 	0.00021178488 	0.95751107 	0.0012679368 	0 	0 	0 	0
0.024324324 	1.9783506e-05 	0.00021161762 	0.95835398 	0.0012736817 	0 	0 	0 	0
0.024424424 	1.9625425e-05 	0.00021145035 	0.95919689 	0.0012794267 	0 	0 	0 	0
0.024524525 	1.9467343e-05 	0.00021128309 	0.9600398 	0.0012851716 	0 	0 	0 	0
0.024624625 	1.9309262e-05 	0.00021111583 	0.96088271 	0.0012909166 	0 	0 	0 	0
0.024724725 	1.915118e-05 	0.00021094856 	0.96172562 	0.0012966615 	0 	0 	0 	0
0.024824825 	1.8993099e-05 	0.0002107813 	0.96256853 	0.0013024065 	0 	0 	0 	0
0.024924925 	1.8835018e-05 	0.00021061403 	0.96341144 	0.0013081514 	0 	0 	0 	0
0.025025025 	1.8675216e-05 	0.00021051474 	0.96425199 	0.0013138959 	0 	0 	0 	0
0.025125125 	1.8511582e-05 	0.00021056684 	0.96508728 	0.0013196395 	0 	0 	0 	0
0.025225225 	1.8347948e-05 	0.00021061895 	0.96592257 	0.001325383 	0 	0 	0 	0
0.025325325 	1.8184314e-05 	0.00021067105 	0.96675786 	0.0013311266 	0 	0 	0 	0
0.025425425 	1.802068e-05 	0.00021072315 	0.96759315 	0.0013368701 	0 	0 	0 	0
0.025525526 	1.7857047e-05 	0.00021077525 	0.96842844 	0.0013426137 	0 	0 	0 	0
0.025625626 	1.7693413e-05 	0.00021082735 	0.96926374 	0.0013483572 	0 	0 	0 	0
0.025725726 	1.7529779e-05 	0.00021087945 	0.97009903 	0.0013541008 	0 	0 	0 	0
0.025825826 	1.7360144e-05 	0.0002107094 	0.97071288 	0.0013591437 	0 	0 	0 	0
0.025925926 	1.7190032e-05 	0.00021052163 	0.97130909 	0.0013641309 	0 	0 	0 	0
0.026026026 	1.7019919e-05 	0.00021033387 	0.9719053 	0.001369118 	0 	0 	0 	0
0.026126126 	1.6849806e-05 	0.00021014611 	0.97250151 	0.0013741052 	0 	0 	0 	0
0.026226226 	1.6679694e-05 	0.00020995835 	0.97309772 	0.0013790923 	0 	0 	0 	0
0.026326326 	1.6509581e-05 	0.00020977059 	0.97369393 	0.0013840794 	0 	0 	0 	0
0.026426426 	1.6339468e-05 	0.00020958283 	0.97429014 	0.0013890666 	0 	0 	0 	0
0.026526527 	1.6169355e-05 	0.00020939506 	0.97488635 	0.0013940537 	0 	0 	0 	0
0.026626627 	1.5999243e-05 	0.0002092073 	0.97548256 	0.0013990409 	0 	0 	0 	0
0.026726727 	1.582913e-05 	0.00020901954 	0.97607877 	0.001404028 	0 	0 	0 	0
0.026826827 	1.5659017e-05 	0.00020883178 	0.97667498 	0.0014090152 	0 	0 	0 	0
0.026926927 	1.5488905e-05 	0.00020864402 	0.97727119 	0.0014140023 	0 	0 	0 	0
0.027027027 	1.5318792e-05 	0.00020845626 	0.9778674 	0.0014189895 	0 	0 	0 	0
0.027127127 	1.5148679e-05 	0.00020826849 	0.97846361 	0.0014239766 	0 	0 	0 	0
0.027227227 	1.4978566e-05 	0.00020808073 	0.97905982 	0.0014289638 	0 	0 	0 	0
0.027327327 	1.4808454e-05 	0.00020789297 	0.97965603 	0.0014339509 	0 	0 	0 	0
0.027427427 	1.4638341e-05 	0.00020770521 	0.98025224 	0.001438938 	0 	0 	0 	0
0.027527528 	1.4468228e-05 	0.00020751745 	0.98084845 	0.0014439252 	0 	0 	0 	0
0.027627628 	1.4298115e-05 	0.00020732969 	0.98144466 	0.0014489123 	0 	0 	0 	0
0.027727728 	1.4128003e-05 	0.00020714193 	0.98204087 	0.0014538995 	0 	0 	0 	0
0.027827828 	1.395789e-05 	0.00020695416 	0.98263708 	0.0014588866 	0 	0 	0 	0
0.027927928 	1.3787777e-05 	0.0002067664 	0.98323329 	0.0014638738 	0 	0 	0 	0
0.028028028 	1.3617665e-05 	0.00020657864 	0.9838295 	0.0014688609 	0 	0 	0 	0
0.028128128 	1.3447552e-05 	0.00020639088 	0.98442571 	0.0014738481 	0 	0 	0 	0
0.028228228 	1.3277439e-05 	0.00020620312 	0.98502192 	0.0014788352 	0 	0 	0 	0
0.028328328 	1.3104986e-05 	0.00020623248 	0.98560452 	0.0014837373 	0 	0 	0 	0
0.028428428 	1.2932307e-05 	0.00020628287 	0.98618579 	0.0014886312 	0 	0 	0 	0
0.028528529 	1.2759627e-05 	0.00020633325 	0.98676707 	0.001493525 	0 	0 	0 	0
0.028628629 	1.2586947e-05 	0.00020638364 	0.98734834 	0.0014984189 	0 	0 	0 	0
0.028728729 	1.2414268e-05 	0.00020643402 	0.98792961 	0.0015033127 	0 	0 	0 	0
0.028828829 	1.2241588e-05 	0.0002064844 	0.98851089 	0.0015082066 	0 	0 	0 	0
0.028928929 	1.2068909e-05 	0.00020653479 	0.98909216 	0.0015131004 	0 	0 	0 	0
0.029029029 	1.1896229e-05 	0.00020658517 	0.98967344 	0.0015179943 	0 	0 	0 	0
0.029129129 	1.1737375e-05 	0.00020648272 	0.99011758 	0.0015219672 	1.2896569e-36 	0 	0 	0
0.029229229 	1.1588948e-05 	0.00020626499 	0.9904583 	0.0015252455 	3.5520744e-36 	0 	0 	0
0.029329329 	1.1440522e-05 	0.00020604726 	0.99079901 	0.0015285238 	5.8144919e-36 	0 	0 	0
0.029429429 	1.1292095e-05 	0.00020582954 	0.99113972 	0.0015318021 	8.0769094e-36 	0 	0 	0
0.02952953 	1.1143669e-05 	0.00020561181 	0.99148044 	0.0015350803 	1.0339327e-35 	0 	0 	0
0.02962963 	1.0995242e-05 	0.00020539408 	0.99182115 	0.0015383586 	1.2601744e-35 	0 	0 	0
0.02972973 	1.0846816e-05 	0.00020517635 	0.99216186 	0.0015416369 	1.4864162e-35 	0 	0 	0
0.02982983 	1.0698389e-05 	0.00020495862 	0.99250257 	0.0015449152 	1.712658e-35 	0 	0 	0
0.02992993 	1.0549963e-05 	0.0002047409 	0.99284329 	0.0015481934 	1.9388997e-35 	0 	0 	0
0.03003003 	1.0401536e-05 	0.00020452317 	0.993184 	0.0015514717 	2.1651415e-35 	0 	0 	0
0.03013013 	1.025311e-05 	0.00020430544 	0.99352471 	0.00155475 	2.3913832e-35 	0 	0 	0
0.03023023 	1.0104683e-05 	0.00020408771 	0.99386543 	0.0015580283 	2.617625e-35 	0 	0 	0
0.03033033 	9.9562565e-06 	0.00020386998 	0.99420614 	0.0015613066 	2.8438667e-35 	0 	0 	0
0.03043043 	9.80783e-06 	0.00020365226 	0.99454685 	0.0015645848 	3.0701085e-35 	0 	0 	0
0.030530531 	9.6594035e-06 	0.00020343453 	0.99488757 	0.0015678631 	3.2963502e-35 	0 	0 	0
0.030630631 	9.510977e-06 	0.0002032168 	0.99522828 	0.0015711414 	3.522592e-35 	0 	0 	0
0.030730731 	9.3625505e-06 	0.00020299907 	0.99556899 	0.0015744197 	3.7488337e-35 	0 	0 	0
0.030830831 	9.214124e-06 	0.00020278134 	0.9959097 	0.0015776979 	3.9750755e-35 	0 	0 	0
0.030930931 	9.0656975e-06 	0.00020256362 	0.99625042 	0.0015809762 	4.2013172e-35 	0 	0 	0
0.031031031 	8.917271e-06 	0.00020234589 	0.99659113 	0.0015842545 	4.427559e-35 	0 	0 	0
0.031131131 	8.7688445e-06 	0.00020212816 	0.99693184 	0.0015875328 	4.6538007e-35 	0 	0 	0
0.031231231 	8.620418e-06 	0.00020191043 	0.99727256 	0.0015908111 	4.8800425e-35 	0 	0 	0
0.031331331 	8.4719915e-06 	0.00020169271 	0.99761327 	0.0015940893 	5.1062842e-35 	0 	0 	0
0.031431431 	8.323565e-06 	0.00020147498 	0.99795398 	0.0015973676 	5.332526e-35 	0 	0 	0
0.031531532 	8.1751384e-06 	0.00020125725 	0.9982947 	0.0016006459 	5.5587677e-35 	0 	0 	0
0.031631632 	8.0267119e-06 	0.00020103952 	0.99863541 	0.0016039242 	5.7850095e-35 	0 	0 	0
0.031731732 	7.8782854e-06 	0.00020082179 	0.99897612 	0.0016072025 	6.0112512e-35 	0 	0 	0
0.031831832 	7.7298589e-06 	0.00020060407 	0.99931683 	0.0016104807 	6.237493e-35 	0 	0 	0
0.031931932 	7.5819429e-06 	0.00020046685 	0.99965135 	0.0016137134 	6.4637348e-35 	0 	0 	0
0.032032032 	7.4351639e-06 	0.00020050892 	0.99997207 	0.0016168445 	6.6899765e-35 	0 	0 	0
0.032132132 	7.2883848e-06 	0.000200551 	1.0002928 	0.0016199756 	6.9162183e-35 	0 	0 	0
0.032232232 	7.1416057e-06 	0.00020059307 	1.0006135 	0.0016231067 	7.14246e-35 	0 	0 	0
0.032332332 	6.9948267e-06 	0.00020063515 	1.0009342 	0.0016262377 	7.3687018e-35 	0 	0 	0
0.032432432 	6.8480476e-06 	0.00020067722 	1.0012549 	0.0016293688 	7.5949435e-35 	0 	0 	0
0.032532533 	6.7012686e-06 	0.0002007193 	1.0015757 	0.0016324999 	7.8211853e-35 	0 	0 	0
0.032632633 	6.5544895e-06 	0.00020076137 	1.0018964 	0.001635631 	8.047427e-35 	0 	0 	0
0.032732733 	6.4077104e-06 	0.00020080345 	1.0022171 	0.0016387621 	8.2736688e-35 	0 	0 	0
0.032832833 	6.2609314e-06 	0.00020084552 	1.0025378 	0.0016418932 	8.4999105e-35 	0 	0 	0
0.032932933 	6.1590003e-06 	0.00020063721 	1.0026908 	0.0016433781 	8.3338102e-35 	0 	0 	0
0.033033033 	6.0628509e-06 	0.00020039661 	1.0028221 	0.0016446508 	8.1171313e-35 	0 	0 	0
0.033133133 	5.9667014e-06 	0.00020015602 	1.0029534 	0.0016459235 	7.9004523e-35 	0 	0 	0
0.033233233 	5.870552e-06 	0.00019991542 	1.0030847 	0.0016471962 	7.6837734e-35 	0 	0 	0
0.033333333 	5.7744025e-06 	0.00019967483 	1.0032161 	0.001648469 	7.4670944e-35 	0 	0 	0
0.033433433 	5.678253e-06 	0.00019943423 	1.0033474 	0.0016497417 	7.2504155e-35 	0 	0 	0
0.033533534 	5.5821036e-06 	0.00019919364 	1.0034787 	0.0016510144 	7.0337365e-35 	0 	0 	0
0.033633634 	5.4859541e-06 	0.00019895305 	1.00361 	0.0016522871 	6.8170575e-35 	0 	0 	0
0.033733734 	5.3898046e-06 	0.00019871245 	1.0037414 	0.0016535598 	6.6003786e-35 	0 	0 	0
0.033833834 	5.2936552e-06 	0.00019847186 	1.0038727 	0.0016548325 	6.3836996e-35 	0 	0 	0
0.033933934 	5.1975057e-06 	0.00019823126 	1.004004 	0.0016561053 	6.1670207e-35 	0 	0 	0
0.034034034 	5.1013563e-06 	0.00019799067 	1.0041353 	0.001657378 	5.9503417e-35 	0 	0 	0
0.034134134 	5.0052068e-06 	0.00019775007 	1.0042667 	0.0016586507 	5.7336628e-35 	0 	0 	0
0.034234234 	4.9090573e-06 	0.00019750948 	1.004398 	0.0016599234 	5.5169838e-35 	0 	0 	0
0.034334334 	4.8129079e-06 	0.00019726888 	1.0045293 	0.0016611961 	5.3003048e-35 	0 	0 	0
0.034434434 	4.7167584e-06 	0.00019702829 	1.0046606 	0.0016624688 	5.0836259e-35 	0 	0 	0
0.034534535 	4.620609e-06 	0.00019678769 	1.0047919 	0.0016637415 	4.8669469e-35 	0 	0 	0
0.034634635 	4.5244595e-06 	0.0001965471 	1.0049233 	0.0016650143 	4.650268e-35 	0 	0 	0
0.034734735 	4.42831e-06 	0.0001963065 	1.0050546 	0.001666287 	4.433589e-35 	0 	0 	0
0.034834835 	4.3321606e-06 	0.00019606591 	1.0051859 	0.0016675597 	4.21691e-35 	0 	0 	0
0.034934935 	4.2360111e-06 	0.00019582532 	1.0053172 	0.0016688324 	4.0002311e-35 	0 	0 	0
0.035035035 	4.1398616e-06 	0.00019558472 	1.0054486 	0.0016701051 	3.7835521e-35 	0 	0 	0
0.035135135 	4.0437122e-06 	0.00019534413 	1.0055799 	0.0016713778 	3.5668732e-35 	0 	0 	0
0.035235235 	3.9475627e-06 	0.00019510353 	1.0057112 	0.0016726506 	3.3501942e-35 	0 	0 	0
0.035335335 	3.8514133e-06 	0.00019486294 	1.0058425 	0.0016739233 	3.1335153e-35 	0 	0 	0
0.035435435 	3.7552638e-06 	0.00019462234 	1.0059738 	0.001675196 	2.9168363e-35 	0 	0 	0