/*--------------------------------*- C++ -*----------------------------------*\
| =========                 |                                                 |
| \\      /  F ield         | OpenFOAM: The Open Source CFD Toolbox           |
|  \\    /   O peration     | Version:  2206                                  |
|   \\  /    A nd           | Website:  www.openfoam.com                      |
|    \\/     M anipulation  |                                                 |
\*---------------------------------------------------------------------------*/
FoamFile
{
    version     2.0;
    format      ascii;
    arch        "LSB;label=32;scalar=64";
    class       volScalarField;
    location    "500";
    object      p;
}
// * * * * * * * * * * * * * * * * * * * * * * * * * * * * * * * * * * * * * //

dimensions      [0 2 -2 0 0 0 0];

internalField   nonuniform List<scalar> 
3000
(
0.307111928814
0.307255992684
0.307540336351
0.307928284538
0.308395075341
0.30892105464
0.309490151186
0.310089063243
0.310706733999
0.311333972391
0.311963163085
0.312588036043
0.313203477576
0.313805371402
0.314390462204
0.314956236775
0.315500819466
0.316022879828
0.316521551035
0.316996356196
0.3174471342
0.317873964995
0.318277162814
0.318657443231
0.319015955599
0.319353378665
0.319669692266
0.319969703476
0.320261701585
0.320504010771
0.280209345605
0.280126042377
0.279957789899
0.27972570961
0.279442393061
0.279118156459
0.278761647322
0.278380339857
0.277980813531
0.277568903004
0.277149782822
0.276728017927
0.276307597732
0.275891964164
0.275484039345
0.275086255594
0.274700588691
0.274328594643
0.273971450339
0.273629994591
0.27330474855
0.272995891937
0.27270330302
0.272427017603
0.272168281926
0.271930696338
0.27172173349
0.271555530092
0.271449149538
0.271402418023
0.257730258658
0.257697751442
0.257632516295
0.257546577251
0.257447068655
0.257340007792
0.257230028146
0.257120636649
0.257014375141
0.256912977158
0.256817521213
0.256728571169
0.25664630016
0.256570596781
0.256501153529
0.256437538469
0.256379251617
0.256325767557
0.256276565992
0.256231153619
0.256189079298
0.256149941604
0.256113426664
0.256079489924
0.256048679324
0.256022240782
0.256001659758
0.255987550099
0.255978260577
0.255971619448
0.251474617123
0.251482031357
0.251496218192
0.251515705252
0.251537747706
0.251560709331
0.251583182714
0.251604113015
0.251622740264
0.251638560701
0.251651290204
0.251660826584
0.251667213062
0.251670604124
0.251671234564
0.251669392365
0.251665395828
0.251659574686
0.251652253721
0.251643739396
0.251634317282
0.251624274555
0.251613962884
0.251603904465
0.251594870192
0.251587731325
0.251582919959
0.251579815174
0.251577146081
0.251574834886
0.247152251451
0.247144989299
0.247129740812
0.247109254242
0.247084263919
0.247056079144
0.247025610788
0.246993688159
0.246961024104
0.246928225915
0.246895801195
0.246864162569
0.246833633995
0.246804458512
0.246776807115
0.246750788274
0.246726457752
0.246703827983
0.246682875511
0.246663547767
0.246645781255
0.246629551768
0.246614960792
0.246602310372
0.246592049156
0.246584486438
0.246579422688
0.246576114156
0.2465737295
0.246572011955
0.240224633027
0.240219246329
0.240207435337
0.24019202079
0.240173901414
0.240154371221
0.240134173438
0.240113928963
0.2400940774
0.24007492361
0.240056666693
0.240039424534
0.240023254675
0.240008171126
0.239994157577
0.239981177521
0.239969181806
0.239958114063
0.239947914433
0.239938524312
0.239929900466
0.23992204729
0.239915060009
0.239909135679
0.239904477272
0.239901101746
0.239898749925
0.239897011381
0.239895529319
0.239894329364
0.233574424635
0.233573793202
0.233571588783
0.233569019057
0.233565759272
0.233562135766
0.233558146284
0.233553887362
0.233549418675
0.233544795798
0.233540068585
0.233535281828
0.233530475893
0.233525686884
0.233520946727
0.233516283196
0.233511719895
0.233507276338
0.233502969212
0.233498817688
0.233494855986
0.233491151687
0.233487818844
0.233484996834
0.233482767678
0.23348107488
0.233479747801
0.233478583862
0.233477435517
0.233476444549
0.228035478708
0.228034435781
0.228031668263
0.228028323557
0.228024111945
0.228019418993
0.22801428986
0.228008876934
0.228003275304
0.227997572757
0.227991842379
0.227986144529
0.227980528354
0.227975033053
0.227969689166
0.227964519787
0.227959541548
0.22795476572
0.227950201305
0.227945863654
0.22794178964
0.227938053257
0.227934766209
0.227932037812
0.227929899609
0.227928270713
0.227926999457
0.227925918607
0.227924902364
0.227924052533
0.222931021465
0.22292955642
0.222925985939
0.222921532171
0.222916062398
0.222910066777
0.222903653281
0.222897025637
0.222890303511
0.222883591468
0.222876968408
0.222870494301
0.222864213776
0.222858159029
0.222852352292
0.222846807817
0.222841533417
0.222836532239
0.22283180721
0.222827371416
0.222823263706
0.222819561099
0.222816369156
0.222813771347
0.222811766386
0.222810258353
0.222809101395
0.22280814619
0.222807278395
0.222806567061
0.21797056222
0.217969459662
0.21796661011
0.217963090726
0.21795872957
0.217953955217
0.217948823314
0.217943506048
0.217938092844
0.217932669764
0.217927300964
0.217922036646
0.217916915073
0.217911964669
0.217907205821
0.217902652321
0.21789831263
0.21789419194
0.217890297376
0.217886648152
0.217883288162
0.217880292072
0.217877747235
0.217875704725
0.217874138062
0.217872951438
0.217872023268
0.217871239325
0.217870514385
0.217869914399
0.213214408323
0.21321358114
0.213211321228
0.213208582525
0.213205153627
0.213201407535
0.213197360074
0.213193158353
0.213188866758
0.213184555602
0.213180275548
0.213176067341
0.213171962323
0.213167984125
0.21316415003
0.213160472054
0.213156958124
0.213153614575
0.213150451878
0.213147493801
0.213144786375
0.213142397781
0.213140394988
0.213138802202
0.213137578467
0.213136636079
0.213135878594
0.213135220336
0.213134598442
0.213134078267
0.208688935976
0.208688208399
0.208686187892
0.208683759636
0.208680709503
0.208677386862
0.208673794088
0.208670069905
0.208666267155
0.208662449821
0.208658661782
0.208654938963
0.208651308705
0.208647791572
0.208644402524
0.20864115192
0.208638046842
0.208635094123
0.208632306475
0.208629710699
0.208627353788
0.208625297734
0.208623593313
0.208622246537
0.208621209244
0.208620401862
0.208619744512
0.20861916769
0.208618620184
0.208618161669
0.204353672665
0.204353016567
0.204351165152
0.204348949449
0.204346159252
0.204343125968
0.204339843783
0.204336445539
0.204332976097
0.204329495667
0.204326043587
0.20432265283
0.2043193482
0.20431614835
0.204313066791
0.204310112877
0.204307293365
0.204304615926
0.204302095346
0.204299760689
0.204297658817
0.204295845057
0.204294356448
0.204293186151
0.204292282991
0.204291575091
0.204290994446
0.204290482592
0.204289996305
0.204289589236
0.200174227065
0.200173651623
0.200171982592
0.200169999398
0.200167492137
0.200164772289
0.200161825086
0.200158775827
0.200155661247
0.20015253723
0.200149438356
0.200146394545
0.200143428027
0.200140555594
0.200137789403
0.200135137978
0.200132608021
0.200130208242
0.200127955285
0.200125879612
0.200124026452
0.200122443361
0.200121155067
0.200120145558
0.200119363658
0.200118745429
0.200118233171
0.200117777952
0.200117343657
0.200116979549
0.196135340521
0.196134837139
0.196133332449
0.1961315598
0.196129309094
0.196126873055
0.196124229322
0.196121495855
0.196118702221
0.196115900249
0.196113120154
0.196110389081
0.196107726891
0.196105148692
0.196102665425
0.19610028494
0.196098014053
0.196095862545
0.196093848611
0.196092003389
0.196090369463
0.196088986432
0.196087868651
0.196086994009
0.196086313151
0.196085769611
0.196085314402
0.196084906447
0.196084515414
0.196084186968
0.192225769663
0.192225322667
0.192223949313
0.192222343802
0.192220297527
0.192218087312
0.19221568551
0.192213203954
0.192210666625
0.192208122134
0.19220559717
0.192203116693
0.192200698634
0.192198356746
0.192196100988
0.192193938734
0.192191877053
0.192189926757
0.192188107283
0.19218644992
0.192184994094
0.192183771955
0.192182789572
0.192182021056
0.192181419669
0.192180935415
0.192180526276
0.192180157244
0.192179802382
0.192179503978
0.188433312672
0.188432911982
0.188431647666
0.188430180013
0.188428302887
0.188426279249
0.188424077658
0.188421804586
0.188419479545
0.188417148464
0.1884148351
0.188412562629
0.188410347359
0.188408201925
0.188406135485
0.188404155094
0.188402268173
0.188400486486
0.188398830416
0.188397330923
0.188396023933
0.188394934802
0.188394063094
0.188393380788
0.188392844084
0.188392408559
0.188392037834
0.18839170171
0.188391377707
0.188391105035
0.184747007254
0.184746647097
0.184745478582
0.184744131776
0.184742403163
0.184740543114
0.184738517195
0.184736426908
0.184734287992
0.184732143955
0.184730016
0.184727925743
0.184725888068
0.184723914637
0.184722013938
0.184720192833
0.184718459153
0.184716825513
0.184715312957
0.184713951673
0.184712773857
0.184711798759
0.184711020906
0.184710411315
0.184709929244
0.18470953514
0.184709197331
0.184708889572
0.18470859223
0.184708341799
0.181157939955
0.181157615293
0.181156531229
0.181155290737
0.181153692984
0.181151976883
0.181150105657
0.181148176208
0.181146201084
0.181144221598
0.181142256724
0.181140326707
0.181138445169
0.181136622934
0.181134867931
0.181133186929
0.181131588201
0.181130085101
0.181128699076
0.181127459172
0.181126393788
0.181125516806
0.181124818934
0.181124271037
0.181123835391
0.181123476703
0.181123167254
0.181122884081
0.181122609916
0.181122378834
0.177658521753
0.177658227877
0.177657217735
0.177656070005
0.177654586662
0.17765299625
0.17765126023
0.177649471292
0.177647639314
0.177645803635
0.1776439813
0.177642191352
0.17764044631
0.177638756272
0.177637128713
0.177635570394
0.177634090034
0.177632701612
0.177631426743
0.177630293054
0.177629325218
0.177628532484
0.177627902731
0.177627407216
0.177627011094
0.177626682771
0.177626397853
0.177626136104
0.177625882218
0.177625668092
0.174242009675
0.174241742701
0.174240797712
0.174239731473
0.174238348831
0.174236868914
0.174235251871
0.174233586519
0.174231880496
0.174230171347
0.174228474445
0.174226807768
0.174225182863
0.174223609203
0.174222093897
0.174220643764
0.174219267955
0.174217980964
0.174216804359
0.174215764141
0.174214881411
0.17421416148
0.174213590187
0.174213139534
0.174212777368
0.174212475321
0.174212211805
0.174211968873
0.174211732861
0.174211533702
0.170902423006
0.170902179801
0.170901292819
0.170900298928
0.170899005842
0.170897624075
0.170896112806
0.170894557266
0.170892963194
0.170891366494
0.170889781069
0.170888223948
0.170886705816
0.170885235602
0.170883820129
0.17088246632
0.170881183736
0.17087998727
0.170878898256
0.170877940914
0.170877132996
0.170876476494
0.170875955829
0.170875543976
0.170875211278
0.170874932184
0.170874687498
0.170874461213
0.170874241059
0.170874055191
0.167634478419
0.167634256331
0.167633421292
0.167632492011
0.167631279028
0.167629984956
0.167628568268
0.167627110869
0.16762561688
0.16762412069
0.167622634915
0.167621175724
0.167619753033
0.167618375306
0.167617049142
0.167615781604
0.167614582625
0.167613467399
0.167612456847
0.167611573324
0.167610831479
0.167610230542
0.167609754
0.167609375936
0.167609068992
0.167608810085
0.167608582071
0.167608370598
0.167608164589
0.167607990587
0.164433476092
0.164433272837
0.164432484492
0.164431613134
0.164430472078
0.164429256668
0.164427924882
0.164426555539
0.164425151378
0.164423745385
0.164422349044
0.164420977741
0.164419640713
0.164418346016
0.164417100085
0.164415910143
0.164414786462
0.16441374443
0.164412804413
0.164411986855
0.164411303575
0.164410751522
0.164410313632
0.164409965161
0.164409680856
0.164409439804
0.164409226632
0.164409028406
0.164408835078
0.164408671722
0.161295202647
0.161295016259
0.161294270079
0.161293450882
0.161292374696
0.16129123016
0.161289974929
0.161288684944
0.161287361766
0.161286037077
0.161284721358
0.161283429284
0.161282169484
0.161280949664
0.161279776145
0.16127865632
0.161277600758
0.16127662495
0.161275748576
0.161274990176
0.161274359008
0.161273850162
0.161273446307
0.161273123903
0.161272859617
0.161272634448
0.161272434556
0.161272248235
0.161272066329
0.161271912569
0.158215864057
0.158215692846
0.158214984909
0.158214212899
0.158213195482
0.158212115094
0.158210929199
0.158209711058
0.158208461216
0.158207210142
0.158205967428
0.158204747097
0.158203557234
0.158202405247
0.15820129738
0.158200241203
0.15819924754
0.158198331892
0.158197513156
0.158196807996
0.15819622338
0.158195752894
0.158195379165
0.158195079849
0.158194833363
0.158194622397
0.158194434447
0.158194258875
0.1581940873
0.158193942226
0.155192031838
0.155191874338
0.155191201225
0.155190472072
0.155189508107
0.155188486009
0.155187363161
0.155186210319
0.155185027151
0.155183842994
0.15518266665
0.155181511539
0.155180385264
0.155179294974
0.155178246873
0.155177248705
0.155176311508
0.155175450708
0.155174684337
0.155174027244
0.155173484362
0.155173048075
0.155172701135
0.155172422368
0.155172191789
0.155171993585
0.155171816422
0.155171650593
0.1551714884
0.155171351219
0.152220595703
0.15222045063
0.15221980934
0.152219119251
0.152218204072
0.152217235131
0.152216169813
0.152215076531
0.152213954195
0.152212831083
0.152211715289
0.152210619679
0.152209551424
0.152208517456
0.152207523961
0.152206578856
0.152205693346
0.152204882709
0.152204164047
0.152203550477
0.152203045131
0.15220263945
0.152202316435
0.152202056043
0.152201839744
0.152201653057
0.152201485675
0.152201328713
0.15220117507
0.152201045085
0.149298723292
0.149298589521
0.149297977407
0.149297323042
0.149296452538
0.149295532235
0.149294519587
0.149293480812
0.149292414163
0.149291346923
0.149290286554
0.149289245407
0.149288230271
0.149287247892
0.149286304463
0.149285408058
0.149284570015
0.149283805387
0.149283130311
0.149282556256
0.149282084777
0.149281706585
0.149281405022
0.149281161131
0.149280957705
0.149280781454
0.149280622976
0.149280474109
0.149280328285
0.149280204886
0.146423826637
0.146423703177
0.146423117896
0.146422496305
0.146421666838
0.146420791177
0.1464198269
0.146418838163
0.146417822649
0.146416806707
0.146415797229
0.146414806092
0.14641383974
0.146412904767
0.146412007387
0.146411155822
0.146410361498
0.146409639185
0.146409004023
0.146408465939
0.146408025108
0.14640767169
0.146407389437
0.146407160422
0.146406968648
0.146406801888
0.146406651543
0.146406510093
0.146406371442
0.146406254087
0.143593533773
0.143593419745
0.143592859213
0.143592267776
0.143591476115
0.143590641548
0.143589721822
0.143588779156
0.143587810733
0.143586842024
0.143585879412
0.143584934328
0.143584012913
0.143583121631
0.143582266733
0.143581456573
0.143580702628
0.143580019326
0.143579420803
0.143578915544
0.143578502524
0.143578171507
0.143577906696
0.143577691143
0.143577509954
0.143577351857
0.143577208965
0.143577074329
0.143576942278
0.143576830485
0.140805664369
0.140805558993
0.14080502135
0.140804457734
0.140803700993
0.140802904359
0.140802025775
0.14080112564
0.140800200702
0.140799275604
0.140798356265
0.140797453706
0.140796573796
0.140795722896
0.140794907297
0.140794135474
0.140793418918
0.140792771662
0.140792206844
0.140791731607
0.140791343895
0.140791033193
0.140790784191
0.140790580861
0.140790409321
0.140790259156
0.140790123114
0.140789994758
0.140789868795
0.140789762137
0.138058208761
0.138058111341
0.13805759492
0.138057057036
0.138056332633
0.138055571101
0.138054730609
0.138053869838
0.138052985155
0.138052100424
0.138051221144
0.138050357952
0.138049516478
0.138048702997
0.138047923849
0.138047187612
0.138046505754
0.138045891876
0.138045358124
0.138044910409
0.138044545782
0.138044253559
0.13804401893
0.138043826737
0.138043664021
0.13804352114
0.138043391413
0.138043268858
0.138043148526
0.138043046618
0.135349309848
0.135349219761
0.135348723064
0.135348209037
0.13534751465
0.13534678568
0.135345980537
0.135345156287
0.135344308959
0.135343461681
0.135342619572
0.135341792911
0.135340987117
0.135340208395
0.135339463138
0.135338760012
0.135338110425
0.135337527514
0.135337022453
0.135336600019
0.135336256503
0.135335981134
0.135335759611
0.135335577596
0.135335422973
0.1353352868
0.135335162908
0.135335045727
0.135334930615
0.135334833113
0.132677247395
0.132677164082
0.132676685756
0.132676193898
0.132675527435
0.132674828737
0.132674056473
0.13267326618
0.132672453593
0.132671641142
0.132670833602
0.132670040917
0.132669268321
0.132668521963
0.132667808289
0.132667136038
0.132666516526
0.132665962395
0.132665483878
0.132665084714
0.132664760548
0.132664500591
0.132664291053
0.132664118365
0.132663971186
0.132663841208
0.132663722722
0.13266361053
0.132663500269
0.132663406863
0.130040424344
0.130040347301
0.130039886123
0.13003941491
0.130038774478
0.130038103983
0.130037362364
0.130036603713
0.130035823502
0.130035043506
0.130034268182
0.130033507165
0.130032765523
0.130032049363
0.130031365186
0.130030721783
0.13003013035
0.130029603015
0.130029149098
0.130028771395
0.130028465003
0.130028219174
0.130028020626
0.130027856509
0.130027716195
0.130027591952
0.130027478486
0.130027370934
0.130027265191
0.130027175599
0.127437354841
0.127437283613
0.127436838472
0.127436386521
0.127435770406
0.12743512624
0.127434413239
0.12743368413
0.127432934153
0.127432184461
0.127431439221
0.127430707778
0.127429995058
0.127429307136
0.12742865056
0.127428034164
0.127427468994
0.127426966645
0.127426535564
0.127426177688
0.127425887658
0.127425654812
0.127425466365
0.127425310145
0.127425176178
0.127425057256
0.127424948461
0.127424845236
0.127424743709
0.127424657677
0.12486665371
0.124866587885
0.124866157772
0.124865723828
0.124865130468
0.124864510927
0.124863824703
0.124863123228
0.124862401537
0.124861680193
0.124860963099
0.12486025933
0.124859573685
0.124858912215
0.124858281519
0.124857690451
0.124857149884
0.124856670869
0.12485626102
0.124855921495
0.124855646557
0.124855425666
0.124855246527
0.1248550976
0.124854969515
0.124854855541
0.124854751102
0.124854651919
0.124854554332
0.124854471629
0.122327027179
0.122326966382
0.122326550374
0.122326133295
0.122325561267
0.1223249648
0.122324303673
0.122323628093
0.122322932913
0.122322238136
0.122321547421
0.122320869593
0.122320209341
0.122319572699
0.122318966311
0.122318399037
0.122317881551
0.122317424359
0.12231703428
0.122316711767
0.122316450776
0.12231624092
0.122316070376
0.1223159282
0.122315805577
0.122315696215
0.122315595846
0.122315500446
0.122315406548
0.122315326964
0.119817264673
0.119817208563
0.119816805818
0.119816404558
0.119815852563
0.119815277751
0.119814640187
0.119813988915
0.119813318623
0.119812648784
0.119811982836
0.119811329367
0.119810692972
0.119810079673
0.119809496154
0.119808951268
0.119808455469
0.119808018713
0.119807647067
0.119807340353
0.119807092276
0.119806892624
0.119806730035
0.119806594121
0.119806476582
0.119806371525
0.119806274966
0.119806183112
0.119806092676
0.119806016019
0.117336231528
0.117336179796
0.11733578954
0.117335403144
0.117334869991
0.117334315537
0.117333700131
0.117333071713
0.117332424823
0.117331778432
0.117331135772
0.117330505214
0.11732989127
0.117329299955
0.117328737987
0.117328214197
0.1173277388
0.117327321206
0.117326966773
0.117326674752
0.117326438652
0.117326248456
0.117326093244
0.117325963152
0.117325850354
0.117325749324
0.117325656336
0.117325567812
0.11732548063
0.117325406722
0.114882862512
0.114882814872
0.114882436396
0.114882063989
0.114881548584
0.114881013297
0.114880418759
0.11487981186
0.114879187009
0.114878562698
0.114877941971
0.114877332996
0.114876740212
0.114876169632
0.114875628005
0.114875124121
0.114874667942
0.114874268339
0.114873929998
0.114873651663
0.114873426691
0.114873245272
0.114873096915
0.114872972245
0.114872863876
0.11487276662
0.114872676988
0.114872591595
0.114872507474
0.114872436155
0.112456156028
0.11245611222
0.112455744872
0.112455385646
0.112454886984
0.112454369769
0.112453794913
0.112453208306
0.11245260424
0.112452000752
0.112451400712
0.112450812097
0.112450239289
0.112449688295
0.112449165892
0.112448680817
0.112448242762
0.112447860068
0.112447536792
0.112447271223
0.112447056607
0.112446883351
0.112446741376
0.112446621765
0.112446517541
0.112446423828
0.112446337351
0.112446254908
0.112446173672
0.112446104793
0.110055168936
0.110055128721
0.110054771897
0.110054425111
0.110053942265
0.110053442114
0.110052885847
0.110052318401
0.110051733963
0.110051150139
0.110050569638
0.11005000026
0.110049446334
0.110048913869
0.11004840966
0.110047942378
0.110047521435
0.110047154651
0.110046845494
0.11004659185
0.110046386887
0.110046221235
0.110046085211
0.110045970329
0.110045869992
0.110045779609
0.110045696105
0.110045616445
0.110045537932
0.110045471356
0.107679011894
0.107678975053
0.107678628195
0.107678293165
0.107677825279
0.107677341261
0.107676802572
0.107676253244
0.107675687369
0.107675122139
0.107674560115
0.107674008936
0.107673472884
0.10767295797
0.107672471002
0.107672020572
0.107671615802
0.107671264005
0.107670968099
0.107670725607
0.107670529655
0.107670371098
0.107670240633
0.10767013018
0.107670033493
0.107669946245
0.107669865546
0.107669788515
0.107669712574
0.107669648175
0.10532684517
0.1053268115
0.105326474094
0.105326150186
0.105325696468
0.105325227721
0.105324705677
0.105324173502
0.105323625202
0.105323077577
0.105322533051
0.10532199911
0.10532148
0.105320981732
0.105320511122
0.105320076671
0.105319687204
0.105319349538
0.105319066078
0.105318834033
0.105318646504
0.105318494578
0.105318369315
0.105318263015
0.10531816976
0.105318085469
0.10531800742
0.105317932874
0.105317859368
0.105317797029
0.102997874866
0.10299784418
0.102997515747
0.102997202376
0.102996762091
0.102996307819
0.102995801554
0.102995285638
0.102994753997
0.102994223061
0.102993695126
0.102993177534
0.102992674502
0.102992192042
0.10299173697
0.102991317685
0.102990942709
0.102990618381
0.102990346628
0.102990124377
0.102989944733
0.102989799014
0.102989678626
0.102989576226
0.102989486204
0.102989404705
0.102989329162
0.10298925697
0.10298918577
0.102989125384
0.100691349498
0.100691321623
0.100691001718
0.10069069834
0.100690270808
0.100689830269
0.100689338981
0.100688838494
0.100688322665
0.100687807566
0.100687295378
0.100686793313
0.100686305556
0.100685838125
0.100685397829
0.100684992952
0.100684631713
0.100684319986
0.100684059254
0.100683846199
0.100683673947
0.100683534045
0.100683418231
0.100683319502
0.100683232529
0.100683153669
0.1006830805
0.100683010539
0.100682941527
0.100682882992
0.0984065568975
0.0984065316728
0.0984062198841
0.0984059259927
0.09840551058
0.0984050830878
0.0984046060289
0.0984041201994
0.0984036193928
0.0984031193418
0.0984026221191
0.0984021348124
0.0984016615872
0.0984012084596
0.0984007822285
0.098400391055
0.0984000428477
0.0983997430361
0.0983994926906
0.0983992882802
0.0983991229654
0.098398988524
0.0983988770099
0.0983987817369
0.0983986976439
0.098398621282
0.0983985503643
0.0983984825213
0.0983984155865
0.0983983588104
0.0961428214026
0.0961427986803
0.0961424946219
0.0961422097477
0.0961418058641
0.0961413907782
0.0961409272535
0.0961404553639
0.0961399688451
0.0961394831061
0.0961390001198
0.0961385268592
0.0961380674715
0.0961376279727
0.0961372151433
0.0961368370128
0.0961365011801
0.0961362126458
0.0961359720986
0.0961357758221
0.0961356170273
0.0961354877177
0.0961353802502
0.0961352882377
0.096135206868
0.096135132874
0.096135064093
0.0961349982625
0.096134933302
0.0961348781977
0.0938995012976
0.0938994809398
0.0938991842522
0.0938989079571
0.0938985150527
0.0938981117764
0.0938976611374
0.0938972025187
0.0938967296028
0.09389625749
0.093895788061
0.0938953281821
0.0938948819854
0.093894455485
0.0938940554376
0.0938936897324
0.0938933656593
0.0938930878075
0.0938928565125
0.0938926678983
0.0938925152383
0.0938923907581
0.093892287104
0.0938921981711
0.0938921193797
0.0938920476325
0.0938919808821
0.0938919169657
0.0938918538839
0.0938918003704
0.0916759864778
0.0916759683565
0.0916756787037
0.0916754105789
0.0916750281398
0.0916746361162
0.0916741977578
0.0916737517851
0.0916732918327
0.0916728327061
0.0916723762007
0.0916719290834
0.0916714954737
0.0916710813827
0.0916706935371
0.0916703396784
0.0916700267893
0.0916697590648
0.0916695365147
0.0916693551262
0.0916692082452
0.0916690883154
0.0916689882596
0.0916689022387
0.0916688258915
0.0916687562784
0.0916686914597
0.0916686293658
0.0916685680732
0.0916685160752
0.089471696319
0.0894716803146
0.0894713973823
0.0894711370458
0.0894707645918
0.0894703833001
0.0894699566562
0.0894695227457
0.089469075159
0.0894686284204
0.0894681842462
0.0894677493109
0.0894673277236
0.0894669254909
0.0894665493031
0.0894662067477
0.0894659045032
0.0894656463875
0.08946543211
0.0894652575425
0.0894651161115
0.0894650004744
0.0894649038178
0.089464820554
0.0894647465261
0.0894646789425
0.0894646159631
0.0894645556061
0.0894644960194
0.0894644454661
0.0872860777285
0.0872860637299
0.0872857872234
0.0872855343178
0.0872851713991
0.087284800352
0.087284384893
0.0872839624979
0.0872835267174
0.0872830918067
0.0872826594095
0.0872822361139
0.0872818260204
0.0872814351292
0.0872810700886
0.0872807383264
0.0872804462202
0.0872801972284
0.0872799907837
0.0872798226616
0.0872796863759
0.0872795747929
0.0872794813514
0.0872794007007
0.0872793288763
0.0872792632244
0.0872792019983
0.087279143298
0.087279085339
0.0872790361646
0.0851186033563
0.0851185912596
0.0851183209026
0.0851180750929
0.085117721288
0.0851173600289
0.085116955258
0.0851165438661
0.0851161193674
0.08511569576
0.0851152746205
0.0851148624564
0.0851144633611
0.0851140833263
0.085113728953
0.0851134075043
0.085113125061
0.085112884739
0.0851126857172
0.0851125236912
0.0851123922683
0.0851122845184
0.0851121941211
0.08511211595
0.0851120462211
0.0851119824097
0.0851119228563
0.0851118657378
0.0851118093333
0.0851117614759
0.0829687699525
0.0829687596605
0.0829684951935
0.0829682561656
0.0829679110788
0.0829675591793
0.0829671646305
0.0829667637611
0.0829663500522
0.0829659372558
0.0829655268869
0.0829651253775
0.0829647368152
0.0829643671811
0.0829640230234
0.0829637114362
0.0829634382091
0.0829632061317
0.0829630141498
0.0829628578952
0.0829627310727
0.0829626269508
0.0829625394391
0.0829624636233
0.0829623958891
0.0829623338329
0.0829622758767
0.0829622202698
0.0829621653512
0.0829621187527
0.0808360968598
0.0808360882818
0.0808358294606
0.0808355969195
0.0808352601791
0.0808349172365
0.080834532472
0.0808341416736
0.080833738292
0.0808333358445
0.0808329357887
0.0808325444861
0.0808321660196
0.0808318063574
0.0808314719896
0.0808311698382
0.0808309054067
0.0808306811749
0.0808304958753
0.0808303450894
0.0808302226235
0.080830121939
0.0808300371654
0.080829963589
0.0808298977555
0.0808298373748
0.0808297809451
0.0808297267838
0.0808296732866
0.0808296278925
0.0787201246225
0.0787201176734
0.0787198642683
0.0787196379367
0.0787193091928
0.0787189748288
0.0787185994368
0.0787182182846
0.0787178247957
0.0787174322623
0.0787170420894
0.0787166605727
0.0787162917904
0.0787159416961
0.0787156167168
0.0787153235994
0.0787150675674
0.078714850807
0.0787146718551
0.0787145262557
0.0787144079192
0.0787143104949
0.0787142283219
0.0787141568769
0.0787140928562
0.0787140340761
0.0787139791064
0.0787139263288
0.0787138741924
0.0787138299516
0.076620413703
0.076620408303
0.0766201600974
0.0766199397144
0.0766196186377
0.0766192924959
0.0766189260885
0.0766185541829
0.0766181701774
0.0766177871489
0.0766174064541
0.0766170343267
0.0766166748412
0.0766163339338
0.0766160179639
0.0766157335009
0.0766154854953
0.0766152758543
0.076615102937
0.0766149622607
0.0766148478421
0.0766147535126
0.0766146738122
0.0766146043977
0.0766145421074
0.0766144848578
0.0766144312858
0.0766143798334
0.0766143290009
0.076614285865
0.0745365432982
0.0745365393724
0.074536296162
0.0745360814816
0.0745357677617
0.0745354495064
0.0745350917181
0.0745347286822
0.0745343537743
0.0745339798653
0.0745336082671
0.0745332451556
0.0745328946013
0.074532562521
0.074532255202
0.0745319790347
0.0745317387034
0.0745315358511
0.0745313686748
0.0745312326754
0.0745311219772
0.0745310305885
0.0745309532411
0.0745308857627
0.0745308251256
0.0745307693406
0.0745307171075
0.0745306669255
0.0745306173431
0.0745305752667
0.0724681102457
0.0724681077238
0.0724678693157
0.072467660106
0.0724673534499
0.0724670427642
0.0724666932503
0.0724663387286
0.0724659725544
0.0724656074012
0.0724652445399
0.0724648900918
0.0724645481236
0.0724642245304
0.0724639255231
0.0724636573123
0.0724634243227
0.0724632279478
0.0724630662373
0.0724629346844
0.0724628275222
0.0724627389305
0.0724626638243
0.0724625981935
0.0724625391372
0.0724624847548
0.0724624338053
0.0724623848419
0.0724623364589
0.0724622953993
0.070414728007
0.0704147268228
0.0704144930345
0.0704142890767
0.0704139892078
0.0704136857926
0.0704133442273
0.0704129978843
0.0704126401002
0.0704122833595
0.0704119288954
0.0704115827779
0.0704112490698
0.0704109336419
0.070410642625
0.0704103820492
0.0704101560873
0.0704099658967
0.0704098093936
0.0704096820715
0.0704095782728
0.0704094923435
0.0704094193738
0.0704093555079
0.0704092979643
0.0704092449261
0.0704091952081
0.0704091474145
0.0704091001832
0.0704090600997
0.0683760257266
0.0683760258178
0.0683757964769
0.0683755975641
0.0683753042207
0.0683750077934
0.0683746738689
0.0683743353872
0.0683739856684
0.0683736370159
0.0683732906281
0.0683729525266
0.06837262677
0.0683723192027
0.0683720358717
0.0683717826264
0.068371563395
0.0683713791124
0.0683712275738
0.0683711042804
0.0683710036838
0.068370920291
0.0683708493599
0.068370787181
0.0683707310862
0.0683706793372
0.0683706308014
0.0683705841315
0.0683705380066
0.0683704988611
0.06635164736
0.066351648668
0.0663514236109
0.0663512295476
0.0663509424821
0.0663506527752
0.0663503262002
0.0663499952798
0.0663496533191
0.0663493124479
0.0663489738328
0.0663486434496
0.0663483253525
0.0663480253568
0.0663477494226
0.0663475032189
0.0663472904372
0.0663471118019
0.0663469649995
0.0663468455451
0.0663467479992
0.066346667025
0.0663465980405
0.0663465374755
0.0663464827691
0.0663464322576
0.0663463848575
0.0663463392676
0.0663462942064
0.0663462559628
0.0643412508603