/*--------------------------------*- C++ -*----------------------------------*\
| =========                 |                                                 |
| \\      /  F ield         | OpenFOAM: The Open Source CFD Toolbox           |
|  \\    /   O peration     | Version:  2206                                  |
|   \\  /    A nd           | Website:  www.openfoam.com                      |
|    \\/     M anipulation  |                                                 |
\*---------------------------------------------------------------------------*/
FoamFile
{
    version     2.0;
    format      ascii;
    arch        "LSB;label=32;scalar=64";
    class       surfaceScalarField;
    location    "500";
    object      phi;
}
// * * * * * * * * * * * * * * * * * * * * * * * * * * * * * * * * * * * * * //

dimensions      [0 3 -1 0 0 0 0];

oriented        oriented;

internalField   nonuniform List<scalar> 
5870
(
-2.62252904236e-08
1.26032276796e-06
-9.82008270426e-08
3.40466758524e-06
-2.06755104002e-07
5.05768458988e-06
-3.4477946386e-07
6.30551510005e-06
-5.06519892125e-07
7.22023297579e-06
-6.8713679006e-07
7.86215154269e-06
-8.82446097969e-07
8.28173860808e-06
-1.08876476132e-06
8.52119445342e-06
-1.30281979643e-06
8.61576766309e-06
-1.5216956603e-06
8.59485714187e-06
-1.74280373195e-06
8.48293744083e-06
-1.96386357612e-06
8.3003371796e-06
-2.18288952321e-06
8.06389474887e-06
-2.39817872513e-06
7.7875112978e-06
-2.60829863143e-06
7.48261755732e-06
-2.81207261116e-06
7.15856785464e-06
-3.00856106328e-06
6.8229706947e-06
-3.19703497036e-06
6.48196461242e-06
-3.3769590824e-06
6.14046732403e-06
-3.54806471049e-06
5.80246758829e-06
-3.71061045175e-06
5.4713837463e-06
-3.86556114569e-06
5.15012571275e-06
-4.0132684271e-06
4.83971756552e-06
-4.1477316833e-06
4.53497965485e-06
-4.24361468453e-06
4.21736962444e-06
-4.23711307441e-06
3.84890477842e-06
-4.00863520406e-06
3.37403523324e-06
-3.37945719054e-06
2.73366805225e-06
-2.12810320572e-06
1.88493402358e-06
7.94496394838e-07
-2.05617407402e-08
1.28088450874e-06
-7.55378139039e-08
3.4596436583e-06
-1.56661928045e-07
5.13880870401e-06
-2.5691691338e-07
6.40577008544e-06
-3.70494889438e-07
7.3338109519e-06
-4.92698881038e-07
7.98435553451e-06
-6.1981297084e-07
8.40885269799e-06
-7.48966308564e-07
8.65034779127e-06
-8.78001189606e-07
8.74480254416e-06
-1.0053499171e-06
8.7222058691e-06
-1.12992284885e-06
8.60751037299e-06
-1.25100880896e-06
8.42142313899e-06
-1.36818825143e-06
8.18107419217e-06
-1.48125912597e-06
7.90058217167e-06
-1.59017482673e-06
7.591533258e-06
-1.69499222055e-06
7.26338524848e-06
-1.79582647345e-06
6.92380494746e-06
-1.89282203001e-06
6.57896016899e-06
-1.98619323999e-06
6.23383853491e-06
-2.07638702451e-06
5.8926613727e-06
-2.16406055695e-06
5.55905727808e-06
-2.2485513877e-06
5.23461654378e-06
-2.32258721587e-06
4.91375339417e-06
-2.36258383644e-06
4.57497627476e-06
-2.31989669082e-06
4.17468247878e-06
-2.12553787338e-06
3.65454596103e-06
-1.72072290206e-06
2.96922026216e-06
-1.1127833881e-06
2.12572853834e-06
-4.36108570959e-07
1.20825920662e-06
3.58387823843e-07
-1.06067004407e-08
1.2914912092e-06
-3.88679271047e-08
3.48790488491e-06
-8.11528150667e-08
5.18109359196e-06
-1.3450198707e-07
6.45911925747e-06
-1.96497174485e-07
7.39580613933e-06
-2.65157499525e-07
8.05301585964e-06
-3.38848302852e-07
8.48254350136e-06
-4.1620701203e-07
8.7277065005e-06
-4.96084829463e-07
8.82468036159e-06
-5.77502080563e-07
8.80362312008e-06
-6.59615045847e-07
8.68962333844e-06
-7.416920866e-07
8.50350017943e-06
-8.23096982543e-07
8.26247908845e-06
-9.03277639179e-07
7.98076282803e-06
-9.81758076586e-07
7.67001369537e-06
-1.05813070991e-06
7.3397578818e-06
-1.13205091106e-06
6.99772514854e-06
-1.20326372434e-06
6.65017298226e-06
-1.27171065735e-06
6.30228546832e-06
-1.33754691943e-06
5.95849763472e-06
-1.40013275457e-06
5.62164311292e-06
-1.45423552299e-06
5.28871931233e-06
-1.4829823302e-06
4.94250020161e-06
-1.45246081753e-06
4.54445476178e-06
-1.31874231078e-06
4.04096397202e-06
-1.05496436044e-06
3.3907680107e-06
-6.88714441861e-07
2.60297034367e-06
-3.17668904387e-07
1.75468300089e-06
-6.78711301674e-08
9.58461432423e-07
2.90516693673e-07
-1.03183865081e-08
1.30180959572e-06
-3.84009433478e-08
3.51598744172e-06
-8.01948314294e-08
5.22288748004e-06
-1.32376615275e-07
6.51130104134e-06
-1.9219753295e-07
7.45562705702e-06
-2.573719468e-07
8.11819027355e-06
-3.26000001133e-07
8.55117155573e-06
-3.96509400974e-07
8.79821590038e-06
-4.67609978467e-07
8.89578093909e-06
-5.38256394527e-07
8.87426953607e-06
-6.07616172052e-07
8.75898311609e-06
-6.75041387293e-07
8.57092539446e-06
-7.40043121308e-07
8.32748082272e-06
-8.0226814925e-07
8.04298785577e-06
-8.614768055e-07
7.7292223516e-06
-9.17521542747e-07
7.39580261906e-06
-9.70338851509e-07
7.05054245726e-06
-1.01999291028e-06
6.69982704103e-06
-1.06672526704e-06
6.34901782539e-06
-1.11047710263e-06
6.00224947027e-06
-1.14855525854e-06
5.6597212686e-06
-1.17056797226e-06
5.31073202615e-06
-1.1536274153e-06
4.92555964483e-06
-1.0661412602e-06
4.45696860645e-06
-8.86802657617e-07
3.86162536942e-06
-6.30974236346e-07
3.13493958944e-06
-3.59432534777e-07
2.33142864214e-06
-1.47594432072e-07
1.5428448982e-06
-3.27574678995e-08
8.43624468256e-07
2.57759225772e-07
-8.83849324021e-09
1.31064808897e-06
-3.27950774122e-08
3.53994402586e-06
-6.82288655075e-08
5.25832126813e-06
-1.12120198751e-07
6.5551923746e-06
-1.61993983947e-07
7.50550084222e-06
-2.15844018192e-07
8.17204030786e-06
-2.72063853382e-07
8.60739139095e-06
-3.29383115045e-07
8.85553516208e-06
-3.86810808712e-07
8.95320863277e-06
-4.43585657203e-07
8.93104438448e-06
-4.99133412239e-07
8.81453087124e-06
-5.53030740633e-07
8.62482272265e-06
-6.04975108185e-07
8.3794251905e-06
-6.54759739592e-07
8.09277248699e-06
-7.02252077667e-07
7.77671468965e-06
-7.47377992637e-07
7.44092853403e-06
-7.90131954296e-07
7.09329641888e-06
-8.30624693454e-07
6.74031978019e-06
-8.68943375053e-07
6.38733650724e-06
-9.03970729115e-07
6.0372768243e-06
-9.30067925093e-07
5.68581846438e-06
-9.32683908774e-07
5.31334800992e-06
-8.8856240577e-07
4.88143814197e-06
-7.7720350145e-07
4.34560970196e-06
-6.00654697119e-07
3.68507656509e-06
-3.94210354738e-07
2.92849524707e-06
-2.10343565853e-07
2.14756185328e-06
-8.43731614508e-08
1.4168744938e-06
-1.86645939952e-08
7.77915900805e-07
2.39094631777e-07
-7.19040534994e-09
1.31783849433e-06
-2.65688811514e-08
3.55932250164e-06
-5.5338924435e-08
5.28709131141e-06
-9.11880933343e-08
6.59104154351e-06
-1.32215091056e-07
7.54652783996e-06
-1.76865966944e-07
8.2166911838e-06
-2.23878021657e-07
8.65440344569e-06
-2.72231516978e-07
8.90388865744e-06
-3.21108903857e-07
9.00208601965e-06
-3.69860421324e-07
8.97979590189e-06
-4.17975294976e-07
8.86264574499e-06
-4.65057693647e-07
8.67190512116e-06
-5.10806655548e-07
8.42517415259e-06
-5.54998930044e-07
8.13696476133e-06
-5.97474011451e-07
7.81918977104e-06
-6.38128416871e-07
7.48158293946e-06
-6.76939099036e-07
7.13210710101e-06
-7.1395855332e-07
6.77733923448e-06
-7.48841160046e-07
6.42221911418e-06
-7.78942172134e-07
6.06737783637e-06
-7.95761134955e-07
5.70263742705e-06
-7.82819359187e-07
5.30040623422e-06
-7.20966775391e-07
4.81958555829e-06
-6.02573371727e-07
4.22721629817e-06
-4.44194935323e-07
3.52669812868e-06
-2.8214633126e-07
2.76644664301e-06
-1.50256084625e-07
2.01567160666e-06
-6.1983797222e-08
1.3286022064e-06
-1.43156317202e-08
7.30247735312e-07
2.24779000055e-07
-6.62945867443e-09
1.32446795301e-06
-2.45091634877e-08
3.57720220643e-06
-5.10700048206e-08
5.31365215274e-06
-8.41898454307e-08
6.62416138414e-06
-1.22120815394e-07
7.58445880993e-06
-1.63429417347e-07
8.2579997858e-06
-2.06945938942e-07
8.6979199673e-06
-2.51721888523e-07
8.94866460704e-06
-2.96994254954e-07
9.04735838608e-06
-3.42155211259e-07
9.02495685814e-06
-3.86726469259e-07
8.90721700307e-06
-4.30337532909e-07
8.71551618467e-06
-4.72707175486e-07
8.46754379533e-06
-5.13627243794e-07
8.17788482951e-06
-5.52949746874e-07
7.85851227411e-06
-5.90588278346e-07
7.51922147093e-06
-6.26536998615e-07
7.16805582125e-06
-6.60740672521e-07
6.81154290839e-06
-6.92193272159e-07
6.45367171402e-06
-7.16519343318e-07
6.0917039075e-06
-7.23046160796e-07
5.70916424438e-06
-6.95675145883e-07
5.27303521937e-06
-6.21529311832e-07
4.74543972433e-06
-5.03307464389e-07
4.10899445062e-06
-3.63036141469e-07
3.38642680575e-06
-2.30197942062e-07
2.63360844361e-06
-1.24895306529e-07
1.91036897114e-06
-5.30123027545e-08
1.25671920263e-06
-1.26889341673e-08
6.89924366731e-07
2.12090065884e-07
-6.27924084677e-09
1.33074719387e-06
-2.32414254621e-08
3.59416439103e-06
-4.84227495497e-08
5.33883347683e-06
-7.97885694211e-08
6.65552720403e-06
-1.15666088349e-07
7.62033632887e-06
-1.54687324655e-07
8.29702102215e-06
-1.95740233859e-07
8.73897287654e-06
-2.37927021701e-07
8.99085139492e-06
-2.80528791969e-07
9.08996015636e-06
-3.2297552272e-07
9.06740358885e-06
-3.64820729749e-07
8.94906221018e-06
-4.05720109152e-07
8.75641556394e-06
-4.45413428882e-07
8.50723711522e-06
-4.83708981563e-07
8.21618038207e-06
-5.20473646992e-07
7.89527693953e-06
-5.55639568344e-07
7.55438739229e-06
-5.89192333857e-07
7.20160858674e-06
-6.20845334627e-07
6.84319590916e-06
-6.48709555177e-07
6.48153593475e-06
-6.66742246498e-07
6.10973659881e-06
-6.63167158742e-07
5.7055891565e-06
-6.2412574452e-07
5.2339938052e-06
-5.43285917599e-07
4.6645998975e-06
-4.29918717208e-07
3.99562725013e-06
-3.05980145628e-07
3.26248823417e-06
-1.93550500928e-07
2.52117879891e-06
-1.05262880191e-07
1.82208135041e-06
-4.46804943799e-08
1.19613681683e-06
-1.06296240226e-08
6.5587349638e-07
2.01460441861e-07
-5.87410377431e-09
1.33662129765e-06
-2.17428111521e-08
3.61003309838e-06
-4.53044648717e-08
5.36239513054e-06
-7.4658913959e-08
6.68488165312e-06
-1.08243910487e-07
7.6539213254e-06
-1.44781445887e-07
8.33355855759e-06
-1.83231882039e-07
8.7774233127e-06
-2.22755064015e-07
9.03037457691e-06
-2.62677418814e-07
9.12988251116e-06
-3.02464090564e-07
9.10719026055e-06
-3.41695460316e-07
8.98829358e-06
-3.80047340155e-07
8.79476744365e-06
-4.17274109403e-07
8.54446388461e-06
-4.53194705083e-07
8.25210097763e-06
-4.87686526821e-07
7.92976876125e-06
-5.20690924248e-07
7.58739178972e-06
-5.5213619649e-07
7.23305385895e-06
-5.81368039401e-07
6.87242775207e-06
-6.05492230023e-07
6.50566012554e-06
-6.17131585564e-07
6.12137595432e-06
-6.04539469346e-07
5.69299704015e-06
-5.5715310702e-07
5.18660744292e-06
-4.74206832787e-07
4.58165362334e-06
-3.68250766992e-07
3.88967118425e-06
-2.58851180439e-07
3.15308864761e-06
-1.62456791742e-07
2.42478441021e-06
-8.77168652126e-08
1.74734142389e-06
-3.69117578833e-08
1.1453317095e-06
-8.67965943649e-09
6.27641397935e-07
1.92780782423e-07
-5.52492785904e-09
1.34214622551e-06
-2.04447904528e-08
3.62495296096e-06
-4.26004203622e-08
5.38455076045e-06
-7.02091777411e-08
6.71249041051e-06
-1.01804953931e-07
7.68551710161e-06
-1.36187824121e-07
8.36794142782e-06
-1.72381040348e-07
8.81361652895e-06
-2.09594707235e-07
9.06758824382e-06
-2.47195050754e-07
9.16748285469e-06
-2.84678408293e-07
9.14467361804e-06
-3.21649295173e-07
9.02526446695e-06
-3.57801855323e-07
8.83092000368e-06
-3.92904052764e-07
8.57956608219e-06
-4.26785416187e-07
8.28598234094e-06
-4.59334098137e-07
7.96231744319e-06
-4.90489791283e-07
7.61854748287e-06
-5.20066340831e-07
7.26263040847e-06
-5.46927018612e-07
6.89928842985e-06
-5.67174735185e-07
6.52590784227e-06
-5.72581845775e-07
6.1267830649e-06
-5.52340538851e-07
5.67275573311e-06
-4.99437493524e-07
5.13370439764e-06
-4.17197282744e-07
4.49941341263e-06
-3.19208875072e-07
3.79168277651e-06
-2.22149459567e-07
3.0560292321e-06
-1.38514586207e-07
2.34114953685e-06
-7.44681906398e-08
1.68329502832e-06
-3.12707415723e-08
1.10213426044e-06
-7.35649897167e-09
6.03727155333e-07
1.8542428345e-07
-5.24894399639e-09
1.34739516952e-06
-1.94228300645e-08
3.63912684701e-06
-4.04705352619e-08
5.40559846565e-06
-6.66985681978e-08
6.73871844346e-06
-9.67141880854e-08
7.7155327215e-06
-1.29377608882e-07
8.40060484865e-06
-1.63761115453e-07
8.84800003554e-06
-1.99114548068e-07
9.10294167646e-06
-2.3483606638e-07
9.203204373e-06
-2.70447420557e-07
9.18028497218e-06
-3.05573093146e-07
9.06039013961e-06
-3.39922636492e-07
8.86526954691e-06
-3.73275750502e-07
8.61291919633e-06
-4.05471893283e-07
8.31817848362e-06
-4.36408214219e-07
7.99325376411e-06
-4.66004801418e-07
7.64814407007e-06
-4.93898055249e-07
7.29052366227e-06
-5.18389808582e-07
6.92378018318e-06
-5.34689413371e-07
6.54220744721e-06
-5.34235822522e-07
6.12632947403e-06
-5.07749253062e-07
5.64626916355e-06
-4.51493534621e-07
5.07744867924e-06
-3.71471461639e-07
4.41939133971e-06
-2.81043118287e-07
3.70125443309e-06
-1.94214827846e-07
2.96920094165e-06
-1.20657962603e-07
2.26759267161e-06
-6.48140816278e-08
1.62745114736e-06
-2.72573311053e-08
1.06457750992e-06
-6.4357785728e-09
5.829056028e-07
1.78988504876e-07
-5.01329208289e-09
1.3524084616e-06
-1.85520451857e-08
3.6526656001e-06
-3.86566049392e-08
5.4257030254e-06
-6.37090730569e-08
6.76377091159e-06
-9.23789553291e-08
7.74420260378e-06
-1.23577441615e-07
8.43180333497e-06
-1.56418320476e-07
8.88084091442e-06
-1.9018500809e-07
9.1367083641e-06
-2.24302602316e-07
9.23732196724e-06
-2.58314261636e-07
9.21429663147e-06
-2.91861270844e-07
9.09393714888e-06
-3.24666149283e-07
8.89807442525e-06
-3.56518657274e-07
8.64477170445e-06
-3.87267212386e-07
8.34892703863e-06
-4.16813634168e-07
8.02280018589e-06
-4.45033811108e-07
7.67636424702e-06
-4.71325212206e-07
7.31681506335e-06
-4.93393974116e-07
6.94584894509e-06
-5.05742688941e-07
6.55455616218e-06
-4.99947709656e-07
6.12053449473e-06
-4.68550733393e-07
5.61487218719e-06
-4.10573168429e-07
5.01947111431e-06
-3.33583180937e-07
4.34240135227e-06
-2.5010151014e-07
3.61777276224e-06
-1.71863837928e-07
2.89096326944e-06
-1.06463367245e-07
2.20219220093e-06
-5.71313347394e-08
1.57811911486e-06
-2.402591596e-08
1.03147209114e-06
-5.67421646608e-09
5.64553903312e-07
1.73314288411e-07
-4.80223616979e-09
1.35721069778e-06
-1.77713019236e-08
3.66563466584e-06
-3.70301261902e-08
5.44496184966e-06
-6.1029022314e-08
6.78776980772e-06
-8.84936053359e-08
7.77166718681e-06
-1.18380954253e-07
8.46169068392e-06
-1.49842165745e-07
8.91230212593e-06
-1.82190786747e-07
9.16905698512e-06
-2.1487604732e-07
9.27000722781e-06
-2.47460248822e-07
9.24688083293e-06
-2.79599666751e-07
9.12607656686e-06
-3.11028385437e-07
8.92950314383e-06
-3.41545326042e-07
8.67528864517e-06
-3.71006962299e-07
8.37838867479e-06
-3.99313060583e-07
8.05110628416e-06
-4.26266426813e-07
7.70331761325e-06
-4.5097348931e-07
7.34152212583e-06
-4.70556594339e-07
6.96543205012e-06
-4.79039912654e-07
6.56303948063e-06
-4.68513419223e-07
6.11000800128e-06
-4.3340162657e-07
5.57976039444e-06
-3.74899131571e-07
4.96096861935e-06
-3.01348350476e-07
4.26885057122e-06
-2.24194444243e-07
3.54061885595e-06
-1.53295057997e-07
2.82006388319e-06
-9.46821170692e-08
2.14357926001e-06
-5.07245726531e-08
1.53416157045e-06
-2.13090356957e-08
1.00205655418e-06
-5.02760468733e-09
5.48272472309e-07
1.68286683724e-07
-4.61361251961e-09
1.3618243103e-06
-1.70730634095e-08
3.67809411671e-06
-3.55752935848e-08
5.46346407984e-06
-5.86317169465e-08
6.8108262311e-06
-8.50181985534e-08
7.79805366843e-06
-1.13732920163e-07
8.49040540556e-06
-1.43960407834e-07
8.94252961362e-06
-1.75041215339e-07
9.20013779264e-06
-2.06446210297e-07
9.30141222278e-06
-2.37754861503e-07
9.27818948411e-06
-2.68636888034e-07
9.15695859346e-06
-2.98836789169e-07
8.95970304487e-06
-3.2816193627e-07
8.70461379239e-06
-3.56475444644e-07
8.40670218308e-06
-3.83665708863e-07
8.07829654838e-06
-4.0943178164e-07
7.72908368603e-06
-4.32551712849e-07
7.36464205702e-06
-4.49615712344e-07
6.98249604962e-06
-4.54405251933e-07
6.56782902035e-06
-4.39787597188e-07
6.09539034652e-06
-4.01973818181e-07
5.54194661536e-06
-3.43783420518e-07
4.90277822171e-06
-2.73806209664e-07
4.19887336042e-06
-2.02367176942e-07
3.46917982318e-06
-1.37780569202e-07
2.75547727545e-06
-8.48834591286e-08
2.09068214994e-06
-4.54121444858e-08
1.49469025581e-06
-1.90649283794e-08
9.75709338081e-07
-4.49722619324e-09
5.33704770122e-07
1.6378945753e-07
-4.44550923646e-09
1.36626981955e-06
-1.64509180281e-08
3.69009952549e-06
-3.4279006226e-08
5.48129216804e-06
-5.64955430274e-08
6.83304276791e-06
-8.19211022479e-08
7.82347922766e-06
-1.09590442927e-07
8.51807474627e-06
-1.3871785092e-07
8.97165702163e-06
-1.68667931503e-07
9.23008787325e-06
-1.98930832307e-07
9.33167512358e-06
-2.29101327363e-07
9.30835997913e-06
-2.58861131797e-07
9.18671839794e-06
-2.87964111535e-07
8.98880602452e-06
-3.16225373217e-07
8.73287505418e-06
-3.43512436122e-07
8.4339892459e-06
-3.69690617833e-07
8.10447473008e-06
-3.94325317892e-07
7.7537183861e-06
-4.15846273184e-07
7.38616301229e-06
-4.30392538236e-07
6.99704231468e-06
-4.31721269929e-07
6.56915775217e-06
-4.13634853693e-07
6.07730393027e-06
-3.73945695186e-07
5.50225745677e-06
-3.16631606165e-07
4.84546413272e-06
-2.50196277667e-07
4.13243803196e-06
-1.83890176518e-07
3.402873722e-06
-1.24757173348e-07
2.69634427228e-06
-7.67051733276e-08
2.04263014992e-06
-4.0997748464e-08
1.45898283096e-06
-1.72072350386e-08
9.51918824657e-07
-4.05978673087e-09
5.20557321815e-07
1.597296708e-07
-4.294300379e-09
1.37056411993e-06
-1.58914057415e-08
3.70169663084e-06
-3.31132398766e-08
5.49851400217e-06
-5.45744034446e-08
6.85450393148e-06
-7.91356384344e-08
7.84804046265e-06
-1.05864568451e-07
8.54480367632e-06
-1.34002222608e-07
8.9997946758e-06
-1.62934822808e-07
9.25902047346e-06
-1.921698492e-07
9.36091014998e-06
-2.21315838029e-07
9.33750596792e-06
-2.50065302685e-07
9.21546786265e-06
-2.78180622697e-07
9.01692134444e-06
-3.05483904046e-07
8.76017833563e-06
-3.31843900302e-07
8.46034924207e-06
-3.57089325714e-07
8.12972015548e-06
-3.80625143277e-07
7.77725420366e-06
-4.00530566522e-07
7.40606843551e-06
-4.12592541185e-07
7.00910428934e-06
-4.10730505058e-07
6.56729571616e-06
-3.89752846468e-07
6.05632627167e-06
-3.48850365932e-07
5.46135497616e-06
-2.92784921781e-07
4.7893986886e-06
-2.2977319048e-07
4.0694263007e-06
-1.68074947518e-07
3.341175479e-06
-1.13684501119e-07
2.64195382588e-06
-6.97788269034e-08
1.99872447571e-06
-3.72656840635e-08
1.42646968812e-06
-1.56366651425e-08
9.30289805737e-07
-3.68930680607e-09
5.08609963479e-07
1.56040363994e-07
-4.15692922945e-09
1.37472104916e-06
-1.53830746862e-08
3.71292277628e-06
-3.20540979632e-08
5.51518502544e-06
-5.28289660719e-08
6.8752787996e-06
-7.66049147883e-08
7.87181641137e-06
-1.02479425657e-07
8.57067818721e-06
-1.2971782527e-07
9.02703307542e-06
-1.57725975068e-07
9.28702862327e-06
-1.86027103013e-07
9.38921127792e-06
-2.14242248973e-07
9.36572111384e-06
-2.42073751798e-07
9.24329936552e-06
-2.69291815034e-07
9.04413940758e-06
-2.95724693712e-07
8.78661121441e-06
-3.21238216394e-07
8.48586276466e-06
-3.45609890357e-07
8.15409182943e-06
-3.68062428741e-07
7.79970674204e-06
-3.86338530939e-07
7.42434453769e-06
-3.95979717453e-07
7.01874547586e-06
-3.91216076134e-07
6.56253207494e-06
-3.67867550433e-07
6.03297774596e-06
-3.26275362547e-07
5.41976278821e-06
-2.71696263045e-07
4.73481958912e-06
-2.11946538622e-07
4.0096765763e-06
-1.54391664291e-07
3.28362060463e-06
-1.04155242371e-07
2.59171740395e-06
-6.38338344641e-08
1.9584030678e-06
-3.40649240007e-08
1.39670077766e-06
-1.42891111573e-08
9.10513992894e-07
-3.3710441453e-09
4.97691896465e-07
1.52669319848e-07
-4.03142545634e-09
1.37875247463e-06
-1.49186318001e-08
3.72380998261e-06
-3.10863845435e-08
5.53135277819e-06
-5.12341895015e-08
6.89542660456e-06
-7.42926263227e-08
7.8948748482e-06
-9.93864572826e-08
8.59577201819e-06
-1.25803210024e-07
9.05344982818e-06
-1.52966691138e-07
9.3141921044e-06
-1.80414518387e-07
9.41665910517e-06
-2.07779157865e-07
9.39308575329e-06
-2.34771948945e-07
9.27029215665e-06
-2.61170319177e-07
9.07053777773e-06
-2.86807597226e-07
8.81224849256e-06
-3.11541558919e-07
8.51059672628e-06
-3.35083641444e-07
8.17763391195e-06
-3.56458672383e-07
7.82108177299e-06
-3.73100328412e-07
7.4409861937e-06
-3.80410472074e-07
7.02605561952e-06
-3.73039366249e-07
6.55516096923e-06
-3.47778768278e-07
6.00771714798e-06
-3.05905893316e-07
5.37788991318e-06
-2.52954664799e-07
4.68186836062e-06
-1.96284121956e-07
3.9530060335e-06
-1.42461989033e-07
3.22979847168e-06
-9.58862886464e-08
2.54514170357e-06
-5.8688365487e-08
1.92120514465e-06
-3.12980450464e-08
1.36931045723e-06
-1.31248816746e-08
8.92340829523e-07
-3.09618762985e-09
4.87663202424e-07
1.49573132218e-07
-3.91627946776e-09
1.3826687541e-06
-1.44925202498e-08
3.73438622338e-06
-3.01985311245e-08
5.54705878906e-06
-4.97710038155e-08
6.91499907726e-06
-7.21711035746e-08
7.91727494796e-06
-9.65486174022e-08
8.62014953205e-06
-1.222114394e-07
9.07911265019e-06
-1.48599839307e-07
9.34058050432e-06
-1.75264637508e-07
9.44332390338e-06
-2.01848786586e-07
9.41966990234e-06
-2.28071913886e-07
9.296515284e-06
-2.53718111886e-07
9.09618397565e-06
-2.78624404873e-07
8.83715478564e-06
-3.02634533641e-07
8.53460685497e-06
-3.25379544544e-07
8.20037892285e-06
-3.45677476046e-07
7.84137970449e-06
-3.6069063277e-07
7.45599935041e-06
-3.65779879875e-07
7.03114486663e-06
-3.56089524265e-07
6.54547061372e-06
-3.29314822352e-07
5.98094244606e-06
-2.8747725269e-07
5.33605234346e-06
-2.36227285139e-07
4.6306183931e-06
-1.82445771696e-07
3.89922452009e-06
-1.31993565734e-07
3.17934626569e-06
-8.86610971768e-08
2.50180923501e-06
-5.42034862452e-08
1.88674753371e-06
-2.8889611678e-08
1.34399658266e-06
-1.21121788558e-08
8.755633967e-07
-2.85719886584e-09
4.78408222438e-07
1.46715933355e-07
-3.81015435461e-09
1.38647890846e-06
-1.40997958611e-08
3.74467586488e-06
-2.9380239592e-08
5.56233923279e-06
-4.84224430807e-08
6.93404128076e-06
-7.02157550834e-08
7.93906825997e-06
-9.39330226097e-08
8.6438667996e-06
-1.18900908221e-07
9.10408053581e-06
-1.44574853757e-07
9.36625444988e-06
-1.70517847783e-07
9.46926689741e-06
-1.96382512289e-07
9.44553456682e-06
-2.2189614659e-07
9.32202891835e-06
-2.46848954165e-07
9.12113678315e-06
-2.71079927483e-07
8.86138575905e-06
-2.94412121072e-07
8.55793904848e-06
-3.16383125191e-07
8.22234992696e-06
-3.3560200587e-07
7.86059858518e-06
-3.49004111291e-07
7.46940145581e-06
-3.51996941757e-07
7.0341376971e-06
-3.40262205115e-07
6.53373587718e-06
-3.12314610099e-07
5.95299485103e-06
-2.70754094971e-07
5.29449182827e-06
-2.21231380784e-07
4.58109567893e-06
-1.7015058265e-07
3.84814372199e-06
-1.22748435254e-07
3.13194411826e-06
-8.23040365935e-08
2.46136483635e-06
-5.02658419866e-08
1.85470933911e-06
-2.67772661122e-08
1.3205080068e-06
-1.12243067036e-08
8.60010437286e-07
-2.64765990764e-09
4.69831575651e-07
1.44068273447e-07
-3.71191670122e-09
1.39019082516e-06
-1.37362588627e-08
3.75470020703e-06
-2.86227596341e-08
5.57722573356e-06
-4.71740927209e-08
6.95259261386e-06
-6.84056928318e-08
7.96029986009e-06
-9.15117511393e-08
8.66697285793e-06
-1.15836302693e-07
9.12840508738e-06
-1.40848833279e-07
9.39126698048e-06
-1.66123595503e-07
9.49454165964e-06
-1.91322168589e-07
9.47073313988e-06
-2.16178985843e-07
9.34688573565e-06
-2.404897769e-07
9.14544757413e-06
-2.64093402906e-07
8.88498938515e-06
-2.86785142893e-07
8.5806307884e-06
-3.07997896584e-07
8.24356268064e-06
-3.26135838793e-07
7.87873652739e-06
-3.3795541015e-07
7.48122102715e-06
-3.38985306592e-07
7.03516759354e-06
-3.25463234596e-07
6.52021380528e-06
-2.96632788259e-07
5.92416440469e-06
-2.5553226973e-07
5.2533913097e-06
-2.07730147495e-07
4.53329355672e-06
-1.59168788779e-07
3.7995823633e-06
-1.1453473482e-07
3.08731006428e-06
-7.66746462265e-08
2.42350474775e-06
-4.67852487236e-08
1.82481994161e-06
-2.49116936779e-08
1.29863445175e-06
-1.04403645493e-08
8.4553910816e-07
-2.46263425572e-09
4.61853845358e-07
1.41605639189e-07
-3.62063891472e-09
1.39381146408e-06
-1.33984758242e-08
3.76447804393e-06
-2.7918937971e-08
5.59174619571e-06
-4.601416634e-08
6.97068784223e-06
-6.67238314417e-08
7.9810095252e-06
-8.92619551155e-08
8.68951098164e-06
-1.12988713419e-07
9.1521318457e-06
-1.37386640806e-07
9.41566490789e-06
-1.62040456466e-07
9.51919547531e-06
-1.86620070932e-07
9.49531275432e-06
-2.10866571564e-07
9.37113223633e-06
-2.34580564156e-07
9.16916156665e-06
-2.57598308809e-07
8.9080071299e-06
-2.79680034857e-07
8.60271251438e-06
-3.00144960876e-07
8.26402760666e-06
-3.17201950952e-07
7.89579351747e-06
-3.27477547054e-07
7.49149662324e-06
-3.26682514687e-07
7.03437256118e-06
-3.11609966877e-07
6.50514125756e-06
-2.82141536605e-07
5.89469597441e-06
-2.41637508721e-07
5.21288728176e-06
-1.95527033885e-07
4.4871830819e-06
-1.49313486595e-07
3.75336881604e-06
-1.0719850734e-07
3.04519508501e-06
-7.16612903042e-08
2.38796753071e-06
-4.36905857832e-08
1.7968492371e-06
-2.3254287585e-08
1.27819815356e-06
-9.74410268691e-09
8.32028923264e-07
-2.29830904631e-09
4.54408051717e-07
1.39307330144e-07
-3.53554579921e-09
1.39734700988e-06
-1.3083579324e-08
3.77402607744e-06
-2.72628009983e-08
5.60592541738e-06
-4.4932820493e-08
6.98835786173e-06
-6.51558999515e-08
8.00123260466e-06
-8.71645469076e-08
8.71151962861e-06
-1.10333984021e-07
9.17530128282e-06
-1.34158909923e-07
9.4394898338e-06
-1.58233802102e-07
9.54327036748e-06
-1.82236348443e-07
9.51931530063e-06
-2.05913850754e-07
9.39480973868e-06
-2.2907104765e-07
9.19231876347e-06
-2.51538783957e-07
8.93047486629e-06
-2.7303503506e-07
8.62420876541e-06
-2.92758839538e-07
8.28375141113e-06
-3.08737884951e-07
7.91177256289e-06
-3.17516656245e-07
7.50027539451e-06
-3.15035568354e-07
7.03189147328e-06
-2.98628334458e-07
6.48873402375e-06
-2.68727483753e-07
5.86479512369e-06
-2.28919869728e-07
5.17307966769e-06
-1.84457233326e-07
4.44272044551e-06
-1.40430734859e-07
3.70934231759e-06
-1.0061439361e-07
3.00537874373e-06
-6.7173701287e-08
2.35452683839e-06
-4.0924559646e-08
1.77060009546e-06
-2.1773975061e-08
1.25904756897e-06
-9.12241682812e-09
8.19377365033e-07
-2.15159279224e-09
4.47437227677e-07
1.37155737351e-07
-3.45597466972e-09
1.40080298456e-06
-1.27891174331e-08
3.78335922019e-06
-2.66492405432e-08
5.61978554049e-06
-4.39216381108e-08
7.00563025931e-06
-6.36896961084e-08
8.02100066266e-06
-8.52032070439e-08
8.73303313957e-06
-1.07851463078e-07
9.19794953887e-06
-1.31140537325e-07
9.46277890805e-06
-1.54674033695e-07
9.56680386386e-06
-1.78136924431e-07
9.54277819134e-06
-2.01282310899e-07
9.41795512519e-06
-2.23918206432e-07
9.21495465893e-06
-2.45866928053e-07
8.95242358799e-06
-2.66797302638e-07
8.64513913993e-06
-2.85784277001e-07
8.30273838548e-06
-3.00692033653e-07
7.92668031954e-06
-3.08028096915e-07
7.50761145776e-06
-3.03997849579e-07
7.02786122594e-06
-2.86450790418e-07
6.47118696467e-06
-2.56289249503e-07
5.83463358277e-06
-2.17249274952e-07
5.13403969309e-06
-1.74381143167e-07
4.39985231375e-06
-1.32392200071e-07
3.66735337452e-06
-9.46789024722e-08
2.96766544612e-06
-6.31377494599e-08
2.32298568538e-06
-3.84402141074e-08
1.74590256011e-06
-2.04452824333e-08
1.24105263731e-06
-8.56454606027e-09
8.07496628659e-07
-2.01994044736e-09
4.40892622066e-07
1.35135796902e-07
-3.38135643797e-09
1.404184341e-06
-1.25129840696e-08
3.79249084781e-06
-2.60738687623e-08
5.63334642518e-06
-4.29733890536e-08
7.02252977961e-06
-6.23147385172e-08
8.04034201213e-06
-8.33639178769e-08
8.75408231895e-06
-1.055234125e-07
9.2201090335e-06
-1.28309961769e-07
9.48556545734e-06
-1.51335729937e-07
9.58982963203e-06
-1.74292531958e-07
9.56573499333e-06
-1.96938864007e-07
9.44060145728e-06
-2.19085026718e-07
9.23710082157e-06
-2.40541460194e-07
8.97388002155e-06
-2.60921469599e-07
8.66551914926e-06
-2.79174549837e-07
8.32099146571e-06
-2.93021582762e-07
7.94052735247e-06
-2.98974405575e-07
7.51356428056e-06
-2.93527809667e-07
7.02241463004e-06
-2.75015667082e-07
6.45267482217e-06
-2.4473625835e-07
5.80435417403e-06
-2.06512688864e-07
5.09581612356e-06
-1.65180014943e-07
4.35851963984e-06
-1.25090274428e-07
3.62726363402e-06
-8.93060288366e-08
2.9318812005e-06
-5.94921482837e-08
2.29317180482e-06
-3.61988355694e-08
1.72260924739e-06
-1.9247238805e-08
1.22410104054e-06
-8.06164122995e-09
7.96311031086e-07
-1.90126210096e-09
4.3473224294e-07
1.33234534801e-07
-3.3112013406e-09
1.40749554234e-06
-1.2253366816e-08
3.80143301328e-06
-2.55329095888e-08
5.64662596795e-06
-4.20818510443e-08
7.03907872107e-06
-6.10220064755e-08
8.05928216757e-06
-8.163461468e-08
8.77469492718e-06
-1.03334564651e-07
9.24180898348e-06
-1.25648623967e-07
9.50787951667e-06
-1.48197007863e-07
9.61237801593e-06
-1.70677975004e-07
9.58821596045e-06
-1.92855008323e-07
9.46277849064e-06
-2.14539571386e-07
9.25878538457e-06
-2.35526713994e-07
8.99486716424e-06
-2.55368542984e-07
8.68536097819e-06
-2.72890152893e-07
8.33851307562e-06
-2.85690928296e-07
7.95332812788e-06
-2.90323818089e-07
7.51819717034e-06
-2.83588112004e-07
7.01567892396e-06
-2.64266718986e-07
6.43335342923e-06
-2.33987692976e-07
5.77407514801e-06
-1.96611760325e-07
5.05844019087e-06
-1.56752486792e-07
4.31866036632e-06
-1.18434287157e-07
3.58894543441e-06
-8.44238989807e-08
2.89787081231e-06
-5.61859375794e-08
2.26493384343e-06
-3.41683295497e-08
1.70059163936e-06
-1.81624902161e-08
1.20809520121e-06
-7.60638789102e-09
7.85754928759e-07
-1.79383179791e-09
4.28919686845e-07
1.31440703006e-07
-3.24508513141e-09
1.41074062748e-06
-1.20086957955e-08
3.81019662393e-06
-2.50230922624e-08
5.65964036442e-06
-4.12416343395e-08
7.05529726315e-06
-5.98036860045e-08
8.07784421924e-06
-8.00048462848e-08
8.79489608748e-06
-1.01271693318e-07
9.26307583053e-06
-1.23140445578e-07
9.52974826894e-06
-1.45238909076e-07
9.63447647943e-06
-1.67271422035e-07
9.61024847339e-06
-1.89006030806e-07
9.48451309945e-06
-2.10254099774e-07
9.28003345346e-06
-2.30791688979e-07
9.01540475352e-06
-2.50104861596e-07
8.70467415075e-06
-2.66897558018e-07
8.35530577204e-06
-2.78670240722e-07
7.96510081058e-06
-2.82048986371e-07
7.52157591598e-06
-2.74144850389e-07
7.00777478798e-06
-2.54152553379e-07
6.41336113229e-06
-2.23971353025e-07
5.74389394765e-06
-1.87460645918e-07
5.02192948372e-06
-1.49011612071e-07
4.28021133249e-06
-1.12347366369e-07
3.55228118872e-06
-7.99720269103e-08
2.86549547283e-06