/*--------------------------------*- C++ -*----------------------------------*\
| =========                 |                                                 |
| \\      /  F ield         | OpenFOAM: The Open Source CFD Toolbox           |
|  \\    /   O peration     | Version:  2206                                  |
|   \\  /    A nd           | Website:  www.openfoam.com                      |
|    \\/     M anipulation  |                                                 |
\*---------------------------------------------------------------------------*/
FoamFile
{
    version     2.0;
    format      ascii;
    arch        "LSB;label=32;scalar=64";
    class       volVectorField;
    location    "500";
    object      U;
}
// * * * * * * * * * * * * * * * * * * * * * * * * * * * * * * * * * * * * * //

dimensions      [0 1 -1 0 0 0 0];

internalField   nonuniform List<vector> 
3000
(
(1.00514458058 -0.000744522705856 -2.80603319233e-13)
(1.00519974501 -0.00170310632631 -9.68270813031e-14)
(1.00531043585 -0.00269826283401 -6.23554802384e-14)
(1.00546243557 -0.00365899422545 -4.78540196201e-14)
(1.00564683019 -0.00457985139382 -3.87280176621e-14)
(1.00585649185 -0.0054634272215 -3.31042993763e-14)
(1.00608551792 -0.00631206599348 -2.97706033389e-14)
(1.00632890799 -0.00712708042257 -2.73862700099e-14)
(1.00658237121 -0.0079089914683 -2.57419144256e-14)
(1.00684220526 -0.00865780863815 -2.41061740524e-14)
(1.00710521504 -0.00937326445994 -2.29244790099e-14)
(1.00736865455 -0.0100549961296 -2.13641550536e-14)
(1.00763018162 -0.010702677785 -2.23413141808e-14)
(1.00788782059 -0.011316111306 -1.82857691141e-14)
(1.00813993925 -0.0118952842332 -2.09809863479e-14)
(1.00838525053 -0.0124404027859 -1.89870921663e-14)
(1.00862271865 -0.0129519031656 -2.00935139904e-14)
(1.00885085624 -0.0134304281663 -2.42052947245e-14)
(1.00906629155 -0.0138767537746 -2.28903204637e-14)
(1.00926649507 -0.0142918094358 -1.1336743806e-14)
(1.00947305484 -0.0146774029245 -1.56286466348e-14)
(1.0097901034 -0.0150381337862 -2.5216470326e-14)
(1.01043763909 -0.0153812308444 -1.55304710433e-14)
(1.01149155889 -0.0157035996817 -7.69207543246e-15)
(1.01178906063 -0.0159580706889 -2.50425790963e-14)
(1.00640478836 -0.0160112342508 -2.22824025784e-14)
(0.982512281327 -0.0155819836085 -2.17988915864e-14)
(0.91370681667 -0.0140618328098 -1.41600740459e-14)
(0.75065883322 -0.0103476457079 -8.02844363741e-15)
(0.396854543207 -0.00366081918168 -1.03297559411e-14)
(1.02739406077 -0.000572460173081 -7.25479941402e-13)
(1.02756270324 -0.00131409350839 -2.67010570087e-13)
(1.027903575 -0.00205341168001 -1.73528402082e-13)
(1.02836903452 -0.00274438283405 -1.23670463179e-13)
(1.02892964844 -0.00337624342109 -1.03246348462e-13)
(1.02956199524 -0.00395211505778 -8.13169327305e-14)
(1.03024694395 -0.00447567655524 -7.74673877694e-14)
(1.0309686355 -0.00495116960122 -7.16293005189e-14)
(1.03171385078 -0.00538312021312 -6.58813471454e-14)
(1.03247156688 -0.00577607826668 -5.77107291286e-14)
(1.03323262074 -0.00613446712541 -5.97347257782e-14)
(1.03398944227 -0.00646248523442 -4.76997219511e-14)
(1.03473583497 -0.006764037669 -5.77827318563e-14)
(1.03546679823 -0.00704269039574 -3.61312374101e-14)
(1.03617839762 -0.00730164324387 -4.96729716049e-14)
(1.03686756915 -0.0075437177176 -4.57465358241e-14)
(1.03753131983 -0.00777134927902 -4.78248431456e-14)
(1.03816530668 -0.00798657315416 -5.5510583773e-14)
(1.03876818296 -0.00819106359753 -5.61718571223e-14)
(1.03937125704 -0.00838650173758 -2.87298565313e-14)
(1.04009628061 -0.00857557356485 -3.5783212775e-14)
(1.04109861044 -0.00876193594229 -5.43932906103e-14)
(1.04192554748 -0.00894100791089 -3.84293768634e-14)
(1.03959084349 -0.00906893657281 -2.55102476448e-14)
(1.0252489452 -0.0090181045199 -5.23621972797e-14)
(0.981179745672 -0.00856999173925 -4.79491326646e-14)
(0.881876216537 -0.00747530909849 -4.1589588146e-14)
(0.703343563579 -0.00554013740507 -2.68703002214e-14)
(0.44225735083 -0.00283907212677 -1.32128575429e-14)
(0.139647664065 -0.000247218215824 -7.49755759944e-15)
(1.04476400268 -0.000294306558221 -9.38438514309e-13)
(1.04492110378 -0.000684130957252 -3.68122296349e-13)
(1.04523857595 -0.00106506517118 -2.35124307065e-13)
(1.04567053242 -0.00143628829789 -1.69002174053e-13)
(1.04618902529 -0.00178623612454 -1.40273462179e-13)
(1.04677177085 -0.00211845483407 -1.26450205308e-13)
(1.04740072934 -0.00243415965444 -1.05169200134e-13)
(1.04806109901 -0.00273466732123 -9.75143119482e-14)
(1.04874071359 -0.00302110836367 -8.98335273297e-14)
(1.04942959267 -0.00329435380024 -7.8558565331e-14)
(1.05011958534 -0.00355505142966 -8.00701477504e-14)
(1.05080408081 -0.00380366534234 -6.62179312432e-14)
(1.05147777054 -0.00404051685211 -7.63043647718e-14)
(1.05213646605 -0.00426582543379 -5.19089547804e-14)
(1.0527769469 -0.00447974695328 -6.63938603371e-14)
(1.05339650114 -0.0046824026402 -6.24706755492e-14)
(1.05399160581 -0.00487388663803 -6.61487570019e-14)
(1.05455897287 -0.00505429655727 -7.53412375308e-14)
(1.05511477092 -0.0052240070768 -7.03571410655e-14)
(1.05574408032 -0.00538429301626 -4.44837098799e-14)
(1.05657215969 -0.00553679178514 -5.20347339663e-14)
(1.05722131333 -0.00567651101583 -6.72328227703e-14)
(1.05505233123 -0.00577094249663 -5.2279355582e-14)
(1.04213219955 -0.00572874502246 -4.56277414801e-14)
(1.00295313074 -0.00539161318272 -6.35949054601e-14)
(0.916976611813 -0.00459886705911 -5.75251737826e-14)
(0.768905690321 -0.00332334123869 -4.54167657812e-14)
(0.563372890361 -0.00180155812043 -2.99990047046e-14)
(0.330956354885 -0.00054506941675 -1.4912115888e-14)
(0.107742004256 -3.9426594051e-06 -4.89032397836e-15)
(1.052706044 -0.00028704512049 -1.06465535489e-12)
(1.05284838597 -0.000671771084617 -4.54766785154e-13)
(1.05313558708 -0.0010471094303 -2.8481126122e-13)
(1.05352718419 -0.00141094547308 -2.0251533088e-13)
(1.05399883747 -0.00174633276908 -1.70505982535e-13)
(1.05453096837 -0.00205805722977 -1.48861041102e-13)
(1.05510768825 -0.00234652807094 -1.27800107622e-13)
(1.05571581067 -0.00261295345696 -1.16826912101e-13)
(1.05634434607 -0.00285848721742 -1.08057948549e-13)
(1.05698412666 -0.00308423858707 -9.60343662226e-14)
(1.05762752059 -0.00329131049064 -9.54980492475e-14)
(1.05826820676 -0.00348080312332 -8.13046006576e-14)
(1.0589009971 -0.00365381431116 -8.92740021259e-14)
(1.05952170789 -0.00381143659005 -6.99185269442e-14)
(1.06012695669 -0.00395475086474 -7.95785224723e-14)
(1.06071338033 -0.0040848112359 -7.69171020015e-14)
(1.06127697415 -0.00420262198935 -8.0625391164e-14)
(1.06182154534 -0.00430921560704 -8.79628137701e-14)
(1.06239246619 -0.00440605923579 -7.91865243474e-14)
(1.06308597078 -0.00449517956761 -5.78645447601e-14)
(1.06372622706 -0.00457534744066 -6.55101608659e-14)
(1.06257812057 -0.00462799231258 -7.53508210921e-14)
(1.05381285493 -0.00459360776893 -6.28392745774e-14)
(1.02522459939 -0.00436151931841 -5.92339043713e-14)
(0.959791404631 -0.00381145914843 -6.8310447396e-14)
(0.843738488541 -0.00291404137813 -5.97943718638e-14)
(0.677905350848 -0.00182301094145 -4.53076979919e-14)
(0.481936368159 -0.000847836763129 -3.04982306687e-14)
(0.282001679737 -0.000250609889811 -1.64038422227e-14)
(0.0922358211499 -1.51502860076e-05 -5.42513129958e-15)
(1.05842793217 -0.000243669755112 -1.16119966042e-12)
(1.05857363263 -0.000574950795944 -5.29035791947e-13)
(1.05886701535 -0.00089335136157 -3.28296984182e-13)
(1.0592670067 -0.00120030734969 -2.3356824059e-13)
(1.05974834717 -0.00147775754182 -1.95765352093e-13)
(1.06029068252 -0.00173282579778 -1.69406409524e-13)
(1.06087756024 -0.00196565402912 -1.46587239094e-13)
(1.06149533857 -0.00217814672695 -1.33601940322e-13)
(1.06213269199 -0.00237199414645 -1.2293522088e-13)
(1.06278021727 -0.00254880896933 -1.10438254335e-13)
(1.06343013431 -0.00271011452958 -1.07706462414e-13)
(1.06407604833 -0.00285732093668 -9.28549560736e-14)
(1.06471276434 -0.00299172143736 -9.91072701552e-14)
(1.06533613177 -0.00311449424516 -8.11182222279e-14)
(1.06594267414 -0.0032267056513 -8.9394257829e-14)
(1.06652871191 -0.00332930864235 -8.90154806234e-14)
(1.06709231275 -0.00342316379934 -9.41041583414e-14)
(1.06765084316 -0.00350922600933 -9.67218635799e-14)
(1.06826696459 -0.00358886255075 -8.61928418092e-14)
(1.06891761719 -0.00366254602565 -6.86619283952e-14)
(1.06871748736 -0.00372201325802 -7.47101048154e-14)
(1.06399936838 -0.00373281150065 -8.15530466919e-14)
(1.04595354646 -0.0036196322184 -7.11137032391e-14)
(1.00063377935 -0.00328533931339 -6.75683020184e-14)
(0.914301203836 -0.0026803098153 -6.99402772563e-14)
(0.782707132869 -0.00187993044494 -5.94354176415e-14)
(0.616615355129 -0.00108180844252 -4.44936457849e-14)
(0.435827272026 -0.000482599416161 -3.02615295136e-14)
(0.25614657561 -0.000143785645421 -1.68510794314e-14)
(0.0842632978186 -6.14198595123e-06 -5.52560599278e-15)
(1.06474587045 -0.000197206062125 -1.21821469345e-12)
(1.0648900113 -0.000467611537634 -5.89458605437e-13)
(1.06518000965 -0.000724234606069 -3.59396164523e-13)
(1.06557530173 -0.000975919693271 -2.59222853716e-13)
(1.0660507534 -0.00120431857201 -2.16049300125e-13)
(1.06658619147 -0.00141751724508 -1.86032087168e-13)
(1.06716536659 -0.00161431554014 -1.61747052552e-13)
(1.06777481165 -0.001796342008 -1.47280913838e-13)
(1.06840337834 -0.00196465636815 -1.3489561155e-13)
(1.06904183038 -0.0021202943112 -1.22176616128e-13)
(1.06968254134 -0.00226422502431 -1.17525233079e-13)
(1.0703192552 -0.00239734024848 -1.03445354021e-13)
(1.07094690116 -0.00252046214575 -1.05270178633e-13)
(1.07156139638 -0.00263434840022 -9.13026575256e-14)
(1.07215912856 -0.00273969374138 -9.83406831474e-14)
(1.0727366204 -0.00283713082412 -9.93119758264e-14)
(1.07329674691 -0.00292729259094 -1.03107712138e-13)
(1.07387011591 -0.0030110378318 -1.04555704624e-13)
(1.07449074476 -0.00308925657033 -9.26518149121e-14)
(1.07482349861 -0.0031593289951 -7.84726602167e-14)
(1.07290785823 -0.00320389835871 -8.25286303013e-14)
(1.06302274992 -0.00317543381102 -8.68292745614e-14)
(1.03444213754 -0.00299767760183 -7.7551926111e-14)
(0.974077450576 -0.00260715900421 -7.3395144238e-14)
(0.873599807546 -0.00201914458693 -7.03606444959e-14)
(0.736132456892 -0.00135306342026 -5.81622937387e-14)
(0.575319501551 -0.000766747222518 -4.42407515832e-14)
(0.406517900379 -0.000351735282889 -3.01253224829e-14)
(0.239620384323 -0.000110220489696 -1.69460818193e-14)
(0.0791579676497 -6.39204509562e-06 -5.53195606177e-15)
(1.07071292256 -0.000182250438448 -1.25536131018e-12)
(1.07085484384 -0.000431555340957 -6.42375290112e-13)
(1.07113989367 -0.000667199481925 -3.83713812266e-13)
(1.07152853847 -0.000900166327032 -2.81818064188e-13)
(1.07199622013 -0.00111110641416 -2.3392292945e-13)
(1.07252324909 -0.00130880200103 -2.00962263808e-13)
(1.07309374679 -0.00149118144681 -1.75137258336e-13)
(1.07369451147 -0.00166007350549 -1.59357177499e-13)
(1.07431459676 -0.00181629591096 -1.45765165754e-13)
(1.07494490655 -0.001960774698 -1.32556894402e-13)
(1.0755779079 -0.00209437627597 -1.26355916832e-13)
(1.07620740391 -0.00221790707552 -1.13349391602e-13)
(1.07682835342 -0.00233212069991 -1.14770676662e-13)
(1.07743661617 -0.00243771829126 -1.00223401518e-13)
(1.07802841479 -0.00253534619703 -1.05933814048e-13)
(1.07860139774 -0.00262560649622 -1.07627552946e-13)
(1.07916521947 -0.00270916385831 -1.1058469993e-13)
(1.07975232065 -0.00278688399492 -1.09881648724e-13)
(1.08028714196 -0.00285868032178 -9.8847924365e-14)
(1.07990280935 -0.00291748845899 -8.66531016974e-14)
(1.07532795854 -0.00293664917412 -9.02213301284e-14)
(1.05907252174 -0.00286134397472 -9.1715906662e-14)
(1.01982625489 -0.00262655615783 -8.22304457733e-14)
(0.947049668147 -0.00220672574967 -7.63397125026e-14)
(0.837663443023 -0.00165786847221 -7.0352834373e-14)
(0.698859263438 -0.00109803147604 -5.75833819057e-14)
(0.543610121469 -0.00063153037362 -4.34196991183e-14)
(0.383543974247 -0.000298897182455 -2.97273689895e-14)
(0.225958048592 -9.73167070313e-05 -1.67944869242e-14)
(0.0746015594964 -6.42882415924e-06 -5.47244243447e-15)
(1.0759495957 -0.000172815124886 -1.28217159387e-12)
(1.07609154283 -0.000409230254049 -6.90887471289e-13)
(1.07637607789 -0.000632417164124 -4.1002836851e-13)
(1.07676404591 -0.000853539046289 -3.02712730663e-13)
(1.07723094885 -0.00105266864617 -2.50536889497e-13)
(1.07775715958 -0.00123936847572 -2.14902610836e-13)
(1.07832683755 -0.0014110012513 -1.87570874806e-13)
(1.07892680151 -0.00156974451577 -1.70441716447e-13)
(1.07954612473 -0.00171627792773 -1.54502973086e-13)
(1.08017572077 -0.00185155915466 -1.42097634585e-13)
(1.08080806296 -0.00197644552193 -1.3453827655e-13)
(1.08143695949 -0.00209173237708 -1.23828701948e-13)
(1.08205736043 -0.00219815859194 -1.21845227521e-13)
(1.08266503649 -0.00229640585829 -1.08357827206e-13)
(1.08325627903 -0.00238709916816 -1.12769993004e-13)
(1.08383110622 -0.00247083805896 -1.14971711925e-13)
(1.08440513937 -0.00254832474023 -1.17113675936e-13)
(1.08498564707 -0.00262021687423 -1.15332597267e-13)
(1.08527786608 -0.00268465336366 -1.04644953041e-13)
(1.08368408201 -0.00272918732139 -9.29116158776e-14)
(1.07557588235 -0.00271949627424 -9.61035977648e-14)
(1.05226247892 -0.00260041821875 -9.60592309916e-14)
(1.0030277588 -0.00232550494557 -8.59896879513e-14)
(0.920532521531 -0.00190125973867 -7.92430600132e-14)
(0.80571540138 -0.00140080392459 -7.12007857961e-14)
(0.6674053371 -0.00092222158965 -5.76437535513e-14)
(0.517039737872 -0.000532042517217 -4.23319053873e-14)
(0.3639424518 -0.000252202104049 -2.90891308513e-14)
(0.214073394779 -8.16355607291e-05 -1.66163015247e-14)
(0.0705802105694 -5.05295322207e-06 -5.41989402837e-15)
(1.08077082177 -0.000161520070651 -1.30017270268e-12)
(1.08091303875 -0.000382938293461 -7.35447652078e-13)
(1.08119769438 -0.000591560428669 -4.37713272181e-13)
(1.08158584968 -0.000798922486126 -3.2218655039e-13)
(1.08205295842 -0.00098505227886 -2.66009339709e-13)
(1.08257939122 -0.00116007817348 -2.27924024842e-13)
(1.0831492993 -0.00132079405181 -1.99145293615e-13)
(1.0837494943 -0.00146961868982 -1.80622735525e-13)
(1.08436904917 -0.00160700821719 -1.61224510207e-13)
(1.08499887516 -0.0017339032404 -1.50846506387e-13)
(1.08563144596 -0.00185108624245 -1.42497888411e-13)
(1.08626057095 -0.00195929304164 -1.31193562133e-13)
(1.08688117848 -0.00205920741239 -1.2855210589e-13)
(1.08748896767 -0.00215145969614 -1.15975847917e-13)
(1.08808071306 -0.00223663249285 -1.19986277803e-13)
(1.08865966786 -0.0023153134397 -1.21693969849e-13)
(1.08924129872 -0.00238818313035 -1.23185028101e-13)
(1.08976396495 -0.00245534946855 -1.20753325805e-13)
(1.08959270367 -0.00251240644242 -1.10164301395e-13)
(1.08626641026 -0.0025413639977 -9.91363189956e-14)
(1.07394344601 -0.0025031739818 -1.01079964759e-13)
(1.04340610336 -0.00234834677124 -9.9761381271e-14)
(0.985335440726 -0.00205100011355 -8.90196865221e-14)
(0.895494603523 -0.00163977449011 -8.09562338306e-14)
(0.777491121507 -0.00118932739963 -7.20411717523e-14)
(0.640506713652 -0.000776110101925 -5.71475704761e-14)
(0.494566264434 -0.000444649990847 -4.22874489957e-14)
(0.347484548362 -0.000208916842264 -2.89122229493e-14)
(0.204215963965 -6.67801124238e-05 -1.65331288606e-14)
(0.0673095562975 -3.93540356151e-06 -5.70193448754e-15)
(1.08536311763 -0.000151847431349 -1.31082872786e-12)
(1.08550530659 -0.000360188204603 -7.76264726246e-13)
(1.08578956064 -0.000556089813072 -4.58460549742e-13)
(1.08617719744 -0.000751384652489 -3.40336858131e-13)
(1.08664368991 -0.000926257279509 -2.80458965374e-13)
(1.0871694646 -0.00109116967702 -2.40117401984e-13)
(1.08773870306 -0.00124242817068 -2.09948978368e-13)
(1.08833823973 -0.00138267436941 -1.90212503356e-13)
(1.08895716635 -0.00151215164298 -1.70928386619e-13)
(1.08958640505 -0.00163180493399 -1.59060320893e-13)
(1.09021843814 -0.00174234553997 -1.499845128e-13)
(1.09084707756 -0.00184446312739 -1.39880535527e-13)
(1.09146722165 -0.0019387963916 -1.34780026935e-13)
(1.09207457466 -0.00202593414773 -1.23053472878e-13)
(1.09266690034 -0.00210642923233 -1.26124640877e-13)
(1.09325036143 -0.00218086468722 -1.27921624533e-13)
(1.0938271972 -0.00224981097626 -1.28687625525e-13)
(1.09420967153 -0.00231243823221 -1.25068358458e-13)
(1.09331022288 -0.00236124613901 -1.15339798014e-13)
(1.08775878108 -0.00237331791225 -1.0489935693e-13)
(1.07077596955 -0.00230819196854 -1.0579194589e-13)
(1.0332360466 -0.00212586924982 -1.02910456524e-13)
(0.967619595028 -0.00181901971673 -9.14101469734e-14)
(0.872325614673 -0.0014288003607 -8.14460641629e-14)
(0.752577785014 -0.00102383159172 -7.11289525114e-14)
(0.617350824433 -0.000663074372937 -5.68175723885e-14)
(0.475497682444 -0.00037793053826 -4.21768345408e-14)
(0.333679766692 -0.000177047013309 -2.87650270351e-14)
(0.196025373237 -5.66013067162e-05 -1.63545675557e-14)
(0.0646125682338 -3.40196072913e-06 -5.30252574007e-15)
(1.08973490107 -0.000144277493264 -1.31618584819e-12)
(1.08987707442 -0.000342259246339 -8.13953150997e-13)
(1.09016096895 -0.00052818173348 -4.82226765638e-13)
(1.09054813091 -0.000713899651259 -3.57454885756e-13)
(1.0910140586 -0.000879837416072 -2.94072488102e-13)
(1.09153923411 -0.00103664415623 -2.51621976205e-13)
(1.09210786479 -0.00118025808396 -2.20134243709e-13)
(1.09270680681 -0.00131353415277 -1.99153855127e-13)
(1.09332516873 -0.00143652870063 -1.81740713464e-13)
(1.09395388283 -0.00155021456927 -1.66756564237e-13)
(1.09458543937 -0.00165524302699 -1.57017752349e-13)
(1.09521364851 -0.00175227536044 -1.48196831542e-13)
(1.09583337918 -0.00184191747295 -1.41087083684e-13)
(1.09644048551 -0.00192472920062 -1.29706790791e-13)
(1.09703414051 -0.00200124775468 -1.32275522504e-13)
(1.09762105419 -0.0020720462212 -1.33538108872e-13)
(1.09816965362 -0.00213745155722 -1.33734073129e-13)
(1.09830128408 -0.00219531049564 -1.29662123221e-13)
(1.09638766505 -0.00223479196951 -1.20138196679e-13)
(1.08818757964 -0.00222924505018 -1.0994730194e-13)
(1.06631854461 -0.00213977825629 -1.09704332638e-13)
(1.02222489699 -0.00193746356734 -1.05582947379e-13)
(0.950280353373 -0.0016296102077 -9.32730802036e-14)
(0.850959911725 -0.00126269693327 -8.32957845803e-14)
(0.730392116423 -0.000896870114444 -7.18324551171e-14)
(0.597121142399 -0.000578032013457 -5.68198726129e-14)
(0.459009926624 -0.000328882494949 -4.20877026251e-14)
(0.321793699082 -0.000154237019349 -2.87529593102e-14)
(0.1889660777 -4.95048203805e-05 -1.65124341397e-14)
(0.0622754297036 -3.03638650769e-06 -5.52211834344e-15)
(1.09388964247 -0.00013781121038 -1.31761817813e-12)
(1.09403188271 -0.000326951445367 -8.48881069845e-13)
(1.09431560829 -0.000504435673555 -5.018306525e-13)
(1.09470254821 -0.000681983004485 -3.73702484834e-13)
(1.09516821025 -0.00084033391253 -3.07031120059e-13)
(1.0956931143 -0.000990223817316 -2.62547618077e-13)
(1.0962614791 -0.00112731614096 -2.29797101743e-13)
(1.09686017371 -0.0012546453464 -2.07536247132e-13)
(1.09747831571 -0.00137209578976 -1.85800680397e-13)
(1.09810684243 -0.00148067491754 -1.74000378344e-13)
(1.09873824761 -0.00158097535962 -1.6375353064e-13)
(1.09936633305 -0.00167363743243 -1.53266004305e-13)
(1.09998595506 -0.00175923794142 -1.45362955306e-13)
(1.10059331305 -0.00183831397329 -1.36019509545e-13)
(1.10118905424 -0.00191139331197 -1.3910509697e-13)
(1.10177528667 -0.00197901030027 -1.39689715977e-13)
(1.10225909235 -0.0020410751128 -1.38705613897e-13)
(1.10200541762 -0.00209377938258 -1.35022339464e-13)
(1.09879131191 -0.00212305227542 -1.24956520374e-13)
(1.08760903008 -0.0021000032341 -1.15454214237e-13)
(1.06080854162 -0.00198959138355 -1.13270506704e-13)
(1.01072254913 -0.00177387241923 -1.0781365566e-13)
(0.93351998988 -0.00147061140986 -9.46144189954e-14)
(0.831236862341 -0.00112706405422 -8.41824651529e-14)
(0.710453451482 -0.000794917763516 -7.11868387007e-14)
(0.579202996755 -0.000510352729999 -5.61755552634e-14)
(0.444504585183 -0.000289936145473 -4.24646751638e-14)
(0.311352639835 -0.000135959222713 -2.89128624612e-14)
(0.182756069567 -4.36574451209e-05 -1.6479523971e-14)
(0.0602137103482 -2.67559015553e-06 -5.33741225882e-15)
(1.09785762964 -0.000132008269612 -1.31591800266e-12)
(1.09799995671 -0.000313215216492 -8.81183273115e-13)
(1.09828358406 -0.000483156261064 -5.18244196898e-13)
(1.09867039616 -0.000653355919638 -3.89112646807e-13)
(1.09913590593 -0.000804930910319 -3.19129570613e-13)
(1.09966066382 -0.000948622783745 -2.72947643786e-13)
(1.10022889482 -0.00107989210015 -2.38978287114e-13)
(1.10082747798 -0.00120191544449 -2.15512601896e-13)
(1.10144553654 -0.00131442211719 -1.93104446154e-13)
(1.10207401083 -0.0014184556137 -1.80818528475e-13)
(1.10270539524 -0.00151455053044 -1.70170674301e-13)
(1.10333347986 -0.00160333076588 -1.59581806152e-13)
(1.10395314937 -0.00168534567209 -1.50788731676e-13)
(1.1045611495 -0.00176111398624 -1.42041404978e-13)
(1.10515899457 -0.00183115387134 -1.44229651417e-13)
(1.10573577276 -0.00189591001753 -1.44958644905e-13)
(1.10610437192 -0.00195468276857 -1.43525411667e-13)
(1.10531401455 -0.00200177608498 -1.39886952048e-13)
(1.10053074254 -0.00202025347983 -1.29541616476e-13)
(1.08612913393 -0.00198051606552 -1.19862678552e-13)
(1.05449010168 -0.00185283048592 -1.1639535913e-13)
(0.999011307364 -0.00162913027155 -1.0978592469e-13)
(0.917462780813 -0.00133400238517 -9.57975057009e-14)
(0.813018107499 -0.00101295084488 -8.30044641173e-14)
(0.692426329365 -0.000710092166787 -7.08911557819e-14)
(0.563194460062 -0.000454239485129 -5.61559791503e-14)
(0.431622271272 -0.000257540552469 -4.19956118417e-14)
(0.30210464328 -0.000120626042326 -2.87096030108e-14)
(0.177263108027 -3.86950532234e-05 -1.63743777551e-14)
(0.0583923202124 -2.36314864295e-06 -5.29071133478e-15)
(1.10166648399 -0.000126826191373 -1.311784861e-12)
(1.10180889224 -0.000300927103586 -9.11100614925e-13)
(1.10209243493 -0.00046413329134 -5.34883696669e-13)
(1.10247913488 -0.000627737659966 -4.0380154027e-13)
(1.10294451209 -0.000773267074687 -3.31091552687e-13)
(1.10346914545 -0.000911406375688 -2.82911435586e-13)
(1.10403726536 -0.00103747332306 -2.48182390835e-13)
(1.10463576071 -0.00115475384162 -2.23180156264e-13)
(1.10525375949 -0.00126284194093 -2.00388744237e-13)
(1.10588220475 -0.00136281656472 -1.87680662082e-13)
(1.1065135899 -0.00145515662212 -1.76325458086e-13)
(1.10714169534 -0.00154047382512 -1.65315490517e-13)
(1.10776149926 -0.00161929220748 -1.56579918209e-13)
(1.10837042433 -0.0016921163986 -1.47943514969e-13)
(1.10896925537 -0.00175944861445 -1.49268637139e-13)
(1.10952225785 -0.00182157449924 -1.49982705806e-13)
(1.10971229155 -0.00187699472815 -1.48076983989e-13)
(1.10822501925 -0.00191801815187 -1.42631888402e-13)
(1.10163429762 -0.0019254195364 -1.33771442054e-13)
(1.08386717436 -0.00187026227327 -1.2382832372e-13)
(1.0475776931 -0.00172881654011 -1.20120633293e-13)
(0.987295900068 -0.0015013069619 -1.11440179744e-13)
(0.902165527368 -0.00121631604934 -9.65332633421e-14)
(0.796168107079 -0.000916360248938 -8.46201263804e-14)
(0.67604580516 -0.00063904995438 -7.04555905014e-14)
(0.548794567912 -0.000407513581831 -5.58754705999e-14)
(0.420097987376 -0.000230649321459 -4.15916823576e-14)
(0.293855550805 -0.000107942240088 -2.84153897134e-14)
(0.172370963844 -3.46188874131e-05 -1.6217231408e-14)
(0.05677165187 -2.11728374291e-06 -5.23818065054e-15)
(1.1053333102 -0.000122214115668 -1.30584306541e-12)
(1.10547579949 -0.000289971884182 -9.39022747931e-13)
(1.10575927721 -0.000447191849161 -5.55426583683e-13)
(1.10614588895 -0.000604902397154 -4.17918048134e-13)
(1.10661116286 -0.000745056710647 -3.42502028765e-13)
(1.10713570348 -0.000878236624874 -2.92372453863e-13)
(1.10770374556 -0.000999667299753 -2.54712429423e-13)
(1.10830218701 -0.00111271529624 -2.30510061235e-13)
(1.10892015964 -0.00121685908299 -2.07349039244e-13)
(1.10954860863 -0.00131321053723 -1.95849860483e-13)
(1.11018002478 -0.00140219633518 -1.8219613961e-13)
(1.1108081874 -0.00148441957165 -1.70889545704e-13)
(1.11142824916 -0.00156038135828 -1.61984073417e-13)
(1.11203826854 -0.00163057546591 -1.52852094032e-13)
(1.11263544439 -0.00169547431412 -1.55237773254e-13)
(1.11314428128 -0.00175512072745 -1.5333764927e-13)
(1.11308136845 -0.00180704852905 -1.5223022616e-13)
(1.11073575248 -0.00184159276355 -1.47575567607e-13)
(1.10213685674 -0.00183792812473 -1.37454958291e-13)
(1.08093669403 -0.00176888185248 -1.26268667985e-13)
(1.04024362776 -0.00161682962374 -1.22231633276e-13)
(0.975711825106 -0.00138859795821 -1.12812373788e-13)
(0.887633724101 -0.00111471900477 -9.73398653113e-14)
(0.780548828983 -0.000834237421765 -8.40241784078e-14)
(0.661084117969 -0.000579253222333 -7.09209992164e-14)
(0.535753179711 -0.000368442734116 -5.58340690303e-14)
(0.409708275279 -0.000208271777319 -4.14196246332e-14)
(0.286434288949 -9.74313037573e-05 -2.82573665144e-14)
(0.167972615289 -3.12549322678e-05 -1.61321188053e-14)
(0.0553143155551 -1.9160027808e-06 -5.20913655243e-15)
(1.10887121216 -0.000118068126686 -1.29848667604e-12)
(1.10901378606 -0.000280113204424 -9.65115589709e-13)
(1.10929722385 -0.000431963036598 -5.70853884564e-13)
(1.10968377933 -0.000584360115814 -4.3143779888e-13)
(1.11014898868 -0.000719691023906 -3.5218062723e-13)
(1.11067347877 -0.000848401238125 -3.01440455782e-13)
(1.11124148725 -0.000965663946966 -2.62349987918e-13)
(1.11183991993 -0.0010749010328 -2.3755972896e-13)
(1.11245791118 -0.00117549378004 -2.13950779008e-13)
(1.11308640743 -0.00126858298669 -1.98622122609e-13)
(1.11371789573 -0.00135454697086 -1.87810089332e-13)
(1.11434617099 -0.00143398274054 -1.76208413953e-13)
(1.11496664061 -0.00150737067425 -1.67089717659e-13)
(1.11557767036 -0.00157519484554 -1.58032554538e-13)
(1.11616856923 -0.00163787557743 -1.59547022371e-13)
(1.11660656962 -0.00169512023405 -1.58061823194e-13)
(1.11620779658 -0.00174336588284 -1.5621441107e-13)
(1.11284771612 -0.00177111022785 -1.49682168825e-13)
(1.10208019698 -0.001756645682 -1.40903279388e-13)
(1.07744377653 -0.00167536198183 -1.29756252979e-13)
(1.0326256613 -0.00151543847447 -1.25280987855e-13)
(0.964348210525 -0.00128873229915 -1.14148214073e-13)
(0.873847136344 -0.00102631861015 -9.82695070842e-14)
(0.766032610723 -0.000763693872199 -8.39598750943e-14)
(0.647350914979 -0.000528310692021 -7.08606452456e-14)
(0.523867577269 -0.000335319719532 -5.57814604116e-14)
(0.400274433305 -0.000189347397528 -4.13652939008e-14)
(0.279706563596 -8.85460332034e-05 -2.82114131392e-14)
(0.163986914246 -2.84061621961e-05 -1.61130947674e-14)
(0.0539934630926 -1.74294913988e-06 -5.20104293745e-15)
(1.11229233979 -0.000114302712387 -1.29007714173e-12)
(1.11243499948 -0.000271152002341 -9.89493276291e-13)
(1.11271841612 -0.000418132662134 -5.89012039899e-13)
(1.11310493924 -0.000565691586379 -4.44442532695e-13)
(1.11357011314 -0.00069664963152 -3.61106915484e-13)
(1.11409458422 -0.000821291807302 -3.10228956025e-13)
(1.11466259213 -0.000934771656484 -2.71259491341e-13)
(1.11526104955 -0.00104054453337 -2.44411020275e-13)
(1.11587909257 -0.00113791120001 -2.2033395114e-13)
(1.116507668 -0.00122803655929 -2.04940993343e-13)
(1.11713925956 -0.00131125464674 -1.93229310089e-13)
(1.11776770283 -0.00138815804484 -1.81326419789e-13)
(1.11838871386 -0.00145920832068 -1.72038793601e-13)
(1.11900023139 -0.00152487833022 -1.6303381025e-13)
(1.11957784083 -0.00158550587261 -1.63496733052e-13)
(1.11991220622 -0.00164036810822 -1.63003192665e-13)
(1.11908891665 -0.00168472210046 -1.60079316304e-13)
(1.11456863287 -0.00170545592781 -1.53101557415e-13)
(1.10151180821 -0.00168066209863 -1.44128654978e-13)
(1.07348615746 -0.00158880293125 -1.32979056469e-13)
(1.02483420782 -0.00142332053492 -1.26926298398e-13)
(0.953263787899 -0.0011997480322 -1.15327849792e-13)
(0.860774377916 -0.000948775325189 -9.87673074962e-14)
(0.75250728438 -0.000702482492304 -8.54404559011e-14)
(0.634690330816 -0.000484403751787 -7.03704400649e-14)
(0.512976834444 -0.000306873650889 -5.55173538108e-14)
(0.391657828175 -0.00017311655311 -4.12282352055e-14)
(0.273570578083 -8.09234245279e-05 -2.81335896169e-14)
(0.16035364077 -2.59587742796e-05 -1.60779620763e-14)
(0.0527895213534 -1.5933983972e-06 -5.18761602072e-15)
(1.11560738288 -0.000110863920656 -1.28093778993e-12)
(1.11575012735 -0.000262961341826 -1.01214109612e-12)
(1.11603353558 -0.000405500631506 -6.043469962e-13)
(1.11642004228 -0.000548630110133 -4.56941259698e-13)
(1.11688520027 -0.000675600669762 -3.71186600264e-13)
(1.11740967329 -0.000796519760008 -3.18647492334e-13)
(1.11797770254 -0.000906546979206 -2.77635978765e-13)
(1.11857620682 -0.00100915277535 -2.51003161343e-13)
(1.11919432329 -0.00110357233238 -2.26420823862e-13)
(1.11982299849 -0.0011909896338 -2.10768958301e-13)
(1.12045471542 -0.00127169865067 -1.98405082539e-13)
(1.12108338191 -0.00134628863768 -1.86271367582e-13)
(1.12170501649 -0.00141520398954 -1.76853590509e-13)
(1.12231588111 -0.00147890178132 -1.68016607329e-13)
(1.12287050424 -0.00153759991879 -1.68692503641e-13)
(1.12306280892 -0.0015900553069 -1.66221336482e-13)
(1.12172342565 -0.00163031221618 -1.63715132736e-13)
(1.11591114538 -0.00164393979517 -1.58011310211e-13)
(1.10048139731 -0.00160943440887 -1.47137622123e-13)
(1.06915107319 -0.00150859335991 -1.35503957643e-13)
(1.01695626348 -0.00133946578022 -1.28545241254e-13)
(0.942495139324 -0.00112014702986 -1.16163984159e-13)
(0.848378093828 -0.000880353831077 -9.93505961007e-14)
(0.739874046215 -0.000648980078324 -8.48389767838e-14)
(0.622972771501 -0.000446252021395 -6.97486508962e-14)
(0.502950437575 -0.000282237350364 -5.55946392352e-14)
(0.383747364865 -0.000159081797211 -4.12097125368e-14)
(0.26794489736 -7.43365451097e-05 -2.81009149777e-14)
(0.157024206417 -2.38446573396e-05 -1.60606020596e-14)
(0.0516863975746 -1.46443828663e-06 -5.17968930393e-15)
(1.11882533463 -0.000107710199195 -1.27123157457e-12)
(1.11896816243 -0.000255444016562 -1.03330169689e-12)
(1.11925157258 -0.000393914673495 -6.11383004384e-13)
(1.11963807573 -0.00053297285212 -4.69013423403e-13)
(1.12010323363 -0.000656291527925 -3.81013910893e-13)
(1.12062772548 -0.000773789080047 -3.26726756285e-13)