0 	1.8880548e-07 	0.014182092 	0.99962688 	0 	0 	0 	0 	0
0.0021021021 	1.8863229e-07 	0.014287373 	0.99961444 	0 	0 	0 	0 	0
0.0042042042 	1.884591e-07 	0.014392653 	0.99960201 	0 	0 	0 	0 	0
0.0063063063 	1.882859e-07 	0.014497933 	0.99958958 	0 	0 	0 	0 	0
0.0084084084 	1.8811271e-07 	0.014603214 	0.99957715 	0 	0 	0 	0 	0
0.010510511 	1.8791263e-07 	0.014724563 	0.99956233 	0 	0 	0 	0 	0
0.012612613 	1.8769586e-07 	0.014855892 	0.99954602 	0 	0 	0 	0 	0
0.014714715 	1.8747908e-07 	0.014987222 	0.99952971 	0 	0 	0 	0 	0
0.016816817 	1.872623e-07 	0.015118551 	0.9995134 	0 	0 	0 	0 	0
0.018918919 	1.8704552e-07 	0.015249881 	0.99949709 	0 	0 	0 	0 	0
0.021021021 	1.8682216e-07 	0.015385405 	0.99948011 	0 	0 	0 	0 	0
0.023123123 	1.8655453e-07 	0.015549124 	0.99945861 	0 	0 	0 	0 	0
0.025225225 	1.862869e-07 	0.015712844 	0.99943712 	0 	0 	0 	0 	0
0.027327327 	1.8601926e-07 	0.015876564 	0.99941562 	0 	0 	0 	0 	0
0.029429429 	1.8575163e-07 	0.016040283 	0.99939412 	0 	0 	0 	0 	0
0.031531532 	1.8546925e-07 	0.016214373 	0.99937084 	0 	0 	0 	0 	0
0.033633634 	1.8514379e-07 	0.016418749 	0.99934235 	0 	0 	0 	0 	0
0.035735736 	1.8481833e-07 	0.016623125 	0.99931387 	0 	0 	0 	0 	0
0.037837838 	1.8449287e-07 	0.016827502 	0.99928538 	0 	0 	0 	0 	0
0.03993994 	1.8416741e-07 	0.017031878 	0.99925689 	0 	0 	0 	0 	0
0.042042042 	1.8378378e-07 	0.017283401 	0.99921964 	0 	0 	0 	0 	0
0.044144144 	1.8339471e-07 	0.017539342 	0.99918157 	0 	0 	0 	0 	0
0.046246246 	1.8300563e-07 	0.017795283 	0.9991435 	0 	0 	0 	0 	0
0.048348348 	1.826141e-07 	0.018053666 	0.99910494 	0 	0 	0 	0 	0
0.05045045 	1.82158e-07 	0.018376149 	0.99905367 	0 	0 	0 	0 	0
0.052552553 	1.817019e-07 	0.018698631 	0.9990024 	0 	0 	0 	0 	0
0.054654655 	1.812458e-07 	0.019021114 	0.99895113 	0 	0 	0 	0 	0
0.056756757 	1.8075255e-07 	0.019392198 	0.99888916 	0 	-3.1425505e-38 	0 	0 	0
0.058858859 	1.8023002e-07 	0.019801598 	0.99881876 	0 	-8.7626358e-38 	0 	0 	0
0.060960961 	1.7970748e-07 	0.020210998 	0.99874836 	0 	-1.4382721e-37 	0 	0 	0
0.063063063 	1.7915925e-07 	0.020670764 	0.99866664 	0 	-1.761328e-37 	0 	0 	0
0.065165165 	1.7857628e-07 	0.021198623 	0.99856962 	0 	-1.7613259e-37 	0 	0 	0
0.067267267 	1.7799331e-07 	0.021726483 	0.9984726 	0 	-1.7613237e-37 	0 	0 	0
0.069369369 	1.7738385e-07 	0.022347744 	0.99834924 	0 	-1.365093e-37 	0 	0 	0
0.071471471 	1.767555e-07 	0.0230356 	0.9982071 	0 	-6.8635684e-38 	0 	0 	0
0.073573574 	1.7612715e-07 	0.023723456 	0.99806496 	0 	-7.6206678e-40 	0 	0 	0
0.075675676 	1.7547035e-07 	0.024657914 	0.99786706 	0 	0 	0 	0 	0
0.077777778 	1.7481323e-07 	0.025595171 	0.99766852 	0 	0 	0 	0 	0
0.07987988 	1.7418053e-07 	0.026727372 	0.99738245 	0 	0 	0 	0 	0
0.081981982 	1.7356424e-07 	0.027990635 	0.99703754 	0 	0 	0 	0 	0
0.084084084 	1.7291705e-07 	0.02952777 	0.9966478 	0 	0 	0 	0 	0
0.086186186 	1.722178e-07 	0.03152624 	0.99618255 	0 	0 	0 	0 	0
0.088288288 	1.7153819e-07 	0.033690388 	0.99552883 	0 	0 	0 	0 	0
0.09039039 	1.7091008e-07 	0.036288702 	0.9943812 	0 	0 	0 	0 	0
0.092492492 	1.5847342e-07 	0.04229168 	0.9934082 	0 	0 	0 	0 	0
0.094594595 	1.1489929e-07 	0.05727228 	0.9928957 	0 	0 	0 	0 	0
0.096696697 	7.0989433e-08 	0.068057156 	0.90515271 	0 	0 	-0.004239063 	-0.00021974205 	0
0.098798799 	2.6416901e-08 	0.070560108 	0.64522583 	0 	0 	-0.016845594 	-0.00087323199 	0
0.1009009 	7.342525e-10 	0.057855902 	0.38515915 	0 	0 	-0.026152622 	-0.0012561322 	0
0.103003 	2.381161e-10 	0.024875486 	0.12490607 	0 	0 	-0.031060312 	-0.0012782462 	0
0.10510511 	0 	0.0015599924 	0 	0 	0 	-0.028666649 	-0.00095203647 	0
0.10720721 	0 	-0.012836148 	0 	0 	0 	-0.019534874 	-0.00030437345 	0
0.10930931 	0 	-0.013874164 	0 	0 	0 	-0.014634427 	-2.9884762e-05 	0
0.11141141 	0 	-0.0058618364 	0 	0 	0 	-0.012600772 	-8.2276272e-06 	0
0.11351351 	0 	-0.0021148911 	0 	0 	0 	-0.011342853 	-6.2190549e-07 	0
0.11561562 	0 	-0.00060322354 	0 	0 	0 	-0.010491459 	-3.7984139e-07 	0
0.11771772 	0 	0.00029700297 	0 	0 	0 	-0.0098733271 	-2.6897639e-07 	0
0.11981982 	0 	0.00093457784 	0 	0 	0 	-0.0093553961 	-2.1446948e-07 	0
0.12192192 	0 	0.0013051889 	0 	0 	0 	-0.0089443444 	-1.804137e-07 	0
0.12402402 	0 	0.0015748349 	0 	0 	0 	-0.0085737142 	-1.5409248e-07 	0
0.12612613 	0 	0.0017753472 	0 	0 	0 	-0.0082639403 	-1.3559628e-07 	0
0.12822823 	0 	0.0019507667 	0 	0 	0 	-0.0079762549 	-1.1994028e-07 	0
0.13033033 	0 	0.00207613 	0 	0 	0 	-0.0077304321 	-1.0776533e-07 	0
0.13243243 	0 	0.0021823314 	0 	0 	0 	-0.0075006344 	-9.6922953e-08 	0
0.13453453 	0 	0.0022633768 	0 	0 	0 	-0.0072989925 	-8.8242586e-08 	0
0.13663664 	0 	0.0023332938 	0 	0 	0 	-0.0071098062 	-8.0518653e-08 	0
0.13873874 	0 	0.0023879288 	0 	0 	0 	-0.0069400831 	-7.4055152e-08 	0
0.14084084 	0 	0.0024340925 	0 	0 	0 	-0.006781149 	-6.8290346e-08 	0
0.14294294 	0 	0.0024717442 	0 	0 	0 	-0.0066354873 	-6.3291881e-08 	0
0.14504505 	0 	0.002503043 	0 	0 	0 	-0.0064997315 	-5.8865379e-08 	0
0.14714715 	0 	0.0025295506 	0 	0 	0 	-0.0063727542 	-5.4892146e-08 	0
0.14924925 	0 	0.0025508739 	0 	0 	0 	-0.0062552758 	-5.140937e-08 	0
0.15135135 	0 	0.0025696842 	0 	0 	0 	-0.0061431679 	-4.8235598e-08 	0
0.15345345 	0 	0.0025841338 	0 	0 	0 	-0.0060403792 	-4.5598026e-08 	0
0.15555556 	0 	0.0025975199 	0 	0 	0 	-0.0059403321 	-4.3567848e-08 	0
0.15765766 	0 	0.0026072987 	0 	0 	0 	-0.0058495837 	-4.3597838e-08 	0
0.15975976 	0 	0.0026168273 	0 	0 	0 	-0.0057594943 	-4.3864809e-08 	0
0.16186186 	0 	0.0026227987 	0 	0 	0 	-0.00567877 	-4.7499283e-08 	0
0.16396396 	0 	0.0026287701 	0 	0 	0 	-0.0055980457 	-5.1133758e-08 	0
0.16606607 	0 	0.0026325568 	0 	0 	0 	-0.0055247075 	-5.1422325e-08 	-5.6973406e-38
0.16816817 	0 	0.0026360425 	0 	0 	0 	-0.0054523873 	-5.124972e-08 	-1.2179953e-37
0.17027027 	0 	0.0026386249 	0 	0 	0 	-0.0053848309 	-4.7953229e-08 	-1.4344239e-37
0.17237237 	0 	0.0026407546 	0 	0 	0 	-0.0053196621 	-4.3091091e-08 	-1.434424e-37
0.17447447 	0 	0.0026422167 	0 	0 	0 	-0.0052571245 	-3.8416139e-08 	-1.164513e-37
0.17657658 	0 	0.0026427815 	0 	0 	0 	-0.0051981233 	-3.399276e-08 	-5.318502e-38
0.17867868 	0 	0.0026431044 	0 	0 	0 	-0.0051399711 	-2.9835246e-08 	0
0.18078078 	0 	0.0026421514 	0 	0 	0 	-0.0050862978 	-2.7080333e-08 	0
0.18288288 	0 	0.0026411983 	0 	0 	0 	-0.0050326245 	-2.432542e-08 	0
0.18498498 	0 	0.0026394552 	0 	0 	0 	-0.0049829493 	-2.3005226e-08 	0
0.18708709 	0 	0.0026375869 	0 	0 	0 	-0.0049339073 	-2.191225e-08 	0
0.18918919 	0 	0.0026353806 	0 	0 	0 	-0.0048870591 	-2.0938713e-08 	0
0.19129129 	0 	0.0026328833 	0 	0 	0 	-0.0048420994 	-2.0067999e-08 	0
0.19339339 	0 	0.0026302697 	0 	0 	0 	-0.0047977936 	-1.9230767e-08 	0
0.1954955 	0 	0.0026271278 	0 	0 	0 	-0.0047564553 	-1.8545506e-08 	0
0.1975976 	0 	0.0026239858 	0 	0 	0 	-0.004715117 	-1.7860245e-08 	0
0.1996997 	0 	0.0026203828 	0 	0 	0 	-0.0046763197 	-1.7273056e-08 	0
0.2018018 	0 	0.0026166584 	0 	0 	0 	-0.0046381911 	-1.6711681e-08 	0
0.2039039 	0 	0.0026127881 	0 	0 	0 	-0.0046011182 	-1.6186712e-08 	0
0.20600601 	0 	0.0026086685 	0 	0 	0 	-0.0045658471 	-1.5723873e-08 	0
0.20810811 	0 	0.0026045489 	0 	0 	0 	-0.004530576 	-1.5261033e-08 	0
0.21021021 	0 	0.002600185 	0 	0 	0 	-0.0044976467 	-1.4804e-08 	0
0.21231231 	0 	0.0025957978 	0 	0 	0 	-0.0044649411 	-1.4347521e-08 	0
0.21441441 	0 	0.0025913231 	0 	0 	0 	-0.0044332114 	-1.3919748e-08 	0
0.21651652 	0 	0.0025867279 	0 	0 	0 	-0.0044028273 	-1.3531553e-08 	0
0.21861862 	0 	0.0025821326 	0 	0 	0 	-0.0043724431 	-1.3143358e-08 	0
0.22072072 	0 	0.0025773125 	0 	0 	0 	-0.0043439369 	-1.2789812e-08 	0
0.22282282 	0 	0.0025724649 	0 	0 	0 	-0.0043156607 	-1.2440511e-08 	0
0.22492492 	0 	0.0025675309 	0 	0 	0 	-0.0042880011 	-1.2102553e-08 	0
0.22702703 	0 	0.0025624158 	0 	0 	0 	-0.0042616347 	-1.1788384e-08 	0
0.22912913 	0 	0.0025573006 	0 	0 	0 	-0.0042352683 	-1.1474215e-08 	0
0.23123123 	0 	0.0025520538 	0 	0 	0 	-0.0042101414 	-1.1194049e-08 	0
0.23333333 	0 	0.0025467545 	0 	0 	0 	-0.0041855088 	-1.0927444e-08 	0
0.23543544 	0 	0.0025414472 	0 	0 	0 	-0.0041609799 	-1.0662154e-08 	0
0.23753754 	0 	0.0025360256 	0 	0 	0 	-0.0041379317 	-1.0415636e-08 	0
0.23963964 	0 	0.0025306039 	0 	0 	0 	-0.0041148834 	-1.0169117e-08 	0
0.24174174 	0 	0.0025251487 	0 	0 	0 	-0.0040923778 	-9.9239073e-09 	0
0.24384384 	0 	0.0025196369 	0 	0 	0 	-0.004070784 	-9.6808961e-09 	0
0.24594595 	0 	0.0025141251 	0 	0 	0 	-0.0040491903 	-9.4378849e-09 	0
0.24804805 	0 	0.0025085644 	0 	0 	0 	-0.0040284497 	-9.2156669e-09 	0
0.25015015 	0 	0.0025029756 	0 	0 	0 	-0.0040081976 	-9.0053543e-09 	0
0.25225225 	0 	0.0024973869 	0 	0 	0 	-0.0039879455 	-8.7950417e-09 	0
0.25435435 	0 	0.0024917036 	0 	0 	0 	-0.0039687505 	-8.6049336e-09 	0
0.25645646 	0 	0.0024860039 	0 	0 	0 	-0.0039497386 	-8.4183252e-09 	0
0.25855856 	0 	0.0024803017 	0 	0 	0 	-0.0039307502 	-8.2317372e-09 	0
0.26066066 	0 	0.0024744773 	0 	0 	0 	-0.0039128824 	-8.0461194e-09 	0
0.26276276 	0 	0.002468653 	0 	0 	0 	-0.0038950146 	-7.8605016e-09 	0
0.26486486 	0 	0.0024628151 	0 	0 	0 	-0.0038772934 	-7.6802457e-09 	0
0.26696697 	0 	0.0024568934 	0 	0 	0 	-0.0038604826 	-7.5332774e-09 	0
0.26906907 	0 	0.0024509717 	0 	0 	0 	-0.0038436717 	-7.3863092e-09 	0
0.27117117 	0 	0.0024450343 	0 	0 	0 	-0.0038270617 	-7.2448722e-09 	0
0.27327327 	0 	0.0024390361 	0 	0 	0 	-0.0038112315 	-7.124914e-09 	0
0.27537538 	0 	0.0024330379 	0 	0 	0 	-0.0037954012 	-7.0049559e-09 	0
0.27747748 	0 	0.0024270262 	0 	0 	0 	-0.0037797685 	-6.8813171e-09 	0
0.27957958 	0 	0.0024209654 	0 	0 	0 	-0.0037648502 	-6.7443723e-09 	0
0.28168168 	0 	0.0024149046 	0 	0 	0 	-0.0037499319 	-6.6074274e-09 	0
0.28378378 	0 	0.0024088355 	0 	0 	0 	-0.0037351602 	-6.4724657e-09 	0
0.28588589 	0 	0.0024027269 	0 	0 	0 	-0.0037210927 	-6.3470336e-09 	0
0.28798799 	0 	0.0023966183 	0 	0 	0 	-0.0037070252 	-6.2216016e-09 	0
0.29009009 	0 	0.0023905063 	0 	0 	0 	-0.0036930129 	-6.0974215e-09 	0
0.29219219 	0 	0.0023843471 	0 	0 	0 	-0.0036797427 	-5.9900778e-09 	0
0.29429429 	0 	0.0023781879 	0 	0 	0 	-0.0036664725 	-5.8827342e-09 	0
0.2963964 	0 	0.0023720287 	0 	0 	0 	-0.0036532023 	-5.7753905e-09 	0
0.2984985 	0 	0.0023657975 	0 	0 	0 	-0.0036406086 	-5.6710449e-09 	0
0.3006006 	0 	0.0023595587 	0 	0 	0 	-0.0036280859 	-5.5670134e-09 	0
0.3027027 	0 	0.0023533199 	0 	0 	0 	-0.0036155631 	-5.462982e-09 	0
0.3048048 	0 	0.0023470191 	0 	0 	0 	-0.0036035141 	-5.3750712e-09 	0
0.30690691 	0 	0.0023406887 	0 	0 	0 	-0.0035916906 	-5.2948303e-09 	0
0.30900901 	0 	0.0023343583 	0 	0 	0 	-0.0035798671 	-5.2145895e-09 	0
0.31111111 	0 	0.0023279961 	0 	0 	0 	-0.0035682952 	-5.1398447e-09 	0
0.31321321 	0 	0.0023215829 	0 	0 	0 	-0.0035571273 	-5.0739212e-09 	0
0.31531532 	0 	0.0023151696 	0 	0 	0 	-0.0035459593 	-5.0079977e-09 	0
0.31741742 	0 	0.0023087546 	0 	0 	0 	-0.0035348044 	-4.9414773e-09 	0
0.31951952 	0 	0.0023022589 	0 	0 	0 	-0.0035242531 	-4.847374e-09 	0
0.32162162 	0 	0.0022957633 	0 	0 	0 	-0.0035137018 	-4.7532707e-09 	0
0.32372372 	0 	0.0022892676 	0 	0 	0 	-0.0035031506 	-4.6591675e-09 	0
0.32582583 	0 	0.0022827231 	0 	0 	0 	-0.0034929401 	-4.567618e-09 	0
0.32792793 	0 	0.0022761442 	0 	0 	0 	-0.0034829696 	-4.4778683e-09 	0
0.33003003 	0 	0.0022695652 	0 	0 	0 	-0.0034729992 	-4.3881186e-09 	0
0.33213213 	0 	0.0022629805 	0 	0 	0 	-0.003463071 	-4.3003788e-09 	0
0.33423423 	0 	0.0022563261 	0 	0 	0 	-0.0034536485 	-4.2367173e-09 	0
0.33633634 	0 	0.0022496718 	0 	0 	0 	-0.0034442259 	-4.1730558e-09 	0
0.33843844 	0 	0.0022430174 	0 	0 	0 	-0.0034348034 	-4.1093943e-09 	0
0.34054054 	0 	0.0022363295 	0 	0 	0 	-0.0034256347 	-4.0473668e-09 	0
0.34264264 	0 	0.0022296064 	0 	0 	0 	-0.0034167312 	-3.9870452e-09 	0
0.34474474 	0 	0.0022228833 	0 	0 	0 	-0.0034078276 	-3.9267237e-09 	0
0.34684685 	0 	0.0022161603 	0 	0 	0 	-0.003398924 	-3.8664021e-09 	0
0.34894895 	0 	0.0022093728 	0 	0 	0 	-0.0033904251 	-3.8149451e-09 	0
0.35105105 	0 	0.0022025713 	0 	0 	0 	-0.0033820151 	-3.7654375e-09 	0
0.35315315 	0 	0.0021957697 	0 	0 	0 	-0.0033736052 	-3.7159299e-09 	0
0.35525526 	0 	0.0021889619 	0 	0 	0 	-0.0033652257 	-3.6661518e-09 	0
0.35735736 	0 	0.0021820651 	0 	0 	0 	-0.0033572846 	-3.6124775e-09 	0
0.35945946 	0 	0.0021751682 	0 	0 	0 	-0.0033493435 	-3.5588032e-09 	0
0.36156156 	0 	0.0021682714 	0 	0 	0 	-0.0033414024 	-3.5051289e-09 	0
0.36366366 	0 	0.0021613543 	0 	0 	0 	-0.0033335597 	-3.4522722e-09 	0
0.36576577 	0 	0.0021543658 	0 	0 	0 	-0.0033260639 	-3.4022985e-09 	0
0.36786787 	0 	0.0021473774 	0 	0 	0 	-0.0033185681 	-3.3523247e-09 	0
0.36996997 	0 	0.0021403889 	0 	0 	0 	-0.0033110723 	-3.302351e-09 	0
0.37207207 	0 	0.0021333779 	0 	0 	0 	-0.003303697 	-3.2566681e-09 	0
0.37417417 	0 	0.0021263098 	0 	0 	0 	-0.0032966261 	-3.2218194e-09 	0
0.37627628 	0 	0.0021192418 	0 	0 	0 	-0.0032895553 	-3.1869707e-09 	0
0.37837838 	0 	0.0021121737 	0 	0 	0 	-0.0032824844 	-3.152122e-09 	0
0.38048048 	0 	0.0021050863 	0 	0 	0 	-0.0032755148 	-3.1154364e-09 	0
0.38258258 	0 	0.0020979404 	0 	0 	0 	-0.0032688508 	-3.0732074e-09 	0
0.38468468 	0 	0.0020907945 	0 	0 	0 	-0.0032621867 	-3.0309785e-09 	0
0.38678679 	0 	0.0020836486 	0 	0 	0 	-0.0032555227 	-2.9887495e-09 	0
0.38888889 	0 	0.0020764949 	0 	0 	0 	-0.0032489023 	-2.9465878e-09 	0
0.39099099 	0 	0.0020692789 	0 	0 	0 	-0.003242628 	-2.9049596e-09 	0
0.39309309 	0 	0.002062063 	0 	0 	0 	-0.0032363538 	-2.8633313e-09 	0
0.3951952 	0 	0.002054847 	0 	0 	0 	-0.0032300795 	-2.8217031e-09 	0
0.3972973 	0 	0.0020476311 	0 	0 	0 	-0.0032238052 	-2.7800749e-09 	0
0.3993994 	0 	0.002040373 	0 	0 	0 	-0.0032178558 	-2.7399535e-09 	0
0.4015015 	0 	0.0020331085 	0 	0 	0 	-0.0032119557 	-2.7000611e-09 	0
0.4036036 	0 	0.0020258441 	0 	0 	0 	-0.0032060557 	-2.6601687e-09 	0
0.40570571 	0 	0.0020185796 	0 	0 	0 	-0.0032001556 	-2.6202764e-09 	0
0.40780781 	0 	0.0020113081 	0 	0 	0 	-0.0031944408 	-2.5829036e-09 	0
0.40990991 	0 	0.0020040298 	0 	0 	0 	-0.0031889024 	-2.547932e-09 	0
0.41201201 	0 	0.0019967515 	0 	0 	0 	-0.003183364 	-2.5129605e-09 	0
0.41411411 	0 	0.0019894732 	0 	0 	0 	-0.0031778257 	-2.4779889e-09 	0
0.41621622 	0 	0.0019821954 	0 	0 	0 	-0.0031723009 	-2.4431907e-09 	0
0.41831832 	0 	0.0019749329 	0 	0 	0 	-0.0031671153 	-2.4127349e-09 	0
0.42042042 	0 	0.0019676703 	0 	0 	0 	-0.0031619297 	-2.382279e-09 	0
0.42252252 	0 	0.0019604077 	0 	0 	0 	-0.0031567441 	-2.3518232e-09 	0
0.42462462 	0 	0.0019531451 	0 	0 	0 	-0.0031515585 	-2.3213674e-09 	0
0.42672673 	0 	0.0019458976 	0 	0 	0 	-0.0031465251 	-2.2876095e-09 	0
0.42882883 	0 	0.0019386692 	0 	0 	0 	-0.0031416844 	-2.2496709e-09 	0
0.43093093 	0 	0.0019314408 	0 	0 	0 	-0.0031368438 	-2.2117323e-09 	0
0.43303303 	0 	0.0019242124 	0 	0 	0 	-0.0031320031 	-2.1737937e-09 	0
0.43513514 	0 	0.001916984 	0 	0 	0 	-0.0031271625 	-2.1358551e-09 	0
0.43723724 	0 	0.0019098135 	0 	0 	0 	-0.0031225627 	-2.102358e-09 	0
0.43933934 	0 	0.0019026663 	0 	0 	0 	-0.0031180591 	-2.0706351e-09 	0
0.44144144 	0 	0.001895519 	0 	0 	0 	-0.0031135555 	-2.0389122e-09 	0
0.44354354 	0 	0.0018883717 	0 	0 	0 	-0.0031090519 	-2.0071892e-09 	0
0.44564565 	0 	0.0018812244 	0 	0 	0 	-0.0031045484 	-1.9754663e-09 	0
0.44774775 	0 	0.0018742069 	0 	0 	0 	-0.003100327 	-1.945502e-09 	0
0.44984985 	0 	0.001867212 	0 	0 	0 	-0.0030961548 	-1.9158443e-09 	0
0.45195195 	0 	0.0018602171 	0 	0 	0 	-0.0030919825 	-1.8861865e-09 	0
0.45405405 	0 	0.0018532222 	0 	0 	0 	-0.0030878103 	-1.8565288e-09 	0
0.45615616 	0 	0.0018462273 	0 	0 	0 	-0.0030836381 	-1.826871e-09 	0
0.45825826 	0 	0.0018394252 	0 	0 	0 	-0.0030797431 	-1.7964506e-09 	0
0.46036036 	0 	0.0018326584 	0 	0 	0 	-0.0030758988 	-1.7658905e-09 	0
0.46246246 	0 	0.0018258917 	0 	0 	0 	-0.0030720545 	-1.7353304e-09 	0
0.46456456 	0 	0.0018191249 	0 	0 	0 	-0.0030682102 	-1.7047703e-09 	0
0.46666667 	0 	0.0018123581 	0 	0 	0 	-0.0030643659 	-1.6742102e-09 	0
0.46876877 	0 	0.0018058258 	0 	0 	0 	-0.003060746 	-1.6434307e-09 	-3.5282865e-38
0.47087087 	0 	0.0017994 	0 	0 	0 	-0.0030572279 	-1.6125517e-09 	-8.6570157e-38
0.47297297 	0 	0.0017929741 	0 	0 	0 	-0.0030537098 	-1.5816727e-09 	-1.3785745e-37
0.47507508 	0 	0.0017865482 	0 	0 	0 	-0.0030501917 	-1.5507938e-09 	-1.8914474e-37
0.47717718 	0 	0.0017801223 	0 	0 	0 	-0.0030466736 	-1.5199148e-09 	-2.4043203e-37
0.47927928 	0 	0.001773883 	0 	0 	0 	-0.0030432771 	-1.4894413e-09 	-2.7265585e-37
0.48138138 	0 	0.0017679591 	0 	0 	0 	-0.0030400861 	-1.4596532e-09 	-2.7265606e-37
0.48348348 	0 	0.0017620352 	0 	0 	0 	-0.0030368951 	-1.4298652e-09 	-2.7265626e-37
0.48558559 	0 	0.0017561113 	0 	0 	0 	-0.0030337041 	-1.4000771e-09 	-2.7265647e-37
0.48768769 	0 	0.0017501874 	0 	0 	0 	-0.0030305131 	-1.3702891e-09 	-2.7265668e-37
0.48978979 	0 	0.0017442635 	0 	0 	0 	-0.0030273221 	-1.340501e-09 	-2.7265689e-37
0.49189189 	0 	0.001738976 	0 	0 	0 	-0.0030244228 	-1.3206158e-09 	-2.2989549e-37
0.49399399 	0 	0.0017337691 	0 	0 	0 	-0.0030215605 	-1.3019822e-09 	-1.8173008e-37
0.4960961 	0 	0.0017285621 	0 	0 	0 	-0.0030186982 	-1.2833485e-09 	-1.3356468e-37
0.4981982 	0 	0.0017233551 	0 	0 	0 	-0.0030158358 	-1.2647148e-09 	-8.539927e-38
0.5003003 	0 	0.0017181482 	0 	0 	0 	-0.0030129735 	-1.2460811e-09 	-3.7233862e-38
0.5024024 	0 	0.0017131852 	0 	0 	0 	-0.003010191 	-1.2400161e-09 	0
0.5045045 	0 	0.0017090535 	0 	0 	0 	-0.0030076806 	-1.2767613e-09 	0
0.50660661 	0 	0.0017049218 	0 	0 	0 	-0.0030051701 	-1.3135064e-09 	0
0.50870871 	0 	0.0017007902 	0 	0 	0 	-0.0030026596 	-1.3502516e-09 	0
0.51081081 	0 	0.0016966585 	0 	0 	0 	-0.0030001492 	-1.3869967e-09 	0
0.51291291 	0 	0.0016925268 	0 	0 	0 	-0.0029976387 	-1.4237418e-09 	0
0.51501502 	0 	0.0016887761 	0 	0 	0 	-0.0029952628 	-1.4953615e-09 	0
0.51711712 	0 	0.0016856493 	0 	0 	0 	-0.0029931072 	-1.6240793e-09 	0
0.51921922 	0 	0.0016825224 	0 	0 	0 	-0.0029909517 	-1.752797e-09 	0
0.52132132 	0 	0.0016793956 	0 	0 	0 	-0.0029887961 	-1.8815147e-09 	0
0.52342342 	0 	0.0016762687 	0 	0 	0 	-0.0029866406 	-2.0102325e-09 	0
0.52552553 	0 	0.0016731419 	0 	0 	0 	-0.002984485 	-2.1389502e-09 	0
0.52762763 	0 	0.0016704852 	0 	0 	0 	-0.0029824566 	-2.3678834e-09 	0
0.52972973 	0 	0.0016687671 	0 	0 	0 	-0.0029806823 	-2.7968768e-09 	0
0.53183183 	0 	0.0016670489 	0 	0 	0 	-0.0029789079 	-3.2258702e-09 	0
0.53393393 	0 	0.0016653308 	0 	0 	0 	-0.0029771335 	-3.6548637e-09 	0
0.53603604 	0 	0.0016636127 	0 	0 	0 	-0.0029753591 	-4.0838571e-09 	0
0.53813814 	0 	0.0016618945 	0 	0 	0 	-0.0029735848 	-4.5128505e-09 	0
0.54024024 	0 	0.0016604299 	0 	0 	0 	-0.0029718407 	-4.8936632e-09 	0
0.54234234 	0 	0.001661918 	0 	0 	0 	-0.0029704496 	-4.713381e-09 	0
0.54444444 	0 	0.0016634062 	0 	0 	0 	-0.0029690585 	-4.5330989e-09 	0
0.54654655 	0 	0.0016648943 	0 	0 	0 	-0.0029676673 	-4.3528167e-09 	0
0.54864865 	0 	0.0016663824 	0 	0 	0 	-0.0029662762 	-4.1725345e-09 	0
0.55075075 	0 	0.0016678705 	0 	0 	0 	-0.0029648851 	-3.9922524e-09 	0
0.55285285 	0 	0.0016693586 	0 	0 	0 	-0.002963494 	-3.8119702e-09 	0
0.55495495 	0 	0.0016725444 	0 	0 	0 	-0.0029623598 	-3.4326256e-09 	0
0.55705706 	0 	0.0016768493 	0 	0 	0 	-0.0029613949 	-2.9220682e-09 	0
0.55915916 	0 	0.0016811542 	0 	0 	0 	-0.00296043 	-2.4115108e-09 	0
0.56126126 	0 	0.0016854592 	0 	0 	0 	-0.0029594651 	-1.9009534e-09 	0
0.56336336 	0 	0.0016897641 	0 	0 	0 	-0.0029585002 	-1.390396e-09 	0
0.56546547 	0 	0.001694069 	0 	0 	0 	-0.0029575353 	-8.7983862e-10 	0
0.56756757 	0 	0.0016983739 	0 	0 	0 	-0.0029565704 	-3.6928123e-10 	0
0.56966967 	0 	0.0017047366 	0 	0 	0 	-0.0029560286 	-2.8890791e-10 	0
0.57177177 	0 	0.0017113506 	0 	0 	0 	-0.0029555386 	-2.6105738e-10 	0
0.57387387 	0 	0.0017179645 	0 	0 	0 	-0.0029550485 	-2.3320685e-10 	0
0.57597598 	0 	0.0017245785 	0 	0 	0 	-0.0029545584 	-2.0535632e-10 	0
0.57807808 	0 	0.0017311925 	0 	0 	0 	-0.0029540684 	-1.7750579e-10 	0
0.58018018 	0 	0.0017378065 	0 	0 	0 	-0.0029535783 	-1.4965527e-10 	0
0.58228228 	0 	0.0017444204 	0 	0 	0 	-0.0029530882 	-1.2180474e-10 	0
0.58438438 	0 	0.0017541414 	0 	0 	0 	-0.0029530312 	-9.2438012e-11 	0
0.58648649 	0 	0.0017640966 	0 	0 	0 	-0.0029530067 	-6.2957045e-11 	0
0.58858859 	0 	0.0017740517 	0 	0 	0 	-0.0029529823 	-3.3476078e-11 	0
0.59069069 	0 	0.0017840068 	0 	0 	0 	-0.0029529579 	-3.9951114e-12 	0
0.59279279 	0 	0.0017939619 	0 	0 	0 	-0.0029529335 	2.5485855e-11 	0
0.59489489 	0 	0.0018039171 	0 	0 	0 	-0.0029529091 	5.4966822e-11 	0
0.596997 	0 	0.0018138722 	0 	0 	0 	-0.0029528847 	8.4447789e-11 	0
0.5990991 	0 	0.001826348 	0 	0 	0 	-0.0029532092 	1.1454672e-10 	0
0.6012012 	0 	0.0018398879 	0 	0 	0 	-0.0029536811 	1.4490654e-10 	0
0.6033033 	0 	0.0018534277 	0 	0 	0 	-0.002954153 	1.7526636e-10 	0
0.60540541 	0 	0.0018669676 	0 	0 	0 	-0.002954625 	2.0562617e-10 	0
0.60750751 	0 	0.0018805075 	0 	0 	0 	-0.0029550969 	2.3598599e-10 	0
0.60960961 	0 	0.0018940474 	0 	0 	0 	-0.0029555688 	2.6634581e-10 	0
0.61171171 	0 	0.0019075873 	0 	0 	0 	-0.0029560407 	2.9670562e-10 	0
0.61381381 	0 	0.00192183 	0 	0 	0 	-0.0029566119 	3.2689027e-10 	0
0.61591592 	0 	0.0019389977 	0 	0 	0 	-0.0029575967 	3.5634586e-10 	0
0.61801802 	0 	0.0019561654 	0 	0 	0 	-0.0029585815 	3.8580146e-10 	0
0.62012012 	0 	0.0019733331 	0 	0 	0 	-0.0029595663 	4.1525705e-10 	0
0.62222222 	0 	0.0019905008 	0 	0 	0 	-0.0029605511 	4.4471264e-10 	0
0.62432432 	0 	0.0020076684 	0 	0 	0 	-0.0029615359 	4.7416824e-10 	0
0.62642643 	0 	0.0020248361 	0 	0 	0 	-0.0029625206 	5.0362383e-10 	0
0.62852853 	0 	0.0020420038 	0 	0 	0 	-0.0029635054 	5.3307943e-10 	0
0.63063063 	0 	0.0020604155 	0 	0 	0 	-0.0029646878 	5.6157242e-10 	0
0.63273273 	0 	0.0020808311 	0 	0 	0 	-0.0029661883 	5.8851484e-10 	0
0.63483483 	0 	0.0021012467 	0 	0 	0 	-0.0029676889 	6.1545727e-10 	0
0.63693694 	0 	0.0021216622 	0 	0 	0 	-0.0029691894 	6.4239969e-10 	0
0.63903904 	0 	0.0021420778 	0 	0 	0 	-0.00297069 	6.6934211e-10 	0
0.64114114 	0 	0.0021624934 	0 	0 	0 	-0.0029721905 	6.9628454e-10 	0
0.64324324 	0 	0.002182909 	0 	0 	0 	-0.0029736911 	7.2322696e-10 	0
0.64534535 	0 	0.0022033245 	0 	0 	0 	-0.0029751917 	7.5016938e-10 	0
0.64744745 	0 	0.0022242772 	0 	0 	0 	-0.0029768133 	7.7598204e-10 	0
0.64954955 	0 	0.0022468345 	0 	0 	0 	-0.0029787969 	7.9841905e-10 	0
0.65165165 	0 	0.0022693918 	0 	0 	0 	-0.0029807805 	8.2085605e-10 	0
0.65375375 	0 	0.0022919491 	0 	0 	0 	-0.0029827641 	8.4329306e-10 	0
0.65585586 	0 	0.0023145065 	0 	0 	0 	-0.0029847476 	8.6573007e-10 	0
0.65795796 	0 	0.0023370638 	0 	0 	0 	-0.0029867312 	8.8816708e-10 	0
0.66006006 	0 	0.0023596211 	0 	0 	0 	-0.0029887148 	9.1060409e-10 	0
0.66216216 	0 	0.0023821785 	0 	0 	0 	-0.0029906983 	9.3304109e-10 	0
0.66426426 	0 	0.0024047358 	0 	0 	0 	-0.0029926819 	9.554781e-10 	0
0.66636637 	0 	0.0024273959 	0 	0 	0 	-0.0029949582 	9.7118395e-10 	2.174804e-38
0.66846847 	0 	0.002450086 	0 	0 	0 	-0.0029973195 	9.8493332e-10 	4.9817388e-38
0.67057057 	0 	0.0024727761 	0 	0 	0 	-0.0029996809 	9.9868269e-10 	7.7886736e-38
0.67267267 	0 	0.0024954661 	0 	0 	0 	-0.0030020422 	1.0124321e-09 	1.0595608e-37
0.67477477 	0 	0.0025181562 	0 	0 	0 	-0.0030044036 	1.0261814e-09 	1.3402543e-37
0.67687688 	0 	0.0025408462 	0 	0 	0 	-0.0030067649 	1.0399308e-09 	1.6209478e-37
0.67897898 	0 	0.0025635363 	0 	0 	0 	-0.0030091262 	1.0536802e-09 	1.9016413e-37
0.68108108 	0 	0.0025862264 	0 	0 	0 	-0.0030114876 	1.0674295e-09 	2.1823347e-37
0.68318318 	0 	0.0026089164 	0 	0 	0 	-0.0030138489 	1.0811789e-09 	2.4630282e-37
0.68528529 	0 	0.0026291384 	0 	0 	0 	-0.0030163597 	1.082343e-09 	2.4824172e-37
0.68738739 	0 	0.0026491772 	0 	0 	0 	-0.0030188816 	1.0825735e-09 	2.4824217e-37
0.68948949 	0 	0.0026692161 	0 	0 	0 	-0.0030214035 	1.082804e-09 	2.4824262e-37
0.69159159 	0 	0.0026892549 	0 	0 	0 	-0.0030239254 	1.0830345e-09 	2.4824307e-37
0.69369369 	0 	0.0027092938 	0 	0 	0 	-0.0030264473 	1.083265e-09 	2.4824352e-37
0.6957958 	0 	0.0027293326 	0 	0 	0 	-0.0030289692 	1.0834955e-09 	2.4824397e-37
0.6978979 	0 	0.0027493715 	0 	0 	0 	-0.0030314911 	1.083726e-09 	2.4824442e-37
0.7 	0 	0.0027694103 	0 	0 	0 	-0.003034013 	1.0839565e-09 	2.4824487e-37
0.7021021 	0 	0.0027894492 	0 	0 	0 	-0.0030365349 	1.0841871e-09 	2.4824532e-37
0.7042042 	0 	0.0028058621 	0 	0 	0 	-0.0030389632 	1.0711067e-09 	2.3044825e-37
0.70630631 	0 	0.0028206662 	0 	0 	0 	-0.0030413501 	1.0521205e-09 	2.0475472e-37
0.70840841 	0 	0.0028354704 	0 	0 	0 	-0.003043737 	1.0331343e-09 	1.7906119e-37
0.71051051 	0 	0.0028502745 	0 	0 	0 	-0.0030461238 	1.0141481e-09 	1.5336765e-37
0.71261261 	0 	0.0028650787 	0 	0 	0 	-0.0030485107 	9.9516196e-10 	1.2767412e-37
0.71471471 	0 	0.0028798828 	0 	0 	0 	-0.0030508976 	9.7617578e-10 	1.0198058e-37
0.71681682 	0 	0.0028946869 	0 	0 	0 	-0.0030532844 	9.571896e-10 	7.6287049e-38
0.71891892 	0 	0.0029094911 	0 	0 	0 	-0.0030556713 	9.3820341e-10 	5.0593514e-38
0.72102102 	0 	0.0029242952 	0 	0 	0 	-0.0030580582 	9.1921723e-10 	2.489998e-38
0.72312312 	0 	0.002938898 	0 	0 	0 	-0.003060432 	9.2049743e-10 	0
0.72522523 	0 	0.0029471828 	0 	0 	0 	-0.0030623962 	1.5576922e-09 	0
0.72732733 	0 	0.0029554677 	0 	0 	0 	-0.0030643605 	2.1948869e-09 	0
0.72942943 	0 	0.0029637525 	0 	0 	0 	-0.0030663247 	2.8320817e-09 	0
0.73153153 	0 	0.0029720373 	0 	0 	0 	-0.0030682889 	3.4692765e-09 	0
0.73363363 	0 	0.0029803222 	0 	0 	0 	-0.0030702532 	4.1064712e-09 	0
0.73573574 	0 	0.002988607 	0 	0 	0 	-0.0030722174 	4.743666e-09 	0
0.73783784 	0 	0.0029968918 	0 	0 	0 	-0.0030741817 	5.3808607e-09 	0
0.73993994 	0 	0.0030051767 	0 	0 	0 	-0.0030761459 	6.0180555e-09 	0
0.74204204 	0 	0.0030134615 	0 	0 	0 	-0.0030781101 	6.6552502e-09 	0
0.74414414 	0 	0.0030217464 	0 	0 	0 	-0.0030800744 	7.292445e-09 	0
0.74624625 	0 	0.0030223573 	0 	0 	0 	-0.0030814907 	7.3847678e-09 	0
0.74834835 	0 	0.003022242 	0 	0 	0 	-0.0030828551 	7.4255265e-09 	0
0.75045045 	0 	0.0030221267 	0 	0 	0 	-0.0030842195 	7.4662851e-09 	0
0.75255255 	0 	0.0030220115 	0 	0 	0 	-0.003085584 	7.5070438e-09 	0
0.75465465 	0 	0.0030218962 	0 	0 	0 	-0.0030869484 	7.5478024e-09 	0
0.75675676 	0 	0.0030217809 	0 	0 	0 	-0.0030883128 	7.5885611e-09 	0
0.75885886 	0 	0.0030216656 	0 	0 	0 	-0.0030896772 	7.6293197e-09 	0
0.76096096 	0 	0.0030215503 	0 	0 	0 	-0.0030910417 	7.6700784e-09 	0
0.76306306 	0 	0.003021435 	0 	0 	0 	-0.0030924061 	7.710837e-09 	0
0.76516517 	0 	0.0030213198 	0 	0 	0 	-0.0030937705 	7.7515957e-09 	0
0.76726727 	0 	0.0030192464 	0 	0 	0 	-0.0030949364 	7.5870852e-09 	0
0.76936937 	0 	0.0030127181 	0 	0 	0 	-0.0030956507 	6.9555427e-09 	0
0.77147147 	0 	0.0030061898 	0 	0 	0 	-0.0030963649 	6.3240002e-09 	0
0.77357357 	0 	0.0029996615 	0 	0 	0 	-0.0030970791 	5.6924578e-09 	0
0.77567568 	0 	0.0029931332 	0 	0 	0 	-0.0030977933 	5.0609153e-09 	0
0.77777778 	0 	0.0029866049 	0 	0 	0 	-0.0030985076 	4.4293728e-09 	0
0.77987988 	0 	0.0029800766 	0 	0 	0 	-0.0030992218 	3.7978304e-09 	0
0.78198198 	0 	0.0029735482 	0 	0 	0 	-0.003099936 	3.1662879e-09 	0
0.78408408 	0 	0.0029670199 	0 	0 	0 	-0.0031006503 	2.5347454e-09 	0
0.78618619 	0 	0.0029604916 	0 	0 	0 	-0.0031013645 	1.903203e-09 	0
0.78828829 	0 	0.0029539633 	0 	0 	0 	-0.0031020787 	1.2716605e-09 	0
0.79039039 	0 	0.0029470267 	0 	0 	0 	-0.0031027009 	7.3347984e-10 	0
0.79249249 	0 	0.0029380556 	0 	0 	0 	-0.0031028642 	6.6049148e-10 	0
0.79459459 	0 	0.0029290845 	0 	0 	0 	-0.0031030275 	5.8750313e-10 	0
0.7966967 	0 	0.0029201135 	0 	0 	0 	-0.0031031908 	5.1451477e-10 	0
0.7987988 	0 	0.0029111424 	0 	0 	0 	-0.0031033541 	4.4152642e-10 	0
0.8009009 	0 	0.0029021713 	0 	0 	0 	-0.0031035174 	3.6853806e-10 	0
0.803003 	0 	0.0028932002 	0 	0 	0 	-0.0031036807 	2.9554971e-10 	0
0.80510511 	0 	0.0028842292 	0 	0 	0 	-0.003103844 	2.2256135e-10 	0
0.80720721 	0 	0.0028752581 	0 	0 	0 	-0.0031040073 	1.49573e-10 	0
0.80930931 	0 	0.002866287 	0 	0 	0 	-0.0031041706 	7.658464e-11 	0
0.81141141 	0 	0.002857316 	0 	0 	0 	-0.0031043339 	3.5962839e-12 	0
0.81351351 	0 	0.0028483449 	0 	0 	0 	-0.0031044972 	-6.9392072e-11 	0
0.81561562 	0 	0.0028388547 	0 	0 	0 	-0.0031044915 	-1.1039082e-10 	0
0.81771772 	0 	0.0028287445 	0 	0 	0 	-0.003104284 	-1.1318239e-10 	0
0.81981982 	0 	0.0028186343 	0 	0 	0 	-0.0031040764 	-1.1597396e-10 	0
0.82192192 	0 	0.0028085241 	0 	0 	0 	-0.0031038689 	-1.1876552e-10 	0
0.82402402 	0 	0.0027984139 	0 	0 	0 	-0.0031036614 	-1.2155709e-10 	0
0.82612613 	0 	0.0027883037 	0 	0 	0 	-0.0031034539 	-1.2434865e-10 	0
0.82822823 	0 	0.0027781935 	0 	0 	0 	-0.0031032464 	-1.2714022e-10 	0
0.83033033 	0 	0.0027680833 	0 	0 	0 	-0.0031030389 	-1.2993179e-10 	0
0.83243243 	0 	0.0027579731 	0 	0 	0 	-0.0031028313 	-1.3272335e-10 	0
0.83453453 	0 	0.0027478629 	0 	0 	0 	-0.0031026238 	-1.3551492e-10 	0
0.83663664 	0 	0.0027377527 	0 	0 	0 	-0.0031024163 	-1.3830649e-10 	0
0.83873874 	0 	0.0027276425 	0 	0 	0 	-0.0031022088 	-1.4109805e-10 	0
0.84084084 	0 	0.0027175249 	0 	0 	0 	-0.003101973 	-1.4428936e-10 	0
0.84294294 	0 	0.0027073544 	0 	0 	0 	-0.0031015356 	-1.5033436e-10 	0
0.84504505 	0 	0.002697184 	0 	0 	0 	-0.0031010982 	-1.5637935e-10 	0
0.84714715 	0 	0.0026870135 	0 	0 	0 	-0.0031006608 	-1.6242434e-10 	0
0.84924925 	0 	0.0026768431 	0 	0 	0 	-0.0031002235 	-1.6846933e-10 	0
0.85135135 	0 	0.0026666726 	0 	0 	0 	-0.0030997861 	-1.7451432e-10 	0
0.85345345 	0 	0.0026565022 	0 	0 	0 	-0.0030993487 	-1.8055932e-10 	0
0.85555556 	0 	0.0026463317 	0 	0 	0 	-0.0030989113 	-1.8660431e-10 	0
0.85765766 	0 	0.0026361613 	0 	0 	0 	-0.0030984739 	-1.926493e-10 	0
0.85975976 	0 	0.0026259908 	0 	0 	0 	-0.0030980365 	-1.9869429e-10 	0
0.86186186 	0 	0.0026158204 	0 	0 	0 	-0.0030975991 	-2.0473929e-10 	0
0.86396396 	0 	0.0026056499 	0 	0 	0 	-0.0030971617 	-2.1078428e-10 	0
0.86606607 	0 	0.0025954795 	0 	0 	0 	-0.0030967243 	-2.1682927e-10 	0
0.86816817 	0 	0.0025853735 	0 	0 	0 	-0.0030962726 	-2.2251314e-10 	0
0.87027027 	0 	0.0025757644 	0 	0 	0 	-0.0030957105 	-2.2541623e-10 	0
0.87237237 	0 	0.0025661552 	0 	0 	0 	-0.0030951484 	-2.2831932e-10 	0
0.87447447 	0 	0.0025565461 	0 	0 	0 	-0.0030945863 	-2.3122242e-10 	0