/*--------------------------------*- C++ -*----------------------------------*\
| =========                 |                                                 |
| \\      /  F ield         | OpenFOAM: The Open Source CFD Toolbox           |
|  \\    /   O peration     | Version:  2206                                  |
|   \\  /    A nd           | Website:  www.openfoam.com                      |
|    \\/     M anipulation  |                                                 |
\*---------------------------------------------------------------------------*/
FoamFile
{
    version     2.0;
    format      ascii;
    arch        "LSB;label=32;scalar=64";
    class       volScalarField;
    location    "1800";
    object      k;
}
// * * * * * * * * * * * * * * * * * * * * * * * * * * * * * * * * * * * * * //

dimensions      [0 2 -2 0 0 0 0];

internalField   nonuniform List<scalar> 
7480
(
0.011444589
0.014108754
0.011690356
0.0076594021
0.004541581
0.0027810969
0.0019369219
0.0015258282
0.0012980347
0.0011497168
0.0010351513
0.00093689832
0.00085129897
0.000777237
0.00071302078
0.00065707687
0.00060821547
0.00056529817
0.0005271202
0.0004929068
0.00046218864
0.00043445731
0.00040924587
0.00038625956
0.00036526505
0.00034600991
0.0003282699
0.00031190242
0.00029679469
0.00028281777
0.00026985935
0.00025784614
0.00024671374
0.00023639025
0.00022681528
0.00021794781
0.00020975048
0.00020218675
0.00019523178
0.0001888731
0.00018310036
0.00017790283
0.00017328046
0.00016923323
0.00016576905
0.00016296335
0.00016076829
0.00015928001
0.00015849018
0.00015837897
0.00015892329
0.00016009411
0.00016182991
0.00016401824
0.00016654895
0.000169346
0.00017224217
0.0001749884
0.00017734965
0.00017913182
0.00018033021
0.00018095101
0.00018104996
0.00018070376
0.00018000923
0.00017905432
0.00017791659
0.00017665817
0.00017532364
0.00017394613
0.00017255083
0.00017115258
0.00016976086
0.0001683857
0.00016702958
0.00016569388
0.00016437912
0.00016303092
0.00016165409
0.0001602649
0.00015886991
0.00015747237
0.00015606689
0.00015465144
0.00015322557
0.00015178898
0.00015034395
0.00014889109
0.00014743372
0.0001459729
0.00014451092
0.00014304875
0.00014158964
0.00014012546
0.00013868057
0.00013716605
0.00013584451
0.00013394312
0.00013287247
0.00012997062
0.0014156756
0.0025663922
0.0028346353
0.0024739854
0.0020070509
0.0015607824
0.0011994407
0.00093122928
0.00073503741
0.00059086514
0.00048466671
0.00040593354
0.00034682965
0.00030171127
0.00026651418
0.00023840291
0.00021547326
0.00019641592
0.00018030184
0.00016650032
0.00015458597
0.00014423633
0.00013519726
0.00012727803
0.0001201974
0.00011381545
0.00010804641
0.00010283956
9.8161527e-05
9.3983176e-05
9.02816e-05
8.7042881e-05
8.4256985e-05
8.1914749e-05
8.0010937e-05
7.854571e-05
7.752336e-05
7.6955489e-05
7.6865281e-05
7.728847e-05
7.8271764e-05
7.9873171e-05
8.2164883e-05
8.5232014e-05
8.9181172e-05
9.4120471e-05
0.000100133
0.00010728535
0.00011559565
0.00012505549
0.00013563256
0.00014733123
0.00015988919
0.00017300961
0.00018640425
0.00019964228
0.0002120847
0.00022314807
0.00023247379
0.000240008
0.00024589966
0.00025040816
0.00025379715
0.0002561605
0.00025771859
0.00025867044
0.00025917369
0.00025934492
0.00025926938
0.00025900913
0.00025860723
0.00025809022
0.00025748193
0.00025680075
0.00025605358
0.00025524147
0.00025434475
0.00025315767
0.00025176742
0.00025024432
0.00024861107
0.00024687415
0.0002450356
0.00024310252
0.00024108157
0.00023898282
0.00023681628
0.00023459202
0.00023232105
0.00023001239
0.00022767506
0.00022531705
0.0002229462
0.00022056719
0.00021818395
0.00021579472
0.00021343732
0.00021076515
0.00020884993
0.00020445352
0.00020999544
0.00055716684
0.00084131981
0.00095098803
0.00092892909
0.00084354102
0.00075616012
0.00069795445
0.00065923913
0.00062427541
0.00059306684
0.00056401726
0.00053574081
0.0005088227
0.00048352508
0.00045987205
0.00043792404
0.00041769895
0.0003992007
0.00038243813
0.00036740021
0.00035404457
0.0003423238
0.00033217096
0.00032243535
0.00031324548
0.00030471547
0.00029697439
0.0002901494
0.00028435897
0.00027972166
0.0002763549
0.00027436798
0.00027386645
0.00027496071
0.0002777663
0.00028241053
0.00028906131
0.00029794422
0.00030934525
0.00032360948
0.00034114668
0.00036243876
0.00038803844
0.00041861516
0.00045475141
0.00049693475
0.00054540956
0.00060017633
0.00066107245
0.00072756218
0.00079921933
0.00087483492
0.00095268431
0.0010310864
0.0011074948
0.00117844
0.00124099
0.0012935905
0.0013362629
0.0013699911
0.0013963349
0.0014161101
0.0014304237
0.0014405591
0.0014475592
0.0014522262
0.0014551445
0.0014567396
0.00145732
0.0014570961
0.0014561975
0.0014547483
0.0014528403
0.0014505075
0.0014477508
0.001444454
0.0014394328
0.0014332568
0.0014263098
0.0014187042
0.0014104707
0.0014016268
0.0013922152
0.0013822757
0.001371866
0.0013610416
0.0013498599
0.0013383806
0.0013266551
0.0013147327
0.0013026597
0.001290478
0.0012782252
0.001265895
0.0012535848
0.0012411924
0.0012276458
0.0012174073
0.0011948726
3.6610932e-05
0.00011640467
0.00022886865
0.0003288774
0.00038966805
0.0004111203
0.00040815762
0.00039501293
0.00038060586
0.00036974338
0.00036651619
0.00037464813
0.00038614014
0.00039595765
0.00040414069
0.000410427
0.00041542398
0.00041963164
0.00042336874
0.00042689545
0.00043042822
0.00043415495
0.00043823126
0.00044276438
0.00044759304
0.00045253219
0.00045762944
0.0004630981
0.00046921538
0.00047628235
0.00048461729
0.00049455231
0.00050642769
0.00052059392
0.00053741584
0.00055727032
0.0005805738
0.00060785735
0.00063978019
0.00067711897
0.00072075898
0.00077169752
0.0008310491
0.00090004003
0.00098007064
0.0010721282
0.001176729
0.0012938679
0.001423037
0.0015633342
0.001713315
0.0018699156
0.0020312708
0.0021938192
0.0023542527
0.0025072068
0.0026462514
0.002766976
0.0028679177
0.0029500943
0.0030160042
0.0030681032
0.0031079956
0.0031384433
0.0031617233
0.0031796025
0.0031934112
0.0032041088
0.0032123863
0.0032187409
0.0032235051
0.0032268823
0.0032290887
0.0032302746
0.0032304881
0.0032297139
0.0032277582
0.0032222826
0.003214618
0.0032054257
0.0031948676
0.003182997
0.0031698588
0.0031555385
0.0031401202
0.0031237152
0.0031064293
0.0030883706
0.0030696492
0.0030503629
0.0030306004
0.0030104524
0.0029899944
0.0029693081
0.002948358
0.0029274249
0.002905983
0.0028832343
0.0028646552
0.0028272343
1.2523424e-05
2.7571588e-05
5.8621804e-05
9.946663e-05
0.00013896868
0.00016941494
0.0001891971
0.00020025376
0.00020547452
0.00020734019
0.0002080191
0.00020958026
0.00021294073
0.00021860292
0.00022749957
0.00024061236
0.00025526025
0.0002704305
0.00028570083
0.00030133539
0.00031748292
0.00033432696
0.00035194081
0.00037025586
0.00038899506
0.000407853
0.00042730956
0.00044781372
0.00046969127
0.00049322049
0.00051868139
0.00054638576
0.00057669126
0.00061000301
0.00064676674
0.00068746432
0.00073269592
0.00078332161
0.00084037667
0.00090500213
0.00097844107
0.0010620451
0.0011572772
0.0012657082
0.0013890707
0.0015277847
0.0016814668
0.001849443
0.0020307501
0.0022240143
0.0024272256
0.0026371649
0.002849136
0.0030591411
0.0032640687
0.0034559516
0.0036270571
0.0037740622
0.003897201
0.0039986912
0.0040811763
0.0041474927
0.0042006025
0.0042432848
0.0042778992
0.0043063003
0.004329893
0.0043497033
0.0043664745
0.0043807428
0.0043928615
0.0044030502
0.004411574
0.004418593
0.0044241447
0.0044281869
0.0044305367
0.0044302235
0.0044274399
0.0044224808
0.0044155068
0.004406611
0.0043958835
0.0043834538
0.0043694571
0.0043540514
0.0043373866
0.0043196108
0.0043008716
0.0042813022
0.0042610182
0.0042401434
0.004218774
0.0041970221
0.0041748445
0.0041526264
0.0041295672
0.0041056609
0.0040847797
0.0040463426
9.3804337e-06
1.1752025e-05
1.850459e-05
3.034404e-05
4.5488017e-05
6.1116422e-05
7.5203964e-05
8.6931719e-05
9.6284351e-05
0.00010357801
0.00010921024
0.00011368878
0.00011750712
0.00012111582
0.00012502183
0.00012979954
0.00013572532
0.00014307477
0.00015227345
0.00016376996
0.00017688721
0.00019190633
0.00020810818
0.00022551412
0.00024420582
0.00026424077
0.00028584709
0.00030932731
0.00033501684
0.00036329459
0.00039457957
0.00042933031
0.00046804824
0.00051127008
0.00055958035
0.0006136949
0.0006746111
0.00074335345
0.00082093907
0.0009084606
0.0010071266
0.001118267
0.0012433237
0.0013838698
0.0015415772
0.0017146624
0.0019011739
0.0021003139
0.0023114148
0.0025332858
0.0027638804
0.0029998866
0.0032365022
0.0034694652
0.0036955564
0.0039037754
0.0040872677
0.0042457787
0.0043809132
0.0044951948
0.0045916414
0.0046729535
0.0047415595
0.0047997428
0.0048495427
0.0048925997
0.0049302037
0.0049633455
0.0049927622
0.005018996
0.0050424012
0.0050632041
0.005081737
0.0050981575
0.0051124851
0.0051246556
0.0051345257
0.0051414411
0.0051453619
0.0051464738
0.0051449536
0.0051409428
0.0051345832
0.0051260514
0.0051155338
0.0051032332
0.0050893399
0.0050740375
0.0050575067
0.0050399122
0.0050213904
0.0050020937
0.0049821354
0.0049616492
0.0049405975
0.0049194167
0.0048971783
0.004874462
0.0048537491
0.0048171018
8.9897992e-06
9.2309067e-06
1.0391769e-05
1.3066149e-05
1.7352004e-05
2.2791235e-05
2.8760998e-05
3.4793914e-05
4.0620026e-05
4.6097925e-05
5.1144652e-05
5.5728963e-05
5.9869584e-05
6.3622308e-05
6.7091095e-05
7.0432721e-05
7.3812995e-05
7.740643e-05
8.1425327e-05
8.6126332e-05
9.1696174e-05
9.841085e-05
0.00010651036
0.00011620207
0.00012735789
0.00014018451
0.00015492994
0.00017144404
0.00018975392
0.0002102271
0.00023330203
0.00025949898
0.00028942894
0.00032377533
0.00036330465
0.0004089276
0.00046182296
0.00052346211
0.00059538814
0.00067925333
0.0007768052
0.00088986798
0.0010203265
0.0011701822
0.001341544
0.0015226747
0.0017159456
0.0019248766
0.0021499196
0.002389524
0.0026405754
0.0028983628
0.0031567703
0.0034117917
0.0036609452
0.0038825119
0.0040753598
0.0042464319
0.0043982501
0.004532854
0.0046522953
0.0047580998
0.0048516398
0.0049345174
0.0050082994
0.0050742679
0.0051335663
0.0051871685
0.0052358267
0.0052801274
0.0053205223
0.0053573391
0.0053908746
0.0054213085
0.0054486729
0.0054729206
0.0054939676
0.0055114004
0.0055251065
0.0055352134
0.0055419238
0.0055454398
0.0055459689
0.0055437465
0.0055390196
0.0055320438
0.0055230567
0.0055122841
0.005499948
0.00548625
0.005471368
0.0054554731
0.005438697
0.0054211962
0.0054029542
0.005384422
0.0053646767
0.0053445768
0.0053257888
0.0052922743
8.9407726e-06
8.861814e-06
8.9452679e-06
9.3733066e-06
1.0288128e-05
1.170513e-05
1.3541229e-05
1.5693073e-05
1.807697e-05
2.0627014e-05
2.3281535e-05
2.598194e-05
2.8678068e-05
3.1329306e-05
3.3911273e-05
3.6421931e-05
3.8878615e-05
4.1314142e-05
4.3781018e-05
4.6355083e-05
4.9123614e-05
5.2195846e-05
5.56998e-05
5.9781311e-05
6.4572653e-05
7.0251866e-05
7.7059285e-05
8.5140738e-05
9.4561659e-05
0.00010556159
0.00011844887
0.00013360114
0.00015136743
0.00017186642
0.00019573142
0.00022373314
0.00025684575
0.0002963148
0.00034367554
0.00040075938
0.00046973206
0.00055310559
0.00065369659
0.00077454827
0.00091877877
0.0010825491
0.0012631395
0.0014616136
0.0016783388
0.0019124348
0.0021612682
0.0024201538
0.0026829138
0.0029480163
0.0032140285
0.003458136
0.0036785821
0.0038797474
0.0040625072
0.0042296675
0.004383052
0.0045231314
0.0046505616
0.0047666409
0.0048724885
0.0049689653
0.0050571275
0.0051379377
0.0052121279
0.0052803535
0.0053431839
0.0054010433
0.0054542706
0.0055030947
0.0055475695
0.0055876918
0.005623454
0.0056546637
0.0056812419
0.0057032956
0.0057210473
0.0057347525
0.0057446865
0.0057511486
0.005754452
0.0057549107
0.0057528152
0.0057484414
0.0057420612
0.0057339212
0.0057242388
0.0057132183
0.0057010193
0.0056878263
0.0056736565
0.0056589561
0.0056428959
0.0056263986
0.0056107596
0.0055810128
8.932776e-06
8.8091224e-06
8.7105353e-06
8.6773385e-06
8.7583294e-06
8.9871872e-06
9.3743903e-06
9.9172709e-06
1.0610852e-05
1.1450039e-05
1.2426769e-05
1.3527862e-05
1.4736633e-05
1.6033592e-05
1.7398995e-05
1.8816053e-05
2.0272619e-05
2.1761199e-05
2.3281042e-05
2.4840423e-05
2.6456187e-05
2.8154659e-05
2.997324e-05
3.1961558e-05
3.4178229e-05
3.6695964e-05
3.9609335e-05
4.30227e-05
4.7045257e-05
5.1821523e-05
5.7545775e-05
6.4407825e-05
7.2623053e-05
8.2434727e-05
9.4188727e-05
0.00010832861
0.00012543246
0.00014625192
0.00017148021
0.0002021703
0.00023988998
0.00028664607
0.00034498414
0.00041808562
0.00050986238
0.00062312984
0.00075703033
0.00091182976
0.0010885591
0.0012875628
0.0015078753
0.0017466296
0.0019991059
0.0022629245
0.0025354085
0.0028004954
0.003043516
0.0032702266
0.0034830024
0.0036834162
0.0038725466
0.0040491124
0.0042132187
0.0043662332
0.0045085387
0.0046403294
0.0047625834
0.004876061
0.0049812576
0.0050788597
0.0051694888
0.0052535904
0.0053315173
0.005403542
0.0054696943
0.0055300175
0.005584594
0.0056334137
0.0056764864
0.0057139425
0.0057460253
0.0057730317
0.0057952991
0.0058131911
0.005827089
0.0058373708
0.0058443861
0.0058484697
0.0058499548
0.0058491426
0.0058463013
0.0058416788
0.0058354729
0.0058279044
0.0058190369
0.0058093058
0.0057980276
0.0057860754
0.0057746403
0.0057492191
8.9300797e-06
8.799905e-06
8.6731635e-06
8.5570402e-06
8.4631914e-06
8.4038485e-06
8.3885126e-06
8.4241315e-06
8.5168283e-06
8.672564e-06
8.8965175e-06
9.1920251e-06
9.5605045e-06
1.0001192e-05
1.0511554e-05
1.1087921e-05
1.1725894e-05
1.2420805e-05
1.316862e-05
1.3966896e-05
1.4815344e-05
1.5716364e-05
1.6676228e-05
1.7706196e-05
1.8822619e-05
2.0047778e-05
2.141199e-05
2.2953723e-05
2.471941e-05
2.6767179e-05
2.9172505e-05
3.2027e-05
3.5443025e-05
3.9559358e-05
4.4558079e-05
5.0633556e-05
5.8060597e-05
6.7207296e-05
7.850346e-05
9.2512003e-05
0.00011001881
0.00013208993
0.00016015913
0.00019614053
0.00024247365
0.00030212092
0.00037783496
0.00047159242
0.00058582376
0.00072279742
0.00088420348
0.00107056
0.0012806515
0.0015124217
0.001763221
0.0020238723
0.00228152
0.0025301339
0.0027635483
0.0029862604
0.0032002786
0.0034055689
0.0036019188
0.0037895928
0.0039676685
0.0041350385
0.0042929056
0.0044414717
0.0045807202
0.0047113384
0.0048337724
0.0049483417
0.0050553397
0.0051550667
0.0052473567
0.0053322614
0.005409952
0.0054805209
0.0055440553
0.0056007362
0.0056508264
0.0056946461
0.0057325825
0.0057650517
0.0057924937
0.0058153538
0.0058340416
0.005848957
0.0058605013
0.0058690401
0.0058749038
0.0058783962
0.0058797651
0.0058792783
0.0058770576
0.0058735328
0.0058681934
0.0058618187
0.0058556409
0.0058352287
8.928487e-06
8.7968336e-06
8.6655996e-06
8.5357792e-06
8.4095869e-06
8.290044e-06
8.1803885e-06
8.0838616e-06
8.0038777e-06
7.9441326e-06
7.9084762e-06
7.9006619e-06
7.9241694e-06
7.981997e-06
8.0765906e-06
8.2098351e-06
8.383e-06
8.5967725e-06
8.8514249e-06
9.1470536e-06
9.4838055e-06
9.8621485e-06
1.0283184e-05
1.0749106e-05
1.1263608e-05
1.1832343e-05
1.2463605e-05
1.3169002e-05
1.3963931e-05
1.4868504e-05
1.5909145e-05
1.7119604e-05
1.854277e-05
2.0233045e-05
2.2260828e-05
2.471297e-05
2.7703218e-05
3.1384461e-05
3.5954268e-05
4.1649419e-05
4.8807075e-05
5.7889397e-05
6.9533586e-05
8.462053e-05
0.00010435015
0.00013034885
0.00016465238
0.00020947592
0.00026742981
0.00034146682
0.00043474407
0.00055031263
0.00069061611
0.00085719391
0.0010505585
0.0012680155
0.0015024055
0.0017454579
0.0019878279
0.0022268031
0.0024573281
0.0026782351
0.0028930294
0.0031022976
0.0033055329
0.0035017842
0.0036910028
0.0038722555
0.0040443579
0.0042081373
0.0043635101
0.0045105775
0.0046493562
0.0047797067
0.004901346
0.0050143476
0.0051188762
0.0052149933
0.0053028028
0.005382507
0.0054543514
0.0055186451
0.0055757951
0.0056262356
0.0056704351
0.0057088999
0.0057420988
0.0057704927
0.0057945498
0.0058147024
0.0058313526
0.0058448698
0.0058555684
0.0058637727
0.0058696749
0.0058737111
0.0058755581
0.0058758968
0.0058760807
0.0058615119
8.9274865e-06
8.7951523e-06
8.6628685e-06
8.5306796e-06
8.3989196e-06
8.2681649e-06
8.1392109e-06
8.0130481e-06
7.8908686e-06
7.7740748e-06
7.6642601e-06
7.5631726e-06
7.4726805e-06
7.3947158e-06
7.3312191e-06
7.2841052e-06
7.255218e-06
7.2462753e-06
7.2588503e-06
7.2943858e-06
7.3542169e-06
7.4396175e-06
7.5518421e-06
7.6922475e-06
7.8624367e-06
8.0644197e-06
8.3009064e-06
8.575636e-06
8.8936146e-06
9.26142e-06
9.6877236e-06
1.0183949e-05
1.0765017e-05
1.1450223e-05
1.2264696e-05
1.3240751e-05
1.4420278e-05
1.5858737e-05
1.7629324e-05
1.9826372e-05
2.2577354e-05
2.6058054e-05
3.0511132e-05
3.6268618e-05
4.3805844e-05
5.3795351e-05
6.7164526e-05
8.5120543e-05
0.00010923184
0.00014150525
0.00018444562
0.00024105745
0.00031472987
0.00040901707
0.00052735293
0.00067213568
0.00084330326
0.001037992
0.0012502186
0.0014742893
0.0017031149
0.0019314409
0.0021582684
0.0023798462
0.002594186
0.0028046871
0.0030114634
0.0032141312
0.0034114061
0.0036029773
0.0037876644
0.0039647495
0.0041341921
0.0042951761
0.0044471248
0.0045900406
0.0047238554
0.0048484054
0.0049636863
0.0050698104
0.0051669213
0.0052552517
0.0053351683
0.0054070627
0.0054713886
0.0055286867
0.0055794568
0.0056242064
0.0056634648
0.0056977255
0.0057274664
0.0057531291
0.0057751047
0.005793786
0.0058094481
0.0058225485
0.0058329583
0.0058412747
0.0058490211
0.0058413001
8.9269361e-06
8.7942222e-06
8.6615353e-06
8.5288187e-06
8.3960991e-06
8.263451e-06
8.1310328e-06
7.9991055e-06
7.8680305e-06
7.7382603e-06
7.6103317e-06
7.4848669e-06
7.3625795e-06
7.2442742e-06
7.1308401e-06
7.0232445e-06
6.922523e-06
6.8297619e-06
6.7460817e-06
6.672627e-06
6.610555e-06
6.561025e-06
6.5252033e-06
6.5042765e-06
6.4994696e-06
6.5120767e-06
6.5435418e-06
6.5955707e-06
6.6702177e-06
6.769967e-06
6.8979519e-06
7.0581966e-06
7.2558678e-06
7.4977095e-06
7.7925701e-06
8.1518031e-06
8.5901143e-06
9.1268286e-06
9.7874878e-06
1.0605592e-05
1.1625833e-05
1.290916e-05
1.4539411e-05
1.6632699e-05
1.9353987e-05
2.2941054e-05
2.773345e-05
3.4203871e-05
4.3015754e-05
5.5087942e-05
7.168011e-05
9.4490543e-05
0.0001257499
0.00016828006
0.00022549443
0.00030118374
0.0003988928
0.00052108821
0.000668139
0.00083848686
0.0010282462
0.0012322546
0.001446279
0.0016648527
0.0018834925
0.0021019234
0.0023175461
0.002527916
0.0027358716
0.0029414202
0.003144233
0.0033425266
0.0035358178
0.0037231562
0.0039026704
0.0040742157
0.0042372751
0.0043911716
0.0045355653
0.0046703088
0.0047953134
0.004910594
0.0050163786
0.0051129253
0.0052006029
0.0052799353
0.0053513907
0.0054154899
0.0054728013
0.005523857
0.0055692039
0.0056093513
0.0056447684
0.0056759245
0.0057031843
0.0057270402
0.0057475596
0.0057652784
0.0057819289
0.0057822569
8.9266274e-06
8.7936823e-06
8.6607959e-06
8.5279263e-06
8.395064e-06
8.2622017e-06
8.1293642e-06
7.9966276e-06
7.8641153e-06
7.731987e-06
7.6004292e-06
7.4696551e-06
7.3399122e-06
7.2114888e-06
7.0847186e-06
6.9599839e-06
6.8377191e-06
6.7184106e-06
6.6025952e-06
6.4908599e-06
6.3838383e-06
6.2822068e-06
6.1866821e-06
6.0980217e-06
6.0170229e-06
5.944524e-06
5.8814194e-06
5.8286808e-06
5.7873809e-06
5.7587247e-06
5.7441116e-06
5.745209e-06
5.764031e-06
5.8030914e-06
5.8655995e-06
5.9556008e-06
6.0782455e-06
6.2402047e-06
6.4502406e-06
6.7199504e-06
7.0646324e-06
7.5047083e-06
8.0679551e-06
8.7925744e-06
9.7321364e-06
1.0963555e-05
1.2597967e-05
1.4795227e-05
1.7786771e-05
2.1907991e-05
2.7643018e-05
3.5686517e-05
4.7035048e-05
6.3091876e-05
8.5788041e-05
0.00011768026
0.00016193143
0.00022207242
0.00030147185
0.00040277759
0.00052720675
0.00067417013
0.00084174951
0.0010263835
0.0012235348
0.0014298403
0.0016410986
0.0018530414
0.0020657425
0.0022772575
0.0024852377
0.0026912797
0.0028956026
0.0030978904
0.0032963393
0.0034900063
0.0036779963
0.0038583561
0.0040302686
0.0041932878
0.0043468165
0.0044903631
0.0046239155
0.0047474376
0.0048610711
0.0049652417
0.005060265
0.0051466093
0.0052248329
0.0052954548
0.0053590659
0.0054162167
0.0054674413
0.0055132826
0.0055541909
0.0055907015
0.0056230741
0.0056518025
0.0056788724
0.005688666
8.9264488e-06
8.7933169e-06
8.6602725e-06
8.5273035e-06
8.3944088e-06
8.2615774e-06
8.128813e-06
7.9961493e-06
7.8636479e-06
7.7313886e-06
7.5994592e-06
7.4679533e-06
7.3369725e-06
7.2066309e-06
7.077058e-06
6.948402e-06
6.8208326e-06
6.6945444e-06
6.5697583e-06
6.4467246e-06
6.3257243e-06
6.2070703e-06
6.0911085e-06
5.9782193e-06
5.8688177e-06
5.7633544e-06
5.6623179e-06
5.5662396e-06
5.4756981e-06
5.3913269e-06
5.3138304e-06
5.244005e-06
5.1827597e-06
5.1311567e-06
5.0904713e-06
5.0622574e-06
5.0484278e-06
5.051376e-06
5.0741598e-06
5.1207789e-06
5.1964186e-06
5.3078597e-06
5.4641785e-06
5.6777081e-06
5.9656226e-06
6.3520422e-06
6.8714171e-06
7.5736152e-06
8.5315737e-06
9.8529028e-06
1.169738e-05
1.4302633e-05
1.8024474e-05
2.3395485e-05
3.1206401e-05
4.2609999e-05
5.9244917e-05
8.33136e-05
0.00011756101
0.00016511239
0.00022912928
0.00031232522
0.00041658785
0.00054249484
0.0006890618
0.00085434998
0.0010352712
0.001227726
0.0014289024
0.0016353566
0.0018430639
0.0020520422
0.0022604098
0.0024657171
0.0026701145
0.002873577
0.0030752196
0.0032731425
0.0034662116
0.0036533668
0.0038326751
0.0040029418
0.0041639832
0.0043150832
0.0044559352
0.004586788
0.0047075596
0.0048185697
0.0049202824
0.0050131007
0.0050976104
0.0051743422
0.00524386
0.0053067592
0.0053635522
0.0054148148
0.0054609843
0.0055025227
0.0055417251
0.005562634
8.9263797e-06
8.7930825e-06
8.6598839e-06
8.5267987e-06
8.3938409e-06
8.2610104e-06
8.128313e-06
7.9957748e-06
7.8634406e-06
7.7313677e-06
7.5996176e-06
7.4682525e-06
7.3373352e-06
7.2069312e-06
7.0771096e-06
6.9479447e-06
6.8195171e-06
6.6919156e-06
6.5652384e-06
6.4395948e-06
6.3151069e-06
6.1919112e-06
6.0701603e-06
5.9500244e-06
5.8316932e-06
5.7153775e-06
5.6013102e-06
5.4897493e-06
5.3809795e-06
5.2753145e-06
5.173102e-06
5.074729e-06
4.9806284e-06
4.8912892e-06
4.8072725e-06
4.7292328e-06
4.6579428e-06
4.5943286e-06
4.5395242e-06
4.4949489e-06
4.4623988e-06
4.4441709e-06
4.4432676e-06
4.4636735e-06
4.5108304e-06
4.5922233e-06
4.7183418e-06
4.9042252e-06
5.1719188e-06
5.5540371e-06
6.0990768e-06
6.8802693e-06
8.0094385e-06
9.6588704e-06
1.2095247e-05
1.5730301e-05
2.1194956e-05
2.9431985e-05
4.1791334e-05
6.0096924e-05
8.6666359e-05
0.00012421213
0.00017564224
0.0002437281
0.00033068403
0.00043790881
0.00056565983
0.00071277633
0.00087735661
0.0010566232
0.0012467693
0.0014452673
0.0016487795
0.0018535458
0.0020599883
0.0022658084
0.002469396
0.0026722676
0.0028748697
0.0030753039
0.0032717057
0.0034628944
0.0036477993
0.0038240879
0.0039909879
0.004148558
0.0042957859
0.0044328002
0.0045598212
0.0046769361
0.0047846533
0.0048833653
0.0049736033
0.0050559649
0.0051309721
0.0051992229
0.0052612978
0.0053176228
0.0053708739
0.005404789
8.9264157e-06
8.7929787e-06
8.6596375e-06
8.526427e-06
8.393375e-06
8.2604934e-06
8.1277952e-06
7.9953068e-06
7.8630684e-06
7.7311297e-06
7.5995443e-06
7.4683663e-06
7.3376491e-06
7.2074467e-06
7.0778133e-06
6.9488039e-06
6.8204748e-06
6.6928839e-06
6.5660911e-06
6.4401594e-06
6.315155e-06
6.1911486e-06
6.0682162e-06
5.9464399e-06
5.8259094e-06
5.7067228e-06
5.588988e-06
5.4728241e-06
5.358363e-06
5.2457503e-06
5.1351479e-06
5.0267357e-06
4.9207146e-06
4.8173093e-06
4.7167729e-06
4.6193936e-06
4.525502e-06
4.4354812e-06
4.3497825e-06
4.2689468e-06
4.1936328e-06
4.1246538e-06
4.0630364e-06
4.0101018e-06
3.9675848e-06
3.9378209e-06
3.9240208e-06
3.9306886e-06
3.9643424e-06
4.0345525e-06
4.1554571e-06
4.3484343e-06
4.6464375e-06
5.1008129e-06
5.7921164e-06
6.8483308e-06
8.4733178e-06
1.0989937e-05
1.4898737e-05
2.0951009e-05
3.0232933e-05
4.4241255e-05
6.4909214e-05
9.458357e-05
0.00013589599
0.00019155689
0.00026405718
0.00035527947
0.00046629802
0.00059714014
0.00074648136
0.00091238125
0.0010920376
0.0012817549
0.0014793325
0.0016810372
0.0018841568
0.0020890173
0.0022926542
0.0024947066
0.0026960828
0.0028973078
0.0030956585
0.0032894833
0.0034775511
0.0036589211
0.0038306603
0.0039930336
0.0041456903
0.0042880398
0.004420462
0.004542975
0.0046559897
0.0047600083
0.0048554656
0.0049429439
0.0050230998
0.0050963016
0.0051656829
0.0052147194
8.9265483e-06
8.7929992e-06
8.6595358e-06
8.5262072e-06
8.3930518e-06
8.260092e-06
8.1273482e-06
7.9948493e-06
7.8626342e-06
7.7307493e-06
7.5992451e-06
7.4681729e-06
7.3375839e-06
7.2075297e-06
7.0780614e-06
6.9492303e-06
6.8210872e-06
6.6936828e-06
6.5670678e-06
6.4412926e-06
6.3164078e-06
6.1924645e-06
6.0695141e-06
5.9476094e-06
5.8268043e-06
5.707155e-06
5.5887201e-06
5.4715617e-06
5.355746e-06
5.2413442e-06
5.1284333e-06
5.0170976e-06
4.9074297e-06
4.7995317e-06
4.6935172e-06
4.5895136e-06
4.4876643e-06
4.3881322e-06
4.2911041e-06
4.1967968e-06
4.1054654e-06
4.0174139e-06
3.9330116e-06
3.8527164e-06
3.7771064e-06
3.7069318e-06
3.6431935e-06
3.5872574e-06
3.5410438e-06
3.5073208e-06
3.4901489e-06
3.4956075e-06
3.5330375e-06
3.6170095e-06
3.7704494e-06
4.0301902e-06
4.4563307e-06
5.1463428e-06
6.2577971e-06
8.0415134e-06
1.088895e-05
1.5394001e-05
2.2423525e-05
3.3190589e-05
4.9313225e-05
7.2817433e-05
0.00010608049
0.00015169427
0.00021224349
0.00029002828
0.0003866704
0.0005029528
0.00063857852
0.00079193226
0.00096097303
0.0011425777
0.0013333669
0.0015313694
0.0017319851
0.001934098
0.0021374504
0.002338984
0.0025391339
0.0027392814
0.0029381894
0.0031334843
0.0033237043
0.0035076923
0.0036837579
0.0038501353
0.0040071999
0.0041541094
0.0042910825
0.0044183428
0.0045360758
0.0046447843
0.0047450754
0.0048372254
0.0049248675
0.0049913057
8.9267656e-06
8.79313e-06
8.6595674e-06
8.526136e-06
8.3928826e-06
8.2598379e-06
8.127029e-06
7.9944879e-06
7.8622536e-06
7.7303709e-06
7.5988883e-06
7.4678556e-06
7.3373233e-06
7.2073422e-06
7.0779631e-06
6.9492366e-06
6.8212129e-06
6.6939416e-06
6.5674717e-06
6.4418514e-06
6.3171278e-06
6.1933476e-06
6.0705562e-06
5.9487983e-06
5.8281179e-06
5.7085584e-06
5.5901628e-06
5.472974e-06
5.3570352e-06
5.2423899e-06
5.1290829e-06
5.0171602e-06
4.9066703e-06
4.797664e-06
4.690196e-06
4.5843253e-06
4.4801163e-06
4.3776402e-06
4.2769764e-06
4.1782143e-06
4.0814563e-06
3.9868204e-06
3.8944451e-06
3.804496e-06
3.7171743e-06
3.6327312e-06
3.5514887e-06
3.473872e-06
3.4004586e-06
3.3320576e-06
3.2698325e-06
3.2154968e-06
3.1716417e-06
3.1422772e-06
3.133717e-06
3.1561024e-06
3.226129e-06
3.3712018e-06
3.6365742e-06
4.0968619e-06
4.8734302e-06
6.1605596e-06
8.2628809e-06
1.1646248e-05
1.7001935e-05
2.5316503e-05
3.7938073e-05
5.6625032e-05
8.3516549e-05
0.00012106805
0.00017188091
0.0002384598
0.00032291771
0.00042656704
0.00054983574
0.00069192926
0.00085090851
0.0010245954
0.0012092598
0.0014020198
0.0016006905
0.0018004848
0.0020016469
0.0022026248
0.0024022268
0.0026001725
0.0027987316
0.0029945784
0.0031860739
0.0033718279
0.0035508757
0.0037205534
0.0038810002
0.004031847
0.0041727592
0.0043040745
0.0044261201
0.0045390379
0.0046468941
0.0047330553
8.927055e-06
8.7933549e-06
8.6597142e-06
8.5261973e-06
8.3928571e-06
8.2597312e-06
8.1268525e-06
7.9942563e-06
7.8619824e-06
7.7300748e-06
7.5985807e-06
7.4675491e-06
7.3370297e-06
7.2070729e-06
7.0777292e-06
6.9490493e-06
6.8210833e-06
6.6938809e-06
6.567491e-06
6.4419617e-06
6.3173399e-06
6.1936716e-06
6.0710013e-06
5.9493723e-06
5.8288265e-06
5.7094046e-06
5.5911455e-06
5.4740873e-06
5.3582664e-06
5.2437183e-06
5.1304774e-06
5.0185774e-06
4.9080511e-06
4.7989313e-06
4.6912507e-06
4.5850423e-06
4.48034e-06
4.377179e-06
4.2755964e-06
4.1756321e-06
4.0773294e-06
3.9807362e-06
3.8859065e-06
3.792902e-06
3.7017951e-06
3.6126721e-06
3.5256398e-06
3.4408333e-06
3.3584299e-06
3.2786698e-06
3.2018886e-06
3.1285695e-06
3.0594282e-06
2.995555e-06
2.9386515e-06
2.8914341e-06
2.8583507e-06
2.8467614e-06
2.8689541e-06
2.9455741e-06
3.1110664e-06
3.4223823e-06
3.972978e-06
4.912879e-06
6.4790273e-06
9.0374887e-06
1.3139959e-05
1.9592999e-05
2.9527012e-05
4.4460397e-05
6.6334017e-05
9.744083e-05
0.0001403557
0.00019770029
0.00027188713
0.00036475621
0.00047720808
0.00060921419
0.0007592681
0.00092507566
0.0011041073
0.0012922363
0.0014871826
0.0016853092
0.0018845414
0.0020844938
0.002282924
0.0024800494
0.0026767055
0.0028722551
0.0030642226
0.0032510844
0.003431746
0.0036043691
0.0037676241
0.0039216862
0.0040661519
0.0042010223
0.0043305216
0.0044385289
8.9274049e-06
8.7936581e-06
8.6599574e-06
8.5263712e-06
8.3929566e-06
8.2597573e-06
8.126811e-06
7.9941564e-06
7.8618345e-06
7.7298892e-06
7.598367e-06
7.4673162e-06
7.3367861e-06
7.2068266e-06
7.0774879e-06
6.9488206e-06
6.8208747e-06
6.6936999e-06
6.5673453e-06
6.441859e-06
6.3172882e-06
6.1936788e-06
6.0710756e-06
5.9495219e-06
5.8290594e-06
5.7097285e-06
5.5915677e-06
5.4746141e-06
5.358903e-06
5.244468e-06
5.1313411e-06
5.0195526e-06
4.9091313e-06
4.8001044e-06
4.6924979e-06
4.5863364e-06
4.4816435e-06
4.3784421e-06
4.2767543e-06
4.1766019e-06
4.0780067e-06
3.9809911e-06
3.8855781e-06
3.7917924e-06
3.6996611e-06
3.6092145e-06
3.5204881e-06
3.4335248e-06
3.3483786e-06
3.2651202e-06
3.1838454e-06
3.1046891e-06
3.0278469e-06
2.9536114e-06
2.8824333e-06
2.8150248e-06
2.7525423e-06
2.6968964e-06
2.6512901e-06
2.6211411e-06
2.6156512e-06
2.6503932e-06
2.7516754e-06
2.9631376e-06
3.3564031e-06
4.0478409e-06
5.2222185e-06
7.1689259e-06
1.0331036e-05
1.5370014e-05
2.3241809e-05
3.5264937e-05
5.3181477e-05
7.9155851e-05
0.00011568423
0.00016546542
0.00023110269
0.00031483964
0.00041806537
0.00054109341
0.00068321523
0.00084214238
0.0010153156
0.0011992255
0.0013906318
0.0015872812
0.0017844607
0.0019826439
0.0021799249
0.0023759988
0.0025707893
0.0027655042
0.0029573628
0.0031448911
0.003326712
0.0035015494
0.0036673036
0.0038240533
0.0039756072
0.0041069374
8.9278053e-06
8.7940257e-06
8.6602797e-06
8.5266381e-06
8.3931612e-06
8.2598972e-06
8.1268884e-06
7.9941764e-06
7.861804e-06
7.7298155e-06
7.5982573e-06
7.4671771e-06
7.336624e-06
7.2066474e-06
7.0772974e-06
6.9486241e-06
6.8206776e-06
6.6935074e-06
6.5671626e-06
6.4416913e-06
6.3171408e-06
6.193557e-06
6.0709849e-06
5.9494679e-06
5.8290479e-06
5.7097654e-06
5.5916591e-06
5.4747662e-06
5.3591218e-06
5.2447596e-06
5.1317112e-06
5.0200063e-06
4.9096731e-06
4.8007377e-06
4.6932243e-06
4.5871556e-06
4.4825523e-06
4.3794338e-06
4.2778176e-06
4.1777199e-06
4.0791556e-06
3.9821384e-06
3.8866812e-06
3.7927959e-06
3.7004941e-06
3.6097873e-06
3.5206873e-06
3.4332072e-06
3.3473622e-06
3.2631714e-06
3.1806596e-06
3.0998617e-06
3.0208275e-06