/*--------------------------------*- C++ -*----------------------------------*\
| =========                 |                                                 |
| \\      /  F ield         | OpenFOAM: The Open Source CFD Toolbox           |
|  \\    /   O peration     | Version:  2206                                  |
|   \\  /    A nd           | Website:  www.openfoam.com                      |
|    \\/     M anipulation  |                                                 |
\*---------------------------------------------------------------------------*/
FoamFile
{
    version     2.0;
    format      ascii;
    arch        "LSB;label=32;scalar=64";
    class       volScalarField;
    location    "1800";
    object      nut;
}
// * * * * * * * * * * * * * * * * * * * * * * * * * * * * * * * * * * * * * //

dimensions      [0 2 -1 0 0 0 0];

internalField   nonuniform List<scalar> 
7480
(
1.5120147e-06
1.8586633e-06
1.5440755e-06
1.0160852e-06
6.0453166e-07
3.7090815e-07
2.5856247e-07
2.037772e-07
1.7339846e-07
1.5361048e-07
1.3832117e-07
1.2520577e-07
1.1377713e-07
1.0388715e-07
9.5310628e-08
8.7837939e-08
8.131054e-08
7.5576631e-08
7.0475459e-08
6.590365e-08
6.1798603e-08
5.8092464e-08
5.4722897e-08
5.1650561e-08
4.8844311e-08
4.6270441e-08
4.3899005e-08
4.1710962e-08
3.9691255e-08
3.7822664e-08
3.6090185e-08
3.4484032e-08
3.2995603e-08
3.1615295e-08
3.0335041e-08
2.9149361e-08
2.8053266e-08
2.7041875e-08
2.6111868e-08
2.5261585e-08
2.4489642e-08
2.379461e-08
2.3176484e-08
2.2635263e-08
2.2172008e-08
2.1796806e-08
2.1503263e-08
2.1304236e-08
2.1198612e-08
2.118374e-08
2.1256532e-08
2.1413104e-08
2.1645232e-08
2.1937875e-08
2.2276301e-08
2.2650344e-08
2.3037639e-08
2.3404879e-08
2.3720637e-08
2.3958957e-08
2.4119209e-08
2.4202225e-08
2.4215457e-08
2.4169162e-08
2.4076288e-08
2.3948593e-08
2.3796451e-08
2.3628169e-08
2.3449709e-08
2.3265501e-08
2.3078914e-08
2.2891932e-08
2.2705822e-08
2.2521926e-08
2.2340575e-08
2.2161955e-08
2.1986135e-08
2.1805842e-08
2.162172e-08
2.1435945e-08
2.1249394e-08
2.10625e-08
2.0874544e-08
2.0685255e-08
2.0494571e-08
2.0302453e-08
2.0109206e-08
1.9914911e-08
1.9720012e-08
1.9524652e-08
1.9329135e-08
1.9133593e-08
1.893846e-08
1.8742647e-08
1.8549414e-08
1.8346867e-08
1.817013e-08
1.7915844e-08
1.7772657e-08
1.7384569e-08
1.4110912e-06
1.630069e-06
1.5384747e-06
1.2880174e-06
1.0361603e-06
8.1128369e-07
6.4377165e-07
5.1798131e-07
4.2142222e-07
3.4675282e-07
2.8963797e-07
2.4636445e-07
2.1350264e-07
1.8820932e-07
1.6833175e-07
1.5234562e-07
1.3920949e-07
1.2819093e-07
1.1878714e-07
1.1066465e-07
1.0359627e-07
9.7405849e-08
9.1959493e-08
8.7158767e-08
8.2832744e-08
7.8900988e-08
7.5319783e-08
7.2067237e-08
6.9130006e-08
6.6496225e-08
6.4158298e-08
6.2113803e-08
6.0361546e-08
5.8900412e-08
5.7731924e-08
5.6860817e-08
5.6294068e-08
5.6043782e-08
5.6130352e-08
5.658298e-08
5.7438569e-08
5.8742285e-08
6.0549706e-08
6.292562e-08
6.5951061e-08
6.9707101e-08
7.4256673e-08
7.964968e-08
8.5898566e-08
9.2996184e-08
1.009147e-07
1.0965107e-07
1.1901402e-07
1.2878166e-07
1.3873959e-07
1.4856833e-07
1.5779544e-07
1.6599346e-07
1.7290386e-07
1.7849495e-07
1.8288223e-07
1.8626042e-07
1.888198e-07
1.9063151e-07
1.9185953e-07
1.926484e-07
1.9311207e-07
1.9333409e-07
1.9337545e-07
1.9328049e-07
1.9307984e-07
1.9279221e-07
1.9243474e-07
1.9202065e-07
1.9155463e-07
1.9103748e-07
1.9045398e-07
1.8965124e-07
1.8869497e-07
1.876375e-07
1.8649572e-07
1.852744e-07
1.8397505e-07
1.8260326e-07
1.8116401e-07
1.7966493e-07
1.7811346e-07
1.7651712e-07
1.7488412e-07
1.732211e-07
1.7153485e-07
1.6983127e-07
1.6811621e-07
1.6639333e-07
1.6466501e-07
1.6293209e-07
1.6121858e-07
1.5926776e-07
1.5790111e-07
1.5464872e-07
1.1013756e-06
1.4047569e-06
1.4358177e-06
1.340947e-06
1.2076002e-06
1.0740806e-06
9.6687997e-07
8.8440729e-07
8.2030237e-07
7.680336e-07
7.2386075e-07
6.7961966e-07
6.3731167e-07
6.0218872e-07
5.7246517e-07
5.4693142e-07
5.249035e-07
5.0589086e-07
4.8953534e-07
4.7559921e-07
4.6391883e-07
4.5435654e-07
4.4681444e-07
4.4118814e-07
4.3358793e-07
4.26453e-07
4.199533e-07
4.1429703e-07
4.096897e-07
4.0632916e-07
4.0442681e-07
4.0420263e-07
4.0586955e-07
4.0964142e-07
4.1574736e-07
4.2442833e-07
4.3594602e-07
4.5063506e-07
4.6892833e-07
4.9135987e-07
5.1856317e-07
5.5128385e-07
5.9039404e-07
6.3688683e-07
6.9195808e-07
7.5667304e-07
8.3192967e-07
9.1824861e-07
1.0157061e-06
1.1240726e-06
1.2423541e-06
1.3697443e-06
1.5043262e-06
1.6431434e-06
1.783273e-06
1.9203733e-06
2.0485363e-06
2.1627097e-06
2.2601139e-06
2.3406596e-06
2.40597e-06
2.4587375e-06
2.4999478e-06
2.5316737e-06
2.5561996e-06
2.5753138e-06
2.5903775e-06
2.6023628e-06
2.6119693e-06
2.6196996e-06
2.6258917e-06
2.6307459e-06
2.634461e-06
2.6371852e-06
2.6389639e-06
2.6397961e-06
2.6394589e-06
2.6356686e-06
2.6295308e-06
2.6218001e-06
2.6127077e-06
2.602319e-06
2.5906691e-06
2.5778491e-06
2.5639363e-06
2.5490448e-06
2.5332795e-06
2.5167479e-06
2.4995632e-06
2.4818187e-06
2.4636085e-06
2.4450176e-06
2.4261232e-06
2.4070031e-06
2.3876262e-06
2.3682528e-06
2.3485399e-06
2.3265952e-06
2.3112166e-06
2.2731291e-06
5.084683e-07
9.591414e-07
1.1797784e-06
1.2284424e-06
1.2003908e-06
1.142871e-06
1.080372e-06
1.0213186e-06
9.6984597e-07
9.3003774e-07
9.060777e-07
9.0229267e-07
9.0573196e-07
8.5763698e-07
8.2193885e-07
7.9452877e-07
7.7452827e-07
7.6003551e-07
7.5002565e-07
7.4386238e-07
7.4114372e-07
7.4158435e-07
7.4501592e-07
7.512792e-07
7.5984608e-07
7.7020359e-07
7.8221739e-07
7.961052e-07
8.1225752e-07
8.3115261e-07
8.5333961e-07
8.7943405e-07
9.1010872e-07
9.4609567e-07
9.8819309e-07
1.0372571e-06
1.094257e-06
1.1604656e-06
1.2374738e-06
1.3271789e-06
1.4317803e-06
1.5537994e-06
1.6961078e-06
1.8619268e-06
2.0548774e-06
2.2782845e-06
2.5344516e-06
2.8249946e-06
3.1503981e-06
3.5100465e-06
3.9019871e-06
4.3202994e-06
4.761682e-06
5.2184247e-06
5.6820814e-06
6.1410007e-06
6.5800604e-06
6.9853216e-06
7.3477633e-06
7.6645286e-06
7.9381657e-06
8.1725727e-06
8.3703727e-06
8.5385427e-06
8.6835061e-06
8.8105544e-06
8.9238364e-06
9.0264027e-06
9.1204358e-06
9.2074762e-06
9.288555e-06
9.3642708e-06
9.4351366e-06
9.5015476e-06
9.5636067e-06
9.6212443e-06
9.6739802e-06
9.7001053e-06
9.7152297e-06
9.7240963e-06
9.727423e-06
9.7254722e-06
9.7184089e-06
9.7065603e-06
9.6902284e-06
9.6698178e-06
9.6457053e-06
9.6182705e-06
9.5879063e-06
9.5549445e-06
9.5197059e-06
9.4824989e-06
9.443588e-06
9.4032827e-06
9.3614244e-06
9.3191945e-06
9.2746117e-06
9.2241626e-06
9.1898469e-06
9.0977854e-06
2.2507404e-07
4.2725591e-07
6.9862715e-07
8.9329394e-07
9.8966699e-07
1.0234944e-06
1.025016e-06
1.0107273e-06
9.8909623e-07
9.6532971e-07
9.4374008e-07
9.287304e-07
9.2198051e-07
9.2302756e-07
9.3199275e-07
9.4897784e-07
9.6929255e-07
9.5332332e-07
9.2970517e-07
9.1686225e-07
9.1367987e-07
9.1850995e-07
9.3043391e-07
9.4882508e-07
9.7332442e-07
1.0037642e-06
1.0384808e-06
1.0775339e-06
1.1214657e-06
1.1708088e-06
1.226166e-06
1.2882715e-06
1.3580355e-06
1.4365798e-06
1.5252699e-06
1.6257195e-06
1.7395681e-06
1.8684488e-06
2.0151196e-06
2.1829107e-06
2.3756237e-06
2.5975326e-06
2.8534205e-06
3.1486119e-06
3.4888981e-06
3.879185e-06
4.3214449e-06
4.8169477e-06
5.3663562e-06
5.9694919e-06
6.6246586e-06
7.3268461e-06
8.0667034e-06
8.8345873e-06
9.6198249e-06
1.0408607e-05
1.1177125e-05
1.1902134e-05
1.2568919e-05
1.3171465e-05
1.3708502e-05
1.4182726e-05
1.4600454e-05
1.4970081e-05
1.5300208e-05
1.5598498e-05
1.5871405e-05
1.6124002e-05
1.636008e-05
1.6582404e-05
1.6792802e-05
1.6992238e-05
1.7181879e-05
1.7362488e-05
1.7534231e-05
1.7696909e-05
1.7849654e-05
1.7986656e-05
1.810789e-05
1.8214876e-05
1.830868e-05
1.83899e-05
1.8458885e-05
1.8516212e-05
1.8562519e-05
1.8598613e-05
1.8625319e-05
1.8643454e-05
1.8653881e-05
1.8657362e-05
1.8654558e-05
1.8646195e-05
1.8632918e-05
1.8615381e-05
1.8593619e-05
1.8569245e-05
1.8540732e-05
1.8499723e-05
1.8478841e-05
1.8401801e-05
1.7530494e-07
2.1588381e-07
3.1856282e-07
4.6493636e-07
6.0523322e-07
7.1031552e-07
7.7985336e-07
8.2289769e-07
8.4801025e-07
8.6127218e-07
8.6696947e-07
8.6868554e-07
8.6922279e-07
8.7061263e-07
8.746157e-07
8.8291075e-07
8.9633934e-07
9.1554457e-07
9.4163163e-07
9.7586234e-07
1.0156632e-06
1.0618601e-06
1.0571002e-06
1.0563046e-06
1.0671382e-06
1.0882913e-06
1.1197408e-06
1.1617945e-06
1.214937e-06
1.2798755e-06
1.3575799e-06
1.4493799e-06
1.5572021e-06
1.684074e-06
1.835069e-06
2.0182174e-06
2.2360131e-06
2.4752218e-06
2.7408256e-06
3.0385016e-06
3.3740411e-06
3.7535557e-06
4.1837906e-06
4.6726297e-06
5.2300862e-06
5.8554352e-06
6.5393891e-06
7.2798666e-06
8.0785674e-06
8.9366143e-06
9.8530335e-06
1.0823264e-05
1.1837496e-05
1.288235e-05
1.394657e-05
1.4998028e-05
1.6005882e-05
1.6954863e-05
1.7838483e-05
1.8656155e-05
1.9410041e-05
2.010327e-05
2.0740533e-05
2.1328042e-05
2.1872433e-05
2.2380163e-05
2.2857337e-05
2.330912e-05
2.3739546e-05
2.4151754e-05
2.4546824e-05
2.4924326e-05
2.5289075e-05
2.564178e-05
2.5982237e-05
2.6309747e-05
2.6622617e-05
2.6919029e-05
2.7195771e-05
2.7451449e-05
2.768598e-05
2.7899611e-05
2.8092562e-05
2.8265398e-05
2.8418902e-05
2.8554143e-05
2.8672309e-05
2.8774631e-05
2.8862456e-05
2.8937042e-05
2.8998854e-05
2.9049634e-05
2.9090638e-05
2.9122912e-05
2.9146906e-05
2.916426e-05
2.9175217e-05
2.9164975e-05
2.9175029e-05
2.9133438e-05
1.6890567e-07
1.7480062e-07
1.9622448e-07
2.4158669e-07
3.0835483e-07
3.8392735e-07
4.5671834e-07
5.2095036e-07
5.7520688e-07
6.1995567e-07
6.5624605e-07
6.8541308e-07
7.0892816e-07
7.2824161e-07
7.4480847e-07
7.6010669e-07
7.7547359e-07
7.9214715e-07
8.114604e-07
8.3491425e-07
8.6346628e-07
8.9847607e-07
9.4052943e-07
9.8988736e-07
1.0450547e-06
1.10618e-06
1.174215e-06
1.2083842e-06
1.2333282e-06
1.2729688e-06
1.3285928e-06
1.4020906e-06
1.4959285e-06
1.61312e-06
1.7575975e-06
1.9348575e-06
2.1514566e-06
2.4125284e-06
2.7239008e-06
3.0927728e-06
3.5277574e-06
4.0392721e-06
4.6407296e-06
5.3515501e-06
6.2043889e-06
6.9696312e-06
7.8050957e-06
8.7626918e-06
9.8400638e-06
1.1030942e-05
1.2322492e-05
1.3691351e-05
1.5104205e-05
1.656441e-05
1.8073999e-05
1.9178329e-05
2.0095937e-05
2.1003826e-05
2.1905018e-05
2.2798465e-05
2.3678983e-05
2.4541641e-05
2.5382837e-05
2.6199985e-05
2.6991539e-05
2.7758019e-05
2.8501226e-05
2.9222776e-05
2.992426e-05
3.0607432e-05
3.1273537e-05
3.1922844e-05
3.2555839e-05
3.3172598e-05
3.3772307e-05
3.4353657e-05
3.4914194e-05
3.5452198e-05
3.5964598e-05
3.6448471e-05
3.690216e-05
3.7324981e-05
3.7716686e-05
3.807762e-05
3.8408555e-05
3.8710702e-05
3.898552e-05
3.9234614e-05
3.9459833e-05
3.9662979e-05
3.9845762e-05
4.0009928e-05
4.0157121e-05
4.0288833e-05
4.0406181e-05
4.0510527e-05
4.0604846e-05
4.0668349e-05
4.0745086e-05
4.0789649e-05
1.6818086e-07
1.6866155e-07
1.719574e-07
1.8125925e-07
1.9895243e-07
2.2489797e-07
2.5727871e-07
2.9357674e-07
3.3181397e-07
3.7053234e-07
4.0856882e-07
4.4501103e-07
4.7925621e-07
5.1098568e-07
5.4017733e-07
5.6709299e-07
5.9218939e-07
6.1604897e-07
6.3939741e-07
6.6312401e-07
6.8815568e-07
7.1555384e-07
7.4639753e-07
7.8175549e-07
8.2238802e-07
8.6923775e-07
9.2361457e-07
9.8589285e-07
1.0559076e-06
1.1348512e-06
1.2244284e-06
1.3267836e-06
1.4276521e-06
1.4948872e-06
1.5857089e-06
1.7048105e-06
1.8584667e-06
2.0547395e-06
2.303403e-06
2.6161172e-06
3.0069313e-06
3.4926995e-06
4.0933775e-06
4.8324076e-06
5.7384219e-06
6.7100147e-06
7.7078713e-06
8.8174247e-06
1.0050139e-05
1.1406156e-05
1.2870216e-05
1.4407422e-05
1.5972251e-05
1.7627371e-05
1.93933e-05
2.0670051e-05
2.1768772e-05
2.2850085e-05
2.3924556e-05
2.5000724e-05
2.6080775e-05
2.7165701e-05
2.8250711e-05
2.9330375e-05
3.0401231e-05
3.1462092e-05
3.2511439e-05
3.3547101e-05
3.4568517e-05
3.557599e-05
3.656909e-05
3.7547043e-05
3.850892e-05
3.9453432e-05
4.0378296e-05
4.1281059e-05
4.215827e-05
4.3006834e-05
4.3823649e-05
4.4605231e-05
4.5348582e-05
4.6051711e-05
4.6713477e-05
4.7333588e-05
4.7912473e-05
4.8451178e-05
4.895113e-05
4.941406e-05
4.9842153e-05
5.0237628e-05
5.0602897e-05
5.0940141e-05
5.125144e-05
5.1538695e-05
5.1803812e-05
5.2047689e-05
5.2276255e-05
5.2464782e-05
5.2652309e-05
5.2845037e-05
1.6814543e-07
1.678728e-07
1.680322e-07
1.6934653e-07
1.7271313e-07
1.7877215e-07
1.8775533e-07
1.9960841e-07
2.1419404e-07
2.3139532e-07
2.5107801e-07
2.7274867e-07
2.9593829e-07
3.2017383e-07
3.4501882e-07
3.7012343e-07
3.9524014e-07
4.2022255e-07
4.4504998e-07
4.6984891e-07
4.9487444e-07
5.2051418e-07
5.4728885e-07
5.7584467e-07
6.0688644e-07
6.4122061e-07
6.7983394e-07
7.2370202e-07
7.7371609e-07
8.3103636e-07
8.9721215e-07
9.7367601e-07
1.0619413e-06
1.16337e-06
1.2801721e-06
1.4152204e-06
1.5723087e-06
1.7565803e-06
1.928471e-06
2.1213743e-06
2.3730981e-06
2.7009755e-06
3.1275489e-06
3.6821477e-06
4.4017934e-06
5.3211389e-06
6.2976506e-06
7.3656731e-06
8.5760953e-06
9.938196e-06
1.1453627e-05
1.3111635e-05
1.488837e-05
1.6777373e-05
1.8775322e-05
2.062457e-05
2.190939e-05
2.3189781e-05
2.4438243e-05
2.5675454e-05
2.6933761e-05
2.8217673e-05
2.9509268e-05
3.0810646e-05
3.2127856e-05
3.3456418e-05
3.4790725e-05
3.6127457e-05
3.7465938e-05
3.8804015e-05
4.013786e-05
4.1465389e-05
4.2784761e-05
4.4092574e-05
4.5383734e-05
4.6653843e-05
4.7897613e-05
4.9109808e-05
5.028635e-05
5.1423104e-05
5.2515888e-05
5.3561387e-05
5.4557253e-05
5.5502072e-05
5.6395523e-05
5.7238076e-05
5.8030666e-05
5.8774768e-05
5.9472586e-05
6.0126476e-05
6.0739137e-05
6.1313164e-05
6.1851006e-05
6.2354875e-05
6.2827459e-05
6.3269097e-05
6.3688375e-05
6.4059067e-05
6.440904e-05
6.4820018e-05
1.6818972e-07
1.6781403e-07
1.6749264e-07
1.6735556e-07
1.6761814e-07
1.6851608e-07
1.7024618e-07
1.7296258e-07
1.7680485e-07
1.8191332e-07
1.8841925e-07
1.964015e-07
2.0589198e-07
2.1687331e-07
2.2935946e-07
2.433016e-07
2.5852954e-07
2.7488422e-07
2.9223758e-07
3.1050052e-07
3.2963232e-07
3.4965295e-07
3.7065531e-07
3.9281855e-07
4.1640621e-07
4.4177561e-07
4.6940627e-07
4.9988943e-07
5.3390832e-07
5.7228392e-07
6.1604428e-07
6.6638193e-07
7.2468043e-07
7.9251223e-07
8.7183324e-07
9.6460806e-07
1.0735707e-06
1.2023104e-06
1.3546058e-06
1.5353624e-06
1.7515793e-06
2.0126196e-06
2.330696e-06
2.7214516e-06
3.1864983e-06
3.7660727e-06
4.5195042e-06
5.3774058e-06
6.3846507e-06
7.5557237e-06
8.9030016e-06
1.0432728e-05
1.2141307e-05
1.4023423e-05
1.6074672e-05
1.8246156e-05
2.0452786e-05
2.248338e-05
2.3873218e-05
2.525543e-05
2.6660108e-05
2.8074503e-05
2.9488985e-05
3.0935575e-05
3.2434904e-05
3.3955907e-05
3.5498458e-05
3.707202e-05
3.8672965e-05
4.0293958e-05
4.1930547e-05
4.3582624e-05
4.5245556e-05
4.6912809e-05
4.857559e-05
5.0226744e-05
5.1857728e-05
5.3460965e-05
5.5030702e-05
5.6561036e-05
5.8046247e-05
5.9481708e-05
6.0863427e-05
6.2188278e-05
6.3454691e-05
6.466199e-05
6.5809989e-05
6.6899379e-05
6.7931826e-05
6.8909364e-05
6.9834527e-05
7.071e-05
7.153839e-05
7.232204e-05
7.3064272e-05
7.3764804e-05
7.4434298e-05
7.5047074e-05
7.5616139e-05
7.6319383e-05
1.6824325e-07
1.6785066e-07
1.6745948e-07
1.6708831e-07
1.6677813e-07
1.6658692e-07
1.6657944e-07
1.6682305e-07
1.673909e-07
1.6836496e-07
1.6983475e-07
1.7189113e-07
1.7462209e-07
1.7810799e-07
1.8242508e-07
1.8764042e-07
1.9380175e-07
2.009398e-07
2.0907323e-07
2.1821472e-07
2.2840427e-07
2.3972624e-07
2.5219909e-07
2.6582953e-07
2.8066904e-07
2.9682409e-07
3.14465e-07
3.3383989e-07
3.5528138e-07
3.7921327e-07
4.0617685e-07
4.3684795e-07
4.7206327e-07
5.1284816e-07
5.6047967e-07
6.1646356e-07
6.82685e-07
7.6156796e-07
8.5605579e-07
9.6949879e-07
1.1064877e-06
1.2730655e-06
1.477194e-06
1.729316e-06
2.0426521e-06
2.4336974e-06
2.9206712e-06
3.5195191e-06
4.2475561e-06
5.1233195e-06
6.1659815e-06
7.3935826e-06
8.8201813e-06
1.0455893e-05
1.2308083e-05
1.4363872e-05
1.6579085e-05
1.8899948e-05
2.1256524e-05
2.3634102e-05
2.5605679e-05
2.7113616e-05
2.8630895e-05
3.0183519e-05
3.1769724e-05
3.3372532e-05
3.5019188e-05
3.6742401e-05
3.8508988e-05
4.0313827e-05
4.2168579e-05
4.4074702e-05
4.6018095e-05
4.7988949e-05
4.9979494e-05
5.1978804e-05
5.3974361e-05
5.5957761e-05
5.7920608e-05
5.9853343e-05
6.1748442e-05
6.3599418e-05
6.5399533e-05
6.7143341e-05
6.8827278e-05
7.0448583e-05
7.2005259e-05
7.3496446e-05
7.49224e-05
7.6284111e-05
7.7583364e-05
7.8822354e-05
8.0003516e-05
8.1128962e-05
8.2202378e-05
8.3222767e-05
8.4202192e-05
8.5116831e-05
8.5963669e-05
8.7033101e-05
1.6834495e-07
1.679528e-07
1.6755435e-07
1.6715097e-07
1.6674912e-07
1.6636029e-07
1.6600031e-07
1.6568881e-07
1.6544964e-07
1.653117e-07
1.6530931e-07
1.6548189e-07
1.6587346e-07
1.665317e-07
1.6750739e-07
1.6885381e-07
1.7062505e-07
1.728744e-07
1.7565361e-07
1.7901299e-07
1.8300398e-07
1.8768277e-07
1.9310415e-07
1.993218e-07
2.063934e-07
2.1438614e-07
2.2338926e-07
2.3356392e-07
2.4511333e-07
2.5819949e-07
2.730203e-07
2.8986241e-07
3.0911765e-07
3.3130201e-07
3.5708887e-07
3.8732252e-07
4.2306414e-07
4.6567613e-07
5.1689699e-07
5.7888685e-07
6.5444754e-07
7.4727351e-07
8.6223129e-07
1.0056631e-06
1.1860805e-06
1.4146438e-06
1.7052649e-06
2.0736166e-06
2.537222e-06
3.115375e-06
3.8289624e-06
4.6999708e-06
5.7504246e-06
7.0016078e-06
8.4739134e-06
1.0180344e-05
1.2116255e-05
1.4259388e-05
1.6565677e-05
1.9000028e-05
2.1510313e-05
2.4053887e-05
2.6628335e-05
2.8806282e-05
3.0460888e-05
3.2134273e-05
3.3856059e-05
3.5628634e-05
3.7436168e-05
3.9303355e-05
4.1271873e-05
4.3314819e-05
4.541718e-05
4.7585993e-05
4.9810105e-05
5.2071989e-05
5.4361407e-05
5.6670684e-05
5.8985226e-05
6.1291573e-05
6.3581277e-05
6.5843733e-05
6.8068159e-05
7.0246711e-05
7.2372662e-05
7.4439783e-05
7.6443413e-05
7.8380105e-05
8.024764e-05
8.204509e-05
8.3772662e-05
8.5431265e-05
8.7022522e-05
8.8547806e-05
9.0010742e-05
9.140937e-05
9.2756485e-05
9.4030635e-05
9.5213853e-05
9.6720106e-05
1.6852007e-07
1.6817098e-07
1.6780837e-07
1.6743178e-07
1.6704261e-07
1.6664355e-07
1.6623867e-07
1.6583339e-07
1.6543453e-07
1.6505059e-07
1.646921e-07
1.6437195e-07
1.6410571e-07
1.6391174e-07
1.6381132e-07
1.6382873e-07
1.6399119e-07
1.6432862e-07
1.6487333e-07
1.6566e-07
1.6672556e-07
1.6810956e-07
1.6985399e-07
1.7200325e-07
1.7460447e-07
1.7770826e-07
1.8137139e-07
1.8566368e-07
1.9067091e-07
1.9649008e-07
2.0323485e-07
2.1104531e-07
2.2010001e-07
2.3067266e-07
2.4314206e-07
2.5785913e-07
2.7525425e-07
2.9593066e-07
3.2070628e-07
3.5066439e-07
3.8722732e-07
4.3227645e-07
4.8832479e-07
5.587466e-07
6.481566e-07
7.6289891e-07
9.1151063e-07
1.1049626e-06
1.3571169e-06
1.6848517e-06
2.1080169e-06
2.649055e-06
3.3322304e-06
4.1826706e-06
5.2258342e-06
6.4856232e-06
7.979637e-06
9.7152061e-06
1.1683996e-05
1.3869581e-05
1.6240957e-05
1.8759862e-05
2.1400741e-05
2.4120506e-05
2.6879961e-05
2.9682681e-05
3.2159203e-05
3.3989973e-05
3.5843872e-05
3.7759544e-05
3.9741548e-05
4.1770993e-05
4.3880194e-05
4.612279e-05
4.8443924e-05
5.0834299e-05
5.3307108e-05
5.5843094e-05
5.841942e-05
6.1026877e-05
6.3654854e-05
6.6284324e-05
6.8902238e-05
7.1498508e-05
7.4060915e-05
7.6578957e-05
7.9044443e-05
8.1449914e-05
8.3789636e-05
8.6059755e-05
8.8257721e-05
9.0382075e-05
9.2432645e-05
9.4409262e-05
9.6314755e-05
9.8145681e-05
9.9914809e-05
0.00010160285
0.00010317992
0.0001051882
1.6867622e-07
1.6839163e-07
1.6809254e-07
1.6777749e-07
1.6744638e-07
1.6709988e-07
1.667393e-07
1.6636643e-07
1.6598333e-07
1.6559236e-07
1.6519635e-07
1.6479878e-07
1.644041e-07
1.6401792e-07
1.6364722e-07
1.633005e-07
1.6298801e-07
1.6272182e-07
1.6251595e-07
1.6238649e-07
1.6235167e-07
1.6243193e-07
1.6265006e-07
1.6303133e-07
1.6360351e-07
1.6439708e-07
1.6544577e-07
1.6678765e-07
1.6846636e-07
1.7053186e-07
1.7304207e-07
1.7606536e-07
1.7968371e-07
1.8400217e-07
1.8915855e-07
1.9531883e-07
2.0268572e-07
2.1151779e-07
2.2216839e-07
2.3519294e-07
2.512022e-07
2.7090745e-07
2.9533066e-07
3.2591301e-07
3.6468414e-07
4.1449935e-07
4.7936906e-07
5.6487514e-07
6.7874708e-07
8.3152678e-07
1.0372442e-06
1.3139851e-06
1.6842864e-06
2.1746723e-06
2.8144576e-06
3.6336242e-06
4.659514e-06
5.9133047e-06
7.4069992e-06
9.1448341e-06
1.1121736e-05
1.3323602e-05
1.5734268e-05
1.832641e-05
2.1065206e-05
2.3930476e-05
2.6887939e-05
2.9894872e-05
3.2959645e-05
3.5738915e-05
3.7771229e-05
3.9820023e-05
4.1938136e-05
4.4135387e-05
4.6392347e-05
4.8760212e-05
5.1283685e-05
5.3894122e-05
5.6590223e-05
5.938189e-05
6.2239532e-05
6.5139254e-05
6.8074035e-05
7.1026967e-05
7.3978015e-05
7.6914404e-05
7.9822455e-05
8.2689451e-05
8.5505581e-05
8.8262745e-05
9.0954106e-05
9.357451e-05
9.6120677e-05
9.8589671e-05
0.00010098238
0.00010329298
0.00010553322
0.00010768513
0.00010971141
0.00011227956
1.6876839e-07
1.6852875e-07
1.6827879e-07
1.6801673e-07
1.6774163e-07
1.6745312e-07
1.6715137e-07
1.6683691e-07
1.6651041e-07
1.661725e-07
1.658238e-07
1.6546497e-07
1.6509687e-07
1.6472069e-07
1.6433806e-07
1.6395114e-07
1.635628e-07
1.6317667e-07
1.6279731e-07
1.6243033e-07
1.6208251e-07
1.6176195e-07
1.6147816e-07
1.6124227e-07
1.6106712e-07
1.6096739e-07
1.6095985e-07
1.6106361e-07
1.6130049e-07
1.6169541e-07
1.6227706e-07
1.6307866e-07
1.6413895e-07
1.6550414e-07
1.6723089e-07
1.693885e-07
1.7206186e-07
1.7535645e-07
1.7940762e-07
1.8440057e-07
1.905722e-07
1.982211e-07
2.0774264e-07
2.1969472e-07
2.3496823e-07
2.5460359e-07
2.8001892e-07
3.1335089e-07
3.5775337e-07
4.1782571e-07
5.0020106e-07
6.1437413e-07
7.7379846e-07
9.9707567e-07
1.3088926e-06
1.7400446e-06
2.3257968e-06
3.1012532e-06
4.0952591e-06
5.3265143e-06
6.8034121e-06
8.5267014e-06
1.0494462e-05
1.270017e-05
1.513042e-05
1.7771673e-05
2.0601558e-05
2.3585957e-05
2.6707751e-05
2.9937617e-05
3.3229245e-05
3.6593952e-05
3.9601632e-05
4.182255e-05
4.4078309e-05
4.6420699e-05
4.8852161e-05
5.1351299e-05
5.4012354e-05
5.6839098e-05
5.9756065e-05
6.2779068e-05
6.5906781e-05
6.910049e-05
7.2340209e-05
7.5615138e-05
7.8900404e-05
8.2180013e-05
8.5439869e-05
8.8665452e-05
9.1844448e-05
9.4966553e-05
9.8023958e-05
0.00010100928
0.00010392
0.00010674666
0.00010949852
0.00011215768
0.00011468413
0.00011785999
1.6881467e-07
1.6859837e-07
1.6837545e-07
1.6814449e-07
1.6790451e-07
1.6765483e-07
1.6739517e-07
1.6712558e-07
1.6684626e-07
1.6655737e-07
1.6625901e-07
1.6595117e-07
1.6563379e-07
1.6530686e-07
1.6497045e-07
1.6462477e-07
1.6427019e-07
1.6390733e-07
1.6353714e-07
1.6316091e-07
1.6278041e-07
1.6239794e-07
1.6201643e-07
1.6163956e-07
1.6127186e-07
1.6091881e-07
1.6058699e-07
1.6028424e-07
1.600198e-07
1.5980455e-07
1.5965122e-07
1.5957475e-07
1.5959262e-07
1.5972543e-07
1.5999771e-07
1.6043891e-07
1.6108456e-07
1.6197789e-07
1.6317241e-07
1.6473636e-07
1.6675692e-07
1.6934529e-07
1.7264599e-07
1.7685234e-07
1.822398e-07
1.8917815e-07
1.9817325e-07
2.0994981e-07
2.2568399e-07
2.4705299e-07
2.7630207e-07
3.1694649e-07
3.7439254e-07
4.5684285e-07
5.7656232e-07
7.5152777e-07
1.0071435e-06
1.3768937e-06
1.9003653e-06
2.6174845e-06
3.5610739e-06
4.7509245e-06
6.1944959e-06
7.8917348e-06
9.8396985e-06
1.2036892e-05
1.4479788e-05
1.7156783e-05
2.005614e-05
2.3158065e-05
2.6427356e-05
2.9848175e-05
3.3387629e-05
3.6999648e-05
4.0697856e-05
4.3790878e-05
4.622038e-05
4.8701967e-05
5.129061e-05
5.3971471e-05
5.674051e-05
5.9727676e-05
6.2876556e-05
6.6133473e-05
6.951039e-05
7.2989544e-05
7.6530392e-05
8.0123217e-05
8.374672e-05
8.7377227e-05
9.0997903e-05
9.4591291e-05
9.8144201e-05
0.00010164273
0.00010507971
0.00010844039
0.00011172968
0.0001149284
0.00011799591
0.00012181313
1.6883638e-07
1.6863085e-07
1.6842076e-07
1.6820515e-07
1.6798328e-07
1.6775454e-07
1.6751857e-07
1.672753e-07
1.670248e-07
1.6676714e-07
1.6650236e-07
1.6623035e-07
1.6595097e-07
1.6566401e-07
1.6536927e-07
1.6506652e-07
1.6475557e-07
1.6443627e-07
1.6410853e-07
1.6377235e-07
1.6342785e-07
1.6307531e-07
1.6271523e-07
1.6234835e-07
1.6197571e-07
1.6159874e-07
1.6121932e-07
1.6083986e-07
1.604634e-07
1.600937e-07
1.597354e-07
1.5939412e-07
1.5907669e-07
1.5879129e-07
1.5854782e-07
1.5835816e-07
1.5823667e-07
1.5820074e-07
1.5827159e-07
1.5847541e-07
1.5884496e-07
1.5942137e-07
1.6025704e-07
1.6141995e-07
1.6300101e-07
1.6512279e-07
1.6795267e-07
1.7172467e-07
1.7678731e-07
1.8365489e-07
1.9307022e-07
2.0615885e-07
2.247915e-07
2.5180594e-07
2.9138578e-07
3.5033389e-07
4.3944421e-07
5.7529393e-07
7.8221813e-07
1.0934798e-06
1.5502612e-06
2.196943e-06
3.0723324e-06
4.2020957e-06
5.5964351e-06
7.2557314e-06
9.1780497e-06
1.1362153e-05
1.3809572e-05
1.6519768e-05
1.9481504e-05
2.2683069e-05
2.610203e-05
2.9701024e-05
3.346501e-05
3.7346499e-05
4.1312571e-05
4.537733e-05
4.8390675e-05
5.1038412e-05
5.3766746e-05
5.6618428e-05
5.9559146e-05
6.2672318e-05
6.6005945e-05
6.9491456e-05
7.3111474e-05
7.6864314e-05
8.0714662e-05
8.463116e-05
8.8596488e-05
9.2582361e-05
9.6571243e-05
0.00010054051
0.00010447804
0.00010836167
0.00011219001
0.00011594169
0.00011957068
0.00012404224
1.6884589e-07
1.6864497e-07
1.684405e-07
1.6823183e-07
1.6801845e-07
1.6779988e-07
1.6757583e-07
1.6734621e-07
1.6711107e-07
1.6687049e-07
1.6662452e-07
1.6637312e-07
1.6611621e-07
1.6585365e-07
1.6558527e-07
1.6531087e-07
1.6503024e-07
1.6474316e-07
1.6444938e-07
1.6414868e-07
1.6384084e-07
1.6352567e-07
1.6320302e-07
1.6287279e-07
1.6253495e-07
1.6218959e-07
1.6183692e-07
1.6147734e-07
1.6111144e-07
1.6074011e-07
1.6036453e-07
1.5998629e-07
1.5960746e-07
1.5923067e-07
1.5885922e-07
1.5849726e-07
1.5814992e-07
1.5782353e-07
1.5752592e-07
1.5726676e-07
1.5705804e-07
1.5691473e-07
1.5685565e-07
1.5690477e-07
1.5709306e-07
1.5746133e-07
1.5806431e-07
1.5897684e-07
1.6030519e-07
1.6220359e-07
1.6489753e-07
1.6872482e-07
1.742183e-07
1.8221462e-07
1.9401771e-07
2.1173975e-07
2.3911083e-07
2.8172847e-07
3.487032e-07
4.5454713e-07
6.212032e-07
8.7985401e-07
1.2710057e-06
1.8413437e-06
2.6363315e-06
3.690409e-06
5.0214287e-06
6.6331428e-06
8.5238638e-06
1.0694131e-05
1.3146348e-05
1.5884979e-05
1.8909553e-05
2.220658e-05
2.5762766e-05
2.9546257e-05
3.3520633e-05
3.7671967e-05
4.1926828e-05
4.6279602e-05
5.0562806e-05
5.3457485e-05
5.6337345e-05
5.9336714e-05
6.2460039e-05
6.5689523e-05
6.9199317e-05
7.2904954e-05
7.6782732e-05
8.0807343e-05
8.4960453e-05
8.9201369e-05
9.3510802e-05
9.7857078e-05
0.00010222316
0.00010657708
0.00011091003
0.00011519742
0.00011937418
0.00012448301
1.6884945e-07
1.686503e-07
1.6844804e-07
1.6824227e-07
1.6803261e-07
1.6781871e-07
1.6760033e-07
1.673774e-07
1.6714997e-07
1.6691812e-07
1.6668191e-07
1.6644138e-07
1.6619649e-07
1.6594719e-07
1.656934e-07
1.65435e-07
1.6517187e-07
1.6490385e-07
1.6463079e-07
1.643525e-07
1.640688e-07
1.6377949e-07
1.6348435e-07
1.6318318e-07
1.6287576e-07
1.6256191e-07
1.6224145e-07
1.6191423e-07
1.6158015e-07
1.6123919e-07
1.6089142e-07
1.60537e-07
1.6017627e-07
1.5980976e-07
1.5943822e-07
1.5906271e-07
1.5868465e-07
1.5830592e-07
1.5792894e-07
1.5755682e-07
1.571935e-07
1.56844e-07
1.5651466e-07
1.5621356e-07
1.5595104e-07
1.5574054e-07
1.5559976e-07
1.5555244e-07
1.5563132e-07
1.5588273e-07
1.5637355e-07
1.5720263e-07
1.5852125e-07
1.6056584e-07
1.6370988e-07
1.6855786e-07
1.7613848e-07
1.881333e-07
2.0734246e-07
2.3865347e-07
2.8974356e-07
3.7282851e-07
5.0699227e-07
7.2023152e-07
1.0507632e-06
1.5456512e-06
2.2553464e-06
3.224205e-06
4.4807937e-06
6.0365641e-06
7.8921719e-06
1.0047545e-05
1.2507314e-05
1.5277003e-05
1.8362521e-05
2.1758873e-05
2.5448715e-05
2.9416166e-05
3.3612645e-05
3.8007263e-05
4.2577773e-05
4.7236427e-05
5.2006703e-05
5.590025e-05
5.9012106e-05
6.2162884e-05
6.5468726e-05
6.8878469e-05
7.2533883e-05
7.6446106e-05
8.0563185e-05
8.4861418e-05
8.9309871e-05
9.3880582e-05
9.8545024e-05
0.00010326297
0.00010801693
0.00011277771
0.00011744799
0.00012312844
1.6885016e-07
1.6865147e-07
1.6844989e-07
1.6824514e-07
1.6803695e-07
1.6782505e-07
1.6760926e-07
1.6738952e-07
1.6716586e-07
1.6693835e-07
1.6670707e-07
1.6647207e-07
1.6623336e-07
1.6599095e-07
1.6574479e-07
1.6549485e-07
1.6524106e-07
1.6498337e-07
1.6472168e-07
1.6445589e-07
1.641859e-07
1.6391159e-07
1.6363282e-07
1.6334945e-07
1.6306131e-07
1.6276825e-07
1.6247007e-07
1.6216661e-07
1.6185767e-07
1.6154307e-07
1.6122263e-07
1.6089621e-07
1.6056366e-07
1.6022491e-07
1.5987994e-07
1.5952881e-07
1.5917168e-07
1.5880886e-07
1.5844084e-07
1.5806834e-07
1.5769235e-07
1.5731424e-07
1.5693581e-07
1.5655946e-07
1.561883e-07
1.5582643e-07
1.5547926e-07
1.55154e-07
1.5486047e-07
1.5461232e-07
1.5442899e-07
1.543388e-07
1.5438422e-07
1.5463073e-07
1.5518138e-07
1.5620217e-07
1.5797034e-07
1.6094949e-07
1.65923e-07
1.7424747e-07
1.8820401e-07
2.1160837e-07
2.5105958e-07
3.1678401e-07
4.2495016e-07
6.0012886e-07
8.772862e-07
1.3022737e-06
1.9285124e-06
2.8088133e-06
3.9846367e-06
5.4778078e-06
7.2949911e-06
9.4364614e-06
1.1906337e-05
1.4712987e-05
1.7863427e-05
2.1362691e-05
2.5195287e-05
2.9338669e-05
3.376864e-05
3.8422484e-05
4.327878e-05
4.8272074e-05
5.3370245e-05
5.8447652e-05
6.1815717e-05
6.5162606e-05
6.8620653e-05
7.2222523e-05
7.601859e-05
8.0139377e-05
8.4475031e-05
8.9059581e-05
9.3822509e-05
9.8735984e-05
0.00010376486
0.00010887718
0.00011395022
0.0001200608
1.6884957e-07
1.6865078e-07
1.6844919e-07
1.682446e-07
1.6803683e-07
1.6782568e-07
1.6761099e-07
1.673927e-07
1.6717084e-07
1.6694547e-07
1.6671666e-07
1.6648446e-07
1.662489e-07
1.6601001e-07
1.6576778e-07
1.6552222e-07
1.652733e-07
1.6502101e-07
1.647653e-07
1.6450615e-07
1.642435e-07
1.6397731e-07
1.6370749e-07
1.6343399e-07
1.6315671e-07
1.6287556e-07
1.6259044e-07
1.6230122e-07
1.6200779e-07
1.6171001e-07
1.6140772e-07
1.6110077e-07
1.6078901e-07
1.6047226e-07
1.6015036e-07
1.5982318e-07
1.5949057e-07
1.5915243e-07
1.588087e-07
1.5845937e-07
1.5810453e-07
1.5774434e-07
1.5737911e-07
1.5700935e-07
1.5663574e-07
1.5625931e-07
1.5588143e-07
1.5550401e-07
1.551297e-07
1.5476222e-07
1.5440685e-07
1.5407128e-07
1.5376699e-07
1.5351151e-07
1.5333229e-07
1.5327335e-07
1.534074e-07
1.5385657e-07
1.5482861e-07
1.5668313e-07
1.6004113e-07
1.6597129e-07
1.7633676e-07
1.9425913e-07
2.2494315e-07
2.772577e-07
3.6474286e-07
5.0865643e-07
7.4045946e-07
1.1035886e-06
1.6525839e-06
2.4467801e-06
3.5394607e-06
4.9664564e-06
6.7427621e-06
8.8720084e-06
1.1356779e-05
1.4207024e-05
1.7432266e-05
2.1037596e-05
2.5021399e-05
2.9354611e-05
3.4010419e-05
3.8937259e-05
4.4087861e-05
4.9437415e-05
5.4878856e-05
6.0443785e-05
6.4713665e-05
6.8297987e-05
7.1937867e-05
7.5738589e-05
7.9679355e-05
8.4013418e-05
8.8602276e-05