/*--------------------------------*- C++ -*----------------------------------*\
| =========                 |                                                 |
| \\      /  F ield         | OpenFOAM: The Open Source CFD Toolbox           |
|  \\    /   O peration     | Version:  2206                                  |
|   \\  /    A nd           | Website:  www.openfoam.com                      |
|    \\/     M anipulation  |                                                 |
\*---------------------------------------------------------------------------*/
FoamFile
{
    version     2.0;
    format      ascii;
    arch        "LSB;label=32;scalar=64";
    class       volScalarField;
    location    "1800";
    object      omega;
}
// * * * * * * * * * * * * * * * * * * * * * * * * * * * * * * * * * * * * * //

dimensions      [0 0 -1 0 0 0 0];

internalField   nonuniform List<scalar> 
7480
(
7569.0991
7590.8066
7571.1039
7538.1495
7512.5612
7498.0745
7491.1177
7487.7279
7485.8488
7484.625
7483.6796
7482.8687
7482.1622
7481.5508
7481.0207
7480.5588
7480.1554
7479.8011
7479.4859
7479.2034
7478.9497
7478.7207
7478.5125
7478.3227
7478.1493
7477.9903
7477.8438
7477.7086
7477.5838
7477.4684
7477.3613
7477.2621
7477.1702
7477.0849
7477.0058
7476.9326
7476.8649
7476.8024
7476.7449
7476.6924
7476.6447
7476.6018
7476.5636
7476.5302
7476.5016
7476.4784
7476.4603
7476.448
7476.4415
7476.4405
7476.445
7476.4547
7476.469
7476.4871
7476.508
7476.5311
7476.5551
7476.5777
7476.5973
7476.612
7476.6219
7476.627
7476.6278
7476.625
7476.6192
7476.6113
7476.6019
7476.5915
7476.5805
7476.5691
7476.5576
7476.5461
7476.5346
7476.5232
7476.512
7476.501
7476.4901
7476.479
7476.4676
7476.4561
7476.4446
7476.4331
7476.4215
7476.4098
7476.398
7476.3861
7476.3742
7476.3622
7476.3501
7476.3381
7476.326
7476.3139
7476.3019
7476.2898
7476.2778
7476.2653
7476.2544
7476.2387
7476.2299
7476.2059
1003.2488
1574.4071
1842.4972
1920.7702
1937.0081
1923.8429
1863.1462
1797.8048
1744.1829
1703.9952
1673.3535
1647.6953
1624.4748
1603.0623
1583.2674
1564.882
1547.8346
1532.2139
1517.8565
1504.5484
1492.1963
1480.7769
1470.1828
1460.3009
1451.0855
1442.5098
1434.5024
1426.9946
1419.9554
1413.3611
1407.1695
1401.3452
1395.8719
1390.7331
1385.9046
1381.368
1377.1142
1373.1316
1369.4067
1365.9314
1362.7039
1359.7219
1356.9824
1354.4883
1352.2326
1350.2279
1348.4714
1346.9652
1345.7227
1344.7378
1344.0318
1343.6369
1343.4484
1343.4336
1343.5549
1343.7741
1344.0484
1344.3185
1344.5263
1344.6207
1344.5793
1344.3982
1344.1236
1343.7469
1343.2671
1342.7075
1342.0896
1341.4339
1340.7564
1340.0687
1339.3798
1338.6963
1338.0221
1337.3601
1336.7131
1336.0806
1335.4657
1334.859
1334.2561
1333.6584
1333.0658
1332.4785
1331.8958
1331.3153
1330.7365
1330.1584
1329.581
1329.0043
1328.4285
1327.8543
1327.2816
1326.7112
1326.1434
1325.5771
1325.017
1324.4458
1323.9003
1323.3385
1322.6629
1322.0511
190.6665
396.62865
585.95169
709.19138
769.23561
785.361
782.06205
789.17763
803.65382
812.82304
819.31068
823.53143
825.03278
824.13699
821.40957
817.38965
811.92688
805.27271
797.68468
789.38141
780.57527
771.47061
762.21116
752.90091
743.64467
734.53694
725.59369
716.81516
708.21747
699.82416
691.64965
683.70388
676.00041
668.55166
661.36491
654.44806
647.81079
641.45322
635.37263
629.56963
624.05025
618.8222
613.89299
609.27378
604.97186
600.98799
597.32784
593.9672
590.89569
588.10474
585.63187
583.48066
581.54603
579.79377
578.19886
576.70808
575.25953
573.81259
572.35632
570.8916
569.41321
567.90726
566.45588
565.01108
563.55502
562.0904
560.62338
559.16279
557.71695
556.29278
554.89574
553.53029
552.19958
550.90566
549.65037
548.43284
547.25384
546.13572
545.0618
544.01926
543.00149
542.0053
541.02886
540.06855
539.12245
538.18826
537.2647
536.35084
535.44578
534.54955
533.66137
532.78131
531.90951
531.04429
530.18977
529.32895
528.49535
527.65765
526.73871
525.65103
72.002387
121.36341
193.99292
267.71903
324.61765
359.72591
377.79358
386.76759
392.43949
397.5574
404.50857
415.21797
426.20177
437.92763
452.2767
470.54803
485.13758
496.52831
505.2975
511.85544
516.52633
519.60185
521.34118
522.01382
521.93559
521.35267
519.99402
517.80792
514.88243
511.34175
507.30505
502.87615
498.14588
493.19466
488.0971
482.92754
477.73353
472.49811
467.2209
461.91904
456.61871
451.34759
446.13101
440.99359
435.96457
431.03307
426.18367
421.38234
416.61631
411.89391
407.23785
402.74724
398.32301
393.97698
389.74453
385.58067
381.45005
377.39744
373.50815
369.85228
366.44912
363.31496
360.48445
357.8826
355.45988
353.18089
351.01866
348.95436
346.97515
345.07227
343.23963
341.47369
339.77234
338.13321
336.55474
335.03434
333.57115
332.19048
330.8844
329.63738
328.43926
327.28457
326.17055
325.09338
324.05017
323.03765
322.0531
321.09417
320.15845
319.24444
318.35021
317.47458
316.61635
315.77357
314.94759
314.12853
313.32664
312.5741
311.71958
310.76071
55.641351
64.531788
83.91
111.34815
140.41964
165.526
184.57965
198.12838
207.73966
214.78691
220.41991
225.66319
230.96012
236.83249
244.10015
253.54898
263.34697
273.15119
282.74737
292.00506
300.83095
309.30543
317.72211
326.71452
337.34758
349.83491
359.6916
366.92092
372.20094
375.98175
378.56956
380.18545
381.00781
381.20428
380.96577
380.50369
379.79601
378.45056
376.46355
373.91984
370.91465
367.53052
363.83538
359.89073
355.76997
351.47116
346.93486
342.13656
337.10257
331.87805
326.51208
321.06507
315.61035
310.15754
304.74273
299.32025
293.91563
288.65206
283.6482
278.98376
274.72222
270.87768
267.40959
264.26136
261.37938
258.71718
256.23522
253.90246
251.69522
249.59574
247.59119
245.67357
243.83562
242.07152
240.37726
238.74899
237.18566
235.69016
234.26529
232.90699
231.60951
230.36841
229.18104
228.04411
226.95471
225.90946
224.90512
223.93865
223.00686
222.10725
221.23743
220.39516
219.57823
218.78437
218.01309
217.25906
216.51954
215.85069
215.10059
214.28374
53.509238
54.436806
58.087728
65.264932
75.157831
86.041231
96.433468
105.64098
113.5415
120.26165
125.9678
130.87449
135.18642
139.11563
142.94488
147.0132
151.4218
156.27287
161.71233
167.82077
174.15932
180.72656
187.52818
194.61635
202.10321
210.07211
218.0538
225.69068
232.80864
239.34672
245.31853
250.80361
255.97294
261.15658
266.96463
274.11732
281.52999
286.09971
288.74574
290.07513
290.4419
290.06323
289.09186
287.67406
285.98955
284.18767
281.82294
278.80026
275.22079
271.19267
266.81607
262.1892
257.41242
252.51719
247.55584
242.60068
237.70636
232.95645
228.43071
224.18068
220.22776
216.5787
213.21636
210.11247
207.23718
204.56017
202.05239
199.68972
197.45199
195.32269
193.28924
191.34342
189.4778
187.68645
185.96512
184.30992
182.71995
181.19008
179.7218
178.31671
176.97388
175.69134
174.46745
173.29979
172.18591
171.12283
170.10747
169.13673
168.20723
167.31611
166.46058
165.63801
164.84582
164.08158
163.34388
162.6294
161.93158
161.30256
160.63046
159.89065
53.223787
52.808205
52.958579
54.08472
56.272845
59.363407
62.973163
66.789308
70.618115
74.356808
77.935177
81.307119
84.450848
87.364286
90.07832
92.661625
95.184408
97.717236
100.34418
103.1559
106.19543
109.53085
113.24512
117.38919
121.8672
126.72848
131.94341
137.42804
143.08561
148.83221
154.59533
160.31784
165.9686
171.55757
177.14035
182.82294
188.52627
193.80098
198.43492
202.38315
205.68222
208.41959
210.74711
212.94403
215.47446
218.47278
219.8494
219.66727
218.48635
216.62012
214.28907
211.69298
208.99944
205.97122
202.55313
199.04903
195.61197
192.2889
189.03888
185.87114
182.81304
179.87835
177.06806
174.38427
171.82735
169.39011
167.06297
164.83907
162.70912
160.66414
158.69708
156.80313
154.9784
153.22016
151.526
149.893
148.32086
146.80539
145.34533
143.94235
142.59762
141.31116
140.08255
138.91035
137.79272
136.72737
135.71174
134.74307
133.81819
132.93427
132.08838
131.27788
130.50029
129.75318
129.03484
128.34267
127.67045
127.05788
126.43544
125.7346
53.161653
52.541993
52.020257
51.712154
51.711497
52.0464
52.63253
53.454757
54.479233
55.668592
56.98314
58.384934
59.838699
61.311515
62.778039
64.225676
65.652333
67.063081
68.472311
69.904093
71.384449
72.94468
74.624846
76.470599
78.518475
80.820082
83.432298
86.359017
89.554858
93.018001
96.738097
100.6955
104.86721
109.23364
113.78582
118.52436
123.4293
128.40807
133.35661
138.17861
142.79332
147.13879
151.1718
154.87646
158.27486
161.33334
163.87657
165.76423
166.99658
167.6669
167.92788
167.97965
167.97343
167.24083
165.72881
163.88049
162.05343
160.27327
158.31771
156.28878
154.24915
152.19832
150.1319
148.07176
146.03474
144.02459
142.04766
140.11612
138.2284
136.38506
134.58772
132.83769
131.13559
129.48443
127.88484
126.33528
124.83711
123.38866
121.98798
120.63595
119.33414
118.08375
116.88536
115.73856
114.64221
113.59495
112.59514
111.64068
110.72885
109.85728
109.02339
108.22479
107.45938
106.72493
106.0198
105.34174
104.68617
104.08055
103.48825
102.80749
53.125297
52.474983
51.838488
51.24013
50.71027
50.27174
49.928758
49.683633
49.538505
49.482585
49.493657
49.598268
49.796302
50.077772
50.429118
50.837239
51.291904
51.784939
52.311073
52.868959
53.460403
54.090089
54.766766
55.503783
56.317339
57.228298
58.263251
59.448086
60.80429
62.357708
64.138426
66.149134
68.387069
70.858566
73.575052
76.545398
79.775973
83.259454
86.973195
90.886451
94.963352
99.163451
103.44276
107.75518
112.06063
116.25981
120.20837
123.79449
126.92946
129.55699
131.65046
133.21218
134.27299
134.87955
135.03941
134.79072
134.37203
133.84309
132.99328
132.01021
130.98946
129.84379
128.54416
127.16187
125.72258
124.22569
122.69347
121.14467
119.58608
118.02712
116.47713
114.94362
113.43179
111.95404
110.51254
109.10541
107.73728
106.40775
105.11472
103.85943
102.64353
101.46851
100.33561
99.245294
98.196926
97.190528
96.22566
95.301079
94.414546
93.564599
92.749389
91.967011
91.21613
90.494815
89.801796
89.135182
88.492258
87.89085
87.317121
86.648004
53.095276
52.438434
51.782355
51.1309
50.490904
49.869712
49.27284
48.704937
48.170785
47.674156
47.216606
46.802214
46.434566
46.115365
45.830042
45.572741
45.356111
45.185586
45.061351
44.981876
44.94506
44.948467
44.991201
45.074744
45.202542
45.380002
45.61505
45.9176
46.298979
46.772551
47.354558
48.061027
48.908489
49.916401
51.108488
52.491325
54.081764
55.898458
57.952994
60.254181
62.811208
65.630846
68.717296
72.072026
75.69494
79.565557
83.600974
87.69887
91.755021
95.662236
99.31521
102.61554
105.47889
107.84968
109.6894
110.92048
111.55057
111.7572
111.74004
111.55957
111.3212
110.95809
110.4172
109.76967
109.01324
108.09155
107.06815
105.9677
104.79561
103.57342
102.31758
101.04351
99.761581
98.504104
97.265776
96.044095
94.842491
93.662811
92.505254
91.37139
90.263096
89.182181
88.130576
87.109695
86.119028
85.160234
84.235484
83.344307
82.485129
81.657218
80.859672
80.091248
79.351856
78.639716
77.954185
77.293933
76.657765
76.056754
75.49189
74.827488
53.068916
52.408693
51.747443
51.085437
50.423799
49.764076
49.108032
48.4577
47.815489
47.184003
46.565713
45.963172
45.378962
44.81549
44.273466
43.75302
43.255544
42.782826
42.336482
41.917674
41.522014
41.139212
40.774072
40.436088
40.131279
39.863148
39.634314
39.447059
39.303864
39.208819
39.168024
39.188931
39.280263
39.45231
39.717458
40.088291
40.579795
41.210322
41.999912
42.959743
44.109911
45.47244
47.071396
48.932949
51.085619
53.560008
56.374843
59.518337
62.960866
66.649527
70.506872
74.431119
78.299536
81.981891
85.355165
88.278113
90.620533
92.352522
93.51613
94.219917
94.584259
94.753342
94.782502
94.707702
94.544014
94.221625
93.781844
93.224433
92.519184
91.714124
90.82951
89.894084
88.917697
87.935
86.939532
85.932379
84.919342
83.904401
82.890668
81.881992
80.881705
79.892962
78.919213
77.963278
77.026851
76.112324
75.222219
74.357762
73.519273
72.707058
71.921164
71.161327
70.427521
69.71906
69.035918
68.377124
67.742787
67.139341
66.576773
65.912534
53.030914
52.366809
51.701842
51.035776
50.368598
49.700352
49.0313
48.362035
47.693476
47.026767
46.363148
45.703929
45.050488
44.404254
43.766542
43.138531
42.521412
41.916416
41.3248
40.747801
40.186103
39.63932
39.107611
38.592104
38.09442
37.616329
37.158933
36.716442
36.283684
35.869242
35.483529
35.133735
34.824984
34.561285
34.34634
34.185337
34.085323
34.055293
34.106067
34.249131
34.498341
34.870839
35.38625
36.06438
36.93328
38.027488
39.386564
41.049316
43.051748
45.421577
48.171176
51.289138
54.731588
58.417593
62.232513
66.022884
69.600984
72.793585
75.470422
77.594059
79.176668
80.296414
81.051574
81.520187
81.792528
81.934353
81.957238
81.883343
81.676282
81.357885
80.923133
80.394608
79.792111
79.123401
78.396299
77.624277
76.817739
75.982857
75.126099
74.25428
73.372775
72.486641
71.601133
70.720456
69.848042
68.987518
68.142079
67.314131
66.505391
65.71714
64.950324
64.20554
63.483294
62.783682
62.107095
61.452934
60.822321
60.218864
59.658103
58.995155
52.972539
52.293341
51.615635
50.939067
50.263219
49.587585
48.911801
48.235794
47.559783
46.884173
46.209453
45.536156
44.864859
44.19619
43.530815
42.869431
42.212773
41.561611
40.916754
40.279048
39.64932
39.028269
38.416545
37.814846
37.22396
36.64476
36.078137
35.524292
34.98288
34.454497
33.940793
33.443987
32.966231
32.503676
32.049453
31.613397
31.207927
30.841105
30.518541
30.244281
30.023277
29.863206
29.774059
29.767875
29.860048
30.070896
30.425811
30.954778
31.696424
32.696018
34.003574
35.669529
37.737456
40.232683
43.14994
46.438673
49.98884
53.636351
57.184118
60.455095
63.311926
65.685697
67.580788
69.022296
70.070506
70.813124
71.306984
71.623992
71.814715
71.886583
71.859543
71.722461
71.493943
71.183877
70.772758
70.285883
69.736548
69.129597
68.473427
67.777899
67.050699
66.298734
65.529464
64.74884
63.962217
63.175065
62.3917
61.615833
60.850618
60.098438
59.3613
58.640746
57.938011
57.253993
56.589651
55.94492
55.321762
54.722076
54.164721
53.505165
52.92167
52.221612
51.523976
50.828786
50.135833
49.444689
48.754938
48.066354
47.378947
46.692896
46.008458
45.325913
44.645555
43.967688
43.292631
42.620713
41.952283
41.287706
40.627368
39.971674
39.321052
38.675936
38.036764
37.403987
36.77808
36.159547
35.548926
34.946717
34.353333
33.769202
33.194885
32.631116
32.078762
31.538169
31.008905
30.491688
29.988523
29.502032
29.033116
28.572076
28.12329
27.702111
27.31838
26.978286
26.686481
26.450114
26.280309
26.192031
26.2053
26.346706
26.650443
27.158996
27.925802
29.012131
30.481198
32.38647
34.752859
37.554707
40.700943
44.044275
47.403277
50.599688
53.497851
56.005703
58.083213
59.749764
61.034748
61.985259
62.674903
63.14821
63.468385
63.658345
63.738034
63.737511
63.646196
63.471041
63.224288
62.890063
62.477451
62.001989
61.471173
60.89118
60.272628
59.623117
58.949722
58.260418
57.560782
56.856129
56.151343
55.450091
54.755713
54.070847
53.397648
52.737939
52.093372
51.464561
50.854237
50.263374
49.712811
49.060116
52.891711
52.176955
51.463839
50.752706
50.043682
49.336658
48.631448
47.92794
47.226165
46.526281
45.828519
45.133138
44.440409
43.75061
43.064024
42.380931
41.701614
41.026358
40.355448
39.689168
39.027803
38.371635
37.720943
37.076005
36.437095
35.804484
35.178449
34.559262
33.947189
33.342485
32.745419
32.156291
31.57544
31.003192
30.439779
29.885484
29.340772
28.806332
28.282856
27.769865
27.267453
26.777471
26.302633
25.843626
25.389061
24.948754
24.539117
24.169758
23.84764
23.58137
23.385355
23.280006
23.2935
23.464101
23.841835
24.487878
25.472955
26.864494
28.706611
30.998207
33.678584
36.629079
39.69597
42.715558
45.541486
48.073695
50.252082
52.053261
53.501413
54.625477
55.465117
56.075992
56.498617
56.775693
56.949066
57.031939
57.04167
56.972395
56.82412
56.608261
56.314037
55.942871
55.513408
55.031027
54.503164
53.941664
53.35218
52.742026
52.118346
51.48614
50.850482
50.215302
49.583912
48.959296
48.343924
47.739263
47.14882
46.573192
46.034544
45.393639
52.876801
52.154018
51.431986
50.71114
49.991754
49.273917
48.557631
47.842914
47.12986
46.418646
45.709508
45.002712
44.298542
43.597291
42.899255
42.204735
41.514028
40.827432
40.145244
39.467755
38.795251
38.128017
37.466326
36.810446
36.160638
35.517151
34.880224
34.250088
33.62696
33.011041
32.402521
31.801579
31.208388
30.623109
30.045883
29.476845
28.916135
28.363924
27.820415
27.285713
26.759902
26.243251
25.736292
25.23955
24.752169
24.274596
23.809177
23.359036
22.91664
22.481157
22.073945
21.707984
21.393157
21.142654
20.978214
20.931098
21.044624
21.375641
21.991212
22.959802
24.337142
26.144834
28.354565
30.88397
33.60713
36.380556
39.065477
41.54487
43.745038
45.626574
47.177223
48.420625
49.382946
50.096308
50.61663
50.981603
51.218827
51.361525
51.433396
51.435869
51.36594
51.222707
51.019018
50.738151
50.38843
49.989156
49.539918
49.051608
48.534093
47.992896
47.435448
46.867011
46.292348
45.715955
45.141249
44.570812
44.008996
43.456446
42.936561
42.313927
52.870215
52.143358
51.416687
50.690641
49.965538
49.24155
48.518772
47.797295
47.077252
46.35883
45.642263
44.927815
44.215766
43.506412
42.800052
42.096992
41.397536
40.701992
40.010663
39.32385
38.641853
37.964965
37.293473
36.627659
35.967798
35.314154
34.666986
34.02654
33.393054
32.76675
32.147839
31.536519
30.932972
30.337364
29.749844
29.170545
28.599578
28.037044
27.483028
26.937597
26.400793
25.872654
25.353247
24.842665
24.34086
23.847834
23.363848
22.889481
22.424361
21.968119
21.523035
21.09264
20.669987
20.25692
19.877828
19.548011
19.281896
19.103169
19.046781
19.159941
19.501832
20.137644
21.127016
22.508667
24.282599
26.400769
28.770511
31.268676
33.76629
36.147005
38.317439
40.223007
41.837268
43.15524
44.205353
45.011909
45.607347
46.036585
46.33872
46.528879
46.6344
46.682535
46.665654
46.580703
46.430544
46.228492
45.947102
45.609751
45.22743
44.802712
44.34696
43.865889
43.366077
42.853906
42.333759
41.809746
41.287158
40.767099
40.274561
39.678333
52.868023
52.139112
51.410058
50.681295
49.953156
49.225852
48.499526
47.774308
47.050349
46.327839
45.607004
44.888097
44.17139
43.457166
42.745719
42.037345
41.332346
40.631022
39.933674
39.2406
38.552096
37.868454
37.189961
36.5169
35.849547
35.188172
34.533036
33.884394
33.242493
32.607569
31.979848
31.359547
30.746869
30.142006
29.545136
28.956423
28.376015
27.804043
27.240622
26.685848
26.139798
25.602529
25.074083
24.554489
24.043751
23.541855
23.048805
22.564653
22.089389
21.622954
21.165562
20.717802
20.279371
19.85027
19.433532
19.033696
18.637093
18.267031
17.945912
17.691264
17.528805
17.496086
17.642348
18.0252
18.705245
19.731534
21.12556
22.86914
24.899916
27.120323
29.412761
31.662164
33.770154
35.662055
37.300848
38.67081
39.777499
40.650106
41.30971
41.791587
42.131863
42.367044
42.502277
42.574639
42.590886
42.547859
42.441317
42.280015
42.062589
41.779697
41.452356
41.082308
40.678825
40.250243
39.801449
39.338716
38.868176
38.391926
37.937093
37.377287
52.868195
52.138242
51.407944
50.677728
49.947939
49.218815
48.490531
47.763245
47.037122
46.312354
45.589159
44.867783
44.148486
43.431541
42.717231
42.005843
41.297668
40.592997
39.892123
39.195335
38.502919
37.815161
37.132339
36.454728
35.782597
35.116211
34.455824
33.801687
33.154043
32.513124
31.879158
31.252361
30.632941
30.021096
29.417013
28.820868
28.232827
27.653042
27.08165
26.518778
25.964536
25.419018
24.882303
24.354455
23.835521
23.325533
22.824513
22.332482
21.849448
21.375413
20.910394
20.454473
20.007675
19.570023
19.141892
18.724149
18.315868
17.919219
17.538975
17.166572
16.819805
16.523842
16.297844
16.170146
16.180558
16.379182
16.821395
17.562479
18.638785
20.055789
21.778658
23.733141
25.818311
27.922168
29.943368
31.799867
33.436207
34.831033
35.976335
36.888207
37.594511
38.116448
38.488248
38.748417
38.916227
38.995263
39.034119
39.017444
38.944884
38.817453
38.645165
38.408976
38.125039
37.802446
37.444657
37.061226
36.658219
36.239553
35.834626
35.323629
52.869686
52.139211
51.408251
50.677229
49.946498
49.216318
48.486894
47.758404
47.03103
46.304967
45.580434
44.857669
44.136926
43.41847
42.702575
41.989521
41.27959
40.573065
39.87023
39.171365
38.47675
37.786661
37.101367
36.421136
35.746227
35.076894
34.413387
33.755946
33.104804
32.460188
31.822315
31.191397
30.567634
29.951218
29.342334
28.741156
28.147847
27.562562
26.985444
26.416625
25.856228
25.30436
24.76112
24.226591
23.700847
23.183949
22.675949
22.176891
21.686813
21.205748
20.733728
20.270791
19.816974
19.372313
18.936882
18.510845
18.094224
17.687297
17.290876
16.904544
16.530287
16.17319
15.824841
15.508608
15.246558
15.059247
14.977961
15.045224
15.310772
15.82889
16.647444
17.788289
19.24001
20.95068
22.835499
24.791446
26.714252
28.51767
30.135322
31.530935
32.696231
33.632293
34.362858
34.912716
35.310714
35.58127
35.766766
35.869578
35.912604
35.913039
35.863577
35.762931
35.618038
35.424406
35.17789
34.894711
34.577181
34.232766
33.891937
33.445127
52.871944
52.141223
51.40991
50.678424
49.947124
49.21629
48.486148
47.7569
47.028743
46.30188
45.576531
44.852933
44.131337
43.412001
42.695196
41.981196
41.270276
40.562714
39.858788
39.158773
38.462941
37.771561
37.084898
36.403211
35.726753
35.055772
34.390508
33.731194
33.078057
32.431314
31.791175
31.157843
30.531511
29.912363
29.300576
28.696316
28.09974
27.510997
26.930227
26.357556
25.793105
25.236983
24.689287
24.150107
23.61952
23.097597
22.584398
22.079976
21.584381
21.097657
20.619846
20.150992
19.691137
19.240325
18.798606
18.366043
17.942695
17.52864
17.124032
16.72893
16.343619
15.968986
15.604661
15.253531
14.921117
14.599561
14.317534
14.093847
13.952197
13.927305
14.063921
14.412793
15.025305
15.938094
17.156802
18.650278
20.349316
22.160844
23.982274
25.720306
27.305237
28.688589
29.853077
30.798919
31.542284
32.106881
32.516362
32.801452
32.99244
33.10859
33.155757
33.166222
33.132363
33.052705
32.93032
32.769359
32.554991
32.303886
32.043245
31.679139
52.874667
52.14385
51.412354
50.680594
49.948932
49.217662
48.487032
47.757265
47.02857
46.301163
45.575268
44.851121
44.128973
43.409081
42.691712
41.977134
41.265622
40.557449
39.852888
39.152211
38.455686
37.763578
37.076147
36.393647
35.716327
35.044429
34.378189
33.717835
33.063586
32.415657
31.774249
31.139559
30.511774
29.891072
29.277622
28.671583
28.073108
27.482336
26.899401
26.324424
25.75752
25.198791
24.648332
24.106227
23.572551
23.047372
22.530748
22.022731
21.523367
21.032698
20.550763
20.077601
19.613249
19.157745
18.71113
18.273448
17.844745
17.425068
17.014473
16.612999
16.220707
15.837747
15.464185
15.100445
14.747621
14.405562
14.078201
13.766509
13.47694
13.232668
13.052664
12.965101
13.008879
13.230915
13.682784
14.410081
15.432472
16.736149
18.267774
19.942572
21.662641
23.331227
24.871335
26.230178
27.382161
28.325675
29.068414
29.636227
30.05065
30.341705
30.533302
30.655041
30.710026
30.722929
30.700326
30.63663
30.533573
30.39485
30.230519
29.96949
52.87768
52.146852
51.415271
50.683347
49.951442
49.219865
48.488879
47.758726
47.02963
46.301817
45.575517
44.850971
44.128428
43.408145
42.690388
41.975423
41.263521
40.554955
39.849994
39.148907
38.451961
37.759416
37.071531
36.388557
35.710739
35.038317
34.371522
33.71058
33.055708
32.407112
31.764994
31.129546
30.500948
29.879376
29.264993
28.657955
28.058406
27.466484
26.882314
26.306015
25.737694
25.17745
24.625371
24.081536
23.546017
23.018874
22.500162
21.989926
21.488208
20.995041
20.510457
20.034484
19.567149
19.108478
18.658497
18.217235
17.78472
17.360983
16.94605
16.539945
16.142686
15.754297
15.374801
15.004257
14.642854
14.290722
13.9485
13.616859
13.297297
12.994431
12.706188
12.451637
12.248576
12.119379
12.097315
12.225507
12.553858
13.131661
13.991608
15.132527
16.515562
18.065381
19.687078
21.283697
22.773011
24.099128
25.228498
26.156511
26.890101
27.451769
27.864031
28.153374
28.344029
28.465107
28.525904
28.539921
28.526482
28.475369
28.406874
28.266998
52.880882
52.15009
51.418482
50.686459
49.954386
49.222579
48.491319
47.760861
47.031444
46.303304
45.576679
44.851813
44.128958
43.408372
42.690319
41.975064
41.262878
40.55403
39.84879
39.147423
38.450195
37.757365
37.069189
36.385917
35.707791
35.03505
34.367923
33.706633
33.051393
32.402411
31.759884
31.124001
30.494941
29.872875
29.257965
28.650361
28.050207
27.457635
26.872769
26.295722
25.726598
25.165491
24.612486
24.067659
23.531076
23.002794
22.482862
21.971322
21.468206
20.973546
20.487362
20.009676
19.540503
19.079857
18.627752
18.1842
17.749214
17.322806
16.904985
16.495759
16.095126
15.703085
15.319626
14.944742
14.578444
14.220752
13.871761
13.531636
13.200717
12.879928
12.569753
12.273391
11.994674
11.73676
11.5202
11.363796
11.295742
11.354993
11.589309
12.049314
12.775993
13.779564
15.032903
16.470007
17.999412
19.525018
20.960468
22.245392
23.344085
24.24801
24.964797
25.512711
25.917308
26.198714
26.386089
26.503544
26.568128
26.586917
26.594091
26.549225
52.884208
52.153479
51.421878
50.689798
49.957604
49.22562
48.494138
47.763426
47.033739
46.305321
45.578417
44.853279
44.130158
43.409316
42.691015
41.975523
41.263107
40.554036
39.848579
39.147
38.449563
37.756526
37.068144
36.384664
35.70633
35.033377
34.366033
33.70452
33.049051
32.39983
31.757053
31.120908
30.491572
29.869215
29.253995
28.646064
28.045559
27.452614
26.867348
26.289873
25.72029
25.158691
24.605158
24.059764
23.522572
22.993637
22.473004
21.96071
21.456787
20.961257
20.474139
19.995445
19.525185
19.063364
18.609984
18.165046
17.728551
17.300496
16.880877
16.469684
16.066906
15.672523
15.28651
14.90884
14.539482
14.178408
13.825602
13.481064
13.144838
12.817078
12.497978
12.188144
11.888624
11.600767
11.328784
11.073692
10.851316
10.678626
10.579651
10.589411
10.752933
11.12107
11.739473
12.6289
13.771268
15.109019
16.554188
18.010289
19.389563
20.628347
21.690392
22.563691
23.25748
23.785291
24.175327
24.446156
24.628773
24.743659
24.823693
24.851068
52.887617
52.156967
51.425393
50.693282
49.960999
49.228873
48.497206
47.766278
47.036354
46.307689
45.580538
44.855154
44.131796
43.410724
42.692203
41.9765
41.263884
40.554621
39.848979
39.147223
38.449615
37.756412
37.067868
36.38423
35.705739
35.03263
34.365131
33.703462
33.047834
32.398452
31.755511
31.119195
30.489684
29.867143
29.251732
28.643599
28.042883
27.449713
26.864209
26.286481
25.716628
25.154741
24.600901
24.055177
23.517633
22.98832
22.467281
21.954553
21.450162
20.95413
20.46647
19.987192
19.5163
19.053793
18.599667
18.153915
17.716528
17.287494
16.866799
16.454422
16.05034
15.654523
15.266937
14.887539
14.516284
14.153126
13.798016
13.450907
13.111764
12.78057
12.457335
12.142141
11.835202
11.536879
11.248071
10.969683
10.70485
10.456828
10.233431
10.051694
9.9323681
9.9069127
10.017584
10.314891
10.847165
11.643151
12.692431
13.94376
15.312487
16.702154
18.024779
19.214462
20.235425
21.07276
21.736563
22.240116
22.612829
22.872523
23.063096
23.17942
52.891083
52.160518
51.428983
50.696859
49.964509
49.232267
48.500441
47.769323
47.039188
46.310301
45.582922
44.857312
44.133732
43.412447
42.693722
41.977824
41.265022
40.555584
39.849775
39.14786
38.4501
37.756753
37.06807
36.384298
35.705677
35.032443
34.36482
33.70303
33.047283
32.397781
31.75472
31.118284
30.48865
29.865985
29.250445
28.64218
28.041326
27.448013
26.86236
26.284474
25.714455
25.152393
24.598366
24.052445
23.51469
22.985152
22.463874
21.95089
21.446225
20.949899
20.461923
19.982305
19.511044
19.048137
18.593577
18.14735
17.709443
17.279837
16.85851
16.445435
16.040582
15.643913
15.255384
14.874946
14.502546
14.138124
13.781621
13.432972
13.092116
12.758994
12.433551
12.115751
11.805586
11.503095
11.20843
10.921842
10.643986
10.375882
10.119557
9.8793376
9.6585287
9.4729117
9.3409908
9.2911504
9.3632532
9.6067814
10.071852
10.792709
11.765019
12.942371
14.242906
15.570298
16.836981
17.975617
18.950771
19.747712
20.378614
20.856317
21.225219
21.475
52.894585
52.164108
51.432618
50.700493
49.968092
49.235752
48.50379
47.772503
47.042176
46.313083
45.585493
44.85967
44.135882
43.414394
42.695474
41.97939
41.266411
40.556805
39.850838
39.148774
38.450873
37.757391
37.068581
36.384688
35.705952
35.032607
34.364878
33.702985
33.047138
32.39754
31.754383
31.117854
30.488126
29.865367
29.249734
28.641374
28.040424
27.447013
26.861257
26.283267
25.713139
25.150963
24.596817
24.050771
23.512885
22.983209
22.461784
21.948644
21.443814
20.947312
20.459148
19.979327
19.507849
19.044708
18.589893
18.143389
17.705177
17.275236
16.85354
16.440057
16.034751
15.63758
15.248496
14.867442
14.49436
14.129185
13.771849
13.42228
13.080405
12.74615
12.41944
12.100205
11.788379
11.483909
11.186766
10.896957
10.614574
10.339834
10.073203
9.8156987
9.5686671
9.3356734
9.120237
8.9347582
8.7960868
8.7302382
8.7749374
8.9785471
9.392258
10.054029
10.964168
12.079536
13.320321
14.589989
15.801274
16.886807
17.814504
18.569245
19.182444
19.63842
52.89811
52.16772
51.436279
50.70416
49.971719
49.239297
48.507213
47.775775
47.045273
46.31599
45.5882
44.862176
44.138188
43.416504
42.697395
41.981131
41.267981
40.558212
39.852091
39.149881
38.451843
37.758233
37.069301
36.385293
35.706449
35.033001
34.365175
33.703189
33.047253
32.397569
31.75433
31.11772
30.487915
29.86508
29.249372
28.640938
28.039914
27.446429
26.860599
26.282533
25.712328
25.150073
24.595847
24.049717
23.511744
22.981977
22.460458
21.947219
21.442286
20.945674
20.457395
19.977451
19.505843
19.042561
18.587594
18.140925
17.702534
17.272396
16.850482
16.436759
16.031188
15.633721
15.244309
14.862892
14.489407
14.123785
13.765954
13.415837
13.073356
12.738429
12.410973
12.090905
11.778143
11.472605
11.174216
10.88291
10.598639
10.32139
10.051214
9.7882897
9.5329569
9.2860168
9.0486625
8.8238067
8.6153595
8.4324795
8.2912379
8.215517
8.2414935
8.4163069
8.7920366
9.4087408
10.270518
11.335408
12.524432
13.740026
14.898326
15.930598
16.82979
17.551597
52.901646
52.171341
51.43995
50.707841
49.97537
49.242876
48.510685
47.779109
47.048446
46.318985
45.591008
44.864792
44.140611
43.418738
42.699446
41.983005
41.269685
40.559756
39.853483
39.15113
38.452958
37.75922
37.070169
36.386049
35.707099
35.033552
34.365632
33.703557
33.047537
32.397774
31.754459
31.117777
30.487902
29.865001
29.249228
28.640731
28.039646
27.4461
26.860211
26.282086
25.711822
25.149508
24.595221