/*--------------------------------*- C++ -*----------------------------------*\
| =========                 |                                                 |
| \\      /  F ield         | OpenFOAM: The Open Source CFD Toolbox           |
|  \\    /   O peration     | Version:  2206                                  |
|   \\  /    A nd           | Website:  www.openfoam.com                      |
|    \\/     M anipulation  |                                                 |
\*---------------------------------------------------------------------------*/
FoamFile
{
    version     2.0;
    format      ascii;
    arch        "LSB;label=32;scalar=64";
    class       volScalarField;
    location    "1800";
    object      p;
}
// * * * * * * * * * * * * * * * * * * * * * * * * * * * * * * * * * * * * * //

dimensions      [0 2 -2 0 0 0 0];

internalField   nonuniform List<scalar> 
7480
(
0.054747238
0.042488653
0.028362397
0.016550798
0.0059406299
0.0004925247
-0.00076331503
0.00025224704
0.0018047039
0.0028346399
0.0033098345
0.003512656
0.0036036969
0.0036326334
0.0036347649
0.0036395464
0.0036473978
0.0036412238
0.0036250102
0.0036074536
0.0035872962
0.003560361
0.003529492
0.0034980499
0.0034647692
0.0034272541
0.0033869283
0.0033453551
0.0033016539
0.0032550241
0.0032065828
0.0031571024
0.0031059697
0.0030529938
0.0029990298
0.0029446816
0.0028899943
0.0028356232
0.0027827945
0.0027325275
0.0026856686
0.0026437646
0.0026093157
0.0025847456
0.0025743388
0.0025818173
0.0026116688
0.0026637747
0.0027369904
0.002831732
0.0029461793
0.0030774459
0.0032210541
0.0033707069
0.0035242156
0.0036751727
0.0038055203
0.00390245
0.0039578664
0.0039749339
0.00395604
0.0039073478
0.0038378673
0.0037546443
0.0036627971
0.0035663584
0.003468712
0.0033711653
0.0032746417
0.003179694
0.0030864455
0.0029943981
0.0029035722
0.0028139526
0.0027247556
0.0026365713
0.0025484877
0.0024583834
0.0023666875
0.0022735356
0.0021797433
0.002084907
0.0019878747
0.0018897162
0.0017895277
0.0016879595
0.0015848351
0.001480218
0.0013747303
0.0012679641
0.001161222
0.0010541875
0.00094868809
0.00084410089
0.00074726564
0.00064468768
0.00059320325
0.00031162969
0.00083920234
-0.00087618528
0.049770148
0.039252676
0.027296781
0.016402157
0.0065416695
0.0012936697
-5.6701947e-05
0.00072161772
0.0020314658
0.0029584402
0.0033874877
0.0035718123
0.0036545032
0.0036766381
0.0036747169
0.0036777222
0.0036795824
0.0036683071
0.0036490945
0.0036291615
0.003606823
0.0035779044
0.0035454032
0.0035125584
0.0034779925
0.0034393129
0.003397982
0.0033555114
0.003310975
0.0032635819
0.0032144599
0.0031643557
0.0031126379
0.0030591205
0.0030046589
0.0029498446
0.0028947151
0.0028399264
0.0027867006
0.00273605
0.0026888172
0.002646549
0.002611743
0.0025868165
0.0025761135
0.0025834771
0.0026128072
0.0026644696
0.0027373633
0.0028317941
0.0029459595
0.0030769843
0.0032203937
0.0033699004
0.0035233231
0.003674247
0.0038046167
0.0039016489
0.003957222
0.0039744565
0.0039557622
0.0039072467
0.0038379075
0.0037547964
0.0036630312
0.0035666487
0.0034690374
0.0033715097
0.0032749935
0.0031800451
0.0030867906
0.0029947339
0.0029038966
0.0028142645
0.0027250547
0.0026368581
0.0025487683
0.0024586632
0.0023669641
0.0022738061
0.0021800071
0.0020851644
0.0019881265
0.0018899629
0.0017897693
0.0016881962
0.0015850668
0.0014804444
0.0013749512
0.0012681795
0.0011614317
0.0010543914
0.00094888633
0.00084429339
0.00074745372
0.00064486781
0.00059344943
0.00031260952
0.00084141679
-0.00087575944
0.045710456
0.037571911
0.026933695
0.016676747
0.0079166618
0.0028222414
0.0011159122
0.0013832527
0.0023676887
0.0031426234
0.0035083285
0.003672602
0.0037425874
0.0037497026
0.0037386917
0.0037346138
0.0037279658
0.0037094294
0.00368545
0.0036618237
0.0036358813
0.0036035768
0.0035685182
0.0035335291
0.0034969077
0.0034563785
0.0034135648
0.0033698218
0.0033240797
0.0032755891
0.0032255343
0.0031745941
0.003122084
0.0030678416
0.0030127346
0.0029573244
0.0029016315
0.0028463229
0.0027926171
0.0027415097
0.0026938347
0.002651144
0.0026159321
0.0025906065
0.0025795584
0.0025868975
0.0026157269
0.0026667224
0.0027392509
0.0028332959
0.0029470894
0.003077763
0.0032208429
0.0033700595
0.0035232651
0.0036740221
0.0038042495
0.0039012441
0.0039569141
0.0039742501
0.0039557725
0.003907451
0.0038382754
0.0037553028
0.0036636412
0.0035673292
0.0034697606
0.0033722514
0.0032757368
0.0031807778
0.0030875044
0.0029954233
0.002904559
0.0028148979
0.0027256583
0.0026374325
0.0025493137
0.0024591864
0.0023674711
0.0022742954
0.0021804791
0.00208562
0.0019885672
0.0018903907
0.0017901848
0.0016886002
0.0015854595
0.0014808261
0.001375322
0.0012685392
0.0011617807
0.0010547295
0.00094921417
0.00084461035
0.00074776336
0.00064516061
0.00059384947
0.00031418447
0.00084534101
-0.00087519383
0.042989913
0.036270698
0.026579232
0.016976672
0.0092033723
0.0042850386
0.002197466
0.0020768343
0.002759355
0.0033798447
0.003690057
0.0038299918
0.0038768835
0.0038543797
0.0038228574
0.003806978
0.0037897909
0.0037608086
0.0037302481
0.0037023203
0.0036719231
0.0036350733
0.0035967968
0.0035592153
0.0035199579
0.0034769857
0.0034323635
0.0033871555
0.0033399868
0.0032902076
0.0032391475
0.0031873481
0.0031340099
0.0030790274
0.0030233068
0.0029673501
0.0029111478
0.0028554053
0.0028013412
0.0027499157
0.0027019454
0.0026589984
0.0026235655
0.0025980422
0.0025867347
0.0025944756
0.002623209
0.0026734553
0.0027457101
0.0028394028
0.0029527751
0.0030829779
0.0032255303
0.0033741911
0.0035268734
0.0036770968
0.0038067853
0.0039032618
0.0039587385
0.0039758606
0.0039573213
0.0039090137
0.0038398731
0.003756951
0.0036653305
0.0035690405
0.0034714734
0.0033739418
0.0032773878
0.0031823769
0.0030890422
0.0029968936
0.0029059601
0.0028162282
0.002726917
0.0026386212
0.0025504013
0.002460175
0.0023684031
0.0022751802
0.0021813203
0.0020864202
0.00198933
0.0018911212
0.0017908853
0.0016892738
0.0015861077
0.0014814504
0.0013759236
0.0012691188
0.0011623396
0.0010552679
0.00094973359
0.00084511011
0.00074824938
0.00064561921
0.00059446445
0.00031667699
0.00085176451
-0.00087415205
0.04052104
0.034677365
0.025954768
0.017329222
0.010271422
0.0054915883
0.0032363176
0.0028452446
0.0032353447
0.0036784956
0.0039116828
0.0040010293
0.0040159484
0.0039755795
0.0039331426
0.00390764
0.0038776153
0.0038329768
0.0037914894
0.0037567354
0.0037198864
0.0036766859
0.0036341554
0.0035934415
0.0035509243
0.0035047463
0.0034577823
0.0034106888
0.003361613
0.0033100994
0.0032577509
0.0032048878
0.0031505226
0.0030946564
0.0030382685
0.0029817571
0.0029250495
0.0028689263
0.0028146262
0.0027630409
0.0027149504
0.0026719495
0.0026365209
0.0026110267
0.0025997647
0.0026080975
0.0026368675
0.002686583
0.0027585615
0.0028518285
0.0029646403
0.0030941568
0.0032358774
0.0033836112
0.0035354074
0.0036847828
0.0038134864
0.0039088412
0.0039637608
0.0039802459
0.0039612125
0.0039126617
0.0038433582
0.0037603382
0.0036686423
0.0035722793
0.0034746337
0.0033770067
0.0032803453
0.0031852173
0.0030917574
0.0029994786
0.0029084167
0.0028185563
0.0027291162
0.0026406941
0.0025523091
0.0024619215
0.0023700412
0.002276723
0.002182776
0.0020877944
0.0019906292
0.0018923547
0.001792058
0.0016903924
0.0015871759
0.001482472
0.0013769019
0.0012700557
0.0011632383
0.0010561295
0.00095056116
0.0008459035
0.00074901645
0.00064634552
0.00059540732
0.00032037888
0.00086125827
-0.00087205353
0.038207674
0.033085258
0.02536662
0.017641148
0.011156313
0.0065886769
0.0042353765
0.003592474
0.0037328965
0.0040008482
0.0041460044
0.0041832242
0.0041672654
0.0041126541
0.0040569284
0.0040129537
0.0039675145
0.0039130975
0.0038648305
0.0038241667
0.0037797502
0.0037286482
0.0036801951
0.0036352537
0.0035886432
0.0035385572
0.0034888824
0.0034396946
0.003388444
0.003334918
0.0032811174
0.0032270642
0.0031715328
0.0031147197
0.0030577494
0.0030008663
0.0029437716
0.0028873133
0.0028328544
0.0027812239
0.0027331537
0.0026902768
0.0026550674
0.0026298237
0.0026188987
0.0026276261
0.0026562511
0.0027056329
0.0027770857
0.002869651
0.0029816394
0.0031101884
0.0032507437
0.0033971776
0.0035477451
0.0036958954
0.0038231149
0.0039168903
0.0039710479
0.003986626
0.003966815
0.0039179234
0.0038483772
0.0037651906
0.003673355
0.0035768595
0.0034790822
0.003381308
0.0032844899
0.0031891965
0.0030955606
0.003003103
0.0029118705
0.0028218397
0.0027322272
0.0026436342
0.0025550635
0.0024645022
0.0023724747
0.0022790131
0.0021849327
0.0020898254
0.001992543
0.0018941645
0.0017937712
0.0016920188
0.0015887217
0.0014839438
0.0013783053
0.001271394
0.0011645165
0.0010573508
0.00095173
0.00084702113
0.00075009093
0.0006473672
0.00059671512
0.00032541552
0.0008739385
-0.000868429
0.036106634
0.03160678
0.024814016
0.017870626
0.011914288
0.0075868862
0.0051713455
0.0043005838
0.0042169782
0.0043315055
0.0043915681
0.0043787665
0.0043308072
0.0042581792
0.0041850497
0.0041223594
0.0040630875
0.0040006208
0.0039442857
0.0038939354
0.0038411111
0.0037847661
0.0037322098
0.0036833317
0.0036320946
0.0035775873
0.0035246234
0.003472734
0.0034187879
0.0033628999
0.0033074891
0.0032521535
0.0031953357
0.0031375012
0.0030799708
0.0030227628
0.0029653205
0.0029086251
0.0028541824
0.0028027253
0.0027549233
0.0027124773
0.002677878
0.0026534481
0.0026426946
0.0026508644
0.0026792779
0.0027285526
0.0027995697
0.0028914431
0.003002483
0.003129772
0.0032688038
0.0034136825
0.0035619231
0.0037071092
0.0038321631
0.0039244464
0.003978221
0.0039930985
0.0039726607
0.0039236569
0.0038540413
0.003770813
0.0036789176
0.0035823391
0.0034844587
0.0033865473
0.0032895718
0.0031941055
0.0031002808
0.0030076271
0.0029162045
0.0028259802
0.0027361684
0.0026473754
0.002558596
0.0024678416
0.002375639
0.0022819985
0.0021877475
0.0020924767
0.0019950398
0.0018965223
0.0017959986
0.0016941284
0.0015907215
0.0014858425
0.0013801105
0.0012731108
0.0011661521
0.0010589095
0.00095321775
0.00084844078
0.00075144932
0.00064866294
0.0005983639
0.00033173045
0.00088945883
-0.00086321312
0.034208091
0.030225028
0.024247339
0.018014169
0.012560958
0.0084780418
0.0060340083
0.0049778254
0.0046989885
0.0046721871
0.0046472683
0.0045832204
0.0045011147
0.0044070945
0.0043161625
0.0042368216
0.0041641975
0.0040923081
0.0040262437
0.0039659318
0.0039058745
0.003844867
0.0037875254
0.0037330609
0.0036770103
0.0036193282
0.0035637846
0.0035092041
0.0034522782
0.0033937464
0.0033364668
0.0032796009
0.0032210804
0.0031617529
0.0031032956
0.0030454062
0.0029873316
0.00293028
0.0028758431
0.0028246118
0.0027771753
0.0027353313
0.0027016086
0.002678347
0.0026678196
0.0026751575
0.0027032347
0.0027524771
0.0028231788
0.0029144159
0.003024409
0.0031501458
0.0032874248
0.0034308159
0.0035757746
0.0037165094
0.0038390189
0.003930188
0.0039840417
0.0039986082
0.0039779144
0.003929143
0.0038597296
0.0037766746
0.0036848831
0.0035883438
0.0034904468
0.0033924533
0.0032953576
0.0031997436
0.0031057472
0.0030129038
0.0029212878
0.0028308605
0.0027408341
0.0026518231
0.0025628131
0.0024718439
0.0023794468
0.0022856033
0.0021911549
0.0020956915
0.0019980698
0.0018993843
0.0017987014
0.0016966862
0.0015931435
0.0014881389
0.0013822907
0.0012751815
0.0011681223
0.0010607844
0.00095500399
0.0008501429
0.00075307206
0.0006502149
0.00060032054
0.00033919881
0.00090729148
-0.00085658359
0.032487532
0.028933668
0.023672943
0.018093472
0.013111018
0.009268926
0.0068279252
0.0056266887
0.0051774829
0.0050191026
0.0049105895
0.0047944602
0.0046772988
0.0045602389
0.0044507439
0.004354919
0.0042684776
0.0041860729
0.0041104514
0.0040411411
0.0039739396
0.0039074578
0.003844571
0.0037844967
0.0037241868
0.0036634242
0.0036047487
0.0035468165
0.0034870541
0.0034265232
0.0033676366
0.0033091047
0.0032486612
0.0031876537
0.0031280787
0.0030693067
0.0030103766
0.002952633
0.0028977409
0.0028462631
0.0027987459
0.0027570888
0.0027238654
0.0027013073
0.0026913164
0.0026985967
0.0027263052
0.0027751242
0.0028452063
0.0029356243
0.003044509
0.0031687549
0.0033044248
0.0034464063
0.0035885815
0.0037251214
0.0038447214
0.0039347328
0.0039885562
0.0040030097
0.003982374
0.0039340787
0.003865058
0.0037823683
0.0036908588
0.0035944946
0.003496686
0.0033986926
0.0033015431
0.0032058314
0.0031116993
0.0030186931
0.002926904
0.0028362851
0.002746047
0.0026568169
0.0025675676
0.0024763733
0.0023837738
0.0022897157
0.0021950559
0.0020993826
0.0020015564
0.0019026833
0.0018018206
0.0016996405
0.0015959418
0.0014907922
0.0013848094
0.0012775729
0.0011703968
0.0010629476
0.00095706313
0.0008521039
0.00075493664
0.00065200252
0.00060254205
0.00034767248
0.0009268528
-0.00084859535
0.03092435
0.027734034
0.023102244
0.018118642
0.013572386
0.0099664319
0.0075551834
0.0062435817
0.0056471836
0.0053683925
0.005179819
0.0050120622
0.0048593316
0.0047178561
0.0045891425
0.0044764779
0.0043760258
0.0042825149
0.0041968815
0.0041186992
0.0040441223
0.0039716512
0.0039033081
0.0038380683
0.0037734628
0.0037091217
0.0036470217
0.0035858742
0.0035235188
0.0034609535
0.0034000034
0.0033393974
0.0032772376
0.0032149905
0.0031544195
0.0030946527
0.0030347108
0.0029760705
0.0029205236
0.0028685649
0.0028206408
0.0027787367
0.0027454709
0.0027229072
0.0027129541
0.002720081
0.0027473164
0.0027954428
0.0028646699
0.0029541213
0.0030619053
0.0031848691
0.0033191204
0.0034596303
0.0035999275
0.0037337288
0.0038508326
0.0039387931
0.0039915727
0.0040060196
0.0039856732
0.0039379766
0.0038695276
0.0037874356
0.0036964073
0.0036003435
0.0035027433
0.0034048692
0.0033077566
0.0032120173
0.0031178122
0.0030247
0.0029327851
0.0028420095
0.0027515845
0.0026621535
0.0025726742
0.0024812615
0.0023884665
0.0022941961
0.0021993251
0.0021034387
0.0020054014
0.0019063327
0.0018052803
0.0017029246
0.001599058
0.0014937511
0.0013876212
0.0012802445
0.0011729392
0.0010653663
0.00095936538
0.0008542966
0.00075701767
0.00065400267
0.00060497976
0.00035700603
0.00094757152
-0.00083916803
0.029501106
0.026623852
0.022540175
0.018094504
0.013952314
0.010577439
0.0082172235
0.0068257491
0.0061050074
0.0057179335
0.0054537421
0.0052352825
0.005046688
0.0048797287
0.0047311699
0.0046014038
0.0044866375
0.0043816025
0.004285823
0.004198629
0.0041165794
0.0040378688
0.0039636977
0.0038932463
0.0038242904
0.0037561316
0.0036906211
0.0036264482
0.0035614354
0.0034965197
0.0034333787
0.0033708752
0.0033071621
0.0032436311
0.0031817229
0.0031207492
0.0030598937
0.0030005156
0.0029444047
0.0028919285
0.0028434915
0.0028011491
0.0027675802
0.0027446603
0.0027342386
0.002740742
0.002767196
0.0028143162
0.0028823083
0.0029704055
0.0030767539
0.003198188
0.0033308328
0.0034697554
0.0036085361
0.0037407722
0.0038563248
0.0039423976
0.0039942554
0.0040086921
0.0039879294
0.0039404049
0.0038727556
0.0037914959
0.0037010733
0.003605444
0.0035082287
0.003410628
0.0033136398
0.0032179552
0.0031237755
0.0030306362
0.0029386553
0.0028477746
0.0027572061
0.0026676092
0.0025779273
0.0024863225
0.0023933559
0.0022988911
0.0022038251
0.002107738
0.0020094969
0.001910238
0.0018089977
0.0017064662
0.0016024293
0.0014969607
0.0013906779
0.001283154
0.0011757119
0.0010680071
0.00096188062
0.00085669379
0.00075928991
0.00065619242
0.00060758371
0.0003670656
0.00096891237
-0.00082816372
0.028202569
0.025598229
0.021990467
0.018027471
0.014259335
0.011109189
0.0088163649
0.0073717454
0.0065485455
0.0060654517
0.0057306048
0.0054628867
0.005238572
0.0050454847
0.0048765984
0.0047295588
0.0046002405
0.0044833561
0.0043772804
0.0042809337
0.0041911952
0.0041060165
0.0040259112
0.0039501616
0.003876738
0.0038047783
0.0037356025
0.003668151
0.0036005202
0.0035331711
0.003467828
0.0034034964
0.0033381795
0.0032731682
0.0032098596
0.0031478302
0.0030861541
0.0030260109
0.0029691525
0.0029160624
0.0028671777
0.0028244147
0.0027904874
0.0027671259
0.0027561287
0.002761824
0.0027872511
0.0028330701
0.0028994454
0.0029857533
0.0030902011
0.0032096277
0.0033402137
0.0034771872
0.003614218
0.0037447797
0.0038588472
0.0039440411
0.0039958771
0.0040105186
0.003989676
0.0039425003
0.0038756234
0.0037946277
0.003704493
0.003609507
0.0035128797
0.0034156284
0.0033188543
0.003223356
0.003129327
0.0030362275
0.0029442416
0.0028533282
0.0027626693
0.0026729528
0.0025831161
0.0024913653
0.0023982671
0.0023036424
0.0022084152
0.0021121545
0.002013731
0.0019143011
0.0018128872
0.0017101908
0.0016059906
0.0015003645
0.0013939305
0.0012862584
0.0011786773
0.0010708365
0.00096457908
0.00085926874
0.00076172876
0.00065854963
0.00061030413
0.00037772636
0.00099036446
-0.00081541704
0.027015381
0.024651366
0.021456464
0.017924312
0.014501275
0.011568183
0.0093551557
0.0078805318
0.0069753608
0.0064085012
0.0060085504
0.005693656
0.0054342441
0.0052147766
0.0050252354
0.0048607988
0.0047167543
0.0045877369
0.0044711933
0.0043655717
0.0042679514
0.0041761152
0.004089989
0.0040088374
0.0039308049
0.0038549132
0.0037819783
0.0037111818
0.0036408418
0.0035711328
0.0035034589
0.0034370258
0.0033700992
0.0033036187
0.003238911
0.0031758157
0.0031132846
0.0030522867
0.0029946554
0.0029410471
0.0028917584
0.0028485267
0.0028141478
0.0027903213
0.0027787776
0.00278365
0.0028079711
0.0028523443
0.0029169108
0.0030011805
0.0031034198
0.003220463
0.0033485613
0.003483131
0.0036179474
0.0037463989
0.0038586966
0.0039430407
0.0039946909
0.0040097752
0.0039898965
0.0039439153
0.0038778939
0.0037972068
0.0037076296
0.0036133538
0.0035168327
0.0034195831
0.0033231841
0.0032280378
0.0031341928
0.0030411827
0.0029492967
0.0028584482
0.0027677461
0.0026779721
0.0025880546
0.0024962111
0.0024030316
0.0023082987
0.0022129575
0.0021165608
0.0020179897
0.0019184212
0.0018168588
0.0017140192
0.0016096728
0.0015039021
0.0013973261
0.0012895117
0.001181795
0.0010738192
0.0009674296
0.00086199372
0.00076430896
0.00066105177
0.00061309121
0.00038886535
0.0010114083
-0.00080074894
0.025927778
0.023777143
0.020940578
0.017791193
0.014685154
0.011960494
0.0098364724
0.0083515783
0.0073833251
0.0067448515
0.0062858533
0.0059264089
0.0056329292
0.0053871701
0.0051768143
0.0049949241
0.0048360488
0.0046946773
0.0045675144
0.0044525161
0.0043468535
0.0042481814
0.0041559254
0.0040692678
0.0039864955
0.0039065335
0.0038297908
0.0037555901
0.0036824338
0.0036102817
0.0035402052
0.0034716177
0.0034030359
0.0033350999
0.0032689858
0.0032046306
0.0031411479
0.0030793541
0.0030209488
0.0029667911
0.002917072
0.0028733288
0.002838509
0.0028142619
0.0028021534
0.0028061484
0.0028292885
0.0028721749
0.0029349222
0.0030170959
0.0031170001
0.0032314714
0.0033568408
0.0034887033
0.0036209432
0.0037468939
0.0038570352
0.00394019
0.0039912991
0.0040066835
0.0039878607
0.003943204
0.0038783256
0.003798771
0.0037103358
0.0036167874
0.0035203501
0.0034233195
0.0033273771
0.0032321534
0.0031381386
0.0030453342
0.0029536776
0.0028629119
0.0027722244
0.0026825035
0.0025925888
0.0025006952
0.002407502
0.0023127275
0.0022173186
0.002120832
0.0020221601
0.0019224941
0.0018208171
0.0017178662
0.0016133995
0.0015075055
0.0014008053
0.001292862
0.00118502
0.0010769158
0.00097039755
0.00086483825
0.000767003
0.00066367465
0.00061589463
0.00040035459
0.0010314722
-0.00078398599
0.024929368
0.02296942
0.020444283
0.017633695
0.014817575
0.012291985
0.010263467
0.0087848538
0.0077706772
0.0070724647
0.0065608303
0.0061599122
0.0058337706
0.0055621421
0.0053310109
0.0051317023
0.0049579689
0.0048040932
0.0046661876
0.0045417272
0.0044278857
0.0043222142
0.0042237199
0.0041314624
0.0040438311
0.0039596733
0.0038790605
0.0038013817
0.0037253028
0.0036506106
0.0035780975
0.003507325
0.0034370135
0.0033675646
0.0033000017
0.0032343408
0.0031698753
0.0031072871
0.0030481202
0.0029932727
0.0029430374
0.002898814
0.0028635397
0.0028388873
0.0028261688
0.0028292198
0.0028511693
0.002892585
0.0029535034
0.0030335245
0.0031309991
0.0032428226
0.0033654005
0.0034944506
0.0036239435
0.0037471799
0.0038548997
0.003936562
0.0039867753
0.0040021793
0.0039843769
0.0039408086
0.0038770991
0.0037987973
0.0037114806
0.0036188011
0.0035230852
0.0034267792
0.0033312738
0.0032359083
0.003141913
0.0030493648
0.002957532
0.0028665562
0.002776013
0.0026864445
0.0025965376
0.0025046598
0.0024115624
0.0023168066
0.0022213674
0.0021248573
0.0020261379
0.001926414
0.0018246638
0.0017216414
0.0016170862
0.0015110991
0.0014043011
0.0012962499
0.0011883001
0.0010800806
0.00097344302
0.00086776729
0.00076977964
0.00066639109
0.00061866348
0.00041205594
0.0010498867
-0.00076497759
0.02401095
0.02222226
0.019968303
0.017456819
0.014904746
0.012568228
0.010639396
0.0091807278
0.0081359956
0.0073894732
0.0068318425
0.0063929123
0.0060358707
0.0057391161
0.0054874596
0.0052708728
0.0050823332
0.0049158752
0.0047671377
0.0046331488
0.0045110177
0.0043982047
0.0042933702
0.0041954263
0.0041028256
0.0040143537
0.0039298007
0.0038485725
0.0037694733
0.0036921548
0.0036171652
0.0035441601
0.003472038
0.003401016
0.0033319705
0.0032649831
0.0031994932
0.0031360666
0.0030761087
0.0030205362
0.0029697525
0.0029250944
0.0028892442
0.0028640733
0.0028508042
0.0028529156
0.0028736446
0.002913548
0.0029725863
0.0030503989
0.0031454053
0.0032545616
0.0033743179
0.0035004827
0.0036271151
0.0037475536
0.0038527735
0.0039328184
0.0039819805
0.0039972464
0.0039802078
0.003937494
0.0038747979
0.0037976108
0.0037113413
0.0036195931
0.003524704
0.0034290634
0.0033340395
0.0032390394
0.0031455049
0.0030531717
0.002961105
0.0028701073
0.0027796712
0.0026898565
0.0025997763
0.0025080545
0.002415102
0.0023203731
0.0022249836
0.002128546
0.00202982
0.001930078
0.0018283079
0.0017252536
0.0016206458
0.0015146034
0.0014077405
0.0012996088
0.0011915757
0.0010832605
0.00097651933
0.00087073964
0.00077260232
0.00066916953
0.00062134652
0.00042381777
0.0010658493
-0.00074361323
0.023164358
0.021530063
0.019512781
0.017264933
0.014952422
0.012794483
0.010967565
0.009539931
0.0084782133
0.0076942136
0.0070973345
0.006624169
0.0062383086
0.0059174665
0.0056457463
0.0054121384
0.0052089288
0.0050298858
0.00487027
0.004726711
0.004596208
0.004476135
0.0043648671
0.004261157
0.0041634863
0.0040705898
0.003982025
0.0038971802
0.0038149694
0.0037349405
0.0036574268
0.0035821396
0.0035081332
0.0034354826
0.0033649209
0.0032965751
0.0032300088
0.0031656978
0.0031049196
0.0030486035
0.0029972415
0.0029521113
0.0029156929
0.0028898919
0.0028760184
0.0028772503
0.0028966971
0.0029350143
0.0029921353
0.003067706
0.0031601864
0.0032666367
0.0033835578
0.0035067813
0.0036304934
0.0037481103
0.0038508002
0.0039291586
0.0039772025
0.0039922487
0.00397586
0.0039339022
0.0038721225
0.0037958284
0.0037104712
0.0036195546
0.0035254183
0.0034303713
0.0033358626
0.0032413075
0.0031481618
0.0030560687
0.0029642113
0.0028735437
0.0027831326
0.0026930546
0.0026029978
0.0025112713
0.002418066
0.0023233348
0.0022281368
0.0021317692
0.0020330698
0.0019333916
0.0018316621
0.001728609
0.0016239992
0.0015179435
0.0014110496
0.0013028689
0.0011947824
0.0010863961
0.00097957275
0.00087370696
0.0007754281
0.00067197273
0.00062389285
0.00043547367
0.0010784252
-0.00071984079
0.022382338
0.020887631
0.019077427
0.017061778
0.014965891
0.012975716
0.011251291
0.0098635032
0.0087966074
0.0079852415
0.0073558511
0.006852467
0.0064401446
0.0060965227
0.0058054102
0.0055551662
0.0053375129
0.0051459607
0.0049754703
0.0048223295
0.0046834019
0.0045559761
0.004438193
0.0043286452
0.0042258149
0.0041283931
0.0040357452
0.0039472191
0.0038618109
0.0037789889
0.0036989006
0.0036212836
0.0035453242
0.0034709884
0.003398873
0.0033291334
0.0032614415
0.0031962033
0.0031345761
0.0030774906
0.0030255113
0.0029798648
0.0029428548
0.0029163879
0.002901861
0.0029021893
0.002920309
0.002956984
0.0030121559
0.0030854466
0.0031753614
0.0032790664
0.0033931001
0.0035133251
0.0036340595
0.0037488099
0.003848954
0.003925579
0.0039724988
0.0039873089
0.0039715212
0.0039302761
0.0038693547
0.0037939083
0.0037094365
0.0036191657
0.0035256706
0.0034311256
0.0033370473
0.0032428469
0.0031500318
0.00305821
0.0029666163
0.0028761794
0.002785867
0.0026959416
0.0026061318
0.0025142814
0.0024208875
0.0023263164
0.0022310356
0.0021343974
0.0020358164
0.0019362849
0.0018345977
0.0017316105
0.001627078
0.0015210454
0.0014141569
0.0013059643
0.0011978545
0.0010894251
0.00098254453
0.00087661533
0.00077820816
0.00067475758
0.0006262533
0.00044684376
0.0010866216
-0.00069368325
0.021658433
0.020290195
0.018661644
0.0168505
0.014949968
0.013116594
0.011493864
0.010152731
0.0090907767
0.0082613409
0.0076060516
0.0070766297
0.0066404333
0.0062755797
0.0059659495
0.0056995891
0.0054678136
0.0052639085
0.0050826032
0.0049199041
0.0047725306
0.0046376865
0.0045133216
0.004397875
0.0042898074
0.0041877697
0.0040909696
0.0039987001
0.0039100143
0.0038243201
0.0037416052
0.0036616115
0.0035836332
0.0035075544
0.0034338457
0.0033626771
0.0032938125
0.0032276036
0.0031650961
0.0031072118
0.0030545759
0.0030083717
0.002970741
0.002943581
0.0029283486
0.0029277287
0.0029444887
0.0029794851
0.0030326707
0.0031036389
0.0031909427
0.0032918467
0.0034029326
0.0035201053
0.0036378138
0.003749669
0.0038472687
0.0039220479
0.0039678586
0.0039824313
0.003967167
0.0039266216
0.0038665297
0.0037920261
0.0037084308
0.0036187589
0.0035257528
0.0034317404
0.0033380297
0.0032440249
0.0031514326
0.0030598116
0.0029684127
0.0028781533
0.0027879761
0.0026982227
0.0026085321
0.0025167308
0.0024235588
0.0023292168
0.0022337348
0.002136978
0.0020384851
0.0019387939
0.0018370418
0.0017342373
0.001629777
0.0015238052
0.0014169873
0.0013088281
0.0012007259
0.0010922885
0.00098537507
0.00087941069
0.00078089082
0.00067747709
0.00062838297
0.00045774003
0.0010895759
-0.00066524857
0.020986895
0.019733417
0.018264632
0.016633707
0.014908984
0.013221487
0.011698515
0.010409095
0.0093606161
0.00852153
0.0078467267
0.0072955357
0.006838237
0.0064539095
0.0061268269
0.0058450076
0.0055995296
0.0053835107
0.0051915111
0.0050193171
0.0048635101
0.0047212121
0.0045902169
0.0044688227
0.004355453
0.00424872
0.0041477024
0.0040516305
0.0039595935
0.0038709517
0.0037855575
0.0037031404
0.0036230803
0.0035452009
0.0034698585
0.003397225
0.0033271412
0.0032599171
0.0031964956
0.0031377823
0.0030844511
0.003037647
0.0029993653
0.0029714791
0.0029554882
0.0029538767
0.0029692477
0.0030025271
0.0030536833
0.0031222858
0.0032069332
0.0033049838
0.0034130697
0.0035271416
0.003641776
0.0037506967
0.0038457332
0.0039185888
0.00396328
0.0039775984
0.0039628137
0.0039229563
0.0038636877
0.0037901236
0.0037073516
0.0036184747
0.0035258145
0.0034323978
0.0033389954
0.003245143
0.0031527056
0.003061174
0.0029698628
0.0028797007
0.002789601
0.0026999624
0.0026103531
0.0025186594
0.0024256809
0.0023314577
0.0022360513
0.0021395281
0.0020410484
0.0019411951
0.0018395333
0.0017366816
0.0016319938
0.00152617
0.0014194666
0.0013113582
0.0012033223
0.0010949244
0.00098800525
0.00088204465
0.00078342578
0.00068008491
0.00063024739
0.00046797552
0.0010867636
-0.00063472665
0.020362603
0.019213376
0.017885475
0.016413534
0.014846799
0.013294454
0.011868387
0.010634222
0.0096062868
0.0087650606
0.0080768101
0.0075081322
0.007032638
0.0066307709
0.0062874754
0.0059909912
0.0057323318
0.0055045218
0.0053020136
0.0051204329
0.0049562413
0.0048064849
0.0046688324
0.0045414564
0.0044227332
0.004311238
0.0042059431
0.0041060145
0.0040105587
0.0039188986
0.0038307725
0.0037458859
0.0036636844
0.0035839475
0.0035069298
0.0034327951
0.0033614462
0.0032931617
0.0032287914
0.0031692176
0.0031151518
0.0030677047
0.003028739
0.0030000912
0.0029832902
0.002980644
0.0029945941
0.0030261161
0.0030751992
0.0031413941
0.0032233404
0.0033184871
0.0034235215
0.0035344432
0.0036459536
0.0037519055
0.0038443034
0.0039152402
0.0039587841
0.003972813
0.0039584577
0.0039192743
0.0038608374
0.0037882107
0.0037062509
0.0036181723
0.0035259351
0.0034330552
0.0033399538
0.0032463295
0.0031540193
0.0030625181
0.0029712565
0.0028811108
0.0027909806
0.0027013651
0.0026117735
0.0025201425
0.0024273063
0.0023331903
0.0022379255
0.0021415477
0.0020431278
0.0019434254
0.0018419837
0.0017389764
0.0016342082
0.0015284613
0.0014215985
0.0013135001
0.0012056034
0.0010972383
0.00099036957
0.00088446226
0.00078576076
0.00068253625
0.0006318304
0.0004773782
0.0010780912
-0.00060238854
0.01978099
0.018726542
0.017523192
0.016191705
0.014766823
0.013339241
0.012006514
0.010829848
0.0098281831
0.0089914116
0.0082953876
0.0077134477
0.0072227504
0.0068054199
0.0064473061
0.0061370824
0.0058658647
0.0056266708
0.0054139069
0.0052230969
0.0050506084
0.004893423
0.00474911
0.0046157348
0.0044916221
0.0043753107
0.0042656864
0.0041618515
0.0040629165
0.0039681726
0.0038772628
0.0037898616
0.0037054622
0.0036238124
0.0035450772
0.003469404
0.0033967452
0.0033273549
0.0032619996
0.0032015324
0.0031466922
0.0030985582
0.0030588731
0.0030294273
0.0030117651
0.0030080393
0.0030205345
0.0030502586
0.0030972257
0.0031609712
0.0032401722
0.0033323649
0.0034342964
0.0035420185
0.0036503565
0.0037533061
0.003842993
0.003912015
0.0039543772
0.0039680794
0.0039541018
0.0039155769
0.0038579687
0.0037862775
0.0037051497
0.0036177774
0.0035261718
0.0034337249
0.003340916
0.0032475438
0.0031553609
0.0030639377
0.0029727421
0.0028825539
0.0027923393
0.0027026899
0.0026130228
0.0025213609
0.0024285913
0.0023345394
0.0022393859
0.0021431117
0.0020447841
0.0019452294
0.0018438999
0.0017409623
0.0016364207
0.0015306688
0.0014236897
0.0013156486
0.0012076625
0.0010991823
0.00099245367
0.00088657067
0.00078782369
0.0006847722
0.00063311605
0.00048581186
0.0010638569
-0.00056861272
0.019237987
0.018269752
0.01717679
0.015969604
0.01467204
0.013359282
0.012115802
0.010997773
0.010026899
0.0092002776
0.0085017035
0.0079106029
0.0074077315
0.0069771207
0.0066057156
0.0062828011
0.0059997486
0.0057496622
0.005526965
0.0053271353
0.0051464793
0.0049819292
0.0048309794
0.0046916066
0.0045620848
0.004440918
0.004326921
0.0042191369
0.004116669
0.0040187818
0.0039250388
0.0038350791
0.0037484289
0.0036648123
0.0035843169
0.0035070678
0.0034330548
0.0033625136
0.0032961354
0.0032347408
0.0031790858
0.0031302204
0.0030897784
0.0030594967
0.0030409223
0.0030360705
0.0030470754
0.0030749616
0.0031197697
0.0031810239
0.0032574357
0.0033466252
0.0034454033