/*--------------------------------*- C++ -*----------------------------------*\
| =========                 |                                                 |
| \\      /  F ield         | OpenFOAM: The Open Source CFD Toolbox           |
|  \\    /   O peration     | Version:  2206                                  |
|   \\  /    A nd           | Website:  www.openfoam.com                      |
|    \\/     M anipulation  |                                                 |
\*---------------------------------------------------------------------------*/
FoamFile
{
    version     2.0;
    format      ascii;
    arch        "LSB;label=32;scalar=64";
    class       surfaceScalarField;
    location    "1800";
    object      phi;
}
// * * * * * * * * * * * * * * * * * * * * * * * * * * * * * * * * * * * * * //

dimensions      [0 3 -1 0 0 0 0];

oriented        oriented;

internalField   nonuniform List<scalar> 
14782
(
0.00061768784
8.778022e-05
-0.00070546806
0.000510295
0.00010739284
0.00040012636
0.00011016864
0.00030666763
9.3458729e-05
0.00023999777
6.6669865e-05
0.00019926076
4.0737006e-05
0.00017534449
2.3916272e-05
0.00016117272
1.4171767e-05
0.00015176353
9.4091915e-06
0.00014419489
7.5686434e-06
0.00013732364
6.8712471e-06
0.00013096072
6.362919e-06
0.00012515064
5.8100761e-06
0.00011985664
5.2940058e-06
0.00011502114
4.8354946e-06
0.00011061844
4.4027045e-06
0.00010661169
4.0067471e-06
0.00010291926
3.6924305e-06
9.949097e-05
3.4282906e-06
9.630698e-05
3.1839898e-06
9.3345098e-05
2.9618824e-06
9.0570457e-05
2.7746413e-06
8.7961701e-05
2.6087556e-06
8.5509422e-05
2.452279e-06
8.3200803e-05
2.3086195e-06
8.1017245e-05
2.1835577e-06
7.8947765e-05
2.0694804e-06
7.6987585e-05
1.9601792e-06
7.5129391e-05
1.8581946e-06
7.3363723e-05
1.7656677e-06
7.1685449e-05
1.6782737e-06
7.0092218e-05
1.5932319e-06
6.8579841e-05
1.5123766e-06
6.7143625e-05
1.4362161e-06
6.5781363e-05
1.3622621e-06
6.4492144e-05
1.2892188e-06
6.3274256e-05
1.2178881e-06
6.2126697e-05
1.1475586e-06
6.1050379e-05
1.0763185e-06
6.0047032e-05
1.0033473e-06
5.9117887e-05
9.2914483e-07
5.8264637e-05
8.5324966e-07
5.74904e-05
7.7423675e-07
5.6797709e-05
6.9269144e-07
5.6194931e-05
6.0277802e-07
5.5686523e-05
5.0840756e-07
5.5281056e-05
4.0546738e-07
5.4986034e-05
2.9502191e-07
5.4800744e-05
1.852903e-07
5.4723443e-05
7.7301164e-08
5.4749651e-05
-2.6208383e-08
5.4872527e-05
-1.2287572e-07
5.5079858e-05
-2.0733164e-07
5.5351817e-05
-2.719584e-07
5.5675264e-05
-3.2344687e-07
5.6037389e-05
-3.6212565e-07
5.640494e-05
-3.6755067e-07
5.6740706e-05
-3.3576579e-07
5.7008824e-05
-2.6811825e-07
5.7194791e-05
-1.8596732e-07
5.7295418e-05
-1.0062648e-07
5.7313802e-05
-1.8383857e-08
5.7260027e-05
5.3774908e-08
5.7147441e-05
1.1258526e-07
5.6989474e-05
1.5796735e-07
5.6798047e-05
1.9142683e-07
5.6583906e-05
2.1414133e-07
5.6354872e-05
2.2903437e-07
5.6116802e-05
2.3806946e-07
5.5874157e-05
2.4264541e-07
5.563018e-05
2.4397712e-07
5.5386576e-05
2.4360339e-07
5.5144853e-05
2.4172282e-07
5.4906274e-05
2.3857947e-07
5.4670747e-05
2.3552734e-07
5.4438882e-05
2.3186453e-07
5.4207368e-05
2.3151408e-07
5.3971748e-05
2.3561983e-07
5.3733341e-05
2.3840755e-07
5.3493479e-05
2.3986196e-07
5.3253066e-05
2.4041256e-07
5.3012006e-05
2.4106039e-07
5.2769034e-05
2.4297137e-07
5.2524335e-05
2.446992e-07
5.2277321e-05
2.4701433e-07
5.2028253e-05
2.4906774e-07
5.1777206e-05
2.510471e-07
5.152429e-05
2.5291599e-07
5.1270028e-05
2.5426143e-07
5.1014273e-05
2.5575572e-07
5.0757604e-05
2.5666914e-07
5.0499881e-05
2.5772246e-07
5.0241264e-05
2.5861716e-07
4.9981449e-05
2.5981502e-07
4.9719572e-05
2.6187709e-07
4.9455491e-05
2.6408075e-07
4.9210075e-05
2.4541618e-07
4.8807288e-05
4.0278656e-07
4.8816772e-05
-9.4840482e-09
8.4090044e-07
0.00079175292
9.1059648e-05
-0.00079503234
0.00077878023
0.00012036553
0.00075194191
0.00013700695
0.00070879336
0.00013660727
0.00065525791
0.00012020532
0.00060117273
9.4822184e-05
0.00055308355
7.2005449e-05
0.00051315211
5.4103207e-05
0.00048028903
4.2272271e-05
0.00045279016
3.5067519e-05
0.00042915929
3.0502119e-05
0.00040849493
2.7027277e-05
0.00039018402
2.4120985e-05
0.00037374187
2.173616e-05
0.00035882479
1.9752569e-05
0.00034522875
1.7998751e-05
0.00033278106
1.6454435e-05
0.00032130516
1.5168327e-05
0.0003106663
1.4067154e-05
0.00030077419
1.3076095e-05
0.00029155085
1.2185226e-05
0.00028291458
1.1410913e-05
0.00027480297
1.0720359e-05
0.00026717011
1.0085145e-05
0.00025997251
9.5062162e-06
0.00025316655
8.9895184e-06
0.00024671944
8.5165913e-06
0.00024060846
8.071155e-06
0.00023481117
7.6554883e-06
0.00022930431
7.2725277e-06
0.00022407107
6.9115106e-06
0.00021910006
6.564251e-06
0.00021437948
6.2329481e-06
0.00020989791
5.9177879e-06
0.00020564797
5.6122047e-06
0.00020162545
5.3117397e-06
0.00019782662
5.0167143e-06
0.00019424986
4.7243181e-06
0.00019089741
4.4287676e-06
0.00018777417
4.1265881e-06
0.00018488566
3.8176538e-06
0.00018223918
3.4997326e-06
0.00017984506
3.168357e-06
0.0001777134
2.8243565e-06
0.0001758674
2.4487783e-06
0.00017432248
2.053327e-06
0.00017309657
1.6313696e-06
0.00017220705
1.1845511e-06
0.00017165293
7.3940071e-07
0.0001714257
3.0453329e-07
0.00017150878
-1.0928224e-07
0.00017187791
-4.9201247e-07
0.00017249425
-8.2366414e-07
0.00017330273
-1.0804468e-06
0.00017425537
-1.2760866e-06
0.0001752972
-1.403954e-06
0.00017633468
-1.4050318e-06
0.00017726527
-1.2663509e-06
0.00017799866
-1.0015097e-06
0.00017849202
-6.7933201e-07
0.00017873796
-3.4655981e-07
0.00017874883
-2.9256818e-08
0.00017855177
2.5083172e-07
0.00017818406
4.8030139e-07
0.00017768426
6.5776824e-07
0.00017708699
7.8869646e-07
0.00017642237
8.7876168e-07
0.00017571338
9.3801751e-07
0.00017497741
9.7404527e-07
0.00017422751
9.925408e-07
0.0001734731
9.9839162e-07
0.00017271985
9.968548e-07
0.00017197232
9.8924911e-07
0.00017123396
9.7693544e-07
0.00017050541
9.6408395e-07
0.00016978738
9.4989315e-07
0.00016906894
9.4995378e-07
0.0001683383
9.6626047e-07
0.00016759979
9.7691721e-07
0.00016685766
9.8198632e-07
0.0001661137
9.8437967e-07
0.00016536721
9.8754377e-07
0.00016461548
9.9470898e-07
0.00016385814
1.0020363e-06
0.00016309409
1.0110641e-06
0.00016232376
1.0194001e-06
0.00016154747
1.0273349e-06
0.00016076576
1.0346241e-06
0.00015997987
1.0401547e-06
0.00015918997
1.0456533e-06
0.0001583973
1.0493422e-06
0.00015760214
1.0528793e-06
0.0001568045
1.0562541e-06
0.00015600512
1.0591951e-06
0.00015519781
1.0691921e-06
0.00015439613
1.0657581e-06
0.00015358591
1.0556323e-06
0.00015257009
1.4186149e-06
0.00015201356
5.4703941e-07
2.5243456e-06
0.00083156819
8.6588225e-05
-0.00082709677
0.00083708391
0.00011484981
0.00084161175
0.00013247911
0.00084051546
0.00013770356
0.00083139962
0.00012932116
0.00081411713
0.00011210467
0.00079127587
9.4846718e-05
0.00076528715
8.0091922e-05
0.00073804908
6.9510338e-05
0.00071107323
6.2043372e-05
0.00068520002
5.6375333e-05
0.00066072673
5.1500567e-05
0.00063766155
4.7186161e-05
0.00061590201
4.3495698e-05
0.00059538312
4.0271464e-05
0.00057607506
3.7306812e-05
0.00055791897
3.4610527e-05
0.00054082091
3.2266386e-05
0.0005246968
3.0191261e-05
0.00050948149
2.8291408e-05
0.00049510959
2.6557123e-05
0.00048150738
2.5013126e-05
0.00046861456
2.3613177e-05
0.00045638367
2.2316035e-05
0.00044476854
2.1121346e-05
0.00043372075
2.0037313e-05
0.00042320134
1.9036e-05
0.00041318043
1.809206e-05
0.0004036293
1.720662e-05
0.0003945198
1.638203e-05
0.0003858305
1.5600813e-05
0.0003775456
1.4849151e-05
0.0003696501
1.4128449e-05
0.00036213047
1.3437418e-05
0.00035497793
1.276474e-05
0.00034818786
1.2101808e-05
0.00034175751
1.1447064e-05
0.00033568723
1.0794599e-05
0.00032998203
1.0133968e-05
0.0003246507
9.4579213e-06
0.00031970406
8.7642929e-06
0.00031515605
8.0477428e-06
0.00031102438
7.3000306e-06
0.00030732898
6.5197498e-06
0.0003041013
5.6764608e-06
0.00030136766
4.7869662e-06
0.00029914783
3.8512007e-06
0.00029745542
2.876965e-06
0.00029628593
1.908891e-06
0.00029562138
9.6908423e-07
0.0002954304
8.1693194e-08
0.00029566989
-7.3150692e-07
0.00029627822
-1.4319938e-06
0.0002971746
-1.9768229e-06
0.00029828093
-2.3824159e-06
0.00029950206
-2.6250846e-06
0.00030070018
-2.603154e-06
0.00030173394
-2.3001136e-06
0.00030248825
-1.755819e-06
0.00030290811
-1.0991848e-06
0.00030298505
-4.2350658e-07
0.00030273754
2.1825772e-07
0.00030220431
7.8405763e-07
0.00030143752
1.2470922e-06
0.0003004901
1.6051891e-06
0.00029940967
1.8691244e-06
0.00029823754
2.0508937e-06
0.00029700612
2.1694388e-06
0.00029574027
2.239892e-06
0.00029445878
2.27403e-06
0.00029317514
2.2820391e-06
0.00029189798
2.2740099e-06
0.00029063416
2.2530744e-06
0.00028938856
2.2225322e-06
0.0002881625
2.1901404e-06
0.00028695613
2.1562665e-06
0.00028575212
2.15396e-06
0.00028453558
2.1828061e-06
0.00028331427
2.1982192e-06
0.00028209279
2.2034675e-06
0.00028087179
2.2053864e-06
0.00027964941
2.2099245e-06
0.00027842189
2.222226e-06
0.00027718788
2.2360419e-06
0.00027594574
2.2532071e-06
0.00027469561
2.2695317e-06
0.00027343779
2.2851524e-06
0.00027217301
2.2994054e-06
0.00027090274
2.3104255e-06
0.00026962749
2.3209022e-06
0.0002683487
2.3281365e-06
0.00026706711
2.3344674e-06
0.00026578244
2.340919e-06
0.00026449658
2.3450623e-06
0.00026319855
2.3672188e-06
0.00026191416
2.3501454e-06
0.00026058436
2.3854382e-06
0.00025909983
2.9031403e-06
0.00025782674
1.8201285e-06
4.6021494e-06
0.00086136261
8.2258004e-05
-0.00085703239
0.00086789765
0.00010831476
0.00087518756
0.00012518921
0.0008822126
0.00013067852
0.00088611946
0.0001254143
0.00088510357
0.00011312056
0.00088101704
9.8933242e-05
0.00087429425
8.6814713e-05
0.00086520906
7.8595535e-05
0.000854006
7.3246425e-05
0.00084101479
6.9366543e-05
0.00082643619
6.6079165e-05
0.00081063506
6.2987298e-05
0.00079420084
5.992992e-05
0.00077747302
5.6999283e-05
0.00076067712
5.4102711e-05
0.00074395207
5.1335575e-05
0.00072738566
4.8832798e-05
0.00071106272
4.6514199e-05
0.00069506216
4.4291972e-05
0.00067943917
4.2180113e-05
0.00066422079
4.0231508e-05
0.00064942864
3.8405323e-05
0.00063508102
3.6663656e-05
0.00062118677
3.5015593e-05
0.00060774257
3.3481516e-05
0.00059474529
3.203328e-05
0.00058219279
3.0644557e-05
0.00057007869
2.9320719e-05
0.00055839345
2.8067271e-05
0.00054713068
2.6863589e-05
0.00053628652
2.5693304e-05
0.00052585626
2.4558712e-05
0.00051583575
2.3457929e-05
0.00050622494
2.2375546e-05
0.00049702774
2.1299016e-05
0.00048824905
2.0225744e-05
0.00047989531
1.9148345e-05
0.00047197657
1.8052704e-05
0.00046450654
1.6927958e-05
0.00045750132
1.5769505e-05
0.0004509805
1.4568569e-05
0.00044496727
1.3313262e-05
0.00043948879
1.1998228e-05
0.00043457809
1.0587157e-05
0.00043026161
9.1034505e-06
0.00042655004
7.5627667e-06
0.00042344248
5.9845302e-06
0.00042092757
4.4238029e-06
0.0004189823
2.9143513e-06
0.00041757204
1.4919504e-06
0.00041664723
1.9330927e-07
0.00041613722
-9.2199137e-07
0.00041595871
-1.7983128e-06
0.00041602554
-2.449244e-06
0.00041621988
-2.8194287e-06
0.00041639012
-2.7733906e-06
0.000416403
-2.3129962e-06
0.00041616442
-1.5172329e-06
0.00041563346
-5.6822813e-07
0.00041480619
4.0375962e-07
0.00041370236
1.3220911e-06
0.00041235868
2.1277341e-06
0.0004108202
2.7855805e-06
0.00040913237
3.2930192e-06
0.00040733704
3.6644495e-06
0.00040547156
3.9163773e-06
0.00040356618
4.0748117e-06
0.00040164479
4.1612846e-06
0.00039972571
4.193108e-06
0.00039782215
4.1855983e-06
0.000395943
4.1531661e-06
0.00039409546
4.1006128e-06
0.00039228439
4.0335983e-06
0.00039051089
3.9636459e-06
0.00038877367
3.8934845e-06
0.0003870674
3.8602257e-06
0.00038538465
3.8655613e-06
0.00038372071
3.8621612e-06
0.00038207161
3.8525605e-06
0.00038043447
3.8425351e-06
0.00037880578
3.8386139e-06
0.00037718072
3.8472794e-06
0.00037555667
3.8600984e-06
0.00037393103
3.8788434e-06
0.00037230305
3.8975095e-06
0.00037067237
3.9158356e-06
0.00036903919
3.9325888e-06
0.00036740451
3.9451049e-06
0.00036576857
3.95684e-06
0.00036413241
3.9642993e-06
0.00036249672
3.9701542e-06
0.00036086065
3.9769834e-06
0.00035922662
3.9790987e-06
0.00035758034
4.0134932e-06
0.00035595402
3.9764715e-06
0.00035426474
4.0747195e-06
0.00035246963
4.6982506e-06
0.00035066232
3.6274345e-06
6.8275624e-06
0.00089165277
7.8533233e-05
-0.00088792799
0.00089768493
0.0001022826
0.00090489124
0.00011798289
0.00091179568
0.00012377408
0.00091696148
0.0001202485
0.00091988887
0.00011019317
0.00092052849
9.8293623e-05
0.00091938511
8.7958095e-05
0.00091749769
8.048295e-05
0.00091494607
7.5798052e-05
0.00091165615
7.2656463e-05
0.00090740792
7.0327394e-05
0.0009019563
6.8438919e-05
0.00089524032
6.6645892e-05
0.00088733298
6.4906623e-05
0.00087825605
6.3179641e-05
0.00086816029
6.1431335e-05
0.00085733389
5.9659205e-05
0.00084593957
5.7908511e-05
0.00083409841
5.613314e-05
0.00082190883
5.4369686e-05
0.00080944925
5.2691092e-05
0.00079679745
5.1057124e-05
0.00078403224
4.9428868e-05
0.00077122275
4.7825082e-05
0.00075842501
4.6279257e-05
0.0007456918
4.476649e-05
0.00073307053
4.3265827e-05
0.00072059901
4.1792238e-05
0.00070830753
4.0358752e-05
0.00069622504
3.8946077e-05
0.00068437869
3.7539655e-05
0.00067279145
3.6145948e-05
0.00066148448
3.4764905e-05
0.00065048147
3.3378549e-05
0.00063980846
3.1972026e-05
0.00062948603
3.0548179e-05
0.00061953032
2.9104057e-05
0.00060996071
2.7622313e-05
0.00060080017
2.6088501e-05
0.00059207366
2.449601e-05
0.00058380885
2.2833381e-05
0.00057603605
2.1086061e-05
0.00056879277
1.9241508e-05
0.00056210962
1.7270303e-05
0.00055599594
1.5217133e-05
0.00055044808
1.3110625e-05
0.00054546053
1.0972089e-05
0.00054102747
8.8568626e-06
0.00053713555
6.806268e-06
0.00053376128
4.8662206e-06
0.00053086395
3.090642e-06
0.00052838046
1.5614951e-06
0.00052624681
3.3534078e-07
0.00052437155
-5.7399199e-07
0.00052260822
-1.0560959e-06
0.00052082247
-9.8764148e-07
0.00051893951
-4.3003329e-07
0.00051692157
5.0070315e-07
0.00051475774
1.595601e-06
0.00051245232
2.7091796e-06
0.0005100181
3.7563157e-06
0.0005074748
4.671033e-06
0.00050484638
5.413998e-06
0.00050215795
5.9814488e-06
0.00049943396
6.3884372e-06
0.0004966978
6.6525416e-06
0.00049396934
6.8032719e-06
0.00049126502
6.8656045e-06
0.00048859781
6.8603129e-06
0.00048597709
6.8063268e-06
0.00048340962
6.7206367e-06
0.00048090117
6.6090555e-06
0.00047845496
6.4798154e-06
0.00047607069
6.3479098e-06
0.00047374554
6.2186323e-06
0.00047148074
6.1250282e-06
0.00046927467
6.0716348e-06
0.00046711682
6.0200143e-06
0.00046499715
5.9722269e-06
0.0004629092
5.9304791e-06
0.0004608476
5.9002169e-06
0.00045880632
5.8885615e-06
0.00045678135
5.8850655e-06
0.00045476894
5.8912561e-06
0.00045276704
5.8994087e-06
0.00045077416
5.9087177e-06
0.00044878946
5.9172869e-06
0.00044681296
5.921606e-06
0.00044484411
5.9256936e-06
0.00044288312
5.9252864e-06
0.00044093016
5.9231086e-06
0.00043898352
5.9236326e-06
0.00043704549
5.917128e-06
0.00043509949
5.9594863e-06
0.00043318003
5.8959331e-06
0.00043119375
6.0609996e-06
0.00042914194
6.7500663e-06
0.00042690445
5.8649217e-06
9.1497446e-06
0.00092304536
7.5202679e-05
-0.00091971481
0.0009285641
9.6763857e-05
0.00093513674
0.00011141026
0.00094155506
0.00011735577
0.00094670433
0.00011509923
0.00094994739
0.00010695011
0.00095153444
9.6706572e-05
0.00095190879
8.7583747e-05
0.00095156954
8.0822197e-05
0.00095105739
7.63102e-05
0.00095040914
7.330472e-05
0.00094955896
7.1177573e-05
0.00094840773
6.9590146e-05
0.00094682866
6.8224969e-05
0.00094474467
6.6990613e-05
0.00094202008
6.5904226e-05
0.0009385143
6.4937114e-05
0.0009341857
6.3987811e-05
0.00092903995
6.3054263e-05
0.00092305642
6.2116665e-05
0.00091628872
6.1137385e-05
0.00090886437
6.0115447e-05
0.00090085931
5.9062186e-05
0.00089233234
5.7955837e-05
0.0008833358
5.6821616e-05
0.00087392227
5.5692792e-05
0.00086414827
5.4540486e-05
0.00085406801
5.334609e-05
0.00084373408
5.2126163e-05
0.00083319805
5.0894787e-05
0.00082251244
4.9631687e-05
0.00081172831
4.8323782e-05
0.00080089195
4.6982305e-05
0.00079004628
4.5610584e-05
0.00077923412
4.4190704e-05
0.00076849839
4.2707756e-05
0.00075788102
4.1165546e-05
0.00074742368
3.9561403e-05
0.00073716799
3.7878e-05
0.00072715538
3.6101107e-05
0.00071742684
3.4224559e-05
0.00070802473
3.2235489e-05
0.00069899376
3.0117032e-05
0.00069039218
2.7843087e-05
0.00068222707
2.5435409e-05
0.00067447521
2.2968992e-05
0.00066715927
2.0426567e-05
0.00066031133
1.7820024e-05
0.00065394968
1.5218513e-05
0.00064807398
1.2681967e-05
0.0006426665
1.0273706e-05
0.0006376884
8.0687388e-06
0.00063308918
6.1607203e-06
0.00062884081
4.5837094e-06
0.00062481384
3.4529723e-06
0.00062081793
2.9398137e-06
0.00061680143
3.0288579e-06
0.00061278966
3.5817394e-06
0.00060879758
4.4927871e-06
0.00060482996
5.5632171e-06
0.00060088996
6.6491858e-06
0.00059697924
7.6670282e-06
0.00059309959
8.5506863e-06
0.00058925532
9.258267e-06
0.0005854527
9.7840672e-06
0.00058169905
1.0142087e-05
0.00057800289
1.03487e-05
0.00057437221
1.0433955e-05
0.00057081431
1.0423501e-05
0.0005673355
1.0339132e-05
0.00056394088
1.0200944e-05
0.00056063362
1.0027893e-05
0.00055741577
9.826906e-06
0.0005542879
9.6076878e-06
0.00055124788
9.3879291e-06
0.00054829171
9.1747995e-06
0.00054541771
8.9990326e-06
0.00054262442
8.8649204e-06
0.00053990496
8.7394739e-06
0.00053724936
8.6278314e-06
0.0005346495
8.5303428e-06
0.00053209852
8.4511927e-06
0.00052958933
8.3977549e-06
0.00052711669
8.3576989e-06
0.00052467567
8.3322755e-06
0.00052226288
8.3121987e-06
0.00051987551
8.2960916e-06
0.00051751144
8.281359e-06
0.00051516942
8.2636264e-06
0.00051284799
8.2471189e-06
0.00051054639
8.2268911e-06
0.00050826369
8.205808e-06
0.00050599704
8.1902833e-06
0.00050374815
8.1660157e-06
0.00050149887
8.2087706e-06
0.00049928338
8.1114185e-06
0.0004970041
8.340277e-06
0.00049469358
9.0605924e-06
0.00049206335
8.4951497e-06
1.1600332e-05
0.00095542348
7.2203093e-05
-0.00095242389
0.00096050765
9.1679687e-05
0.00096657697
0.00010534093
0.00097254604
0.0001113867
0.00097742837
0.00011021689
0.00098067463
0.00010370386
0.00098242644
9.4954765e-05
0.00098318608
8.6824102e-05
0.00098339628
8.0612001e-05
0.00098338127
7.6325206e-05
0.0009832915
7.3394491e-05
0.00098317579
7.129328e-05
0.00098303058
6.9735353e-05
0.00098279168
6.8463873e-05
0.0009824133
6.7368998e-05
0.00098185801
6.6459514e-05
0.00098107622
6.5718898e-05
0.00098000474
6.5059295e-05
0.00097859279
6.446621e-05
0.00097675375
6.3955703e-05
0.00097439486
6.3496275e-05
0.00097147469
6.3035617e-05
0.00096797189
6.256499e-05
0.00096385455
6.2073177e-05
0.00095913735
6.1538822e-05
0.00095387099
6.0959146e-05
0.0009480837
6.0327775e-05
0.00094180031
5.9629479e-05
0.00093504386
5.8882618e-05
0.00092784039
5.8098258e-05
0.00092022311
5.724896e-05
0.00091222803
5.6318869e-05
0.00090388665
5.5323678e-05
0.00089523108
5.426616e-05
0.00088629967
5.3122107e-05
0.00087713192
5.1875511e-05
0.00086776982
5.052764e-05
0.00085826056
4.9070662e-05
0.0008486537
4.7484865e-05
0.00083899984
4.5754964e-05
0.00082935049
4.3873909e-05
0.00081975928
4.1826704e-05
0.00081028344
3.9592868e-05
0.00080098363
3.7142903e-05
0.00079190883
3.4510206e-05
0.00078308232
3.1795507e-05
0.00077452126
2.898763e-05
0.00076625747
2.6083809e-05
0.00075832178
2.3154206e-05
0.00075073356
2.0270189e-05
0.00074349713
1.7510129e-05
0.00073659779
1.4968085e-05
0.00073002092
1.2737581e-05
0.00072377335
1.0831282e-05
0.00071777357
9.4527521e-06
0.00071188261
8.830774e-06
0.00070606166
8.8498114e-06
0.00070033053
9.3128678e-06
0.00069470041
1.0122906e-05
0.00068917732
1.1086308e-05
0.00068376957
1.205694e-05
0.00067847978
1.2956818e-05
0.00067330595
1.372451e-05
0.00066824822
1.4316002e-05
0.00066330734
1.472494e-05
0.00065848298
1.496645e-05
0.00065377558
1.5056096e-05
0.00064918609
1.5023449e-05
0.00064471563
1.489396e-05
0.00064036528
1.4689481e-05
0.00063613657
1.4429659e-05
0.00063202963
1.4134827e-05
0.00062804343
1.381311e-05
0.0006241761
1.3475018e-05
0.00062042364
1.3140386e-05
0.00061678104
1.2817396e-05
0.00061324406
1.2536015e-05
0.0006098096
1.2299378e-05
0.00060647292
1.2076162e-05
0.00060322576
1.1874986e-05
0.00060006014
1.1695962e-05
0.0005969686
1.1542734e-05
0.00059394329
1.1423069e-05
0.000590978
1.1322985e-05
0.00058806673
1.124355e-05
0.0005852048
1.1174124e-05
0.00058238807
1.1112827e-05
0.00057961303
1.1056391e-05
0.00057687707
1.0999593e-05
0.00057417754
1.0946643e-05
0.00057151249
1.0891942e-05
0.00056887976
1.0838537e-05
0.00056627528
1.0794769e-05
0.00056369983
1.0741461e-05
0.00056113402
1.077458e-05
0.00055861058
1.0634865e-05
0.00055602961
1.0921239e-05
0.0005534487
1.1641512e-05
0.00055044108
1.1502769e-05
1.4210129e-05
0.00098882786
6.9473333e-05
-0.0009860981
0.0009935057
8.7001848e-05
0.00099913614
9.97105e-05
0.0010047174
0.00010580545
0.0010093741
0.00010556015
0.0010125977
0.00010048031
0.0010144459
9.3106573e-05
0.0010153445
8.5925492e-05
0.0010157302
8.0226271e-05
0.0010159022
7.6153193e-05
0.0010160002
7.3296505e-05
0.0010160697
7.1223816e-05
0.001016138
6.9667039e-05
0.0010161909
6.8410948e-05
0.0010162005
6.7359448e-05
0.0010161635
6.649648e-05
0.0010160759
6.5806492e-05
0.0010159113
6.5223943e-05
0.0010156483
6.4729187e-05
0.0010152627
6.4341243e-05
0.0010147193
6.4039678e-05
0.0010139771
6.3777879e-05
0.0010129958
6.3546279e-05
0.0010117142
6.3354747e-05
0.0010100696
6.318349e-05
0.0010080244
6.3004333e-05
0.0010055469
6.2805247e-05
0.0010026063
6.2570088e-05
0.00099920215
6.228675e-05
0.00099534836
6.1952046e-05
0.00099104721
6.1550112e-05
0.00098630028
6.1065799e-05
0.0009811123
6.0511662e-05
0.0009754922
5.9886257e-05
0.00096945203
5.9162276e-05
0.00096300592
5.8321625e-05
0.00095616937
5.7364186e-05
0.00094895899
5.6281046e-05
0.00094139349
5.5050361e-05
0.00093349833
5.3650126e-05
0.00092530485
5.2067388e-05
0.0009168487
5.0282859e-05
0.00090817242
4.826914e-05
0.00089931466
4.600067e-05
0.00089035495
4.3469914e-05
0.0008813885
4.0761958e-05
0.00087244916
3.7926968e-05
0.00086355833
3.497464e-05
0.00085474968
3.196286e-05
0.00084606243
2.8957438e-05
0.00083753712
2.6035438e-05
0.00082921066
2.3294543e-05
0.00082111156
2.083668e-05
0.00081324752
1.8695319e-05
0.00080566205
1.7038231e-05
0.00079833711
1.6155714e-05
0.00079119225
1.5994664e-05
0.00078419191
1.6313206e-05
0.00077730277
1.7012048e-05
0.00077052604
1.7863037e-05
0.00076387751
1.870547e-05
0.00075736317
1.9471164e-05
0.00075098731
2.010037e-05
0.00074476036
2.0542953e-05
0.00073868874
2.0796553e-05
0.00073277289
2.0882303e-05
0.00072701386
2.0815127e-05
0.00072141267
2.0624636e-05
0.00071596869
2.0337943e-05
0.00071068056
1.9977612e-05
0.00070554787
1.9562344e-05
0.00070056955
1.9113151e-05
0.00069574337
1.8639284e-05
0.000691066
1.8152396e-05
0.00068653193
1.7674448e-05
0.00068213533
1.7214004e-05
0.00067787054
1.6800804e-05
0.00067373292
1.6436995e-05
0.00066971816
1.6090923e-05
0.00066581941
1.5773737e-05
0.0006620295
1.548587e-05
0.00065834105
1.5231186e-05
0.0006547458
1.5018315e-05
0.00065123682
1.4831972e-05
0.0006478071
1.4673261e-05
0.0006444508
1.4530426e-05
0.00064116242
1.4401214e-05
0.00063793704
1.4281767e-05
0.00063477058
1.4166056e-05
0.00063165894
1.4058276e-05
0.00062859877
1.3952119e-05
0.00062558664
1.3850663e-05
0.00062261723
1.3764184e-05
0.00061969019
1.3668499e-05
0.00061678496
1.3679806e-05
0.00061393234
1.3487484e-05
0.0006110303
1.3823277e-05
0.00060815847
1.4513345e-05
0.00060476841
1.4892833e-05
1.7009975e-05
0.0010232955
6.6957708e-05
-0.0010207799
0.0010275926
8.2704821e-05
0.0010328091
9.4493942e-05
0.0010380302
0.00010058436
0.001042481
0.0001011094
0.0010456842
9.7277087e-05
0.0010476332
9.1157516e-05
0.0010486679
8.4890854e-05
0.0010491775
7.9716626e-05
0.0010494463
7.5884403e-05
0.0010496232
7.3119652e-05
0.0010497691
7.1077917e-05
0.0010499088
6.9527324e-05
0.0010500336
6.8286133e-05
0.0010501355
6.7257502e-05
0.001050217
6.6415e-05
0.0010502886
6.5734892e-05
0.0010503406
6.517194e-05
0.0010503558
6.4713988e-05
0.0010503368
6.4360216e-05
0.0010502802
6.4096332e-05
0.0010501693
6.3888757e-05
0.0010499888
6.3726804e-05
0.00104972
6.3623566e-05
0.0010493374
6.3566041e-05
0.0010488123
6.3529497e-05
0.0010481124
6.3505099e-05
0.0010471922
6.3490243e-05
0.0010460068
6.3472219e-05
0.0010445251
6.3433706e-05
0.001042713
6.33622e-05
0.0010405402
6.3238645e-05
0.0010379996
6.3052283e-05
0.0010350877
6.2798143e-05
0.0010317937
6.2456215e-05
0.0010281058
6.2009526e-05
0.0010240127
6.1457299e-05
0.0010195071
6.0786676e-05
0.0010145851
5.997237e-05
0.0010092426
5.8992629e-05
0.0010034748
5.783516e-05
0.00099727783
5.647984e-05
0.00099065114
5.4895835e-05
0.00098359084
5.3060961e-05
0.00097610613
5.0954633e-05
0.00096825835
4.860973e-05
0.00096011702
4.6068305e-05
0.00095172675
4.3364903e-05
0.00094312934
4.0560278e-05
0.00093437103
3.7715742e-05
0.00092550785
3.4898618e-05
0.00091660687
3.219552e-05
0.00090773112
2.9712433e-05
0.00089890673
2.7519709e-05
0.00089023391
2.571105e-05
0.00088185196
2.453767e-05
0.00087375732
2.4089303e-05
0.00086582251
2.4248017e-05
0.00085796872
2.4865837e-05
0.0008502162
2.5615553e-05
0.00084256802
2.6353655e-05
0.00083502071
2.7018472e-05
0.00082759246
2.7528615e-05
0.00082030772
2.7827698e-05
0.0008131771
2.7927174e-05
0.00080620629
2.7853108e-05
0.00079940595
2.7615471e-05
0.00079278295
2.724763e-05
0.0007863384
2.6782497e-05
0.00078007307
2.6242941e-05
0.00077398876
2.5646652e-05
0.00076808519
2.5016726e-05
0.00076236039
2.4364085e-05
0.00075681125
2.3701533e-05
0.00075143218
2.3053518e-05
0.00074621743
2.2428755e-05
0.00074116145
2.185678e-05
0.00073625911
2.1339337e-05
0.00073150603
2.0844006e-05
0.0007268962
2.0383564e-05
0.00072242345
1.9958619e-05
0.00071808088
1.9573764e-05
0.00071386019
1.9238998e-05
0.000709754
1.8938165e-05
0.00070575453
1.8672735e-05
0.00070185485
1.8430107e-05
0.00069804823
1.8207833e-05
0.00069432839
1.8001604e-05
0.00069068977
1.7804674e-05
0.00068712677
1.762128e-05
0.00068363449
1.7444393e-05
0.00068020816
1.7276994e-05
0.00067684112
1.713123e-05
0.00067353174
1.6977872e-05
0.00067025829
1.6953259e-05
0.00066704951
1.6696268e-05
0.00066380075
1.7072037e-05
0.00066061207
1.7702017e-05
0.00065682175
1.8683154e-05
2.0030524e-05
0.0010588558
6.4616507e-05
-0.0010565146
0.0010628016
7.8758975e-05
0.0010676291
8.9666513e-05
0.0010725118
9.5701661e-05
0.0010767586
9.6862572e-05
0.0010799272
9.4108537e-05
0.0010819641
8.9120567e-05
0.0010831331
8.3721828e-05
0.0010837722
7.9077535e-05
0.0010841415
7.5515096e-05
0.001084389
7.2872148e-05
0.0010845842
7.0882788e-05
0.0010847591
6.9352374e-05
0.0010849167
6.8128504e-05
0.0010850553
6.7118964e-05
0.0010851787
6.6291582e-05
0.0010852906
6.5622948e-05
0.0010853872
6.5075402e-05
0.0010854685
6.4632634e-05
0.0010855377
6.4291045e-05
0.0010856
6.4034059e-05
0.0010856504
6.3838383e-05
0.0010856746
6.3702567e-05
0.001085672
6.3626169e-05
0.0010856412
6.3596811e-05
0.0010855709
6.3599787e-05
0.0010854502
6.362583e-05
0.001085264
6.3676464e-05
0.0010849923
6.3743845e-05
0.0010846141
6.3811991e-05
0.0010841027
6.3873549e-05
0.0010834231
6.3918263e-05
0.0010825413
6.3934071e-05
0.0010814318
6.3907701e-05
0.0010800611
6.3826856e-05
0.0010784021
6.3668493e-05
0.0010764424
6.3417004e-05
0.0010741649
6.306423e-05
0.0010715511
6.2586162e-05
0.0010685804
6.1963286e-05
0.00106523
6.118557e-05
0.0010614754
6.0234458e-05
0.0010572907
5.9080565e-05
0.0010526464
5.7705272e-05
0.0010475043
5.609669e-05
0.0010418447
5.4269374e-05
0.0010356767
5.2236261e-05
0.001029017
5.0024616e-05
0.0010218833
4.7693935e-05
0.0010142997
4.5299408e-05
0.0010063015
4.2896783e-05
0.0009979407
4.0556325e-05
0.00098928542
3.8367716e-05
0.00098039728
3.6407854e-05
0.00097136857
3.4739757e-05
0.00096239271
3.3513525e-05
0.00095360785
3.2874167e-05
0.00094501559
3.2840281e-05
0.00093659226
3.3289166e-05
0.00092827736
3.3930449e-05
0.00091998874
3.4642273e-05
0.00091172117
3.5286049e-05
0.0009035264
3.5723377e-05
0.00089542444
3.5929659e-05
0.00088742138
3.5930237e-05
0.0008795411
3.5733393e-05
0.00087181044
3.5346125e-05
0.00086424132
3.4816748e-05
0.0008568405
3.4183317e-05
0.00084961875
3.3464692e-05
0.00084258472
3.2680679e-05
0.00083574113
3.1860326e-05
0.00082908933
3.1015882e-05
0.00082262988
3.0160983e-05
0.00081635967
2.9323721e-05
0.00081027537
2.8513057e-05
0.00080437386
2.775829e-05
0.00079865119
2.7062014e-05
0.00079310354
2.6391655e-05
0.00078772594
2.5761162e-05
0.00078251341
2.5171149e-05
0.00077745986
2.4627309e-05
0.00077255747
2.4141387e-05
0.00076779883
2.3696808e-05
0.00076317568
2.3295882e-05
0.00075868034
2.2925447e-05
0.00075430508
2.2583099e-05
0.00075004239
2.2264295e-05
0.00074588535
2.1961714e-05
0.00074182689
2.1679738e-05
0.00073786062
2.1410666e-05
0.00073398029
2.1157319e-05
0.00073017788
2.0933643e-05
0.0007264504
2.0705353e-05
0.00072277485
2.062881e-05
0.00071917795
2.0293169e-05
0.00071555186
2.0698121e-05
0.00071201603
2.1237844e-05
0.00070779845
2.2900736e-05
2.3302883e-05
0.0010955426
6.2421548e-05
-0.0010933476
0.0010991695
7.5132057e-05
0.0011036337
8.5202257e-05
0.0011081985
9.1136896e-05
0.0011122436
9.2817447e-05
0.0011153619
9.0990236e-05
0.0011174671
8.7015367e-05
0.0011187567
8.2432289e-05
0.0011195196
7.8314598e-05
0.001119992
7.5042738e-05
0.001120317
7.254715e-05
0.0011205677
7.063202e-05
0.0011207812
6.9138915e-05
0.0011209679
6.7941784e-05
0.0011211304
6.6956415e-05
0.0011212746
6.6147438e-05
0.0011214055
6.5492069e-05
0.0011215232
6.4957721e-05
0.0011216294
6.4526428e-05
0.0011217276
6.4192813e-05
0.001121819
6.3942651e-05
0.0011219011
6.3756273e-05
0.0011219741
6.3629538e-05
0.0011220397
6.3560554e-05
0.0011220979
6.3538635e-05
0.001122151
6.3546742e-05
0.0011221882
6.3588589e-05
0.001122201
6.3663644e-05
0.0011221919
6.3752953e-05
0.0011221527
6.3851166e-05
0.0011220752
6.3951132e-05
0.0011219472
6.4046243e-05
0.0011217523
6.4128998e-05
0.0011214741
6.4185825e-05
0.0011210902
6.421075e-05
0.0011205722
6.4186537e-05
0.001119894
6.4095199e-05
0.0011190318
6.39264e-05
0.0011179546
6.3663443e-05
0.0011166365
6.3281347e-05
0.0011150604
6.2761691e-05
0.0011131997
6.2095162e-05
0.0011110239
6.1256377e-05
0.0011084989
6.0230273e-05
0.0011055835
5.9012029e-05
0.0011022326
5.7620312e-05
0.0010984037
5.6065135e-05
0.0010940614
5.4366935e-05
0.0010891746
5.2580766e-05
0.0010837174
5.0756595e-05