/*--------------------------------*- C++ -*----------------------------------*\
| =========                 |                                                 |
| \\      /  F ield         | OpenFOAM: The Open Source CFD Toolbox           |
|  \\    /   O peration     | Version:  2206                                  |
|   \\  /    A nd           | Website:  www.openfoam.com                      |
|    \\/     M anipulation  |                                                 |
\*---------------------------------------------------------------------------*/
FoamFile
{
    version     2.0;
    format      ascii;
    arch        "LSB;label=32;scalar=64";
    class       volVectorField;
    location    "1800";
    object      U;
}
// * * * * * * * * * * * * * * * * * * * * * * * * * * * * * * * * * * * * * //

dimensions      [0 1 -1 0 0 0 0];

internalField   nonuniform List<vector> 
7480
(
(0.82754773 0.01116821 0)
(0.70299602 0.020218122 0)
(0.56654917 0.021430092 0)
(0.43053723 0.014560712 0)
(0.33055511 0.0062890783 0)
(0.26658334 0.0019099076 0)
(0.23008193 0.0022241543 0)
(0.20853744 -0.00029127715 0)
(0.19447784 -0.00042981304 0)
(0.184148 -0.00017507807 0)
(0.17532263 1.2576374e-06 0)
(0.16713265 5.4540738e-05 0)
(0.1595601 6.5233049e-05 0)
(0.15265763 6.7247724e-05 0)
(0.14636859 0.0002275855 0)
(0.14063059 0.00019403578 0)
(0.13539858 7.2294212e-05 0)
(0.13061173 5.2889331e-05 0)
(0.12618441 4.5994559e-05 0)
(0.12206904 4.0982316e-05 0)
(0.11824437 3.7195207e-05 0)
(0.11467442 3.5057339e-05 0)
(0.11132239 3.2749102e-05 0)
(0.10817029 3.0057637e-05 0)
(0.10520548 2.7755482e-05 0)
(0.10240777 2.6079594e-05 0)
(0.099757894 2.4326615e-05 0)
(0.097246656 2.2417356e-05 0)
(0.094867454 2.0749645e-05 0)
(0.092609313 1.9360675e-05 0)
(0.090462618 1.7933186e-05 0)
(0.088423199 1.6468846e-05 0)
(0.086487396 1.5161126e-05 0)
(0.08464933 1.3985053e-05 0)
(0.082904443 1.2809995e-05 0)
(0.081251093 1.1650458e-05 0)
(0.079687744 1.0583413e-05 0)
(0.078212468 9.564203e-06 0)
(0.076825133 8.539531e-06 0)
(0.075527651 7.5273061e-06 0)
(0.074321985 6.5703368e-06 0)
(0.073209639 5.6516281e-06 0)
(0.072194048 4.723833e-06 0)
(0.071277934 3.8701922e-06 0)
(0.070465621 1.5426983e-05 0)
(0.069778619 7.3225832e-06 0)
(0.06920264 1.4154428e-06 0)
(0.068765496 3.1470065e-08 0)
(0.06846758 -9.9633378e-07 0)
(0.068306053 -1.8903809e-06 0)
(0.068276965 -2.6825065e-06 0)
(0.068373834 -3.1751921e-06 0)
(0.068585857 -3.4761422e-06 0)
(0.068890857 -3.5118138e-06 0)
(0.069267145 -3.5474969e-06 0)
(0.069702895 -3.6089526e-06 0)
(0.070168851 -3.275067e-06 0)
(0.070617926 -2.7155478e-06 0)
(0.071003619 -2.6297846e-06 0)
(0.071285552 -5.2088125e-06 0)
(0.071463483 -1.2697127e-06 0)
(0.071534983 -7.3647447e-07 0)
(0.071508802 -3.2528198e-07 0)
(0.071400338 -8.0723473e-08 0)
(0.071227313 8.5731167e-08 0)
(0.071005653 1.98531e-07 0)
(0.070749669 2.5009511e-07 0)
(0.070470981 2.736822e-07 0)
(0.070177933 2.7836709e-07 0)
(0.069876787 2.7148044e-07 0)
(0.069572421 2.5754869e-07 0)
(0.069267719 2.4769562e-07 0)
(0.06896445 2.3614868e-07 0)
(0.068664627 2.2144447e-07 0)
(0.068368747 2.1773335e-07 0)
(0.068077163 2.0850063e-07 0)
(0.067790331 2.2001411e-07 0)
(0.067498736 2.5083414e-07 0)
(0.067202249 2.5813923e-07 0)
(0.066903555 2.64141e-07 0)
(0.0666038 2.6331285e-07 0)
(0.066303632 2.6070258e-07 0)
(0.066001738 2.6684384e-07 0)
(0.065697509 2.6425287e-07 0)
(0.065390712 2.6675133e-07 0)
(0.065081091 2.6470314e-07 0)
(0.064769 2.6292698e-07 0)
(0.064454399 2.6161406e-07 0)
(0.064137882 2.5677675e-07 0)
(0.063819539 2.5584669e-07 0)
(0.06349976 2.5028458e-07 0)
(0.063178638 2.4914359e-07 0)
(0.062856836 2.4308335e-07 0)
(0.062532237 2.4949241e-07 0)
(0.062210838 2.2603589e-07 0)
(0.061870377 2.9940769e-07 0)
(0.061575971 1.0016822e-06 0)
(0.061138649 1.1354335e-05 0)
(0.060898315 1.905983e-05 0)
(0.060225805 8.6096292e-06 0)
(0.95865784 0.028037555 0)
(0.94942308 0.038584853 0)
(0.93029916 0.041832348 0)
(0.88512778 0.039310105 0)
(0.82442012 0.032445981 0)
(0.7568365 0.02398163 0)
(0.69438746 0.015507671 0)
(0.64141172 0.0094025042 0)
(0.59778432 0.0060301305 0)
(0.56172869 0.0043636857 0)
(0.53123795 0.0035603929 0)
(0.50477977 0.0030821513 0)
(0.48143906 0.0027037801 0)
(0.46059581 0.0023893064 0)
(0.44176286 0.0021300107 0)
(0.42461747 0.0018750134 0)
(0.40895245 0.0016544506 0)
(0.39456064 0.0014826449 0)
(0.38125063 0.0013365022 0)
(0.36888642 0.0012052347 0)
(0.35737374 0.0010889228 0)
(0.3466164 0.00098991721 0)
(0.33652538 0.000902895 0)
(0.32703772 0.0008239789 0)
(0.31809942 0.00075339495 0)
(0.30965875 0.00069155213 0)
(0.30166848 0.00063581712 0)
(0.29409576 0.00058430719 0)
(0.28691502 0.00053736666 0)
(0.28009823 0.00049513835 0)
(0.27362027 0.00045628171 0)
(0.26746476 0.00041997037 0)
(0.26161858 0.00038643736 0)
(0.25606736 0.0003555846 0)
(0.25079918 0.00032671672 0)
(0.24580745 0.00029945696 0)
(0.24108766 0.00027384441 0)
(0.23663624 0.00024961217 0)
(0.23245333 0.0002263194 0)
(0.22854367 0.00020377307 0)
(0.2249139 0.00018202077 0)
(0.22157116 0.00016092947 0)
(0.21852697 0.00014025436 0)
(0.21579197 0.00011998719 0)
(0.21338478 0.00010067033 0)
(0.21134501 9.3413492e-05 0)
(0.20966218 5.6452426e-05 0)
(0.20838456 3.725622e-05 0)
(0.20751817 1.8336439e-05 0)
(0.20705378 7.7578041e-07 0)
(0.20697566 -1.4915483e-05 0)
(0.20726048 -2.8610502e-05 0)
(0.20787276 -3.9567705e-05 0)
(0.20875074 -4.7028744e-05 0)
(0.20983036 -5.199694e-05 0)
(0.2110587 -5.4556731e-05 0)
(0.21234418 -5.2583188e-05 0)
(0.21356087 -4.6134301e-05 0)
(0.21458704 -3.6951429e-05 0)
(0.21532804 -2.5137743e-05 0)
(0.21576988 -1.4271968e-05 0)
(0.21591692 -4.7868345e-06 0)
(0.21579294 2.9573579e-06 0)
(0.21543862 8.8636163e-06 0)
(0.2149027 1.3047347e-05 0)
(0.21422986 1.5813333e-05 0)
(0.21345956 1.74248e-05 0)
(0.21262386 1.8240484e-05 0)
(0.21174675 1.8496073e-05 0)
(0.21084612 1.8356503e-05 0)
(0.20993564 1.7954874e-05 0)
(0.20902387 1.7428099e-05 0)
(0.20811644 1.6804373e-05 0)
(0.2072188 1.611556e-05 0)
(0.20633293 1.5456308e-05 0)
(0.2054598 1.4792193e-05 0)
(0.20459924 1.4464195e-05 0)
(0.20372365 1.4449935e-05 0)
(0.20283447 1.4266309e-05 0)
(0.20193976 1.3972104e-05 0)
(0.20104236 1.3627686e-05 0)
(0.20014308 1.3297624e-05 0)
(0.19923882 1.30371e-05 0)
(0.19832784 1.2770532e-05 0)
(0.19740924 1.2532565e-05 0)
(0.19648257 1.2282313e-05 0)
(0.19554857 1.2029512e-05 0)
(0.19460745 1.1772143e-05 0)
(0.19366072 1.149502e-05 0)
(0.19270893 1.1226564e-05 0)
(0.19175322 1.0939305e-05 0)
(0.19079403 1.0661361e-05 0)
(0.18983318 1.038553e-05 0)
(0.1888662 1.0120652e-05 0)
(0.18790607 9.9134048e-06 0)
(0.18690463 9.6481878e-06 0)
(0.18600374 1.1794494e-05 0)
(0.18477486 3.9891691e-05 0)
(0.1840346 6.4873278e-05 0)
(0.18205723 3.4230234e-05 0)
(0.96802223 0.029705285 0)
(0.97310962 0.037719714 0)
(0.9823971 0.041542808 0)
(0.98425653 0.041012429 0)
(0.97938468 0.037117854 0)
(0.96361953 0.030604766 0)
(0.93926722 0.02414492 0)
(0.91012363 0.019115726 0)
(0.87836563 0.015500694 0)
(0.8461678 0.01289804 0)
(0.81516769 0.010958305 0)
(0.78576475 0.0094054225 0)
(0.75802806 0.0081194798 0)
(0.73187555 0.0070817804 0)
(0.70720399 0.0062342147 0)
(0.68395765 0.0055136285 0)
(0.6620989 0.0048996161 0)
(0.64153549 0.0043857019 0)
(0.62215604 0.0039460714 0)
(0.60387179 0.0035586595 0)
(0.5866115 0.0032173802 0)
(0.57029251 0.0029222264 0)
(0.55483439 0.0026628895 0)
(0.54017438 0.0024303632 0)
(0.52626033 0.0022225483 0)
(0.51303621 0.0020388543 0)
(0.50044965 0.0018738721 0)
(0.488461 0.0017231448 0)
(0.47703749 0.0015859059 0)
(0.4661454 0.0014616042 0)
(0.45575498 0.0013475291 0)
(0.4458451 0.0012416571 0)
(0.4363985 0.001143747 0)
(0.4273982 0.0010532741 0)
(0.41883064 0.00096878022 0)
(0.41068828 0.00088923957 0)
(0.40296715 0.00081435298 0)
(0.39566558 0.00074340647 0)
(0.38878646 0.00067538829 0)
(0.38233822 0.00060970499 0)
(0.37633262 0.00054622801 0)
(0.37078358 0.00048458062 0)
(0.36571066 0.00042419395 0)
(0.36113335 0.00036513396 0)
(0.35708252 0.00030450995 0)
(0.35360387 0.00027077033 0)
(0.35070405 0.00018831215 0)
(0.34842074 0.00012895799 0)
(0.34675716 7.4305244e-05 0)
(0.34569754 2.3976985e-05 0)
(0.3452131 -2.0894859e-05 0)
(0.34525973 -5.9579063e-05 0)
(0.34578052 -9.0681113e-05 0)
(0.34668531 -0.00011264205 0)
(0.34788151 -0.00012709607 0)
(0.34927812 -0.00013392916 0)
(0.35073356 -0.00012962724 0)
(0.35207451 -0.00011316158 0)
(0.35314397 -8.6667513e-05 0)
(0.35383177 -5.8650359e-05 0)
(0.35411577 -3.0449564e-05 0)
(0.35400505 -5.1662267e-06 0)
(0.35353257 1.5897139e-05 0)
(0.35275514 3.2036123e-05 0)
(0.35173733 4.3559726e-05 0)
(0.35053848 5.1210056e-05 0)
(0.34921097 5.5692412e-05 0)
(0.34779788 5.7888392e-05 0)
(0.34633227 5.8458928e-05 0)
(0.34483909 5.7889189e-05 0)
(0.34333725 5.6566015e-05 0)
(0.3418389 5.4843412e-05 0)
(0.3403525 5.2838548e-05 0)
(0.33888561 5.0658169e-05 0)
(0.33744134 4.8522561e-05 0)
(0.33602083 4.6413353e-05 0)
(0.33462243 4.5199619e-05 0)
(0.33320597 4.4796511e-05 0)
(0.33177908 4.4010068e-05 0)
(0.33035144 4.2946678e-05 0)
(0.32892456 4.1799412e-05 0)
(0.3274979 4.0718086e-05 0)
(0.32606711 3.9814084e-05 0)
(0.32462929 3.8941108e-05 0)
(0.32318261 3.8142041e-05 0)
(0.3217262 3.7331862e-05 0)
(0.32026067 3.6519191e-05 0)
(0.31878624 3.5695966e-05 0)
(0.31730475 3.4831583e-05 0)
(0.31581702 3.3979728e-05 0)
(0.31432449 3.309316e-05 0)
(0.31282787 3.2218389e-05 0)
(0.31132958 3.1363594e-05 0)
(0.30982417 3.0507314e-05 0)
(0.30832744 2.9892133e-05 0)
(0.30677995 2.883785e-05 0)
(0.30535584 3.201733e-05 0)
(0.30351859 7.2654098e-05 0)
(0.30231696 0.00011307356 0)
(0.29932042 9.8138301e-05 0)
(0.97006312 0.027083027 0)
(0.97641316 0.03426425 0)
(0.98547064 0.038377714 0)
(0.99343582 0.039211207 0)
(1.001639 0.036175116 0)
(1.0025247 0.031199865 0)
(0.99956629 0.026291977 0)
(0.9933267 0.022247134 0)
(0.98419866 0.019368717 0)
(0.97250891 0.01734706 0)
(0.9586855 0.015776906 0)
(0.94312597 0.014350601 0)
(0.92570664 0.013015449 0)
(0.90736178 0.011781015 0)
(0.88854541 0.010669904 0)
(0.86954313 0.0096640491 0)
(0.85055666 0.0087606441 0)
(0.83171057 0.0079712723 0)
(0.81309522 0.0072753488 0)
(0.79480268 0.0066469805 0)
(0.77691318 0.006079052 0)
(0.75947194 0.0055731015 0)
(0.74250304 0.005117915 0)
(0.72602675 0.0047031452 0)
(0.71006134 0.0043267256 0)
(0.69460881 0.0039882429 0)
(0.67966347 0.0036808918 0)
(0.66522228 0.0033985888 0)
(0.65128137 0.0031398795 0)
(0.63783099 0.0029035843 0)
(0.62486115 0.0026856216 0)
(0.61236638 0.0024827997 0)
(0.60034229 0.0022943367 0)
(0.58878339 0.0021191371 0)
(0.57768664 0.0019548584 0)
(0.56705442 0.0017997253 0)
(0.5568926 0.0016530841 0)
(0.54720714 0.001513773 0)
(0.53800688 0.0013801171 0)
(0.5293054 0.0012510335 0)
(0.5211198 0.0011261295 0)
(0.51346983 0.0010047044 0)
(0.50638071 0.00088582596 0)
(0.49987787 0.00076953018 0)
(0.49399963 0.00065136956 0)
(0.48878682 0.00056411206 0)
(0.48424825 0.00042687565 0)
(0.48039934 0.00031378119 0)
(0.47723076 0.00020990635 0)
(0.474722 0.00011540163 0)
(0.47284109 3.1134349e-05 0)
(0.47154172 -4.1568164e-05 0)
(0.47075768 -0.00010020154 0)
(0.4703929 -0.00014254336 0)
(0.47036035 -0.00017132877 0)
(0.47055081 -0.00018593572 0)
(0.47079834 -0.00017847228 0)
(0.47093231 -0.00015126548 0)
(0.4708228 -0.00010445915 0)
(0.47038775 -6.1159892e-05 0)
(0.46961402 -1.507443e-05 0)
(0.4685113 2.604777e-05 0)
(0.46711371 6.0047337e-05 0)
(0.46546942 8.5920177e-05 0)
(0.46363168 0.00010415767 0)
(0.46165027 0.00011593709 0)
(0.45957038 0.00012242078 0)
(0.45743042 0.00012501838 0)
(0.45526076 0.00012483102 0)
(0.45308491 0.00012269316 0)
(0.4509208 0.00011928182 0)
(0.44877997 0.00011517823 0)
(0.44667129 0.00011059735 0)
(0.44460224 0.00010575105 0)
(0.44257567 0.00010100363 0)
(0.44059214 9.6405433e-05 0)
(0.43864747 9.2977316e-05 0)
(0.43673313 9.0761045e-05 0)
(0.4348421 8.8385552e-05 0)
(0.43297006 8.5828991e-05 0)
(0.43111287 8.3268791e-05 0)
(0.42926771 8.0892729e-05 0)
(0.42742908 7.8851542e-05 0)
(0.42559276 7.6928375e-05 0)
(0.42375579 7.5161178e-05 0)
(0.42191623 7.341421e-05 0)
(0.4200738 7.1686774e-05 0)
(0.41822808 6.9958577e-05 0)
(0.41638024 6.8181684e-05 0)
(0.41453075 6.6431132e-05 0)
(0.41268054 6.4642143e-05 0)
(0.41083006 6.2872133e-05 0)
(0.40898154 6.1157927e-05 0)
(0.40712891 5.9420824e-05 0)
(0.4052885 5.8197494e-05 0)
(0.40339709 5.5988935e-05 0)
(0.40163479 6.0093678e-05 0)
(0.39945382 0.00010769958 0)
(0.39792112 0.00015848031 0)
(0.39438303 6.4837945e-05 0)
(0.97241972 0.025563249 0)
(0.97777894 0.032399593 0)
(0.98586862 0.036407166 0)
(0.99417559 0.037068159 0)
(1.001255 0.034667646 0)
(1.0056072 0.030635244 0)
(1.007944 0.026371841 0)
(1.0070938 0.022756998 0)
(1.0052848 0.020142123 0)
(1.0027762 0.018354309 0)
(0.99956929 0.017018232 0)
(0.99556412 0.015924841 0)
(0.9902714 0.014972831 0)
(0.98360033 0.014080077 0)
(0.97556552 0.013227042 0)
(0.9662907 0.012374371 0)
(0.95567541 0.011538531 0)
(0.94417168 0.01074818 0)
(0.93197598 0.01001079 0)
(0.91923079 0.0093183304 0)
(0.9060524 0.0086720208 0)
(0.89254382 0.0080781296 0)
(0.87878225 0.0075283544 0)
(0.86485379 0.0070129239 0)
(0.85084274 0.0065313107 0)
(0.8368173 0.006085746 0)
(0.82283559 0.0056708076 0)
(0.80895227 0.0052814994 0)
(0.79521471 0.0049178921 0)
(0.78165945 0.0045799805 0)
(0.76831775 0.004263805 0)
(0.75522032 0.0039661537 0)
(0.7423949 0.0036864744 0)
(0.72986495 0.0034235872 0)
(0.7176539 0.0031745808 0)
(0.70578957 0.0029371906 0)
(0.69430062 0.0027110719 0)
(0.683204 0.0024952712 0)
(0.67251826 0.0022876451 0)
(0.6622669 0.0020865665 0)
(0.65247648 0.0018913081 0)
(0.64317545 0.0017008384 0)
(0.63439647 0.0015139519 0)
(0.62617167 0.0013299258 0)
(0.6185527 0.0011474428 0)
(0.61155729 0.00096743824 0)
(0.60518193 0.00078969983 0)
(0.59942385 0.0006234849 0)
(0.59427663 0.00046696612 0)
(0.58973117 0.00032307337 0)
(0.585768 0.00019445178 0)
(0.58235505 8.3162186e-05 0)
(0.57943476 -7.3601257e-06 0)
(0.57692446 -7.4760096e-05 0)
(0.57477176 -0.00012100155 0)
(0.57282644 -0.00014220455 0)
(0.57091087 -0.000134398 0)
(0.56891531 -0.00010086009 0)
(0.56678766 -4.1303154e-05 0)
(0.56449622 8.9657626e-06 0)
(0.56204688 6.4602227e-05 0)
(0.55944801 0.00011380776 0)
(0.55671796 0.00015390596 0)
(0.55388088 0.00018375749 0)
(0.55096464 0.00020401122 0)
(0.54799654 0.00021610567 0)
(0.54500312 0.00022146861 0)
(0.54200833 0.00022185713 0)
(0.53903207 0.00021867017 0)
(0.53609035 0.00021299577 0)
(0.53319552 0.0002057366 0)
(0.53035544 0.00019763434 0)
(0.52757737 0.00018897319 0)
(0.52486668 0.00018007106 0)
(0.52222448 0.00017142401 0)
(0.51964982 0.00016316175 0)
(0.5171368 0.000156442 0)
(0.5146938 0.00015123567 0)
(0.51230963 0.00014606302 0)
(0.5099718 0.0001410101 0)
(0.50767133 0.0001361992 0)
(0.50540277 0.00013178565 0)
(0.50315945 0.00012792726 0)
(0.50093584 0.00012433741 0)
(0.49872772 0.0001210397 0)
(0.49653183 0.00011784598 0)
(0.49434656 0.00011473924 0)
(0.49217034 0.00011168119 0)
(0.49000317 0.00010860359 0)
(0.48784458 0.00010559549 0)
(0.4856945 0.00010257415 0)
(0.48355274 9.9600233e-05 0)
(0.48142073 9.6744736e-05 0)
(0.47929171 9.3855636e-05 0)
(0.4771814 9.180412e-05 0)
(0.47502593 8.8183054e-05 0)
(0.47300027 9.2989888e-05 0)
(0.47058155 0.00014339916 0)
(0.46878652 0.00019829223 0)
(0.46489899 0.00013286687 0)
(0.97460855 0.024511264 0)
(0.97930147 0.03079366 0)
(0.98637409 0.034468359 0)
(0.99378606 0.035112193 0)
(1.0001812 0.033233171 0)
(1.0048069 0.029795195 0)
(1.0072992 0.025981858 0)
(1.0082834 0.02269918 0)
(1.0079591 0.020248707 0)
(1.0074055 0.018530087 0)
(1.0067746 0.017264261 0)
(1.006017 0.016265788 0)
(1.0049853 0.015425694 0)
(1.0035652 0.014655818 0)
(1.0016429 0.013931449 0)
(0.99915251 0.013261262 0)
(0.99585824 0.012640885 0)
(0.99170669 0.012047157 0)
(0.98668271 0.011472458 0)
(0.9808003 0.010900491 0)
(0.97399335 0.010332376 0)
(0.96645186 0.0097857598 0)
(0.95826305 0.0092609006 0)
(0.94949167 0.0087556199 0)
(0.94019496 0.0082721442 0)
(0.93042921 0.0078135621 0)
(0.92025374 0.0073756544 0)
(0.90972493 0.006954525 0)
(0.89889988 0.0065514025 0)
(0.88783479 0.0061675161 0)
(0.87658408 0.0057998469 0)
(0.86520274 0.0054462806 0)
(0.85374319 0.0051076662 0)
(0.84225215 0.0047838182 0)
(0.8307742 0.0044722714 0)
(0.8193547 0.0041710835 0)
(0.80803867 0.0038799943 0)
(0.79687078 0.0035983472 0)
(0.78589471 0.0033245201 0)
(0.77515438 0.0030571611 0)
(0.76469343 0.0027956973 0)
(0.7545554 0.0025390261 0)
(0.74478696 0.0022858535 0)
(0.73543463 0.0020345176 0)
(0.72657713 0.001786724 0)
(0.71815141 0.0015458882 0)
(0.7101661 0.0013126505 0)
(0.702664 0.0010876383 0)
(0.69567188 0.00087556338 0)
(0.68919905 0.00068047614 0)
(0.68323603 0.0005052597 0)
(0.67775443 0.00035303078 0)
(0.67269987 0.00022779813 0)
(0.6680182 0.0001302071 0)
(0.66370927 6.4498069e-05 0)
(0.65949379 3.4874356e-05 0)
(0.65524396 3.9078272e-05 0)
(0.65098571 6.964588e-05 0)
(0.64674857 0.00012913656 0)
(0.64253091 0.00017435274 0)
(0.63834335 0.00022722067 0)
(0.63418679 0.00027363634 0)
(0.63006195 0.00031052897 0)
(0.62597138 0.0003366496 0)
(0.62192128 0.0003526213 0)
(0.61791895 0.00035990482 0)
(0.6139729 0.00035996578 0)
(0.61009211 0.00035468778 0)
(0.60628485 0.00034558172 0)
(0.60255831 0.00033384416 0)
(0.59891864 0.00032048348 0)
(0.59537031 0.00030636425 0)
(0.59191578 0.0002918208 0)
(0.58855694 0.00027722324 0)
(0.58529265 0.00026316601 0)
(0.58212023 0.00024984373 0)
(0.57903334 0.00023826042 0)
(0.57603451 0.00022841633 0)
(0.57311891 0.00021909214 0)
(0.57027611 0.00021038028 0)
(0.56749582 0.00020227942 0)
(0.56477091 0.00019488182 0)
(0.5620937 0.00018833405 0)
(0.55945765 0.00018227844 0)
(0.55685742 0.0001767173 0)
(0.5542885 0.00017140914 0)
(0.55174789 0.00016631481 0)
(0.54923273 0.00016137296 0)
(0.54674161 0.00015649093 0)
(0.54427286 0.0001517607 0)
(0.54182565 0.00014708192 0)
(0.53939853 0.00014251673 0)
(0.53699175 0.00013817014 0)
(0.53459772 0.00013380113 0)
(0.53223091 0.0001306432 0)
(0.52982843 0.00012532751 0)
(0.52755544 0.00013038627 0)
(0.52492142 0.0001808533 0)
(0.5228925 0.00023755151 0)
(0.51869651 0.000181358 0)
(0.97658085 0.023525559 0)
(0.98074196 0.029152018 0)
(0.98699972 0.032517068 0)
(0.99361671 0.033275324 0)
(0.99942513 0.031814847 0)
(1.003738 0.028880896 0)
(1.0062843 0.025504695 0)
(1.0074377 0.022522637 0)
(1.0077531 0.020237308 0)
(1.0077312 0.018572806 0)
(1.0076323 0.017320035 0)
(1.0075268 0.016320017 0)
(1.0074055 0.015486186 0)
(1.0072237 0.014746481 0)
(1.0069192 0.014072958 0)
(1.0064524 0.013465077 0)
(1.0057778 0.012911834 0)
(1.0048404 0.012389123 0)
(1.0035805 0.011892132 0)
(1.001944 0.011425542 0)
(0.9998011 0.010984982 0)
(0.99709825 0.010557703 0)
(0.99381033 0.010138724 0)
(0.98991234 0.009720321 0)
(0.98536039 0.0093042126 0)
(0.98023415 0.0088984992 0)
(0.97456108 0.0085017033 0)
(0.96836658 0.0081123517 0)
(0.96167509 0.0077329415 0)
(0.95451185 0.0073648506 0)
(0.9469065 0.0070049106 0)
(0.93889511 0.0066511325 0)
(0.93051491 0.0063054078 0)
(0.92179473 0.0059681851 0)
(0.91277191 0.0056370081 0)
(0.90348677 0.0053103855 0)
(0.89397944 0.0049892027 0)
(0.88429712 0.0046734859 0)
(0.87448939 0.004361614 0)
(0.86460755 0.0040524746 0)
(0.85470395 0.0037459874 0)
(0.84483226 0.0034414635 0)
(0.83504905 0.0031379163 0)
(0.82541408 0.0028338397 0)
(0.8159924 0.0025298311 0)
(0.80682196 0.0022349251 0)
(0.79790709 0.0019522031 0)
(0.7892806 0.0016794697 0)
(0.78097675 0.0014204266 0)
(0.77302257 0.0011793214 0)
(0.76543107 0.00096025378 0)
(0.75819782 0.00076773464 0)
(0.75129663 0.00060621678 0)
(0.74472297 0.00047493981 0)
(0.73849888 0.00038035802 0)
(0.7324315 0.00033260728 0)
(0.72642526 0.00032646976 0)
(0.72050162 0.00034707512 0)
(0.71468264 0.00039551367 0)
(0.70896386 0.00042952298 0)
(0.70336225 0.00047081565 0)
(0.69788286 0.00050591015 0)
(0.6925234 0.00053196915 0)
(0.68728189 0.00054764605 0)
(0.68216008 0.00055348693 0)
(0.67715799 0.00055095405 0)
(0.67227515 0.00054146107 0)
(0.66751245 0.00052687818 0)
(0.66287127 0.00050870786 0)
(0.65835253 0.00048816789 0)
(0.65395754 0.00046628311 0)
(0.64968795 0.00044394511 0)
(0.6455426 0.00042150793 0)
(0.6415205 0.00039938979 0)
(0.63761846 0.0003782521 0)
(0.63383209 0.00035831368 0)
(0.630155 0.00034048222 0)
(0.62658464 0.0003247264 0)
(0.623118 0.00030994379 0)
(0.61974775 0.00029628686 0)
(0.61646467 0.00028368806 0)
(0.61326135 0.00027218452 0)
(0.61012966 0.00026190446 0)
(0.60706238 0.00025241915 0)
(0.60405329 0.00024370555 0)
(0.60109683 0.0002354688 0)
(0.59818872 0.00022764345 0)
(0.59532478 0.00022014051 0)
(0.59250223 0.00021283851 0)
(0.58971809 0.00020582525 0)
(0.58697045 0.000198978 0)
(0.58425664 0.00019235465 0)
(0.58157557 0.0001860942 0)
(0.57891883 0.00017985633 0)
(0.57629931 0.00017524734 0)
(0.57365564 0.00016792274 0)
(0.57114224 0.00017278008 0)
(0.56829826 0.00022160927 0)
(0.56605272 0.00027958851 0)
(0.5615658 0.00022835234 0)
(0.97838074 0.022612411 0)
(0.98208346 0.027631428 0)
(0.98762897 0.030750524 0)
(0.99356864 0.031603674 0)
(0.99887507 0.030476157 0)
(1.0029111 0.027993928 0)
(1.0054346 0.025028287 0)
(1.0066801 0.022315709 0)
(1.0071617 0.020162519 0)
(1.00733 0.018544628 0)
(1.0074209 0.017307411 0)
(1.007501 0.016313356 0)
(1.0075642 0.015480797 0)
(1.0076335 0.014746655 0)
(1.0076713 0.014084174 0)
(1.0076566 0.013487772 0)
(1.0075977 0.012948486 0)
(1.0074779 0.012448579 0)
(1.0072717 0.011982695 0)
(1.0069566 0.011552526 0)
(1.0065034 0.011151057 0)
(1.0058742 0.01076654 0)
(1.0050301 0.010396669 0)
(1.0039255 0.010044033 0)
(1.0024817 0.0097057979 0)
(1.0006567 0.0093754703 0)
(0.99842131 0.0090486348 0)
(0.99573728 0.0087211001 0)
(0.99258091 0.0083948346 0)
(0.98897877 0.0080729872 0)
(0.98493268 0.0077538221 0)
(0.98044241 0.0074359785 0)
(0.97551088 0.007120857 0)
(0.97014682 0.0068090603 0)
(0.96435941 0.0064984261 0)
(0.9581619 0.0061873801 0)
(0.95156884 0.0058765567 0)
(0.94459787 0.0055658273 0)
(0.93726411 0.0052536926 0)
(0.92958884 0.0049390133 0)
(0.92160135 0.0046217568 0)
(0.91333515 0.0043013504 0)
(0.90482763 0.0039767247 0)
(0.89612539 0.0036464526 0)
(0.88725743 0.0033129367 0)
(0.87835753 0.0029857832 0)
(0.86947611 0.0026668851 0)
(0.86062922 0.0023566399 0)
(0.8518453 0.0020594431 0)
(0.84316168 0.0017798152 0)
(0.83461917 0.0015224147 0)
(0.82625722 0.0012926469 0)
(0.81810956 0.0010959533 0)
(0.81019828 0.000931583 0)
(0.80251724 0.00080660986 0)
(0.79516131 0.00073666541 0)
(0.78799266 0.00071275481 0)
(0.78099269 0.00071536976 0)
(0.7741131 0.00074462154 0)
(0.76733043 0.00076318212 0)
(0.76067223 0.0007874326 0)
(0.75414714 0.0008059476 0)
(0.74775525 0.00081619009 0)
(0.74150527 0.00081656373 0)
(0.73540856 0.0008076728 0)
(0.7294666 0.00079116075 0)
(0.72367899 0.00076834453 0)
(0.71804774 0.00074102487 0)
(0.71257318 0.00071070908 0)
(0.70725365 0.00067860021 0)
(0.70208818 0.00064565618 0)
(0.69707678 0.00061277713 0)
(0.69221748 0.00058034244 0)
(0.68750788 0.00054877768 0)
(0.68294335 0.0005187846 0)
(0.67851823 0.00049057096 0)
(0.67422611 0.00046499613 0)
(0.67006196 0.00044196561 0)
(0.66602234 0.00042036789 0)
(0.66210162 0.00040041728 0)
(0.65829215 0.00038201881 0)
(0.65458713 0.00036517562 0)
(0.65097847 0.0003500038 0)
(0.64745857 0.00033600746 0)
(0.64402057 0.00032313769 0)
(0.64065798 0.00031104729 0)
(0.6373654 0.00029964214 0)
(0.6341374 0.00028880212 0)
(0.63096983 0.00027837308 0)
(0.6278584 0.00026843014 0)
(0.62479977 0.000258825 0)
(0.62179007 0.0002496089 0)
(0.61882699 0.0002409499 0)
(0.61590125 0.00023240065 0)
(0.61302403 0.00022594057 0)
(0.61013549 0.00021625596 0)
(0.60737991 0.00022051103 0)
(0.60432062 0.000266732 0)
(0.60186415 0.00032640241 0)
(0.59708526 0.00027597495 0)
(0.98002519 0.021775318 0)
(0.98333663 0.026246696 0)
(0.98824805 0.029130792 0)
(0.99357354 0.030039919 0)
(0.99842072 0.029192135 0)
(1.0022126 0.027112995 0)
(1.0047051 0.024524281 0)
(1.0060498 0.022066383 0)
(1.0066592 0.020048428 0)
(1.0069326 0.018488145 0)
(1.0071014 0.017271839 0)
(1.0072471 0.016284901 0)
(1.0073833 0.015453961 0)
(1.0075128 0.014724377 0)
(1.0076232 0.014068793 0)
(1.007712 0.013477146 0)
(1.0077796 0.012940802 0)
(1.0078464 0.012445729 0)
(1.0078801 0.011987656 0)
(1.0078763 0.011565872 0)
(1.0078421 0.011174084 0)
(1.0077654 0.010804313 0)
(1.0076298 0.010453837 0)
(1.0074186 0.010123467 0)
(1.0071114 0.0098094793 0)
(1.0066816 0.0095063136 0)
(1.0061027 0.0092125006 0)
(1.0053361 0.0089282934 0)
(1.0043319 0.0086516507 0)
(1.0030565 0.00837927 0)
(1.0014853 0.0081073919 0)
(0.99957402 0.0078331781 0)
(0.99730872 0.0075587306 0)
(0.99469278 0.0072851266 0)
(0.99171594 0.007010409 0)
(0.98836578 0.0067331856 0)
(0.98463183 0.0064537437 0)
(0.9805046 0.0061714471 0)
(0.97597938 0.0058846003 0)
(0.97105263 0.0055922642 0)
(0.96571994 0.0052943323 0)
(0.95997723 0.0049899935 0)
(0.95382116 0.0046777145 0)
(0.94725366 0.0043567906 0)
(0.9402643 0.0040282968 0)
(0.93288489 0.0036972987 0)
(0.92519957 0.0033676334 0)
(0.91725661 0.0030431149 0)
(0.90909481 0.0027292954 0)
(0.90075474 0.002430558 0)
(0.89228492 0.0021513939 0)
(0.8837443 0.0018972205 0)
(0.87520306 0.0016733093 0)
(0.86671151 0.0014805563 0)
(0.85826849 0.0013257174 0)
(0.8500721 0.0012209551 0)
(0.84218719 0.0011643832 0)
(0.83453989 0.0011447311 0)
(0.82696223 0.0011541411 0)
(0.81946731 0.001156836 0)
(0.8120827 0.0011631638 0)
(0.80479112 0.0011641084 0)
(0.7976002 0.0011567017 0)
(0.79053799 0.0011393565 0)
(0.78362241 0.0011131953 0)
(0.77685595 0.0010801114 0)
(0.77024741 0.0010412359 0)
(0.76380792 0.00099842819 0)
(0.75753979 0.00095337592 0)
(0.75144273 0.00090724396 0)
(0.74551859 0.00086088809 0)
(0.7397688 0.00081524506 0)
(0.73419156 0.00077072235 0)
(0.7287849 0.00072774376 0)
(0.72354447 0.00068704848 0)
(0.71846445 0.00064881574 0)
(0.71353918 0.00061386264 0)
(0.70876344 0.00058203205 0)
(0.70413328 0.0005521573 0)
(0.69964377 0.00052448612 0)
(0.69528864 0.00049890013 0)
(0.69106205 0.0004753864 0)
(0.68695636 0.00045406106 0)
(0.68296395 0.00043436805 0)
(0.67907758 0.00041623557 0)
(0.67529006 0.00039926608 0)
(0.67159502 0.00038333563 0)
(0.66798597 0.00036829076 0)
(0.66445751 0.00035394129 0)
(0.66100406 0.00034034559 0)
(0.65762087 0.00032732476 0)
(0.65430284 0.00031491606 0)
(0.65104642 0.00030331224 0)
(0.64784146 0.00029195399 0)
(0.64469738 0.00028318977 0)
(0.64155569 0.00027074919 0)
(0.63855168 0.00027401134 0)
(0.63526736 0.0003170408 0)
(0.63259865 0.00037929264 0)
(0.6275176 0.00032627367 0)
(0.98152739 0.021000237 0)
(0.98450196 0.024975565 0)
(0.9888528 0.027626467 0)
(0.99362101 0.028568807 0)
(0.99804223 0.027961609 0)
(1.0015968 0.026237421 0)
(1.0040419 0.023991444 0)
(1.0054672 0.021779092 0)
(1.0061984 0.019902785 0)
(1.0065773 0.018410497 0)
(1.0068191 0.017222693 0)
(1.0070113 0.016246778 0)
(1.0071802 0.015419351 0)
(1.0073339 0.014693494 0)
(1.0074721 0.014042298 0)
(1.0075936 0.013454326 0)
(1.0077015 0.012920626 0)
(1.007799 0.012429693 0)
(1.007881 0.01197619 0)
(1.0079511 0.011557167 0)
(1.0080084 0.011167509 0)
(1.0080655 0.010800618 0)
(1.0081027 0.010454977 0)
(1.0081105 0.010130457 0)
(1.0080968 0.0098232184 0)
(1.0080521 0.009529852 0)
(1.0079668 0.0092487031 0)
(1.0078273 0.0089786262 0)
(1.0076188 0.0087176539 0)
(1.0073213 0.0084631303 0)
(1.0069158 0.0082141728 0)
(1.0063697 0.0079700436 0)
(1.0056498 0.0077290031 0)
(1.004729 0.0074891482 0)
(1.0035869 0.0072474359 0)
(1.0021796 0.0070017811 0)
(1.000501 0.0067532119 0)
(0.99853583 0.00650172 0)
(0.99626725 0.0062459565 0)
(0.9936769 0.0059845238 0)
(0.99074478 0.0057169514 0)
(0.98744917 0.0054425176 0)
(0.98376646 0.0051595475 0)
(0.97967146 0.0048674457 0)
(0.97513391 0.0045661395 0)
(0.97011591 0.0042590447 0)
(0.96461674 0.0039493236 0)
(0.95865419 0.0036399688 0)
(0.95224258 0.0033364252 0)
(0.94540003 0.0030432476 0)
(0.93815309 0.0027646688 0)
(0.93054116 0.002505504 0)
(0.9226217 0.0022711366 0)
(0.91446396 0.0020650696 0)
(0.90611228 0.0018910896 0)
(0.89769638 0.0017593772 0)
(0.88944581 0.0016726223 0)
(0.88138346 0.0016216482 0)
(0.87349341 0.0016036863 0)
(0.86574118 0.0015894552 0)
(0.85804946 0.001581091 0)
(0.85034842 0.0015672168 0)
(0.84269652 0.00154293 0)
(0.83513183 0.0015081609 0)
(0.82765186 0.001464788 0)
(0.82027097 0.0014143373 0)
(0.81301972 0.0013580248 0)
(0.80591663 0.0012982165 0)
(0.79896545 0.0012368146 0)
(0.79217503 0.0011748503 0)
(0.78555657 0.0011131737 0)
(0.7791147 0.0010529063 0)
(0.77284998 0.0009944643 0)
(0.7667644 0.00093824618 0)
(0.76085662 0.00088507222 0)
(0.75512278 0.0008350917 0)
(0.74956009 0.00078906957 0)
(0.74416533 0.00074681704 0)
(0.73893503 0.00070711927 0)
(0.7338651 0.0006702299 0)
(0.72895074 0.00063599808 0)
(0.72418722 0.00060440779 0)
(0.71956776 0.00057558506 0)
(0.71508521 0.00054892195 0)
(0.7107323 0.0005243312 0)
(0.70650145 0.0005013675 0)
(0.7023857 0.00047987718 0)
(0.69837771 0.00045967294 0)
(0.69447104 0.00044052625 0)
(0.69065897 0.00042247577 0)
(0.68693549 0.00040530751 0)
(0.68329431 0.00038903791 0)
(0.67973064 0.00037387909 0)
(0.67623345 0.00035915573 0)
(0.67281048 0.00034757972 0)
(0.66940433 0.00033193595 0)
(0.66614251 0.00033379512 0)
(0.66262104 0.00037320513 0)
(0.6597341 0.0004391288 0)
(0.65433549 0.00038019832 0)
(0.98290067 0.020276011 0)
(0.98558266 0.023806501 0)
(0.98944068 0.026233542 0)
(0.99370663 0.027193687 0)
(0.99773402 0.026790631 0)
(1.0010563 0.025375207 0)
(1.0034365 0.023438823 0)
(1.0049172 0.021460055 0)
(1.0057516 0.019726313 0)
(1.0062284 0.018308025 0)
(1.0065437 0.017155308 0)
(1.0067869 0.016195935 0)
(1.0069905 0.01537642 0)
(1.007168 0.014656543 0)
(1.0073243 0.014010815 0)
(1.0074614 0.01342706 0)
(1.0075836 0.012896413 0)
(1.0076946 0.012408701 0)
(1.0077949 0.011957969 0)
(1.0078863 0.01154091 0)
(1.0079707 0.011152773 0)
(1.0080493 0.010788169 0)
(1.0081189 0.010445256 0)
(1.0081809 0.010122614 0)
(1.0082361 0.0098172437 0)
(1.0082845 0.0095255484 0)
(1.0083326 0.009246906 0)
(1.0083512 0.0089810581 0)
(1.0083543 0.0087250465 0)
(1.0083343 0.0084773089 0)
(1.0082844 0.0082370457 0)
(1.0081945 0.0080024668 0)
(1.0080525 0.0077720394 0)
(1.0078432 0.0075443121 0)
(1.0075522 0.0073190291 0)