/*--------------------------------*- C++ -*----------------------------------*\
| =========                 |                                                 |
| \\      /  F ield         | OpenFOAM: The Open Source CFD Toolbox           |
|  \\    /   O peration     | Version:  2206                                  |
|   \\  /    A nd           | Website:  www.openfoam.com                      |
|    \\/     M anipulation  |                                                 |
\*---------------------------------------------------------------------------*/
FoamFile
{
    version     2.0;
    format      ascii;
    arch        "LSB;label=32;scalar=64";
    class       volScalarField;
    location    "700";
    object      epsilon;
}
// * * * * * * * * * * * * * * * * * * * * * * * * * * * * * * * * * * * * * //

dimensions      [0 2 -3 0 0 0 0];

internalField   nonuniform List<scalar> 
13056
(
0.008994533
0.008950067
0.0089270788
0.0089161071
0.0089097309
0.0089054053
0.0089022547
0.0088998865
0.0088980789
0.0088966917
0.0088956331
0.0088948432
0.0088942851
0.008893941
0.0088938141
0.0088939288
0.0088943616
0.0088952161
0.0088969122
0.0088996134
0.0089064596
0.0089178069
0.0089409987
0.011911165
0.030901646
0.0018973285
0.0058057179
0.00042782823
0.0024511165
0.00023256477
0.0015509386
0.0012233293
0.0011246577
0.0009779739
0.00088449226
0.00080080591
0.00073329191
0.00067598733
0.00062697879
0.00058408988
0.00054681815
0.00051416393
0.00048532083
0.00045965924
0.00043668075
0.00041598262
0.00039723905
0.00038018315
0.00036459429
0.00035028788
0.0003371091
0.00032492653
0.00031362826
0.00030311833
0.00029331428
0.00028414462
0.00027554693
0.00026746661
0.00025985577
0.00025267216
0.00024587852
0.00023944164
0.00023333204
0.0002275232
0.00022199123
0.00021671436
0.00021167374
0.000206852
0.00020223331
0.00019780334
0.0001935492
0.00018945898
0.00018552168
0.00018172735
0.00017806681
0.00017453165
0.00017111409
0.00016780694
0.00016460362
0.0001614981
0.00015848466
0.00015555796
0.00015271312
0.00014994555
0.00014725099
0.00014462544
0.00014206516
0.00013956671
0.00013712687
0.00013474254
0.00013241081
0.00013012896
0.00012789444
0.00012570482
0.00012355782
0.00012145131
0.0001193833
0.00011735182
0.00011535499
0.00011339106
0.00011145837
0.00010955532
0.00010768038
0.0001058321
0.00010400914
0.00010221013
0.0001004338
9.8678914e-05
9.6944324e-05
9.5228964e-05
9.3531841e-05
9.1852527e-05
9.0189533e-05
8.858441e-05
8.7087402e-05
8.5705218e-05
8.4426164e-05
8.3239106e-05
8.2133804e-05
8.1101487e-05
8.0134658e-05
7.9226827e-05
7.8372313e-05
7.7566127e-05
7.6803863e-05
7.6081552e-05
7.5395581e-05
7.4742548e-05
7.4119351e-05
7.3522375e-05
7.2949148e-05
7.2391894e-05
7.1856436e-05
7.1301105e-05
7.083511e-05
7.0122361e-05
0.0089929584
0.0089483883
0.0089253392
0.0089143349
0.0089079382
0.0089035982
0.0089004364
0.0088980593
0.0088962441
0.0088948501
0.0088937851
0.0088929886
0.0088924232
0.0088920706
0.0088919328
0.0088920331
0.0088924453
0.0088932701
0.0088949152
0.0088975435
0.0089042011
0.0089153353
0.0089371411
0.011907749
0.030619075
0.0019506271
0.0060159979
0.00062534108
0.0026972866
0.00059655358
0.0017962517
0.0014746989
0.0013657071
0.0012187322
0.0011215189
0.0010356791
0.0009658106
0.0009063956
0.00085537112
0.00081086815
0.00077212216
0.0007380935
0.00070796611
0.00068110217
0.00065699708
0.00063523772
0.00061549241
0.00059748911
0.00058100237
0.0005658433
0.00055185311
0.00053889691
0.00052685967
0.00051564262
0.00050516076
0.00049534029
0.00048611673
0.00047743359
0.00046924128
0.00046149598
0.00045415936
0.00044719678
0.00044057746
0.00043427373
0.00042826062
0.00042251518
0.00041701789
0.00041175066
0.00040669694
0.00040184173
0.00039717151
0.00039267379
0.00038833705
0.00038415079
0.00038010541
0.00037619202
0.00037240245
0.0003687291
0.00036516506
0.00036170395
0.00035833972
0.00035506675
0.00035187984
0.00034877417
0.00034574522
0.00034278876
0.00033990083
0.00033707772
0.00033431612
0.00033161268
0.00032896432
0.00032636816
0.0003238215
0.00032132176
0.0003188665
0.0003164535
0.0003140806
0.00031174574
0.00030944692
0.00030718227
0.00030495002
0.00030274848
0.00030057602
0.00029843111
0.0002963123
0.00029421816
0.00029214734
0.00029009854
0.0002880706
0.00028606242
0.00028407299
0.00028210236
0.00028014795
0.0002782663
0.00027651829
0.00027490877
0.00027342234
0.00027204483
0.00027076357
0.00026956795
0.000268449
0.00026739903
0.00026641131
0.00026548
0.00026459994
0.00026376646
0.00026297535
0.00026222265
0.00026150477
0.00026081751
0.0002601581
0.00025951719
0.00025890265
0.00025826338
0.00025773022
0.00025691025
0.0089879566
0.0089430667
0.0089198313
0.0089087275
0.0089022688
0.0088978849
0.0088946901
0.0088922869
0.0088904506
0.0088890388
0.0088879582
0.0088871473
0.0088865679
0.0088862007
0.0088860462
0.0088861261
0.0088865111
0.0088872984
0.0088888811
0.0088914218
0.0088978522
0.0089087463
0.0089287745
0.011896893
0.030334569
0.0020017226
0.0062113402
0.00082086652
0.0029326941
0.00095695129
0.0020326347
0.0017169709
0.0015990185
0.0014518408
0.0013514202
0.00126369
0.0011917613
0.0011304931
0.001077746
0.0010318353
0.00099178387
0.00095653385
0.00092526171
0.00089732329
0.00087220928
0.00084949747
0.00082885134
0.00080999463
0.00079269779
0.00077676832
0.00076204401
0.000748387
0.00073567956
0.00072382048
0.00071272257
0.00070231001
0.00069251649
0.00068328389
0.0006745611
0.00066630296
0.00065847019
0.0006510269
0.0006439411
0.00063718415
0.00063073009
0.00062455488
0.00061863846
0.00061296207
0.00060750852
0.00060226222
0.00059720909
0.00059233613
0.0005876313
0.0005830837
0.00057868327
0.00057442073
0.00057028755
0.0005662758
0.0005623782
0.0005585881
0.00055489914
0.00055130546
0.00054780158
0.00054438245
0.00054104332
0.00053777976
0.00053458762
0.00053146294
0.00052840231
0.00052540218
0.00052245932
0.00051957071
0.00051673347
0.00051394493
0.00051120251
0.00050850387
0.00050584675
0.00050322897
0.00050064843
0.00049810317
0.00049559131
0.00049311109
0.00049066077
0.00048823874
0.0004858435
0.00048347355
0.00048112743
0.00047880384
0.00047650157
0.00047421953
0.00047195669
0.00046971354
0.00046748649
0.00046534644
0.0004633643
0.00046154299
0.00045986355
0.0004583089
0.00045686408
0.00045551675
0.00045425651
0.0004530746
0.00045196329
0.00045091592
0.00044992662
0.00044899011
0.00044810158
0.00044725657
0.00044645102
0.00044568018
0.00044494103
0.00044422272
0.00044353508
0.00044281813
0.00044222293
0.00044130385
0.0089793702
0.0089339342
0.0089103807
0.0088991069
0.0088925425
0.0088880842
0.0088848333
0.0088823864
0.0088805148
0.0088790739
0.0088779685
0.0088771357
0.008876536
0.0088761489
0.0088759734
0.0088760294
0.0088763843
0.0088771317
0.0088786504
0.0088811028
0.0088873041
0.008897975
0.0089160854
0.011878825
0.0300377
0.0020496603
0.006388288
0.0010120622
0.003154891
0.0013084333
0.0022578849
0.0019481124
0.0018224682
0.0016752586
0.0015721506
0.0014828225
0.0014091424
0.0013462952
0.0012921121
0.0012449943
0.0012038115
0.0011674974
0.0011352235
0.0011063413
0.0010803384
0.0010567849
0.0010353405
0.0010157256
0.00099770759
0.00098109086
0.00096571045
0.00095142603
0.00093811765
0.00092568201
0.00091403011
0.00090308437
0.00089277697
0.00088304837
0.00087384617
0.00086512403
0.00085684195
0.00084896288
0.00084145382
0.00083428524
0.00082743032
0.00082086405
0.0008145659
0.00080851653
0.00080269821
0.00079709483
0.0007916918
0.00078647568
0.000781434
0.00077655545
0.0007718296
0.00076724684
0.0007627983
0.00075847572
0.00075427157
0.00075017892
0.00074619115
0.00074230214
0.00073850621
0.0007347981
0.00073117286
0.00072762585
0.00072415277
0.00072074944
0.00071741237
0.00071413782
0.00071092243
0.00070776304
0.00070465666
0.00070160048
0.00069859182
0.00069562825
0.00069270741
0.00068982701
0.00068698487
0.00068417894
0.00068140725
0.00067866796
0.00067595928
0.0006732795
0.00067062705
0.00066800039
0.00066539799
0.00066281852
0.00066026075
0.00065772357
0.00065520598
0.00065270889
0.00065022772
0.0006478471
0.00064564732
0.00064362935
0.00064177085
0.00064005196
0.00063845557
0.00063696769
0.00063557665
0.00063427261
0.00063304694
0.00063189222
0.00063080192
0.00062977015
0.0006287916
0.00062786131
0.00062697479
0.00062612679
0.00062531405
0.00062452432
0.00062376927
0.00062298059
0.00062232823
0.00062131775
0.008966953
0.0089207277
0.0088967141
0.0088851946
0.0088784773
0.0088739114
0.0088705797
0.0088680698
0.0088661479
0.0088646658
0.0088635256
0.0088626627
0.0088620359
0.0088616231
0.0088614219
0.00886145
0.0088617714
0.0088624763
0.0088639287
0.0088662918
0.0088722605
0.0088827252
0.0088987593
0.011853074
0.029718435
0.0020934069
0.0065430359
0.0011963557
0.0033610871
0.001645538
0.0024694778
0.0021657565
0.0020336324
0.0018866421
0.0017813744
0.0016907731
0.0016156697
0.0015515356
0.001496198
0.0014480794
0.0014059478
0.0013687342
0.0013356079
0.0013059181
0.0012791512
0.0012548708
0.0012327344
0.0012124601
0.0011938127
0.0011765946
0.0011606386
0.0011458024
0.0011319643
0.0011190195
0.0011068773
0.0010954589
0.0010846951
0.0010745254
0.0010648961
0.00105576
0.0010470765
0.0010388076
0.0010309195
0.0010233818
0.001016167
0.0010092492
0.0010026075
0.00099622215
0.00099007486
0.0009841491
0.00097842986
0.00097290331
0.00096755663
0.00096237815
0.00095735712
0.00095248362
0.00094774851
0.00094314327
0.00093866011
0.00093429186
0.00093003169
0.00092587327
0.00092181072
0.00091783859
0.00091395176
0.00091014543
0.00090641517
0.00090275657
0.00089916609
0.00089563984
0.00089217432
0.00088876627
0.00088541259
0.00088211037
0.00087885682
0.00087564945
0.00087248579
0.00086936349
0.00086628027
0.00086323401
0.00086022266
0.00085724431
0.00085429712
0.00085137931
0.00084848925
0.00084562535
0.00084278603
0.00083996992
0.0008371758
0.00083440256
0.00083164919
0.00082891703
0.00082620055
0.00082359738
0.00082119657
0.00081899711
0.00081697349
0.00081510323
0.0008133672
0.00081174991
0.00081023844
0.000808822
0.00080749111
0.00080623765
0.00080505448
0.00080393516
0.00080287387
0.00080186522
0.00080090434
0.00079998548
0.00079910518
0.00079824989
0.00079743302
0.00079657847
0.00079587371
0.00079477939
0.0089503717
0.0089030909
0.0088784618
0.0088666133
0.0088596914
0.0088549815
0.0088515418
0.0088489479
0.0088469589
0.008845422
0.0088442362
0.0088433342
0.0088426728
0.0088422281
0.0088419957
0.0088419915
0.0088422757
0.0088429349
0.0088443183
0.0088465906
0.0088523223
0.0088625985
0.0088763793
0.011819008
0.029367036
0.0021318346
0.0066713837
0.0013708942
0.0035481014
0.0019626867
0.002664519
0.0023671572
0.0022297375
0.0020832968
0.0019764155
0.0018849018
0.0018087268
0.0017436174
0.0016874077
0.0016385066
0.0015956206
0.0015576825
0.0015238622
0.0014935091
0.0014661101
0.0014412244
0.0014185082
0.0013976785
0.0013784985
0.0013607693
0.0013443223
0.0013290138
0.0013147209
0.0013013375
0.0012887719
0.0012769442
0.0012657844
0.0012552308
0.0012452292
0.0012357314
0.0012266967
0.0012180861
0.0012098651
0.0012020028
0.0011944709
0.0011872429
0.0011802976
0.0011736147
0.0011671758
0.0011609639
0.0011549637
0.0011491609
0.0011435424
0.0011380964
0.0011328118
0.0011276783
0.0011226867
0.0011178282
0.0011130948
0.0011084792
0.0011039742
0.0010995734
0.0010952708
0.0010910607
0.001086938
0.0010828975
0.0010789349
0.0010750455
0.0010712257
0.0010674715
0.0010637793
0.0010601457
0.0010565676
0.0010530419
0.0010495658
0.0010461367
0.0010427521
0.0010394096
0.0010361068
0.0010328414
0.0010296115
0.0010264151
0.0010232502
0.0010201149
0.0010170078
0.001013927
0.001010871
0.0010078383
0.0010048279
0.0010018385
0.00099886915
0.0009959216
0.00099298945
0.00099018247
0.00098759778
0.00098523246
0.00098305803
0.00098104959
0.00097918615
0.00097745079
0.00097582949
0.00097431058
0.00097288377
0.00097154033
0.00097027254
0.00096907346
0.00096793684
0.00096685684
0.00096582826
0.00096484493
0.00096390317
0.00096298824
0.00096211517
0.00096120068
0.00096044833
0.00095927775
0.0089292088
0.0088805775
0.0088551599
0.0088428898
0.0088357057
0.0088308112
0.008827233
0.0088245316
0.0088224569
0.0088208504
0.0088196066
0.0088186554
0.0088179509
0.0088174673
0.0088171979
0.0088171563
0.008817399
0.008818009
0.0088193203
0.0088214998
0.0088269895
0.0088370964
0.0088484275
0.011775845
0.02897405
0.00216372
0.0067687513
0.0015325349
0.0037123651
0.0022542538
0.0028397427
0.0025491902
0.0024076553
0.0022621738
0.0021542526
0.0020622269
0.0019853591
0.0019196072
0.0018628154
0.0018133667
0.0017699356
0.0017314611
0.0016971171
0.0016662555
0.0016383661
0.0016130052
0.0015898291
0.0015685552
0.0015489462
0.0015308024
0.0015139547
0.0014982587
0.0014835907
0.0014698441
0.0014569264
0.0014447569
0.0014332652
0.0014223889
0.0014120732
0.0014022696
0.001392937
0.0013840359
0.0013755311
0.0013673914
0.0013595881
0.0013520938
0.0013448872
0.001337948
0.0013312573
0.0013247978
0.001318554
0.0013125113
0.0013066565
0.0013009774
0.0012954628
0.0012901022
0.0012848862
0.0012798057
0.0012748527
0.0012700196
0.0012652993
0.001260685
0.0012561707
0.0012517505
0.0012474191
0.0012431715
0.001239003
0.0012349089
0.0012308855
0.0012269287
0.0012230348
0.0012192005
0.0012154223
0.0012116973
0.0012080225
0.0012043954
0.0012008132
0.0011972736
0.0011937741
0.0011903125
0.0011868866
0.0011834944
0.0011801339
0.0011768034
0.001173501
0.0011702251
0.001166974
0.0011637464
0.001160541
0.0011573567
0.0011541925
0.0011510506
0.0011479237
0.0011449329
0.0011421825
0.0011396678
0.0011373576
0.0011352249
0.0011332468
0.0011314053
0.0011296853
0.0011280742
0.0011265612
0.0011251369
0.0011237931
0.0011225224
0.0011213181
0.0011201741
0.0011190847
0.0011180436
0.0011170466
0.0011160782
0.0011151548
0.0011141865
0.0011133915
0.0011121525
0.0089029655
0.0088526533
0.0088262531
0.0088134573
0.0088059461
0.0088008214
0.0087970706
0.008794235
0.0087920537
0.0087903606
0.0087890451
0.0087880332
0.0087872763
0.0087867458
0.0087864326
0.0087863479
0.0087865442
0.008787101
0.0087883367
0.0087904213
0.008795663
0.0088056224
0.0088142854
0.01172266
0.028530403
0.0021877603
0.0068302564
0.0016778836
0.0038499762
0.0025146794
0.0029915592
0.0027084015
0.0025639471
0.0024199135
0.0023115605
0.002219465
0.0021423135
0.002076275
0.0020192054
0.0019694635
0.0019257141
0.001886907
0.0018522233
0.0018210208
0.001792794
0.0017670984
0.0017435923
0.0017219942
0.0017020678
0.0016836136
0.0016664627
0.0016504706
0.0016355138
0.001621485
0.001608292
0.0015958537
0.0015840993
0.0015729662
0.0015623993
0.0015523498
0.0015427768
0.0015336404
0.0015249049
0.0015165388
0.0015085131
0.0015007999
0.001493378
0.0014862267
0.0014793271
0.0014726616
0.0014662146
0.0014599714
0.0014539185
0.0014480436
0.0014423352
0.001436783
0.0014313771
0.0014261086
0.0014209691
0.0014159511
0.0014110472
0.0014062507
0.0014015552
0.0013969551
0.0013924448
0.0013880192
0.0013836735
0.0013794029
0.0013752038
0.001371072
0.0013670036
0.0013629953
0.0013590436
0.0013551455
0.0013512979
0.0013474984
0.0013437441
0.0013400325
0.0013363613
0.0013327281
0.0013291307
0.0013255671
0.0013220353
0.0013185334
0.0013150596
0.0013116122
0.0013081896
0.0013047903
0.0013014132
0.0012980571
0.0012947211
0.0012914077
0.0012881089
0.0012849557
0.0012820592
0.0012794129
0.0012769832
0.001274741
0.0012726621
0.0012707271
0.0012689202
0.0012672281
0.0012656393
0.0012641439
0.0012627332
0.0012613995
0.0012601357
0.0012589354
0.0012577927
0.0012567006
0.0012556553
0.0012546398
0.0012536722
0.0012526566
0.0012518242
0.0012505252
0.0088710632
0.0088186984
0.0087910967
0.0087776576
0.0087697457
0.0087643391
0.0087603768
0.0087573772
0.0087550654
0.0087532665
0.0087518637
0.0087507782
0.008749958
0.0087493715
0.008749007
0.0087488727
0.0087490171
0.0087495161
0.0087506721
0.0087526593
0.0087576468
0.0087674832
0.0087732355
0.011658396
0.028027586
0.0022026051
0.0068508555
0.0018033797
0.0039568079
0.0027386134
0.0031161524
0.0028411038
0.002694954
0.0025529353
0.0024447981
0.0023531185
0.0022761243
0.0022101797
0.002153155
0.0021033962
0.0020595749
0.0020206564
0.0019858331
0.0019544714
0.0019260732
0.0019001955
0.0018765
0.0018547082
0.0018345854
0.0018159339
0.0017985855
0.0017823966
0.0017672442
0.0017530216
0.0017396367
0.0017270086
0.0017150665
0.0017037482
0.0016929984
0.0016827683
0.0016730174
0.0016637055
0.0016547969
0.0016462599
0.0016380653
0.0016301847
0.0016225972
0.0016152821
0.0016082202
0.0016013941
0.0015947879
0.0015883869
0.0015821775
0.0015761474
0.0015702849
0.0015645797
0.0015590218
0.0015536021
0.0015483124
0.0015431449
0.0015380922
0.0015331476
0.0015283046
0.0015235574
0.0015189006
0.0015143288
0.0015098374
0.0015054214
0.0015010772
0.0014968004
0.0014925873
0.0014884344
0.0014843382
0.0014802957
0.0014763038
0.00147236
0.0014684614
0.0014646056
0.0014607901
0.0014570124
0.0014532705
0.0014495622
0.0014458856
0.0014422386
0.0014386196
0.0014350268
0.0014314585
0.0014279133
0.00142439
0.0014208875
0.001417405
0.0014139452
0.0014104994
0.0014072076
0.0014041864
0.0014014279
0.0013988963
0.0013965609
0.001394396
0.0013923814
0.0013905004
0.0013887393
0.0013870859
0.0013855299
0.0013840623
0.001382675
0.0013813606
0.0013801123
0.0013789241
0.0013777888
0.0013767022
0.0013756468
0.0013746416
0.0013735857
0.0013727216
0.0013713715
0.0088328467
0.0087780095
0.0087489584
0.0087347424
0.0087263465
0.0087205992
0.0087163813
0.0087131834
0.0087107141
0.0087087876
0.0087072796
0.0087061059
0.0087052101
0.0087045573
0.0087041327
0.0087039414
0.0087040277
0.0087044636
0.0087055353
0.0087074224
0.0087121487
0.0087218903
0.0087244613
0.011581876
0.027457932
0.0022069054
0.0068255437
0.0019054278
0.0040286651
0.0029210819
0.003209623
0.0029435185
0.0027969334
0.0026575718
0.0025503394
0.0024596047
0.0023832409
0.0023177961
0.0022611614
0.0022116851
0.0021680588
0.0021292687
0.0020945225
0.0020631986
0.0020348092
0.0020089147
0.0019851826
0.0019633384
0.0019431509
0.0019244247
0.0019069937
0.0018907159
0.0018754695
0.0018611488
0.0018476626
0.0018349307
0.0018228828
0.001811457
0.0018005986
0.001790259
0.0017803982
0.0017709762
0.0017619573
0.0017533098
0.0017450045
0.0017370128
0.001729314
0.0017218876
0.0017147146
0.0017077773
0.00170106
0.001694548
0.0016882277
0.0016820867
0.0016761135
0.0016702976
0.001664629
0.0016590988
0.0016536984
0.0016484203
0.001643257
0.0016382016
0.0016332479
0.0016283899
0.0016236222
0.0016189393
0.0016143367
0.0016098093
0.0016053535
0.001600965
0.0015966399
0.0015923748
0.0015881662
0.001584011
0.0015799061
0.001575849
0.0015718369
0.0015678673
0.0015639376
0.0015600455
0.0015561887
0.0015523652
0.001548573
0.0015448102
0.0015410748
0.0015373653
0.0015336799
0.0015300171
0.0015263759
0.0015227552
0.0015191541
0.0015155756
0.0015120106
0.0015086064
0.0015054841
0.0015026348
0.0015000207
0.0014976097
0.0014953752
0.0014932962
0.0014913554
0.0014895384
0.0014878327
0.0014862277
0.001484714
0.0014832833
0.0014819279
0.0014806408
0.0014794159
0.0014782456
0.0014771257
0.001476038
0.0014750024
0.001473914
0.0014730244
0.0014716328
0.0087875858
0.008729802
0.0086990205
0.0086838757
0.008674901
0.0086687459
0.0086642223
0.0086607872
0.0086581295
0.0086560505
0.008654417
0.0086531382
0.0086521528
0.008651422
0.0086509272
0.0086506706
0.0086506915
0.0086510584
0.0086520406
0.0086538245
0.0086582819
0.0086679607
0.0086670487
0.011491814
0.026814961
0.0021993769
0.0067496096
0.0019805699
0.0040614873
0.0030576685
0.0032681741
0.0030119574
0.002866235
0.0027302433
0.0026246449
0.0025354252
0.0024601961
0.0023956823
0.0023398057
0.0022909342
0.0022477905
0.0022093873
0.0021749521
0.0021438788
0.0021156926
0.0020899601
0.0020663563
0.0020446128
0.0020245028
0.0020058347
0.0019884455
0.0019721957
0.0019569653
0.0019426505
0.0019291614
0.0019164189
0.0019043539
0.0018929053
0.001882019
0.001871647
0.0018617504
0.0018522894
0.0018432285
0.0018345363
0.0018261838
0.0018181422
0.0018103914
0.0018029111
0.0017956825
0.0017886881
0.0017819122
0.0017753403
0.0017689589
0.0017627556
0.001756719
0.0017508386
0.0017451047
0.0017395082
0.0017340407
0.0017286945
0.0017234624
0.0017183374
0.0017133133
0.0017083842
0.0017035446
0.0016987892
0.0016941133
0.001689512
0.0016849816
0.0016805178
0.0016761168
0.001671775
0.0016674892
0.0016632561
0.0016590728
0.0016549366
0.0016508449
0.001646795
0.0016427845
0.0016388109
0.0016348722
0.0016309661
0.0016270907
0.001623244
0.0016194243
0.0016156298
0.0016118588
0.00160811
0.0016043821
0.0016006742
0.0015969855
0.001593319
0.0015896654
0.0015861776
0.0015829805
0.0015800638
0.0015773886
0.0015749217
0.0015726358
0.0015705091
0.0015685239
0.0015666655
0.0015649211
0.0015632798
0.0015617321
0.0015602692
0.0015588835
0.0015575677
0.0015563156
0.0015551194
0.0015539749
0.0015528633
0.0015518054
0.0015506929
0.0015497845
0.0015483623
0.0087344779
0.0086732121
0.0086403813
0.0086241354
0.0086144736
0.0086078346
0.0086029481
0.0085992314
0.0085963501
0.0085940903
0.008592308
0.008590905
0.008589814
0.0085889917
0.0085884154
0.0085880837
0.008588031
0.008588322
0.0085892088
0.0085908862
0.008595066
0.0086047183
0.0085999867
0.011386832
0.026093766
0.0021788775
0.0066189399
0.0020256926
0.0040515909
0.0031447052
0.0032883337
0.0030430416
0.0028995133
0.0027676656
0.0026644668
0.0025773688
0.0025038066
0.0024406782
0.0023859504
0.0023380279
0.002295674
0.002257934
0.00222406
0.0021934651
0.0021656904
0.0021403117
0.0021170133
0.0020955347
0.0020756552
0.0020571881
0.0020399746
0.0020238784
0.0020087826
0.0019945857
0.0019811997
0.0019685475
0.0019565612
0.0019451811
0.0019343541
0.0019240333
0.0019141809
0.0019047577
0.0018957287
0.0018870631
0.0018787322
0.0018707071
0.0018629685
0.0018554967
0.0018482728
0.00184128
0.0018345026
0.0018279263
0.0018215379
0.0018153251
0.0018092767
0.0018033824
0.0017976324
0.0017920179
0.0017865306
0.0017811629
0.0017759075
0.0017707578
0.0017657073
0.0017607505
0.0017558817
0.0017510959
0.0017463882
0.0017417539
0.0017371893
0.0017326901
0.0017282527
0.0017238734
0.001719549
0.0017152763
0.0017110522
0.0017068746
0.0017027404
0.0016986472
0.0016945924
0.0016905737
0.0016865889
0.001682636
0.0016787129
0.0016748178
0.0016709489
0.0016671043
0.0016632826
0.0016594822
0.0016557021
0.0016519413
0.001648199
0.0016444786
0.0016407701
0.0016372307
0.0016339874
0.0016310293
0.0016283167
0.0016258155
0.001623498
0.001621342
0.0016193296
0.0016174459
0.0016156777
0.0016140142
0.0016124455
0.0016109629
0.0016095586
0.0016082253
0.0016069565
0.0016057445
0.001604585
0.0016034588
0.0016023873
0.0016012602
0.0016003404
0.0015988995
0.0086726516
0.0086072997
0.0085720584
0.0085545154
0.0085440438
0.0085368341
0.0085315195
0.0085274706
0.0085243256
0.0085218526
0.0085198952
0.008518346
0.0085171312
0.0085162019
0.0085155311
0.0085151132
0.0085149776
0.0085151848
0.0085159694
0.0085175362
0.0085214289
0.008531096
0.0085221693
0.011265472
0.025291421
0.0021444965
0.0064303649
0.0020382607
0.0039959451
0.0031794733
0.0032672072
0.0030339477
0.0028939677
0.0027670879
0.0026670825
0.0025827421
0.0025114013
0.0024501326
0.0023969638
0.0023503529
0.0023091133
0.0022723286
0.0022392805
0.0022094053
0.002182263
0.0021574414
0.0021346366
0.0021135975
0.0020941111
0.0020759972
0.0020591019
0.0020432935
0.0020284588
0.0020144993
0.0020013299
0.0019888756
0.0019770705
0.0019658567
0.0019551825
0.0019450024
0.0019352801
0.0019259772
0.0019170595
0.001908497
0.0019002614
0.0018923243
0.0018846672
0.0018772707
0.0018701167
0.0018631886
0.0018564712
0.0018499504
0.0018436134
0.0018374481
0.0018314436
0.0018255897
0.001819877
0.0018142968
0.0018088408
0.0018035018
0.0017982726
0.0017931466
0.0017881176
0.00178318
0.0017783283
0.0017735576
0.0017688633
0.0017642403
0.0017596854
0.0017551943
0.0017507633
0.0017463889
0.0017420678
0.0017377971
0.0017335736
0.0017293952
0.0017252591
0.0017211626
0.0017171034
0.0017130791
0.0017090877
0.001705127
0.001701195
0.00169729
0.0016934102
0.0016895538
0.0016857192
0.0016819052
0.0016781105
0.0016743342
0.0016705756
0.0016668382
0.001663112
0.0016595558
0.0016562979
0.0016533269
0.0016506026
0.0016480909
0.0016457636
0.0016435986
0.0016415778
0.0016396863
0.0016379108
0.0016362404
0.0016346653
0.0016331767
0.0016317667
0.001630428
0.0016291541
0.0016279374
0.0016267734
0.0016256428
0.0016245675
0.0016234359
0.001622513
0.0016210664
0.0086011705
0.0085310526
0.0084929922
0.0084739297
0.0084625088
0.0084546297
0.0084488129
0.0084443743
0.00844092
0.0084381969
0.0084360341
0.0084343139
0.0084329544
0.0084319006
0.0084311205
0.0084306038
0.0084303744
0.008430489
0.0084311635
0.0084326153
0.0084362099
0.0084459381
0.0084323988
0.011126223
0.024407375
0.0020956536
0.0061820364
0.0020165655
0.0038924725
0.0031604126
0.0032027527
0.002982677
0.0028476042
0.0027265488
0.0026305467
0.0025496187
0.0024810682
0.0024221471
0.0023709619
0.0023260392
0.002286251
0.0022507259
0.0022187799
0.0021898763
0.0021635973
0.0021395456
0.0021174314
0.002097015
0.0020780927
0.0020604917
0.0020440647
0.0020286854
0.002014245
0.0020006492
0.0019878159
0.0019756732
0.0019641577
0.0019532136
0.0019427912
0.0019328465
0.0019233452
0.0019142501
0.0019055279
0.0018971497
0.001889088
0.0018813147
0.0018738124
0.0018665626
0.0018595477
0.0018527516
0.0018461596
0.0018397583
0.0018335348
0.0018274778
0.0018215766
0.0018158214
0.0018102029
0.0018047127
0.0017993429
0.0017940863
0.001788936
0.0017838857
0.0017789292
0.0017740612
0.0017692763
0.0017645697
0.0017599369
0.0017553731
0.001750875
0.0017464384
0.0017420598
0.0017377359
0.0017334633
0.0017292392
0.0017250606
0.0017209254
0.0017168309
0.0017127744
0.0017087537
0.0017047665
0.0017008107
0.0016968842
0.0016929853
0.001689112
0.0016852627
0.0016814357
0.0016776294
0.0016738424
0.0016700738
0.0016663226
0.0016625881
0.0016588739
0.0016551699
0.0016516349
0.0016483966
0.0016454435
0.0016427357
0.0016402392
0.0016379259
0.001635774
0.0016337653
0.001631885
0.0016301202
0.0016284597
0.0016268939
0.0016254142
0.0016240126
0.0016226819
0.0016214156
0.0016202062
0.0016190492
0.0016179255
0.0016168568
0.001615732
0.0016148151
0.001613377
0.0085190399
0.0084433927
0.0084020517
0.008381218
0.0083686893
0.008360029
0.0083536258
0.0083487321
0.0083449165
0.0083419014
0.0083394991
0.0083375794
0.0083360514
0.0083348532
0.0083339468
0.008333317
0.0083329815
0.0083329931
0.0083335487
0.0083348802
0.0083381645
0.0083480056
0.008329391
0.010967542
0.023443769
0.0020322027
0.0058738214
0.0019599739
0.0037403638
0.003087336
0.003094067
0.0028883326
0.0027595058
0.002645142
0.0025539531
0.0024770973
0.0024119095
0.0023558287
0.0023070581
0.0022642072
0.0022262146
0.00219226
0.0021616988
0.0021340253
0.0021088465
0.0020857838
0.0020645632
0.0020449584
0.0020267764
0.0020098536
0.0019940501
0.0019792462
0.0019653384
0.001952237
0.0019398642
0.0019281513
0.0019170381
0.0019064714
0.0018964038
0.0018867935
0.0018776081
0.001868812
0.0018603733
0.0018522642
0.0018444584
0.0018369283
0.0018296578
0.0018226294
0.0018158261
0.0018092326
0.0018028348
0.0017966198
0.0017905754
0.0017846906
0.0017789552
0.0017733596
0.0017678952
0.0017625538
0.0017573278
0.0017522104
0.0017471947
0.0017422748
0.0017374448
0.0017326994
0.0017280337
0.0017234428
0.0017189225
0.0017144682
0.0017100767
0.001705744
0.0017014666
0.0016972413
0.0016930651
0.0016889349
0.0016848482
0.0016808027
0.0016767959
0.0016728254
0.0016688887
0.0016649838
0.0016611086
0.0016572611
0.0016534397
0.0016496424
0.0016458676
0.0016421138
0.0016383794
0.0016346631
0.0016309639
0.001627281
0.0016236137
0.0016199654
0.0016163265
0.0016128531
0.001609671
0.001606769
0.0016041079
0.0016016543
0.0015993806
0.0015972654
0.0015952908
0.0015934425
0.0015917075
0.0015900751
0.0015885357
0.0015870809
0.0015857029
0.0015843945
0.0015831496
0.0015819604
0.0015808229
0.0015797181
0.0015786675
0.0015775617
0.0015766604
0.0015752462
0.0084252151
0.0083431849
0.0082980432
0.0082751536
0.008261338
0.0082517695
0.0082446846
0.0082392616
0.008235026
0.0082316714
0.0082289906
0.0082268391
0.0082251158
0.0082237504
0.0082226984
0.0082219389
0.0082214834
0.0082213803
0.0082218068
0.008223012
0.0082259719
0.0082359836
0.0082117844
0.010787886
0.022405658
0.0019545379
0.0055076912
0.0018691602
0.0035403889
0.002961645
0.0029416685
0.0027513932
0.0026300994
0.0025232777
0.0024376905
0.0023655538
0.0023042903
0.0022515352
0.0022056065
0.0021652085
0.0021293544
0.0020972809
0.0020683875
0.002042203
0.0020183626
0.0019965091
0.0019763866
0.001957784
0.0019405207
0.0019244433
0.0019094207
0.0018953404
0.0018821056
0.0018696318
0.0018578458
0.0018466832
0.0018360873
0.0018260078
0.0018164004
0.0018072254
0.0017984529
0.0017900492
0.0017819841
0.0017742311
0.0017667652
0.0017595598
0.0017526002
0.0017458699
0.0017393528
0.0017330345
0.0017269016
0.001720942
0.001715144
0.0017094972
0.0017039919
0.0016986192
0.0016933708
0.0016882388
0.0016832162
0.0016782963
0.0016734728
0.00166874
0.0016640922
0.0016595246
0.0016550322
0.0016506106
0.0016462557
0.0016419631
0.0016377298
0.001633552
0.0016294264
0.0016253499
0.0016213196
0.0016173327
0.0016133866
0.0016094794
0.0016056084
0.0016017715
0.0015979663
0.0015941908
0.0015904431
0.0015867213
0.0015830237
0.0015793486
0.0015756944
0.0015720596
0.0015684428
0.0015648426
0.0015612582
0.0015576888
0.0015541337
0.0015505964
0.0015470673
0.001543698
0.0015406107
0.0015377947
0.0015352121
0.0015328306
0.0015306235
0.0015285701
0.0015266531
0.0015248585
0.0015231738
0.0015215886
0.0015200937
0.0015186809
0.0015173426
0.0015160719
0.0015148627
0.0015137078
0.001512603
0.0015115299
0.0015105096
0.0015094356
0.0015085603
0.0015071866
0.0083186139
0.0082292492
0.0081797226
0.0081544561
0.0081391513
0.0081285314
0.0081206568
0.0081146208
0.0081098984
0.0081061505
0.0081031471
0.0081007274
0.0080987781
0.0080972198
0.0080960002
0.0080950925
0.008094501
0.0080942698
0.0080945555
0.0080956274
0.008098247
0.0081084933
0.0080781533
0.010585752
0.021301069
0.0018636918
0.0050880766
0.001746298
0.0032951846
0.0027865294
0.002747755
0.0025739631
0.0024613979
0.0023629189
0.0022836747
0.0022168694
0.0021600629
0.0021110969
0.0020684198
0.0020308419
0.0019974576
0.0019675661
0.0019406152
0.0019161721
0.0018939023