/*--------------------------------*- C++ -*----------------------------------*\
| =========                 |                                                 |
| \\      /  F ield         | OpenFOAM: The Open Source CFD Toolbox           |
|  \\    /   O peration     | Version:  2206                                  |
|   \\  /    A nd           | Website:  www.openfoam.com                      |
|    \\/     M anipulation  |                                                 |
\*---------------------------------------------------------------------------*/
FoamFile
{
    version     2.0;
    format      ascii;
    arch        "LSB;label=32;scalar=64";
    class       volScalarField;
    location    "700";
    object      k;
}
// * * * * * * * * * * * * * * * * * * * * * * * * * * * * * * * * * * * * * //

dimensions      [0 2 -2 0 0 0 0];

internalField   nonuniform List<scalar> 
13056
(
0.00013981222
0.00013614955
0.00013492343
0.00013434698
0.00013399685
0.00013375613
0.0001335804
0.00013344763
0.00013334497
0.00013326425
0.00013319999
0.00013314836
0.00013310663
0.00013307279
0.00013304529
0.00013302298
0.00013300491
0.00013299059
0.0001329787
0.00013297228
0.00013295579
0.00013301333
0.00013265815
0.00013443417
1.8142249e-05
2.8227619e-06
5.9465488e-06
1.0450715e-06
3.3445315e-06
6.9571353e-07
2.4639e-06
2.1021213e-06
1.9880056e-06
1.8105484e-06
1.6931566e-06
1.5843293e-06
1.4938015e-06
1.4147547e-06
1.3454098e-06
1.2832278e-06
1.2279043e-06
1.1783948e-06
1.1337866e-06
1.0933517e-06
1.0565027e-06
1.0227544e-06
9.9170787e-07
9.6303061e-07
9.3644335e-07
9.1170868e-07
8.886246e-07
8.6701704e-07
8.4673584e-07
8.2765053e-07
8.0964766e-07
7.9262774e-07
7.7650279e-07
7.6119498e-07
7.4663536e-07
7.3276241e-07
7.1952141e-07
7.0686309e-07
6.9474333e-07
6.83122e-07
6.7196253e-07
6.6123125e-07
6.5089902e-07
6.4093866e-07
6.3132514e-07
6.2203567e-07
6.1304962e-07
6.0434773e-07
5.9591204e-07
5.8772619e-07
5.7977502e-07
5.7204449e-07
5.6452153e-07
5.5719396e-07
5.5005058e-07
5.4308109e-07
5.3627558e-07
5.2962473e-07
5.2311994e-07
5.1675312e-07
5.1051668e-07
5.0440342e-07
4.9840654e-07
4.9251978e-07
4.8673729e-07
4.8105327e-07
4.7546224e-07
4.699591e-07
4.6453897e-07
4.591972e-07
4.5392931e-07
4.4873117e-07
4.4359882e-07
4.3852834e-07
4.3351588e-07
4.2855783e-07
4.2365072e-07
4.187912e-07
4.1397597e-07
4.0920191e-07
4.0446603e-07
3.997653e-07
3.9509676e-07
3.904576e-07
3.8584507e-07
3.8125665e-07
3.766899e-07
3.7214387e-07
3.6761474e-07
3.6321669e-07
3.5909075e-07
3.5526011e-07
3.516968e-07
3.4837357e-07
3.4526493e-07
3.4234889e-07
3.3960655e-07
3.3702147e-07
3.3457914e-07
3.3226676e-07
3.3007295e-07
3.279874e-07
3.2600062e-07
3.2410361e-07
3.2228809e-07
3.2054415e-07
3.188651e-07
3.172286e-07
3.1565206e-07
3.1401292e-07
3.1263397e-07
3.105194e-07
0.00013979781
0.00013612663
0.00013489729
0.00013431916
0.00013396798
0.0001337265
0.00013355023
0.00013341703
0.00013331403
0.00013323304
0.00013316856
0.00013311675
0.00013307487
0.00013304089
0.00013301328
0.00013299089
0.00013297274
0.00013295834
0.00013294639
0.00013293993
0.00013292337
0.00013298104
0.00013262496
0.00013440636
1.8037686e-05
2.7678838e-06
5.8934013e-06
1.070786e-06
3.3701864e-06
8.4649075e-07
2.5117729e-06
2.165331e-06
2.0458973e-06
1.8738288e-06
1.7567905e-06
1.6495721e-06
1.5598249e-06
1.4814012e-06
1.4123896e-06
1.3507259e-06
1.2958626e-06
1.2467146e-06
1.2023888e-06
1.1621729e-06
1.1254924e-06
1.0918687e-06
1.0609105e-06
1.0322916e-06
1.0057377e-06
9.8101529e-07
9.5792549e-07
9.3629696e-07
9.1598173e-07
8.968512e-07
8.7879346e-07
8.6171029e-07
8.455148e-07
8.3013012e-07
8.1548807e-07
8.0152782e-07
7.8819582e-07
7.7544317e-07
7.63226e-07
7.5150454e-07
7.4024225e-07
7.294044e-07
7.1896328e-07
7.0889206e-07
6.9916588e-07
6.8976209e-07
6.8066016e-07
6.7184095e-07
6.6328659e-07
6.549808e-07
6.4690848e-07
6.3905566e-07
6.3140932e-07
6.2395729e-07
6.1668845e-07
6.0959249e-07
6.0265953e-07
5.9588028e-07
5.8924613e-07
5.8274902e-07
5.7638133e-07
5.701359e-07
5.6400591e-07
5.5798507e-07
5.5206755e-07
5.4624753e-07
5.4051954e-07
5.3487844e-07
5.2931932e-07
5.2383755e-07
5.1842861e-07
5.1308859e-07
5.0781342e-07
5.0259906e-07
4.9744159e-07
4.9233738e-07
4.8728292e-07
4.8227482e-07
4.7730975e-07
4.7238455e-07
4.674962e-07
4.6264154e-07
4.5781759e-07
4.5302151e-07
4.4825056e-07
4.4350219e-07
4.3877397e-07
4.3406521e-07
4.293715e-07
4.2481459e-07
4.2054192e-07
4.1657666e-07
4.1288923e-07
4.0945093e-07
4.0623506e-07
4.0321873e-07
4.0038227e-07
3.9770861e-07
3.9518273e-07
3.9279136e-07
3.9052272e-07
3.8836615e-07
3.8631184e-07
3.8435047e-07
3.8247352e-07
3.8067074e-07
3.7893531e-07
3.7724387e-07
3.7561531e-07
3.7392092e-07
3.7249805e-07
3.7031104e-07
0.00013975168
0.00013605449
0.00013481534
0.00013423214
0.00013387773
0.00013363398
0.00013345601
0.00013332151
0.00013321749
0.00013313567
0.00013307052
0.00013301816
0.00013297581
0.00013294145
0.00013291351
0.00013289083
0.00013287244
0.00013285783
0.00013284569
0.00013283909
0.00013282231
0.00013288038
0.00013252157
0.00013431844
1.7932604e-05
2.7106603e-06
5.8290059e-06
1.0943332e-06
3.3856212e-06
1.0077246e-06
2.5503978e-06
2.2188913e-06
2.0954141e-06
1.9287129e-06
1.8125165e-06
1.7071292e-06
1.6184415e-06
1.5408927e-06
1.4725277e-06
1.4116265e-06
1.3574144e-06
1.3088065e-06
1.2649308e-06
1.2250917e-06
1.1887292e-06
1.1553713e-06
1.1246356e-06
1.0962028e-06
1.0698039e-06
1.04521e-06
1.0222258e-06
1.0006831e-06
9.8043646e-07
9.6135941e-07
9.4334191e-07
9.2628726e-07
9.1010992e-07
8.9473417e-07
8.8009283e-07
8.6612591e-07
8.5278125e-07
8.4001045e-07
8.2777004e-07
8.1602071e-07
8.0472605e-07
7.9385031e-07
7.833674e-07
7.7325094e-07
7.634763e-07
7.5402106e-07
7.4486488e-07
7.359888e-07
7.2737512e-07
7.1900768e-07
7.1087154e-07
7.0295282e-07
6.9523862e-07
6.8771685e-07
6.8037647e-07
6.7320725e-07
6.6619937e-07
6.593436e-07
6.5263139e-07
6.4605471e-07
6.39606e-07
6.3327811e-07
6.2706428e-07
6.2095822e-07
6.1495414e-07
6.0904625e-07
6.0322908e-07
5.9749751e-07
5.9184667e-07
5.8627189e-07
5.8076871e-07
5.7533344e-07
5.6996198e-07
5.6465017e-07
5.5939405e-07
5.5418995e-07
5.4903437e-07
5.4392391e-07
5.3885525e-07
5.338252e-07
5.2883071e-07
5.2386854e-07
5.1893569e-07
5.1402937e-07
5.0914684e-07
5.0428559e-07
4.9944319e-07
4.9461927e-07
4.8980884e-07
4.8514018e-07
4.8076562e-07
4.7670782e-07
4.7293583e-07
4.694197e-07
4.6613176e-07
4.6304836e-07
4.6014928e-07
4.5741697e-07
4.5483601e-07
4.5239278e-07
4.5007524e-07
4.4787243e-07
4.4577433e-07
4.4377143e-07
4.4185499e-07
4.4001456e-07
4.3824326e-07
4.3651697e-07
4.3485582e-07
4.3312644e-07
4.3167677e-07
4.2944381e-07
0.00013967241
0.00013593088
0.00013467499
0.00013408314
0.00013372323
0.0001334756
0.00013329474
0.00013315802
0.00013305225
0.00013296903
0.00013290273
0.00013284943
0.0001328063
0.00013277127
0.00013274276
0.0001327196
0.00013270079
0.00013268583
0.00013267337
0.00013266653
0.00013264938
0.0001327081
0.00013234468
0.0001341676
1.7826651e-05
2.650274e-06
5.7511014e-06
1.114938e-06
3.3894583e-06
1.1744496e-06
2.5786583e-06
2.2618502e-06
2.1355256e-06
1.9742502e-06
1.8593817e-06
1.7560778e-06
1.6687451e-06
1.5923436e-06
1.5249385e-06
1.4650254e-06
1.411658e-06
1.3637703e-06
1.320513e-06
1.2812087e-06
1.2453126e-06
1.2123608e-06
1.1819801e-06
1.153859e-06
1.1277347e-06
1.1033833e-06
1.0806135e-06
1.0592606e-06
1.0391822e-06
1.0202544e-06
1.0023692e-06
9.8543173e-07
9.6935806e-07
9.5407385e-07
9.395131e-07
9.2561689e-07
9.1233461e-07
8.9961852e-07
8.874257e-07
8.7571741e-07
8.644575e-07
8.5360927e-07
8.4314837e-07
8.3304897e-07
8.2328678e-07
8.1383969e-07
8.0468762e-07
7.9581186e-07
7.8719495e-07
7.7882094e-07
7.7067507e-07
7.6274363e-07
7.5501387e-07
7.4747388e-07
7.4011271e-07
7.3292025e-07
7.2588681e-07
7.1900325e-07
7.1226111e-07
7.0565244e-07
6.9916976e-07
6.92806e-07
6.8655447e-07
6.804089e-07
6.743636e-07
6.6841281e-07
6.625511e-07
6.5677342e-07
6.5107492e-07
6.4545099e-07
6.3989717e-07
6.3441013e-07
6.289857e-07
6.2361967e-07
6.1830802e-07
6.1304707e-07
6.0783334e-07
6.0266347e-07
5.9753415e-07
5.924422e-07
5.8738451e-07
5.8235778e-07
5.7735906e-07
5.7238561e-07
5.6743475e-07
5.6250402e-07
5.5759105e-07
5.5269575e-07
5.4781263e-07
5.4307547e-07
5.3864001e-07
5.3452807e-07
5.3070751e-07
5.2714735e-07
5.2381916e-07
5.2069876e-07
5.177655e-07
5.150015e-07
5.1239107e-07
5.0992037e-07
5.0757716e-07
5.0535033e-07
5.0322971e-07
5.0120564e-07
4.9926932e-07
4.9741012e-07
4.9562121e-07
4.9387791e-07
4.9220141e-07
4.9045501e-07
4.8899365e-07
4.8673825e-07
0.00013955781
0.00013575223
0.00013447219
0.00013386784
0.00013349997
0.00013324674
0.00013306171
0.00013292179
0.00013281349
0.00013272824
0.00013266029
0.00013260562
0.00013256136
0.00013252537
0.00013249605
0.00013247219
0.00013245277
0.00013243729
0.00013242437
0.0001324172
0.0001323995
0.00013245917
0.00013208911
0.00013394949
1.7719447e-05
2.5859515e-06
5.6573855e-06
1.1317322e-06
3.3801957e-06
1.3407289e-06
2.5952944e-06
2.2930928e-06
2.1650616e-06
2.009345e-06
1.8962955e-06
1.7953584e-06
1.7096949e-06
1.6347325e-06
1.5685934e-06
1.5098908e-06
1.457567e-06
1.4105837e-06
1.3681162e-06
1.3295066e-06
1.294227e-06
1.2618223e-06
1.2319296e-06
1.2042462e-06
1.1785158e-06
1.1545202e-06
1.1320727e-06
1.1110128e-06
1.0912013e-06
1.0725172e-06
1.0548549e-06
1.0381219e-06
1.0222358e-06
1.0071241e-06
9.9272214e-07
9.7897224e-07
9.6582558e-07
9.5323519e-07
9.4115888e-07
9.2955859e-07
9.1839858e-07
9.0764128e-07
8.9726422e-07
8.8724219e-07
8.7755137e-07
8.6817001e-07
8.5907838e-07
8.5025811e-07
8.4169202e-07
8.3336446e-07
8.2526089e-07
8.1736786e-07
8.0967282e-07
8.0216405e-07
7.9483077e-07
7.8766306e-07
7.8065135e-07
7.7378666e-07
7.6706065e-07
7.6046551e-07
7.5399386e-07
7.4763874e-07
7.4139355e-07
7.352521e-07
7.2920881e-07
7.23258e-07
7.1739431e-07
7.1161276e-07
7.0590856e-07
7.0027717e-07
6.9471421e-07
6.8921669e-07
6.8378044e-07
6.7840124e-07
6.7307501e-07
6.6779806e-07
6.6256695e-07
6.5737836e-07
6.5222903e-07
6.4711583e-07
6.4203555e-07
6.369848e-07
6.3196077e-07
6.2696083e-07
6.2198237e-07
6.1702301e-07
6.1208043e-07
6.0715487e-07
6.022404e-07
5.9747522e-07
5.9301711e-07
5.8888675e-07
5.8505101e-07
5.8147812e-07
5.781391e-07
5.7500942e-07
5.7206814e-07
5.6929725e-07
5.6668086e-07
5.6420504e-07
5.6185745e-07
5.5962689e-07
5.5750314e-07
5.5547649e-07
5.535381e-07
5.5167732e-07
5.4988735e-07
5.4814324e-07
5.4646699e-07
5.4471984e-07
5.4326041e-07
5.4100378e-07
0.00013940493
0.00013551378
0.00013420145
0.0001335804
0.0001332019
0.00013294118
0.00013275057
0.00013260636
0.00013249468
0.00013240672
0.00013233656
0.00013228007
0.00013223428
0.00013219701
0.0001321666
0.0001321418
0.00013212158
0.00013210541
0.00013209187
0.00013208424
0.00013206582
0.00013212676
0.00013174785
0.0001336582
1.761095e-05
2.5169764e-06
5.5455415e-06
1.1437512e-06
3.3562153e-06
1.4999939e-06
2.5989044e-06
2.3113529e-06
2.1827189e-06
2.0327626e-06
1.9220334e-06
1.8237773e-06
1.7401163e-06
1.6669016e-06
1.6023274e-06
1.5450618e-06
1.4939872e-06
1.4480981e-06
1.4065962e-06
1.368845e-06
1.334335e-06
1.3026207e-06
1.273351e-06
1.2462325e-06
1.2210163e-06
1.1974907e-06
1.1754743e-06
1.1548107e-06
1.1353648e-06
1.1170188e-06
1.0996701e-06
1.0832282e-06
1.0676134e-06
1.0527546e-06
1.038589e-06
1.0250603e-06
1.0121217e-06
9.9972719e-07
9.8783538e-07
9.7640911e-07
9.6541312e-07
9.5480917e-07
9.4457674e-07
9.3469136e-07
9.2512972e-07
9.1587055e-07
9.0689457e-07
8.9818379e-07
8.8972142e-07
8.8149214e-07
8.7348174e-07
8.6567704e-07
8.5806577e-07
8.5063644e-07
8.4337852e-07
8.3628227e-07
8.2933834e-07
8.2253792e-07
8.1587285e-07
8.0933547e-07
8.0291856e-07
7.9661529e-07
7.9041921e-07
7.8432421e-07
7.7832486e-07
7.7241558e-07
7.6659112e-07
7.6084659e-07
7.5517731e-07
7.4957881e-07
7.4404681e-07
7.3857871e-07
7.3317038e-07
7.2781764e-07
7.2251636e-07
7.1726283e-07
7.1205366e-07
7.0688559e-07
7.0175544e-07
6.9666013e-07
6.9159625e-07
6.8656039e-07
6.8154996e-07
6.7656246e-07
6.7159539e-07
6.6664647e-07
6.6171346e-07
6.5679692e-07
6.5189057e-07
6.4713593e-07
6.4269149e-07
6.3857652e-07
6.3475711e-07
6.3120097e-07
6.2787877e-07
6.2476581e-07
6.2184106e-07
6.1908644e-07
6.1648605e-07
6.1402594e-07
6.1169377e-07
6.0947836e-07
6.0736949e-07
6.053575e-07
6.0343356e-07
6.0158707e-07
5.9981134e-07
5.9808135e-07
5.9641971e-07
5.946868e-07
5.9324179e-07
5.9100347e-07
0.00013921009
0.00013520953
0.00013385592
0.0001332135
0.0001328214
0.00013255109
0.00013235335
0.00013220365
0.00013208765
0.00013199622
0.00013192323
0.0001318644
0.00013181666
0.00013177775
0.00013174594
0.00013171995
0.0001316987
0.00013168163
0.0001316673
0.00013165909
0.00013163974
0.00013170229
0.00013131211
0.00013328637
1.7501513e-05
2.4427099e-06
5.413296e-06
1.1499449e-06
3.31583e-06
1.6454654e-06
2.5880073e-06
2.3152485e-06
2.1870925e-06
2.0431588e-06
1.9352642e-06
1.8400318e-06
1.7587248e-06
1.6875796e-06
1.6248643e-06
1.5692693e-06
1.5196568e-06
1.4750575e-06
1.4347021e-06
1.3979773e-06
1.3643932e-06
1.3335159e-06
1.3050066e-06
1.2785824e-06
1.2540027e-06
1.2310627e-06
1.209587e-06
1.1894242e-06
1.1704434e-06
1.1525307e-06
1.1355864e-06
1.119523e-06
1.104263e-06
1.0897377e-06
1.0758861e-06
1.0626535e-06
1.0499952e-06
1.0378665e-06
1.0262269e-06
1.0150402e-06
1.004272e-06
9.938834e-07
9.8385594e-07
9.7416597e-07
9.6479082e-07
9.5570977e-07
9.4690406e-07
9.3835619e-07
9.3004982e-07
9.2197003e-07
9.14103e-07
9.0643588e-07
8.9895675e-07
8.9165441e-07
8.8451859e-07
8.7753982e-07
8.7070899e-07
8.6401751e-07
8.5745743e-07
8.510213e-07
8.4470207e-07
8.384931e-07
8.3238809e-07
8.2638108e-07
8.204668e-07
8.1463979e-07
8.0889495e-07
8.0322751e-07
7.9763291e-07
7.9210679e-07
7.8664499e-07
7.8124531e-07
7.7590371e-07
7.7061614e-07
7.6537848e-07
7.6018688e-07
7.5503804e-07
7.499288e-07
7.4485605e-07
7.3981679e-07
7.3480721e-07
7.2982402e-07
7.2486496e-07
7.1992767e-07
7.150098e-07
7.1010916e-07
7.0522363e-07
7.0035413e-07
6.954941e-07
6.9078724e-07
6.8639141e-07
6.8232424e-07
6.7855133e-07
6.7504007e-07
6.7176102e-07
6.6868951e-07
6.6580456e-07
6.6308818e-07
6.6052455e-07
6.5809984e-07
6.5580179e-07
6.536193e-07
6.5154226e-07
6.4956109e-07
6.476671e-07
6.4584978e-07
6.4410261e-07
6.424007e-07
6.4076706e-07
6.3906241e-07
6.3764345e-07
6.3544158e-07
0.00013896896
0.00013483235
0.0001334274
0.00013275839
0.00013234938
0.00013206713
0.00013186052
0.00013170398
0.0001315826
0.00013148685
0.00013141034
0.00013134861
0.00013129844
0.00013125748
0.00013122393
0.00013119646
0.00013117391
0.00013115574
0.00013114042
0.00013113149
0.00013111099
0.00013117552
0.00013077138
0.00013282518
1.7391971e-05
2.3626181e-06
5.2585087e-06
1.1492041e-06
3.2573538e-06
1.7706088e-06
2.5610816e-06
2.303343e-06
2.1767301e-06
2.039134e-06
1.9346004e-06
1.8427594e-06
1.7641731e-06
1.6954285e-06
1.6348632e-06
1.5811794e-06
1.5332482e-06
1.4901401e-06
1.4511167e-06
1.4155901e-06
1.3830918e-06
1.3532006e-06
1.3255917e-06
1.2999932e-06
1.2761739e-06
1.2539368e-06
1.2331128e-06
1.2135563e-06
1.1951411e-06
1.1777573e-06
1.1613091e-06
1.1457119e-06
1.1308909e-06
1.1167799e-06
1.1033199e-06
1.0904584e-06
1.0781528e-06
1.0663597e-06
1.0550399e-06
1.0441584e-06
1.0336814e-06
1.02357e-06
1.0138076e-06
1.0043716e-06
9.9523993e-07
9.8639261e-07
9.7781146e-07
9.6947956e-07
9.6138109e-07
9.5350161e-07
9.4582774e-07
9.3834705e-07
9.3104799e-07
9.2391972e-07
9.1695231e-07
9.1013657e-07
9.0346367e-07
8.9692532e-07
8.905138e-07
8.842219e-07
8.780428e-07
8.7197004e-07
8.6599756e-07
8.6011954e-07
8.543309e-07
8.4862637e-07
8.4300099e-07
8.3745014e-07
8.319694e-07
8.2655458e-07
8.2120161e-07
8.1590874e-07
8.1067203e-07
8.0548765e-07
8.0035164e-07
7.9525988e-07
7.9020914e-07
7.8519638e-07
7.8021858e-07
7.7527286e-07
7.7035463e-07
7.6546105e-07
7.6059026e-07
7.5574009e-07
7.5090831e-07
7.4609288e-07
7.412918e-07
7.3650643e-07
7.3173006e-07
7.2710726e-07
7.2279393e-07
7.1880593e-07
7.151086e-07
7.1166928e-07
7.0845868e-07
7.0545231e-07
7.0262943e-07
6.9997226e-07
6.9746521e-07
6.9509463e-07
6.9284846e-07
6.9071577e-07
6.8868663e-07
6.8675162e-07
6.8490221e-07
6.8312812e-07
6.8142302e-07
6.7976234e-07
6.7816932e-07
6.765061e-07
6.7512413e-07
6.7297572e-07
0.00013867654
0.00013437399
0.0001329064
0.00013220495
0.00013177529
0.00013147847
0.00013126102
0.00013109614
0.00013096819
0.00013086716
0.00013078635
0.00013072107
0.00013066794
0.00013062448
0.00013058881
0.00013055951
0.00013053539
0.00013051587
0.00013049934
0.00013048953
0.00013046761
0.00013053456
0.00013011345
0.00013226444
1.7283725e-05
2.2763046e-06
5.079292e-06
1.1404065e-06
3.1791985e-06
1.8695727e-06
2.5166566e-06
2.2742296e-06
2.1502118e-06
2.0193107e-06
1.9186737e-06
1.830611e-06
1.7551222e-06
1.6891134e-06
1.630987e-06
1.5794606e-06
1.5334347e-06
1.4920227e-06
1.4545203e-06
1.4203665e-06
1.389116e-06
1.3603622e-06
1.333795e-06
1.3091551e-06
1.2862213e-06
1.2648051e-06
1.2447447e-06
1.2259005e-06
1.2081517e-06
1.1913931e-06
1.1755327e-06
1.1604894e-06
1.1461916e-06
1.1325758e-06
1.1195853e-06
1.1071696e-06
1.0952889e-06
1.0839011e-06
1.0729685e-06
1.0624572e-06
1.0523346e-06
1.0425619e-06
1.0331244e-06
1.0240004e-06
1.0151688e-06
1.0066104e-06
9.9830774e-07
9.9024444e-07
9.8240534e-07
9.7477655e-07
9.6734519e-07
9.6009931e-07
9.530278e-07
9.4612023e-07
9.3936705e-07
9.3275941e-07
9.2628882e-07
9.1994729e-07
9.1372741e-07
9.0762223e-07
9.0162519e-07
8.9573008e-07
8.8993107e-07
8.8422254e-07
8.7859962e-07
8.7305724e-07
8.6759062e-07
8.6219534e-07
8.5686713e-07
8.5160196e-07
8.4639594e-07
8.4124768e-07
8.3615341e-07
8.3110955e-07
8.2611265e-07
8.2115806e-07
8.1624262e-07
8.113634e-07
8.0651753e-07
8.0170221e-07
7.9691155e-07
7.9214372e-07
7.8739734e-07
7.8267038e-07
7.779608e-07
7.7326666e-07
7.6858615e-07
7.639213e-07
7.5926522e-07
7.5476194e-07
7.5056411e-07
7.4668569e-07
7.4309207e-07
7.3975082e-07
7.36633e-07
7.3371455e-07
7.3097508e-07
7.2839722e-07
7.2596567e-07
7.2366711e-07
7.2148975e-07
7.1942294e-07
7.1745696e-07
7.1558265e-07
7.1379173e-07
7.1207417e-07
7.1042389e-07
7.088169e-07
7.0727639e-07
7.0566704e-07
7.0433238e-07
7.0225336e-07
0.00013832726
0.00013382513
0.00013228219
0.0001315417
0.00013108718
0.00013077283
0.00013054232
0.00013036741
0.00013023154
0.00013012416
0.00013003818
0.00012996862
0.00012991192
0.00012986545
0.00012982722
0.00012979572
0.00012976971
0.00012974856
0.00012973056
0.00012971969
0.00012969607
0.00012976591
0.00012932447
0.0001315926
1.7178843e-05
2.1835488e-06
4.8741568e-06
1.1224802e-06
3.0799932e-06
1.9375632e-06
2.4534222e-06
2.2266385e-06
2.106251e-06
1.9824325e-06
1.8862306e-06
1.8023447e-06
1.7303339e-06
1.6673952e-06
1.6119932e-06
1.5628723e-06
1.5189773e-06
1.4794678e-06
1.443676e-06
1.4110702e-06
1.3812299e-06
1.3537648e-06
1.3283809e-06
1.3048322e-06
1.2829088e-06
1.2624313e-06
1.2432457e-06
1.2252194e-06
1.2082375e-06
1.1921996e-06
1.1770182e-06
1.1626161e-06
1.148925e-06
1.1358845e-06
1.1234404e-06
1.1115448e-06
1.1001604e-06
1.0892468e-06
1.0787678e-06
1.0686912e-06
1.0589853e-06
1.049612e-06
1.0405583e-06
1.0318037e-06
1.0233281e-06
1.0151131e-06
1.0071419e-06
9.993991e-07
9.9187007e-07
9.8454158e-07
9.7740132e-07
9.7043789e-07
9.6364066e-07
9.5699969e-07
9.5050582e-07
9.4415062e-07
9.3792597e-07
9.3182425e-07
9.2583836e-07
9.1996168e-07
9.1418793e-07
9.0851119e-07
9.0292589e-07
8.9742663e-07
8.9200881e-07
8.8666756e-07
8.8139832e-07
8.7619688e-07
8.7105915e-07
8.659813e-07
8.6095961e-07
8.5599305e-07
8.51078e-07
8.4621109e-07
8.4138994e-07
8.3660919e-07
8.3186554e-07
8.2715623e-07
8.2247851e-07
8.1782969e-07
8.1320177e-07
8.0859496e-07
8.040082e-07
7.9943965e-07
7.9488742e-07
7.9034971e-07
7.8582498e-07
7.8131643e-07
7.7681655e-07
7.7246743e-07
7.6841713e-07
7.6467772e-07
7.6121493e-07
7.5799685e-07
7.5499517e-07
7.5218643e-07
7.495508e-07
7.470714e-07
7.4473339e-07
7.4252386e-07
7.404314e-07
7.3844569e-07
7.3655734e-07
7.347575e-07
7.3303817e-07
7.3138969e-07
7.2980625e-07
7.2826469e-07
7.2678793e-07
7.2524412e-07
7.2396652e-07
7.2197166e-07
0.00013791503
0.00013317544
0.00013154284
0.00013075588
0.00013027175
0.00012993653
0.00012969048
0.00012950361
0.00012935831
0.00012924337
0.00012915122
0.00012907657
0.00012901562
0.00012896556
0.00012892428
0.00012889017
0.00012886189
0.00012883879
0.00012881906
0.00012880691
0.00012878127
0.00012885452
0.00012838903
0.00013079686
1.7080157e-05
2.0843477e-06
4.642181e-06
1.0944858e-06
2.9587253e-06
1.9711236e-06
2.3703575e-06
2.1595633e-06
2.0438159e-06
1.9274836e-06
1.8362487e-06
1.75694e-06
1.6887832e-06
1.6292409e-06
1.5768422e-06
1.5303724e-06
1.4888315e-06
1.4514284e-06
1.4175344e-06
1.3866495e-06
1.3583793e-06
1.3323518e-06
1.3082904e-06
1.2859635e-06
1.265173e-06
1.2457498e-06
1.2275484e-06
1.2104436e-06
1.1943268e-06
1.1791032e-06
1.1646901e-06
1.1510145e-06
1.1380119e-06
1.125625e-06
1.1138027e-06
1.1024996e-06
1.091681e-06
1.0813088e-06
1.0713483e-06
1.061769e-06
1.0525407e-06
1.0436259e-06
1.0350135e-06
1.0266842e-06
1.0186189e-06
1.0108003e-06
1.0032124e-06
9.958405e-07
9.8867089e-07
9.8169098e-07
9.748891e-07
9.6825446e-07
9.6177697e-07
9.5544722e-07
9.4925652e-07
9.431969e-07
9.3726063e-07
9.3144051e-07
9.2572981e-07
9.2012224e-07
9.1461189e-07
9.091931e-07
9.0386063e-07
8.9860935e-07
8.9343489e-07
8.8833266e-07
8.8329833e-07
8.7832792e-07
8.7341757e-07
8.6856363e-07
8.637626e-07
8.5901376e-07
8.5431361e-07
8.4965888e-07
8.4504646e-07
8.4047186e-07
8.3593219e-07
8.3142483e-07
8.2694721e-07
8.2249681e-07
8.1806766e-07
8.1365829e-07
8.0926773e-07
8.048943e-07
8.0053625e-07
7.9619196e-07
7.9185986e-07
7.8754272e-07
7.8323403e-07
7.7907257e-07
7.7520064e-07
7.7162844e-07
7.6832238e-07
7.6525141e-07
7.6238807e-07
7.5970972e-07
7.5719724e-07
7.5483442e-07
7.5260696e-07
7.5050249e-07
7.4851006e-07
7.4661976e-07
7.448226e-07
7.431101e-07
7.4147464e-07
7.3990696e-07
7.3840158e-07
7.3693646e-07
7.3553393e-07
7.3406655e-07
7.3285511e-07
7.3095793e-07
0.0001374333
0.00013241363
0.00013067527
0.00012983347
0.00012931442
0.00012895455
0.00012869016
0.00012848917
0.00012833275
0.00012820888
0.00012810944
0.00012802878
0.00012796281
0.00012790852
0.00012786363
0.00012782643
0.00012779548
0.00012777008
0.0001277483
0.00012773464
0.00012770661
0.00012778386
0.00012729014
0.00012986315
1.6991367e-05
1.9789578e-06
4.3831927e-06
1.0557125e-06
2.8148962e-06
1.9683071e-06
2.2668734e-06
2.0724017e-06
1.9622644e-06
1.8538207e-06
1.7680663e-06
1.6937254e-06
1.6297843e-06
1.5739499e-06
1.5248212e-06
1.4812398e-06
1.4422682e-06
1.4071681e-06
1.3753526e-06
1.3463551e-06
1.319809e-06
1.2953624e-06
1.2727574e-06
1.2517777e-06
1.2322381e-06
1.2139802e-06
1.196868e-06
1.1807841e-06
1.1656268e-06
1.1513073e-06
1.1377482e-06
1.1248809e-06
1.1126449e-06
1.1009866e-06
1.0898582e-06
1.0792168e-06
1.069031e-06
1.0592644e-06
1.0498844e-06
1.0408624e-06
1.0321696e-06
1.0237698e-06
1.0156537e-06
1.0078031e-06
1.0002001e-06
9.9282848e-07
9.8567322e-07
9.7872055e-07
9.7195752e-07
9.6537233e-07
9.5895402e-07
9.5269245e-07
9.4657815e-07
9.4060227e-07
9.3475667e-07
9.2903383e-07
9.2342651e-07
9.1792794e-07
9.125318e-07
9.0723219e-07
9.0202355e-07
8.9690057e-07
8.9185834e-07
8.8689201e-07
8.8199752e-07
8.7717054e-07
8.7240701e-07
8.677032e-07
8.6305549e-07
8.5846046e-07
8.5391485e-07
8.4941814e-07
8.4496698e-07
8.4055813e-07
8.3618819e-07
8.3185346e-07
8.2755133e-07
8.2327936e-07
8.1903514e-07
8.1481634e-07
8.1061849e-07
8.0643926e-07
8.022776e-07
7.9813194e-07
7.9400071e-07
7.8988242e-07
7.8577561e-07
7.816833e-07
7.7759934e-07
7.7365748e-07
7.6999313e-07
7.6661473e-07
7.6348977e-07
7.6058833e-07
7.578841e-07
7.5535544e-07
7.5298412e-07
7.507547e-07
7.486536e-07
7.4666904e-07
7.4479062e-07
7.4300895e-07
7.4131548e-07
7.397022e-07
7.3816187e-07
7.3668576e-07
7.3526872e-07
7.3388963e-07
7.3257011e-07
7.3118927e-07
7.3005013e-07
7.2826624e-07
0.00013687514
0.00013152754
0.00012966535
0.00012875932
0.00012819935
0.00012781061
0.00012752473
0.00012730721
0.00012713776
0.00012700342
0.00012689545
0.00012680774
0.00012673588
0.00012667663
0.00012662752
0.0001265867
0.00012655262
0.00012652452
0.00012650032
0.00012648489
0.00012645407
0.00012653595
0.0001260094
0.00012877626
1.6917135e-05
1.8679375e-06
4.0979578e-06
1.0057841e-06
2.6486847e-06
1.9287506e-06
2.1429633e-06
1.965104e-06
1.8614878e-06
1.7613148e-06
1.6815212e-06
1.6125151e-06
1.5531255e-06
1.5012866e-06
1.4556759e-06
1.4152043e-06
1.3790031e-06
1.3463899e-06
1.3168214e-06
1.2898667e-06
1.2651884e-06
1.2424567e-06
1.2214329e-06
1.2019175e-06
1.1837387e-06
1.1667498e-06
1.1508246e-06
1.1358543e-06
1.1217445e-06
1.1084128e-06
1.0957874e-06
1.0838045e-06
1.0724082e-06
1.0615485e-06
1.051181e-06
1.041266e-06
1.0317749e-06
1.0226737e-06
1.013932e-06
1.0055229e-06
9.9741967e-07
9.8958759e-07
9.8201877e-07
9.7469656e-07
9.6760432e-07
9.6072682e-07
9.540502e-07
9.4756164e-07
9.4124908e-07
9.3510157e-07
9.2910891e-07
9.2326166e-07
9.1755103e-07
9.1196877e-07
9.0650732e-07
9.0115968e-07
8.9591913e-07
8.9077937e-07
8.8573451e-07
8.8077908e-07
8.7590791e-07
8.7111607e-07
8.6639898e-07
8.6175213e-07
8.5717177e-07
8.5265386e-07
8.4819465e-07
8.4379067e-07
8.3943856e-07
8.3513514e-07
8.3087738e-07
8.2666496e-07
8.2249464e-07
8.1836324e-07
8.1426741e-07
8.1020409e-07
8.0617089e-07
8.0216556e-07
7.9818587e-07
7.9422966e-07
7.9029358e-07
7.8637501e-07
7.8247273e-07
7.7858531e-07
7.7471131e-07
7.7084939e-07
7.6699823e-07
7.6316018e-07
7.5932917e-07
7.5563364e-07
7.522012e-07
7.4903872e-07
7.4611511e-07
7.4340185e-07
7.4087401e-07
7.3851113e-07
7.3629599e-07
7.3421406e-07
7.3225253e-07
7.3040033e-07
7.2864769e-07
7.2698576e-07
7.2540652e-07
7.2390246e-07
7.224668e-07
7.2109135e-07
7.1977133e-07
7.1848684e-07
7.1725844e-07
7.1597263e-07
7.1491272e-07
7.1325277e-07
0.00013623335
0.00013050421
0.00012849796
0.00012751719
0.0001269096
0.00012648728
0.0001261764
0.00012593963
0.00012575501
0.00012560849
0.00012549059
0.00012539468
0.00012531597
0.00012525094
0.00012519691
0.00012515187
0.00012511414
0.0001250829
0.00012505588
0.00012503839
0.00012500432
0.00012509153
0.00012452708
0.00012751993
1.6863163e-05
1.752183e-06
3.7883593e-06
9.447667e-07
2.4611071e-06
1.8536675e-06
1.9993522e-06
1.8383188e-06
1.7420522e-06
1.6504899e-06
1.5770866e-06
1.5137435e-06
1.4592033e-06
1.4116139e-06
1.3697412e-06
1.332577e-06
1.2993258e-06
1.2693634e-06
1.2421928e-06
1.2174199e-06
1.1947378e-06
1.1738404e-06
1.1545097e-06
1.1365632e-06
1.1198437e-06
1.1042164e-06
1.0895658e-06
1.075792e-06
1.0628084e-06
1.0505395e-06
1.0389191e-06
1.027889e-06
1.0173975e-06
1.007399e-06
9.9785251e-07
9.8872172e-07
9.7998085e-07
9.7159861e-07
9.6354676e-07
9.5580057e-07
9.4833512e-07
9.4111787e-07
9.341422e-07
9.2739291e-07
9.2085472e-07
9.1451363e-07
9.083569e-07
9.0237273e-07
8.9655006e-07
8.9087879e-07
8.8534956e-07
8.7995369e-07
8.7468308e-07
8.6953018e-07
8.64488e-07
8.5955013e-07
8.5471037e-07
8.4996294e-07
8.4530243e-07
8.4072382e-07
8.3622233e-07
8.3179346e-07
8.2743299e-07
8.2313677e-07
8.1890137e-07
8.1472308e-07
8.1059844e-07
8.0652428e-07
8.0249753e-07
7.9851525e-07
7.9457469e-07
7.9067561e-07
7.8681496e-07
7.8298962e-07
7.7919657e-07
7.754332e-07
7.7169733e-07
7.6798692e-07
7.6429993e-07
7.606344e-07
7.5698775e-07
7.5335742e-07
7.4974209e-07
7.4614041e-07
7.4255111e-07
7.3897297e-07
7.3540484e-07
7.3184879e-07
7.2829872e-07
7.2487597e-07
7.2169942e-07
7.1877453e-07
7.1607197e-07
7.1356495e-07
7.1123013e-07
7.0904842e-07
7.0700376e-07
7.0508265e-07
7.0327315e-07
7.0156499e-07
6.9994907e-07
6.984172e-07
6.9696192e-07
6.9557627e-07
6.9425399e-07
6.9298749e-07
6.9177239e-07
6.9059018e-07
6.8946015e-07
6.88277e-07
6.8730249e-07
6.8577597e-07
0.0001355006
0.00012933007
0.00012715717
0.00012608995
0.00012542729
0.0001249661
0.00012462629
0.00012436727
0.00012416511
0.0001240045
0.00012387512
0.00012376971
0.00012368308
0.00012361136
0.00012355163
0.0001235017
0.00012345975
0.00012342487
0.0001233946
0.0001233747
0.00012333688
0.00012343019
0.00012282227
0.00012607694
1.6836244e-05
1.6329569e-06
3.4575475e-06
8.7326702e-07
2.2541589e-06
1.745783e-06
1.8376294e-06
1.6935246e-06
1.6053263e-06
1.5226486e-06
1.4559956e-06
1.3985878e-06
1.3491432e-06
1.3060122e-06
1.2680599e-06
1.2343676e-06
1.2042162e-06
1.1770417e-06
1.1523949e-06
1.1299203e-06
1.1093416e-06
1.0903788e-06
1.072835e-06
1.0565454e-06
1.0413677e-06
1.02718e-06
1.0138777e-06
1.0013702e-06
9.8957912e-07
9.7843592e-07
9.6788083e-07
9.5786089e-07
9.483294e-07
9.392448e-07
9.3057009e-07
9.2227229e-07
9.1432861e-07
9.0671046e-07
8.9939205e-07
8.9235084e-07
8.8556404e-07
8.7900149e-07
8.7265775e-07
8.665191e-07
8.6057171e-07
8.5480286e-07
8.49201e-07
8.4375544e-07
8.3845611e-07
8.3329387e-07
8.2826021e-07
8.2334724e-07
8.1854763e-07
8.1385451e-07
8.0926155e-07
8.0476293e-07
8.0035302e-07
7.9602657e-07
7.9177867e-07
7.8760478e-07
7.8350056e-07
7.7946192e-07
7.7548505e-07
7.7156616e-07
7.6770215e-07
7.6388968e-07
7.6012561e-07
7.5640706e-07
7.5273125e-07
7.4909553e-07
7.4549741e-07
7.419367e-07
7.3841053e-07
7.3491601e-07
7.3145046e-07
7.2801166e-07
7.2459764e-07
7.2120657e-07
7.178366e-07
7.1448598e-07
7.1115268e-07
7.0783441e-07
7.0452979e-07
7.0123759e-07
6.9795665e-07
6.9468593e-07
6.9142439e-07
6.88174e-07
6.8492878e-07
6.8180148e-07
6.7890123e-07
6.7623231e-07
6.7376746e-07
6.7148189e-07
6.6935407e-07
6.6736643e-07
6.6550421e-07
6.6375501e-07
6.621079e-07
6.6055343e-07
6.5908331e-07
6.5769e-07
6.5636669e-07
6.5510701e-07
6.5390524e-07
6.5275446e-07
6.516507e-07
6.5057701e-07
6.495512e-07
6.4847692e-07
6.4759276e-07
6.462074e-07
0.00013466964
0.00012799106
0.00012562644
0.00012445975
0.00012373372
0.00012322783
0.00012285476
0.00012257013
0.00012234779
0.00012217099
0.00012202839
0.00012191207
0.00012181632
0.0001217369
0.00012167062
0.00012161507
0.00012156825
0.00012152918
0.00012149516
0.00012147249
0.00012143037
0.00012153059
0.00012087315
0.0001244293
1.6844277e-05
1.5119041e-06
3.1100395e-06
7.9250781e-07
2.0309212e-06
1.6092266e-06
1.6603496e-06
1.5331291e-06
1.4535787e-06
1.3799684e-06
1.3203353e-06
1.2690622e-06
1.2248928e-06
1.1863726e-06
1.1524745e-06
1.1223755e-06
1.0954348e-06
1.0711502e-06
1.0491214e-06
1.029032e-06
1.0106374e-06
9.9368448e-07
9.7799812e-07
9.634317e-07
9.4985831e-07
9.3716922e-07
9.2527095e-07
9.1408275e-07
9.0353457e-07
8.9356517e-07
8.8412117e-07