/*--------------------------------*- C++ -*----------------------------------*\
| =========                 |                                                 |
| \\      /  F ield         | OpenFOAM: The Open Source CFD Toolbox           |
|  \\    /   O peration     | Version:  2206                                  |
|   \\  /    A nd           | Website:  www.openfoam.com                      |
|    \\/     M anipulation  |                                                 |
\*---------------------------------------------------------------------------*/
FoamFile
{
    version     2.0;
    format      ascii;
    arch        "LSB;label=32;scalar=64";
    class       volScalarField;
    location    "700";
    object      nut;
}
// * * * * * * * * * * * * * * * * * * * * * * * * * * * * * * * * * * * * * //

dimensions      [0 2 -1 0 0 0 0];

internalField   nonuniform List<scalar> 
13056
(
6.6569192e-09
6.338245e-09
6.238838e-09
6.1924232e-09
6.1640931e-09
6.1446026e-09
6.1303854e-09
6.1196433e-09
6.1113258e-09
6.104765e-09
6.0995117e-09
6.0952507e-09
6.0917515e-09
6.0888379e-09
6.086365e-09
6.0842083e-09
6.0822246e-09
6.0802964e-09
6.0780104e-09
6.0755354e-09
6.0692494e-09
6.0667306e-09
6.0178721e-09
4.6202203e-09
3.1995128e-11
1.2614317e-11
1.829529e-11
7.6678546e-12
1.370774e-11
6.2512437e-12
1.1757317e-11
1.0849948e-11
1.0555285e-11
1.0068099e-11
9.7354105e-12
9.4149334e-12
9.1403352e-12
8.8935812e-12
8.6717946e-12
8.4679871e-12
8.282057e-12
8.1120747e-12
7.9558283e-12
7.8115157e-12
7.6776529e-12
7.5529863e-12
7.4364661e-12
7.3272025e-12
7.2244353e-12
7.1275076e-12
7.0358516e-12
6.9489706e-12
6.8664296e-12
6.7878456e-12
6.7128816e-12
6.6412384e-12
6.5726476e-12
6.506869e-12
6.4436873e-12
6.3829083e-12
6.3243576e-12
6.2678764e-12
6.2133213e-12
6.16056e-12
6.1094706e-12
6.0599391e-12
6.0118675e-12
5.9651629e-12
5.9197385e-12
5.8755149e-12
5.83242e-12
5.7903852e-12
5.7493461e-12
5.7092434e-12
5.6700218e-12
5.6316295e-12
5.594018e-12
5.5571413e-12
5.5209573e-12
5.4854267e-12
5.4505112e-12
5.4161743e-12
5.3823822e-12
5.3491026e-12
5.3163051e-12
5.2839602e-12
5.25204e-12
5.2205185e-12
5.1893713e-12
5.1585735e-12
5.1281016e-12
5.097933e-12
5.0680462e-12
5.0384203e-12
5.0090348e-12
4.9798706e-12
4.9509092e-12
4.9221318e-12
4.8935194e-12
4.8650543e-12
4.8367187e-12
4.8084954e-12
4.7803671e-12
4.7523168e-12
4.7243284e-12
4.6963847e-12
4.6684686e-12
4.6405638e-12
4.6126537e-12
4.5847227e-12
4.5567553e-12
4.5287448e-12
4.5006668e-12
4.4732322e-12
4.4473387e-12
4.4231605e-12
4.4005486e-12
4.3793535e-12
4.3594327e-12
4.3406622e-12
4.3229347e-12
4.3061563e-12
4.2902436e-12
4.2751225e-12
4.2607266e-12
4.2469954e-12
4.2338726e-12
4.2213042e-12
4.2092401e-12
4.1976184e-12
4.186398e-12
4.1754325e-12
4.16484e-12
4.153799e-12
4.1444838e-12
4.1301671e-12
6.656709e-09
6.3372821e-09
6.2376138e-09
6.1910657e-09
6.1626511e-09
6.1431013e-09
6.1288403e-09
6.1180649e-09
6.1097215e-09
6.1031403e-09
6.0978712e-09
6.093598e-09
6.0900898e-09
6.0871704e-09
6.084695e-09
6.0825398e-09
6.080563e-09
6.0786492e-09
6.076393e-09
6.0739646e-09
6.067803e-09
6.0654437e-09
6.0174497e-09
4.6196265e-09
3.1919252e-11
1.1797179e-11
1.7341568e-11
5.5072766e-12
1.2648488e-11
3.6077878e-12
1.0549908e-11
9.5499044e-12
9.20584e-12
8.653746e-12
8.2658108e-12
7.891672e-12
7.5667763e-12
7.272411e-12
7.0049475e-12
6.758251e-12
6.5325351e-12
6.3251715e-12
6.1337591e-12
5.9563237e-12
5.7912271e-12
5.6370675e-12
5.4926671e-12
5.3570182e-12
5.2292535e-12
5.108617e-12
4.9944513e-12
4.8861771e-12
4.7832845e-12
4.6853215e-12
4.5918883e-12
4.5026281e-12
4.4172189e-12
4.3353715e-12
4.2568256e-12
4.1813452e-12
4.1087209e-12
4.0387581e-12
3.9712801e-12
3.9061242e-12
3.8431374e-12
3.7821667e-12
3.7231015e-12
3.6658273e-12
3.6102357e-12
3.5562275e-12
3.5037123e-12
3.4526044e-12
3.4028229e-12
3.3542936e-12
3.3069471e-12
3.2607188e-12
3.2155475e-12
3.1713761e-12
3.1281515e-12
3.0858249e-12
3.0443485e-12
3.003677e-12
2.9637683e-12
2.9245826e-12
2.8860821e-12
2.848231e-12
2.8109948e-12
2.7743421e-12
2.738243e-12
2.7026678e-12
2.6675881e-12
2.6329773e-12
2.5988098e-12
2.5650613e-12
2.531708e-12
2.4987301e-12
2.466106e-12
2.4338134e-12
2.401831e-12
2.3701392e-12
2.338719e-12
2.307552e-12
2.27662e-12
2.2459056e-12
2.2153924e-12
2.1850627e-12
2.1548999e-12
2.1248885e-12
2.0950132e-12
2.0652599e-12
2.0356153e-12
2.0060749e-12
1.9766184e-12
1.9479691e-12
1.9210494e-12
1.8960292e-12
1.8727372e-12
1.8510022e-12
1.8306623e-12
1.8115769e-12
1.7936244e-12
1.7766986e-12
1.7607059e-12
1.7455633e-12
1.7311967e-12
1.7175393e-12
1.7045294e-12
1.6921082e-12
1.6802218e-12
1.6688054e-12
1.6578157e-12
1.6471066e-12
1.636792e-12
1.6260732e-12
1.6170597e-12
1.6032279e-12
6.6560046e-09
6.3342796e-09
6.2338162e-09
6.186863e-09
6.1581908e-09
6.1384601e-09
6.1240652e-09
6.1131872e-09
6.1047636e-09
6.0981188e-09
6.0927985e-09
6.0884842e-09
6.0849432e-09
6.081998e-09
6.0795037e-09
6.0773365e-09
6.0753562e-09
6.0734492e-09
6.0712192e-09
6.0688394e-09
6.062816e-09
6.0606598e-09
6.0136352e-09
4.6177693e-09
3.1844315e-11
1.1025595e-11
1.6431094e-11
4.382013e-12
1.173996e-11
3.1874201e-12
9.6119252e-12
8.6131435e-12
8.2478037e-12
7.696044e-12
7.3017067e-12
6.9269581e-12
6.6016829e-12
6.3085046e-12
6.0430995e-12
5.8006696e-12
5.580286e-12
5.3789667e-12
5.19418e-12
5.0238434e-12
4.8662316e-12
4.7198536e-12
4.5834687e-12
4.4560161e-12
4.3365828e-12
4.2243747e-12
4.1187016e-12
4.0189579e-12
3.9246111e-12
3.835191e-12
3.7502821e-12
3.6695145e-12
3.5925561e-12
3.5191093e-12
3.4489068e-12
3.3817074e-12
3.3173003e-12
3.2554871e-12
3.196088e-12
3.1389383e-12
3.083883e-12
3.0307623e-12
2.9794716e-12
2.9298975e-12
2.8819325e-12
2.8354782e-12
2.7904453e-12
2.7467495e-12
2.7043119e-12
2.6630598e-12
2.622926e-12
2.5838477e-12
2.545766e-12
2.5086259e-12
2.4723765e-12
2.436971e-12
2.402364e-12
2.3685125e-12
2.3353769e-12
2.3029196e-12
2.2711052e-12
2.2399004e-12
2.2092731e-12
2.179194e-12
2.1496356e-12
2.1205706e-12
2.091973e-12
2.0638186e-12
2.0360843e-12
2.008748e-12
1.9817885e-12
1.9551893e-12
1.9289306e-12
1.9029924e-12
1.8773556e-12
1.852003e-12
1.8269179e-12
1.8020846e-12
1.7774873e-12
1.7531113e-12
1.7289422e-12
1.7049648e-12
1.6811654e-12
1.6575311e-12
1.6340494e-12
1.6107089e-12
1.5874988e-12
1.5644162e-12
1.5414429e-12
1.5191524e-12
1.498261e-12
1.4788891e-12
1.4608937e-12
1.444134e-12
1.4284778e-12
1.4138114e-12
1.4000368e-12
1.3870686e-12
1.3748319e-12
1.3632604e-12
1.3522955e-12
1.3418838e-12
1.3319768e-12
1.3225282e-12
1.3134959e-12
1.3048295e-12
1.2964955e-12
1.2883814e-12
1.2805766e-12
1.2724682e-12
1.2656657e-12
1.2552144e-12
6.65479e-09
6.3291439e-09
6.2273251e-09
6.179681e-09
6.1505698e-09
6.1305305e-09
6.1159068e-09
6.1048537e-09
6.0962928e-09
6.0895384e-09
6.0841297e-09
6.0797435e-09
6.0761439e-09
6.0731513e-09
6.0706195e-09
6.0684245e-09
6.0664267e-09
6.0645146e-09
6.0622999e-09
6.0599604e-09
6.0540628e-09
6.0521237e-09
6.0059949e-09
4.6143658e-09
3.1780137e-11
1.0293295e-11
1.5551748e-11
3.6892693e-12
1.0937847e-11
3.166377e-12
8.8458312e-12
7.8879706e-12
7.5162417e-12
6.988323e-12
6.6053049e-12
6.2466586e-12
5.9357304e-12
5.6569451e-12
5.4057111e-12
5.1781069e-12
4.9721967e-12
4.7849135e-12
4.6137208e-12
4.4565389e-12
4.3116537e-12
4.1775717e-12
4.0530663e-12
3.9370917e-12
3.8287492e-12
3.7272606e-12
3.6319502e-12
3.5422283e-12
3.4575775e-12
3.3775425e-12
3.3017221e-12
3.2297601e-12
3.1613377e-12
3.0961702e-12
3.0340025e-12
2.9746052e-12
2.9177809e-12
2.8633412e-12
2.8111154e-12
2.7609484e-12
2.7126933e-12
2.6661942e-12
2.6213589e-12
2.5780825e-12
2.5362648e-12
2.4958144e-12
2.4566483e-12
2.4186886e-12
2.3818625e-12
2.3461032e-12
2.3113488e-12
2.2775416e-12
2.2446279e-12
2.2125573e-12
2.1812835e-12
2.1507636e-12
2.1209566e-12
2.0918234e-12
2.0633281e-12
2.0354367e-12
2.0081175e-12
1.9813401e-12
1.955076e-12
1.9292986e-12
1.9039833e-12
1.8791058e-12
1.8546427e-12
1.8305725e-12
1.8068746e-12
1.7835294e-12
1.760518e-12
1.7378271e-12
1.7154388e-12
1.6933351e-12
1.6714987e-12
1.6499143e-12
1.6285672e-12
1.6074437e-12
1.5865299e-12
1.565813e-12
1.5452801e-12
1.5249174e-12
1.5047132e-12
1.4846565e-12
1.4647367e-12
1.444944e-12
1.4252691e-12
1.4057103e-12
1.3862504e-12
1.3673853e-12
1.3497238e-12
1.3333624e-12
1.3181762e-12
1.3040427e-12
1.2908478e-12
1.2784938e-12
1.2668967e-12
1.2559835e-12
1.2456903e-12
1.2359606e-12
1.2267442e-12
1.2179961e-12
1.2096749e-12
1.2017414e-12
1.19416e-12
1.1868881e-12
1.1798978e-12
1.1730936e-12
1.1665532e-12
1.159756e-12
1.1540635e-12
1.1453018e-12
6.6530407e-09
6.321729e-09
6.2179531e-09
6.1693115e-09
6.1395662e-09
6.1190812e-09
6.1041271e-09
6.0928208e-09
6.0840612e-09
6.0771481e-09
6.0716109e-09
6.0671197e-09
6.0634339e-09
6.0603706e-09
6.0577815e-09
6.0555416e-09
6.0535116e-09
6.0515815e-09
6.0493707e-09
6.0470629e-09
6.0412788e-09
6.0395724e-09
5.9942661e-09
4.6092992e-09
3.1736372e-11
9.5949107e-12
1.4693078e-11
3.2156773e-12
1.0210772e-11
3.2811009e-12
8.1925696e-12
7.292635e-12
6.9233836e-12
6.4279016e-12
6.0632579e-12
5.7261903e-12
5.4341676e-12
5.1734433e-12
4.9394595e-12
4.7287477e-12
4.5387375e-12
4.3664209e-12
4.2093377e-12
4.0654781e-12
3.9331951e-12
3.8110411e-12
3.6978425e-12
3.5926019e-12
3.4944629e-12
3.4026864e-12
3.316632e-12
3.2357423e-12
3.1595296e-12
3.0875655e-12
3.0194735e-12
2.95492e-12
2.8936071e-12
2.8352692e-12
2.7796691e-12
2.7265936e-12
2.6758624e-12
2.6273003e-12
2.5807491e-12
2.5360653e-12
2.4931123e-12
2.4517407e-12
2.4118715e-12
2.3734089e-12
2.3362612e-12
2.3003448e-12
2.2655838e-12
2.2319069e-12
2.1992479e-12
2.1675459e-12
2.1367447e-12
2.1067918e-12
2.0776386e-12
2.0492393e-12
2.0215519e-12
1.9945378e-12
1.9681597e-12
1.9423824e-12
1.9171736e-12
1.8925026e-12
1.8683407e-12
1.8446607e-12
1.8214368e-12
1.7986453e-12
1.7762639e-12
1.7542709e-12
1.7326454e-12
1.711368e-12
1.6904203e-12
1.6697847e-12
1.6494444e-12
1.6293887e-12
1.6096015e-12
1.5900663e-12
1.5707672e-12
1.5516904e-12
1.5328228e-12
1.5141519e-12
1.4956657e-12
1.4773526e-12
1.4592006e-12
1.4411968e-12
1.4233315e-12
1.405595e-12
1.387978e-12
1.370472e-12
1.3530688e-12
1.3357677e-12
1.3185521e-12
1.3018706e-12
1.2862645e-12
1.2718156e-12
1.2584107e-12
1.2459397e-12
1.2343005e-12
1.2234058e-12
1.2131809e-12
1.2035609e-12
1.194489e-12
1.1859153e-12
1.1777953e-12
1.1700891e-12
1.16276e-12
1.1557736e-12
1.1490983e-12
1.1426966e-12
1.136544e-12
1.1305558e-12
1.1248028e-12
1.1188209e-12
1.1138192e-12
1.106106e-12
6.6507263e-09
6.3118388e-09
6.2054479e-09
6.1554735e-09
6.124881e-09
6.1038003e-09
6.0884047e-09
6.0767599e-09
6.0677345e-09
6.0606089e-09
6.0548995e-09
6.0502672e-09
6.046465e-09
6.0433055e-09
6.0406376e-09
6.0383341e-09
6.0362558e-09
6.0342938e-09
6.0320745e-09
6.0297891e-09
6.0241053e-09
6.0226491e-09
5.9780883e-09
4.6024094e-09
3.1724025e-11
8.9260178e-12
1.3846226e-11
2.8661852e-12
9.5358054e-12
3.4432914e-12
7.6140026e-12
6.7788427e-12
6.4178799e-12
5.957599e-12
5.6142567e-12
5.3003324e-12
5.0284188e-12
4.7864803e-12
4.5701428e-12
4.376133e-12
4.2015635e-12
4.0435575e-12
3.8997753e-12
3.7683124e-12
3.6476166e-12
3.5363092e-12
3.4332879e-12
3.3376171e-12
3.2484947e-12
3.1652297e-12
3.0872241e-12
3.0139589e-12
2.9449805e-12
2.8798912e-12
2.8183422e-12
2.7600243e-12
2.7046626e-12
2.6520118e-12
2.6018534e-12
2.553991e-12
2.5082617e-12
2.4645039e-12
2.4225717e-12
2.3823335e-12
2.3436629e-12
2.3064173e-12
2.2705299e-12
2.235914e-12
2.2024859e-12
2.1701691e-12
2.1388945e-12
2.1085972e-12
2.0792169e-12
2.0506984e-12
2.0229904e-12
1.9960455e-12
1.9698194e-12
1.9442706e-12
1.9193611e-12
1.8950558e-12
1.871321e-12
1.8481249e-12
1.8254381e-12
1.8032331e-12
1.7814837e-12
1.7601654e-12
1.7392551e-12
1.7187311e-12
1.6985734e-12
1.6787624e-12
1.6592793e-12
1.6401065e-12
1.6212275e-12
1.6026265e-12
1.5842882e-12
1.5662044e-12
1.5483603e-12
1.530741e-12
1.5133317e-12
1.4961193e-12
1.4790922e-12
1.4622392e-12
1.4455494e-12
1.4290123e-12
1.412616e-12
1.3963488e-12
1.3802023e-12
1.3641684e-12
1.3482387e-12
1.3324057e-12
1.3166621e-12
1.3010082e-12
1.2854279e-12
1.2703364e-12
1.2562264e-12
1.2431687e-12
1.231059e-12
1.219796e-12
1.2092865e-12
1.1994508e-12
1.1902212e-12
1.1815388e-12
1.1733521e-12
1.1656157e-12
1.1582896e-12
1.1513375e-12
1.1447264e-12
1.138425e-12
1.132405e-12
1.1266323e-12
1.1210854e-12
1.1156867e-12
1.1105027e-12
1.1051094e-12
1.1006068e-12
1.0936501e-12
6.647812e-09
6.2992289e-09
6.1894945e-09
6.1378159e-09
6.1061401e-09
6.0842979e-09
6.0683377e-09
6.0562599e-09
6.0468945e-09
6.0394969e-09
6.0335668e-09
6.0287534e-09
6.0248015e-09
6.0215178e-09
6.0187469e-09
6.0163593e-09
6.0142149e-09
6.0122057e-09
6.0099642e-09
6.007691e-09
6.002093e-09
6.0009062e-09
5.9570068e-09
4.5934938e-09
3.1755932e-11
8.2831375e-12
1.3003891e-11
2.5917217e-12
8.8958359e-12
3.6076191e-12
7.0843915e-12
6.316006e-12
5.9674542e-12
5.5427695e-12
5.2219416e-12
4.9313058e-12
4.6795503e-12
4.4561859e-12
4.2570744e-12
4.0790209e-12
3.9190425e-12
3.7744302e-12
3.642988e-12
3.5229343e-12
3.412824e-12
3.3113587e-12
3.2175142e-12
3.1304227e-12
3.0493401e-12
2.9736264e-12
2.9027284e-12
2.8361665e-12
2.7735223e-12
2.7144293e-12
2.6585664e-12
2.6056492e-12
2.5554249e-12
2.5076688e-12
2.4621802e-12
2.4187793e-12
2.3773196e-12
2.3376525e-12
2.2996441e-12
2.2631738e-12
2.2281249e-12
2.1943617e-12
2.1618286e-12
2.130447e-12
2.1001404e-12
2.0708394e-12
2.0424809e-12
2.0150058e-12
1.9883593e-12
1.9624911e-12
1.9373547e-12
1.9129069e-12
1.8891075e-12
1.865919e-12
1.8433067e-12
1.8212388e-12
1.7996847e-12
1.7786156e-12
1.7580048e-12
1.7378274e-12
1.7180597e-12
1.6986794e-12
1.6796656e-12
1.6609986e-12
1.6426604e-12
1.6246331e-12
1.6068998e-12
1.5894445e-12
1.5722523e-12
1.5553088e-12
1.5386003e-12
1.5221205e-12
1.505856e-12
1.4897933e-12
1.4739187e-12
1.4582196e-12
1.4426853e-12
1.4273057e-12
1.412071e-12
1.3969716e-12
1.3819949e-12
1.3671305e-12
1.3523717e-12
1.3377114e-12
1.3231422e-12
1.3086575e-12
1.2942508e-12
1.2799232e-12
1.2656593e-12
1.2518477e-12
1.2389423e-12
1.2270047e-12
1.2159375e-12
1.2056467e-12
1.1960461e-12
1.1870627e-12
1.1786338e-12
1.1707056e-12
1.1632309e-12
1.1561681e-12
1.1494805e-12
1.1431349e-12
1.1371011e-12
1.1313507e-12
1.1258575e-12
1.1205908e-12
1.1155307e-12
1.1106062e-12
1.1058798e-12
1.1009596e-12
1.0968585e-12
1.0905099e-12
6.6442618e-09
6.2836093e-09
6.1697174e-09
6.11592e-09
6.0828976e-09
6.0601085e-09
6.0434464e-09
6.0308304e-09
6.0210421e-09
6.0133062e-09
6.0071013e-09
6.0020622e-09
5.9979233e-09
5.9944839e-09
5.9915833e-09
5.9890887e-09
5.9868583e-09
5.9847847e-09
5.9825056e-09
5.9802333e-09
5.9747049e-09
5.9738085e-09
5.9304766e-09
4.5823073e-09
3.1847306e-11
7.6637026e-12
1.2160331e-11
2.3641602e-12
8.277972e-12
3.7446289e-12
6.5856577e-12
5.8837361e-12
5.5507118e-12
5.16107e-12
4.8632315e-12
4.595537e-12
4.3636144e-12
4.1583476e-12
3.9758393e-12
3.8129458e-12
3.6667325e-12
3.5346759e-12
3.4147357e-12
3.305261e-12
3.2049193e-12
3.1124975e-12
3.0270518e-12
2.9477836e-12
2.8740078e-12
2.8051355e-12
2.7406585e-12
2.6801361e-12
2.6231849e-12
2.5694687e-12
2.5186935e-12
2.4705989e-12
2.4249538e-12
2.3815527e-12
2.3402122e-12
2.3007683e-12
2.2630898e-12
2.2270407e-12
2.1924979e-12
2.1593516e-12
2.1274942e-12
2.0967968e-12
2.0672136e-12
2.0386737e-12
2.0111075e-12
1.9844516e-12
1.9586487e-12
1.9336451e-12
1.909391e-12
1.8858406e-12
1.8629517e-12
1.8406851e-12
1.8190043e-12
1.7978751e-12
1.7772661e-12
1.7571484e-12
1.7374944e-12
1.7182777e-12
1.6994742e-12
1.6810613e-12
1.6630175e-12
1.6453227e-12
1.6279577e-12
1.6109048e-12
1.5941476e-12
1.5776699e-12
1.5614562e-12
1.5454923e-12
1.5297645e-12
1.5142598e-12
1.4989658e-12
1.4838778e-12
1.4689839e-12
1.4542719e-12
1.4397296e-12
1.4253441e-12
1.4111056e-12
1.397005e-12
1.3830332e-12
1.3691818e-12
1.355436e-12
1.3417876e-12
1.3282317e-12
1.3147621e-12
1.3013724e-12
1.2880566e-12
1.2748089e-12
1.2616318e-12
1.2485103e-12
1.23581e-12
1.2239503e-12
1.212985e-12
1.2028228e-12
1.193376e-12
1.1845647e-12
1.176321e-12
1.1685873e-12
1.161314e-12
1.1544574e-12
1.1479795e-12
1.1418463e-12
1.1360275e-12
1.1304952e-12
1.1252232e-12
1.1201878e-12
1.1153604e-12
1.1107234e-12
1.1062107e-12
1.1018818e-12
1.0973726e-12
1.0936204e-12
1.0878e-12
6.6400423e-09
6.2646466e-09
6.1456836e-09
6.0893025e-09
6.0546378e-09
6.0306944e-09
6.0131763e-09
5.999904e-09
5.9896001e-09
5.9814515e-09
5.9749113e-09
5.9695965e-09
5.9652289e-09
5.9615986e-09
5.9585384e-09
5.955911e-09
5.9535723e-09
5.9514149e-09
5.9490811e-09
5.9467969e-09
5.9413198e-09
5.9407365e-09
5.8978662e-09
4.5685616e-09
3.2016382e-11
7.0660163e-12
1.1311434e-11
2.1660889e-12
7.6725842e-12
3.8335425e-12
6.1048995e-12
5.4680183e-12
5.1529881e-12
4.7974896e-12
4.5227901e-12
4.277551e-12
4.0650449e-12
3.8773625e-12
3.7108368e-12
3.562398e-12
3.429247e-12
3.3090552e-12
3.1999432e-12
3.1003938e-12
3.0091888e-12
2.9252024e-12
2.8475713e-12
2.7755658e-12
2.708559e-12
2.6460129e-12
2.5874629e-12
2.532507e-12
2.4807952e-12
2.432021e-12
2.3859165e-12
2.3422443e-12
2.3007942e-12
2.2613791e-12
2.2238321e-12
2.1880042e-12
2.1537785e-12
2.1210306e-12
2.0896484e-12
2.0595316e-12
2.0305816e-12
2.0026764e-12
1.9757789e-12
1.9498252e-12
1.9247522e-12
1.9005023e-12
1.8770234e-12
1.8542668e-12
1.8321874e-12
1.8107436e-12
1.7898973e-12
1.7696127e-12
1.7498568e-12
1.7305988e-12
1.71181e-12
1.6934644e-12
1.6755367e-12
1.6580033e-12
1.6408422e-12
1.6240329e-12
1.607556e-12
1.5913931e-12
1.5755272e-12
1.5599418e-12
1.5446223e-12
1.529554e-12
1.514723e-12
1.5001161e-12
1.4857212e-12
1.4715263e-12
1.4575202e-12
1.4436999e-12
1.4300543e-12
1.4165731e-12
1.4032461e-12
1.3900594e-12
1.3770039e-12
1.3640712e-12
1.3512532e-12
1.3385422e-12
1.3259199e-12
1.3133817e-12
1.3009246e-12
1.2885431e-12
1.2762315e-12
1.2639847e-12
1.2517974e-12
1.2396742e-12
1.2276003e-12
1.2159191e-12
1.2050184e-12
1.1949445e-12
1.1856119e-12
1.1769388e-12
1.1688507e-12
1.1612851e-12
1.1541886e-12
1.1475156e-12
1.1412258e-12
1.135284e-12
1.1296592e-12
1.1243233e-12
1.1192507e-12
1.1144175e-12
1.1098017e-12
1.1053773e-12
1.101128e-12
1.0969931e-12
1.0930287e-12
1.0888965e-12
1.0854642e-12
1.080128e-12
6.6351273e-09
6.2419677e-09
6.1169056e-09
6.0574179e-09
6.0207792e-09
5.9954482e-09
5.9769015e-09
5.9628404e-09
5.9519168e-09
5.9432719e-09
5.9363285e-09
5.930682e-09
5.9260389e-09
5.9221781e-09
5.9189247e-09
5.9161356e-09
5.9136635e-09
5.9114008e-09
5.9089929e-09
5.9066821e-09
5.9012356e-09
5.9009902e-09
5.8584624e-09
4.5519246e-09
3.2285207e-11
6.4892108e-12
1.0454824e-11
1.9861349e-12
7.0727595e-12
3.8602404e-12
5.6329931e-12
5.0591851e-12
4.7641523e-12
4.4417991e-12
4.1902347e-12
3.9669512e-12
3.7734458e-12
3.6028637e-12
3.4517603e-12
3.317182e-12
3.1965167e-12
3.0876347e-12
2.988819e-12
2.8986869e-12
2.8161334e-12
2.7401212e-12
2.6698665e-12
2.604707e-12
2.5440734e-12
2.4874771e-12
2.4344965e-12
2.3847666e-12
2.3379701e-12
2.2938292e-12
2.2521011e-12
2.2125707e-12
2.1750476e-12
2.1393624e-12
2.1053642e-12
2.0729179e-12
2.0419204e-12
2.0122584e-12
1.9838299e-12
1.9565439e-12
1.9303103e-12
1.9050145e-12
1.880627e-12
1.8570904e-12
1.8343476e-12
1.8123466e-12
1.7910402e-12
1.7703846e-12
1.7503388e-12
1.7308653e-12
1.7119297e-12
1.6934998e-12
1.6755456e-12
1.6580392e-12
1.640955e-12
1.6242692e-12
1.6079592e-12
1.5920035e-12
1.5763824e-12
1.5610772e-12
1.5460705e-12
1.5313458e-12
1.5168874e-12
1.5026807e-12
1.4887125e-12
1.4749694e-12
1.4614388e-12
1.4481091e-12
1.4349689e-12
1.4220078e-12
1.4092155e-12
1.3965902e-12
1.3841219e-12
1.3718013e-12
1.3596223e-12
1.3475691e-12
1.3356327e-12
1.3238055e-12
1.3120803e-12
1.3004498e-12
1.28889e-12
1.277403e-12
1.2659868e-12
1.2546367e-12
1.2433478e-12
1.2321154e-12
1.2209354e-12
1.2098156e-12
1.1987399e-12
1.1880296e-12
1.1780418e-12
1.1688163e-12
1.1602729e-12
1.1523355e-12
1.1449353e-12
1.1380145e-12
1.131524e-12
1.1254216e-12
1.1196706e-12
1.1142386e-12
1.1090971e-12
1.1042203e-12
1.0995849e-12
1.0951687e-12
1.0909519e-12
1.0869105e-12
1.0830298e-12
1.079254e-12
1.0756361e-12
1.0718622e-12
1.0687342e-12
1.0638576e-12
6.6295037e-09
6.2151628e-09
6.0828445e-09
6.0196628e-09
5.9806773e-09
5.9536971e-09
5.933928e-09
5.9189296e-09
5.9072695e-09
5.8980349e-09
5.8906121e-09
5.884571e-09
5.8795999e-09
5.8754644e-09
5.87198e-09
5.8689968e-09
5.8663632e-09
5.8639709e-09
5.861467e-09
5.8591132e-09
5.8536738e-09
5.8537931e-09
5.8114744e-09
4.5320195e-09
3.2680646e-11
5.9332099e-12
9.590016e-12
1.8166603e-12
6.4740185e-12
3.816661e-12
5.1638137e-12
4.6508293e-12
4.3774253e-12
4.0872071e-12
3.8586799e-12
3.6568666e-12
3.481961e-12
3.3280286e-12
3.1918474e-12
3.0706261e-12
2.9619683e-12
2.8639433e-12
2.7749964e-12
2.6938784e-12
2.6195957e-12
2.5511996e-12
2.4879842e-12
2.4293532e-12
2.3747935e-12
2.3238645e-12
2.2761863e-12
2.2314303e-12
2.1893107e-12
2.1495773e-12
2.1120115e-12
2.0764198e-12
2.0426309e-12
2.0104925e-12
1.9798686e-12
1.9506382e-12
1.9227103e-12
1.8959828e-12
1.8703632e-12
1.8457696e-12
1.82212e-12
1.7993077e-12
1.7773097e-12
1.7560747e-12
1.7355514e-12
1.7156931e-12
1.6964573e-12
1.6778047e-12
1.6596985e-12
1.642105e-12
1.6249931e-12
1.6083341e-12
1.592101e-12
1.5762687e-12
1.5608142e-12
1.5457162e-12
1.5309543e-12
1.5165092e-12
1.5023632e-12
1.4884996e-12
1.4749027e-12
1.4615577e-12
1.4484505e-12
1.4355679e-12
1.4228981e-12
1.4104291e-12
1.3981496e-12
1.3860491e-12
1.3741175e-12
1.3623453e-12
1.3507233e-12
1.3392508e-12
1.3279184e-12
1.3167177e-12
1.3056404e-12
1.2946741e-12
1.2838115e-12
1.2730457e-12
1.2623702e-12
1.2517787e-12
1.2412541e-12
1.2307934e-12
1.2203947e-12
1.2100542e-12
1.1997674e-12
1.1895301e-12
1.1793386e-12
1.1691986e-12
1.159098e-12
1.1493354e-12
1.1402378e-12
1.1318388e-12
1.1240639e-12
1.1168428e-12
1.1101119e-12
1.1038184e-12
1.0979173e-12
1.0923701e-12
1.0871431e-12
1.0822068e-12
1.0775351e-12
1.0731047e-12
1.0688942e-12
1.0648834e-12
1.0610543e-12
1.057385e-12
1.0538624e-12
1.0504358e-12
1.0471546e-12
1.0437289e-12
1.0408966e-12
1.0364654e-12
6.6231788e-09
6.1837898e-09
6.0429144e-09
5.9753795e-09
5.9336294e-09
5.904707e-09
5.8834987e-09
5.8673968e-09
5.8548697e-09
5.8449408e-09
5.8369534e-09
5.8304476e-09
5.8250897e-09
5.8206301e-09
5.8168725e-09
5.8136589e-09
5.8108324e-09
5.8082832e-09
5.805659e-09
5.8032436e-09
5.797785e-09
5.7982978e-09
5.7560398e-09
4.508424e-09
3.3235692e-11
5.3986929e-12
8.7185726e-12
1.6525751e-12
5.874192e-12
3.7004276e-12
4.6938161e-12
4.2392284e-12
3.9887466e-12
3.7296493e-12
3.5239739e-12
3.3431442e-12
3.1864339e-12
3.048713e-12
2.9269921e-12
2.8186816e-12
2.7216147e-12
2.6340588e-12
2.5546194e-12
2.4821785e-12
2.4158514e-12
2.3547778e-12
2.2983276e-12
2.2459691e-12
2.1972435e-12
2.1517573e-12
2.1091709e-12
2.0691909e-12
2.0315619e-12
1.9960606e-12
1.9624919e-12
1.930683e-12
1.9004809e-12
1.8717498e-12
1.8443684e-12
1.8182286e-12
1.7932515e-12
1.7693452e-12
1.7464267e-12
1.7244228e-12
1.7032593e-12
1.6828381e-12
1.6631415e-12
1.6441241e-12
1.6257402e-12
1.607948e-12
1.5907098e-12
1.5739903e-12
1.5577569e-12
1.5419794e-12
1.5266302e-12
1.5116835e-12
1.4971154e-12
1.4829036e-12
1.4690273e-12
1.4554678e-12
1.4422066e-12
1.4292269e-12
1.4165125e-12
1.4040488e-12
1.3918217e-12
1.3798179e-12
1.368025e-12
1.3564311e-12
1.3450258e-12
1.3337984e-12
1.3227387e-12
1.3118374e-12
1.3010856e-12
1.2904747e-12
1.2799966e-12
1.2696511e-12
1.2594298e-12
1.2493245e-12
1.2393264e-12
1.2294261e-12
1.2196171e-12
1.2098935e-12
1.2002493e-12
1.1906791e-12
1.1811707e-12
1.1717187e-12
1.162321e-12
1.1529741e-12
1.1436743e-12
1.1344178e-12
1.1252012e-12
1.1160308e-12
1.1068958e-12
1.0980707e-12
1.0898524e-12
1.0822691e-12
1.075252e-12
1.0687367e-12
1.0626653e-12
1.0569897e-12
1.0516689e-12
1.0466682e-12
1.0419568e-12
1.0375083e-12
1.033299e-12
1.0293076e-12
1.0255149e-12
1.0219027e-12
1.0184547e-12
1.0151512e-12
1.0119803e-12
1.0088958e-12
1.0059433e-12
1.00286e-12
1.0003122e-12
9.9632672e-13
6.61619e-09
6.1473805e-09
5.9964879e-09
5.923862e-09
5.8788806e-09
5.8476889e-09
5.8247994e-09
5.8074088e-09
5.7938692e-09
5.7831296e-09
5.7744829e-09
5.767434e-09
5.7616242e-09
5.7567853e-09
5.7527074e-09
5.7492232e-09
5.7461687e-09
5.7434322e-09
5.7406603e-09
5.7381627e-09
5.7326555e-09
5.7335926e-09
5.6912316e-09
4.4806685e-09
3.3991179e-11
4.8870526e-12
7.8442404e-12
1.4907096e-12
5.2733816e-12
3.5143323e-12
4.2218189e-12
3.8230437e-12
3.596439e-12
3.3674155e-12
3.1842978e-12
3.0239302e-12
2.884975e-12
2.7630106e-12
2.6552943e-12
2.5594687e-12
2.4736017e-12
2.3961552e-12
2.3258921e-12
2.2618225e-12
2.2031673e-12
2.1491542e-12
2.0992266e-12
2.0529151e-12
2.0098141e-12
1.9695751e-12
1.9318982e-12
1.8965236e-12
1.8632255e-12
1.8318066e-12
1.8020943e-12
1.7739359e-12
1.7471962e-12
1.7217551e-12
1.6975055e-12
1.6743518e-12
1.6522262e-12
1.6310469e-12
1.61074e-12
1.5912406e-12
1.5724826e-12
1.5543765e-12
1.5369092e-12
1.5200408e-12
1.5037309e-12
1.4879428e-12
1.4726429e-12
1.4578003e-12
1.4433859e-12
1.4293732e-12
1.4157378e-12
1.4024569e-12
1.3895094e-12
1.3768755e-12
1.3645371e-12
1.3524772e-12
1.34068e-12
1.3291302e-12
1.3178138e-12
1.3067178e-12
1.2958297e-12
1.2851378e-12
1.2746312e-12
1.2642993e-12
1.254133e-12
1.2441227e-12
1.2342596e-12
1.2245354e-12
1.2149422e-12
1.2054725e-12
1.1961191e-12
1.1868822e-12
1.1777542e-12
1.1687271e-12
1.1597929e-12
1.1509441e-12
1.142175e-12
1.1334805e-12
1.1248554e-12
1.1162947e-12
1.1077901e-12
1.0993351e-12
1.0909275e-12
1.082564e-12
1.0742415e-12
1.0659567e-12
1.0577067e-12
1.0494956e-12
1.0413131e-12
1.0334116e-12
1.0260587e-12
1.0192775e-12
1.0130054e-12
1.0071838e-12
1.0017604e-12
9.9669181e-13
9.9194128e-13
9.8747747e-13
9.8327291e-13
9.7930364e-13
9.7554857e-13
9.7198864e-13
9.6860654e-13
9.6538606e-13
9.6231254e-13
9.5936839e-13
9.5654314e-13
9.5379497e-13
9.5116553e-13
9.4841894e-13
9.4615081e-13
9.426026e-13
6.6086165e-09
6.1054469e-09
5.9429031e-09
5.8643633e-09
5.8156308e-09
5.7818063e-09
5.7569671e-09
5.7380822e-09
5.7233689e-09
5.7116895e-09
5.7022784e-09
5.6945999e-09
5.6882658e-09
5.6829865e-09
5.6785364e-09
5.6747367e-09
5.6714154e-09
5.668458e-09
5.6655082e-09
5.6629051e-09
5.6573167e-09
5.6587108e-09
5.6160681e-09
4.4482355e-09
3.4998075e-11
4.4003422e-12
6.9730241e-12
1.3294739e-12
4.6739371e-12
3.2656184e-12
3.7488786e-12
3.4031507e-12
3.2010186e-12
3.0009425e-12
2.8399459e-12
2.6994428e-12
2.5777308e-12
2.4710175e-12
2.3768229e-12
2.2930411e-12
2.2179738e-12
2.1502722e-12
2.0888525e-12
2.0328492e-12
1.9815846e-12
1.9343735e-12
1.8907303e-12
1.8502456e-12
1.8125647e-12
1.7773834e-12
1.7444393e-12
1.7135053e-12
1.6843842e-12
1.6569036e-12
1.6309127e-12
1.6062779e-12
1.5828814e-12
1.560618e-12
1.5393943e-12
1.5191268e-12
1.499758e-12
1.4812157e-12
1.4634351e-12
1.4463591e-12
1.4299295e-12
1.4140661e-12
1.3987593e-12
1.3839744e-12
1.3696764e-12
1.355833e-12
1.3424151e-12
1.3293954e-12
1.3167488e-12
1.304452e-12
1.2924837e-12
1.280824e-12
1.2694545e-12
1.2583579e-12
1.2475183e-12
1.236921e-12
1.2265521e-12
1.2163984e-12
1.2064475e-12
1.196688e-12
1.1871092e-12
1.1777009e-12
1.1684533e-12
1.1593575e-12
1.1504052e-12
1.1415883e-12
1.1328991e-12
1.1243302e-12
1.1158748e-12
1.1075264e-12
1.0992787e-12
1.0911321e-12
1.0830796e-12
1.075114e-12
1.0672281e-12
1.059416e-12
1.0516729e-12
1.0439942e-12
1.0363754e-12
1.0288122e-12
1.0212985e-12
1.0138285e-12
1.0063994e-12
9.990084e-13
9.9165272e-13
9.8432968e-13
9.7703664e-13
9.6977703e-13
9.6254056e-13
9.5555544e-13
9.4905969e-13
9.4307209e-13
9.3753641e-13
9.3240014e-13
9.2761661e-13
9.2314723e-13
9.1895928e-13
9.1502501e-13
9.1132005e-13
9.0782316e-13
9.0451567e-13
9.013807e-13
8.9840293e-13
8.9556802e-13
8.9286305e-13
8.9027247e-13
8.8778712e-13
8.8536983e-13
8.8305797e-13
8.8064245e-13
8.786491e-13
8.7553014e-13
6.6005942e-09
6.0574919e-09
5.8814732e-09
5.7961053e-09
5.743046e-09
5.7061866e-09
5.6791009e-09
5.6584952e-09
5.6424304e-09
5.6296689e-09
5.6193778e-09
5.6109742e-09
5.6040361e-09
5.5982493e-09
5.5933697e-09
5.5892053e-09
5.5855743e-09
5.582359e-09
5.5791979e-09
5.5764637e-09
5.5707583e-09
5.5726437e-09
5.5295257e-09
4.4105584e-09
3.6320506e-11
3.9412036e-12
6.1131473e-12
1.1686558e-12
4.0803915e-12
2.9651165e-12
3.2781717e-12
2.9825037e-12
2.8050478e-12
2.6326621e-12
2.493169e-12
2.371815e-12
2.2667275e-12
2.1746776e-12
2.0934618e-12
2.0212349e-12
1.9565265e-12
1.8981712e-12
1.8452328e-12
1.7969652e-12
1.7527873e-12
1.7120997e-12
1.6744847e-12
1.6395901e-12
1.6071105e-12
1.5767834e-12
1.5483828e-12
1.521713e-12
1.4966041e-12
1.4729074e-12
1.4504929e-12
1.4292458e-12
1.4090642e-12
1.3898579e-12
1.3715461e-12
1.3540571e-12
1.3373426e-12
1.3213402e-12
1.3059934e-12
1.2912529e-12
1.277068e-12
1.2633682e-12
1.2501465e-12
1.2373735e-12
1.2250188e-12
1.2130547e-12
1.2014561e-12
1.1901997e-12
1.1792635e-12
1.1686279e-12
1.1582742e-12
1.1481854e-12
1.1383456e-12
1.12874e-12
1.1193548e-12
1.1101775e-12
1.1011959e-12
1.0923987e-12
1.0837754e-12
1.0753161e-12
1.0670115e-12
1.0588528e-12
1.0508318e-12
1.0429405e-12
1.0351721e-12
1.0275195e-12
1.0199759e-12
1.0125353e-12
1.0051916e-12
9.979392e-13
9.9077281e-13
9.8369287e-13
9.7669305e-13
9.6976688e-13
9.6290843e-13
9.5611292e-13
9.4937619e-13
9.4269435e-13
9.3606357e-13
9.2948014e-13
9.229396e-13
9.1643688e-13
9.0996923e-13
9.0353415e-13
8.971292e-13
8.9075215e-13
8.844008e-13
8.7807819e-13
8.7177447e-13
8.6569213e-13
8.6003963e-13
8.5483201e-13
8.5001946e-13
8.455557e-13
8.4139972e-13
8.3751772e-13
8.3388105e-13
8.3046549e-13
8.2724972e-13
8.2421522e-13
8.2134569e-13
8.1862642e-13
8.1604404e-13
8.1358606e-13
8.1124124e-13
8.0899607e-13
8.0684263e-13
8.0474846e-13
8.0274653e-13
8.0065426e-13
7.989289e-13
7.9622851e-13
6.5923352e-09
6.0030212e-09
5.8114993e-09
5.7182923e-09
5.6602715e-09
5.6199351e-09
5.5902774e-09
5.5677022e-09
5.5500912e-09
5.536092e-09
5.5247945e-09
5.5155615e-09
5.5079325e-09
5.5015647e-09
5.496193e-09
5.49161e-09
5.4876227e-09
5.4841087e-09
5.4806999e-09
5.4778065e-09
5.4719452e-09
5.4743574e-09
5.4305563e-09
4.3670206e-09
3.8039797e-11
3.5127743e-12
5.2748535e-12
1.0092603e-12
3.4992988e-12
2.6263108e-12
2.8148179e-12
2.5659572e-12
2.4129557e-12
2.2668223e-12
2.1479986e-12
2.0449228e-12
1.9557026e-12
1.8776177e-12
1.808749e-12
1.747512e-12
1.6926557e-12
1.6431892e-12
1.5983171e-12
1.557407e-12
1.5199692e-12
1.4854873e-12
1.453608e-12
1.4240335e-12
1.3965049e-12
1.3707997e-12
1.3467261e-12
1.3241183e-12
1.3028323e-12
1.282742e-12
1.2637374e-12