/*--------------------------------*- C++ -*----------------------------------*\
| =========                 |                                                 |
| \\      /  F ield         | OpenFOAM: The Open Source CFD Toolbox           |
|  \\    /   O peration     | Version:  2206                                  |
|   \\  /    A nd           | Website:  www.openfoam.com                      |
|    \\/     M anipulation  |                                                 |
\*---------------------------------------------------------------------------*/
FoamFile
{
    version     2.0;
    format      ascii;
    arch        "LSB;label=32;scalar=64";
    class       volScalarField;
    location    "700";
    object      p;
}
// * * * * * * * * * * * * * * * * * * * * * * * * * * * * * * * * * * * * * //

dimensions      [0 2 -2 0 0 0 0];

internalField   nonuniform List<scalar> 
13056
(
0.01115099
0.011254514
0.011469758
0.011742129
0.012074316
0.012465579
0.012913019
0.013415925
0.013975872
0.014596144
0.015281719
0.016039732
0.016879999
0.017816505
0.018867845
0.020063572
0.021438611
0.023070968
0.02501243
0.027563921
0.03061615
0.03592381
0.040957489
0.082219827
0.051209515
0.00027513068
-0.00034217866
0.00087538
0.0014407616
0.0019191169
0.0022257674
0.0024514736
0.002620778
0.0027443579
0.0028357725
0.0029054575
0.0029594276
0.0030015656
0.0030345577
0.0030605954
0.0030811849
0.0030973517
0.003109921
0.0031195658
0.0031267575
0.0031318331
0.0031351192
0.0031368584
0.0031372548
0.0031364636
0.0031345923
0.0031317502
0.0031280277
0.0031235026
0.0031182514
0.0031123158
0.0031057221
0.0030985116
0.0030907154
0.0030823575
0.0030734592
0.0030640485
0.0030541307
0.0030436995
0.0030327669
0.0030213384
0.0030094164
0.0029970028
0.002984096
0.0029707029
0.0029568099
0.0029423942
0.0029274542
0.0029119809
0.0028959612
0.0028793853
0.0028622361
0.0028445062
0.0028261801
0.0028072176
0.0027875985
0.0027673041
0.0027463079
0.0027245825
0.0027021022
0.002678831
0.0026547484
0.0026298123
0.0026039599
0.0025771597
0.0025493664
0.0025205274
0.0024905919
0.0024595001
0.002427195
0.0023936114
0.002358658
0.0023222536
0.0022843158
0.0022447465
0.002203444
0.0021602923
0.0021151768
0.0020679599
0.0020184715
0.0019665539
0.001912025
0.0018546833
0.0017943024
0.001730654
0.0016634422
0.0015923545
0.0015172125
0.0014387507
0.0013594401
0.0012815116
0.0012053658
0.0011307802
0.0010576688
0.00098600662
0.00091579871
0.00084707984
0.00077992682
0.00071446951
0.00065085926
0.00058929957
0.00053009424
0.00047361663
0.00042044023
0.00037119104
0.00032730428
0.00028934132
0.00026293105
0.00024214687
0.00038185668
-0.00034327636
0.01115099
0.011254514
0.011469759
0.011742129
0.012074316
0.012465579
0.01291302
0.013415925
0.013975872
0.014596144
0.015281719
0.016039732
0.01688
0.017816505
0.018867846
0.020063574
0.021438613
0.023070971
0.025012434
0.027563928
0.030616159
0.035923829
0.040957542
0.082214542
0.051221279
0.00028285272
-0.00034025186
0.00087620238
0.0014412521
0.0019194605
0.0022260253
0.002451677
0.0026209436
0.0027444959
0.0028358897
0.0029055585
0.0029595157
0.0030016432
0.0030346266
0.0030606571
0.0030812403
0.0030974019
0.0031099667
0.0031196075
0.0031267957
0.0031318683
0.0031351516
0.0031368884
0.0031372827
0.0031364896
0.0031346165
0.0031317728
0.0031280488
0.0031235224
0.00311827
0.0031123333
0.0031057386
0.0030985272
0.0030907301
0.0030823713
0.0030734723
0.0030640609
0.0030541425
0.0030437106
0.0030327775
0.0030213485
0.003009426
0.0029970119
0.0029841047
0.0029707111
0.0029568178
0.0029424017
0.0029274613
0.0029119877
0.0028959677
0.0028793915
0.002862242
0.0028445118
0.0028261855
0.0028072228
0.0027876034
0.0027673087
0.0027463124
0.0027245867
0.0027021063
0.0026788349
0.0026547522
0.0026298159
0.0026039633
0.0025771629
0.0025493695
0.0025205304
0.0024905947
0.0024595028
0.0024271976
0.0023936139
0.0023586603
0.0023222558
0.0022843179
0.0022447485
0.0022034459
0.0021602941
0.0021151786
0.0020679615
0.002018473
0.0019665553
0.0019120264
0.0018546846
0.0017943036
0.0017306551
0.0016634433
0.0015923555
0.0015172135
0.0014387515
0.001359441
0.0012815124
0.0012053665
0.0011307808
0.0010576695
0.00098600723
0.00091579928
0.00084708038
0.00077992733
0.00071447
0.00065085972
0.00058930002
0.00053009467
0.00047361703
0.00042044062
0.00037119141
0.00032730464
0.00028934168
0.00026293141
0.00024214724
0.00038185707
-0.0003432761
0.01115099
0.011254514
0.011469759
0.011742129
0.012074316
0.012465579
0.01291302
0.013415925
0.013975872
0.014596145
0.01528172
0.016039733
0.01688
0.017816506
0.018867847
0.020063575
0.021438616
0.023070974
0.025012439
0.027563936
0.030616169
0.03592385
0.040957593
0.082209622
0.051237251
0.00029010137
-0.00033813051
0.0008771633
0.0014418252
0.0019198619
0.0022263266
0.0024519147
0.0026211369
0.0027446571
0.0028360266
0.0029056765
0.0029596186
0.0030017339
0.0030347071
0.0030607291
0.0030813051
0.0030974605
0.00311002
0.0031196562
0.0031268404
0.0031319094
0.0031351896
0.0031369236
0.0031373153
0.0031365199
0.0031346447
0.0031317992
0.0031280735
0.0031235456
0.0031182917
0.0031123537
0.0031057579
0.0030985453
0.0030907472
0.0030823875
0.0030734876
0.0030640753
0.0030541562
0.0030437236
0.0030327898
0.0030213602
0.0030094371
0.0029970225
0.0029841148
0.0029707207
0.0029568269
0.0029424104
0.0029274696
0.0029119956
0.0028959752
0.0028793987
0.0028622488
0.0028445184
0.0028261917
0.0028072288
0.0027876092
0.0027673142
0.0027463176
0.0027245917
0.0027021111
0.0026788395
0.0026547565
0.00262982
0.0026039673
0.0025771667
0.0025493731
0.0025205338
0.002490598
0.002459506
0.0024272006
0.0023936167
0.002358663
0.0023222584
0.0022843204
0.0022447508
0.0022034481
0.0021602962
0.0021151806
0.0020679634
0.0020184749
0.001966557
0.001912028
0.0018546861
0.0017943051
0.0017306565
0.0016634446
0.0015923567
0.0015172146
0.0014387526
0.0013594419
0.0012815133
0.0012053674
0.0011307816
0.0010576702
0.00098600793
0.00091579995
0.00084708101
0.00077992793
0.00071447057
0.00065086027
0.00058930054
0.00053009517
0.00047361751
0.00042044108
0.00037119185
0.00032730507
0.0002893421
0.00026293183
0.00024214765
0.00038185753
-0.00034327581
0.01115099
0.011254514
0.011469759
0.011742129
0.012074316
0.012465579
0.01291302
0.013415925
0.013975873
0.014596145
0.01528172
0.016039733
0.016880001
0.017816507
0.018867849
0.020063577
0.021438618
0.023070978
0.025012443
0.027563944
0.03061618
0.035923869
0.040957645
0.082204846
0.051254986
0.0002949871
-0.00033615838
0.00087809494
0.001442381
0.0019202513
0.0022266188
0.0024521452
0.0026213245
0.0027448134
0.0028361594
0.002905791
0.0029597184
0.0030018218
0.0030347852
0.0030607989
0.003081368
0.0030975174
0.0031100717
0.0031197035
0.0031268837
0.0031319493
0.0031352264
0.0031369576
0.0031373469
0.0031365493
0.0031346721
0.0031318248
0.0031280975
0.003123568
0.0031183128
0.0031123735
0.0031057765
0.0030985629
0.0030907638
0.0030824032
0.0030735025
0.0030640894
0.0030541695
0.0030437362
0.0030328018
0.0030213716
0.0030094479
0.0029970328
0.0029841246
0.00297073
0.0029568358
0.0029424189
0.0029274777
0.0029120033
0.0028959825
0.0028794057
0.0028622555
0.0028445248
0.0028261978
0.0028072346
0.0027876147
0.0027673195
0.0027463227
0.0027245966
0.0027021157
0.0026788439
0.0026547607
0.0026298241
0.0026039711
0.0025771704
0.0025493766
0.0025205372
0.0024906012
0.002459509
0.0024272035
0.0023936195
0.0023586657
0.0023222609
0.0022843228
0.0022447531
0.0022034503
0.0021602983
0.0021151825
0.0020679653
0.0020184766
0.0019665587
0.0019120296
0.0018546876
0.0017943065
0.0017306578
0.0016634458
0.0015923579
0.0015172157
0.0014387536
0.0013594429
0.0012815142
0.0012053682
0.0011307824
0.0010576709
0.00098600862
0.00091580059
0.00084708163
0.00077992852
0.00071447112
0.00065086079
0.00058930104
0.00053009565
0.00047361797
0.00042044152
0.00037119228
0.00032730549
0.0002893425
0.00026293223
0.00024214803
0.00038185797
-0.00034327554
0.01115099
0.011254514
0.011469759
0.011742129
0.012074317
0.012465579
0.01291302
0.013415926
0.013975873
0.014596145
0.015281721
0.016039734
0.016880002
0.017816508
0.01886785
0.020063579
0.02143862
0.023070981
0.025012448
0.027563953
0.030616191
0.035923889
0.040957704
0.082199668
0.051273892
0.00030029061
-0.00033413798
0.00087905489
0.0014429539
0.0019206526
0.00222692
0.0024523828
0.0026215178
0.0027449745
0.0028362963
0.002905909
0.0029598213
0.0030019124
0.0030348657
0.0030608709
0.0030814328
0.0030975761
0.0031101251
0.0031197522
0.0031269284
0.0031319904
0.0031352643
0.0031369927
0.0031373794
0.0031365796
0.0031347004
0.0031318512
0.0031281222
0.0031235912
0.0031183345
0.003112394
0.0031057958
0.003098581
0.0030907809
0.0030824194
0.0030735178
0.0030641039
0.0030541833
0.0030437493
0.0030328141
0.0030213833
0.0030094591
0.0029970434
0.0029841346
0.0029707396
0.0029568449
0.0029424276
0.002927486
0.0029120112
0.0028959901
0.0028794129
0.0028622624
0.0028445313
0.0028262041
0.0028072406
0.0027876204
0.002767325
0.0027463279
0.0027246015
0.0027021204
0.0026788485
0.0026547651
0.0026298282
0.0026039751
0.0025771742
0.0025493802
0.0025205406
0.0024906045
0.0024595122
0.0024272065
0.0023936223
0.0023586684
0.0023222635
0.0022843253
0.0022447554
0.0022034525
0.0021603004
0.0021151845
0.0020679672
0.0020184784
0.0019665604
0.0019120312
0.0018546891
0.0017943079
0.0017306592
0.0016634471
0.0015923591
0.0015172168
0.0014387546
0.0013594438
0.0012815151
0.001205369
0.0011307832
0.0010576717
0.00098600933
0.00091580126
0.00084708226
0.00077992912
0.00071447169
0.00065086134
0.00058930156
0.00053009615
0.00047361845
0.00042044198
0.00037119273
0.00032730592
0.00028934292
0.00026293265
0.00024214843
0.00038185843
-0.00034327527
0.01115099
0.011254515
0.011469759
0.01174213
0.012074317
0.01246558
0.01291302
0.013415926
0.013975873
0.014596146
0.015281721
0.016039734
0.016880003
0.01781651
0.018867852
0.020063581
0.021438623
0.023070986
0.025012454
0.027563963
0.030616205
0.035923913
0.04095777
0.082193905
0.051293595
0.00030725744
-0.00033198007
0.00088007742
0.0014435644
0.0019210803
0.002227241
0.0024526359
0.0026217239
0.0027451462
0.0028364421
0.0029060347
0.0029599309
0.0030020089
0.0030349514
0.0030609476
0.0030815019
0.0030976386
0.0031101819
0.0031198041
0.003126976
0.0031320342
0.0031353047
0.0031370301
0.0031374142
0.0031366119
0.0031347305
0.0031318793
0.0031281485
0.0031236159
0.0031183577
0.0031124157
0.0031058163
0.0030986004
0.0030907992
0.0030824366
0.0030735341
0.0030641193
0.0030541979
0.0030437631
0.0030328273
0.0030213958
0.003009471
0.0029970547
0.0029841454
0.0029707499
0.0029568547
0.0029424369
0.0029274948
0.0029120197
0.0028959982
0.0028794206
0.0028622697
0.0028445383
0.0028262108
0.002807247
0.0027876265
0.0027673308
0.0027463335
0.0027246069
0.0027021255
0.0026788533
0.0026547697
0.0026298327
0.0026039793
0.0025771782
0.0025493841
0.0025205443
0.002490608
0.0024595155
0.0024272097
0.0023936254
0.0023586713
0.0023222663
0.0022843279
0.0022447579
0.0022034549
0.0021603026
0.0021151867
0.0020679692
0.0020184803
0.0019665622
0.0019120329
0.0018546908
0.0017943094
0.0017306606
0.0016634484
0.0015923603
0.001517218
0.0014387557
0.0013594449
0.0012815161
0.0012053699
0.0011307841
0.0010576725
0.00098601008
0.00091580198
0.00084708294
0.00077992976
0.0007144723
0.00065086192
0.00058930212
0.00053009668
0.00047361896
0.00042044247
0.0003711932
0.00032730638
0.00028934336
0.0002629331
0.00024214884
0.00038185891
-0.00034327497
0.01115099
0.011254515
0.011469759
0.01174213
0.012074317
0.01246558
0.01291302
0.013415926
0.013975874
0.014596146
0.015281722
0.016039735
0.016880004
0.017816511
0.018867854
0.020063584
0.021438627
0.023070991
0.025012462
0.027563975
0.030616221
0.035923943
0.040957847
0.082187458
0.051314342
0.00031513489
-0.00032965577
0.00088117813
0.0014442218
0.0019215408
0.0022275866
0.0024529086
0.0026219457
0.0027453312
0.0028365992
0.0029061701
0.002960049
0.0030021129
0.0030350438
0.0030610303
0.0030815763
0.0030977059
0.0031102432
0.0031198601
0.0031270273
0.0031320813
0.0031353483
0.0031370705
0.0031374516
0.0031366467
0.0031347629
0.0031319096
0.0031281769
0.0031236425
0.0031183827
0.0031124392
0.0031058384
0.0030986212
0.0030908188
0.0030824552
0.0030735516
0.003064136
0.0030542137
0.0030437781
0.0030328415
0.0030214093
0.0030094838
0.0029970669
0.002984157
0.0029707609
0.0029568652
0.0029424469
0.0029275044
0.0029120288
0.0028960068
0.0028794289
0.0028622776
0.0028445459
0.002826218
0.0028072538
0.0027876331
0.0027673371
0.0027463395
0.0027246126
0.002702131
0.0026788585
0.0026547747
0.0026298374
0.0026039839
0.0025771826
0.0025493882
0.0025205483
0.0024906118
0.0024595191
0.0024272131
0.0023936287
0.0023586744
0.0023222692
0.0022843307
0.0022447606
0.0022034575
0.0021603051
0.002115189
0.0020679714
0.0020184824
0.0019665642
0.0019120348
0.0018546925
0.0017943111
0.0017306621
0.0016634499
0.0015923617
0.0015172193
0.0014387569
0.001359446
0.0012815171
0.0012053709
0.001130785
0.0010576733
0.0009860109
0.00091580274
0.00084708366
0.00077993045
0.00071447296
0.00065086255
0.00058930272
0.00053009725
0.00047361951
0.000420443
0.00037119371
0.00032730687
0.00028934384
0.00026293358
0.0002421493
0.00038185944
-0.00034327465
0.01115099
0.011254515
0.011469759
0.01174213
0.012074317
0.01246558
0.012913021
0.013415927
0.013975874
0.014596147
0.015281723
0.016039736
0.016880005
0.017816513
0.018867856
0.020063587
0.021438632
0.023070998
0.025012471
0.027563991
0.030616242
0.03592398
0.040957936
0.082180183
0.051336407
0.00032358671
-0.00032713558
0.00088237208
0.0014449353
0.0019220406
0.0022279618
0.0024532045
0.0026221866
0.0027455319
0.0028367697
0.002906317
0.0029601772
0.0030022259
0.0030351441
0.00306112
0.003081657
0.003097779
0.0031103096
0.0031199208
0.003127083
0.0031321326
0.0031353956
0.0031371142
0.0031374922
0.0031366845
0.0031347982
0.0031319425
0.0031282077
0.0031236713
0.0031184098
0.0031124647
0.0031058624
0.0030986438
0.0030908402
0.0030824754
0.0030735707
0.003064154
0.0030542308
0.0030437943
0.0030328569
0.003021424
0.0030094977
0.0029970801
0.0029841696
0.0029707729
0.0029568766
0.0029424578
0.0029275147
0.0029120386
0.0028960163
0.0028794379
0.0028622862
0.0028445541
0.0028262258
0.0028072613
0.0027876403
0.0027673439
0.002746346
0.0027246188
0.002702137
0.0026788642
0.0026547801
0.0026298426
0.0026039888
0.0025771873
0.0025493928
0.0025205526
0.0024906159
0.002459523
0.0024272169
0.0023936322
0.0023586778
0.0023222725
0.0022843338
0.0022447635
0.0022034602
0.0021603077
0.0021151915
0.0020679738
0.0020184847
0.0019665663
0.0019120368
0.0018546944
0.0017943129
0.0017306638
0.0016634515
0.0015923632
0.0015172207
0.0014387582
0.0013594472
0.0012815183
0.001205372
0.001130786
0.0010576743
0.00098601178
0.00091580358
0.00084708446
0.0007799312
0.00071447368
0.00065086323
0.00058930337
0.00053009787
0.0004736201
0.00042044357
0.00037119426
0.00032730741
0.00028934436
0.0002629341
0.00024214979
0.00038186001
-0.00034327431
0.01115099
0.011254515
0.011469759
0.01174213
0.012074317
0.01246558
0.012913021
0.013415927
0.013975875
0.014596148
0.015281724
0.016039738
0.016880007
0.017816515
0.018867859
0.020063592
0.021438637
0.023071006
0.025012482
0.02756401
0.030616268
0.035924028
0.040958042
0.082171895
0.051360022
0.00033274931
-0.00032438199
0.00088367722
0.0014457158
0.0019225873
0.0022283722
0.0024535283
0.00262245
0.0027457515
0.0028369562
0.0029064779
0.0029603175
0.0030023494
0.0030352538
0.0030612182
0.0030817454
0.003097859
0.0031103824
0.0031199873
0.0031271439
0.0031321887
0.0031354474
0.0031371622
0.0031375367
0.0031367259
0.0031348367
0.0031319785
0.0031282414
0.003123703
0.0031184395
0.0031124926
0.0031058887
0.0030986686
0.0030908636
0.0030824975
0.0030735916
0.0030641738
0.0030542495
0.0030438121
0.0030328738
0.00302144
0.0030095129
0.0029970946
0.0029841834
0.002970786
0.0029568891
0.0029424697
0.0029275261
0.0029120495
0.0028960266
0.0028794477
0.0028622957
0.0028445631
0.0028262344
0.0028072695
0.0027876481
0.0027673514
0.0027463531
0.0027246257
0.0027021435
0.0026788704
0.0026547861
0.0026298483
0.0026039942
0.0025771925
0.0025493977
0.0025205573
0.0024906204
0.0024595273
0.002427221
0.0023936361
0.0023586815
0.002322276
0.0022843372
0.0022447667
0.0022034633
0.0021603106
0.0021151942
0.0020679764
0.0020184871
0.0019665686
0.001912039
0.0018546965
0.0017943149
0.0017306657
0.0016634532
0.0015923648
0.0015172222
0.0014387597
0.0013594485
0.0012815195
0.0012053731
0.0011307871
0.0010576753
0.00098601275
0.0009158045
0.00084708533
0.00077993203
0.00071447446
0.00065086398
0.00058930408
0.00053009855
0.00047362076
0.0004204442
0.00037119487
0.000327308
0.00028934494
0.00026293468
0.00024215033
0.00038186064
-0.00034327393
0.01115099
0.011254515
0.011469759
0.01174213
0.012074317
0.012465581
0.012913022
0.013415928
0.013975875
0.014596149
0.015281725
0.016039739
0.016880009
0.017816518
0.018867863
0.020063597
0.021438645
0.023071016
0.025012496
0.027564034
0.0306163
0.035924088
0.040958151
0.082162375
0.051385398
0.00034279601
-0.00032135286
0.00088511366
0.0014465754
0.0019231895
0.0022288243
0.002453885
0.0026227403
0.0027459935
0.0028371618
0.0029066551
0.0029604721
0.0030024856
0.0030353748
0.0030613264
0.0030818429
0.0030979472
0.0031104626
0.0031200606
0.0031272111
0.0031322505
0.0031355044
0.003137215
0.0031375857
0.0031367715
0.0031348793
0.0031320183
0.0031282786
0.0031237378
0.0031184722
0.0031125234
0.0031059177
0.003098696
0.0030908894
0.0030825219
0.0030736147
0.0030641957
0.0030542702
0.0030438318
0.0030328924
0.0030214577
0.0030095297
0.0029971106
0.0029841986
0.0029708005
0.0029569029
0.0029424828
0.0029275386
0.0029120614
0.002896038
0.0028794586
0.002862306
0.002844573
0.0028262439
0.0028072786
0.0027876567
0.0027673596
0.002746361
0.0027246332
0.0027021507
0.0026788773
0.0026547927
0.0026298546
0.0026040002
0.0025771982
0.0025494032
0.0025205625
0.0024906254
0.0024595321
0.0024272255
0.0023936404
0.0023586856
0.0023222799
0.0022843409
0.0022447703
0.0022034666
0.0021603138
0.0021151973
0.0020679793
0.0020184898
0.0019665712
0.0019120414
0.0018546988
0.001794317
0.0017306677
0.0016634551
0.0015923666
0.0015172239
0.0014387612
0.00135945
0.0012815209
0.0012053744
0.0011307883
0.0010576764
0.00098601382
0.00091580551
0.00084708629
0.00077993294
0.00071447533
0.0006508648
0.00058930487
0.00053009931
0.00047362148
0.0004204449
0.00037119554
0.00032730865
0.00028934557
0.00026293532
0.00024215093
0.00038186134
-0.0003432735
0.01115099
0.011254515
0.011469759
0.01174213
0.012074318
0.012465581
0.012913022
0.013415928
0.013975876
0.01459615
0.015281726
0.016039741
0.016880012
0.017816522
0.018867868
0.020063603
0.021438653
0.023071029
0.025012513
0.027564063
0.030616339
0.035924163
0.040958238
0.082151363
0.05141274
0.00035387967
-0.00031800203
0.0008867035
0.0014475276
0.0019238566
0.0022293253
0.0024542802
0.002623062
0.0027462617
0.0028373896
0.0029068515
0.0029606434
0.0030026365
0.0030355089
0.0030614464
0.0030819509
0.003098045
0.0031105516
0.0031201418
0.0031272856
0.0031323191
0.0031355678
0.0031372736
0.0031376401
0.0031368221
0.0031349265
0.0031320624
0.0031283199
0.0031237765
0.0031185086
0.0031125576
0.0031059498
0.0030987263
0.003090918
0.0030825489
0.0030736403
0.0030642199
0.0030542932
0.0030438535
0.0030329131
0.0030214773
0.0030095484
0.0029971283
0.0029842155
0.0029708166
0.0029569182
0.0029424974
0.0029275526
0.0029120747
0.0028960507
0.0028794707
0.0028623176
0.002844584
0.0028262544
0.0028072886
0.0027876663
0.0027673688
0.0027463698
0.0027246415
0.0027021587
0.002678885
0.0026547999
0.0026298615
0.0026040069
0.0025772045
0.0025494092
0.0025205683
0.0024906309
0.0024595373
0.0024272305
0.0023936452
0.0023586902
0.0023222842
0.002284345
0.0022447742
0.0022034704
0.0021603174
0.0021152006
0.0020679824
0.0020184929
0.0019665741
0.0019120441
0.0018547014
0.0017943194
0.00173067
0.0016634573
0.0015923686
0.0015172257
0.001438763
0.0013594516
0.0012815224
0.0012053759
0.0011307896
0.0010576777
0.00098601502
0.00091580664
0.00084708736
0.00077993396
0.0007144763
0.00065086573
0.00058930575
0.00053010015
0.00047362229
0.00042044568
0.00037119629
0.00032730938
0.00028934628
0.00026293603
0.0002421516
0.00038186211
-0.00034327303
0.01115099
0.011254515
0.01146976
0.011742131
0.012074318
0.012465581
0.012913023
0.013415929
0.013975877
0.014596151
0.015281728
0.016039744
0.016880015
0.017816526
0.018867874
0.020063611
0.021438664
0.023071044
0.025012534
0.027564099
0.030616386
0.035924256
0.040958308
0.082138546
0.051442235
0.00036616113
-0.00031427856
0.00088847119
0.0014485873
0.0019245991
0.0022298829
0.0024547201
0.0026234202
0.0027465603
0.0028376433
0.0029070703
0.0029608342
0.0030028046
0.0030356582
0.00306158
0.0030820712
0.0030981539
0.0031106507
0.0031202324
0.0031273687
0.0031323955
0.0031356383
0.0031373389
0.0031377008
0.0031368785
0.0031349791
0.0031321115
0.0031283659
0.0031238197
0.0031185491
0.0031125957
0.0031059857
0.0030987601
0.00309095
0.0030825791
0.0030736689
0.0030642469
0.0030543188
0.0030438778
0.0030329362
0.0030214992
0.0030095692
0.0029971481
0.0029842343
0.0029708345
0.0029569353
0.0029425137
0.0029275681
0.0029120895
0.0028960648
0.0028794842
0.0028623304
0.0028445963
0.0028262661
0.0028072998
0.002787677
0.002767379
0.0027463795
0.0027246509
0.0027021676
0.0026788935
0.0026548081
0.0026298693
0.0026040143
0.0025772116
0.002549416
0.0025205747
0.0024906371
0.0024595432
0.0024272361
0.0023936506
0.0023586953
0.0023222891
0.0022843496
0.0022447786
0.0022034745
0.0021603213
0.0021152044
0.002067986
0.0020184962
0.0019665773
0.0019120472
0.0018547042
0.0017943221
0.0017306725
0.0016634597
0.0015923709
0.0015172278
0.0014387649
0.0013594535
0.0012815241
0.0012053775
0.0011307911
0.0010576791
0.00098601635
0.0009158079
0.00084708855
0.00077993509
0.00071447738
0.00065086676
0.00058930673
0.00053010109
0.00047362319
0.00042044654
0.00037119713
0.00032731019
0.00028934707
0.00026293682
0.00024215235
0.00038186298
-0.00034327251
0.01115099
0.011254515
0.01146976
0.011742131
0.012074319
0.012465582
0.012913024
0.01341593
0.013975879
0.014596153
0.015281731
0.016039747
0.016880019
0.017816531
0.018867881
0.020063621
0.021438677
0.023071063
0.025012559
0.027564141
0.030616444
0.035924369
0.040958385
0.08212355
0.051474047
0.00037982206
-0.00031012583
0.00089044392
0.0014497713
0.0019254286
0.002230506
0.0024552118
0.0026238205
0.002746894
0.0028379269
0.0029073148
0.0029610476
0.0030029926
0.0030358253
0.0030617295
0.0030822058
0.0030982758
0.0031107616
0.0031203337
0.0031274616
0.003132481
0.0031357173
0.003137412
0.0031377686
0.0031369417
0.0031350379
0.0031321665
0.0031284174
0.0031238679
0.0031185944
0.0031126383
0.0031060259
0.003098798
0.0030909857
0.0030826129
0.0030737008
0.0030642772
0.0030543475
0.003043905
0.003032962
0.0030215238
0.0030095926
0.0029971703
0.0029842554
0.0029708546
0.0029569545
0.0029425319
0.0029275855
0.0029121061
0.0028960806
0.0028794993
0.0028623448
0.00284461
0.0028262792
0.0028073123
0.002787689
0.0027673905
0.0027463905
0.0027246613
0.0027021775
0.002678903
0.0026548172
0.002629878
0.0026040226
0.0025772195
0.0025494236
0.002520582
0.002490644
0.0024595498
0.0024272424
0.0023936565
0.002358701
0.0023222945
0.0022843548
0.0022447835
0.0022034792
0.0021603257
0.0021152086
0.00206799
0.0020185
0.0019665809
0.0019120505
0.0018547074
0.0017943251
0.0017306754
0.0016634623
0.0015923734
0.0015172302
0.0014387671
0.0013594555
0.001281526
0.0012053793
0.0011307928
0.0010576807
0.00098601785
0.00091580932
0.0008470899
0.00077993637
0.00071447859
0.00065086791
0.00058930784
0.00053010215
0.00047362421
0.00042044752
0.00037119807
0.00032731111
0.00028934796
0.00026293771
0.00024215319
0.00038186396
-0.00034327191
0.01115099
0.011254516
0.01146976
0.011742132
0.012074319
0.012465583
0.012913025
0.013415931
0.01397588
0.014596155
0.015281733
0.01603975
0.016880024
0.017816538
0.018867889
0.020063632
0.021438692
0.023071085
0.02501259
0.027564192
0.030616512
0.035924504
0.040958482
0.082105924
0.051508299
0.00039506846
-0.00030548066
0.00089265207
0.001451098
0.0019263583
0.0022312045
0.002455763
0.0026242692
0.0027472682
0.0028382449
0.002907589
0.0029612868
0.0030032034
0.0030360126
0.0030618971
0.0030823568
0.0030984125
0.0031108859
0.0031204473
0.0031275658
0.003132577
0.0031358059
0.0031374941
0.0031378448
0.0031370125
0.003135104
0.0031322283
0.0031284752
0.0031239222
0.0031186453
0.0031126862
0.003106071
0.0030988405
0.0030910259
0.0030826508
0.0030737367
0.0030643112
0.0030543797
0.0030439356
0.003032991
0.0030215513
0.0030096187
0.0029971952
0.0029842791
0.0029708772
0.002956976
0.0029425524
0.002927605
0.0029121247
0.0028960984
0.0028795162
0.002862361
0.0028446255
0.002826294
0.0028073264
0.0027877025
0.0027674033
0.0027464028
0.0027246731
0.0027021888
0.0026789137
0.0026548274
0.0026298878
0.0026040319
0.0025772285
0.0025494321
0.0025205901
0.0024906517
0.0024595572
0.0024272494
0.0023936633
0.0023587074
0.0023223006
0.0022843606
0.002244789
0.0022034845
0.0021603307
0.0021152133
0.0020679945
0.0020185043
0.0019665849
0.0019120543
0.001854711
0.0017943285
0.0017306786
0.0016634653
0.0015923762
0.0015172328
0.0014387696
0.0013594578
0.0012815282
0.0012053813
0.0011307947
0.0010576825
0.00098601954
0.00091581092
0.00084709141
0.00077993781
0.00071447996
0.00065086922
0.00058930909
0.00053010334
0.00047362535
0.00042044862
0.00037119913
0.00032731214
0.00028934897
0.00026293872
0.00024215414
0.00038186506
-0.00034327124
0.01115099
0.011254516
0.011469761
0.011742132
0.01207432
0.012465584
0.012913026
0.013415933
0.013975882
0.014596158
0.015281737
0.016039755
0.01688003
0.017816545
0.018867899
0.020063646
0.021438711
0.023071112
0.025012625
0.027564252
0.030616593
0.035924664
0.040958601
0.082085126
0.051545064
0.00041213475
-0.00030027238
0.00089512962
0.0014525883
0.0019274027
0.0022319893
0.0024563824
0.0026247736
0.0027476888
0.0028386023
0.0029078973
0.0029615558
0.0030034405
0.0030362232
0.0030620857
0.0030825266
0.0030985663
0.0031110259
0.0031205752
0.0031276831
0.003132685
0.0031359056
0.0031375864
0.0031379305
0.0031370923
0.0031351784
0.0031322978
0.0031285403
0.0031239832
0.0031187026
0.0031127401
0.0031061218
0.0030988884
0.0030910711
0.0030826936
0.0030737772
0.0030643495
0.003054416
0.00304397
0.0030330237
0.0030215824
0.0030096483
0.0029972233
0.0029843059
0.0029709027
0.0029570002
0.0029425755
0.002927627
0.0029121457
0.0028961184
0.0028795353
0.0028623793
0.0028446429
0.0028263106
0.0028073423
0.0027877176
0.0027674178
0.0027464166
0.0027246863
0.0027022014
0.0026789258
0.002654839
0.0026298988
0.0026040425
0.0025772385
0.0025494417
0.0025205992
0.0024906605
0.0024595655
0.0024272574
0.0023936708
0.0023587146
0.0023223075
0.0022843671
0.0022447953
0.0022034904
0.0021603364
0.0021152187
0.0020679995
0.0020185091
0.0019665894
0.0019120586
0.001854715
0.0017943324
0.0017306822
0.0016634687
0.0015923794
0.0015172358
0.0014387724
0.0013594604
0.0012815306
0.0012053836
0.0011307968
0.0010576845
0.00098602144
0.00091581272
0.00084709312
0.00077993943
0.00071448151
0.00065087069
0.0005893105
0.00053010469
0.00047362665
0.00042044987
0.00037120033
0.00032731331
0.0002893501
0.00026293986
0.00024215522
0.00038186631
-0.00034327049
0.01115099
0.011254516
0.011469761
0.011742133
0.012074321
0.012465585
0.012913027
0.013415935
0.013975885
0.014596161
0.015281741
0.01603976
0.016880036
0.017816554
0.018867911
0.020063661
0.021438732
0.023071142
0.025012667
0.027564322
0.030616687
0.035924853
0.040958746
0.082060506
0.051584341
0.00043129018
-0.00029442172
0.00089791471
0.0014542657
0.0019285783
0.0022328729
0.0024570798
0.0026253415
0.0027481625
0.0028390049
0.0029082445
0.0029618588
0.0030037075
0.0030364606
0.0030622981
0.0030827179
0.0030987395
0.0031111836
0.0031207193
0.0031278154
0.0031328067
0.003136018
0.0031376905
0.0031380271
0.0031371822
0.0031352623
0.0031323762
0.0031286137
0.003124052
0.0031187673
0.003112801
0.0031061791
0.0030989425
0.0030911221
0.0030827418
0.0030738228
0.0030643927
0.003054457
0.0030440089
0.0030330606
0.0030216174
0.0030096816
0.002997255
0.002984336
0.0029709314
0.0029570276
0.0029426016
0.0029276519
0.0029121694
0.002896141
0.0028795569
0.0028623999
0.0028446626
0.0028263294
0.0028073603
0.0027877348
0.0027674342
0.0027464322
0.0027247012
0.0027022157
0.0026789394
0.002654852
0.0026299112
0.0026040544
0.0025772499
0.0025494525
0.0025206096
0.0024906703
0.0024595749
0.0024272664
0.0023936794
0.0023587227
0.0023223153
0.0022843745
0.0022448023
0.0022034971
0.0021603427
0.0021152247
0.0020680053
0.0020185145
0.0019665945
0.0019120635
0.0018547196
0.0017943367
0.0017306862
0.0016634725
0.001592383
0.0015172392
0.0014387755
0.0013594633
0.0012815334
0.0012053861
0.0011307993
0.0010576868
0.0009860236
0.00091581476
0.00084709506
0.00077994127
0.00071448326
0.00065087236
0.00058931209
0.00053010622
0.00047362812
0.00042045128
0.0003712017
0.00032731464
0.00028935139
0.00026294116
0.00024215644
0.00038186773
-0.00034326963
0.01115099
0.011254517
0.011469762
0.011742133
0.012074322
0.012465586
0.012913029
0.013415937
0.013975887
0.014596164
0.015281745
0.016039766
0.016880044
0.017816564
0.018867924
0.02006368
0.021438757
0.023071178
0.025012715
0.027564403
0.030616796
0.035925071
0.040958924
0.082031281
0.051626027
0.00045284733
-0.0002878396
0.00090105018
0.0014561567
0.0019299036
0.0022338693
0.0024578663
0.002625982
0.0027486967
0.002839459
0.0029086362
0.0029622007
0.0030040088
0.0030367284
0.0030625379
0.0030829339
0.0030989351
0.0031113616
0.003120882
0.0031279646
0.0031329441
0.0031361449
0.003137808
0.0031381363
0.0031372838
0.0031353571
0.0031324648
0.0031286966
0.0031241298
0.0031188404
0.0031128697
0.0031062438
0.0030990035
0.0030911798
0.0030827963
0.0030738744
0.0030644415
0.0030545033
0.0030440528
0.0030331023
0.003021657
0.0030097192
0.0029972908
0.0029843701
0.0029709638
0.0029570585
0.0029426311
0.00292768
0.0029121962
0.0028961666
0.0028795813
0.0028624232
0.0028446848
0.0028263507
0.0028073806
0.0027877542
0.0027674527
0.0027464499
0.0027247181
0.0027022318
0.0026789549
0.0026548667
0.0026299253