/*--------------------------------*- C++ -*----------------------------------*\
| =========                 |                                                 |
| \\      /  F ield         | OpenFOAM: The Open Source CFD Toolbox           |
|  \\    /   O peration     | Version:  2206                                  |
|   \\  /    A nd           | Website:  www.openfoam.com                      |
|    \\/     M anipulation  |                                                 |
\*---------------------------------------------------------------------------*/
FoamFile
{
    version     2.0;
    format      ascii;
    arch        "LSB;label=32;scalar=64";
    class       surfaceScalarField;
    location    "700";
    object      phi;
}
// * * * * * * * * * * * * * * * * * * * * * * * * * * * * * * * * * * * * * //

dimensions      [0 3 -1 0 0 0 0];

oriented        oriented;

internalField   nonuniform List<scalar> 
25880
(
2.0046444e-06
9.7120958e-12
2.004623e-06
2.14277e-11
2.0045977e-06
2.5333276e-11
2.0045691e-06
2.855414e-11
2.0045359e-06
3.3179688e-11
2.0044974e-06
3.8500755e-11
2.0044528e-06
4.4631409e-11
2.0044009e-06
5.1924886e-11
2.0043402e-06
6.0700968e-11
2.0042689e-06
7.1323905e-11
2.0041846e-06
8.4283686e-11
2.0040842e-06
1.0032572e-10
2.0039638e-06
1.2040818e-10
2.0038175e-06
1.463733e-10
2.0036376e-06
1.7989333e-10
2.0034102e-06
2.2739145e-10
2.0031214e-06
2.8873857e-10
2.0027239e-06
3.97551e-10
2.0022075e-06
5.1636541e-10
2.0013381e-06
8.6941539e-10
2.0002435e-06
1.0946112e-09
1.9975921e-06
2.6514226e-09
1.9970371e-06
5.5494489e-10
1.0026772e-06
9.9435997e-07
4.4614489e-09
9.9821572e-07
2.1786031e-09
2.2828458e-09
1.6837454e-09
4.948577e-10
1.4476269e-09
2.3611851e-10
1.3055745e-09
1.4205246e-10
1.2051552e-09
1.004193e-10
1.1290842e-09
7.607096e-11
1.0685014e-09
6.0582814e-11
1.0187148e-09
4.9786608e-11
9.7679812e-10
4.1916647e-11
9.4082337e-10
3.5974742e-11
9.0948238e-10
3.1340989e-11
8.8184915e-10
2.7633232e-11
8.5723831e-10
2.4610836e-11
8.3512814e-10
2.2110172e-11
8.1511565e-10
2.0012496e-11
7.9688407e-10
1.823157e-11
7.8017903e-10
1.6705039e-11
7.6479382e-10
1.5385214e-11
7.5055904e-10
1.4234775e-11
7.3733406e-10
1.3224982e-11
7.2500071e-10
1.2333355e-11
7.1345908e-10
1.1541624e-11
7.0262426e-10
1.0834821e-11
6.9242334e-10
1.0200925e-11
6.8279333e-10
9.6300006e-12
6.7367953e-10
9.1137996e-12
6.6503403e-10
8.6455074e-12
6.5681477e-10
8.2192577e-12
6.4898475e-10
7.8300143e-12
6.4151129e-10
7.4734625e-12
6.3436522e-10
7.1460719e-12
6.2752041e-10
6.8448111e-12
6.2095346e-10
6.5669464e-12
6.1464335e-10
6.3101111e-12
6.0857106e-10
6.0722852e-12
6.0271943e-10
5.8516302e-12
5.9707298e-10
5.6464557e-12
5.9161758e-10
5.455401e-12
5.8634023e-10
5.2773406e-12
5.8122907e-10
5.1111593e-12
5.7627324e-10
4.9558378e-12
5.7146273e-10
4.8105036e-12
5.6678834e-10
4.6743949e-12
5.6224154e-10
4.5467982e-12
5.5781457e-10
4.4269712e-12
5.5350022e-10
4.3143465e-12
5.4929169e-10
4.2085352e-12
5.4518262e-10
4.1090632e-12
5.4116717e-10
4.0154549e-12
5.3723984e-10
3.9273274e-12
5.333955e-10
3.8443352e-12
5.2962933e-10
3.7661767e-12
5.2593681e-10
3.6925217e-12
5.2231378e-10
3.6230273e-12
5.1875628e-10
3.5574971e-12
5.1526049e-10
3.4957873e-12
5.1182283e-10
3.4376674e-12
5.084399e-10
3.3829205e-12
5.0510853e-10
3.3313749e-12
5.0182565e-10
3.2828787e-12
4.9858835e-10
3.2373023e-12
4.9539388e-10
3.1944699e-12
4.9223968e-10
3.1542017e-12
4.8912323e-10
3.1164429e-12
4.8604209e-10
3.0811448e-12
4.8299391e-10
3.0481802e-12
4.7997646e-10
3.0174493e-12
4.7698759e-10
2.9888711e-12
4.740252e-10
2.9623857e-12
4.7108727e-10
2.937933e-12
4.6817187e-10
2.9153958e-12
4.6527715e-10
2.8947188e-12
4.6240123e-10
2.8759224e-12
4.5954227e-10
2.8589651e-12
4.5669848e-10
2.8437864e-12
4.5386812e-10
2.8303568e-12
4.5104946e-10
2.8186597e-12
4.482408e-10
2.808666e-12
4.4544047e-10
2.8003211e-12
4.4264685e-10
2.7936268e-12
4.3985823e-10
2.7886152e-12
4.3707297e-10
2.7852625e-12
4.3428942e-10
2.7835442e-12
4.31506e-10
2.7834204e-12
4.2872118e-10
2.784825e-12
4.2593382e-10
2.7873596e-12
4.2314247e-10
2.7913504e-12
4.2034942e-10
2.793044e-12
4.1767751e-10
2.6719097e-12
4.1518537e-10
2.4921481e-12
4.1285681e-10
2.3285519e-12
4.1067706e-10
2.1797565e-12
4.086316e-10
2.0454601e-12
4.0670716e-10
1.9244368e-12
4.0489221e-10
1.8149473e-12
4.0317671e-10
1.7155061e-12
4.0155178e-10
1.6249258e-12
4.0000956e-10
1.5422188e-12
3.9854303e-10
1.4665315e-12
3.9714584e-10
1.3971882e-12
3.9581216e-10
1.3336846e-12
3.9453646e-10
1.2756922e-12
3.9331355e-10
1.2229103e-12
3.9213784e-10
1.1757099e-12
3.9100419e-10
1.133658e-12
3.8990328e-10
1.1009062e-12
3.8883361e-10
1.0696733e-12
3.8776047e-10
1.0731394e-12
3.8675019e-10
1.0102775e-12
3.8558091e-10
1.1692838e-12
7.1368476e-13
2.0345181e-06
1.9654863e-11
2.0344962e-06
4.3373563e-11
2.0344702e-06
5.1288769e-11
2.034441e-06
5.7811157e-11
2.034407e-06
6.7174102e-11
2.0343675e-06
7.794332e-11
2.0343218e-06
9.034947e-11
2.0342686e-06
1.0510719e-10
2.0342065e-06
1.2286325e-10
2.0341334e-06
1.4435419e-10
2.0340471e-06
1.7057077e-10
2.0339445e-06
2.0302017e-10
2.0338212e-06
2.4363964e-10
2.0336714e-06
2.9615393e-10
2.0334874e-06
3.6394332e-10
2.0332548e-06
4.5999439e-10
2.0329595e-06
5.8404174e-10
2.032553e-06
8.0404926e-10
2.0320251e-06
1.0442564e-09
2.0311365e-06
1.7579658e-09
2.0300179e-06
2.2132921e-09
2.0273087e-06
5.3606191e-09
2.0267391e-06
1.1244827e-09
1.0240859e-06
1.9970132e-06
1.3612164e-08
2.0086894e-06
6.6653009e-09
9.2297086e-09
5.151144e-09
2.0090146e-09
4.4285285e-09
9.58734e-10
3.9937424e-09
5.7683857e-10
3.6863805e-09
4.077812e-10
3.4535416e-09
3.0890989e-10
3.2681092e-09
2.4601519e-10
3.1157209e-09
2.0217488e-10
2.9874208e-09
1.7021674e-10
2.8773077e-09
1.4608791e-10
2.7813773e-09
1.2727134e-10
2.6967954e-09
1.1221511e-10
2.6214643e-09
9.9941975e-11
2.553787e-09
8.9787445e-11
2.4925302e-09
8.1269348e-11
2.4367242e-09
7.4037493e-11
2.3855906e-09
6.7838655e-11
2.3384967e-09
6.2479185e-11
2.2949239e-09
5.7807538e-11
2.2544419e-09
5.3707016e-11
2.2166889e-09
5.0086324e-11
2.1813592e-09
4.6871285e-11
2.1481929e-09
4.4001103e-11
2.1169669e-09
4.1426974e-11
2.0874883e-09
3.9108562e-11
2.0595898e-09
3.701236e-11
2.0331246e-09
3.5110701e-11
2.0079641e-09
3.3379765e-11
1.983995e-09
3.1799101e-11
1.9611173e-09
3.035119e-11
1.9392416e-09
2.9021694e-11
1.9182881e-09
2.7798303e-11
1.8981852e-09
2.6669918e-11
1.8788684e-09
2.5626929e-11
1.8602795e-09
2.4661132e-11
1.8423661e-09
2.3765062e-11
1.8250807e-09
2.2931855e-11
1.8083801e-09
2.2155987e-11
1.7922245e-09
2.1432884e-11
1.7765777e-09
2.0758021e-11
1.7614063e-09
2.0127257e-11
1.7466797e-09
1.953705e-11
1.7323698e-09
1.8984306e-11
1.7184505e-09
1.8466127e-11
1.7048979e-09
1.7979501e-11
1.6916902e-09
1.7522123e-11
1.6788063e-09
1.7092413e-11
1.6662269e-09
1.6688446e-11
1.6539341e-09
1.6308291e-11
1.641911e-09
1.5950393e-11
1.630142e-09
1.5613349e-11
1.6186122e-09
1.5295935e-11
1.6073079e-09
1.4996809e-11
1.5962164e-09
1.471458e-11
1.5853254e-09
1.4448449e-11
1.5746234e-09
1.4197834e-11
1.5640993e-09
1.3961796e-11
1.5537427e-09
1.3739457e-11
1.543544e-09
1.3530119e-11
1.5334937e-09
1.3333165e-11
1.5235829e-09
1.3148069e-11
1.5138033e-09
1.2974116e-11
1.5041469e-09
1.2810578e-11
1.4946061e-09
1.2657231e-11
1.4851734e-09
1.2513878e-11
1.4758416e-09
1.2380002e-11
1.4666038e-09
1.2255198e-11
1.4574536e-09
1.2139137e-11
1.4483844e-09
1.2031576e-11
1.43939e-09
1.1932272e-11
1.4304647e-09
1.1840747e-11
1.4216026e-09
1.1756778e-11
1.4127981e-09
1.1680448e-11
1.4040455e-09
1.1611588e-11
1.3953393e-09
1.1549953e-11
1.3866742e-09
1.1495423e-11
1.378045e-09
1.144793e-11
1.3694463e-09
1.1407358e-11
1.3608731e-09
1.1373484e-11
1.3523204e-09
1.1346315e-11
1.343783e-09
1.1325982e-11
1.3352559e-09
1.131239e-11
1.326734e-09
1.1305439e-11
1.3182125e-09
1.1304967e-11
1.3096866e-09
1.1310707e-11
1.3011529e-09
1.1321046e-11
1.292607e-09
1.1337299e-11
1.2840557e-09
1.1344271e-11
1.2758752e-09
1.0852442e-11
1.2682449e-09
1.0122492e-11
1.2611152e-09
9.4581757e-12
1.254441e-09
8.8539454e-12
1.2481779e-09
8.3085722e-12
1.2422853e-09
7.8170864e-12
1.2367278e-09
7.3724297e-12
1.2314747e-09
6.9685738e-12
1.226499e-09
6.6006986e-12
1.2217764e-09
6.2647947e-12
1.2172855e-09
5.9573968e-12
1.2130069e-09
5.6757618e-12
1.2089228e-09
5.417842e-12
1.2050162e-09
5.1823046e-12
1.2012712e-09
4.9679281e-12
1.1976706e-09
4.7762207e-12
1.1941989e-09
4.6054233e-12
1.1908274e-09
4.4723968e-12
1.1875515e-09
4.3455391e-12
1.184265e-09
4.3596253e-12
1.1811716e-09
4.103695e-12
1.1775867e-09
4.7542271e-12
2.8932697e-12
2.0947107e-06
3.0004444e-11
2.0946879e-06
6.62301e-11
2.0946608e-06
7.8334487e-11
2.0946303e-06
8.8299122e-11
2.0945949e-06
1.0259609e-10
2.0945538e-06
1.1903752e-10
2.0945062e-06
1.3797515e-10
2.0944508e-06
1.6049952e-10
2.0943861e-06
1.8759725e-10
2.09431e-06
2.2039164e-10
2.0942202e-06
2.6039354e-10
2.0941133e-06
3.0990136e-10
2.0939851e-06
3.7186898e-10
2.0938293e-06
4.5197621e-10
2.0936379e-06
5.5537597e-10
2.093396e-06
7.0187078e-10
2.093089e-06
8.9104717e-10
2.0926665e-06
1.2265358e-09
2.092118e-06
1.5927787e-09
2.091195e-06
2.6808941e-09
2.0900331e-06
3.3751868e-09
2.0872199e-06
8.1738813e-09
2.0866261e-06
1.7182243e-09
1.0611444e-06
3.022495e-06
2.3535489e-08
3.0462983e-06
1.154913e-08
2.1216068e-08
8.9248797e-09
4.6332648e-09
7.6722903e-09
2.2113234e-09
6.9185056e-09
1.3306233e-09
6.3856304e-09
9.4065638e-10
5.9819484e-09
7.1259191e-10
5.6604549e-09
5.6750862e-10
5.396249e-09
4.6638084e-10
5.1738045e-09
3.9266123e-10
4.9828907e-09
3.3700167e-10
4.8165657e-09
2.935964e-10
4.6699153e-09
2.5886543e-10
4.5393029e-09
2.3055439e-10
4.42196e-09
2.0713039e-10
4.3157481e-09
1.8748121e-10
4.2189865e-09
1.7079906e-10
4.1303254e-09
1.5649979e-10
4.0486679e-09
1.4413671e-10
3.9731152e-09
1.3336025e-10
3.902921e-09
1.2390122e-10
3.8374583e-09
1.1554903e-10
3.776197e-09
1.0813257e-10
3.7186865e-09
1.0151159e-10
3.6645399e-09
9.5573531e-11
3.6134231e-09
9.0225361e-11
3.5650457e-09
8.5389755e-11
3.5191535e-09
8.1002914e-11
3.4755234e-09
7.7009892e-11
3.433959e-09
7.3363512e-11
3.3942868e-09
7.0023362e-11
3.3563521e-09
6.6956367e-11
3.3200163e-09
6.4134132e-11
3.2851552e-09
6.1531056e-11
3.2516571e-09
5.9124968e-11
3.2194213e-09
5.6896948e-11
3.1883566e-09
5.4829774e-11
3.1583808e-09
5.2907617e-11
3.1294191e-09
5.1117725e-11
3.1014024e-09
4.9449554e-11
3.0742678e-09
4.7892663e-11
3.0479575e-09
4.6437503e-11
3.0224187e-09
4.5075901e-11
2.9976023e-09
4.3800721e-11
2.9734631e-09
4.2605279e-11
2.94996e-09
4.1482624e-11
2.9270547e-09
4.0427441e-11
2.904711e-09
3.9436083e-11
2.8828953e-09
3.8504112e-11
2.8615766e-09
3.7627073e-11
2.8407256e-09
3.680138e-11
2.8203151e-09
3.6023797e-11
2.8003196e-09
3.5291497e-11
2.780715e-09
3.4601387e-11
2.7614793e-09
3.3950258e-11
2.7425915e-09
3.3336268e-11
2.7240313e-09
3.275807e-11
2.7057795e-09
3.2213504e-11
2.6878185e-09
3.1700542e-11
2.670131e-09
3.1217573e-11
2.652701e-09
3.0763176e-11
2.6355129e-09
3.0336135e-11
2.6185522e-09
2.9934804e-11
2.6018053e-09
2.95575e-11
2.5852588e-09
2.920371e-11
2.5688997e-09
2.8872977e-11
2.5527156e-09
2.856411e-11
2.5366947e-09
2.8276175e-11
2.5208254e-09
2.8008414e-11
2.5050967e-09
2.7760265e-11
2.4894978e-09
2.7531165e-11
2.4740185e-09
2.7320019e-11
2.458649e-09
2.7126307e-11
2.4433792e-09
2.6950221e-11
2.4281994e-09
2.6791375e-11
2.4131002e-09
2.66492e-11
2.3980722e-09
2.6523422e-11
2.3831062e-09
2.6413887e-11
2.3681933e-09
2.6320321e-11
2.3533245e-09
2.6242215e-11
2.3384913e-09
2.6179585e-11
2.3236845e-09
2.6132736e-11
2.3088955e-09
2.6101446e-11
2.2941154e-09
2.6085487e-11
2.2793359e-09
2.6084488e-11
2.2645488e-09
2.6097833e-11
2.249748e-09
2.6121816e-11
2.2349258e-09
2.6159445e-11
2.2200943e-09
2.6175793e-11
2.2059053e-09
2.5041436e-11
2.1926702e-09
2.3357653e-11
2.1803031e-09
2.1825237e-11
2.1687257e-09
2.0431374e-11
2.157861e-09
1.9173228e-11
2.1476388e-09
1.8039356e-11
2.1379977e-09
1.701349e-11
2.1288845e-09
1.6081736e-11
2.1202523e-09
1.5232978e-11
2.1120591e-09
1.4457972e-11
2.1042677e-09
1.3748727e-11
2.0968446e-09
1.3098915e-11
2.0897586e-09
1.2503816e-11
2.0829806e-09
1.1960357e-11
2.0764828e-09
1.1465721e-11
2.0702356e-09
1.1023391e-11
2.0642117e-09
1.0629313e-11
2.0583617e-09
1.032238e-11
2.0526776e-09
1.0029714e-11
2.0469749e-09
1.0062234e-11
2.0416075e-09
9.4711206e-12
2.035384e-09
1.097773e-11
6.6711415e-12
2.1861193e-06
4.0950832e-11
2.1860951e-06
9.0421545e-11
2.1860664e-06
1.0697718e-10
2.1860342e-06
1.2059e-10
2.1859966e-06
1.4010924e-10
2.1859531e-06
1.6255163e-10
2.1859027e-06
1.8839657e-10
2.1858441e-06
2.1913179e-10
2.1857756e-06
2.5610272e-10
2.1856951e-06
3.0084072e-10
2.1856001e-06
3.5540526e-10
2.1854871e-06
4.2292934e-10
2.1853515e-06
5.0743892e-10
2.1851868e-06
6.1667582e-10
2.1849845e-06
7.57661e-10
2.184729e-06
9.5738539e-10
2.1844048e-06
1.2152709e-09
2.1839588e-06
1.6725603e-09
2.1833798e-06
2.1716902e-09
2.1824062e-06
3.6544977e-09
2.1811806e-06
4.6007923e-09
2.1782139e-06
1.1140608e-08
2.1775847e-06
2.3474395e-09
1.1147139e-06
4.0853657e-06
3.4817952e-08
4.1261943e-06
1.7121026e-08
3.8912994e-08
1.3229155e-08
8.5251363e-09
1.1371209e-08
4.0692692e-09
1.0252888e-08
2.4489444e-09
9.4623008e-09
1.7312433e-09
8.8633695e-09
1.3115233e-09
8.3863724e-09
1.0445057e-09
7.994366e-09
8.583873e-10
7.6643169e-09
7.2271029e-10
7.3810473e-09
6.2027126e-10
7.1342579e-09
5.403858e-10
6.9166582e-09
4.7646513e-10
6.7228526e-09
4.2435996e-10
6.548734e-09
3.8124901e-10
6.3911298e-09
3.450854e-10
6.2475465e-09
3.143824e-10
6.1159814e-09
2.880649e-10
5.9948073e-09
2.6531081e-10
5.8826908e-09
2.4547679e-10
5.7785246e-09
2.280674e-10
5.6813785e-09
2.1269506e-10
5.5904662e-09
1.9904491e-10
5.505119e-09
1.8685877e-10
5.424763e-09
1.7592951e-10
5.3489025e-09
1.6608594e-10
5.2771065e-09
1.571857e-10
5.208998e-09
1.4911139e-10
5.144246e-09
1.417619e-10
5.0825591e-09
1.350504e-10
5.02368e-09
1.2890251e-10
4.967379e-09
1.2325736e-10
4.9134504e-09
1.1806268e-10
4.8617101e-09
1.1327137e-10
4.8119925e-09
1.0884262e-10
4.7641478e-09
1.047416e-10
4.718041e-09
1.0093663e-10
4.67355e-09
9.739856e-11
4.6305638e-09
9.4103931e-11
4.58898e-09
9.1033334e-11
4.5487051e-09
8.8167554e-11
4.5096536e-09
8.5489016e-11
4.4717469e-09
8.2982677e-11
4.4349122e-09
8.0635405e-11
4.3990826e-09
7.8434899e-11
4.3641968e-09
7.6368365e-11
4.3301982e-09
7.4426019e-11
4.2970332e-09
7.2601147e-11
4.2646517e-09
7.0885588e-11
4.2330076e-09
6.9271138e-11
4.2020578e-09
6.7751197e-11
4.1717618e-09
6.6319812e-11
4.1420815e-09
6.4971776e-11
4.1129815e-09
6.37014e-11
4.084429e-09
6.2502775e-11
4.0563927e-09
6.1372513e-11
4.0288427e-09
6.0308135e-11
4.0017505e-09
5.9305666e-11
3.9750897e-09
5.8361372e-11
3.948835e-09
5.7472289e-11
3.9229623e-09
5.6635802e-11
3.8974488e-09
5.5849673e-11
3.8722727e-09
5.5110871e-11
3.8474139e-09
5.44163e-11
3.8228526e-09
5.3765019e-11
3.7985694e-09
5.3156185e-11
3.7745459e-09
5.2587605e-11
3.7507645e-09
5.2057563e-11
3.7272083e-09
5.1564662e-11
3.7038607e-09
5.1107869e-11
3.6807057e-09
5.0686149e-11
3.6577282e-09
5.0297483e-11
3.6349136e-09
4.9940921e-11
3.612247e-09
4.9616816e-11
3.589714e-09
4.9324453e-11
3.5673004e-09
4.9062793e-11
3.5449925e-09
4.8831326e-11
3.5227766e-09
4.8629772e-11
3.5006393e-09
4.8457629e-11
3.4785675e-09
4.831396e-11
3.4565483e-09
4.8198799e-11
3.4345683e-09
4.8112706e-11
3.4126145e-09
4.8055275e-11
3.3906739e-09
4.802609e-11
3.3687339e-09
4.8024472e-11
3.3467825e-09
4.8049293e-11
3.3248105e-09
4.8093766e-11
3.3028066e-09
4.8163361e-11
3.2807883e-09
4.8194099e-11
3.259723e-09
4.6106767e-11
3.2400727e-09
4.3007901e-11
3.2217104e-09
4.0187531e-11
3.2045198e-09
3.7622031e-11
3.1883868e-09
3.5306183e-11
3.1732072e-09
3.3218982e-11
3.1588901e-09
3.1330528e-11
3.1453566e-09
2.9615266e-11
3.1325368e-09
2.8052754e-11
3.1203688e-09
2.6625985e-11
3.1087973e-09
2.5320256e-11
3.0977723e-09
2.4123929e-11
3.0872478e-09
2.3028319e-11
3.0771804e-09
2.2027775e-11
3.067529e-09
2.1117119e-11
3.0582496e-09
2.0302765e-11
3.0493016e-09
1.9577272e-11
3.0406118e-09
1.9012207e-11
3.032168e-09
1.8473527e-11
3.0236967e-09
1.8533474e-11
3.0157231e-09
1.7444757e-11
3.0064757e-09
2.02251e-11
1.2280839e-11
2.3101059e-06
5.2703841e-11
2.3100799e-06
1.1641764e-10
2.3100491e-06
1.3777924e-10
2.3100144e-06
1.5531876e-10
2.3099741e-06
1.8045002e-10
2.3099273e-06
2.0933788e-10
2.3098731e-06
2.4259828e-10
2.3098101e-06
2.8214493e-10
2.3097365e-06
3.297077e-10
2.30965e-06
3.8725479e-10
2.309548e-06
4.5743287e-10
2.3094267e-06
5.4426816e-10
2.3092812e-06
6.5293363e-10
2.3091045e-06
7.9337769e-10
2.3088875e-06
9.7461828e-10
2.3086136e-06
1.2313382e-09
2.3082661e-06
1.5627722e-09
2.3077882e-06
2.1504054e-09
2.3071682e-06
2.7916835e-09
2.3061261e-06
4.6966017e-09
2.3048144e-06
5.9125215e-09
2.3016403e-06
1.4314749e-08
2.300963e-06
3.024677e-09
1.1859391e-06
5.2003897e-06
4.8122125e-08
5.2640113e-06
2.3712711e-08
6.3322407e-08
1.8319463e-08
1.3918384e-08
1.5744288e-08
6.644444e-09
1.419384e-08
3.9993921e-09
1.3097746e-08
2.8273373e-09
1.2267334e-08
2.1419353e-09
1.1605969e-08
1.7058711e-09
1.1062433e-08
1.4019238e-09
1.0604794e-08
1.180349e-09
1.0212011e-08
1.0130543e-09
9.8698046e-09
8.8259201e-10
9.5680676e-09
7.7820212e-10
9.2993195e-09
6.9310807e-10
9.0578661e-09
6.2270237e-10
8.8393092e-09
5.636423e-10
8.6401917e-09
5.1349989e-10
8.4577372e-09
4.7051938e-10
8.2896898e-09
4.3335824e-10
8.1342007e-09
4.0096584e-10
7.9897351e-09
3.7253309e-10
7.8550031e-09
3.4742704e-10
7.7289144e-09
3.2513355e-10
7.6105423e-09
3.0523091e-10
7.4990909e-09
2.8738091e-10
7.3938729e-09
2.7130399e-10
7.2942909e-09
2.5676762e-10
7.1998222e-09
2.4358012e-10
7.1100077e-09
2.3157638e-10
7.0244436e-09
2.2061457e-10
6.9427729e-09
2.1057322e-10
6.8646773e-09
2.0135292e-10
6.7898717e-09
1.9286832e-10
6.7181006e-09
1.8504249e-10
6.6491344e-09
1.7780879e-10
6.5827656e-09
1.7111035e-10
6.5188068e-09
1.6489542e-10
6.457089e-09
1.591164e-10
6.397458e-09
1.5373496e-10
6.3397719e-09
1.4871942e-10
6.283901e-09
1.440384e-10
6.2297269e-09
1.3966319e-10
6.1771403e-09
1.3556923e-10
6.1260407e-09
1.3173506e-10
6.076335e-09
1.2814061e-10
6.0279383e-09
1.2476497e-10
5.9807722e-09
1.2159217e-10
5.9347621e-09
1.1861124e-10
5.8898388e-09
1.1580885e-10
5.8459384e-09
1.1317161e-10
5.8030008e-09
1.1068873e-10
5.7609701e-09
1.083505e-10
5.7197935e-09
1.0614842e-10
5.6794217e-09
1.0407317e-10
5.6398094e-09
1.0211513e-10
5.6009131e-09
1.0026876e-10
5.5626913e-09
9.8530001e-11
5.5251046e-09
9.689237e-11
5.4881162e-09
9.5349768e-11
5.4516911e-09
9.3897357e-11
5.415796e-09
9.2530863e-11
5.3803991e-09
9.1246635e-11
5.3454702e-09
9.0039712e-11
5.3109815e-09
8.8905048e-11
5.2769054e-09
8.7841113e-11
5.2432151e-09
8.6846522e-11
5.209885e-09
8.5917695e-11
5.1768907e-09
8.5051831e-11
5.1442087e-09
8.4246651e-11
5.1118161e-09
8.3500469e-11
5.0796907e-09
8.281159e-11
5.0478114e-09
8.2176722e-11
5.016158e-09
8.1594316e-11
4.9847099e-09
8.1064951e-11
4.9534469e-09
8.0587458e-11
4.9223495e-09
8.0160141e-11
4.8913987e-09
7.9782175e-11
4.8605754e-09
7.94531e-11
4.8298609e-09
7.9172096e-11
4.7992372e-09
7.8937638e-11
4.7686862e-09
7.8749788e-11
4.7381895e-09
7.8609463e-11
4.7077288e-09
7.8516002e-11
4.6772861e-09
7.8468735e-11
4.646844e-09
7.8466562e-11
4.6163857e-09
7.8507648e-11
4.5858984e-09
7.8580982e-11
4.5553664e-09
7.8695363e-11
4.5248136e-09
7.8746926e-11
4.4955815e-09
7.5338887e-11
4.4683112e-09
7.0278173e-11
4.4428267e-09
6.5672086e-11
4.4189668e-09
6.1481944e-11
4.3965737e-09
5.7699257e-11
4.3755028e-09
5.4289823e-11
4.3556285e-09
5.1204895e-11
4.336841e-09
4.840278e-11
4.3190436e-09
4.5850123e-11
4.3021504e-09
4.3519168e-11
4.2860848e-09
4.138591e-11
4.2707773e-09
3.9431355e-11
4.2561643e-09
3.7641332e-11
4.2421855e-09
3.6006618e-11
4.2287838e-09
3.4518768e-11
4.2158983e-09
3.3188275e-11
4.2034726e-09
3.2003026e-11
4.1914049e-09
3.1079879e-11
4.1796783e-09
3.0200106e-11
4.1679135e-09
3.0298277e-11
4.1568389e-09
2.8519353e-11
4.1439939e-09
3.3070163e-11
2.0070007e-11
2.4685184e-06
6.5500143e-11
2.46849e-06
1.4474989e-10
2.4684564e-06
1.7137864e-10
2.4684186e-06
1.9320593e-10
2.4683746e-06
2.244538e-10
2.4683235e-06
2.6036242e-10
2.4682644e-06
3.016957e-10
2.4681957e-06
3.5083053e-10
2.4681155e-06
4.0991432e-10
2.4680214e-06
4.8138926e-10
2.4679103e-06
5.6853899e-10
2.4677782e-06
6.763586e-10
2.4676199e-06
8.1126475e-10
2.4674277e-06
9.8559893e-10
2.4671917e-06
1.2105423e-09
2.4668939e-06
1.529119e-09
2.4665164e-06
1.940347e-09
2.4659974e-06
2.6693456e-09
2.4653244e-06
3.4647165e-09
2.4641939e-06
5.827098e-09
2.462771e-06
7.3353788e-09
2.4593294e-06
1.7756411e-08
2.4585899e-06
3.7641948e-09
1.2762846e-06
6.3826949e-06
6.4225167e-08
6.4760707e-06
3.1716348e-08
9.5831227e-08
2.4497632e-08
2.11371e-08
2.105008e-08
1.0091996e-08
1.8973732e-08
6.0757398e-09
1.7505816e-08
4.2952535e-09
1.6393648e-08
3.2541031e-09
1.5507858e-08
2.5916609e-09
1.477986e-08
2.1299218e-09
1.4166895e-08
1.793314e-09
1.3640785e-08
1.5391644e-09
1.3182408e-08
1.3409692e-09
1.2778228e-08
1.1823823e-09
1.2418227e-08
1.0531086e-09
1.2094781e-08
9.4614869e-10
1.1801999e-08
8.5642441e-10
1.1535251e-08
7.8024736e-10
1.129082e-08
7.1495024e-10
1.1065685e-08
6.5849364e-10
1.0857369e-08
6.0928151e-10
1.0663818e-08
5.6608459e-10
1.0483303e-08
5.2794155e-10
1.0314366e-08
4.9407129e-10
1.0155763e-08
4.6383313e-10
1.0006431e-08
4.3671332e-10
9.8654479e-09
4.1228717e-10
9.7320141e-09
3.9020138e-10
9.6054294e-09
3.7016483e-10
9.4850791e-09
3.5192667e-10
9.3704222e-09
3.3527147e-10
9.2609808e-09
3.2001466e-10
9.1563285e-09
3.0600519e-10
9.0560834e-09
2.9311344e-10
8.9599033e-09
2.8122255e-10
8.8674808e-09
2.7023126e-10
8.778538e-09
2.6005319e-10
8.6928237e-09
2.506097e-10
8.6101116e-09
2.418285e-10
8.5301952e-09
2.3365135e-10
8.4528845e-09
2.260301e-10
8.3780058e-09
2.189171e-10
8.3054003e-09
2.1226874e-10
8.2349218e-09
2.0604769e-10
8.1664355e-09
2.0022138e-10
8.0998168e-09
1.9475927e-10
8.0349522e-09
1.8962963e-10
7.9717362e-09
1.8480818e-10
7.9100691e-09
1.8027825e-10
7.8498584e-09
1.7601961e-10
7.7910181e-09
1.720119e-10
7.7334681e-09
1.6823875e-10
7.6771332e-09
1.6468539e-10
7.6219427e-09
1.6133889e-10
7.5678308e-09
1.5818512e-10
7.5147364e-09
1.5520945e-10
7.4626017e-09
1.5240347e-10
7.4113707e-09
1.4976102e-10
7.3609908e-09
1.4727224e-10
7.3114127e-09
1.4492787e-10
7.2625895e-09
1.4272056e-10
7.2144766e-09
1.4064382e-10
7.1670311e-09
1.386921e-10
7.120213e-09
1.3685785e-10
7.0739846e-09
1.3513342e-10
7.0283092e-09
1.335165e-10
6.9831507e-09
1.3200498e-10
6.938475e-09
1.3059341e-10
6.8942493e-09
1.2927753e-10
6.8504421e-09
1.2805391e-10
6.8070226e-09
1.2691996e-10
6.763961e-09
1.2587312e-10
6.7212294e-09
1.2490839e-10
6.6788003e-09
1.2402342e-10
6.6366461e-09
1.232191e-10
6.5947399e-09
1.2249364e-10
6.5530556e-09
1.2184448e-10
6.5115674e-09
1.2127036e-10
6.4702499e-09
1.2077059e-10
6.4290781e-09
1.2034394e-10
6.3880277e-09
1.1998808e-10
6.3470743e-09
1.1970312e-10
6.3061933e-09
1.1949046e-10
6.2653602e-09
1.193491e-10
6.2245509e-09
1.1927805e-10
6.1837418e-09
1.1927564e-10
6.1429104e-09
1.193391e-10
6.1020395e-09
1.1945185e-10
6.0611079e-09
1.1962699e-10
6.0201469e-09
1.197079e-10
5.9809538e-09
1.1453199e-10
5.944388e-09
1.0684402e-10
5.9102137e-09
9.9846334e-11
5.8782157e-09
9.3480007e-11
5.8481828e-09
8.773218e-11
5.8199215e-09
8.255111e-11
5.7932635e-09
7.7862891e-11
5.768062e-09
7.3604263e-11
5.7441875e-09
6.9724608e-11
5.7215249e-09
6.6181794e-11
5.6999714e-09
6.2939369e-11
5.6794343e-09
5.9968497e-11
5.6598279e-09
5.7247671e-11
5.6410717e-09
5.4762899e-11
5.623089e-09
5.2501373e-11
5.6057983e-09
5.0479064e-11
5.5891236e-09
4.8677649e-11
5.5729289e-09
4.7274629e-11
5.5571909e-09
4.5938055e-11
5.5414014e-09
4.6087811e-11
5.5265366e-09
4.3384158e-11
5.5092945e-09
5.031231e-11
3.0522815e-11
2.6637173e-06
7.9611696e-11
2.663686e-06
1.7603107e-10
2.6636489e-06
2.0851299e-10
2.663607e-06
2.350849e-10
2.6635583e-06
2.7308644e-10
2.663502e-06
3.167417e-10
2.6634367e-06
3.6697685e-10
2.6633608e-06
4.2667877e-10
2.6632723e-06
4.9845407e-10
2.6631684e-06
5.852656e-10
2.6630459e-06
6.9109644e-10
2.6629002e-06
8.2200554e-10
2.6627257e-06
9.8577454e-10
2.6625139e-06
1.1973721e-09
2.6622541e-06
1.470351e-09
2.6619263e-06
1.8568919e-09
2.6615109e-06
2.3557569e-09
2.6609403e-06
3.2399559e-09
2.6602006e-06
4.2044052e-09
2.6589592e-06
7.0685829e-09
2.6573968e-06
8.8977595e-09
2.6536194e-06
2.1533736e-08
2.6528011e-06
4.5825075e-09
1.3875792e-06
7.6479169e-06
8.4063009e-08
7.7795869e-06
4.1607772e-08
1.3828646e-07
3.2129596e-08
3.0615277e-08
2.7601829e-08
1.4619763e-08
2.4873893e-08
8.803676e-09
2.2945263e-08
6.2238841e-09
2.148394e-08
4.7154256e-09
2.0320023e-08
3.755578e-09
1.9363409e-08
3.0865354e-09
1.8557927e-08
2.5987962e-09
1.7866557e-08
2.2305347e-09
1.7264177e-08
1.9433492e-09
1.6733003e-08
1.7135557e-09
1.6259876e-08
1.5262363e-09
1.5834776e-08
1.3712484e-09
1.5449966e-08
1.2412346e-09
1.5099363e-08
1.1308502e-09
1.4778083e-08
1.0362304e-09
1.4482156e-08
9.5442039e-10
1.420833e-08
8.8310731e-10
1.3953904e-08
8.205103e-10
1.371661e-08
7.6523627e-10
1.3494528e-08
7.1615353e-10
1.3286027e-08
6.7233372e-10
1.3089708e-08
6.3303248e-10
1.2904361e-08
5.9763439e-10
1.2728934e-08
5.6562751e-10
1.2562509e-08
5.3659012e-10
1.2404277e-08
5.1015874e-10
1.2253527e-08
4.8602118e-10
1.2109632e-08
4.6390998e-10
1.1972031e-08
4.4360626e-10
1.1840222e-08
4.2492223e-10
1.1713756e-08
4.0768856e-10
1.1592229e-08
3.9175852e-10
1.1475275e-08
3.7700693e-10
1.1362565e-08
3.6331988e-10
1.1253801e-08
3.5059259e-10
1.1148712e-08
3.3874063e-10
1.1047047e-08
3.2769428e-10
1.094858e-08
3.1738449e-10
1.0853101e-08
3.0774806e-10
1.0760418e-08
2.9873089e-10
1.0670353e-08
2.9028578e-10
1.0582744e-08
2.823685e-10
1.0497441e-08
2.7493305e-10
1.0414304e-08
2.6794423e-10
1.0333205e-08
2.6137793e-10
1.025402e-08
2.552048e-10
1.0176636e-08
2.4939536e-10
1.0100949e-08
2.4392586e-10
1.0026859e-08
2.3877492e-10
9.9542746e-09
2.339238e-10
9.8831077e-09
2.2935203e-10
9.8132787e-09
2.2503838e-10
9.7447115e-09
2.209707e-10
9.6773324e-09
2.1714006e-10
9.6110725e-09
2.1353216e-10
9.5458668e-09
2.1013358e-10
9.4816537e-09
2.0693369e-10
9.4183744e-09
2.0392307e-10
9.3559729e-09
2.0109369e-10
9.2943961e-09
1.9843459e-10
9.2335949e-09
1.9593468e-10
9.1735207e-09
1.9359067e-10
9.1141262e-09
1.9139946e-10
9.0553665e-09
1.8935315e-10
8.9971984e-09
1.8744562e-10
8.9395805e-09
1.8567184e-10
8.8824723e-09
1.8402811e-10
8.8258348e-09
1.8251068e-10
8.7696308e-09
1.8111232e-10
8.7138246e-09
1.7982965e-10
8.6583797e-09
1.7866395e-10
8.6032607e-09
1.7761265e-10
8.5484332e-09
1.7667202e-10
8.4938633e-09
1.7584026e-10
8.4395175e-09
1.7511638e-10
8.3853629e-09
1.7449856e-10
8.3313675e-09
1.7398348e-10
8.2774993e-09
1.7357131e-10
8.2237257e-09
1.7326408e-10
8.1700144e-09
1.7306036e-10
8.1163337e-09
1.7295872e-10
8.0626526e-09
1.729568e-10
8.0089411e-09
1.730506e-10
7.9551766e-09
1.7321633e-10
7.901331e-09
1.7347253e-10
7.8474446e-09
1.7359431e-10
7.7958796e-09
1.6609701e-10
7.7477663e-09
1.549573e-10
7.7027954e-09
1.4481721e-10
7.6606845e-09
1.35591e-10
7.6211565e-09
1.2726012e-10
7.5839576e-09
1.1975e-10
7.5488667e-09
1.1295378e-10
7.515691e-09
1.0677996e-10
7.4842604e-09
1.0115528e-10
7.4544234e-09
9.601875e-11
7.4260452e-09
9.131758e-11
7.3990037e-09
8.7010019e-11
7.3731864e-09
8.3064947e-11
7.3484872e-09
7.9462119e-11
7.3248055e-09
7.6183014e-11
7.3020338e-09
7.3250831e-11
7.2800723e-09
7.0639164e-11
7.2587417e-09
6.860517e-11
7.2380113e-09
6.6668441e-11
7.2172125e-09
6.6886666e-11
7.1976291e-09
6.2967532e-11
7.1749132e-09
7.3028181e-11
4.4291228e-11
2.8986115e-06
9.5356011e-11
2.8985766e-06
2.1097921e-10
2.898535e-06
2.5004914e-10
2.8984882e-06
2.8193542e-10
2.8984338e-06
3.2748294e-10
2.8983707e-06
3.7978691e-10
2.8982978e-06
4.399533e-10
2.898213e-06
5.1143701e-10
2.8981141e-06
5.9735535e-10
2.8979981e-06
7.0124952e-10
2.8978613e-06
8.2787918e-10
2.8976989e-06
9.8448442e-10
2.8975043e-06
1.1803615e-09
2.8972683e-06
1.4333953e-09
2.8969788e-06
1.7597668e-09
2.8966139e-06
2.2218191e-09
2.8961517e-06
2.8180077e-09
2.8955171e-06
3.8744852e-09
2.894695e-06
5.0264966e-09
2.8933165e-06
8.4471241e-09
2.8915819e-06
1.0632411e-08
2.8873904e-06
2.5725173e-08
2.8864738e-06
5.4991067e-09
1.5220686e-06
9.012322e-06
1.08783e-07
9.1928725e-06
5.397468e-08
1.9309478e-07
4.1666947e-08
4.292301e-08
3.5785826e-08
2.0500884e-08
3.2241011e-08
1.2348492e-08
2.9734756e-08
8.7301384e-09
2.7835625e-08
6.6145567e-09
2.6322936e-08
5.2682669e-09
2.5079619e-08
4.3298524e-09
2.4032689e-08
3.6457263e-09
2.3134044e-08
3.1291804e-09
2.2351039e-08
2.726354e-09
2.1660566e-08
2.4040282e-09
2.1045525e-08
2.1412778e-09
2.0492897e-08
1.9238764e-09
1.9992627e-08
1.7415042e-09
1.9536812e-08
1.5866649e-09
1.9119105e-08
1.4539376e-09
1.8734348e-08
1.3391776e-09
1.8378314e-08
1.2391411e-09
1.8047495e-08
1.1513301e-09
1.773894e-08
1.0737909e-09
1.7450157e-08
1.004936e-09
1.7179028e-08
9.4346337e-10
1.6923731e-08
8.883289e-10
1.6682696e-08
8.3866933e-10
1.6454557e-08
7.9376655e-10
1.6238118e-08
7.5302924e-10
1.6032329e-08
7.1594751e-10
1.5836267e-08
6.820835e-10
1.5649115e-08
6.5106193e-10
1.5470146e-08
6.2257578e-10
1.5298706e-08
5.9636173e-10
1.5134213e-08
5.7218225e-10
1.497614e-08
5.4983152e-10
1.4824012e-08
5.2913395e-10
1.4677403e-08
5.0992978e-10
1.4535923e-08
4.92072e-10
1.4399222e-08
4.7544216e-10
1.4266973e-08
4.5994247e-10
1.4138882e-08
4.4547612e-10
1.4014675e-08
4.3195443e-10
1.3894105e-08
4.1930152e-10
1.3776939e-08
4.0745118e-10
1.3662967e-08
3.9634135e-10
1.3551992e-08
3.8590751e-10
1.3443836e-08
3.7610027e-10
1.3338328e-08
3.6688582e-10
1.323531e-08
3.5822301e-10
1.3134635e-08
3.5007047e-10
1.3036166e-08
3.423949e-10
1.2939774e-08
3.3516629e-10
1.284534e-08
3.2835837e-10
1.275275e-08
3.2194239e-10
1.2661899e-08
3.1588858e-10
1.257269e-08
3.1017994e-10
1.2485026e-08
3.0480391e-10
1.2398818e-08
2.9974043e-10
1.2313981e-08
2.9497071e-10
1.2230435e-08
2.904798e-10
1.2148103e-08
2.8625451e-10
1.2066913e-08
2.8228359e-10
1.1986796e-08
2.7855161e-10
1.1907688e-08
2.7504305e-10
1.1829525e-08
2.7175334e-10
1.1752247e-08
2.6867811e-10
1.1675794e-08
2.6580626e-10
1.160011e-08
2.6312921e-10
1.1525142e-08
2.6063993e-10
1.1450837e-08
2.5833324e-10
1.1377144e-08
2.5620386e-10
1.1304014e-08
2.5424164e-10
1.1231402e-08
2.5244189e-10
1.115926e-08
2.5080642e-10
1.1087541e-08