/*--------------------------------*- C++ -*----------------------------------*\
| =========                 |                                                 |
| \\      /  F ield         | OpenFOAM: The Open Source CFD Toolbox           |
|  \\    /   O peration     | Version:  2206                                  |
|   \\  /    A nd           | Website:  www.openfoam.com                      |
|    \\/     M anipulation  |                                                 |
\*---------------------------------------------------------------------------*/
FoamFile
{
    version     2.0;
    format      ascii;
    arch        "LSB;label=32;scalar=64";
    class       volVectorField;
    location    "700";
    object      U;
}
// * * * * * * * * * * * * * * * * * * * * * * * * * * * * * * * * * * * * * //

dimensions      [0 1 -1 0 0 0 0];

internalField   nonuniform List<vector> 
13056
(
(1 1.2081441e-10 4.1252106e-25)
(0.99999089 3.0248385e-10 0)
(0.99997881 4.0578026e-10 0)
(0.99996568 5.1888966e-10 0)
(0.99995045 6.8383524e-10 0)
(0.99993273 8.9956493e-10 0)
(0.99991221 1.1815221e-09 0)
(0.9998884 1.5563129e-09 0)
(0.99986063 2.0579187e-09 0)
(0.99982811 2.7318374e-09 0)
(0.9997898 3.6415058e-09 0)
(0.9997444 4.8799534e-09 0)
(0.99969016 6.5772714e-09 0)
(0.99962482 8.951119e-09 0)
(0.9995448 1.2267359e-08 0)
(0.99944612 1.7207327e-08 0)
(0.99931903 2.4101188e-08 0)
(0.99915907 3.6337626e-08 0)
(0.99892475 5.1232535e-08 0)
(0.99864435 9.2680008e-08 0)
(0.99806462 1.2387688e-07 0)
(0.997547 3.1432507e-07 0)
(0.99544069 6.8528843e-08 -4.7841443e-21)
(0.99694879 0.00012423106 7.8581464e-18)
(0.0031855418 0.00012459992 0)
(0.0012568605 6.3327566e-08 -1.0481632e-20)
(0.00091526728 4.4889673e-08 3.3117249e-18)
(0.00076394587 5.0890541e-09 0)
(0.00067994609 3.0400541e-09 0)
(0.00062233697 2.1301457e-09 0)
(0.0005798215 1.5994959e-09 0)
(0.00054648153 1.2621366e-09 0)
(0.00051940588 1.0273268e-09 0)
(0.00049682964 8.5647004e-10 0)
(0.00047760092 7.2767841e-10 0)
(0.00046094956 6.2740002e-10 0)
(0.00044634158 5.4730487e-10 0)
(0.00043338773 4.8213234e-10 0)
(0.00042179388 4.2830243e-10 0)
(0.00041133392 3.8322345e-10 0)
(0.00040183212 3.4501614e-10 0)
(0.00039314834 3.1231935e-10 0)
(0.00038516903 2.8409357e-10 0)
(0.00037780162 2.5952719e-10 0)
(0.00037096974 2.379952e-10 0)
(0.00036460949 2.1900851e-10 0)
(0.00035866693 2.0216959e-10 0)
(0.00035309636 1.8715618e-10 0)
(0.00034785878 1.7370602e-10 7.8786605e-26)
(0.00034292049 1.6160307e-10 0)
(0.00033825237 1.5067054e-10 0)
(0.00033382896 1.4075967e-10 0)
(0.00032962795 1.3174418e-10 0)
(0.0003256297 1.2351567e-10 0)
(0.00032181694 1.1598145e-10 0)
(0.00031817435 1.0906495e-10 0)
(0.00031468815 1.0270051e-10 0)
(0.00031134605 9.6829401e-11 0)
(0.00030813702 9.1400756e-11 0)
(0.00030505111 8.6370924e-11 0)
(0.0003020793 8.1700688e-11 0)
(0.00029921349 7.7354458e-11 0)
(0.00029644634 7.330278e-11 0)
(0.0002937711 6.9520713e-11 0)
(0.00029118157 6.5984393e-11 0)
(0.00028867209 6.2672236e-11 0)
(0.00028623748 5.9565486e-11 0)
(0.00028387297 5.6647582e-11 0)
(0.00028157413 5.390328e-11 0)
(0.00027933689 5.1317639e-11 0)
(0.00027715757 4.8878512e-11 0)
(0.00027503267 4.6576318e-11 0)
(0.00027295889 4.4400852e-11 0)
(0.00027093321 4.2342389e-11 0)
(0.0002689528 4.0392651e-11 0)
(0.00026701501 3.8544101e-11 0)
(0.00026511738 3.6789998e-11 0)
(0.00026325755 3.5123579e-11 0)
(0.00026143338 3.3538349e-11 0)
(0.00025964286 3.2029542e-11 0)
(0.00025788404 3.0592957e-11 0)
(0.00025615507 2.9223812e-11 0)
(0.00025445422 2.7917721e-11 0)
(0.00025277984 2.6670863e-11 0)
(0.00025113039 2.5479747e-11 0)
(0.00024950437 2.4341229e-11 0)
(0.00024790037 2.3251901e-11 0)
(0.00024631706 2.2208594e-11 0)
(0.0002447532 2.1209213e-11 0)
(0.00024320753 2.0251648e-11 0)
(0.00024167886 1.9333407e-11 0)
(0.00024016606 1.845233e-11 0)
(0.00023866802 1.7606454e-11 0)
(0.00023718369 1.6794036e-11 0)
(0.00023571204 1.601339e-11 0)
(0.00023425207 1.5262624e-11 0)
(0.00023280287 1.4540308e-11 0)
(0.00023136349 1.384541e-11 0)
(0.00022993299 1.3176621e-11 0)
(0.00022851049 1.2532623e-11 0)
(0.00022709509 1.1912304e-11 0)
(0.00022568593 1.1314654e-11 0)
(0.00022428214 1.0738644e-11 0)
(0.00022288288 1.0183222e-11 0)
(0.00022148736 9.6476118e-12 0)
(0.00022009471 9.1311427e-12 0)
(0.0002187041 8.6329892e-12 0)
(0.00021731471 8.1523837e-12 0)
(0.00021592573 7.6885657e-12 0)
(0.00021453636 7.2407594e-12 0)
(0.00021314586 6.8075668e-12 0)
(0.00021175386 6.3891959e-12 0)
(0.00021035923 5.9779583e-12 0)
(0.00020899682 5.5769799e-12 0)
(0.00020771099 5.2052407e-12 0)
(0.00020651045 4.866676e-12 0)
(0.00020538784 4.5583398e-12 0)
(0.00020433576 4.2796903e-12 0)
(0.00020334713 4.0283378e-12 0)
(0.00020241579 3.8007706e-12 0)
(0.0002015364 3.5939656e-12 0)
(0.00020070427 3.4054997e-12 0)
(0.00019991524 3.2333505e-12 0)
(0.00019916563 3.0757608e-12 0)
(0.00019845212 2.9313474e-12 0)
(0.00019777168 2.7990835e-12 0)
(0.00019712153 2.6783018e-12 0)
(0.00019649895 2.5683985e-12 0)
(0.00019590146 2.4701684e-12 0)
(0.00019532597 2.3827795e-12 0)
(0.00019477043 2.3148204e-12 0)
(0.00019422762 2.2504477e-12 0)
(0.00019370325 2.2584066e-12 0)
(0.00019315694 8.7522366e-12 0)
(0.00019269575 2.4390935e-12 2.2076882e-24)
(0.00019198784 6.1997297e-12 0)
(1 3.6589993e-10 0)
(0.99999081 9.164467e-10 0)
(0.99997861 1.2296471e-09 0)
(0.99996536 1.5724495e-09 0)
(0.99994998 2.0722373e-09 0)
(0.9999321 2.7258342e-09 0)
(0.99991138 3.5799971e-09 0)
(0.99988735 4.7152856e-09 0)
(0.99985934 6.234578e-09 0)
(0.99982652 8.2756059e-09 0)
(0.99978787 1.1030391e-08 0)
(0.99974208 1.4780512e-08 0)
(0.99968738 1.9919693e-08 0)
(0.99962149 2.7106653e-08 0)
(0.99954081 3.714588e-08 0)
(0.99944134 5.2099137e-08 0)
(0.99931326 7.2964904e-08 0)
(0.99915208 1.0999689e-07 0)
(0.99891602 1.5506978e-07 0)
(0.9986336 2.8047754e-07 0)
(0.99804986 3.7488252e-07 0)
(0.9975286 9.5115517e-07 0)
(0.99540805 2.0563785e-07 1.7104015e-20)
(0.99692471 0.00037337856 -6.6348833e-21)
(0.0095675659 0.00037497278 0)
(0.0037888933 1.2097804e-06 0)
(0.002759017 2.5611852e-07 3.7071694e-22)
(0.0023027928 1.2065975e-07 0)
(0.0020494572 7.1956799e-08 0)
(0.0018757213 5.040952e-08 0)
(0.0017474992 3.7833141e-08 0)
(0.0016469505 2.9843342e-08 0)
(0.0015652937 2.4285188e-08 0)
(0.0014972062 2.0240955e-08 0)
(0.0014392143 1.7192602e-08 0)
(0.0013889953 1.4819681e-08 0)
(0.0013449387 1.2924732e-08 0)
(0.0013058707 1.1383087e-08 0)
(0.0012709041 1.0109935e-08 0)
(0.0012393571 9.0439359e-09 0)
(0.0012106997 8.1405956e-09 0)
(0.0011845094 7.3676653e-09 0)
(0.0011604435 6.7005286e-09 0)
(0.001138223 6.1199864e-09 0)
(0.0011176175 5.6112401e-09 0)
(0.0010984344 5.1626979e-09 0)
(0.001080511 4.7649698e-09 0)
(0.0010637095 4.4103889e-09 -3.4061853e-25)
(0.0010479122 4.0927841e-09 0)
(0.0010330175 3.8070619e-09 0)
(0.0010189376 3.5489964e-09 0)
(0.0010055958 3.3150877e-09 0)
(0.00099292464 3.1023396e-09 0)
(0.00098086503 2.908191e-09 0)
(0.00096936484 2.7304539e-09 0)
(0.00095837784 2.5673169e-09 0)
(0.00094786255 2.4172222e-09 0)
(0.00093778184 2.278782e-09 0)
(0.00092810246 2.1507945e-09 0)
(0.00091879441 2.0322266e-09 0)
(0.00090983051 1.9221502e-09 0)
(0.00090118628 1.8197265e-09 0)
(0.00089283963 1.7242595e-09 0)
(0.00088477017 1.6351567e-09 0)
(0.0008769592 1.5518544e-09 0)
(0.00086938969 1.4738431e-09 0)
(0.000862046 1.4006793e-09 0)
(0.00085491373 1.3319717e-09 0)
(0.00084797951 1.2673597e-09 0)
(0.00084123111 1.2064917e-09 0)
(0.00083465739 1.1490802e-09 0)
(0.00082824781 1.0948972e-09 0)
(0.00082199242 1.0437026e-09 0)
(0.0008158821 9.9526661e-10 0)
(0.00080990833 9.4939357e-10 0)
(0.00080406313 9.0590562e-10 0)
(0.00079833902 8.646432e-10 0)
(0.00079272895 8.254477e-10 0)
(0.00078722642 7.8816568e-10 0)
(0.00078182541 7.5268297e-10 0)
(0.00077652001 7.1890104e-10 0)
(0.00077130463 6.8670759e-10 0)
(0.00076617406 6.5599863e-10 0)
(0.00076112336 6.2668401e-10 0)
(0.00075614784 5.9868144e-10 0)
(0.000751243 5.719164e-10 0)
(0.00074640455 5.4630979e-10 0)
(0.00074162854 5.2178624e-10 0)
(0.00073691119 4.9829476e-10 0)
(0.00073224872 4.7578692e-10 0)
(0.00072763751 4.5420415e-10 0)
(0.00072307414 4.3349508e-10 0)
(0.00071855531 4.1361351e-10 0)
(0.00071407785 3.9451836e-10 0)
(0.00070963862 3.7617027e-10 0)
(0.00070523463 3.5852468e-10 0)
(0.0007008631 3.4154726e-10 0)
(0.0006965212 3.2521393e-10 0)
(0.0006922061 3.0949412e-10 0)
(0.00068791509 2.9435675e-10 0)
(0.00068364551 2.7977558e-10 0)
(0.00067939474 2.6572685e-10 0)
(0.00067516017 2.5218663e-10 0)
(0.00067093927 2.391301e-10 0)
(0.0006667296 2.2653867e-10 0)
(0.00066252861 2.1439682e-10 0)
(0.00065833376 2.0268518e-10 0)
(0.00065414258 1.9138556e-10 0)
(0.00064995259 1.8047999e-10 0)
(0.00064576145 1.6995036e-10 0)
(0.00064156686 1.597614e-10 0)
(0.00063736772 1.4992315e-10 0)
(0.00063316064 1.4023748e-10 0)
(0.00062905065 1.307616e-10 0)
(0.00062517161 1.2196613e-10 0)
(0.00062154981 1.1396149e-10 0)
(0.00061816299 1.0668082e-10 0)
(0.00061498888 1.0010941e-10 0)
(0.00061200617 9.418734e-11 0)
(0.00060919624 8.8829543e-11 0)
(0.000606543 8.3963386e-11 0)
(0.00060403232 7.9530788e-11 0)
(0.00060165167 7.5483428e-11 0)
(0.00059938989 7.1779553e-11 0)
(0.00059723702 6.8386113e-11 0)
(0.00059518393 6.5278431e-11 0)
(0.00059322217 6.2440451e-11 0)
(0.00059134362 5.985746e-11 0)
(0.00058954071 5.7547633e-11 0)
(0.00058780421 5.5489785e-11 0)
(0.00058612787 5.3887115e-11 0)
(0.00058448993 5.2358819e-11 0)
(0.00058290761 5.2529015e-11 0)
(0.00058125917 4.9659985e-11 0)
(0.00057986736 5.7258801e-11 -3.4211462e-24)
(0.00057773116 3.5045653e-11 2.2576164e-25)
(1 6.1890094e-10 0)
(0.99999071 1.5503925e-09 0)
(0.99997837 2.0806839e-09 0)
(0.99996495 2.660818e-09 0)
(0.99994939 3.5064164e-09 0)
(0.99993129 4.6121291e-09 0)
(0.99991033 6.0569982e-09 0)
(0.99988601 7.9772213e-09 0)
(0.99985768 1.0546708e-08 0)
(0.99982449 1.3998264e-08 0)
(0.99978541 1.8656428e-08 0)
(0.99973911 2.4997078e-08 0)
(0.99968382 3.3685554e-08 0)
(0.99961723 4.5834945e-08 0)
(0.99953573 6.2804464e-08 0)
(0.99943524 8.8077664e-08 0)
(0.9993059 1.2334047e-07 0)
(0.99914316 1.8591635e-07 0)
(0.9989049 2.6207142e-07 0)
(0.9986199 4.7393363e-07 0)
(0.99803107 6.334422e-07 0)
(0.9975052 1.6070303e-06 0)
(0.9953666 3.4819505e-07 -9.0619173e-21)
(0.99689402 0.0006262902 5.3242382e-55)
(0.016054099 0.0006301828 -5.3236599e-55)
(0.0063766677 3.4333392e-06 0)
(0.0046430288 7.4537992e-07 -1.9402131e-22)
(0.0038750327 3.5337443e-07 0)
(0.0034484401 2.1076183e-07 0)
(0.0031558941 1.476506e-07 0)
(0.0029399781 1.108151e-07 0)
(0.002770662 8.7412547e-08 0)
(0.0026331567 7.1132823e-08 0)
(0.0025185003 5.9287194e-08 0)
(0.0024208438 5.0358471e-08 0)
(0.002336276 4.3408148e-08 0)
(0.0022620849 3.7857841e-08 0)
(0.0021962938 3.3342369e-08 0)
(0.002137409 2.9613308e-08 0)
(0.0020842825 2.6490993e-08 0)
(0.0020360217 2.3845105e-08 0)
(0.001991915 2.1581182e-08 0)
(0.0019513858 1.9627124e-08 0)
(0.001913964 1.7926699e-08 0)
(0.0018792618 1.6436561e-08 0)
(0.0018469548 1.5122757e-08 0)
(0.001816769 1.3957788e-08 0)
(0.0017884723 1.2919192e-08 0)
(0.0017618668 1.1988899e-08 0)
(0.0017367812 1.1151993e-08 0)
(0.0017130677 1.0396089e-08 0)
(0.001690597 9.7109414e-09 0)
(0.0016692558 9.0877725e-09 0)
(0.0016489444 8.5190817e-09 0)
(0.0016295751 7.9984606e-09 0)
(0.00161107 7.5206035e-09 0)
(0.0015933593 7.0809472e-09 0)
(0.0015763805 6.6754274e-09 0)
(0.0015600775 6.3005239e-09 0)
(0.0015443998 5.9532109e-09 0)
(0.0015293017 5.6307702e-09 0)
(0.001514742 5.330745e-09 0)
(0.0015006834 5.0510963e-09 0)
(0.0014870916 4.7900888e-09 0)
(0.0014739352 4.5460717e-09 0)
(0.0014611854 4.3175524e-09 0)
(0.0014488159 4.1032323e-09 0)
(0.0014368025 3.9019648e-09 0)
(0.0014251226 3.712694e-09 0)
(0.0014137557 3.5343899e-09 0)
(0.001402683 3.3662105e-09 0)
(0.0013918867 3.2074881e-09 0)
(0.0013813501 3.0575191e-09 0)
(0.0013710578 2.9156308e-09 0)
(0.0013609955 2.7812499e-09 0)
(0.0013511498 2.6538555e-09 0)
(0.001341508 2.5329803e-09 0)
(0.0013320582 2.4181595e-09 0)
(0.0013227896 2.308944e-09 0)
(0.001313692 2.2049992e-09 0)
(0.0013047554 2.1060364e-09 0)
(0.0012959704 2.0117268e-09 0)
(0.0012873283 1.9217658e-09 0)
(0.0012788207 1.8358893e-09 0)
(0.0012704397 1.7538563e-09 0)
(0.0012621778 1.6754485e-09 0)
(0.0012540277 1.6004342e-09 0)
(0.0012459827 1.5285926e-09 0)
(0.0012380366 1.4597745e-09 0)
(0.0012301828 1.3938378e-09 0)
(0.0012224155 1.330611e-09 0)
(0.0012147287 1.2699438e-09 0)
(0.0012071169 1.2117007e-09 0)
(0.0011995748 1.1557614e-09 0)
(0.001192097 1.1020106e-09 0)
(0.0011846787 1.0503178e-09 0)
(0.001177315 1.0005824e-09 0)
(0.0011700012 9.5273391e-10 0)
(0.0011627325 9.0668276e-10 0)
(0.0011555044 8.6233787e-10 0)
(0.0011483123 8.1962242e-10 0)
(0.001141152 7.7846676e-10 0)
(0.0011340189 7.3880085e-10 0)
(0.0011269088 7.0055193e-10 0)
(0.0011198176 6.6366555e-10 0)
(0.001112741 6.2809623e-10 0)
(0.0011056747 5.9378727e-10 0)
(0.0010986146 5.6068535e-10 0)
(0.0010915565 5.2873784e-10 0)
(0.0010844963 4.978917e-10 0)
(0.0010774303 4.6804381e-10 0)
(0.0010703566 4.3922312e-10 0)
(0.0010632695 4.1085109e-10 0)
(0.0010563458 3.8309635e-10 0)
(0.0010498109 3.5733505e-10 0)
(0.0010437091 3.338897e-10 0)
(0.001038003 3.1256419e-10 0)
(0.0010326552 2.9331544e-10 0)
(0.0010276296 2.7596811e-10 0)
(0.0010228951 2.602733e-10 0)
(0.0010184245 2.4601839e-10 0)
(0.0010141941 2.3303333e-10 0)
(0.0010101826 2.2117663e-10 0)
(0.0010063714 2.1032603e-10 0)
(0.0010027436 2.0038475e-10 0)
(0.00099928389 1.9128053e-10 0)
(0.00099597804 1.8296636e-10 0)
(0.00099281234 1.7539917e-10 0)
(0.00098977407 1.686322e-10 0)
(0.00098684765 1.6260347e-10 0)
(0.00098402258 1.5790807e-10 0)
(0.0009812622 1.5343083e-10 0)
(0.00097859545 1.5392919e-10 0)
(0.0009758174 1.4461689e-10 0)
(0.00097347144 1.67897e-10 0)
(0.00096987117 1.0191133e-10 0)
(1 8.8444753e-10 8.5153397e-25)
(0.99999058 2.2162478e-09 0)
(0.99997806 2.9750549e-09 0)
(0.99996445 3.804693e-09 0)
(0.99994866 5.013608e-09 0)
(0.99993028 6.5941946e-09 0)
(0.99990902 8.65934e-09 0)
(0.99988436 1.1403582e-08 0)
(0.99985562 1.5075291e-08 0)
(0.99982197 2.0006904e-08 0)
(0.99978235 2.6661813e-08 0)
(0.99973544 3.5719432e-08 0)
(0.99967942 4.8129571e-08 0)
(0.99961197 6.5481136e-08 0)
(0.99952943 8.971401e-08 0)
(0.9994277 1.2580022e-07 0)
(0.99929679 1.7614407e-07 0)
(0.99913214 2.6546923e-07 0)
(0.99889115 3.7416349e-07 0)
(0.99860297 6.7650568e-07 0)
(0.99800788 9.0416884e-07 0)
(0.99747632 2.29359e-06 0)
(0.99531553 4.9814407e-07 0)
(0.99685611 0.00088670298 -2.7777227e-55)
(0.022738463 0.00089411115 2.7774238e-55)
(0.0090583183 7.0675918e-06 0)
(0.0065947768 1.5396469e-06 0)
(0.0055034054 7.2884069e-07 0)
(0.0048969658 4.3474723e-07 0)
(0.0044810943 3.0456603e-07 0)
(0.0041741421 2.2858617e-07 0)
(0.003933435 1.8031239e-07 0)
(0.0037379483 1.4673181e-07 0)
(0.0035749426 1.2229731e-07 0)
(0.0034361036 1.0387955e-07 0)
(0.0033158713 8.9542793e-08 0)
(0.0032103903 7.8093951e-08 0)
(0.0031168506 6.8779705e-08 0)
(0.0030331289 6.1087604e-08 0)
(0.0029575929 5.4647057e-08 0)
(0.0028889742 4.9189249e-08 0)
(0.002826261 4.4519325e-08 0)
(0.0027686336 4.0488563e-08 0)
(0.0027154238 3.6980974e-08 0)
(0.0026660804 3.3907148e-08 0)
(0.002620142 3.119705e-08 0)
(0.0025772193 2.8793959e-08 0)
(0.0025369823 2.6651535e-08 3.9745877e-25)
(0.0024991496 2.4732511e-08 0)
(0.0024634778 2.3006124e-08 0)
(0.0024297569 2.1446821e-08 0)
(0.0023978027 2.0033468e-08 0)
(0.0023674545 1.8747963e-08 0)
(0.0023385704 1.7574833e-08 0)
(0.0023110257 1.6500859e-08 0)
(0.0022847098 1.5515097e-08 0)
(0.0022595233 1.4608135e-08 0)
(0.0022353773 1.3771588e-08 0)
(0.0022121923 1.2998196e-08 0)
(0.0021898964 1.2281717e-08 0)
(0.0021684246 1.1616545e-08 0)
(0.0021477183 1.0997612e-08 0)
(0.0021277245 1.0420712e-08 0)
(0.0021083945 9.8822648e-09 0)
(0.0020896835 9.378866e-09 0)
(0.0020715507 8.9074367e-09 0)
(0.0020539586 8.4652982e-09 0)
(0.0020368729 8.0500851e-09 0)
(0.0020202615 7.6596195e-09 0)
(0.002004095 7.291777e-09 0)
(0.0019883469 6.9448204e-09 0)
(0.0019729919 6.6173724e-09 0)
(0.0019580062 6.3079816e-09 0)
(0.0019433679 6.0152607e-09 0)
(0.0019290566 5.7380269e-09 0)
(0.0019150533 5.4752058e-09 0)
(0.00190134 5.2258331e-09 0)
(0.0018878998 4.9889506e-09 0)
(0.0018747172 4.7636315e-09 0)
(0.0018617778 4.5491855e-09 0)
(0.0018490673 4.3450174e-09 0)
(0.0018365725 4.1504487e-09 0)
(0.0018242808 3.9648512e-09 0)
(0.0018121804 3.78768e-09 0)
(0.0018002601 3.618438e-09 0)
(0.0017885091 3.4566749e-09 0)
(0.0017769171 3.3019127e-09 0)
(0.0017654747 3.1536959e-09 0)
(0.0017541728 3.0117167e-09 0)
(0.0017430023 2.8756822e-09 0)
(0.0017319546 2.7452384e-09 0)
(0.0017210215 2.6200751e-09 0)
(0.0017101951 2.4999131e-09 0)
(0.0016994677 2.3845041e-09 0)
(0.0016888319 2.2736102e-09 0)
(0.0016782805 2.1669621e-09 0)
(0.0016678068 2.0643526e-09 0)
(0.0016574041 1.9656359e-09 0)
(0.0016470656 1.8706273e-09 0)
(0.0016367847 1.7791391e-09 0)
(0.0016265551 1.6910126e-09 0)
(0.0016163705 1.6061042e-09 0)
(0.0016062246 1.5242693e-09 0)
(0.0015961115 1.445358e-09 0)
(0.0015860252 1.3692577e-09 0)
(0.0015759596 1.2958749e-09 0)
(0.0015659086 1.2250923e-09 0)
(0.0015558662 1.1568e-09 0)
(0.0015458267 1.0908895e-09 0)
(0.0015357842 1.0272514e-09 0)
(0.0015257333 9.6567334e-10 0)
(0.0015156713 9.0621404e-10 0)
(0.0015055901 8.4768376e-10 0)
(0.001495741 7.9043273e-10 0)
(0.0014864445 7.3729501e-10 0)
(0.0014777638 6.8893354e-10 0)
(0.0014696456 6.4494358e-10 0)
(0.0014620368 6.0523555e-10 0)
(0.0014548863 5.6944895e-10 0)
(0.0014481496 5.3707063e-10 0)
(0.0014417882 5.0766223e-10 0)
(0.0014357683 4.8087312e-10 0)
(0.0014300599 4.5641156e-10 0)
(0.0014246363 4.3402542e-10 0)
(0.0014194736 4.1351509e-10 0)
(0.00141455 3.947316e-10 0)
(0.0014098452 3.7757802e-10 0)
(0.0014053397 3.6196551e-10 0)
(0.0014010155 3.48004e-10 0)
(0.0013968504 3.3556574e-10 0)
(0.0013928294 3.2587809e-10 0)
(0.0013889004 3.1664167e-10 0)
(0.0013851045 3.1766935e-10 0)
(0.0013811504 2.9891244e-10 0)
(0.0013778105 3.466155e-10 0)
(0.0013726858 2.1048723e-10 0)
(1 1.1674493e-09 0)
(0.99999043 2.9264323e-09 0)
(0.99997769 3.9296072e-09 0)
(0.99996383 5.0256495e-09 0)
(0.99994776 6.6221983e-09 0)
(0.99992907 8.7092821e-09 0)
(0.99990743 1.1435804e-08 0)
(0.99988235 1.5058402e-08 0)
(0.99985312 1.9904679e-08 0)
(0.99981891 2.641306e-08 0)
(0.99977865 3.5194602e-08 0)
(0.99973098 4.7145134e-08 0)
(0.99967407 6.3516852e-08 0)
(0.99960558 8.6404359e-08 0)
(0.99952179 1.1836439e-07 0)
(0.99941855 1.6595042e-07 0)
(0.99928575 2.3232834e-07 0)
(0.99911877 3.5008272e-07 0)
(0.99887449 4.9334757e-07 0)
(0.99858246 8.9178351e-07 0)
(0.9979798 1.1918537e-06 0)
(0.99744137 3.0229378e-06 0)
(0.9952538 6.5826716e-07 0)
(0.99681018 0.0011582993 0)
(0.029715049 0.001170512 0)
(0.01187334 1.2291254e-05 0)
(0.0086426941 2.6710863e-06 0)
(0.007211433 1.2641631e-06 0)
(0.0064157805 7.5417363e-07 0)
(0.0058701632 5.2834692e-07 0)
(0.0054674223 3.9654856e-07 0)
(0.0051515932 3.1280633e-07 0)
(0.0048950913 2.5455332e-07 0)
(0.004681204 2.1216576e-07 0)
(0.0044990233 1.802155e-07 0)
(0.0043412548 1.5534475e-07 0)
(0.0042028401 1.3548383e-07 0)
(0.0040800925 1.1932586e-07 0)
(0.0039702263 1.0598186e-07 0)
(0.0038711002 9.4808968e-08 0)
(0.0037810497 8.5340855e-08 0)
(0.0036987476 7.72395e-08 0)
(0.0036231185 7.0246916e-08 0)
(0.0035532856 6.4161894e-08 0)
(0.0034885258 5.8829333e-08 0)
(0.0034282338 5.4127743e-08 0)
(0.0033718988 4.9958736e-08 0)
(0.0033190879 4.6241914e-08 0)
(0.0032694317 4.2912638e-08 0)
(0.003222611 3.9917546e-08 0)
(0.0031783502 3.7212299e-08 0)
(0.0031364078 3.4760245e-08 0)
(0.0030965728 3.2529981e-08 0)
(0.003058659 3.0494665e-08 0)
(0.0030225029 2.8631364e-08 0)
(0.0029879592 2.6921094e-08 0)
(0.0029548977 2.5347525e-08 0)
(0.0029232017 2.3896117e-08 0)
(0.0028927667 2.2554271e-08 0)
(0.0028634986 2.1311162e-08 0)
(0.002835312 2.0157063e-08 0)
(0.0028081299 1.9083183e-08 0)
(0.002781883 1.8082224e-08 0)
(0.0027565073 1.7147976e-08 0)
(0.0027319439 1.6274534e-08 0)
(0.0027081393 1.5456556e-08 0)
(0.0026850445 1.4689396e-08 0)
(0.0026626142 1.3968949e-08 0)
(0.0026408065 1.3291437e-08 0)
(0.0026195827 1.2653176e-08 0)
(0.0025989081 1.2051151e-08 0)
(0.0025787493 1.1482974e-08 0)
(0.0025590753 1.0946125e-08 0)
(0.0025398573 1.0438198e-08 0)
(0.0025210685 9.9571425e-09 0)
(0.002502684 9.5010932e-09 0)
(0.0024846801 9.0683775e-09 0)
(0.0024670347 8.6573328e-09 0)
(0.0024497275 8.2663515e-09 0)
(0.0024327394 7.8942363e-09 0)
(0.0024160519 7.5399541e-09 0)
(0.0023996474 7.202328e-09 0)
(0.0023835096 6.880268e-09 0)
(0.0023676229 6.572829e-09 0)
(0.0023519726 6.2791485e-09 0)
(0.0023365445 5.9984451e-09 0)
(0.0023213252 5.7298893e-09 0)
(0.0023063021 5.4726913e-09 0)
(0.0022914636 5.226317e-09 0)
(0.0022767975 4.9902582e-09 0)
(0.0022622927 4.7639006e-09 0)
(0.0022479383 4.5467058e-09 0)
(0.0022337238 4.3381899e-09 0)
(0.0022196395 4.1379216e-09 0)
(0.0022056753 3.9454882e-09 0)
(0.0021918218 3.7604228e-09 0)
(0.0021780704 3.5823653e-09 0)
(0.0021644122 3.4110634e-09 0)
(0.0021508381 3.2461963e-09 0)
(0.0021373396 3.087438e-09 0)
(0.0021239084 2.9345135e-09 0)
(0.0021105363 2.7871736e-09 0)
(0.002097215 2.6451673e-09 0)
(0.0020839366 2.5082343e-09 0)
(0.0020706932 2.3761796e-09 0)
(0.002057477 2.2488405e-09 0)
(0.0020442799 2.1260139e-09 0)
(0.0020310941 2.0075089e-09 0)
(0.0020179117 1.8931373e-09 0)
(0.0020047254 1.7827092e-09 0)
(0.0019915279 1.6758573e-09 0)
(0.0019783155 1.5726809e-09 0)
(0.0019650779 1.4711257e-09 0)
(0.0019521444 1.371807e-09 0)
(0.0019399357 1.2796284e-09 0)
(0.0019285349 1.1957326e-09 0)
(0.0019178723 1.119416e-09 0)
(0.001907878 1.0505236e-09 0)
(0.0018984853 9.884315e-10 0)
(0.0018896358 9.322508e-10 0)
(0.001881279 8.8122167e-10 0)
(0.0018733704 8.3473629e-10 0)
(0.0018658708 7.9228885e-10 0)
(0.001858745 7.5344208e-10 0)
(0.0018519618 7.1784988e-10 0)
(0.0018454925 6.8525398e-10 0)
(0.0018393105 6.5548636e-10 0)
(0.0018333902 6.2839306e-10 0)
(0.0018277079 6.04165e-10 0)
(0.0018222345 5.8258116e-10 0)
(0.0018169503 5.6577028e-10 0)
(0.0018117868 5.4974632e-10 0)
(0.0018067979 5.5153192e-10 0)
(0.0018016013 5.1914862e-10 0)
(0.0017972109 6.0192701e-10 -4.4071991e-24)
(0.0017904756 3.6540786e-10 2.9084735e-25)
(1 1.4734582e-09 0)
(0.99999025 3.6950606e-09 0)
(0.99997725 4.96354e-09 0)
(0.9999631 6.348284e-09 0)
(0.99994669 8.3645365e-09 0)
(0.99992761 1.0999817e-08 0)
(0.99990553 1.4441903e-08 0)
(0.99987994 1.9014485e-08 0)
(0.99985013 2.5130687e-08 0)
(0.99981525 3.3343285e-08 0)
(0.99977421 4.4422613e-08 0)
(0.99972563 5.9497864e-08 0)
(0.99966767 8.0147198e-08 0)
(0.99959793 1.0901025e-07 0)
(0.99951264 1.4930821e-07 0)
(0.9994076 2.0929834e-07 0)
(0.99927254 2.9296491e-07 0)
(0.99910277 4.4135958e-07 0)
(0.99885456 6.2186822e-07 0)
(0.99855794 1.1237829e-06 0)
(0.99794626 1.5018564e-06 0)
(0.99739962 3.8085819e-06 0)
(0.99518015 8.3184613e-07 0)
(0.99675528 0.001444809 0)
(0.037080425 0.0014634051 0)
(0.014863162 1.9280545e-05 0)
(0.010816581 4.2060553e-06 0)
(0.0090237506 1.9909075e-06 0)
(0.0080265918 1.1879501e-06 0)
(0.0073428003 8.322445e-07 0)
(0.0068380312 6.2465482e-07 0)
(0.0064421807 4.9274815e-07 0)
(0.0061206798 4.0099091e-07 0)
(0.0058525851 3.342233e-07 0)
(0.0056242268 2.8389581e-07 0)
(0.0054264634 2.4471972e-07 0)
(0.0052529557 2.13435e-07 0)
(0.0050990833 1.87983e-07 0)
(0.0049613549 1.6696341e-07 0)
(0.0048370872 1.4936364e-07 0)
(0.0047241941 1.3444917e-07 0)
(0.0046210124 1.2168755e-07 0)
(0.0045261942 1.1067241e-07 0)
(0.0044386409 1.0108683e-07 -5.6917386e-35)
(0.0043574461 9.2686499e-08 0)
(0.0042818512 8.5280059e-08 0)
(0.0042112162 7.871254e-08 0)
(0.0041449984 7.2857292e-08 0)
(0.004082735 6.7612507e-08 0)
(0.0040240257 6.2894134e-08 0)
(0.0039685253 5.8632325e-08 0)
(0.0039159311 5.4769353e-08 0)
(0.0038659785 5.1255755e-08 0)
(0.0038184344 4.804925e-08 0)
(0.0037730936 4.5113714e-08 0)
(0.0037297741 4.2419238e-08 0)
(0.0036883126 3.9940105e-08 0)
(0.0036485631 3.7653412e-08 0)
(0.0036103945 3.5539314e-08 0)
(0.0035736887 3.3580756e-08 0)
(0.0035383387 3.1762419e-08 0)
(0.0035042482 3.0070454e-08 0)
(0.0034713301 2.8493363e-08 0)
(0.0034395042 2.7021368e-08 0)
(0.0034086968 2.5645164e-08 0)
(0.0033788409 2.4356339e-08 0)
(0.0033498748 2.3147572e-08 0)
(0.0033217419 2.2012398e-08 0)
(0.0032943895 2.0944866e-08 0)
(0.0032677695 1.9939171e-08 0)
(0.0032418379 1.8990565e-08 0)
(0.0032165533 1.8095283e-08 0)
(0.0031918764 1.7249361e-08 0)
(0.0031677713 1.6449006e-08 0)
(0.0031442045 1.5690986e-08 0)
(0.0031211446 1.4972365e-08 0)
(0.003098562 1.4290508e-08 0)
(0.003076429 1.3642794e-08 0)
(0.00305472 1.3026692e-08 0)
(0.0030334112 1.2440316e-08 0)
(0.0030124794 1.1882038e-08 0)
(0.0029919025 1.1350004e-08 0)
(0.00297166 1.0842497e-08 0)
(0.0029517324 1.0358028e-08 0)
(0.0029321013 9.8952383e-09 0)
(0.0029127489 9.4528969e-09 0)
(0.0028936582 9.029696e-09 0)
(0.0028748138 8.6243921e-09 0)
(0.0028562006 8.2361446e-09 0)
(0.0028378039 7.8641517e-09 0)
(0.0028196092 7.5074459e-09 0)
(0.0028016033 7.1651791e-09 0)
(0.0027837728 6.8365886e-09 0)
(0.0027661055 6.5209952e-09 0)
(0.0027485888 6.2177482e-09 0)
(0.0027312111 5.9261119e-09 0)
(0.0027139612 5.6455197e-09 0)
(0.0026968281 5.3755735e-09 0)
(0.0026798005 5.1157678e-09 0)
(0.0026628678 4.865589e-09 0)
(0.0026460193 4.6246039e-09 0)
(0.0026292449 4.3924197e-09 0)
(0.002612534 4.1686406e-09 0)
(0.0025958768 3.9528566e-09 0)
(0.0025792636 3.7447608e-09 0)
(0.0025626842 3.5440963e-09 0)
(0.0025461286 3.3505431e-09 0)
(0.002529587 3.1638008e-09 0)
(0.0025130496 2.9835727e-09 0)
(0.0024965069 2.8095594e-09 0)
(0.00247995 2.6411849e-09 0)
(0.0024633742 2.4785999e-09 0)
(0.0024467663 2.3185885e-09 0)
(0.0024305391 2.1621363e-09 0)
(0.0024152201 2.0169416e-09 0)
(0.0024009135 1.8847877e-09 0)
(0.0023875322 1.7645633e-09 0)
(0.0023749888 1.6560254e-09 0)
(0.0023631996 1.5581943e-09 0)
(0.0023520915 1.4696725e-09 0)
(0.0023416013 1.3892644e-09 0)
(0.0023316733 1.3160136e-09 0)
(0.0023222582 1.2491237e-09 0)
(0.0023133121 1.1879064e-09 0)
(0.0023047956 1.1318168e-09 0)
(0.0022966729 1.0804483e-09 0)
(0.0022889106 1.0335368e-09 0)
(0.0022814766 9.9083988e-10 0)
(0.0022743411 9.5265889e-10 0)
(0.0022674676 9.1864695e-10 0)
(0.0022608314 8.9215662e-10 0)
(0.0022543467 8.669149e-10 0)
(0.0022480805 8.6973646e-10 0)
(0.002241554 8.1869802e-10 0)
(0.0022360381 9.4937581e-10 0)
(0.0022275786 5.7606993e-10 -1.6599755e-25)
(1 1.8088029e-09 0)
(0.99999004 4.5382884e-09 0)
(0.99997672 6.0988896e-09 0)
(0.99996223 7.8008378e-09 0)
(0.99994542 1.027775e-08 0)
(0.99992588 1.3514465e-08 0)
(0.99990328 1.7741269e-08 0)
(0.99987708 2.3355217e-08 0)
(0.99984658 3.0862954e-08 0)
(0.9998109 4.0942256e-08 0)
(0.99976894 5.4537496e-08 0)
(0.99971929 7.3032797e-08 0)
(0.99966007 9.8362254e-08 0)
(0.99958885 1.3376053e-07 0)
(0.99950179 1.8317373e-07 0)
(0.99939461 2.5671837e-07 0)
(0.99925686 3.5926902e-07 0)
(0.99908381 5.411143e-07 0)
(0.99883094 7.6226306e-07 0)
(0.9985289 1.3770336e-06 0)
(0.99790655 1.8402219e-06 0)
(0.99735022 4.6657278e-06 0)
(0.99509309 1.0226449e-06 0)
(0.99669029 0.0017500683 0)
(0.044934391 0.0017769618 0)
(0.018071754 2.8473629e-05 0)
(0.013148031 6.2378512e-06 0)
(0.010966456 2.9531281e-06 0)
(0.0097523732 1.7624749e-06 0)
(0.0089198353 1.2347595e-06 0)
(0.0083052107 9.2680135e-07 0)
(0.0078231921 7.3110439e-07 0)
(0.0074316932 5.9497256e-07 0)
(0.0071052177 4.959141e-07 0)
(0.006827123 4.2124603e-07 0)
(0.0065862794 3.6312235e-07 0)
(0.0063749685 3.1670651e-07 0)
(0.0061875649 2.7894419e-07 0)
(0.0060198183 2.477578e-07 0)
(0.0058684614 2.2164511e-07 0)
(0.0057309544 1.9951635e-07 0)
(0.0056052725 1.8058158e-07 0)
(0.0054897745 1.6423794e-07 0)
(0.0053831228 1.5001522e-07 6.1396973e-35)
(0.005284214 1.3755098e-07 0)
(0.0051921243 1.2656131e-07 0)
(0.0051060744 1.1681632e-07 0)
(0.0050254037 1.081281e-07 0)
(0.0049495486 1.003456e-07 0)
(0.0048780218 9.3344134e-08 0)
(0.0048104029 8.7020057e-08 0)
(0.0047463234 8.1287742e-08 0)
(0.0046854609 7.6073805e-08 0)
(0.0046275318 7.1315513e-08 0)
(0.0045722861 6.6959268e-08 0)
(0.0045195023 6.2960692e-08 0)
(0.0044689815 5.9281637e-08 0)
(0.0044205458 5.5888121e-08 0)
(0.0043740357 5.27507e-08 0)
(0.0043293074 4.9844073e-08 0)
(0.0042862306 4.7145509e-08 0)
(0.0042446878 4.4634462e-08 0)
(0.0042045732 4.2293869e-08 0)
(0.004165789 4.0109223e-08 0)
(0.0041282455 3.8066723e-08 0)
(0.0040918611 3.6153883e-08 0)
(0.0040565607 3.4359842e-08 0)
(0.0040222753 3.2675009e-08 0)
(0.0039889407 3.1090554e-08 0)
(0.0039564982 2.9597863e-08 0)
(0.0039248946 2.8189889e-08 0)
(0.0038940791 2.6861049e-08 0)
(0.003864004 2.5605459e-08 0)
(0.0038346256 2.4417493e-08 0)
(0.003805903 2.3292356e-08 0)
(0.003777798 2.2225689e-08 0)
(0.0037502745 2.1213583e-08 0)
(0.0037232988 2.0252149e-08 0)
(0.0036968398 1.9337631e-08 0)
(0.0036708684 1.8467232e-08 0)
(0.0036453563 1.7638535e-08 0)
(0.0036202767 1.6848789e-08 0)
(0.0035956045 1.6095447e-08 0)
(0.0035713161 1.5376298e-08 0)
(0.0035473889 1.4689327e-08 0)
(0.0035238013 1.4032708e-08 0)
(0.0035005327 1.3404497e-08 0)
(0.0034775641 1.2802851e-08 0)
(0.0034548773 1.2226524e-08 0)
(0.0034324542 1.1674324e-08 0)
(0.0034102774 1.1144815e-08 0)
(0.0033883304 1.063674e-08 0)
(0.0033665974 1.0148967e-08 0)
(0.0033450631 9.6804862e-09 0)
(0.0033237123 9.230333e-09 0)
(0.0033025307 8.797415e-09 0)
(0.003281505 8.3808921e-09 0)
(0.0032606215 7.9801733e-09 0)
(0.0032398664 7.5945077e-09 0)
(0.0032192269 7.2231334e-09 0)
(0.0031986899 6.8654075e-09 0)
(0.0031782431 6.5207465e-09 0)
(0.0031578736 6.188563e-09 0)
(0.0031375693 5.8682483e-09 0)
(0.0031173184 5.5593472e-09 0)
(0.0030971086 5.2614782e-09 0)
(0.0030769276 4.9741662e-09 0)
(0.0030567634 4.6969655e-09 0)
(0.0030366039 4.4294357e-09 0)
(0.0030164379 4.1711327e-09 0)
(0.002996254 3.9212059e-09 0)
(0.0029760466 3.6798684e-09 0)
(0.0029557998 3.4423859e-09 0)
(0.0029360157 3.2102515e-09 0)
(0.002917337 2.9948387e-09 0)
(0.002899891 2.798763e-09 0)
(0.0028835716 2.6203697e-09 0)
(0.0028682729 2.4592999e-09 0)
(0.002853893 2.3141066e-09 0)
(0.002840343 2.1827208e-09 0)
(0.0028275458 2.0633714e-09 0)
(0.0028154338 1.9546408e-09 0)
(0.0028039469 1.8553488e-09 0)
(0.0027930314 1.7644744e-09 0)
(0.0027826398 1.6812098e-09 0)
(0.002772728 1.6049527e-09 0)