/*--------------------------------*- C++ -*----------------------------------*\
| =========                 |                                                 |
| \\      /  F ield         | OpenFOAM: The Open Source CFD Toolbox           |
|  \\    /   O peration     | Version:  2206                                  |
|   \\  /    A nd           | Website:  www.openfoam.com                      |
|    \\/     M anipulation  |                                                 |
\*---------------------------------------------------------------------------*/
FoamFile
{
    version     2.0;
    format      ascii;
    arch        "LSB;label=32;scalar=64";
    class       volScalarField;
    location    "1900";
    object      k;
}
// * * * * * * * * * * * * * * * * * * * * * * * * * * * * * * * * * * * * * //

dimensions      [0 2 -2 0 0 0 0];

internalField   nonuniform List<scalar> 
13056
(
8.6368743e-05
6.0298284e-05
5.8956638e-05
5.8747831e-05
5.875105e-05
5.8762125e-05
5.8765524e-05
5.8766883e-05
5.8768562e-05
5.8771131e-05
5.8774772e-05
5.8779636e-05
5.8785918e-05
5.8793902e-05
5.8803963e-05
5.8816696e-05
5.883293e-05
5.8853618e-05
5.8883853e-05
5.8909717e-05
5.9030996e-05
5.883393e-05
6.0173163e-05
1.5536533e-05
3.0883259e-07
4.8219181e-08
2.4476638e-08
1.6526196e-08
1.263816e-08
1.0268976e-08
8.667689e-09
7.498186e-09
6.6042066e-09
5.8986781e-09
5.3265871e-09
4.8524734e-09
4.4528215e-09
4.1112283e-09
3.8157582e-09
3.5575384e-09
3.329865e-09
3.1275776e-09
2.9464683e-09
2.7835344e-09
2.6359977e-09
2.501774e-09
2.3791071e-09
2.2665398e-09
2.1628523e-09
2.0670157e-09
1.978152e-09
1.8955099e-09
1.818443e-09
1.7463917e-09
1.6788718e-09
1.6154604e-09
1.5557842e-09
1.4995143e-09
1.4463606e-09
1.3960652e-09
1.3483987e-09
1.3031579e-09
1.2601618e-09
1.2192468e-09
1.1802644e-09
1.1430817e-09
1.1075797e-09
1.0736516e-09
1.0412007e-09
1.0101409e-09
9.8039678e-10
9.5190125e-10
9.2459461e-10
8.9842515e-10
8.7334757e-10
8.4932366e-10
8.2632256e-10
8.0432378e-10
7.8332347e-10
7.6332447e-10
7.4433744e-10
7.2638339e-10
7.0949174e-10
6.9370586e-10
6.7909443e-10
6.6576002e-10
6.5382294e-10
6.4346238e-10
6.3515076e-10
6.2819849e-10
6.255032e-10
6.2451764e-10
6.2760307e-10
6.3483407e-10
6.4711306e-10
6.6524265e-10
6.8986437e-10
7.2098773e-10
7.5886791e-10
8.033561e-10
8.5199061e-10
8.9969491e-10
9.4439495e-10
9.7750455e-10
1.0058892e-09
1.0262108e-09
1.0412803e-09
1.0522824e-09
1.0600805e-09
1.0652949e-09
1.0683413e-09
1.0695233e-09
1.068872e-09
1.0664169e-09
1.0623898e-09
1.0569967e-09
1.0504811e-09
1.043155e-09
1.035218e-09
1.026832e-09
1.0182091e-09
1.0094897e-09
1.0007321e-09
9.9199399e-10
9.8336281e-10
9.7488277e-10
9.6655279e-10
9.5835362e-10
9.5029128e-10
9.4236269e-10
9.3460142e-10
9.2664918e-10
9.1909316e-10
9.0973945e-10
9.0218148e-10
8.9124701e-10
8.6366619e-05
6.0293045e-05
5.8951281e-05
5.8742397e-05
5.8745591e-05
5.8756661e-05
5.8760059e-05
5.8761418e-05
5.8763095e-05
5.8765664e-05
5.8769305e-05
5.8774168e-05
5.878045e-05
5.8788433e-05
5.8798494e-05
5.8811227e-05
5.882746e-05
5.8848148e-05
5.8878381e-05
5.8904243e-05
5.9025518e-05
5.8828447e-05
6.0167652e-05
1.5538849e-05
4.7509114e-08
7.404941e-09
3.7588355e-09
2.5378995e-09
1.9408207e-09
1.5769897e-09
1.3310831e-09
1.1514847e-09
1.0141978e-09
9.0585109e-10
8.1799606e-10
7.4518724e-10
6.838134e-10
6.3135558e-10
5.8598085e-10
5.463266e-10
5.1136331e-10
4.8029848e-10
4.5248594e-10
4.2746457e-10
4.0480772e-10
3.8419532e-10
3.6535768e-10
3.4807104e-10
3.3214804e-10
3.174307e-10
3.0378418e-10
2.910931e-10
2.7925818e-10
2.681935e-10
2.5782468e-10
2.4808678e-10
2.3892247e-10
2.3028125e-10
2.2211865e-10
2.1439509e-10
2.0707529e-10
2.00128e-10
1.9352546e-10
1.8724253e-10
1.8125641e-10
1.755467e-10
1.7009512e-10
1.6488526e-10
1.5990227e-10
1.5513292e-10
1.5056558e-10
1.4618986e-10
1.4199681e-10
1.379789e-10
1.3412883e-10
1.3044072e-10
1.2690985e-10
1.2353311e-10
1.2030992e-10
1.1724074e-10
1.1432705e-10
1.1157146e-10
1.0897917e-10
1.0655922e-10
1.0432047e-10
1.0227886e-10
1.0045312e-10
9.8871066e-11
9.7605319e-11
9.6548596e-11
9.6139318e-11
9.6007418e-11
9.6508265e-11
9.7652244e-11
9.9579256e-11
1.0241369e-10
1.062544e-10
1.1110181e-10
1.1699218e-10
1.2389514e-10
1.3142179e-10
1.3878693e-10
1.4567818e-10
1.5077965e-10
1.5515563e-10
1.5829227e-10
1.6062324e-10
1.623303e-10
1.6354497e-10
1.6436145e-10
1.6484293e-10
1.6503564e-10
1.6494401e-10
1.6457232e-10
1.6395617e-10
1.6312765e-10
1.621247e-10
1.6099571e-10
1.5977177e-10
1.5847807e-10
1.5714745e-10
1.5580165e-10
1.5444978e-10
1.531008e-10
1.5176823e-10
1.504589e-10
1.4917268e-10
1.4790665e-10
1.4666175e-10
1.4543752e-10
1.4423907e-10
1.430115e-10
1.4184462e-10
1.404021e-10
1.3923527e-10
1.3754706e-10
8.6359826e-05
6.0276651e-05
5.8934536e-05
5.8725421e-05
5.8728542e-05
5.8739597e-05
5.8742991e-05
5.8744347e-05
5.8746022e-05
5.874859e-05
5.8752229e-05
5.8757091e-05
5.8763372e-05
5.8771355e-05
5.8781414e-05
5.8794146e-05
5.8810377e-05
5.8831062e-05
5.8861291e-05
5.8887145e-05
5.9008403e-05
5.8811336e-05
6.0150316e-05
1.5541887e-05
1.485572e-08
2.309922e-09
1.1725458e-09
7.916842e-10
6.0543459e-10
4.9194397e-10
4.1523733e-10
3.592141e-10
3.1638898e-10
2.825911e-10
2.5518524e-10
2.3247283e-10
2.1332758e-10
1.9696391e-10
1.8281007e-10
1.7044078e-10
1.5953479e-10
1.4984485e-10
1.4116944e-10
1.3336471e-10
1.2629759e-10
1.1986826e-10
1.1399258e-10
1.0860076e-10
1.0363436e-10
9.9044114e-11
9.4787919e-11
9.0829782e-11
8.7138659e-11
8.3687769e-11
8.0453901e-11
7.7416751e-11
7.4558402e-11
7.1863226e-11
6.9317821e-11
6.6909983e-11
6.462829e-11
6.2462948e-11
6.0405307e-11
5.8447548e-11
5.6582553e-11
5.4803973e-11
5.3106157e-11
5.1483906e-11
4.9932635e-11
4.8448127e-11
4.7026465e-11
4.5663908e-11
4.4359027e-11
4.3111928e-11
4.1918272e-11
4.0776227e-11
3.9684483e-11
3.8642271e-11
3.7649664e-11
3.6706857e-11
3.58137e-11
3.4967365e-11
3.4173534e-11
3.3448839e-11
3.2786718e-11
3.219359e-11
3.1677184e-11
3.1248436e-11
3.0931412e-11
3.0687058e-11
3.061806e-11
3.0720902e-11
3.1071544e-11
3.1670737e-11
3.257233e-11
3.3824658e-11
3.5463756e-11
3.7487029e-11
3.9893901e-11
4.2635642e-11
4.5523993e-11
4.8265436e-11
5.0767574e-11
5.2625715e-11
5.4220179e-11
5.5392915e-11
5.6295197e-11
5.6988314e-11
5.7511268e-11
5.7891034e-11
5.814641e-11
5.8290746e-11
5.8323807e-11
5.8245091e-11
5.806618e-11
5.7800604e-11
5.7464452e-11
5.7076679e-11
5.6650282e-11
5.6195795e-11
5.5725521e-11
5.5247779e-11
5.4766606e-11
5.4285651e-11
5.3809738e-11
5.3341432e-11
5.2881017e-11
5.242776e-11
5.1982041e-11
5.1543863e-11
5.1114456e-11
5.0677345e-11
5.0258407e-11
4.975495e-11
4.9338631e-11
4.8735446e-11
8.6348155e-05
6.024857e-05
5.8905861e-05
5.8696354e-05
5.8699349e-05
5.8710378e-05
5.8713765e-05
5.8715117e-05
5.8716788e-05
5.8719353e-05
5.872299e-05
5.8727851e-05
5.873413e-05
5.8742111e-05
5.8752169e-05
5.8764897e-05
5.8781125e-05
5.8801805e-05
5.8832025e-05
5.8857867e-05
5.8979093e-05
5.8782042e-05
6.0120597e-05
1.5545811e-05
6.6049933e-09
1.0185614e-09
5.1704473e-10
3.4910773e-10
2.6699801e-10
2.1696767e-10
1.8315148e-10
1.5845225e-10
1.3957047e-10
1.246679e-10
1.1258311e-10
1.0256757e-10
9.4125224e-11
8.6910279e-11
8.0670674e-11
7.5218259e-11
7.0411031e-11
6.6139914e-11
6.231611e-11
5.8876255e-11
5.5761722e-11
5.2928515e-11
5.0339558e-11
4.7964091e-11
4.5776355e-11
4.3754658e-11
4.1880346e-11
4.0137513e-11
3.8512266e-11
3.699287e-11
3.5569063e-11
3.4231763e-11
3.2972972e-11
3.1786165e-11
3.0666811e-11
2.9609935e-11
2.8609322e-11
2.7660504e-11
2.6759726e-11
2.5903603e-11
2.5088974e-11
2.431311e-11
2.3573663e-11
2.2868171e-11
2.2194761e-11
2.1551356e-11
2.0935465e-11
2.0344065e-11
1.9780333e-11
1.9251262e-11
1.8749306e-11
1.8273755e-11
1.7824626e-11
1.7402307e-11
1.7007745e-11
1.6641503e-11
1.6302284e-11
1.5979686e-11
1.5686845e-11
1.5467827e-11
1.5296708e-11
1.5181319e-11
1.5131632e-11
1.5160743e-11
1.5286418e-11
1.5484751e-11
1.5730345e-11
1.6271776e-11
1.7079452e-11
1.815997e-11
1.9573235e-11
2.1376205e-11
2.3609759e-11
2.6278141e-11
2.9371265e-11
3.2784764e-11
3.6250391e-11
3.9451931e-11
4.2238337e-11
4.4411514e-11
4.6218873e-11
4.7637424e-11
4.8792015e-11
4.9742836e-11
5.0518526e-11
5.1140045e-11
5.1624074e-11
5.1978988e-11
5.220157e-11
5.2286271e-11
5.2240744e-11
5.2083603e-11
5.1837117e-11
5.1523684e-11
5.1160824e-11
5.0762767e-11
5.0342536e-11
4.9909447e-11
4.9469508e-11
4.9027397e-11
4.8587569e-11
4.8152753e-11
4.7724163e-11
4.7302039e-11
4.6886859e-11
4.6479111e-11
4.6078207e-11
4.5678025e-11
4.528444e-11
4.4853277e-11
4.446968e-11
4.3911469e-11
8.6331275e-05
6.0207973e-05
5.8864404e-05
5.8654329e-05
5.8657143e-05
5.8668136e-05
5.8671512e-05
5.8672858e-05
5.8674524e-05
5.8677085e-05
5.8680719e-05
5.8685577e-05
5.8691854e-05
5.8699832e-05
5.8709887e-05
5.8722612e-05
5.8738835e-05
5.8759507e-05
5.8789715e-05
5.8815539e-05
5.8936716e-05
5.8739694e-05
6.0077617e-05
1.5550921e-05
3.6197696e-09
5.4353455e-10
2.7593573e-10
1.8632934e-10
1.4255427e-10
1.1588875e-10
9.7861771e-11
8.4691762e-11
7.4620886e-11
6.6670302e-11
6.0221569e-11
5.4876262e-11
5.0370942e-11
4.6522415e-11
4.3196294e-11
4.029089e-11
3.7729667e-11
3.5454286e-11
3.3417525e-11
3.158572e-11
2.9927699e-11
2.8420045e-11
2.7043017e-11
2.5780243e-11
2.4617999e-11
2.3544792e-11
2.2550448e-11
2.1626402e-11
2.0764844e-11
1.9959684e-11
1.9205402e-11
1.8496901e-11
1.7829724e-11
1.7201131e-11
1.6611498e-11
1.605902e-11
1.5538033e-11
1.5045867e-11
1.4580661e-11
1.4140765e-11
1.3724432e-11
1.3330383e-11
1.2957712e-11
1.2604883e-11
1.2271258e-11
1.1955412e-11
1.1654667e-11
1.136489e-11
1.1095042e-11
1.0862293e-11
1.0652276e-11
1.0465089e-11
1.0302272e-11
1.0165919e-11
1.005889e-11
9.9833541e-12
9.9378232e-12
9.902475e-12
9.9024358e-12
1.002498e-11
1.0221836e-11
1.0509538e-11
1.0909773e-11
1.145122e-11
1.2167235e-11
1.3062794e-11
1.408062e-11
1.5604831e-11
1.7613722e-11
2.0164911e-11
2.3378618e-11
2.7372507e-11
3.2231815e-11
3.7975537e-11
4.4584046e-11
5.1816969e-11
5.9096327e-11
6.5794427e-11
7.1524224e-11
7.6116265e-11
7.9870597e-11
8.2898474e-11
8.5408893e-11
8.7519771e-11
8.927969e-11
9.0727168e-11
9.1895099e-11
9.2795936e-11
9.3421122e-11
9.3754994e-11
9.3808147e-11
9.3621556e-11
9.324432e-11
9.2722908e-11
9.2095589e-11
9.1393465e-11
9.0642212e-11
8.9860694e-11
8.9062479e-11
8.8257597e-11
8.745418e-11
8.665762e-11
8.5871222e-11
8.5096464e-11
8.4334367e-11
8.3586367e-11
8.2849438e-11
8.2122745e-11
8.1396503e-11
8.064772e-11
7.9948329e-11
7.8927797e-11
8.6308743e-05
6.015373e-05
5.8809011e-05
5.8598175e-05
5.8600748e-05
5.8611691e-05
5.8615053e-05
5.861639e-05
5.861805e-05
5.8620606e-05
5.8624236e-05
5.862909e-05
5.8635364e-05
5.8643339e-05
5.865339e-05
5.866611e-05
5.8682325e-05
5.8702987e-05
5.873318e-05
5.8758979e-05
5.8880089e-05
5.8683108e-05
6.0020189e-05
1.5557669e-05
2.3384504e-09
3.2771914e-10
1.6642446e-10
1.1241664e-10
8.6105276e-11
7.0092097e-11
5.9259819e-11
5.1339754e-11
4.5278241e-11
4.0489135e-11
3.6602047e-11
3.3378693e-11
3.0662551e-11
2.8345505e-11
2.6346793e-11
2.460295e-11
2.3066441e-11
2.1701835e-11
2.0480979e-11
1.9383874e-11
1.8391943e-11
1.7491186e-11
1.6669791e-11
1.5917965e-11
1.5227481e-11
1.4591576e-11
1.4003672e-11
1.3458456e-11
1.2950636e-11
1.2476853e-11
1.2033742e-11
1.161785e-11
1.1226208e-11
1.0858364e-11
1.0519086e-11
1.0208738e-11
9.9201779e-12
9.6513827e-12
9.401514e-12
9.1698931e-12
8.9553537e-12
8.7574781e-12
8.576429e-12
8.4112253e-12
8.2622161e-12
8.1283471e-12
8.0063496e-12
7.8903404e-12
7.7963435e-12
7.7547657e-12
7.7429409e-12
7.7624144e-12
7.8174282e-12
7.9133523e-12
8.0570219e-12
8.2550653e-12
8.510258e-12
8.8005981e-12
9.161351e-12
9.7143134e-12
1.0410039e-11
1.1283764e-11
1.2381733e-11
1.3765633e-11
1.5506411e-11
1.7656893e-11
2.0151293e-11
2.3585479e-11
2.7990142e-11
3.3525893e-11
4.0444404e-11
4.8994064e-11
5.935681e-11
7.1581025e-11
8.5633658e-11
1.0100894e-10
1.1648993e-10
1.3076501e-10
1.4294823e-10
1.5279641e-10
1.6080751e-10
1.6730814e-10
1.7271309e-10
1.772714e-10
1.8108408e-10
1.8423399e-10
1.8679257e-10
1.8878503e-10
1.9019289e-10
1.9098108e-10
1.9116939e-10
1.9084581e-10
1.9011582e-10
1.8907781e-10
1.8781381e-10
1.8639048e-10
1.8486151e-10
1.8326662e-10
1.8163509e-10
1.7998833e-10
1.7834299e-10
1.7671036e-10
1.7509783e-10
1.7350904e-10
1.7194617e-10
1.7041247e-10
1.6890061e-10
1.674149e-10
1.6592336e-10
1.6441251e-10
1.6298098e-10
1.608905e-10
8.6280004e-05
6.0084423e-05
5.8738226e-05
5.8526415e-05
5.8528679e-05
5.8539558e-05
5.8542903e-05
5.8544229e-05
5.854588e-05
5.8548429e-05
5.8552054e-05
5.8556904e-05
5.8563173e-05
5.8571143e-05
5.8581189e-05
5.8593903e-05
5.8610109e-05
5.8630758e-05
5.866093e-05
5.8686699e-05
5.8807722e-05
5.8610796e-05
5.9946818e-05
1.5566688e-05
1.7950306e-09
2.1786042e-10
1.1072829e-10
7.4860022e-11
5.7516629e-11
4.6987388e-11
3.9852841e-11
3.4625159e-11
3.0615829e-11
2.7442111e-11
2.4861948e-11
2.2720238e-11
2.0916621e-11
1.9382828e-11
1.806566e-11
1.6919888e-11
1.5911676e-11
1.5017025e-11
1.4217784e-11
1.3501184e-11
1.2855258e-11
1.2270906e-11
1.1740437e-11
1.1257481e-11
1.0816651e-11
1.0413754e-11
1.0043629e-11
9.7024785e-12
9.386141e-12
9.0928983e-12
8.8205446e-12
8.566352e-12
8.3280207e-12
8.1068719e-12
7.9121347e-12
7.7461411e-12
7.5993834e-12
7.4700819e-12
7.358192e-12
7.2638327e-12
7.1860345e-12
7.1251676e-12
7.0826283e-12
7.058479e-12
7.0543183e-12
7.0700561e-12
7.1028365e-12
7.146392e-12
7.2221758e-12
7.3712766e-12
7.5678871e-12
7.8168392e-12
8.1270105e-12
8.5094979e-12
8.9782253e-12
9.5479408e-12
1.0229769e-11
1.1000745e-11
1.1913628e-11
1.3143272e-11
1.4644406e-11
1.6486238e-11
1.8759504e-11
2.158582e-11
2.5106188e-11
2.9456871e-11
3.45856e-11
4.1435575e-11
5.0146613e-11
6.1066564e-11
7.4687737e-11
9.1497427e-11
1.118553e-10
1.3586387e-10
1.6347131e-10
1.9370263e-10
2.2418983e-10
2.523675e-10
2.7642847e-10
2.9594354e-10
3.1178994e-10
3.2466634e-10
3.3537148e-10
3.443978e-10
3.5194707e-10
3.5818717e-10
3.6326241e-10
3.6722335e-10
3.7003415e-10
3.7162513e-10
3.7203396e-10
3.7143427e-10
3.7003417e-10
3.6802712e-10
3.6557488e-10
3.6280895e-10
3.5983451e-10
3.567295e-10
3.5355182e-10
3.5034364e-10
3.471374e-10
3.4395521e-10
3.4081182e-10
3.3771463e-10
3.3466794e-10
3.3167826e-10
3.2873069e-10
3.2583683e-10
3.2292805e-10
3.1999576e-10
3.1720654e-10
3.1313257e-10
8.6244396e-05
5.9998344e-05
5.8650295e-05
5.8437268e-05
5.8439149e-05
5.8449947e-05
5.845327e-05
5.8454582e-05
5.8456223e-05
5.8458763e-05
5.8462381e-05
5.8467225e-05
5.847349e-05
5.8481455e-05
5.8491494e-05
5.85042e-05
5.8520395e-05
5.8541028e-05
5.8571174e-05
5.8596907e-05
5.8717819e-05
5.8520961e-05
5.9855706e-05
1.5578832e-05
1.6741542e-09
1.6079308e-10
8.1876749e-11
5.5461247e-11
4.2903577e-11
3.5323192e-11
3.0167269e-11
2.6371004e-11
2.34473e-11
2.1124445e-11
1.9230073e-11
1.7654798e-11
1.6329759e-11
1.5209362e-11
1.4255175e-11
1.3430351e-11
1.2706718e-11
1.2065869e-11
1.1495316e-11
1.0986478e-11
1.0531141e-11
1.0122922e-11
9.7563993e-12
9.4271036e-12
9.1311941e-12
8.8660817e-12
8.6266651e-12
8.4097203e-12
8.211919e-12
8.0327583e-12
7.870869e-12
7.7240473e-12
7.5904641e-12
7.4727016e-12
7.3832951e-12
7.3262626e-12
7.2906573e-12
7.275086e-12
7.2803568e-12
7.3074926e-12
7.3554627e-12
7.4256091e-12
7.5210865e-12
7.6435465e-12
7.7964631e-12
7.9813314e-12
8.196268e-12
8.4350479e-12
8.7267405e-12
9.1271106e-12
9.6075839e-12
1.0178645e-11
1.0856889e-11
1.1663011e-11
1.2622897e-11
1.3765076e-11
1.5115191e-11
1.665058e-11
1.8454127e-11
2.0784559e-11
2.3607016e-11
2.7048401e-11
3.1274975e-11
3.6510252e-11
4.3015604e-11
5.1070913e-11
6.0676309e-11
7.3314742e-11
8.9328487e-11
1.0938804e-10
1.3439597e-10
1.6524688e-10
2.0260465e-10
2.4666584e-10
2.9735305e-10
3.5290605e-10
4.0901011e-10
4.6096113e-10
5.0536193e-10
5.41438e-10
5.707073e-10
5.944979e-10
6.1426595e-10
6.3092229e-10
6.4484459e-10
6.5634958e-10
6.6570832e-10
6.7301621e-10
6.782085e-10
6.8115696e-10
6.8193023e-10
6.8084795e-10
6.782932e-10
6.746217e-10
6.7013113e-10
6.6506352e-10
6.5961206e-10
6.5392001e-10
6.4809398e-10
6.4221153e-10
6.3633218e-10
6.3049653e-10
6.2473182e-10
6.1905181e-10
6.1346438e-10
6.0798158e-10
6.0257576e-10
5.9726994e-10
5.9193478e-10
5.8656441e-10
5.8144996e-10
5.7397927e-10
8.6201159e-05
5.9893495e-05
5.8543171e-05
5.8328654e-05
5.8330067e-05
5.8340765e-05
5.8344061e-05
5.8345356e-05
5.8346984e-05
5.8349514e-05
5.8353123e-05
5.8357961e-05
5.8364219e-05
5.8372177e-05
5.8382209e-05
5.8394904e-05
5.8411086e-05
5.8431699e-05
5.8461814e-05
5.8487503e-05
5.860828e-05
5.8411502e-05
5.9744755e-05
1.559521e-05
1.8782797e-09
1.3586844e-10
6.9413685e-11
4.7178137e-11
3.6929026e-11
3.080889e-11
2.6616971e-11
2.3502959e-11
2.1089493e-11
1.9161971e-11
1.7583038e-11
1.6267205e-11
1.5162382e-11
1.4234961e-11
1.3453693e-11
1.2785241e-11
1.2201985e-11
1.1687396e-11
1.1232243e-11
1.0830507e-11
1.0476135e-11
1.0164213e-11
9.8905248e-12
9.6516266e-12
9.4444691e-12
9.2676124e-12
9.1148243e-12
8.9827542e-12
8.8686873e-12
8.7732965e-12
8.6959524e-12
8.6348474e-12
8.5885179e-12
8.5609126e-12
8.5684879e-12
8.6172883e-12
8.6946306e-12
8.7996162e-12
8.9341813e-12
9.1005854e-12
9.2974901e-12
9.5276278e-12
9.7968419e-12
1.0109246e-11
1.0471258e-11
1.0886931e-11
1.1356133e-11
1.1873183e-11
1.2478933e-11
1.3251087e-11
1.4157779e-11
1.5218749e-11
1.646311e-11
1.792716e-11
1.9656299e-11
2.1701666e-11
2.4113257e-11
2.6871919e-11
3.0109564e-11
3.4212296e-11
3.9168176e-11
4.5198382e-11
5.2592567e-11
6.1740918e-11
7.3102991e-11
8.7198907e-11
1.0415061e-10
1.2625193e-10
1.5420007e-10
1.8920093e-10
2.3282897e-10
2.86646e-10
3.5181576e-10
4.2869152e-10
5.1716206e-10
6.1419719e-10
7.1231099e-10
8.0329601e-10
8.8112249e-10
9.4443009e-10
9.9576691e-10
1.0374952e-09
1.0721488e-09
1.1013274e-09
1.1257016e-09
1.1458361e-09
1.1622127e-09
1.175002e-09
1.1840923e-09
1.1892601e-09
1.1906249e-09
1.1887457e-09
1.1842924e-09
1.1778867e-09
1.170049e-09
1.1612026e-09
1.151685e-09
1.1417466e-09
1.1315737e-09
1.121302e-09
1.1110355e-09
1.100845e-09
1.0907782e-09
1.0808594e-09
1.0711022e-09
1.0615277e-09
1.0520875e-09
1.0428229e-09
1.0335058e-09
1.024132e-09
1.0152013e-09
1.0021558e-09
8.6149433e-05
5.9767592e-05
5.8414504e-05
5.8198186e-05
5.8199034e-05
5.8209611e-05
5.8212874e-05
5.8214149e-05
5.821576e-05
5.8218278e-05
5.8221878e-05
5.8226707e-05
5.8232957e-05
5.8240907e-05
5.825093e-05
5.8263614e-05
5.8279779e-05
5.8300369e-05
5.8330446e-05
5.8356083e-05
5.8476697e-05
5.8280013e-05
5.9611564e-05
1.5617248e-05
2.4080198e-09
1.3572894e-10
6.964169e-11
4.7540159e-11
3.777424e-11
3.2033292e-11
2.8061602e-11
2.5074139e-11
2.2740489e-11
2.0865154e-11
1.9321063e-11
1.8031454e-11
1.6951125e-11
1.6051406e-11
1.5302639e-11
1.4670632e-11
1.4123439e-11
1.3643318e-11
1.3222757e-11
1.2857336e-11
1.2542154e-11
1.2272916e-11
1.2045878e-11
1.1858032e-11
1.1706584e-11
1.1591073e-11
1.1502765e-11
1.1437496e-11
1.1393065e-11
1.1371559e-11
1.1373171e-11
1.1396462e-11
1.1440337e-11
1.1510564e-11
1.1629039e-11
1.1804567e-11
1.2021987e-11
1.2281096e-11
1.2585472e-11
1.2939203e-11
1.3340343e-11
1.3793724e-11
1.4309358e-11
1.4895233e-11
1.5562399e-11
1.6319045e-11
1.7168129e-11
1.8105536e-11
1.9190002e-11
2.0531515e-11
2.2094756e-11
2.3914299e-11
2.603913e-11
2.8530374e-11
3.146451e-11
3.4928908e-11
3.9013417e-11
4.3709056e-11
4.9224717e-11
5.6134796e-11
6.447354e-11
7.4612342e-11
8.7037434e-11
1.0240482e-10
1.214916e-10
1.4520943e-10
1.739203e-10
2.1111415e-10
2.5808638e-10
3.1690766e-10
3.9022458e-10
4.8066399e-10
5.9018946e-10
7.1940806e-10
8.6816467e-10
1.0314218e-09
1.1966531e-09
1.3500597e-09
1.4813728e-09
1.5882785e-09
1.674939e-09
1.745376e-09
1.8038425e-09
1.8530431e-09
1.8941202e-09
1.9280403e-09
1.9556251e-09
1.9771669e-09
1.9924805e-09
2.0011899e-09
2.0034965e-09
2.0003416e-09
1.9928528e-09
1.9820769e-09
1.9688902e-09
1.9540052e-09
1.93799e-09
1.9212662e-09
1.9041475e-09
1.8868624e-09
1.8695857e-09
1.8524368e-09
1.8354961e-09
1.8188042e-09
1.8023843e-09
1.7862721e-09
1.7703856e-09
1.7547952e-09
1.7391158e-09
1.7233439e-09
1.7083151e-09
1.6863618e-09
8.6088267e-05
5.9618058e-05
5.8261641e-05
5.8043168e-05
5.8043343e-05
5.8053775e-05
5.8056998e-05
5.8058248e-05
5.805984e-05
5.8062342e-05
5.806593e-05
5.8070749e-05
5.807699e-05
5.808493e-05
5.8094942e-05
5.8107612e-05
5.8123758e-05
5.814432e-05
5.8174354e-05
5.819993e-05
5.8320349e-05
5.8123773e-05
5.9453429e-05
1.5646737e-05
3.3285997e-09
1.598322e-10
8.23419e-11
5.6438617e-11
4.5462719e-11
3.9116333e-11
3.4679516e-11
3.1299136e-11
2.8639297e-11
2.6490168e-11
2.4712831e-11
2.3226119e-11
2.1983432e-11
2.0955135e-11
2.0107957e-11
1.9402335e-11
1.8796337e-11
1.8267744e-11
1.7809602e-11
1.7418462e-11
1.7089814e-11
1.6819277e-11
1.6602957e-11
1.6437787e-11
1.6320759e-11
1.625242e-11
1.6219695e-11
1.6216784e-11
1.624204e-11
1.629948e-11
1.6390392e-11
1.6513803e-11
1.6669117e-11
1.6864689e-11
1.7130103e-11
1.7478061e-11
1.7889961e-11
1.8366684e-11
1.8914276e-11
1.9539595e-11
2.0239679e-11
2.1022569e-11
2.1904728e-11
2.2900248e-11
2.4027411e-11
2.5301043e-11
2.6729457e-11
2.8312051e-11
3.0134091e-11
3.2352164e-11
3.4928463e-11
3.7920968e-11
4.140974e-11
4.5494745e-11
5.0301149e-11
5.5973387e-11
6.2665224e-11
7.0390061e-11
7.9475143e-11
9.0769146e-11
1.0439265e-10
1.2095226e-10
1.4124199e-10
1.6633438e-10
1.9750593e-10
2.3629352e-10
2.8349366e-10
3.4434328e-10
4.2111759e-10
5.1725691e-10
6.3708841e-10
7.8490901e-10
9.6393896e-10
1.175188e-09
1.4184452e-09
1.6855504e-09
1.9561003e-09
2.2075304e-09
2.4228769e-09
2.598311e-09
2.7404847e-09
2.8560346e-09
2.9519083e-09
3.0325477e-09
3.0998424e-09
3.155395e-09
3.2005647e-09
3.2358374e-09
3.2609131e-09
3.2751774e-09
3.2789602e-09
3.2738022e-09
3.2615498e-09
3.2439164e-09
3.2223365e-09
3.1979763e-09
3.1717661e-09
3.1443955e-09
3.1163785e-09
3.088089e-09
3.059813e-09
3.0317461e-09
3.0040198e-09
2.9767007e-09
2.9498268e-09
2.9234564e-09
2.8974555e-09
2.8719395e-09
2.8462773e-09
2.8204659e-09
2.7958689e-09
2.7599388e-09
8.6016629e-05
5.9442017e-05
5.8081621e-05
5.7860588e-05
5.7859966e-05
5.7870223e-05
5.7873398e-05
5.7874619e-05
5.7876188e-05
5.7878672e-05
5.7882246e-05
5.7887052e-05
5.7893282e-05
5.7901212e-05
5.7911211e-05
5.7923865e-05
5.7939987e-05
5.7960518e-05
5.7990499e-05
5.8016006e-05
5.8136195e-05
5.7939745e-05
5.9267336e-05
1.5685903e-05
4.7656268e-09
2.1267413e-10
1.0988112e-10
7.5530057e-11
6.1420967e-11
5.336822e-11
4.7692269e-11
4.3325197e-11
3.9871878e-11
3.707184e-11
3.4749848e-11
3.2806278e-11
3.1184414e-11
2.984736e-11
2.8752312e-11
2.7849003e-11
2.707808e-11
2.6408767e-11
2.5833595e-11
2.5349629e-11
2.4952056e-11
2.4635678e-11
2.4395802e-11
2.4228797e-11
2.4130925e-11
2.4103955e-11
2.4127847e-11
2.4194036e-11
2.4301659e-11
2.4457534e-11
2.4664555e-11
2.492248e-11
2.5231518e-11
2.5603747e-11
2.6079532e-11
2.6677101e-11
2.7373322e-11
2.8170817e-11
2.9079386e-11
3.0110106e-11
3.1258401e-11
3.2537227e-11
3.3972963e-11
3.5589256e-11
3.741558e-11
3.9477297e-11
4.1791782e-11
4.4365378e-11
4.7322143e-11
5.0885102e-11
5.5016966e-11
5.9812196e-11
6.5398867e-11
7.1936998e-11
7.9627088e-11
8.8702287e-11
9.9417277e-11
1.1182877e-10
1.2644369e-10
1.4450725e-10
1.6629268e-10
1.9277033e-10
2.2521011e-10
2.6532912e-10
3.1517895e-10
3.7727938e-10
4.5317403e-10
5.5063794e-10
6.7351773e-10
8.2739213e-10
1.0191895e-09
1.2557923e-09
1.5423697e-09
1.8805612e-09
2.2700858e-09
2.6979807e-09
3.1316816e-09
3.5350556e-09
3.8807111e-09
4.1624517e-09
4.3907292e-09
4.5762468e-09
4.7301214e-09
4.8594916e-09
4.9674117e-09
5.0564778e-09
5.1288868e-09
5.1854276e-09
5.2256237e-09
5.2484917e-09
5.2545606e-09
5.2463001e-09
5.2266692e-09
5.1984139e-09
5.1638336e-09
5.1247974e-09
5.0827958e-09
5.0389344e-09
4.9940369e-09
4.9487024e-09
4.9033895e-09
4.8584115e-09
4.8139793e-09
4.7701997e-09
4.7271335e-09
4.684874e-09
4.6432067e-09
4.6023168e-09
4.5611921e-09
4.5198299e-09
4.4804126e-09
4.4228335e-09
8.5933407e-05
5.9236292e-05
5.7871165e-05
5.7647108e-05
5.764555e-05
5.7655599e-05
5.7658717e-05
5.7659902e-05
5.7661444e-05
5.7663907e-05
5.7667464e-05
5.7672256e-05
5.7678473e-05
5.768639e-05
5.7696373e-05
5.7709008e-05
5.7725104e-05
5.7745598e-05
5.7775518e-05
5.7800946e-05
5.7920866e-05
5.7724563e-05
5.9049956e-05
1.5737464e-05
6.9157693e-09
3.0385731e-10
1.572602e-10
1.0827837e-10
8.8536415e-11
7.7360815e-11
6.9443472e-11
6.3314975e-11
5.8456081e-11
5.4509773e-11
5.1233202e-11
4.849067e-11
4.6204479e-11
4.432247e-11
4.2784593e-11
4.1522982e-11
4.0450435e-11
3.9522007e-11
3.8728529e-11
3.8067196e-11
3.753212e-11
3.7116407e-11
3.6813759e-11
3.6619364e-11
3.6528113e-11
3.6543415e-11
3.6634413e-11
3.6788161e-11
3.7005068e-11
3.7296115e-11
3.7666653e-11
3.8117679e-11
3.865077e-11
3.928337e-11
4.0070804e-11
4.1039152e-11
4.2159568e-11
4.3437501e-11
4.4888453e-11
4.6529916e-11
4.8354825e-11
5.0383627e-11
5.265784e-11
5.5215962e-11
5.8104647e-11
6.13658e-11
6.5031768e-11
6.9121621e-11
7.3815677e-11
7.9431093e-11
8.593748e-11
9.3485618e-11
1.0227711e-10
1.1256401e-10
1.246623e-10
1.3894171e-10
1.5581434e-10
1.7541473e-10
1.9852048e-10
2.2694794e-10
2.612298e-10
3.0289372e-10
3.5393885e-10
4.1707045e-10
4.955314e-10
5.9336857e-10
7.1336703e-10
8.6697949e-10
1.0605335e-09
1.302911e-09
1.6050289e-09
1.9777358e-09
2.4291944e-09
2.962018e-09
3.5758397e-09
4.2503718e-09
4.9344406e-09
5.5711044e-09
6.116898e-09
6.5619643e-09
6.9225128e-09
7.2155074e-09
7.4584571e-09
7.6626457e-09
7.8329243e-09
7.9734233e-09
8.0876324e-09
8.1768086e-09
8.2402062e-09
8.2762764e-09
8.285854e-09
8.2728337e-09
8.2418821e-09
8.1973297e-09
8.1428024e-09
8.081248e-09
8.0150171e-09
7.945853e-09
7.8750549e-09
7.8035674e-09
7.7321137e-09
7.6611881e-09
7.591123e-09
7.5220869e-09
7.4541757e-09
7.3875368e-09
7.3218315e-09
7.2573523e-09
7.1925026e-09
7.1272795e-09
7.0651224e-09
6.9743259e-09
8.5837422e-05
5.8997399e-05
5.7626665e-05
5.7399059e-05
5.7396404e-05
5.7406208e-05
5.7409257e-05
5.7410401e-05
5.741191e-05
5.7414348e-05
5.7417884e-05
5.742266e-05
5.7428862e-05
5.7436763e-05
5.7446729e-05
5.7459342e-05
5.7475408e-05
5.7495858e-05
5.7525709e-05
5.7551047e-05
5.7670655e-05
5.7474531e-05
5.8797641e-05
1.5804702e-05
1.0068789e-08
4.4937002e-10
2.327836e-10
1.6042089e-10
1.3155221e-10
1.1528471e-10
1.0372797e-10
9.4753055e-11
8.7629789e-11
8.1841357e-11
7.7033861e-11
7.3011365e-11
6.9660221e-11
6.6901808e-11
6.464802e-11
6.2803988e-11
6.1239564e-11
5.9887578e-11
5.8735651e-11
5.7780721e-11
5.7014859e-11
5.6428281e-11
5.6011994e-11
5.5759183e-11
5.5662474e-11
5.5727622e-11
5.5907225e-11
5.6181594e-11
5.6553286e-11
5.7039514e-11
5.7649442e-11
5.8386181e-11
5.925362e-11
6.0276925e-11
6.1532058e-11
6.3056244e-11
6.4813719e-11
6.6814492e-11
6.9082697e-11
7.1645551e-11
7.4492196e-11
7.7654443e-11
8.1196806e-11
8.5180688e-11
8.9678932e-11
9.4759182e-11
1.0047804e-10
1.0687671e-10
1.1421681e-10
1.229485e-10
1.3306017e-10
1.4478886e-10
1.5844805e-10
1.7442984e-10
1.9322609e-10
2.1541522e-10
2.4165252e-10
2.7220603e-10
3.0825888e-10
3.5244911e-10
4.0573763e-10
4.7050032e-10
5.4984606e-10
6.4798462e-10
7.699765e-10
9.2221994e-10
1.1095138e-09
1.348634e-09
1.6497787e-09
2.0268906e-09
2.4969613e-09
3.0768797e-09
3.7793743e-09
4.6085521e-09
5.5639434e-09
6.6141572e-09
7.6797316e-09
8.6720338e-09
9.5230118e-09
1.0217197e-08
1.0779476e-08
1.123638e-08
1.1615149e-08
1.1933393e-08
1.2198714e-08
1.2417591e-08
1.2595495e-08
1.2734398e-08
1.2833148e-08
1.2889336e-08
1.2904261e-08
1.2883991e-08
1.2835793e-08
1.2766412e-08
1.2681495e-08
1.2585633e-08
1.2482487e-08
1.2374773e-08
1.2264513e-08
1.215318e-08
1.2041899e-08
1.193144e-08
1.1822321e-08
1.1714805e-08
1.160904e-08
1.1505257e-08
1.1402929e-08
1.1302509e-08
1.1201512e-08
1.1099935e-08
1.1003132e-08
1.0861726e-08
8.5727446e-05
5.8721543e-05
5.7344184e-05
5.7112431e-05
5.7108495e-05
5.7118009e-05
5.7120978e-05
5.7122072e-05
5.7123543e-05
5.7125951e-05
5.7129464e-05
5.713422e-05
5.7140405e-05
5.7148288e-05
5.7158233e-05
5.7170821e-05
5.7186851e-05
5.7207253e-05
5.7237024e-05
5.7262262e-05
5.7381509e-05
5.7185613e-05
5.8506414e-05
1.5891514e-05
1.4641467e-08
6.7404142e-10
3.4933552e-10
2.4085094e-10
1.9779912e-10
1.7359789e-10
1.563807e-10
1.429877e-10
1.3235518e-10
1.2371554e-10
1.1654113e-10
1.105411e-10
1.0554422e-10
1.01429e-10
9.8063628e-11
9.5312991e-11
9.2981845e-11
9.0968973e-11
8.9256718e-11
8.7841314e-11
8.6711458e-11
8.5852787e-11
8.5252057e-11
8.4899277e-11
8.4783536e-11
8.4914029e-11
8.521829e-11
8.5666376e-11
8.6264463e-11
8.703912e-11
8.8005416e-11
8.9170016e-11
9.0540656e-11
9.215361e-11
9.4113193e-11
9.6472481e-11
9.9187677e-11
1.0227606e-10
1.0577481e-10
1.0972582e-10
1.1411249e-10
1.1898381e-10
1.2443906e-10
1.3057475e-10
1.3750343e-10
1.4533246e-10
1.5415712e-10
1.6405581e-10
1.7540739e-10
1.888499e-10
2.0441113e-10
2.2245951e-10
2.4347783e-10
2.6807022e-10
2.9699495e-10
3.311475e-10
3.7155608e-10
4.1871047e-10
4.7439927e-10
5.4244254e-10
6.2449323e-10
7.2421139e-10
8.4638586e-10
9.9750509e-10
1.1853874e-09
1.4200263e-09
1.7094308e-09
2.0780809e-09
2.5421578e-09
3.1233109e-09
3.8477329e-09
4.7414652e-09
5.824161e-09
7.1022044e-09
8.5750068e-09
1.0194425e-08
1.1838212e-08
1.3369727e-08
1.4683529e-08
1.5755601e-08
1.6623857e-08
1.7329362e-08
1.7914097e-08
1.840527e-08
1.8814665e-08
1.9152343e-08
1.9426783e-08
1.9641052e-08
1.9793383e-08
1.9880061e-08
1.9903095e-08
1.9871841e-08
1.9797509e-08
1.9690504e-08
1.9559535e-08
1.9411683e-08
1.9252597e-08
1.9086463e-08
1.8916404e-08
1.8744687e-08
1.8573051e-08
1.8402683e-08
1.8234381e-08
1.8068551e-08
1.7905423e-08
1.7745351e-08
1.7587522e-08
1.7432638e-08
1.7276863e-08
1.7120194e-08
1.6970888e-08
1.6752787e-08
8.5602216e-05
5.8404617e-05
5.7019446e-05
5.6782872e-05
5.6777443e-05
5.6786615e-05
5.6789488e-05
5.6790524e-05
5.679195e-05
5.6794323e-05
5.6797809e-05
5.6802542e-05
5.6808706e-05
5.6816568e-05
5.682649e-05
5.6839049e-05
5.6855039e-05
5.6875385e-05
5.6905065e-05
5.6930192e-05
5.7049024e-05
5.685341e-05
5.8171994e-05
1.6002467e-05
2.12261e-08
1.0154682e-09
5.2641696e-10
3.6302412e-10
2.9835564e-10
2.620485e-10
2.362013e-10
2.1607884e-10
2.001059e-10
1.8713068e-10
1.7635968e-10
1.6735625e-10
1.5985971e-10
1.5368123e-10
1.4862219e-10
1.4448837e-10
1.4098669e-10
1.3796441e-10
1.3539564e-10
1.3327532e-10
1.3158687e-10
1.3030888e-10
1.294216e-10
1.2891015e-10
1.2875821e-10
1.289801e-10
1.2946557e-10
1.3016922e-10
1.3110323e-10
1.3230819e-10
1.3380829e-10