/*--------------------------------*- C++ -*----------------------------------*\
| =========                 |                                                 |
| \\      /  F ield         | OpenFOAM: The Open Source CFD Toolbox           |
|  \\    /   O peration     | Version:  2206                                  |
|   \\  /    A nd           | Website:  www.openfoam.com                      |
|    \\/     M anipulation  |                                                 |
\*---------------------------------------------------------------------------*/
FoamFile
{
    version     2.0;
    format      ascii;
    arch        "LSB;label=32;scalar=64";
    class       volScalarField;
    location    "1900";
    object      nut;
}
// * * * * * * * * * * * * * * * * * * * * * * * * * * * * * * * * * * * * * //

dimensions      [0 2 -1 0 0 0 0];

internalField   nonuniform List<scalar> 
13056
(
1.9241588e-07
1.8791219e-07
1.8836761e-07
1.8875437e-07
1.8898401e-07
1.8909962e-07
1.89161e-07
1.891993e-07
1.8922692e-07
1.8924894e-07
1.8926786e-07
1.8928516e-07
1.8930196e-07
1.8931919e-07
1.8933785e-07
1.8935875e-07
1.8938423e-07
1.8941152e-07
1.8946481e-07
1.8945357e-07
1.8977339e-07
1.8925724e-07
1.8559814e-07
7.9472499e-10
2.5855968e-16
4.0369884e-17
2.049224e-17
1.3836001e-17
1.0580873e-17
8.5973542e-18
7.2567306e-18
6.2776036e-18
5.5291494e-18
4.9384695e-18
4.4595055e-18
4.0625699e-18
3.7279748e-18
3.4419873e-18
3.194615e-18
2.9784291e-18
2.7878173e-18
2.6184589e-18
2.4668313e-18
2.3304204e-18
2.2069002e-18
2.094526e-18
1.9918272e-18
1.8975841e-18
1.8107752e-18
1.7305393e-18
1.6561411e-18
1.5869518e-18
1.5224301e-18
1.4621076e-18
1.4055789e-18
1.3524898e-18
1.3025279e-18
1.2554179e-18
1.2109166e-18
1.1688085e-18
1.1289014e-18
1.0910251e-18
1.055028e-18
1.0207733e-18
9.8813661e-19
9.5700664e-19
9.2728382e-19
8.9887866e-19
8.7171021e-19
8.4570645e-19
8.2080417e-19
7.9694725e-19
7.7408568e-19
7.5217618e-19
7.3118083e-19
7.1106762e-19
6.9181072e-19
6.7339299e-19
6.5581118e-19
6.3906769e-19
6.2317144e-19
6.0814002e-19
5.9399805e-19
5.8078185e-19
5.6854893e-19
5.5738515e-19
5.4739122e-19
5.387172e-19
5.3175857e-19
5.2593802e-19
5.2368147e-19
5.2285635e-19
5.2543952e-19
5.3149344e-19
5.417736e-19
5.56952e-19
5.775657e-19
6.0362268e-19
6.3533658e-19
6.7258283e-19
7.1330043e-19
7.5323925e-19
7.9066285e-19
8.1838274e-19
8.4214686e-19
8.591604e-19
8.7177687e-19
8.8098799e-19
8.8751666e-19
8.9188229e-19
8.9443274e-19
8.9542238e-19
8.9487704e-19
8.9282161e-19
8.8945006e-19
8.8493486e-19
8.794799e-19
8.7334634e-19
8.6670141e-19
8.5968047e-19
8.5246127e-19
8.4516127e-19
8.3782927e-19
8.3051354e-19
8.2328738e-19
8.1618775e-19
8.0921375e-19
8.0234927e-19
7.9559936e-19
7.8896141e-19
7.8246354e-19
7.758058e-19
7.6947977e-19
7.616487e-19
7.5532104e-19
7.4616652e-19
1.9241558e-07
1.8791079e-07
1.8836643e-07
1.8875325e-07
1.8898292e-07
1.8909855e-07
1.8915995e-07
1.8919826e-07
1.8922588e-07
1.8924792e-07
1.8926683e-07
1.8928414e-07
1.8930094e-07
1.8931817e-07
1.8933683e-07
1.8935774e-07
1.8938322e-07
1.8941051e-07
1.8946381e-07
1.8945256e-07
1.8977238e-07
1.8925631e-07
1.8559806e-07
8.0682029e-10
2.4255496e-16
3.7728405e-17
1.9151385e-17
1.2930678e-17
9.8885421e-18
8.0348113e-18
6.7819091e-18
5.8668494e-18
5.1673687e-18
4.6153385e-18
4.1677143e-18
3.796751e-18
3.4840493e-18
3.216775e-18
2.9855893e-18
2.7835496e-18
2.6054105e-18
2.4471342e-18
2.3054285e-18
2.1779437e-18
2.0625063e-18
1.9574855e-18
1.8615071e-18
1.7734311e-18
1.6923029e-18
1.6173175e-18
1.547788e-18
1.4831265e-18
1.4228271e-18
1.3664521e-18
1.3136226e-18
1.2640076e-18
1.217315e-18
1.1732876e-18
1.1316987e-18
1.0923469e-18
1.0550521e-18
1.0196554e-18
9.8601513e-19
9.5400325e-19
9.2350364e-19
8.9441229e-19
8.6663615e-19
8.4009151e-19
8.1470274e-19
7.9040245e-19
7.6713124e-19
7.448362e-19
7.2347187e-19
7.0300008e-19
6.8338335e-19
6.6459175e-19
6.4660119e-19
6.2939577e-19
6.1297256e-19
5.9733368e-19
5.8248661e-19
5.6844381e-19
5.552325e-19
5.4290069e-19
5.3149164e-19
5.2108642e-19
5.1178021e-19
5.037143e-19
4.9725786e-19
4.9186094e-19
4.8974621e-19
4.8905888e-19
4.9159518e-19
4.9740351e-19
5.0719513e-19
5.2160173e-19
5.4112411e-19
5.6576017e-19
5.9568665e-19
6.3073812e-19
6.6892786e-19
7.0626677e-19
7.4120016e-19
7.6703418e-19
7.8921181e-19
8.0510303e-19
8.1691474e-19
8.2556737e-19
8.317258e-19
8.3586508e-19
8.3830382e-19
8.3927596e-19
8.3880349e-19
8.369081e-19
8.3377092e-19
8.2955488e-19
8.2445268e-19
8.1871021e-19
8.1248541e-19
8.0590613e-19
7.9913941e-19
7.9229569e-19
7.8542123e-19
7.7856154e-19
7.7178536e-19
7.6512742e-19
7.5858707e-19
7.5214939e-19
7.4581914e-19
7.3959398e-19
7.3349993e-19
7.2725755e-19
7.2132415e-19
7.1398773e-19
7.0805435e-19
6.9946975e-19
1.9241461e-07
1.8790643e-07
1.8836271e-07
1.8874972e-07
1.8897951e-07
1.8909521e-07
1.8915665e-07
1.8919498e-07
1.8922263e-07
1.8924467e-07
1.892636e-07
1.8928092e-07
1.8929772e-07
1.8931497e-07
1.8933363e-07
1.8935455e-07
1.8938003e-07
1.8940733e-07
1.8946063e-07
1.8944937e-07
1.8976918e-07
1.8925337e-07
1.8559568e-07
8.2136324e-10
2.3165995e-16
3.5968124e-17
1.8257879e-17
1.2327428e-17
9.4273068e-18
7.6601264e-18
6.4657152e-18
5.5933686e-18
4.9265312e-18
4.4002578e-18
3.9735153e-18
3.6198554e-18
3.3217405e-18
3.066939e-18
2.8465478e-18
2.6539443e-18
2.484126e-18
2.333243e-18
2.1981573e-18
2.076629e-18
1.9665861e-18
1.8664742e-18
1.7749833e-18
1.6910266e-18
1.6136942e-18
1.5422187e-18
1.4759448e-18
1.4143119e-18
1.3568364e-18
1.3031012e-18
1.2527448e-18
1.2054509e-18
1.1609404e-18
1.1189703e-18
1.0793336e-18
1.0418409e-18
1.0063126e-18
9.72596e-19
9.4055631e-19
9.100718e-19
8.8103164e-19
8.5333698e-19
8.2689975e-19
8.0163837e-19
7.7748141e-19
7.543625e-19
7.3221894e-19
7.1098983e-19
6.9065928e-19
6.7124007e-19
6.5265363e-19
6.3487053e-19
6.1786994e-19
6.016393e-19
5.861791e-19
5.7148978e-19
5.5756148e-19
5.4432398e-19
5.318911e-19
5.2060476e-19
5.1029089e-19
5.0104774e-19
4.9299298e-19
4.8629006e-19
4.8129143e-19
4.7728292e-19
4.7548001e-19
4.7692297e-19
4.823194e-19
4.9155059e-19
5.0543498e-19
5.2468993e-19
5.4980774e-19
5.8061954e-19
6.168541e-19
6.5733669e-19
6.9882404e-19
7.3699381e-19
7.7152536e-19
7.9644547e-19
8.1835084e-19
8.3443314e-19
8.4699708e-19
8.5684109e-19
8.6441746e-19
8.7000183e-19
8.7379053e-19
8.7594024e-19
8.7642845e-19
8.7524087e-19
8.7254942e-19
8.6855668e-19
8.6350407e-19
8.5767625e-19
8.5126838e-19
8.4443864e-19
8.3737185e-19
8.30193e-19
8.2296267e-19
8.1573567e-19
8.0858449e-19
8.0154766e-19
7.9462942e-19
7.8781875e-19
7.8112135e-19
7.7453725e-19
7.6808499e-19
7.6151676e-19
7.5522186e-19
7.4765599e-19
7.4140026e-19
7.3233668e-19
1.9241295e-07
1.8789895e-07
1.8835633e-07
1.8874366e-07
1.8897365e-07
1.8908948e-07
1.8915098e-07
1.8918936e-07
1.8921704e-07
1.8923911e-07
1.8925806e-07
1.8927539e-07
1.8929221e-07
1.8930947e-07
1.8932814e-07
1.8934907e-07
1.8937456e-07
1.8940186e-07
1.8945517e-07
1.894439e-07
1.8976368e-07
1.8924833e-07
1.8559096e-07
8.3735561e-10
2.2530149e-16
3.4712611e-17
1.7620906e-17
1.1897602e-17
9.0992854e-18
7.3942367e-18
6.2417703e-18
5.4000126e-18
4.7565072e-18
4.2486089e-18
3.8367394e-18
3.4953902e-18
3.2076595e-18
2.9617686e-18
2.7491271e-18
2.5633149e-18
2.3994901e-18
2.2539352e-18
2.1236242e-18
2.0063975e-18
1.9002572e-18
1.803704e-18
1.7154744e-18
1.6345199e-18
1.5599629e-18
1.4910639e-18
1.4271872e-18
1.3677908e-18
1.3123974e-18
1.2606074e-18
1.2120704e-18
1.1664744e-18
1.1235452e-18
1.0830655e-18
1.0449001e-18
1.0088843e-18
9.7478828e-19
9.4245679e-19
9.1176182e-19
8.82588e-19
8.5482747e-19
8.2838714e-19
8.0318675e-19
7.7913524e-19
7.5616853e-19
7.3420794e-19
7.1314997e-19
6.9286217e-19
6.7352329e-19
6.554942e-19
6.3839691e-19
6.2219748e-19
6.0689183e-19
5.9248731e-19
5.79009e-19
5.6644759e-19
5.5467512e-19
5.4304256e-19
5.3227937e-19
5.248166e-19
5.1897129e-19
5.1499278e-19
5.1319255e-19
5.1393947e-19
5.175736e-19
5.2198474e-19
5.2165743e-19
5.3809364e-19
5.6476316e-19
6.0043097e-19
6.470582e-19
7.064967e-19
7.7999457e-19
8.6755289e-19
9.6849162e-19
1.0787955e-18
1.1891145e-18
1.289222e-18
1.3755771e-18
1.4420429e-18
1.4978076e-18
1.5416355e-18
1.5776277e-18
1.6075854e-18
1.6322663e-18
1.6521794e-18
1.6677497e-18
1.6791889e-18
1.6863676e-18
1.6890973e-18
1.6876225e-18
1.6825433e-18
1.6745788e-18
1.6644523e-18
1.6527295e-18
1.6398701e-18
1.6262945e-18
1.6123038e-18
1.5980919e-18
1.58381e-18
1.5696019e-18
1.5555557e-18
1.5417107e-18
1.5280745e-18
1.5146627e-18
1.501491e-18
1.4885404e-18
1.4756129e-18
1.4628988e-18
1.4489694e-18
1.4365777e-18
1.4185454e-18
1.9241055e-07
1.8788814e-07
1.883471e-07
1.887349e-07
1.8896518e-07
1.8908118e-07
1.8914279e-07
1.8918123e-07
1.8920896e-07
1.8923106e-07
1.8925004e-07
1.8926739e-07
1.8928424e-07
1.8930151e-07
1.893202e-07
1.8934113e-07
1.8936664e-07
1.8939395e-07
1.8944727e-07
1.8943598e-07
1.8975571e-07
1.8924105e-07
1.8558388e-07
8.5476302e-10
2.2539106e-16
3.3848274e-17
1.7183706e-17
1.1603503e-17
8.8773628e-18
7.2167141e-18
6.0940436e-18
5.2738495e-18
4.6466101e-18
4.151384e-18
3.749675e-18
3.4166812e-18
3.1360228e-18
2.8963264e-18
2.6892224e-18
2.5083296e-18
2.3488667e-18
2.2072e-18
2.0803891e-18
1.966338e-18
1.8631056e-18
1.7692339e-18
1.6834938e-18
1.6048657e-18
1.5324948e-18
1.4656653e-18
1.4037436e-18
1.3461962e-18
1.2925133e-18
1.2423181e-18
1.1952615e-18
1.1510118e-18
1.1092812e-18
1.0699299e-18
1.033101e-18
9.9871183e-19
9.6629816e-19
9.3567553e-19
9.0672767e-19
8.793515e-19
8.5343785e-19
8.2890609e-19
8.0569849e-19
7.836742e-19
7.6279146e-19
7.429108e-19
7.2374651e-19
7.0485215e-19
6.8723158e-19
6.7273475e-19
6.5970117e-19
6.4807479e-19
6.3792052e-19
6.293283e-19
6.2242794e-19
6.1717021e-19
6.1286036e-19
6.0619281e-19
6.0061931e-19
6.079935e-19
6.1989642e-19
6.3728356e-19
6.6143998e-19
6.9401832e-19
7.3673091e-19
7.8829409e-19
8.3914627e-19
9.2798223e-19
1.04739e-18
1.1990012e-18
1.3899231e-18
1.627081e-18
1.9153237e-18
2.2554495e-18
2.6454841e-18
3.0697671e-18
3.4926753e-18
3.8772687e-18
4.2039673e-18
4.4637014e-18
4.6769129e-18
4.8490737e-18
4.9926062e-18
5.1140918e-18
5.2159854e-18
5.3001395e-18
5.3682031e-18
5.4207618e-18
5.4572533e-18
5.4767405e-18
5.4798353e-18
5.4689286e-18
5.4468877e-18
5.4164264e-18
5.3797796e-18
5.338764e-18
5.2948791e-18
5.2492266e-18
5.2025992e-18
5.1555825e-18
5.1086516e-18
5.0621214e-18
5.0161848e-18
4.9709282e-18
4.9264112e-18
4.8827177e-18
4.8396709e-18
4.7972214e-18
4.7547991e-18
4.7110569e-18
4.6702025e-18
4.6105891e-18
1.9240734e-07
1.8787367e-07
1.8833476e-07
1.8872317e-07
1.8895384e-07
1.8907007e-07
1.8913182e-07
1.8917036e-07
1.8919814e-07
1.892203e-07
1.8923931e-07
1.892567e-07
1.8927357e-07
1.8929086e-07
1.8930957e-07
1.8933053e-07
1.8935604e-07
1.8938336e-07
1.894367e-07
1.8942538e-07
1.8974505e-07
1.8923131e-07
1.8557441e-07
8.7379577e-10
2.3811592e-16
3.3477702e-17
1.7000745e-17
1.1483574e-17
8.7954698e-18
7.159377e-18
6.052603e-18
5.2433689e-18
4.6238027e-18
4.1340966e-18
3.7364905e-18
3.4066852e-18
3.128808e-18
2.8919708e-18
2.6879194e-18
2.509955e-18
2.3531541e-18
2.2138938e-18
2.0892997e-18
1.9773303e-18
1.8760894e-18
1.7841475e-18
1.7002988e-18
1.623543e-18
1.5530391e-18
1.4880954e-18
1.4280403e-18
1.3723302e-18
1.3203169e-18
1.2716683e-18
1.2260153e-18
1.1829389e-18
1.1420871e-18
1.1035558e-18
1.0683806e-18
1.0367372e-18
1.0073859e-18
9.8003578e-19
9.5459976e-19
9.3100633e-19
9.091343e-19
8.8893662e-19
8.704225e-19
8.532724e-19
8.3750606e-19
8.2275951e-19
8.0809658e-19
7.9195846e-19
7.7816298e-19
7.7369441e-19
7.7248983e-19
7.7440037e-19
7.7981893e-19
7.8923831e-19
8.0328408e-19
8.2240782e-19
8.461831e-19
8.699149e-19
8.9893189e-19
9.531167e-19
1.0213304e-18
1.106968e-18
1.214516e-18
1.3498762e-18
1.5194569e-18
1.7255348e-18
1.9497648e-18
2.2781381e-18
2.7034721e-18
3.2379497e-18
3.9057757e-18
4.7307584e-18
5.7299216e-18
6.9070784e-18
8.2569537e-18
9.7271214e-18
1.119667e-17
1.2539757e-17
1.3679723e-17
1.4595729e-17
1.5342848e-17
1.5949646e-17
1.6456229e-17
1.6885545e-17
1.724623e-17
1.7545141e-17
1.7788367e-17
1.7977939e-17
1.8111932e-17
1.8186947e-17
1.8204853e-17
1.8174021e-17
1.8104493e-17
1.8005637e-17
1.7885262e-17
1.7749719e-17
1.7604116e-17
1.7452236e-17
1.7296869e-17
1.7140052e-17
1.6983371e-17
1.68279e-17
1.6674344e-17
1.6523049e-17
1.6374221e-17
1.6228171e-17
1.6084201e-17
1.594272e-17
1.5800686e-17
1.5656805e-17
1.5520484e-17
1.5321413e-17
1.9240325e-07
1.8785515e-07
1.8831896e-07
1.8870817e-07
1.8893934e-07
1.8905587e-07
1.891178e-07
1.8915645e-07
1.8918431e-07
1.8920653e-07
1.8922559e-07
1.8924302e-07
1.8925992e-07
1.8927725e-07
1.8929598e-07
1.8931696e-07
1.8934249e-07
1.8936983e-07
1.8942319e-07
1.8941183e-07
1.8973141e-07
1.8921885e-07
1.8556257e-07
8.9477977e-10
2.770526e-16
3.4026375e-17
1.7293571e-17
1.1691274e-17
8.9815041e-18
7.3360201e-18
6.2209559e-18
5.4038637e-18
4.7763377e-18
4.2788573e-18
3.8739054e-18
3.5374176e-18
3.2541579e-18
3.01405e-18
2.8087757e-18
2.6304657e-18
2.4735809e-18
2.3343594e-18
2.2099719e-18
2.0984293e-18
1.9978676e-18
1.9068689e-18
1.8242335e-18
1.7489666e-18
1.6802255e-18
1.6173506e-18
1.5595362e-18
1.5061857e-18
1.4562228e-18
1.4094165e-18
1.3653147e-18
1.3232205e-18
1.2825718e-18
1.2441367e-18
1.2115524e-18
1.1857625e-18
1.1632521e-18
1.1434078e-18
1.1262198e-18
1.1117036e-18
1.0997072e-18
1.090282e-18
1.0836331e-18
1.0795394e-18
1.0782153e-18
1.0793524e-18
1.0818122e-18
1.0834726e-18
1.0899537e-18
1.1120806e-18
1.1417125e-18
1.1792298e-18
1.2259315e-18
1.283429e-18
1.3537324e-18
1.4387422e-18
1.539025e-18
1.6470414e-18
1.7729912e-18
1.9558648e-18
2.1791676e-18
2.4530903e-18
2.7910315e-18
3.2107783e-18
3.7321559e-18
4.3692691e-18
5.088288e-18
6.0875345e-18
7.3670649e-18
8.9708633e-18
1.0971009e-17
1.3438654e-17
1.642533e-17
1.9944029e-17
2.3982124e-17
2.8387746e-17
3.2804782e-17
3.6858214e-17
4.030402e-17
4.308557e-17
4.5348789e-17
4.7189121e-17
4.8724077e-17
5.0023343e-17
5.111385e-17
5.2017486e-17
5.275348e-17
5.3328275e-17
5.3736273e-17
5.3967212e-17
5.4026517e-17
5.3939386e-17
5.3736035e-17
5.3444555e-17
5.3088432e-17
5.2686759e-17
5.2254811e-17
5.1803906e-17
5.1342449e-17
5.0876564e-17
5.0410962e-17
4.9948853e-17
4.949238e-17
4.9042617e-17
4.8600186e-17
4.8166033e-17
4.7737997e-17
4.7317756e-17
4.6895354e-17
4.6469517e-17
4.6064473e-17
4.5472862e-17
1.9239818e-07
1.8783209e-07
1.882993e-07
1.8868951e-07
1.889213e-07
1.8903821e-07
1.8910035e-07
1.8913914e-07
1.8916711e-07
1.891894e-07
1.8920852e-07
1.89226e-07
1.8924295e-07
1.8926031e-07
1.8927908e-07
1.8930008e-07
1.8932564e-07
1.8935299e-07
1.8940637e-07
1.8939498e-07
1.8971445e-07
1.8920334e-07
1.8554843e-07
9.1813054e-10
3.728208e-16
3.6509639e-17
1.858961e-17
1.2591071e-17
9.7368892e-18
8.0127974e-18
6.8397622e-18
5.9758385e-18
5.307481e-18
4.7738783e-18
4.3369013e-18
3.9722815e-18
3.665918e-18
3.4095133e-18
3.1943437e-18
3.0092582e-18
2.8469699e-18
2.7032478e-18
2.5752764e-18
2.4611287e-18
2.3589602e-18
2.2673372e-18
2.1850407e-18
2.1110641e-18
2.0445409e-18
1.9848817e-18
1.9309396e-18
1.8819843e-18
1.836814e-18
1.7953404e-18
1.7571231e-18
1.7213507e-18
1.6873558e-18
1.6563e-18
1.6334408e-18
1.6203988e-18
1.6124714e-18
1.6089664e-18
1.6100584e-18
1.6159696e-18
1.6264667e-18
1.6418384e-18
1.6627695e-18
1.6893204e-18
1.7221972e-18
1.7613009e-18
1.8051787e-18
1.8506621e-18
1.9073354e-18
1.9942801e-18
2.0992176e-18
2.2239285e-18
2.3719721e-18
2.5477595e-18
2.7567777e-18
3.0046667e-18
3.2949695e-18
3.6150421e-18
3.9864767e-18
4.4896643e-18
5.0991806e-18
5.8422269e-18
6.7545002e-18
7.8836285e-18
9.2836296e-18
1.1001857e-17
1.2982276e-17
1.5668084e-17
1.9089822e-17
2.3375626e-17
2.8717837e-17
3.5306667e-17
4.3281101e-17
5.2678551e-17
6.3471375e-17
7.5264205e-17
8.7116603e-17
9.8027241e-17
1.0731778e-16
1.1483703e-16
1.2094749e-16
1.2591703e-16
1.3005724e-16
1.3355689e-16
1.3649064e-16
1.3891999e-16
1.4089847e-16
1.4244427e-16
1.4354281e-16
1.4416662e-16
1.4433014e-16
1.4410098e-16
1.435602e-16
1.4278309e-16
1.4183264e-16
1.4076007e-16
1.3960626e-16
1.3840155e-16
1.3716848e-16
1.3592348e-16
1.3467913e-16
1.3344403e-16
1.3222395e-16
1.310218e-16
1.2983924e-16
1.2867882e-16
1.275347e-16
1.2641173e-16
1.2528257e-16
1.2414591e-16
1.2306345e-16
1.214823e-16
1.9239204e-07
1.8780394e-07
1.882753e-07
1.8866672e-07
1.8889929e-07
1.8901665e-07
1.8907906e-07
1.8911802e-07
1.8914611e-07
1.891685e-07
1.891877e-07
1.8920523e-07
1.8922223e-07
1.8923964e-07
1.8925845e-07
1.8927949e-07
1.8930508e-07
1.8933244e-07
1.8938586e-07
1.8937441e-07
1.8969375e-07
1.891844e-07
1.8553213e-07
9.4435467e-10
5.8585412e-16
4.3087395e-17
2.2011711e-17
1.4959554e-17
1.1706348e-17
9.7624204e-18
8.4305082e-18
7.4408023e-18
6.6704917e-18
6.0524141e-18
5.5440619e-18
5.1189313e-18
4.7621875e-18
4.4654793e-18
4.2189801e-18
4.0090684e-18
3.8260077e-18
3.6644958e-18
3.5216185e-18
3.3954831e-18
3.2841868e-18
3.1861839e-18
3.1001465e-18
3.0249878e-18
2.9597431e-18
2.9039481e-18
2.8556421e-18
2.8137624e-18
2.7768692e-18
2.7451837e-18
2.7183092e-18
2.6952253e-18
2.6750779e-18
2.6598345e-18
2.6579918e-18
2.6725377e-18
2.6964502e-18
2.7289211e-18
2.7705447e-18
2.8220143e-18
2.8829059e-18
2.9540529e-18
3.0372449e-18
3.1332744e-18
3.2440065e-18
3.3699691e-18
3.5093449e-18
3.6572167e-18
3.8313364e-18
4.0674391e-18
4.3456681e-18
4.671215e-18
5.0528934e-18
5.501637e-18
6.0310526e-18
6.655698e-18
7.3869412e-18
8.2039049e-18
9.1532042e-18
1.0399962e-17
1.1906146e-17
1.3738576e-17
1.5984859e-17
1.8762279e-17
2.2205555e-17
2.6446014e-17
3.1405364e-17
3.803219e-17
4.6450154e-17
5.6991516e-17
7.012943e-17
8.6332354e-17
1.0594486e-16
1.290638e-16
1.556326e-16
1.8469851e-16
2.1396816e-16
2.4097721e-16
2.6400837e-16
2.8268178e-16
2.9784466e-16
3.1017539e-16
3.2043821e-16
3.2910277e-16
3.3635843e-16
3.4236242e-16
3.4725067e-16
3.5106995e-16
3.5378513e-16
3.5532868e-16
3.5573615e-16
3.5517449e-16
3.5384378e-16
3.5192979e-16
3.49588e-16
3.4694484e-16
3.4410115e-16
3.4113174e-16
3.3809229e-16
3.3502334e-16
3.3195591e-16
3.2891122e-16
3.259035e-16
3.2293997e-16
3.2002473e-16
3.171641e-16
3.1434359e-16
3.1157551e-16
3.0879179e-16
3.0599102e-16
3.033227e-16
2.9942499e-16
1.9238469e-07
1.8777002e-07
1.8824641e-07
1.886393e-07
1.8887279e-07
1.889907e-07
1.8905344e-07
1.8909261e-07
1.8912085e-07
1.8914335e-07
1.8916264e-07
1.8918025e-07
1.8919731e-07
1.8921477e-07
1.8923363e-07
1.8925471e-07
1.8928034e-07
1.8930772e-07
1.8936118e-07
1.8934967e-07
1.8966884e-07
1.8916158e-07
1.8551393e-07
9.7406408e-10
1.0295303e-15
5.8867522e-17
3.0203528e-17
2.0616882e-17
1.6377651e-17
1.3883846e-17
1.2157962e-17
1.0859367e-17
9.8407877e-18
9.018489e-18
8.3386513e-18
7.7687472e-18
7.2913749e-18
6.8971936e-18
6.5735661e-18
6.3016836e-18
6.0664102e-18
5.8599662e-18
5.6790989e-18
5.5219017e-18
5.3862621e-18
5.2703279e-18
5.1724824e-18
5.0914216e-18
5.0259321e-18
4.9757952e-18
4.9372474e-18
4.9084806e-18
4.8876561e-18
4.8756605e-18
4.8722414e-18
4.8760393e-18
4.8859064e-18
4.9053971e-18
4.9491985e-18
5.0229505e-18
5.1153439e-18
5.2254501e-18
5.3547803e-18
5.5050603e-18
5.6754462e-18
5.8679681e-18
6.0868454e-18
6.3346355e-18
6.615797e-18
6.932497e-18
7.2827698e-18
7.6590509e-18
8.0952626e-18
8.6594188e-18
9.3185857e-18
1.0085778e-17
1.0981429e-17
1.2030921e-17
1.3265881e-17
1.4720978e-17
1.6426474e-17
1.8349673e-17
2.0589912e-17
2.3479404e-17
2.6966616e-17
3.1206087e-17
3.6400328e-17
4.2821121e-17
5.0783735e-17
6.0616854e-17
7.2244307e-17
8.7620254e-17
1.0711322e-16
1.3152168e-16
1.6194182e-16
1.9945986e-16
2.4487892e-16
2.9843202e-16
3.6000908e-16
4.274402e-16
4.954504e-16
5.583283e-16
6.1200832e-16
6.5558948e-16
6.9095755e-16
7.1971587e-16
7.4363168e-16
7.6380302e-16
7.8067917e-16
7.9463548e-16
8.0599474e-16
8.1486919e-16
8.2117882e-16
8.2476734e-16
8.2571739e-16
8.2441669e-16
8.2133e-16
8.1688867e-16
8.1145384e-16
8.0531911e-16
7.9871864e-16
7.9182612e-16
7.847709e-16
7.776471e-16
7.7052676e-16
7.6345911e-16
7.5647727e-16
7.4959797e-16
7.4283078e-16
7.3619037e-16
7.2964303e-16
7.2321766e-16
7.1675565e-16
7.1025535e-16
7.0406146e-16
6.9501374e-16
1.9237602e-07
1.8772957e-07
1.8821198e-07
1.8860662e-07
1.8884122e-07
1.889598e-07
1.8902293e-07
1.8906235e-07
1.8909077e-07
1.891134e-07
1.891328e-07
1.891505e-07
1.8916764e-07
1.8918517e-07
1.8920408e-07
1.892252e-07
1.8925088e-07
1.8927829e-07
1.8933179e-07
1.8932021e-07
1.896392e-07
1.8913438e-07
1.8549427e-07
1.0080001e-09
1.9196977e-15
9.3340747e-17
4.808638e-17
3.2957618e-17
2.6542575e-17
2.2830649e-17
2.0234616e-17
1.8256079e-17
1.669306e-17
1.542448e-17
1.4371054e-17
1.3486501e-17
1.2746928e-17
1.2139783e-17
1.1646117e-17
1.1236833e-17
1.0885514e-17
1.0579049e-17
1.0313371e-17
1.008647e-17
9.8957213e-18
9.7385751e-18
9.6127623e-18
9.5164867e-18
9.4479824e-18
9.4075307e-18
9.387539e-18
9.3846117e-18
9.3963063e-18
9.42491e-18
9.4705744e-18
9.5314449e-18
9.605966e-18
9.7007393e-18
9.8419386e-18
1.0040219e-17
1.0276625e-17
1.0550219e-17
1.0864456e-17
1.122325e-17
1.1624869e-17
1.2073887e-17
1.2579685e-17
1.3148844e-17
1.379141e-17
1.4513487e-17
1.5313937e-17
1.6181668e-17
1.7181792e-17
1.8443266e-17
1.9911683e-17
2.1617234e-17
2.3605135e-17
2.5931631e-17
2.8666895e-17
3.1889172e-17
3.5671766e-17
3.9967801e-17
4.4984526e-17
5.1375495e-17
5.9085253e-17
6.8455622e-17
7.9934371e-17
9.4123622e-17
1.1172732e-16
1.3351524e-16
1.5950435e-16
1.9360011e-16
2.3676061e-16
2.9080431e-16
3.5815978e-16
4.4123521e-16
5.4181852e-16
6.6044132e-16
7.9689768e-16
9.4644858e-16
1.0974771e-15
1.2373262e-15
1.3568332e-15
1.4539592e-15
1.5327472e-15
1.5968027e-15
1.6500362e-15
1.6948982e-15
1.7324035e-15
1.7634038e-15
1.7886285e-15
1.8083332e-15
1.8223434e-15
1.8303131e-15
1.8324259e-15
1.8295426e-15
1.822695e-15
1.8128403e-15
1.8007803e-15
1.7871667e-15
1.7725192e-15
1.7572234e-15
1.7415664e-15
1.725757e-15
1.7099553e-15
1.6942704e-15
1.6787758e-15
1.6635089e-15
1.6484907e-15
1.6337539e-15
1.6192236e-15
1.6049642e-15
1.5906232e-15
1.5761985e-15
1.5624527e-15
1.5423735e-15
1.9236589e-07
1.8768174e-07
1.8817128e-07
1.8856801e-07
1.8880393e-07
1.8892329e-07
1.889869e-07
1.8902662e-07
1.8905524e-07
1.8907804e-07
1.8909756e-07
1.8911537e-07
1.891326e-07
1.891502e-07
1.8916918e-07
1.8919037e-07
1.8921609e-07
1.8924353e-07
1.8929709e-07
1.8928542e-07
1.896042e-07
1.8910221e-07
1.8547377e-07
1.0470666e-09
3.6630039e-15
1.6528231e-16
8.5396531e-17
5.8697445e-17
4.7723979e-17
4.1456444e-17
3.7037129e-17
3.3635845e-17
3.0936137e-17
2.8737846e-17
2.6907691e-17
2.5370049e-17
2.408629e-17
2.3035641e-17
2.2185762e-17
2.1487755e-17
2.0892332e-17
2.0375348e-17
1.9930972e-17
1.9556919e-17
1.9249454e-17
1.9004545e-17
1.8818546e-17
1.8688619e-17
1.8611839e-17
1.8589508e-17
1.8606127e-17
1.8655024e-17
1.8732943e-17
1.884506e-17
1.8992542e-17
1.9172909e-17
1.9384142e-17
1.9638593e-17
1.9983334e-17
2.0438337e-17
2.0971368e-17
2.1581901e-17
2.2277408e-17
2.3066331e-17
2.394511e-17
2.4923587e-17
2.6021832e-17
2.7255235e-17
2.8645535e-17
3.0207779e-17
3.1944504e-17
3.3840923e-17
3.6021257e-17
3.8727502e-17
4.1871668e-17
4.5520458e-17
4.9770565e-17
5.4742415e-17
6.0586423e-17
6.7472499e-17
7.5568034e-17
8.4815586e-17
9.5638732e-17
1.0929848e-16
1.2577379e-16
1.457958e-16
1.7032197e-16
2.0064189e-16
2.3827292e-16
2.8493544e-16
3.4099174e-16
4.1406839e-16
5.0646347e-16
6.221577e-16
7.6635309e-16
9.4421089e-16
1.1595763e-15
1.4136151e-15
1.7059538e-15
2.0265639e-15
2.3506868e-15
2.6512052e-15
2.9082177e-15
3.117276e-15
3.2868036e-15
3.4246161e-15
3.5390808e-15
3.6354793e-15
3.7160196e-15
3.7825621e-15
3.8366941e-15
3.8789762e-15
3.9090388e-15
3.9261419e-15
3.9306796e-15
3.9244989e-15
3.909813e-15
3.888676e-15
3.8628078e-15
3.8336066e-15
3.8021872e-15
3.7693767e-15
3.7357912e-15
3.7018789e-15
3.6679827e-15
3.6343371e-15
3.6010998e-15
3.5683506e-15
3.5361351e-15
3.5045231e-15
3.4733541e-15
3.4427665e-15
3.4120034e-15
3.381062e-15
3.351576e-15
3.3085042e-15
1.9235413e-07
1.8762553e-07
1.8812351e-07
1.8852269e-07
1.8876018e-07
1.8888047e-07
1.8894463e-07
1.889847e-07
1.8901357e-07
1.8903656e-07
1.8905623e-07
1.8907417e-07
1.890915e-07
1.891092e-07
1.8912826e-07
1.8914951e-07
1.891753e-07
1.8920277e-07
1.8925639e-07
1.8924463e-07
1.8956316e-07
1.8906442e-07
1.8545331e-07
1.0923733e-09
7.0193589e-15
3.1145706e-16
1.6120091e-16
1.1098813e-16
9.0737766e-17
7.926672e-17
7.1137191e-17
6.4842612e-17
5.9834889e-17
5.5751848e-17
5.2349395e-17
4.9491474e-17
4.7107742e-17
4.5158324e-17
4.3583355e-17
4.2296477e-17
4.120293e-17
4.025625e-17
3.944698e-17
3.8772225e-17
3.8225954e-17
3.7801105e-17
3.7491217e-17
3.7291327e-17
3.7196158e-17
3.720907e-17
3.7298563e-17
3.7451341e-17
3.7663266e-17
3.7945361e-17
3.8301173e-17
3.8727637e-17
3.9222457e-17
3.9808708e-17
4.0570964e-17
4.1546308e-17
4.2679913e-17
4.3972824e-17
4.544067e-17
4.7101079e-17
4.8946801e-17
5.0998382e-17
5.3297609e-17
5.5878567e-17
5.8786969e-17
6.2057355e-17
6.5703086e-17
6.9708034e-17
7.4307097e-17
7.99494e-17
8.6497339e-17
9.4093376e-17
1.0293902e-16
1.132855e-16
1.2544694e-16
1.3978185e-16
1.5665715e-16
1.7602603e-16
1.9873919e-16
2.2719245e-16
2.6150733e-16
3.0320809e-16
3.5429054e-16
4.1744625e-16
4.9585925e-16
5.9324403e-16
7.1092496e-16
8.6353952e-16
1.0563111e-15
1.2976974e-15
1.5985581e-15
1.9696723e-15
2.4190944e-15
2.9493054e-15
3.5596449e-15
4.2293951e-15
4.9070922e-15
5.5361171e-15
6.0744433e-15
6.5126383e-15
6.8678741e-15
7.1566236e-15
7.3963409e-15
7.5981076e-15
7.7665938e-15
7.9057466e-15
8.0189235e-15
8.1073172e-15
8.1701648e-15
8.2059223e-15
8.2154146e-15
8.2025023e-15
8.1718121e-15
8.1276374e-15
8.0735731e-15
8.0125416e-15
7.9468736e-15
7.8782977e-15
7.8081016e-15
7.7372221e-15
7.6663762e-15
7.596054e-15
7.526585e-15
7.4581362e-15
7.3908028e-15
7.3247308e-15
7.2595847e-15
7.1956538e-15
7.1313559e-15
7.0666866e-15
7.0050582e-15
6.9150341e-15
1.923406e-07
1.8755985e-07
1.8806772e-07
1.884698e-07
1.8870913e-07
1.8883051e-07
1.8889532e-07
1.889358e-07
1.8896497e-07
1.8898818e-07
1.8900804e-07
1.8902612e-07
1.8904358e-07
1.8906138e-07
1.8908053e-07
1.8910187e-07
1.8912773e-07
1.8915523e-07
1.8920893e-07
1.8919705e-07
1.8951533e-07
1.8902027e-07
1.8543409e-07
1.1452939e-09
1.3399259e-14
6.0333072e-16
3.1256751e-16
2.1539856e-16
1.7661225e-16
1.5474283e-16
1.3920134e-16
1.2712868e-16
1.1751712e-16
1.0967927e-16
1.0314815e-16
9.7665917e-17
9.3096094e-17
8.9356731e-17
8.6332518e-17
8.3866986e-17
8.1776123e-17
7.996905e-17
7.8429033e-17
7.7151922e-17
7.6127064e-17
7.5341327e-17
7.4782622e-17
7.4441739e-17
7.4308705e-17
7.4391004e-17
7.4625222e-17
7.4984865e-17
7.5465344e-17
7.6089365e-17
7.6865779e-17
7.7791533e-17
7.8864897e-17
8.0128787e-17
8.1734427e-17
8.3750094e-17
8.6083179e-17
8.8739128e-17
9.1749883e-17
9.5151448e-17
9.8929228e-17
1.031252e-16
1.0782462e-16
1.1310038e-16
1.1904652e-16
1.2573887e-16
1.3321816e-16
1.4147603e-16
1.5095295e-16
1.6247447e-16
1.7583526e-16
1.9133213e-16
2.0937681e-16
2.3048307e-16
2.5529388e-16
2.8454932e-16
3.1903003e-16
3.5876495e-16
4.054388e-16
4.6355036e-16
5.3362984e-16
6.187931e-16
7.2311914e-16
8.5211518e-16
1.0123255e-15
1.2115636e-15
1.453523e-15
1.765941e-15
2.1602427e-15
2.6539917e-15
3.2694113e-15
4.0285699e-15
4.9479986e-15
6.0328568e-15
7.2820024e-15
8.6534169e-15
1.0042168e-14
1.1332368e-14
1.2437173e-14
1.3337018e-14
1.406633e-14
1.4659093e-14
1.5151002e-14
1.5564834e-14
1.5910252e-14
1.6195445e-14
1.642736e-14
1.6608477e-14
1.6737249e-14
1.6810519e-14
1.6829978e-14
1.6803536e-14
1.6740672e-14
1.6650182e-14
1.6539431e-14
1.6414405e-14
1.627988e-14
1.6139398e-14
1.5995596e-14
1.5850393e-14
1.5705259e-14
1.5561197e-14
1.5418883e-14
1.5278659e-14
1.514072e-14
1.5005365e-14
1.4871907e-14
1.4740939e-14
1.4609218e-14
1.4476738e-14
1.4350486e-14
1.4166063e-14
1.9232514e-07
1.8748343e-07
1.8800288e-07
1.8840837e-07
1.8864985e-07
1.8877251e-07
1.8883807e-07
1.8887904e-07
1.8890855e-07
1.8893203e-07
1.889521e-07
1.8897035e-07
1.8898796e-07
1.8900588e-07
1.8902515e-07
1.8904657e-07
1.8907252e-07
1.8910007e-07
1.8915386e-07
1.8914184e-07
1.8945985e-07
1.8896891e-07
1.8541771e-07
1.2075423e-09
2.5405258e-14
1.1790585e-15
6.1116616e-16
4.2136676e-16
3.4600771e-16
3.0362181e-16
2.7345882e-16
2.4998986e-16
2.313067e-16
2.1607785e-16
2.0339428e-16
1.927562e-16
1.8389206e-16
1.7663039e-16
1.7074575e-16
1.6595128e-16
1.6188942e-16
1.583819e-16
1.553976e-16
1.5292988e-16
1.5095894e-16
1.4945965e-16
1.4840882e-16
1.4778887e-16
1.4758056e-16
1.4779956e-16
1.483195e-16
1.4908789e-16
1.5010147e-16
1.5140605e-16
1.530219e-16
1.5494798e-16
1.5718559e-16
1.5981418e-16
1.6310261e-16
1.6717577e-16
1.7187886e-16
1.7722817e-16
1.8328788e-16
1.9013037e-16
1.9772657e-16
2.061609e-16
2.1560461e-16
2.2620972e-16
2.3816656e-16
2.516365e-16
2.6672405e-16
2.8345397e-16
3.0264644e-16
3.2580746e-16
3.5265118e-16
3.8378435e-16
4.2003547e-16
4.6243913e-16
5.1229109e-16
5.710935e-16
6.404699e-16
7.2069165e-16
8.1505832e-16
9.3194519e-16
1.0729003e-15
1.2441961e-15
1.4540428e-15
1.7135354e-15
2.03591e-15
2.4372737e-15
2.9267629e-15
3.5564544e-15
4.3506357e-15
5.3451359e-15
6.584736e-15
8.1139215e-15
9.9660872e-15
1.2151773e-14
1.466904e-14
1.7433881e-14
2.023552e-14
2.2840407e-14
2.5072091e-14
2.6890692e-14
2.8364345e-14
2.9561996e-14
3.0555535e-14
3.1391032e-14
3.2088139e-14
3.266355e-14
3.3131397e-14
3.3496744e-14
3.37565e-14
3.3904306e-14
3.3943576e-14
3.3890265e-14
3.3763492e-14
3.3580996e-14
3.3357634e-14
3.3105482e-14
3.2834169e-14
3.2550838e-14
3.2260812e-14
3.196796e-14
3.1675246e-14
3.1384694e-14
3.1097667e-14
3.0814855e-14
3.0536652e-14
3.0263659e-14
2.9994492e-14
2.9730347e-14
2.9464684e-14
2.9197492e-14
2.894286e-14
2.8570903e-14
1.9230759e-07
1.8739488e-07
1.8792781e-07
1.8833731e-07
1.8858128e-07
1.8870544e-07
1.8877189e-07
1.8881343e-07
1.8884335e-07
1.8886713e-07
1.8888744e-07
1.889059e-07
1.8892368e-07
1.8894175e-07
1.8896114e-07
1.8898267e-07
1.8900871e-07
1.8903632e-07
1.8909021e-07
1.8907803e-07
1.8939576e-07
1.8890932e-07
1.854063e-07
1.2812729e-09
4.7813133e-14
2.3045786e-15
1.1949834e-15
8.2407943e-16
6.7721349e-16
5.9471651e-16
5.359708e-16
4.9022639e-16
4.5382585e-16
4.241746e-16
3.9949549e-16
3.7881302e-16
3.6158394e-16
3.4745077e-16
3.3597157e-16
3.2661792e-16
3.1869709e-16
3.1186025e-16
3.0604824e-16
3.0124948e-16
2.9742627e-16
2.9453005e-16
2.9251587e-16
2.9134981e-16
2.9099458e-16
2.9148193e-16
2.9256232e-16
2.941325e-16
2.9619562e-16
2.9884269e-16
3.0211799e-16