/*--------------------------------*- C++ -*----------------------------------*\
| =========                 |                                                 |
| \\      /  F ield         | OpenFOAM: The Open Source CFD Toolbox           |
|  \\    /   O peration     | Version:  2206                                  |
|   \\  /    A nd           | Website:  www.openfoam.com                      |
|    \\/     M anipulation  |                                                 |
\*---------------------------------------------------------------------------*/
FoamFile
{
    version     2.0;
    format      ascii;
    arch        "LSB;label=32;scalar=64";
    class       volScalarField;
    location    "1900";
    object      omega;
}
// * * * * * * * * * * * * * * * * * * * * * * * * * * * * * * * * * * * * * //

dimensions      [0 0 -1 0 0 0 0];

internalField   nonuniform List<scalar> 
13056
(
448.86495
320.88544
312.98713
311.23958
310.87842
310.74693
310.66406
310.60836
310.57189
310.54932
310.53753
310.53484
310.54047
310.55437
310.57691
310.60986
310.6538
310.71826
310.79044
310.9454
311.06046
310.86752
324.21209
19549.572
1.1944345e+09
1.1944345e+09
1.1944345e+09
1.1944345e+09
1.1944345e+09
1.1944345e+09
1.1944345e+09
1.1944345e+09
1.1944345e+09
1.1944345e+09
1.1944345e+09
1.1944345e+09
1.1944345e+09
1.1944345e+09
1.1944345e+09
1.1944345e+09
1.1944345e+09
1.1944345e+09
1.1944345e+09
1.1944345e+09
1.1944345e+09
1.1944345e+09
1.1944345e+09
1.1944345e+09
1.1944345e+09
1.1944345e+09
1.1944345e+09
1.1944345e+09
1.1944345e+09
1.1944345e+09
1.1944345e+09
1.1944345e+09
1.1944345e+09
1.1944345e+09
1.1944345e+09
1.1944345e+09
1.1944345e+09
1.1944345e+09
1.1944345e+09
1.1944345e+09
1.1944345e+09
1.1944345e+09
1.1944345e+09
1.1944345e+09
1.1944345e+09
1.1944345e+09
1.1944345e+09
1.1944345e+09
1.1944345e+09
1.1944345e+09
1.1944345e+09
1.1944345e+09
1.1944345e+09
1.1944345e+09
1.1944345e+09
1.1944345e+09
1.1944345e+09
1.1944345e+09
1.1944345e+09
1.1944345e+09
1.1944345e+09
1.1944345e+09
1.1944345e+09
1.1944345e+09
1.1944345e+09
1.1944345e+09
1.1944345e+09
1.1944345e+09
1.1944345e+09
1.1944345e+09
1.1944345e+09
1.1944345e+09
1.1944345e+09
1.1944345e+09
1.1944345e+09
1.1944345e+09
1.1944345e+09
1.1944345e+09
1.1944345e+09
1.1944345e+09
1.1944345e+09
1.1944345e+09
1.1944345e+09
1.1944345e+09
1.1944345e+09
1.1944345e+09
1.1944345e+09
1.1944345e+09
1.1944345e+09
1.1944345e+09
1.1944345e+09
1.1944345e+09
1.1944345e+09
1.1944345e+09
1.1944345e+09
1.1944345e+09
1.1944345e+09
1.1944345e+09
1.1944345e+09
1.1944345e+09
1.1944345e+09
1.1944345e+09
1.1944345e+09
1.1944345e+09
1.1944345e+09
1.1944345e+09
1.1944345e+09
1.1944345e+09
1.1944345e+09
1.1944345e+09
1.1944345e+09
1.1944345e+09
448.85461
320.85994
312.96065
311.21264
310.85132
310.71978
310.6369
310.58118
310.5447
310.52212
310.51032
310.50763
310.51325
310.52715
310.54969
310.58264
310.62658
310.69103
310.76321
310.91817
311.03325
310.84009
324.18254
19259.368
1.9586948e+08
1.9626965e+08
1.9626964e+08
1.9626964e+08
1.9626965e+08
1.9626966e+08
1.9626967e+08
1.9626968e+08
1.9626969e+08
1.962697e+08
1.9626971e+08
1.9626972e+08
1.9626973e+08
1.9626974e+08
1.9626974e+08
1.9626975e+08
1.9626976e+08
1.9626977e+08
1.9626978e+08
1.9626979e+08
1.9626981e+08
1.9626982e+08
1.9626983e+08
1.9626984e+08
1.9626986e+08
1.9626988e+08
1.9626989e+08
1.9626991e+08
1.9626993e+08
1.9626995e+08
1.9626998e+08
1.9627001e+08
1.9627004e+08
1.9627008e+08
1.9627012e+08
1.9627015e+08
1.9627019e+08
1.9627023e+08
1.9627028e+08
1.9627033e+08
1.9627038e+08
1.9627044e+08
1.9627051e+08
1.9627059e+08
1.9627069e+08
1.962708e+08
1.9627095e+08
1.9627115e+08
1.9627137e+08
1.9627153e+08
1.9627173e+08
1.9627195e+08
1.9627222e+08
1.9627254e+08
1.9627294e+08
1.9627344e+08
1.9627413e+08
1.9627527e+08
1.9627664e+08
1.9627755e+08
1.9627866e+08
1.9628003e+08
1.9628176e+08
1.9628402e+08
1.9628713e+08
1.9629247e+08
1.9630436e+08
1.9631055e+08
1.9631654e+08
1.9632399e+08
1.9633322e+08
1.9634461e+08
1.9635864e+08
1.9637617e+08
1.9639886e+08
1.9642881e+08
1.9646631e+08
1.9650781e+08
1.9654364e+08
1.9657487e+08
1.9659568e+08
1.966112e+08
1.9662179e+08
1.9662877e+08
1.9663328e+08
1.9663634e+08
1.9663864e+08
1.9664049e+08
1.9664202e+08
1.9664324e+08
1.9664415e+08
1.9664479e+08
1.9664524e+08
1.9664553e+08
1.9664571e+08
1.9664581e+08
1.9664585e+08
1.9664584e+08
1.966458e+08
1.9664573e+08
1.9664564e+08
1.9664554e+08
1.9664543e+08
1.9664531e+08
1.966452e+08
1.9664509e+08
1.9664497e+08
1.9664491e+08
1.9664476e+08
1.9664497e+08
1.9664489e+08
1.9664476e+08
448.82156
320.78014
312.87793
311.12853
310.76672
310.63503
310.55208
310.49632
310.45982
310.43722
310.4254
310.42269
310.42831
310.4422
310.46473
310.49767
310.5416
310.60605
310.67822
310.83315
310.9483
310.7545
324.0933
18922.063
64127270
64221365
64221357
64221360
64221373
64221390
64221408
64221425
64221452
64221488
64221531
64221580
64221627
64221661
64221676
64221687
64221697
64221708
64221719
64221731
64221745
64221759
64221775
64221793
64221813
64221835
64221860
64221888
64221936
64222004
64222099
64222234
64222422
64222642
64222793
64222840
64222874
64222912
64222957
64223007
64223065
64223132
64223211
64223356
64223574
64223933
64224595
64225825
64227077
64227286
64227440
64227626
64227891
64228302
64228943
64230120
64232737
64239987
64249119
64249968
64251035
64252540
64254838
64258841
64267530
64295319
64394001
64414808
64421096
64430270
64444154
64465994
64502105
64563843
64673155
64861193
65143714
65489608
65801563
66075729
66255420
66383886
66464453
66509782
66531822
66541279
66545022
66546487
66547140
66547499
66547726
66547878
66547981
66548047
66548087
66548110
66548118
66548115
66548105
66548091
66548072
66548048
66548023
66547997
66547971
66547946
66547918
66547905
66547871
66547919
66547901
66547870
448.76477
320.64346
312.73629
310.9845
310.62187
310.48993
310.40687
310.35104
310.31448
310.29184
310.28
310.27727
310.28287
310.29674
310.31926
310.35219
310.39611
310.46054
310.5327
310.68759
310.80286
310.60798
323.94141
18565.363
29316244
29342690
29342687
29342698
29342745
29342809
29342874
29342941
29343059
29343227
29343433
29343669
29343895
29344047
29344105
29344135
29344164
29344195
29344227
29344263
29344302
29344346
29344395
29344452
29344516
29344590
29344676
29344774
29344973
29345273
29345708
29346348
29347259
29348332
29349036
29349187
29349268
29349360
29349469
29349598
29349752
29349936
29350164
29350708
29351606
29353205
29356328
29362354
29368447
29369081
29369356
29369703
29370351
29371612
29373887
29378716
29390689
29426214
29471075
29472824
29475056
29478703
29485292
29499083
29534771
29665142
30154550
30239673
30241796
30244892
30249575
30256624
30269133
30289959
30326814
30390157
30485198
30601348
30705903
30797638
30857684
30900575
30927458
30942578
30949928
30953082
30954330
30954818
30955036
30955156
30955231
30955282
30955316
30955338
30955352
30955359
30955362
30955361
30955358
30955353
30955347
30955339
30955330
30955322
30955313
30955305
30955295
30955291
30955280
30955296
30955290
30955279
448.68265
320.44584
312.53151
310.77628
310.41245
310.28015
310.19693
310.141
310.10437
310.08168
310.06979
310.06702
310.07259
310.08645
310.10895
310.14186
310.18576
310.25018
310.32232
310.47713
310.59258
310.39615
323.72217
18193.254
16059952
16057970
16057988
16058025
16058178
16058382
16058594
16058813
16059210
16059777
16060477
16061277
16062046
16062559
16062745
16062837
16062924
16063014
16063113
16063220
16063340
16063475
16063627
16063801
16064002
16064236
16064507
16064822
16065478
16066484
16067950
16070122
16073224
16076877
16079258
16079733
16079957
16080219
16080529
16080901
16081349
16081897
16082582
16084341
16087304
16092661
16103245
16123793
16144546
16146473
16147122
16147965
16149773
16153602
16160730
16176014
16215477
16335520
16487042
16488630
16489587
16491149
16493973
16499882
16515169
16570965
16779697
16815873
16816775
16818091
16820081
16823076
16828390
16837237
16852888
16879772
16920075
16969272
17013506
17052275
17077632
17095734
17107076
17113453
17116553
17117883
17118409
17118615
17118707
17118758
17118790
17118811
17118825
17118835
17118840
17118844
17118845
17118844
17118843
17118841
17118838
17118835
17118831
17118828
17118824
17118820
17118817
17118815
17118810
17118817
17118814
17118810
448.57303
320.18181
312.25787
310.49804
310.13261
309.99983
309.9164
309.86033
309.8236
309.80083
309.78889
309.78608
309.79162
309.80544
309.82791
309.86081
309.90468
309.96908
310.04118
310.19591
310.31159
310.1131
323.42923
17804.697
9820639
9789176.7
9789245
9789342.7
9789730.2
9790250.9
9790798.9
9791367.9
9792424.9
9793950
9795835.7
9797997.6
9800074.2
9801449.3
9801928.2
9802147.8
9802350.2
9802563.6
9802796.1
9803053.1
9803340.7
9803665.7
9804036
9804462.1
9804956.3
9805537.6
9806216.2
9807010.2
9808733.5
9811405.2
9815328.1
9821175
9829554.6
9839433.7
9845822.7
9846986.9
9847446
9847990.2
9848644.8
9849442.2
9850418.9
9851633.8
9853179.2
9857608.6
9865261.3
9879371.8
9907664.3
9963073.5
10018908
10023034
10023356
10023774
10024671
10026569
10030103
10037679
10057230
10116620
10191374
10192155
10192627
10193397
10194788
10197700
10205232
10232707
10335243
10352963
10353405
10354050
10355025
10356493
10359096
10363430
10371096
10384258
10403979
10428034
10449644
10468570
10480942
10489771
10495302
10498411
10499922
10500570
10500827
10500927
10500972
10500997
10501012
10501023
10501030
10501034
10501037
10501039
10501039
10501039
10501038
10501037
10501036
10501034
10501033
10501031
10501029
10501027
10501026
10501025
10501022
10501026
10501024
10501022
448.4332
319.84444
311.90819
310.14245
309.77497
309.64157
309.55787
309.50163
309.46477
309.44191
309.42989
309.42703
309.43252
309.4463
309.46874
309.50161
309.54546
309.60982
309.68189
309.83651
309.95248
309.75136
323.05447
17397.229
6479024.6
6402692.6
6402858.7
6403067.9
6403897.2
6405024.5
6406224.6
6407481.9
6409896.3
6413420.5
6417799.4
6422831.6
6427660.2
6430825.2
6431862.7
6432278.6
6432648.2
6433038.8
6433468.3
6433947.5
6434489.1
6435107.3
6435819.2
6436647.1
6437618.3
6438773.8
6440138.6
6441754.5
6445539
6451534
6460448.2
6473865.8
6493219.9
6516062.2
6530575.6
6532624.4
6532877.4
6533174.1
6533530.9
6533965.5
6534497.9
6535160.1
6536002.4
6538417.2
6542587.9
6550276.1
6565683.2
6595821.5
6626130.8
6628365.2
6628540
6628766.6
6629253.3
6630283.2
6632200.7
6636311
6646915.4
6679094.6
6719507.5
6719928.8
6720183.6
6720599.6
6721351.4
6722924.6
6726993.5
6741830.3
6797099.6
6806626.8
6806864.6
6807211.5
6807736.2
6808526
6809926.7
6812258.2
6816381.3
6823459.3
6834059.3
6846981.1
6858583.2
6868739
6875375.3
6880109.9
6883075
6884741.8
6885551.9
6885899.4
6886037
6886090.8
6886114.8
6886128
6886136.3
6886141.9
6886145.7
6886148.1
6886149.6
6886150.4
6886150.7
6886150.6
6886150.3
6886149.7
6886149
6886148.2
6886147.2
6886146.3
6886145.3
6886144.4
6886143.4
6886142.9
6886141.7
6886143.4
6886142.8
6886141.6
448.25994
319.42541
311.47378
309.70068
309.33065
309.19648
309.11243
309.05598
309.01896
308.99598
308.98387
308.98093
308.98636
309.0001
309.02251
309.05534
309.09915
309.16348
309.2355
309.38998
309.50632
309.30195
322.58806
16967.992
4490506.3
4404126.9
4404436.1
4404807.8
4406292
4408347.1
4410572.8
4412937.8
4417783.1
4425007
4434058.3
4444498.3
4454480.2
4460860.2
4462630.4
4463010.4
4463242.8
4463471.3
4463721.1
4463999.8
4464314.7
4464674.2
4465088.2
4465569.5
4466134.3
4466806.1
4467599.6
4468539.1
4470740.7
4474225.8
4479406.6
4487201.5
4498437.2
4511683.6
4520087.3
4521271.4
4521418
4521589.8
4521796.6
4522048.4
4522356.9
4522740.5
4523228.6
4524628.1
4527044.5
4531498
4540419.2
4557854.1
4575357.2
4576644.2
4576745.1
4576876
4577157.1
4577751.8
4578859
4581232.3
4587354
4605915.9
4629182.1
4629423.9
4629570.6
4629810
4630242.7
4631148.2
4633489.9
4642026.5
4673780.5
4679241.2
4679377.6
4679576.7
4679877.7
4680330.9
4681134.5
4682472
4684837
4688896.2
4694973.1
4702377.9
4709023.5
4714838.2
4718636.9
4721346.4
4723043
4723996.7
4724460.1
4724659
4724737.7
4724768.4
4724782.2
4724789.7
4724794.5
4724797.7
4724799.8
4724801.2
4724802.1
4724802.6
4724802.7
4724802.7
4724802.5
4724802.2
4724801.8
4724801.3
4724800.7
4724800.2
4724799.6
4724799.1
4724798.5
4724798.3
4724797.6
4724798.5
4724798.2
4724797.5
448.04952
318.91501
310.9445
309.16238
308.78924
308.65411
308.56965
308.51293
308.47572
308.45259
308.44037
308.43735
308.44271
308.45639
308.47875
308.51153
308.5553
308.61958
308.69155
308.84586
308.96264
308.75433
322.01838
16514.145
3206053.5
3153322.3
3153488.8
3153712.9
3154615.5
3155865.9
3157220.2
3158659.2
3161610
3166004.7
3171508.3
3177851.9
3183911.2
3187778.9
3188849.7
3189080.3
3189221.2
3189359.9
3189511.5
3189680.6
3189871.7
3190089.9
3190341.1
3190633.2
3190975.9
3191383.6
3191865.1
3192435.2
3193772
3195886.8
3199029.9
3203757.2
3210567.3
3218588.5
3223669.8
3224384.2
3224472.9
3224576.9
3224702
3224854.4
3225041.1
3225273.3
3225568.6
3226415.8
3227878.2
3230573
3235969.5
3246507.9
3257070.7
3257845.3
3257906.2
3257985.2
3258154.9
3258513.9
3259182.2
3260614.5
3264308.8
3275503.5
3289510.8
3289656
3289744.3
3289888.4
3290148.9
3290694
3292103.8
3297242
3316331.8
3319607.2
3319689.1
3319808.7
3319989.4
3320261.6
3320744.2
3321547.3
3322967.3
3325404.1
3329051.3
3333493.7
3337479.4
3340965.5
3343242.5
3344866.3
3345883
3346454.5
3346732.2
3346851.3
3346898.5
3346916.9
3346925.1
3346929.7
3346932.5
3346934.4
3346935.7
3346936.6
3346937.1
3346937.3
3346937.4
3346937.4
3346937.3
3346937.1
3346936.9
3346936.6
3346936.3
3346935.9
3346935.6
3346935.3
3346934.9
3346934.8
3346934.3
3346934.9
3346934.7
3346934.3
447.79775
318.30211
310.30873
308.51571
308.1388
308.00252
307.91756
307.86051
307.82307
307.79976
307.78741
307.78428
307.78956
307.80317
307.82546
307.8582
307.90192
307.96615
308.03804
308.19216
308.30945
308.09646
321.332
16033.08
2338949.9
2305667.7
2305746.9
2305885
2306450.5
2307234.8
2308084.4
2308987.2
2310840.4
2313597.5
2317049
2321024.6
2324818.7
2327237.3
2327905.2
2328049.6
2328137.8
2328224.7
2328319.6
2328425.4
2328545.1
2328681.6
2328838.9
2329021.8
2329236.4
2329491.6
2329793.1
2330149.9
2330987.5
2332311.6
2334279.1
2337237.6
2341497.3
2346510.2
2349681.2
2350126.1
2350181.5
2350246.5
2350324.7
2350419.8
2350536.5
2350681.5
2350866
2351395.4
2352309
2353992.4
2357362.6
2363939.9
2370522.4
2371003.8
2371041.8
2371091
2371196.9
2371420.6
2371837.2
2372730.2
2375032.9
2382007.3
2390720.1
2390810.1
2390865
2390954.7
2391116.8
2391455.9
2392332.9
2395529
2407391.1
2409421.8
2409472.7
2409546.9
2409659.1
2409828.1
2410127.6
2410626.2
2411507.7
2413020.1
2415283.3
2418039.2
2420510.9
2422672.3
2424083.8
2425090.3
2425720.4
2426074.5
2426246.6
2426320.5
2426349.7
2426361.1
2426366.2
2426369
2426370.8
2426372
2426372.8
2426373.3
2426373.6
2426373.8
2426373.9
2426373.8
2426373.8
2426373.6
2426373.5
2426373.3
2426373.1
2426372.9
2426372.7
2426372.5
2426372.3
2426372.2
2426371.9
2426372.3
2426372.2
2426371.9
447.49998
317.57414
309.55332
307.74725
307.36585
307.22818
307.14261
307.08518
307.04746
307.02394
307.01142
307.00817
307.01335
307.02688
307.0491
307.08178
307.12543
307.1896
307.26141
307.41531
307.5332
307.31469
320.51355
15522.555
1733918.7
1712351.9
1712374.7
1712460.4
1712822.5
1713325.5
1713870.7
1714450.1
1715640.9
1717410.8
1719625.5
1722175.2
1724606.3
1726154
1726580.4
1726672.9
1726729.4
1726785
1726845.8
1726913.6
1726990.3
1727077.8
1727178.6
1727295.7
1727433.2
1727596.8
1727789.9
1728018.6
1728555.8
1729404.3
1730665
1732560.3
1735287.9
1738495.2
1740521.2
1740804.8
1740840.2
1740881.8
1740931.8
1740992.6
1741067.2
1741160
1741278
1741616.8
1742201.2
1743278
1745433.4
1749637.3
1753838.7
1754145.1
1754169.3
1754200.7
1754268.3
1754411.2
1754677.2
1755247.4
1756717.7
1761169.2
1766721.8
1766779
1766814
1766871.2
1766974.5
1767190.6
1767749.7
1769786.9
1777341.3
1778631.7
1778664
1778711.3
1778782.7
1778890.3
1779080.8
1779398.1
1779959
1780921.3
1782360.9
1784113.5
1785685.1
1787059
1787956.1
1788595.7
1788996.2
1789221.2
1789330.5
1789377.5
1789396
1789403.3
1789406.5
1789408.3
1789409.4
1789410.2
1789410.7
1789411
1789411.2
1789411.3
1789411.4
1789411.4
1789411.3
1789411.2
1789411.1
1789411
1789410.9
1789410.8
1789410.6
1789410.5
1789410.4
1789410.3
1789410.1
1789410.4
1789410.3
1789410.1
447.15116
316.7171
308.66358
306.84201
306.4553
306.31598
306.22969
306.1718
306.13374
306.10997
306.09726
306.09385
306.09891
306.11235
306.13449
306.16709
306.21067
306.27477
306.34649
306.50013
306.61871
306.3938
319.54565
14980.807
1301016
1286732.6
1286716.4
1286769.1
1287004.3
1287332.3
1287688.1
1288066.3
1288844.7
1290000.6
1291446.7
1293110.5
1294695.7
1295703.4
1295980.3
1296040.6
1296077.4
1296113.7
1296153.3
1296197.5
1296247.5
1296304.5
1296370.2
1296446.6
1296536.3
1296642.9
1296768.9
1296918
1297268.6
1297822
1298644.2
1299879.9
1301657.7
1303746.5
1305064.1
1305248.1
1305271.2
1305298.2
1305330.8
1305370.4
1305419
1305479.3
1305556.2
1305776.9
1306157.5
1306858.7
1308262
1310997.9
1313728.2
1313926.8
1313942.5
1313963
1314006.9
1314099.8
1314272.8
1314643.6
1315599.6
1318493.1
1322097.1
1322134.2
1322156.9
1322194
1322261.1
1322401.4
1322764.4
1324087.2
1328988.3
1329823.7
1329844.6
1329875.3
1329921.6
1329991.3
1330114.9
1330320.6
1330684.2
1331308
1332241.1
1333376.8
1334395
1335284.9
1335866
1336280.2
1336539.5
1336685.3
1336756.1
1336786.4
1336798.5
1336803.2
1336805.3
1336806.4
1336807.2
1336807.6
1336808
1336808.2
1336808.3
1336808.4
1336808.4
1336808.4
1336808.4
1336808.3
1336808.3
1336808.2
1336808.1
1336808
1336807.9
1336807.8
1336807.8
1336807.7
1336807.6
1336807.8
1336807.7
1336807.6
446.74583
315.71551
307.62325
305.78339
305.39041
305.24913
305.16199
305.10355
305.0651
305.04104
305.0281
305.02451
305.02943
305.04275
305.0648
305.09732
305.14081
305.20483
305.27644
305.42979
305.54916
305.3169
318.40875
14406.673
985242.31
975599.37
975554.06
975585.15
975739.42
975955.8
976190.82
976440.84
976956.45
977721.36
978678.02
979778.26
980825.6
981490.59
981672.78
981712.55
981736.86
981760.77
981786.93
981816.12
981849.14
981886.82
981930.23
981980.72
982039.95
982110.43
982193.67
982292.21
982524.14
982889.96
983433.41
984250.06
985424.51
986803.43
987671.98
987792.99
987808.19
987826.04
987847.52
987873.68
987905.73
987945.59
987996.29
988142.06
988393.3
988856.21
989782.54
991587.58
993386.64
993517.06
993527.44
993540.91
993569.9
993631.15
993745.2
993989.66
994620.01
996527.23
998899.48
998923.78
998938.74
998963.17
999007.34
999099.76
999338.82
1000209.9
1003435.1
1003983.6
1003997.4
1004017.5
1004048
1004093.8
1004175.1
1004310.4
1004549.5
1004959.7
1005573.2
1006319.8
1006989.1
1007573.9
1007955.7
1008227.9
1008398.2
1008494
1008540.5
1008560.4
1008568.3
1008571.4
1008572.8
1008573.6
1008574.1
1008574.4
1008574.6
1008574.7
1008574.8
1008574.9
1008574.9
1008574.9
1008574.8
1008574.8
1008574.8
1008574.7
1008574.7
1008574.6
1008574.6
1008574.5
1008574.4
1008574.4
1008574.3
1008574.4
1008574.4
1008574.3
446.27822
314.55239
306.41444
304.55308
304.15277
304.00917
303.92102
303.86195
303.82303
303.79862
303.78541
303.78162
303.78637
303.79956
303.82149
303.85391
303.89731
303.96124
304.03273
304.18575
304.30601
304.06544
317.08107
13799.69
751443.73
744815.42
744746.64
744763.08
744864.57
745008.42
745165.05
745331.88
745676.78
746188.05
746827.39
747562.38
748261.47
748704.75
748825.83
748852.33
748868.51
748884.45
748901.88
748921.34
748943.36
748968.5
748997.47
749031.16
749070.7
749117.75
749173.32
749239.11
749394.13
749638.46
750001.41
750546.73
751330.72
752250.56
752829.14
752909.54
752919.68
752931.57
752945.89
752963.34
752984.71
753011.29
753045.11
753142.39
753310.01
753618.83
754236.78
755440.41
756638.48
756725.08
756731.99
756740.96
756760.28
756801.09
756877.1
757040.01
757460.1
758730.83
760309.28
760325.39
760335.34
760351.61
760381
760442.53
760601.68
761181.63
763327.31
763691.43
763700.61
763713.99
763734.24
763764.76
763818.79
763908.75
764067.78
764340.52
764748.4
765244.66
765689.45
766078.07
766331.77
766512.61
766625.8
766689.4
766720.31
766733.57
766738.82
766740.87
766741.79
766742.29
766742.61
766742.82
766742.97
766743.06
766743.11
766743.14
766743.15
766743.15
766743.13
766743.11
766743.08
766743.05
766743.01
766742.97
766742.94
766742.9
766742.86
766742.84
766742.79
766742.86
766742.83
766742.78
445.74227
313.20923
305.01758
303.13108
302.7222
302.57589
302.48656
302.42674
302.38727
302.36245
302.34893
302.34489
302.34945
302.36248
302.38428
302.41659
302.45988
302.52371
302.59507
302.74773
302.86897
302.61916
315.53843
13160.214
576316.41
571677.7
571588.46
571594.54
571661.02
571757
571861.97
571974
572206.41
572550.77
572981.37
573476.22
573946.55
574244.35
574325.43
574343.2
574354.04
574364.72
574376.41
574389.47
574404.26
574421.15
574440.63
574463.29
574489.88
574521.53
574558.92
574603.19
574707.64
574872.13
575116.48
575483.57
576011.16
576629.76
577018.31
577072.17
577078.97
577086.97
577096.59
577108.31
577122.67
577140.54
577163.28
577228.73
577341.48
577549.21
577964.83
578774.07
579578.55
579636.52
579641.15
579647.18
579660.16
579687.58
579738.65
579848.13
580130.44
580984.21
582043.35
582054.12
582060.8
582071.72
582091.45
582132.75
582239.61
582629
584068.75
584312.55
584318.7
584327.68
584341.25
584361.73
584397.96
584458.3
584564.96
584747.88
585021.4
585354.14
585652.33
585912.82
586082.87
586204.08
586279.94
586322.57
586343.28
586352.17
586355.69
586357.06
586357.68
586358.02
586358.23
586358.37
586358.47
586358.53
586358.57
586358.59
586358.59
586358.59
586358.58
586358.56
586358.54
586358.52
586358.49
586358.46
586358.44
586358.41
586358.38
586358.37
586358.34
586358.38
586358.36
586358.33
445.13175
311.66602
303.41143
301.4956
301.07677
300.92729
300.83657
300.77587
300.73577
300.71047
300.69658
300.69226
300.69659
300.70944
300.7311
300.76328
300.80644
300.87015
300.94136
301.09364
301.21594
300.95609
313.75414
12489.507
443938.69
440630.74
440522.42
440520.78
440563.63
440627.59
440698.07
440773.58
440931.02
441164.28
441456.01
441791.18
442109.52
442310.8
442365.39
442377.35
442384.62
442391.8
442399.66
442408.47
442418.44
442429.85
442443.01
442458.33
442476.32
442497.73
442523.04
442553.01
442623.81
442735.25
442900.79
443149.46
443506.75
443925.41
444188
444224.3
444228.89
444234.29
444240.79
444248.72
444258.43
444270.52
444285.9
444330.22
444406.53
444547.16
444828.5
445376.1
445919.8
445958.85
445961.98
445966.05
445974.83
445993.37
446027.91
446101.96
446292.91
446870.32
447585.7
447592.96
447597.46
447604.84
447618.17
447646.08
447718.3
447981.49
448954.05
449118.38
449122.53
449128.59
449137.75
449151.58
449176.04
449216.79
449288.81
449412.33
449596.99
449821.61
450022.89
450198.7
450313.47
450395.26
450446.46
450475.22
450489.2
450495.2
450497.58
450498.51
450498.92
450499.15
450499.29
450499.39
450499.45
450499.49
450499.52
450499.53
450499.53
450499.53
450499.52
450499.51
450499.49
450499.48
450499.46
450499.44
450499.42
450499.4
450499.38
450499.37
450499.35
450499.37
450499.36
450499.34
444.44038
309.90124
301.57307
299.62314
299.19277
299.03958
298.94724
298.88552
298.84468
298.81882
298.8045
298.79985
298.80392
298.81656
298.83804
298.87008
298.9131
298.97669
299.04773
299.1996
299.32305
299.05257
311.69891
11789.826
343157.65
340750.59
340623.44
340615.65
340642.27
340684.52
340731.74
340782.63
340889.64
341048.29
341246.79
341474.84
341691.3
341827.95
341864.83
341872.88
341877.75
341882.56
341887.86
341893.8
341900.54
341908.26
341917.18
341927.57
341939.78
341954.33
341971.53
341991.91
342040.13
342115.99
342228.69
342397.96
342641.13
342925.88
343104.23
343128.81
343131.92
343135.58
343139.99
343145.37
343151.96
343160.18
343170.63
343200.78
343252.7
343348.37
343539.78
343912.22
344281.55
344307.99
344310.11
344312.87
344318.83
344331.43
344354.91
344405.25
344535.08
344927.61
345413.32
345418.22
345421.28
345426.29
345435.34
345454.3
345503.36
345682.19
346342.63
346453.99
346456.8
346460.91
346467.13
346476.52
346493.12
346520.79
346569.68
346653.53
346778.88
346931.34
347067.94
347187.24
347265.12
347320.62
347355.35
347374.88
347384.36
347388.43
347390.05
347390.68
347390.96
347391.12
347391.21
347391.28
347391.32
347391.35
347391.36
347391.37
347391.37
347391.36
347391.35
347391.35
347391.33
347391.32
347391.31
347391.29
347391.28
347391.26
347391.25
347391.24
347391.22
347391.24
347391.23
347391.21
443.66194
307.89199
299.47791
297.48844
297.04473
296.8872
296.79298
296.73007
296.68836
296.66185
296.64704
296.642
296.64577
296.65817
296.67945
296.71132
296.75419
296.81764
296.88851
297.03994
297.16459
296.88335
309.34082
11064.467
265998.19
264208.24
264061.79
264048.72
264063.9
264091.24
264122.58
264156.74
264229.55
264337.71
264473.18
264628.85
264776.52
264869.58
264894.54
264899.93
264903.16
264906.36
264909.91
264913.9
264918.45
264923.67
264929.72
264936.77
264945.08
264954.99
264966.71
264980.6
265013.56
265065.39
265142.4
265258.08
265424.21
265618.65
265740.25
265756.95
265759.06
265761.54
265764.54
265768.2
265772.69
265778.28
265785.41
265806.01
265841.46
265906.81
266037.55
266291.87
266543.77
266561.74
266563.18
266565.05
266569.11
266577.71
266593.73
266628.09
266716.72
266984.65
267315.78
267319.12
267321.2
267324.6
267330.77
267343.7
267377.17
267499.18
267949.56
268025.34
268027.25
268030.04
268034.28
268040.68
268052
268070.86
268104.2
268161.37
268246.83
268350.75
268443.86
268525.17
268578.24
268616.07
268639.75
268653.05
268659.52
268662.29
268663.39
268663.83
268664.02
268664.12
268664.19
268664.23
268664.26
268664.28
268664.29
268664.29
268664.29
268664.28
268664.27
268664.27
268664.26
268664.24
268664.23
268664.22
268664.21
268664.2
268664.19
268664.18
268664.16
268664.17
268664.17
268664.15
442.79055
305.61407
297.09978
295.06465
294.60548
294.44291
294.34649
294.28219
294.23948
294.21222
294.19683
294.19134
294.19476
294.20688
294.22793
294.25962
294.30231
294.36562
294.43629
294.58729
294.71316
294.42175
306.64528
10317.78
206660.06
205298.37
205131.58
205113.57
205120.46
205137.38
205157.74
205180.41
205229.85
205303.63
205396.22
205502.69
205603.64
205667.13
205684.01
205687.57
205689.66
205691.76
205694.09
205696.75
205699.79
205703.31
205707.4
205712.18
205717.82
205724.57
205732.56
205742.05
205764.63
205800.14
205852.91
205932.2
206046.05
206179.21
206262.38
206273.75
206275.18
206276.86
206278.89
206281.38
206284.44
206288.26
206293.13
206307.23
206331.51
206376.28
206465.86
206640.08
206812.43
206824.68
206825.65
206826.93
206829.7
206835.58
206846.54
206870.06
206930.76
207114.24
207340.74
207343
207344.42
207346.74
207350.96
207359.8
207382.71
207466.22
207774.38
207826.11
207827.42
207829.33
207832.22
207836.6
207844.34
207857.25
207880.06
207919.17
207977.64
208048.73
208112.42
208168.03
208204.34
208230.21
208246.41
208255.51
208259.93
208261.84
208262.59
208262.89
208263.02
208263.09
208263.14
208263.16
208263.18
208263.19
208263.19
208263.19
208263.19
208263.18
208263.18
208263.17
208263.16
208263.15
208263.14
208263.13
208263.12
208263.11
208263.1
208263.09
208263.08
208263.08
208263.07
208263.06
441.82085
303.04222
294.4111
292.32339
291.84631
291.67787
291.57889
291.51298
291.4691
291.44096
291.42491
291.4189
291.42191
291.43371
291.45451
291.48599
291.52848
291.59164
291.66211
291.81268
291.93974
291.6399
303.57512
9555.1342
160865.67
159806.01
159617.44
159594.49
159595.07
159604.53
159617.17
159631.84
159665.21
159715.44
159778.7
159851.55
159920.62
159963.95
159975.3
159977.58
159978.87
159980.19
159981.68
159983.41
159985.41
159987.75
159990.48
159993.7
159997.52
160002.1
160007.55
160014.02
160029.51
160053.88
160090.12
160144.57
160222.77
160314.19
160371.2
160378.96
160379.91
160381.04
160382.41
160384.1
160386.18
160388.78
160392.11
160401.78
160418.45
160449.19
160510.72
160630.36
160748.58
160756.95
160757.6
160758.46
160760.36
160764.38
160771.89
160788.04
160829.71
160955.68
161111.01
161112.55
161113.51
161115.1
161117.98
161124.04
161139.76
161197.07
161408.48
161443.9
161444.78
161446.09
161448.07
161451.07
161456.39
161465.25
161480.9
161507.74
161547.86
161596.63
161640.33
161678.48
161703.39
161721.15
161732.26
161738.51
161741.55
161742.85
161743.37
161743.58
161743.67
161743.72
161743.75
161743.77
161743.78
161743.78
161743.78
161743.78
161743.77
161743.76
161743.75
161743.74
161743.73
161743.72
161743.71
161743.7
161743.69
161743.68
161743.67
161743.66
161743.65
161743.65
161743.64
161743.63
440.74835
300.15043
291.38317
289.23495
288.73716
288.5619
288.45993
288.39216
288.34693
288.31777
288.30094
288.29434
288.29688
288.30831
288.32881
288.36005
288.40234
288.46535
288.5356
288.68576
288.8139
288.50884
300.09107
8782.8307
125424.35
124582.4
124370.33
124342.09
124337.6
124341.52
124348.62
124357.62
124379.82
124413.81
124456.91
124506.68
124553.89
124583.39
124590.94
124592.31
124593.03
124593.78
124594.67
124595.74
124597.01
124598.52
124600.31
124602.45
124605
124608.09
124611.78
124616.17
124626.8
124643.53
124668.44
124705.9
124759.7
124822.58
124861.71
124867
124867.62
124868.37
124869.29
124870.42
124871.83
124873.59
124875.86
124882.5
124893.95
124915.09
124957.43
125039.75
125121.01
125126.73
125127.16
125127.74
125129.02
125131.78
125136.93
125148.03
125176.69
125263.36
125370.09
125371.14
125371.79
125372.87
125374.85
125379.01
125389.8
125429.22
125574.57
125598.86
125599.46
125600.36
125601.72
125603.78
125607.44
125613.54
125624.31
125642.78
125670.38
125703.93
125733.99
125760.23
125777.37
125789.59
125797.23
125801.54
125803.63
125804.53
125804.89
125805.03
125805.1
125805.13
125805.15
125805.16
125805.16
125805.16
125805.16
125805.15
125805.15
125805.14
125805.13
125805.12
125805.1
125805.09
125805.08
125805.07
125805.06
125805.05
125805.04
125805.03
125805.02
125805.01
125805
125804.98
439.56985
296.91236
287.98643
285.7687
285.24696
285.06378
284.95834
284.88839
284.84159
284.81126
284.79353
284.78623
284.78824
284.79924
284.81941
284.85038
284.89243
284.95528
285.02531
285.17513
285.30415
284.99846
296.15253
8007.9528
97933.901
97253.939
97016.417
96982.284
96973.398
96973.017
96975.976
96980.855
96995.216
97017.92
97047.061