/*--------------------------------*- C++ -*----------------------------------*\
| =========                 |                                                 |
| \\      /  F ield         | OpenFOAM: The Open Source CFD Toolbox           |
|  \\    /   O peration     | Version:  2206                                  |
|   \\  /    A nd           | Website:  www.openfoam.com                      |
|    \\/     M anipulation  |                                                 |
\*---------------------------------------------------------------------------*/
FoamFile
{
    version     2.0;
    format      ascii;
    arch        "LSB;label=32;scalar=64";
    class       volScalarField;
    location    "1900";
    object      p;
}
// * * * * * * * * * * * * * * * * * * * * * * * * * * * * * * * * * * * * * //

dimensions      [0 2 -2 0 0 0 0];

internalField   nonuniform List<scalar> 
13056
(
0.012024859
0.012129238
0.012349815
0.012631054
0.012971821
0.013372402
0.013830911
0.014346548
0.014920661
0.015556497
0.016259086
0.01703559
0.017895901
0.018854035
0.019928952
0.021150171
0.022554205
0.024218285
0.026200557
0.028800657
0.03192148
0.037417383
0.042504098
0.080421116
0.050864233
0.0023005098
0.00096329502
0.0018384099
0.0023885829
0.0028392656
0.0031163796
0.0033108849
0.0034590166
0.0035665448
0.0036428268
0.0036978169
0.0037378968
0.0037666764
0.003786627
0.0037997699
0.0038075066
0.0038108361
0.0038105431
0.0038073097
0.003801578
0.0037936377
0.0037838075
0.0037723114
0.0037593392
0.0037450144
0.0037294346
0.0037126866
0.0036948317
0.0036759287
0.0036560202
0.00363511
0.0036131998
0.0035902941
0.0035663859
0.0035414583
0.0035154918
0.0034884604
0.0034603071
0.0034309653
0.0034003676
0.0033684412
0.003335113
0.0033002991
0.0032639146
0.003225875
0.0031860766
0.0031443981
0.0031007179
0.0030549221
0.0030068874
0.0029565302
0.0029037751
0.0028486274
0.0027910988
0.0027311457
0.0026689242
0.0026045997
0.0025384292
0.0024711141
0.0024037502
0.0023380022
0.0022761355
0.0022220582
0.0021807453
0.0021486245
0.002146993
0.0021803621
0.002241422
0.0023490072
0.0025077127
0.0027204124
0.0029842164
0.0032893145
0.003633782
0.0039803727
0.0042744266
0.0044647161
0.0045721731
0.0045682438
0.0044663703
0.0043482404
0.0042087069
0.0040583767
0.0039048456
0.0037481898
0.0035911963
0.0034325557
0.0032683007
0.0031028445
0.0029377437
0.0027738808
0.0026136549
0.0024562497
0.002299891
0.0021476563
0.0019996056
0.0018540987
0.0017113682
0.0015729916
0.0014391391
0.0013083462
0.0011810887
0.0010581117
0.00094157528
0.00083122561
0.00072953164
0.00063284191
0.00057035539
0.00048314077
0.00066830736
-0.00051363993
0.012024859
0.012129238
0.012349815
0.012631054
0.012971821
0.013372403
0.013830911
0.014346548
0.014920661
0.015556497
0.016259086
0.01703559
0.017895902
0.018854036
0.019928953
0.021150172
0.022554207
0.024218287
0.02620056
0.028800661
0.031921484
0.037417391
0.042504121
0.080416328
0.050875423
0.0023076864
0.00096513264
0.0018392419
0.0023890926
0.002839624
0.0031166506
0.0033111004
0.003459193
0.0035666926
0.003642953
0.0036979262
0.0037379925
0.0037667612
0.0037867026
0.0037998378
0.003807568
0.0038108919
0.003810594
0.0038073564
0.003801621
0.0037936774
0.0037838442
0.0037723455
0.003759371
0.003745044
0.0037294623
0.0037127126
0.0036948561
0.0036759516
0.0036560418
0.0036351303
0.0036132189
0.0035903122
0.003566403
0.0035414745
0.0035155071
0.003488475
0.0034603209
0.0034309784
0.00340038
0.003368453
0.0033351242
0.0033003098
0.0032639247
0.0032258847
0.0031860857
0.0031444068
0.0031007261
0.0030549299
0.0030068948
0.0029565372
0.0029037817
0.0028486337
0.0027911047
0.0027311512
0.0026689293
0.0026046045
0.0025384336
0.0024711181
0.0024037538
0.0023380054
0.0022761383
0.0022220604
0.0021807471
0.0021486256
0.0021469935
0.0021803619
0.002241421
0.0023490054
0.0025077099
0.0027204086
0.0029842118
0.0032893092
0.0036337761
0.0039803664
0.0042744205
0.0044647107
0.0045721686
0.0045682407
0.004466368
0.0043482388
0.0042087058
0.0040583759
0.0039048452
0.0037481895
0.0035911961
0.0034325557
0.0032683008
0.0031028447
0.002937744
0.0027738812
0.0026136553
0.0024562501
0.0022998915
0.0021476568
0.0019996061
0.0018540992
0.0017113687
0.0015729921
0.0014391396
0.0013083467
0.0011810892
0.0010581121
0.00094157575
0.00083122607
0.00072953211
0.00063284237
0.0005703559
0.0004831413
0.00066830792
-0.00051363958
0.012024859
0.012129238
0.012349815
0.012631054
0.012971821
0.013372403
0.013830911
0.014346549
0.014920661
0.015556498
0.016259086
0.017035591
0.017895903
0.018854037
0.019928954
0.021150173
0.022554208
0.024218289
0.026200562
0.028800664
0.031921488
0.037417399
0.042504137
0.080411502
0.050890782
0.0023146584
0.00096731195
0.0018402367
0.0023897022
0.0028400527
0.0031169747
0.003311358
0.003459404
0.0035668693
0.0036431038
0.0036980569
0.003738107
0.0037668625
0.003786793
0.0037999189
0.0038076413
0.0038109586
0.0038106549
0.0038074123
0.0038016724
0.0037937248
0.0037838881
0.0037723863
0.003759409
0.0037450795
0.0037294955
0.0037127436
0.0036948852
0.0036759789
0.0036560676
0.0036351546
0.0036132418
0.0035903338
0.0035664235
0.0035414939
0.0035155255
0.0034884923
0.0034603374
0.003430994
0.0034003949
0.0033684671
0.0033351377
0.0033003225
0.0032639368
0.0032258962
0.0031860967
0.0031444172
0.003100736
0.0030549393
0.0030069036
0.0029565456
0.0029037897
0.0028486412
0.0027911118
0.0027311578
0.0026689355
0.0026046102
0.0025384388
0.0024711229
0.0024037581
0.0023380092
0.0022761416
0.0022220631
0.0021807492
0.0021486269
0.002146994
0.0021803616
0.0022414197
0.0023490031
0.0025077065
0.0027204041
0.0029842063
0.0032893028
0.0036337689
0.0039803589
0.0042744133
0.0044647043
0.0045721633
0.004568237
0.0044663652
0.004348237
0.0042087045
0.004058375
0.0039048446
0.0037481892
0.0035911959
0.0034325557
0.0032683009
0.0031028449
0.0029377443
0.0027738816
0.0026136557
0.0024562506
0.002299892
0.0021476573
0.0019996067
0.0018540998
0.0017113693
0.0015729927
0.0014391402
0.0013083473
0.0011810898
0.0010581127
0.00094157631
0.00083122662
0.00072953266
0.00063284292
0.0005703565
0.00048314194
0.00066830858
-0.00051363917
0.012024859
0.012129238
0.012349815
0.012631054
0.012971821
0.013372403
0.013830911
0.014346549
0.014920661
0.015556498
0.016259087
0.017035591
0.017895903
0.018854037
0.019928955
0.021150174
0.02255421
0.024218291
0.026200565
0.028800668
0.031921492
0.037417406
0.042504153
0.080406806
0.050907923
0.0023198064
0.00096936229
0.0018412113
0.0023902994
0.0028404727
0.0031172922
0.0033116104
0.0034596108
0.0035670424
0.0036432516
0.0036981849
0.0037382192
0.0037669617
0.0037868815
0.0037999985
0.0038077132
0.0038110239
0.0038107146
0.0038074669
0.0038017227
0.0037937713
0.0037839312
0.0037724263
0.0037594462
0.0037451142
0.0037295279
0.0037127741
0.0036949138
0.0036760058
0.0036560928
0.0036351784
0.0036132643
0.003590355
0.0035664435
0.0035415128
0.0035155435
0.0034885094
0.0034603536
0.0034310094
0.0034004094
0.003368481
0.0033351508
0.003300335
0.0032639487
0.0032259074
0.0031861074
0.0031444274
0.0031007456
0.0030549484
0.0030069123
0.0029565539
0.0029037975
0.0028486485
0.0027911187
0.0027311642
0.0026689415
0.0026046158
0.002538444
0.0024711276
0.0024037624
0.0023380129
0.0022761448
0.0022220658
0.0021807513
0.0021486282
0.0021469945
0.0021803614
0.0022414185
0.0023490009
0.0025077032
0.0027203998
0.0029842009
0.0032892965
0.003633762
0.0039803516
0.0042744063
0.004464698
0.0045721583
0.0045682333
0.0044663625
0.0043482351
0.0042087032
0.0040583742
0.003904844
0.0037481889
0.0035911958
0.0034325557
0.003268301
0.0031028451
0.0029377446
0.0027738819
0.0026136562
0.0024562511
0.0022998926
0.0021476579
0.0019996073
0.0018541004
0.0017113699
0.0015729933
0.0014391408
0.0013083479
0.0011810904
0.0010581133
0.00094157686
0.00083122716
0.00072953321
0.00063284346
0.00057035709
0.00048314254
0.00066830924
-0.00051363878
0.012024859
0.012129238
0.012349815
0.012631054
0.012971821
0.013372403
0.013830912
0.014346549
0.014920662
0.015556498
0.016259087
0.017035592
0.017895904
0.018854038
0.019928956
0.021150176
0.022554212
0.024218293
0.026200567
0.028800671
0.031921496
0.037417412
0.042504172
0.080401777
0.050926169
0.0023255119
0.00097143591
0.001842209
0.0023909109
0.0028409028
0.0031176173
0.0033118688
0.0034598224
0.0035672197
0.0036434029
0.0036983159
0.0037383341
0.0037670633
0.0037869722
0.0038000799
0.0038077868
0.0038110908
0.0038107757
0.0038075229
0.0038017742
0.0037938189
0.0037839753
0.0037724672
0.0037594843
0.0037451498
0.0037295612
0.0037128052
0.003694943
0.0036760332
0.0036561187
0.0036352028
0.0036132873
0.0035903767
0.0035664641
0.0035415323
0.0035155619
0.0034885268
0.0034603701
0.0034310251
0.0034004243
0.0033684951
0.0033351642
0.0033003478
0.0032639609
0.003225919
0.0031861184
0.0031444378
0.0031007555
0.0030549578
0.0030069212
0.0029565623
0.0029038054
0.002848656
0.0027911257
0.0027311709
0.0026689477
0.0026046215
0.0025384493
0.0024711324
0.0024037667
0.0023380168
0.0022761481
0.0022220684
0.0021807535
0.0021486295
0.002146995
0.0021803611
0.0022414172
0.0023489986
0.0025076998
0.0027203953
0.0029841954
0.0032892901
0.0036337548
0.0039803441
0.004274399
0.0044646916
0.0045721533
0.0045682296
0.0044663597
0.0043482332
0.0042087019
0.0040583733
0.0039048434
0.0037481885
0.0035911956
0.0034325557
0.0032683011
0.0031028453
0.0029377449
0.0027738823
0.0026136566
0.0024562516
0.0022998931
0.0021476585
0.0019996078
0.001854101
0.0017113705
0.0015729939
0.0014391413
0.0013083485
0.0011810909
0.0010581138
0.00094157742
0.00083122772
0.00072953376
0.00063284401
0.00057035769
0.00048314314
0.0006683099
-0.00051363838
0.012024859
0.012129238
0.012349815
0.012631054
0.012971821
0.013372403
0.013830912
0.014346549
0.014920662
0.015556499
0.016259088
0.017035592
0.017895905
0.018854039
0.019928958
0.021150177
0.022554213
0.024218295
0.02620057
0.028800674
0.031921501
0.037417417
0.042504194
0.080396194
0.050945194
0.0023326287
0.00097364104
0.0018432686
0.0023915605
0.0028413597
0.0031179627
0.0033121434
0.0034600473
0.003567408
0.0036435636
0.0036984552
0.0037384561
0.0037671713
0.0037870685
0.0038001664
0.003807865
0.0038111619
0.0038108406
0.0038075824
0.003801829
0.0037938695
0.0037840221
0.0037725107
0.0037595248
0.0037451875
0.0037295965
0.0037128383
0.003694974
0.0036760624
0.0036561461
0.0036352287
0.0036133117
0.0035903998
0.0035664859
0.0035415529
0.0035155814
0.0034885454
0.0034603877
0.0034310418
0.0034004402
0.0033685102
0.0033351785
0.0033003614
0.0032639738
0.0032259313
0.00318613
0.0031444488
0.003100766
0.0030549678
0.0030069307
0.0029565712
0.0029038139
0.002848664
0.0027911332
0.0027311779
0.0026689542
0.0026046276
0.0025384549
0.0024711375
0.0024037713
0.0023380208
0.0022761516
0.0022220713
0.0021807557
0.0021486309
0.0021469955
0.0021803609
0.0022414159
0.0023489962
0.0025076963
0.0027203905
0.0029841895
0.0032892833
0.0036337472
0.0039803361
0.0042743913
0.0044646847
0.0045721479
0.0045682256
0.0044663568
0.0043482312
0.0042087005
0.0040583723
0.0039048428
0.0037481882
0.0035911954
0.0034325556
0.0032683012
0.0031028455
0.0029377452
0.0027738828
0.0026136571
0.0024562522
0.0022998937
0.0021476591
0.0019996085
0.0018541016
0.0017113711
0.0015729945
0.001439142
0.0013083491
0.0011810916
0.0010581144
0.00094157802
0.0008312283
0.00072953435
0.0006328446
0.00057035834
0.00048314379
0.00066831061
-0.00051363796
0.012024859
0.012129238
0.012349815
0.012631054
0.012971821
0.013372403
0.013830912
0.01434655
0.014920662
0.015556499
0.016259088
0.017035593
0.017895906
0.01885404
0.019928959
0.021150179
0.022554215
0.024218297
0.026200573
0.028800678
0.031921505
0.037417421
0.042504221
0.080389947
0.050965219
0.0023404978
0.00097601715
0.001844409
0.0023922597
0.0028418514
0.0031183345
0.0033124388
0.0034602893
0.0035676107
0.0036437366
0.003698605
0.0037385874
0.0037672874
0.0037871721
0.0038002595
0.0038079492
0.0038112384
0.0038109104
0.0038076464
0.0038018879
0.0037939239
0.0037840725
0.0037725575
0.0037595684
0.0037452282
0.0037296345
0.0037128739
0.0036950074
0.0036760938
0.0036561757
0.0036352565
0.003613338
0.0035904246
0.0035665094
0.0035415751
0.0035156025
0.0034885653
0.0034604066
0.0034310597
0.0034004572
0.0033685263
0.0033351939
0.003300376
0.0032639876
0.0032259445
0.0031861426
0.0031444608
0.0031007773
0.0030549785
0.0030069408
0.0029565808
0.002903823
0.0028486726
0.0027911413
0.0027311854
0.0026689613
0.0026046341
0.0025384609
0.002471143
0.0024037762
0.0023380252
0.0022761554
0.0022220744
0.0021807582
0.0021486324
0.002146996
0.0021803606
0.0022414145
0.0023489936
0.0025076924
0.0027203854
0.0029841832
0.003289276
0.0036337391
0.0039803275
0.0042743831
0.0044646773
0.0045721421
0.0045682214
0.0044663536
0.004348229
0.004208699
0.0040583713
0.0039048422
0.0037481878
0.0035911953
0.0034325556
0.0032683014
0.0031028458
0.0029377456
0.0027738832
0.0026136576
0.0024562528
0.0022998943
0.0021476597
0.0019996091
0.0018541023
0.0017113718
0.0015729952
0.0014391427
0.0013083498
0.0011810922
0.0010581151
0.00094157866
0.00083122894
0.00072953499
0.00063284523
0.00057035903
0.00048314448
0.00066831138
-0.00051363751
0.012024859
0.012129238
0.012349816
0.012631054
0.012971822
0.013372404
0.013830912
0.01434655
0.014920663
0.0155565
0.016259089
0.017035594
0.017895906
0.018854041
0.01992896
0.02115018
0.022554217
0.0242183
0.026200576
0.028800682
0.03192151
0.037417425
0.042504253
0.080382903
0.050986515
0.0023489484
0.00097859338
0.0018456455
0.002393018
0.0028423847
0.0031187376
0.0033127593
0.0034605517
0.0035678306
0.0036439242
0.0036987675
0.0037387298
0.0037674134
0.0037872845
0.0038003605
0.0038080405
0.0038113213
0.0038109861
0.0038077159
0.0038019518
0.0037939829
0.0037841271
0.0037726082
0.0037596156
0.0037452723
0.0037296757
0.0037129125
0.0036950437
0.0036761279
0.0036562077
0.0036352867
0.0036133665
0.0035904515
0.0035665348
0.0035415992
0.0035156253
0.0034885869
0.0034604271
0.0034310792
0.0034004757
0.0033685439
0.0033352106
0.0033003918
0.0032640027
0.0032259588
0.0031861562
0.0031444737
0.0031007896
0.0030549901
0.0030069519
0.0029565913
0.0029038328
0.0028486819
0.00279115
0.0027311936
0.0026689689
0.0026046412
0.0025384674
0.0024711489
0.0024037816
0.00233803
0.0022761595
0.0022220777
0.0021807609
0.0021486341
0.0021469966
0.0021803602
0.0022414129
0.0023489908
0.0025076882
0.0027203798
0.0029841763
0.003289268
0.0036337302
0.0039803182
0.0042743741
0.0044646694
0.0045721358
0.0045682167
0.0044663502
0.0043482267
0.0042086974
0.0040583702
0.0039048414
0.0037481873
0.003591195
0.0034325556
0.0032683015
0.003102846
0.002937746
0.0027738837
0.0026136582
0.0024562534
0.002299895
0.0021476604
0.0019996099
0.001854103
0.0017113726
0.001572996
0.0014391434
0.0013083505
0.0011810929
0.0010581158
0.00094157936
0.00083122962
0.00072953568
0.00063284591
0.00057035978
0.00048314523
0.0006683122
-0.00051363702
0.012024859
0.012129238
0.012349816
0.012631054
0.012971822
0.013372404
0.013830913
0.01434655
0.014920663
0.0155565
0.01625909
0.017035595
0.017895908
0.018854043
0.019928962
0.021150182
0.02255422
0.024218303
0.026200579
0.028800686
0.031921516
0.037417427
0.042504292
0.080374891
0.051009312
0.0023581116
0.00098140575
0.0018469959
0.0023938462
0.0028429672
0.003119178
0.0033131093
0.0034608384
0.0035680707
0.0036441291
0.003698945
0.0037388853
0.003767551
0.0037874072
0.0038004708
0.0038081401
0.0038114119
0.0038110688
0.0038077917
0.0038020216
0.0037940473
0.0037841868
0.0037726637
0.0037596672
0.0037453204
0.0037297207
0.0037129547
0.0036950832
0.003676165
0.0036562427
0.0036353197
0.0036133976
0.0035904809
0.0035665626
0.0035416255
0.0035156502
0.0034886105
0.0034604495
0.0034311004
0.0034004959
0.0033685631
0.0033352288
0.0033004092
0.0032640192
0.0032259744
0.003186171
0.0031444878
0.003100803
0.0030550028
0.0030069639
0.0029566027
0.0029038436
0.002848692
0.0027911596
0.0027312026
0.0026689772
0.002604649
0.0025384745
0.0024711554
0.0024037875
0.0023380352
0.002276164
0.0022220814
0.0021807638
0.0021486359
0.0021469973
0.0021803599
0.0022414112
0.0023489877
0.0025076837
0.0027203737
0.0029841689
0.0032892594
0.0036337206
0.003980308
0.0042743643
0.0044646607
0.004572129
0.0045682117
0.0044663464
0.0043482241
0.0042086956
0.004058369
0.0039048407
0.0037481869
0.0035911948
0.0034325556
0.0032683016
0.0031028463
0.0029377464
0.0027738843
0.0026136588
0.0024562541
0.0022998958
0.0021476612
0.0019996107
0.0018541038
0.0017113734
0.0015729968
0.0014391442
0.0013083513
0.0011810937
0.0010581166
0.00094158012
0.00083123037
0.00072953644
0.00063284666
0.00057036059
0.00048314605
0.00066831311
-0.00051363648
0.012024859
0.012129239
0.012349816
0.012631054
0.012971822
0.013372404
0.013830913
0.014346551
0.014920664
0.015556501
0.016259091
0.017035596
0.017895909
0.018854044
0.019928964
0.021150185
0.022554222
0.024218306
0.026200583
0.02880069
0.031921521
0.037417428
0.042504338
0.080365702
0.051033816
0.0023681496
0.00098449599
0.0018484801
0.0023947568
0.0028436077
0.0031196622
0.0033134941
0.0034611535
0.0035683346
0.0036443544
0.0036991401
0.0037390563
0.0037677023
0.0037875422
0.003800592
0.0038082497
0.0038115115
0.0038111598
0.003807875
0.0038020983
0.0037941181
0.0037842524
0.0037727246
0.0037597239
0.0037453734
0.0037297702
0.003713001
0.0036951267
0.0036762059
0.0036562812
0.003635356
0.0036134318
0.0035905133
0.0035665932
0.0035416544
0.0035156776
0.0034886365
0.0034604741
0.0034311238
0.003400518
0.0033685841
0.0033352488
0.0033004282
0.0032640372
0.0032259916
0.0031861873
0.0031445033
0.0031008177
0.0030550168
0.0030069772
0.0029566152
0.0029038555
0.0028487032
0.0027911701
0.0027312124
0.0026689864
0.0026046575
0.0025384824
0.0024711626
0.0024037939
0.0023380409
0.0022761689
0.0022220854
0.0021807669
0.0021486378
0.002146998
0.0021803595
0.0022414094
0.0023489843
0.0025076786
0.002720367
0.0029841606
0.0032892498
0.0036337099
0.0039802968
0.0042743536
0.0044646511
0.0045721214
0.0045682061
0.0044663423
0.0043482213
0.0042086937
0.0040583677
0.0039048398
0.0037481864
0.0035911946
0.0034325555
0.0032683018
0.0031028467
0.0029377469
0.0027738848
0.0026136595
0.0024562549
0.0022998966
0.0021476621
0.0019996116
0.0018541047
0.0017113743
0.0015729977
0.0014391451
0.0013083521
0.0011810946
0.0010581174
0.00094158096
0.0008312312
0.00072953726
0.00063284748
0.00057036149
0.00048314696
0.0006683141
-0.00051363589
0.012024859
0.012129239
0.012349816
0.012631055
0.012971822
0.013372404
0.013830913
0.014346551
0.014920664
0.015556502
0.016259092
0.017035597
0.01789591
0.018854046
0.019928966
0.021150187
0.022554226
0.02421831
0.026200587
0.028800695
0.031921528
0.037417427
0.042504394
0.080355088
0.051060227
0.0023792128
0.00098791002
0.0018501203
0.0023957634
0.0028443156
0.0031201973
0.0033139194
0.0034615019
0.0035686263
0.0036446033
0.0036993557
0.0037392452
0.0037678695
0.0037876913
0.003800726
0.0038083708
0.0038116216
0.0038112603
0.0038079671
0.0038021831
0.0037941964
0.0037843249
0.0037727919
0.0037597866
0.0037454318
0.0037298249
0.0037130523
0.0036951748
0.0036762511
0.0036563237
0.003635396
0.0036134696
0.003590549
0.0035666269
0.0035416864
0.0035157079
0.0034886652
0.0034605014
0.0034311496
0.0034005426
0.0033686074
0.003335271
0.0033004492
0.0032640572
0.0032260106
0.0031862054
0.0031445204
0.003100834
0.0030550323
0.0030069918
0.0029566291
0.0029038685
0.0028487156
0.0027911817
0.0027312233
0.0026689966
0.0026046669
0.0025384911
0.0024711705
0.0024038011
0.0023380472
0.0022761743
0.0022220898
0.0021807705
0.00214864
0.0021469988
0.002180359
0.0022414073
0.0023489806
0.0025076731
0.0027203596
0.0029841516
0.0032892393
0.0036336982
0.0039802845
0.0042743417
0.0044646405
0.0045721131
0.0045682
0.0044663377
0.0043482182
0.0042086915
0.0040583662
0.0039048388
0.0037481858
0.0035911943
0.0034325555
0.003268302
0.003102847
0.0029377474
0.0027738855
0.0026136603
0.0024562557
0.0022998975
0.002147663
0.0019996125
0.0018541057
0.0017113752
0.0015729986
0.001439146
0.0013083531
0.0011810955
0.0010581184
0.00094158188
0.00083123211
0.00072953818
0.00063284839
0.00057036248
0.00048314795
0.0006683152
-0.00051363524
0.012024859
0.012129239
0.012349816
0.012631055
0.012971823
0.013372405
0.013830914
0.014346552
0.014920665
0.015556503
0.016259093
0.017035598
0.017895912
0.018854048
0.019928968
0.02115019
0.022554229
0.024218314
0.026200592
0.028800699
0.031921535
0.037417423
0.042504461
0.080342753
0.051088727
0.0023914596
0.00099169834
0.001851941
0.002396881
0.0028451016
0.0031207915
0.0033143916
0.0034618886
0.0035689502
0.0036448797
0.0036995951
0.003739455
0.0037680551
0.0037878569
0.0038008748
0.0038085052
0.0038117438
0.0038113718
0.0038080694
0.0038022772
0.0037942833
0.0037844054
0.0037728667
0.0037598562
0.0037454968
0.0037298856
0.0037131091
0.0036952282
0.0036763013
0.0036563709
0.0036354405
0.0036135116
0.0035905886
0.0035666644
0.0035417219
0.0035157415
0.0034886971
0.0034605316
0.0034311783
0.0034005698
0.0033686333
0.0033352955
0.0033004726
0.0032640794
0.0032260317
0.0031862254
0.0031445395
0.0031008521
0.0030550494
0.003007008
0.0029566445
0.0029038831
0.0028487293
0.0027911946
0.0027312354
0.0026690078
0.0026046773
0.0025385007
0.0024711793
0.002403809
0.0023380542
0.0022761803
0.0022220948
0.0021807744
0.0021486424
0.0021469997
0.0021803586
0.002241405
0.0023489764
0.0025076669
0.0027203514
0.0029841415
0.0032892276
0.0036336851
0.0039802708
0.0042743285
0.0044646287
0.0045721039
0.0045681932
0.0044663327
0.0043482148
0.0042086892
0.0040583646
0.0039048378
0.0037481852
0.003591194
0.0034325554
0.0032683022
0.0031028474
0.0029377479
0.0027738862
0.0026136611
0.0024562566
0.0022998985
0.0021476641
0.0019996136
0.0018541068
0.0017113763
0.0015729997
0.0014391471
0.0013083542
0.0011810966
0.0010581194
0.00094158291
0.00083123312
0.0007295392
0.0006328494
0.00057036359
0.00048314906
0.00066831642
-0.00051363451
0.012024859
0.012129239
0.012349816
0.012631055
0.012971823
0.013372405
0.013830914
0.014346553
0.014920666
0.015556504
0.016259094
0.0170356
0.017895914
0.01885405
0.019928971
0.021150194
0.022554233
0.024218319
0.026200597
0.028800704
0.031921542
0.037417415
0.042504541
0.08032834
0.051119478
0.0024050671
0.00099591684
0.0018539691
0.0023981263
0.0028459775
0.0031214537
0.0033149177
0.0034623195
0.0035693111
0.0036451877
0.0036998619
0.0037396888
0.0037682619
0.0037880414
0.0038010405
0.003808655
0.0038118799
0.0038114961
0.0038081834
0.0038023821
0.0037943802
0.0037844951
0.00377295
0.0037599338
0.0037455691
0.0037299533
0.0037131725
0.0036952877
0.0036763572
0.0036564235
0.0036354901
0.0036135584
0.0035906328
0.0035667062
0.0035417614
0.0035157789
0.0034887326
0.0034605652
0.0034312102
0.0034006001
0.0033686621
0.0033353229
0.0033004986
0.0032641041
0.0032260552
0.0031862477
0.0031445607
0.0031008722
0.0030550685
0.0030070261
0.0029566616
0.0029038993
0.0028487445
0.0027912089
0.0027312488
0.0026690204
0.002604689
0.0025385114
0.0024711891
0.0024038178
0.002338062
0.0022761871
0.0022221003
0.0021807787
0.0021486451
0.0021470007
0.002180358
0.0022414024
0.0023489718
0.00250766
0.0027203423
0.0029841302
0.0032892145
0.0036336706
0.0039802555
0.0042743138
0.0044646157
0.0045720936
0.0045681856
0.004466327
0.0043482109
0.0042086865
0.0040583628
0.0039048366
0.0037481844
0.0035911936
0.0034325554
0.0032683024
0.0031028478
0.0029377486
0.002773887
0.0026136621
0.0024562577
0.0022998996
0.0021476652
0.0019996148
0.001854108
0.0017113776
0.0015730009
0.0014391483
0.0013083553
0.0011810977
0.0010581205
0.00094158405
0.00083123425
0.00072954033
0.00063285052
0.00057036481
0.0004831503
0.00066831777
-0.0005136337
0.012024859
0.012129239
0.012349816
0.012631055
0.012971823
0.013372406
0.013830915
0.014346553
0.014920667
0.015556505
0.016259095
0.017035602
0.017895916
0.018854053
0.019928974
0.021150197
0.022554237
0.024218324
0.026200602
0.028800709
0.031921549
0.037417401
0.042504638
0.08031142
0.051152605
0.002420236
0.0010006277
0.0018562349
0.002399518
0.0028469563
0.0031221936
0.0033155057
0.003462801
0.0035697144
0.0036455318
0.0037001599
0.0037399499
0.003768493
0.0037882475
0.0038012257
0.0038088224
0.003812032
0.003811635
0.0038083107
0.0038024993
0.0037944884
0.0037845953
0.003773043
0.0037600204
0.00374565
0.0037300289
0.0037132433
0.0036953541
0.0036764196
0.0036564823
0.0036355455
0.0036136106
0.0035906822
0.0035667529
0.0035418056
0.0035158208
0.0034887722
0.0034606028
0.0034312459
0.003400634
0.0033686943
0.0033353535
0.0033005276
0.0032641318
0.0032260814
0.0031862727
0.0031445844
0.0031008947
0.0030550898
0.0030070464
0.0029566807
0.0029039174
0.0028487616
0.002791225
0.0027312639
0.0026690344
0.002604702
0.0025385234
0.0024712
0.0024038276
0.0023380707
0.0022761946
0.0022221064
0.0021807836
0.0021486481
0.0021470018
0.0021803574
0.0022413996
0.0023489666
0.0025076524
0.002720332
0.0029841177
0.0032892
0.0036336544
0.0039802384
0.0042742974
0.0044646011
0.0045720821
0.0045681771
0.0044663207
0.0043482066
0.0042086835
0.0040583608
0.0039048353
0.0037481837
0.0035911933
0.0034325554
0.0032683026
0.0031028483
0.0029377493
0.0027738879
0.0026136631
0.0024562588
0.0022999009
0.0021476666
0.0019996161
0.0018541094
0.0017113789
0.0015730023
0.0014391497
0.0013083567
0.001181099
0.0010581218
0.00094158533
0.00083123551
0.00072954159
0.00063285177
0.00057036618
0.00048315167
0.00066831929
-0.0005136328
0.012024859
0.012129239
0.012349817
0.012631056
0.012971824
0.013372406
0.013830916
0.014346554
0.014920668
0.015556506
0.016259097
0.017035604
0.017895919
0.018854056
0.019928978
0.021150202
0.022554242
0.024218329
0.026200608
0.028800713
0.031921557
0.037417378
0.042504753
0.080291477
0.051188182
0.0024371942
0.0010059004
0.0018587719
0.0024010769
0.0028480527
0.0031230224
0.0033161642
0.0034633403
0.0035701661
0.0036459173
0.0037004938
0.0037402424
0.0037687517
0.0037884783
0.003801433
0.0038090099
0.0038122024
0.0038117905
0.0038084533
0.0038026305
0.0037946095
0.0037847075
0.0037731472
0.0037601174
0.0037457405
0.0037301135
0.0037133226
0.0036954285
0.0036764895
0.0036565481
0.0036356075
0.0036136692
0.0035907375
0.0035668052
0.0035418551
0.0035158676
0.0034888166
0.003460645
0.0034312859
0.003400672
0.0033687303
0.0033353877
0.0033005602
0.0032641627
0.0032261108
0.0031863006
0.0031446109
0.0031009199
0.0030551137
0.003007069
0.0029567022
0.0029039376
0.0028487807
0.002791243
0.0027312807
0.0026690501
0.0026047165
0.0025385368
0.0024712123
0.0024038386
0.0023380804
0.002276203
0.0022221132
0.002180789
0.0021486514
0.002147003
0.0021803567
0.0022413964
0.0023489608
0.0025076438
0.0027203206
0.0029841036
0.0032891836
0.0036336362
0.0039802193
0.0042742791
0.0044645847
0.0045720692
0.0045681676
0.0044663137
0.0043482018
0.0042086802
0.0040583585
0.0039048338
0.0037481828
0.0035911928
0.0034325553
0.0032683029
0.0031028489
0.0029377501
0.0027738889
0.0026136643
0.0024562602
0.0022999023
0.002147668
0.0019996176
0.0018541109
0.0017113804
0.0015730038
0.0014391512
0.0013083582
0.0011811005
0.0010581233
0.00094158676
0.00083123691
0.00072954301
0.00063285318
0.00057036772
0.00048315321
0.00066832099
-0.00051363179
0.012024859
0.012129239
0.012349817
0.012631056
0.012971824
0.013372407
0.013830917
0.014346555
0.014920669
0.015556508
0.016259099
0.017035606
0.017895921
0.018854059
0.019928982
0.021150206
0.022554248
0.024218335
0.026200614
0.028800716
0.031921563
0.037417344
0.042504892
0.08026789
0.051226216
0.0024562027
0.0010118127
0.0018616179
0.0024028263
0.0028492831
0.0031239525
0.0033169032
0.0034639455
0.0035706729
0.0036463498
0.0037008683
0.0037405707
0.0037690421
0.0037887374
0.0038016657
0.0038092202
0.0038123935
0.0038119651
0.0038086132
0.0038027777
0.0037947455
0.0037848334
0.0037732642
0.0037602263
0.0037458421
0.0037302085
0.0037134116
0.003695512
0.003676568
0.003656622
0.0036356771
0.0036137348
0.0035907995
0.0035668638
0.0035419106
0.0035159202
0.0034888665
0.0034606922
0.0034313308
0.0034007146
0.0033687708
0.0033354262
0.0033005967
0.0032641974
0.0032261438
0.003186332
0.0031446407
0.0031009481
0.0030551405
0.0030070944
0.0029567262
0.0029039604
0.0028488022
0.0027912631
0.0027312996
0.0026690677
0.0026047329
0.0025385518
0.002471226
0.002403851
0.0023380914
0.0022762124
0.0022221209
0.0021807951
0.0021486552
0.0021470044
0.0021803559
0.0022413927
0.0023489543
0.0025076341
0.0027203077
0.0029840878
0.0032891653
0.0036336158
0.0039801979
0.0042742585
0.0044645663
0.0045720547
0.004568157
0.0044663058
0.0043481964
0.0042086764
0.004058356
0.0039048322
0.0037481818
0.0035911924
0.0034325552
0.0032683032
0.0031028495
0.002937751
0.0027738901
0.0026136656
0.0024562616
0.0022999038
0.0021476697
0.0019996193
0.0018541126
0.0017113822
0.0015730055
0.0014391529
0.0013083598
0.0011811022
0.0010581249
0.00094158836
0.0008312385
0.0007295446
0.00063285475
0.00057036944
0.00048315494
0.00066832289
-0.00051363065
0.012024859
0.012129239
0.012349817
0.012631057
0.012971825
0.013372408
0.013830918
0.014346556
0.014920671
0.01555651
0.016259101
0.017035609
0.017895925
0.018854063
0.019928986
0.021150211
0.022554253
0.024218342
0.02620062
0.028800718
0.031921569
0.037417294
0.042505058
0.080239913
0.051266619
0.0024775642
0.0010184515
0.0018648152
0.0024047925
0.002850666
0.0031249979
0.0033177336
0.0034646256
0.0035712425
0.0036468358
0.0037012893
0.0037409395
0.0037693684
0.0037890284
0.0038019272
0.0038094565
0.0038126083
0.0038121612
0.003808793
0.0038029432
0.0037948983
0.0037849749
0.0037733956
0.0037603486
0.0037459562
0.0037303152
0.0037135115
0.0036956058
0.0036766562
0.003656705
0.0036357553
0.0036138086
0.0035908692
0.0035669297
0.003541973
0.0035159793
0.0034889225
0.0034607453
0.0034313812
0.0034007624
0.0033688162
0.0033354693
0.0033006377
0.0032642364
0.0032261809
0.0031863672
0.0031446741
0.0031009799
0.0030551707
0.003007123
0.0029567533
0.0029039859
0.0028488263
0.0027912858
0.0027313208
0.0026690875
0.0026047513
0.0025385688
0.0024712414
0.0024038649
0.0023381037
0.002276223
0.0022221296
0.0021808019
0.0021486594
0.0021470059
0.002180355
0.0022413887
0.002348947
0.0025076232
0.0027202933
0.0029840701
0.0032891447
0.0036335929
0.0039801738
0.0042742353