/*--------------------------------*- C++ -*----------------------------------*\
| =========                 |                                                 |
| \\      /  F ield         | OpenFOAM: The Open Source CFD Toolbox           |
|  \\    /   O peration     | Version:  2206                                  |
|   \\  /    A nd           | Website:  www.openfoam.com                      |
|    \\/     M anipulation  |                                                 |
\*---------------------------------------------------------------------------*/
FoamFile
{
    version     2.0;
    format      ascii;
    arch        "LSB;label=32;scalar=64";
    class       surfaceScalarField;
    location    "1900";
    object      phi;
}
// * * * * * * * * * * * * * * * * * * * * * * * * * * * * * * * * * * * * * //

dimensions      [0 3 -1 0 0 0 0];

oriented        oriented;

internalField   nonuniform List<scalar> 
25880
(
2.004578e-06
7.6144724e-11
2.0043721e-06
2.0588749e-10
2.0040864e-06
2.8570929e-10
2.0037551e-06
3.312751e-10
2.0033756e-06
3.7953418e-10
2.0029427e-06
4.3285706e-10
2.002452e-06
4.9078945e-10
2.0018969e-06
5.550473e-10
2.0012689e-06
6.2796173e-10
2.000557e-06
7.1191957e-10
1.9997473e-06
8.0967796e-10
1.9988221e-06
9.2522472e-10
1.9977585e-06
1.0635966e-09
1.9965241e-06
1.2343947e-09
1.9950784e-06
1.4457663e-09
1.9933479e-06
1.7304734e-09
1.9912647e-06
2.0832238e-09
1.9885911e-06
2.6735522e-09
1.9853033e-06
3.2878359e-09
1.9802949e-06
5.0083419e-09
1.9741573e-06
6.1376768e-09
1.9595136e-06
1.4643665e-08
1.9486281e-06
1.088546e-08
9.7786408e-07
9.7076405e-07
4.316673e-09
9.7354741e-07
2.0921104e-09
2.2245627e-09
1.5851761e-09
5.0693427e-10
1.3401359e-09
2.4504027e-10
1.1886927e-09
1.5144314e-10
1.0812206e-09
1.0747214e-10
9.9920899e-10
8.201161e-11
9.3338718e-10
6.5821812e-11
8.7894214e-10
5.4445036e-11
8.3287727e-10
4.6064868e-11
7.9315185e-10
3.9725429e-11
7.5837216e-10
3.4779684e-11
7.275592e-10
3.0812967e-11
6.9998992e-10
2.7569279e-11
6.7511189e-10
2.4878024e-11
6.5249699e-10
2.2614905e-11
6.3180905e-10
2.068794e-11
6.1277156e-10
1.9037494e-11
5.9516918e-10
1.760238e-11
5.7882436e-10
1.6344818e-11
5.6358031e-10
1.5244047e-11
5.4931279e-10
1.4267524e-11
5.3591463e-10
1.3398156e-11
5.2329463e-10
1.2619997e-11
5.1137459e-10
1.1920042e-11
5.0008678e-10
1.1287814e-11
4.893721e-10
1.0714682e-11
4.7917889e-10
1.0193206e-11
4.6946177e-10
9.7171234e-12
4.601808e-10
9.2809655e-12
4.513008e-10
8.8800022e-12
4.4279033e-10
8.5104659e-12
4.3462119e-10
8.1691456e-12
4.2676813e-10
7.8530545e-12
4.1920855e-10
7.5595846e-12
4.1192204e-10
7.2865056e-12
4.0489033e-10
7.0317106e-12
3.9809709e-10
6.793238e-12
3.9152754e-10
6.5695539e-12
3.8516808e-10
6.3594623e-12
3.7900634e-10
6.1617398e-12
3.7303125e-10
5.9750902e-12
3.6723291e-10
5.7983347e-12
3.6160244e-10
5.630476e-12
3.5613192e-10
5.4705126e-12
3.5081463e-10
5.3172981e-12
3.4564487e-10
5.1697581e-12
3.4061786e-10
5.0270034e-12
3.3572976e-10
4.8881021e-12
3.3097765e-10
4.7521081e-12
3.2635957e-10
4.618083e-12
3.2187465e-10
4.4849263e-12
3.1752351e-10
4.3511323e-12
3.1330933e-10
4.2141795e-12
3.092376e-10
4.0717364e-12
3.0531536e-10
3.9222398e-12
3.0155168e-10
3.7636735e-12
2.979578e-10
3.5938828e-12
2.9454751e-10
3.4102882e-12
2.9133911e-10
3.2084042e-12
2.8835763e-10
2.9814784e-12
2.8563424e-10
2.723385e-12
2.8320895e-10
2.4252954e-12
2.8116053e-10
2.0484219e-12
2.7947542e-10
1.6851038e-12
2.7839845e-10
1.0769748e-12
2.7798528e-10
4.1316907e-13
2.7820933e-10
-2.2405785e-13
2.7934211e-10
-1.1327775e-12
2.8147805e-10
-2.1359379e-12
2.8477925e-10
-3.3012074e-12
2.8936018e-10
-4.5809227e-12
2.9523132e-10
-5.8711474e-12
3.0234387e-10
-7.1125515e-12
3.10625e-10
-8.2811287e-12
3.1974081e-10
-9.1158128e-12
3.2892454e-10
-9.1837266e-12
3.3750551e-10
-8.5809618e-12
3.4459359e-10
-7.0880865e-12
3.5007929e-10
-5.4856962e-12
3.5437537e-10
-4.2960797e-12
3.5746253e-10
-3.0871613e-12
3.5972012e-10
-2.2575852e-12
3.6133995e-10
-1.6198307e-12
3.6245789e-10
-1.117937e-12
3.631673e-10
-7.0941197e-13
3.6353206e-10
-3.6476158e-13
3.6358244e-10
-5.0375734e-14
3.6331911e-10
2.6333051e-13
3.6276454e-10
5.5456823e-13
3.6196097e-10
8.0356796e-13
3.6094255e-10
1.0184204e-12
3.5975522e-10
1.1873309e-12
3.5844143e-10
1.3137902e-12
3.5703106e-10
1.4103682e-12
3.555555e-10
1.4755592e-12
3.5404472e-10
1.510786e-12
3.5251565e-10
1.5290688e-12
3.5097827e-10
1.5373805e-12
3.4944532e-10
1.5329511e-12
3.4792855e-10
1.516767e-12
3.4643201e-10
1.4965378e-12
3.4495415e-10
1.4778672e-12
3.43494e-10
1.4601459e-12
3.4205207e-10
1.441926e-12
3.4063136e-10
1.4207147e-12
3.3920251e-10
1.4288545e-12
3.3778639e-10
1.4161173e-12
3.3623536e-10
1.551029e-12
3.346766e-10
1.5587619e-12
3.3296868e-10
1.7079168e-12
1.0233499e-12
2.0344507e-06
1.5346905e-10
2.0342416e-06
4.1499955e-10
2.0339514e-06
5.7593265e-10
2.0336149e-06
6.6780082e-10
2.0332293e-06
7.6508517e-10
2.0327896e-06
8.7257271e-10
2.0322911e-06
9.8934939e-10
2.0317272e-06
1.1188735e-09
2.0310893e-06
1.2658432e-09
2.0303662e-06
1.4350693e-09
2.0295438e-06
1.6321084e-09
2.028604e-06
1.8649975e-09
2.0275237e-06
2.143887e-09
2.02627e-06
2.4881265e-09
2.0248016e-06
2.9141342e-09
2.0230441e-06
3.4879377e-09
2.0209285e-06
4.1988643e-09
2.0182135e-06
5.3885842e-09
2.0148747e-06
6.6265634e-09
2.0097892e-06
1.0093852e-08
2.0035571e-06
1.2369782e-08
1.9886886e-06
2.9512167e-08
1.9776303e-06
2.1943768e-08
9.9869327e-07
1.9497011e-06
1.3171086e-08
1.9590696e-06
6.4012774e-09
8.9943717e-09
4.8504465e-09
2.0577652e-09
4.1006648e-09
9.9482205e-10
3.6372554e-09
6.1485251e-10
3.3083889e-09
4.3633861e-10
3.0574354e-09
3.3296514e-10
2.8560252e-09
2.6723202e-10
2.6894274e-09
2.210428e-10
2.5484728e-09
1.8701953e-10
2.4269169e-09
1.6128126e-10
2.3204951e-09
1.4120153e-10
2.2262112e-09
1.2509683e-10
2.1418528e-09
1.1192767e-10
2.0657295e-09
1.0100138e-10
1.9965311e-09
9.1813318e-11
1.9332289e-09
8.3990078e-11
1.874977e-09
7.7289368e-11
1.8211165e-09
7.1462953e-11
1.7711038e-09
6.6357491e-11
1.7244594e-09
6.1888469e-11
1.680803e-09
5.7923914e-11
1.6398067e-09
5.4394397e-11
1.6011916e-09
5.1235179e-11
1.5647181e-09
4.8393466e-11
1.5301792e-09
4.5826713e-11
1.497394e-09
4.3499882e-11
1.4662045e-09
4.1382769e-11
1.4364717e-09
3.9449945e-11
1.4080734e-09
3.7679211e-11
1.380902e-09
3.6051364e-11
1.3548614e-09
3.4551106e-11
1.3298652e-09
3.31654e-11
1.3058361e-09
3.1882122e-11
1.282705e-09
3.0690683e-11
1.2604095e-09
2.9582027e-11
1.2388936e-09
2.8547602e-11
1.2181074e-09
2.7579445e-11
1.1980056e-09
2.6671327e-11
1.1785467e-09
2.5818393e-11
1.1596927e-09
2.5015675e-11
1.1414099e-09
2.4257912e-11
1.1236679e-09
2.3540316e-11
1.1064396e-09
2.285884e-11
1.0897007e-09
2.2209418e-11
1.0734306e-09
2.1587396e-11
1.0576119e-09
2.0988412e-11
1.0422301e-09
2.0408855e-11
1.0272732e-09
1.9844941e-11
1.0127325e-09
1.9292831e-11
9.9860186e-10
1.8748712e-11
9.8487867e-10
1.8208117e-11
9.7156487e-10
1.766493e-11
9.5867013e-10
1.710892e-11
9.4621125e-10
1.6530621e-11
9.3420981e-10
1.5923679e-11
9.2269357e-10
1.5279914e-11
9.1169688e-10
1.4590575e-11
9.0126199e-10
1.3845177e-11
8.9144488e-10
1.3025511e-11
8.823222e-10
1.210416e-11
8.7398933e-10
1.1056248e-11
8.6656872e-10
9.8459092e-12
8.6030139e-10
8.3157532e-12
8.5514595e-10
6.8405457e-12
8.5185147e-10
4.3714456e-12
8.505882e-10
1.6764424e-12
8.5127493e-10
-9.1078953e-13
8.5474237e-10
-4.6002147e-12
8.612794e-10
-8.6729771e-12
8.7138191e-10
-1.3403713e-11
8.8539991e-10
-1.8598921e-11
9.0336544e-10
-2.3836681e-11
9.2512916e-10
-2.8876271e-11
9.5046755e-10
-3.3619521e-11
9.7835868e-10
-3.7006946e-11
1.0064568e-09
-3.7281837e-11
1.0327106e-09
-3.4834805e-11
1.0543969e-09
-2.8774394e-11
1.0711809e-09
-2.2269622e-11
1.0843256e-09
-1.7440792e-11
1.0937717e-09
-1.2533258e-11
1.1006796e-09
-9.1654689e-12
1.1056362e-09
-6.5764111e-12
1.109057e-09
-4.5388214e-12
1.1112279e-09
-2.880298e-12
1.1123442e-09
-1.4810504e-12
1.1124985e-09
-2.0464886e-13
1.1116929e-09
1.0689571e-12
1.1099961e-09
2.2513781e-12
1.1075373e-09
3.2622962e-12
1.1044212e-09
4.1345493e-12
1.1007882e-09
4.8203085e-12
1.0967683e-09
5.3337278e-12
1.0924529e-09
5.7257964e-12
1.087938e-09
5.9904606e-12
1.0833152e-09
6.1334926e-12
1.0786366e-09
6.2077172e-12
1.0739325e-09
6.2414476e-12
1.069242e-09
6.2234643e-12
1.064601e-09
6.1577733e-12
1.0600219e-09
6.0756435e-12
1.0554999e-09
5.9998332e-12
1.0510322e-09
5.9278672e-12
1.0466203e-09
5.8538923e-12
1.0422732e-09
5.7677624e-12
1.0379013e-09
5.8007855e-12
1.0335685e-09
5.7489187e-12
1.0288227e-09
6.2967695e-12
1.024055e-09
6.3265168e-12
1.0188214e-09
6.9415138e-12
4.1422521e-12
2.0946414e-06
2.3313234e-10
2.0944259e-06
6.3047745e-10
2.0941268e-06
8.7503644e-10
2.09378e-06
1.014643e-09
2.0933826e-06
1.1624571e-09
2.0929294e-06
1.3257659e-09
2.0924156e-06
1.5031835e-09
2.0918345e-06
1.699963e-09
2.0911771e-06
1.9232413e-09
2.0904319e-06
2.1803262e-09
2.0895843e-06
2.4796583e-09
2.0886159e-06
2.8334455e-09
2.0875026e-06
3.2571056e-09
2.0862107e-06
3.7800303e-09
2.0846977e-06
4.4271552e-09
2.0828869e-06
5.2987759e-09
2.0807071e-06
6.3786683e-09
2.0779098e-06
8.1858182e-09
2.0744702e-06
1.0066236e-08
2.0692313e-06
1.5332729e-08
2.0628114e-06
1.8789624e-08
2.0474954e-06
4.4828175e-08
2.036099e-06
3.334025e-08
1.0347865e-06
2.9510135e-06
2.2774436e-08
2.9710817e-06
1.1093187e-08
2.0675621e-08
8.4059809e-09
4.7449713e-09
7.1066235e-09
2.2941795e-09
6.3034981e-09
1.4179779e-09
5.7335412e-09
1.0062955e-09
5.2986177e-09
7.6788872e-10
4.9495611e-09
6.1628856e-10
4.6608375e-09
5.0976646e-10
4.4165553e-09
4.3130168e-10
4.2058933e-09
3.7194324e-10
4.02146e-09
3.2563489e-10
3.8580626e-09
2.8849417e-10
3.7118667e-09
2.5812355e-10
3.5799427e-09
2.3292545e-10
3.4600199e-09
2.117361e-10
3.3503155e-09
1.9369443e-10
3.2493637e-09
1.7824124e-10
3.1560221e-09
1.648045e-10
3.069349e-09
1.5303065e-10
2.9885132e-09
1.4272427e-10
2.9128557e-09
1.3358135e-10
2.8418084e-09
1.2544172e-10
2.7748875e-09
1.1815606e-10
2.7116784e-09
1.1160262e-10
2.6518218e-09
1.0568329e-10
2.5950044e-09
1.0031725e-10
2.5409523e-09
9.5434864e-11
2.4894248e-09
9.0977473e-11
2.4402101e-09
8.689389e-11
2.3931217e-09
8.313983e-11
2.3479928e-09
7.9680011e-11
2.3046738e-09
7.6484366e-11
2.263031e-09
7.3524935e-11
2.2229444e-09
7.0777298e-11
2.1843058e-09
6.8220574e-11
2.1470184e-09
6.5835038e-11
2.1109955e-09
6.3602329e-11
2.0761587e-09
6.1508082e-11
2.042436e-09
5.9541094e-11
2.0097618e-09
5.7689914e-11
1.9780773e-09
5.5942404e-11
1.9473301e-09
5.4287529e-11
1.917473e-09
5.271595e-11
1.8884641e-09
5.1218292e-11
1.8602677e-09
4.9783822e-11
1.8328536e-09
4.8402485e-11
1.8061965e-09
4.7065947e-11
1.780276e-09
4.5765486e-11
1.7550766e-09
4.4492243e-11
1.7305879e-09
4.3237426e-11
1.7068052e-09
4.1990733e-11
1.6837321e-09
4.0738058e-11
1.6613852e-09
3.9455808e-11
1.6397937e-09
3.812216e-11
1.6189949e-09
3.6722446e-11
1.599037e-09
3.523781e-11
1.5799795e-09
3.3648063e-11
1.5618957e-09
3.1929008e-11
1.5448826e-09
3.0038648e-11
1.529073e-09
2.7913753e-11
1.5146323e-09
2.5496941e-11
1.5017727e-09
2.2705466e-11
1.4909119e-09
1.9176543e-11
1.4819786e-09
1.5773891e-11
1.4762702e-09
1.0079816e-11
1.474082e-09
3.8646573e-12
1.4752738e-09
-2.1025983e-12
1.4812846e-09
-1.0611018e-11
1.4926153e-09
-2.0003633e-11
1.5101248e-09
-3.0913278e-11
1.5344197e-09
-4.2893795e-11
1.5655553e-09
-5.4972282e-11
1.6032727e-09
-6.659369e-11
1.6471838e-09
-7.753063e-11
1.6955173e-09
-8.5340371e-11
1.7442084e-09
-8.5973015e-11
1.7897033e-09
-8.0329637e-11
1.8272835e-09
-6.6354674e-11
1.8563689e-09
-5.135498e-11
1.879148e-09
-4.0219879e-11
1.8955183e-09
-2.8903532e-11
1.9074899e-09
-2.1137127e-11
1.9160801e-09
-1.5166567e-11
1.9220089e-09
-1.0467611e-11
1.9257714e-09
-6.6428293e-12
1.9277063e-09
-3.4159071e-12
1.9279739e-09
-4.7224998e-13
1.9265779e-09
2.4649107e-12
1.9236375e-09
5.1918286e-12
1.9193766e-09
7.5231987e-12
1.9139764e-09
9.5347344e-12
1.9076805e-09
1.111622e-11
1.9007139e-09
1.2300267e-11
1.8932353e-09
1.3204406e-11
1.885411e-09
1.3814762e-11
1.8773999e-09
1.4144645e-11
1.8692918e-09
1.4315819e-11
1.8611396e-09
1.4393585e-11
1.853011e-09
1.4352114e-11
1.8449681e-09
1.4200643e-11
1.8370325e-09
1.4011237e-11
1.8291959e-09
1.3836386e-11
1.8214534e-09
1.3670389e-11
1.8138075e-09
1.3499777e-11
1.8062742e-09
1.330113e-11
1.7986978e-09
1.3377204e-11
1.7911892e-09
1.3257429e-11
1.7829653e-09
1.4520738e-11
1.7747042e-09
1.4587546e-11
1.7656292e-09
1.6016602e-11
9.5389913e-12
2.186047e-06
3.1633166e-10
2.1858219e-06
8.5556726e-10
2.1855094e-06
1.1875358e-09
2.185147e-06
1.3770413e-09
2.1847318e-06
1.5776533e-09
2.1842583e-06
1.7992825e-09
2.1837215e-06
2.0400524e-09
2.1831143e-06
2.3070901e-09
2.1824275e-06
2.6100795e-09
2.1816489e-06
2.9589363e-09
2.1807634e-06
3.3651127e-09
2.1797517e-06
3.845172e-09
2.1785888e-06
4.4200318e-09
2.1772392e-06
5.1295697e-09
2.1756588e-06
6.0076135e-09
2.1737673e-06
7.1902427e-09
2.1714905e-06
8.655426e-09
2.1685691e-06
1.1107304e-08
2.1649768e-06
1.3658533e-08
2.1595059e-06
2.0803605e-08
2.152802e-06
2.5493519e-08
2.1368088e-06
6.0821353e-08
2.1249022e-06
4.5246822e-08
1.0869819e-06
3.9889338e-06
3.3695293e-08
4.0243683e-06
1.644851e-08
3.7922404e-08
1.2464504e-08
8.7289767e-09
1.0537875e-08
4.2208092e-09
9.3469529e-09
2.6088998e-09
8.5017827e-09
1.8514657e-09
7.8568514e-09
1.41282e-09
7.3392555e-09
1.1338845e-09
6.9111251e-09
9.3789691e-10
6.548895e-09
7.9353179e-10
6.2365194e-09
6.8431888e-10
5.9630373e-09
5.9911691e-10
5.7207486e-09
5.3078289e-10
5.5039669e-09
4.7490522e-10
5.3083481e-09
4.2854434e-10
5.1305251e-09
3.8955908e-10
4.9678541e-09
3.5636539e-10
4.8181618e-09
3.2793352e-10
4.6797544e-09
3.0321198e-10
4.5512346e-09
2.8155038e-10
4.4313707e-09
2.6258815e-10
4.3191854e-09
2.4576669e-10
4.213836e-09
2.3079111e-10
4.1146054e-09
2.173867e-10
4.0208785e-09
2.0532948e-10
3.9321229e-09
1.9443891e-10
3.8478738e-09
1.8456632e-10
3.7677251e-09
1.7558355e-10
3.6913199e-09
1.6738272e-10
3.6183441e-09
1.5986963e-10
3.5485212e-09
1.5296281e-10
3.4816038e-09
1.4659734e-10
3.4173703e-09
1.4071791e-10
3.3556222e-09
1.3527307e-10
3.2961815e-09
1.302179e-10
3.2388881e-09
1.2551398e-10
3.1835982e-09
1.2112501e-10
3.1301833e-09
1.1701723e-10
3.0785271e-09
1.1316419e-10
3.028523e-09
1.0954529e-10
2.9800734e-09
1.0613945e-10
2.9330915e-09
1.0292435e-10
2.8874993e-09
9.9879684e-11
2.843227e-09
9.6988264e-11
2.8002124e-09
9.4232846e-11
2.7584026e-09
9.1593687e-11
2.7177528e-09
8.9052283e-11
2.6782254e-09
8.6593303e-11
2.6397902e-09
8.4200696e-11
2.6024243e-09
8.1858163e-11
2.5661122e-09
7.9549527e-11
2.5308471e-09
7.7255829e-11
2.496634e-09
7.4951118e-11
2.4634978e-09
7.2591996e-11
2.4314817e-09
7.0138309e-11
2.4006411e-09
6.7563058e-11
2.3710473e-09
6.4831561e-11
2.3427887e-09
6.190666e-11
2.3159739e-09
5.8743806e-11
2.2907469e-09
5.5265726e-11
2.2673045e-09
5.1356086e-11
2.2458922e-09
4.6909277e-11
2.2268246e-09
4.1773019e-11
2.210721e-09
3.5280211e-11
2.1974763e-09
2.9018545e-11
2.1890131e-09
1.8543006e-11
2.1857696e-09
7.1081401e-12
2.1875393e-09
-3.8722646e-12
2.1964543e-09
-1.9526054e-11
2.213258e-09
-3.680726e-11
2.2392235e-09
-5.687884e-11
2.2752499e-09
-7.8920198e-11
2.3214192e-09
-1.0114159e-10
2.3773473e-09
-1.2252176e-10
2.4424576e-09
-1.4264095e-10
2.5141232e-09
-1.5700591e-10
2.5863181e-09
-1.5816791e-10
2.6537729e-09
-1.4778451e-10
2.709494e-09
-1.2207576e-10
2.7526203e-09
-9.4481235e-11
2.7863959e-09
-7.3995505e-11
2.8106701e-09
-5.3177732e-11
2.8284222e-09
-3.8889192e-11
2.8411603e-09
-2.7904691e-11
2.8499522e-09
-1.925947e-11
2.8555319e-09
-1.2222542e-11
2.8584014e-09
-6.2854692e-12
2.8587987e-09
-8.6949681e-13
2.8567291e-09
4.5344553e-12
2.8523693e-09
9.5516524e-12
2.8460515e-09
1.3841055e-11
2.8380443e-09
1.7541933e-11
2.8287088e-09
2.0451639e-11
2.818379e-09
2.2630124e-11
2.8072898e-09
2.4293545e-11
2.7956881e-09
2.54165e-11
2.7838093e-09
2.602348e-11
2.7717867e-09
2.6338417e-11
2.7596988e-09
2.6481461e-11
2.7476457e-09
2.6405167e-11
2.7357199e-09
2.6126524e-11
2.7239531e-09
2.577805e-11
2.7123331e-09
2.5456317e-11
2.7008527e-09
2.5150858e-11
2.6895155e-09
2.4836931e-11
2.6783452e-09
2.4471434e-11
2.6671112e-09
2.46112e-11
2.6559779e-09
2.4390693e-11
2.6437843e-09
2.6714339e-11
2.6315364e-09
2.6835497e-11
2.6180768e-09
2.9476222e-11
1.7536364e-11
2.3100297e-06
4.0432041e-10
2.3097916e-06
1.093671e-09
2.309461e-06
1.5181664e-09
2.3090775e-06
1.7604932e-09
2.3086382e-06
2.0169727e-09
2.3081372e-06
2.300305e-09
2.3075691e-06
2.6080975e-09
2.3069268e-06
2.9494588e-09
2.3062001e-06
3.3367665e-09
2.3053763e-06
3.7826938e-09
2.3044395e-06
4.3018779e-09
2.3033692e-06
4.9154873e-09
2.302139e-06
5.6502543e-09
2.3007114e-06
6.5571443e-09
2.2990397e-06
7.6793843e-09
2.297039e-06
9.1908922e-09
2.294631e-06
1.1063484e-08
2.2915412e-06
1.4197076e-08
2.2877421e-06
1.7457563e-08
2.281957e-06
2.6588775e-08
2.2748682e-06
3.2582254e-08
2.2579576e-06
7.7731974e-08
2.2453607e-06
5.784376e-08
1.1563942e-06
5.0779003e-06
4.6576137e-08
5.1341864e-06
2.278758e-08
6.1710961e-08
1.7268851e-08
1.4247706e-08
1.4599735e-08
6.889925e-09
1.2949727e-08
4.2589078e-09
1.177875e-08
3.0224433e-09
1.0885204e-08
2.3063652e-09
1.016809e-08
1.8509985e-09
9.5749299e-09
1.5310572e-09
9.0730733e-09
1.2953883e-09
8.6402902e-09
1.117102e-09
8.261394e-09
9.780131e-10
7.9257155e-09
8.6646137e-10
7.6253763e-09
7.7524444e-10
7.3543574e-09
6.9956324e-10
7.107994e-09
6.3592244e-10
6.8826229e-09
5.817365e-10
6.6752336e-09
5.3532288e-10
6.4834788e-09
4.9496673e-10
6.3054226e-09
4.5960658e-10
6.1393588e-09
4.2865197e-10
5.9839332e-09
4.0119231e-10
5.8379784e-09
3.7674589e-10
5.7005008e-09
3.5486432e-10
5.5706483e-09
3.3518194e-10
5.4476832e-09
3.1740402e-10
5.3309617e-09
3.0128787e-10
5.2199209e-09
2.866243e-10
5.1140665e-09
2.7323715e-10
5.0129634e-09
2.6097269e-10
4.9162283e-09
2.4969793e-10
4.8235188e-09
2.3930689e-10
4.7345274e-09
2.2970925e-10
4.6489795e-09
2.2082105e-10
4.5666284e-09
2.1256895e-10
4.4872522e-09
2.0489023e-10
4.4106515e-09
1.9772565e-10
4.3366487e-09
1.9102008e-10
4.2650825e-09
1.8473037e-10
4.1958049e-09
1.7882286e-10
4.1286812e-09
1.7326316e-10
4.0635908e-09
1.6801482e-10
4.0004257e-09
1.630447e-10
3.9390893e-09
1.5832474e-10
3.8794953e-09
1.5382679e-10
3.8215704e-09
1.4951863e-10
3.7652526e-09
1.4537005e-10
3.7104899e-09
1.4135601e-10
3.6572403e-09
1.3745033e-10
3.6054721e-09
1.3362638e-10
3.5551638e-09
1.2985776e-10
3.5063062e-09
1.2611351e-10
3.458906e-09
1.2235127e-10
3.4129978e-09
1.1850021e-10
3.3686413e-09
1.1449479e-10
3.3259135e-09
1.102909e-10
3.2849131e-09
1.0583194e-10
3.2457625e-09
1.0105724e-10
3.2086123e-09
9.589403e-11
3.1736619e-09
9.0216149e-11
3.1411842e-09
8.3833694e-11
3.1115193e-09
7.6574203e-11
3.0851033e-09
6.8189041e-11
3.0627936e-09
5.7589869e-11
3.0444466e-09
4.7365637e-11
3.0327228e-09
3.0266739e-11
3.0282305e-09
1.1600418e-11
3.0306856e-09
-6.3273468e-12
3.0430396e-09
-3.1880052e-11
3.0663232e-09
-6.0090815e-11
3.1022997e-09
-9.2855385e-11
3.1522143e-09
-1.2883476e-10
3.2161804e-09
-1.6510774e-10
3.2936656e-09
-2.0000691e-10
3.3838697e-09
-2.328451e-10
3.4831528e-09
-2.5628895e-10
3.5831679e-09
-2.5818301e-10
3.6766153e-09
-2.4123199e-10
3.7538094e-09
-1.9926979e-10
3.8135561e-09
-1.54228e-10
3.8603485e-09
-1.2078788e-10
3.8939796e-09
-8.6808787e-11
3.9185748e-09
-6.3484389e-11
3.9362237e-09
-4.5553583e-11
3.9484053e-09
-3.144107e-11
3.9561366e-09
-1.995389e-11
3.9601131e-09
-1.0261968e-11
3.9606642e-09
-1.4206076e-12
3.9577976e-09
7.4010337e-12
3.9517579e-09
1.5591405e-11
3.9430053e-09
2.2593632e-11
3.9319122e-09
2.8635015e-11
3.9189789e-09
3.3384937e-11
3.9046678e-09
3.69412e-11
3.8893048e-09
3.9656541e-11
3.8732317e-09
4.1489683e-11
3.8567745e-09
4.2480615e-11
3.8401182e-09
4.2994737e-11
3.8233715e-09
4.3228196e-11
3.806673e-09
4.3103667e-11
3.7901506e-09
4.2648871e-11
3.7738487e-09
4.2080022e-11
3.7577502e-09
4.1554758e-11
3.741845e-09
4.1056041e-11
3.7261384e-09
4.0543527e-11
3.710663e-09
3.994686e-11
3.6950996e-09
4.017465e-11
3.6796757e-09
3.9814579e-11
3.6627837e-09
4.360632e-11
3.6458168e-09
4.3802418e-11
3.6271673e-09
4.8125687e-11
2.8612863e-11
2.4684371e-06
4.9842791e-10
2.4681823e-06
1.348401e-09
2.4678285e-06
1.8719611e-09
2.4674182e-06
2.1708427e-09
2.466948e-06
2.4871115e-09
2.4664119e-06
2.8364688e-09
2.465804e-06
3.2159729e-09
2.4651166e-06
3.6368518e-09
2.464339e-06
4.1143634e-09
2.4634576e-06
4.664131e-09
2.4624553e-06
5.3041969e-09
2.4613101e-06
6.0606545e-09
2.4599939e-06
6.9664531e-09
2.4584666e-06
8.0844147e-09
2.4566782e-06
9.4678136e-09
2.4545381e-06
1.1331031e-08
2.4519623e-06
1.3639287e-08
2.4486575e-06
1.7501845e-08
2.4445943e-06
2.1520709e-08
2.4384076e-06
3.2775474e-08
2.4308272e-06
4.0162654e-08
2.4127446e-06
9.5814639e-08
2.3992658e-06
7.1322559e-08
1.2444509e-06
6.2327152e-06
6.2170959e-08
6.3164663e-06
3.0489548e-08
9.3392372e-08
2.3106483e-08
2.1630771e-08
1.9535263e-08
1.0461146e-08
1.7327401e-08
6.466769e-09
1.5760521e-08
4.5893238e-09
1.4564875e-08
3.5020111e-09
1.3605324e-08
2.81055e-09
1.2811634e-08
2.3247466e-09
1.2140117e-08
1.9669055e-09
1.1561027e-08
1.6961918e-09
1.1054044e-08
1.4849968e-09
1.0604889e-08
1.3156161e-09
1.0203021e-08
1.1771127e-09
9.840385e-09
1.0621989e-09
9.51074e-09
9.6556741e-10
9.2091836e-09
8.8329292e-10
8.9316883e-09
8.1281813e-10
8.6751131e-09
7.5154195e-10
8.4368666e-09
6.9785307e-10
8.2146668e-09
6.5085178e-10
8.0067014e-09
6.0915771e-10
7.8114084e-09
5.720389e-10
7.6274582e-09
5.3881451e-10
7.4537108e-09
5.0892933e-10
7.289179e-09
4.8193587e-10
7.1330012e-09
4.5746559e-10
6.9844247e-09
4.3520086e-10
6.8427876e-09
4.1487422e-10
6.707508e-09
3.9625225e-10
6.5780729e-09
3.7913303e-10
6.4540242e-09
3.6335562e-10
6.3349506e-09
3.4878289e-10
6.2204843e-09
3.3528734e-10
6.1102956e-09
3.2275764e-10
6.0040873e-09
3.1109854e-10
5.9015928e-09
3.002201e-10
5.8025743e-09
2.9003862e-10
5.7068161e-09
2.8048856e-10
5.6141201e-09
2.7151884e-10
5.5243061e-09
2.6307722e-10
5.4372125e-09
2.5510835e-10
5.3526953e-09
2.4756192e-10
5.2706247e-09
2.4039533e-10
5.1908857e-09
2.3356583e-10
5.1133798e-09
2.2702451e-10
5.0380244e-09
2.2072549e-10
4.9647496e-09
2.1463076e-10
4.8934994e-09
2.0870055e-10
4.8242313e-09
2.0289443e-10
4.7569168e-09
1.9717232e-10
4.6915431e-09
1.9148719e-10
4.6281196e-09
1.8577473e-10
4.5666924e-09
1.7992741e-10
4.5073415e-09
1.7384571e-10
4.4501698e-09
1.6746264e-10
4.3953094e-09
1.6069227e-10
4.3429242e-09
1.5344244e-10
4.2932157e-09
1.4560258e-10
4.2464507e-09
1.3698113e-10
4.2029947e-09
1.2728974e-10
4.1633024e-09
1.1626644e-10
4.1279578e-09
1.0353363e-10
4.0981078e-09
8.743991e-11
4.0735622e-09
7.1911227e-11
4.0578772e-09
4.5951754e-11
4.0518678e-09
1.760977e-11
4.0551573e-09
-9.6167708e-12
4.0716909e-09
-4.8413707e-11
4.1028493e-09
-9.1249242e-11
4.1509911e-09
-1.409971e-10
4.2177815e-09
-1.956252e-10
4.3033725e-09
-2.5069875e-10
4.4070509e-09
-3.036853e-10
4.5277445e-09
-3.535387e-10
4.6605821e-09
-3.8912657e-10
4.7943977e-09
-3.9199855e-10
4.9194248e-09
-3.6625915e-10
5.0227085e-09
-3.0255342e-10
5.1026498e-09
-2.3416935e-10
5.165258e-09
-1.8339608e-10
5.210259e-09
-1.3180981e-10
5.2431699e-09
-9.6395206e-11
5.2667865e-09
-6.9170177e-11
5.2830876e-09
-4.774219e-11
5.293434e-09
-3.0300328e-11
5.2987561e-09
-1.55841e-11
5.2994947e-09
-2.1592067e-12
5.2956602e-09
1.1235605e-11
5.2875796e-09
2.3672018e-11
5.2758689e-09
3.4304261e-11
5.2610266e-09
4.3477387e-11
5.2437218e-09
5.0689679e-11
5.2245735e-09
5.6089533e-11
5.2040177e-09
6.0212371e-11
5.1825115e-09
6.2995795e-11
5.1604916e-09
6.4500548e-11
5.1382051e-09
6.5281207e-11
5.1157977e-09
6.5635619e-11
5.0934548e-09
6.5446567e-11
5.0713476e-09
6.4756122e-11
5.0495352e-09
6.3892409e-11
5.0279952e-09
6.3094766e-11
5.0067138e-09
6.2337403e-11
4.9856982e-09
6.1559126e-11
4.9649919e-09
6.0653136e-11
4.9441682e-09
6.0998383e-11
4.9235312e-09
6.0451598e-11
4.9009312e-09
6.6206288e-11
4.8782311e-09
6.6502488e-11
4.8532761e-09
7.3080739e-11
4.343136e-11
2.6636297e-06
6.0008059e-10
2.6633545e-06
1.6236379e-09
2.6629721e-06
2.2543324e-09
2.6625286e-06
2.6143774e-09
2.6620204e-06
2.9952743e-09
2.6614409e-06
3.4159881e-09
2.6607839e-06
3.8729883e-09
2.6600409e-06
4.3797913e-09
2.6592005e-06
4.9547665e-09
2.658248e-06
5.6167233e-09
2.6571648e-06
6.3873821e-09
2.6559273e-06
7.2981544e-09
2.654505e-06
8.3887028e-09
2.6528548e-06
9.7346535e-09
2.6509225e-06
1.1400127e-08
2.6486103e-06
1.3643203e-08
2.6458276e-06
1.6421964e-08
2.6422577e-06
2.1071743e-08
2.6378689e-06
2.590954e-08
2.6311871e-06
3.9457257e-08
2.6230005e-06
4.8349251e-08
2.6034729e-06
1.1534224e-07
2.5889064e-06
8.5889023e-08
1.3529347e-06
7.4686869e-06
8.1388303e-08
7.5880128e-06
4.0015053e-08
1.3476562e-07
3.0326693e-08
3.1319131e-08
2.5639803e-08
1.5148035e-08
2.2741929e-08
9.3646427e-09
2.0685352e-08
6.6459009e-09
1.9116036e-08
5.0713274e-09
1.7856618e-08
4.0699677e-09
1.6814899e-08
3.3664652e-09
1.5933534e-08
2.8482707e-09
1.5173483e-08
2.4562426e-09
1.4508074e-08
2.1504059e-09
1.3918566e-08
1.9051239e-09
1.3391122e-08
1.7045567e-09
1.2915171e-08
1.53815e-09
1.248252e-08
1.3982184e-09
1.2086735e-08
1.2790783e-09
1.172253e-08
1.1770227e-09
1.1385783e-08
1.0882892e-09
1.1073091e-08
1.0105449e-09
1.0781461e-08
9.4248243e-10
1.0508512e-08
8.82106e-10
1.0252196e-08
8.2835494e-10
1.0010767e-08
7.8024338e-10
9.7827294e-09
7.3696731e-10
9.5667866e-09
6.9787869e-10
9.3618083e-09
6.6244385e-10
9.1668064e-09
6.3020282e-10
8.9809123e-09
6.0076832e-10
8.8033622e-09
5.7380231e-10
8.6334828e-09
5.4901242e-10
8.4706729e-09
5.2616558e-10
8.3143926e-09
5.0506319e-10
8.1641592e-09
4.8552067e-10
8.0195401e-09
4.6737676e-10
7.8801451e-09
4.5049355e-10
7.7456244e-09
4.347408e-10
7.6156657e-09
4.1999732e-10
7.4899861e-09
4.0616821e-10
7.3683254e-09
3.9317946e-10
7.2504472e-09
3.8095543e-10
7.1361396e-09
3.6941598e-10
7.0252133e-09
3.5848826e-10
6.917498e-09
3.4811057e-10
6.8128428e-09
3.3822102e-10
6.7111186e-09
3.2874877e-10
6.6122166e-09
3.1962741e-10
6.5160455e-09
3.1080189e-10
6.4225315e-09
3.0221458e-10
6.3316189e-09
2.9380698e-10
6.2432703e-09
2.8552099e-10
6.1574689e-09
2.7728855e-10
6.0742271e-09
2.690165e-10
5.9936054e-09
2.6054916e-10
5.9157087e-09
2.5174243e-10
5.8406721e-09
2.4249925e-10
5.7686691e-09
2.3269521e-10
5.6999147e-09
2.2219682e-10
5.6346735e-09
2.1084384e-10
5.5732958e-09
1.9835885e-10
5.5162612e-09
1.8432428e-10
5.464167e-09
1.6836063e-10
5.4177796e-09
1.4992101e-10
5.3786037e-09
1.2661582e-10
5.3463933e-09
1.041217e-10
5.3258093e-09
6.6535669e-11
5.3179239e-09
2.5495252e-11
5.322247e-09
-1.3939946e-11
5.3439515e-09
-7.0118146e-11
5.3848513e-09
-1.3214911e-10
5.4480407e-09
-2.0418643e-10
5.5357047e-09
-2.8328922e-10
5.6480426e-09
-3.6303665e-10
5.7841175e-09
-4.397602e-10
5.9425199e-09
-5.1194109e-10
6.1168557e-09
-5.6346244e-10
6.2924732e-09
-5.6761602e-10
6.4565555e-09
-5.3034142e-10
6.5921059e-09
-4.3810387e-10
6.6970242e-09
-3.3908762e-10
6.7791936e-09
-2.6556553e-10
6.8382585e-09
-1.908747e-10
6.8814554e-09
-1.3959211e-10
6.9124542e-09
-1.0016891e-10
6.9338515e-09
-6.9139492e-11
6.9474333e-09
-4.3882151e-11
6.9544206e-09
-2.2571407e-11
6.9553918e-09
-3.1304167e-12
6.9503606e-09
1.6266807e-11
6.9397563e-09
3.4276334e-11
6.9243875e-09
4.9673098e-11
6.9049082e-09
6.2956646e-11
6.882197e-09
7.3400866e-11
6.8570661e-09
8.1220487e-11
6.8300878e-09
8.7190616e-11
6.8018623e-09
9.1221302e-11
6.7729623e-09
9.3400546e-11
6.7437124e-09
9.4531061e-11
6.7143039e-09
9.5044186e-11
6.68498e-09
9.4770477e-11
6.6559653e-09
9.3770823e-11
6.6273376e-09
9.2520123e-11
6.5990674e-09
9.1364923e-11
6.5711368e-09
9.0268015e-11
6.543555e-09
8.9140869e-11
6.5163793e-09
8.7828891e-11
6.4890498e-09
8.8327838e-11
6.4619654e-09
8.753606e-11
6.4323067e-09
9.5865e-11
6.4025166e-09
9.6292591e-11
6.369763e-09
1.0583425e-10
6.2878849e-11
2.8985165e-06
7.108248e-10
2.8982166e-06
1.9235949e-09
2.8977997e-06
2.671163e-09
2.8973162e-06
3.0979339e-09
2.8967622e-06
3.549295e-09
2.8961304e-06
4.0477945e-09
2.8954141e-06
4.589265e-09
2.8946042e-06
5.1897156e-09
2.893688e-06
5.8709052e-09
2.8926496e-06
6.6551144e-09
2.8914689e-06
7.5680697e-09
2.8901201e-06
8.646975e-09
2.88857e-06
9.9388037e-09
2.8867715e-06
1.1533128e-08
2.8846658e-06
1.3505876e-08
2.8821463e-06
1.6162724e-08
2.8791143e-06
1.9453958e-08
2.8752249e-06
2.4961131e-08
2.8704436e-06
3.0690799e-08
2.8631654e-06
4.6735481e-08
2.8542486e-06
5.7266105e-08
2.8329805e-06
1.3661027e-07
2.8171029e-06
1.0176669e-07
1.4840364e-06
8.8017534e-06
1.0534259e-07
8.9667065e-06
5.1933758e-08
1.8817446e-07
3.9361503e-08
4.3891386e-08
3.3278668e-08
2.123087e-08
2.9517317e-08
1.3125994e-08
2.6847933e-08
9.3152842e-09
2.4811008e-08
7.1082534e-09
2.3176347e-08
5.7046284e-09
2.1824254e-08
4.7185577e-09
2.0680294e-08
3.9922307e-09
1.9693799e-08
3.4427384e-09
1.8830146e-08
3.014059e-09
1.8065009e-08
2.6702601e-09
1.7380429e-08
2.3891372e-09
1.6762683e-08
2.1558957e-09
1.6201138e-08
1.9597631e-09
1.5687442e-08
1.7927747e-09
1.5214736e-08
1.6497283e-09
1.4777669e-08
1.525357e-09
1.4371822e-08
1.4163918e-09
1.3993311e-08
1.320993e-09
1.3639049e-08
1.2363683e-09
1.3306374e-08
1.16103e-09
1.2993021e-08
1.0935961e-09
1.2697049e-08
1.0329398e-09
1.2416775e-08
9.7815275e-10
1.2150732e-08
9.2848687e-10
1.1897637e-08
8.8329749e-10
1.1656363e-08
8.4204177e-10
1.142592e-08
8.0424595e-10
1.1205432e-08
7.6950024e-10
1.099412e-08
7.3747794e-10
1.0791282e-08
7.0790068e-10
1.0596293e-08
6.8050975e-10
1.0408591e-08
6.5507912e-10
1.0227669e-08
6.3141551e-10
1.0053073e-08
6.0933638e-10
9.8843986e-09
5.8867189e-10
9.7212778e-09
5.6928898e-10
9.5633734e-09
5.5108394e-10
9.4103781e-09
5.3395073e-10
9.262017e-09
5.1777705e-10
9.1180445e-09
5.0246076e-10
8.9782396e-09
4.8791541e-10
8.8424064e-09
4.7405423e-10
8.7103772e-09
4.6077797e-10
8.5820111e-09
4.4799353e-10
8.4571893e-09
4.3562374e-10
8.335816e-09
4.2358782e-10
8.2178192e-09
4.1180378e-10
8.10315e-09
4.0019017e-10
7.991787e-09
3.8865158e-10
7.8837461e-09
3.7705743e-10
7.7791057e-09
3.6518958e-10
7.6780021e-09
3.5284603e-10
7.5806106e-09
3.398907e-10
7.4871566e-09
3.2614923e-10
7.397919e-09
3.1143446e-10
7.3132412e-09
2.9552163e-10
7.2335782e-09
2.7802184e-10
7.1595526e-09
2.5834985e-10
7.0919398e-09
2.3597343e-10
7.0317348e-09
2.10126e-10
6.9808897e-09
1.7746096e-10
6.9390901e-09
1.4592125e-10
6.9123768e-09
9.3248995e-11
6.9021439e-09
3.5728136e-11
6.907763e-09
-1.955899e-11
6.9359392e-09