/*--------------------------------*- C++ -*----------------------------------*\
| =========                 |                                                 |
| \\      /  F ield         | OpenFOAM: The Open Source CFD Toolbox           |
|  \\    /   O peration     | Version:  2206                                  |
|   \\  /    A nd           | Website:  www.openfoam.com                      |
|    \\/     M anipulation  |                                                 |
\*---------------------------------------------------------------------------*/
FoamFile
{
    version     2.0;
    format      ascii;
    arch        "LSB;label=32;scalar=64";
    class       volVectorField;
    location    "1900";
    object      U;
}
// * * * * * * * * * * * * * * * * * * * * * * * * * * * * * * * * * * * * * //

dimensions      [0 1 -1 0 0 0 0];

internalField   nonuniform List<vector> 
13056
(
(0.99999999 9.5002232e-10 5.0859858e-25)
(0.99992856 2.9154681e-09 0)
(0.99979829 4.5910465e-09 0)
(0.99964495 6.039243e-09 0)
(0.99946917 7.847074e-09 0)
(0.99926786 1.0145471e-08 0)
(0.99903898 1.3033012e-08 0)
(0.99877999 1.6687132e-08 0)
(0.99848718 2.135389e-08 0)
(0.99815567 2.7349038e-08 0)
(0.99777935 3.5084951e-08 0)
(0.9973506 4.5133708e-08 0)
(0.99685936 5.8263443e-08 0)
(0.99629294 7.569677e-08 0)
(0.99563187 9.8859916e-08 0)
(0.99485494 1.3130061e-07 0)
(0.99391125 1.7434494e-07 0)
(0.99278155 2.449988e-07 0)
(0.99125522 3.2702934e-07 0)
(0.98950164 5.3518587e-07 0)
(0.98629161 6.9628127e-07 0)
(0.98335056 1.7401613e-06 0)
(0.97179698 1.3355374e-06 -5.070018e-21)
(0.97230408 0.0001212769 8.8150908e-18)
(0.0030800444 0.00012152601 0)
(0.0012180072 7.205914e-08 -1.2234463e-20)
(0.00086779323 4.7494344e-08 4.060399e-18)
(0.00071306172 6.0315067e-09 0)
(0.00062356666 3.6962058e-09 0)
(0.00056208859 2.5990505e-09 0)
(0.00051640812 1.9651055e-09 0)
(0.00048030786 1.5621677e-09 0)
(0.00045076695 1.2795035e-09 0)
(0.00042600945 1.0716972e-09 0)
(0.00040482424 9.1469285e-10 0)
(0.00038638804 7.9235003e-10 0)
(0.00037013472 6.9436808e-10 0)
(0.0003556543 6.1436508e-10 0)
(0.00034263582 5.4807583e-10 0)
(0.00033083938 4.9240246e-10 0)
(0.00032007796 4.4505572e-10 0)
(0.00031020341 4.0453533e-10 5.5854631e-25)
(0.00030108799 3.6935206e-10 0)
(0.00029264486 3.3856337e-10 0)
(0.00028478372 3.1162124e-10 0)
(0.0002774385 2.8774509e-10 0)
(0.00027055136 2.6650333e-10 0)
(0.00026407326 2.4750223e-10 0)
(0.00025796229 2.3042093e-10 0)
(0.00025218236 2.15e-10 0)
(0.000246702 2.0102522e-10 0)
(0.00024149374 1.8831315e-10 0)
(0.00023653354 1.7670952e-10 0)
(0.00023180016 1.6608069e-10 0)
(0.00022727501 1.5631176e-10 0)
(0.00022294159 1.4730964e-10 0)
(0.00021878504 1.3899454e-10 0)
(0.00021479208 1.312938e-10 0)
(0.00021095084 1.2414422e-10 0)
(0.00020725061 1.1749149e-10 0)
(0.00020368176 1.1128565e-10 0)
(0.0002002357 1.0548126e-10 0)
(0.00019690472 1.0004166e-10 0)
(0.00019368179 9.4936837e-11 0)
(0.00019056039 9.0137663e-11 0)
(0.00018753468 8.5615332e-11 0)
(0.00018459947 8.1344133e-11 0)
(0.00018175008 7.7302195e-11 0)
(0.00017898232 7.3468658e-11 0)
(0.00017629251 6.9821896e-11 0)
(0.00017367759 6.6342568e-11 0)
(0.00017113497 6.3014866e-11 0)
(0.00016866247 5.9823456e-11 0)
(0.00016625842 5.6753857e-11 0)
(0.0001639216 5.3792806e-11 0)
(0.00016165129 5.0926167e-11 0)
(0.00015944733 4.8136652e-11 0)
(0.00015731053 4.5397629e-11 0)
(0.00015524327 4.2687335e-11 0)
(0.00015324864 3.9994626e-11 0)
(0.00015133061 3.7305177e-11 0)
(0.00014949429 3.4605626e-11 0)
(0.00014774578 3.1881037e-11 0)
(0.00014609279 2.9101648e-11 0)
(0.00014454591 2.6222684e-11 0)
(0.0001431196 2.3211151e-11 0)
(0.00014183055 2.0019794e-11 0)
(0.00014070211 1.63731e-11 0)
(0.00013979015 1.3006272e-11 0)
(0.00013902292 8.074574e-12 0)
(0.00013872384 1.142895e-11 -4.7744843e-22)
(0.00013861416 -2.0461618e-12 0)
(0.00013895561 -7.4779931e-12 0)
(0.00013975326 -1.3633389e-11 0)
(0.00014109774 -2.0293805e-11 0)
(0.00014305995 -2.7078011e-11 0)
(0.00014568274 -3.3325231e-11 0)
(0.00014893219 -3.8711186e-11 0)
(0.00015279406 -4.3174307e-11 0)
(0.00015720881 -4.5482252e-11 0)
(0.00016189775 -4.3795323e-11 0)
(0.00016636898 -3.9064379e-11 0)
(0.00017045267 -1.1574661e-10 9.8914075e-21)
(0.00017341521 -2.2632612e-11 0)
(0.00017591564 -1.684458e-11 0)
(0.0001776841 -1.1474466e-11 0)
(0.00017898423 -7.9435215e-12 0)
(0.00017992748 -5.3862547e-12 0)
(0.00018059306 -3.5080999e-12 0)
(0.00018103676 -2.0983468e-12 0)
(0.0001812955 -1.017575e-12 0)
(0.00018139583 -1.8422177e-13 0)
(0.00018134063 6.4584026e-13 0)
(0.0001811323 1.3016484e-12 0)
(0.00018079002 1.8897124e-12 0)
(0.0001803306 2.397425e-12 0)
(0.00017977397 2.7964626e-12 0)
(0.00017914602 3.0951375e-12 0)
(0.00017846322 3.3234909e-12 0)
(0.00017773893 3.4776919e-12 0)
(0.00017699109 3.5610653e-12 0)
(0.00017623165 3.6044404e-12 0)
(0.00017546557 3.6243166e-12 0)
(0.00017469784 3.6141116e-12 0)
(0.00017393618 3.5760777e-12 0)
(0.00017318459 3.5284935e-12 0)
(0.00017244312 3.4845764e-12 0)
(0.00017171016 3.442943e-12 0)
(0.00017098636 3.4000652e-12 0)
(0.00017027158 3.3501973e-12 0)
(0.00016956895 3.3693221e-12 0)
(0.00016884601 3.3402681e-12 0)
(0.00016815621 3.6565843e-12 0)
(0.00016729834 1.3868908e-11 0)
(0.00016660194 3.9813678e-12 4.8316182e-24)
(0.00016558926 9.1421643e-12 0)
(0.99999999 2.8651028e-09 0)
(0.99992852 8.7936725e-09 0)
(0.99979814 1.3848658e-08 0)
(0.99964466 1.8217586e-08 0)
(0.99946871 2.3671015e-08 0)
(0.99926721 3.0604077e-08 0)
(0.99903812 3.9314147e-08 0)
(0.9987789 5.0336356e-08 0)
(0.99848582 6.4412804e-08 0)
(0.99815402 8.2495783e-08 0)
(0.99777739 1.0582896e-07 0)
(0.99734829 1.3613763e-07 0)
(0.99685665 1.7573826e-07 0)
(0.9962898 2.2831795e-07 0)
(0.99562824 2.9817756e-07 0)
(0.99485076 3.9601595e-07 0)
(0.99390644 5.2583098e-07 0)
(0.99277602 7.3890645e-07 0)
(0.9912488 9.8628653e-07 0)
(0.98949425 1.614001e-06 0)
(0.9862827 2.0997959e-06 0)
(0.98334027 5.2477919e-06 0)
(0.97178153 4.0270602e-06 1.8819791e-20)
(0.9722843 0.00036451267 -6.9241007e-21)
(0.0092514405 0.00036571888 0)
(0.0036719512 1.191446e-06 0)
(0.0026163102 2.6759626e-07 3.9129058e-22)
(0.002149857 1.2640797e-07 0)
(0.0018800242 7.7438896e-08 0)
(0.0016946649 5.445964e-08 0)
(0.0015569344 4.1172498e-08 0)
(0.0014480915 3.2729793e-08 0)
(0.0013590258 2.6807738e-08 0)
(0.0012843821 2.2453542e-08 0)
(0.0012205092 1.9163753e-08 0)
(0.0011649247 1.6600354e-08 0)
(0.0011159218 1.4547439e-08 0)
(0.0010722641 1.2871226e-08 0)
(0.0010330142 1.1482347e-08 0)
(0.00099744875 1.0315903e-08 0)
(0.00096500386 9.3240263e-09 0)
(0.00093523274 8.4750871e-09 -8.5356168e-25)
(0.00090775063 7.7379665e-09 -1.39308e-24)
(0.00088229521 7.0929679e-09 0)
(0.00085859453 6.5284498e-09 0)
(0.0008364493 6.028208e-09 0)
(0.00081568517 5.5831661e-09 0)
(0.00079615428 5.185073e-09 0)
(0.00077773023 4.8272061e-09 0)
(0.00076030426 4.5041264e-09 0)
(0.00074378147 4.2113454e-09 0)
(0.00072807905 3.9450208e-09 0)
(0.00071312448 3.7019189e-09 0)
(0.00069885378 3.4792409e-09 0)
(0.00068521087 3.2745802e-09 0)
(0.000672146 3.085984e-09 0)
(0.0006596144 2.9117807e-09 0)
(0.00064757599 2.750449e-09 0)
(0.00063599498 2.6006643e-09 0)
(0.00062483915 2.4612887e-09 0)
(0.00061407939 2.3312756e-09 0)
(0.00060368982 2.2096736e-09 0)
(0.00059364724 2.0957134e-09 0)
(0.00058393038 1.9887662e-09 0)
(0.00057451963 1.8882219e-09 0)
(0.0005653974 1.7934771e-09 0)
(0.00055654799 1.7039929e-09 0)
(0.00054795735 1.6193106e-09 0)
(0.00053961278 1.5389938e-09 0)
(0.00053150324 1.4625895e-09 0)
(0.00052361948 1.3896919e-09 0)
(0.00051595369 1.3199692e-09 0)
(0.0005084993 1.2530997e-09 0)
(0.00050125131 1.1887803e-09 0)
(0.000494206 1.1267322e-09 0)
(0.00048736118 1.0666598e-09 0)
(0.00048071644 1.0081996e-09 0)
(0.00047427415 9.5079418e-10 0)
(0.00046804153 8.9398754e-10 0)
(0.00046202791 8.3754135e-10 0)
(0.00045624521 7.8115841e-10 0)
(0.00045070887 7.2455802e-10 0)
(0.00044543729 6.6742307e-10 0)
(0.00044045369 6.091304e-10 0)
(0.00043579004 5.4873777e-10 0)
(0.00043148995 4.8556299e-10 0)
(0.00042760374 4.1858544e-10 0)
(0.00042420185 3.4196774e-10 0)
(0.00042145258 2.7191514e-10 0)
(0.00041914016 1.6779918e-10 1.012831e-24)
(0.00041823842 6.281954e-11 2.1242915e-24)
(0.00041790856 -3.2059779e-11 0)
(0.00041893856 -1.5827129e-10 0)
(0.00042134408 -2.8714876e-10 0)
(0.00042539825 -4.2665662e-10 0)
(0.00043131477 -5.6861481e-10 0)
(0.00043922268 -6.9919245e-10 0)
(0.00044901983 -8.117798e-10 0)
(0.00046066301 -9.0477897e-10 0)
(0.00047397251 -9.5228442e-10 0)
(0.00048810809 -9.1615139e-10 0)
(0.00050158723 -8.1638363e-10 0)
(0.00051389755 -6.516392e-10 -2.7016482e-24)
(0.00052282927 -4.7273239e-10 -4.0370596e-24)
(0.0005303669 -3.5155526e-10 0)
(0.0005356986 -2.3951703e-10 0)
(0.00053961833 -1.6578464e-10 0)
(0.00054246222 -1.1238823e-10 0)
(0.00054446895 -7.3146892e-11 0)
(0.00054580677 -4.3684452e-11 0)
(0.00054658693 -2.1092382e-11 0)
(0.00054688948 -2.6855569e-12 0)
(0.00054672314 1.3335373e-11 0)
(0.00054609509 2.7394751e-11 0)
(0.00054506317 3.9692239e-11 0)
(0.00054367808 5.0303042e-11 0)
(0.00054199993 5.8644991e-11 0)
(0.00054010676 6.4890547e-11 0)
(0.00053804821 6.9660084e-11 0)
(0.00053586458 7.287953e-11 0)
(0.00053360994 7.4619175e-11 0)
(0.00053132032 7.5521972e-11 0)
(0.00052901069 7.5932276e-11 0)
(0.00052669609 7.5713325e-11 0)
(0.00052439978 7.4913907e-11 0)
(0.00052213384 7.3914686e-11 0)
(0.00051989839 7.2992465e-11 0)
(0.00051768861 7.2117081e-11 0)
(0.00051550649 7.1217146e-11 0)
(0.00051335152 7.0169378e-11 0)
(0.00051123322 7.057155e-11 0)
(0.00050905374 6.9941438e-11 0)
(0.00050697408 7.6606908e-11 0)
(0.00050438816 7.810273e-11 0)
(0.00050228861 8.44019e-11 -7.4736073e-24)
(0.00049923545 5.1201753e-11 1.1596928e-24)
(0.99999999 4.8240868e-09 0)
(0.99992847 1.4807466e-08 0)
(0.99979797 2.3321108e-08 0)
(0.99964434 3.0679173e-08 0)
(0.9994682 3.9863047e-08 0)
(0.99926649 5.1538414e-08 0)
(0.99903717 6.6206075e-08 0)
(0.99877768 8.4767058e-08 0)
(0.99848431 1.0847087e-07 0)
(0.99815219 1.3892091e-07 0)
(0.9977752 1.7821117e-07 0)
(0.99734571 2.2924645e-07 0)
(0.99685364 2.9592688e-07 0)
(0.9962863 3.8446013e-07 0)
(0.99562419 5.0208693e-07 0)
(0.99484611 6.6682005e-07 0)
(0.99390108 8.8538847e-07 0)
(0.99276987 1.2441331e-06 0)
(0.99124166 1.6606275e-06 0)
(0.98948603 2.7174229e-06 0)
(0.98627279 3.5352854e-06 0)
(0.98332884 8.8352428e-06 0)
(0.97176439 6.7819361e-06 -9.9707415e-21)
(0.97226243 0.00061146193 6.735138e-55)
(0.015524793 0.00061462476 -6.7327143e-55)
(0.006180381 3.3398534e-06 0)
(0.0044038125 7.6440522e-07 -2.0939003e-22)
(0.0036187364 3.6698422e-07 0)
(0.0031645304 2.248295e-07 0)
(0.0028525184 1.5811536e-07 0)
(0.002620677 1.1953719e-07 0)
(0.0024374652 9.5024111e-08 0)
(0.0022875446 7.783052e-08 0)
(0.0021619 6.5188919e-08 0)
(0.0020543858 5.5637505e-08 0)
(0.0019608237 4.8195096e-08 0)
(0.0018783401 4.2234859e-08 0)
(0.001804854 3.7368332e-08 0)
(0.0017387873 3.3336028e-08 0)
(0.0016789225 2.9949527e-08 0)
(0.0016243103 2.7069863e-08 0)
(0.0015741987 2.4605145e-08 0)
(0.0015279404 2.2465092e-08 0)
(0.0014850931 2.0592529e-08 0)
(0.0014451996 1.8953588e-08 0)
(0.0014079242 1.7501266e-08 0)
(0.0013729736 1.6209204e-08 0)
(0.0013400988 1.5053446e-08 0)
(0.0013090871 1.4014476e-08 0)
(0.0012797553 1.3076501e-08 0)
(0.0012519439 1.2226491e-08 0)
(0.0012255132 1.145329e-08 0)
(0.0012003414 1.074751e-08 0)
(0.0011763207 1.0101026e-08 0)
(0.0011533567 9.50685e-09 0)
(0.0011313657 8.9593133e-09 0)
(0.0011102722 8.4535626e-09 0)
(0.001090009 7.9851809e-09 0)
(0.0010705156 7.5503229e-09 0)
(0.0010517379 7.1456849e-09 0)
(0.0010336268 6.7682282e-09 0)
(0.0010161389 6.4151917e-09 0)
(0.00099923505 6.084341e-09 0)
(0.00098287943 5.7738504e-09 0)
(0.00096703907 5.481949e-09 0)
(0.00095168435 5.2068847e-09 0)
(0.00093678885 4.9470933e-09 0)
(0.0009223289 4.701243e-09 0)
(0.00090828313 4.4680664e-09 0)
(0.00089463297 4.2462491e-09 0)
(0.00088136286 4.0346127e-09 0)
(0.00086845963 3.8321936e-09 0)
(0.00085591223 3.6380582e-09 0)
(0.00084371224 3.4513265e-09 0)
(0.0008318534 3.2711884e-09 0)
(0.00082033203 3.0967863e-09 0)
(0.00080914744 2.9270643e-09 0)
(0.00079830363 2.760405e-09 0)
(0.00078781273 2.5954846e-09 0)
(0.00077769045 2.4316104e-09 0)
(0.00076795689 2.2679201e-09 0)
(0.000758638 2.1035984e-09 0)
(0.00074976477 1.937723e-09 0)
(0.00074137631 1.768485e-09 0)
(0.00073352643 1.5931492e-09 0)
(0.00072628854 1.4097333e-09 0)
(0.00071974739 1.2152745e-09 0)
(0.00071402156 9.9284602e-10 0)
(0.00070939421 7.8938512e-10 0)
(0.00070550287 4.871832e-10 2.1467325e-24)
(0.00070398489 1.8004358e-10 -1.1256259e-24)
(0.00070343075 -9.4571634e-11 0)
(0.00070516512 -4.5947494e-10 0)
(0.00070921504 -8.3364814e-10 0)
(0.00071603996 -1.2386601e-09 0)
(0.00072599953 -1.6507857e-09 0)
(0.00073931086 -2.029876e-09 0)
(0.000755802 -2.3567366e-09 0)
(0.00077540003 -2.6266981e-09 0)
(0.00079780204 -2.7646023e-09 0)
(0.0008215938 -2.6597245e-09 0)
(0.00084428059 -2.3701592e-09 0)
(0.00086499942 -1.8617761e-09 0)
(0.00088003346 -1.3724939e-09 0)
(0.00089271978 -1.0207403e-09 0)
(0.0009016942 -6.9545744e-10 0)
(0.000908292 -4.8138031e-10 0)
(0.00091307901 -3.2634687e-10 0)
(0.00091645694 -2.1240971e-10 0)
(0.00091870895 -1.2686649e-10 0)
(0.00092002228 -6.126943e-11 0)
(0.00092053168 -7.9453246e-12 0)
(0.0009202518 3.8736478e-11 0)
(0.00091919474 7.9516051e-11 0)
(0.00091745786 1.1522167e-10 0)
(0.0009151265 1.4602943e-10 0)
(0.00091230187 1.702503e-10 0)
(0.00090911529 1.8838447e-10 0)
(0.00090565034 2.022321e-10 0)
(0.00090197486 2.1158003e-10 0)
(0.00089817985 2.1663208e-10 0)
(0.00089432596 2.1925372e-10 0)
(0.00089043839 2.2044498e-10 0)
(0.00088654245 2.1980986e-10 0)
(0.00088267731 2.1748983e-10 0)
(0.00087886327 2.1458903e-10 0)
(0.00087510055 2.1191136e-10 0)
(0.00087138108 2.0936939e-10 0)
(0.00086770814 2.0675659e-10 0)
(0.00086408093 2.0371439e-10 0)
(0.00086051544 2.0488055e-10 0)
(0.00085684706 2.0304732e-10 0)
(0.00085334659 2.2239828e-10 0)
(0.00084899457 2.2308972e-10 0)
(0.00084546056 2.4523642e-10 0)
(0.00084032144 1.4597268e-10 0)
(0.99999999 6.8564113e-09 1.0899455e-24)
(0.99992842 2.1047724e-08 0)
(0.99979779 3.3151901e-08 0)
(0.99964397 4.3612968e-08 0)
(0.99946763 5.6668718e-08 0)
(0.99926569 7.3265898e-08 0)
(0.9990361 9.4116455e-08 0)
(0.99877632 1.2050102e-07 0)
(0.99848263 1.5419552e-07 0)
(0.99815014 1.9747887e-07 0)
(0.99777275 2.5332716e-07 0)
(0.99734282 3.2586881e-07 0)
(0.99685026 4.2064666e-07 0)
(0.99628238 5.4648305e-07 0)
(0.99561967 7.1366785e-07 0)
(0.9948409 9.4780044e-07 0)
(0.99389509 1.2584409e-06 0)
(0.99276299 1.7682932e-06 0)
(0.99123367 2.3602086e-06 0)
(0.98947683 3.8620513e-06 0)
(0.98626172 5.0243349e-06 0)
(0.98331606 1.2556413e-05 0)
(0.9717453 9.6409095e-06 0)
(0.97223812 0.00086575101 -3.5137962e-55)
(0.021990627 0.00087204172 3.5125398e-55)
(0.0087806533 6.8855004e-06 0)
(0.0062569356 1.5759322e-06 0)
(0.0051415921 7.5590517e-07 0)
(0.0044962289 4.6311928e-07 0)
(0.0040529048 3.2569902e-07 0)
(0.0037234883 2.4623138e-07 0)
(0.0034631729 1.957357e-07 0)
(0.0032501603 1.6031911e-07 0)
(0.0030716401 1.3427909e-07 0)
(0.0029188807 1.1460427e-07 0)
(0.0027859454 9.9273813e-08 0)
(0.0026687511 8.6996556e-08 0)
(0.0025643409 7.6972237e-08 0)
(0.0024704724 6.8666309e-08 0)
(0.0023854158 6.1690657e-08 0)
(0.0023078223 5.5759056e-08 0)
(0.0022366231 5.0682085e-08 0)
(0.0021708991 4.627393e-08 0)
(0.0021100213 4.2416839e-08 0)
(0.0020533403 3.9040882e-08 0)
(0.0020003793 3.6049356e-08 0)
(0.0019507213 3.3387939e-08 0)
(0.0019040126 3.1007287e-08 0)
(0.001859951 2.8867197e-08 0)
(0.0018182763 2.6935141e-08 0)
(0.0017787617 2.5184277e-08 0)
(0.0017412089 2.3591625e-08 0)
(0.0017054447 2.2137848e-08 0)
(0.001671316 2.080621e-08 0)
(0.0016386887 1.958232e-08 0)
(0.0016074437 1.8454497e-08 0)
(0.0015774741 1.7412746e-08 0)
(0.001548684 1.6447968e-08 0)
(0.0015209877 1.5552242e-08 0)
(0.0014943083 1.4718765e-08 0)
(0.0014685761 1.3941275e-08 0)
(0.0014437292 1.3214088e-08 0)
(0.0014197121 1.2532599e-08 0)
(0.001396474 1.1893048e-08 0)
(0.0013739679 1.1291788e-08 0)
(0.0013521518 1.0725208e-08 0)
(0.0013309882 1.0190088e-08 0)
(0.0013104435 9.6836833e-09 0)
(0.0012904872 9.2033845e-09 0)
(0.0012710929 8.7464837e-09 0)
(0.0012522387 8.3105537e-09 0)
(0.0012339057 7.8936095e-09 0)
(0.0012160782 7.493728e-09 0)
(0.0011987444 7.1090963e-09 0)
(0.0011818952 6.7380458e-09 0)
(0.0011655256 6.3788097e-09 0)
(0.0011496344 6.0292127e-09 0)
(0.0011342274 5.6859246e-09 0)
(0.0011193219 5.3462184e-09 0)
(0.0011049401 5.0086655e-09 0)
(0.0010911105 4.6714913e-09 0)
(0.0010778702 4.3330152e-09 0)
(0.001065263 3.9913352e-09 0)
(0.0010533447 3.6427255e-09 0)
(0.0010421916 3.281552e-09 0)
(0.0010319081 2.9037298e-09 0)
(0.0010226147 2.5031532e-09 0)
(0.0010144797 2.0449775e-09 0)
(0.0010079055 1.625821e-09 0)
(0.0010023781 1.0033579e-09 -1.1686946e-24)
(0.0010002209 3.7100988e-10 0)
(0.00099943506 -1.9484394e-10 0)
(0.0010019001 -9.4665248e-10 0)
(0.0010076554 -1.7173913e-09 0)
(0.0010173534 -2.5516187e-09 0)
(0.0010315049 -3.4004767e-09 0)
(0.0010504184 -4.1812783e-09 0)
(0.0010738496 -4.8544911e-09 0)
(0.0011016945 -5.4104321e-09 0)
(0.0011335222 -5.6943351e-09 0)
(0.0011673236 -5.478227e-09 0)
(0.001199555 -4.8817633e-09 0)
(0.0012289896 -3.8385559e-09 3.1178691e-24)
(0.0012503501 -2.8269558e-09 0)
(0.0012683735 -2.1024497e-09 0)
(0.0012811245 -1.4325026e-09 0)
(0.0012904988 -9.9155615e-10 0)
(0.0012973004 -6.7222627e-10 0)
(0.0013021001 -4.375387e-10 0)
(0.0013053001 -2.6133604e-10 0)
(0.0013071663 -1.2621606e-10 0)
(0.0013078903 -1.6359913e-11 0)
(0.0013074928 7.9777182e-11 0)
(0.0013059911 1.6378312e-10 0)
(0.0013035235 2.3733114e-10 0)
(0.0013002112 3.0078887e-10 0)
(0.001296198 3.5068028e-10 0)
(0.0012916706 3.8803343e-10 0)
(0.0012867476 4.1655597e-10 0)
(0.0012815256 4.3581086e-10 0)
(0.0012761337 4.4621799e-10 0)
(0.0012706581 4.5161806e-10 0)
(0.0012651347 4.5407113e-10 0)
(0.0012595994 4.527629e-10 0)
(0.0012541079 4.4798473e-10 0)
(0.0012486889 4.4200956e-10 0)
(0.0012433429 4.3649334e-10 0)
(0.0012380583 4.3125633e-10 0)
(0.0012328399 4.2587388e-10 0)
(0.0012276864 4.1960703e-10 0)
(0.0012226207 4.2200586e-10 0)
(0.0012174089 4.1822604e-10 0)
(0.0012124354 4.5807699e-10 0)
(0.001206253 4.5992091e-10 0)
(0.0012012319 5.053455e-10 0)
(0.0011939302 3.0064668e-10 0)
(0.99999999 8.9926131e-09 0)
(0.99992836 2.7608424e-08 0)
(0.99979758 4.3489386e-08 0)
(0.99964357 5.7214291e-08 0)
(0.99946699 7.4341835e-08 0)
(0.99926479 9.6114629e-08 0)
(0.9990349 1.2346668e-07 0)
(0.99877479 1.5807763e-07 0)
(0.99848073 2.0227676e-07 0)
(0.99814784 2.5905302e-07 0)
(0.99777 3.3230967e-07 0)
(0.99733957 4.2746119e-07 0)
(0.99684647 5.5177687e-07 0)
(0.99627798 7.1682695e-07 0)
(0.99561458 9.3610546e-07 0)
(0.99483505 1.2431848e-06 0)
(0.99388836 1.6505985e-06 0)
(0.99275526 2.3192643e-06 0)
(0.99122469 3.0955377e-06 0)
(0.98946651 5.0650621e-06 0)
(0.98624928 6.5892729e-06 0)
(0.98330172 1.6467098e-05 0)
(0.97172391 1.2647081e-05 0)
(0.97221095 0.0011309841 0)
(0.028740565 0.0011416344 0)
(0.011511482 1.1983931e-05 0)
(0.008203292 2.7343304e-06 0)
(0.0067411227 1.310981e-06 0)
(0.0058949682 8.0323623e-07 0)
(0.0053137148 5.6489644e-07 0)
(0.004881804 4.2706535e-07 0)
(0.0045405007 3.3948217e-07 0)
(0.0042612185 2.7805538e-07 0)
(0.0040271595 2.3289154e-07 0)
(0.0038268766 1.9876722e-07 0)
(0.0036525859 1.721779e-07 0)
(0.0034989335 1.5088427e-07 0)
(0.0033620425 1.3349821e-07 0)
(0.003238973 1.1909253e-07 0)
(0.0031274566 1.0699409e-07 0)
(0.0030257252 9.6706526e-08 0)
(0.002932377 8.7901045e-08 0)
(0.002846208 8.0255649e-08 0)
(0.0027663923 7.3566142e-08 0)
(0.0026920791 6.7710944e-08 0)
(0.0026226431 6.2522543e-08 0)
(0.0025575375 5.7906673e-08 0)
(0.0024962989 5.3777756e-08 0)
(0.0024385307 5.0066065e-08 0)
(0.0023838921 4.6715182e-08 0)
(0.0023320853 4.3678551e-08 0)
(0.0022828509 4.0916319e-08 0)
(0.0022359612 3.8394947e-08 0)
(0.0021912159 3.6085408e-08 0)
(0.002148439 3.3962744e-08 0)
(0.0021074745 3.2006696e-08 0)
(0.0020681821 3.0199926e-08 0)
(0.002030436 2.8526656e-08 0)
(0.0019941242 2.6973149e-08 0)
(0.0019591454 2.5527601e-08 0)
(0.0019254085 2.4179158e-08 0)
(0.0018928323 2.2917957e-08 0)
(0.0018613441 2.1736014e-08 0)
(0.0018308771 2.0626807e-08 0)
(0.00180137 1.9584008e-08 0)
(0.0017727674 1.8601359e-08 0)
(0.0017450203 1.7673271e-08 0)
(0.0017180845 1.6794986e-08 0)
(0.0016919202 1.5961978e-08 0)
(0.0016664929 1.5169551e-08 0)
(0.0016417734 1.4413494e-08 0)
(0.0016177374 1.3690366e-08 0)
(0.0015943642 1.299683e-08 0)
(0.0015716382 1.2329743e-08 0)
(0.0015495476 1.1686209e-08 0)
(0.0015280856 1.1063165e-08 0)
(0.001507251 1.0456837e-08 0)
(0.0014870512 9.8614508e-09 0)
(0.0014675088 9.272277e-09 0)
(0.001448653 8.6868364e-09 0)
(0.0014305214 8.1020516e-09 0)
(0.0014131622 7.5150067e-09 0)
(0.0013966332 6.9223999e-09 0)
(0.0013810073 6.3177686e-09 0)
(0.0013663849 5.6913416e-09 0)
(0.0013529026 5.036031e-09 0)
(0.0013407184 4.341244e-09 0)
(0.0013300534 3.5465868e-09 0)
(0.0013214344 2.81948e-09 0)
(0.0013141894 1.7399793e-09 0)
(0.0013113605 6.4355886e-10 0)
(0.0013103321 -3.381905e-10 0)
(0.0013135649 -1.6421525e-09 0)
(0.001321112 -2.9789143e-09 0)
(0.0013338281 -4.425728e-09 0)
(0.0013523831 -5.8978843e-09 0)
(0.001377181 -7.2519955e-09 0)
(0.0014079016 -8.4194922e-09 0)
(0.0014444081 -9.3834947e-09 0)
(0.0014861352 -9.8756542e-09 0)
(0.0015304486 -9.5007407e-09 0)
(0.0015727038 -8.4662361e-09 0)
(0.0016112915 -6.6605476e-09 0)
(0.0016392969 -4.9027939e-09 0)
(0.0016629252 -3.646285e-09 0)
(0.001679643 -2.4844824e-09 0)
(0.0016919338 -1.7197364e-09 0)
(0.0017008517 -1.1659158e-09 0)
(0.0017071449 -7.5888365e-10 0)
(0.0017113408 -4.5328342e-10 0)
(0.001713788 -2.1893164e-10 0)
(0.0017147375 -2.838736e-11 0)
(0.0017142167 1.3834266e-10 0)
(0.0017122481 2.8404632e-10 0)
(0.001709013 4.116075e-10 0)
(0.0017046705 5.2166597e-10 0)
(0.0016994091 6.081968e-10 0)
(0.0016934734 6.7298191e-10 0)
(0.0016870192 7.224491e-10 0)
(0.0016801728 7.558441e-10 0)
(0.0016731037 7.7389535e-10 0)
(0.0016659249 7.8326119e-10 0)
(0.0016586834 7.8751471e-10 0)
(0.0016514263 7.8524592e-10 0)
(0.0016442266 7.7695997e-10 0)
(0.001637122 7.6659689e-10 0)
(0.001630113 7.570286e-10 0)
(0.0016231846 7.4794416e-10 0)
(0.001616343 7.3860805e-10 0)
(0.0016095865 7.2773852e-10 0)
(0.001602945 7.3189257e-10 0)
(0.0015961123 7.2533383e-10 0)
(0.0015895919 7.9442699e-10 0)
(0.0015814875 7.9799282e-10 0)
(0.0015749044 8.7665429e-10 -9.6276724e-24)
(0.0015653314 5.2136465e-10 1.4939712e-24)
(0.99999999 1.1264914e-08 0)
(0.9999283 3.4588866e-08 0)
(0.99979734 5.4490487e-08 0)
(0.99964311 7.1689838e-08 0)
(0.99946627 9.3150996e-08 0)
(0.99926377 1.2043181e-07 0)
(0.99903354 1.5470262e-07 0)
(0.99877306 1.9806754e-07 0)
(0.99847859 2.5344445e-07 0)
(0.99814524 3.2457761e-07 0)
(0.9977669 4.1635647e-07 0)
(0.99733591 5.3556338e-07 0)
(0.99684218 6.9130379e-07 0)
(0.99627301 8.9807047e-07 0)
(0.99560884 1.1727647e-06 0)
(0.99482845 1.5574383e-06 0)
(0.99388076 2.0677844e-06 0)
(0.99274654 2.9053602e-06 0)
(0.99121458 3.8777025e-06 0)
(0.98945487 6.344568e-06 0)
(0.98623527 8.2536447e-06 0)
(0.98328556 2.06261e-05 0)
(0.97169988 1.5846085e-05 0)
(0.9721805 0.0014108136 0)
(0.035868416 0.0014273243 0)
(0.014413514 1.8787732e-05 0)
(0.010271884 4.3050702e-06 0)
(0.0084411723 2.0641633e-06 0)
(0.0073815977 1.2647782e-06 0)
(0.0066537406 8.8949083e-07 0)
(0.0061128874 6.7245896e-07 0)
(0.0056855044 5.3454503e-07 0)
(0.0053357869 4.3782203e-07 0)
(0.0050426982 3.6670712e-07 0)
(0.0047919049 3.1297454e-07 0)
(0.00457366 2.711068e-07 0)
(0.0043812588 2.3757794e-07 0)
(0.0042098464 2.1020207e-07 0)
(0.0040557411 1.8751912e-07 0)
(0.0039161028 1.6846917e-07 0)
(0.0037887171 1.5227072e-07 0)
(0.0036718286 1.3840565e-07 2.4298787e-24)
(0.0035639304 1.2636739e-07 0)
(0.003463987 1.1583449e-07 -8.9071315e-35)
(0.0033709341 1.0661501e-07 0)
(0.0032839882 9.8445524e-08 0)
(0.0032024649 9.1177534e-08 0)
(0.0031257836 8.4676288e-08 0)
(0.003053448 7.8831996e-08 0)
(0.0029850311 7.3555823e-08 0)
(0.0029201602 6.877446e-08 0)
(0.0028585103 6.4425158e-08 0)
(0.0027997965 6.0455103e-08 0)
(0.0027437677 5.6818595e-08 0)
(0.0026902037 5.3476335e-08 0)
(0.0026389092 5.0396423e-08 0)
(0.0025897084 4.7551558e-08 0)
(0.0025424439 4.4916897e-08 0)
(0.0024969753 4.247081e-08 0)
(0.0024531759 4.0194711e-08 0)
(0.0024109316 3.8071511e-08 0)
(0.0023701406 3.6085679e-08 0)
(0.002330712 3.4224645e-08 0)
(0.0022925621 3.2478137e-08 0)
(0.0022556141 3.0836193e-08 0)
(0.0022197988 2.9288957e-08 0)
(0.0021850546 2.7827632e-08 0)
(0.0021513264 2.6444725e-08 0)
(0.0021185642 2.5133107e-08 0)
(0.0020867247 2.3885388e-08 0)
(0.0020557717 2.2694937e-08 0)
(0.0020256744 2.1556333e-08 0)
(0.0019964071 2.0464323e-08 0)
(0.0019679501 1.9413957e-08 0)
(0.0019402887 1.8400677e-08 0)
(0.0019134146 1.7419657e-08 0)
(0.001887326 1.6464956e-08 0)
(0.0018620322 1.5527484e-08 0)
(0.0018375617 1.4599794e-08 0)
(0.0018139509 1.3677979e-08 0)
(0.0017912469 1.2757196e-08 0)
(0.0017695101 1.1832851e-08 0)
(0.0017488129 1.089974e-08 0)
(0.0017292466 9.947686e-09 0)
(0.0017109368 8.9613053e-09 0)
(0.0016940547 7.9294312e-09 0)
(0.0016787984 6.835381e-09 0)
(0.0016654445 5.5841297e-09 0)
(0.0016546524 4.4389984e-09 0)
(0.001645583 2.7394293e-09 0)
(0.0016420395 1.013114e-09 0)
(0.0016407542 -5.3302553e-10 0)
(0.0016448034 -2.586115e-09 0)
(0.0016542553 -4.6909706e-09 0)
(0.0016701798 -6.9690077e-09 0)
(0.0016934152 -9.2869021e-09 0)
(0.0017244673 -1.1418917e-08 0)
(0.0017629354 -1.3257061e-08 0)
(0.0018086475 -1.477464e-08 0)
(0.0018608949 -1.5549238e-08 0)
(0.0019163794 -1.495878e-08 0)
(0.0019692869 -1.3329864e-08 0)
(0.0020176011 -1.0487485e-08 0)
(0.002052669 -7.7195426e-09 -2.9685824e-24)
(0.0020822536 -5.7411455e-09 0)
(0.0021031879 -3.9120165e-09 0)
(0.0021185786 -2.7078896e-09 0)
(0.002129746 -1.8358782e-09 0)
(0.0021376269 -1.1949785e-09 0)
(0.0021428814 -7.1378697e-10 0)
(0.0021459465 -3.447755e-10 0)
(0.002147136 -4.4738734e-11 0)
(0.0021464843 2.177947e-10 0)
(0.0021440196 4.4722248e-10 0)
(0.0021399689 6.480802e-10 0)
(0.0021345316 8.2137503e-10 0)
(0.0021279437 9.5762532e-10 0)
(0.0021205114 1.0596363e-09 0)
(0.0021124297 1.1375242e-09 0)
(0.0021038571 1.1901072e-09 0)
(0.0020950055 1.2185328e-09 0)
(0.0020860165 1.2332804e-09 0)
(0.002076949 1.2399765e-09 0)
(0.0020678621 1.2364046e-09 0)
(0.0020588469 1.2233597e-09 0)
(0.0020499508 1.2070426e-09 0)
(0.0020411745 1.1919749e-09 0)
(0.0020324991 1.1776685e-09 0)
(0.0020239324 1.1629665e-09 0)
(0.0020154723 1.1458511e-09 0)
(0.0020071562 1.1523807e-09 0)
(0.0019986009 1.1420513e-09 0)
(0.0019904363 1.2507978e-09 0)
(0.0019802899 1.2564295e-09 0)
(0.0019720468 1.3805445e-09 0)
(0.0019600597 8.2063016e-10 -8.5265577e-25)
(0.99999999 1.3707699e-08 0)
(0.99992823 4.2095169e-08 0)
(0.99979708 6.6323073e-08 0)
(0.99964259 8.7260804e-08 0)
(0.99946546 1.1338365e-07 0)
(0.99926261 1.4658897e-07 0)
(0.99903201 1.8830137e-07 0)
(0.9987711 2.4108128e-07 0)
(0.99847616 3.0847938e-07 0)
(0.9981423 3.9505189e-07 0)
(0.99776338 5.067484e-07 0)
(0.99733176 6.5182165e-07 0)
(0.99683734 8.4135064e-07 0)
(0.99626738 1.0929694e-06 0)
(0.99560235 1.4272407e-06 0)
(0.99482098 1.8953303e-06 0)
(0.99387217 2.516324e-06 0)
(0.99273667 3.5354565e-06 0)
(0.99120313 4.7185359e-06 0)
(0.98944171 7.7198898e-06 0)
(0.98621943 1.0042568e-05 0)
(0.98326731 2.5096103e-05 0)
(0.97167278 1.9286673e-05 0)
(0.9721463 0.0017089944 0)
(0.043471209 0.0017331836 0)
(0.017529929 2.7748828e-05 0)
(0.012493534 6.3826629e-06 0)
(0.010267086 3.0606262e-06 0)
(0.0089782784 1.8754535e-06 0)
(0.0080929564 1.3189696e-06 0)
(0.0074350871 9.9714432e-07 0)
(0.006915249 7.9263304e-07 0)
(0.0064898803 6.4920878e-07 0)
(0.0061333906 5.4375768e-07 0)
(0.0058283469 4.6408083e-07 0)
(0.0055628938 4.0199782e-07 0)
(0.0053288755 3.5228044e-07 0)
(0.0051203863 3.1168707e-07 0)
(0.0049329482 2.7805251e-07 0)
(0.0047631065 2.4980507e-07 0)
(0.0046081678 2.257861e-07 0)
(0.0044659967 2.0522664e-07 0)
(0.0043347615 1.8737626e-07 0)
(0.0042132009 1.717584e-07 9.6081522e-35)
(0.0041000213 1.5808765e-07 0)
(0.0039942699 1.4597398e-07 0)
(0.0038951138 1.3519705e-07 0)
(0.0038018471 1.2555704e-07 0)
(0.003713866 1.1689117e-07 0)
(0.0036306512 1.0906771e-07 0)
(0.0035517494 1.0197795e-07 0)
(0.0034767653 9.5528849e-08 0)
(0.0034053523 8.9642092e-08 0)
(0.0033372052 8.4249918e-08 0)
(0.0032720559 7.9294056e-08 0)
(0.0032096669 7.47272e-08 0)
(0.0031498245 7.050887e-08 0)
(0.0030923373 6.6602228e-08 0)
(0.0030370342 6.2975202e-08 0)
(0.0029837615 5.9600234e-08 0)
(0.0029323802 5.6451982e-08 0)
(0.0028827666 5.3507421e-08 0)
(0.0028348099 5.0747909e-08 0)
(0.0027884086 4.8158215e-08 0)
(0.0027434691 4.5723567e-08 0)
(0.0026999073 4.342935e-08 0)
(0.0026576482 4.1262521e-08 0)
(0.0026166248 3.9211968e-08 0)
(0.0025767764 3.7267124e-08 0)
(0.0025380503 3.5417026e-08 0)
(0.0025004024 3.3651847e-08 0)
(0.0024637952 3.1963545e-08 0)
(0.0024281976 3.0344332e-08 0)
(0.0023935854 2.8786867e-08 0)
(0.0023599411 2.728439e-08 0)
(0.0023272542 2.5829746e-08 0)
(0.0022955227 2.4414125e-08 0)
(0.002264758 2.3024051e-08 0)
(0.0022349945 2.1648482e-08 0)
(0.0022062768 2.0281621e-08 0)
(0.0021786619 1.8916289e-08 0)
(0.0021522235 1.754567e-08 0)
(0.0021270495 1.616204e-08 0)
(0.0021032511 1.4750308e-08 0)
(0.0020809811 1.3287663e-08 0)
(0.0020604478 1.1757538e-08 0)
(0.002041892 1.0135192e-08 0)
(0.0020256503 8.2798354e-09 0)
(0.0020125244 6.581412e-09 0)
(0.0020014967 4.0616228e-09 0)
(0.001997185 1.501898e-09 0)
(0.0019956248 -7.9116997e-10 0)
(0.0020005512 -3.8353011e-09 0)
(0.0020120495 -6.956431e-09 0)
(0.0020314203 -1.0334189e-08 0)
(0.0020596829 -1.3770981e-08 0)
(0.0020974524 -1.6932141e-08 0)
(0.0021442413 -1.9657493e-08 0)
(0.00219984 -2.1907293e-08 0)
(0.0022633853 -2.3055362e-08 0)
(0.0023308662 -2.2179663e-08 0)
(0.002395213 -1.9764293e-08 0)
(0.0024539721 -1.5549934e-08 0)
(0.0024966255 -1.1446197e-08 -3.4555731e-24)
(0.0025326066 -8.512713e-09 0)
(0.0025580697 -5.8008063e-09 0)
(0.0025767901 -4.0153488e-09 0)
(0.002590374 -2.7223531e-09 0)
(0.0025999604 -1.7720254e-09 0)
(0.0026063524 -1.0585082e-09 0)
(0.0026100812 -5.1132366e-10 0)