/*--------------------------------*- C++ -*----------------------------------*\
| =========                 |                                                 |
| \\      /  F ield         | OpenFOAM: The Open Source CFD Toolbox           |
|  \\    /   O peration     | Version:  2206                                  |
|   \\  /    A nd           | Website:  www.openfoam.com                      |
|    \\/     M anipulation  |                                                 |
\*---------------------------------------------------------------------------*/
FoamFile
{
    version     2.0;
    format      ascii;
    arch        "LSB;label=32;scalar=64";
    class       volScalarField;
    location    "1300";
    object      epsilon;
}
// * * * * * * * * * * * * * * * * * * * * * * * * * * * * * * * * * * * * * //

dimensions      [0 2 -3 0 0 0 0];

internalField   nonuniform List<scalar> 
7480
(
5.7738295
15.518645
18.081332
15.978112
12.855972
10.356852
8.6704619
7.5180523
6.6715977
6.007249
5.4683301
5.0267145
4.6634069
4.3633628
4.1143806
3.9061749
3.7310963
3.5833485
3.4577106
3.3505244
3.2573058
3.1753302
3.1023047
3.0363809
2.976329
2.9211488
2.8701418
2.8226356
2.7780384
2.7358606
2.695818
2.6577161
2.6213496
2.5865484
2.5531249
2.5209799
2.4898769
2.4597595
2.4305435
2.4021323
2.3744561
2.3474519
2.3210712
2.2952806
2.2700417
2.2453264
2.2210982
2.1973198
2.1739691
2.1510226
2.1284617
2.1062736
2.0844426
2.0629599
2.0418107
2.020984
2.0004708
1.9802576
1.9603316
1.9406839
1.9213117
1.9022109
1.8833742
1.864796
1.8464712
1.8283951
1.8105604
1.792961
1.7755931
1.758453
1.7415363
1.7248387
1.7083563
1.6920864
1.6760248
1.6601672
1.6445095
1.6290481
1.6137794
1.5986997
1.5838052
1.5690921
1.5545564
1.5401939
1.5260003
1.5119703
1.4980989
1.4843787
1.4708043
1.457361
1.4440489
1.430824
1.4177264
1.4045844
1.391644
1.3782178
1.3652957
1.3505
1.3386906
1.3161604
0.34611528
1.5990036
2.8406188
3.2971745
3.171918
2.8636226
2.562741
2.3184184
2.1198455
1.9498813
1.8015952
1.6734032
1.5639286
1.4709948
1.3921774
1.3247916
1.2670366
1.2175473
1.175
1.1381173
1.1057775
1.0770771
1.0512806
1.0278495
1.0064206
0.98668469
0.96842231
0.95139367
0.93539698
0.92027342
0.90592731
0.89229003
0.87929064
0.86686768
0.85494912
0.84350476
0.83244392
0.82174989
0.81139498
0.8013435
0.7915675
0.78204541
0.77275955
0.76369574
0.7548404
0.74618211
0.73770684
0.72940161
0.72125693
0.71326454
0.70541769
0.69771067
0.69013778
0.68269467
0.67537593
0.66817751
0.66109542
0.65412466
0.64726027
0.640499
0.63383936
0.62727952
0.62081668
0.61444842
0.60817281
0.60198786
0.59589074
0.58987918
0.58395164
0.57810661
0.57234237
0.56665717
0.56104955
0.55551836
0.55006197
0.54467874
0.53936718
0.53412589
0.5289535
0.52384864
0.51880992
0.51383592
0.50892527
0.50407644
0.49928794
0.49455803
0.48988498
0.48526652
0.48070069
0.47618359
0.47171396
0.46728164
0.46289244
0.45850974
0.45417852
0.44975565
0.44542938
0.44068832
0.43664981
0.42935898
0.010416823
0.063543533
0.16374982
0.28151588
0.38478208
0.47603501
0.5595947
0.63109875
0.68687035
0.72825161
0.75683577
0.77338915
0.77922708
0.77657605
0.76801825
0.75594284
0.7420169
0.72723564
0.71218538
0.69719784
0.68248747
0.66818707
0.65435229
0.64103742
0.62828292
0.61607874
0.60447188
0.59339481
0.58279961
0.57264582
0.56291948
0.55360273
0.54466972
0.53609597
0.52784422
0.51990662
0.5122315
0.50481698
0.49764709
0.49070109
0.48396197
0.47741668
0.47105409
0.46486384
0.45883643
0.45296329
0.44723425
0.44164063
0.43617514
0.43083154
0.42560461
0.42048919
0.41548054
0.41057442
0.40576634
0.40105279
0.39643
0.39189393
0.38744071
0.38306759
0.37877259
0.3745536
0.37040807
0.36633373
0.36232865
0.35839089
0.3545181
0.35070833
0.34696009
0.34327187
0.33964209
0.33606922
0.3325519
0.32908895
0.32567896
0.32232054
0.31901245
0.31575348
0.31254249
0.30937832
0.30625985
0.30318596
0.30015556
0.2971675
0.29422067
0.29131385
0.28844582
0.28561516
0.28282046
0.28005972
0.27733144
0.27463154
0.27195989
0.26930399
0.26667369
0.26402298
0.26139976
0.25862616
0.25614864
0.25183053
0.00038726915
0.002535723
0.0090979717
0.019247575
0.032062566
0.04717766
0.06676599
0.091008563
0.12646622
0.17016137
0.21725921
0.26307326
0.30622685
0.34569588
0.38022713
0.40870646
0.4306491
0.4463267
0.45658499
0.46247707
0.46497802
0.46488314
0.46281486
0.45926381
0.45463557
0.44923795
0.44333324
0.43710631
0.43068587
0.42417291
0.4176445
0.41115923
0.40475748
0.39847011
0.3923075
0.38629117
0.38039503
0.37464649
0.36904132
0.36357831
0.35825468
0.35306759
0.34801402
0.34309027
0.33829244
0.33361641
0.32905626
0.32460745
0.32026563
0.31602687
0.31188765
0.30784425
0.3038932
0.30003113
0.29625445
0.29256021
0.28894523
0.28540622
0.28194007
0.27854436
0.27521708
0.27195617
0.26875931
0.26562439
0.26254955
0.2595329
0.25657236
0.25366614
0.25081277
0.24801075
0.24525858
0.2425548
0.23989808
0.23728721
0.23472086
0.23219776
0.22971673
0.22727663
0.22487637
0.22251489
0.22019116
0.21790414
0.21565285
0.21343628
0.21125344
0.20910332
0.20698489
0.20489704
0.2028386
0.20080825
0.19880456
0.1968255
0.19486935
0.1929316
0.19101148
0.18909484
0.18718659
0.18522013
0.18340971
0.18033216
4.2571807e-05
0.00015149781
0.0005433424
0.0014323951
0.0029277686
0.0049460292
0.0074886557
0.010713305
0.015237747
0.021938922
0.031464477
0.046274881
0.066519493
0.090991274
0.11834951
0.14741152
0.17727846
0.20677305
0.23446037
0.25899584
0.2795125
0.29578294
0.30809377
0.31698258
0.32302821
0.32674213
0.32857206
0.32890456
0.32806686
0.32632361
0.32388482
0.32091999
0.3175647
0.31392588
0.31008581
0.30611835
0.3020568
0.29794898
0.29382724
0.28971419
0.28562746
0.28158178
0.27758839
0.27365541
0.26978905
0.26599373
0.26227108
0.25862193
0.25504657
0.25154522
0.24811792
0.24476396
0.24148234
0.23827183
0.23513079
0.23205774
0.22905086
0.22610816
0.22322753
0.22040736
0.21764624
0.21494264
0.21229482
0.20970117
0.20716013
0.20467013
0.20222948
0.19983671
0.1974905
0.19518955
0.19293254
0.19071818
0.18854527
0.18641269
0.18431925
0.18226381
0.1802453
0.17826269
0.17631497
0.17440118
0.17252037
0.17067162
0.16885401
0.16706667
0.16530869
0.1635792
0.16187729
0.16020206
0.15855249
0.15692762
0.15532613
0.15374697
0.15218797
0.15064803
0.14912257
0.14761067
0.14610145
0.14457507
0.14314826
0.14075159
1.788222e-05
3.1783507e-05
6.8912177e-05
0.00014912665
0.00030067979
0.0005506171
0.00092394785
0.0014421034
0.0021388643
0.0030881209
0.0043828149
0.0062794911
0.0090929195
0.013145084
0.019274202
0.028561559
0.041047208
0.05674919
0.075187208
0.095813283
0.11789527
0.14038482
0.16201673
0.18164149
0.19852364
0.21242426
0.22348084
0.23201139
0.23837155
0.24289502
0.24588452
0.24761213
0.24831381
0.24818697
0.24739443
0.24607723
0.24433844
0.2422697
0.23994665
0.2374293
0.23476622
0.23199712
0.22915448
0.22626471
0.22334911
0.22042489
0.21750569
0.21460195
0.21172194
0.20887232
0.20605846
0.20328435
0.20055308
0.19786697
0.1952275
0.19263598
0.19009271
0.18759761
0.18515031
0.18275059
0.18039811
0.1780924
0.17583265
0.17361804
0.17144773
0.16932077
0.16723608
0.16519264
0.16318954
0.16122584
0.15930053
0.1574126
0.1555611
0.15374514
0.15196376
0.15021599
0.14850095
0.14681775
0.14516554
0.14354347
0.14195074
0.14038652
0.13885004
0.13734051
0.13585715
0.1343992
0.13296588
0.13155642
0.13016996
0.12880574
0.12746262
0.12614002
0.12483577
0.12355034
0.12227798
0.12102344
0.11977059
0.1185201
0.11734607
0.11537893
1.3614623e-05
1.7403466e-05
2.5059046e-05
3.8774356e-05
6.1661091e-05
9.7690533e-05
0.0001520899
0.00023144031
0.00034395281
0.00050169468
0.00071958055
0.0010233638
0.0014527931
0.0020579512
0.0029267786
0.0042257947
0.0061467313
0.0089123581
0.013207298
0.019689674
0.028615539
0.040182048
0.05408417
0.069965561
0.087177603
0.104787
0.12174433
0.13717504
0.15057508
0.16181178
0.17099062
0.17831464
0.1840073
0.18828874
0.19136866
0.19344249
0.19467579
0.19521147
0.19517297
0.19466431
0.19377254
0.19257043
0.19111882
0.18946864
0.1876622
0.18573459
0.18371513
0.18162773
0.17949199
0.17732417
0.17513764
0.17294346
0.17075062
0.16856653
0.16639717
0.16424747
0.16212129
0.16002152
0.15795036
0.15590959
0.15390061
0.15192451
0.14998188
0.1480731
0.14619844
0.1443579
0.14255117
0.14077799
0.13903804
0.13733093
0.13565616
0.13401316
0.13240135
0.13082015
0.12926892
0.12774699
0.1262537
0.1247884
0.12335044
0.12193916
0.12055391
0.11919403
0.11785888
0.11654781
0.11526019
0.11399537
0.11275269
0.11153153
0.11033115
0.10915098
0.10799002
0.10684798
0.10572287
0.10461586
0.10352113
0.10244571
0.10137271
0.10031124
0.099317355
0.097646926
1.2344176e-05
1.3940479e-05
1.6612015e-05
2.0744756e-05
2.6845902e-05
3.5539749e-05
4.7629498e-05
6.41955e-05
8.6658462e-05
0.00011704184
0.00015810311
0.00021387359
0.00029051383
0.00039661467
0.00054461544
0.0007553598
0.0010595405
0.0014947068
0.0021362167
0.0031096818
0.0045792347
0.0067350134
0.010207942
0.015425444
0.022680689
0.032094887
0.043464942
0.056428494
0.070352503
0.084397407
0.09774141
0.10979629
0.12028335
0.12916506
0.13652939
0.14251301
0.14726669
0.15094491
0.15369723
0.15565995
0.1569538
0.1576844
0.15794316
0.15780869
0.15734817
0.15661856
0.15566844
0.15453878
0.15326394
0.15187285
0.15038973
0.14883502
0.14722582
0.14557647
0.14389906
0.14220366
0.14049871
0.13879115
0.13708666
0.13538994
0.13370488
0.13203475
0.13038212
0.12874902
0.12713714
0.12554782
0.12398196
0.12244027
0.12092328
0.11943137
0.11796471
0.11652336
0.11510723
0.11371623
0.11235014
0.11100865
0.10969146
0.10839821
0.10712851
0.10588195
0.1046581
0.1034565
0.1022767
0.10111822
0.099980562
0.09886325
0.097765764
0.096687609
0.095628209
0.094587114
0.093563517
0.092557296
0.0915667
0.090593199
0.089631414
0.088688964
0.087750158
0.086826748
0.08596814
0.084516317
1.174554e-05
1.2669909e-05
1.3935874e-05
1.5663198e-05
1.8002729e-05
2.1120395e-05
2.5193013e-05
3.04357e-05
3.7122026e-05
4.5619949e-05
5.6429764e-05
7.0246475e-05
8.8081248e-05
0.00011137725
0.00014219782
0.00018366604
0.00024062984
0.00031973022
0.00043140464
0.0005928938
0.00083122785
0.0011798205
0.0017134201
0.0025457354
0.0038222666
0.0058098275
0.0090109432
0.013735806
0.020252934
0.028516261
0.038345908
0.04932036
0.060796619
0.072065243
0.082551787
0.091924892
0.10007003
0.10700117
0.11279071
0.11753731
0.12135263
0.12435031
0.1266378
0.12831343
0.12946554
0.13017209
0.13050147
0.13051303
0.13025788
0.12977986
0.12911637
0.12829939
0.12735617
0.1263099
0.12518037
0.12398432
0.12273606
0.12144769
0.12012941
0.11878981
0.11743613
0.11607451
0.11471011
0.11334719
0.11198936
0.11063965
0.10930056
0.10797409
0.10666192
0.10536542
0.1040857
0.10282359
0.10157973
0.1003546
0.099148542
0.097961772
0.096794399
0.095646458
0.094517913
0.093408662
0.092318555
0.091247396
0.090194949
0.089160951
0.088145103
0.087147095
0.086166578
0.085203213
0.084256579
0.08332637
0.082411957
0.081513348
0.08062907
0.079760674
0.078903426
0.078064746
0.077230925
0.076413521
0.075660528
0.07437777
1.1328615e-05
1.1980978e-05
1.2746618e-05
1.3650852e-05
1.475924e-05
1.6145796e-05
1.7887697e-05
2.0063008e-05
2.2746109e-05
2.6024794e-05
3.0013077e-05
3.486357e-05
4.0777359e-05
4.8026329e-05
5.7005203e-05
6.8271098e-05
8.265003e-05
0.00010130998
0.00012595731
0.00015921505
0.00020532182
0.00027008004
0.00036347541
0.00050246667
0.00071227821
0.0010330031
0.0015430456
0.0023576448
0.0036154041
0.0057084425
0.0089654453
0.013655685
0.019864537
0.027498349
0.036269855
0.04568208
0.055140087
0.064128091
0.072319416
0.079570916
0.085856113
0.091207198
0.09568671
0.099374151
0.1023551
0.1047135
0.10652854
0.1078729
0.10881191
0.10940355
0.10969861
0.10974152
0.10957084
0.10921993
0.1087176
0.1080886
0.10735431
0.10653308
0.10564066
0.10469051
0.10369409
0.10266121
0.10160026
0.10051835
0.099421562
0.098315097
0.097203391
0.096090161
0.094978553
0.093871235
0.092770448
0.091678056
0.090595589
0.089524319
0.08846529
0.08741934
0.086387138
0.085369209
0.084365956
0.083377674
0.082404563
0.081446743
0.080504264
0.079577119
0.078665244
0.07776854
0.076886856
0.076020032
0.075167825
0.074330084
0.073506364
0.072696793
0.071900184
0.071118078
0.070346448
0.069592154
0.06884369
0.068111135
0.067443247
0.066296373
1.0981231e-05
1.1483187e-05
1.2027402e-05
1.2599966e-05
1.3227122e-05
1.3952026e-05
1.4821989e-05
1.5880594e-05
1.7162629e-05
1.869846e-05
2.052038e-05
2.2665579e-05
2.519032e-05
2.8175937e-05
3.1716975e-05
3.5941004e-05
4.1028236e-05
4.7232535e-05
5.4878133e-05
6.4441572e-05
7.6667239e-05
9.2603233e-05
0.00011384858
0.00014299163
0.00018408219
0.00024333384
0.00033168387
0.00046799088
0.00067797111
0.0010165219
0.0015727234
0.0024606252
0.0039409436
0.0063343497
0.0098973849
0.014759443
0.020880067
0.028050578
0.035869605
0.043836632
0.05150663
0.058587343
0.064937412
0.070513417
0.075324729
0.07941096
0.082829478
0.085645129
0.087923674
0.089728567
0.091118946
0.092148798
0.092866624
0.093315492
0.093533424
0.093553694
0.093405426
0.093114029
0.092701601
0.092187257
0.091587483
0.090916522
0.090186671
0.089408517
0.088591168
0.0877425
0.08686932
0.085977447
0.085071861
0.08415684
0.083236049
0.082312617
0.081389197
0.080468038
0.079551059
0.078639875
0.077735844
0.076840104
0.075953601
0.075077115
0.074211281
0.073356607
0.07251349
0.071682238
0.070863069
0.070056139
0.069261531
0.068479296
0.067709393
0.066951845
0.066206411
0.065473339
0.064751733
0.06404309
0.06334409
0.062660905
0.061984182
0.061322032
0.060724643
0.059690527
1.0677052e-05
1.1074342e-05
1.1493417e-05
1.1908172e-05
1.2322639e-05
1.2758894e-05
1.3247555e-05
1.3819472e-05
1.4499775e-05
1.5307697e-05
1.6259296e-05
1.7369111e-05
1.865439e-05
2.0139072e-05
2.1852032e-05
2.3828868e-05
2.6116019e-05
2.8771669e-05
3.1898966e-05
3.5624563e-05
4.0115518e-05
4.5603395e-05
5.2424579e-05
6.1037925e-05
7.2168255e-05
8.6904403e-05
0.00010696829
0.00013530309
0.00017620909
0.00023734619
0.00033262555
0.00048268024
0.00072735929
0.0011382502
0.0018124966
0.0029513201
0.0048393438
0.0077126948
0.011701703
0.016791564
0.022811936
0.029418593
0.036185102
0.04273759
0.048830779
0.054340719
0.059221624
0.063472384
0.067119396
0.070205264
0.072779885
0.074895212
0.076602215
0.077949017
0.078980042
0.079735561
0.080251759
0.080560888
0.08069151
0.080668746
0.080514577
0.080248211
0.079886403
0.07944375
0.078932924
0.078364955
0.077749449
0.077094725
0.076407973
0.075695417
0.074962446
0.074213715
0.073453238
0.072684465
0.071910375
0.071133527
0.07035612
0.069580034
0.068806878
0.068038022
0.067274626
0.06651767
0.065767971
0.065026213
0.064292954
0.063568654
0.062853674
0.062148312
0.061452763
0.060767252
0.060091756
0.059426665
0.058771374
0.058127342
0.05749192
0.056870585
0.056255975
0.055654162
0.055116678
0.054178747
1.0406713e-05
1.0724028e-05
1.1056936e-05
1.1379996e-05
1.1687326e-05
1.1987164e-05
1.2296856e-05
1.2637121e-05
1.3027003e-05
1.3482068e-05
1.4014804e-05
1.4635166e-05
1.5351958e-05
1.6174746e-05
1.7114649e-05
1.818473e-05
1.9400964e-05
2.0781855e-05
2.2356334e-05
2.4162815e-05
2.6249186e-05
2.8677391e-05
3.1523548e-05
3.4931125e-05
3.9078361e-05
4.4206246e-05
5.0670191e-05
5.9010239e-05
7.000923e-05
8.493143e-05
0.00010597503
0.00013654084
0.00018246447
0.00025470522
0.00037043229
0.00056197724
0.00089047129
0.0014414017
0.0023922078
0.0039905625
0.006450284
0.0098796702
0.014268982
0.019458855
0.025136712
0.030936275
0.036551664
0.041787696
0.046543963
0.050780024
0.054491967
0.057699271
0.060434828
0.062737894
0.064650004
0.066212337
0.067464225
0.068442308
0.069180144
0.069708066
0.070053222
0.070239763
0.070289077
0.070220034
0.070049216
0.069791174
0.069458678
0.069062899
0.068613578
0.06811921
0.067587206
0.067024022
0.06643528
0.065825854
0.065199988
0.064561367
0.063913191
0.063258228
0.062598882
0.061937225
0.061275048
0.060613891
0.059955075
0.059299731
0.058648821
0.058003166
0.057363452
0.056730273
0.056104093
0.055485371
0.05487433
0.054271525
0.053676649
0.053091145
0.052512996
0.051947037
0.051387687
0.050839128
0.050353805
0.049499974
1.0163253e-05
1.0418289e-05
1.0685991e-05
1.0945697e-05
1.118885e-05
1.1416543e-05
1.1637137e-05
1.1862914e-05
1.2106771e-05
1.2380578e-05
1.2694709e-05
1.3057757e-05
1.3476771e-05
1.395795e-05
1.4507358e-05
1.5131388e-05
1.5837158e-05
1.6632535e-05
1.7527815e-05
1.8536715e-05
1.9676478e-05
2.096891e-05
2.2438823e-05
2.4125862e-05
2.6082791e-05
2.8377154e-05
3.1093808e-05
3.4377423e-05
3.8440986e-05
4.3560095e-05
5.0177492e-05
5.8928226e-05
7.0810707e-05
8.7600894e-05
0.00011214667
0.00014929936
0.00020842875
0.00030456464
0.00046681359
0.00075092787
0.0012351805
0.0020934416
0.0035406327
0.0057669165
0.0088447818
0.012754946
0.017329175
0.022276468
0.02728529
0.032113436
0.036612401
0.040705383
0.044360713
0.047575812
0.050366701
0.052759909
0.054787269
0.05648261
0.057879664
0.059010793
0.05990628
0.06059399
0.061099242
0.061444845
0.061651192
0.061736421
0.061716623
0.061606027
0.061417169
0.061161074
0.060847431
0.060484748
0.060080483
0.05964116
0.059172491
0.058679473
0.058166473
0.057637306
0.057095302
0.056543366
0.055984028
0.055419489
0.054851662
0.054282206
0.053712558
0.053143963
0.052577489
0.052014072
0.05145449
0.050899476
0.050349528
0.049805397
0.049267083
0.04873605
0.048210872
0.047695827
0.0471869
0.046686638
0.046247826
0.045469222
9.9404888e-06
1.0146989e-05
1.0363964e-05
1.0575691e-05
1.0773996e-05
1.0957085e-05
1.1128384e-05
1.1294493e-05
1.1463168e-05
1.164235e-05
1.1839753e-05
1.206242e-05
1.2316494e-05
1.2607261e-05
1.2939419e-05
1.3317357e-05
1.3745371e-05
1.4227834e-05
1.4769653e-05
1.5376805e-05
1.6056628e-05
1.6818275e-05
1.7672235e-05
1.863251e-05
1.9717796e-05
2.0952229e-05
2.2364534e-05
2.3996073e-05
2.5907655e-05
2.8177431e-05
3.0907622e-05
3.4279747e-05
3.8544897e-05
4.4073494e-05
5.1443765e-05
6.1492768e-05
7.5776606e-05
9.6823651e-05
0.00012903857
0.00018111623
0.00026699365
0.00041550142
0.00068078531
0.0011386885
0.0019716264
0.0033656091
0.0054703825
0.0083373266
0.0119142
0.016012761
0.020363236
0.024709837
0.028869584
0.032734164
0.036247521
0.03938755
0.0421547
0.0445634
0.046636016
0.048398996
0.04988032
0.051107889
0.052108507
0.052907332
0.053527571
0.05399037
0.054314843
0.054518161
0.054615663
0.054620999
0.05454628
0.054402232
0.054198335
0.053942945
0.053643426
0.053306258
0.052937143
0.052541091
0.052122503
0.05168524
0.051232691
0.050767825
0.050293239
0.049811209
0.049323723
0.048832517
0.048339107
0.047844822
0.047350805
0.046858105
0.046367532
0.045880065
0.045396033
0.044916957
0.044441971
0.043974895
0.043513077
0.043057724
0.042661363
0.041951505
9.7333167e-06
9.9019063e-06
1.007915e-05
1.0253315e-05
1.0417458e-05
1.0568915e-05
1.0708753e-05
1.0840371e-05
1.0968139e-05
1.1096842e-05
1.1231535e-05
1.1377287e-05
1.1538936e-05
1.1720937e-05
1.1927338e-05
1.2161825e-05
1.2427774e-05
1.2728363e-05
1.3066757e-05
1.3446336e-05
1.3870905e-05
1.4344951e-05
1.4873629e-05
1.546317e-05
1.6121447e-05
1.6858532e-05
1.7686537e-05
1.8620905e-05
1.9682864e-05
2.0900387e-05
2.2307256e-05
2.3955365e-05
2.5917382e-05
2.8291522e-05
3.1214092e-05
3.4934083e-05
3.9788931e-05
4.6309378e-05
5.5282445e-05
6.8173574e-05
8.7364032e-05
0.00011721109
0.00016642337
0.00024876984
0.00039576099
0.00066046415
0.0011370881
0.0019975506
0.0034066093
0.0054698568
0.008209893
0.011533826
0.015236743
0.019078011
0.022857828
0.026444179
0.029760875
0.032769318
0.035456308
0.037825349
0.039890135
0.041670214
0.043188062
0.044467176
0.045530844
0.046401386
0.04709974
0.047645255
0.048055617
0.048346853
0.048533397
0.04862819
0.048642789
0.048587482
0.048471404
0.048302655
0.048088404
0.047834992
0.047548021
0.047232434
0.046892591
0.046532335
0.046155049
0.045763713
0.045360945
0.044949052
0.044530057
0.044105748
0.043677682
0.043247274
0.042815683
0.042384161
0.041953382
0.041524977
0.041098607
0.040677741
0.04026091
0.039848283
0.039491556
0.038845809
9.5377874e-06
9.6765867e-06
9.8225545e-06
9.9669612e-06
1.0104137e-05
1.0231319e-05
1.0348495e-05
1.0457404e-05
1.0560506e-05
1.066058e-05
1.0760682e-05
1.0864071e-05
1.0974103e-05
1.1094127e-05
1.1227393e-05
1.1377e-05
1.1545824e-05
1.1736535e-05
1.1951663e-05
1.2193678e-05
1.2465093e-05
1.27686e-05
1.3107156e-05
1.3484105e-05
1.3903375e-05
1.4369778e-05
1.4889104e-05
1.5468367e-05
1.6116528e-05
1.684526e-05
1.7668685e-05
1.8605746e-05
1.9682258e-05
2.0932571e-05
2.2399794e-05
2.4153923e-05
2.6290798e-05
2.8938515e-05
3.2322189e-05
3.67821e-05
4.2830054e-05
5.1258989e-05
6.3562008e-05
8.2099529e-05
0.00011168687
0.00016113806
0.00024679752
0.00040406406
0.00068757146
0.0012173483
0.0021504165
0.0036235294
0.0057000953
0.0083595778
0.01146658
0.014815056
0.018205446
0.021491129
0.024580496
0.027421808
0.029990649
0.032281206
0.034299568
0.036059056
0.037577057
0.03887289
0.039966428
0.040877218
0.041623951
0.042224141
0.042693981
0.04304828
0.043300491
0.043462748
0.043545954
0.043559867
0.043513199
0.043413711
0.043268302
0.0430831
0.042863541
0.042614438
0.042340055
0.042044162
0.041730093
0.041400796
0.041058875
0.040706637
0.04034611
0.039979126
0.039607237
0.039232013
0.038854501
0.038476486
0.038098145
0.037722692
0.037349692
0.036978564
0.036659649
0.036074855
9.3509406e-06
9.4661427e-06
9.5873183e-06
9.707962e-06
9.8235117e-06
9.9313747e-06
1.003103e-05
1.012333e-05
1.0209707e-05
1.0291818e-05
1.0371495e-05
1.0450724e-05
1.0531632e-05
1.0616466e-05
1.0707559e-05
1.0807281e-05
1.0917951e-05
1.1041801e-05
1.1180969e-05
1.1337508e-05
1.1513404e-05
1.1710636e-05
1.1931238e-05
1.2177359e-05
1.2451345e-05
1.2755877e-05
1.3094073e-05
1.3469592e-05
1.3886845e-05
1.4351358e-05
1.4869843e-05
1.5450709e-05
1.6104857e-05
1.6846578e-05
1.7693418e-05
1.8670052e-05
1.9810615e-05
2.1158035e-05
2.2778115e-05
2.4767262e-05
2.7256317e-05
3.0459745e-05
3.4738981e-05
4.0607444e-05
4.8942402e-05
6.1289217e-05
8.0327401e-05
0.00011170014
0.0001649493
0.00026116118
0.00043994435
0.00077142015
0.0013917749
0.0024396632
0.004007364
0.0061209795
0.0087060693
0.01159893
0.014612866
0.017595621
0.020445262
0.023100349
0.025527821
0.027714297
0.029659437
0.031371139
0.032862246
0.0341483
0.03524604
0.036172416
0.036943952
0.037576372
0.038084376
0.038481541
0.038780288
0.0389919
0.039126575
0.03919349
0.039200879
0.039156108
0.039065755
0.038935683
0.038771111
0.038576682
0.03835652
0.038114286
0.037853231
0.037576247
0.03728589
0.036984462
0.036673958
0.036356308
0.036032963
0.035705917
0.035375851
0.035045824
0.034716303
0.034386234
0.03410413
0.033578344
9.1705849e-06
9.2669369e-06
9.3682997e-06
9.4698129e-06
9.5678346e-06
9.6600362e-06
9.745652e-06
9.8250198e-06
9.8989826e-06
9.9685784e-06
1.0034958e-05
1.0099353e-05
1.0163079e-05
1.0227548e-05
1.029429e-05
1.0364939e-05
1.0441191e-05
1.0524765e-05
1.061738e-05
1.0720731e-05
1.083647e-05
1.0966213e-05
1.1111559e-05
1.1274117e-05
1.1455548e-05
1.1657617e-05
1.1882263e-05
1.2131662e-05
1.2408308e-05
1.2715165e-05
1.3055768e-05
1.3434387e-05
1.3856302e-05
1.4328228e-05
1.4858407e-05
1.5457468e-05
1.6139672e-05
1.692292e-05
1.7831561e-05
1.8899933e-05
2.017301e-05
2.1715531e-05
2.3629373e-05
2.6049333e-05
2.920719e-05
3.3484192e-05
3.9445673e-05
4.812054e-05
6.1200925e-05
8.2081869e-05
0.00011734867
0.00017927197
0.00029574029
0.00051158742
0.00092845708
0.0016762056
0.0028645471
0.0045452282
0.0066902587
0.0091778704
0.011842165
0.014533172
0.017143666
0.019605678
0.021879809
0.023946816
0.025801167
0.027446251
0.028891038
0.030147769
0.031230376
0.032153425
0.032931427
0.033578401
0.034107608
0.034531408
0.034861197
0.035107398
0.035279486
0.035386032
0.03543476
0.03543261
0.035385803
0.035299908
0.035179895
0.035030205
0.034854796
0.034657201
0.034440561
0.034207703
0.033961109
0.03370312
0.033435624
0.033160873
0.032880054
0.032596162
0.032310463
0.032021676
0.031776075
0.031308385
8.9951068e-06
9.0762773e-06
9.1616764e-06
9.247661e-06
9.3313414e-06
9.4106807e-06
9.4848125e-06
9.5537575e-06
9.6179849e-06
9.6781584e-06
9.735042e-06
9.7894482e-06
9.8422222e-06
9.8942559e-06
9.9465138e-06
1.0000052e-05
1.0056008e-05
1.0115589e-05
1.018006e-05
1.0250727e-05
1.0328907e-05
1.0415912e-05
1.0513047e-05
1.0621611e-05
1.074291e-05
1.0878271e-05
1.1029082e-05
1.1196823e-05
1.138311e-05
1.1589756e-05
1.1818843e-05
1.2072795e-05
1.2354489e-05
1.266744e-05
1.3015917e-05
1.3405184e-05
1.3841993e-05
1.4334807e-05
1.4894453e-05
1.553544e-05
1.6276602e-05
1.714278e-05
1.8170168e-05
1.9405902e-05
2.0919812e-05
2.2821489e-05
2.5254994e-05
2.8495971e-05
3.295415e-05
3.9324301e-05
4.8802293e-05
6.3489657e-05
8.7978892e-05
0.00013015726
0.00020848531
0.00035697612
0.00064385319
0.0011844177
0.0020923287
0.0034349853
0.0052176852
0.0073552027
0.0097049164
0.012124349
0.014505209
0.016775934
0.018892956
0.020832808
0.022585988
0.024152289
0.025537484
0.026751001
0.027804319
0.028709878
0.029480356
0.030128189
0.030665284
0.031102841
0.031451266
0.031720139
0.031918216
0.032053457
0.032133065
0.032163542
0.032150736
0.0320999
0.032015743
0.031902489
0.031763912
0.031603412
0.031424001
0.031228481
0.031019207
0.030798743
0.030568787
0.030332356
0.03009143
0.029844729
0.029635918
0.029226306
8.8233261e-06
8.8921747e-06
8.9646108e-06
9.0378924e-06
9.1097372e-06
9.1783982e-06
9.2429946e-06
9.3033522e-06
9.3596885e-06
9.4124162e-06
9.4620534e-06
9.5091659e-06
9.5543353e-06
9.5981575e-06
9.6412587e-06
9.6843148e-06
9.7280577e-06
9.7732811e-06
9.8208473e-06
9.8716809e-06
9.9267534e-06
9.9870691e-06
1.0053654e-05
1.0127547e-05
1.0209798e-05
1.0301464e-05
1.0403628e-05
1.0517407e-05
1.0643974e-05
1.0784586e-05
1.0940623e-05
1.1113623e-05
1.130534e-05
1.1517823e-05
1.1753496e-05
1.2015254e-05
1.2306656e-05
1.2632091e-05
1.2996999e-05
1.3408347e-05
1.3875044e-05
1.440839e-05
1.5023745e-05
1.5741058e-05
1.658708e-05
1.7601287e-05
1.8833743e-05
2.0365875e-05
2.2317849e-05
2.4856444e-05
2.8319781e-05
3.3178205e-05
4.0337827e-05
5.1226667e-05
6.8934264e-05
9.9263358e-05
0.000154395
0.00026029946
0.00046379853
0.00086280743
0.0015658909
0.0026491436
0.0041393025
0.0059809695
0.0080542574
0.010227115
0.012393383
0.014480373
0.016442274
0.018252903
0.019899926
0.021380396
0.022697526
0.023858414
0.024872443
0.025750196
0.02650271
0.027140989
0.02767569
0.028116932
0.028474185
0.028756219
0.028971092
0.029126164
0.029228127
0.02928304
0.029296376
0.029273074
0.029217573
0.029133881
0.02902558
0.028895969
0.028747909
0.028584319
0.028407419
0.028220326
0.028025669
0.027822373
0.027651159
0.027300404
8.6543891e-06
8.7131637e-06
8.7749961e-06
8.8378117e-06
8.8998147e-06
8.9595288e-06
9.0161114e-06
9.0692755e-06
9.1190682e-06
9.1657237e-06
9.2095875e-06
9.2510611e-06
9.2905653e-06
9.3285262e-06
9.3653786e-06
9.4015763e-06
9.4375985e-06
9.4739593e-06
9.5112215e-06
9.5500015e-06
9.5909669e-06
9.634831e-06
9.6823476e-06
9.7343038e-06
9.7915122e-06
9.8548068e-06
9.9250432e-06
1.00031e-05
1.0089887e-05
1.0186353e-05
1.0293504e-05
1.0412424e-05
1.05443e-05
1.0690462e-05
1.0852425e-05
1.1031939e-05
1.1231076e-05
1.1452316e-05
1.1698659e-05
1.1973803e-05
1.2282373e-05
1.2630111e-05
1.3024431e-05
1.3474851e-05
1.3993536e-05
1.4597333e-05
1.5307624e-05
1.6154783e-05
1.7182914e-05
1.8447876e-05
2.0048783e-05
2.2119571e-05
2.4887882e-05
2.8735964e-05
3.4320023e-05
4.2746434e-05
5.6127837e-05
7.8914178e-05
0.00011943271
0.00019768337
0.00034759758
0.0006491997
0.0012023287
0.002088839
0.0033467893
0.0049428655
0.0067774289
0.0087302191
0.010699604
0.012613803
0.014426355
0.016109624
0.017649431
0.019040844
0.020285107
0.021387431
0.02235545
0.023198151
0.023925136
0.024546129
0.025070657
0.025507842
0.02586628
0.026153979
0.026378336
0.026546136
0.026663573
0.02673628
0.026769364
0.026767457
0.026734731
0.026675015
0.026591696
0.026488093
0.026366955
0.026231573
0.026085173
0.025927061
0.025794716
0.025504314
8.487689e-06
8.5381706e-06
8.5912694e-06
8.6454063e-06
8.6991712e-06
8.7513316e-06
8.8011125e-06
8.8481704e-06
8.89244e-06
8.9340279e-06
8.973152e-06
9.0100937e-06
9.0451622e-06
9.0786756e-06
9.1109555e-06
9.1423287e-06
9.1731288e-06
9.2037023e-06
9.2344202e-06
9.2656859e-06
9.2979399e-06
9.331661e-06
9.3673682e-06
9.4056192e-06
9.4470065e-06
9.4921539e-06
9.5417152e-06
9.5963712e-06
9.6568301e-06
9.7238302e-06
9.7981444e-06
9.8805884e-06
9.9720334e-06
1.0073423e-05
1.0185795e-05
1.0310311e-05
1.0448293e-05
1.0601271e-05
1.0771043e-05
1.0959754e-05
1.1170008e-05
1.1404979e-05
1.166861e-05
1.1965866e-05
1.2302939e-05
1.2687961e-05
1.3131252e-05
1.3646376e-05
1.4252289e-05
1.4972631e-05
1.584355e-05
1.6914087e-05
1.825659e-05
1.9984715e-05
2.2267768e-05
2.5408943e-05
2.9901669e-05
3.6658632e-05
4.7180309e-05
6.4941556e-05
9.604965e-05
0.00015573128
0.00027171726
0.00050633472
0.00095093752
0.0016880703
0.0027625346
0.0041566722
0.0057875076
0.0075463839
0.0093375909
0.011091771
0.012763082
0.014323474
0.015757754
0.017059669
0.018229003
0.019269488
0.020187329
0.020990165
0.021686357
0.022284504
0.022793118
0.023220415
0.023574191
0.023861748
0.024089862
0.024264777
0.024392216
0.024477412
0.02452512
0.024539706
0.024525098
0.024485041
0.02442282
0.02434196
0.02424624
0.02413551
0.024043714
0.023815803
8.3228071e-06
8.3664172e-06
8.412276e-06
8.4591732e-06
8.5060025e-06
8.5517449e-06
8.5957072e-06
8.6375268e-06
8.6770684e-06
8.7143489e-06
8.7494913e-06
8.7826855e-06
8.8141563e-06
8.844144e-06
8.8728948e-06
8.9006575e-06
8.9276806e-06
8.9542145e-06
8.9805173e-06
9.0068619e-06
9.0335402e-06
9.0608677e-06
9.089188e-06
9.1188761e-06
9.150339e-06
9.184016e-06
9.2203788e-06
9.2599306e-06
9.3032046e-06
9.3507641e-06
9.403203e-06
9.4611475e-06
9.5252609e-06
9.5962508e-06
9.6748781e-06
9.7619721e-06
9.8584482e-06
9.9653324e-06
1.0083793e-05
1.0215179e-05
1.0361079e-05
1.052338e-05
1.0704358e-05
1.0906808e-05
1.1134147e-05
1.1390692e-05
1.1681862e-05
1.2014503e-05
1.2397757e-05
1.2843055e-05
1.3366195e-05
1.3988395e-05
1.4738606e-05
1.5659105e-05
1.6808284e-05
1.8279904e-05
2.0213916e-05
2.2843698e-05
2.656857e-05
3.2137752e-05
4.0720436e-05
5.4998577e-05
7.9926702e-05
0.00012726312
0.00022005623
0.00040848465
0.00077490332
0.0013993568
0.0023299559
0.0035594832
0.0050180133
0.0066075692
0.0082390686
0.0098466508
0.011386066
0.012829678
0.014161964
0.015375896
0.016470242