/*--------------------------------*- C++ -*----------------------------------*\
| =========                 |                                                 |
| \\      /  F ield         | OpenFOAM: The Open Source CFD Toolbox           |
|  \\    /   O peration     | Version:  2206                                  |
|   \\  /    A nd           | Website:  www.openfoam.com                      |
|    \\/     M anipulation  |                                                 |
\*---------------------------------------------------------------------------*/
FoamFile
{
    version     2.0;
    format      ascii;
    arch        "LSB;label=32;scalar=64";
    class       volScalarField;
    location    "1300";
    object      k;
}
// * * * * * * * * * * * * * * * * * * * * * * * * * * * * * * * * * * * * * //

dimensions      [0 2 -2 0 0 0 0];

internalField   nonuniform List<scalar> 
7480
(
0.03217843
0.062204909
0.06887724
0.063426753
0.054868814
0.047505177
0.04219724
0.038370096
0.035433112
0.033039987
0.031033158
0.029339025
0.027907768
0.026697493
0.025671975
0.024798426
0.024051786
0.023412569
0.022862068
0.022387122
0.021969935
0.021599765
0.021267318
0.020964955
0.020687613
0.020431122
0.020192588
0.019969151
0.019758253
0.019557755
0.019366451
0.019183537
0.019008137
0.018839526
0.018676876
0.018519777
0.018367134
0.01821872
0.018074168
0.017933042
0.017795031
0.017659853
0.017527295
0.017397215
0.017269446
0.017143868
0.017020317
0.016898622
0.016778688
0.016660411
0.016543711
0.016428536
0.01631482
0.01620253
0.016091601
0.01598199
0.01587366
0.015766551
0.015660607
0.01555579
0.015452097
0.015349514
0.015248013
0.015147573
0.015048176
0.014949805
0.014852429
0.014756025
0.014660578
0.014566078
0.014472509
0.014379853
0.014288098
0.014197236
0.014107251
0.014018127
0.013929847
0.013842399
0.013755769
0.013669942
0.013584905
0.01350064
0.013417133
0.013334365
0.013252316
0.013170964
0.013090283
0.013010236
0.012930797
0.012851883
0.012773501
0.012695393
0.012617799
0.012539702
0.012462564
0.012382278
0.012304759
0.0122157
0.012144383
0.012007738
0.002535623
0.0095615841
0.01665605
0.020686982
0.021734484
0.021465083
0.02083038
0.020181696
0.019548854
0.018919814
0.018310452
0.017745821
0.017239993
0.01679511
0.01640795
0.016065672
0.015767258
0.015511156
0.015291848
0.015100971
0.0149321
0.014779539
0.014638647
0.014506856
0.014383061
0.014265919
0.014155066
0.014048577
0.013945159
0.013844031
0.013745237
0.013648782
0.013554441
0.013462064
0.013371126
0.01328184
0.013193153
0.013105518
0.013018834
0.012932882
0.012847539
0.012762757
0.012678533
0.012594858
0.012511721
0.01242913
0.012347002
0.0122653
0.012184011
0.012103129
0.012022672
0.011942648
0.011863068
0.011783948
0.011705277
0.011627074
0.01154934
0.011472059
0.01139521
0.011318804
0.011242871
0.011167428
0.011092476
0.01101802
0.01094407
0.010870633
0.010797697
0.010725263
0.01065334
0.010581935
0.010511048
0.010440678
0.010370831
0.010301513
0.010232721
0.010164453
0.010096707
0.010029484
0.0099627802
0.0098965955
0.0098309266
0.0097657701
0.0097011216
0.0096369757
0.0095733257
0.009510163
0.0094474771
0.0093852538
0.0093234763
0.0092621193
0.0092011566
0.0091405311
0.0090802154
0.0090200308
0.0089600479
0.0088995652
0.0088391389
0.0087757017
0.0087192786
0.0086170986
0.00022672756
0.00057713429
0.0013121726
0.0026339601
0.0042088484
0.005822306
0.0072756603
0.0085098525
0.0095741489
0.010502351
0.011298847
0.011958872
0.012486481
0.01289894
0.0132197
0.013476822
0.013685575
0.013854332
0.013989168
0.014094627
0.014174998
0.014233732
0.014272957
0.014296271
0.014306642
0.014305421
0.014297428
0.014281089
0.014257387
0.014226958
0.014191469
0.014151819
0.014108546
0.014062253
0.014012757
0.013961163
0.013906189
0.013849433
0.013790765
0.013730238
0.013667995
0.013604225
0.013539129
0.013472866
0.013405586
0.013337435
0.013268415
0.013198609
0.013128103
0.013056977
0.012985342
0.012913275
0.012840854
0.012768156
0.012695218
0.012622116
0.012548889
0.012475557
0.012402132
0.012328665
0.012255223
0.012181854
0.012108583
0.01203544
0.011962463
0.011889677
0.011817089
0.011744716
0.011672589
0.011600731
0.011529156
0.011457879
0.011386916
0.011316289
0.011246006
0.011176074
0.011106503
0.011037303
0.01096848
0.010900043
0.010831996
0.010764345
0.010697092
0.010630239
0.010563788
0.010497737
0.010432081
0.010366816
0.01030193
0.010237413
0.010173232
0.010109384
0.010045763
0.0099824236
0.0099190308
0.0098558252
0.0097918278
0.0097270691
0.0096666112
0.0095609578
0.00016717895
0.00017952131
0.00021029166
0.00029066657
0.00045609269
0.00070065697
0.0011546358
0.0017922647
0.0026162702
0.0035366466
0.0044943553
0.0054742229
0.0064637502
0.0074400547
0.0083717457
0.0092301046
0.00999695
0.010667031
0.01124557
0.011742367
0.012167305
0.012529119
0.012836025
0.01309467
0.013311639
0.013491979
0.013641209
0.013763943
0.013863541
0.013943646
0.014006827
0.014055456
0.01409149
0.014116905
0.0141326
0.014140445
0.014138337
0.014130312
0.014115541
0.014095022
0.014069321
0.014038989
0.014004539
0.013966397
0.013924971
0.01388062
0.013833479
0.013783842
0.013731937
0.013677978
0.013622205
0.013564797
0.013505939
0.013445796
0.013384473
0.013322127
0.013258856
0.013194734
0.013129819
0.013064219
0.012998051
0.012931403
0.012864335
0.012796914
0.012729211
0.01266128
0.012593149
0.012524863
0.012456479
0.012388038
0.012319576
0.012251123
0.012182716
0.012114393
0.012046175
0.011978083
0.011910141
0.01184237
0.011774789
0.011707417
0.011640268
0.011573359
0.0115067
0.011440303
0.011374176
0.011308328
0.011242761
0.011177479
0.011112477
0.011047759
0.01098329
0.010919103
0.010855057
0.010791324
0.010727396
0.010663957
0.010599356
0.01053515
0.010473679
0.010368822
0.00017020586
0.00017279505
0.00017481576
0.00017720565
0.00018348474
0.00019583886
0.00022588571
0.00029000449
0.00039713529
0.00059907063
0.00091542772
0.0013527717
0.001923043
0.002591114
0.0033469927
0.0041824811
0.0050803864
0.0060107184
0.0069353433
0.0078173708
0.008630354
0.0093620473
0.010011778
0.010584456
0.011086612
0.01152451
0.011904744
0.012233996
0.012518937
0.012765036
0.012976862
0.01315859
0.013313901
0.013445715
0.01355699
0.01365077
0.013727765
0.013790584
0.013840801
0.013879496
0.013907811
0.013926916
0.013937789
0.01394126
0.013938132
0.013929111
0.013914686
0.013895267
0.01387126
0.013843099
0.013811221
0.013775963
0.013737644
0.013696563
0.013652965
0.013607139
0.013559258
0.01350948
0.013457935
0.013404815
0.013350306
0.013294553
0.013237668
0.013179775
0.013120988
0.013061401
0.013001076
0.012940097
0.012878552
0.012816514
0.012754044
0.012691198
0.012628038
0.012564624
0.012500998
0.012437198
0.012373266
0.012309241
0.012245156
0.012181045
0.012116937
0.012052859
0.011988836
0.01192489
0.01186104
0.011797306
0.011733699
0.011670236
0.011606918
0.011543763
0.011480744
0.011417914
0.011355125
0.011292623
0.01122981
0.011167639
0.011104101
0.011041706
0.010981086
0.010879079
0.00017228026
0.0001769361
0.00017913876
0.00017981581
0.00017994924
0.00017982173
0.00017997301
0.00018133312
0.00018572495
0.00019813975
0.00022609409
0.00027891498
0.00036462686
0.00051653368
0.00075028681
0.0010874736
0.0015380977
0.002094516
0.0027564862
0.0035172693
0.0043570742
0.0052425674
0.0061330935
0.006991165
0.0077911361
0.0085210568
0.0091789509
0.0097676176
0.010291608
0.010756053
0.011166389
0.01152812
0.01184643
0.012125893
0.012370722
0.012585116
0.01277194
0.012934274
0.013074854
0.013195955
0.013299619
0.013387562
0.013461366
0.013522457
0.01357204
0.013611194
0.01364104
0.013662459
0.013676257
0.013683132
0.013683699
0.01367849
0.013668037
0.01365282
0.013633274
0.013609874
0.013582884
0.013552586
0.013519258
0.013483192
0.013444632
0.0134038
0.013360881
0.013316057
0.013269522
0.013221432
0.013171896
0.013121051
0.013069032
0.013015949
0.012961901
0.012906975
0.012851269
0.012794876
0.012737859
0.012680284
0.012622217
0.012563716
0.012504838
0.012445633
0.012386149
0.012326429
0.012266515
0.012206442
0.012146245
0.012085954
0.012025597
0.0119652
0.011904778
0.011844361
0.011783932
0.011723566
0.011663116
0.011602876
0.011542213
0.01148224
0.011420777
0.011360925
0.011302257
0.011204238
0.00017196708
0.00017819243
0.00018218297
0.00018409376
0.00018459092
0.0001843956
0.00018381976
0.00018302571
0.00018232982
0.00018164802
0.00018198234
0.00018376617
0.00018879203
0.00020071558
0.00022460947
0.00026833884
0.00033863618
0.00046220444
0.00065832117
0.00094875823
0.001350062
0.0018619563
0.0024859235
0.0032128115
0.0040185893
0.0048665631
0.0057159623
0.0065328245
0.0072963434
0.0079979731
0.0086364711
0.0092136588
0.0097326617
0.010197441
0.010612456
0.010982446
0.011311564
0.011603755
0.011862749
0.012091884
0.012294163
0.01247224
0.012628496
0.012765086
0.01288391
0.012986653
0.013074905
0.013150058
0.013213356
0.013265901
0.013308665
0.01334256
0.013368357
0.013386753
0.013398407
0.013403845
0.013403665
0.013398362
0.013388396
0.013374144
0.013355964
0.013334187
0.013309095
0.013280972
0.013250104
0.013216711
0.013180962
0.01314307
0.013103217
0.013061575
0.013018301
0.012973539
0.012927408
0.01288003
0.012831511
0.012781954
0.012731453
0.012680097
0.012627965
0.012575136
0.012521677
0.012467654
0.012413126
0.012358151
0.012302778
0.012247055
0.012191025
0.012134728
0.012078196
0.012021473
0.011964555
0.011907535
0.011850276
0.011793105
0.011735391
0.011678329
0.011619697
0.011562934
0.011506967
0.011413767
0.00017025646
0.00017693044
0.00018195326
0.00018483756
0.00018616137
0.00018661906
0.00018644667
0.00018599901
0.00018531483
0.00018450413
0.00018368062
0.0001829319
0.00018232764
0.00018203508
0.00018256772
0.00018472745
0.00018992105
0.0002011073
0.00022289965
0.00026266597
0.0003282459
0.00044457744
0.00063364119
0.00091710791
0.0013114943
0.0018199181
0.0024410028
0.0031595459
0.0039452606
0.004758766
0.0055626077
0.0063301181
0.0070472899
0.007709
0.0083144782
0.0088650921
0.0093634295
0.0098129127
0.010217337
0.010580471
0.010905947
0.011197175
0.011457303
0.011689228
0.011895586
0.01207875
0.012240907
0.012384035
0.012509914
0.012620137
0.012716123
0.012799169
0.012870423
0.012930912
0.012981584
0.013023253
0.013056717
0.01308269
0.013101826
0.013114693
0.013121809
0.01312365
0.013120664
0.013113226
0.01310167
0.013086338
0.013067564
0.013045609
0.013020725
0.012993151
0.012963106
0.01293079
0.01289638
0.012860049
0.012821943
0.012782209
0.012740978
0.012698374
0.012654512
0.012609498
0.012563429
0.012516398
0.012468487
0.012419777
0.012370339
0.012320242
0.012269546
0.012218311
0.012166585
0.012114429
0.012061857
0.012008978
0.011955674
0.011902293
0.011848228
0.011794707
0.011739548
0.011686363
0.011633679
0.011546007
0.0001677952
0.00017418421
0.00017957821
0.00018317614
0.00018515145
0.00018601535
0.00018621428
0.00018607698
0.00018575199
0.00018529248
0.00018473726
0.00018409166
0.00018338572
0.00018268674
0.00018204362
0.00018146483
0.00018101523
0.00018097497
0.00018182314
0.00018452107
0.00019026519
0.00020210176
0.00022512272
0.00026669194
0.00033896527
0.0004660625
0.00067252653
0.00097990673
0.001398812
0.0019326676
0.0025730845
0.003295765
0.004064313
0.0048405079
0.0055945203
0.0063087819
0.0069752962
0.0075912379
0.0081563656
0.0086720903
0.0091409399
0.0095659708
0.0099503792
0.010297368
0.010610045
0.010891328
0.011143965
0.011370503
0.01157328
0.011754426
0.011915863
0.012059347
0.01218646
0.012298626
0.012397146
0.012483177
0.01255779
0.012621968
0.012676606
0.012722503
0.012760382
0.0127909
0.012814664
0.012832212
0.012844023
0.012850554
0.012852244
0.012849469
0.012842577
0.01283189
0.012817706
0.0128003
0.012779921
0.012756786
0.012731114
0.0127031
0.012672922
0.012640748
0.012606733
0.012571021
0.012533744
0.012495026
0.012454983
0.012413719
0.012371335
0.012327921
0.012283562
0.01223834
0.012192323
0.012145592
0.012098181
0.012050215
0.012001603
0.011952703
0.011902953
0.011853578
0.011802491
0.011753368
0.011704464
0.011622995
0.00016513339
0.00017080656
0.00017601373
0.00017994767
0.00018246839
0.000183846
0.00018446373
0.00018462843
0.00018452806
0.0001842754
0.00018392538
0.00018350142
0.00018301611
0.00018248434
0.00018191545
0.00018131351
0.00018071249
0.00018011523
0.00017956446
0.00017913511
0.00017895034
0.00017929146
0.00018073261
0.00018427644
0.00019160687
0.00020627382
0.00023461546
0.0002845948
0.00037623903
0.0005338025
0.00078156613
0.0011370408
0.0016061902
0.0021851694
0.0028540671
0.0035792355
0.0043230512
0.0050547244
0.0057550268
0.0064142695
0.0070282058
0.007595468
0.0081165615
0.0085932484
0.0090279483
0.0094233568
0.0097822906
0.010107555
0.010401855
0.010667749
0.010907616
0.011123663
0.011317921
0.011492241
0.011648322
0.011787696
0.011911772
0.012021843
0.012119093
0.012204592
0.012279309
0.012344124
0.012399844
0.012447197
0.012486836
0.012519368
0.012545366
0.012565341
0.012579758
0.012589047
0.012593601
0.012593784
0.012589929
0.012582333
0.012571279
0.012557026
0.012539812
0.012519859
0.012497371
0.012472538
0.012445536
0.012416526
0.012385661
0.012353079
0.012318912
0.012283281
0.012246297
0.012208068
0.012168686
0.012128256
0.012086834
0.012044565
0.012001387
0.011957666
0.011912895
0.011868277
0.011821852
0.011777295
0.01173264
0.011658042
0.00016263034
0.0001674292
0.00017208767
0.00017595483
0.00017877292
0.00018059206
0.00018163797
0.00018215957
0.00018234313
0.00018231233
0.0001821446
0.00018188475
0.00018155807
0.00018118017
0.00018076135
0.00018030683
0.00017982493
0.000179317
0.00017877773
0.00017823451
0.00017770157
0.00017720626
0.00017681051
0.00017660771
0.00017678196
0.00017770543
0.00018018503
0.00018537378
0.00019594458
0.00021692651
0.00025581342
0.00032735685
0.00045577357
0.00066664951
0.00098068236
0.0014060504
0.0019415378
0.0025695431
0.0032580367
0.0039704119
0.0046764109
0.0053567769
0.0060012738
0.0066048935
0.0071655734
0.0076832318
0.0081590946
0.008595099
0.0089935497
0.0093569298
0.009687746
0.0099884538
0.010261404
0.010508805
0.010732722
0.010935058
0.011117574
0.011281896
0.011429528
0.011561841
0.011680084
0.011785395
0.011878816
0.011961298
0.012033699
0.012096809
0.012151363
0.012198029
0.012237416
0.01227008
0.012296534
0.01231725
0.01233266
0.012343155
0.0123491
0.012350832
0.012348659
0.012342868
0.012333724
0.012321471
0.012306336
0.012288528
0.012268244
0.012245662
0.012220951
0.012194268
0.012165755
0.012135552
0.012103778
0.012070566
0.012035999
0.012000244
0.01196327
0.011925453
0.011886347
0.011847121
0.011805962
0.011766505
0.011726565
0.011659533
0.00016044831
0.00016439509
0.00016836195
0.00017187466
0.00017469067
0.00017675196
0.00017814378
0.0001790162
0.00017951139
0.00017974101
0.00017978726
0.00017970624
0.00017953461
0.00017929603
0.00017900659
0.00017867697
0.00017831466
0.00017792441
0.00017750619
0.00017706486
0.00017660404
0.00017612593
0.00017563564
0.00017516061
0.00017472508
0.0001743733
0.00017419501
0.00017432642
0.00017506045
0.00017702213
0.00018125673
0.00018982942
0.00020701909
0.00023991218
0.00030101767
0.00041409796
0.00060515126
0.0008959344
0.0012960694
0.0018050112
0.0024053108
0.0030652654
0.0037494775
0.0044293932
0.005086956
0.0057122511
0.0063001045
0.0068481966
0.0073561649
0.0078248978
0.0082559888
0.0086514356
0.0090134338
0.0093442313
0.0096460527
0.0099210388
0.010171227
0.010398541
0.01060478
0.010791616
0.010960589
0.011113115
0.011250495
0.011373924
0.011484495
0.011583206
0.011670985
0.011748679
0.011817063
0.011876846
0.01192868
0.011973165
0.012010851
0.01204224
0.012067795
0.012087945
0.012103083
0.012113573
0.012119751
0.012121928
0.01212039
0.012115405
0.012107217
0.012096057
0.012082135
0.01206565
0.012046784
0.01202571
0.012002584
0.011977566
0.011950773
0.011922397
0.011892442
0.011861294
0.011828575
0.011795413
0.011760151
0.011726373
0.011691632
0.011632895
0.00015861742
0.00016182139
0.00016510599
0.00016813674
0.00017072811
0.00017280196
0.00017436893
0.00017549543
0.00017626342
0.00017675108
0.00017702672
0.00017714451
0.00017714493
0.00017705707
0.00017690203
0.00017669516
0.00017644705
0.00017616521
0.00017585398
0.00017551686
0.00017515667
0.00017477511
0.00017437278
0.00017395441
0.00017352527
0.00017308885
0.00017266608
0.00017228475
0.00017198456
0.00017184841
0.00017200486
0.00017270575
0.00017448507
0.00017832758
0.00018603273
0.00020159013
0.00023186317
0.00028909649
0.00039674611
0.00058125155
0.00086387469
0.0012546657
0.0017517439
0.0023357998
0.0029744744
0.0036339896
0.004288505
0.0049220204
0.0055255162
0.0060940982
0.0066255424
0.0071194443
0.0075765174
0.007998132
0.0083860484
0.0087422187
0.0090686711
0.0093674313
0.0096404736
0.0098896875
0.010116856
0.01032365
0.010511626
0.010682229
0.010836791
0.010976542
0.011102617
0.011216065
0.011317846
0.011408844
0.01148987
0.011561672
0.011624937
0.011680293
0.011728322
0.011769557
0.011804492
0.011833582
0.011857245
0.011875871
0.011889818
0.011899417
0.011904976
0.011906781
0.011905094
0.011900161
0.011892211
0.011881458
0.011868097
0.011852324
0.011834291
0.01181422
0.011792155
0.011768493
0.01174293
0.01171655
0.011687857
0.011660383
0.011631359
0.011581699
0.00015710394
0.00015969744
0.0001623833
0.00016492439
0.00016718653
0.00016910622
0.00017067289
0.00017190906
0.00017285065
0.00017353897
0.00017401756
0.00017432713
0.00017450268
0.00017457263
0.00017455957
0.00017448126
0.00017435082
0.000174178
0.00017396991
0.00017373166
0.00017346706
0.00017317879
0.00017286847
0.00017253775
0.00017218862
0.00017182196
0.00017144148
0.00017105341
0.00017066435
0.00017028859
0.00016995972
0.00016971769
0.00016964253
0.00016986362
0.00017061843
0.00017242115
0.00017624079
0.00018386528
0.00019934127
0.00022957932
0.00028810431
0.00039849986
0.00058782408
0.00087529978
0.0012701777
0.0017672152
0.0023435382
0.0029660361
0.0036033978
0.0042332861
0.0048421806
0.0054222953
0.0059693551
0.0064814614
0.0069582904
0.0074004871
0.0078092967
0.0081863149
0.0085333203
0.0088521666
0.0091447081
0.0094127562
0.0096580492
0.009882238
0.010086873
0.0102734
0.01044317
0.010597434
0.010737352
0.010863995
0.010978349
0.011081327
0.011173769
0.011256449
0.011330078
0.011395315
0.011452766
0.01150299
0.011546504
0.011583786
0.011615277
0.011641386
0.011662491
0.011678941
0.011691061
0.011699153
0.011703498
0.011704357
0.01170197
0.011696577
0.011688371
0.011677603
0.011664368
0.011649072
0.011631489
0.011612665
0.011591261
0.011570769
0.011548022
0.011508281
0.00015585502
0.00015796063
0.00016015137
0.00016225588
0.00016417508
0.00016586256
0.00016730903
0.00016852382
0.00016952114
0.0001703178
0.0001709347
0.0001713951
0.00017172241
0.00017193846
0.00017206275
0.00017211211
0.00017210003
0.00017203724
0.0001719322
0.00017179145
0.0001716199
0.00017142124
0.00017119812
0.0001709525
0.00017068601
0.00017039967
0.00017009477
0.00016977322
0.00016943695
0.0001690888
0.00016873621
0.00016838839
0.00016805813
0.00016778298
0.00016760433
0.00016760652
0.00016792612
0.0001688109
0.00017081272
0.00017492668
0.00018315958
0.00019994317
0.00023258483
0.00029735553
0.00041853077
0.00062341561
0.00092760069
0.0013377077
0.0018429812
0.0024163542
0.0030249923
0.0036413218
0.0042469772
0.0048309142
0.0053866646
0.0059107468
0.0064017093
0.0068593989
0.0072844824
0.0076781402
0.0080418536
0.0083772654
0.0086860824
0.0089700141
0.0092307294
0.0094698294
0.0096888364
0.0098891867
0.010072226
0.010239211
0.010391309
0.010529605
0.010655103
0.010768734
0.010871355
0.010963761
0.011046686
0.011120806
0.011186749
0.011245094
0.011296378
0.011341095
0.011379706
0.011412634
0.011440275
0.011462995
0.011481133
0.011495008
0.011504912
0.01151113
0.011513903
0.011513522
0.01151013
0.011504152
0.011495441
0.011485009
0.011471671
0.0114589
0.011443041
0.011414133
0.00015481968
0.00015653894
0.00015833119
0.00016007022
0.00016167965
0.00016312366
0.000164397
0.00016550818
0.00016646634
0.00016727887
0.00016795397
0.00016850164
0.0001689336
0.00016926267
0.00016950204
0.00016966457
0.00016976165
0.00016980305
0.00016979712
0.00016975071
0.00016966932
0.00016955723
0.00016941775
0.00016925341
0.00016906613
0.00016885733
0.00016862816
0.00016837973
0.0001681131
0.00016782929
0.0001675304
0.0001672194
0.00016689926
0.00016657884
0.00016626919
0.00016598471
0.00016576636
0.00016566004
0.00016576182
0.00016622189
0.00016732509
0.00016971914
0.00017447536
0.00018408177
0.0002037357
0.00024166589
0.00031828704
0.00045949576
0.00068900225
0.0010203664
0.0014540619
0.0019720696
0.0025439193
0.0031389694
0.0037344141
0.0043158137
0.004874427
0.0054051438
0.0059053256
0.0063739753
0.006811153
0.0072176009
0.007594481
0.0079432019
0.0082652979
0.0085623491
0.00883593
0.0090875784
0.0093187732
0.0095309217
0.0097253528
0.0099033144
0.010065975
0.010214421
0.010349665
0.010472646
0.010584235
0.010685238
0.010776404
0.010858425
0.010931942
0.010997551
0.011055801
0.011107203
0.01115223
0.011191321
0.011224885
0.011253302
0.011276925
0.011296093
0.011311099
0.011322279
0.01132983
0.011334201
0.011335328
0.011334194
0.011329764
0.011325515
0.011317213
0.011300136
0.00015395556
0.00015536855
0.00015684272
0.00015828393
0.00015963134
0.00016085456
0.00016194943
0.00016292472
0.00016379018
0.00016455246
0.00016521628
0.00016578569
0.00016626519
0.0001666603
0.00016697773
0.00016722512
0.00016741011
0.00016753994
0.00016762134
0.00016766035
0.00016766206
0.00016763072
0.00016756976
0.00016748196
0.00016736946
0.00016723394
0.00016707671
0.00016689885
0.00016670127
0.00016648474
0.00016625017
0.00016599881
0.00016573182
0.0001654517
0.00016516233
0.00016486753
0.00016457768
0.00016430563
0.00016407018
0.00016391618
0.0001638979
0.0001641335
0.00016479313
0.00016623553
0.00016926927
0.00017514086
0.00018715562
0.00021145024
0.00026021799
0.00035608736
0.00052666535
0.0007907795
0.0011576144
0.0016188452
0.0021492506
0.0027176062
0.0032976234
0.0038715367
0.0044282921
0.0049611691
0.0054663598
0.0059420295
0.0063876301
0.0068034537
0.0071903268
0.0075494037
0.0078820271
0.0081896352
0.0084736993
0.0087356804
0.0089770019
0.0091990312
0.009403071
0.0095903516
0.009762029
0.0099191858
0.010062833
0.010193911
0.010313298
0.010421808
0.010520196
0.010609165
0.010689366
0.010761405
0.010825841
0.010883198
0.01093396
0.010978579
0.011017473
0.011051044
0.011079645
0.01110366
0.011123349
0.011139188
0.0111512
0.011160347
0.011165739
0.011170883
0.011170871
0.011166714
0.00015322929
0.00015439809
0.000155618
0.00015681829
0.00015794979
0.00015898531
0.00015991946
0.00016075943
0.00016151511
0.00016219449
0.00016280312
0.00016334449
0.00016382085
0.00016423421
0.00016458709
0.00016488287
0.00016512542
0.00016531891
0.00016546767
0.00016557598
0.00016564776
0.00016568648
0.00016569512
0.00016567622
0.00016563183
0.00016556361
0.00016547292
0.00016536084
0.00016522825
0.00016507589
0.00016490441
0.00016471452
0.00016450689
0.00016428246
0.00016404276
0.00016378935
0.00016352534
0.0001632554
0.00016298493
0.00016272625
0.0001624943
0.00016231579
0.00016224028
0.0001623366
0.00016275694
0.00016370452
0.00016567885
0.00016962978
0.00017748252
0.00019364363
0.00022566476
0.00029164677
0.00041725794
0.00062666257
0.0009346769
0.0013417623
0.0018294447
0.0023680486
0.0029290838
0.0034918463
0.0040430705
0.0045745084
0.0050812411
0.0055606187
0.0060114944
0.0064337112
0.0068277575
0.0071945323
0.0075351864
0.0078510127
0.0081433716
0.0084136397
0.0086631771
0.0088933037
0.0091052859
0.0093003275
0.0094795666
0.0096440737
0.0097948523
0.0099328409
0.010058915
0.010173891
0.010278529
0.010373535
0.010459568
0.010537239
0.010607118
0.010669735
0.010725585
0.010775136
0.010818808
0.010857043
0.010890165
0.010918687
0.01094272
0.010963214
0.010979419
0.010994904
0.011003985
0.011013936
0.00015261497
0.00015358763
0.00015460311
0.00015560808
0.0001565627
0.00015744239
0.00015824004
0.00015896003
0.00015961074
0.00016020045
0.00016073593
0.00016122195
0.00016166141
0.00016205596
0.00016240677
0.00016271508
0.00016298235
0.0001632103
0.00016340103
0.00016355684
0.00016368012
0.00016377312
0.00016383792
0.0001638764
0.00016389015
0.00016388053
0.00016384866
0.0001637955
0.0001637218
0.00016362821
0.00016351527
0.00016338348
0.00016323329
0.00016306518
0.00016287983
0.00016267801
0.00016246084
0.00016223021
0.00016198824
0.00016173897
0.00016148788
0.00016124296
0.00016101891
0.00016083385
0.00016072641
0.00016075209
0.00016101082
0.00016167703
0.00016306107
0.00016588735
0.0001713319
0.00018245033
0.00020510778
0.00025155263
0.00034425879
0.0005107146
0.00076910145
0.0011270889
0.0015732652
0.0020810375
0.0026210368
0.0031702073
0.0037132562
0.0042405084
0.0047460133
0.0052263595
0.0056798362
0.0061058631
0.0065046087
0.0068767283
0.007223185
0.0075451259
0.0078437985
0.0081204913
0.0083764954
0.0086130766
0.0088314598
0.0090328173
0.0092182636
0.0093888515
0.0095455723
0.0096893561
0.0098210732
0.0099415374
0.010051508
0.010151694
0.010242756
0.010325311
0.010399935
0.01046717
0.010527513
0.010581464
0.010629423
0.010671944
0.01070923
0.010742229
0.010770323
0.010797176
0.010816228
0.010841587
0.00015209241
0.00015290633
0.00015375627
0.00015460194
0.00015541115
0.00015616193
0.0001568459
0.00015746457
0.00015802397
0.00015853127
0.00015899336
0.00015941593
0.0001598031
0.00016015752
0.00016048081
0.000160774
0.00016103778
0.0001612727
0.00016147948
0.00016165901
0.00016181229
0.00016194037
0.00016204431
0.00016212514
0.00016218376
0.00016222099
0.00016223754
0.000162234
0.00016221089
0.00016216864
0.00016210761
0.0001620281
0.00016193041
0.00016181478
0.00016168154
0.00016153105
0.00016136379
0.00016118052
0.00016098218
0.00016077031
0.00016054715
0.00016031578
0.00016008143
0.00015985069
0.00015963539
0.00015945285
0.0001593288
0.000159312
0.00015947506
0.00015997094
0.00016100638
0.00016308842
0.00016716883
0.0001752847
0.00019200081
0.00022559645
0.00029567022
0.00042859354
0.00064644281
0.00096188354
0.0013698768
0.0018476443
0.0023660111
0.0029002569
0.0034333708
0.003954417
0.0044565295
0.0049356168
0.0053894622
0.0058171033
0.0062184155
0.0065938264
0.0069441211
0.0072703063
0.0075735178
0.007854955
0.0081158378
0.0083573758
0.008580749
0.0087870947
0.0089774994
0.0091529949
0.0093145558
0.0094631
0.0095994892
0.0097245315
0.0098389834
0.0099435537
0.010038904
0.010125659
0.010204393
0.010275679
0.010339991
0.010397933
0.010449805
0.010496561
0.010537711
0.010577046
0.010607025
0.010649212
0.00015164572
0.00015233025
0.00015304519
0.00015376003
0.00015444892
0.0001550925
0.00015568183
0.00015621614
0.00015669905
0.000157136
0.00015753297
0.00015789564
0.00015822871
0.0001585358
0.00015881945
0.00015908139
0.00015932264
0.00015954377
0.00015974512
0.00015992695
0.00016008953
0.00016023309
0.0001603579
0.00016046422
0.0001605523
0.00016062236
0.00016067458
0.00016070914
0.00016072617
0.00016072578
0.00016070807
0.00016067311
0.00016062096
0.00016055168
0.00016046535
0.00016036207
0.00016024198
0.00016010536
0.00015995258
0.00015978423
0.00015960124
0.00015940489
0.00015919731
0.00015898126
0.0001587612
0.00015854375
0.00015833797
0.00015815949
0.00015802983
0.0001579886
0.00015809806
0.00015846965
0.00015929319
0.00016092362
0.00016415862
0.00017035231
0.00018308935
0.00020896573
0.0002633765
0.00037101015
0.00055645757
0.00083600983
0.0012100722
0.0016598584
0.0021570848
0.0026759691
0.0031981261
0.0037115635
0.0042086467
0.004684708
0.0051370956
0.0055645127
0.0059665742
0.0063435026
0.0066959192
0.0070246989
0.0073308709
0.0076155483
0.0078798809
0.0081250215
0.0083521042
0.0085622286
0.0087564513
0.0089357799
0.0091011699
0.0092535248
0.0093936954
0.0095224831
0.0096406391
0.0097488738
0.0098478455
0.0099382002
0.010020498
0.010095394
0.010163289
0.010225154
0.010280623
0.010333642
0.010375589
0.01043615
0.00015126229
0.00015184063
0.00015244473
0.00015305144
0.00015364004
0.00015419381
0.00015470377
0.00015516763
0.00015558699
0.00015596549
0.00015630783
0.00015661892
0.00015690333
0.00015716501
0.00015740714
0.00015763215
0.00015784178
0.00015803712
0.00015821885
0.00015838732
0.00015854267
0.00015868489
0.00015881388
0.00015892947
0.00015903146
0.00015911961
0.00015919369
0.00015925346
0.00015929867
0.00015932909
0.00015934451
0.00015934471
0.00015932951
0.00015929874
0.00015925223
0.00015918986
0.00015911156
0.00015901727
0.00015890703
0.00015878099
0.00015863945
0.00015848288
0.00015831212
0.00015812838
0.0001579335
0.00015773028
0.00015752256
0.00015731641
0.00015712004
0.00015694699
0.00015681759
0.00015676387
0.00015683917
0.00015713303
0.00015782544
0.00015916686
0.00016179677
0.00016681984
0.00017700572
0.00019787416
0.00024155506
0.00033041207
0.00049070746
0.0007409734
0.0010859848
0.0015106694
0.0019880423
0.0024918013
0.0030025613
0.0035075007
0.0039983715
0.0044700413
0.0049195003
0.005345172
0.005746449
0.0061233746
0.0064764241
0.006806353
0.0071140921
0.0074006736
0.0076671802
0.007914709
0.008144348
0.0083571591
0.0085541675
0.0087363556
0.0089046589
0.0090599655
0.0092031143
0.0093349011
0.0094560698
0.0095673437
0.0096693693
0.0097628622
0.0098483246
0.0099267535
0.0099979002
0.0100659
0.010120943
0.01020156
0.00015093199
0.00015142265
0.00015193517
0.00015245196
0.00015295647
0.00015343441
0.00015387723
0.00015428167
0.00015464787
0.00015497794
0.00015527525
0.00015554369
0.00015578724
0.00015600962
0.00015621412
0.00015640356
0.00015658017
0.00015674562
0.00015690111
0.00015704742
0.00015718501
0.00015731402
0.00015743442
0.00015754597
0.00015764836
0.00015774116
0.00015782389
0.00015789607
0.00015795718
0.00015800672
0.00015804421
0.00015806918
0.00015808119
0.00015807983
0.00015806472
0.00015803552
0.00015799192
0.00015793365
0.0001578605
0.00015777232
0.00015766904
0.00015755072
0.00015741756
0.00015726998
0.00015710872
0.00015693494
0.00015675033
0.00015655752
0.00015636009
0.0001561636
0.00015597612
0.00015580962
0.00015568259
0.0001556226
0.0001556797
0.00015592854
0.0001565194
0.00015767537
0.00015991405
0.00016419648
0.00017272074
0.0001901892
0.00022644413
0.00030188971
0.00044303578
0.00067000803
0.00099095181
0.0013939284
0.0018533322
0.0023427403
0.0028421319
0.0033380997
0.0038219475
0.0042881954
0.0047335581
0.0051562374