/*--------------------------------*- C++ -*----------------------------------*\
| =========                 |                                                 |
| \\      /  F ield         | OpenFOAM: The Open Source CFD Toolbox           |
|  \\    /   O peration     | Version:  2206                                  |
|   \\  /    A nd           | Website:  www.openfoam.com                      |
|    \\/     M anipulation  |                                                 |
\*---------------------------------------------------------------------------*/
FoamFile
{
    version     2.0;
    format      ascii;
    arch        "LSB;label=32;scalar=64";
    class       volScalarField;
    location    "1300";
    object      nut;
}
// * * * * * * * * * * * * * * * * * * * * * * * * * * * * * * * * * * * * * //

dimensions      [0 2 -1 0 0 0 0];

internalField   nonuniform List<scalar> 
7480
(
1.6140175e-05
2.2440784e-05
2.3613673e-05
2.2660109e-05
2.1076026e-05
1.961086e-05
1.8482826e-05
1.7624748e-05
1.6936795e-05
1.6354852e-05
1.5850382e-05
1.5411668e-05
1.5031053e-05
1.4701517e-05
1.4416392e-05
1.4168995e-05
1.3954064e-05
1.376739e-05
1.3604572e-05
1.3462516e-05
1.3336489e-05
1.322366e-05
1.3121501e-05
1.3027891e-05
1.2941432e-05
1.2860956e-05
1.2785659e-05
1.2714723e-05
1.2647402e-05
1.2583068e-05
1.2521375e-05
1.2462102e-05
1.2404998e-05
1.2349855e-05
1.2296427e-05
1.2244601e-05
1.2194034e-05
1.2144666e-05
1.2096389e-05
1.204907e-05
1.2002615e-05
1.1956938e-05
1.1911977e-05
1.186769e-05
1.1824029e-05
1.1780959e-05
1.173843e-05
1.1696389e-05
1.1654808e-05
1.1613656e-05
1.1572908e-05
1.1532553e-05
1.1492569e-05
1.145295e-05
1.1413677e-05
1.1374736e-05
1.133612e-05
1.1297809e-05
1.1259786e-05
1.1222041e-05
1.1184576e-05
1.1147388e-05
1.111047e-05
1.1073816e-05
1.1037423e-05
1.1001287e-05
1.09654e-05
1.0929755e-05
1.0894349e-05
1.085918e-05
1.0824245e-05
1.078954e-05
1.0755061e-05
1.0720809e-05
1.068678e-05
1.0652969e-05
1.0619372e-05
1.0585986e-05
1.0552809e-05
1.0519836e-05
1.0487064e-05
1.0454489e-05
1.0422106e-05
1.0389909e-05
1.0357895e-05
1.0326053e-05
1.0294377e-05
1.0262854e-05
1.0231474e-05
1.0200206e-05
1.0169053e-05
1.0137914e-05
1.0106885e-05
1.0075558e-05
1.004452e-05
1.0012113e-05
9.980723e-06
9.9445388e-06
9.9154681e-06
9.8595271e-06
1.6718261e-06
5.1457983e-06
8.7896904e-06
1.1681398e-05
1.3403531e-05
1.4480778e-05
1.5238147e-05
1.5811243e-05
1.6224857e-05
1.6522206e-05
1.674879e-05
1.6936907e-05
1.7104081e-05
1.7258262e-05
1.7404301e-05
1.7534475e-05
1.7658983e-05
1.7784636e-05
1.7911197e-05
1.8032887e-05
1.814749e-05
1.8252295e-05
1.8345339e-05
1.8427209e-05
1.849974e-05
1.856366e-05
1.8620937e-05
1.8670111e-05
1.871085e-05
1.8743504e-05
1.8769539e-05
1.8789891e-05
1.8804997e-05
1.881538e-05
1.8820804e-05
1.8822247e-05
1.8818488e-05
1.8810971e-05
1.879985e-05
1.878514e-05
1.8766983e-05
1.8745608e-05
1.8721306e-05
1.8694278e-05
1.866472e-05
1.8632843e-05
1.8598665e-05
1.8562315e-05
1.8523929e-05
1.8483626e-05
1.844158e-05
1.8397908e-05
1.8352734e-05
1.8306177e-05
1.82583e-05
1.8209228e-05
1.8159032e-05
1.810776e-05
1.8055447e-05
1.8002182e-05
1.794807e-05
1.7893188e-05
1.7837589e-05
1.7781327e-05
1.7724469e-05
1.7667065e-05
1.7609141e-05
1.7550737e-05
1.7491909e-05
1.7432702e-05
1.7373152e-05
1.7313288e-05
1.725315e-05
1.719278e-05
1.7132201e-05
1.7071438e-05
1.7010518e-05
1.6949466e-05
1.6888307e-05
1.6827063e-05
1.6765756e-05
1.6704406e-05
1.664303e-05
1.6581646e-05
1.6520269e-05
1.6458914e-05
1.6397592e-05
1.633632e-05
1.6275094e-05
1.621395e-05
1.615283e-05
1.6091875e-05
1.6030783e-05
1.5970186e-05
1.5908769e-05
1.5849058e-05
1.5786417e-05
1.5728042e-05
1.5670049e-05
1.5564819e-05
4.4413587e-07
4.7176412e-07
9.4633222e-07
2.2179819e-06
4.143375e-06
6.40905e-06
8.5136097e-06
1.0327359e-05
1.2010694e-05
1.3631202e-05
1.5181306e-05
1.6642743e-05
1.8007715e-05
1.9282644e-05
2.0479255e-05
2.1623627e-05
2.2717199e-05
2.3754099e-05
2.4730519e-05
2.5644464e-05
2.6496827e-05
2.7288646e-05
2.8019396e-05
2.8694898e-05
2.9319911e-05
2.9895622e-05
3.0435627e-05
3.0932956e-05
3.1390852e-05
3.1811233e-05
3.2199634e-05
3.255883e-05
3.2890752e-05
3.3197837e-05
3.3479881e-05
3.3741185e-05
3.3977581e-05
3.4195781e-05
3.4395192e-05
3.4576547e-05
3.4740887e-05
3.488932e-05
3.5022987e-05
3.5142831e-05
3.5249763e-05
3.5344686e-05
3.5427911e-05
3.5500121e-05
3.5561948e-05
3.5613964e-05
3.5656852e-05
3.5691142e-05
3.5717383e-05
3.5736088e-05
3.5747594e-05
3.5752407e-05
3.5750865e-05
3.5743238e-05
3.572975e-05
3.5710769e-05
3.5686702e-05
3.5657864e-05
3.5624495e-05
3.5586851e-05
3.5545206e-05
3.5499781e-05
3.5450722e-05
3.5398224e-05
3.534251e-05
3.5283771e-05
3.5222165e-05
3.5157841e-05
3.5090962e-05
3.5021703e-05
3.4950181e-05
3.4876515e-05
3.4800829e-05
3.4723242e-05
3.4643866e-05
3.456281e-05
3.4480172e-05
3.4396053e-05
3.431054e-05
3.4223725e-05
3.413569e-05
3.4046519e-05
3.3956285e-05
3.3865076e-05
3.3772938e-05
3.3680019e-05
3.358623e-05
3.3492034e-05
3.3396694e-05
3.3302107e-05
3.3204796e-05
3.3112103e-05
3.301147e-05
3.2925628e-05
3.2832122e-05
3.2669082e-05
6.495204e-06
1.1438596e-06
4.374637e-07
3.9505417e-07
5.8391611e-07
9.3651991e-07
1.7971209e-06
3.1766148e-06
4.8711687e-06
6.6155332e-06
8.3675655e-06
1.0252051e-05
1.2279152e-05
1.4411214e-05
1.658943e-05
1.8760493e-05
2.0885939e-05
2.2944403e-05
2.4927794e-05
2.683265e-05
2.8654898e-05
3.0390636e-05
3.2040279e-05
3.3602332e-05
3.5078594e-05
3.6468458e-05
3.7776171e-05
3.9006876e-05
4.0163379e-05
4.1252692e-05
4.2278079e-05
4.324365e-05
4.4153126e-05
4.5011732e-05
4.5820524e-05
4.6585834e-05
4.7293816e-05
4.7964989e-05
4.8591756e-05
4.9178588e-05
4.9727531e-05
5.0240773e-05
5.0720482e-05
5.1168525e-05
5.1586825e-05
5.1977192e-05
5.2340173e-05
5.2677435e-05
5.2990224e-05
5.3279768e-05
5.3547495e-05
5.3794521e-05
5.4022056e-05
5.4231203e-05
5.442271e-05
5.4597708e-05
5.4756933e-05
5.4901009e-05
5.5030464e-05
5.5146132e-05
5.5248897e-05
5.5339456e-05
5.5418358e-05
5.5486209e-05
5.5543621e-05
5.5591102e-05
5.5629007e-05
5.5657795e-05
5.5677977e-05
5.5689979e-05
5.569418e-05
5.5690925e-05
5.5680607e-05
5.5663622e-05
5.5640257e-05
5.5610799e-05
5.5575541e-05
5.5534769e-05
5.5488753e-05
5.5437748e-05
5.5381999e-05
5.5321742e-05
5.52572e-05
5.518859e-05
5.5116118e-05
5.5039989e-05
5.4960389e-05
5.487753e-05
5.4791558e-05
5.4702772e-05
5.4611124e-05
5.4517391e-05
5.4420579e-05
5.4323613e-05
5.422152e-05
5.4125209e-05
5.4016535e-05
5.3930668e-05
5.3829293e-05
5.3657221e-05
6.124483e-05
1.773776e-05
5.0620925e-06
1.973035e-06
1.0349173e-06
6.9788455e-07
6.1321977e-07
7.0652654e-07
9.3153396e-07
1.4722558e-06
2.3970114e-06
3.5591492e-06
5.0034731e-06
6.6407298e-06
8.5189402e-06
1.0680192e-05
1.310328e-05
1.5725387e-05
1.8463285e-05
2.1235924e-05
2.3982723e-05
2.6669265e-05
2.9280739e-05
3.1808575e-05
3.4245206e-05
3.6583255e-05
3.8819681e-05
4.0955225e-05
4.2994716e-05
4.4940521e-05
4.6794119e-05
4.8558412e-05
5.0236678e-05
5.1830238e-05
5.3344198e-05
5.4785727e-05
5.6150495e-05
5.7446811e-05
5.8677672e-05
5.9843933e-05
6.0948092e-05
6.1993744e-05
6.2983819e-05
6.3920849e-05
6.4807808e-05
6.5647455e-05
6.6441422e-05
6.7190981e-05
6.7897665e-05
6.8563511e-05
6.9190832e-05
6.9781292e-05
7.0336642e-05
7.0858667e-05
7.1348852e-05
7.1809205e-05
7.2240786e-05
7.264464e-05
7.3021647e-05
7.3373302e-05
7.3701067e-05
7.4006082e-05
7.4289272e-05
7.4551717e-05
7.4794457e-05
7.5018359e-05
7.5224034e-05
7.5412317e-05
7.5584091e-05
7.5740085e-05
7.588097e-05
7.6007362e-05
7.6119967e-05
7.6219489e-05
7.6306431e-05
7.6381319e-05
7.6444682e-05
7.6497034e-05
7.6538861e-05
7.657063e-05
7.6592784e-05
7.6605754e-05
7.6609949e-05
7.6605766e-05
7.6593585e-05
7.657378e-05
7.65467e-05
7.6512723e-05
7.6472142e-05
7.6425443e-05
7.637268e-05
7.6314928e-05
7.6251088e-05
7.6184869e-05
7.6110389e-05
7.6040944e-05
7.5954724e-05
7.5896442e-05
7.5813585e-05
7.5678669e-05
0.00014937989
8.8648953e-05
4.1910772e-05
1.9513852e-05
9.6925559e-06
5.2853914e-06
3.1550758e-06
2.0521089e-06
1.4514423e-06
1.1441724e-06
1.0497063e-06
1.1149663e-06
1.3159412e-06
1.8267387e-06
2.6285772e-06
3.7264739e-06
5.1871256e-06
6.9574518e-06
9.0951571e-06
1.1620586e-05
1.4492257e-05
1.7620183e-05
2.0894974e-05
2.4217346e-05
2.751895e-05
3.0762762e-05
3.3930347e-05
3.7009269e-05
3.9990292e-05
4.2867656e-05
4.5639076e-05
4.8304502e-05
5.0864713e-05
5.3320104e-05
5.5672752e-05
5.79276e-05
6.0084775e-05
6.2148056e-05
6.4121182e-05
6.6006984e-05
6.7808678e-05
6.9528504e-05
7.1169253e-05
7.2733909e-05
7.4224713e-05
7.5643973e-05
7.6995771e-05
7.828284e-05
7.9508055e-05
8.0673824e-05
8.1782256e-05
8.2835198e-05
8.3835022e-05
8.4784005e-05
8.5684413e-05
8.6539279e-05
8.7349623e-05
8.8116965e-05
8.8843109e-05
8.953012e-05
9.0179606e-05
9.0793131e-05
9.1372012e-05
9.1917652e-05
9.2431781e-05
9.2915731e-05
9.3370373e-05
9.3797025e-05
9.4196996e-05
9.4571345e-05
9.4921081e-05
9.524714e-05
9.5550624e-05
9.5832597e-05
9.6093797e-05
9.633505e-05
9.6557177e-05
9.6760966e-05
9.6947167e-05
9.7116506e-05
9.7269673e-05
9.740734e-05
9.7530145e-05
9.7638712e-05
9.7733638e-05
9.7815506e-05
9.7884871e-05
9.7942314e-05
9.798832e-05
9.8023586e-05
9.8048321e-05
9.806389e-05
9.8069199e-05
9.8068565e-05
9.8055604e-05
9.804518e-05
9.8012992e-05
9.8011681e-05
9.7972518e-05
9.7922089e-05
0.00019549134
0.00016420458
0.00011920475
7.8664004e-05
4.9733836e-05
3.1325004e-05
1.9995236e-05
1.3026499e-05
8.6987941e-06
5.9192183e-06
4.1421097e-06
2.9699119e-06
2.2080355e-06
1.7618527e-06
1.5513463e-06
1.5335615e-06
1.6790553e-06
2.1573375e-06
2.953277e-06
4.1144813e-06
5.7325521e-06
7.7651421e-06
1.0283664e-05
1.3277878e-05
1.667189e-05
2.0341352e-05
2.4153077e-05
2.8000733e-05
3.1819982e-05
3.5578878e-05
3.9259329e-05
4.2846934e-05
4.6330899e-05
4.9705058e-05
5.2966773e-05
5.6116271e-05
5.9152878e-05
6.2077513e-05
6.4892348e-05
6.7599601e-05
7.0201794e-05
7.2701239e-05
7.5100414e-05
7.7402085e-05
7.9608802e-05
8.172298e-05
8.3748041e-05
8.5687153e-05
8.7543463e-05
8.9319874e-05
9.1018982e-05
9.2643878e-05
9.4196825e-05
9.5680111e-05
9.7096349e-05
9.8447033e-05
9.973546e-05
0.00010096423
0.00010213603
0.00010325276
0.0001043164
0.00010532895
0.00010629204
0.00010720772
0.00010807826
0.00010890524
0.00010968973
0.00011043365
0.00011113855
0.00011180603
0.0001124376
0.00011303475
0.00011359862
0.00011413047
0.00011463151
0.00011510292
0.00011554585
0.00011596139
0.00011635058
0.00011671446
0.00011705398
0.0001173701
0.00011766372
0.00011793572
0.00011818696
0.00011841825
0.0001186304
0.00011882422
0.00011900042
0.00011915994
0.00011930317
0.00011943177
0.00011954474
0.00011964687
0.00011973156
0.00011981472
0.00011987015
0.00011995793
0.00011998836
0.00012007205
0.00021134287
0.00020210167
0.0001793659
0.00014822267
0.00011618328
8.8194225e-05
6.5686445e-05
4.850195e-05
3.5665792e-05
2.6176619e-05
1.9205639e-05
1.4081997e-05
1.029866e-05
7.5194126e-06
5.5080837e-06
4.0658515e-06
3.0638757e-06
2.4352421e-06
2.0932252e-06
1.9967982e-06
2.1176209e-06
2.6411854e-06
3.5399009e-06
4.9073352e-06
6.8252585e-06
9.2877466e-06
1.2337863e-05
1.5921845e-05
1.9911976e-05
2.4149165e-05
2.8491859e-05
3.2845697e-05
3.7160476e-05
4.1408885e-05
4.557077e-05
4.9631168e-05
5.3580636e-05
5.741428e-05
6.1129647e-05
6.4725532e-05
6.8202049e-05
7.1560064e-05
7.4800846e-05
7.7926156e-05
8.0938013e-05
8.3838455e-05
8.6630157e-05
8.9316024e-05
9.1899075e-05
9.4382288e-05
9.6768445e-05
9.9060599e-05
0.00010126146
0.0001033736
0.00010539982
0.00010734225
0.0001092039
0.0001109877
0.00011269663
0.0001143332
0.0001158998
0.00011739877
0.00011883275
0.00012020365
0.00012151317
0.00012276359
0.00012395763
0.00012509701
0.0001261836
0.00012721932
0.00012820605
0.00012914562
0.00013003958
0.00013088964
0.00013169722
0.00013246388
0.0001331911
0.00013388029
0.00013453283
0.00013515004
0.0001357332
0.00013628355
0.00013680228
0.00013729057
0.00013774954
0.00013818029
0.00013858386
0.00013896135
0.0001393137
0.00013964212
0.00013994723
0.00014023097
0.00014049248
0.00014073698
0.00014095779
0.00014117157
0.00014135049
0.00014156233
0.00014168997
0.00014195988
0.00021573896
0.0002155195
0.00020826465
0.00019279683
0.00017137931
0.00014744771
0.00012387634
0.00010238693
8.3652281e-05
6.773347e-05
5.4430621e-05
4.3419637e-05
3.4362921e-05
2.6968704e-05
2.0974928e-05
1.6136101e-05
1.225528e-05
9.2192558e-06
6.8969334e-06
5.168417e-06
3.9195943e-06
3.1157798e-06
2.6620567e-06
2.5144848e-06
2.7054028e-06
3.3648645e-06
4.5174266e-06
6.2915527e-06
8.6950734e-06
1.1788655e-05
1.5539305e-05
1.9821145e-05
2.4453294e-05
2.926163e-05
3.4122571e-05
3.8967309e-05
4.3758638e-05
4.8470687e-05
5.3083866e-05
5.7585657e-05
6.1969078e-05
6.6229846e-05
7.0365279e-05
7.4374298e-05
7.8256916e-05
8.201368e-05
8.56459e-05
8.9155469e-05
9.2544668e-05
9.5815997e-05
9.8971975e-05
0.00010201535
0.00010494884
0.00010777506
0.00011049681
0.00011311651
0.00011563699
0.00011806126
0.00012039242
0.00012263331
0.00012478666
0.00012685507
0.00012884135
0.00013074793
0.00013257692
0.00013433075
0.00013601226
0.00013762373
0.00013916738
0.00014064543
0.00014206008
0.0001434135
0.00014470775
0.00014594451
0.00014712586
0.00014825362
0.00014932956
0.00015035544
0.00015133295
0.00015226372
0.00015314934
0.00015399137
0.0001547913
0.00015555059
0.00015627065
0.00015695287
0.00015759859
0.00015820915
0.00015878578
0.00015932996
0.00015984256
0.0001603258
0.00016077902
0.00016120777
0.00016160547
0.00016198935
0.00016232993
0.00016270352
0.0001629582
0.00016346901
0.00021663842
0.00021915903
0.00021874626
0.00021348886
0.00020302698
0.00018840457
0.00017120248
0.00015291271
0.00013472874
0.00011743294
0.00010144142
8.6925968e-05
7.3926825e-05
6.2404275e-05
5.2247702e-05
4.333771e-05
3.5561152e-05
2.8819813e-05
2.3038802e-05
1.8139271e-05
1.403694e-05
1.0711967e-05
8.087988e-06
6.0823987e-06
4.6389001e-06
3.7070557e-06
3.210532e-06
3.0918474e-06
3.523817e-06
4.4924793e-06
6.1319995e-06
8.5208147e-06
1.1688479e-05
1.5628098e-05
2.0212734e-05
2.5239293e-05
3.0503932e-05
3.5858256e-05
4.1217562e-05
4.6535305e-05
5.1779783e-05
5.6927547e-05
6.1963373e-05
6.6878081e-05
7.1665671e-05
7.632224e-05
8.0845838e-05
8.5235876e-05
8.9492709e-05
9.361742e-05
9.7611508e-05
0.0001014769
0.00010521576
0.00010883036
0.00011232318
0.00011569657
0.00011895311
0.00012209564
0.00012512716
0.00012805062
0.00013086888
0.0001335847
0.00013620096
0.00013872037
0.0001411454
0.0001434786
0.0001457229
0.00014788093
0.00014995521
0.00015194824
0.00015386247
0.00015570036
0.00015746428
0.00015915629
0.0001607787
0.00016233365
0.00016382323
0.00016524949
0.00016661444
0.00016792
0.00016916809
0.00017036054
0.00017149915
0.00017258568
0.00017362184
0.00017460929
0.00017554966
0.00017644459
0.00017729558
0.00017810438
0.00017887212
0.00017960132
0.00018029155
0.00018094866
0.00018156619
0.00018216193
0.00018270458
0.00018328017
0.00018369422
0.00018450324
0.00021676772
0.00021970628
0.00022160023
0.0002211442
0.00021746061
0.00021037908
0.00020033153
0.00018805279
0.00017435625
0.00015998112
0.00014550895
0.00013136155
0.00011777143
0.00010485412
9.271754e-05
8.1409792e-05
7.0934816e-05
6.1269475e-05
5.2416743e-05
4.4366991e-05
3.7069373e-05
3.0519293e-05
2.471332e-05
1.9631396e-05
1.5279411e-05
1.1679962e-05
8.8095877e-06
6.6084826e-06
5.0968028e-06
4.1663047e-06
3.7448704e-06
3.9195835e-06
4.743955e-06
6.3144511e-06
8.7453819e-06
1.2055198e-05
1.6248091e-05
2.1184222e-05
2.6633477e-05
3.2365062e-05
3.8212434e-05
4.408043e-05
4.9915384e-05
5.5680405e-05
6.1348906e-05
6.690367e-05
7.233384e-05
7.7632148e-05
8.2794019e-05
8.7816984e-05
9.2699909e-05
9.7442713e-05
0.0001020461
0.00010651123
0.00011083973
0.00011503335
0.00011909415
0.0001230245
0.00012682704
0.00013050453
0.00013405972
0.00013749533
0.00014081421
0.00014401915
0.00014711277
0.00015009774
0.00015297698
0.00015575332
0.00015842948
0.00016100815
0.00016349199
0.00016588366
0.00016818578
0.00017040073
0.00017253101
0.00017457904
0.00017654718
0.00017843775
0.00018025303
0.00018199524
0.00018366656
0.00018526912
0.000186805
0.00018827624
0.00018968482
0.00019103272
0.00019232182
0.00019355405
0.00019473118
0.00019585525
0.00019692766
0.00019795121
0.0001989257
0.00019985728
0.00020073967
0.00020159118
0.00020237851
0.00020319872
0.00020380703
0.00020497429
0.00021700086
0.00021963536
0.00022196335
0.00022326525
0.00022288363
0.00022037278
0.00021559968
0.00020870639
0.00020001626
0.00018994461
0.00017891988
0.00016733672
0.00015550982
0.00014366282
0.0001319741
0.00012058028
0.00010957454
9.9025836e-05
8.8898192e-05
7.9205936e-05
6.9973141e-05
6.1219802e-05
5.2958158e-05
4.5239274e-05
3.8072095e-05
3.1489131e-05
2.5530474e-05
2.0214416e-05
1.5652736e-05
1.1882707e-05
8.889456e-06
6.7190831e-06
5.3029108e-06
4.5510264e-06
4.4993449e-06
5.2291653e-06
6.8105771e-06
9.3667468e-06
1.2919625e-05
1.746269e-05
2.282563e-05
2.8744634e-05
3.4966666e-05
4.1316254e-05
4.7694118e-05
5.4042037e-05
6.0319496e-05
6.6498238e-05
7.2560018e-05
7.8492865e-05
8.4288696e-05
8.9942471e-05
9.5451273e-05
0.00010081358
0.00010602894
0.00011109762
0.00011602048
0.00012079892
0.00012543478
0.00012993023
0.00013428757
0.00013850924
0.00014259781
0.00014655594
0.00015038624
0.00015409133
0.00015767405
0.00016113724
0.00016448371
0.00016771625
0.00017083763
0.00017385063
0.00017675803
0.00017956243
0.00018226649
0.00018487285
0.00018738407
0.00018980271
0.00019213127
0.00019437223
0.00019652799
0.00019860095
0.00020059345
0.00020250777
0.00020434618
0.0002061109
0.00020780409
0.00020942795
0.00021098451
0.00021247609
0.00021390436
0.00021527237
0.0002165802
0.00021783425
0.00021902845
0.00022018165
0.00022125835
0.00022236799
0.000223208
0.00022479632
0.00021758586
0.00021976392
0.00022188779
0.00022357624
0.0002244592
0.00022419368
0.00022252901
0.00021934412
0.0002146458
0.00020854998
0.00020124871
0.00019297465
0.00018396543
0.00017443418
0.00016456601
0.0001545201
0.00014442688
0.00013439976
0.00012449339
0.00011474471
0.00010519134
9.5865437e-05
8.6809013e-05
7.7965207e-05
6.9347634e-05
6.0995396e-05
5.295464e-05
4.5269823e-05
3.8024729e-05
3.1294289e-05
2.5125829e-05
1.9660453e-05
1.5016916e-05
1.1236775e-05
8.4083812e-06
6.508221e-06
5.4335806e-06
5.2184689e-06
5.9220078e-06
7.6196784e-06
1.0412743e-05
1.434023e-05
1.9354893e-05
2.5234602e-05
3.1677764e-05
3.8418629e-05
4.5284252e-05
5.2177216e-05
5.9037079e-05
6.5821611e-05
7.2502486e-05
7.9061378e-05
8.5485896e-05
9.1767672e-05
9.7901349e-05
0.00010388359
0.00010971254
0.00011538753
0.00012090877
0.0001262771
0.00013149389
0.0001365608
0.00014147981
0.00014625315
0.00015088312
0.00015537211
0.00015972272
0.00016393765
0.00016801963
0.00017197139
0.00017579571
0.0001794954
0.00018307327
0.00018653207
0.00018987455
0.00019310346
0.00019622152
0.00019923146
0.00020213594
0.00020493763
0.00020763915
0.00021024309
0.00021275199
0.0002151684
0.00021749479
0.00021973362
0.0002218873
0.00022395827
0.00022594883
0.00022786153
0.00022969831
0.00023146246
0.00023315434
0.00023478056
0.00023633532
0.000237838
0.00023925072
0.00024069665
0.00024180825
0.00024388329
0.00021856668
0.00022031396
0.00022208049
0.00022364997
0.00022483278
0.00022543797
0.00022528145
0.00022420673
0.00022210393
0.00021892513
0.00021468709
0.00020946136
0.00020335781
0.0001965048
0.00018903468
0.00018107618
0.00017274809
0.00016416127
0.00015540429
0.00014654388
0.00013763509
0.00012872296
0.00011985992
0.00011105239
0.00010230512
9.3633451e-05
8.5074693e-05
7.6600686e-05
6.8192026e-05
5.9913511e-05
5.1811431e-05
4.3991968e-05
3.6577417e-05
2.9643859e-05
2.3361892e-05
1.7921139e-05
1.341213e-05
9.989931e-06
7.6611408e-06
6.3169844e-06
6.0479975e-06
6.8271275e-06
8.7832729e-06
1.1956732e-05
1.6416642e-05
2.2036507e-05
2.8523886e-05
3.5542589e-05
4.2829042e-05
5.0223963e-05
5.7636323e-05
6.5006531e-05
7.2293426e-05
7.9469809e-05
8.651753e-05
9.3424136e-05
0.00010018131
0.00010678362
0.00011322768
0.00011951164
0.00012563477
0.00013159718
0.00013739962
0.00014304335
0.00014852998
0.00015386133
0.00015903951
0.00016406681
0.0001689457
0.00017367869
0.0001782684
0.00018271752
0.00018702881
0.00019120499
0.00019524885
0.00019916315
0.00020295069
0.00020661426
0.00021015666
0.00021358066
0.00021688901
0.00022008447
0.00022316975
0.00022614756
0.00022902058
0.00023179146
0.00023446283
0.00023703733
0.00023951749
0.00024190608
0.00024420528
0.00024641863
0.00024854673
0.00025059639
0.00025256208
0.00025446376
0.00025626096
0.00025809191
0.00025951735
0.00026214761
0.00021992589
0.00022131102
0.00022272961
0.00022404468
0.00022515426
0.00022596658
0.00022638579
0.0002263072
0.00022562414
0.00022424455
0.00022210602
0.00021918199
0.00021548119
0.00021104149
0.00020592139
0.00020019228
0.00019393132
0.00018721846
0.00018013026
0.00017273466
0.00016509102
0.00015724988
0.00014926192
0.00014116339
0.00013297806
0.00012472393
0.00011642991
0.00010810373
9.9731114e-05
9.1321026e-05
8.2907437e-05
7.444391e-05
6.5946943e-05
5.7485832e-05
4.9145103e-05
4.1114999e-05
3.3492215e-05
2.6488785e-05
2.0349951e-05
1.520538e-05
1.1308391e-05
8.659307e-06
7.1514663e-06
6.9885905e-06
7.9959978e-06
1.0392838e-05
1.4156208e-05
1.9316931e-05
2.56578e-05
3.2816893e-05
4.0443083e-05
4.8293731e-05
5.6229192e-05
6.4165252e-05
7.2045038e-05
7.9830391e-05
8.7496041e-05
9.5024658e-05
0.00010240437
0.00010962718
0.00011668784
0.00012358311
0.00013031121
0.00013687146
0.00014326398
0.00014948944
0.000155549
0.00016144421
0.0001671769
0.00017274913
0.00017816316
0.00018342137
0.00018852628
0.00019348048
0.00019828661
0.00020294739
0.00020746555
0.00021184389
0.00021608521
0.00022019233
0.00022416808
0.00022801528
0.00023173677
0.00023533538
0.0002388139
0.00024217516
0.00024542195
0.00024855707
0.00025158325
0.00025450346
0.00025732008
0.00026003684
0.00026265462
0.00026518037
0.00026760886
0.00026996061
0.00027219247
0.00027445888
0.0002762426
0.00027949938
0.00022163276
0.00022272474
0.00022384714
0.00022490509
0.0002258351
0.00022659274
0.00022713881
0.00022742451
0.00022738533
0.00022694743
0.00022603929
0.00022460119
0.00022259163
0.00021998979
0.0002167948
0.00021302281
0.00020870283
0.00020387357
0.00019857991
0.00019286871
0.00018678603
0.00018037488
0.00017367743
0.00016673194
0.00015957018
0.00015221681
0.00014469712
0.00013703179
0.0001292282
0.00012128963
0.00011323576
0.0001050541
9.6729783e-05
8.8272594e-05
7.9710474e-05
7.0978913e-05
6.2154562e-05
5.3334608e-05
4.4732612e-05
3.6475636e-05
2.8842439e-05
2.2117469e-05
1.6462523e-05
1.2259319e-05
9.4393875e-06
7.958367e-06
8.0183739e-06
9.5127863e-06
1.2541846e-05
1.7130848e-05
2.3177724e-05
3.0346848e-05
3.8225837e-05
4.6481868e-05
5.4910134e-05
6.3392489e-05
7.1852843e-05
8.0239759e-05
8.8519041e-05
9.6667465e-05
0.00010466905
0.00011251295
0.00012019184
0.00012770096
0.00013503733
0.00014219929
0.00014918616
0.00015599806
0.00016263568
0.00016910019
0.00017539312
0.00018151626
0.00018747169
0.00019326163
0.00019888843
0.00020435458
0.00020966265
0.00021481529
0.00021981522
0.00022466521
0.00022936807
0.00023392662
0.00023834374
0.00024262229
0.00024676517
0.00025077527
0.0002546555
0.0002584088
0.00026203803
0.0002655463
0.0002689362
0.00027221159
0.00027537361
0.00027842929
0.00028137376
0.00028422808
0.00028694632
0.00028970021
0.00029188866
0.00029584599
0.0002236586
0.0002245156
0.0002253963
0.00022623166
0.00022697581
0.00022760284
0.0002280994
0.00022845077
0.00022863015
0.00022859695
0.00022830129
0.00022769003
0.00022671286
0.00022532724
0.00022350163
0.00022121665
0.00021846454
0.00021524809
0.00021157912
0.0002074763
0.00020296288
0.00019806442
0.00019280813
0.00018722181
0.00018133209
0.00017516255
0.00016873522
0.00016207077
0.00015518468
0.00014808588
0.00014078698
0.0001332924
0.00012559704
0.00011769619
0.00010960251
0.00010128033
9.2721541e-05
8.3959757e-05
7.4955073e-05
6.574302e-05
5.6446976e-05
4.7300633e-05
3.8452372e-05
3.0293506e-05
2.3088548e-05
1.7132445e-05
1.2773428e-05
9.9588374e-06
8.8633784e-06
9.3743418e-06
1.1608856e-05
1.5531791e-05
2.1158664e-05
2.821427e-05
3.6256238e-05
4.4865475e-05
5.3758027e-05
6.2769699e-05
7.1799992e-05
8.0781979e-05
8.967122e-05
9.8437905e-05
0.00010706151
0.00011552794
0.00012382747
0.00013195352
0.00013990171
0.00014766933
0.0001552549
0.0001626579
0.00016987853
0.00017691754
0.00018377614
0.00019045588
0.00019695857
0.00020328625
0.00020944114
0.0002154256
0.00022124213
0.0002268933
0.00023238181
0.00023771038
0.00024288182
0.00024789898
0.00025276474
0.00025748202
0.00026205377
0.00026648301
0.00027077269
0.00027492601
0.00027894569
0.00028283571
0.00028659744
0.00029023795
0.00029375273
0.00029716335
0.00030042107
0.00030371588
0.00030635734
0.00031109188
0.00022598042
0.00022664874
0.00022733433
0.00022798583
0.00022856717
0.00022905888
0.00022945609
0.00022975875
0.00022996172
0.00023005018
0.00022999934
0.00022977624
0.00022934284
0.00022865977
0.00022768977
0.00022640036
0.00022476528
0.00022276536
0.00022038872
0.00021763041
0.00021449141
0.0002109775
0.00020709826
0.00020286623
0.00019829595
0.00019340246
0.00018820086
0.00018270624
0.00017693247
0.00017089006
0.00016458895
0.00015803667
0.00015123553
0.00014418271
0.00013688155
0.00012932077
0.00012148277
0.00011337108
0.00010495899
9.6223185e-05
8.7186979e-05
7.7846269e-05
6.8193471e-05
5.8407653e-05
4.8712034e-05
3.9353173e-05
3.0754802e-05
2.3184246e-05
1.7187124e-05
1.2922315e-05
1.041771e-05
9.9235229e-06
1.1258557e-05
1.4487056e-05
1.962035e-05
2.6471148e-05
3.4598633e-05
4.3511677e-05
5.2840961e-05
6.2366037e-05
7.19569e-05
8.152913e-05
9.102661e-05
0.00010041183
0.00010965905
0.00011875047
0.0001276737
0.00013642016
0.00014498403
0.0001533615
0.00016155026
0.0001695491
0.0001773577
0.00018497639
0.00019240602
0.00019964783
0.00020670341
0.0002135746
0.00022026348
0.00022677227
0.00023310339
0.00023925934
0.00024524276
0.00025105636
0.00025670293
0.00026218533
0.00026750649
0.0002726694
0.00027767705
0.00028253269
0.00028723912
0.00029180035
0.00029621799
0.00030049906
0.00030463946
0.00030866121
0.00031251275
0.00031640316
0.00031954756
0.00032513844
0.00022858081
0.00022909668
0.00022962448
0.00023012584
0.00023057141
0.00023094422
0.00023124075
0.00023146479
0.00023162007
0.00023170572
0.00023171434
0.00023163133
0.00023143548
0.00023110056
0.00023059737
0.00022989598
0.00022896739
0.00022778507
0.00022632614
0.00022457197
0.00022250846
0.00022012585
0.00021741844
0.0002143842
0.00021102423
0.00020734207
0.00020334297
0.00019903347
0.00019442091
0.00018951207
0.00018431332
0.00017883023
0.00017306636
0.00016702154
0.00016069593
0.00015408552
0.00014717879
0.00013996862
0.00013244029
0.00012456947
0.00011634606
0.00010775405
9.8751587e-05
8.9371865e-05
7.9602593e-05
6.9456987e-05
5.9149794e-05
4.8888722e-05
3.9100752e-05
3.0173231e-05
2.2513385e-05
1.6711653e-05
1.2802545e-05
1.1132184e-05
1.1488167e-05
1.4004634e-05
1.8584625e-05
2.5153776e-05
3.3296876e-05
4.2467861e-05
5.2210475e-05
6.2238256e-05
7.2385011e-05
8.2546088e-05
9.2652447e-05
0.00010265812
0.00011253167
0.00012225133
0.00013180191
0.00014117281
0.00015035669
0.0001593486
0.00016814533
0.00017674499
0.00018514669
0.0001933503
0.00020135629
0.00020916563
0.00021677964
0.00022419999
0.00023142856
0.0002384675
0.00024531909
0.00025198578
0.00025847016
0.00026477492
0.00027090286
0.00027685689
0.00028263994
0.00028825522
0.00029370557
0.00029899499
0.00030412525
0.00030910328
0.00031392539
0.00031861399
0.00032311474
0.00032765654
0.00033135527
0.00033788395
0.00023144684
0.00023183857
0.00023223798
0.00023261647
0.00023295004
0.00023322324
0.00023343183
0.00023357912
0.00023367075
0.00023371126
0.00023370211
0.00023364028
0.00023351766
0.00023332112
0.00023303322
0.00023263331
0.00023209855
0.00023140518
0.00023052969
0.00022944978
0.00022814509
0.00022659768
0.00022479234
0.00022271671
0.00022036129
0.00021771921
0.00021478594
0.00021155897
0.00020803749
0.00020422173
0.00020011255
0.00019571106
0.00019101811
0.00018603302
0.00018075429
0.0001751789
0.00016929964
0.00016310818
0.00015659344
0.00014973751
0.00014252268
0.00013493164
0.00012693036
0.00011850528
0.00010963346
0.00010026817
9.0465668e-05
8.0159695e-05
6.9457307e-05
5.8568447e-05
4.7806668e-05
3.7703856e-05
2.8587399e-05
2.1245265e-05
1.5913774e-05
1.2831217e-05
1.2219989e-05
1.3958181e-05
1.7975162e-05
2.4241674e-05
3.236888e-05
4.1771933e-05
5.1913973e-05
6.2439155e-05
7.3140839e-05
8.3892038e-05
9.4609811e-05
0.0001052392
0.00011574288
0.00012609497
0.00013627741
0.00014627749
0.00015608631
0.00016569774
0.00017510763
0.00018431339
0.00019331352
0.00020210745
0.00021069527
0.00021907763
0.00022725564
0.00023523074
0.00024300469
0.00025057947
0.00025795731
0.00026514059
0.00027213186
0.00027893383
0.00028554931
0.00029198136
0.0002982328
0.00030430751
0.0003102074
0.00031593924
0.00032149976
0.00032691168
0.0003321179
0.00033736782
0.00034167349
0.00034922355
0.00023456893
0.00023485879
0.00023515295
0.00023543025
0.00023567113
0.0002358616
0.00023599654
0.00023607765
0.00023610972
0.00023609824
0.00023604785
0.00023596107
0.00023583737
0.00023567273
0.00023545947
0.00023518648
0.00023483963
0.00023440228
0.00023385612
0.00023318184
0.00023235987
0.00023137098
0.00023019682
0.00022882036
0.00022722623
0.00022540085
0.00022333256
0.00022101156
0.00021842981
0.00021558082
0.00021245935
0.00020906112
0.00020538245
0.00020141964
0.0001971687
0.00019262508
0.00018778248
0.0001826329
0.00017716662
0.00017137012
0.00016522686
0.00015871952
0.00015182236
0.00014451085
0.0001367607
0.00012852758
0.0001198053
0.00011054267
0.000100709
9.0376391e-05
7.9433868e-05
6.8121127e-05
5.6614078e-05
4.549734e-05
3.5183154e-05
2.6311741e-05
1.9540489e-05
1.5097998e-05
1.3460686e-05
1.4358207e-05
1.7796931e-05
2.3744323e-05
3.1837423e-05
4.1458443e-05
5.1993787e-05
6.3016107e-05
7.4275193e-05
8.5620265e-05
9.6953964e-05
0.00010821205
0.00011935108
0.000130341
0.00014116079
0.0001517956
0.00016223497
0.00017247152
0.00018250021
0.00019231767
0.00020192187
0.00021131173
0.00022048701
0.00022944805
0.0002381957
0.00024673124
0.00025505625
0.00026317264
0.00027108254
0.00027878833
0.00028629253
0.00029359798
0.00030070736
0.00030762436
0.00031435098
0.00032089369
0.00032724971