/*--------------------------------*- C++ -*----------------------------------*\
| =========                 |                                                 |
| \\      /  F ield         | OpenFOAM: The Open Source CFD Toolbox           |
|  \\    /   O peration     | Version:  2206                                  |
|   \\  /    A nd           | Website:  www.openfoam.com                      |
|    \\/     M anipulation  |                                                 |
\*---------------------------------------------------------------------------*/
FoamFile
{
    version     2.0;
    format      ascii;
    arch        "LSB;label=32;scalar=64";
    class       volScalarField;
    location    "1300";
    object      p;
}
// * * * * * * * * * * * * * * * * * * * * * * * * * * * * * * * * * * * * * //

dimensions      [0 2 -2 0 0 0 0];

internalField   nonuniform List<scalar> 
7480
(
0.062863678
0.051953894
0.036552
0.027189493
0.021902432
0.018726259
0.01672184
0.015188899
0.013844701
0.012724342
0.01183547
0.011137006
0.010607687
0.010221054
0.0099461124
0.0097604385
0.0096436823
0.0095814419
0.0095547784
0.0095505664
0.0095706884
0.0095926952
0.009608168
0.0096194887
0.0096246409
0.0096223958
0.0096135478
0.0095982813
0.0095751703
0.0095447709
0.0095083319
0.0094663232
0.0094192224
0.009367809
0.0093120824
0.0092521896
0.0091883472
0.0091204758
0.0090489448
0.0089741772
0.0088962411
0.0088150383
0.0087311084
0.0086445349
0.0085553053
0.0084638056
0.0083698502
0.0082735604
0.0081751364
0.0080743353
0.0079714928
0.0078665781
0.007759611
0.0076507554
0.0075397808
0.0074269146
0.0073120676
0.007195245
0.0070764392
0.0069555972
0.006832837
0.0067080183
0.0065812459
0.0064524131
0.0063215453
0.0061885958
0.0060535286
0.0059163134
0.0057769173
0.0056353349
0.0054915131
0.0053454484
0.0051970874
0.0050464395
0.0048934452
0.0047381141
0.0045803955
0.0044203192
0.0042578469
0.0040930289
0.0039258492
0.0037563849
0.0035846747
0.0034108098
0.0032349405
0.0030571894
0.002877881
0.002697209
0.0025158609
0.0023339793
0.0021534431
0.0019731533
0.0018001392
0.0016249059
0.0014784857
0.0013074558
0.0012481464
0.0010433205
0.0018294413
-0.0018134665
0.059173568
0.050948013
0.038615388
0.029331911
0.023023493
0.019224837
0.016966856
0.015341234
0.013960068
0.012824057
0.01192427
0.011216129
0.010678566
0.010284107
0.010001597
0.0098090626
0.0096864338
0.0096188985
0.0095903317
0.009587582
0.0096005121
0.009615589
0.0096287323
0.0096380436
0.0096413889
0.0096375944
0.0096274007
0.00961093
0.0095867508
0.0095554242
0.009518173
0.009475434
0.0094276767
0.0093756708
0.0093194052
0.0092590251
0.0091947438
0.0091264749
0.0090545796
0.0089794788
0.0089012355
0.0088197495
0.0087355589
0.0086487426
0.0085592874
0.0084675778
0.0083734261
0.0082769539
0.0081783593
0.0080773983
0.007974406
0.0078693501
0.0077622502
0.0076532691
0.007542176
0.0074291981
0.0073142452
0.0071973227
0.0070784222
0.0069574906
0.0068346451
0.0067097454
0.006582896
0.0064539899
0.0063230524
0.0061900366
0.0060549064
0.0059176311
0.0057781778
0.0056365409
0.0054926671
0.0053465527
0.0051981445
0.0050474513
0.0048944139
0.0047390417
0.0045812839
0.0044211702
0.0042586621
0.00409381
0.0039265976
0.0037571023
0.0035853624
0.0034114693
0.003235573
0.0030577963
0.0028784635
0.0026977684
0.0025163984
0.0023344962
0.0021539411
0.0019736334
0.0018006041
0.001625356
0.0014789274
0.0013078894
0.001248585
0.0010438416
0.0018298557
-0.0018129051
0.055406498
0.048636457
0.037850132
0.029098403
0.02328411
0.019735808
0.017465062
0.015744409
0.014279094
0.013092435
0.012155861
0.011416891
0.01085536
0.010440681
0.010140727
0.0099336367
0.0097981697
0.0097190877
0.009681022
0.009669462
0.0096711741
0.0096784425
0.0096853139
0.0096888762
0.0096871887
0.0096791138
0.0096652055
0.0096453395
0.0096181174
0.0095841474
0.0095445941
0.009499788
0.0094501753
0.0093964936
0.0093387086
0.0092769366
0.0092114008
0.0091420145
0.0090690838
0.008993039
0.00891393
0.0088316493
0.0087467324
0.0086592448
0.0085691695
0.0084768862
0.0083821997
0.0082852335
0.0081861801
0.0080847911
0.0079814015
0.0078759739
0.0077685267
0.0076592203
0.0075478212
0.0074345569
0.0073193342
0.0072021579
0.0070830186
0.0069618621
0.0068388046
0.0067137043
0.0065866655
0.0064575802
0.0063264732
0.0061932968
0.0060580145
0.0059205952
0.0057810053
0.0056392386
0.0054952417
0.0053490104
0.005200491
0.0050496922
0.0048965544
0.0047410867
0.0045832382
0.0044230381
0.0042604478
0.0040955175
0.0039282308
0.0037586647
0.0035868575
0.0034129003
0.0032369432
0.0030591087
0.0028797212
0.0026989743
0.0025175556
0.0023356074
0.0021550103
0.0019746622
0.0018016003
0.0016263174
0.0014798743
0.0013088094
0.0012495343
0.0010447962
0.0018309379
-0.0018121721
0.052502923
0.046920011
0.037596698
0.029410685
0.023858693
0.020288571
0.017924681
0.016153204
0.014655458
0.013439031
0.012468723
0.011694609
0.011104055
0.010663744
0.010340463
0.010112563
0.00995788
0.009861622
0.0098083704
0.0097834175
0.0097738427
0.0097714767
0.0097697261
0.0097656343
0.0097570574
0.0097428937
0.0097236087
0.0096988247
0.0096671659
0.0096293095
0.0095863094
0.0095383673
0.0094859245
0.0094296804
0.0093695619
0.0093055812
0.0092380455
0.0091668926
0.0090922901
0.0090147264
0.0089342232
0.0088506591
0.0087645683
0.0086759949
0.008584917
0.0084917048
0.0083961498
0.0082983814
0.008198583
0.0080964987
0.0079924647
0.0078864349
0.0077784261
0.0076685941
0.0075567012
0.0074429757
0.0073273188
0.0072097339
0.0070902105
0.0069686933
0.0068452965
0.0067198758
0.0065925349
0.0064631644
0.0063317882
0.0061983569
0.0060628335
0.0059251861
0.0057853803
0.0056434091
0.005499218
0.0053528027
0.0052041087
0.0050531443
0.004899849
0.0047442319
0.0045862414
0.0044259064
0.004263188
0.0040981358
0.0039307333
0.0037610571
0.0035891453
0.0034150887
0.0032390372
0.0030611131
0.0028816408
0.0027008136
0.0025193193
0.0023372997
0.0021566371
0.0019762264
0.0018031128
0.0016277758
0.0014813058
0.0013101987
0.0012509584
0.0010461698
0.0018326059
-0.0018111875
0.049779088
0.045091865
0.037133545
0.029764654
0.024496629
0.020872613
0.018385872
0.016519031
0.014950079
0.013716525
0.012742849
0.01196122
0.011354505
0.010891922
0.010548873
0.010303084
0.010132
0.010020839
0.0099520864
0.0099123109
0.0098899034
0.0098759916
0.0098649338
0.0098532236
0.0098378516
0.0098175277
0.0097927171
0.0097628758
0.0097265691
0.0096845417
0.0096377178
0.0095862082
0.009530477
0.0094712226
0.0094083453
0.0093417295
0.0092717883
0.0091984783
0.0091218278
0.0090423877
0.0089601515
0.0088749834
0.0087874196
0.0086974775
0.0086051312
0.0085107417
0.00841408
0.008315283
0.0082145262
0.0081115458
0.0080066808
0.0078998727
0.0077911375
0.007680626
0.0075680951
0.0074537738
0.0073375549
0.0072194409
0.0070994197
0.0069774358
0.0068536006
0.0067277657
0.0066000347
0.0064702961
0.0063385725
0.0062048125
0.0060689779
0.0059310366
0.0057909528
0.0056487183
0.0055042775
0.0053576255
0.0052087073
0.0050575303
0.0049040331
0.0047482244
0.0045900519
0.0044295442
0.0042666617
0.0041014536
0.003933903
0.0037640861
0.0035920406
0.0034178571
0.003241685
0.0030636465
0.0028840658
0.0027031359
0.002521545
0.002339434
0.002158687
0.0019781962
0.0018050139
0.0016296081
0.0014830958
0.0013119348
0.001252719
0.0010478693
0.001834679
-0.0018099617
0.047250867
0.043175367
0.036443704
0.029898005
0.024922675
0.021361069
0.018834626
0.016912879
0.015307466
0.014034013
0.013020666
0.012198773
0.011565639
0.011084474
0.010732291
0.010474783
0.010286705
0.010164751
0.010086782
0.010038643
0.010008672
0.0099860615
0.0099660656
0.009945704
0.0099223313
0.0098952185
0.009864986
0.0098305384
0.0097900173
0.0097441949
0.0096938298
0.0096389102
0.0095799354
0.0095176448
0.0094519222
0.0093826004
0.0093101597
0.0092345366
0.0091556972
0.00907423
0.0089901
0.0089031566
0.0088139502
0.0087224671
0.0086286779
0.0085329465
0.0084350217
0.0083350467
0.0082331895
0.0081291742
0.0080233448
0.0079156295
0.0078060456
0.0076947394
0.0075814622
0.0074664432
0.0073495639
0.0072308277
0.0071102219
0.0069876889
0.0068633374
0.0067370139
0.0066088225
0.0064786495
0.0063465165
0.0062123686
0.006076167
0.005937879
0.0057974673
0.0056549222
0.005510187
0.0053632561
0.0052140738
0.0050626464
0.0049089115
0.0047528772
0.0045944906
0.0044337797
0.0042707042
0.004105313
0.0039375882
0.0037676061
0.0035954035
0.0034210709
0.0032447572
0.0030665844
0.0028868764
0.0027058258
0.0025241212
0.0023419027
0.0021610556
0.0019804702
0.0018072044
0.0016317174
0.0014851468
0.0013139216
0.0012547123
0.0010498011
0.0018370232
-0.001808536
0.045041555
0.041369848
0.035615189
0.029830815
0.025202346
0.021761363
0.019230479
0.017277251
0.01566119
0.014362265
0.013319633
0.012469866
0.011805876
0.011294089
0.010913085
0.010628381
0.010417687
0.010282776
0.010196441
0.010140195
0.010103307
0.010077141
0.0100554
0.010033264
0.010006915
0.0099751446
0.0099394028
0.0098994416
0.0098538741
0.0098040715
0.0097505003
0.0096926578
0.0096309272
0.0095660335
0.0094977757
0.0094259797
0.0093512089
0.0092733585
0.0091923726
0.0091088997
0.009022865
0.008934105
0.0088432011
0.0087501056
0.0086547881
0.0085576268
0.0084583501
0.0083571121
0.0082540701
0.0081489312
0.0080420496
0.0079333399
0.0078228206
0.0077106352
0.0075965266
0.0074807275
0.0073631106
0.0072436804
0.0071224215
0.0069992727
0.0068743402
0.0067474659
0.0066187549
0.0064880914
0.0063554956
0.0062209087
0.0060842914
0.0059456107
0.0058048273
0.0056619301
0.0055168613
0.0053696143
0.0052201323
0.0050684207
0.0049144158
0.0047581255
0.0045994959
0.0044385544
0.0042752598
0.0041096605
0.0039417382
0.0037715684
0.0035991875
0.0034246855
0.0032482111
0.0030698857
0.002890033
0.0027088453
0.002527011
0.00234467
0.0021637083
0.0019830148
0.0018096509
0.0016340712
0.0014874253
0.0013161254
0.0012569008
0.0010519232
0.0018395819
-0.001806916
0.043119519
0.039798311
0.034792274
0.029649025
0.02536688
0.022070907
0.019568378
0.017606807
0.015986395
0.014668924
0.013605519
0.012738416
0.012052503
0.01151543
0.011111041
0.010802093
0.010566695
0.010410428
0.010303154
0.010228455
0.010177837
0.010144292
0.010119332
0.010094902
0.010068548
0.010038468
0.01000406
0.0099645386
0.0099174152
0.0098644668
0.0098071523
0.0097456496
0.0096808826
0.0096136156
0.0095432592
0.0094694488
0.0093927881
0.0093130722
0.0092302181
0.0091449573
0.0090571754
0.0089667088
0.0088741861
0.0087795256
0.0086827057
0.0085841226
0.0084834816
0.0083809588
0.0082767016
0.0081703999
0.0080624249
0.007952675
0.0078411705
0.0077280534
0.0076130561
0.0074964193
0.00737801
0.007257833
0.0071358685
0.0070120519
0.0068864876
0.0067590132
0.0066297352
0.0064985341
0.0063654296
0.0062303603
0.0060932861
0.0059541727
0.0058129792
0.0056696934
0.0055242561
0.0053766596
0.0052268457
0.005074819
0.004920515
0.0047639407
0.0046050413
0.0044438437
0.0042803058
0.0041144754
0.0039463334
0.003775955
0.0036033758
0.0034286854
0.003252032
0.0030735365
0.0028935225
0.0027121818
0.0025302027
0.0023477246
0.0021666339
0.0019858191
0.0018123429
0.0016366587
0.0014899198
0.0013185344
0.0012592705
0.0010542171
0.0018423238
-0.0018050854
0.041403823
0.038426384
0.03405134
0.029447847
0.025473211
0.022318945
0.019860731
0.017904873
0.016286461
0.014959569
0.013881363
0.012999064
0.012293021
0.011735317
0.011307832
0.010978033
0.010724286
0.010547753
0.010421362
0.01032995
0.010264566
0.010216932
0.010179533
0.010144594
0.010111624
0.010080053
0.010045812
0.010006917
0.0099627947
0.0099130055
0.009857917
0.0097967198
0.0097303458
0.0096605114
0.0095874598
0.0095113162
0.0094329031
0.0093516953
0.0092673929
0.0091807598
0.0090915883
0.0089997065
0.0089058025
0.0088097584
0.0087115757
0.0086116781
0.0085097471
0.0084059934
0.0083005576
0.0081931128
0.008084054
0.0079732621
0.0078607635
0.0077466996
0.007630792
0.0075132929
0.0073940613
0.0072731049
0.0071504009
0.0070258815
0.0068996503
0.0067715403
0.0066416601
0.0065098852
0.0063762355
0.0062406491
0.0061030847
0.0059635057
0.00582187
0.0056781642
0.0055323281
0.0053843528
0.0052341789
0.0050818098
0.0049271803
0.0047702969
0.0046111037
0.0044496267
0.0042858232
0.0041197403
0.0039513581
0.0037807514
0.0036079551
0.0034330583
0.0032562087
0.0030775267
0.0028973355
0.0027158266
0.002533688
0.0023510589
0.0021698252
0.0019888761
0.0018152731
0.0016394731
0.0014926227
0.0013211405
0.0012618111
0.0010566701
0.0018452213
-0.0018030213
0.039847699
0.037186837
0.033365798
0.029244851
0.025554506
0.022537244
0.020129141
0.018184828
0.01657072
0.015238344
0.014148102
0.013252244
0.012528771
0.011952378
0.011503494
0.01115421
0.010882756
0.010686417
0.010542449
0.010436343
0.010357232
0.010296603
0.010248438
0.01020416
0.010162675
0.010123283
0.010081676
0.010036872
0.0099910268
0.0099420688
0.0098885427
0.009830456
0.0097677371
0.0097006921
0.0096288729
0.0095520775
0.0094719444
0.009388786
0.0093027537
0.0092148515
0.0091246103
0.0090316896
0.0089367832
0.0088396868
0.0087404181
0.0086394336
0.0085363901
0.0084315484
0.0083250469
0.0082165449
0.0081064705
0.0079946869
0.0078812316
0.0077662471
0.0076494445
0.0075310907
0.0074110359
0.0072892934
0.0071658383
0.0070406013
0.0069136857
0.0067849195
0.0066544151
0.0065220434
0.0063878246
0.0062516961
0.0061136161
0.0059735462
0.0058314429
0.005687292
0.0055410322
0.0053926537
0.0052420957
0.0050893609
0.0049343833
0.0047771686
0.0046176599
0.0044558829
0.0042917935
0.0041254387
0.0039567976
0.0037859445
0.0036129137
0.0034377936
0.0032607316
0.0030818475
0.0029014642
0.0027197726
0.0025374603
0.0023546666
0.0021732764
0.0019921805
0.0018184361
0.0016425089
0.001495528
0.0013239375
0.0012645143
0.0010592717
0.0018482481
-0.0018006965
0.038426627
0.036045294
0.032704338
0.029021831
0.025606792
0.022730678
0.020381056
0.018454725
0.016846912
0.015510814
0.014409874
0.013501278
0.012761745
0.012167557
0.011698849
0.01133058
0.011041665
0.010826613
0.010665854
0.010544337
0.010451398
0.010378672
0.010320199
0.010267519
0.010218454
0.010172009
0.010124082
0.010074061
0.010023237
0.0099692761
0.0099111119
0.0098509514
0.0097890089
0.0097238442
0.009654814
0.0095816345
0.0095044401
0.0094229093
0.00933675
0.0092476697
0.0091559944
0.0090618222
0.0089660196
0.0088681555
0.0087681382
0.0086664025
0.0085625402
0.0084568607
0.0083494996
0.008240105
0.008129151
0.0080164844
0.0079021614
0.0077863283
0.0076686861
0.0075495216
0.0074286758
0.0073061697
0.007181978
0.0070560315
0.0069284341
0.0067990093
0.0066678747
0.0065348971
0.0064000981
0.0062634136
0.0061248025
0.005984225
0.0058416366
0.0056970225
0.0055503201
0.0054015196
0.0052505584
0.005097439
0.0049420942
0.0047845295
0.004624687
0.0044625917
0.0042981989
0.0041315549
0.0039626379
0.0037915221
0.0036182407
0.0034428819
0.0032655925
0.0030864917
0.002905902
0.0027240139
0.0025415145
0.0023585433
0.0021769833
0.0019957282
0.0018218282
0.0016457625
0.0014986313
0.0013269208
0.0012673739
0.0010620135
0.0018513787
-0.0017980792
0.03712363
0.034986703
0.032056572
0.028768546
0.025620431
0.022892373
0.020612378
0.018713106
0.017115858
0.01577881
0.014669026
0.013748548
0.01299379
0.012382393
0.011894683
0.011507761
0.011201547
0.010968435
0.01079095
0.01065415
0.01054771
0.010462991
0.01039375
0.010332282
0.010275617
0.01022247
0.010169173
0.010114572
0.010059206
0.01000101
0.0099393418
0.0098758551
0.0098104239
0.0097416853
0.0096705137
0.0095979499
0.0095226178
0.0094436789
0.0093609788
0.0092747496
0.0091846826
0.0090905576
0.0089938915
0.0088949582
0.0087940643
0.0086917051
0.008587284
0.0084810714
0.0083731433
0.0082631108
0.0081514963
0.0080381266
0.0079230851
0.0078065275
0.0076881468
0.0075682562
0.0074466877
0.0073234736
0.0071985893
0.0070719671
0.0069437138
0.0068136485
0.006681896
0.0065483197
0.0064129433
0.0062757021
0.0061365558
0.0059954643
0.0058523822
0.0057072946
0.0055601382
0.0054109029
0.0052595252
0.005106007
0.0049502806
0.0047923512
0.0046321599
0.0044697314
0.00430502
0.0041380719
0.0039688644
0.0037974713
0.0036239251
0.0034483137
0.0032707831
0.0030914521
0.0029106429
0.0027285455
0.0025458463
0.002362685
0.0021809425
0.0019995163
0.0018254465
0.0016492312
0.0015019294
0.0013300869
0.0012703845
0.0010648881
0.0018545876
-0.0017951326
0.035924936
0.034001829
0.031421883
0.028485198
0.025592272
0.023017123
0.020817361
0.018955082
0.017374435
0.016040585
0.014924808
0.013993995
0.013225183
0.01259738
0.012091445
0.0116863
0.011362917
0.011112114
0.010917989
0.010766067
0.01064606
0.010549298
0.010469299
0.010398838
0.010334378
0.010274382
0.010215449
0.010155993
0.010096247
0.010034464
0.0099698666
0.0099035049
0.0098351343
0.009763747
0.009690185
0.0096150655
0.0095369512
0.009456191
0.0093741159
0.0092896868
0.0092021071
0.0091112088
0.0090171586
0.0089195545
0.0088186627
0.0087156126
0.00861039
0.0085036031
0.0083952621
0.0082848312
0.008172825
0.0080590033
0.0079434643
0.00782637
0.007707406
0.0075869208
0.0074647387
0.0073409084
0.0072154077
0.007088173
0.0069593159
0.0068286515
0.0066963144
0.006562165
0.0064262308
0.0062884467
0.0061487743
0.006007174
0.0058636002
0.0057180382
0.0055704243
0.005420749
0.0052689477
0.0051150226
0.0049589052
0.0048006008
0.0046400497
0.0044772767
0.0043122351
0.0041449708
0.0039754605
0.0038037779
0.0036299546
0.0034540782
0.0032762942
0.003096721
0.0029156802
0.0027333615
0.0025504506
0.0023670877
0.0021851505
0.0020035417
0.0018292879
0.0016529123
0.001505419
0.0013334325
0.001273541
0.0010678883
0.0018578474
-0.0017918147
0.034818869
0.033083356
0.030802022
0.028176282
0.025524094
0.023103623
0.020992591
0.019176567
0.01761913
0.016293364
0.015175185
0.01423629
0.013455092
0.012812059
0.012288889
0.011866132
0.011525829
0.011257723
0.011047146
0.010880179
0.010746556
0.010637667
0.010546862
0.010467228
0.010394883
0.010327923
0.010263078
0.01019858
0.010134379
0.010068858
0.010001108
0.0099318607
0.0098609526
0.0097875078
0.0097119946
0.0096347324
0.0095545909
0.0094720644
0.0093880264
0.0093013727
0.0092124567
0.0091222925
0.0090299938
0.0089348466
0.0088368963
0.0087361051
0.008631809
0.0085248953
0.0084159902
0.0083049908
0.0081926191
0.0080785159
0.0079627086
0.0078453132
0.0077259794
0.0076050876
0.0074824503
0.0073581376
0.0072321334
0.0071043815
0.0069750013
0.006843805
0.0067109401
0.0065762643
0.0064398106
0.0063015144
0.0061613403
0.0060192498
0.0058751981
0.0057291712
0.0055811061
0.0054309937
0.0052787695
0.0051244359
0.0049679241
0.0048092398
0.0046483229
0.004485198
0.0043198181
0.004152229
0.0039824067
0.0038104248
0.0036363144
0.0034601627
0.003282115
0.003102289
0.002921006
0.0027384554
0.0025553219
0.0023717466
0.0021896031
0.0020078008
0.0018333492
0.0016568029
0.0015090967
0.0013369541
0.0012768381
0.0010710067
0.0018611286
-0.001788078
0.033795363
0.032224976
0.030198885
0.027847354
0.02541991
0.023153071
0.021136819
0.019374959
0.017847173
0.016534602
0.015418021
0.014473812
0.013682309
0.013025574
0.012486392
0.012046832
0.011690035
0.011405094
0.011178339
0.01099645
0.010849244
0.010728189
0.010626516
0.010537555
0.010457169
0.0103831
0.010312195
0.010242532
0.010173743
0.010104305
0.010033241
0.0099610251
0.009887495
0.0098118356
0.0097343124
0.0096551902
0.0095735503
0.0094896483
0.0094040225
0.0093158238
0.0092255396
0.0091337423
0.0090396073
0.0089437558
0.0088466999
0.0087476225
0.0086457867
0.008541439
0.008434273
0.0083238174
0.0082112035
0.0080966449
0.0079805
0.0078628929
0.0077433651
0.0076222776
0.0074993888
0.0073747762
0.007248425
0.0071202889
0.0069904992
0.0068588668
0.0067255563
0.0065904239
0.00645351
0.0063147515
0.0061741169
0.0060315702
0.005887068
0.0057405983
0.0055920989
0.0054415624
0.0052889244
0.0051341885
0.0049772857
0.0048182229
0.0046569393
0.0044934604
0.0043277384
0.0041598196
0.0039896793
0.0038173916
0.0036429867
0.0034665521
0.0032882322
0.0031081447
0.0029266105
0.0027438188
0.002560453
0.0023766555
0.002194295
0.0020122893
0.0018376264
0.0016608993
0.0015129584
0.0013406478
0.00128027
0.0010742352
0.0018643986
-0.0017838686
0.032845667
0.031421082
0.029613929
0.02750378
0.025284469
0.023167998
0.02125031
0.019548965
0.018056689
0.016762292
0.01565143
0.014704973
0.013905543
0.01323692
0.012683167
0.012227817
0.01185514
0.01155393
0.011311363
0.011114751
0.010954054
0.010820837
0.010708263
0.010609861
0.010521294
0.010439996
0.010362891
0.010287915
0.010214409
0.010140918
0.010066412
0.0099911313
0.0099148738
0.0098368696
0.0097572528
0.0096762177
0.009592962
0.0095076196
0.0094206423
0.0093313527
0.009240025
0.0091469967
0.0090516878
0.0089547402
0.008856197
0.0087555921
0.0086537487
0.0085504685
0.0084449801
0.008337013
0.0082265543
0.0081131178
0.0079971564
0.0078792774
0.0077594258
0.0076381528
0.0075151401
0.0073904072
0.007263896
0.0071355485
0.0070055013
0.0068735626
0.0067399181
0.0066044243
0.0064671323
0.0063279817
0.0061869469
0.006043995
0.0058990852
0.0057522085
0.0056033042
0.0054523676
0.005299335
0.0051442117
0.0049869295
0.0048274963
0.0046658518
0.004502022
0.0043359593
0.0041677104
0.0039972504
0.0038246537
0.0036499503
0.0034732274
0.0032946297
0.0031142742
0.0029324818
0.0027494412
0.002565835
0.0023818068
0.0021992198
0.0020170013
0.0018421142
0.0016651971
0.0015169991
0.0013445087
0.0012838298
0.0010775648
0.0018676207
-0.0017791261
0.03196214
0.030666649
0.029048061
0.027150281
0.025122526
0.023151512
0.021334256
0.019698266
0.018246595
0.016975008
0.015873899
0.014928378
0.014123572
0.013445078
0.012878372
0.012408426
0.012020656
0.011703852
0.01144594
0.011234886
0.011060852
0.010915526
0.010792054
0.010684129
0.01058727
0.01049864
0.010415203
0.010334775
0.010256443
0.010178783
0.010100716
0.010022266
0.0099431807
0.0098627301
0.0097809298
0.0096979039
0.0096129405
0.0095260864
0.0094377142
0.0093472351
0.0092548285
0.0091608052
0.0090646922
0.0089668794
0.0088673367
0.0087658074
0.008663032
0.0085583488
0.0084518308
0.00834433
0.0082351888
0.0081236396
0.0080098751
0.0078935776
0.0077743173
0.0076529701
0.0075297081
0.0074048106
0.007278216
0.0071498014
0.0070196642
0.0068875803
0.0067537473
0.0066180175
0.0064804557
0.0063410062
0.0061996516
0.0060563639
0.0059111063
0.0057638735
0.0056146077
0.0054633076
0.0053099108
0.0051544254
0.0049967842
0.0048369972
0.0046750046
0.0045108338
0.0043444374
0.0041758632
0.0040050861
0.0038321816
0.003657179
0.0034801663
0.0033012878
0.0031206604
0.0029386048
0.0027553098
0.0025714567
0.0023871909
0.0022043688
0.0020219295
0.001846806
0.0016696902
0.0015212125
0.0013485309
0.0012875095
0.0010809847
0.0018707538
-0.0017737826
0.031138094
0.029957171
0.028501707
0.026790832
0.024938512
0.023106867
0.021390339
0.019823181
0.0184164
0.017171821
0.016084294
0.015142886
0.014335326
0.0136491
0.013071186
0.012587979
0.012186056
0.011854434
0.011581743
0.01135661
0.011169457
0.011012131
0.010877802
0.01076031
0.010655071
0.010559024
0.010469139
0.010383136
0.010299875
0.010217937
0.010136192
0.010054477
0.0099724794
0.0098894949
0.0098054332
0.0097203459
0.009633596
0.0095451535
0.0094553158
0.0093635719
0.0092700354
0.0091749753
0.0090779645
0.0089793083
0.0088790267
0.0087768785
0.0086733232
0.0085678237
0.0084605744
0.0083521091
0.0082417606
0.0081300024
0.0080169868
0.0079020252
0.0077848457
0.0076653007
0.007542964
0.0074182356
0.0072914876
0.0071629274
0.0070327316
0.0069006139
0.0067667404
0.0066309241
0.0064932295
0.0063536008
0.0062120301
0.0060684963
0.0059229686
0.0057754475
0.0056258786
0.0054742653
0.0053205474
0.0051647365
0.0050067669
0.0048466518
0.0046843322
0.0045198377
0.0043531214
0.0041842327
0.0040131467
0.00383994
0.0036646421
0.0034873415
0.0033081825
0.0031272822
0.0029449613
0.0027614088
0.0025773043
0.0023927957
0.0022097317
0.0020270647
0.0018516935
0.0016743713
0.001525591
0.0013527072
0.0012912998
0.0010844826
0.0018737514
-0.0017677617
0.030367651
0.029288624
0.027974908
0.026428701
0.024736432
0.023037251
0.02142047
0.019924426
0.018566024
0.01735217
0.016281785
0.015347583
0.014539899
0.013848141
0.013260847
0.01276582
0.012350805
0.012005234
0.011718418
0.011479648
0.011279661
0.011110496
0.010965393
0.010838326
0.010724651
0.010621116
0.010524687
0.010432998
0.010344713
0.010258392
0.010172864
0.010087793
0.010002801
0.0099171991
0.0098308031
0.0097435932
0.0096549905
0.0095648987
0.0094735408
0.0093804708
0.0092857411
0.0091895773
0.0090916068
0.0089920758
0.0088910065
0.0087881537
0.0086839114
0.0085778673
0.0084700932
0.0083609427
0.0082499254
0.0081375438
0.0080234679
0.0079076946
0.0077908813
0.0076724428
0.0075517574
0.0074288335
0.0073032577
0.0071750992
0.0070448632
0.0069126225
0.006778705
0.0066428867
0.0065051869
0.0063655153
0.0062238562
0.0060801895
0.0059344902
0.0057867663
0.005636969
0.0054851075
0.0053311251
0.0051750377
0.005016782
0.0048563748
0.0046937587
0.0045289662
0.0043619512
0.0041927655
0.0040213847
0.0038478873
0.0036723026
0.0034947204
0.0033152853
0.0031341147
0.0029515294
0.0027677187
0.0025833608
0.0023986063
0.0022152953
0.0020323953
0.001856766
0.0016792308
0.001530125
0.0013570286
0.0012951897
0.0010880439
0.0018765608
-0.0017609779
0.02964563
0.028657416
0.027467427
0.026066527
0.024519837
0.0229457
0.021426654
0.020002954
0.018695658
0.017515759
0.01646578
0.015541745
0.014736525
0.014041457
0.013446657
0.012941327
0.012514381
0.012155809
0.011855598
0.011603707
0.011391236
0.011210448
0.011054693
0.010918081
0.010795941
0.01068487
0.010581818
0.010484348
0.010390949
0.010300152
0.01021074
0.010122225
0.01003416
0.0099458608
0.0098570602
0.0097676688
0.0096771512
0.0095853542
0.00949243
0.0093979835
0.0093020133
0.0092047013
0.0091057227
0.0090052612
0.0089033399
0.0087997346
0.0086947891
0.0085881359
0.0084797933
0.008370111
0.0082586735
0.0081457583
0.0080310993
0.0079148069
0.0077972332
0.0076778773
0.007557114
0.0074349439
0.0073106536
0.0071842372
0.007055341
0.0069236822
0.0067898205
0.0066539193
0.0065161891
0.0063765349
0.006234896
0.0060912196
0.005945467
0.0057976467
0.0056477138
0.0054956854
0.0053415095
0.0051852077
0.0050267201
0.0048660681
0.0047031963
0.0045381408
0.004370857
0.0042013996
0.004029745
0.0038559742
0.003680117
0.0035022645
0.0033225622
0.0031411277
0.0029582824
0.0027742161
0.0025896057
0.0024046046
0.0022210434
0.0020379071
0.0018620106
0.0016842574
0.001534803
0.0013614844
0.0012991659
0.0010916515
0.001879121
-0.0017533358
0.028967454
0.028060344
0.026978827
0.025706408
0.024291842
0.022835054
0.021410908
0.020059877
0.018805693
0.017662483
0.016635855
0.015724785
0.014924553
0.014228386
0.013627981
0.01311392
0.01267628
0.012305722
0.011992914
0.011728485
0.011503938
0.011311796
0.011145555
0.010999467
0.010868864
0.010750229
0.010640492
0.010537159
0.010438567
0.010343207
0.010249818
0.010157776
0.010066562
0.0099754898
0.0098842163
0.0097925854
0.0097000927
0.0096065362
0.0095120007
0.0094161305
0.0093188781
0.0092203826
0.0091203566
0.0090189276
0.0089161168
0.0088117193
0.0087060174
0.0085986961
0.008489756
0.0083795168
0.0082675873
0.0081541835
0.0080391418
0.0079224714
0.0078043892
0.0076845383
0.0075632479
0.0074402311
0.0073155984
0.0071896073
0.0070616922
0.0069316431
0.0067991753
0.0066639828
0.0065264064
0.0063867099
0.0062450525
0.0061014071
0.0059556937
0.005807888
0.0056579289
0.0055058328
0.0053515506
0.005195111
0.0050364587
0.0048756209
0.0047125451
0.0045472718
0.0043797583
0.0042100629
0.0040381634
0.0038641437
0.0036880344
0.0035099287
0.003329973
0.0031482856
0.002965189
0.0027808733
0.0025960142
0.0024107688
0.0022269567
0.0020435827
0.0018674118
0.0016894367
0.0015396108
0.0013660615
0.0013032133
0.0010952853
0.0018813637
-0.0017447283
0.028329066
0.027494552
0.026508536
0.025349986
0.024055151
0.022707942
0.021375229
0.020096407
0.018896668
0.017792393
0.016791729
0.015896233
0.015103415
0.014408332
0.013804228
0.013283046
0.012836013
0.012454541
0.012129997
0.011853673
0.011617515
0.011414339
0.01123782
0.011082361
0.010943328
0.010817124
0.010700661
0.010591398
0.010487544
0.010387543
0.01029009
0.010194442
0.010100008
0.010006089
0.0099122762
0.0098183493
0.0097238234
0.0096284541
0.0095322629
0.009434923
0.0093363478
0.0092366339
0.0091355242
0.0090330973
0.0089293688
0.0088241481
0.0087176606
0.0086096388
0.0085000643
0.0083892137
0.0082767446
0.008162843
0.0080473659
0.0079302813
0.0078118136
0.0076916481
0.0075699476
0.007446493
0.0073214816
0.0071947578
0.0070662704
0.006936449
0.0068048263
0.0066710084
0.0065348002
0.0063958938
0.0062544706
0.0061108223
0.0059651037
0.0058173394
0.0056674331
0.0055153699
0.005361082
0.0052045971
0.0050458616
0.0048849099
0.0047216933
0.0045562579
0.0043885638
0.0042186733
0.0040465661
0.0038723296
0.0036959959
0.0035176603
0.0033374708
0.0031555468
0.0029722118
0.0027876572
0.0026025571
0.0024170727
0.002233012
0.0020494015
0.0018729504
0.0016947517
0.0015445319
0.0013707443
0.0013073139
0.0010989217
0.0018832234
-0.0017350357
0.027726861
0.026957484
0.026055897
0.024998522
0.023812088
0.022566776
0.02132156
0.020113827
0.018969246
0.017905666
0.016933236
0.016055711
0.015272621
0.014580752
0.01397485
0.01344818
0.012993104
0.012601843
0.012266474
0.011978957
0.011731709
0.011517867
0.011331319
0.011166633
0.011019234
0.01088548
0.01076227
0.010647024
0.010537849
0.010433138
0.010331543
0.010232215
0.010134491
0.010037656
0.0099412404
0.0098449619
0.0097483467
0.0096511126
0.0095532218
0.0094543674
0.0093544293
0.0092534626
0.0091512338
0.0090477794
0.0089431056
0.0088370339
0.0087297393
0.0086209934
0.0085107585
0.0083992712
0.0082862343
0.0081717955
0.00805583
0.007938304
0.0078194281
0.0076988941
0.0075768309
0.0074530968
0.007327748
0.007200641
0.0070718237
0.0069414286
0.0068091969
0.0066754058
0.0065398826
0.0064021584
0.0062620542
0.0061192408
0.0059738146
0.00582608
0.0056761817
0.0055241685
0.0053699437
0.0052135044
0.0050547785
0.0048937985
0.0047305172
0.0045649869
0.0043971713
0.0042271382
0.0040548693
0.0038804567
0.0037039336
0.0035253985
0.0033450012
0.0031628627
0.0029793077
0.0027945292
0.0026091998
0.0024234856
0.0022391816
0.0020553388
0.0018786042
0.001700182
0.0015495463
0.0013755143
0.0013114469
0.0011025329
0.0018846472
-0.0017241224
0.027157634
0.026446852
0.025620201
0.024652963
0.023564636
0.022413748