/*--------------------------------*- C++ -*----------------------------------*\
| =========                 |                                                 |
| \\      /  F ield         | OpenFOAM: The Open Source CFD Toolbox           |
|  \\    /   O peration     | Version:  2206                                  |
|   \\  /    A nd           | Website:  www.openfoam.com                      |
|    \\/     M anipulation  |                                                 |
\*---------------------------------------------------------------------------*/
FoamFile
{
    version     2.0;
    format      ascii;
    arch        "LSB;label=32;scalar=64";
    class       surfaceScalarField;
    location    "1300";
    object      phi;
}
// * * * * * * * * * * * * * * * * * * * * * * * * * * * * * * * * * * * * * //

dimensions      [0 3 -1 0 0 0 0];

oriented        oriented;

internalField   nonuniform List<scalar> 
14782
(
0.00064615996
7.5235059e-05
-0.00072139502
0.00055263048
9.3529479e-05
0.00046310464
8.9525846e-05
0.00039119715
7.1907488e-05
0.00033996469
5.123246e-05
0.0003038783
3.6086391e-05
0.00027712728
2.6751014e-05
0.00025599737
2.1129913e-05
0.00023850478
1.7492592e-05
0.00022376417
1.4740611e-05
0.00021129723
1.2466935e-05
0.00020072461
1.0572617e-05
0.00019174627
8.9783416e-06
0.00018410788
7.6383921e-06
0.0001775848
6.5230772e-06
0.00017199594
5.5888667e-06
0.00016719261
4.8033277e-06
0.00016305167
4.1409403e-06
0.00015946143
3.5902407e-06
0.00015631431
3.1471167e-06
0.00015353487
2.7794458e-06
0.00015104502
2.4898428e-06
0.0001487883
2.2567258e-06
0.00014672573
2.0625707e-06
0.00014482509
1.9006334e-06
0.00014306098
1.7641191e-06
0.00014141398
1.6469976e-06
0.00013986659
1.5473907e-06
0.00013840197
1.4646202e-06
0.00013700856
1.3934068e-06
0.00013567955
1.3290063e-06
0.00013440858
1.2709704e-06
0.00013318955
1.2190288e-06
0.00013201735
1.172201e-06
0.00013088738
1.1299743e-06
0.0001297943
1.0930813e-06
0.00012873371
1.0605885e-06
0.00012770316
1.0305508e-06
0.0001266996
1.003557e-06
0.00012572053
9.7906978e-07
0.00012476391
9.5661834e-07
0.00012382764
9.362721e-07
0.00012291057
9.170713e-07
0.00012201153
8.9903793e-07
0.00012112924
8.8229067e-07
0.00012026286
8.6637945e-07
0.00011941104
8.5182343e-07
0.00011857277
8.3827201e-07
0.00011774746
8.2530881e-07
0.00011693418
8.1327915e-07
0.00011613254
8.0163609e-07
0.00011534204
7.9050111e-07
0.00011456221
7.7982777e-07
0.0001137928
7.6941185e-07
0.00011303322
7.5957903e-07
0.00011228326
7.499663e-07
0.00011154249
7.4076609e-07
0.0001108105
7.3198892e-07
0.00011008695
7.2355231e-07
0.0001093716
7.1534975e-07
0.00010866442
7.0717602e-07
0.00010796517
6.9925555e-07
0.00010727369
6.9147681e-07
0.00010658979
6.8390101e-07
0.00010591334
6.7645224e-07
0.00010524414
6.6919783e-07
0.00010458199
6.6215324e-07
0.00010392673
6.5525557e-07
0.00010327826
6.4847372e-07
0.00010263646
6.4179785e-07
0.0001020012
6.3526334e-07
0.00010137236
6.2883569e-07
0.00010074985
6.2251092e-07
0.00010013358
6.1627054e-07
9.9523408e-05
6.1017079e-07
9.8919226e-05
6.0418142e-07
9.8320908e-05
5.9831801e-07
9.7728361e-05
5.9254743e-07
9.714146e-05
5.8690046e-07
9.656011e-05
5.8135024e-07
9.5984179e-05
5.7593125e-07
9.5413558e-05
5.7062087e-07
9.4848112e-05
5.6544604e-07
9.4287696e-05
5.6041598e-07
9.3732161e-05
5.5553522e-07
9.3181305e-05
5.5085598e-07
9.2634931e-05
5.4637339e-07
9.2092746e-05
5.4218545e-07
9.1554454e-05
5.3829162e-07
9.1019555e-05
5.3489945e-07
9.0487584e-05
5.3197079e-07
8.9957435e-05
5.3014874e-07
8.9428541e-05
5.2889399e-07
8.8897473e-05
5.3106867e-07
8.8365245e-05
5.3222786e-07
8.781621e-05
5.4903491e-07
8.7265336e-05
5.5087376e-07
8.6617429e-05
6.4790757e-07
8.6354889e-05
2.6253939e-07
1.1986606e-06
0.00078824218
8.1402359e-05
-0.00079440949
0.00076959135
0.00011218031
0.00073470229
0.00012441491
0.00068740658
0.0001192032
0.00063529106
0.00010334798
0.0005856509
8.5726545e-05
0.00054195701
7.0444904e-05
0.00050481854
5.8268383e-05
0.00047352275
4.8788391e-05
0.00044711243
4.1150927e-05
0.00042469557
3.4883792e-05
0.00040553604
2.973215e-05
0.00038908463
2.5429753e-05
0.000374913
2.1810018e-05
0.00036267157
1.8764512e-05
0.00035207208
1.6188358e-05
0.00034285861
1.4016798e-05
0.00033480823
1.2191317e-05
0.00032772938
1.0669092e-05
0.00032146049
9.4160015e-06
0.00031586632
8.3736205e-06
0.00031082802
7.5281388e-06
0.00030625208
6.8326661e-06
0.00030206559
6.249067e-06
0.00029820839
5.7578249e-06
0.00029463221
5.3402999e-06
0.00029129855
4.9806647e-06
0.00028817331
4.672626e-06
0.00028522695
4.4109776e-06
0.00028243699
4.1833721e-06
0.00027978704
3.9789517e-06
0.00027726252
3.7954977e-06
0.00027485032
3.6312255e-06
0.00027253913
3.4833881e-06
0.00027031935
3.3497601e-06
0.00026818034
3.2320884e-06
0.0002661132
3.1277255e-06
0.00026411234
3.0314089e-06
0.00026217115
2.9447532e-06
0.00026028418
2.8660411e-06
0.00025844698
2.7938189e-06
0.00025665532
2.7279324e-06
0.00025490609
2.666301e-06
0.00025319644
2.6086879e-06
0.00025152359
2.555133e-06
0.00024988527
2.5047048e-06
0.00024827878
2.4583121e-06
0.00024670193
2.4151229e-06
0.00024515306
2.3741767e-06
0.00024363034
2.3359965e-06
0.00024213254
2.2994402e-06
0.0002406584
2.2646411e-06
0.00023920681
2.2314188e-06
0.00023777689
2.1993318e-06
0.00023636751
2.1689543e-06
0.00023497793
2.1395478e-06
0.00023360723
2.1114709e-06
0.00023225448
2.0847398e-06
0.0002309189
2.0591297e-06
0.00022959993
2.0343211e-06
0.00022829724
2.0098641e-06
0.00022701029
1.9862033e-06
0.00022573864
1.9631298e-06
0.00022448182
1.9407193e-06
0.00022323946
1.9188072e-06
0.00022201113
1.8975364e-06
0.00022079634
1.8769361e-06
0.00021959476
1.8568412e-06
0.00021840607
1.8371613e-06
0.00021723
1.8178718e-06
0.00021606622
1.799038e-06
0.00021491448
1.7805806e-06
0.00021377452
1.7624699e-06
0.00021264612
1.7446726e-06
0.00021152898
1.7273077e-06
0.00021042285
1.7103117e-06
0.00020932746
1.6937036e-06
0.0002082426
1.6774142e-06
0.000207168
1.6615e-06
0.00020610344
1.6459085e-06
0.00020504866
1.6307088e-06
0.00020400342
1.6158571e-06
0.00020296746
1.6014127e-06
0.00020194047
1.5874012e-06
0.00020092216
1.5738468e-06
0.00019991215
1.5608659e-06
0.00019891003
1.5484916e-06
0.0001979153
1.5369214e-06
0.0001969273
1.5262923e-06
0.00019594528
1.516913e-06
0.00019496799
1.5092611e-06
0.00019399428
1.5038639e-06
0.00019302113
1.5020426e-06
0.00019204656
1.5056404e-06
0.00019106331
1.5154793e-06
0.00019006172
1.5506178e-06
0.00018902973
1.5828617e-06
0.00018792026
1.7573855e-06
0.00018702569
1.1571047e-06
2.7488312e-06
0.00082988893
7.8015261e-05
-0.00082650184
0.00083415971
0.00010790954
0.00083518164
0.00012339298
0.00082832993
0.00012605491
0.00081010453
0.00012157337
0.0007824835
0.00011334758
0.00074978124
0.00010314716
0.00071557179
9.2477835e-05
0.00068205118
8.2309005e-05
0.00065054834
7.2653766e-05
0.00062171398
6.3718152e-05
0.00059575298
5.5693147e-05
0.00057261872
4.8564017e-05
0.00055210492
4.2323815e-05
0.00053393715
3.6932281e-05
0.00051783807
3.2287443e-05
0.0005035409
2.8313963e-05
0.00049080696
2.4925262e-05
0.00047942581
2.2050239e-05
0.00046921513
1.9626684e-05
0.00046001141
1.7577336e-05
0.00045167271
1.5866843e-05
0.00044407801
1.4427359e-05
0.00043712507
1.3202015e-05
0.00043072581
1.2157083e-05
0.00042480387
1.1262237e-05
0.00041929705
1.0487484e-05
0.00041415498
9.8146948e-06
0.00040933403
9.2319336e-06
0.00040479752
8.7198804e-06
0.00040051441
8.2620581e-06
0.00039645766
7.8522492e-06
0.00039260378
7.4851061e-06
0.00038893286
7.1543063e-06
0.00038542774
6.8548796e-06
0.0003820707
6.5891306e-06
0.0003788472
6.3512293e-06
0.00037574621
6.1323952e-06
0.00037275607
5.9348934e-06
0.0003698674
5.7547113e-06
0.00036707206
5.5891555e-06
0.00036436245
5.4375457e-06
0.00036173223
5.2965208e-06
0.0003591757
5.1652226e-06
0.00035668752
5.0433071e-06
0.00035426309
4.929141e-06
0.00035189775
4.823651e-06
0.00034958746
4.7254079e-06
0.00034732885
4.6327924e-06
0.00034511857
4.5462773e-06
0.00034295391
4.4640992e-06
0.00034083229
4.3862552e-06
0.0003387514
4.3123078e-06
0.00033670926
4.2414766e-06
0.0003347038
4.1744155e-06
0.00033273332
4.1100207e-06
0.00033079607
4.0487239e-06
0.00032889036
3.9904482e-06
0.00032701474
3.9347524e-06
0.00032516799
3.8810708e-06
0.00032334914
3.8287107e-06
0.00032155709
3.7782575e-06
0.00031979084
3.7293784e-06
0.00031804946
3.6821037e-06
0.0003163321
3.6361645e-06
0.00031463789
3.5917437e-06
0.00031296598
3.5488477e-06
0.00031131564
3.5071852e-06
0.00030968621
3.4665903e-06
0.00030807708
3.4270024e-06
0.00030648763
3.388485e-06
0.00030491731
3.3509007e-06
0.0003033656
3.3141795e-06
0.000301832
3.2782689e-06
0.00030031598
3.243328e-06
0.00029881704
3.2092517e-06
0.0002973347
3.1760482e-06
0.0002958685
3.143609e-06
0.000294418
3.1120019e-06
0.00029298276
3.0811472e-06
0.00029156233
3.051139e-06
0.00029015628
3.0219121e-06
0.00028876414
2.9935545e-06
0.00028738543
2.9661097e-06
0.00028601964
2.9396309e-06
0.00028466621
2.9142987e-06
0.00028332448
2.8902219e-06
0.00028199372
2.8676814e-06
0.00028067293
2.8470783e-06
0.00027936116
2.8286905e-06
0.00027805639
2.8140322e-06
0.00027675754
2.8027086e-06
0.00027545936
2.8002194e-06
0.00027416165
2.8033556e-06
0.00027284928
2.8278486e-06
0.00027152042
2.8794813e-06
0.00027013563
2.9676491e-06
0.00026870264
3.1903745e-06
0.00026727174
2.5880015e-06
4.4197001e-06
0.00086018003
7.4440575e-05
-0.00085660534
0.00086633796
0.0001017516
0.00087236026
0.00011737068
0.00087659659
0.00012181858
0.00087802506
0.0001201449
0.00087519942
0.00011617322
0.00086687559
0.00011147099
0.00085275679
0.00010659664
0.00083371615
0.00010134964
0.00081143985
9.493007e-05
0.00078731934
8.783866e-05
0.00076246377
8.0548717e-05
0.00073779568
7.3232105e-05
0.00071400416
6.6115334e-05
0.00069155083
5.9385613e-05
0.00067069517
5.3143105e-05
0.00065152196
4.7487171e-05
0.00063399895
4.2448272e-05
0.00061802298
3.802621e-05
0.00060346273
3.4186934e-05
0.00059017994
3.0860125e-05
0.0005780422
2.8004586e-05
0.00056692557
2.5543992e-05
0.00055671565
2.3411936e-05
0.00054730738
2.1565347e-05
0.00053860473
1.996489e-05
0.00053052501
1.8567204e-05
0.00052299977
1.7339933e-05
0.00051596839
1.6263311e-05
0.00050937746
1.5310814e-05
0.00050318021
1.4459306e-05
0.00049733561
1.3696847e-05
0.00049180735
1.3013369e-05
0.00048656456
1.2397095e-05
0.00048158059
1.183885e-05
0.00047683143
1.1338289e-05
0.00047229583
1.0886828e-05
0.00046795485
1.0473376e-05
0.00046379154
1.009821e-05
0.00045979097
9.7552789e-06
0.00045594005
9.4400739e-06
0.0004522267
9.1508937e-06
0.00044864042
8.8828059e-06
0.00044517171
8.6339286e-06
0.00044181183
8.4031863e-06
0.0004385532
8.1877707e-06
0.00043538864
7.9882127e-06
0.00043231165
7.802397e-06
0.00042931664
7.6278058e-06
0.00042639827
7.4646486e-06
0.00042355189
7.3104803e-06
0.00042077314
7.1649995e-06
0.00041805809
7.0273629e-06
0.00041540329
6.8962686e-06
0.00041280544
6.772268e-06
0.00041026158
6.6538838e-06
0.00040776882
6.5414867e-06
0.00040532453
6.4347386e-06
0.00040292638
6.3328978e-06
0.00040057229
6.2351652e-06
0.00039826039
6.1406081e-06
0.0003959888
6.0498447e-06
0.00039375583
5.9623537e-06
0.00039155987
5.8780575e-06
0.00038939948
5.7965533e-06
0.00038727322
5.7180069e-06
0.00038517973
5.6423419e-06
0.00038311779
5.5691189e-06
0.0003810863
5.498084e-06
0.00037908419
5.4291081e-06
0.00037711047
5.3622098e-06
0.00037516419
5.2971748e-06
0.00037324449
5.2338841e-06
0.00037135051
5.1722513e-06
0.0003694814
5.1124388e-06
0.00036763637
5.0542834e-06
0.00036581465
4.9977682e-06
0.00036401552
4.9427383e-06
0.00036223826
4.8892552e-06
0.0003604822
4.8372048e-06
0.00035874665
4.786693e-06
0.00035703093
4.7376284e-06
0.00035533437
4.6901196e-06
0.00035365625
4.6442245e-06
0.00035199586
4.6000275e-06
0.00035035239
4.5577702e-06
0.00034872495
4.5176581e-06
0.00034711259
4.4800456e-06
0.00034551399
4.445675e-06
0.00034392796
4.4147172e-06
0.00034235195
4.3900428e-06
0.0003407848
4.3698618e-06
0.00033921975
4.3652635e-06
0.00033765751
4.3656012e-06
0.00033607803
4.4073305e-06
0.00033448391
4.4735985e-06
0.00033281822
4.6333367e-06
0.00033112241
4.8861846e-06
0.00032927377
4.4366473e-06
6.2006577e-06
0.00089014742
7.1411607e-05
-0.00088711845
0.00089597601
9.5923014e-05
0.00090230597
0.00011104072
0.0009076465
0.00011647805
0.00091141
0.0001163814
0.00091394445
0.00011363876
0.00091504615
0.0001103693
0.00091431857
0.00010732422
0.00091146185
0.00010420636
0.00090547559
0.00010091633
0.00089594368
9.7370572e-05
0.0008829954
9.3496992e-05
0.00086725835
8.8969161e-05
0.00084944311
8.3930571e-05
0.0008301921
7.8636618e-05
0.00081014397
7.319124e-05
0.00078990723
6.7723913e-05
0.00077000956
6.2345937e-05
0.00075085387
5.7181904e-05
0.00073270477
5.2336033e-05
0.00071569295
4.7871947e-05
0.00069984363
4.3853903e-05
0.00068511931
4.0268311e-05
0.00067145337
3.707788e-05
0.00065876789
3.4250818e-05
0.00064698172
3.1751062e-05
0.000636015
2.9533926e-05
0.00062579184
2.7563093e-05
0.00061624033
2.5814825e-05
0.00060729542
2.4255725e-05
0.00059889913
2.2855588e-05
0.00059099883
2.1597148e-05
0.00058354674
2.0465466e-05
0.00057650106
1.9442774e-05
0.0005698245
1.8515404e-05
0.00056348501
1.7677786e-05
0.00055745384
1.6917999e-05
0.00055170374
1.6223468e-05
0.00054621115
1.55908e-05
0.00054095507
1.5011365e-05
0.00053591658
1.4478559e-05
0.00053107815
1.3989328e-05
0.00052642431
1.353664e-05
0.00052194106
1.311718e-05
0.00051761542
1.2728825e-05
0.0005134362
1.2366993e-05
0.00050939321
1.2031207e-05
0.00050547721
1.1718395e-05
0.00050168001
1.1425004e-05
0.00049799374
1.1150917e-05
0.00049441135
1.0892872e-05
0.00049092633
1.0650017e-05
0.00048753276
1.0420939e-05
0.00048422539
1.0203634e-05
0.00048099925
9.9984057e-06
0.00047784982
9.8033165e-06
0.00047477286
9.6184521e-06
0.00047176459
9.4430067e-06
0.00046882161
9.2758796e-06
0.00046594068
9.1160919e-06
0.00046311886
8.9624302e-06
0.0004603533
8.815405e-06
0.00045764143
8.6742237e-06
0.00045498084
8.5386405e-06
0.00045236933
8.4080679e-06
0.00044980476
8.2825779e-06
0.00044728516
8.1619365e-06
0.00044480874
8.0455384e-06
0.0004423738
7.9330242e-06
0.00043997876
7.8241499e-06
0.00043762213
7.7188398e-06
0.00043530253
7.6167815e-06
0.00043301861
7.5178018e-06
0.00043076911
7.4217509e-06
0.0004285528
7.3287479e-06
0.00042636853
7.2385504e-06
0.0004242152
7.151101e-06
0.00042209175
7.0661848e-06
0.00041999717
6.9838387e-06
0.00041793047
6.9039006e-06
0.00041589069
6.8264731e-06
0.00041387689
6.751429e-06
0.00041188813
6.6788863e-06
0.00040992344
6.6089106e-06
0.00040798185
6.5416134e-06
0.00040606233
6.4772922e-06
0.00040416373
6.416259e-06
0.00040228484
6.3589363e-06
0.00040042407
6.306451e-06
0.00039857995
6.2588316e-06
0.00039674951
6.2204884e-06
0.00039493137
6.1879964e-06
0.0003931178
6.1788304e-06
0.00039130974
6.173662e-06
0.00038948419
6.2328858e-06
0.00038764572
6.3120616e-06
0.00038572663
6.5524271e-06
0.00038378808
6.8247432e-06
0.0003815835
6.6412258e-06
8.1174217e-06
0.0009209592
6.8769928e-05
-0.00091831752
0.00092615816
9.072405e-05
0.0009319737
0.00010522517
0.00093709574
0.00011135602
0.00094119423
0.00011228291
0.00094419089
0.0001106421
0.00094632084
0.00010823934
0.00094780086
0.0001058442
0.00094876279
0.00010324444
0.0009490706
0.00010060852
0.00094840496
9.8036205e-05
0.0009464706
9.5431355e-05
0.00094264619
9.2793576e-05
0.00093647298
9.0103781e-05
0.00092774382
8.7365777e-05
0.00091656934
8.4365714e-05
0.00090328127
8.1011985e-05
0.00088821195
7.7415263e-05
0.00087175509
7.3638758e-05
0.00085439241
6.9698716e-05
0.00083663984
6.5624516e-05
0.00081896784
6.1525902e-05
0.00080175432
5.748183e-05
0.00078525291
5.3579295e-05
0.00076959623
4.9907494e-05
0.00075482652
4.6520776e-05
0.0007409344
4.3426041e-05
0.00072788494
4.0612552e-05
0.00071563015
3.8069617e-05
0.00070411776
3.5768114e-05
0.00069329384
3.3679514e-05
0.00068310406
3.1786926e-05
0.00067349648
3.0073046e-05
0.00066442341
2.8515838e-05
0.00065583993
2.7098891e-05
0.00064770532
2.5812388e-05
0.00063998355
2.4639772e-05
0.00063264055
2.3566469e-05
0.0006256454
2.2585953e-05
0.0006189708
2.1685966e-05
0.00061259185
2.0857506e-05
0.00060648535
2.0095827e-05
0.00060063058
1.9391413e-05
0.00059500863
1.8739132e-05
0.00058960204
1.8135412e-05
0.00058439538
1.7573652e-05
0.00057937461
1.7051979e-05
0.00057452712
1.656588e-05
0.0005698416
1.6110527e-05
0.00056530725
1.5685268e-05
0.00056091436
1.5285761e-05
0.00055665398
1.4910398e-05
0.00055251784
1.4557076e-05
0.00054849854
1.4222933e-05
0.00054458899
1.3907955e-05
0.0005407828
1.360951e-05
0.00053707421
1.3327042e-05
0.00053345805
1.3059171e-05
0.00052992951
1.280442e-05
0.000526484
1.2561596e-05
0.00052311733
1.2329097e-05
0.00051982554
1.2107195e-05
0.00051660503
1.1894734e-05
0.00051345241
1.169126e-05
0.00051036452
1.1495959e-05
0.00050733842
1.1308682e-05
0.00050437141
1.112895e-05
0.00050146096
1.0955988e-05
0.00049860469
1.0789293e-05
0.00049580039
1.0628442e-05
0.00049304602
1.0473214e-05
0.00049033962
1.0323181e-05
0.00048767931
1.0178109e-05
0.00048506333
1.0037734e-05
0.00048249
9.9020762e-06
0.00047995776
9.7707948e-06
0.00047746509
9.6437729e-06
0.00047501056
9.5207161e-06
0.00047259278
9.4016146e-06
0.00047021044
9.2862408e-06
0.00046786224
9.1746757e-06
0.00046554692
9.0667428e-06
0.00046326325
8.9625554e-06
0.00046100999
8.8621755e-06
0.00045878587
8.7657345e-06
0.00045658958
8.6735782e-06
0.00045441971
8.5861271e-06
0.00045227478
8.5038668e-06
0.0004501529
8.428334e-06
0.00044805233
8.3593989e-06
0.0004459697
8.3031193e-06
0.00044390338
8.2543197e-06
0.00044184489
8.2373192e-06
0.00043979508
8.223473e-06
0.00043772903
8.2989363e-06
0.00043565206
8.3890339e-06
0.00043348928
8.7152077e-06
0.00043131469
8.999333e-06
0.00042878253
9.1733818e-06
1.018815e-05
0.00095277354
6.6440523e-05
-0.00095044413
0.00095740957
8.6088015e-05
0.00096274619
9.9888555e-05
0.00096752905
0.00010657316
0.00097140363
0.00010840833
0.00097438291
0.00010766282
0.0009766965
0.00010592575
0.00097857691
0.00010396379
0.0009800325
0.00010178884
0.00098110796
9.9533063e-05
0.00098185671
9.7287462e-05
0.00098229357
9.4994487e-05
0.0009823486
9.2738553e-05
0.00098183119
9.0621185e-05
0.00098059202
8.8604951e-05
0.00097825239
8.6705344e-05
0.00097433314
8.4931231e-05
0.00096854759
8.3200817e-05
0.00096070294
8.1483406e-05
0.00095080165
7.9600005e-05
0.00093898714
7.7439025e-05
0.00092546466
7.5048383e-05
0.00091056163
7.2384865e-05
0.00089472205
6.9418875e-05
0.00087843382
6.6195721e-05
0.00086214246
6.281214e-05
0.00084619552
5.9372975e-05
0.00083081631
5.5991764e-05
0.00081611647
5.276946e-05
0.00080213582
4.9748758e-05
0.00078887532
4.6940017e-05
0.00077631579
4.4346453e-05
0.00076442722
4.1961622e-05
0.00075317361
3.9769448e-05
0.00074251475
3.7757745e-05
0.00073240976
3.5917385e-05
0.00072282027
3.4229264e-05
0.00071370911
3.2677622e-05
0.00070504069
3.1254375e-05
0.00069678254
2.9944115e-05
0.00068890468
2.8735366e-05
0.00068137898
2.7621532e-05
0.00067417984
2.6590552e-05
0.00066728363
2.5635342e-05
0.00066066849
2.4750551e-05
0.00065431462
2.3927518e-05
0.00064820366
2.3162945e-05
0.00064231902
2.2450511e-05
0.0006366458
2.1783749e-05
0.00063116996
2.1161106e-05
0.00062587883
2.0576891e-05
0.00062076068
2.0028557e-05
0.00061580465
1.9513101e-05
0.00061100093
1.9026651e-05
0.00060634016
1.8568724e-05
0.00060181386
1.8135819e-05
0.00059741432
1.7726579e-05
0.00059313457
1.7338921e-05
0.00058896813
1.6970859e-05
0.00058490891
1.6620817e-05
0.00058095131
1.628669e-05
0.0005770901
1.5968407e-05
0.00057332048
1.5664354e-05
0.00056963787
1.5373871e-05
0.00056603799
1.5095837e-05
0.00056251698
1.4829694e-05
0.00055907128
1.4574651e-05
0.0005556975
1.4329773e-05
0.00055239244
1.4094351e-05
0.00054915316
1.3867724e-05
0.00054597689
1.3649477e-05
0.00054286106
1.3439014e-05
0.00053980316
1.3236006e-05
0.00053680086
1.3040035e-05
0.00053385196
1.2850979e-05
0.00053095439
1.2668369e-05
0.00052810616
1.2492003e-05
0.00052530539
1.232148e-05
0.00052255029
1.2156718e-05
0.00051983913
1.1997402e-05
0.00051717023
1.184357e-05
0.000514542
1.1694978e-05
0.00051195284
1.1551719e-05
0.00050940118
1.1413835e-05
0.00050688544
1.1281467e-05
0.00050440402
1.1154999e-05
0.00050195519
1.1034956e-05
0.00049953718
1.0921882e-05
0.00049714778
1.0817734e-05
0.00049478496
1.0722221e-05
0.00049244497
1.064311e-05
0.00049012586
1.0573426e-05
0.00048781858
1.0544604e-05
0.00048552367
1.0518375e-05
0.00048321489
1.0607719e-05
0.00048089764
1.0706281e-05
0.00047849184
1.1121009e-05
0.00047608112
1.1410057e-05
0.00047323253
1.2021974e-05
1.2426317e-05
0.00098574883
6.4381853e-05
-0.00098369016
0.00098988145
8.1955399e-05
0.00099479469
9.4975317e-05
0.00099932964
0.0001020382
0.0010030602
0.00010467778
0.0010059763
0.00010474676
0.0010082654
0.00010363657
0.0010101317
0.00010209751
0.0010116514
0.00010026912
0.0010128941
9.8290374e-05
0.0010139109
9.6270707e-05
0.0010146933
9.4212106e-05
0.0010152427
9.2189119e-05
0.0010156237
9.0240215e-05
0.0010157882
8.84404e-05
0.0010156921
8.6801504e-05
0.0010153087
8.5314638e-05
0.0010144685
8.404099e-05
0.0010129817
8.2970172e-05
0.001010518
8.2063673e-05
0.0010067009
8.1256186e-05
0.0010012208
8.0528492e-05
0.00099387253
7.9733113e-05
0.00098460362
7.8687782e-05
0.00097347376
7.7325586e-05
0.00096066976
7.5616144e-05
0.00094653742
7.3505313e-05
0.00093153982
7.0989366e-05
0.00091615658
6.8152693e-05
0.00090080124
6.5104096e-05
0.00088576826
6.1972997e-05
0.00087123004
5.8884676e-05
0.0008572698
5.5921863e-05
0.00084391992
5.3119327e-05
0.00083118509
5.0492573e-05
0.00081905361
4.8048864e-05
0.00080750445
4.5778424e-05
0.00079651
4.3672077e-05
0.00078603919
4.1725178e-05
0.00077606103
3.9922278e-05
0.00076654479
3.8251603e-05
0.0007574603
3.6706025e-05
0.0007487792
3.5271653e-05
0.00074047456
3.3939985e-05
0.00073252097
3.2704139e-05
0.00072489501
3.155348e-05
0.00071757452
3.0483433e-05
0.00071053919
2.948584e-05
0.00070377048
2.8552457e-05
0.00069725096
2.7680623e-05
0.00069096476
2.68631e-05
0.0006848971
2.6096216e-05
0.0006790344
2.5375796e-05
0.00067336426
2.4696793e-05
0.00066787494
2.4058042e-05
0.0006625557
2.3455063e-05
0.00065739656
2.2885716e-05
0.00065238843
2.2347049e-05
0.00064752293
2.1836357e-05
0.00064279228
2.1351477e-05
0.00063818927
2.0889691e-05
0.00063370719
2.0450489e-05
0.00062933984
2.0031706e-05
0.00062508134
1.9632367e-05
0.00062092622
1.9250961e-05
0.00061686946
1.888645e-05
0.00061290646
1.8537652e-05
0.00060903285
1.8203385e-05
0.00060524452
1.7882678e-05
0.00060153766
1.7574592e-05
0.00059790867
1.7278462e-05
0.00059435423
1.6993455e-05
0.00059087115
1.6719084e-05
0.00058745644
1.6454747e-05
0.00058410728
1.6200137e-05
0.00058082102
1.5954627e-05
0.00057759514
1.571789e-05
0.00057442723
1.5489388e-05
0.00057131501
1.5268937e-05
0.0005682563
1.505611e-05
0.000565249
1.4850874e-05
0.00056229108
1.4652899e-05
0.00055938056
1.4462233e-05
0.00055651551
1.4278884e-05
0.00055369399
1.4102987e-05
0.00055091404
1.3934949e-05
0.00054817361
1.3775392e-05
0.00054547057
1.3624913e-05
0.00054280242
1.3485893e-05
0.00054016676
1.3357875e-05
0.00053755949
1.3250377e-05
0.00053497831
1.3154609e-05
0.00053241363
1.3109283e-05
0.00052986563
1.3066378e-05
0.00052730701
1.316634e-05
0.00052474296
1.3270329e-05
0.00052208928
1.3774687e-05
0.00051943783
1.4061505e-05
0.00051627423
1.5185574e-05
1.4843786e-05
0.0010199329
6.2536581e-05
-0.0010180876
0.0010236145
7.8273799e-05
0.0010281225
9.0467351e-05
0.0010324342
9.7726518e-05
0.0010360819
0.00010103001
0.0010389939
0.00010183478
0.0010413017
0.0001013288
0.0010431744
0.00010022483
0.0010447014
9.8742106e-05
0.0010459545
9.7037213e-05
0.0010469899
9.52353e-05
0.0010478308
9.337128e-05
0.0010485017
9.1518169e-05
0.0010490214
8.9720512e-05
0.0010494069
8.805496e-05
0.0010496597
8.6548712e-05
0.0010497945
8.5179794e-05
0.0010498165
8.4018974e-05
0.0010497026
8.3084096e-05
0.0010494109
8.2355389e-05
0.001048838
8.1829066e-05
0.0010478623
8.1504152e-05
0.001046266
8.1329453e-05
0.0010437058
8.1248025e-05
0.001039828
8.120339e-05
0.0010343074
8.1136706e-05
0.0010269403
8.0872356e-05
0.0010176765
8.0253238e-05
0.0010065812
7.9247938e-05
0.00099389951
7.7785812e-05
0.00098004411
7.5828401e-05
0.00096550243
7.3426354e-05
0.0009507286
7.0695699e-05
0.00093607045
6.7777475e-05
0.00092174846
6.4814563e-05
0.00090788131
6.1916017e-05
0.00089452717
5.9132563e-05
0.00088171043
5.6488812e-05
0.00086943495
5.4000658e-05
0.00085769196
5.1665273e-05
0.00084646396
4.9479596e-05
0.00083572848
4.7441508e-05
0.0008254614
4.5538733e-05
0.00081563744
4.3763948e-05
0.00080623112
4.2110461e-05
0.0007972179
4.0566697e-05
0.00078857374
3.9127595e-05
0.00078027589
3.7783683e-05
0.0007723031
3.6525256e-05
0.00076463502
3.53487e-05
0.0007572529
3.4245214e-05
0.00075013915
3.320997e-05
0.00074327744
3.2237504e-05
0.00073665276
3.1321475e-05
0.00073025089
3.0459907e-05
0.00072405875
2.9647211e-05
0.00071806405
2.888041e-05
0.0007122555
2.8155602e-05
0.00070662264
2.7469222e-05
0.00070115575
2.6818361e-05
0.0006958459
2.6199543e-05
0.00069068465
2.5611739e-05
0.00068566424
2.5052111e-05
0.00068077741
2.4519202e-05
0.00067601734
2.4011026e-05
0.00067137772
2.3526074e-05
0.00066685269
2.3062685e-05
0.00066243678
2.2619289e-05
0.00065812487
2.2194588e-05
0.00065391215
2.1787314e-05
0.00064979411
2.1396502e-05
0.00064576655
2.1021014e-05
0.0006418255
2.0660138e-05
0.00063796721
2.0313037e-05
0.00063418816
1.9979182e-05
0.00063048504
1.9657747e-05
0.0006268547
1.9348237e-05
0.00062329414
1.9049941e-05
0.00061980054
1.8762542e-05
0.00061637119
1.8485463e-05
0.00061300348
1.8218579e-05
0.00060969494
1.7961443e-05
0.00060644313
1.7714037e-05
0.0006032457
1.7476313e-05
0.00060010031
1.724838e-05
0.00059700461
1.7030654e-05
0.00059395616
1.6823842e-05
0.00059095249
1.6628581e-05
0.0005879907
1.6447678e-05
0.00058506807
1.6280508e-05
0.00058218009
1.6138358e-05
0.00057932406
1.6010634e-05
0.00057648993
1.5943414e-05
0.0005736774
1.5878907e-05
0.00057085833
1.598541e-05
0.00056803752
1.6091145e-05
0.00056512725
1.6684959e-05
0.00056222713
1.6961625e-05
0.00055874373
1.8668974e-05
1.7452219e-05
0.001055317
6.0846542e-05
-0.001053627
0.0010586104
7.4980439e-05
0.0010627298
8.6347912e-05
0.001066806
9.365032e-05
0.0010703696
9.7466421e-05
0.0010732927
9.8911746e-05
0.0010756473
9.8974191e-05
0.0010775651
9.8307019e-05
0.0010791317
9.7175527e-05
0.001080415
9.5753883e-05
0.0010814705
9.4179813e-05
0.0010823298
9.2511911e-05
0.0010830237
9.0824321e-05
0.0010835735
8.917067e-05
0.0010840066
8.7621892e-05
0.0010843414
8.6213866e-05
0.0010845823
8.4938897e-05
0.0010847446
8.3856726e-05
0.0010848446
8.2984044e-05
0.0010848791
8.2320916e-05
0.0010848468
8.1861373e-05
0.0010847466
8.1604357e-05
0.0010845356
8.1540497e-05
0.0010841477
8.1635865e-05
0.0010834807
8.1870406e-05
0.0010823928
8.2224589e-05
0.0010806103
8.2654914e-05
0.0010777627
8.3100821e-05
0.0010734898
8.3520847e-05
0.0010674904
8.3785197e-05
0.0010596007
8.3718064e-05
0.0010498001
8.3226949e-05
0.0010382531
8.2242775e-05
0.0010253229
8.0707661e-05
0.0010114913
7.8646155e-05
0.00099723511
7.6172177e-05
0.00098293629
7.3431389e-05
0.00096884683
7.0578271e-05
0.00095511035
6.7737137e-05
0.00094180427
6.4971354e-05
0.00092896806
6.2315806e-05
0.00091661774
5.9791831e-05
0.00090475442
5.7402046e-05
0.00089336878
5.514959e-05
0.00088244541
5.3033828e-05
0.00087196601
5.1046106e-05
0.00086190986
4.918374e-05
0.00085225567
4.7437878e-05
0.00084298219
4.5798736e-05
0.00083406817
4.4262716e-05
0.00082549341
4.2819979e-05
0.00081723844
4.1464932e-05
0.00080928492
4.0191027e-05
0.00080161566
3.899073e-05
0.00079421425
3.7861318e-05
0.00078706542
3.6796048e-05
0.00078015473
3.5791099e-05
0.00077346874
3.4841592e-05
0.00076699491
3.3943054e-05
0.00076072153
3.3091733e-05
0.0007546378
3.2283276e-05
0.00074873349
3.1516047e-05
0.00074299916
3.0786442e-05
0.00073742597
3.0092391e-05
0.00073200568
2.9431317e-05
0.00072673055
2.88012e-05
0.0007215934
2.8199842e-05
0.00071658751
2.7625181e-05
0.00071170659
2.7075506e-05
0.00070694475
2.6549152e-05
0.00070229645
2.6044797e-05
0.00069775652
2.5560943e-05
0.00069332009
2.5096572e-05
0.00068898257
2.4650556e-05
0.00068473964
2.4222111e-05
0.00068058724
2.3810151e-05
0.0006765215
2.3413974e-05
0.00067253879
2.3032655e-05
0.00066863563
2.26657e-05
0.00066480873
2.2312357e-05
0.00066105494
2.1972369e-05
0.00065737124
2.1645145e-05
0.00065375471
2.1330573e-05
0.0006502025
2.1028525e-05
0.00064671182
2.073906e-05
0.00064327988
2.0462587e-05
0.00063990385
2.0199878e-05
0.00063658082
1.9951603e-05
0.00063330752
1.9720984e-05
0.0006300808
1.9507229e-05
0.00062689576
1.9323401e-05
0.00062374927
1.915712e-05
0.0006206308
1.906188e-05
0.00061753955
1.8970159e-05
0.00061444661
1.9078349e-05
0.00061135631
1.9181449e-05
0.00060817773
1.986354e-05
0.00060501825
2.0121104e-05
0.00060120579
2.2481435e-05
2.0263726e-05
0.0010918894
5.9268766e-05
-0.0010903117
0.0010948599
7.2009962e-05
0.0010986223
8.258549e-05
0.0011024522
8.9820418e-05
0.0011059084
9.4010276e-05
0.0011088276
9.5992524e-05
0.0011112289
9.6572918e-05
0.0011132047
9.6331229e-05
0.0011148286
9.5551643e-05
0.0011161622
9.4420222e-05
0.0011172585
9.3083498e-05
0.0011181521
9.161832e-05
0.0011188745
9.0101917e-05
0.0011194502
8.8594986e-05
0.0011199067
8.7165454e-05
0.001120266
8.5854512e-05
0.0011205385
8.466636e-05
0.0011207429
8.3652332e-05
0.0011208939
8.2833118e-05
0.0011210006
8.221414e-05
0.0011210677
8.1794286e-05
0.0011211061
8.1565982e-05
0.0011211178
8.1528783e-05
0.001121093
8.1660697e-05
0.0011210198
8.1943586e-05
0.0011208733
8.2371105e-05
0.0011206062
8.2921974e-05
0.0011201347
8.3572366e-05
0.0011193425
8.4313004e-05
0.0011180142
8.5113527e-05
0.0011158105
8.5921723e-05
0.0011123482
8.6689315e-05
0.0011072654
8.7325558e-05
0.001100316
8.7657011e-05
0.0010914167
8.7545475e-05
0.0010806749
8.6914003e-05
0.0010684197
8.5686544e-05
0.0010551274
8.3870631e-05
0.0010412869
8.1577575e-05
0.0010272972
7.8961086e-05
0.0010134253
7.6187752e-05
0.00099982814
7.3388944e-05
0.00098659536
7.0634825e-05
0.00097377659
6.796836e-05
0.00096139657
6.5413856e-05
0.00094946368
6.2978989e-05
0.00093797477
6.0672649e-05
0.00092692008
5.8492571e-05
0.00091628572
5.6433099e-05
0.00090605478
5.4493648e-05