/*--------------------------------*- C++ -*----------------------------------*\
| =========                 |                                                 |
| \\      /  F ield         | OpenFOAM: The Open Source CFD Toolbox           |
|  \\    /   O peration     | Version:  2206                                  |
|   \\  /    A nd           | Website:  www.openfoam.com                      |
|    \\/     M anipulation  |                                                 |
\*---------------------------------------------------------------------------*/
FoamFile
{
    version     2.0;
    format      ascii;
    arch        "LSB;label=32;scalar=64";
    class       volVectorField;
    location    "1300";
    object      U;
}
// * * * * * * * * * * * * * * * * * * * * * * * * * * * * * * * * * * * * * //

dimensions      [0 1 -1 0 0 0 0];

internalField   nonuniform List<vector> 
7480
(
(0.86076413 0.01476087 5.8364133e-16)
(0.74498433 0.025621634 0)
(0.62909932 0.027259234 0)
(0.52580244 0.019485479 0)
(0.45015627 0.0094035742 0)
(0.39794892 0.0037519474 0)
(0.36023665 0.0017197008 0)
(0.33112887 0.0012086359 0)
(0.30743095 0.0010853096 0)
(0.28754208 0.00096770394 0)
(0.27071148 0.00081766572 0)
(0.25645528 0.00067129464 0)
(0.24435884 0.00054346675 0)
(0.23407579 0.00043806521 0)
(0.22531243 0.00035439941 0)
(0.21781252 0.00028715492 0)
(0.21137591 0.00023276405 0)
(0.20583933 0.00018549749 0)
(0.20104152 0.00021930104 -8.2121943e-18)
(0.19688793 0.00028850587 -1.6773203e-17)
(0.19321251 0.00013556492 0)
(0.18994214 9.0487376e-05 0)
(0.18699803 7.7507893e-05 0)
(0.18431566 6.8950104e-05 0)
(0.18185307 6.1603279e-05 0)
(0.17957384 5.535521e-05 0)
(0.17745278 5.0051796e-05 0)
(0.17546587 4.5726779e-05 0)
(0.17359159 4.2324195e-05 0)
(0.17181159 3.9412901e-05 0)
(0.17011548 3.6702967e-05 0)
(0.16849576 3.4257243e-05 0)
(0.16694427 3.2081764e-05 0)
(0.16545449 3.0120767e-05 0)
(0.16401941 2.8362214e-05 0)
(0.162635 2.6843578e-05 0)
(0.16129198 2.5489559e-05 0)
(0.15998838 2.4206694e-05 0)
(0.15872041 2.3053605e-05 0)
(0.15748425 2.1992464e-05 0)
(0.1562773 2.1006283e-05 0)
(0.15509689 2.0104012e-05 0)
(0.15394102 1.9235365e-05 0)
(0.1528084 1.8411644e-05 0)
(0.15169738 1.7641106e-05 0)
(0.15060681 1.6900457e-05 0)
(0.14953523 1.6216297e-05 0)
(0.14848103 1.5569546e-05 0)
(0.14744339 1.4944568e-05 0)
(0.14642128 1.4360174e-05 0)
(0.14541388 1.3791643e-05 0)
(0.14442071 1.3247684e-05 0)
(0.14344108 1.2726968e-05 0)
(0.14247467 1.2221564e-05 0)
(0.14152084 1.1744852e-05 0)
(0.14057913 1.1281818e-05 0)
(0.13964919 1.0840519e-05 0)
(0.13873046 1.041965e-05 0)
(0.13782242 1.0016341e-05 0)
(0.1369247 9.6286737e-06 0)
(0.13603722 9.2507762e-06 0)
(0.1351598 8.8897023e-06 0)
(0.13429217 8.5406928e-06 0)
(0.1334341 8.2060421e-06 0)
(0.13258541 7.8831949e-06 0)
(0.13174591 7.5735902e-06 0)
(0.13091532 7.2768981e-06 0)
(0.13009341 6.9915146e-06 0)
(0.12928003 6.7168116e-06 0)
(0.12847505 6.4522838e-06 0)
(0.12767831 6.1984431e-06 0)
(0.12688965 5.9541466e-06 0)
(0.12610894 5.7192932e-06 0)
(0.12533609 5.4930922e-06 0)
(0.12457093 5.2763093e-06 0)
(0.12381331 5.0679003e-06 0)
(0.12306308 4.8680268e-06 0)
(0.12232012 4.6757299e-06 0)
(0.12158427 4.4913698e-06 0)
(0.12085541 4.3140928e-06 0)
(0.1201334 4.1442266e-06 0)
(0.11941808 3.9810467e-06 0)
(0.11870931 3.8246606e-06 0)
(0.1180069 3.6748348e-06 0)
(0.11731069 3.5311795e-06 0)
(0.11662044 3.3940923e-06 0)
(0.11593594 3.2626972e-06 0)
(0.11525682 3.1381847e-06 0)
(0.11458285 3.0186331e-06 0)
(0.11391325 2.9079404e-06 0)
(0.11324814 2.7990837e-06 0)
(0.11258494 2.7085628e-06 0)
(0.1119263 2.6038298e-06 0)
(0.11126185 2.5597535e-06 0)
(0.11060705 2.4263318e-06 0)
(0.10991987 2.5340171e-06 0)
(0.10926221 2.2269974e-06 -3.2122819e-21)
(0.10848948 6.2198726e-06 6.9422612e-20)
(0.10788761 -1.6910063e-06 -3.2218526e-19)
(0.10671486 1.2331498e-05 -1.1192226e-18)
(0.95765191 0.024826473 0)
(0.94368647 0.03245408 0)
(0.91263209 0.032576408 0)
(0.86108981 0.028764301 0)
(0.79832689 0.022921033 0)
(0.73537234 0.017280827 0)
(0.67852561 0.012889575 0)
(0.62980598 0.0098236178 0)
(0.58881643 0.0077460264 0)
(0.55432262 0.0062558015 0)
(0.52512349 0.005116777 0)
(0.50023813 0.0042186581 0)
(0.47890541 0.0034895795 0)
(0.46055077 0.0028912311 0)
(0.44471224 0.0024003044 0)
(0.4310165 0.0019959235 0)
(0.41913741 0.0016647453 0)
(0.4087873 0.0013951222 0)
(0.39971186 0.0011767823 0)
(0.39170512 0.00099625317 0)
(0.3845855 0.00084927699 0)
(0.37820149 0.00074424131 0)
(0.37242531 0.00065547454 0)
(0.36715736 0.0005808952 0)
(0.3623202 0.00051911272 0)
(0.35784629 0.00046730214 0)
(0.35368798 0.00042312538 0)
(0.34979938 0.00038561368 0)
(0.34614276 0.00035395107 0)
(0.34268617 0.00032654648 0)
(0.33940738 0.0003020833 0)
(0.33628843 0.00028022927 0)
(0.33331222 0.00026071736 0)
(0.33046467 0.00024320632 0)
(0.32773193 0.00022742846 0)
(0.32510502 0.00021344722 0)
(0.32256722 0.00020093855 0)
(0.32011362 0.00018942051 0)
(0.31773588 0.00017898647 0)
(0.31542636 0.00016944249 0)
(0.31317945 0.00016065078 0)
(0.31098987 0.00015256858 0)
(0.30885314 0.00014501585 0)
(0.30676589 0.00013795778 0)
(0.30472459 0.00013137775 0)
(0.30272642 0.0001251956 0)
(0.30076824 0.00011945173 0)
(0.29884696 0.00011407469 0)
(0.29696044 0.00010899407 0)
(0.2951065 0.00010422932 0)
(0.29328331 9.9703261e-05 0)
(0.29148943 9.5414609e-05 0)
(0.28972335 9.1345258e-05 0)
(0.28798402 8.7465175e-05 0)
(0.2862701 8.3795995e-05 0)
(0.28458052 8.0293112e-05 0)
(0.28291431 7.696626e-05 0)
(0.28127032 7.3808803e-05 0)
(0.27964747 7.0804574e-05 0)
(0.27804491 6.7934869e-05 0)
(0.27646222 6.5176644e-05 0)
(0.2748989 6.2543456e-05 0)
(0.27335429 6.0022076e-05 0)
(0.27182785 5.7611513e-05 0)
(0.2703191 5.5301618e-05 0)
(0.26882757 5.3093241e-05 0)
(0.26735266 5.0983212e-05 0)
(0.26589386 4.8962509e-05 0)
(0.26445082 4.7024998e-05 0)
(0.26302318 4.5166777e-05 0)
(0.26161058 4.3386792e-05 0)
(0.26021265 4.1679735e-05 0)
(0.25882909 4.0042079e-05 0)
(0.25745964 3.8470175e-05 0)
(0.25610396 3.6964547e-05 0)
(0.25476173 3.5520907e-05 0)
(0.25343262 3.4137333e-05 0)
(0.25211635 3.2809762e-05 0)
(0.25081263 3.1537324e-05 0)
(0.24952117 3.0316584e-05 0)
(0.24824167 2.9146959e-05 0)
(0.24697384 2.8025387e-05 0)
(0.24571738 2.6951061e-05 0)
(0.24447193 2.5922415e-05 0)
(0.24323717 2.4937817e-05 0)
(0.24201264 2.3997399e-05 0)
(0.24079795 2.3099354e-05 0)
(0.23959242 2.2245134e-05 0)
(0.23839563 2.1433723e-05 0)
(0.23720619 2.0668781e-05 0)
(0.2360242 1.995096e-05 0)
(0.23484532 1.9291141e-05 0)
(0.23367371 1.8687635e-05 0)
(0.23249218 1.8190227e-05 0)
(0.23132558 1.7735548e-05 0)
(0.23010484 1.7673904e-05 0)
(0.22892969 1.7380165e-05 5.7632556e-21)
(0.22756103 1.928063e-05 0)
(0.22647041 9.8594874e-06 0)
(0.22438382 3.1015464e-05 0)
(0.96662463 0.026209897 0)
(0.97148779 0.035055631 0)
(0.97647674 0.038610792 0)
(0.97526936 0.037491952 0)
(0.96067431 0.034276839 0)
(0.93253854 0.029939908 0)
(0.89591167 0.025247234 0)
(0.8559338 0.020855813 0)
(0.81586574 0.017134692 0)
(0.77763383 0.014080291 0)
(0.74228928 0.011600874 0)
(0.71028385 0.0096040598 0)
(0.6816686 0.0079829559 0)
(0.65626403 0.0066595737 0)
(0.63376488 0.0055789926 0)
(0.61384138 0.0046929181 0)
(0.59617052 0.003964825 0)
(0.58045583 0.0033650585 0)
(0.56643417 0.0028699644 0)
(0.55387763 0.0024630083 0)
(0.54258734 0.0021338761 0)
(0.53238275 0.0018655601 0)
(0.52311154 0.0016431472 0)
(0.51464452 0.001457844 0)
(0.50687159 0.0013027011 0)
(0.49969699 0.0011718093 0)
(0.49303905 0.0010599134 0)
(0.4868338 0.00096381546 0)
(0.4810267 0.00088140899 0)
(0.47557165 0.00080966998 0)
(0.47042908 0.00074610237 0)
(0.46556553 0.00068959313 0)
(0.46095151 0.00063925565 0)
(0.45656196 0.00059416773 0)
(0.452375 0.00055360511 0)
(0.44837269 0.00051757102 0)
(0.44453155 0.00048528008 0)
(0.44084103 0.00045573742 0)
(0.43728606 0.00042898498 0)
(0.43385453 0.00040456498 0)
(0.43053651 0.00038214201 0)
(0.42732283 0.00036156096 0)
(0.42420525 0.00034246677 0)
(0.42117694 0.00032472796 0)
(0.41823139 0.00030825737 0)
(0.41536293 0.00029288122 0)
(0.41256611 0.00027861697 0)
(0.40983574 0.00026531431 0)
(0.40716761 0.00025282218 0)
(0.40455777 0.00024113461 0)
(0.4020027 0.00023010451 0)
(0.39949938 0.00021970368 0)
(0.39704486 0.00020988027 0)
(0.39463676 0.00020056665 0)
(0.39227263 0.00019177805 0)
(0.38995034 0.0001834314 0)
(0.3876679 0.00017552987 0)
(0.38542324 0.00016805099 0)
(0.38321449 0.00016095562 0)
(0.3810401 0.00015420069 0)
(0.37889887 0.00014774027 0)
(0.37678961 0.0001415888 0)
(0.37471103 0.00013571917 0)
(0.37266202 0.00013012173 0)
(0.37064157 0.00012477436 0)
(0.36864869 0.00011967372 0)
(0.36668232 0.00011480987 0)
(0.36474155 0.00011016251 0)
(0.36282557 0.00010571688 0)
(0.36093367 0.00010146283 0)
(0.35906511 9.7394945e-05 0)
(0.35721922 9.3501223e-05 0)
(0.35539534 8.9772464e-05 0)
(0.35359294 8.6200317e-05 0)
(0.35181139 8.2783235e-05 0)
(0.35005007 7.9511827e-05 0)
(0.34830841 7.6380412e-05 0)
(0.34658588 7.3380276e-05 0)
(0.34488194 7.0507894e-05 0)
(0.34319609 6.775593e-05 0)
(0.34152781 6.5121723e-05 0)
(0.33987657 6.2598739e-05 0)
(0.33824188 6.0184283e-05 0)
(0.33662315 5.7874573e-05 0)
(0.33501984 5.5666003e-05 0)
(0.3334313 5.3557753e-05 0)
(0.33185687 5.1546829e-05 0)
(0.33029562 4.9634229e-05 0)
(0.32874689 4.782089e-05 0)
(0.3272088 4.6108255e-05 0)
(0.32568137 4.451092e-05 0)
(0.324159 4.3024494e-05 0)
(0.32264673 4.1705957e-05 0)
(0.32112284 4.0536153e-05 0)
(0.31961804 3.9643623e-05 0)
(0.31804595 3.9255178e-05 0)
(0.31652959 3.9102672e-05 4.2435804e-21)
(0.31477019 4.1306233e-05 0)
(0.31334421 2.9693809e-05 0)
(0.31067221 5.7149086e-05 -1.0240308e-20)
(0.96951293 0.02436032 0)
(0.9750558 0.032500879 0)
(0.98305207 0.036271525 0)
(0.98964525 0.036549943 0)
(0.99318079 0.034793874 0)
(0.99283505 0.032319008 0)
(0.9866447 0.029693026 0)
(0.97382114 0.027072592 0)
(0.95452367 0.02441225 0)
(0.93070081 0.021569113 0)
(0.90410407 0.018749296 0)
(0.87611701 0.016130605 0)
(0.84789156 0.01379373 0)
(0.82033625 0.011764427 0)
(0.7940999 0.010024842 0)
(0.76958056 0.0085442532 0)
(0.74695806 0.0072959556 0)
(0.72624631 0.0062500228 0)
(0.70735419 0.0053812495 0)
(0.69013885 0.0046630639 0)
(0.67444552 0.0040664241 0)
(0.66011793 0.0035700622 0)
(0.64701165 0.0031539876 0)
(0.63499221 0.002801925 0)
(0.62393468 0.0025031512 0)
(0.61372651 0.0022486849 0)
(0.60426383 0.0020300902 0)
(0.59546327 0.001841325 0)
(0.58725288 0.0016780597 0)
(0.57956868 0.0015354331 0)
(0.57235381 0.0014094211 0)
(0.56555901 0.0012977799 0)
(0.55914106 0.0011986338 0)
(0.55306132 0.0011100724 0)
(0.54728836 0.0010305694 0)
(0.54179349 0.00095959924 0)
(0.53655133 0.00089592844 0)
(0.53153901 0.00083804904 0)
(0.5267367 0.00078565543 0)
(0.52212605 0.00073797476 0)
(0.51769152 0.00069434939 0)
(0.51341898 0.0006544171 0)
(0.50929557 0.00061758184 0)
(0.50531017 0.00058354296 0)
(0.50145247 0.00055207807 0)
(0.49771319 0.00052285426 0)
(0.49408422 0.00049580818 0)
(0.49055761 0.00047067997 0)
(0.48712666 0.00044720084 0)
(0.48378523 0.00042530345 0)
(0.48052765 0.0004047508 0)
(0.47734891 0.00038546162 0)
(0.47424422 0.00036732614 0)
(0.47120952 0.00035021631 0)
(0.46824097 0.00033411772 0)
(0.46533508 0.00031889974 0)
(0.46248854 0.00030454343 0)
(0.45969818 0.00029099352 0)
(0.45696123 0.00027817565 0)
(0.45427518 0.00026601572 0)
(0.45163786 0.00025443942 0)
(0.44904717 0.00024345114 0)
(0.44650103 0.00023300211 0)
(0.4439976 0.00022306604 0)
(0.44153518 0.00021360334 0)
(0.43911216 0.00020460054 0)
(0.4367269 0.00019603498 0)
(0.43437797 0.00018787064 0)
(0.43206406 0.00018008066 0)
(0.42978396 0.00017264471 0)
(0.4275365 0.00016554888 0)
(0.42532057 0.00015877138 0)
(0.42313517 0.00015229471 0)
(0.42097933 0.00014610343 0)
(0.41885208 0.00014019087 0)
(0.41675249 0.00013454028 0)
(0.41467967 0.0001291401 0)
(0.4126328 0.00012397525 0)
(0.41061105 0.0001190376 0)
(0.40861365 0.00011431442 0)
(0.40663982 0.00010979932 0)
(0.40468879 0.00010548105 0)
(0.40275981 0.0001013537 0)
(0.40085208 9.7410164e-05 0)
(0.39896482 9.3643963e-05 0)
(0.39709713 9.0052258e-05 0)
(0.39524816 8.6630596e-05 0)
(0.39341669 8.3378211e-05 0)
(0.39160183 8.0299274e-05 0)
(0.38980138 7.7389693e-05 0)
(0.38801514 7.4685633e-05 0)
(0.38623681 7.2153117e-05 0)
(0.38447162 6.9942867e-05 0)
(0.3826956 6.7902943e-05 0)
(0.38094174 6.6495566e-05 0)
(0.37911573 6.5587319e-05 0)
(0.3773498 6.5774441e-05 3.2320718e-21)
(0.37531749 6.7886447e-05 0)
(0.37363998 5.6801696e-05 0)
(0.37055975 8.4625428e-05 7.9173281e-21)
(0.97142009 0.023209174 0)
(0.97635494 0.030459372 0)
(0.98370219 0.034213858 0)
(0.99077284 0.034704583 0)
(0.99589957 0.033430135 0)
(0.99898996 0.031559795 0)
(1.0014329 0.029672641 0)
(1.001302 0.027920783 0)
(0.99971783 0.026233866 0)
(0.99503338 0.024497245 0)
(0.98655568 0.02269365 0)
(0.97409729 0.020831789 0)
(0.95816828 0.018859988 0)
(0.93961381 0.01685649 0)
(0.91914851 0.014923813 0)
(0.89746295 0.013125351 0)
(0.87526158 0.011506793 0)
(0.85317565 0.010064924 0)
(0.83172234 0.0087975426 0)
(0.81126643 0.0076986167 0)
(0.79201912 0.006753305 0)
(0.77405328 0.005950719 0)
(0.75735026 0.0052712051 0)
(0.74184603 0.0046928893 0)
(0.72745784 0.0041982288 0)
(0.71409816 0.003772818 0)
(0.70167743 0.0034040125 0)
(0.69010982 0.003082724 0)
(0.67931457 0.0028027347 0)
(0.66921622 0.0025571383 0)
(0.65974773 0.0023401333 0)
(0.65084895 0.0021479557 0)
(0.64246515 0.0019773671 0)
(0.63454672 0.0018251724 0)
(0.62705161 0.0016888472 0)
(0.61994035 0.0015670102 0)
(0.61318262 0.0014575803 0)
(0.60674557 0.0013584845 0)
(0.60060253 0.0012689229 0)
(0.59472882 0.001187534 0)
(0.589103 0.0011132871 0)
(0.58370511 0.0010455202 0)
(0.57851701 0.00098328703 0)
(0.57352282 0.0009260267 0)
(0.56870777 0.00087330731 0)
(0.56405845 0.00082454892 0)
(0.55956355 0.00077951778 0)
(0.55521225 0.00073779411 0)
(0.5509952 0.00069896187 0)
(0.54690366 0.00066286285 0)
(0.54292937 0.00062913842 0)
(0.53906501 0.00059761587 0)
(0.53530372 0.00056809824 0)
(0.53163944 0.00054036988 0)
(0.52806666 0.00051436199 0)
(0.52458016 0.00048987868 0)
(0.52117514 0.00046685446 0)
(0.51784718 0.00044517943 0)
(0.51459245 0.00042473147 0)
(0.5114073 0.0004053999 0)
(0.50828837 0.00038707231 0)
(0.50523249 0.00036972864 0)
(0.50223668 0.00035328797 0)
(0.49929823 0.00033769806 0)
(0.49641465 0.00032289437 0)
(0.49358355 0.00030884542 0)
(0.49080267 0.00029550827 0)
(0.48806998 0.00028282626 0)
(0.48538355 0.00027075595 0)
(0.48274162 0.00025926164 0)
(0.48014249 0.00024831582 0)
(0.4775846 0.0002378833 0)
(0.47506647 0.00022793535 0)
(0.47258668 0.00021844599 0)
(0.47014384 0.00020939956 0)
(0.46773667 0.00020076918 0)
(0.46536394 0.00019253492 0)
(0.46302447 0.00018467318 0)
(0.46071712 0.00017716889 0)
(0.4584408 0.00017000202 0)
(0.45619446 0.00016316057 0)
(0.45397704 0.00015662692 0)
(0.45178754 0.00015039039 0)
(0.4496249 0.00014443915 0)
(0.44748809 0.00013876269 0)
(0.44537597 0.00013335493 0)
(0.44328744 0.00012820926 0)
(0.44122107 0.00012332195 0)
(0.4391757 0.00011870079 0)
(0.43714886 0.00011433387 0)
(0.43514011 0.00011028339 0)
(0.43314273 0.00010647708 0)
(0.43116176 0.00010318087 0)
(0.42917228 0.00010007225 0)
(0.42720754 9.8032616e-05 0)
(0.42517049 9.6431485e-05 0)
(0.42319505 9.7038501e-05 2.64645e-21)
(0.42094422 9.8643728e-05 5.5840741e-20)
(0.4190557 9.0149329e-05 0)
(0.41564455 0.00011398503 0)
(0.97291247 0.022362843 0)
(0.97733379 0.028798786 0)
(0.98367752 0.032370013 0)
(0.98987333 0.033117004 0)
(0.99486784 0.032284722 0)
(0.99860233 0.030768646 0)
(1.0012152 0.0291219 0)
(1.0030629 0.027578076 0)
(1.0042566 0.026069206 0)
(1.0051188 0.024611079 0)
(1.0048902 0.023227785 0)
(1.0036756 0.021896523 0)
(1.000777 0.020582011 0)
(0.99553633 0.019266785 0)
(0.9876659 0.017959153 0)
(0.97700404 0.016606868 0)
(0.96395775 0.015200331 0)
(0.94883534 0.01380597 0)
(0.93201498 0.012459779 0)
(0.91396262 0.011194536 0)
(0.89523268 0.010028022 0)
(0.87636143 0.008967509 0)
(0.85781032 0.0080138065 0)
(0.83991554 0.0071659907 0)
(0.82287521 0.0064218336 0)
(0.80677088 0.0057749555 0)
(0.79160981 0.0052128407 0)
(0.77736342 0.004721793 0)
(0.76398558 0.0042912631 0)
(0.75142194 0.0039111374 0)
(0.73961568 0.0035735793 0)
(0.72850898 0.0032735905 0)
(0.71804495 0.0030067253 0)
(0.70817064 0.0027683886 0)
(0.69883775 0.0025549205 0)
(0.68999948 0.0023637902 0)
(0.68161687 0.0021919502 0)
(0.67365224 0.0020367062 0)
(0.6660712 0.0018964716 0)
(0.65884298 0.0017692309 0)
(0.65194034 0.0016533983 0)
(0.64533778 0.0015478813 0)
(0.63901195 0.0014512869 0)
(0.63294212 0.0013626916 0)
(0.62710903 0.0012813599 0)
(0.62149517 0.0012063937 0)
(0.61608514 0.0011373187 0)
(0.61086479 0.0010734854 0)
(0.60582162 0.001014268 0)
(0.60094399 0.00095936753 0)
(0.59622092 0.00090826246 0)
(0.59164269 0.00086065404 0)
(0.58720011 0.0008162283 0)
(0.58288493 0.00077464916 0)
(0.57868961 0.00073577024 0)
(0.57460682 0.00069930079 0)
(0.57063026 0.00066509497 0)
(0.5667541 0.0006329698 0)
(0.56297321 0.00060274315 0)
(0.55928254 0.00057425576 0)
(0.55567746 0.00054734322 0)
(0.55215365 0.00052194598 0)
(0.54870712 0.00049793812 0)
(0.5453342 0.00047523271 0)
(0.54203141 0.00045373209 0)
(0.53879551 0.00043337519 0)
(0.53562354 0.00041408958 0)
(0.53251275 0.00039579304 0)
(0.52946052 0.00037841972 0)
(0.52646445 0.00036191201 0)
(0.52352226 0.00034622307 0)
(0.52063188 0.00033130041 0)
(0.51779126 0.00031710075 0)
(0.51499847 0.00030358283 0)
(0.5122517 0.00029071744 0)
(0.50954922 0.00027846448 0)
(0.50688942 0.00026679283 0)
(0.50427074 0.00025566771 0)
(0.50169169 0.00024506456 0)
(0.49915083 0.00023495372 0)
(0.4966468 0.00022531537 0)
(0.49417823 0.00021612368 0)
(0.49174383 0.00020736133 0)
(0.48934225 0.00019901019 0)
(0.48697223 0.00019105426 0)
(0.48463235 0.00018348285 0)
(0.48232126 0.00017628622 0)
(0.48003729 0.00016945643 0)
(0.47777902 0.00016300462 0)
(0.47554376 0.00015690948 0)
(0.47333076 0.00015126134 0)
(0.47113307 0.00014594488 0)
(0.46895535 0.00014135288 0)
(0.46677238 0.00013697248 0)
(0.4646167 0.0001341509 0)
(0.46239112 0.00013168864 0)
(0.46022769 0.0001327101 0)
(0.45778748 0.00013350742 0)
(0.455712 0.00012916373 1.1242558e-19)
(0.45201165 0.00014573105 0)
(0.97428199 0.021583888 0)
(0.97816812 0.027340797 0)
(0.98372819 0.030731586 0)
(0.98920366 0.031679536 0)
(0.99371903 0.031149992 0)
(0.99720167 0.029917175 0)
(0.99983406 0.028490061 0)
(1.0019182 0.027087556 0)
(1.0036289 0.025690974 0)
(1.004906 0.024338856 0)
(1.0058284 0.023057591 0)
(1.0064204 0.021825298 0)
(1.0067265 0.020653768 0)
(1.0065219 0.019563367 0)
(1.0056593 0.018539449 0)
(1.003966 0.017565689 0)
(1.000836 0.016633896 0)
(0.99591443 0.015720349 0)
(0.9889452 0.014812879 0)
(0.97980221 0.013870204 0)
(0.96862173 0.012884387 0)
(0.95556009 0.011892647 0)
(0.94088356 0.010913459 0)
(0.92499889 0.009967908 0)
(0.90841025 0.0090711715 0)
(0.8916137 0.0082343291 0)
(0.87502602 0.0074669233 0)
(0.85893958 0.0067738864 0)
(0.843517 0.0061572294 0)
(0.82882473 0.0056115523 0)
(0.81487627 0.0051271256 0)
(0.8016593 0.0046953927 0)
(0.78914716 0.0043092378 0)
(0.77730495 0.0039625378 0)
(0.76609334 0.0036509508 0)
(0.75546927 0.0033711459 0)
(0.74539237 0.0031190653 0)
(0.73582408 0.0028912964 0)
(0.72672683 0.0026854901 0)
(0.71806556 0.0024988275 0)
(0.70980855 0.0023290822 0)
(0.7019261 0.0021746347 0)
(0.69439057 0.0020335315 0)
(0.68717692 0.0019043939 0)
(0.68026182 0.0017860937 0)
(0.673624 0.0016773273 0)
(0.66724394 0.0015773006 0)
(0.6611037 0.0014850602 0)
(0.6551873 0.0013997138 0)
(0.64948 0.0013207732 0)
(0.64396802 0.0012475063 0)
(0.63863901 0.0011794397 0)
(0.63348135 0.0011161012 0)
(0.62848451 0.0010570029 0)
(0.62363877 0.0010018886 0)
(0.61893482 0.00095034803 0)
(0.61436448 0.00090212869 0)
(0.60992024 0.00085694613 0)
(0.60559529 0.00081453708 0)
(0.60138315 0.00077467737 0)
(0.59727788 0.00073713506 0)
(0.5932739 0.00070179357 0)
(0.58936611 0.00066846928 0)
(0.58554975 0.00063703164 0)
(0.58182022 0.00060733764 0)
(0.57817334 0.00057928165 0)
(0.57460539 0.00055275331 0)
(0.5711128 0.00052763973 0)
(0.56769218 0.00050384534 0)
(0.5643404 0.00048128357 0)
(0.56105453 0.00045988182 0)
(0.55783186 0.00043956437 0)
(0.5546698 0.00042026858 0)
(0.55156584 0.00040193364 0)
(0.54851767 0.00038451208 0)
(0.54552311 0.00036794674 0)
(0.5425801 0.00035219194 0)
(0.53968665 0.00033719859 0)
(0.53684088 0.00032292965 0)
(0.53404099 0.00030934319 0)
(0.53128524 0.00029640912 0)
(0.52857195 0.00028409111 0)
(0.5258995 0.00027236321 0)
(0.52326626 0.00026119908 0)
(0.52067066 0.00025057556 0)
(0.51811101 0.00024047582 0)
(0.51558571 0.00023088565 0)
(0.51309282 0.00022179164 0)
(0.51063067 0.00021320754 0)
(0.50819631 0.00020510131 0)
(0.50578874 0.00019759214 0)
(0.50340079 0.00019051894 0)
(0.50103668 0.00018440729 0)
(0.49867125 0.00017854412 0)
(0.49633584 0.00017476721 0)
(0.49393445 0.00017127081 0)
(0.49159564 0.00017264482 0)
(0.48898277 0.00017238967 0)
(0.48673604 0.00017347094 1.0056242e-19)
(0.48277131 0.00018008221 0)
(0.97571441 0.020873577 0)
(0.97905331 0.025999332 0)
(0.98392991 0.029239784 0)
(0.98886702 0.030366458 0)
(0.99303897 0.030096689 0)
(0.9963066 0.029112862 0)
(0.99882695 0.027873836 0)
(1.0008331 0.026595732 0)
(1.0024911 0.025304804 0)
(1.003846 0.024040774 0)
(1.0049549 0.022825681 0)
(1.0058493 0.021652619 0)
(1.0065075 0.020537599 0)
(1.0069314 0.019491726 0)
(1.0072672 0.018518054 0)
(1.0072481 0.017619755 0)
(1.0070667 0.016796829 0)
(1.0064913 0.016042853 0)
(1.0053884 0.015349311 0)
(1.003529 0.014701347 0)
(1.000484 0.014077041 0)
(0.99593633 0.01346495 0)
(0.98958838 0.012830637 0)
(0.98133284 0.012140261 0)
(0.97117734 0.011401295 0)
(0.95923271 0.010632362 0)
(0.94576141 0.0098526989 0)
(0.93118921 0.0090864224 0)
(0.91600794 0.0083470362 0)
(0.90067912 0.0076488551 0)
(0.88555875 0.0070028348 0)
(0.87087217 0.0064159206 0)
(0.85673495 0.0058885585 0)
(0.84319558 0.0054150193 0)
(0.83026872 0.0049884485 0)
(0.81794891 0.0046034408 0)
(0.80621867 0.0042547549 0)
(0.79505317 0.00393854 0)
(0.78442247 0.0036520692 0)
(0.77429525 0.003391865 0)
(0.76464096 0.0031551079 0)
(0.75542927 0.0029396402 0)
(0.74663097 0.0027429137 0)
(0.73821876 0.0025630479 0)
(0.73016662 0.0023984496 0)
(0.72245039 0.0022473592 0)
(0.71504752 0.0021086184 0)
(0.70793685 0.0019808994 0)
(0.70109925 0.0018629755 0)
(0.69451696 0.0017541033 0)
(0.68817342 0.0016532822 0)
(0.68205354 0.0015598221 0)
(0.67614322 0.0014730525 0)
(0.67042967 0.0013922957 0)
(0.66490096 0.0013171551 0)
(0.65954592 0.0012470655 0)
(0.65435431 0.0011816363 0)
(0.64931667 0.0011204603 0)
(0.6444244 0.0010631708 0)
(0.63966949 0.0010094543 0)
(0.63504455 0.0009589904 0)
(0.63054268 0.00091159008 0)
(0.62615748 0.0008669955 0)
(0.62188302 0.00082501822 0)
(0.61771364 0.00078545961 0)
(0.6136441 0.00074815834 0)
(0.60966973 0.00071295373 0)
(0.60578606 0.00067969251 0)
(0.60198889 0.00064824161 0)
(0.59827431 0.0006184777 0)
(0.59463864 0.00059029544 0)
(0.59107846 0.00056358939 0)
(0.58759057 0.00053827219 0)
(0.58417188 0.00051425756 0)
(0.58081952 0.00049147451 0)
(0.5775308 0.00046984495 0)
(0.57430314 0.00044930458 0)
(0.57113412 0.0004297863 0)
(0.56802141 0.00041123723 0)
(0.56496279 0.00039360013 0)
(0.56195617 0.00037683176 0)
(0.55899947 0.00036088282 0)
(0.55609075 0.00034571629 0)
(0.55322804 0.00033129553 0)
(0.55040946 0.00031758828 0)
(0.54763305 0.00030456974 0)
(0.54489689 0.00029221975 0)
(0.54219878 0.00028051794 0)
(0.5395368 0.00026947961 0)
(0.53690775 0.00025906073 0)
(0.53431033 0.00024940919 0)
(0.53173721 0.00024031649 0)
(0.52919213 0.00023244388 0)
(0.52665013 0.00022487309 0)
(0.5241412 0.00021994617 0)
(0.52157114 0.00021523055 0)
(0.5190644 0.00021685764 0)
(0.51628858 0.00021530832 -1.9762444e-20)
(0.51388114 0.00022295036 0)
(0.50966742 0.00021721077 -2.66206e-21)
(0.97718017 0.020247252 0)
(0.98004406 0.024782973 0)
(0.98428901 0.027830386 0)
(0.98874636 0.029095038 0)
(0.99264739 0.029074019 0)
(0.99578061 0.028331118 0)
(0.9982374 0.02727387 0)
(1.0001991 0.026120051 0)
(1.0018062 0.024927054 0)
(1.0031254 0.02373753 0)
(1.0042103 0.022580057 0)
(1.0051032 0.021459125 0)
(1.0058235 0.020391127 0)
(1.0063865 0.019381808 0)
(1.0068225 0.018443913 0)
(1.0071217 0.017579636 0)
(1.0073003 0.016777224 0)
(1.0073862 0.01604656 0)
(1.0073374 0.015389272 0)
(1.007164 0.014797065 0)
(1.006774 0.014259822 0)
(1.0060594 0.013771355 0)
(1.0048948 0.01331798 0)
(1.0029825 0.012883824 0)
(0.99996464 0.012451517 0)
(0.99551981 0.012005996 0)
(0.98934322 0.011511689 0)
(0.98135378 0.010946275 0)
(0.97153708 0.010331128 0)
(0.96003501 0.0096802655 0)
(0.9471792 0.0090160282 0)
(0.93343097 0.0083562032 0)
(0.91926559 0.0077181864 0)
(0.90507829 0.0071168749 0)
(0.89113868 0.0065619635 0)
(0.87759865 0.0060572828 0)
(0.86453345 0.0055995946 0)
(0.85197817 0.005183424 0)
(0.83994436 0.0048045323 0)
(0.8284281 0.00445867 0)
(0.8174158 0.0041427968 0)
(0.80688748 0.0038545722 0)
(0.79682026 0.0035910316 0)
(0.78719036 0.0033499066 0)
(0.77797313 0.0031291907 0)
(0.7691445 0.0029266705 0)
(0.76068118 0.0027408129 0)
(0.75256055 0.002569887 0)
(0.74476158 0.0024122907 0)
(0.73726431 0.0022669777 0)
(0.73004998 0.0021326324 0)
(0.72310118 0.0020083048 0)
(0.71640162 0.0018930773 0)
(0.70993635 0.0017860456 0)
(0.70369137 0.0016866333 0)
(0.69765359 0.0015940909 0)
(0.69181086 0.0015078715 0)
(0.68615186 0.0014274175 0)
(0.6806662 0.0013522289 0)
(0.6753442 0.0012818752 0)
(0.67017697 0.0012159269 0)
(0.66515618 0.0011541039 0)
(0.66027405 0.0010960578 0)
(0.65552342 0.0010415271 0)
(0.65089753 0.00099024237 0)
(0.64639009 0.00094197291 0)
(0.64199526 0.00089649705 0)
(0.63770765 0.0008536106 0)
(0.63352217 0.00081313276 0)
(0.62943407 0.00077489542 0)
(0.62543887 0.00073875278 0)
(0.62153241 0.00070456167 0)
(0.6177108 0.0006722022 0)
(0.6139703 0.00064155734 0)
(0.61030746 0.00061252756 0)
(0.606719 0.00058500852 0)
(0.60320182 0.00055891268 0)
(0.59975298 0.00053415078 0)
(0.5963697 0.00051065027 0)
(0.59304931 0.00048833508 0)
(0.58978928 0.00046714565 0)
(0.58658717 0.00044701675 0)
(0.58344064 0.00042789765 0)
(0.58034738 0.00040973894 0)
(0.57730517 0.00039249704 0)
(0.57431174 0.00037613719 0)
(0.57136486 0.00036063145 0)
(0.56846207 0.00034595085 0)
(0.56560112 0.00033211086 0)
(0.5627786 0.00031905416 0)
(0.55999288 0.00030695666 0)
(0.5572365 0.00029556121 0)
(0.55451268 0.00028566592 0)
(0.55179678 0.00027614486 0)
(0.54911733 0.00026985208 0)
(0.54638221 0.00026371598 0)
(0.54371167 0.00026546767 8.839156e-22)
(0.54077827 0.00026236714 0)
(0.53821706 0.00027763401 8.7018685e-20)
(0.53376395 0.0002572956 0)
(0.97861267 0.019684684 0)
(0.98109812 0.023701861 0)
(0.98478211 0.026530187 0)
(0.98878014 0.027870683 0)
(0.99241647 0.028057252 0)
(0.9954307 0.027536646 0)
(0.99784668 0.026659962 0)
(0.99979452 0.025637039 0)
(1.00139 0.024545075 0)
(1.0026982 0.023433148 0)
(1.0037713 0.022336181 0)
(1.0046512 0.021266275 0)
(1.0053656 0.020239738 0)
(1.0059366 0.019265162 0)
(1.0063867 0.018355871 0)
(1.0067383 0.017513968 0)
(1.0070032 0.016732781 0)
(1.007189 0.016021445 0)
(1.0073016 0.01537827 0)
(1.0073733 0.014795728 0)
(1.0073638 0.014269771 0)
(1.007312 0.013799334 0)
(1.007177 0.013376708 0)
(1.0069163 0.012991282 0)
(1.0064536 0.012635779 0)
(1.0056737 0.012303482 0)
(1.0044253 0.011983855 0)
(1.0023499 0.011664573 0)
(0.9991207 0.011331168 0)
(0.9943918 0.010957861 0)
(0.98795294 0.010516035 0)
(0.97971262 0.010010783 0)
(0.96972569 0.009456291 0)
(0.95824608 0.008871949 0)
(0.94569672 0.0082789501 0)
(0.93254993 0.0076949213 0)
(0.91921906 0.0071362992 0)
(0.9059972 0.0066142931 0)
(0.89305758 0.0061344605 0)
(0.88049306 0.0056952865 0)
(0.86835317 0.005292774 0)
(0.85666149 0.0049235669 0)
(0.84542434 0.0045842977 0)
(0.83463683 0.0042727055 0)
(0.82428657 0.0039867271 0)
(0.81435747 0.003723904 0)
(0.80483121 0.0034824676 0)
(0.79568796 0.0032603607 0)
(0.78690791 0.0030556406 0)
(0.77847124 0.0028669647 0)
(0.7703586 0.0026926837 0)
(0.7625516 0.0025315631 0)
(0.75503261 0.0023824075 0)
(0.74778522 0.0022440535 0)
(0.74079382 0.0021157154 0)
(0.73404371 0.0019964288 0)
(0.72752111 0.0018854664 0)
(0.72121307 0.0017820952 0)
(0.71510758 0.0016856572 0)
(0.70919337 0.0015955798 0)
(0.70346003 0.0015113014 0)
(0.69789781 0.0014324324 0)
(0.69249757 0.0013585145 0)
(0.68725086 0.0012891926 0)
(0.68214977 0.0012241108 0)
(0.6771869 0.0011629601 0)
(0.67235529 0.0011054453 0)
(0.66764854 0.0010512962 0)
(0.66306062 0.0010002737 0)
(0.65858588 0.00095215569 0)
(0.65421902 0.00090674727 0)
(0.64995506 0.00086385921 0)
(0.64578937 0.00082333122 0)
(0.64171756 0.00078500859 0)
(0.6377355 0.00074875722 0)
(0.6338393 0.00071444101 0)
(0.63002528 0.00068194394 0)
(0.62628999 0.00065114981 0)
(0.6226301 0.00062196209 0)
(0.6190425 0.00059428196 0)
(0.6155242 0.0005680299 0)
(0.61207233 0.00054312147 0)
(0.60868414 0.00051948918 0)
(0.60535696 0.00049706811 0)
(0.6020882 0.00047580082 0)
(0.59887524 0.00045564031 0)
(0.59571555 0.00043654877 0)
(0.59260633 0.0004184868 0)
(0.58954508 0.00040146838 0)
(0.58652809 0.00038542149 0)
(0.58355343 0.00037054894 0)
(0.58061349 0.00035654392 0)
(0.57771097 0.00034434138 0)
(0.57482159 0.00033260679 0)
(0.5719724 0.00032471034 0)
(0.56907347 0.00031693367 0)
(0.56624094 0.00031865623 0)
(0.56315245 0.00031372561 0)
(0.5604418 0.00033764251 0)
(0.55575498 0.00030052442 0)
(0.97996926 0.019164979 0)
(0.98215789 0.022735366 0)
(0.98536625 0.025346363 0)
(0.98893492 0.026715492 0)
(0.99229764 0.027061649 0)
(0.99517847 0.026733878 0)
(0.99754764 0.026027556 0)
(0.99948662 0.025136239 0)
(1.0010844 0.024147961 0)
(1.0023989 0.023117731 0)
(1.0034784 0.022085067 0)
(1.0043631 0.021068075 0)
(1.0050818 0.020084299 0)
(1.0056585 0.019145218 0)
(1.0061155 0.018263412 0)
(1.0064767 0.017443357 0)
(1.0067573 0.016681369 0)
(1.0069682 0.015984582 0)
(1.0071229 0.015351728 0)
(1.0072379 0.014779318 0)
(1.0073137 0.014263293 0)
(1.0073575 0.013797599 0)
(1.007383 0.013378105 0)
(1.0073766 0.012998676 0)
(1.0073376 0.012654001 0)
(1.007245 0.012340136 0)
(1.0070722 0.012051669 0)
(1.0067626 0.011781781 0)