/*--------------------------------*- C++ -*----------------------------------*\
| =========                 |                                                 |
| \\      /  F ield         | OpenFOAM: The Open Source CFD Toolbox           |
|  \\    /   O peration     | Version:  2206                                  |
|   \\  /    A nd           | Website:  www.openfoam.com                      |
|    \\/     M anipulation  |                                                 |
\*---------------------------------------------------------------------------*/
FoamFile
{
    version     2.0;
    format      ascii;
    arch        "LSB;label=32;scalar=64";
    class       volScalarField;
    location    "1300";
    object      epsilon;
}
// * * * * * * * * * * * * * * * * * * * * * * * * * * * * * * * * * * * * * //

dimensions      [0 2 -3 0 0 0 0];

internalField   nonuniform List<scalar> 
13056
(
0.0080008523
0.0078925783
0.0078318713
0.0078003867
0.0077810604
0.0077675513
0.0077574932
0.007749766
0.0077437173
0.0077389269
0.0077351121
0.0077320804
0.0077297036
0.0077279032
0.0077266484
0.0077259547
0.00772593
0.0077267337
0.0077290211
0.0077330893
0.0077432619
0.0077633328
0.0077810451
0.0099388368
0.030075458
0.0017772154
0.0049876364
0.00035567223
0.0018478167
0.00017417512
0.0010485399
0.00010834122
0.00069697923
0.00052812512
0.00050313801
0.00041936621
0.00038101574
0.00033455537
0.00030172768
0.00027150822
0.00024651521
0.00022466423
0.00020572962
0.00018912206
0.00017447492
0.00016147883
0.00014988556
0.00013949276
0.000130134
0.00012167165
0.00011399044
0.00010699326
0.00010059812
9.4735073e-05
8.9344445e-05
8.4375003e-05
7.9782228e-05
7.5527418e-05
7.1576915e-05
6.790122e-05
6.4474365e-05
6.1273546e-05
5.8278636e-05
5.5471626e-05
5.2836464e-05
5.0358864e-05
4.8026026e-05
4.5826448e-05
4.3749759e-05
4.1786685e-05
3.9928847e-05
3.8168552e-05
3.6498823e-05
3.4913351e-05
3.3406362e-05
3.1972597e-05
3.060722e-05
2.9305816e-05
2.8064415e-05
2.6879284e-05
2.5746943e-05
2.4664243e-05
2.3628265e-05
2.2636305e-05
2.1685863e-05
2.0774612e-05
1.9900429e-05
1.9061347e-05
1.825549e-05
1.7481115e-05
1.6736619e-05
1.6020497e-05
1.5331348e-05
1.4667854e-05
1.4028788e-05
1.3413042e-05
1.2819532e-05
1.2247233e-05
1.1695209e-05
1.1162571e-05
1.0648486e-05
1.015217e-05
9.6728874e-06
9.2099677e-06
8.7627526e-06
8.3306216e-06
7.9130003e-06
7.5093437e-06
7.1191309e-06
6.7418828e-06
6.3771494e-06
6.0243771e-06
5.6835202e-06
5.3626177e-06
5.0699205e-06
4.8039444e-06
4.5612198e-06
4.339163e-06
4.135344e-06
3.9476974e-06
3.774435e-06
3.6140001e-06
3.4650369e-06
3.3263634e-06
3.1969335e-06
3.0758088e-06
2.9621475e-06
2.855166e-06
2.7541582e-06
2.6583411e-06
2.5671544e-06
2.4792364e-06
2.3951983e-06
2.3083658e-06
2.2349715e-06
2.1273448e-06
0.0079995004
0.0078911283
0.0078303614
0.0077988436
0.0077794961
0.0077659716
0.0077559017
0.007748165
0.0077421084
0.007737311
0.0077334897
0.0077304517
0.0077280683
0.0077262605
0.0077249967
0.0077242918
0.0077242518
0.0077250344
0.0077272875
0.0077313088
0.0077413677
0.0077613145
0.0077782782
0.0099360438
0.029500169
0.001761347
0.0048964317
0.00035233352
0.0018189437
0.00017324913
0.0010340809
0.00010950187
0.00068844843
0.00052281187
0.00049761837
0.00041535126
0.00037736677
0.00033165837
0.00029924096
0.00026945218
0.00024478465
0.00022322134
0.00020452765
0.00018812781
0.00017365997
0.00016081967
0.00014936248
0.00013908911
0.00012983562
0.00012146644
0.00011386795
0.00010694449
0.00010061521
9.4811171e-05
8.9473534e-05
8.4551777e-05
8.0001996e-05
7.5786016e-05
7.1870632e-05
6.8226741e-05
6.4828722e-05
6.1654069e-05
5.8682916e-05
5.5897487e-05
5.3281935e-05
5.0822145e-05
4.8505488e-05
4.6320603e-05
4.4257247e-05
4.230626e-05
4.0459363e-05
3.8708958e-05
3.704815e-05
3.5470703e-05
3.3970912e-05
3.2543578e-05
3.1183922e-05
2.9887578e-05
2.865062e-05
2.7469359e-05
2.6340352e-05
2.5260484e-05
2.4226868e-05
2.323683e-05
2.2287895e-05
2.1377761e-05
2.0504325e-05
1.9665643e-05
1.8859858e-05
1.8085242e-05
1.734021e-05
1.6623269e-05
1.5933033e-05
1.5268195e-05
1.4627541e-05
1.4009972e-05
1.3414414e-05
1.283985e-05
1.2285352e-05
1.1750037e-05
1.1233081e-05
1.0733702e-05
1.0251172e-05
9.7848238e-06
9.3340013e-06
8.898089e-06
8.4765157e-06
8.0687387e-06
7.6742394e-06
7.2925402e-06
6.9231926e-06
6.5656481e-06
6.2198545e-06
5.8939552e-06
5.5963815e-06
5.3257451e-06
5.0785751e-06
4.8522712e-06
4.6443896e-06
4.4528505e-06
4.2758537e-06
4.1118316e-06
3.959418e-06
3.8174215e-06
3.6847875e-06
3.5605695e-06
3.4439176e-06
3.3340412e-06
3.230226e-06
3.1316782e-06
3.037829e-06
2.9472889e-06
2.8606847e-06
2.7711881e-06
2.6954449e-06
2.5844482e-06
0.0079952088
0.0078865322
0.0078255806
0.0077939608
0.0077745482
0.0077609772
0.0077508719
0.0077431071
0.0077370277
0.0077322112
0.0077283734
0.0077253204
0.0077229228
0.0077211008
0.0077198218
0.0077190993
0.0077190371
0.007719791
0.007721999
0.0077259604
0.0077358742
0.0077556748
0.0077716221
0.0099274991
0.02892918
0.0017454736
0.0048047601
0.00034894758
0.0017897927
0.0001722973
0.0010194329
0.00011065352
0.00067977714
0.00051735061
0.00049199464
0.00041123012
0.00037363157
0.00032867697
0.0002966794
0.00026732543
0.00024298877
0.00022171715
0.00020326824
0.00018707947
0.00017279395
0.00016011218
0.00014879356
0.00013864188
0.00012949574
0.00012122163
0.00011370764
0.00010685952
0.00010059762
9.4854008e-05
8.9570683e-05
8.4697849e-05
8.0192223e-05
7.6016166e-05
7.2136933e-05
6.8525821e-05
6.515756e-05
6.2009948e-05
5.9063384e-05
5.6300328e-05
5.3705138e-05
5.1263881e-05
4.8964093e-05
4.679456e-05
4.474517e-05
4.2806876e-05
4.0971504e-05
3.923155e-05
3.7580203e-05
3.6011303e-05
3.4519213e-05
3.3098797e-05
3.1745332e-05
3.0454503e-05
2.922243e-05
2.8045465e-05
2.6920207e-05
2.5843575e-05
2.4812714e-05
2.3824978e-05
2.287792e-05
2.1969265e-05
2.109693e-05
2.0258992e-05
1.9453613e-05
1.8679085e-05
1.7933836e-05
1.7216389e-05
1.6525372e-05
1.5859491e-05
1.5217543e-05
1.4598438e-05
1.4001114e-05
1.3424562e-05
1.2867861e-05
1.2330137e-05
1.181057e-05
1.1308386e-05
1.0822862e-05
1.0353333e-05
9.8991473e-06
9.459694e-06
9.0344052e-06
8.6227406e-06
8.2241837e-06
7.8382591e-06
7.4645195e-06
7.1024214e-06
6.7519067e-06
6.421218e-06
6.1189611e-06
5.8438425e-06
5.5923915e-06
5.361993e-06
5.1501902e-06
4.9548906e-06
4.7742825e-06
4.6067883e-06
4.4510323e-06
4.3058144e-06
4.1700722e-06
4.0428513e-06
3.9232946e-06
3.8106045e-06
3.7040593e-06
3.6028547e-06
3.5064137e-06
3.4133202e-06
3.3242159e-06
3.2321231e-06
3.1540893e-06
3.0398064e-06
0.0079878426
0.007878645
0.0078173779
0.0077855839
0.0077660604
0.00775241
0.0077422445
0.0077344325
0.0077283149
0.0077234668
0.0077196021
0.0077165257
0.0077141067
0.0077122642
0.0077109646
0.0077102198
0.0077101312
0.0077108521
0.0077130106
0.0077169077
0.0077266658
0.007746323
0.0077611133
0.0099131562
0.028354839
0.0017293852
0.0047113699
0.00034546097
0.0017599449
0.0001712918
0.0010043732
0.00011177512
0.00067082455
0.00051164176
0.00048616917
0.00040692439
0.00036973873
0.00032554995
0.00029398818
0.00026507938
0.00024108394
0.00022011234
0.00020191578
0.00018594461
0.00017184726
0.0001593292
0.00014815379
0.00013812801
0.00012909302
0.00012091743
0.00011349108
0.00010672119
0.00010052932
9.4848575e-05
8.9621822e-05
8.4800009e-05
8.034049e-05
7.6206174e-05
7.2364791e-05
6.8788048e-05
6.545104e-05
6.2331873e-05
5.9411222e-05
5.6671787e-05
5.4098141e-05
5.1676535e-05
4.9394677e-05
4.7241504e-05
4.5207038e-05
4.328235e-05
4.1459374e-05
3.9730703e-05
3.8089612e-05
3.653002e-05
3.5046361e-05
3.3633563e-05
3.2286961e-05
3.1002292e-05
2.9775726e-05
2.8603657e-05
2.7482725e-05
2.6409885e-05
2.5382316e-05
2.4397402e-05
2.3452726e-05
2.2546036e-05
2.1675273e-05
2.0838535e-05
2.0034007e-05
1.9259995e-05
1.8514947e-05
1.7797402e-05
1.7105999e-05
1.6439459e-05
1.579659e-05
1.5176313e-05
1.4577578e-05
1.3999385e-05
1.3440819e-05
1.2901015e-05
1.2379159e-05
1.1874484e-05
1.1386272e-05
1.0913863e-05
1.0456608e-05
1.0013901e-05
9.5851776e-06
9.1699004e-06
8.7675554e-06
8.3776689e-06
7.9997955e-06
7.6333966e-06
7.2784084e-06
6.9431673e-06
6.6364464e-06
6.3570466e-06
6.1014996e-06
5.867177e-06
5.6516107e-06
5.4526967e-06
5.2686133e-06
5.0977739e-06
4.938794e-06
4.7904659e-06
4.6517197e-06
4.5215942e-06
4.3992253e-06
4.2838091e-06
4.1746171e-06
4.0708348e-06
3.9718777e-06
3.8763037e-06
3.7847695e-06
3.6901523e-06
3.6098898e-06
3.4924078e-06
0.0079771904
0.0078672401
0.0078055168
0.007773471
0.0077537873
0.0077400225
0.0077297703
0.0077218901
0.0077157178
0.0077108247
0.0077069222
0.007703813
0.0077013649
0.0076994954
0.0076981693
0.007697397
0.0076972771
0.0076979606
0.0077000647
0.0077038925
0.007713483
0.0077329994
0.0077464784
0.0098926364
0.027770205
0.0017128865
0.0046150631
0.00034182064
0.0017289924
0.00017020406
0.0009886822
0.00011284335
0.00066145066
0.00050558478
0.00048004424
0.00040235482
0.00036561616
0.00032221512
0.0002911115
0.00026266438
0.00023902538
0.00021836645
0.00020043342
0.00018468959
0.00017078901
0.00015844231
0.00014741693
0.00013752316
0.00012860483
0.00012053276
0.0001131986
0.00010651108
0.00010039303
9.477864e-05
8.9611672e-05
8.4843847e-05
8.0433184e-05
7.6343164e-05
7.2542009e-05
6.9001856e-05
6.5698176e-05
6.26094e-05
5.9716487e-05
5.7002392e-05
5.4451908e-05
5.205148e-05
4.9788996e-05
4.765355e-05
4.5635304e-05
4.3725452e-05
4.1916042e-05
4.0199766e-05
3.8569992e-05
3.7020719e-05
3.5546457e-05
3.4142201e-05
3.2803347e-05
3.1525687e-05
3.0305439e-05
2.9139047e-05
2.8023191e-05
2.6954864e-05
2.5931281e-05
2.4949858e-05
2.4008207e-05
2.3104103e-05
2.2235512e-05
2.1400556e-05
2.0597437e-05
1.9824485e-05
1.9080164e-05
1.8363027e-05
1.7671731e-05
1.700501e-05
1.6361684e-05
1.5740687e-05
1.5140979e-05
1.4561568e-05
1.4001551e-05
1.3460069e-05
1.2936316e-05
1.2429531e-05
1.1939002e-05
1.1464074e-05
1.1004102e-05
1.0558484e-05
1.0126661e-05
9.7080981e-06
9.3022835e-06
8.9087462e-06
8.5270425e-06
8.1566392e-06
7.7974666e-06
7.4579484e-06
7.1470175e-06
6.8635687e-06
6.6041385e-06
6.3660876e-06
6.1469385e-06
5.9445772e-06
5.7571735e-06
5.5831329e-06
5.4210637e-06
5.2697509e-06
5.1281185e-06
4.995199e-06
4.870122e-06
4.7520781e-06
4.6403323e-06
4.5340607e-06
4.4326718e-06
4.3346984e-06
4.2408122e-06
4.14375e-06
4.0613273e-06
3.940742e-06
0.0079629668
0.0078520105
0.0077896774
0.0077572951
0.0077373973
0.0077234796
0.0077131114
0.0077051406
0.0076988954
0.0076939427
0.0076899902
0.0076868382
0.0076843524
0.0076824485
0.0076810896
0.0076802841
0.0076801278
0.0076807689
0.007682813
0.0076865661
0.007695976
0.007715354
0.0077273523
0.0098654308
0.027168989
0.0016957958
0.0045146875
0.00033797342
0.0016965345
0.00016900424
0.00097214177
0.00011383178
0.00065151484
0.00049907699
0.0004735209
0.00039744035
0.0003611902
0.00031860849
0.00028799182
0.00026002897
0.00023676651
0.00021643716
0.00019878253
0.00018327898
0.00016958657
0.00015742132
0.00014655498
0.00013680128
0.00012800687
0.00012004487
0.00011280884
0.00010620911
0.00010016985
9.4626357e-05
8.9523355e-05
8.4813376e-05
8.0455137e-05
7.6412722e-05
7.2654872e-05
6.9154175e-05
6.5886499e-05
6.2830617e-05
5.9967789e-05
5.7281237e-05
5.4755989e-05
5.2378692e-05
5.0137425e-05
4.8021448e-05
4.602107e-05
4.4127618e-05
4.2333256e-05
4.0630785e-05
3.9013668e-05
3.7475993e-05
3.6012346e-05
3.4617794e-05
3.3287799e-05
3.201821e-05
3.0805299e-05
2.9645558e-05
2.8535713e-05
2.7472798e-05
2.6454063e-05
2.5476961e-05
2.4539134e-05
2.3638386e-05
2.2772709e-05
2.1940248e-05
2.113923e-05
2.0368005e-05
1.9625054e-05
1.8908949e-05
1.8218363e-05
1.7552045e-05
1.6908827e-05
1.6287658e-05
1.5687507e-05
1.5107395e-05
1.4546427e-05
1.4003752e-05
1.3478574e-05
1.2970138e-05
1.2477739e-05
1.2000727e-05
1.1538459e-05
1.1090342e-05
1.065582e-05
1.023436e-05
9.8254558e-06
9.4286375e-06
9.0434637e-06
8.6694071e-06
8.3063921e-06
7.9629222e-06
7.6480805e-06
7.3608558e-06
7.0977926e-06
6.8562431e-06
6.6337228e-06
6.4281098e-06
6.237567e-06
6.0604937e-06
5.8954919e-06
5.741341e-06
5.5969595e-06
5.4613746e-06
5.3337105e-06
5.213153e-06
5.0989613e-06
4.9903029e-06
4.8865797e-06
4.7863009e-06
4.6901525e-06
4.590737e-06
4.5062332e-06
4.3826547e-06
0.0079448137
0.0078325717
0.0077694585
0.0077366458
0.007716474
0.0077023608
0.0076918446
0.0076837578
0.0076774198
0.0076723911
0.0076683753
0.0076651693
0.0076626363
0.00766069
0.0076592911
0.0076584462
0.0076582476
0.0076588408
0.0076608188
0.0076644913
0.0076737061
0.0076929487
0.0077032797
0.0098309069
0.026545531
0.0016779447
0.0044091329
0.00033386564
0.0016621759
0.00016766088
0.00095453364
0.00011471011
0.00064087489
0.00049201296
0.00046649833
0.00039209747
0.00035638503
0.00031466372
0.00028456931
0.00025711936
0.0002342585
0.00021427995
0.00019692227
0.00018167515
0.00016820513
0.00015623393
0.00014553784
0.00013593424
0.00012727278
0.00011942899
0.0001122985
0.00010579329
9.9838955e-05
9.4371988e-05
8.9338129e-05
8.4690769e-05
8.0389367e-05
7.6398645e-05
7.2687897e-05
6.9230193e-05
6.600182e-05
6.2981917e-05
6.0152063e-05
5.7495764e-05
5.4998299e-05
5.2646532e-05
5.0428745e-05
4.8334374e-05
4.6353886e-05
4.4478748e-05
4.2701249e-05
4.1014307e-05
3.9411486e-05
3.7886967e-05
3.6435422e-05
3.5051992e-05
3.373221e-05
3.2471987e-05
3.1267651e-05
3.0115747e-05
2.901305e-05
2.7956637e-05
2.6943798e-05
2.5972023e-05
2.5038987e-05
2.4142527e-05
2.328066e-05
2.245156e-05
2.1653477e-05
2.0884783e-05
2.0143979e-05
1.9429659e-05
1.8740509e-05
1.8075296e-05
1.7432867e-05
1.6812184e-05
1.621223e-05
1.5632036e-05
1.5070718e-05
1.4527434e-05
1.4001397e-05
1.349186e-05
1.2998124e-05
1.2519547e-05
1.205549e-05
1.1605365e-05
1.1168621e-05
1.0744731e-05
1.0333189e-05
9.9335313e-06
9.5453174e-06
9.1680262e-06
8.8015767e-06
8.4545425e-06
8.1361464e-06
7.845471e-06
7.5790727e-06
7.3342981e-06
7.1086585e-06
6.9000265e-06
6.7065603e-06
6.5266546e-06
6.3589069e-06
6.2020921e-06
6.0551247e-06
5.9170275e-06
5.7869204e-06
5.663985e-06
5.5474758e-06
5.4365526e-06
5.3306112e-06
5.2281388e-06
5.1298351e-06
5.0281755e-06
4.9416849e-06
4.8152441e-06
0.0079223031
0.0078084637
0.0077443802
0.0077110318
0.0076905193
0.0076761628
0.0076654625
0.0076572316
0.0076507783
0.0076456555
0.0076415613
0.0076382889
0.0076356982
0.0076337003
0.0076322536
0.0076313623
0.0076311149
0.007631654
0.0076335591
0.0076371444
0.0076461485
0.0076652594
0.0076737167
0.0097883151
0.025894807
0.0016591791
0.0042973346
0.00032944293
0.0016255272
0.00016614069
0.00093563927
0.00011544386
0.00062938673
0.00048428419
0.0004588734
0.00038623997
0.00035112234
0.00031031186
0.00028078163
0.00025387928
0.00023144999
0.0002118478
0.00019480934
0.00017983806
0.00016660753
0.0001548455
0.00014433312
0.00013489166
0.00012637398
0.00011865819
0.00011164209
0.00010523947
9.9377432e-05
9.3993745e-05
8.9035235e-05
8.4456212e-05
8.0216931e-05
7.6282799e-05
7.2623701e-05
6.921322e-05
6.6028098e-05
6.3047863e-05
6.0254438e-05
5.7631635e-05
5.5164999e-05
5.284163e-05
5.0650026e-05
4.8579813e-05
4.662163e-05
4.476709e-05
4.3008622e-05
4.1339266e-05
3.9752698e-05
3.8243197e-05
3.6805526e-05
3.543491e-05
3.4126954e-05
3.287764e-05
3.1683355e-05
3.0540702e-05
2.9446508e-05
2.8397896e-05
2.7392201e-05
2.6426951e-05
2.5499859e-05
2.4608796e-05
2.3751808e-05
2.2927098e-05
2.2132943e-05
2.1367738e-05
2.0630008e-05
1.9918364e-05
1.9231516e-05
1.8568245e-05
1.7927415e-05
1.7308003e-05
1.6709005e-05
1.6129467e-05
1.5568513e-05
1.5025314e-05
1.4499092e-05
1.3989108e-05
1.3494672e-05
1.3015148e-05
1.2549903e-05
1.2098355e-05
1.1659959e-05
1.1234193e-05
1.0820556e-05
1.0418584e-05
1.0027843e-05
9.6478174e-06
9.2784206e-06
8.9282854e-06
8.6067611e-06
8.3130244e-06
8.0436475e-06
7.7959755e-06
7.5675185e-06
7.3561468e-06
7.160016e-06
6.9775185e-06
6.8072492e-06
6.6479802e-06
6.4986232e-06
6.3581981e-06
6.2258215e-06
6.100672e-06
5.9820004e-06
5.8689596e-06
5.7609403e-06
5.6564095e-06
5.55608e-06
5.4523083e-06
5.3639451e-06
5.2348012e-06
0.0078949391
0.007779153
0.0077138851
0.007679883
0.0076589545
0.0076443011
0.007633376
0.0076249695
0.0076183756
0.0076131381
0.0076089487
0.0076055958
0.0076029354
0.0076008758
0.0075993725
0.0075984268
0.0075981234
0.0075986016
0.0076004264
0.0076039171
0.0076126934
0.0076316773
0.0076380319
0.009736796
0.025212475
0.0016393612
0.0041782805
0.0003246503
0.0015862055
0.00016440849
0.00091524041
0.00011599417
0.00061690462
0.00047577943
0.00045054086
0.000379779
0.00034532142
0.00030548142
0.00027656391
0.00025024988
0.00022828717
0.00020909123
0.00019239802
0.00017772529
0.00016475423
0.00015321906
0.00014290613
0.00013364092
0.00012527967
0.00011770333
0.00011081199
0.0001045214
9.876028e-05
9.3467774e-05
8.8591873e-05
8.408788e-05
7.9916905e-05
7.6045094e-05
7.2442967e-05
6.9084665e-05
6.5947416e-05
6.3011169e-05
6.0258218e-05
5.7672705e-05
5.5240465e-05
5.2948853e-05
5.0786598e-05
4.8743534e-05
4.6810482e-05
4.497922e-05
4.3242323e-05
4.1592963e-05
4.0024939e-05
3.8532637e-05
3.7110919e-05
3.5755099e-05
3.4460863e-05
3.3224267e-05
3.2041764e-05
3.091002e-05
2.9825917e-05
2.8786631e-05
2.7789544e-05
2.6832227e-05
2.5912432e-05
2.5028068e-05
2.4177214e-05
2.3358103e-05
2.2569043e-05
2.1808454e-05
2.1074885e-05
2.0366971e-05
1.9683441e-05
1.9023097e-05
1.8384819e-05
1.7767602e-05
1.7170456e-05
1.6592441e-05
1.6032696e-05
1.5490401e-05
1.4964788e-05
1.4455131e-05
1.3960747e-05
1.3481008e-05
1.3015286e-05
1.2563009e-05
1.2123637e-05
1.1696653e-05
1.128156e-05
1.0877901e-05
1.0485243e-05
1.0103077e-05
9.7313138e-06
9.3786302e-06
9.0544867e-06
8.7581538e-06
8.4862252e-06
8.2360482e-06
8.005136e-06
7.7913596e-06
7.5928752e-06
7.4080755e-06
7.2355547e-06
7.0740841e-06
6.9225744e-06
6.7800441e-06
6.6456078e-06
6.5184426e-06
6.3977962e-06
6.2828164e-06
6.1728896e-06
6.0664647e-06
5.9642669e-06
5.858544e-06
5.7684471e-06
5.636795e-06
0.0078621593
0.0077440342
0.007677341
0.0076425517
0.0076211223
0.0076061115
0.0075949159
0.0075862979
0.007579535
0.0075741597
0.0075698561
0.0075664067
0.0075636633
0.0075615305
0.0075599605
0.0075589516
0.0075585841
0.0075589937
0.0075607299
0.0075641181
0.0075726477
0.0075915104
0.0075955081
0.0096753888
0.024494951
0.0016183728
0.0040510269
0.00031943229
0.0015438394
0.00016242732
0.00089312081
0.000116318
0.00060328216
0.00046638538
0.0004413939
0.00037262365
0.00033889953
0.00030009869
0.0002718491
0.00024617012
0.00022471396
0.00020595851
0.00018964037
0.0001752922
0.00016260351
0.00015131546
0.00014122005
0.00013214724
0.00012395697
0.0001165332
0.00010977853
0.00010361081
9.7960505e-05
9.2768256e-05
8.7983307e-05
8.3562036e-05
7.9466477e-05
7.5663575e-05
7.2124542e-05
6.8824118e-05
6.5740059e-05
6.2852772e-05
6.0144954e-05
5.7601101e-05
5.5207366e-05
5.2951379e-05
5.0822123e-05
4.8809655e-05
4.6904995e-05
4.5100099e-05
4.3387701e-05
4.1761121e-05
4.0214286e-05
3.8741702e-05
3.7338338e-05
3.5999603e-05
3.4721276e-05
3.3499491e-05
3.2330773e-05
3.1211855e-05
3.0139683e-05
2.9111489e-05
2.8124705e-05
2.7176951e-05
2.6266023e-05
2.5389868e-05
2.4546605e-05
2.3734498e-05
2.2951887e-05
2.2197223e-05
2.146908e-05
2.076612e-05
2.0087092e-05
1.943082e-05
1.8796207e-05
1.8182261e-05
1.7588012e-05
1.7012536e-05
1.6454983e-05
1.5914549e-05
1.5390477e-05
1.4882052e-05
1.43886e-05
1.3909504e-05
1.3444141e-05
1.2991949e-05
1.2552395e-05
1.2124967e-05
1.1709175e-05
1.1304566e-05
1.0910711e-05
1.052711e-05
1.0153667e-05
9.7990901e-06
9.472932e-06
9.1745562e-06
8.9005839e-06
8.6483698e-06
8.4154345e-06
8.1996538e-06
7.999188e-06
7.8124327e-06
7.6379843e-06
7.4746154e-06
7.3212378e-06
7.1768703e-06
7.0406272e-06
6.9116852e-06
6.789291e-06
6.672588e-06
6.5609599e-06
6.4528401e-06
6.348965e-06
6.2414866e-06
6.1498247e-06
6.0159025e-06
0.0078233371
0.0077024324
0.0076340418
0.0075983146
0.0075762885
0.0075608519
0.0075493341
0.0075404642
0.0075335
0.0075279608
0.0075235214
0.0075199577
0.0075171161
0.0075148971
0.0075132491
0.007512167
0.0075117262
0.0075120588
0.0075136971
0.0075169741
0.0075252363
0.0075439852
0.0075453434
0.0096030397
0.023739503
0.0015961198
0.0039147195
0.00031373353
0.001498074
0.00016015878
0.00086906912
0.00011636852
0.00058837399
0.0004559881
0.00043132529
0.00036468185
0.00033177279
0.00029408855
0.00026656863
0.00024157729
0.00022067259
0.0002023962
0.00018648664
0.00017249235
0.00016011182
0.00014909377
0.00013923623
0.00013037407
0.00012237118
0.00011511481
0.00010851027
0.00010247766
9.6949374e-05
9.1867648e-05
8.7183092e-05
8.285325e-05
7.8841159e-05
7.5114632e-05
7.164563e-05
6.8409546e-05
6.5384708e-05
6.2552022e-05
5.9894621e-05
5.7397391e-05
5.5046828e-05
5.2830861e-05
5.0738752e-05
4.8760799e-05
4.688824e-05
4.5113225e-05
4.3428662e-05
4.182803e-05
4.0305399e-05
3.8855404e-05
3.7473131e-05
3.6154096e-05
3.4894175e-05
3.3689588e-05
3.2536943e-05
3.1433044e-05
3.0374907e-05
2.9359824e-05
2.8385285e-05
2.7448962e-05
2.6548698e-05
2.5682486e-05
2.4848483e-05
2.4044991e-05
2.3270386e-05
2.2523151e-05
2.180189e-05
2.110529e-05
2.0432128e-05
1.978125e-05
1.9151581e-05
1.854215e-05
1.7952005e-05
1.7380239e-05
1.6826018e-05
1.6288552e-05
1.57671e-05
1.5260955e-05
1.476946e-05
1.4292002e-05
1.382797e-05
1.3376811e-05
1.2938e-05
1.2511032e-05
1.2095424e-05
1.1690727e-05
1.1296519e-05
1.0912307e-05
1.0537993e-05
1.0182293e-05
9.8548318e-06
9.5550657e-06
9.2796496e-06
9.0259514e-06
8.7915046e-06
8.5741943e-06
8.3721886e-06
8.1838897e-06
8.0078992e-06
7.8429934e-06
7.6880876e-06
7.5422029e-06
7.4044552e-06
7.2740228e-06
7.1501523e-06
7.0319853e-06
6.9189036e-06
6.8093284e-06
6.7040059e-06
6.595008e-06
6.5019843e-06
6.3660808e-06
0.0077777835
0.0076536046
0.0075832096
0.0075463744
0.0075236433
0.0075077037
0.0074958051
0.0074866378
0.0074794359
0.0074737033
0.0074691038
0.0074654054
0.0074624486
0.0074601287
0.0074583901
0.0074572235
0.0074566992
0.007456945
0.0074584752
0.0074616314
0.0074696036
0.0074882476
0.0074866523
0.0095186122
0.022944369
0.0015725375
0.0037686234
0.00030749947
0.0014485804
0.00015756352
0.0008428832
0.0001160959
0.00057203842
0.00044447491
0.00042022913
0.00035586191
0.00032385741
0.00028737554
0.0002606534
0.00023640798
0.00021610444
0.00019834985
0.00018288607
0.00016927817
0.00015723447
0.00014651181
0.00013691479
0.00012828356
0.00012048633
0.00011341386
0.00010697443
0.0001010906
9.5696821e-05
9.0737071e-05
8.616345e-05
8.1934761e-05
7.8015136e-05
7.437333e-05
7.0982118e-05
6.7817603e-05
6.4858738e-05
6.208697e-05
5.9485909e-05
5.7040864e-05
5.4738705e-05
5.2567693e-05
5.0517385e-05
4.8578349e-05
4.6742059e-05
4.5000876e-05
4.3347898e-05
4.1776779e-05
4.0281746e-05
3.8857573e-05
3.7499476e-05
3.6203088e-05
3.4964389e-05
3.3779698e-05
3.2645708e-05
3.1559306e-05
3.0517582e-05
2.9517894e-05
2.8557797e-05
2.7635019e-05
2.6747456e-05
2.589315e-05
2.5070302e-05
2.4277256e-05
2.3512425e-05
2.2774329e-05
2.2061603e-05
2.1372966e-05
2.0707223e-05
2.0063246e-05
1.9439982e-05
1.8836485e-05
1.8251823e-05
1.7685107e-05
1.7135522e-05
1.6602294e-05
1.6084696e-05
1.5582038e-05
1.5093672e-05
1.4618999e-05
1.4157416e-05
1.3708383e-05
1.3271382e-05
1.2845918e-05
1.2431513e-05
1.2027728e-05
1.1634145e-05
1.125028e-05
1.0876032e-05
1.0520106e-05
1.0192173e-05
9.891778e-06
9.6156194e-06
9.3610845e-06
9.1257258e-06
8.9074429e-06
8.7044161e-06
8.5150584e-06
8.3379795e-06
8.171963e-06
8.01593e-06
7.8689064e-06
7.7300118e-06
7.598428e-06
7.4734037e-06
7.3540803e-06
7.2398394e-06
7.1290939e-06
7.022598e-06
6.9123621e-06
6.818219e-06
6.6806807e-06
0.0077247498
0.0075967424
0.0075239972
0.0074858622
0.0074623038
0.0074457739
0.0074334287
0.0074239124
0.0074164316
0.0074104723
0.0074056853
0.0074018294
0.0073987379
0.0073963007
0.007394457
0.0073931933
0.0073925739
0.0073927223
0.007394133
0.0073971577
0.0074048152
0.0074233651
0.0074184683
0.0094208985
0.022108874
0.0015475985
0.0036121612
0.00030067737
0.0013950667
0.00015460195
0.00081437601
0.00011544827
0.00055414106
0.00043173726
0.00040800331
0.0003460746
0.0003150716
0.00027988557
0.00025403528
0.00023059937
0.00021095121
0.00019376513
0.00017878779
0.00016560189
0.0001539264
0.00014352699
0.00013421534
0.0001258373
0.00011826578
0.00011139538
0.00010513755
9.9417529e-05
9.4172001e-05
8.9346851e-05
8.4895782e-05
8.0778974e-05
7.6961744e-05
7.3413872e-05
7.0109021e-05
6.7024067e-05
6.4138641e-05
6.1434781e-05
5.8896615e-05
5.6509915e-05
5.4261961e-05
5.214137e-05
5.0138029e-05
4.8242794e-05
4.64474e-05
4.4744438e-05
4.3127215e-05
4.1589575e-05
4.0125915e-05
3.8731165e-05
3.740068e-05
3.6130221e-05
3.4915886e-05
3.37541e-05
3.2641649e-05
3.1575511e-05
3.0552857e-05
2.9571121e-05
2.8627924e-05
2.7721059e-05
2.684848e-05
2.6008282e-05
2.5198715e-05
2.4418168e-05
2.3665099e-05
2.2938063e-05
2.2235735e-05
2.1556866e-05
2.0900291e-05
2.0264912e-05
1.9649704e-05
1.9053742e-05
1.8476121e-05
1.7915971e-05
1.7372498e-05
1.6844947e-05
1.6332606e-05
1.5834801e-05
1.5350899e-05
1.4880314e-05
1.4422455e-05
1.3976792e-05
1.3542819e-05
1.3120051e-05
1.2708019e-05
1.2306289e-05
1.1914451e-05
1.1532034e-05
1.1158931e-05
1.0803812e-05
1.0476363e-05
1.0176219e-05
9.900129e-06
9.645507e-06
9.4099313e-06
9.1913221e-06
8.9878772e-06
8.7980243e-06
8.6203857e-06
8.4537553e-06
8.2970631e-06
8.1493426e-06
8.0097196e-06
7.8773816e-06
7.7515812e-06
7.6314623e-06
7.5164081e-06
7.4048277e-06
7.2974809e-06
7.1863392e-06
7.0913623e-06
6.9525998e-06
0.0076634311
0.0075309758
0.0074554916
0.0074158403
0.007391317
0.0073740986
0.0073612323
0.007351309
0.0073435031
0.0073372794
0.007332274
0.0073282348
0.0073249868
0.0073224136
0.0073204487
0.0073190736
0.0073183462
0.0073183852
0.0073196636
0.0073225452
0.0073298609
0.0073483298
0.0073397469
0.0093086346
0.021233554
0.0015213204
0.003444959
0.00029321774
0.0013372932
0.00015123521
0.00078338328
0.00011437312
0.00053455962
0.00041767425
0.00039455278
0.00033523585
0.00030533794
0.00027154801
0.00024664898
0.00022409097
0.00020515653
0.0001885893
0.00017414226
0.00016141679
0.00015014343
0.00014009738
0.00013109798
0.00012299727
0.00011567322
0.00010902458
0.00010296625
9.7426367e-05
9.2344044e-05
8.7667223e-05
8.3351355e-05
7.9358111e-05
7.5654099e-05
7.2210211e-05
6.9001075e-05
6.6004407e-05
6.3200577e-05
6.0572265e-05
5.8104165e-05
5.5782552e-05
5.3595151e-05
5.1530973e-05
4.958026e-05
4.7734184e-05
4.5984764e-05
4.4324843e-05
4.2747955e-05
4.1248152e-05
3.9820018e-05
3.8458652e-05
3.7159564e-05
3.5918653e-05
3.4732146e-05
3.3596582e-05
3.2508854e-05
3.1466035e-05
3.0465389e-05
2.950443e-05
2.8580855e-05
2.7692524e-05
2.6837458e-05
2.601381e-05
2.5219883e-05
2.4454116e-05
2.3715014e-05
2.3001177e-05
2.2311318e-05
2.1644224e-05
2.0998767e-05
2.037388e-05
1.9768568e-05
1.9181932e-05
1.8613093e-05
1.8061207e-05
1.7525499e-05
1.7005235e-05
1.6499724e-05
1.6008307e-05
1.553037e-05
1.5065339e-05
1.4612637e-05
1.4171749e-05
1.3742179e-05
1.3323453e-05
1.2915113e-05
1.2516733e-05
1.2127913e-05
1.1748191e-05
1.1377459e-05
1.1024323e-05
1.0698449e-05
1.0399561e-05
1.0124466e-05
9.8706141e-06
9.6356175e-06
9.4174231e-06
9.2142522e-06
9.0245522e-06
8.8469621e-06
8.68029e-06
8.5234784e-06
8.3755712e-06
8.2357033e-06
8.1030703e-06
7.9769314e-06
7.8564355e-06
7.7409693e-06
7.6289434e-06
7.5211208e-06
7.4094602e-06
7.3139817e-06
7.1744754e-06
0.0075929709
0.0074553782
0.0073767187
0.007335308
0.0073096649
0.0072916474
0.0072781765
0.0072677807
0.0072595977
0.0072530673
0.0072478087
0.007243557
0.0072401282
0.0072373979
0.0072352937
0.0072337912
0.0072329412
0.0072328574
0.0072339894
0.0072367152
0.0072436597
0.0072620627
0.0072493713
0.009180518
0.020320252
0.0014937764
0.0032669016
0.00028507599
0.0012750908
0.0001474264
0.00074977316
0.00011281897
0.00051318996
0.00040219722
0.00037979373
0.00032327032
0.00029458651
0.00026229844
0.00023843456
0.00021682685
0.00019866795
0.00018277302
0.00016890288
0.00015667875
0.00014584366
0.0001361831
0.00012752466
0.00011972707
0.00011267376
0.00010626795
0.0001004283
9.5086065e-05
9.0182989e-05
8.5669241e-05
8.1502167e-05
7.7645053e-05
7.4065903e-05
7.073682e-05
6.7633477e-05
6.4734503e-05
6.2021069e-05
5.9476553e-05
5.7086264e-05
5.4837025e-05
5.2717045e-05
5.0715763e-05
4.8823808e-05
4.7032697e-05
4.5334756e-05
4.3723104e-05
4.2191523e-05
4.0734291e-05
3.9346197e-05
3.8022524e-05
3.6758949e-05
3.5551526e-05
3.4396619e-05
3.3290896e-05
3.2231362e-05
3.12152e-05
3.0239769e-05
2.9302675e-05
2.8401696e-05
2.753477e-05
2.6699986e-05
2.5895562e-05
2.5119862e-05
2.4371378e-05
2.3648667e-05
2.2950376e-05
2.2275263e-05
2.1622157e-05
2.0989965e-05
2.0377658e-05
1.978427e-05
1.9208937e-05
1.8650805e-05
1.8109057e-05
1.7582943e-05
1.7071753e-05
1.6574814e-05
1.609149e-05
1.5621183e-05
1.5163337e-05
1.4717388e-05
1.4282838e-05
1.3859204e-05
1.3446024e-05
1.3042851e-05
1.2649271e-05
1.2264892e-05
1.1889265e-05
1.1522282e-05
1.1172451e-05
1.0849381e-05
1.0552881e-05
1.0279826e-05
1.0027714e-05
9.7941972e-06
9.5772574e-06
9.3751453e-06
9.1863338e-06
9.0094834e-06
8.8434208e-06
8.6871044e-06
8.5395922e-06
8.4000311e-06
8.2676279e-06
8.1416506e-06
8.0212566e-06
7.9058384e-06
7.7938137e-06
7.6859458e-06
7.5742109e-06
7.4786128e-06
7.3389173e-06
0.0075124689
0.0073689742
0.0072866512
0.0072432084
0.0072162716
0.0071973312
0.0071831618
0.0071722202
0.0071636014
0.0071567169
0.0071511659
0.0071466693
0.007143032
0.0071401213
0.0071378572
0.0071362095
0.0071352207
0.0071349991
0.0071359692
0.0071385251
0.0071450664
0.0071634216
0.0071461605
0.0090352297
0.019372191
0.001465107
0.0030781937
0.0002762146
0.0012083825
0.00014314208
0.00071345798
0.00011073735
0.00048995363
0.00038523538
0.00036365872
0.00031011568
0.0002827588
0.0002520821
0.00022934047
0.00020875841
0.00019143951
0.00017627269
0.0001630282
0.00015134827
0.00014098936
0.00013174802
0.00012346073
0.00011599341
0.00010923535
0.00010309462
9.7493897e-05
9.2367818e-05
8.7660958e-05
8.3325894e-05
7.9322015e-05
7.5614355e-05
7.2172427e-05
6.8969641e-05
6.5982804e-05
6.3191531e-05
6.0577859e-05
5.8125925e-05
5.5821703e-05
5.3652609e-05
5.1607379e-05
4.9675918e-05
4.7849273e-05
4.6119334e-05
4.4478764e-05
4.292098e-05
4.1440033e-05
4.0030449e-05
3.8687237e-05
3.7405882e-05
3.6182244e-05
3.5012542e-05
3.3893294e-05
3.2821306e-05
3.1793707e-05
3.0807796e-05
2.9861041e-05
2.8951145e-05
2.8075975e-05
2.7233554e-05
2.6422047e-05
2.5639743e-05
2.4885071e-05
2.4156582e-05