/*--------------------------------*- C++ -*----------------------------------*\
| =========                 |                                                 |
| \\      /  F ield         | OpenFOAM: The Open Source CFD Toolbox           |
|  \\    /   O peration     | Version:  2206                                  |
|   \\  /    A nd           | Website:  www.openfoam.com                      |
|    \\/     M anipulation  |                                                 |
\*---------------------------------------------------------------------------*/
FoamFile
{
    version     2.0;
    format      ascii;
    arch        "LSB;label=32;scalar=64";
    class       volScalarField;
    location    "1300";
    object      k;
}
// * * * * * * * * * * * * * * * * * * * * * * * * * * * * * * * * * * * * * //

dimensions      [0 2 -2 0 0 0 0];

internalField   nonuniform List<scalar> 
13056
(
0.00013083483
0.0001221871
0.00011909022
0.00011753473
0.00011655542
0.00011586838
0.00011535924
0.00011496918
0.00011466326
0.00011441899
0.00011422111
0.0001140589
0.00011392459
0.00011381243
0.00011371808
0.00011363823
0.00011357012
0.00011351241
0.00011346131
0.00011342503
0.00011336317
0.00011347839
0.00011267104
0.00011664209
1.7818649e-05
2.7033091e-06
5.3785703e-06
9.2491434e-07
2.7744346e-06
5.7463295e-07
1.9016146e-06
4.1872317e-07
1.4483591e-06
1.2037614e-06
1.1655215e-06
1.0322455e-06
9.6832399e-07
8.8790414e-07
8.288287e-07
7.7251628e-07
7.2434779e-07
6.8088274e-07
6.4206582e-07
6.0702744e-07
5.7526427e-07
5.4632908e-07
5.198551e-07
4.9553621e-07
4.7311489e-07
4.5237389e-07
4.3312708e-07
4.1521446e-07
3.9849836e-07
3.8285907e-07
3.6819273e-07
3.5440876e-07
3.4142692e-07
3.2917623e-07
3.1759408e-07
3.0662471e-07
2.9621826e-07
2.8633039e-07
2.769215e-07
2.6795548e-07
2.5939972e-07
2.5122482e-07
2.4340413e-07
2.3591335e-07
2.287303e-07
2.2183499e-07
2.1520917e-07
2.0883576e-07
2.0269908e-07
1.9678484e-07
1.9107981e-07
1.855718e-07
1.8024946e-07
1.7510233e-07
1.7012102e-07
1.6529652e-07
1.6062023e-07
1.5608441e-07
1.5168176e-07
1.4740547e-07
1.4324918e-07
1.3920686e-07
1.3527306e-07
1.3144266e-07
1.2771067e-07
1.2407238e-07
1.2052348e-07
1.1705983e-07
1.1367758e-07
1.1037302e-07
1.0714269e-07
1.039835e-07
1.0089232e-07
9.7866109e-08
9.4902118e-08
9.1997684e-08
8.9150286e-08
8.6357495e-08
8.3617033e-08
8.0926824e-08
7.8284737e-08
7.5688722e-08
7.3136873e-08
7.0627332e-08
6.8158264e-08
6.5727969e-08
6.3334812e-08
6.0976335e-08
5.8653381e-08
5.6423606e-08
5.4350719e-08
5.2432209e-08
5.0650283e-08
4.8992201e-08
4.744523e-08
4.5998383e-08
4.4641956e-08
4.3367328e-08
4.2166849e-08
4.1033738e-08
3.9961868e-08
3.8945599e-08
3.7979749e-08
3.7059314e-08
3.6179665e-08
3.5335228e-08
3.4522126e-08
3.3729003e-08
3.296207e-08
3.2160149e-08
3.1474463e-08
3.0455202e-08
0.00013082346
0.0001221679
0.00011906805
0.00011751101
0.0001165307
0.00011584296
0.00011533328
0.00011494281
0.00011463657
0.00011439204
0.00011419395
0.00011403156
0.0001138971
0.00011378482
0.00011369036
0.00011361042
0.00011354223
0.00011348445
0.00011343328
0.00011339696
0.00011333503
0.00011345034
0.00011264229
0.0001166172
1.7799196e-05
2.6770129e-06
5.2635317e-06
9.1213021e-07
2.7185527e-06
5.6641069e-07
1.8656121e-06
4.1498439e-07
1.4225316e-06
1.1841501e-06
1.1457306e-06
1.0156517e-06
9.5269634e-07
8.7405774e-07
8.1606862e-07
7.608963e-07
7.1364518e-07
6.7101643e-07
6.3293112e-07
5.9854736e-07
5.6737088e-07
5.3896447e-07
5.1296925e-07
4.8908568e-07
4.6706174e-07
4.4668476e-07
4.2777254e-07
4.101684e-07
3.9373751e-07
3.7836264e-07
3.6394205e-07
3.5038699e-07
3.3761885e-07
3.2556807e-07
3.1417329e-07
3.0337986e-07
2.9313891e-07
2.8340696e-07
2.7414518e-07
2.6531817e-07
2.5689395e-07
2.4884367e-07
2.411412e-07
2.337627e-07
2.2668642e-07
2.1989274e-07
2.1336376e-07
2.070827e-07
2.0103418e-07
1.9520419e-07
1.8957973e-07
1.8414884e-07
1.7890037e-07
1.7382404e-07
1.6891065e-07
1.6415134e-07
1.5953768e-07
1.5506203e-07
1.5071727e-07
1.4649667e-07
1.4239399e-07
1.3840333e-07
1.3451929e-07
1.3073688e-07
1.2705117e-07
1.2345754e-07
1.1995174e-07
1.1652972e-07
1.1318768e-07
1.0992197e-07
1.0672919e-07
1.0360631e-07
1.0055023e-07
9.7557972e-08
9.4626824e-08
9.1754163e-08
8.8937508e-08
8.6174465e-08
8.346279e-08
8.0800434e-08
7.8185294e-08
7.5615352e-08
7.3088727e-08
7.0603585e-08
6.8158115e-08
6.5750639e-08
6.3379543e-08
6.1042415e-08
5.874006e-08
5.6529445e-08
5.4473791e-08
5.2570955e-08
5.08034e-08
4.9158503e-08
4.7623666e-08
4.618801e-08
4.4841926e-08
4.3576879e-08
4.2385296e-08
4.1260464e-08
4.0196314e-08
3.9187264e-08
3.8228186e-08
3.7314126e-08
3.6440502e-08
3.5601797e-08
3.4794165e-08
3.4006375e-08
3.3244523e-08
3.2448188e-08
3.1766775e-08
3.0755462e-08
0.00013078692
0.00012210738
0.00011899851
0.00011743675
0.00011645341
0.00011576351
0.00011525223
0.00011486051
0.00011455329
0.00011430797
0.00011410923
0.0001139463
0.00011381139
0.00011369874
0.00011360395
0.00011352373
0.0001134553
0.0001133973
0.00011334594
0.00011330947
0.00011324732
0.00011336288
0.00011255278
0.00011653853
1.7782977e-05
2.6507135e-06
5.1485069e-06
8.9924739e-07
2.6624583e-06
5.5809849e-07
1.8293796e-06
4.1115842e-07
1.3964829e-06
1.1642664e-06
1.1257434e-06
9.9883891e-07
9.3688123e-07
8.6001721e-07
8.0312717e-07
7.4909691e-07
7.0276932e-07
6.609808e-07
6.236315e-07
5.8990622e-07
5.5932012e-07
5.3144591e-07
5.059327e-07
4.8248752e-07
4.6086386e-07
4.4085366e-07
4.2227863e-07
4.0498545e-07
3.8884216e-07
3.7373398e-07
3.595613e-07
3.4623724e-07
3.3368479e-07
3.2183585e-07
3.106303e-07
3.000146e-07
2.8994087e-07
2.8036652e-07
2.7125348e-07
2.6256707e-07
2.5427591e-07
2.4635174e-07
2.3876895e-07
2.3150416e-07
2.2453603e-07
2.1784533e-07
2.114145e-07
2.052271e-07
1.9926802e-07
1.9352353e-07
1.8798087e-07
1.826283e-07
1.7745488e-07
1.7245053e-07
1.6760622e-07
1.6291325e-07
1.5836333e-07
1.5394899e-07
1.496632e-07
1.4549939e-07
1.4145141e-07
1.3751347e-07
1.3368027e-07
1.299469e-07
1.2630852e-07
1.227606e-07
1.1929895e-07
1.1591959e-07
1.1261879e-07
1.0939297e-07
1.0623878e-07
1.0315322e-07
1.0013328e-07
9.7176002e-08
9.4278726e-08
9.143887e-08
8.8653991e-08
8.5921733e-08
8.3239884e-08
8.0606425e-08
7.8019281e-08
7.5476466e-08
7.2976125e-08
7.051645e-08
6.8095653e-08
6.5712079e-08
6.3364137e-08
6.1049459e-08
5.8768814e-08
5.657846e-08
5.4541089e-08
5.2654917e-08
5.0902665e-08
4.9271835e-08
4.7749968e-08
4.6326296e-08
4.499131e-08
4.3736565e-08
4.2554565e-08
4.1438667e-08
4.0382868e-08
3.9381644e-08
3.842992e-08
3.7522797e-08
3.665574e-08
3.5823294e-08
3.5021644e-08
3.4239689e-08
3.348341e-08
3.2693176e-08
3.2016481e-08
3.1013774e-08
0.00013072411
0.00012200364
0.0001188794
0.00011730961
0.0001163211
0.00011562753
0.0001151135
0.00011471967
0.00011441077
0.0001141641
0.00011396426
0.00011380042
0.00011366475
0.00011355144
0.0001134561
0.0001133754
0.00011330655
0.0001132482
0.00011319651
0.00011315978
0.00011309726
0.00011321325
0.00011239968
0.00011640362
1.7770148e-05
2.6241001e-06
5.0319994e-06
8.8611398e-07
2.6054104e-06
5.4958773e-07
1.7924304e-06
4.0716015e-07
1.369857e-06
1.1438312e-06
1.1052841e-06
9.8157032e-07
9.2065659e-07
8.4558303e-07
7.8981959e-07
7.369483e-07
6.9156259e-07
6.5062929e-07
6.1403012e-07
5.8097587e-07
5.5099162e-07
5.2366011e-07
4.9863854e-07
4.7564063e-07
4.5442546e-07
4.3478966e-07
4.1655893e-07
3.9958335e-07
3.8373385e-07
3.6889818e-07
3.549789e-07
3.4189101e-07
3.2955916e-07
3.1791668e-07
3.0690476e-07
2.9647097e-07
2.8656845e-07
2.771555e-07
2.6819483e-07
2.5965249e-07
2.5149775e-07
2.437029e-07
2.3624285e-07
2.2909474e-07
2.2223763e-07
2.1565268e-07
2.0932268e-07
2.0323151e-07
1.9736439e-07
1.9170783e-07
1.8624933e-07
1.8097738e-07
1.7588126e-07
1.7095107e-07
1.6617796e-07
1.6155339e-07
1.5706925e-07
1.527182e-07
1.4849334e-07
1.4438822e-07
1.4039681e-07
1.3651343e-07
1.3273287e-07
1.2905031e-07
1.2546102e-07
1.2196052e-07
1.1854472e-07
1.152097e-07
1.119518e-07
1.0876749e-07
1.056535e-07
1.0260688e-07
9.9624649e-08
9.6703922e-08
9.3842077e-08
9.1036574e-08
8.8285008e-08
8.5585062e-08
8.293456e-08
8.0331513e-08
7.7773874e-08
7.525969e-08
7.2787134e-08
7.0354425e-08
6.7959799e-08
6.5601625e-08
6.3278336e-08
6.098761e-08
5.873018e-08
5.6561561e-08
5.454387e-08
5.267567e-08
5.0939952e-08
4.9324347e-08
4.7816542e-08
4.6405885e-08
4.5082976e-08
4.3839461e-08
4.266793e-08
4.1561811e-08
4.0515168e-08
3.9522541e-08
3.8578911e-08
3.7679437e-08
3.6819634e-08
3.5994109e-08
3.5199084e-08
3.4423597e-08
3.3673507e-08
3.2890015e-08
3.2218598e-08
3.122531e-08
0.00013063328
0.00012185373
0.0001187073
0.0001171259
0.00011612994
0.00011543107
0.00011491308
0.00011451619
0.00011420488
0.00011395627
0.00011375484
0.00011358968
0.0001134529
0.00011333866
0.00011324252
0.00011316114
0.00011309169
0.00011303281
0.00011298065
0.00011294356
0.00011288051
0.00011299709
0.00011217854
0.0001162086
1.7760797e-05
2.596887e-06
4.912612e-06
8.7258455e-07
2.5467062e-06
5.407727e-07
1.7542983e-06
4.0290323e-07
1.3423109e-06
1.122573e-06
1.0840853e-06
9.6361506e-07
9.0380614e-07
8.3056012e-07
7.7596507e-07
7.2428382e-07
6.7987006e-07
6.3981761e-07
6.0399198e-07
5.7162968e-07
5.4226628e-07
5.1549475e-07
4.909806e-07
4.6844445e-07
4.4765111e-07
4.2840204e-07
4.1052704e-07
3.9387968e-07
3.7833389e-07
3.6378002e-07
3.5012283e-07
3.3727928e-07
3.2517571e-07
3.1374697e-07
3.0293553e-07
2.9269017e-07
2.8296504e-07
2.7371935e-07
2.6491665e-07
2.5652372e-07
2.4851049e-07
2.4084983e-07
2.3351722e-07
2.2649026e-07
2.1974848e-07
2.1327342e-07
2.0704825e-07
2.0105718e-07
1.9528573e-07
1.8972069e-07
1.8434983e-07
1.7916188e-07
1.7414632e-07
1.6929347e-07
1.6459464e-07
1.6004148e-07
1.5562604e-07
1.5134112e-07
1.4717996e-07
1.4313625e-07
1.3920406e-07
1.3537782e-07
1.3165244e-07
1.2802319e-07
1.2448541e-07
1.2103473e-07
1.1766712e-07
1.1437875e-07
1.1116602e-07
1.0802547e-07
1.0495388e-07
1.0194836e-07
9.9005993e-08
9.6123934e-08
9.329961e-08
9.0530526e-08
8.781432e-08
8.5148714e-08
8.2531567e-08
7.9960923e-08
7.7434766e-08
7.4951177e-08
7.2508358e-08
7.0104555e-08
6.7738033e-08
6.5407185e-08
6.3110466e-08
6.0845605e-08
5.8613301e-08
5.6468279e-08
5.4472025e-08
5.262344e-08
5.0905794e-08
4.9306858e-08
4.7814475e-08
4.6418118e-08
4.5108498e-08
4.3877365e-08
4.2717393e-08
4.1622093e-08
4.0585598e-08
3.9602515e-08
3.8667886e-08
3.7776931e-08
3.692522e-08
3.6107427e-08
3.5319811e-08
3.4551559e-08
3.3808406e-08
3.3032435e-08
3.2366975e-08
3.1384083e-08
0.00013051212
0.00012165363
0.00011847757
0.00011688069
0.00011587476
0.00011516883
0.00011464556
0.00011424459
0.00011393006
0.00011367885
0.00011347529
0.00011330838
0.00011317013
0.00011305464
0.00011295744
0.00011287513
0.00011280488
0.00011274531
0.00011269251
0.00011265493
0.00011259117
0.00011270854
0.00011188339
0.00011594827
1.7755249e-05
2.5688147e-06
4.7890389e-06
8.5851984e-07
2.4856765e-06
5.3155011e-07
1.714535e-06
3.9829889e-07
1.3135118e-06
1.1002252e-06
1.0618867e-06
9.4474667e-07
8.8611799e-07
8.147566e-07
7.6138556e-07
7.10939e-07
6.6753856e-07
6.2840275e-07
5.933831e-07
5.6174174e-07
5.3302543e-07
5.0683771e-07
4.8285273e-07
4.6079825e-07
4.4044506e-07
4.2159962e-07
4.0409599e-07
3.8779138e-07
3.7256284e-07
3.5830339e-07
3.4492012e-07
3.32332e-07
3.2046714e-07
3.0926196e-07
2.986603e-07
2.8861213e-07
2.7907271e-07
2.7000219e-07
2.6136498e-07
2.5312861e-07
2.4526371e-07
2.3774377e-07
2.3054483e-07
2.2364501e-07
2.1702429e-07
2.1066464e-07
2.0454958e-07
1.9866371e-07
1.9299284e-07
1.8752408e-07
1.8224544e-07
1.7714591e-07
1.7221521e-07
1.6744385e-07
1.6282334e-07
1.5834551e-07
1.5400258e-07
1.4978749e-07
1.4569364e-07
1.4171484e-07
1.378453e-07
1.3407956e-07
1.3041262e-07
1.2683987e-07
1.2335674e-07
1.1995894e-07
1.1664253e-07
1.1340376e-07
1.1023909e-07
1.0714514e-07
1.0411874e-07
1.0115707e-07
9.8257273e-08
9.541655e-08
9.2632378e-08
8.9902311e-08
8.7224028e-08
8.4595296e-08
8.2014009e-08
7.9478249e-08
7.6986029e-08
7.4535468e-08
7.21248e-08
6.9752299e-08
6.7416259e-08
6.51151e-08
6.2847304e-08
6.0610649e-08
5.84058e-08
5.6286642e-08
5.4313958e-08
5.2486977e-08
5.0789266e-08
4.9208746e-08
4.7733426e-08
4.6352915e-08
4.5058046e-08
4.3840676e-08
4.2693576e-08
4.161034e-08
4.0585181e-08
3.9612775e-08
3.8688231e-08
3.7806835e-08
3.6964214e-08
3.6155116e-08
3.5375844e-08
3.4615741e-08
3.3880413e-08
3.3112886e-08
3.2454196e-08
3.1482851e-08
0.00013035773
0.00012139835
0.00011818443
0.00011656777
0.00011554912
0.00011483416
0.00011430414
0.00011389797
0.00011357931
0.00011332479
0.00011311853
0.00011294937
0.00011280924
0.00011269216
0.00011259359
0.00011251011
0.00011243884
0.00011237837
0.00011232477
0.00011228657
0.0001122219
0.00011234028
0.00011150672
0.00011561613
1.7754079e-05
2.5396513e-06
4.6600649e-06
8.4378673e-07
2.4216854e-06
5.2181897e-07
1.6727092e-06
3.9325534e-07
1.2831371e-06
1.0765267e-06
1.0384339e-06
9.2474268e-07
8.6738408e-07
7.979833e-07
7.4590536e-07
6.967511e-07
6.5441622e-07
6.1624272e-07
5.8207013e-07
5.5118652e-07
5.2315058e-07
4.9757684e-07
4.7414856e-07
4.5260094e-07
4.3271105e-07
4.1429059e-07
3.9717808e-07
3.8123455e-07
3.663403e-07
3.5239117e-07
3.392967e-07
3.2697795e-07
3.1536492e-07
3.0439564e-07
2.940154e-07
2.8417544e-07
2.7483215e-07
2.659467e-07
2.5748436e-07
2.494135e-07
2.4170546e-07
2.3433438e-07
2.2727689e-07
2.2051165e-07
2.1401913e-07
2.0778173e-07
2.0178338e-07
1.9600903e-07
1.9044485e-07
1.8507823e-07
1.798975e-07
1.7489187e-07
1.7005133e-07
1.6536659e-07
1.6082939e-07
1.5643171e-07
1.5216597e-07
1.4802527e-07
1.4400317e-07
1.400936e-07
1.3629091e-07
1.3258976e-07
1.2898528e-07
1.2547293e-07
1.2204827e-07
1.1870709e-07
1.1544555e-07
1.1225995e-07
1.0914686e-07
1.0610296e-07
1.0312516e-07
1.0021068e-07
9.7356724e-08
9.4560563e-08
9.1819723e-08
8.9131804e-08
8.6494535e-08
8.3905726e-08
8.1363314e-08
7.8865414e-08
7.6410077e-08
7.399546e-08
7.161983e-08
6.9281493e-08
6.6978775e-08
6.4710125e-08
6.247405e-08
6.0268384e-08
5.8093757e-08
5.6003148e-08
5.4056559e-08
5.2253537e-08
5.0577961e-08
4.9017918e-08
4.7561598e-08
4.6198756e-08
4.4920357e-08
4.3718377e-08
4.2585691e-08
4.1515984e-08
4.0503554e-08
3.9543155e-08
3.8629967e-08
3.7759347e-08
3.6926987e-08
3.6127712e-08
3.5357874e-08
3.4606987e-08
3.3880523e-08
3.3122518e-08
3.2471544e-08
3.1513084e-08
0.00013016667
0.00012108194
0.00011782097
0.00011617972
0.00011514529
0.00011441911
0.00011388072
0.00011346808
0.00011314431
0.00011288568
0.00011267605
0.0001125041
0.00011236164
0.00011224258
0.00011214232
0.00011205739
0.00011198484
0.00011192328
0.00011186868
0.0001118297
0.0001117639
0.00011188352
0.00011103957
0.00011520441
1.7758141e-05
2.5091963e-06
4.5245717e-06
8.2825876e-07
2.3541319e-06
5.1148071e-07
1.6284078e-06
3.8767758e-07
1.2508742e-06
1.0512219e-06
1.0134796e-06
9.0338497e-07
8.474006e-07
7.8005416e-07
7.2935135e-07
6.8155937e-07
6.403528e-07
6.0319667e-07
5.6992062e-07
5.3983909e-07
5.1252355e-07
4.8760015e-07
4.6476167e-07
4.4375122e-07
4.2435248e-07
4.0638266e-07
3.89685e-07
3.7412455e-07
3.5958507e-07
3.4596536e-07
3.3317755e-07
3.2114492e-07
3.0979944e-07
2.9908086e-07
2.8893599e-07
2.7931743e-07
2.7018276e-07
2.6149421e-07
2.53218e-07
2.4532335e-07
2.3778236e-07
2.3056986e-07
2.2366312e-07
2.1704135e-07
2.1068556e-07
2.0457858e-07
1.9870479e-07
1.9304951e-07
1.8759928e-07
1.8234182e-07
1.7726574e-07
1.7236055e-07
1.6761647e-07
1.6302447e-07
1.5857647e-07
1.5426469e-07
1.500817e-07
1.460208e-07
1.4207569e-07
1.3824046e-07
1.3450961e-07
1.3087791e-07
1.2734061e-07
1.2389329e-07
1.2053161e-07
1.1725147e-07
1.1404911e-07
1.1092094e-07
1.0786357e-07
1.048738e-07
1.0194857e-07
9.90852e-08
9.6280947e-08
9.3533142e-08
9.0839366e-08
8.8197273e-08
8.5604642e-08
8.3059332e-08
8.0559322e-08
7.8102769e-08
7.568776e-08
7.3312495e-08
7.0975277e-08
6.8674445e-08
6.640836e-08
6.4175502e-08
6.1974409e-08
5.9802968e-08
5.7661781e-08
5.5602843e-08
5.3685279e-08
5.1908947e-08
5.0258059e-08
4.8720883e-08
4.7285805e-08
4.5942743e-08
4.4682805e-08
4.3498096e-08
4.2381607e-08
4.1327122e-08
4.0329031e-08
3.9382174e-08
3.8481808e-08
3.7623369e-08
3.6802618e-08
3.6014468e-08
3.5255321e-08
3.4514879e-08
3.3798475e-08
3.305123e-08
3.2409066e-08
3.1465023e-08
0.00012993504
0.00012069749
0.00011737918
0.00011570799
0.00011465432
0.0001139145
0.0001133659
0.00011294538
0.0001126154
0.00011235175
0.00011213803
0.0001119627
0.00011181739
0.00011169593
0.00011159361
0.0001115069
0.00011143281
0.0001113699
0.00011131408
0.00011127417
0.000111207
0.00011132811
0.00011047158
0.00011470415
1.7768599e-05
2.4772871e-06
4.3815513e-06
8.1181704e-07
2.2824563e-06
5.004398e-07
1.5812393e-06
3.8146779e-07
1.2164239e-06
1.0240629e-06
9.8678466e-07
8.8046139e-07
8.259692e-07
7.6078739e-07
7.1155414e-07
6.652061e-07
6.2520056e-07
5.8912588e-07
5.5680381e-07
5.2757589e-07
5.010273e-07
4.7679646e-07
4.5458629e-07
4.3414824e-07
4.15273e-07
3.9778364e-07
3.8152841e-07
3.6637663e-07
3.5221571e-07
3.3894763e-07
3.2648722e-07
3.1476016e-07
3.0370047e-07
2.9324978e-07
2.833565e-07
2.7397465e-07
2.650631e-07
2.5658518e-07
2.4850815e-07
2.4080212e-07
2.3344002e-07
2.2639739e-07
2.1965217e-07
2.1318419e-07
2.0697499e-07
2.0100791e-07
1.9526777e-07
1.8974031e-07
1.8441245e-07
1.7927225e-07
1.7430864e-07
1.6951143e-07
1.6487112e-07
1.6037891e-07
1.5602696e-07
1.5180769e-07
1.477139e-07
1.4373904e-07
1.3987699e-07
1.3612201e-07
1.3246874e-07
1.2891209e-07
1.2544744e-07
1.2207048e-07
1.1877699e-07
1.1556298e-07
1.1242479e-07
1.093589e-07
1.0636205e-07
1.0343107e-07
1.0056302e-07
9.7755275e-08
9.5005158e-08
9.2310069e-08
8.9667646e-08
8.7075604e-08
8.4531775e-08
8.2034067e-08
7.9580511e-08
7.7169303e-08
7.4798574e-08
7.2466568e-08
7.0171626e-08
6.7912127e-08
6.5686467e-08
6.3493159e-08
6.1330777e-08
5.9197266e-08
5.7093196e-08
5.5069496e-08
5.3184307e-08
5.1437785e-08
4.9814498e-08
4.8302918e-08
4.6891642e-08
4.5570767e-08
4.433156e-08
4.3166269e-08
4.2068008e-08
4.1030673e-08
4.0048755e-08
3.9117188e-08
3.8231314e-08
3.7386655e-08
3.6579048e-08
3.5803501e-08
3.5056476e-08
3.4327876e-08
3.3622891e-08
3.2887812e-08
3.22557e-08
3.1327808e-08
0.00012965845
0.00012023724
0.00011685004
0.00011514288
0.0001140661
0.00011330989
0.00011274906
0.00011231909
0.00011198164
0.00011171198
0.00011149335
0.00011131394
0.00011116523
0.00011104088
0.00011093609
0.00011084726
0.00011077131
0.00011070679
0.00011064951
0.00011060847
0.00011053966
0.00011066256
0.00010979099
0.00011410521
1.7786977e-05
2.4438074e-06
4.2301272e-06
7.9435166e-07
2.2061494e-06
4.8860476e-07
1.5308399e-06
3.745263e-07
1.1795035e-06
9.9481288e-07
9.5812122e-07
8.5576831e-07
8.0289942e-07
7.4000766e-07
6.9234998e-07
6.475384e-07
6.08816e-07
5.7389526e-07
5.4259216e-07
5.1427616e-07
4.885472e-07
4.6505674e-07
4.4351846e-07
4.2369272e-07
4.0537763e-07
3.8840253e-07
3.7262098e-07
3.5790687e-07
3.4415148e-07
3.3126017e-07
3.1915069e-07
3.0775122e-07
2.9699805e-07
2.8683473e-07
2.772114e-07
2.6808362e-07
2.5941161e-07
2.5115992e-07
2.4329686e-07
2.3579352e-07
2.286237e-07
2.2176372e-07
2.1519224e-07
2.0888974e-07
2.0283833e-07
1.9702188e-07
1.9142569e-07
1.8603596e-07
1.8083999e-07
1.7582624e-07
1.7098396e-07
1.6630329e-07
1.61775e-07
1.5739059e-07
1.5314243e-07
1.4902318e-07
1.4502585e-07
1.4114409e-07
1.3737198e-07
1.3370393e-07
1.3013474e-07
1.2665948e-07
1.2327365e-07
1.1997309e-07
1.1675368e-07
1.1361155e-07
1.1054315e-07
1.0754507e-07
1.0461412e-07
1.0174724e-07
9.8941565e-08
9.6194537e-08
9.3503564e-08
9.0866114e-08
8.8279891e-08
8.5742669e-08
8.3252341e-08
8.0806869e-08
7.8404337e-08
7.6042988e-08
7.3720996e-08
7.1436656e-08
6.918835e-08
6.69745e-08
6.4793539e-08
6.2644021e-08
6.0524554e-08
5.8433146e-08
5.6370337e-08
5.4385892e-08
5.2536851e-08
5.0823653e-08
4.9231251e-08
4.7748337e-08
4.6363745e-08
4.5067768e-08
4.3851848e-08
4.2708389e-08
4.1630642e-08
4.0612626e-08
3.9648944e-08
3.8734632e-08
3.7865128e-08
3.7036045e-08
3.6243307e-08
3.5482025e-08
3.4748728e-08
3.4033541e-08
3.33415e-08
3.2620166e-08
3.19995e-08
3.1089703e-08
0.00012933212
0.00011969258
0.00011622348
0.00011447359
0.00011336938
0.00011259372
0.00011201835
0.00011157717
0.00011123086
0.00011095407
0.00011072961
0.00011054538
0.00011039262
0.00011026485
0.00011015713
0.00011006577
0.00010998763
0.00010992119
0.00010986218
0.0001098198
0.00010974906
0.00010987407
0.00010898476
0.00011339637
1.78152e-05
2.4086991e-06
4.0695834e-06
7.757637e-07
2.1247659e-06
4.7588956e-07
1.4768816e-06
3.6675326e-07
1.1398533e-06
9.6325098e-07
9.2727727e-07
8.2911462e-07
7.7801219e-07
7.1754933e-07
6.715838e-07
6.2841101e-07
5.9106235e-07
5.5737577e-07
5.271635e-07
4.9982398e-07
4.7497301e-07
4.5227592e-07
4.3145785e-07
4.1228866e-07
3.9457439e-07
3.7815104e-07
3.6287787e-07
3.486336e-07
3.3531369e-07
3.2282709e-07
3.1109466e-07
3.0004728e-07
2.8962361e-07
2.7976931e-07
2.7043636e-07
2.6158194e-07
2.5316774e-07
2.4515959e-07
2.3752695e-07
2.3024195e-07
2.2327932e-07
2.1661621e-07
2.1023205e-07
2.0410801e-07
1.9822684e-07
1.9257296e-07
1.8713219e-07
1.8189119e-07
1.7683773e-07
1.7196063e-07
1.6724954e-07
1.6269491e-07
1.5828784e-07
1.5402011e-07
1.4988435e-07
1.4587346e-07
1.4198069e-07
1.3819991e-07
1.3452537e-07
1.3095168e-07
1.274738e-07
1.2408697e-07
1.2078685e-07
1.1756938e-07
1.144306e-07
1.1136676e-07
1.0837442e-07
1.0545027e-07
1.0259122e-07
9.979433e-08
9.7056801e-08
9.4376163e-08
9.1749905e-08
8.9175572e-08
8.6650935e-08
8.4173839e-08
8.1742237e-08
7.9354154e-08
7.7007729e-08
7.4701256e-08
7.2432959e-08
7.0201185e-08
6.8004364e-08
6.584096e-08
6.3709454e-08
6.1608437e-08
5.9536558e-08
5.7491892e-08
5.5474952e-08
5.3534231e-08
5.1725533e-08
5.0049568e-08
4.8491701e-08
4.704087e-08
4.5686166e-08
4.44181e-08
4.3228308e-08
4.2109364e-08
4.1054672e-08
4.0058386e-08
3.9115232e-08
3.822036e-08
3.736931e-08
3.65578e-08
3.5781846e-08
3.5036675e-08
3.4318889e-08
3.3618856e-08
3.2941453e-08
3.2235615e-08
3.1627943e-08
3.0738394e-08
0.00012895093
0.00011905411
0.00011548851
0.00011368832
0.00011255183
0.00011175329
0.00011116083
0.00011070646
0.00011034973
0.00011006456
0.00010983325
0.00010964334
0.00010948583
0.00010935403
0.00010924288
0.00010914855
0.00010906782
0.00010899913
0.00010893809
0.00010889414
0.00010882112
0.00010894861
0.00010803858
0.00011256534
1.7855648e-05
2.371978e-06
3.8994019e-06
7.5596789e-07
2.037942e-06
4.6221563e-07
1.4190837e-06
3.5805097e-07
1.0972447e-06
9.291788e-07
8.9406259e-07
8.0032701e-07
7.5114471e-07
6.9326087e-07
6.4911317e-07
6.0768998e-07
5.7181313e-07
5.3944765e-07
5.1040416e-07
4.8411122e-07
4.6020161e-07
4.3835547e-07
4.1831018e-07
3.9984568e-07
3.827765e-07
3.6694575e-07
3.5221874e-07
3.384794e-07
3.2562762e-07
3.1357619e-07
3.0224931e-07
2.9158074e-07
2.8151168e-07
2.7199004e-07
2.6296976e-07
2.5440978e-07
2.4627335e-07
2.3852766e-07
2.3114342e-07
2.2409385e-07
2.1735469e-07
2.10904e-07
2.0472203e-07
1.9879066e-07
1.9309334e-07
1.8761509e-07
1.8234226e-07
1.7726206e-07
1.723627e-07
1.6763344e-07
1.6306431e-07
1.5864614e-07
1.5437036e-07
1.5022904e-07
1.462151e-07
1.4232172e-07
1.3854237e-07
1.3487116e-07
1.3130256e-07
1.2783136e-07
1.2445272e-07
1.2116205e-07
1.1795515e-07
1.1482813e-07
1.1177716e-07
1.0879862e-07
1.0588919e-07
1.0304569e-07
1.0026514e-07
9.7544678e-08
9.4881627e-08
9.2273595e-08
8.9718159e-08
8.7212946e-08
8.4755804e-08
8.234465e-08
7.9977505e-08
7.7652462e-08
7.536772e-08
7.3121628e-08
7.0912465e-08
6.8738634e-08
6.6598617e-08
6.4490926e-08
6.241409e-08
6.0366746e-08
5.8347586e-08
5.6354756e-08
5.4388741e-08
5.249665e-08
5.0732904e-08
4.9098466e-08
4.7579143e-08
4.6164147e-08
4.4842851e-08
4.3606007e-08
4.2445462e-08
4.135398e-08
4.0325135e-08
3.9353227e-08
3.8433117e-08
3.7560082e-08
3.6729776e-08
3.593803e-08
3.5180963e-08
3.4453929e-08
3.3753612e-08
3.3070646e-08
3.2409737e-08
3.1721316e-08
3.1128334e-08
3.0261393e-08
0.00012850947
0.00011831171
0.00011463326
0.00011277428
0.0001116001
0.00011077484
0.00011016244
0.00010969269
0.00010932381
0.00010902886
0.00010878955
0.00010859303
0.00010842997
0.00010829348
0.00010817832
0.00010808053
0.00010799679
0.00010792548
0.00010786206
0.00010781629
0.00010774062
0.00010787098
0.00010693695
0.00011159888
1.7911205e-05
2.3337535e-06
3.7193072e-06
7.3489598e-07
1.945418e-06
4.4751444e-07
1.3572271e-06
3.4832705e-07
1.0514903e-06
8.9242882e-07
8.5831652e-07
7.692569e-07
7.221567e-07
6.670106e-07
6.2481366e-07
5.8525756e-07
5.509566e-07
5.2000465e-07
4.9221287e-07
4.6704116e-07
4.4414049e-07
4.2320677e-07
4.0399037e-07
3.8628201e-07
3.6990525e-07
3.5471079e-07
3.4057041e-07
3.2737357e-07
3.150249e-07
3.0344132e-07
2.9255055e-07
2.8228945e-07
2.7260195e-07
2.6343834e-07
2.5475469e-07
2.465118e-07
2.3867457e-07
2.3121169e-07
2.2409516e-07
2.1729942e-07
2.1080127e-07
2.0457972e-07
1.9861591e-07
1.9289252e-07
1.873937e-07
1.8210513e-07
1.7701377e-07
1.7210734e-07
1.6737458e-07
1.628052e-07
1.5838966e-07
1.5411916e-07
1.4998551e-07
1.459811e-07
1.4209915e-07
1.3833312e-07
1.3467677e-07
1.3112442e-07
1.2767078e-07
1.2431086e-07
1.2104001e-07
1.1785383e-07
1.1474828e-07
1.1171964e-07
1.0876423e-07
1.0587856e-07
1.0305946e-07
1.0030387e-07
9.7608919e-08
9.497187e-08
9.239014e-08
8.9861433e-08
8.7383421e-08
8.4953822e-08
8.2570566e-08
8.0231646e-08
7.7935161e-08
7.5679273e-08
7.3462247e-08
7.1282494e-08
6.9138353e-08
6.7028288e-08
6.4950835e-08
6.2904561e-08
6.0888047e-08
5.8899979e-08
5.6939097e-08
5.5003623e-08
5.3094016e-08
5.1255875e-08
4.9542082e-08
4.7953829e-08
4.6477401e-08
4.5102311e-08
4.3818243e-08
4.2616212e-08
4.1488299e-08
4.0427478e-08
3.9427506e-08
3.8482848e-08
3.7588514e-08
3.6739918e-08
3.593284e-08
3.5163235e-08
3.4427337e-08
3.3720636e-08
3.303991e-08
3.2376084e-08
3.1733685e-08
3.1064762e-08
3.0488307e-08
2.9646535e-08
0.00012800216
0.00011745461
0.00011364504
0.00011171782
0.00011049992
0.0001096437
0.00010900818
0.0001085206
0.00010813764
0.00010783136
0.0001075828
0.00010737861
0.00010720914
0.00010706721
0.0001069474
0.00010684561
0.00010675838
0.00010668404
0.00010661787
0.00010656999
0.00010649126
0.00010662494
0.0001056633
0.00011048288
1.79853e-05
2.2942548e-06
3.529318e-06
7.1250087e-07
1.8470642e-06
4.3173063e-07
1.2911719e-06
3.3749831e-07
1.0024568e-06
8.5287471e-07
8.1991775e-07
7.3578897e-07
6.9093824e-07
6.3869379e-07
5.9858531e-07
5.6101828e-07
5.284014e-07
4.9895928e-07
4.725057e-07
4.485332e-07
4.2671214e-07
4.0675517e-07
3.8842647e-07
3.7152822e-07
3.5589358e-07
3.4138132e-07
3.2787011e-07
3.1525529e-07
3.0344658e-07
2.9236524e-07
2.819428e-07
2.7211941e-07
2.628419e-07
2.5406312e-07
2.4574138e-07
2.3783949e-07
2.3032413e-07
2.2316556e-07
2.1633719e-07
2.0981473e-07
2.0357613e-07
1.9760144e-07
1.9187271e-07
1.863735e-07
1.8108872e-07
1.7600474e-07
1.7110914e-07
1.6639026e-07
1.6183736e-07
1.5744064e-07
1.5319101e-07
1.4908011e-07
1.4510009e-07
1.4124375e-07
1.3750459e-07
1.3387638e-07
1.3035317e-07
1.2692956e-07
1.2360048e-07
1.2036118e-07
1.1720721e-07
1.1413438e-07
1.1113883e-07
1.0821701e-07
1.053654e-07
1.0258068e-07
9.9859803e-08
9.7199847e-08
9.4598076e-08
9.2051866e-08
8.955875e-08
8.7116531e-08
8.4722985e-08
8.2375925e-08
8.007337e-08
7.7813399e-08
7.559419e-08
7.3413983e-08
7.1271116e-08
6.9164066e-08
6.7091236e-08
6.5051157e-08
6.3042424e-08
6.1063663e-08
5.9113513e-08
5.7190713e-08
5.5294055e-08
5.3421841e-08
5.1574508e-08
4.9796012e-08
4.8137526e-08
4.6600449e-08
4.5171577e-08
4.3840754e-08
4.2598005e-08
4.1434634e-08
4.0342981e-08
3.9316246e-08
3.8348391e-08
3.7434061e-08
3.6568428e-08
3.5747057e-08
3.4965869e-08
3.4220952e-08
3.3508665e-08
3.2824651e-08
3.216579e-08
3.1523324e-08
3.0901592e-08
3.0254397e-08
2.9696435e-08
2.8882572e-08
0.00012742335
0.00011647155
0.0001125105
0.00011050453
0.00010923623
0.00010834432
0.00010768218
0.00010717407
0.0001067749
0.00010645559
0.00010619638
0.00010598337
0.00010580651
0.00010565833
0.00010553317
0.00010542678
0.00010533553
0.0001052577
0.00010518838
0.00010513807
0.00010505584
0.0001051933
0.00010420013
0.00010920243
1.8081927e-05
2.253863e-06
3.3298039e-06
6.8876162e-07
1.7429115e-06
4.1482587e-07
1.2208777e-06
3.2549559e-07
9.5008027e-07
8.1044368e-07
7.7879587e-07
6.9985139e-07
6.574192e-07
6.0824129e-07
5.703606e-07
5.3490625e-07
5.0408342e-07
4.7624919e-07
4.5122207e-07
4.2852849e-07
4.0785937e-07
3.8894512e-07
3.715645e-07
3.5553182e-07
3.4069043e-07
3.2690764e-07
3.1406945e-07
3.0207745e-07
2.9084673e-07
2.803032e-07
2.7038241e-07
2.6102802e-07
2.5218994e-07
2.4382375e-07
2.3589016e-07
2.2835408e-07
2.2118411e-07
2.1435218e-07
2.0783321e-07
2.0160426e-07
1.956445e-07
1.8993509e-07
1.8445907e-07
1.7920091e-07
1.7414634e-07
1.6928248e-07
1.6459758e-07
1.600806e-07
1.5572139e-07
1.5151066e-07
1.4743982e-07
1.4350094e-07
1.396866e-07
1.3598995e-07
1.3240487e-07
1.2892543e-07
1.2554599e-07
1.2226143e-07
1.1906695e-07
1.1595804e-07
1.1293048e-07
1.0998029e-07
1.071038e-07
1.0429764e-07
1.0155848e-07
9.8883162e-08
9.6268782e-08
9.3712572e-08
9.1211928e-08
8.8764357e-08
8.636751e-08
8.4019303e-08
8.1717617e-08
7.9460373e-08
7.7245682e-08
7.5071718e-08
7.2936744e-08
7.0839085e-08
6.8777156e-08
6.6749505e-08
6.4754607e-08
6.2791063e-08
6.0857535e-08
5.8952711e-08
5.7075292e-08
5.5224076e-08
5.3397912e-08
5.1595187e-08
4.9816317e-08
4.8103478e-08
4.6505955e-08
4.5025326e-08
4.3648933e-08
4.2366985e-08
4.1169878e-08
4.0049233e-08
3.8997672e-08
3.8008645e-08
3.7076335e-08
3.6195584e-08
3.5361745e-08
3.4570545e-08
3.3818058e-08
3.3100521e-08
3.2414427e-08
3.1755587e-08
3.1120993e-08
3.0502234e-08
2.9903446e-08
2.9280335e-08
2.8742941e-08
2.7959884e-08
0.00012676746
0.00011535091
0.00011121578
0.00010911944
0.00010779334
0.00010686055
0.00010616793
0.00010563632
0.00010521861
0.00010488438
0.00010461298
0.00010438989
0.00010420458
0.00010404925
0.00010391798
0.00010380632
0.00010371048
0.00010362867
0.00010355574
0.00010350265
0.00010341644
0.0001035582
0.00010252927
0.00010774206
1.8205648e-05
2.213152e-06
3.1215429e-06
6.6368921e-07
1.6331846e-06
3.9678327e-07
1.1464272e-06
3.122693e-07
8.9438344e-07
7.6513066e-07
7.3494483e-07
6.6142778e-07
6.215802e-07
5.756295e-07
5.4011372e-07
5.0689379e-07
4.7797376e-07
4.5184466e-07
4.2833171e-07
4.0699648e-07
3.8755154e-07
3.6974599e-07
3.5337395e-07
3.3826252e-07
3.2426578e-07
3.1126007e-07
2.991391e-07
2.8781109e-07
2.7719678e-07
2.6722702e-07
2.5784162e-07
2.4898793e-07