/*--------------------------------*- C++ -*----------------------------------*\
| =========                 |                                                 |
| \\      /  F ield         | OpenFOAM: The Open Source CFD Toolbox           |
|  \\    /   O peration     | Version:  2206                                  |
|   \\  /    A nd           | Website:  www.openfoam.com                      |
|    \\/     M anipulation  |                                                 |
\*---------------------------------------------------------------------------*/
FoamFile
{
    version     2.0;
    format      ascii;
    arch        "LSB;label=32;scalar=64";
    class       volScalarField;
    location    "1300";
    object      nut;
}
// * * * * * * * * * * * * * * * * * * * * * * * * * * * * * * * * * * * * * //

dimensions      [0 2 -1 0 0 0 0];

internalField   nonuniform List<scalar> 
13056
(
6.5514932e-09
5.7795422e-09
5.5288222e-09
5.4051333e-09
5.3274366e-09
5.2731409e-09
5.2330682e-09
5.2024585e-09
5.1784907e-09
5.1593552e-09
5.1438285e-09
5.1310488e-09
5.1203869e-09
5.1113669e-09
5.1036087e-09
5.096801e-09
5.090618e-09
5.0848311e-09
5.0786589e-09
5.0726528e-09
5.0602822e-09
5.0574226e-09
4.973146e-09
4.1628601e-09
3.1711744e-11
1.2351191e-11
1.7422201e-11
7.2244337e-12
1.2512606e-11
5.6943436e-12
1.035893e-11
4.8608021e-12
9.0403611e-12
8.2413068e-12
8.1097105e-12
7.6317451e-12
7.3917867e-12
7.0780676e-12
6.8385598e-12
6.6021019e-12
6.3929339e-12
6.198122e-12
6.0188214e-12
5.8522571e-12
5.6970567e-12
5.5518995e-12
5.4156824e-12
5.2874627e-12
5.1664295e-12
5.051886e-12
4.9432208e-12
4.8398972e-12
4.7414449e-12
4.647447e-12
4.5575359e-12
4.4713867e-12
4.3887049e-12
4.3092254e-12
4.2327112e-12
4.1589476e-12
4.0877395e-12
4.0189114e-12
3.9523047e-12
3.8877718e-12
3.825177e-12
3.7643965e-12
3.7053168e-12
3.6478326e-12
3.5918461e-12
3.5372691e-12
3.48402e-12
3.4320201e-12
3.3811962e-12
3.3314813e-12
3.2828119e-12
3.2351289e-12
3.188376e-12
3.1425009e-12
3.0974572e-12
3.0531982e-12
3.0096781e-12
2.9668556e-12
2.9246911e-12
2.8831467e-12
2.8421864e-12
2.8017753e-12
2.7618817e-12
2.7224753e-12
2.6835251e-12
2.6450011e-12
2.6068753e-12
2.5691203e-12
2.5317095e-12
2.4946166e-12
2.4578162e-12
2.4212856e-12
2.3850003e-12
2.348935e-12
2.3130665e-12
2.2773712e-12
2.2418255e-12
2.2064057e-12
2.1710883e-12
2.135851e-12
2.1006692e-12
2.0655177e-12
2.0303716e-12
1.995205e-12
1.9599902e-12
1.9246999e-12
1.8893052e-12
1.8537629e-12
1.8180774e-12
1.7831523e-12
1.7500602e-12
1.7188654e-12
1.6893757e-12
1.6614657e-12
1.6349967e-12
1.6098472e-12
1.5859074e-12
1.5630774e-12
1.5412664e-12
1.5203926e-12
1.5003798e-12
1.4811555e-12
1.4626509e-12
1.444796e-12
1.4275237e-12
1.410744e-12
1.3943961e-12
1.3782631e-12
1.3624813e-12
1.3457814e-12
1.331336e-12
1.3095681e-12
6.5514613e-09
5.7787746e-09
5.5278136e-09
5.4040031e-09
5.3262294e-09
5.2718796e-09
5.231767e-09
5.201127e-09
5.1771356e-09
5.1579815e-09
5.1424402e-09
5.129649e-09
5.1189784e-09
5.1099523e-09
5.1021906e-09
5.0953824e-09
5.0892025e-09
5.0834236e-09
5.0772688e-09
5.0712898e-09
5.0589886e-09
5.0562192e-09
4.9723653e-09
4.1622458e-09
3.2259662e-11
1.2221184e-11
1.6995672e-11
7.0926788e-12
1.2204318e-11
5.5621204e-12
1.0109803e-11
4.7237777e-12
8.8288737e-12
8.056009e-12
7.9235583e-12
7.4597648e-12
7.2243051e-12
6.918941e-12
6.6847067e-12
6.4538514e-12
6.2492796e-12
6.058705e-12
5.8831492e-12
5.7199575e-12
5.5677913e-12
5.4253716e-12
5.2916285e-12
5.165648e-12
5.0466434e-12
4.9339384e-12
4.8269399e-12
4.7251267e-12
4.6280421e-12
4.535281e-12
4.4464865e-12
4.3613425e-12
4.2795629e-12
4.2008899e-12
4.1250928e-12
4.0519628e-12
3.9813096e-12
3.9129623e-12
3.8467666e-12
3.7825784e-12
3.7202652e-12
3.6597065e-12
3.6007911e-12
3.5434161e-12
3.4874859e-12
3.4329141e-12
3.3796207e-12
3.3275284e-12
3.2765655e-12
3.2266658e-12
3.177767e-12
3.1298105e-12
3.082741e-12
3.0365064e-12
2.9910609e-12
2.9463578e-12
2.9023516e-12
2.859001e-12
2.8162662e-12
2.7741092e-12
2.7324935e-12
2.6913839e-12
2.6507478e-12
2.6105545e-12
2.570772e-12
2.5313692e-12
2.4923172e-12
2.4535871e-12
2.415151e-12
2.3769809e-12
2.3390497e-12
2.3013328e-12
2.2638033e-12
2.2264337e-12
2.1891981e-12
2.15207e-12
2.1150229e-12
2.0780293e-12
2.0410621e-12
2.0040949e-12
1.9670987e-12
1.9300431e-12
1.8928979e-12
1.8556308e-12
1.8182076e-12
1.7805933e-12
1.742751e-12
1.7046268e-12
1.6662187e-12
1.6284935e-12
1.5926166e-12
1.5586718e-12
1.5264654e-12
1.4958755e-12
1.4667639e-12
1.4390091e-12
1.4125011e-12
1.3871391e-12
1.3628315e-12
1.3394951e-12
1.3170522e-12
1.2954283e-12
1.274552e-12
1.2543493e-12
1.234749e-12
1.2156528e-12
1.196995e-12
1.1785304e-12
1.1604142e-12
1.1411893e-12
1.1244977e-12
1.099308e-12
6.5513143e-09
5.7763748e-09
5.5246814e-09
5.4005018e-09
5.3224936e-09
5.2679793e-09
5.227745e-09
5.1970119e-09
5.1729477e-09
5.1537358e-09
5.1381478e-09
5.125319e-09
5.114618e-09
5.1055676e-09
5.0977874e-09
5.0909661e-09
5.0847795e-09
5.0790012e-09
5.0728599e-09
5.0669082e-09
5.0546855e-09
5.0520366e-09
4.9686646e-09
4.1601848e-09
3.283652e-11
1.20912e-11
1.6571197e-11
6.9606305e-12
1.1896515e-11
5.4298973e-12
9.8605968e-12
4.5888137e-12
8.6170228e-12
7.8699383e-12
7.7369513e-12
7.287135e-12
7.0562836e-12
6.7591976e-12
6.5302691e-12
6.3050028e-12
6.105042e-12
5.9187151e-12
5.7469228e-12
5.5871254e-12
5.4380192e-12
5.2983663e-12
5.1671304e-12
5.0434255e-12
4.9264892e-12
4.815666e-12
4.7103806e-12
4.6101275e-12
4.5144637e-12
4.422996e-12
4.3353778e-12
4.2513025e-12
4.1704922e-12
4.0926962e-12
4.0176906e-12
3.9452723e-12
3.8752562e-12
3.8074761e-12
3.741782e-12
3.6780335e-12
3.6161015e-12
3.5558688e-12
3.497227e-12
3.4400757e-12
3.3843216e-12
3.3298803e-12
3.2766738e-12
3.2246266e-12
3.1736683e-12
3.1237344e-12
3.0747635e-12
3.0266986e-12
2.9794851e-12
2.9330718e-12
2.8874137e-12
2.8424651e-12
2.7981808e-12
2.7545202e-12
2.7114439e-12
2.6689143e-12
2.6268952e-12
2.5853515e-12
2.5442511e-12
2.5035632e-12
2.4632559e-12
2.4232981e-12
2.3836608e-12
2.3443151e-12
2.3052328e-12
2.2663858e-12
2.2277466e-12
2.1892904e-12
2.15099e-12
2.1128174e-12
2.0747464e-12
2.03675e-12
1.9988012e-12
1.9608721e-12
1.922935e-12
1.8849632e-12
1.8469273e-12
1.8087963e-12
1.7705395e-12
1.7321245e-12
1.6935166e-12
1.6546808e-12
1.6155804e-12
1.5761609e-12
1.5364227e-12
1.4973663e-12
1.4602026e-12
1.425025e-12
1.391639e-12
1.3599229e-12
1.3297375e-12
1.3009603e-12
1.2734799e-12
1.2471939e-12
1.2220091e-12
1.1978408e-12
1.1746096e-12
1.1522393e-12
1.1306568e-12
1.109786e-12
1.089554e-12
1.06986e-12
1.0506366e-12
1.031633e-12
1.0130077e-12
9.9327364e-13
9.761482e-13
9.5039871e-13
6.5510535e-09
5.7722684e-09
5.5193271e-09
5.3945185e-09
5.3161109e-09
5.2613162e-09
5.2208744e-09
5.1899826e-09
5.1657939e-09
5.1464826e-09
5.1308143e-09
5.11792e-09
5.1071654e-09
5.0980712e-09
5.0902557e-09
5.0834072e-09
5.0772017e-09
5.0714137e-09
5.065277e-09
5.0593468e-09
5.0471972e-09
5.0446835e-09
4.9617659e-09
4.1565186e-09
3.3453382e-11
1.1959857e-11
1.6143452e-11
6.827008e-12
1.1585364e-11
5.29646e-12
9.6082291e-12
4.4548442e-12
8.4022154e-12
7.6808495e-12
7.5476472e-12
7.1118029e-12
6.885741e-12
6.5969744e-12
6.3734643e-12
6.1538574e-12
5.9585938e-12
5.7765917e-12
5.608642e-12
5.4523159e-12
5.3063466e-12
5.1695373e-12
5.0408852e-12
4.919533e-12
4.8047427e-12
4.6958797e-12
4.5923868e-12
4.4937744e-12
4.3996133e-12
4.3095224e-12
4.2231657e-12
4.1402462e-12
4.0604941e-12
3.9836665e-12
3.909546e-12
3.8379355e-12
3.7686553e-12
3.7015442e-12
3.6364562e-12
3.5732552e-12
3.5118158e-12
3.4520239e-12
3.3937741e-12
3.3369689e-12
3.2815174e-12
3.2273374e-12
3.1743532e-12
3.1224912e-12
3.0716827e-12
3.0218649e-12
2.9729779e-12
2.9249661e-12
2.8777762e-12
2.8313583e-12
2.7856684e-12
2.740662e-12
2.6962948e-12
2.652527e-12
2.6093203e-12
2.5666377e-12
2.524444e-12
2.4827047e-12
2.4413882e-12
2.4004648e-12
2.359903e-12
2.3196723e-12
2.2797445e-12
2.2400912e-12
2.2006848e-12
2.161498e-12
2.1225038e-12
2.0836782e-12
2.0449946e-12
2.0064259e-12
1.9679467e-12
1.9295309e-12
1.8911523e-12
1.8527844e-12
1.8144006e-12
1.7759755e-12
1.7374814e-12
1.6988892e-12
1.6601699e-12
1.6212934e-12
1.5822277e-12
1.5429409e-12
1.5033997e-12
1.4635534e-12
1.4234079e-12
1.383975e-12
1.3464783e-12
1.3110152e-12
1.2773897e-12
1.245479e-12
1.2151418e-12
1.1862538e-12
1.1587016e-12
1.1323811e-12
1.1071971e-12
1.0830634e-12
1.0598988e-12
1.0376258e-12
1.0161699e-12
9.9545417e-13
9.7540467e-13
9.5592079e-13
9.3693478e-13
9.1819979e-13
8.9986987e-13
8.8049377e-13
8.6369762e-13
8.3855379e-13
6.5506821e-09
5.7663397e-09
5.511597e-09
5.3858809e-09
5.3068972e-09
5.251698e-09
5.2109568e-09
5.1798357e-09
5.1554673e-09
5.1360124e-09
5.1202277e-09
5.1072381e-09
5.0964049e-09
5.087246e-09
5.0793775e-09
5.0724865e-09
5.066249e-09
5.0604404e-09
5.0542992e-09
5.0483842e-09
5.0363023e-09
5.0339394e-09
4.95145e-09
4.1511302e-09
3.4121793e-11
1.1825902e-11
1.5707575e-11
6.6906268e-12
1.126732e-11
5.1606884e-12
9.3498295e-12
4.3208825e-12
8.1820242e-12
7.4866279e-12
7.3535422e-12
6.9318365e-12
6.7108149e-12
6.4305176e-12
6.2126142e-12
5.9988156e-12
5.8084025e-12
5.6308651e-12
5.466894e-12
5.3141688e-12
5.1714619e-12
5.0376177e-12
4.9116681e-12
4.7927846e-12
4.6802543e-12
4.5734638e-12
4.4718746e-12
4.3750133e-12
4.2824648e-12
4.1938604e-12
4.1088752e-12
4.0272215e-12
3.9486385e-12
3.8728909e-12
3.7997682e-12
3.7290795e-12
3.6606508e-12
3.5943257e-12
3.5299631e-12
3.4674308e-12
3.4066073e-12
3.3473819e-12
3.2896526e-12
3.2333247e-12
3.17831e-12
3.1245288e-12
3.0719077e-12
3.0203751e-12
2.9698645e-12
2.9203147e-12
2.8716679e-12
2.8238698e-12
2.7768687e-12
2.7306163e-12
2.6850698e-12
2.640186e-12
2.595922e-12
2.5522391e-12
2.5091e-12
2.4664691e-12
2.424312e-12
2.3825955e-12
2.341289e-12
2.3003637e-12
2.2597892e-12
2.2195362e-12
2.1795774e-12
2.1398854e-12
2.100434e-12
2.0611966e-12
2.0221479e-12
1.9832646e-12
1.9445219e-12
1.9058938e-12
1.8673565e-12
1.8288854e-12
1.7904562e-12
1.7520441e-12
1.7136246e-12
1.6751746e-12
1.6366688e-12
1.5980807e-12
1.5593844e-12
1.5205531e-12
1.4815585e-12
1.4423727e-12
1.402967e-12
1.3632962e-12
1.3233717e-12
1.2842e-12
1.2469961e-12
1.2118569e-12
1.1785854e-12
1.1470565e-12
1.1171273e-12
1.0886713e-12
1.0615735e-12
1.035728e-12
1.0110382e-12
9.8741632e-13
9.647802e-13
9.4305116e-13
9.221541e-13
9.0201184e-13
8.8255042e-13
8.6367062e-13
8.4530522e-13
8.2721571e-13
8.0954814e-13
7.9091523e-13
7.7478024e-13
7.5072892e-13
6.5502066e-09
5.758433e-09
5.5012846e-09
5.374357e-09
5.2946044e-09
5.2388654e-09
5.1977247e-09
5.1662978e-09
5.1416893e-09
5.1220425e-09
5.1061022e-09
5.0929848e-09
5.0820461e-09
5.0727996e-09
5.0648588e-09
5.0579088e-09
5.0516252e-09
5.045784e-09
5.0396282e-09
5.0337218e-09
5.0217018e-09
5.0195065e-09
4.937418e-09
4.1438604e-09
3.4855156e-11
1.1688226e-11
1.5259149e-11
6.5504025e-12
1.0939114e-11
5.0215604e-12
9.0827276e-12
4.1860214e-12
7.9541792e-12
7.2852837e-12
7.1526641e-12
6.7454186e-12
6.5297563e-12
6.2581778e-12
6.0461416e-12
5.8383736e-12
5.6530277e-12
5.4801542e-12
5.3203519e-12
5.1714076e-12
5.0321349e-12
4.9014207e-12
4.7783321e-12
4.6620709e-12
4.5519496e-12
4.4473769e-12
4.3478336e-12
4.2528628e-12
4.1620641e-12
4.0750816e-12
3.9916018e-12
3.9113471e-12
3.8340655e-12
3.7595298e-12
3.6875367e-12
3.6179018e-12
3.5504568e-12
3.4850507e-12
3.421547e-12
3.3598181e-12
3.2997464e-12
3.241225e-12
3.1841551e-12
3.1284452e-12
3.07401e-12
3.0207725e-12
2.9686616e-12
2.9176081e-12
2.8675477e-12
2.8184213e-12
2.7701727e-12
2.7227497e-12
2.6761022e-12
2.6301835e-12
2.5849524e-12
2.5403671e-12
2.4963862e-12
2.4529724e-12
2.4100899e-12
2.3677041e-12
2.325782e-12
2.2842918e-12
2.2432041e-12
2.2024913e-12
2.1621244e-12
2.1220752e-12
2.0823179e-12
2.0428263e-12
2.0035756e-12
1.9645408e-12
1.9256977e-12
1.8870249e-12
1.8484988e-12
1.8100955e-12
1.7717927e-12
1.7335678e-12
1.6953986e-12
1.6572623e-12
1.619137e-12
1.5810018e-12
1.5428344e-12
1.5046111e-12
1.4663092e-12
1.4279056e-12
1.3893756e-12
1.3506957e-12
1.3118419e-12
1.2727743e-12
1.2335093e-12
1.1950361e-12
1.1585459e-12
1.1241326e-12
1.0915994e-12
1.0608184e-12
1.0316456e-12
1.0039531e-12
9.776244e-13
9.5255266e-13
9.2864027e-13
9.0579861e-13
8.8394499e-13
8.6300037e-13
8.4288959e-13
8.2353589e-13
8.0486598e-13
7.8678292e-13
7.6922061e-13
7.5195095e-13
7.3511056e-13
7.1738761e-13
7.0205353e-13
6.7928655e-13
6.5496386e-09
5.7483551e-09
5.4881317e-09
5.3596568e-09
5.2789225e-09
5.2224946e-09
5.1808441e-09
5.1490267e-09
5.1241119e-09
5.1042201e-09
5.0880808e-09
5.0748001e-09
5.0637261e-09
5.0543669e-09
5.0463324e-09
5.0393052e-09
5.0329599e-09
5.027073e-09
5.0208917e-09
5.0149865e-09
5.003022e-09
5.0010126e-09
4.919295e-09
4.1345093e-09
3.5669163e-11
1.1545877e-11
1.4794197e-11
6.4053568e-12
1.0597748e-11
4.8781555e-12
8.8044548e-12
4.0494324e-12
7.7165687e-12
7.0749545e-12
6.9431736e-12
6.5508494e-12
6.340931e-12
6.0784126e-12
5.8725721e-12
5.6711254e-12
5.4911238e-12
5.3231697e-12
5.1677778e-12
5.0228419e-12
4.8872195e-12
4.7598413e-12
4.6398111e-12
4.5263617e-12
4.4188324e-12
4.3166546e-12
4.2193292e-12
4.1264165e-12
4.0375315e-12
3.9523316e-12
3.8705151e-12
3.7918147e-12
3.715988e-12
3.6428161e-12
3.5721032e-12
3.5036717e-12
3.4373594e-12
3.3730208e-12
3.3105245e-12
3.2497474e-12
3.1905762e-12
3.1329079e-12
3.0766472e-12
3.021706e-12
2.9680021e-12
2.9154611e-12
2.8640146e-12
2.813596e-12
2.7641432e-12
2.7155993e-12
2.6679102e-12
2.6210255e-12
2.5748973e-12
2.5294802e-12
2.4847351e-12
2.4406215e-12
2.3970997e-12
2.354134e-12
2.3116899e-12
2.2697345e-12
2.2282361e-12
2.1871643e-12
2.1464911e-12
2.1061903e-12
2.0662343e-12
2.0265964e-12
1.9872521e-12
1.9481769e-12
1.9093472e-12
1.8707396e-12
1.8323317e-12
1.7941034e-12
1.7560332e-12
1.7180985e-12
1.6802793e-12
1.6425549e-12
1.604905e-12
1.5673092e-12
1.5297478e-12
1.4922025e-12
1.4546536e-12
1.4170804e-12
1.3794632e-12
1.3417821e-12
1.3040162e-12
1.2661459e-12
1.2281512e-12
1.1899976e-12
1.1517049e-12
1.1142368e-12
1.0787498e-12
1.0453338e-12
1.0137927e-12
9.839969e-13
9.5580158e-13
9.2907824e-13
9.0370985e-13
8.7958912e-13
8.5661825e-13
8.3470847e-13
8.1377718e-13
7.9374566e-13
7.7453929e-13
7.5608238e-13
7.3830287e-13
7.2110672e-13
7.044294e-13
6.8805417e-13
6.7210784e-13
6.5535767e-13
6.4087445e-13
6.1944906e-13
6.5489979e-09
5.7358764e-09
5.4718315e-09
5.3414351e-09
5.2594825e-09
5.2021997e-09
5.1599168e-09
5.1276152e-09
5.1023203e-09
5.0821245e-09
5.0657384e-09
5.0522548e-09
5.0410123e-09
5.0315127e-09
5.0233608e-09
5.0162363e-09
5.0098121e-09
5.0038648e-09
4.9976458e-09
4.9917335e-09
4.9798172e-09
4.9780137e-09
4.8966333e-09
4.1228366e-09
3.6582343e-11
1.1398094e-11
1.4309215e-11
6.2546261e-12
1.0240521e-11
4.7296605e-12
8.5127588e-12
3.9103618e-12
7.4672513e-12
6.853916e-12
6.7233738e-12
6.3465558e-12
6.1428285e-12
5.8897943e-12
5.6905419e-12
5.4957708e-12
5.3214466e-12
5.15872e-12
5.0080285e-12
4.8673737e-12
4.7356598e-12
4.6118629e-12
4.4951251e-12
4.3847117e-12
4.2799896e-12
4.1804145e-12
4.0855077e-12
3.9948481e-12
3.9080663e-12
3.8248338e-12
3.7448613e-12
3.6678926e-12
3.5936948e-12
3.522058e-12
3.4527943e-12
3.3857332e-12
3.3207189e-12
3.2576117e-12
3.1962855e-12
3.1366222e-12
3.0785128e-12
3.0218584e-12
2.9665676e-12
2.9125556e-12
2.8597436e-12
2.8080602e-12
2.7574396e-12
2.707818e-12
2.6591356e-12
2.6113379e-12
2.564373e-12
2.5181927e-12
2.4727508e-12
2.428004e-12
2.3839148e-12
2.3404446e-12
2.2975553e-12
2.2552127e-12
2.2133842e-12
2.1720381e-12
2.1311444e-12
2.0906742e-12
2.0506008e-12
2.0108997e-12
1.9715447e-12
1.9325105e-12
1.8937742e-12
1.8553126e-12
1.8171038e-12
1.7791261e-12
1.7413584e-12
1.7037824e-12
1.6663782e-12
1.6291252e-12
1.5920049e-12
1.5549988e-12
1.5180885e-12
1.4812558e-12
1.444483e-12
1.4077543e-12
1.3710523e-12
1.334359e-12
1.2976576e-12
1.2609311e-12
1.2241618e-12
1.1873333e-12
1.1504295e-12
1.1134203e-12
1.0763282e-12
1.0400844e-12
1.0058038e-12
9.7357169e-13
9.4319372e-13
9.1453918e-13
8.8746353e-13
8.6183842e-13
8.3754709e-13
8.1448266e-13
7.9254786e-13
7.7165448e-13
7.5172063e-13
7.3266855e-13
7.1442474e-13
6.969151e-13
6.8006927e-13
6.6379661e-13
6.4803446e-13
6.3257783e-13
6.1754387e-13
6.0177883e-13
5.8815361e-13
5.6806485e-13
6.5483159e-09
5.7207344e-09
5.4520301e-09
5.3192937e-09
5.2358581e-09
5.1775355e-09
5.1344834e-09
5.101593e-09
5.0758361e-09
5.0552706e-09
5.0385841e-09
5.0248535e-09
5.0134059e-09
5.0037349e-09
4.9954393e-09
4.988195e-09
4.9816726e-09
4.9756486e-09
4.9693782e-09
4.9634496e-09
4.9515731e-09
4.9499975e-09
4.8689165e-09
4.1085621e-09
3.7616768e-11
1.1244342e-11
1.3801223e-11
6.0974716e-12
9.8650591e-12
4.5753753e-12
8.2056323e-12
3.7681292e-12
7.2044787e-12
6.6206032e-12
6.4917289e-12
6.1311083e-12
5.9340778e-12
5.6910256e-12
5.498812e-12
5.3111283e-12
5.1428663e-12
4.9857236e-12
4.8400674e-12
4.7040083e-12
4.5765001e-12
4.4565664e-12
4.3433894e-12
4.2362684e-12
4.1345996e-12
4.0378635e-12
3.9456035e-12
3.8574174e-12
3.7729527e-12
3.6918956e-12
3.6139697e-12
3.5389303e-12
3.466555e-12
3.3966432e-12
3.3290151e-12
3.2635077e-12
3.1999723e-12
3.138275e-12
3.0782955e-12
3.0199207e-12
2.9630463e-12
2.9075778e-12
2.8534277e-12
2.8005151e-12
2.7487643e-12
2.6981072e-12
2.6484809e-12
2.5998244e-12
2.5520806e-12
2.5051973e-12
2.459125e-12
2.4138175e-12
2.3692309e-12
2.3253238e-12
2.2820604e-12
2.2394042e-12
2.1973187e-12
2.1557714e-12
2.1147313e-12
2.0741684e-12
2.0340543e-12
1.9943614e-12
1.9550648e-12
1.9161413e-12
1.8775662e-12
1.8393158e-12
1.8013685e-12
1.7637028e-12
1.7262984e-12
1.6891348e-12
1.6521928e-12
1.6154554e-12
1.5789045e-12
1.5425212e-12
1.5062888e-12
1.4701903e-12
1.4342093e-12
1.3983296e-12
1.3625355e-12
1.3268133e-12
1.2911476e-12
1.2555229e-12
1.2199247e-12
1.1843386e-12
1.1487497e-12
1.1131444e-12
1.0775096e-12
1.041819e-12
1.0060969e-12
9.7123727e-13
9.3830855e-13
9.0739088e-13
8.7829295e-13
8.5088377e-13
8.2502007e-13
8.0057448e-13
7.7743137e-13
7.5548508e-13
7.3463953e-13
7.1480777e-13
6.9590921e-13
6.7786763e-13
6.6061113e-13
6.4406766e-13
6.2816897e-13
6.1282813e-13
5.9798467e-13
5.8344542e-13
5.6931819e-13
5.5452645e-13
5.4174638e-13
5.2296152e-13
6.54764e-09
5.7026354e-09
5.4283297e-09
5.2927838e-09
5.2075694e-09
5.1480001e-09
5.104026e-09
5.0704301e-09
5.0441196e-09
5.0231112e-09
5.0060649e-09
4.9920381e-09
4.9803445e-09
4.9704675e-09
4.961999e-09
4.9546098e-09
4.9479677e-09
4.941849e-09
4.9355119e-09
4.9295566e-09
4.9177103e-09
4.9163865e-09
4.8355628e-09
4.0913662e-09
3.8798938e-11
1.1084374e-11
1.3267845e-11
5.9332938e-12
9.469377e-12
4.4147221e-12
7.8813561e-12
3.6221275e-12
6.9267308e-12
6.3736395e-12
6.2468927e-12
5.9032476e-12
5.7134716e-12
5.4809619e-12
5.2962891e-12
5.1161551e-12
4.9543858e-12
4.8032267e-12
4.6629807e-12
4.5318695e-12
4.4088996e-12
4.2931442e-12
4.1838278e-12
4.0802852e-12
3.9819434e-12
3.8883092e-12
3.7989489e-12
3.7134805e-12
3.631569e-12
3.5529164e-12
3.4772597e-12
3.4043664e-12
3.3340252e-12
3.2660449e-12
3.2002549e-12
3.1364999e-12
3.0746383e-12
3.0145429e-12
2.956099e-12
2.8991991e-12
2.8437439e-12
2.7896432e-12
2.736814e-12
2.6851792e-12
2.6346667e-12
2.5852116e-12
2.5367543e-12
2.4892366e-12
2.442604e-12
2.396807e-12
2.3517986e-12
2.3075348e-12
2.2639738e-12
2.2210764e-12
2.1788087e-12
2.1371359e-12
2.0960235e-12
2.0554408e-12
2.0153583e-12
1.9757477e-12
1.9365823e-12
1.8978361e-12
1.8594855e-12
1.8215089e-12
1.783883e-12
1.7465858e-12
1.709597e-12
1.6728967e-12
1.6364658e-12
1.6002856e-12
1.5643382e-12
1.5286083e-12
1.493079e-12
1.4577332e-12
1.4225557e-12
1.3875312e-12
1.3526451e-12
1.3178827e-12
1.2832302e-12
1.2486756e-12
1.2142055e-12
1.1798064e-12
1.1454658e-12
1.1111716e-12
1.0769109e-12
1.0426727e-12
1.0084462e-12
9.7420854e-13
9.3998482e-13
9.066282e-13
8.751572e-13
8.456469e-13
8.1791012e-13
7.9181652e-13
7.67225e-13
7.4401009e-13
7.2205806e-13
7.0126518e-13
6.8153728e-13
6.6278921e-13
6.4494228e-13
6.2792225e-13
6.116593e-13
5.9608379e-13
5.8112992e-13
5.6671472e-13
5.5278013e-13
5.391447e-13
5.2590741e-13
5.1206633e-13
5.0011004e-13
4.8258548e-13
6.5470401e-09
5.6812584e-09
5.4002913e-09
5.2614096e-09
5.1740853e-09
5.1130381e-09
5.0679718e-09
5.0335402e-09
5.0065741e-09
4.9850413e-09
4.9675689e-09
4.9531914e-09
4.9412062e-09
4.9310848e-09
4.9224108e-09
4.9148489e-09
4.9080633e-09
4.9018296e-09
4.8954087e-09
4.8894149e-09
4.877588e-09
4.8765419e-09
4.7959298e-09
4.0708897e-09
4.0160921e-11
1.0918305e-11
1.2707415e-11
5.7616489e-12
9.0519474e-12
4.247256e-12
7.5385566e-12
3.4718285e-12
6.6327623e-12
6.1118783e-12
5.9877468e-12
5.6619195e-12
5.4799992e-12
5.2586417e-12
5.0820544e-12
4.9099738e-12
4.7551663e-12
4.6104267e-12
4.4759999e-12
4.350221e-12
4.2321523e-12
4.1209191e-12
4.0157902e-12
3.9161378e-12
3.8214211e-12
3.7311746e-12
3.6449888e-12
3.5625029e-12
3.4834005e-12
3.4073998e-12
3.3342525e-12
3.2637387e-12
3.1956586e-12
3.1298316e-12
3.0660959e-12
3.004305e-12
2.9443245e-12
2.8860343e-12
2.8293258e-12
2.7740972e-12
2.7202544e-12
2.6677122e-12
2.6163918e-12
2.5662203e-12
2.5171294e-12
2.4690578e-12
2.4219489e-12
2.3757476e-12
2.3304025e-12
2.2858666e-12
2.2420954e-12
2.1990473e-12
2.1566829e-12
2.1149651e-12
2.0738618e-12
2.0333404e-12
1.9933681e-12
1.953916e-12
1.9149564e-12
1.8764627e-12
1.8384097e-12
1.800773e-12
1.7635306e-12
1.7266622e-12
1.6901462e-12
1.6539619e-12
1.6180904e-12
1.5825134e-12
1.5472131e-12
1.5121722e-12
1.4773742e-12
1.4428052e-12
1.4084499e-12
1.3742924e-12
1.3403191e-12
1.3065161e-12
1.2728703e-12
1.2393686e-12
1.2059988e-12
1.1727503e-12
1.1396114e-12
1.1065703e-12
1.0736163e-12
1.040739e-12
1.0079274e-12
9.7517242e-13
9.4246521e-13
9.0978567e-13
8.7715915e-13
8.453955e-13
8.1546076e-13
7.8742516e-13
7.6110666e-13
7.3637651e-13
7.1309669e-13
6.9114444e-13
6.7040867e-13
6.5078826e-13
6.3219154e-13
6.1453572e-13
5.9774446e-13
5.8174595e-13
5.664728e-13
5.5185813e-13
5.3783884e-13
5.2433611e-13
5.1129447e-13
4.9854403e-13
4.8617545e-13
4.7325856e-13
4.62102e-13
4.4579177e-13
6.5466153e-09
5.6562588e-09
5.3674385e-09
5.2246316e-09
5.1348277e-09
5.072045e-09
5.0256969e-09
4.990285e-09
4.96255e-09
4.9404023e-09
4.9224302e-09
4.9076414e-09
4.895314e-09
4.8849058e-09
4.87599e-09
4.8682246e-09
4.861269e-09
4.8548979e-09
4.8483743e-09
4.8423289e-09
4.8305091e-09
4.8297687e-09
4.7493188e-09
4.0467349e-09
4.1741792e-11
1.0746713e-11
1.2119102e-11
5.5822711e-12
8.6117934e-12
4.0726791e-12
7.1762786e-12
3.3167938e-12
6.3216634e-12
5.8344545e-12
5.7134503e-12
5.4063206e-12
5.2328889e-12
5.0233268e-12
4.8554008e-12
4.6919075e-12
4.5445595e-12
4.406703e-12
4.2785309e-12
4.1584938e-12
4.0457132e-12
3.939369e-12
3.8387762e-12
3.7433463e-12
3.6525723e-12
3.566018e-12
3.4832992e-12
3.4040774e-12
3.3280558e-12
3.2549697e-12
3.1845861e-12
3.1166987e-12
3.0511196e-12
2.9876791e-12
2.9262254e-12
2.8666205e-12
2.8087384e-12
2.7524657e-12
2.6977007e-12
2.6443474e-12
2.5923175e-12
2.5415305e-12
2.4919126e-12
2.443395e-12
2.3959136e-12
2.3494105e-12
2.3038326e-12
2.2591281e-12
2.2152485e-12
2.1721496e-12
2.1297896e-12
2.0881294e-12
2.0471319e-12
2.0067622e-12
1.9669903e-12
1.9277854e-12
1.889117e-12
1.8509578e-12
1.8132819e-12
1.7760643e-12
1.7392815e-12
1.7029107e-12
1.6669313e-12
1.6313247e-12
1.5960705e-12
1.5611495e-12
1.5265444e-12
1.4922379e-12
1.4582139e-12
1.4244562e-12
1.3909499e-12
1.357682e-12
1.3246388e-12
1.2918057e-12
1.2591704e-12
1.2267203e-12
1.1944437e-12
1.1623288e-12
1.1303648e-12
1.0985423e-12
1.0668512e-12
1.0352809e-12
1.0038224e-12
9.7246648e-13
9.4120404e-13
9.1002723e-13
8.7892891e-13
8.4789132e-13
8.1693946e-13
7.8683804e-13
7.5849888e-13
7.3198759e-13
7.0712821e-13
6.8379454e-13
6.6185242e-13
6.4118258e-13
6.2167725e-13
6.0323852e-13
5.8577775e-13
5.6921497e-13
5.5347665e-13
5.3849374e-13
5.2420163e-13
5.1053642e-13
4.9743798e-13
4.8483174e-13
4.7266501e-13
4.6077923e-13
4.4925723e-13
4.3723785e-13
4.2685721e-13
4.1171713e-13
6.546504e-09
5.6272736e-09
5.3292619e-09
5.1818716e-09
5.0891764e-09
5.0243722e-09
4.9765318e-09
4.9399794e-09
4.9113502e-09
4.8884874e-09
4.8699344e-09
4.8546673e-09
4.8419421e-09
4.8312001e-09
4.8220027e-09
4.8139996e-09
4.8068447e-09
4.8003114e-09
4.7936641e-09
4.7875526e-09
4.7757263e-09
4.7753218e-09
4.6949799e-09
4.0184667e-09
4.358945e-11
1.0570774e-11
1.1503059e-11
5.3950981e-12
8.1485973e-12
3.8908593e-12
6.7940735e-12
3.1566933e-12
5.992932e-12
5.5408473e-12
5.4235e-12
5.1359535e-12
4.9716599e-12
4.7745505e-12
4.6158779e-12
4.4615223e-12
4.3221485e-12
4.1916555e-12
4.0701899e-12
3.9563205e-12
3.8492306e-12
3.7481574e-12
3.6524639e-12
3.561603e-12
3.4751032e-12
3.3925584e-12
3.3136115e-12
3.2379473e-12
3.1652892e-12
3.095391e-12
3.0280354e-12
2.9630304e-12
2.9002009e-12
2.8393886e-12
2.780452e-12
2.7232623e-12
2.6677019e-12
2.6136652e-12
2.561057e-12
2.5097879e-12
2.4597754e-12
2.4109442e-12
2.3632255e-12
2.316555e-12
2.2708728e-12
2.2261248e-12
2.1822615e-12
2.1392344e-12
2.0969982e-12
2.0555117e-12
2.0147356e-12
1.9746336e-12
1.9351709e-12
1.8963151e-12
1.8580381e-12
1.8203112e-12
1.7831059e-12
1.7463968e-12
1.7101597e-12
1.6743715e-12
1.6390101e-12
1.6040545e-12
1.5694856e-12
1.5352859e-12
1.5014368e-12
1.4679205e-12
1.4347208e-12
1.4018219e-12
1.369209e-12
1.3368672e-12
1.3047828e-12
1.2729441e-12
1.2413384e-12
1.2099526e-12
1.1787754e-12
1.1477956e-12
1.1170025e-12
1.0863856e-12
1.0559352e-12
1.0256432e-12
9.9550043e-13
9.6549779e-13
9.356273e-13
9.0588111e-13
8.7625127e-13
8.467312e-13
8.1731498e-13
7.879869e-13
7.587712e-13
7.3038612e-13
7.0368805e-13
6.7873819e-13
6.5536758e-13
6.3345334e-13
6.1286602e-13
5.9349047e-13
5.752229e-13
5.579691e-13
5.4164395e-13
5.2617074e-13
5.1147907e-13
4.97503e-13
4.8418093e-13
4.714522e-13
4.5925979e-13
4.4753355e-13
4.3622363e-13
4.2518262e-13
4.1448599e-13
4.0333894e-13
3.9371207e-13
3.7970159e-13
6.546896e-09
5.5939281e-09
5.2852257e-09
5.1325189e-09
5.0364757e-09
4.9693334e-09
4.9197686e-09
4.881899e-09
4.8522376e-09
4.8285497e-09
4.8093264e-09
4.7935076e-09
4.7803232e-09
4.7691958e-09
4.7596731e-09
4.751395e-09
4.7440088e-09
4.7372861e-09
4.730492e-09
4.7242983e-09
4.7124501e-09
4.7124138e-09
4.6321216e-09
3.9856129e-09
4.576294e-11
1.039244e-11
1.086058e-11
5.200303e-12
7.6628206e-12
3.7018511e-12
6.3920986e-12
2.9913306e-12
5.6465591e-12
5.230954e-12
5.1178017e-12
4.8506921e-12
4.6961842e-12
4.5121753e-12
4.3633472e-12
4.2186789e-12
4.0877959e-12
3.96515e-12
3.850847e-12
3.7435762e-12
3.6425852e-12
3.5471706e-12
3.4567459e-12
3.3708066e-12
3.2889181e-12
3.2107063e-12
3.1358417e-12
3.0640338e-12
2.9950273e-12
2.9285951e-12
2.8645366e-12
2.8026745e-12
2.742847e-12
2.6849081e-12
2.6287268e-12
2.5741843e-12
2.5211715e-12
2.469591e-12
2.4193546e-12
2.3703798e-12
2.3225899e-12
2.2759154e-12
2.2302925e-12
2.1856617e-12
2.1419676e-12
2.09916e-12
2.0571931e-12
2.0160218e-12
1.9756043e-12
1.9359023e-12
1.8968794e-12
1.8585021e-12
1.8207379e-12
1.7835569e-12
1.7469331e-12
1.7108401e-12
1.6752512e-12
1.640143e-12
1.6054931e-12
1.5712802e-12
1.5374838e-12
1.5040846e-12
1.4710648e-12
1.4384086e-12
1.4060986e-12
1.3741185e-12
1.3424534e-12
1.3110888e-12
1.2800111e-12
1.2492068e-12
1.2186632e-12
1.1883699e-12
1.1583151e-12
1.1284871e-12
1.0988756e-12
1.0694705e-12
1.0402622e-12
1.0112412e-12
9.8239894e-13
9.5372824e-13
9.2522098e-13
8.9686907e-13
8.6866557e-13
8.4060367e-13
8.1267644e-13
7.8487829e-13
7.572043e-13
7.2964052e-13
7.0221015e-13
6.75584e-13
6.5056221e-13
6.2720178e-13
6.053415e-13
5.8486265e-13
5.6564112e-13
5.4756656e-13
5.3053964e-13
5.1447039e-13
4.9927758e-13
4.8488813e-13
4.7123508e-13
4.5825586e-13
4.4589213e-13
4.3408663e-13
4.2278563e-13
4.1192343e-13
4.0145316e-13
3.9123834e-13
3.813475e-13
3.7104979e-13
3.6215669e-13
3.4923945e-13
6.5480473e-09
5.5558444e-09
5.2347756e-09
5.0759387e-09
4.9760432e-09
4.9062143e-09
4.8546702e-09
4.8152896e-09
4.784445e-09
4.7598116e-09
4.7398204e-09
4.7233697e-09
4.7096593e-09
4.6980904e-09
4.6881946e-09
4.6796008e-09
4.6719484e-09
4.6650066e-09
4.6580406e-09
4.651747e-09
4.6398604e-09
4.6402263e-09
4.5599215e-09
3.9476647e-09
4.8335362e-11
1.0214663e-11
1.0194264e-11
4.9983315e-12
7.1558332e-12
3.5059221e-12
5.9712268e-12
2.820675e-12
5.2831221e-12
4.9051729e-12
4.7967496e-12
4.5508557e-12
4.4067556e-12
4.2364581e-12
4.0980427e-12
3.9635904e-12
3.8416989e-12
3.7273706e-12
3.6206758e-12
3.5204257e-12
3.4259348e-12
3.3365611e-12
3.2517697e-12
3.1711006e-12
3.0941574e-12
3.0205991e-12
2.950125e-12
2.88247e-12
2.8174012e-12
2.7547111e-12
2.6942167e-12
2.6357559e-12
2.5791811e-12
2.5243587e-12
2.4711689e-12
2.419503e-12
2.3692613e-12
2.3203545e-12
2.2727021e-12
2.2262283e-12
2.180863e-12
2.1365424e-12
2.0932081e-12
2.0508057e-12
2.009284e-12
1.9685973e-12
1.9287036e-12
1.8895614e-12
1.8511323e-12
1.8133811e-12
1.7762746e-12
1.7397818e-12
1.7038731e-12
1.6685208e-12
1.6337013e-12
1.5993901e-12
1.565563e-12
1.5321983e-12
1.4992755e-12
1.4667749e-12
1.4346781e-12
1.402967e-12
1.3716256e-12
1.3406393e-12
1.3099923e-12
1.2796695e-12
1.2496576e-12
1.2199431e-12
1.1905137e-12
1.161357e-12
1.1324617e-12
1.1038182e-12
1.075416e-12
1.0472443e-12
1.019294e-12
9.9155582e-13
9.6402127e-13
9.3668187e-13
9.0952988e-13
8.82559e-13
8.5576199e-13
8.2913172e-13
8.026621e-13
7.7634717e-13
7.501809e-13
7.2415849e-13
6.9827581e-13
6.725205e-13
6.4691447e-13
6.2208051e-13
5.98762e-13
5.7701184e-13
5.5667727e-13
5.3764443e-13
5.197952e-13
5.0302455e-13
4.8723813e-13
4.7235057e-13
4.5828494e-13
4.4497207e-13
4.3234872e-13
4.2035591e-13
4.0893873e-13
3.9804349e-13
3.8761985e-13
3.7760666e-13
3.6796008e-13
3.5855436e-13
3.4945149e-13
3.3998238e-13
3.318051e-13
3.1994875e-13
6.5503002e-09
5.5126528e-09
5.1773497e-09
5.0114834e-09
4.9071815e-09
4.8342845e-09
4.7804826e-09
4.7393803e-09
4.7071881e-09
4.6814787e-09
4.6606139e-09
4.6434443e-09
4.6291357e-09
4.6170645e-09
4.6067441e-09
4.5977905e-09
4.5898341e-09
4.5826412e-09
4.575476e-09
4.5690633e-09
4.5571204e-09
4.5579238e-09
4.4775413e-09
3.9040792e-09
5.1397525e-11
1.0041708e-11
9.5081585e-12
4.789944e-12
6.6300388e-12
3.3035813e-12
5.5331577e-12
2.6448994e-12
4.9038843e-12
4.5644903e-12
4.4613119e-12
4.2372879e-12
4.1041655e-12
3.9481217e-12
3.820639e-12
3.6968862e-12
3.5844498e-12
3.4788772e-12
3.380208e-12
3.2873763e-12
3.199765e-12
3.1167947e-12
3.0379839e-12
2.9629179e-12
2.8912397e-12
2.8226421e-12
2.7568544e-12
2.6936376e-12
2.6327818e-12
2.5740999e-12
2.5174269e-12
2.4626168e-12
2.4095363e-12