/*--------------------------------*- C++ -*----------------------------------*\
| =========                 |                                                 |
| \\      /  F ield         | OpenFOAM: The Open Source CFD Toolbox           |
|  \\    /   O peration     | Version:  2206                                  |
|   \\  /    A nd           | Website:  www.openfoam.com                      |
|    \\/     M anipulation  |                                                 |
\*---------------------------------------------------------------------------*/
FoamFile
{
    version     2.0;
    format      ascii;
    arch        "LSB;label=32;scalar=64";
    class       volScalarField;
    location    "1300";
    object      p;
}
// * * * * * * * * * * * * * * * * * * * * * * * * * * * * * * * * * * * * * //

dimensions      [0 2 -2 0 0 0 0];

internalField   nonuniform List<scalar> 
13056
(
0.011731207
0.011837627
0.012058851
0.012338162
0.012678871
0.013080181
0.013538873
0.014054113
0.014627473
0.015262245
0.015963425
0.016738201
0.017596462
0.018552326
0.019624485
0.020842857
0.022242221
0.023902137
0.025871742
0.028460908
0.031537888
0.036915811
0.041905474
0.082937303
0.052124349
0.0015138114
0.00078983001
0.0018790755
0.0023968111
0.0028186511
0.0030839058
0.0032747792
0.0034141102
0.0035115249
0.0035797833
0.0036285163
0.0036633316
0.0036877769
0.0037042935
0.0037148946
0.0037209426
0.0037233374
0.0037227996
0.0037199539
0.0037152097
0.0037088294
0.0037011043
0.0036922294
0.0036823828
0.003671687
0.0036602188
0.0036480695
0.0036353064
0.0036219881
0.0036081743
0.0035938897
0.0035791483
0.0035639786
0.0035484009
0.0035324283
0.0035160748
0.0034993578
0.0034822708
0.0034648041
0.0034469631
0.0034287457
0.0034101496
0.0033911691
0.0033718026
0.0033520487
0.0033318829
0.003311286
0.0032902508
0.0032687638
0.0032468082
0.0032243716
0.0032014322
0.0031779829
0.0031539993
0.0031294348
0.0031042743
0.003078493
0.0030520604
0.003024948
0.0029971233
0.0029685548
0.0029392118
0.0029090406
0.002877989
0.0028460176
0.0028130759
0.0027791083
0.0027440609
0.0027078671
0.002670472
0.0026317986
0.0025917464
0.0025502414
0.00250719
0.0024624903
0.0024160365
0.0023677068
0.0023173834
0.0022649207
0.002210147
0.0021529066
0.0020930136
0.0020302743
0.0019644701
0.0018953904
0.001822773
0.0017463408
0.0016661958
0.0015828703
0.0014982183
0.0014145216
0.0013324182
0.0012517934
0.001172664
0.0010950673
0.0010190504
0.00094468799
0.00087210009
0.00080143563
0.00073287237
0.00066665527
0.00060311779
0.00054267383
0.00048595854
0.00043361339
0.00038720175
0.00034712908
0.00031944434
0.0002969255
0.00043838685
-0.0003915012
0.011731207
0.011837627
0.012058851
0.012338162
0.012678871
0.013080181
0.013538873
0.014054113
0.014627473
0.015262245
0.015963426
0.016738201
0.017596463
0.018552327
0.019624486
0.020842858
0.022242223
0.02390214
0.025871745
0.028460913
0.031537895
0.036915826
0.04190552
0.082932067
0.052136146
0.0015214387
0.00079182701
0.0018799407
0.0023973391
0.0028190241
0.0030841881
0.0032750033
0.0034142935
0.0035116784
0.0035799143
0.0036286297
0.003663431
0.0036878647
0.0037043718
0.003714965
0.0037210061
0.0037233951
0.0037228523
0.0037200022
0.0037152541
0.0037088704
0.0037011423
0.0036922647
0.0036824156
0.0036717176
0.0036602474
0.0036480963
0.0036353315
0.0036220117
0.0036081966
0.0035939107
0.0035791681
0.0035639973
0.0035484185
0.003532445
0.0035160907
0.0034993729
0.0034822851
0.0034648177
0.003446976
0.003428758
0.0034101613
0.0033911803
0.0033718132
0.0033520589
0.0033318926
0.0033112952
0.0032902596
0.0032687722
0.0032468162
0.0032243793
0.0032014395
0.0031779899
0.003154006
0.0031294412
0.0031042804
0.0030784988
0.003052066
0.0030249533
0.0029971284
0.0029685597
0.0029392165
0.002909045
0.0028779933
0.0028460217
0.0028130798
0.002779112
0.0027440644
0.0027078705
0.0026704752
0.0026318017
0.0025917494
0.0025502442
0.0025071927
0.0024624929
0.0024160389
0.0023677091
0.0023173856
0.0022649228
0.002210149
0.0021529085
0.0020930153
0.002030276
0.0019644717
0.0018953919
0.0018227744
0.0017463421
0.0016661971
0.0015828715
0.0014982194
0.0014145226
0.0013324191
0.0012517943
0.0011726648
0.0010950681
0.0010190512
0.00094468874
0.00087210081
0.00080143632
0.00073287304
0.00066665591
0.0006031184
0.00054267442
0.00048595911
0.00043361395
0.00038720229
0.00034712962
0.00031944488
0.00029692609
0.00043838745
-0.0003915008
0.011731207
0.011837627
0.012058851
0.012338162
0.012678872
0.013080181
0.013538873
0.014054113
0.014627474
0.015262245
0.015963426
0.016738202
0.017596464
0.018552328
0.019624487
0.02084286
0.022242225
0.023902142
0.025871749
0.02846092
0.031537903
0.036915842
0.041905562
0.082927191
0.052152239
0.0015285275
0.00079402616
0.0018809522
0.0023979564
0.0028194601
0.0030845181
0.0032752652
0.0034145078
0.0035118578
0.0035800674
0.0036287623
0.0036635471
0.0036879674
0.0037044634
0.0037150472
0.0037210804
0.0037234626
0.0037229139
0.0037200587
0.003715306
0.0037089184
0.0037011867
0.0036923059
0.003682454
0.0036717533
0.0036602809
0.0036481276
0.0036353609
0.0036220393
0.0036082226
0.0035939352
0.0035791913
0.0035640191
0.0035484392
0.0035324646
0.0035161092
0.0034993905
0.0034823018
0.0034648336
0.0034469911
0.0034287723
0.0034101749
0.0033911933
0.0033718256
0.0033520707
0.0033319039
0.003311306
0.0032902699
0.0032687821
0.0032468256
0.0032243882
0.003201448
0.0031779981
0.0031540138
0.0031294487
0.0031042875
0.0030785057
0.0030520725
0.0030249596
0.0029971344
0.0029685654
0.002939222
0.0029090503
0.0028779983
0.0028460265
0.0028130843
0.0027791163
0.0027440686
0.0027078745
0.002670479
0.0026318053
0.0025917528
0.0025502474
0.0025071958
0.0024624958
0.0024160417
0.0023677118
0.0023173881
0.0022649252
0.0022101513
0.0021529106
0.0020930174
0.0020302779
0.0019644735
0.0018953936
0.001822776
0.0017463437
0.0016661985
0.0015828728
0.0014982207
0.0014145238
0.0013324203
0.0012517954
0.0011726658
0.0010950691
0.0010190521
0.00094468962
0.00087210165
0.00080143712
0.00073287381
0.00066665666
0.00060311912
0.00054267512
0.00048595978
0.00043361461
0.00038720293
0.00034713025
0.00031944552
0.00029692673
0.00043838815
-0.00039150037
0.011731207
0.011837627
0.012058851
0.012338162
0.012678872
0.013080181
0.013538873
0.014054114
0.014627474
0.015262246
0.015963426
0.016738202
0.017596464
0.018552329
0.019624488
0.020842861
0.022242226
0.023902145
0.025871753
0.028460926
0.031537911
0.036915857
0.041905603
0.082922457
0.052170061
0.0015335577
0.00079606984
0.0018819323
0.0023985547
0.0028198827
0.003084838
0.0032755191
0.0034147155
0.0035120318
0.0035802158
0.0036288908
0.0036636596
0.0036880669
0.0037045521
0.0037151269
0.0037211524
0.003723528
0.0037229736
0.0037201134
0.0037153564
0.0037089648
0.0037012297
0.0036923458
0.0036824911
0.003671788
0.0036603133
0.003648158
0.0036353894
0.0036220661
0.0036082478
0.003593959
0.0035792137
0.0035640403
0.0035484593
0.0035324836
0.0035161272
0.0034994075
0.003482318
0.003464849
0.0034470058
0.0034287862
0.0034101882
0.0033912059
0.0033718377
0.0033520822
0.0033319148
0.0033113164
0.0032902799
0.0032687916
0.0032468347
0.0032243969
0.0032014563
0.003178006
0.0031540214
0.0031294559
0.0031042945
0.0030785123
0.0030520789
0.0030249656
0.0029971402
0.0029685709
0.0029392272
0.0029090553
0.0028780031
0.0028460311
0.0028130887
0.0027791205
0.0027440726
0.0027078783
0.0026704827
0.0026318087
0.0025917561
0.0025502506
0.0025071988
0.0024624987
0.0024160444
0.0023677144
0.0023173906
0.0022649275
0.0022101535
0.0021529127
0.0020930194
0.0020302798
0.0019644753
0.0018953953
0.0018227776
0.0017463451
0.0016661999
0.0015828741
0.0014982219
0.001414525
0.0013324214
0.0012517964
0.0011726668
0.00109507
0.001019053
0.00094469048
0.00087210247
0.0008014379
0.00073287456
0.00066665738
0.00060311982
0.00054267579
0.00048596043
0.00043361524
0.00038720355
0.00034713086
0.00031944614
0.00029692733
0.00043838883
-0.00039149997
0.011731207
0.011837627
0.012058851
0.012338162
0.012678872
0.013080182
0.013538873
0.014054114
0.014627474
0.015262246
0.015963427
0.016738203
0.017596465
0.01855233
0.019624489
0.020842863
0.022242229
0.023902148
0.025871757
0.028460932
0.03153792
0.036915872
0.041905649
0.082917325
0.052188983
0.0015393492
0.00079816315
0.0018829421
0.0023991711
0.0028203181
0.0030851676
0.0032757807
0.0034149295
0.003512211
0.0035803687
0.0036290232
0.0036637755
0.0036881694
0.0037046435
0.003715209
0.0037212266
0.0037235953
0.0037230351
0.0037201697
0.0037154082
0.0037090127
0.003701274
0.0036923869
0.0036825294
0.0036718237
0.0036603467
0.0036481893
0.0036354188
0.0036220937
0.0036082737
0.0035939834
0.0035792368
0.0035640621
0.0035484799
0.0035325031
0.0035161457
0.0034994251
0.0034823347
0.0034648648
0.0034470208
0.0034288006
0.0034102019
0.0033912189
0.00337185
0.003352094
0.0033319261
0.0033113271
0.0032902901
0.0032688014
0.0032468441
0.0032244058
0.0032014649
0.0031780142
0.0031540292
0.0031294634
0.0031043016
0.0030785191
0.0030520854
0.0030249718
0.0029971461
0.0029685766
0.0029392327
0.0029090605
0.0028780081
0.0028460358
0.0028130932
0.0027791248
0.0027440767
0.0027078822
0.0026704864
0.0026318123
0.0025917595
0.0025502538
0.0025072019
0.0024625016
0.0024160472
0.0023677171
0.0023173931
0.0022649299
0.0022101558
0.0021529149
0.0020930214
0.0020302817
0.0019644771
0.001895397
0.0018227793
0.0017463467
0.0016662013
0.0015828755
0.0014982232
0.0014145262
0.0013324225
0.0012517975
0.0011726679
0.001095071
0.0010190539
0.00094469136
0.00087210331
0.00080143871
0.00073287534
0.00066665812
0.00060312053
0.00054267648
0.0004859611
0.00043361589
0.00038720419
0.00034713149
0.00031944678
0.00029692794
0.00043838953
-0.00039149956
0.011731207
0.011837627
0.012058852
0.012338162
0.012678872
0.013080182
0.013538874
0.014054114
0.014627474
0.015262246
0.015963427
0.016738204
0.017596466
0.018552331
0.019624491
0.020842865
0.022242231
0.023902152
0.025871762
0.02846094
0.031537931
0.036915891
0.041905702
0.082911613
0.0522087
0.0015466666
0.00080039845
0.0018840173
0.0023998277
0.0028207818
0.0030855186
0.0032760593
0.0034151574
0.0035124018
0.0035805315
0.0036291641
0.003663899
0.0036882786
0.0037047409
0.0037152964
0.0037213056
0.0037236671
0.0037231006
0.0037202297
0.0037154634
0.0037090636
0.0037013212
0.0036924308
0.0036825702
0.0036718618
0.0036603823
0.0036482226
0.00363545
0.0036221231
0.0036083014
0.0035940095
0.0035792614
0.0035640854
0.0035485019
0.003532524
0.0035161655
0.0034994438
0.0034823525
0.0034648817
0.0034470369
0.0034288159
0.0034102164
0.0033912328
0.0033718632
0.0033521066
0.0033319381
0.0033113386
0.0032903011
0.0032688118
0.003246854
0.0032244154
0.003201474
0.0031780229
0.0031540375
0.0031294713
0.0031043092
0.0030785264
0.0030520923
0.0030249785
0.0029971525
0.0029685827
0.0029392385
0.002909066
0.0028780134
0.0028460409
0.0028130981
0.0027791295
0.0027440811
0.0027078864
0.0026704904
0.0026318162
0.0025917632
0.0025502573
0.0025072052
0.0024625048
0.0024160502
0.0023677199
0.0023173958
0.0022649325
0.0022101582
0.0021529172
0.0020930236
0.0020302838
0.0019644791
0.0018953988
0.001822781
0.0017463483
0.0016662029
0.0015828769
0.0014982245
0.0014145275
0.0013324237
0.0012517986
0.0011726689
0.001095072
0.0010190549
0.00094469229
0.0008721042
0.00080143957
0.00073287616
0.00066665891
0.00060312129
0.00054267721
0.00048596182
0.00043361659
0.00038720487
0.00034713215
0.00031944745
0.00029692859
0.00043839028
-0.00039149912
0.011731207
0.011837627
0.012058852
0.012338163
0.012678872
0.013080182
0.013538874
0.014054114
0.014627475
0.015262247
0.015963428
0.016738204
0.017596467
0.018552332
0.019624493
0.020842867
0.022242234
0.023902156
0.025871768
0.02846095
0.031537943
0.036915913
0.041905763
0.082905225
0.052229465
0.0015546896
0.00080280511
0.0018851741
0.0024005343
0.0028212808
0.0030858962
0.0032763591
0.0034154026
0.0035126072
0.0035807068
0.0036293158
0.0036640318
0.0036883961
0.0037048456
0.0037153905
0.0037213905
0.0037237443
0.003723171
0.0037202943
0.0037155228
0.0037091185
0.0037013719
0.0036924779
0.0036826141
0.0036719027
0.0036604205
0.0036482584
0.0036354837
0.0036221547
0.0036083312
0.0035940376
0.0035792879
0.0035641104
0.0035485256
0.0035325464
0.0035161867
0.003499464
0.0034823716
0.0034648999
0.0034470542
0.0034288323
0.0034102321
0.0033912477
0.0033718775
0.0033521201
0.003331951
0.0033113509
0.0032903128
0.003268823
0.0032468647
0.0032244256
0.0032014838
0.0031780323
0.0031540465
0.0031294799
0.0031043173
0.0030785342
0.0030520998
0.0030249856
0.0029971593
0.0029685892
0.0029392447
0.002909072
0.0028780191
0.0028460463
0.0028131033
0.0027791344
0.0027440859
0.002707891
0.0026704948
0.0026318203
0.0025917671
0.0025502611
0.0025072088
0.0024625082
0.0024160534
0.002367723
0.0023173987
0.0022649353
0.0022101608
0.0021529197
0.0020930259
0.002030286
0.0019644812
0.0018954008
0.0018227828
0.0017463501
0.0016662045
0.0015828785
0.001498226
0.0014145288
0.001332425
0.0012517999
0.0011726701
0.0010950731
0.001019056
0.0009446933
0.00087210517
0.00080144049
0.00073287704
0.00066665976
0.00060312211
0.00054267801
0.00048596259
0.00043361733
0.00038720561
0.00034713287
0.00031944818
0.00029692929
0.00043839108
-0.00039149865
0.011731207
0.011837627
0.012058852
0.012338163
0.012678872
0.013080182
0.013538874
0.014054115
0.014627475
0.015262248
0.015963429
0.016738205
0.017596468
0.018552334
0.019624495
0.02084287
0.022242238
0.023902162
0.025871775
0.028460962
0.031537959
0.036915941
0.041905834
0.082898017
0.05225155
0.0015632859
0.00080541299
0.0018864279
0.0024013002
0.0028218218
0.0030863057
0.0032766841
0.0034156684
0.0035128298
0.0035808967
0.0036294803
0.0036641759
0.0036885234
0.0037049592
0.0037154924
0.0037214827
0.003723828
0.0037232474
0.0037203643
0.0037155872
0.0037091779
0.003701427
0.003692529
0.0036826617
0.0036719471
0.003660462
0.0036482973
0.0036355201
0.003622189
0.0036083634
0.003594068
0.0035793166
0.0035641375
0.0035485512
0.0035325707
0.0035162097
0.0034994858
0.0034823924
0.0034649196
0.0034470729
0.0034288501
0.003410249
0.0033912638
0.0033718929
0.0033521348
0.003331965
0.0033113643
0.0032903256
0.0032688352
0.0032468764
0.0032244367
0.0032014944
0.0031780424
0.0031540562
0.0031294891
0.0031043262
0.0030785426
0.0030521079
0.0030249933
0.0029971667
0.0029685962
0.0029392515
0.0029090785
0.0028780252
0.0028460522
0.0028131089
0.0027791398
0.002744091
0.0027078959
0.0026704994
0.0026318247
0.0025917714
0.0025502651
0.0025072126
0.0024625118
0.0024160569
0.0023677263
0.0023174019
0.0022649382
0.0022101636
0.0021529224
0.0020930285
0.0020302884
0.0019644834
0.001895403
0.0018227849
0.001746352
0.0016662063
0.0015828801
0.0014982276
0.0014145303
0.0013324264
0.0012518012
0.0011726714
0.0010950743
0.0010190571
0.0009446944
0.00087210621
0.00080144149
0.00073287801
0.00066666069
0.000603123
0.00054267887
0.00048596342
0.00043361814
0.0003872064
0.00034713365
0.00031944897
0.00029693006
0.00043839195
-0.00039149813
0.011731207
0.011837627
0.012058852
0.012338163
0.012678872
0.013080182
0.013538875
0.014054115
0.014627476
0.015262248
0.01596343
0.016738207
0.01759647
0.018552336
0.019624498
0.020842874
0.022242243
0.023902169
0.025871784
0.028460977
0.031537979
0.036915976
0.041905918
0.082889808
0.052275182
0.0015726169
0.00080826011
0.0018877971
0.0024021368
0.0028224126
0.0030867529
0.003277039
0.0034159588
0.0035130729
0.0035811042
0.0036296599
0.0036643331
0.0036886625
0.0037050832
0.0037156038
0.0037215833
0.0037239194
0.0037233308
0.0037204408
0.0037156576
0.0037092429
0.0037014871
0.0036925848
0.0036827136
0.0036719956
0.0036605073
0.0036483397
0.00363556
0.0036222264
0.0036083987
0.0035941012
0.0035793479
0.0035641671
0.0035485792
0.0035325972
0.0035162349
0.0034995097
0.003482415
0.0034649411
0.0034470934
0.0034288696
0.0034102675
0.0033912815
0.0033719097
0.0033521508
0.0033319803
0.0033113789
0.0032903395
0.0032688485
0.0032468891
0.0032244488
0.003201506
0.0031780535
0.0031540668
0.0031294993
0.0031043359
0.0030785519
0.0030521167
0.0030250018
0.0029971748
0.002968604
0.0029392589
0.0029090855
0.002878032
0.0028460587
0.002813115
0.0027791457
0.0027440966
0.0027079012
0.0026705045
0.0026318296
0.002591776
0.0025502695
0.0025072168
0.0024625159
0.0024160607
0.0023677299
0.0023174053
0.0022649415
0.0022101667
0.0021529253
0.0020930313
0.002030291
0.0019644859
0.0018954053
0.0018227871
0.001746354
0.0016662083
0.001582882
0.0014982293
0.001414532
0.001332428
0.0012518026
0.0011726728
0.0010950756
0.0010190584
0.00094469559
0.00087210736
0.00080144259
0.00073287906
0.0006666617
0.00060312398
0.00054267981
0.00048596433
0.00043361903
0.00038720727
0.00034713451
0.00031944984
0.00029693089
0.0004383929
-0.00039149757
0.011731207
0.011837628
0.012058852
0.012338163
0.012678873
0.013080183
0.013538875
0.014054116
0.014627477
0.015262249
0.015963431
0.016738208
0.017596472
0.018552338
0.019624501
0.020842878
0.022242249
0.023902177
0.025871796
0.028460995
0.031538003
0.036916021
0.041906016
0.082880381
0.052300573
0.0015828441
0.00081138906
0.0018893021
0.0024030567
0.0028230622
0.0030872446
0.0032774292
0.003416278
0.0035133402
0.0035813322
0.0036298573
0.0036645061
0.0036888154
0.0037052196
0.0037157263
0.0037216939
0.0037240199
0.0037234226
0.0037205248
0.0037157349
0.0037093142
0.0037015532
0.0036926462
0.0036827707
0.0036720489
0.0036605572
0.0036483864
0.0036356037
0.0036222676
0.0036084374
0.0035941377
0.0035793824
0.0035641997
0.00354861
0.0035326264
0.0035162625
0.0034995359
0.0034824399
0.0034649648
0.0034471159
0.003428891
0.0034102879
0.0033913009
0.0033719282
0.0033521685
0.0033319971
0.0033113949
0.0032903548
0.0032688631
0.003246903
0.0032244622
0.0032015187
0.0031780657
0.0031540784
0.0031295104
0.0031043465
0.0030785621
0.0030521264
0.0030250111
0.0029971837
0.0029686125
0.002939267
0.0029090933
0.0028780394
0.0028460657
0.0028131218
0.0027791521
0.0027441028
0.0027079071
0.0026705102
0.002631835
0.0025917811
0.0025502744
0.0025072215
0.0024625203
0.0024160649
0.0023677339
0.0023174091
0.0022649451
0.0022101701
0.0021529285
0.0020930343
0.0020302939
0.0019644886
0.0018954079
0.0018227895
0.0017463563
0.0016662104
0.001582884
0.0014982312
0.0014145337
0.0013324297
0.0012518042
0.0011726743
0.0010950771
0.0010190597
0.00094469691
0.00087210861
0.00080144379
0.00073288021
0.00066666281
0.00060312505
0.00054268084
0.00048596533
0.00043362
0.00038720822
0.00034713544
0.00031945079
0.00029693181
0.00043839395
-0.00039149696
0.011731207
0.011837628
0.012058852
0.012338163
0.012678873
0.013080183
0.013538875
0.014054116
0.014627477
0.01526225
0.015963432
0.01673821
0.017596474
0.018552342
0.019624505
0.020842884
0.022242257
0.023902188
0.025871809
0.028461017
0.031538033
0.036916076
0.041906132
0.082869478
0.052327927
0.001594116
0.00081484635
0.0018909653
0.0024040736
0.0028237803
0.0030877881
0.0032778606
0.0034166308
0.0035136357
0.0035815843
0.0036300756
0.0036646972
0.0036889845
0.0037053703
0.0037158616
0.0037218162
0.003724131
0.0037235239
0.0037206177
0.0037158204
0.0037093932
0.0037016263
0.003692714
0.0036828339
0.0036721078
0.0036606122
0.003648438
0.0036356521
0.003622313
0.0036084802
0.003594178
0.0035794204
0.0035642357
0.0035486441
0.0035326586
0.0035162931
0.0034995649
0.0034824674
0.0034649909
0.0034471407
0.0034289146
0.0034103104
0.0033913223
0.0033719486
0.0033521879
0.0033320157
0.0033114127
0.0032903718
0.0032688793
0.0032469185
0.0032244769
0.0032015328
0.0031780791
0.0031540913
0.0031295227
0.0031043583
0.0030785733
0.0030521372
0.0030250214
0.0029971935
0.0029686219
0.002939276
0.0029091019
0.0028780476
0.0028460736
0.0028131293
0.0027791593
0.0027441096
0.0027079136
0.0026705164
0.0026318409
0.0025917868
0.0025502798
0.0025072266
0.0024625251
0.0024160696
0.0023677383
0.0023174133
0.0022649491
0.0022101739
0.0021529321
0.0020930377
0.0020302971
0.0019644917
0.0018954107
0.0018227922
0.0017463588
0.0016662128
0.0015828862
0.0014982333
0.0014145357
0.0013324315
0.001251806
0.001172676
0.0010950787
0.0010190613
0.00094469836
0.00087211
0.00080144512
0.00073288149
0.00066666403
0.00060312623
0.00054268198
0.00048596644
0.00043362108
0.00038720927
0.00034713648
0.00031945184
0.00029693282
0.0004383951
-0.00039149627
0.011731207
0.011837628
0.012058852
0.012338164
0.012678873
0.013080184
0.013538876
0.014054117
0.014627479
0.015262252
0.015963434
0.016738212
0.017596477
0.018552346
0.01962451
0.020842891
0.022242266
0.023902201
0.025871826
0.028461045
0.03153807
0.036916143
0.041906267
0.08285679
0.05235743
0.0016065936
0.00081868316
0.0018928115
0.0024052026
0.0028245776
0.0030883915
0.0032783395
0.0034170226
0.0035139637
0.0035818643
0.0036303179
0.0036649094
0.0036891721
0.0037055376
0.0037160119
0.003721952
0.0037242543
0.0037236365
0.0037207209
0.0037159153
0.0037094808
0.0037017074
0.0036927893
0.003682904
0.0036721732
0.0036606734
0.0036484952
0.0036357059
0.0036223636
0.0036085278
0.0035942229
0.0035794627
0.0035642757
0.0035486819
0.0035326944
0.003516327
0.0034995971
0.003482498
0.0034650199
0.0034471683
0.0034289409
0.0034103354
0.0033913462
0.0033719713
0.0033522096
0.0033320363
0.0033114323
0.0032903906
0.0032688972
0.0032469356
0.0032244933
0.0032015485
0.0031780941
0.0031541056
0.0031295363
0.0031043713
0.0030785858
0.0030521491
0.0030250328
0.0029972044
0.0029686323
0.0029392859
0.0029091114
0.0028780567
0.0028460823
0.0028131376
0.0027791672
0.0027441172
0.0027079208
0.0026705233
0.0026318474
0.002591793
0.0025502857
0.0025072323
0.0024625305
0.0024160747
0.0023677432
0.0023174179
0.0022649535
0.0022101781
0.0021529361
0.0020930414
0.0020303007
0.001964495
0.0018954139
0.0018227952
0.0017463616
0.0016662154
0.0015828887
0.0014982356
0.0014145379
0.0013324336
0.001251808
0.0011726778
0.0010950805
0.0010190629
0.00094469997
0.00087211154
0.0008014466
0.0007328829
0.0006666654
0.00060312754
0.00054268325
0.00048596766
0.00043362227
0.00038721045
0.00034713763
0.00031945301
0.00029693395
0.00043839639
-0.00039149552
0.011731207
0.011837628
0.012058853
0.012338164
0.012678874
0.013080184
0.013538877
0.014054118
0.01462748
0.015262253
0.015963436
0.016738215
0.017596481
0.01855235
0.019624517
0.020842899
0.022242277
0.023902216
0.025871847
0.028461077
0.031538114
0.036916225
0.041906426
0.082841947
0.052389244
0.0016204583
0.00082295631
0.0018948681
0.0024064609
0.002825466
0.003089064
0.0032788731
0.0034174591
0.0035143293
0.0035821761
0.0036305879
0.0036651459
0.0036893812
0.0037057241
0.0037161793
0.0037221032
0.0037243917
0.0037237619
0.0037208358
0.003716021
0.0037095784
0.0037017978
0.0036928733
0.0036829821
0.003672246
0.0036607415
0.003648559
0.0036357658
0.0036224198
0.0036085807
0.0035942728
0.0035795099
0.0035643202
0.003548724
0.0035327343
0.0035163648
0.003499633
0.0034825321
0.0034650523
0.0034471991
0.0034289702
0.0034103633
0.0033913727
0.0033719966
0.0033522337
0.0033320593
0.0033114543
0.0032904115
0.0032689172
0.0032469547
0.0032245115
0.0032015659
0.0031781107
0.0031541215
0.0031295516
0.0031043859
0.0030785997
0.0030521624
0.0030250455
0.0029972165
0.0029686439
0.002939297
0.002909122
0.0028780668
0.002846092
0.0028131469
0.0027791761
0.0027441256
0.0027079289
0.0026705309
0.0026318548
0.0025918
0.0025502924
0.0025072386
0.0024625366
0.0024160805
0.0023677486
0.0023174231
0.0022649584
0.0022101828
0.0021529405
0.0020930456
0.0020303046
0.0019644987
0.0018954174
0.0018227985
0.0017463648
0.0016662183
0.0015828914
0.0014982382
0.0014145404
0.0013324359
0.0012518102
0.0011726799
0.0010950824
0.0010190648
0.00094470177
0.00087211326
0.00080144824
0.00073288448
0.00066666691
0.000603129
0.00054268466
0.00048596903
0.0004336236
0.00038721175
0.00034713891
0.00031945431
0.0002969352
0.00043839782
-0.00039149467
0.011731207
0.011837628
0.012058853
0.012338164
0.012678874
0.013080185
0.013538878
0.014054119
0.014627481
0.015262255
0.015963439
0.016738219
0.017596485
0.018552356
0.019624524
0.020842909
0.02224229
0.023902234
0.025871871
0.028461116
0.031538165
0.036916322
0.041906612
0.082824502
0.052423494
0.0016359152
0.00082772903
0.0018971657
0.002407867
0.0028264588
0.0030898155
0.0032794695
0.0034179469
0.0035147377
0.0035825247
0.0036308896
0.0036654101
0.0036896149
0.0037059324
0.0037163664
0.0037222723
0.0037245453
0.0037239021
0.0037209643
0.0037161392
0.0037096874
0.0037018988
0.003692967
0.0036830694
0.0036723275
0.0036608176
0.0036486304
0.0036358327
0.0036224827
0.0036086399
0.0035943286
0.0035795625
0.00356437
0.0035487711
0.0035327789
0.0035164071
0.003499673
0.0034825701
0.0034650885
0.0034472335
0.0034290029
0.0034103944
0.0033914024
0.0033720249
0.0033522606
0.003332085
0.0033114788
0.0032904349
0.0032689396
0.0032469761
0.0032245319
0.0032015854
0.0031781294
0.0031541393
0.0031295686
0.0031044021
0.0030786152
0.0030521773
0.0030250597
0.0029972301
0.0029686569
0.0029393094
0.0029091339
0.0028780782
0.0028461028
0.0028131572
0.0027791859
0.002744135
0.0027079379
0.0026705395
0.002631863
0.0025918078
0.0025502998
0.0025072457
0.0024625433
0.0024160869
0.0023677547
0.0023174289
0.0022649639
0.002210188
0.0021529454
0.0020930503
0.002030309
0.0019645029
0.0018954214
0.0018228022
0.0017463683
0.0016662216
0.0015828945
0.0014982411
0.0014145431
0.0013324385
0.0012518126
0.0011726822
0.0010950847
0.0010190669
0.00094470378
0.00087211518
0.00080145008
0.00073288625
0.00066666861
0.00060313064
0.00054268624
0.00048597056
0.00043362509
0.00038721321
0.00034714034
0.00031945576
0.0002969366
0.00043839942
-0.00039149373
0.011731207
0.011837629
0.012058853
0.012338165
0.012678875
0.013080186
0.013538879
0.014054121
0.014627483
0.015262258
0.015963442
0.016738223
0.01759649
0.018552363
0.019624533
0.020842921
0.022242305
0.023902256
0.025871899
0.028461161
0.031538226
0.036916436
0.041906829
0.082803919
0.05246025
0.0016531973
0.00083307197
0.0018997384
0.0024094423
0.002827571
0.0030906573
0.0032801375
0.0034184933
0.0035151953
0.003582915
0.0036312275
0.0036657061
0.0036898766
0.0037061658
0.0037165759
0.0037224616
0.0037247173
0.003724059
0.0037211081
0.0037162716
0.0037098096
0.0037020119
0.0036930721
0.0036831671
0.0036724187
0.0036609029
0.0036487102
0.0036359076
0.0036225532
0.0036087063
0.0035943911
0.0035796215
0.0035644257
0.0035488238
0.0035328288
0.0035164544
0.0034997179
0.0034826127
0.003465129
0.003447272
0.0034290395
0.0034104293
0.0033914356
0.0033720565
0.0033522908
0.0033321138
0.0033115063
0.0032904611
0.0032689646
0.003247
0.0032245548
0.0032016072
0.0031781502
0.0031541592
0.0031295876
0.0031044204
0.0030786327
0.0030521939
0.0030250756
0.0029972453
0.0029686714
0.0029393233
0.0029091471
0.0028780909
0.0028461149
0.0028131688
0.002779197
0.0027441456
0.002707948
0.0026705492
0.0026318721
0.0025918166
0.0025503082
0.0025072536
0.0024625509
0.0024160941
0.0023677616
0.0023174354
0.0022649701
0.0022101938
0.0021529509
0.0020930555
0.002030314
0.0019645076
0.0018954258
0.0018228063
0.0017463722
0.0016662253
0.001582898
0.0014982444
0.0014145462
0.0013324414
0.0012518154
0.0011726848
0.0010950871
0.0010190693
0.00094470603
0.00087211734
0.00080145215
0.00073288823
0.00066667051
0.00060313247
0.00054268801
0.00048597228
0.00043362676
0.00038721484
0.00034714195
0.00031945739
0.00029693818
0.00043840121
-0.00039149267
0.011731207
0.011837629
0.012058854
0.012338166
0.012678876
0.013080187
0.01353888
0.014054123
0.014627485
0.015262261
0.015963446
0.016738227
0.017596496
0.018552371
0.019624543
0.020842934
0.022242323
0.023902281
0.025871932
0.028461214
0.031538297
0.036916568
0.041907082
0.082779553
0.052499511
0.0016725717
0.00083906425
0.0019026245
0.0024112102
0.002828819
0.0030916019
0.0032808871
0.0034191064
0.0035157087
0.0035833531
0.0036316067
0.0036660382
0.0036901703
0.0037064276
0.0037168111
0.0037226741
0.0037249103
0.0037242352
0.0037212696
0.0037164201
0.0037099467
0.0037021388
0.0036931899
0.0036832768
0.003672521
0.0036609986
0.0036487999
0.0036359917
0.0036226322
0.0036087807
0.0035944612
0.0035796877
0.0035644883
0.003548883
0.0035328849
0.0035165075
0.0034997683
0.0034826606
0.0034651744
0.0034473152
0.0034290806
0.0034104685
0.0033914729
0.003372092
0.0033523247
0.0033321461
0.0033115371
0.0032904906
0.0032689927
0.0032470268
0.0032245804
0.0032016317
0.0031781736
0.0031541816
0.003129609
0.0031044408
0.0030786522
0.0030522126
0.0030250935
0.0029972624
0.0029686878
0.002939339
0.0029091621
0.0028781051
0.0028461285
0.0028131818
0.0027792094
0.0027441575
0.0027079593
0.00267056
0.0026318824
0.0025918264
0.0025503175
0.0025072625
0.0024625593
0.0024161021
0.0023677692
0.0023174427
0.002264977
0.0022102004
0.0021529572
0.0020930614
0.0020303195
0.0019645128
0.0018954307
0.001822811
0.0017463765
0.0016662294
0.0015829018
0.001498248
0.0014145496
0.0013324447
0.0012518185
0.0011726878
0.0010950899
0.0010190719
0.00094470856
0.00087211975
0.00080145446
0.00073289045
0.00066667265
0.00060313453
0.00054269
0.00048597421
0.00043362863
0.00038721668
0.00034714375
0.00031945922
0.00029693994
0.00043840322
-0.00039149148
0.011731207
0.011837629
0.012058854
0.012338166
0.012678877
0.013080188
0.013538882
0.014054125
0.014627488
0.015262264
0.01596345
0.016738233
0.017596504
0.01855238
0.019624555
0.02084295
0.022242344
0.023902311
0.025871971
0.028461274
0.031538379
0.036916719
0.041907377
0.08275063
0.052541176
0.0016943484
0.00084579467
0.0019058668
0.0024131973
0.0028302218
0.0030926636
0.0032817295
0.0034197955
0.0035162857
0.0035838454
0.0036320329
0.0036664113
0.0036905003
0.0037067219
0.0037170753
0.0037229128
0.0037251272
0.0037244331
0.003721451
0.003716587
0.0037101008
0.0037022815
0.0036933224
0.0036834001
0.0036726361
0.0036611061
0.0036489006
0.0036360863
0.0036227211
0.0036088643
0.0035945401
0.0035797621
0.0035645586
0.0035489495
0.0035329478
0.0035165672
0.003499825
0.0034827143
0.0034652255
0.0034473638
0.0034291269
0.0034105125
0.0033915148
0.003372132
0.0033523628
0.0033321824
0.0033115718
0.0032905236
0.0032690243
0.003247057
0.0032246092
0.0032016592
0.0031781999
0.0031542067
0.0031296331
0.0031044638
0.0030786742
0.0030522336
0.0030251136
0.0029972816
0.0029687061
0.0029393565
0.0029091788
0.0028781211
0.0028461438
0.0028131964
0.0027792234