/*--------------------------------*- C++ -*----------------------------------*\
| =========                 |                                                 |
| \\      /  F ield         | OpenFOAM: The Open Source CFD Toolbox           |
|  \\    /   O peration     | Version:  2206                                  |
|   \\  /    A nd           | Website:  www.openfoam.com                      |
|    \\/     M anipulation  |                                                 |
\*---------------------------------------------------------------------------*/
FoamFile
{
    version     2.0;
    format      ascii;
    arch        "LSB;label=32;scalar=64";
    class       surfaceScalarField;
    location    "1300";
    object      phi;
}
// * * * * * * * * * * * * * * * * * * * * * * * * * * * * * * * * * * * * * //

dimensions      [0 3 -1 0 0 0 0];

oriented        oriented;

internalField   nonuniform List<scalar> 
25880
(
2.0046294e-06
2.4784628e-11
2.0045721e-06
5.7258715e-11
2.0045018e-06
7.0330276e-11
2.0044221e-06
7.9674721e-11
2.00433e-06
9.2091102e-11
2.004224e-06
1.0599939e-10
2.0041024e-06
1.2163158e-10
2.0039625e-06
1.3985209e-10
2.0038011e-06
1.6139928e-10
2.0036141e-06
1.8707295e-10
2.0033961e-06
2.1793322e-10
2.0031405e-06
2.5559206e-10
2.0028385e-06
3.0207349e-10
2.0024771e-06
3.6133496e-10
2.0020404e-06
4.3671491e-10
2.0014984e-06
5.4201126e-10
2.0008228e-06
6.7557193e-10
1.9999135e-06
9.0929561e-10
1.9987562e-06
1.15732e-09
1.9968681e-06
1.888149e-09
1.9945079e-06
2.3602014e-09
1.9889134e-06
5.5944884e-09
1.9870694e-06
1.8440164e-09
9.9815142e-07
9.8891793e-07
4.4070563e-09
9.9374437e-07
2.1144474e-09
2.2926089e-09
1.6015635e-09
5.1288388e-10
1.3531062e-09
2.4845734e-10
1.2001624e-09
1.5294376e-10
1.0911459e-09
1.0901654e-10
1.0078573e-09
8.3288571e-11
9.4110799e-10
6.674931e-11
8.8596586e-10
5.5142135e-11
8.3931765e-10
4.6648205e-11
7.9909683e-10
4.0220818e-11
7.6390283e-10
3.5193997e-11
7.3274125e-10
3.1161585e-11
7.0487421e-10
2.7867036e-11
6.7973903e-10
2.513518e-11
6.569004e-10
2.283863e-11
6.3601672e-10
2.088368e-11
6.168096e-10
1.9207116e-11
5.9905699e-10
1.7752614e-11
5.8257689e-10
1.6480098e-11
5.6721333e-10
1.5363565e-11
5.5283864e-10
1.4374685e-11
5.3934377e-10
1.3494872e-11
5.2663581e-10
1.2707956e-11
5.1463515e-10
1.2000662e-11
5.0327298e-10
1.1362162e-11
4.924892e-10
1.0783783e-11
4.8223115e-10
1.0258052e-11
4.7245255e-10
9.7785998e-12
4.6311256e-10
9.3399872e-12
4.5417517e-10
8.9373866e-12
4.4560828e-10
8.5668896e-12
4.3738297e-10
8.2253138e-12
4.2947327e-10
7.9096969e-12
4.2185587e-10
7.6174015e-12
4.1450964e-10
7.3462293e-12
4.0741548e-10
7.0941578e-12
4.005562e-10
6.8592857e-12
3.9391606e-10
6.6401369e-12
3.8748054e-10
6.435517e-12
3.8123634e-10
6.2441974e-12
3.751713e-10
6.0650476e-12
3.6927418e-10
5.8971161e-12
3.6353461e-10
5.7395682e-12
3.5794306e-10
5.5915459e-12
3.5249084e-10
5.4522245e-12
3.4716977e-10
5.3210728e-12
3.4197211e-10
5.1976544e-12
3.3689071e-10
5.0814031e-12
3.3191889e-10
4.9718153e-12
3.2705042e-10
4.8684713e-12
3.2227942e-10
4.7709993e-12
3.1760036e-10
4.6790598e-12
3.1300819e-10
4.5921717e-12
3.0849817e-10
4.5100172e-12
3.0406563e-10
4.4325399e-12
2.9970614e-10
4.3594926e-12
2.9541557e-10
4.2905633e-12
2.9119001e-10
4.2255649e-12
2.8702569e-10
4.1643189e-12
2.8291902e-10
4.1066674e-12
2.7886662e-10
4.0524037e-12
2.7486533e-10
4.0012896e-12
2.7091206e-10
3.9532683e-12
2.6700373e-10
3.9083316e-12
2.631374e-10
3.8663278e-12
2.5931027e-10
3.8271303e-12
2.5551961e-10
3.7906635e-12
2.5176274e-10
3.7568626e-12
2.4803707e-10
3.7256706e-12
2.4434015e-10
3.6969164e-12
2.4066961e-10
3.6705434e-12
2.3702295e-10
3.6466582e-12
2.3339774e-10
3.6252111e-12
2.2979161e-10
3.6061265e-12
2.2620221e-10
3.5894055e-12
2.2262716e-10
3.5750517e-12
2.1906409e-10
3.5630642e-12
2.1551071e-10
3.5533769e-12
2.1196469e-10
3.5460226e-12
2.0842356e-10
3.5411335e-12
2.0488481e-10
3.5387429e-12
2.0134593e-10
3.5388824e-12
1.9780426e-10
3.5416666e-12
1.9425709e-10
3.5471789e-12
1.9070161e-10
3.5554735e-12
1.8713439e-10
3.5672258e-12
1.8355319e-10
3.5811976e-12
1.7995605e-10
3.5971418e-12
1.7648978e-10
3.4662621e-12
1.7322561e-10
3.2641691e-12
1.7014421e-10
3.0814002e-12
1.6723091e-10
2.9133059e-12
1.6447188e-10
2.7590239e-12
1.618539e-10
2.6179796e-12
1.5936504e-10
2.4888647e-12
1.569945e-10
2.3705338e-12
1.5473251e-10
2.2619943e-12
1.5257019e-10
2.1623154e-12
1.5049946e-10
2.0707339e-12
1.4851272e-10
1.9867413e-12
1.4660276e-10
1.9099539e-12
1.4476254e-10
1.8402256e-12
1.4298507e-10
1.7774647e-12
1.4126249e-10
1.7225786e-12
1.3958713e-10
1.6753646e-12
1.3794549e-10
1.6416345e-12
1.363326e-10
1.6128974e-12
1.3469604e-10
1.636558e-12
1.3311764e-10
1.578398e-12
1.3132112e-10
1.7965162e-12
1.0647808e-12
2.0345028e-06
5.0015995e-11
2.0344445e-06
1.1556077e-10
2.0343729e-06
1.4195305e-10
2.0342918e-06
1.6081532e-10
2.034198e-06
1.8587502e-10
2.03409e-06
2.1394482e-10
2.0339662e-06
2.4549256e-10
2.0338238e-06
2.8226259e-10
2.0336594e-06
3.2574476e-10
2.0334689e-06
3.7755275e-10
2.033247e-06
4.398254e-10
2.0329868e-06
5.1581488e-10
2.0326793e-06
6.0960451e-10
2.0323115e-06
7.2917846e-10
2.0318669e-06
8.8127097e-10
2.0313152e-06
1.0937195e-09
2.0306276e-06
1.3631853e-09
2.0297021e-06
1.8347226e-09
2.0285244e-06
2.3350872e-09
2.0266031e-06
3.8094118e-09
2.0242016e-06
4.761754e-09
2.0185097e-06
1.1286359e-08
2.0166292e-06
3.7244931e-09
1.0194357e-06
1.9861114e-06
1.3446483e-08
1.9997336e-06
6.4696904e-09
9.2694013e-09
4.9005826e-09
2.0819917e-09
4.1403411e-09
1.0086988e-09
3.6723341e-09
6.2095077e-10
3.338744e-09
4.4260665e-10
3.0838835e-09
3.3814914e-10
2.8796344e-09
2.7099841e-10
2.7109026e-09
2.2387391e-10
2.5681626e-09
1.8938814e-10
2.4450906e-09
1.6329281e-10
2.3374007e-09
1.4288398e-10
2.2420497e-09
1.2651259e-10
2.1567798e-09
1.1313693e-10
2.0798691e-09
1.020458e-10
2.0099858e-09
9.2722009e-11
1.9460843e-09
8.478515e-11
1.887313e-09
7.7978421e-11
1.8329923e-09
7.207329e-11
1.7825653e-09
6.6907093e-11
1.7355548e-09
6.2374088e-11
1.6915701e-09
5.8359361e-11
1.6502776e-09
5.4787434e-11
1.6113929e-09
5.159266e-11
1.5746724e-09
4.8721143e-11
1.5399056e-09
4.6128922e-11
1.5069086e-09
4.3780784e-11
1.4755203e-09
4.1646389e-11
1.445599e-09
3.969988e-11
1.4170198e-09
3.7919175e-11
1.3896725e-09
3.6284674e-11
1.3634589e-09
3.4780511e-11
1.3382904e-09
3.3393762e-11
1.3140877e-09
3.2112403e-11
1.2907794e-09
3.0925725e-11
1.2683008e-09
2.9824805e-11
1.2465936e-09
2.8801431e-11
1.225605e-09
2.7847885e-11
1.2052869e-09
2.6958173e-11
1.185595e-09
2.6127446e-11
1.1664885e-09
2.5350716e-11
1.1479301e-09
2.4623394e-11
1.1298856e-09
2.3941616e-11
1.1123232e-09
2.3301994e-11
1.0952137e-09
2.2701044e-11
1.0785305e-09
2.213542e-11
1.0622486e-09
2.1602964e-11
1.0463444e-09
2.1101902e-11
1.0307958e-09
2.0629939e-11
1.0155826e-09
2.0185028e-11
1.0006856e-09
1.9765466e-11
9.8608689e-10
1.9369744e-11
9.7176947e-10
1.8996482e-11
9.5771791e-10
1.8643729e-11
9.4391773e-10
1.8310194e-11
9.3035462e-10
1.7995647e-11
9.1701503e-10
1.7699086e-11
9.0388635e-10
1.7419243e-11
8.9095656e-10
1.7155358e-11
8.7821417e-10
1.6906708e-11
8.6564819e-10
1.6672651e-11
8.5324824e-10
1.6452348e-11
8.410047e-10
1.6244832e-11
8.2890809e-10
1.6049873e-11
8.1694899e-10
1.5867437e-11
8.0511841e-10
1.5696907e-11
7.9340777e-10
1.5537771e-11
7.8180871e-10
1.5389721e-11
7.7031308e-10
1.5252494e-11
7.5891289e-10
1.5125859e-11
7.4760068e-10
1.5009121e-11
7.3636918e-10
1.4902052e-11
7.2521075e-10
1.4805081e-11
7.1411795e-10
1.4718009e-11
7.0308355e-10
1.4640529e-11
6.9210031e-10
1.4572645e-11
6.8116099e-10
1.4514371e-11
6.7025835e-10
1.4465704e-11
6.5938535e-10
1.4426376e-11
6.4853485e-10
1.439652e-11
6.3769932e-10
1.4376672e-11
6.2687109e-10
1.4366968e-11
6.1604244e-10
1.4367536e-11
6.0520526e-10
1.4378841e-11
5.9435122e-10
1.4401222e-11
5.8347179e-10
1.44349e-11
5.725564e-10
1.4482615e-11
5.6159826e-10
1.4539341e-11
5.5059131e-10
1.4604087e-11
5.3998484e-10
1.407274e-11
5.2999675e-10
1.3252257e-11
5.2056791e-10
1.2510232e-11
5.1165343e-10
1.1827792e-11
5.0321102e-10
1.1201428e-11
4.952002e-10
1.0628807e-11
4.8758444e-10
1.0104617e-11
4.8033077e-10
9.624208e-12
4.7340921e-10
9.18355e-12
4.6679266e-10
8.7788648e-12
4.6045634e-10
8.4070535e-12
4.5437703e-10
8.0660512e-12
4.4853269e-10
7.7543005e-12
4.429017e-10
7.4712079e-12
4.3746277e-10
7.2164006e-12
4.3219178e-10
6.993562e-12
4.2706528e-10
6.8018667e-12
4.22042e-10
6.6649117e-12
4.1710669e-10
6.5482107e-12
4.12099e-10
6.6442438e-12
4.0726992e-10
6.4074824e-12
4.0176836e-10
7.2980791e-12
4.3159583e-12
2.094695e-06
7.6095285e-11
2.0946347e-06
1.7583753e-10
2.0945607e-06
2.160167e-10
2.0944768e-06
2.4472338e-10
2.0943798e-06
2.828556e-10
2.0942682e-06
3.2556636e-10
2.0941401e-06
3.7356682e-10
2.0939928e-06
4.2951068e-10
2.0938229e-06
4.9566438e-10
2.093626e-06
5.7448239e-10
2.0933966e-06
6.6921778e-10
2.0931276e-06
7.8481703e-10
2.0928097e-06
9.274903e-10
2.0924295e-06
1.1093811e-09
2.09197e-06
1.3407299e-09
2.0913999e-06
1.6638761e-09
2.0906893e-06
2.073731e-09
2.0897331e-06
2.7909127e-09
2.0885163e-06
3.5518893e-09
2.0865317e-06
5.7940366e-09
2.0840511e-06
7.2424116e-09
2.0781724e-06
1.7164983e-08
2.0762256e-06
5.6713752e-09
1.0562974e-06
3.0060396e-06
2.3249841e-08
3.0327812e-06
1.1211833e-08
2.130741e-08
8.4928497e-09
4.8009745e-09
7.175361e-09
2.3261876e-09
6.3642573e-09
1.4320545e-09
5.7861154e-09
1.0207485e-09
5.3444205e-09
7.7984403e-10
4.9904422e-09
6.2497674e-10
4.6980183e-09
5.1629782e-10
4.4506409e-09
4.3676552e-10
4.2373502e-09
3.7658355e-10
4.0507178e-09
3.2951631e-10
3.8854699e-09
2.9176056e-10
3.7376931e-09
2.6091369e-10
3.6044035e-09
2.3533541e-10
3.4832925e-09
2.1383301e-10
3.3725484e-09
1.9552928e-10
3.2706952e-09
1.7983163e-10
3.1765551e-09
1.6621333e-10
3.0891629e-09
1.5429934e-10
3.0076915e-09
1.4384541e-10
2.9314641e-09
1.3458677e-10
2.8599023e-09
1.2634931e-10
2.7925133e-09
1.1898163e-10
2.728875e-09
1.1235944e-10
2.6686226e-09
1.0638135e-10
2.6114372e-09
1.0096616e-10
2.5570397e-09
9.6043897e-11
2.5051846e-09
9.155493e-11
2.4556555e-09
8.7448331e-11
2.4082612e-09
8.3678908e-11
2.3628317e-09
8.0210063e-11
2.3192135e-09
7.7011995e-11
2.2772689e-09
7.4056972e-11
2.2368743e-09
7.1320301e-11
2.1979177e-09
6.8781399e-11
2.1602978e-09
6.6421331e-11
2.1239234e-09
6.4222299e-11
2.0887111e-09
6.217048e-11
2.0545839e-09
6.0254688e-11
2.0214712e-09
5.8463422e-11
1.9893084e-09
5.6786098e-11
1.9580363e-09
5.5213807e-11
1.9275995e-09
5.3738733e-11
1.8979477e-09
5.2352845e-11
1.8690347e-09
5.1048424e-11
1.8408172e-09
4.9820492e-11
1.8132541e-09
4.8664963e-11
1.7863075e-09
4.7576537e-11
1.7599421e-09
4.65505e-11
1.7341246e-09
4.5582921e-11
1.708824e-09
4.4670319e-11
1.684011e-09
4.3809516e-11
1.6596587e-09
4.2996009e-11
1.6357421e-09
4.2226825e-11
1.6122363e-09
4.1501427e-11
1.5891179e-09
4.0817506e-11
1.566365e-09
4.0172141e-11
1.5439568e-09
3.956358e-11
1.5218733e-09
3.8990152e-11
1.5000956e-09
3.8450378e-11
1.4786056e-09
3.7942322e-11
1.4573867e-09
3.7463757e-11
1.4364224e-09
3.7014149e-11
1.4156964e-09
3.659342e-11
1.3951932e-09
3.6200151e-11
1.3748978e-09
3.5833157e-11
1.3547958e-09
3.5491729e-11
1.334873e-09
3.5175263e-11
1.3151157e-09
3.4883221e-11
1.2955108e-09
3.4614005e-11
1.2760457e-09
3.4367087e-11
1.2567074e-09
3.4143457e-11
1.2374827e-09
3.3942657e-11
1.2183593e-09
3.3763976e-11
1.1993245e-09
3.3607425e-11
1.1803658e-09
3.3473038e-11
1.1614707e-09
3.3360807e-11
1.142627e-09
3.3270113e-11
1.1238222e-09
3.3201263e-11
1.1050434e-09
3.3155494e-11
1.0862773e-09
3.3133118e-11
1.0675104e-09
3.3134433e-11
1.0487287e-09
3.3160511e-11
1.0299178e-09
3.3212132e-11
1.0110629e-09
3.3289806e-11
9.9214565e-10
3.3399854e-11
9.731543e-10
3.3530685e-11
9.5407836e-10
3.3680031e-11
9.3569643e-10
3.2454664e-11
9.1838622e-10
3.0562469e-11
9.0204524e-10
2.8851218e-11
8.8659564e-10
2.7277394e-11
8.7196417e-10
2.5832893e-11
8.5808065e-10
2.4512329e-11
8.4488181e-10
2.3303455e-11
8.3231047e-10
2.2195547e-11
8.2031471e-10
2.117931e-11
8.0884755e-10
2.0246031e-11
7.9786603e-10
1.9388565e-11
7.8732994e-10
1.8602149e-11
7.7720105e-10
1.7883191e-11
7.6744193e-10
1.7230321e-11
7.5801565e-10
1.6642681e-11
7.4888045e-10
1.6128763e-11
7.3999566e-10
1.5686662e-11
7.3128978e-10
1.5370791e-11
7.2273637e-10
1.510162e-11
7.1405761e-10
1.5323001e-11
7.0568874e-10
1.4776351e-11
6.9615087e-10
1.6835952e-11
9.9459244e-12
2.1861029e-06
1.0344329e-10
2.1860396e-06
2.3906701e-10
2.1859619e-06
2.9372827e-10
2.1858739e-06
3.3276722e-10
2.1857721e-06
3.8461364e-10
2.185655e-06
4.4268236e-10
2.1855206e-06
5.0793906e-10
2.1853662e-06
5.8399092e-10
2.1851879e-06
6.7391847e-10
2.1849813e-06
7.8105731e-10
2.1847407e-06
9.0982806e-10
2.1844586e-06
1.0669525e-09
2.1841252e-06
1.2608691e-09
2.1837265e-06
1.5080795e-09
2.1832447e-06
1.8224958e-09
2.182647e-06
2.2616534e-09
2.1819021e-06
2.8186191e-09
2.1808998e-06
3.7931864e-09
2.1796245e-06
4.8271835e-09
2.1775449e-06
7.8736503e-09
2.1749456e-06
9.8416757e-09
2.1687869e-06
2.3323694e-08
2.1667412e-06
7.7171094e-09
1.1095924e-06
4.0631884e-06
3.4397261e-08
4.1079763e-06
1.6624544e-08
3.9080127e-08
1.259327e-08
8.8322484e-09
1.063975e-08
4.2797075e-09
9.4369803e-09
2.6348243e-09
8.5796734e-09
1.8780553e-09
7.9247001e-09
1.4348174e-09
7.3998023e-09
1.1498745e-09
6.9661812e-09
9.4991896e-10
6.5993584e-09
8.0358832e-10
6.2830819e-09
6.9285998e-10
6.0063364e-09
6.0626188e-10
5.7613007e-09
5.3679625e-10
5.5421721e-09
4.8004225e-10
5.3445257e-09
4.3298182e-10
5.1649382e-09
3.9342051e-10
5.0007229e-09
3.5974456e-10
4.8496916e-09
3.3086298e-10
4.7100976e-09
3.0580732e-10
4.5805092e-09
2.8388771e-10
4.4597006e-09
2.64654e-10
4.3466678e-09
2.4761957e-10
4.2405532e-09
2.3246394e-10
4.1406263e-09
2.1890858e-10
4.0462609e-09
2.067248e-10
3.9569162e-09
1.9572609e-10
3.8721193e-09
1.85763e-10
3.7914564e-09
1.7670682e-10
3.7145635e-09
1.6844784e-10
3.6411195e-09
1.6089235e-10
3.5708411e-09
1.5395722e-10
3.5034761e-09
1.4757511e-10
3.4387969e-09
1.4169117e-10
3.3765995e-09
1.3625441e-10
3.3167004e-09
1.3121937e-10
3.2589336e-09
1.2654819e-10
3.2031489e-09
1.2220604e-10
3.149211e-09
1.1816018e-10
3.0969964e-09
1.1438516e-10
3.0463906e-09
1.1086041e-10
2.9972893e-09
1.0756476e-10
2.9495966e-09
1.0447875e-10
2.9032245e-09
1.0158599e-10
2.8580911e-09
9.8872082e-11
2.8141217e-09
9.6322268e-11
2.7712478e-09
9.392234e-11
2.7294051e-09
9.1663142e-11
2.6885329e-09
8.9537149e-11
2.6485749e-09
8.7534617e-11
2.6094785e-09
8.5646869e-11
2.5711947e-09
8.3866675e-11
2.5336774e-09
8.2187631e-11
2.4968831e-09
8.0603887e-11
2.4607719e-09
7.9107162e-11
2.4253067e-09
7.7691985e-11
2.3904508e-09
7.6357366e-11
2.3561692e-09
7.5099058e-11
2.3224297e-09
7.3911688e-11
2.2892013e-09
7.279203e-11
2.2564544e-09
7.1737012e-11
2.2241609e-09
7.074391e-11
2.192294e-09
6.9809166e-11
2.1608291e-09
6.8928683e-11
2.1297418e-09
6.8101476e-11
2.0990078e-09
6.73274e-11
2.0686041e-09
6.6603846e-11
2.0385086e-09
6.5928635e-11
2.0086999e-09
6.5300461e-11
1.9791569e-09
6.4718214e-11
1.9498592e-09
6.4180904e-11
1.9207877e-09
6.3685591e-11
1.8919234e-09
6.3231303e-11
1.863247e-09
6.2819862e-11
1.8347393e-09
6.2450424e-11
1.8063816e-09
6.2121683e-11
1.7781553e-09
6.1833659e-11
1.750042e-09
6.1586412e-11
1.7220228e-09
6.137993e-11
1.6940799e-09
6.1213075e-11
1.6661947e-09
6.1086411e-11
1.638348e-09
6.1002213e-11
1.6105201e-09
6.0961056e-11
1.582691e-09
6.0963488e-11
1.55484e-09
6.1011481e-11
1.5269457e-09
6.1106473e-11
1.4989861e-09
6.1249403e-11
1.4709341e-09
6.1451898e-11
1.4427721e-09
6.1692638e-11
1.4144847e-09
6.1967475e-11
1.3872263e-09
5.9713e-11
1.3615572e-09
5.6231603e-11
1.3373253e-09
5.3083132e-11
1.3144151e-09
5.0187532e-11
1.2927182e-09
4.7529868e-11
1.2721303e-09
4.5100228e-11
1.2525576e-09
4.2876077e-11
1.2339155e-09
4.0837684e-11
1.2161269e-09
3.8967952e-11
1.199122e-09
3.7250849e-11
1.1828374e-09
3.5673229e-11
1.1672132e-09
3.4226329e-11
1.1521929e-09
3.2903539e-11
1.1377208e-09
3.1702342e-11
1.1237424e-09
3.0621155e-11
1.1101955e-09
2.96756e-11
1.09702e-09
2.8862172e-11
1.0841098e-09
2.8280968e-11
1.0714258e-09
2.7785692e-11
1.058556e-09
2.8192807e-11
1.0461457e-09
2.7186558e-11
1.0319997e-09
3.0981957e-11
1.8292064e-11
2.3100886e-06
1.3250949e-10
2.3100214e-06
3.0629555e-10
2.3099387e-06
3.7638072e-10
2.3098451e-06
4.2641276e-10
2.3097369e-06
4.9284251e-10
2.3096123e-06
5.6724034e-10
2.3094694e-06
6.5084163e-10
2.3093051e-06
7.4826675e-10
2.3091156e-06
8.6346118e-10
2.3088959e-06
1.0006963e-09
2.3086401e-06
1.1656323e-09
2.3083402e-06
1.3668763e-09
2.3079859e-06
1.615232e-09
2.3075621e-06
1.9318289e-09
2.3070501e-06
2.334475e-09
2.3064149e-06
2.8968407e-09
2.3056235e-06
3.6100214e-09
2.3045588e-06
4.8578764e-09
2.3032043e-06
6.1817013e-09
2.3009961e-06
1.0081917e-08
2.2982362e-06
1.2601584e-08
2.2916981e-06
2.9861731e-08
2.2895186e-06
9.8966656e-09
1.1804585e-06
5.1722485e-06
4.7544274e-08
5.2408905e-06
2.303159e-08
6.3592812e-08
1.7447161e-08
1.4416677e-08
1.4740785e-08
6.9860844e-09
1.3074335e-08
4.3012736e-09
1.1886542e-08
3.065849e-09
1.097908e-08
2.3422788e-09
1.0251843e-08
1.8771118e-09
9.6510686e-09
1.5506933e-09
9.1428434e-09
1.3118135e-09
8.7046505e-09
1.1310528e-09
8.3212275e-09
9.8968493e-10
7.9817379e-09
8.7628582e-10
7.678142e-09
7.8363812e-10
7.4043091e-09
7.0681475e-10
7.1554962e-09
6.4223338e-10
6.9279808e-09
5.8725997e-10
6.7187315e-09
5.4011227e-10
6.5253283e-09
4.9921052e-10
6.3457872e-09
4.6342886e-10
6.1784101e-09
4.3203103e-10
6.0218062e-09
4.0422356e-10
5.874787e-09
3.7948312e-10
5.7363405e-09
3.57355e-10
5.6055995e-09
3.374659e-10
5.4818142e-09
3.1951133e-10
5.3643299e-09
3.0324734e-10
5.2525729e-09
2.8846381e-10
5.1460391e-09
2.7498164e-10
5.0442836e-09
2.6264788e-10
4.946914e-09
2.5132679e-10
4.8535806e-09
2.4090848e-10
4.7639684e-09
2.313034e-10
4.6777945e-09
2.2242827e-10
4.5948049e-09
2.1420895e-10
4.5147695e-09
2.065836e-10
4.4374802e-09
1.9949536e-10
4.3627496e-09
1.9289079e-10
4.2904064e-09
1.8672835e-10
4.2202924e-09
1.8097445e-10
4.1522626e-09
1.7559455e-10
4.0861845e-09
1.7055686e-10
4.0219358e-09
1.6583463e-10
3.9594035e-09
1.6140438e-10
3.8984838e-09
1.5724199e-10
3.8390819e-09
1.5332428e-10
3.7811087e-09
1.496363e-10
3.7244801e-09
1.4616577e-10
3.6691179e-09
1.4289678e-10
3.6149496e-09
1.3981516e-10
3.5619072e-09
1.3690912e-10
3.5099266e-09
1.341682e-10
3.4589477e-09
1.3158285e-10
3.4089153e-09
1.2913955e-10
3.3597779e-09
1.2682937e-10
3.3114845e-09
1.246507e-10
3.263987e-09
1.225966e-10
3.2172404e-09
1.206583e-10
3.1712019e-09
1.1883054e-10
3.1258306e-09
1.1710829e-10
3.0810874e-09
1.1548712e-10
3.0369353e-09
1.1396121e-10
2.9933401e-09
1.1252389e-10
2.9502681e-09
1.1117353e-10
2.9076856e-09
1.0990991e-10
2.8655607e-09
1.0872876e-10
2.8238628e-09
1.0762652e-10
2.7825622e-09
1.0660107e-10
2.7416298e-09
1.056506e-10
2.7010372e-09
1.0477348e-10
2.6607579e-09
1.0396492e-10
2.6207659e-09
1.0322333e-10
2.581034e-09
1.0255169e-10
2.5415358e-09
1.0194861e-10
2.5022455e-09
1.0141198e-10
2.4631374e-09
1.0094181e-10
2.4241856e-09
1.005382e-10
2.3853644e-09
1.0020115e-10
2.3466487e-09
9.9928786e-11
2.308013e-09
9.9722035e-11
2.2694307e-09
9.9584608e-11
2.2308743e-09
9.9517446e-11
2.1923163e-09
9.9521445e-11
2.153728e-09
9.9599821e-11
2.1150795e-09
9.9754927e-11
2.0763406e-09
9.9988297e-11
2.0374736e-09
1.0031891e-10
1.9984543e-09
1.0071197e-10
1.959261e-09
1.0116075e-10
1.9214935e-09
9.7480478e-11
1.8859279e-09
9.1797239e-11
1.8523535e-09
8.6657513e-11
1.8206104e-09
8.1930626e-11
1.7905481e-09
7.7592159e-11
1.7620224e-09
7.362592e-11
1.7349034e-09
6.9995124e-11
1.7090735e-09
6.6667562e-11
1.6844261e-09
6.3615324e-11
1.6608647e-09
6.0812242e-11
1.6383011e-09
5.8236854e-11
1.6166526e-09
5.5874857e-11
1.5958407e-09
5.3715463e-11
1.5757884e-09
5.1754559e-11
1.55642e-09
4.9989562e-11
1.5376497e-09
4.8445969e-11
1.5193938e-09
4.7118063e-11
1.5015055e-09
4.6169207e-11
1.4839306e-09
4.5360664e-11
1.4660985e-09
4.6024908e-11
1.448903e-09
4.438202e-11
1.4293007e-09
5.0584256e-11
2.9854676e-11
2.4684999e-06
1.6378223e-10
2.4684275e-06
3.7866213e-10
2.4683385e-06
4.6538359e-10
2.4682377e-06
5.2725844e-10
2.4681211e-06
6.0938837e-10
2.467987e-06
7.0136311e-10
2.4678331e-06
8.0470718e-10
2.4676563e-06
9.2513077e-10
2.4674522e-06
1.0675096e-09
2.4672158e-06
1.2371208e-09
2.4669405e-06
1.4409572e-09
2.4666177e-06
1.6896514e-09
2.4662364e-06
1.9965492e-09
2.4657805e-06
2.387753e-09
2.4652297e-06
2.8852543e-09
2.4645465e-06
3.5800641e-09
2.4636953e-06
4.4611419e-09
2.4625505e-06
6.0026869e-09
2.4610943e-06
7.6378995e-09
2.458721e-06
1.2455262e-08
2.455755e-06
1.5567607e-08
2.4487304e-06
3.6886331e-08
2.4463786e-06
1.2248399e-08
1.270352e-06
6.3482751e-06
6.3460046e-08
6.4477824e-06
3.0816189e-08
9.6236669e-08
2.3344921e-08
2.1887944e-08
1.9723836e-08
1.060717e-08
1.7493936e-08
6.5311733e-09
1.5904551e-08
4.6552336e-09
1.4690278e-08
3.5565516e-09
1.371717e-08
2.8502198e-09
1.2913282e-08
2.3545822e-09
1.2233233e-08
1.991862e-09
1.1646896e-08
1.7173902e-09
1.1133846e-08
1.5027349e-09
1.0679583e-08
1.330549e-09
1.0273348e-08
1.1898727e-09
9.9069387e-09
1.0732242e-09
9.5740079e-09
9.7516413e-10
9.2695743e-09
8.9169355e-10
8.9895824e-09
8.2010416e-10
8.7307938e-09
7.5799919e-10
8.4905529e-09
7.0366972e-10
8.2665886e-09
6.5599532e-10
8.0570393e-09
6.1377289e-10
7.860315e-09
5.7620738e-10
7.6750616e-09
5.4260838e-10
7.5001184e-09
5.1240909e-10
7.3344826e-09
4.8514718e-10
7.1772777e-09
4.6045221e-10
7.0277364e-09
4.3800513e-10
6.885184e-09
4.1753401e-10
6.7490253e-09
3.9880661e-10
6.6187352e-09
3.8161686e-10
6.4938459e-09
3.6579786e-10
6.3739356e-09
3.5121365e-10
6.2586261e-09
3.377378e-10
6.1475773e-09
3.252577e-10
6.0404815e-09
3.1367948e-10
5.93706e-09
3.0291679e-10
5.8370623e-09
2.9288849e-10
5.7402591e-09
2.8353154e-10
5.6464387e-09
2.7479489e-10
5.5554071e-09
2.6662612e-10
5.466987e-09
2.5897696e-10
5.3810149e-09
2.5180678e-10
5.2973393e-09
2.4507993e-10
5.2158215e-09
2.3875981e-10
5.1363346e-09
2.3281121e-10
5.0587595e-09
2.2721142e-10
4.9829834e-09
2.219418e-10
4.908902e-09
2.169782e-10
4.8364181e-09
2.122991e-10
4.7654406e-09
2.078866e-10
4.695884e-09
2.0372481e-10
4.6276676e-09
1.9979923e-10
4.5607178e-09
1.9608935e-10
4.4949656e-09
1.925816e-10
4.4303427e-09
1.8927352e-10
4.3667848e-09
1.8615459e-10
4.3042316e-09
1.8321149e-10
4.2426259e-09
1.8043623e-10
4.181913e-09
1.7782119e-10
4.1220405e-09
1.7535962e-10
4.062959e-09
1.7304269e-10
4.0046226e-09
1.7086027e-10
3.9469862e-09
1.688099e-10
3.8900049e-09
1.6689123e-10
3.8336359e-09
1.6509778e-10
3.7778383e-09
1.6342416e-10
3.7225722e-09
1.6186713e-10
3.6677989e-09
1.6042394e-10
3.6134802e-09
1.5909213e-10
3.5595807e-09
1.5786443e-10
3.5060656e-09
1.5673843e-10
3.4528987e-09
1.5571862e-10
3.4000444e-09
1.5480293e-10
3.3474682e-09
1.5398812e-10
3.2951358e-09
1.5327423e-10
3.2430126e-09
1.5266143e-10
3.191064e-09
1.5214968e-10
3.1392567e-09
1.5173615e-10
3.0875564e-09
1.5142226e-10
3.0359274e-09
1.5121363e-10
2.9843332e-09
1.511117e-10
2.9327368e-09
1.5111782e-10
2.8810997e-09
1.5123689e-10
2.8293822e-09
1.5147248e-10
2.7775435e-09
1.5182691e-10
2.7255334e-09
1.5232902e-10
2.6733194e-09
1.5292597e-10
2.6208726e-09
1.5360761e-10
2.5703335e-09
1.4801952e-10
2.5227408e-09
1.3938997e-10
2.4778126e-09
1.3158574e-10
2.4353348e-09
1.2440843e-10
2.395106e-09
1.1782091e-10
2.3569334e-09
1.1179857e-10
2.3206429e-09
1.0628555e-10
2.2860776e-09
1.0123296e-10
2.2530945e-09
9.6598412e-11
2.2215645e-09
9.234218e-11
2.1913697e-09
8.8431677e-11
2.1623994e-09
8.4845184e-11
2.1345485e-09
8.1566322e-11
2.1077142e-09
7.8588848e-11
2.0817949e-09
7.5908839e-11
2.0566759e-09
7.3565003e-11
2.0322453e-09
7.1548668e-11
2.0083067e-09
7.0107818e-11
1.9847873e-09
6.8880106e-11
1.960924e-09
6.9888136e-11
1.9379123e-09
6.7393724e-11
1.9116783e-09
7.6818314e-11
4.5327065e-11
2.6636974e-06
1.9780035e-10
2.6636186e-06
4.5742627e-10
2.6635217e-06
5.6229833e-10
2.6634119e-06
6.3707542e-10
2.663285e-06
7.3629653e-10
2.6631389e-06
8.4740193e-10
2.6629714e-06
9.7222932e-10
2.6627789e-06
1.1176741e-09
2.6625567e-06
1.2896232e-09
2.6622994e-06
1.494447e-09
2.6619998e-06
1.7405855e-09
2.6616486e-06
2.0408724e-09
2.6612337e-06
2.4114136e-09
2.6607377e-06
2.8837139e-09
2.6601387e-06
3.4843055e-09
2.6593957e-06
4.3230366e-09
2.6584703e-06
5.3865249e-09
2.6572259e-06
7.2471027e-09
2.6556433e-06
9.2204745e-09
2.6530649e-06
1.5033685e-08
2.6498429e-06
1.8789668e-08
2.6422141e-06
4.451508e-08
2.6396474e-06
1.4815078e-08
1.3810915e-06
7.6068311e-06
8.3071228e-08
7.7458027e-06
4.0443929e-08
1.3886397e-07
3.0639396e-08
3.1692477e-08
2.5887051e-08
1.5359515e-08
2.2960196e-08
9.4580287e-09
2.0874075e-08
6.7413541e-09
1.92803e-08
5.1503263e-09
1.8003073e-08
4.1274477e-09
1.6947949e-08
3.4097055e-09
1.6055371e-08
2.88444e-09
1.5285794e-08
2.4869679e-09
1.4612408e-08
2.1761204e-09
1.4016182e-08
1.9267756e-09
1.3482993e-08
1.723061e-09
1.3002076e-08
1.5541417e-09
1.2565099e-08
1.4121406e-09
1.2165525e-08
1.2912679e-09
1.1798031e-08
1.1875981e-09
1.1458366e-08
1.0976637e-09
1.1143045e-08
1.0189909e-09
1.0849087e-08
9.4995341e-10
1.0574049e-08
8.8881139e-10
1.0315843e-08
8.3441304e-10
1.0072693e-08
7.8575856e-10
9.8430746e-09
7.4202721e-10
9.6256724e-09
7.0254945e-10
9.4193357e-09
6.6678885e-10
9.2230574e-09
6.3428339e-10
9.0359521e-09
6.0463931e-10
8.8572385e-09
5.7752028e-10
8.6862274e-09
5.5262793e-10
8.5223047e-09
5.2972054e-10
8.3649171e-09
5.0860124e-10
8.213568e-09
4.8908692e-10
8.0678112e-09
4.7101456e-10
7.9272424e-09
4.5424819e-10
7.7914964e-09
4.3866279e-10
7.6602441e-09
4.2414086e-10
7.5331845e-09
4.105911e-10
7.4100398e-09
3.9793959e-10
7.2905555e-09
3.8611041e-10
7.1744988e-09
3.7503368e-10
7.061655e-09
3.6465055e-10
6.9518256e-09
3.5490942e-10
6.8448281e-09
3.4575725e-10
6.7404962e-09
3.3714309e-10
6.6386736e-09
3.2903406e-10
6.5392123e-09
3.2140312e-10
6.4419751e-09
3.1421533e-10
6.3468347e-09
3.0743953e-10
6.2536715e-09
3.0104977e-10
6.1623733e-09
2.9502308e-10
6.0728341e-09
2.8933843e-10
5.9849573e-09
2.8396615e-10
5.8986523e-09
2.7888658e-10
5.8138297e-09
2.7409615e-10
5.7304046e-09
2.6957961e-10
5.6482984e-09
2.6531771e-10
5.5674358e-09
2.6129884e-10
5.487745e-09
2.5751199e-10
5.4091572e-09
2.5394738e-10
5.3316077e-09
2.5059224e-10
5.2550361e-09
2.4743187e-10
5.1793833e-09
2.4446273e-10
5.1045902e-09
2.416843e-10
5.0306008e-09
2.390872e-10
4.9573613e-09
2.3666363e-10
4.8848195e-09
2.344089e-10
4.8129244e-09
2.3231903e-10
4.7416261e-09
2.3039044e-10
4.6708779e-09
2.2861262e-10
4.6006343e-09
2.2698207e-10
4.5308476e-09
2.2550531e-10
4.4614712e-09
2.2417932e-10
4.3924599e-09
2.2299942e-10
4.3237685e-09
2.2196567e-10
4.2553516e-09
2.2107831e-10
4.187164e-09
2.2033728e-10
4.1191616e-09
2.1973851e-10
4.0512999e-09
2.1928403e-10
3.9835315e-09
2.1898198e-10
3.9158087e-09
2.1883446e-10
3.8480831e-09
2.1884342e-10
3.7803041e-09
2.1901596e-10
3.7124193e-09
2.1935724e-10
3.6443756e-09
2.1987065e-10
3.5761067e-09
2.2059794e-10
3.50757e-09
2.2146262e-10
3.4387275e-09
2.2245008e-10
3.3723891e-09
2.1435795e-10
3.3099179e-09
2.0186118e-10
3.250944e-09
1.9055967e-10
3.1951863e-09
1.8016613e-10
3.1423805e-09
1.7062668e-10
3.0922734e-09
1.6190564e-10
3.0446368e-09
1.5392215e-10
2.9992644e-09
1.4660539e-10
2.9559688e-09
1.39894e-10
2.9145805e-09
1.3373045e-10
2.8749447e-09
1.2806754e-10
2.836916e-09
1.2287384e-10
2.8003567e-09
1.1812562e-10
2.7651317e-09
1.1381385e-10
2.7311077e-09
1.0993285e-10
2.6981341e-09
1.0653865e-10
2.666064e-09
1.0361872e-10
2.6346398e-09
1.0153206e-10
2.6037657e-09
9.9754211e-11
2.5724407e-09
1.012131e-10
2.5422327e-09
9.7601684e-11
2.5077935e-09
1.1125753e-10
6.5637237e-11
2.8985899e-06
2.3516677e-10
2.8985033e-06
5.4400078e-10
2.8983967e-06
6.6887981e-10
2.898276e-06
7.5785475e-10
2.8981364e-06
8.7586581e-10
2.8979758e-06
1.0079989e-09
2.8977916e-06
1.1564339e-09
2.8975799e-06
1.3293675e-09
2.8973357e-06
1.5337972e-09
2.8970529e-06
1.7772923e-09
2.8967236e-06
2.0698801e-09
2.8963377e-06
2.4268081e-09
2.8958819e-06
2.8672089e-09
2.8953371e-06
3.4285116e-09
2.8946791e-06
4.1422226e-09
2.8938633e-06
5.1388494e-09
2.8928474e-06
6.4024136e-09
2.8914817e-06
8.6128622e-09
2.8897452e-06
1.0956955e-08
2.8869172e-06
1.7861706e-08
2.8833835e-06
2.2323311e-08
2.87502e-06
5.2878619e-08
2.8721899e-06
1.7645138e-08
1.5149104e-06
8.9641106e-06
1.0751424e-07
9.1531989e-06
5.2490603e-08
1.9388761e-07
3.9766998e-08
4.4416081e-08
3.3599195e-08
2.1527318e-08
2.9800147e-08
1.3257077e-08
2.7092408e-08
9.4490938e-09
2.502372e-08
7.2190139e-09
2.3365917e-08
5.7852507e-09
2.1996399e-08
4.7792231e-09
2.0837863e-08
4.0429764e-09
1.983898e-08
3.485851e-09
1.8964952e-08
3.050148e-09
1.8191074e-08
2.7006538e-09
1.7499017e-08
2.4151182e-09
1.6874805e-08
2.1783536e-09
1.6307626e-08
1.9793192e-09
1.5788993e-08
1.809901e-09
1.5311999e-08
1.6645919e-09
1.4871127e-08
1.5385364e-09
1.4461849e-08
1.4282683e-09
1.40803e-08
1.3315023e-09
1.3723308e-08
1.2458038e-09
1.3388163e-08
1.1695575e-09
1.307256e-08
1.1013619e-09
1.2774521e-08
1.0400668e-09
1.2492336e-08
9.8473359e-10
1.2224515e-08
9.3461048e-10
1.1969748e-08
8.8904985e-10
1.1726888e-08
8.474998e-10
1.1494919e-08
8.0948892e-10
1.1272948e-08
7.7459903e-10
1.1060177e-08
7.4249134e-10
1.0855889e-08
7.1288986e-10
1.0659438e-08
6.8553796e-10
1.0470245e-08
6.6020714e-10
1.0287786e-08
6.3670684e-10
1.0111587e-08
6.1486182e-10
9.9412209e-09
5.945074e-10
9.7762964e-09
5.755156e-10
9.6164531e-09
5.577828e-10
9.461361e-09
5.4120261e-10
9.3107176e-09
5.2567706e-10
9.1642444e-09
5.1112369e-10
9.0216837e-09
4.9747015e-10
8.8827988e-09
4.8464213e-10
8.7473737e-09
4.7256821e-10
8.6152055e-09
4.6120229e-10
8.4861021e-09
4.5050648e-10
8.3598857e-09
4.4043177e-10
8.2363907e-09
4.3093455e-10
8.115462e-09
4.2197841e-10
7.9969539e-09
4.1353115e-10
7.880729e-09
4.0556332e-10
7.7666619e-09
3.9803331e-10
7.6546349e-09
3.9091359e-10
7.5445319e-09
3.8419913e-10
7.436243e-09
3.7786856e-10
7.3296658e-09
3.7189489e-10
7.2247027e-09
3.6626188e-10
7.1212607e-09
3.6095407e-10
7.0192503e-09
3.5595776e-10
6.9185875e-09
3.5125505e-10
6.819194e-09
3.4682535e-10
6.720993e-09
3.4266369e-10
6.623908e-09
3.3876933e-10
6.5278661e-09
3.3512914e-10
6.4327975e-09
3.3173217e-10
6.3386346e-09
3.2857186e-10
6.245311e-09
3.2564262e-10
6.152762e-09
3.2293945e-10
6.060927e-09
3.2044761e-10
5.9697469e-09
3.1816219e-10
5.8791598e-09
3.1609234e-10
5.7891053e-09