/*--------------------------------*- C++ -*----------------------------------*\
| =========                 |                                                 |
| \\      /  F ield         | OpenFOAM: The Open Source CFD Toolbox           |
|  \\    /   O peration     | Version:  2206                                  |
|   \\  /    A nd           | Website:  www.openfoam.com                      |
|    \\/     M anipulation  |                                                 |
\*---------------------------------------------------------------------------*/
FoamFile
{
    version     2.0;
    format      ascii;
    arch        "LSB;label=32;scalar=64";
    class       volVectorField;
    location    "1300";
    object      U;
}
// * * * * * * * * * * * * * * * * * * * * * * * * * * * * * * * * * * * * * //

dimensions      [0 1 -1 0 0 0 0];

internalField   nonuniform List<vector> 
13056
(
(1 3.0894325e-10 4.2404311e-25)
(0.99997675 8.1006261e-10 0)
(0.9999435 1.1290857e-09 0)
(0.99990679 1.4511647e-09 0)
(0.99986436 1.9023049e-09 0)
(0.99981532 2.4822121e-09 0)
(0.99975905 3.2270553e-09 0)
(0.99969447 4.20082e-09 0)
(0.99962009 5.4835495e-09 0)
(0.9995341 7.1802814e-09 0)
(0.99943422 9.4352719e-09 0)
(0.99931757 1.2457381e-08 0)
(0.99918027 1.6533344e-08 0)
(0.99901742 2.2139392e-08 0)
(0.99882127 2.9837075e-08 0)
(0.99858341 4.1091348e-08 0)
(0.99828287 5.6492349e-08 0)
(0.99791152 8.3258848e-08 0)
(0.9973806 1.1502327e-07 0)
(0.99675747 2.0160943e-07 0)
(0.99551174 2.6754276e-07 0)
(0.99439154 6.6431219e-07 0)
(0.98997427 2.2653441e-07 -4.7664337e-21)
(0.99246266 0.00012355008 7.7854366e-18)
(0.0031574016 0.00012403751 0)
(0.0012307519 6.5293157e-08 -1.0344571e-20)
(0.00087732003 4.6479232e-08 3.4319381e-18)
(0.00071987325 5.3301344e-09 0)
(0.00062969088 3.2537445e-09 0)
(0.00056740351 2.2980533e-09 0)
(0.00052099231 1.7395944e-09 0)
(0.00048434949 1.3808762e-09 0)
(0.00045442632 1.1295591e-09 0)
(0.00042935591 9.4593654e-10 0)
(0.00040790183 8.0722387e-10 0)
(0.00038924046 6.9888615e-10 0)
(0.00037279913 6.1211212e-10 0)
(0.00035815903 5.4132046e-10 0)
(0.00034500326 4.8269898e-10 0)
(0.00033308764 4.3348206e-10 0)
(0.00032222227 3.9164316e-10 0)
(0.00031225643 3.5579618e-10 2.5162744e-25)
(0.00030306316 3.2473519e-10 0)
(0.00029454804 2.9759569e-10 0)
(0.00028662395 2.7379591e-10 0)
(0.00027922247 2.5273741e-10 0)
(0.00027228471 2.3401403e-10 0)
(0.00026576077 2.1727753e-10 0)
(0.0002596079 2.0224243e-10 0)
(0.00025378945 1.8867573e-10 0)
(0.00024827345 1.7638935e-10 0)
(0.0002430319 1.652221e-10 0)
(0.0002380403 1.550371e-10 0)
(0.00023327699 1.4571772e-10 0)
(0.00022872289 1.3716159e-10 0)
(0.00022436117 1.292848e-10 0)
(0.00022017663 1.2201776e-10 0)
(0.00021615562 1.1529695e-10 0)
(0.0002122859 1.0906629e-10 0)
(0.00020855645 1.0327837e-10 0)
(0.00020495723 9.7890227e-11 0)
(0.00020147921 9.2862431e-11 0)
(0.00019811427 8.8163095e-11 0)
(0.00019485485 8.3765371e-11 0)
(0.00019169402 7.9643055e-11 0)
(0.00018862544 7.5772387e-11 0)
(0.0001856433 7.2132882e-11 0)
(0.00018274222 6.8706383e-11 0)
(0.00017991723 6.5475249e-11 0)
(0.00017716381 6.242305e-11 0)
(0.00017447779 5.9537517e-11 0)
(0.00017185518 5.6807892e-11 0)
(0.00016929227 5.4222439e-11 0)
(0.00016678562 5.1770656e-11 0)
(0.00016433201 4.94434e-11 0)
(0.00016192843 4.7232401e-11 0)
(0.00015957204 4.5130098e-11 0)
(0.00015726016 4.3127905e-11 0)
(0.00015499043 4.1219242e-11 0)
(0.0001527605 3.9400198e-11 0)
(0.00015056804 3.7665219e-11 0)
(0.00014841095 3.6008488e-11 0)
(0.00014628723 3.4425528e-11 0)
(0.00014419497 3.2912118e-11 0)
(0.00014213232 3.1464387e-11 0)
(0.00014009755 3.0078261e-11 0)
(0.00013808901 2.8749657e-11 0)
(0.0001361052 2.7476015e-11 0)
(0.00013414454 2.625516e-11 0)
(0.00013220553 2.5084006e-11 0)
(0.00013028674 2.3959801e-11 0)
(0.00012838679 2.2880238e-11 0)
(0.00012650435 2.1843162e-11 0)
(0.00012463808 2.0846555e-11 0)
(0.00012278672 1.988785e-11 0)
(0.0001209491 1.8965262e-11 0)
(0.00011912399 1.8077894e-11 0)
(0.00011731014 1.7224037e-11 0)
(0.00011550638 1.640195e-11 0)
(0.00011371151 1.5610319e-11 0)
(0.00011192437 1.4847879e-11 0)
(0.00011014375 1.4113384e-11 0)
(0.00010836849 1.3405382e-11 0)
(0.00010659745 1.2722869e-11 0)
(0.00010482943 1.2065205e-11 0)
(0.00010306318 1.1431377e-11 0)
(0.00010129744 1.0820397e-11 0)
(9.9530924e-05 1.0231551e-11 0)
(9.7762273e-05 9.664022e-12 0)
(9.5990113e-05 9.1169211e-12 0)
(9.4213025e-05 8.5908991e-12 0)
(9.242894e-05 8.0819356e-12 0)
(9.0637759e-05 7.5888568e-12 0)
(8.8877931e-05 7.127735e-12 0)
(8.7202099e-05 6.7123552e-12 0)
(8.5621341e-05 6.3367171e-12 0)
(8.4127853e-05 5.9912254e-12 0)
(8.2714798e-05 5.6741181e-12 0)
(8.1375235e-05 5.3842179e-12 0)
(8.0102896e-05 5.1188328e-12 0)
(7.8892148e-05 4.8756112e-12 0)
(7.7737866e-05 4.6525151e-12 0)
(7.6635405e-05 4.4476319e-12 0)
(7.558057e-05 4.2593947e-12 0)
(7.4569478e-05 4.0867616e-12 0)
(7.3598441e-05 3.9289465e-12 0)
(7.2663958e-05 3.7856522e-12 0)
(7.1762487e-05 3.6566961e-12 0)
(7.089062e-05 3.5439437e-12 0)
(7.0043907e-05 3.4470025e-12 0)
(6.9219145e-05 3.3777876e-12 0)
(6.840608e-05 3.3189899e-12 0)
(6.7610002e-05 3.367695e-12 0)
(6.6773287e-05 1.3586919e-11 0)
(6.603571e-05 3.6712206e-12 2.5954224e-24)
(6.4978107e-05 9.1869817e-12 0)
(1 9.329278e-10 0)
(0.99997667 2.4465513e-09 0)
(0.99994332 3.4103398e-09 0)
(0.99990648 4.3832074e-09 0)
(0.99986391 5.7458162e-09 0)
(0.9998147 7.4973069e-09 0)
(0.99975823 9.7468895e-09 0)
(0.99969343 1.268778e-08 0)
(0.99961881 1.656168e-08 0)
(0.99953254 2.1685748e-08 0)
(0.99943234 2.8495551e-08 0)
(0.99931531 3.7621707e-08 0)
(0.99917758 4.9929926e-08 0)
(0.99901423 6.6858032e-08 0)
(0.99881748 9.0101303e-08 0)
(0.99857891 1.2408254e-07 0)
(0.9982775 1.7058262e-07 0)
(0.99790509 2.5139505e-07 0)
(0.9973727 3.4729234e-07 0)
(0.99674788 6.0868331e-07 0)
(0.99549896 8.0773405e-07 0)
(0.99437587 2.0055183e-06 0)
(0.98994776 6.825734e-07 1.7040746e-20)
(0.9924388 0.00037133679 -6.6128476e-21)
(0.0094831809 0.00037329638 0)
(0.0037104471 1.2126491e-06 0)
(0.002645025 2.6542587e-07 2.2181049e-22)
(0.0021703932 1.2695071e-07 0)
(0.0018984797 7.7461861e-08 0)
(0.0017106814 5.4716376e-08 0)
(0.001570748 4.1415621e-08 0)
(0.0014602696 3.2875145e-08 0)
(0.0013700506 2.689265e-08 0)
(0.0012944633 2.2521549e-08 0)
(0.0012297795 1.9218141e-08 0)
(0.001173516 1.6638302e-08 0)
(0.001123946 1.4572077e-08 0)
(0.0010798068 1.2886481e-08 0)
(0.0010401428 1.1490688e-08 0)
(0.0010042178 1.0318867e-08 0)
(0.0009714593 9.3227257e-09 0)
(0.0009414128 8.4692766e-09 -3.7552014e-25)
(0.00091369569 7.7297895e-09 -5.5327981e-25)
(0.00088802308 7.0836605e-09 0)
(0.00086413243 6.5170654e-09 0)
(0.00084181739 6.0157311e-09 0)
(0.00082090044 5.5699966e-09 0)
(0.00080123115 5.171567e-09 0)
(0.00078268062 4.8136469e-09 0)
(0.00076513832 4.4906876e-09 0)
(0.00074850791 4.1982088e-09 0)
(0.00073270494 3.9323743e-09 0)
(0.00071765555 3.6899244e-09 0)
(0.00070329443 3.4680823e-09 0)
(0.00068956407 3.2644124e-09 0)
(0.0006764137 3.0769155e-09 0)
(0.00066379755 2.903934e-09 0)
(0.00065167441 2.7439564e-09 0)
(0.00064000742 2.5956477e-09 0)
(0.00062876331 2.4578785e-09 0)
(0.00061791182 2.3296265e-09 0)
(0.00060742578 2.2099537e-09 0)
(0.00059728064 2.0980999e-09 0)
(0.00058745365 1.9934257e-09 0)
(0.00057792387 1.8953078e-09 0)
(0.00056867225 1.8031804e-09 0)
(0.00055968123 1.7165559e-09 0)
(0.00055093463 1.6350019e-09 0)
(0.00054241741 1.5580985e-09 0)
(0.00053411595 1.4854552e-09 0)
(0.00052601771 1.4167791e-09 0)
(0.00051811066 1.3518139e-09 0)
(0.00051038357 1.2902807e-09 0)
(0.00050282611 1.2319294e-09 0)
(0.00049542857 1.1765422e-09 0)
(0.00048818188 1.1239225e-09 0)
(0.00048107745 1.07389e-09 0)
(0.00047410723 1.0262407e-09 0)
(0.00046726408 9.8081795e-10 0)
(0.0004605409 9.3752786e-10 0)
(0.00045393071 8.9623885e-10 0)
(0.00044742716 8.5681245e-10 0)
(0.00044102423 8.1914189e-10 0)
(0.00043471611 7.8312677e-10 0)
(0.00042849731 7.4867487e-10 0)
(0.00042236252 7.1568936e-10 0)
(0.00041630685 6.8407316e-10 0)
(0.00041032571 6.5376498e-10 0)
(0.00040441439 6.2471303e-10 0)
(0.00039856832 5.9684408e-10 0)
(0.00039278323 5.7009253e-10 0)
(0.00038705495 5.4440342e-10 0)
(0.00038137944 5.1972556e-10 0)
(0.0003757527 4.9601074e-10 0)
(0.00037017088 4.7319809e-10 0)
(0.0003646305 4.5124502e-10 0)
(0.00035912785 4.3013e-10 0)
(0.00035365915 4.0981253e-10 0)
(0.00034822085 3.9025109e-10 0)
(0.00034280937 3.7141445e-10 0)
(0.00033742117 3.5327246e-10 0)
(0.00033205265 3.3579546e-10 0)
(0.00032670028 3.1894891e-10 0)
(0.00032136065 3.0270894e-10 0)
(0.00031603012 2.870602e-10 0)
(0.0003107049 2.7197863e-10 0)
(0.00030538124 2.5744073e-10 0)
(0.00030005524 2.4342946e-10 0)
(0.00029472279 2.2992532e-10 0)
(0.00028937977 2.1690722e-10 0)
(0.00028402188 2.0439039e-10 0)
(0.0002786429 1.9227919e-10 0)
(0.00027324253 1.8054722e-10 0)
(0.00026793667 1.6957475e-10 0)
(0.00026288406 1.5968811e-10 0)
(0.00025811809 1.5074686e-10 0)
(0.00025361524 1.4252352e-10 0)
(0.00024935489 1.3497591e-10 0)
(0.00024531611 1.2807589e-10 0)
(0.00024148002 1.2175946e-10 0)
(0.00023782961 1.1597059e-10 0)
(0.00023434944 1.1066072e-10 0)
(0.00023102552 1.0578432e-10 0)
(0.00022784519 1.0130406e-10 0)
(0.00022479673 9.7195048e-11 0)
(0.00022186905 9.3438523e-11 0)
(0.00021905157 9.0027338e-11 0)
(0.00021633363 8.6957009e-11 0)
(0.00021370494 8.4271922e-11 0)
(0.0002111521 8.1962149e-11 0)
(0.00020866544 8.0312062e-11 0)
(0.00020621406 7.8906105e-11 0)
(0.0002038139 8.0063844e-11 0)
(0.00020129131 7.7543376e-11 0)
(0.00019906745 8.7915097e-11 -4.0147306e-24)
(0.00019587873 5.2270315e-11 2.733394e-25)
(1 1.573032e-09 0)
(0.99997658 4.1255439e-09 0)
(0.99994308 5.7512484e-09 0)
(0.99990608 7.3919914e-09 0)
(0.99986332 9.6898544e-09 0)
(0.9998139 1.2643442e-08 0)
(0.99975719 1.6436864e-08 0)
(0.99969211 2.1395876e-08 0)
(0.99961718 2.7927968e-08 0)
(0.99953054 3.6567827e-08 0)
(0.99942992 4.8049731e-08 0)
(0.99931242 6.3436743e-08 0)
(0.99917414 8.4188184e-08 0)
(0.99901015 1.1272774e-07 0)
(0.99881264 1.5191284e-07 0)
(0.99857316 2.091986e-07 0)
(0.99827063 2.8758546e-07 0)
(0.99789687 4.2380784e-07 0)
(0.99736262 5.8544997e-07 0)
(0.99673567 1.0260192e-06 0)
(0.9954827 1.3615284e-06 0)
(0.99435594 3.3803472e-06 0)
(0.9899141 1.1519594e-06 -9.0284133e-21)
(0.99240844 0.0006228748 5.3881652e-55)
(0.015912818 0.0006273806 -5.3874145e-55)
(0.006245272 3.4417166e-06 0)
(0.0044521326 7.7238183e-07 -1.1517433e-22)
(0.003653299 3.7174487e-07 0)
(0.0031955792 2.2684131e-07 0)
(0.0028794622 1.6023215e-07 0)
(0.0026439131 1.2128145e-07 0)
(0.0024579478 9.6270777e-08 0)
(0.0023060848 7.875166e-08 0)
(0.0021788513 6.5951119e-08 0)
(0.0020699718 5.6277335e-08 0)
(0.0019752661 4.8722536e-08 0)
(0.0018918273 4.2671856e-08 0)
(0.0018175301 3.7735824e-08 0)
(0.0017507657 3.3648447e-08 0)
(0.0016902952 3.0216949e-08 0)
(0.0016351547 2.7299929e-08 0)
(0.001584579 2.4800726e-08 0)
(0.0015379245 2.263526e-08 0)
(0.0014947112 2.0743209e-08 0)
(0.0014544974 1.908403e-08 0)
(0.0014169357 1.7615964e-08 0)
(0.0013817274 1.6310713e-08 0)
(0.0013486191 1.5143986e-08 0)
(0.001317394 1.4095884e-08 0)
(0.001287866 1.3150159e-08 0)
(0.0012598729 1.229369e-08 0)
(0.0012332726 1.1515244e-08 0)
(0.0012079407 1.0805276e-08 0)
(0.0011837674 1.0155653e-08 0)
(0.0011606557 9.5592449e-09 0)
(0.0011385204 9.0101961e-09 0)
(0.0011172842 8.5036524e-09 0)
(0.0010968779 8.0351883e-09 0)
(0.0010772394 7.6008944e-09 0)
(0.0010583127 7.1974633e-09 0)
(0.0010400469 6.8219014e-09 0)
(0.0010223962 6.4714622e-09 0)
(0.0010053194 6.1439198e-09 0)
(0.00098877802 5.8374007e-09 0)
(0.00097273695 5.5500808e-09 0)
(0.00095716408 5.2803029e-09 0)
(0.00094202987 5.0266391e-09 0)
(0.00092730707 4.787823e-09 0)
(0.00091297037 4.5626257e-09 0)
(0.00089899686 4.3499033e-09 0)
(0.00088536541 4.1487978e-09 0)
(0.00087205577 3.9585589e-09 0)
(0.00085904905 3.7783701e-09 0)
(0.00084632786 3.6074989e-09 0)
(0.00083387585 3.4453075e-09 0)
(0.00082167776 3.2912201e-09 0)
(0.00080971912 3.1447086e-09 0)
(0.00079798639 3.0051761e-09 0)
(0.00078646754 2.8721638e-09 0)
(0.00077515064 2.7453964e-09 0)
(0.00076402392 2.6244887e-09 0)
(0.00075307672 2.5090354e-09 0)
(0.00074229886 2.3987236e-09 0)
(0.00073168061 2.2932596e-09 0)
(0.0007212127 2.1923731e-09 0)
(0.00071088619 2.0957806e-09 0)
(0.00070069287 2.003198e-09 0)
(0.000690625 1.9144457e-09 0)
(0.00068067465 1.829372e-09 0)
(0.00067083412 1.7477624e-09 0)
(0.00066109625 1.669425e-09 0)
(0.000651454 1.5941987e-09 0)
(0.00064190057 1.5219337e-09 0)
(0.00063242924 1.4524888e-09 0)
(0.00062303351 1.3856857e-09 0)
(0.00061370753 1.3213998e-09 0)
(0.00060444508 1.2595679e-09 0)
(0.00059523977 1.2000715e-09 0)
(0.00058608562 1.1427891e-09 0)
(0.00057697661 1.087629e-09 0)
(0.00056790679 1.0345031e-09 0)
(0.0005588701 9.8332456e-10 0)
(0.00054986058 9.3399218e-10 0)
(0.00054087252 8.8643605e-10 0)
(0.00053189977 8.4061125e-10 0)
(0.00052293595 7.9644731e-10 0)
(0.00051397475 7.5387541e-10 0)
(0.00050500961 7.1284565e-10 0)
(0.00049603363 6.7330095e-10 0)
(0.00048703984 6.3517954e-10 0)
(0.00047802103 5.98526e-10 0)
(0.00046896671 5.6306031e-10 0)
(0.00045987636 5.2870554e-10 0)
(0.0004509451 4.9657478e-10 0)
(0.00044244012 4.6762319e-10 0)
(0.00043441764 4.4144014e-10 0)
(0.00042683806 4.1735958e-10 0)
(0.00041966666 3.9525786e-10 0)
(0.00041286821 3.7505243e-10 0)
(0.00040641093 3.5655591e-10 0)
(0.00040026621 3.3960424e-10 0)
(0.00039440806 3.2405521e-10 0)
(0.00038881289 3.097755e-10 0)
(0.00038345942 2.9665578e-10 0)
(0.00037832795 2.8462319e-10 0)
(0.00037339976 2.7362276e-10 0)
(0.00036865708 2.6363355e-10 0)
(0.00036408194 2.5464243e-10 0)
(0.00035965704 2.4677934e-10 0)
(0.00035535982 2.4001516e-10 0)
(0.00035117401 2.3518255e-10 0)
(0.00034704761 2.3106452e-10 0)
(0.00034300739 2.3445309e-10 0)
(0.00033876124 2.2566182e-10 0)
(0.00033501768 2.5756171e-10 0)
(0.00032965001 1.5194724e-10 0)
(1 2.2395695e-09 8.7497084e-25)
(0.99997647 5.8744308e-09 0)
(0.99994279 8.1901732e-09 0)
(0.99990559 1.0526852e-08 0)
(0.9998626 1.3799061e-08 0)
(0.99981291 1.8004909e-08 0)
(0.9997559 2.3406467e-08 0)
(0.99969048 3.0467486e-08 0)
(0.99961515 3.9768053e-08 0)
(0.99952807 5.2069291e-08 0)
(0.99942694 6.8416396e-08 0)
(0.99930885 9.032252e-08 0)
(0.99916989 1.1986474e-07 0)
(0.99900509 1.6049267e-07 0)
(0.99880664 2.1627286e-07 0)
(0.99856605 2.9781572e-07 0)
(0.99826214 4.0938906e-07 0)
(0.99788672 6.0327337e-07 0)
(0.99735016 8.3332262e-07 0)
(0.99672058 1.4603004e-06 0)
(0.99546263 1.9377854e-06 0)
(0.99433134 4.8107211e-06 0)
(0.98987262 1.6416577e-06 0)
(0.99237101 0.00088188134 -2.811074e-55)
(0.022539008 0.00089015068 2.8106849e-55)
(0.0088729738 7.1042353e-06 0)
(0.0063255623 1.595253e-06 0)
(0.0051906849 7.6662051e-07 0)
(0.0045403129 4.678212e-07 0)
(0.0040911563 3.3044945e-07 0)
(0.0037564719 2.501201e-07 0)
(0.0034922429 1.9853913e-07 0)
(0.0032764685 1.6240929e-07 0)
(0.003095689 1.3601038e-07 0)
(0.0029409885 1.1605986e-07 0)
(0.0028064271 1.0047949e-07 0)
(0.0026878745 8.8001177e-08 0)
(0.0025823104 7.7821636e-08 0)
(0.0024874495 6.9392285e-08 0)
(0.0024015311 6.2315561e-08 0)
(0.0023231856 5.629988e-08 0)
(0.002251326 5.1145793e-08 0)
(0.0021850379 4.668e-08 0)
(0.0021236389 4.2778121e-08 0)
(0.0020665018 3.9356429e-08 0)
(0.0020131329 3.6328883e-08 0)
(0.0019631077 3.3637105e-08 0)
(0.0019160663 3.1231002e-08 0)
(0.0018717005 2.9069537e-08 0)
(0.001829746 2.7119202e-08 0)
(0.0017899724 2.5352935e-08 0)
(0.0017521776 2.3747572e-08 0)
(0.001716185 2.2283429e-08 0)
(0.0016818385 2.0943734e-08 0)
(0.0016490006 1.9713782e-08 0)
(0.0016175497 1.8581497e-08 0)
(0.0015873764 1.7536869e-08 0)
(0.0015583822 1.6570772e-08 0)
(0.0015304789 1.5675142e-08 0)
(0.001503587 1.4843159e-08 0)
(0.0014776341 1.406865e-08 0)
(0.0014525551 1.334595e-08 0)
(0.0014282915 1.267047e-08 0)
(0.0014047887 1.2038346e-08 0)
(0.0013819967 1.1445815e-08 0)
(0.0013598699 1.088946e-08 0)
(0.0013383664 1.0366337e-08 0)
(0.0013174475 9.873833e-09 0)
(0.0012970771 9.409415e-09 0)
(0.0012772228 8.9707239e-09 0)
(0.0012578544 8.5559898e-09 0)
(0.0012389433 8.1636654e-09 0)
(0.0012204626 7.7920668e-09 0)
(0.0012023876 7.4396836e-09 0)
(0.0011846951 7.1052004e-09 0)
(0.0011673633 6.7874297e-09 0)
(0.0011503717 6.4852825e-09 0)
(0.0011337011 6.1975282e-09 0)
(0.0011173344 5.9232202e-09 0)
(0.0011012547 5.6617906e-09 0)
(0.0010854451 5.4124454e-09 0)
(0.0010698906 5.1743485e-09 0)
(0.0010545767 4.9468549e-09 0)
(0.0010394896 4.7293586e-09 0)
(0.0010246161 4.5213024e-09 0)
(0.0010099436 4.3221016e-09 0)
(0.0009954602 4.1311703e-09 0)
(0.00098115509 3.9481381e-09 0)
(0.00096701695 3.7726921e-09 0)
(0.00095303486 3.6043902e-09 0)
(0.00093919862 3.4428362e-09 0)
(0.00092549824 3.2876983e-09 0)
(0.00091192406 3.1386674e-09 0)
(0.00089846652 2.9954521e-09 0)
(0.00088511641 2.8576852e-09 0)
(0.0008718654 2.7251094e-09 0)
(0.00085870465 2.5975944e-09 0)
(0.00084562507 2.4748958e-09 0)
(0.00083261819 2.356763e-09 0)
(0.00081967546 2.2430072e-09 0)
(0.00080678839 2.1334464e-09 0)
(0.0007939484 2.0279015e-09 0)
(0.000781147 1.926164e-09 0)
(0.0007683761 1.8280896e-09 0)
(0.00075562695 1.7335857e-09 0)
(0.00074289048 1.642507e-09 0)
(0.00073015773 1.5547115e-09 0)
(0.00071741938 1.4700963e-09 0)
(0.00070466562 1.3885438e-09 0)
(0.00069188654 1.3099265e-09 0)
(0.00067907191 1.2343364e-09 0)
(0.00066620682 1.161196e-09 0)
(0.00065329052 1.0903472e-09 0)
(0.00064060025 1.0240849e-09 0)
(0.00062851565 9.6437829e-10 0)
(0.00061711663 9.1038133e-10 0)
(0.00060634688 8.6072095e-10 0)
(0.00059615709 8.1514109e-10 0)
(0.00058649722 7.7347204e-10 0)
(0.00057732208 7.3532718e-10 0)
(0.00056859104 7.0036818e-10 0)
(0.00056026716 6.6830179e-10 0)
(0.00055231694 6.3885304e-10 0)
(0.00054471015 6.1179647e-10 0)
(0.00053741878 5.8698183e-10 0)
(0.00053041624 5.6429572e-10 0)
(0.00052367728 5.4369499e-10 0)
(0.00051717638 5.2515251e-10 0)
(0.00051088896 5.0893621e-10 0)
(0.00050478294 4.94986e-10 0)
(0.00049883523 4.8501879e-10 0)
(0.00049297195 4.7652515e-10 0)
(0.00048723111 4.8350972e-10 0)
(0.00048119784 4.6610793e-10 0)
(0.00047587832 5.3129444e-10 0)
(0.00046825118 3.136751e-10 0)
(1 2.9433289e-09 0)
(0.99997634 7.7216534e-09 0)
(0.99994244 1.0766961e-08 0)
(0.999905 1.3839038e-08 0)
(0.99986172 1.8140583e-08 0)
(0.99981171 2.3669262e-08 0)
(0.99975433 3.0769424e-08 0)
(0.99968849 4.0050487e-08 0)
(0.99961269 5.2274729e-08 0)
(0.99952507 6.8442256e-08 0)
(0.99942332 8.9926375e-08 0)
(0.99930451 1.1871518e-07 0)
(0.99916473 1.575375e-07 0)
(0.99899897 2.1092539e-07 0)
(0.99879938 2.8422068e-07 0)
(0.99855743 3.9136236e-07 0)
(0.99825185 5.3795317e-07 0)
(0.99787441 7.9267244e-07 0)
(0.99733507 1.094881e-06 0)
(0.99670231 1.9184589e-06 0)
(0.99543833 2.5456931e-06 0)
(0.99430157 6.3193906e-06 0)
(0.9898225 2.1598125e-06 0)
(0.99232572 0.0011520201 0)
(0.029455529 0.0011653554 0)
(0.011632676 1.2349816e-05 0)
(0.008293221 2.7670655e-06 0)
(0.0068054589 1.3293834e-06 0)
(0.0059527147 8.1128674e-07 0)
(0.0053638135 5.7305542e-07 0)
(0.0049249955 4.3375008e-07 0)
(0.0045785588 3.4429817e-07 0)
(0.0042956521 2.8164309e-07 0)
(0.0040586286 2.3586271e-07 0)
(0.0038557983 2.0126493e-07 0)
(0.0036793732 1.7424595e-07 0)
(0.0035239377 1.5260659e-07 0)
(0.0033855317 1.3495372e-07 0)
(0.0032611587 1.2033597e-07 0)
(0.0031485103 1.0806391e-07 0)
(0.0030457909 9.7631921e-08 0)
(0.0029515748 8.8693938e-08 0)
(0.0028646642 8.0949617e-08 0)
(0.0027841632 7.4183308e-08 0)
(0.0027092501 6.8249602e-08 0)
(0.0026392774 6.2999429e-08 0)
(0.0025736886 5.8331524e-08 0)
(0.002512012 5.4159018e-08 0)
(0.0024538433 5.041075e-08 0)
(0.002398836 4.7028609e-08 0)
(0.002346688 4.3965666e-08 0)
(0.0022971345 4.1181752e-08 0)
(0.0022499439 3.8642729e-08 0)
(0.0022049114 3.6319517e-08 0)
(0.0021618568 3.4186614e-08 0)
(0.0021206208 3.2223081e-08 0)
(0.0020810598 3.0411554e-08 0)
(0.0020430447 2.8736208e-08 0)
(0.0020064599 2.7183062e-08 0)
(0.0019712011 2.5740289e-08 0)
(0.0019371734 2.4397183e-08 0)
(0.0019042916 2.3143922e-08 0)
(0.0018724787 2.1972546e-08 0)
(0.0018416634 2.0876353e-08 0)
(0.00181178 1.984882e-08 0)
(0.0017827688 1.8884022e-08 0)
(0.0017545748 1.7976852e-08 0)
(0.0017271472 1.712278e-08 0)
(0.0017004388 1.6317412e-08 0)
(0.0016744069 1.5556658e-08 0)
(0.0016490123 1.4837449e-08 0)
(0.0016242172 1.4157101e-08 0)
(0.0015999863 1.3512694e-08 0)
(0.0015762873 1.290161e-08 0)
(0.0015530898 1.2321566e-08 0)
(0.0015303653 1.1770504e-08 0)
(0.0015080869 1.1246535e-08 0)
(0.0014862293 1.0747526e-08 0)
(0.0014647701 1.0271834e-08 0)
(0.0014436871 9.8184754e-09 0)
(0.0014229584 9.3860724e-09 0)
(0.0014025642 8.9731756e-09 0)
(0.0013824853 8.5786665e-09 0)
(0.0013627038 8.2014938e-09 0)
(0.0013432024 7.8406917e-09 0)
(0.0013239644 7.4952462e-09 0)
(0.0013049745 7.1641413e-09 0)
(0.0012862183 6.8467344e-09 0)
(0.001267681 6.542483e-09 0)
(0.0012493482 6.2506205e-09 0)
(0.0012312068 5.9704599e-09 0)
(0.0012132434 5.7014258e-09 0)
(0.0011954455 5.4429819e-09 0)
(0.0011778006 5.1946233e-09 0)
(0.0011602964 4.955713e-09 0)
(0.0011429223 4.725805e-09 0)
(0.0011256664 4.504673e-09 0)
(0.001108517 4.2918934e-09 0)
(0.0010914629 4.0870316e-09 0)
(0.0010744929 3.8897602e-09 0)
(0.0010575958 3.6997636e-09 0)
(0.0010407605 3.5167312e-09 0)
(0.0010239758 3.3403014e-09 0)
(0.0010072311 3.1702242e-09 0)
(0.00099051482 3.0063386e-09 0)
(0.00097381522 2.8483928e-09 0)
(0.00095712048 2.6961408e-09 0)
(0.0009404184 2.5494039e-09 0)
(0.00092369609 2.4079782e-09 0)
(0.00090694058 2.2716428e-09 0)
(0.00089013845 2.1405569e-09 0)
(0.00087327013 2.0137195e-09 0)
(0.00085633467 1.8908571e-09 0)
(0.00083969552 1.7759483e-09 0)
(0.00082385049 1.6724073e-09 0)
(0.00080890433 1.5787682e-09 0)
(0.00079478324 1.4926501e-09 0)
(0.00078142253 1.4136083e-09 0)
(0.00076875661 1.3413482e-09 0)
(0.00075672622 1.2751995e-09 0)
(0.00074527811 1.2145755e-09 0)
(0.00073436383 1.1589675e-09 0)
(0.00072393948 1.1078989e-09 0)
(0.0007139654 1.0609787e-09 0)
(0.00070440487 1.0179462e-09 0)
(0.00069522304 9.7860486e-10 0)
(0.0006863868 9.4287982e-10 0)
(0.00067786269 9.1072401e-10 0)
(0.00066961848 8.8260197e-10 0)
(0.00066161212 8.5840954e-10 0)
(0.00065381332 8.4112343e-10 0)
(0.00064612525 8.2639318e-10 0)
(0.00063859768 8.3849904e-10 0)
(0.00063068692 8.0858578e-10 0)
(0.00062371148 9.215052e-10 -5.1718691e-24)
(0.00061371044 5.4397885e-10 3.5214636e-25)
(1 3.6959958e-09 0)
(0.99997617 9.6981017e-09 0)
(0.99994202 1.3524958e-08 0)
(0.99990428 1.7384313e-08 0)
(0.99986067 2.278747e-08 0)
(0.99981027 2.9731731e-08 0)
(0.99975246 3.8649391e-08 0)
(0.99968612 5.030562e-08 0)
(0.99960975 6.5657481e-08 0)
(0.99952148 8.5960548e-08 0)
(0.99941898 1.1293882e-07 0)
(0.99929932 1.4908796e-07 0)
(0.99915855 1.9783328e-07 0)
(0.99899163 2.6486334e-07 0)
(0.99879068 3.5688222e-07 0)
(0.99854712 4.9138506e-07 0)
(0.99823954 6.7539814e-07 0)
(0.9978597 9.9511931e-07 0)
(0.99731702 1.3744143e-06 0)
(0.99668047 2.4079733e-06 0)
(0.9954093 3.1951639e-06 0)
(0.99426601 7.93086e-06 0)
(0.9897627 2.7154269e-06 0)
(0.99227166 0.0014370026 0)
(0.036758347 0.0014569934 0)
(0.014565459 1.9357431e-05 0)
(0.010384418 4.356161e-06 0)
(0.0085216841 2.0929756e-06 0)
(0.0074538279 1.2773668e-06 0)
(0.0067163925 9.0226597e-07 0)
(0.0061668889 6.8293156e-07 0)
(0.0057330741 5.4208826e-07 0)
(0.005378813 4.4343918e-07 0)
(0.0050820079 3.7135851e-07 0)
(0.0048280212 3.1688459e-07 0)
(0.0046070999 2.7434369e-07 0)
(0.0044124622 2.4027313e-07 0)
(0.0042391491 2.1247927e-07 0)
(0.0040834082 1.8946415e-07 0)
(0.003942349 1.7014226e-07 0)
(0.0038137229 1.5371763e-07 0)
(0.0036957444 1.3964503e-07 1.0415893e-24)
(0.0035869144 1.2745191e-07 0)
(0.00348611 1.1679881e-07 -6.7693194e-35)
(0.0033923027 1.0745642e-07 0)
(0.003304682 9.9190269e-08 0)
(0.0032225507 9.1840875e-08 0)
(0.0031453181 8.5271462e-08 0)
(0.0030724782 7.9369992e-08 0)
(0.0030035969 7.4044972e-08 0)
(0.0029382961 6.9222513e-08 0)
(0.002876244 6.483937e-08 0)
(0.0028171508 6.0841795e-08 0)
(0.00276076 5.7184003e-08 0)
(0.0027068458 5.3825843e-08 0)
(0.0026552088 5.0734347e-08 0)
(0.0026056694 4.7882177e-08 0)
(0.0025580656 4.5244417e-08 0)
(0.0025122529 4.2799054e-08 0)
(0.0024681006 4.0527468e-08 0)
(0.0024254899 3.84128e-08 0)
(0.0023843141 3.6439591e-08 0)
(0.0023444767 3.4595305e-08 0)
(0.0023058886 3.2869391e-08 0)
(0.0022684674 3.1251579e-08 0)
(0.0022321383 2.9732539e-08 0)
(0.0021968325 2.8304231e-08 0)
(0.0021624863 2.6959524e-08 0)
(0.0021290408 2.5691499e-08 0)
(0.0020964425 2.4493717e-08 0)
(0.0020646421 2.3361345e-08 0)
(0.0020335924 2.2290158e-08 0)
(0.0020032492 2.1275558e-08 0)
(0.0019735722 2.0313423e-08 0)
(0.001944523 1.940016e-08 0)
(0.0019160661 1.8532527e-08 0)
(0.0018881678 1.7707552e-08 0)
(0.0018607965 1.6921874e-08 0)
(0.0018339241 1.6172909e-08 0)
(0.0018075227 1.5459106e-08 0)
(0.001781565 1.4778296e-08 0)
(0.0017560261 1.4128199e-08 0)
(0.0017308821 1.3507052e-08 0)
(0.0017061105 1.2913201e-08 0)
(0.0016816896 1.2345124e-08 0)
(0.0016575985 1.1801226e-08 0)
(0.0016338181 1.1279907e-08 0)
(0.0016103304 1.0780155e-08 0)
(0.0015871167 1.0301115e-08 0)
(0.0015641593 9.8415815e-09 0)
(0.0015414413 9.4004723e-09 0)
(0.0015189464 8.9768812e-09 0)
(0.0014966586 8.5699642e-09 0)
(0.0014745624 8.1789262e-09 0)
(0.0014526425 7.8027644e-09 0)
(0.0014308853 7.4407764e-09 0)
(0.0014092763 7.092606e-09 0)
(0.0013878005 6.7575863e-09 0)
(0.0013664441 6.4350329e-09 0)
(0.0013451931 6.1244304e-09 0)
(0.0013240333 5.8252821e-09 0)
(0.0013029509 5.5370986e-09 0)
(0.0012819318 5.259311e-09 0)
(0.0012609628 4.9915254e-09 0)
(0.0012400295 4.7334885e-09 0)
(0.001219117 4.4848037e-09 0)
(0.0011982105 4.2450836e-09 0)
(0.0011772948 4.0140473e-09 0)
(0.0011563538 3.7913733e-09 0)
(0.0011353713 3.5767141e-09 0)
(0.0011143303 3.3703203e-09 0)
(0.0010932064 3.170616e-09 0)
(0.0010719983 2.9771716e-09 0)
(0.0010511614 2.7962505e-09 0)
(0.0010313188 2.6332268e-09 0)
(0.0010126018 2.4857942e-09 0)
(0.00099491799 2.3502041e-09 0)
(0.00097818635 2.2257561e-09 0)
(0.00096232472 2.1119852e-09 0)
(0.00094725893 2.0078362e-09 0)
(0.00093292228 1.9123855e-09 0)
(0.0009192541 1.8248324e-09 0)
(0.00090619943 1.7444262e-09 0)
(0.0008937086 1.6705514e-09 0)
(0.00088173563 1.6027977e-09 0)
(0.00087023688 1.5408555e-09 0)
(0.00085917091 1.484607e-09 0)
(0.00084849579 1.4339781e-09 0)
(0.00083817115 1.3897001e-09 0)
(0.00082814438 1.351609e-09 0)
(0.00081837752 1.3243905e-09 0)
(0.00080874935 1.3011974e-09 0)
(0.00079932213 1.3202472e-09 0)
(0.00078941532 1.2731378e-09 0)
(0.00078067908 1.4510962e-09 0)
(0.00076815408 8.5633897e-10 -2.0098413e-25)
(1 4.5103718e-09 0)
(0.99997598 1.18377e-08 0)
(0.99994152 1.6511849e-08 0)
(0.99990344 2.122403e-08 0)
(0.99985943 2.7820084e-08 0)
(0.99980857 3.6297059e-08 0)
(0.99975023 4.7182339e-08 0)
(0.9996833 6.1409569e-08 0)
(0.99960626 8.0146486e-08 0)
(0.99951722 1.0492492e-07 0)
(0.99941384 1.3784803e-07 0)
(0.99929317 1.819602e-07 0)
(0.99915122 2.4143951e-07 0)
(0.99898294 3.2322452e-07 0)
(0.99878037 4.3549102e-07 0)
(0.99853489 5.9957706e-07 0)
(0.99822495 8.2404388e-07 0)
(0.99784226 1.2140185e-06 0)
(0.99729565 1.6766082e-06 0)
(0.9966546 2.9370029e-06 0)
(0.99537494 3.8970116e-06 0)
(0.99422394 9.6718207e-06 0)
(0.98969204 3.3184485e-06 0)
(0.99220777 0.0017406469 0)
(0.044546668 0.0017692205 0)
(0.01771497 2.8592427e-05 0)
(0.012630303 6.4585722e-06 0)
(0.010364938 3.1033353e-06 0)
(0.0090660182 1.8941319e-06 0)
(0.0081690432 1.3379058e-06 0)
(0.0075006502 1.0126702e-06 0)
(0.0069729832 8.0381935e-07 0)
(0.0065420807 6.5754012e-07 0)
(0.0061810646 5.5065652e-07 0)
(0.0058721314 4.6988053e-07 0)
(0.0056034176 4.0679971e-07 0)
(0.0053666735 3.5627927e-07 0)
(0.0051558673 3.1506618e-07 0)
(0.0049664347 2.8093911e-07 0)
(0.0047948598 2.5228844e-07 0)
(0.0046384077 2.2793409e-07 0)
(0.0044949061 2.0706698e-07 0)
(0.0043625327 1.8898693e-07 0)
(0.0042399203 1.7319074e-07 7.3020873e-35)
(0.004125819 1.5933774e-07 0)
(0.0040192423 1.4708069e-07 0)
(0.0039193426 1.36183e-07 0)
(0.0038254012 1.2644187e-07 0)
(0.0037368027 1.1769117e-07 0)
(0.0036530192 1.0979523e-07 0)
(0.0035735905 1.0264448e-07 0)
(0.0034981135 9.6145142e-08 0)
(0.0034262353 9.0217525e-08 0)
(0.0033576441 8.4793736e-08 0)
(0.0032920652 7.9814243e-08 0)
(0.0032292561 7.5230159e-08 0)
(0.0031689983 7.1000943e-08 0)
(0.003111095 6.7089653e-08 0)
(0.0030553701 6.3463651e-08 0)
(0.0030016648 6.0095321e-08 0)
(0.0029498346 5.6959671e-08 0)
(0.0028997496 5.4033776e-08 0)
(0.0028512926 5.1299048e-08 0)
(0.0028043551 4.873984e-08 0)
(0.002758837 4.6340925e-08 0)
(0.0027146472 4.4088469e-08 0)
(0.0026717021 4.1970551e-08 0)
(0.0026299242 3.9976595e-08 0)
(0.0025892418 3.8096344e-08 0)
(0.0025495899 3.632025e-08 0)
(0.0025109084 3.4641146e-08 0)
(0.0024731401 3.3052766e-08 0)
(0.0024362312 3.1548295e-08 0)
(0.0024001324 3.0121617e-08 0)
(0.0023647974 2.8767407e-08 0)
(0.0023301828 2.7480859e-08 0)
(0.0022962476 2.6257561e-08 0)
(0.0022629534 2.5092535e-08 0)
(0.002230266 2.3981949e-08 0)
(0.0021981516 2.2923499e-08 0)
(0.0021665768 2.1913973e-08 0)
(0.0021355114 2.0949986e-08 0)
(0.0021049264 2.0028928e-08 0)
(0.0020747943 1.9148344e-08 0)
(0.0020450887 1.830598e-08 0)
(0.0020157844 1.7499467e-08 0)
(0.0019868579 1.6726435e-08 0)
(0.0019582874 1.5985383e-08 0)
(0.0019300503 1.5275043e-08 0)
(0.0019021248 1.4593627e-08 0)
(0.0018744906 1.3939532e-08 0)
(0.0018471276 1.3311413e-08 0)
(0.0018200167 1.2708018e-08 0)
(0.0017931387 1.2128169e-08 0)
(0.0017664753 1.1570379e-08 0)
(0.0017400097 1.1033607e-08 0)
(0.0017137243 1.0517323e-08 0)
(0.001687601 1.0020539e-08 0)
(0.0016616229 9.5422415e-09 0)
(0.0016357729 9.0816648e-09 0)
(0.001610034 8.6380726e-09 0)
(0.0015843891 8.2107397e-09 0)
(0.0015588213 7.7988223e-09 0)
(0.0015333143 7.4017362e-09 0)
(0.0015078507 7.0191058e-09 0)
(0.0014824124 6.6503432e-09 0)
(0.0014569815 6.294874e-09 0)
(0.0014315394 5.9522813e-09 0)
(0.0014060664 5.622089e-09 0)
(0.0013805428 5.3037816e-09 0)
(0.0013549482 4.9977307e-09 0)
(0.0013292526 4.7015999e-09 0)
(0.0013034547 4.4147538e-09 0)
(0.001278108 4.1464783e-09 0)
(0.0012539709 3.9047406e-09 0)
(0.001231203 3.6861234e-09 0)
(0.0012096917 3.4850686e-09 0)
(0.0011893386 3.3005354e-09 0)
(0.0011700438 3.1318341e-09 0)