# Probe 0 (1.95 0 0)
# Probe 1 (1.95 1e-10 0)
# Probe 2 (1.95 1e-07 0)
#         Probe               0               1               2
#          Time
              1   0.00014555283   0.00014555283   0.00014555283
              2   9.3787275e-05   9.3787275e-05   9.3787275e-05
              3   0.00012730781   0.00012730781   0.00012730781
              4   2.4057724e-05   2.4057724e-05   2.4057724e-05
              5   0.00010392268   0.00010392268   0.00010392268
              6   0.00029617161   0.00029617161   0.00029617161
              7   0.00043891464   0.00043891464   0.00043891464
              8   0.00052459681   0.00052459681   0.00052459681
              9   0.00055999338   0.00055999338   0.00055999338
             10   0.00057339521   0.00057339521   0.00057339521
