# Probe 0 (1.95 0 0)
# Probe 1 (1.95 1e-10 0)
# Probe 2 (1.95 1e-07 0)
#         Probe               0               1               2
#          Time
              1               (0.00077366917 2.4325451e-15 0)               (0.00077366917 2.4325451e-15 0)               (0.00077366917 2.4325451e-15 0)
              2               (0.00020721122 1.0134449e-14 0)               (0.00020721122 1.0134449e-14 0)               (0.00020721122 1.0134449e-14 0)
              3               (0.00013726865 8.5548725e-13 0)               (0.00013726865 8.5548725e-13 0)               (0.00013726865 8.5548725e-13 0)
              4               (0.00014493858 3.5566218e-10 0)               (0.00014493858 3.5566218e-10 0)               (0.00014493858 3.5566218e-10 0)
              5               (0.00013045744 1.51763e-09 0)               (0.00013045744 1.51763e-09 0)               (0.00013045744 1.51763e-09 0)
              6               (0.00011982653 2.9702508e-09 0)               (0.00011982653 2.9702508e-09 0)               (0.00011982653 2.9702508e-09 0)
              7               (0.00011509051 4.05468e-09 0)               (0.00011509051 4.05468e-09 0)               (0.00011509051 4.05468e-09 0)
              8               (0.0001132437 4.735536e-09 0)               (0.0001132437 4.735536e-09 0)               (0.0001132437 4.735536e-09 0)
              9               (0.00011260061 5.0210583e-09 0)               (0.00011260061 5.0210583e-09 0)               (0.00011260061 5.0210583e-09 0)
             10               (0.00011240036 5.1291347e-09 0)               (0.00011240036 5.1291347e-09 0)               (0.00011240036 5.1291347e-09 0)
