# Probe 0 (1.95 0 0)
# Probe 1 (1.95 1e-10 0)
# Probe 2 (1.95 1e-07 0)
#         Probe               0               1               2
#          Time
              1               (0 0 0)               (0 0 0)               (0 0 0)
              2               (0 0 0)               (0 0 0)               (0 0 0)
              3               (0 0 0)               (0 0 0)               (0 0 0)
              4               (0 0 0)               (0 0 0)               (0 0 0)
              5               (0 0 0)               (0 0 0)               (0 0 0)
              6               (0 0 0)               (0 0 0)               (0 0 0)
              7               (0 0 0)               (0 0 0)               (0 0 0)
              8               (0 0 0)               (0 0 0)               (0 0 0)
              9               (0 0 0)               (0 0 0)               (0 0 0)
             10               (0 0 0)               (0 0 0)               (0 0 0)
