/*--------------------------------*- C++ -*----------------------------------*\
| =========                 |                                                 |
| \\      /  F ield         | OpenFOAM: The Open Source CFD Toolbox           |
|  \\    /   O peration     | Version:  2206                                  |
|   \\  /    A nd           | Website:  www.openfoam.com                      |
|    \\/     M anipulation  |                                                 |
\*---------------------------------------------------------------------------*/
FoamFile
{
    version     2.0;
    format      ascii;
    arch        "LSB;label=32;scalar=64";
    class       volScalarField;
    location    "400";
    object      k;
}
// * * * * * * * * * * * * * * * * * * * * * * * * * * * * * * * * * * * * * //

dimensions      [0 2 -2 0 0 0 0];

internalField   nonuniform List<scalar> 
7480
(
0.011444982
0.014109246
0.011690835
0.0076597627
0.0045418061
0.0027811807
0.0019369711
0.0015258595
0.0012980592
0.0011497499
0.0010351912
0.00093694251
0.00085134645
0.00077728895
0.00071307253
0.00065713453
0.0006082723
0.00056535111
0.00052717192
0.00049295826
0.00046223979
0.00043450768
0.00040929502
0.00038630709
0.00036531058
0.00034605322
0.00032831094
0.00031194116
0.00029683109
0.00028285186
0.00026989121
0.00025787588
0.00024674146
0.00023641604
0.00022683928
0.00021797017
0.00020977131
0.00020220614
0.00019524983
0.00018888995
0.00018311611
0.00017791753
0.00017329451
0.00016924628
0.00016577913
0.00016298173
0.00016077974
0.00015928885
0.00015849818
0.00015838641
0.00015893042
0.00016010092
0.00016183635
0.0001640242
0.00016655436
0.00016935088
0.00017224643
0.00017499223
0.00017735207
0.00017913322
0.00018033179
0.00018095359
0.00018105338
0.00018070767
0.00018001319
0.00017905812
0.00017792023
0.00017666167
0.00017532706
0.0001739495
0.00017255415
0.00017115587
0.00016976411
0.00016838884
0.00016703256
0.00016569668
0.00016438172
0.00016303335
0.00016165627
0.0001602668
0.0001588715
0.00015747368
0.00015606794
0.0001546522
0.00015322605
0.00015178921
0.00015034398
0.00014889095
0.00014743342
0.00014597245
0.00014451029
0.00014304792
0.0001415886
0.00014012419
0.00013867887
0.00013716492
0.00013584157
0.000133943
0.00013287305
0.00012997191
0.0014157162
0.0025664813
0.0028347611
0.0024741297
0.0020071963
0.0015608824
0.0011995111
0.00093128195
0.00073508021
0.00059090239
0.00048469947
0.00040596184
0.00034685394
0.00030173237
0.00026653262
0.00023842034
0.00021549024
0.00019643181
0.00018031651
0.00016651409
0.00015459911
0.00014424897
0.00013520941
0.00012728978
0.00012020853
0.00011382581
0.00010805595
0.00010284832
9.8169561e-05
9.3990544e-05
9.0288366e-05
8.7049103e-05
8.4262705e-05
8.1919995e-05
8.0015746e-05
7.8550117e-05
7.752738e-05
7.6959132e-05
7.6868574e-05
7.729144e-05
7.8274416e-05
7.9875523e-05
8.2166993e-05
8.5233769e-05
8.918246e-05
9.4122999e-05
0.00010013436
0.000107285
0.00011559444
0.00012505426
0.0001356314
0.00014732996
0.00015988758
0.00017300753
0.00018640171
0.00019963942
0.00021208157
0.00022314475
0.00023247075
0.00024000508
0.00024589704
0.00025040643
0.00025379658
0.0002561608
0.00025771963
0.00025867222
0.00025917621
0.00025934818
0.00025927335
0.00025901376
0.00025861245
0.00025809599
0.00025748818
0.0002568074
0.00025606058
0.00025524876
0.00025435226
0.00025316579
0.0002517757
0.00025025265
0.0002486194
0.00024688246
0.00024504385
0.00024311066
0.00024108962
0.00023899074
0.00023682407
0.00023459964
0.00023232848
0.00023001956
0.0002276819
0.0002253235
0.00022295218
0.00022057262
0.00021818874
0.00021579898
0.00021344026
0.00021076769
0.00020885128
0.00020445625
0.00021000154
0.0005571868
0.00084135389
0.00095103509
0.00092898185
0.00084359306
0.0007562212
0.00069802643
0.00065929977
0.00062432565
0.00059310737
0.00056404572
0.00053575915
0.00050883355
0.00048353087
0.00045987497
0.00043792618
0.00041770115
0.00039920323
0.00038244134
0.00036740439
0.00035404985
0.00034233014
0.00033217991
0.00032244508
0.00031325483
0.00030472395
0.00029698191
0.00029015606
0.00028436491
0.00027972706
0.00027635987
0.00027437255
0.0002738706
0.00027496446
0.00027776961
0.00028241331
0.00028906346
0.00029794573
0.0003093461
0.00032360953
0.00034114596
0.00036243725
0.00038803582
0.00041861112
0.00045474581
0.00049693022
0.00054539736
0.00060015905
0.00066105512
0.00072754712
0.00079920401
0.00087481822
0.00095266546
0.0010310654
0.0011074722
0.0011784161
0.0012409646
0.0012935689
0.0013362422
0.0013699708
0.0013963185
0.0014160993
0.0014304175
0.0014405572
0.0014475617
0.0014522332
0.0014551559
0.0014567553
0.0014573397
0.0014571196
0.0014562244
0.0014547782
0.001452873
0.0014505427
0.0014477882
0.0014444932
0.0014394768
0.0014333022
0.0014263559
0.0014187507
0.0014105174
0.0014016734
0.0013922615
0.0013823215
0.0013719114
0.0013610864
0.0013499038
0.0013384235
0.0013266966
0.0013147726
0.0013026976
0.0012905135
0.0012782578
0.0012659245
0.0012536106
0.0012412112
0.001227662
0.001217415
0.0011948891
3.6611741e-05
0.00011640824
0.00022887632
0.00032889017
0.00038968403
0.00041113879
0.00040817887
0.00039503574
0.00038062867
0.000369766
0.00036653849
0.00037466878
0.00038615368
0.00039596476
0.00040414265
0.00041042503
0.00041541911
0.00041962485
0.00042336111
0.000426888
0.00043042177
0.00043415008
0.00043822831
0.00044276357
0.00044759401
0.00045253429
0.00045763205
0.00046310073
0.00046921778
0.00047628442
0.00048461907
0.00049455383
0.00050642893
0.0005205948
0.00053741628
0.00055727018
0.00058057282
0.00060785525
0.0006397768
0.0006771141
0.00072075231
0.00077168891
0.00083103845
0.00090002649
0.00098005118
0.0010721057
0.0011767131
0.0012938368
0.0014229916
0.0015632865
0.001713271
0.0018698753
0.0020312287
0.0021937735
0.0023542027
0.0025071533
0.0026461946
0.0027669162
0.0028678625
0.0029500429
0.0030159536
0.0030680555
0.003107956
0.003138411
0.0031616979
0.0031795845
0.0031934012
0.003204107
0.0032123927
0.0032187553
0.0032235271
0.0032269116
0.003229125
0.0032303173
0.003230537
0.0032297684
0.0032278178
0.0032223555
0.0032146953
0.0032055057
0.0031949498
0.0031830807
0.0031699433
0.0031556234
0.0031402052
0.0031238001
0.0031065137
0.003088454
0.0030697313
0.0030504432
0.0030306782
0.0030105271
0.0029900653
0.0029693741
0.0029484195
0.0029274785
0.0029060233
0.0028832721
0.0028646806
0.0028272663
1.2523573e-05
2.7572096e-05
5.8623044e-05
9.9469085e-05
0.00013897199
0.00016941932
0.00018920257
0.00020025921
0.00020547945
0.00020734458
0.00020802313
0.00020958387
0.00021294333
0.00021860414
0.00022749915
0.0002406093
0.0002552545
0.00027042223
0.00028569082
0.00030132437
0.00031747162
0.00033431608
0.00035193098
0.00037024764
0.00038898881
0.00040784866
0.0004273067
0.00044781194
0.00046969026
0.00049322
0.00051868125
0.00054638581
0.00057669132
0.00061000287
0.00064676615
0.00068746298
0.00073269336
0.00078331729
0.0008403701
0.00090499285
0.0009784285
0.0010620289
0.0011572568
0.0012656823
0.0013890389
0.0015277552
0.0016814299
0.0018493909
0.0020306808
0.0022239397
0.0024271537
0.0026370963
0.0028490689
0.0030590712
0.0032639931
0.0034558717
0.0036269722
0.0037739722
0.0038971151
0.0039986117
0.0040810964
0.0041474138
0.0042005307
0.0042432205
0.0042778424
0.0043062517
0.0043298539
0.0043496744
0.0043664562
0.0043807351
0.0043928642
0.0044030632
0.004411597
0.0044186257
0.0044241868
0.0044282379
0.0044305961
0.0044302926
0.0044275161
0.0044225628
0.0044155936
0.004406702
0.0043959776
0.0043835503
0.0043695555
0.0043541512
0.0043374872
0.0043197115
0.0043009719
0.0042814013
0.0042611155
0.0042402379
0.0042188649
0.004197108
0.0041749262
0.0041526983
0.0041296245
0.0041057163
0.0040848192
0.0040463866
9.3805183e-06
1.1752129e-05
1.8504735e-05
3.0344297e-05
4.5488265e-05
6.1116722e-05
7.5204398e-05
8.6931798e-05
9.628374e-05
0.00010357665
0.00010920825
0.00011368629
0.0001175042
0.00012111248
0.00012501806
0.0001297952
0.00013572024
0.00014306886
0.0001522667
0.00016376219
0.00017687864
0.00019189724
0.00020809901
0.00022550534
0.00024419786
0.00026423391
0.00028584141
0.00030932283
0.00033501351
0.00036329232
0.00039457824
0.00042932978
0.00046804835
0.00051127065
0.00055958112
0.00061369556
0.00067461107
0.00074335185
0.00082093502
0.00090845321
0.0010071151
0.0011182504
0.0012433013
0.0013838396
0.0015415405
0.001714619
0.0019011195
0.0021002464
0.0023113353
0.002533201
0.0027637962
0.002999804
0.0032364191
0.0034693784
0.0036954647
0.003903679
0.0040871642
0.0042456668
0.0043808018
0.0044950904
0.0045915358
0.0046728462
0.004741456
0.0047996448
0.0048494506
0.0048925145
0.0049301271
0.0049632789
0.0049927065
0.0050189516
0.0050423686
0.0050631833
0.0050817282
0.0050981607
0.0051125004
0.0051246828
0.0051345644
0.0051414919
0.0051454232
0.0051465443
0.0051450323
0.0051410286
0.005134675
0.0051261483
0.005115635
0.0051033379
0.0050894473
0.0050741466
0.0050576169
0.0050400223
0.0050214998
0.0050022012
0.0049822401
0.0049617495
0.0049406945
0.0049195031
0.0048972512
0.0048745324
0.0048538015
0.00481715
8.9898778e-06
9.2309813e-06
1.0391823e-05
1.306616e-05
1.7351904e-05
2.2790993e-05
2.8760614e-05
3.4793188e-05
4.0618755e-05
4.609602e-05
5.1142134e-05
5.5725915e-05
5.9866103e-05
6.3618489e-05
6.7087024e-05
7.0428454e-05
7.3808532e-05
7.7401789e-05
8.1420543e-05
8.61214e-05
9.169111e-05
9.840568e-05
0.00010650515
0.00011619681
0.0001273528
0.00014017979
0.00015492574
0.00017144058
0.00018975134
0.00021022548
0.00023330143
0.0002594994
0.00028943037
0.00032377775
0.00036330793
0.00040893154
0.0004618273
0.00052346639
0.00059539163
0.00067925511
0.00077680435
0.00088986337
0.0010203168
0.0011701656
0.0013415212
0.0015226405
0.0017158996
0.0019248214
0.0021498584
0.0023894597
0.0026405101
0.0028982964
0.0031567009
0.0034117168
0.0036608629
0.0038824259
0.0040752634
0.0042463225
0.004398136
0.0045327435
0.0046521804
0.0047579787
0.0048515171
0.0049343956
0.0050081796
0.0050741516
0.0051334555
0.0051870651
0.0052357321
0.0052800428
0.0053204485
0.005357277
0.005390825
0.005421272
0.0054486502
0.005472912
0.005493973
0.0055114204
0.0055251403
0.0055352598
0.0055419817
0.0055455081
0.0055460465
0.0055438321
0.0055391122
0.0055321424
0.00552316
0.0055123911
0.0055000575
0.005486361
0.0054714794
0.0054555838
0.0054388059
0.0054213019
0.0054030575
0.0053845151
0.0053647589
0.0053446562
0.0053258496
0.0052923254
8.9408504e-06
8.8618908e-06
8.9453357e-06
9.3733495e-06
1.0288114e-05
1.1705026e-05
1.3541014e-05
1.5692664e-05
1.8076262e-05
2.0625931e-05
2.3280046e-05
2.5980055e-05
2.8675823e-05
3.1326754e-05
3.3908478e-05
3.641896e-05
3.8875515e-05
4.1310967e-05
4.3777824e-05
4.6351913e-05
4.9120505e-05
5.219283e-05
5.5696908e-05
5.9778583e-05
6.4570154e-05
7.0249668e-05
7.7057454e-05
8.5139297e-05
9.4560733e-05
0.0001055613
0.00011844932
0.00013360242
0.00015136962
0.00017186961
0.00019573564
0.00022373839
0.00025685205
0.0002963221
0.0003436836
0.00040076778
0.00046974035
0.00055311299
0.00065370206
0.00077455033
0.00091877708
0.0010825398
0.0012631209
0.0014615886
0.0016783111
0.0019124057
0.0021612374
0.0024201198
0.0026828749
0.0029479707
0.0032139738
0.0034580742
0.0036785076
0.0038796564
0.0040624062
0.0042295654
0.004382942
0.0045230107
0.004650433
0.0047665074
0.0048723521
0.0049688279
0.0050569914
0.005137805
0.0052120004
0.0052802328
0.0053430716
0.0054009409
0.0054541796
0.0055030165
0.0055475054
0.005587643
0.005623421
0.0056546472
0.0056812418
0.0057033112
0.0057210776
0.0057347966
0.0057447431
0.0057512163
0.0057545294
0.0057549965
0.0057529078
0.0057485394
0.0057421633
0.0057340262
0.0057243454
0.0057133253
0.0057011257
0.0056879307
0.0056737594
0.0056590503
0.0056429814
0.0056264816
0.0056108256
0.0055810676
8.9328541e-06
8.809201e-06
8.7106119e-06
8.677407e-06
8.7583778e-06
8.9872004e-06
9.374353e-06
9.917152e-06
1.0610608e-05
1.1449627e-05
1.2426158e-05
1.3527036e-05
1.4735588e-05
1.6032343e-05
1.7397567e-05
1.8814479e-05
2.0270931e-05
2.1759434e-05
2.3279246e-05
2.483864e-05
2.6454457e-05
2.8153016e-05
2.9971712e-05
3.196018e-05
3.417704e-05
3.6695005e-05
3.9608644e-05
4.3022321e-05
4.7045248e-05
5.1821954e-05
5.7546724e-05
6.4409307e-05
7.2625166e-05
8.2437582e-05
9.4192417e-05
0.00010833321
0.00012543809
0.00014625871
0.00017148805
0.00020217914
0.00023989986
0.00028665678
0.00034499539
0.00041809693
0.00050987353
0.0006231381
0.00075703346
0.00091183035
0.0010885603
0.0012875653
0.001507878
0.0017466306
0.0019991031
0.0022629158
0.0025353909
0.0028004672
0.0030434743
0.0032701673
0.0034829288
0.003683337
0.0038724567
0.0040490076
0.0042130997
0.0043661027
0.0045084
0.004640185
0.0047624354
0.0048759114
0.0049811084
0.0050787128
0.0051693462
0.0052534542
0.0053313899
0.0054034254
0.0054695908
0.0055299291
0.005584522
0.0056333593
0.0056764503
0.0057139244
0.0057460249
0.005773048
0.0057953309
0.0058132371
0.0058271474
0.00583744
0.0058444642
0.0058485551
0.005850046
0.005849238
0.0058463995
0.0058417787
0.0058355734
0.0058280042
0.005819136
0.0058093981
0.0057981132
0.0057861591
0.0057747099
0.0057492787
8.9301587e-06
8.7999847e-06
8.6732431e-06
8.5571175e-06
8.4632623e-06
8.4039073e-06
8.3885527e-06
8.4241422e-06
8.516794e-06
8.6724672e-06
8.8963421e-06
9.191758e-06
9.5601365e-06
1.0000721e-05
1.0510984e-05
1.1087261e-05
1.1725157e-05
1.2420008e-05
1.316779e-05
1.3966057e-05
1.4814524e-05
1.5715588e-05
1.667552e-05
1.7705582e-05
1.8822127e-05
2.0047434e-05
2.1411816e-05
2.2953746e-05
2.4719663e-05
2.6767699e-05
2.9173334e-05
3.2028177e-05
3.5444606e-05
3.9561416e-05
4.4560692e-05
5.0636739e-05
5.8064462e-05
6.7211972e-05
7.8509012e-05
9.2518507e-05
0.00011002641
0.00013209869
0.00016016912
0.00019615184
0.00024248607
0.00030213323
0.00037784626
0.00047160438
0.00058583876
0.0007228162
0.00088422529
0.0010705833
0.0012806745
0.0015124419
0.0017632355
0.002023878
0.0022815141
0.0025301095
0.0027635068
0.0029862104
0.0032002174
0.0034054902
0.0036018204
0.0037894774
0.0039675404
0.0041349003
0.0042927589
0.0044413186
0.0045805623
0.0047111776
0.0048336107
0.0049481818
0.0050551842
0.0051549185
0.005247219
0.005332137
0.0054098431
0.0054804295
0.0055439829
0.0056006834
0.0056507932
0.0056946322
0.005732587
0.0057650731
0.0057925303
0.0058154037
0.0058341027
0.0058490274
0.0058605793
0.005869124
0.005874992
0.0058784875
0.0058798583
0.0058793723
0.0058771521
0.0058736225
0.005868278
0.0058619022
0.005855714
0.0058352941
8.928567e-06
8.7969144e-06
8.6656807e-06
8.5358595e-06
8.4096645e-06
8.2901167e-06
8.1804536e-06
8.0839157e-06
8.0039156e-06
7.9441484e-06
7.9084637e-06
7.900615e-06
7.9240829e-06
7.9818673e-06
8.0764168e-06
8.2096183e-06
8.3827429e-06
8.5964817e-06
8.8511105e-06
9.1467279e-06
9.4834815e-06
9.8618416e-06
1.0282911e-05
1.0748882e-05
1.126345e-05
1.1832267e-05
1.2463627e-05
1.316914e-05
1.3964203e-05
1.486893e-05
1.5909747e-05
1.7120402e-05
1.8543793e-05
2.023433e-05
2.2262415e-05
2.4714895e-05
2.770554e-05
3.1387259e-05
3.5957579e-05
4.1653314e-05
4.8811671e-05
5.7894796e-05
6.9539911e-05
8.4627973e-05
0.00010435884
0.0001303584
0.00016466244
0.00020948754
0.00026744465
0.00034148581
0.00043476734
0.00055033975
0.00069064617
0.00085722541
0.0010505891
0.0012680424
0.0015024254
0.0017454645
0.0019878191
0.0022267856
0.0024572956
0.0026781849
0.0028929565
0.0031022048
0.0033054238
0.0035016614
0.0036908676
0.0038721101
0.0040442032
0.0042079745
0.0043633412
0.0045104051
0.004649183
0.0047795363
0.004901182
0.0050141933
0.0051187346
0.0052148675
0.0053026952
0.0053824191
0.0054542841
0.0055185988
0.0055757694
0.0056262295
0.0056704468
0.0057089274
0.0057421402
0.0057705459
0.0057946128
0.0058147734
0.0058314298
0.0058449518
0.0058556541
0.0058638607
0.0058697648
0.0058737985
0.005875642
0.0058759805
0.0058761579
0.0058615843
8.9275676e-06
8.7952343e-06
8.6629509e-06
8.5307613e-06
8.3989996e-06
8.2682417e-06
8.1392834e-06
8.0131148e-06
7.8909279e-06
7.7741247e-06
7.6642984e-06
7.5631973e-06
7.4726897e-06
7.3947078e-06
7.3311929e-06
7.2840605e-06
7.2551555e-06
7.2461966e-06
7.258759e-06
7.2942868e-06
7.3541157e-06
7.4395215e-06
7.5517596e-06
7.6921874e-06
7.8624081e-06
8.0644327e-06
8.3009719e-06
8.5757642e-06
8.893816e-06
9.2617059e-06
9.688105e-06
1.0184438e-05
1.0765629e-05
1.1450974e-05
1.2265607e-05
1.3241836e-05
1.4421567e-05
1.5860267e-05
1.7631128e-05
1.9828488e-05
2.2579847e-05
2.606099e-05
3.0514565e-05
3.6272674e-05
4.3810658e-05
5.3800861e-05
6.7170655e-05
8.5127844e-05
0.00010924125
0.00014151753
0.00018446127
0.00024107677
0.00031475294
0.0004090436
0.00052738194
0.00067216551
0.00084333178
0.001038014
0.0012502305
0.0014742941
0.0017031071
0.0019314161
0.002158222
0.0023797779
0.0025940991
0.0028045843
0.0030113465
0.003214001
0.0034112634
0.0036028227
0.0037874998
0.0039645766
0.0041340131
0.0042949949
0.0044469445
0.0045898648
0.0047236879
0.00484825
0.0049635462
0.0050696883
0.0051668194
0.0052551713
0.0053351097
0.0054070255
0.0054713716
0.0055286882
0.0055794749
0.0056242392
0.0056635102
0.0056977815
0.005727531
0.0057532009
0.0057751824
0.0057938682
0.005809534
0.0058226344
0.0058330422
0.0058413594
0.0058491032
0.0058413802
8.9270183e-06
8.7943054e-06
8.6616188e-06
8.5289017e-06
8.3961805e-06
8.2635298e-06
8.131108e-06
7.9991763e-06
7.868096e-06
7.7383198e-06
7.6103845e-06
7.4849124e-06
7.3626171e-06
7.2443036e-06
7.1308609e-06
7.0232566e-06
6.9225268e-06
6.8297579e-06
6.7460711e-06
6.6726118e-06
6.6105373e-06
6.5610081e-06
6.5251909e-06
6.5042728e-06
6.4994793e-06
6.512105e-06
6.5435947e-06
6.5956543e-06
6.670338e-06
6.7701302e-06
6.8981649e-06
7.0584664e-06
7.2562014e-06
7.4981158e-06
7.7930569e-06
8.1523798e-06
8.590794e-06
9.1276272e-06
9.7884233e-06
1.0606677e-05
1.1627095e-05
1.2910631e-05
1.4541127e-05
1.6634717e-05
1.9356379e-05
2.2943832e-05
2.7736594e-05
3.4207625e-05
4.3020545e-05
5.5094192e-05
7.1688201e-05
9.4500856e-05
0.00012576281
0.00016829587
0.00022551314
0.00030120492
0.00039891579
0.00052110995
0.00066815628
0.00083849907
0.001028251
0.0012322456
0.0014462523
0.0016648069
0.001883429
0.0021018435
0.00231745
0.0025278046
0.0027357463
0.0029412815
0.003144082
0.0033423639
0.0035356447
0.0037229757
0.0039024851
0.004074029
0.0042370908
0.004390994
0.0045353983
0.0046701561
0.0047951784
0.0049104792
0.0050162853
0.0051128541
0.0052005533
0.0052799066
0.0053513815
0.0054154985
0.0054728256
0.005523895
0.0055692537
0.0056094113
0.005644837
0.0056760003
0.0057032659
0.0057271247
0.005747644
0.0057653646
0.0057820164
0.0057823453
8.9267106e-06
8.7937666e-06
8.6608806e-06
8.5280105e-06
8.3951467e-06
8.2622819e-06
8.1294411e-06
7.9967003e-06
7.8641833e-06
7.7320499e-06
7.6004865e-06
7.4697068e-06
7.3399581e-06
7.211529e-06
7.0847531e-06
6.960013e-06
6.837743e-06
6.7184297e-06
6.6026102e-06
6.4908716e-06
6.3838477e-06
6.2822152e-06
6.1866912e-06
6.0980333e-06
6.0170392e-06
5.9445476e-06
5.8814531e-06
5.8287278e-06
5.7874444e-06
5.7588081e-06
5.7442187e-06
5.7453436e-06
5.764197e-06
5.8032928e-06
5.8658412e-06
5.9558879e-06
6.0785829e-06
6.2405995e-06
6.4506989e-06
6.72048e-06
7.0652456e-06
7.5054166e-06
8.0687734e-06
8.7935269e-06
9.7332515e-06
1.0964845e-05
1.2599441e-05
1.4796978e-05
1.7788968e-05
2.1910823e-05
2.7646649e-05
3.5691169e-05
4.7040985e-05
6.3099388e-05
8.5797355e-05
0.00011769148
0.00016194469
0.00022208652
0.00030148432
0.00040278826
0.00052721476
0.00067416914
0.00084173555
0.0010263547
0.0012234908
0.0014297807
0.001641023
0.0018529505
0.002065637
0.002277138
0.0024851048
0.0026911342
0.0028954446
0.0030977214
0.0032961611
0.003489821
0.0036778069
0.0038581674
0.0040300843
0.0041931119
0.0043466537
0.0044902169
0.0046237882
0.0047473311
0.0048609864
0.0049651791
0.0050602243
0.0051465892
0.0052248317
0.0052954707
0.0053590972
0.0054162619
0.0054674986
0.0055133504
0.0055542673
0.0055907838
0.0056231587
0.0056518904
0.0056789652
0.0056887626
8.926533e-06
8.7934023e-06
8.6603583e-06
8.5273889e-06
8.3944927e-06
8.2616589e-06
8.1288912e-06
7.9962235e-06
7.8637176e-06
7.7314533e-06
7.5995187e-06
7.4680075e-06
7.3370214e-06
7.2066747e-06
7.0770969e-06
6.9484362e-06
6.8208626e-06
6.6945704e-06
6.5697809e-06
6.4467443e-06
6.3257416e-06
6.207086e-06
6.0911234e-06
5.9782341e-06
5.8688336e-06
5.7633724e-06
5.6623394e-06
5.566266e-06
5.4757309e-06
5.3913679e-06
5.3138815e-06
5.2440681e-06
5.1828369e-06
5.1312501e-06
5.0905833e-06
5.0623906e-06
5.0485847e-06
5.0515592e-06
5.0743729e-06
5.1210258e-06
5.1967031e-06
5.3081865e-06
5.4645536e-06
5.6781409e-06
5.9661236e-06
6.3526172e-06
6.8720715e-06
7.5743817e-06
8.5325121e-06
9.8540827e-06
1.1698879e-05
1.4304549e-05
1.8026922e-05
2.339862e-05
3.1210354e-05
4.2614919e-05
5.9251045e-05
8.3320634e-05
0.00011756754
0.00016511869
0.00022913525
0.00031232671
0.00041658109
0.0005424777
0.00068903291
0.00085430801
0.001035215
0.0012276551
0.0014288165
0.0016352562
0.0018429497
0.0020519144
0.0022602707
0.0024655665
0.0026699535
0.0028734053
0.0030750397
0.003272957
0.0034660232
0.003653179
0.0038324943
0.0040027715
0.0041638261
0.0043149436
0.0044558154
0.00458669
0.0047074843
0.0048185168
0.0049202511
0.0050130899
0.0050976188
0.0051743686
0.0052439026
0.0053068159
0.005363621
0.0054148932
0.005461068
0.0055026114
0.0055418223
0.0055627379
8.9264649e-06
8.793169e-06
8.6599709e-06
8.5268853e-06
8.3939261e-06
8.2610931e-06
8.1283926e-06
7.9958504e-06
7.8635117e-06
7.7314339e-06
7.5996787e-06
7.4683083e-06
7.3373858e-06
7.2069768e-06
7.0771504e-06
6.947981e-06
6.8195493e-06
6.6919441e-06
6.5652636e-06
6.4396172e-06
6.3151268e-06
6.1919292e-06
6.0701767e-06
5.9500399e-06
5.8317083e-06
5.7153926e-06
5.601326e-06
5.4897665e-06
5.3809987e-06
5.2753366e-06
5.1731278e-06
5.0747594e-06
4.9806645e-06
4.8913319e-06
4.8073229e-06
4.7292923e-06
4.6580125e-06
4.5944098e-06
4.5396185e-06
4.4950581e-06
4.4625245e-06
4.4443151e-06
4.4434327e-06
4.4638625e-06
4.5110473e-06
4.5924704e-06
4.7186214e-06
4.9045484e-06
5.172306e-06
5.5545118e-06
6.0996676e-06
6.8810117e-06
8.0103773e-06
9.6600684e-06
1.2096774e-05
1.573224e-05
2.1197452e-05
2.9435021e-05
4.1794198e-05
6.0099845e-05
8.6669616e-05
0.00012421359
0.00017563933
0.0002437189
0.0003306669
0.00043788198
0.0005656215
0.00071272509
0.00087729133
0.0010565434
0.0012466751
0.0014451586
0.0016486584
0.0018534126
0.0020598435
0.0022656558
0.0024692356
0.0026720988
0.0028746921
0.0030751212
0.003271521
0.0034627116
0.0036476217
0.0038239225
0.0039908375
0.0041484265
0.0042956757
0.0044327122
0.0045597562
0.0046768942
0.0047846341
0.0048833681
0.0049736264
0.0050560065
0.0051310296
0.0051992939
0.0052613782
0.0053177108
0.0053709736
0.0054048984
8.9265018e-06
8.7930662e-06
8.6597255e-06
8.5265147e-06
8.3934613e-06
8.2605774e-06
8.127876e-06
7.9953837e-06
7.8631409e-06
7.7311973e-06
7.5996068e-06
7.4684235e-06
7.3377012e-06
7.2074938e-06
7.0778556e-06
6.9488417e-06
6.8205085e-06
6.6929138e-06
6.5661177e-06
6.4401831e-06
6.3151761e-06
6.1911676e-06
6.0682335e-06
5.9464559e-06
5.8259244e-06
5.7067371e-06
5.589002e-06
5.4728382e-06
5.3583774e-06
5.2457654e-06
5.135164e-06
5.0267533e-06
4.9207341e-06
4.8173311e-06
4.7167975e-06
4.6194215e-06
4.5255338e-06
4.4355175e-06
4.3498239e-06
4.2689941e-06
4.1936868e-06
4.1247153e-06
4.0631062e-06
4.0101811e-06
3.9676752e-06
3.9379232e-06
3.9241358e-06
3.9308202e-06
3.9644971e-06
4.0347378e-06
4.1556821e-06
4.3487112e-06
4.6467824e-06
5.1012471e-06
5.792666e-06
6.8490302e-06
8.4742298e-06
1.0991076e-05
1.4899847e-05
2.0952211e-05
3.023447e-05
4.4242272e-05
6.4908296e-05
9.4579446e-05
0.00013588734
0.0001915421
0.00026403442
0.00035524688
0.0004662538
0.00059708289
0.00074641015
0.00091229531
0.0010919376
0.0012816412
0.0014792054
0.001680901
0.0018840113
0.0020888621
0.0022924947
0.0024945422
0.0026959093
0.0028971295
0.003095479
0.0032893059
0.00347738
0.0036587634
0.0038305192
0.0039929113
0.0041455905
0.004287964
0.0044204111
0.0045429495
0.0046559884
0.0047600297
0.004855507
0.0049430031
0.0050231737
0.0050963865
0.0051657822
0.0052148315
8.9266354e-06
8.7930877e-06
8.6596249e-06
8.526296e-06
8.3931393e-06
8.2601772e-06
8.1274303e-06
7.9949275e-06
7.862708e-06
7.7308183e-06
7.599309e-06
7.4682315e-06
7.3376374e-06
7.2075781e-06
7.0781051e-06
6.9492694e-06
6.8211221e-06
6.6937139e-06
6.5670955e-06
6.4413173e-06
6.3164299e-06
6.1924844e-06
6.0695322e-06
5.947626e-06
5.8268197e-06
5.7071695e-06
5.5887339e-06
5.4715751e-06
5.3557592e-06
5.2413573e-06
5.1284465e-06
5.0171111e-06
4.9074436e-06
4.7995461e-06
4.6935324e-06
4.5895297e-06
4.4876816e-06
4.3881508e-06
4.2911243e-06
4.1968188e-06
4.1054896e-06
4.0174406e-06
3.9330413e-06
3.8527493e-06
3.7771431e-06
3.7069728e-06
3.643239e-06
3.5873087e-06
3.541103e-06
3.5073903e-06
3.4902314e-06
3.495707e-06
3.5331593e-06
3.6171603e-06
3.7706379e-06
4.0304279e-06
4.4566418e-06
5.1467364e-06
6.2581859e-06
8.0419519e-06
1.0889565e-05
1.5394495e-05
2.2423358e-05
3.3189135e-05
4.9309725e-05
7.2810707e-05
0.00010606917
0.00015167673
0.00021221789
0.00028999277
0.00038662329
0.00050289251
0.00063850416
0.00079184347
0.00096086948
0.0011424613
0.0013332385
0.0015312288
0.0017318388
0.0019339451
0.002137295
0.0023388243
0.0025389707
0.0027391099
0.0029380163
0.0031333139
0.0033235419
0.0035075419
0.0036836271
0.0038500262
0.0040071154
0.004154052
0.004291052
0.0044183387
0.0045360955
0.0046448259
0.0047451387
0.004837304
0.0049249623
0.0049914166
8.9268535e-06
8.7932195e-06
8.6596575e-06
8.5262259e-06
8.3929712e-06
8.2599243e-06
8.1271123e-06
7.9945674e-06
7.8623288e-06
7.7304413e-06
7.5989535e-06
7.4679156e-06
7.3373782e-06
7.207392e-06
7.0780081e-06
6.949277e-06
6.821249e-06
6.6939739e-06
6.5675005e-06
6.4418771e-06
6.3171509e-06
6.1933684e-06
6.0705751e-06
5.9488156e-06
5.8281339e-06
5.7085734e-06
5.5901771e-06
5.4729877e-06
5.3570484e-06
5.2424029e-06
5.1290956e-06
5.0171728e-06
4.9066828e-06
4.7976765e-06
4.6902085e-06
4.5843378e-06
4.4801289e-06
4.3776529e-06
4.2769892e-06
4.1782274e-06
4.0814697e-06
3.9868342e-06
3.8944594e-06
3.8045109e-06
3.7171901e-06
3.6327479e-06
3.5515066e-06
3.4738914e-06
3.4004801e-06
3.3320821e-06
3.2698608e-06
3.2155301e-06
3.1716817e-06
3.142326e-06
3.1337772e-06
3.1561776e-06
3.2262276e-06
3.3713276e-06
3.6366989e-06
4.0970069e-06
4.8736481e-06
6.160763e-06
8.2628915e-06
1.1645824e-05
1.7000722e-05
2.5313969e-05
3.7933445e-05
5.6617289e-05
8.3504234e-05
0.00012104959
0.00017185455
0.00023842368
0.00032287006
0.00042650642
0.00054976088
0.00069183996
0.00085080487
0.0010244772
0.0012091301
0.0014018796
0.0016005473
0.0018003359
0.0020014914
0.0022024691
0.0024020692
0.0026000072
0.002798566
0.002994418
0.003185923
0.0033716917
0.0035507596
0.0037204637
0.0038809378
0.0040318132
0.0041727519
0.0043040926
0.0044261672
0.0045391057
0.0046469798
0.0047331599
8.9271437e-06
8.7934453e-06
8.6598053e-06
8.5262883e-06
8.3929468e-06
8.2598187e-06
8.126937e-06
7.9943371e-06
7.8620589e-06
7.7301465e-06
7.5986473e-06
7.4676105e-06
7.3370859e-06
7.2071239e-06
7.0777754e-06
6.9490909e-06
6.8211206e-06
6.6939142e-06
6.5675208e-06
6.4419884e-06
6.3173639e-06
6.1936933e-06
6.071021e-06
5.9493904e-06
5.8288433e-06
5.7094202e-06
5.5911604e-06
5.4741015e-06
5.3582801e-06
5.2437316e-06
5.1304905e-06
5.0185901e-06
4.9080637e-06
4.7989437e-06
4.6912628e-06
4.5850542e-06
4.4803516e-06
4.3771902e-06
4.2756073e-06
4.1756426e-06
4.0773395e-06
3.9807459e-06
3.8859158e-06
3.7929109e-06
3.7018036e-06
3.6126803e-06
3.5256476e-06
3.440841e-06
3.3584376e-06
3.2786778e-06
3.2018971e-06
3.1285789e-06
3.059439e-06
2.995568e-06
2.9386674e-06
2.8914541e-06
2.8583774e-06
2.846796e-06
2.868988e-06
2.9456148e-06
3.1111328e-06
3.4224512e-06
3.9729969e-06
4.9127653e-06
6.4786643e-06
9.0366746e-06
1.313836e-05
1.9590112e-05
2.95221e-05
4.4452479e-05
6.6321764e-05
9.7422727e-05
0.00014033003
0.00019766523
0.00027184085
0.00036469714
0.00047713497
0.00060912585
0.00075916497
0.00092495823
0.0011039795
0.0012920987
0.0014870349
0.0016851609
0.0018843896
0.0020843436
0.0022827732
0.0024799002
0.0026765527
0.0028721088
0.0030640881
0.003250968
0.0034316524
0.003604304
0.0037675859
0.0039216759
0.0040661769
0.0042010728
0.0043305931
0.0044386215
8.9274944e-06
8.7937493e-06
8.6600495e-06
8.5264631e-06
8.3930474e-06
8.259846e-06
8.1268967e-06
7.9942384e-06
7.8619122e-06
7.7299621e-06
7.5984349e-06
7.4673789e-06
7.3368435e-06
7.2068789e-06
7.0775353e-06
6.9488633e-06
6.820913e-06
6.6937343e-06
6.5673761e-06
6.4418866e-06
6.317313e-06
6.1937013e-06
6.0710961e-06
5.9495406e-06
5.8290768e-06
5.7097447e-06
5.5915831e-06
5.4746288e-06
5.3589172e-06
5.2444818e-06
5.1313546e-06
5.0195658e-06
4.9091442e-06
4.8001171e-06
4.6925103e-06
4.5863485e-06
4.4816553e-06
4.3784534e-06
4.2767651e-06
4.1766121e-06
4.0780163e-06
3.981e-06
3.8855863e-06
3.7917998e-06
3.6996677e-06
3.6092203e-06
3.520493e-06
3.4335289e-06
3.3483819e-06
3.2651227e-06
3.1838474e-06
3.1046906e-06
3.0278481e-06
2.9536125e-06
2.8824345e-06
2.8150266e-06
2.7525454e-06
2.6969014e-06
2.6512943e-06
2.621147e-06
2.615665e-06
2.6504091e-06
2.7516789e-06
2.9631056e-06
3.3563003e-06
4.0476006e-06
5.2217267e-06
7.1679944e-06
1.0329363e-05
1.5367142e-05
2.3237064e-05
3.5257417e-05
5.3170024e-05
7.9138954e-05
0.00011566024
0.00016543253
0.000231059
0.00031478318
0.00041799466
0.00054100737
0.00068311462
0.00084202769
0.0010151867
0.0011990873
0.0013904853
0.001587137
0.0017843145
0.0019824953
0.0021797826
0.0023758617
0.0025706538
0.0027653769
0.0029572498
0.0031447987
0.0033266431
0.0035015089
0.0036672987
0.0038240778
0.0039756572
0.0041070111
8.9278955e-06
8.7941177e-06
8.6603728e-06
8.5267311e-06
8.3932531e-06
8.2599869e-06
8.1269752e-06
7.9942596e-06
7.8618829e-06
7.7298896e-06
7.5983263e-06
7.467241e-06
7.3366826e-06
7.2067009e-06
7.0773459e-06
6.9486679e-06
6.820717e-06
6.6935428e-06
6.5671944e-06
6.4417198e-06
6.3171664e-06
6.1935802e-06
6.071006e-06
5.9494873e-06
5.8290659e-06
5.7097822e-06
5.5916751e-06
5.4747814e-06
5.3591365e-06
5.2447738e-06
5.131725e-06
5.0200199e-06
4.9096865e-06
4.8007508e-06
4.6932371e-06
4.5871681e-06
4.4825645e-06
4.3794455e-06
4.2778288e-06
4.1777305e-06
4.0791655e-06
3.9821476e-06
3.8866895e-06
3.7928033e-06
3.7005006e-06
3.6097928e-06
3.5206918e-06
3.4332106e-06
3.3473646e-06
3.2631727e-06
3.1806599e-06
3.099861e-06
3.0208259e-06
2.9436291e-06