/*--------------------------------*- C++ -*----------------------------------*\
| =========                 |                                                 |
| \\      /  F ield         | OpenFOAM: The Open Source CFD Toolbox           |
|  \\    /   O peration     | Version:  2206                                  |
|   \\  /    A nd           | Website:  www.openfoam.com                      |
|    \\/     M anipulation  |                                                 |
\*---------------------------------------------------------------------------*/
FoamFile
{
    version     2.0;
    format      ascii;
    arch        "LSB;label=32;scalar=64";
    class       volScalarField;
    location    "400";
    object      nut;
}
// * * * * * * * * * * * * * * * * * * * * * * * * * * * * * * * * * * * * * //

dimensions      [0 2 -1 0 0 0 0];

internalField   nonuniform List<scalar> 
7480
(
1.512066e-06
1.8587273e-06
1.544138e-06
1.0161326e-06
6.0456143e-07
3.7091926e-07
2.58569e-07
2.0378136e-07
1.7340172e-07
1.5361489e-07
1.3832648e-07
1.2521166e-07
1.1378347e-07
1.0389409e-07
9.5317539e-08
8.784564e-08
8.1318131e-08
7.5583704e-08
7.048237e-08
6.5910526e-08
6.1805439e-08
5.8099196e-08
5.4729467e-08
5.1656914e-08
4.8850397e-08
4.6276231e-08
4.3904492e-08
4.1716141e-08
3.9696123e-08
3.7827221e-08
3.6094444e-08
3.4488008e-08
3.299931e-08
3.1618745e-08
3.033825e-08
2.9152351e-08
2.8056052e-08
2.7044466e-08
2.6114282e-08
2.5263838e-08
2.4491749e-08
2.3796577e-08
2.3178363e-08
2.2637009e-08
2.2173356e-08
2.1799264e-08
2.1504794e-08
2.1305418e-08
2.1199682e-08
2.1184735e-08
2.1257485e-08
2.1414016e-08
2.1646094e-08
2.1938672e-08
2.2277025e-08
2.2650997e-08
2.3038207e-08
2.3405391e-08
2.372096e-08
2.3959144e-08
2.4119421e-08
2.420257e-08
2.4215914e-08
2.4169685e-08
2.4076816e-08
2.39491e-08
2.3796937e-08
2.3628637e-08
2.3450167e-08
2.3265952e-08
2.3079358e-08
2.2892372e-08
2.2706256e-08
2.2522345e-08
2.2340973e-08
2.2162329e-08
2.1986482e-08
2.1806167e-08
2.1622012e-08
2.1436198e-08
2.1249605e-08
2.1062674e-08
2.0874684e-08
2.0685356e-08
2.0494635e-08
2.0302485e-08
2.0109211e-08
1.9914893e-08
1.9719972e-08
1.9524592e-08
1.9329051e-08
1.9133482e-08
1.893832e-08
1.8742477e-08
1.8549186e-08
1.8346717e-08
1.8169736e-08
1.7915828e-08
1.7772735e-08
1.7384742e-08
1.4111376e-06
1.6301238e-06
1.5385327e-06
1.2880735e-06
1.0362131e-06
8.1131953e-07
6.4379915e-07
5.1800646e-07
4.2144424e-07
3.4677324e-07
2.8965655e-07
2.4638075e-07
2.135168e-07
1.8822171e-07
1.6834248e-07
1.5235561e-07
1.392194e-07
1.282004e-07
1.1879591e-07
1.106729e-07
1.0360417e-07
9.7413477e-08
9.1966867e-08
8.716595e-08
8.283958e-08
7.8907365e-08
7.5325674e-08
7.2072656e-08
6.9134982e-08
6.6500797e-08
6.4162505e-08
6.2117681e-08
6.0365116e-08
5.8903688e-08
5.773493e-08
5.686357e-08
5.6296573e-08
5.6046042e-08
5.6132384e-08
5.6584799e-08
5.7440173e-08
5.8743685e-08
6.055095e-08
6.2926585e-08
6.5951691e-08
6.9708614e-08
7.4257382e-08
7.964917e-08
8.5897386e-08
9.2994982e-08
1.0091357e-07
1.0964988e-07
1.1901259e-07
1.287799e-07
1.387375e-07
1.4856605e-07
1.5779296e-07
1.6599099e-07
1.7290168e-07
1.7849278e-07
1.8288038e-07
1.8625919e-07
1.8881947e-07
1.9063183e-07
1.9186041e-07
1.9264984e-07
1.9311408e-07
1.9333667e-07
1.9337856e-07
1.9328408e-07
1.9308387e-07
1.9279664e-07
1.9243951e-07
1.9202572e-07
1.9155995e-07
1.91043e-07
1.9045966e-07
1.8965737e-07
1.8870121e-07
1.8764377e-07
1.86502e-07
1.8528066e-07
1.8398126e-07
1.826094e-07
1.8117007e-07
1.7967091e-07
1.7811934e-07
1.7652287e-07
1.7488972e-07
1.7322651e-07
1.7154001e-07
1.6983614e-07
1.6812072e-07
1.6639743e-07
1.6466865e-07
1.6293532e-07
1.6122079e-07
1.5926971e-07
1.5790214e-07
1.5465078e-07
1.1014064e-06
1.4048002e-06
1.4358639e-06
1.3409922e-06
1.2076439e-06
1.0741212e-06
9.669263e-07
8.8446212e-07
8.2035221e-07
7.6807687e-07
7.2389623e-07
6.7963471e-07
6.3731729e-07
6.0218712e-07
5.7245859e-07
5.4692177e-07
5.248931e-07
5.0588096e-07
4.8952595e-07
4.7559061e-07
4.6391126e-07
4.543501e-07
4.4680905e-07
4.4119089e-07
4.3359156e-07
4.2645606e-07
4.1995518e-07
4.142976e-07
4.0968912e-07
4.0632768e-07
4.0442469e-07
4.0420004e-07
4.0586655e-07
4.0963796e-07
4.1574346e-07
4.2442394e-07
4.3594092e-07
4.5062906e-07
4.6892139e-07
4.9135193e-07
5.1855393e-07
5.5127328e-07
5.9038204e-07
6.3687276e-07
6.9194161e-07
7.5665787e-07
8.3191279e-07
9.1821877e-07
1.0156671e-06
1.1240332e-06
1.2423194e-06
1.3697092e-06
1.5042888e-06
1.6431026e-06
1.7832289e-06
1.9203272e-06
2.0484887e-06
2.1626633e-06
2.2600712e-06
2.3406196e-06
2.4059346e-06
2.4587102e-06
2.49993e-06
2.5316635e-06
2.5561962e-06
2.5753176e-06
2.5903891e-06
2.6023821e-06
2.6119959e-06
2.6197329e-06
2.6259311e-06
2.6307908e-06
2.6345109e-06
2.6372395e-06
2.6390221e-06
2.6398578e-06
2.6395238e-06
2.6357428e-06
2.6296079e-06
2.6218789e-06
2.6127878e-06
2.6024001e-06
2.5907507e-06
2.5779309e-06
2.5640182e-06
2.5491266e-06
2.5333608e-06
2.5168284e-06
2.4996424e-06
2.4818958e-06
2.463683e-06
2.4450888e-06
2.4261903e-06
2.4070651e-06
2.3876835e-06
2.3683027e-06
2.3485796e-06
2.3266276e-06
2.3112302e-06
2.2731613e-06
5.0847645e-07
9.591651e-07
1.1798097e-06
1.2284752e-06
1.200422e-06
1.1428996e-06
1.0804003e-06
1.02135e-06
9.6988058e-07
9.3007466e-07
9.0611473e-07
9.0232513e-07
9.0572639e-07
8.5762433e-07
8.2192002e-07
7.9450514e-07
7.7450203e-07
7.6000786e-07
7.4999735e-07
7.438348e-07
7.4111798e-07
7.4156116e-07
7.4499555e-07
7.5126179e-07
7.5983081e-07
7.7018928e-07
7.822029e-07
7.9608968e-07
8.1224048e-07
8.3113387e-07
8.5331921e-07
8.7941204e-07
9.1008507e-07
9.4607024e-07
9.881657e-07
1.0372275e-06
1.0942247e-06
1.1604299e-06
1.2374343e-06
1.3271352e-06
1.4317317e-06
1.5537453e-06
1.6960472e-06
1.8618601e-06
2.054808e-06
2.2782125e-06
2.5343521e-06
2.8248784e-06
3.150255e-06
3.5098952e-06
3.9018425e-06
4.3201634e-06
4.7615421e-06
5.2182768e-06
5.6819234e-06
6.1408342e-06
6.5798887e-06
6.9851511e-06
7.3475908e-06
7.6643722e-06
7.9380301e-06
8.172458e-06
8.3702771e-06
8.5384613e-06
8.683434e-06
8.8104919e-06
8.9237858e-06
9.0263657e-06
9.1204128e-06
9.2074666e-06
9.2885577e-06
9.364285e-06
9.4351614e-06
9.5015822e-06
9.5636511e-06
9.6212988e-06
9.6740452e-06
9.7002617e-06
9.7154002e-06
9.7242762e-06
9.727611e-06
9.7256682e-06
9.7186114e-06
9.7067681e-06
9.6904412e-06
9.670035e-06
9.6459259e-06
9.6184924e-06
9.5881281e-06
9.5551639e-06
9.5199205e-06
9.4827069e-06
9.4437869e-06
9.4034693e-06
9.3616018e-06
9.3193509e-06
9.274751e-06
9.2242792e-06
9.1898922e-06
9.0979026e-06
2.250748e-07
4.2726073e-07
6.986382e-07
8.9331032e-07
9.8968397e-07
1.0235107e-06
1.0250309e-06
1.0107412e-06
9.8911007e-07
9.6534405e-07
9.4375483e-07
9.2874425e-07
9.2199066e-07
9.2303229e-07
9.319912e-07
9.4896718e-07
9.6927291e-07
9.5328286e-07
9.2966394e-07
9.1682139e-07
9.1364037e-07
9.1847294e-07
9.3040028e-07
9.4879534e-07
9.7329864e-07
1.0037422e-06
1.0384623e-06
1.0775177e-06
1.1214508e-06
1.1707943e-06
1.2261512e-06
1.2882559e-06
1.3580187e-06
1.4365611e-06
1.5252487e-06
1.625695e-06
1.7395389e-06
1.8684134e-06
2.0150765e-06
2.1828585e-06
2.3755607e-06
2.5974574e-06
2.8533311e-06
3.1485079e-06
3.4887729e-06
3.8790222e-06
4.3212898e-06
4.8167491e-06
5.3661155e-06
5.9692271e-06
6.6243923e-06
7.3265843e-06
8.0664429e-06
8.8343172e-06
9.6195367e-06
1.0408299e-05
1.1176804e-05
1.190181e-05
1.2568588e-05
1.3171144e-05
1.3708214e-05
1.4182476e-05
1.4600235e-05
1.4969889e-05
1.5300036e-05
1.5598342e-05
1.5871266e-05
1.6123881e-05
1.6359978e-05
1.658232e-05
1.6792735e-05
1.6992187e-05
1.7181842e-05
1.7362465e-05
1.7534221e-05
1.7696913e-05
1.7849674e-05
1.7986705e-05
1.810796e-05
1.8214964e-05
1.8308786e-05
1.8390026e-05
1.845903e-05
1.8516373e-05
1.8562697e-05
1.8598806e-05
1.8625526e-05
1.8643671e-05
1.8654105e-05
1.8657588e-05
1.8654782e-05
1.8646415e-05
1.863313e-05
1.8615582e-05
1.8593806e-05
1.8569422e-05
1.8540932e-05
1.8499867e-05
1.8478857e-05
1.8401934e-05
1.7530499e-07
2.158839e-07
3.1856311e-07
4.6493788e-07
6.0523491e-07
7.1031754e-07
7.7985531e-07
8.2289763e-07
8.4800788e-07
8.6126812e-07
8.6696444e-07
8.6867977e-07
8.6921586e-07
8.7060392e-07
8.7460458e-07
8.8289619e-07
8.9632047e-07
9.1552092e-07
9.4160314e-07
9.7582861e-07
1.0156256e-06
1.0618201e-06
1.0570593e-06
1.0562685e-06
1.0671068e-06
1.0882646e-06
1.1197182e-06
1.1617755e-06
1.2149212e-06
1.2798623e-06
1.3575688e-06
1.4493704e-06
1.5571938e-06
1.684067e-06
1.8350636e-06
2.0182144e-06
2.2360085e-06
2.4752099e-06
2.7408036e-06
3.0384667e-06
3.3739904e-06
3.7534862e-06
4.183699e-06
4.6725134e-06
5.2299342e-06
5.8552615e-06
6.5391775e-06
7.2795949e-06
8.078245e-06
8.9362623e-06
9.8526707e-06
1.0822896e-05
1.1837118e-05
1.2881951e-05
1.3946143e-05
1.4997573e-05
1.6005404e-05
1.6954373e-05
1.7837967e-05
1.8655635e-05
1.9409567e-05
2.0102844e-05
2.0740147e-05
2.1327701e-05
2.1872133e-05
2.2379898e-05
2.2857105e-05
2.3308919e-05
2.3739375e-05
2.4151611e-05
2.4546711e-05
2.4924233e-05
2.5289e-05
2.564172e-05
2.5982192e-05
2.6309718e-05
2.6622605e-05
2.6919028e-05
2.7195787e-05
2.7451484e-05
2.7686034e-05
2.7899687e-05
2.8092658e-05
2.8265512e-05
2.8419032e-05
2.8554287e-05
2.8672467e-05
2.8774798e-05
2.8862628e-05
2.8937215e-05
2.8999028e-05
2.9049802e-05
2.9090795e-05
2.9123057e-05
2.9147028e-05
2.9164392e-05
2.9175387e-05
2.9165087e-05
2.9175004e-05
2.9133719e-05
1.6890569e-07
1.7480049e-07
1.9622384e-07
2.4158512e-07
3.0835146e-07
3.8392218e-07
4.5671175e-07
5.2094075e-07
5.7519331e-07
6.1993843e-07
6.5622612e-07
6.8539146e-07
7.0890556e-07
7.2821844e-07
7.4478487e-07
7.6008256e-07
7.7544858e-07
7.9212101e-07
8.1143298e-07
8.3488531e-07
8.6343587e-07
8.9844447e-07
9.4049728e-07
9.8985516e-07
1.0450239e-06
1.1061518e-06
1.1741899e-06
1.2083675e-06
1.2333161e-06
1.2729607e-06
1.3285882e-06
1.4020892e-06
1.49593e-06
1.6131243e-06
1.7576044e-06
1.9348669e-06
2.1514676e-06
2.4125388e-06
2.7239073e-06
3.0927712e-06
3.5277438e-06
4.0392418e-06
4.6406779e-06
5.3514757e-06
6.2042815e-06
6.9693296e-06
7.8047504e-06
8.7623045e-06
9.8396375e-06
1.1030486e-05
1.2322017e-05
1.3690857e-05
1.5103689e-05
1.656387e-05
1.807343e-05
1.9177959e-05
2.0095524e-05
2.1003376e-05
2.1904501e-05
2.2797897e-05
2.367845e-05
2.4541147e-05
2.5382372e-05
2.6199566e-05
2.6991175e-05
2.7757707e-05
2.8500962e-05
2.9222557e-05
2.9924082e-05
3.0607292e-05
3.1273429e-05
3.1922766e-05
3.2555785e-05
3.3172565e-05
3.3772293e-05
3.4353661e-05
3.4914215e-05
3.5452231e-05
3.5964644e-05
3.644853e-05
3.6902234e-05
3.732507e-05
3.7716789e-05
3.8077734e-05
3.8408676e-05
3.8710828e-05
3.898565e-05
3.9234745e-05
3.9459961e-05
3.96631e-05
3.9845872e-05
4.0010026e-05
4.0157204e-05
4.0288902e-05
4.0406219e-05
4.0510596e-05
4.0604963e-05
4.0668407e-05
4.0745032e-05
4.0790011e-05
1.6818088e-07
1.6866152e-07
1.7195717e-07
1.8125852e-07
1.9895061e-07
2.2489457e-07
2.5727338e-07
2.9356845e-07
3.3180158e-07
3.7051535e-07
4.0854748e-07
4.4498609e-07
4.7922862e-07
5.1095636e-07
5.4014713e-07
5.6706257e-07
5.921591e-07
6.160191e-07
6.393682e-07
6.6309556e-07
6.8812803e-07
7.1552706e-07
7.4637177e-07
7.8173102e-07
8.2236536e-07
8.692175e-07
9.2359721e-07
9.8587851e-07
1.055897e-06
1.1348446e-06
1.2244261e-06
1.3267856e-06
1.4276614e-06
1.4949e-06
1.5857251e-06
1.7048298e-06
1.8584894e-06
2.0547659e-06
2.303432e-06
2.6161464e-06
3.0069585e-06
3.4927202e-06
4.0933856e-06
4.8323982e-06
5.7383797e-06
6.7098338e-06
7.7076336e-06
8.8171475e-06
1.0049834e-05
1.1405827e-05
1.2869861e-05
1.4407031e-05
1.5971817e-05
1.7626911e-05
1.9392796e-05
2.066969e-05
2.1768355e-05
2.2849622e-05
2.3924006e-05
2.5000082e-05
2.6080155e-05
2.7165105e-05
2.8250132e-05
2.9329841e-05
3.0400762e-05
3.1461692e-05
3.2511108e-05
3.354684e-05
3.4568321e-05
3.5575854e-05
3.6569008e-05
3.754701e-05
3.8508929e-05
3.9453478e-05
4.0378374e-05
4.1281163e-05
4.2158399e-05
4.3006979e-05
4.3823806e-05
4.4605398e-05
4.5348757e-05
4.6051893e-05
4.6713662e-05
4.7333771e-05
4.7912649e-05
4.8451344e-05
4.8951286e-05
4.9414204e-05
4.9842282e-05
5.0237741e-05
5.060299e-05
5.0940215e-05
5.1251495e-05
5.1538732e-05
5.1803811e-05
5.2047738e-05
5.2276363e-05
5.2464822e-05
5.2652273e-05
5.284546e-05
1.6814545e-07
1.678728e-07
1.6803215e-07
1.6934633e-07
1.7271256e-07
1.7877094e-07
1.8775319e-07
1.9960481e-07
2.1418823e-07
2.3138654e-07
2.5106591e-07
2.7273321e-07
2.9591964e-07
3.2015244e-07
3.4499532e-07
3.7009848e-07
3.9521434e-07
4.2019651e-07
4.4502432e-07
4.6982416e-07
4.9485098e-07
5.2049231e-07
5.4726875e-07
5.7582661e-07
6.0687071e-07
6.4120756e-07
6.7982384e-07
7.2369521e-07
7.7371297e-07
8.310374e-07
8.9721777e-07
9.7368597e-07
1.061956e-06
1.1633896e-06
1.2801966e-06
1.4152494e-06
1.572342e-06
1.7566174e-06
1.9285003e-06
2.1214056e-06
2.3731322e-06
2.7010118e-06
3.1275851e-06
3.682183e-06
4.4018168e-06
5.3211371e-06
6.2975539e-06
7.3655515e-06
8.5759673e-06
9.9380651e-06
1.1453487e-05
1.3111475e-05
1.4888177e-05
1.6777136e-05
1.8775027e-05
2.0624225e-05
2.1908975e-05
2.3189303e-05
2.4437657e-05
2.5674738e-05
2.6933048e-05
2.8216952e-05
2.9508546e-05
3.0809959e-05
3.2127228e-05
3.3455865e-05
3.4790261e-05
3.612709e-05
3.7465665e-05
3.8803834e-05
4.0137767e-05
4.1465377e-05
4.2784821e-05
4.4092701e-05
4.538392e-05
4.6654077e-05
4.7897889e-05
4.9110115e-05
5.0286676e-05
5.1423442e-05
5.2516231e-05
5.356173e-05
5.4557588e-05
5.5502391e-05
5.6395819e-05
5.7238349e-05
5.8030914e-05
5.8774992e-05
5.9472783e-05
6.0126648e-05
6.0739283e-05
6.1313288e-05
6.1851107e-05
6.2354957e-05
6.2827498e-05
6.3269201e-05
6.3688553e-05
6.4059168e-05
6.4409091e-05
6.4820509e-05
1.6818975e-07
1.6781404e-07
1.6749264e-07
1.673555e-07
1.6761799e-07
1.6851574e-07
1.7024553e-07
1.7296143e-07
1.768029e-07
1.8191023e-07
1.8841471e-07
1.9639527e-07
2.0588389e-07
2.1686334e-07
2.2934765e-07
2.4328819e-07
2.5851483e-07
2.7486864e-07
2.9222163e-07
3.1048469e-07
3.2961707e-07
3.4963871e-07
3.7064246e-07
3.9280746e-07
4.1639724e-07
4.4176909e-07
4.6940244e-07
4.9988859e-07
5.3391082e-07
5.7229012e-07
6.1605456e-07
6.6639655e-07
7.2469976e-07
7.9253675e-07
8.718633e-07
9.6464314e-07
1.0736112e-06
1.2023566e-06
1.354657e-06
1.5354178e-06
1.7516385e-06
2.0126812e-06
2.3307583e-06
2.7215127e-06
3.1865148e-06
3.7660801e-06
4.5195111e-06
5.3774044e-06
6.3846599e-06
7.555748e-06
8.9030349e-06
1.0432759e-05
1.2141324e-05
1.402341e-05
1.6074611e-05
1.824603e-05
2.0452574e-05
2.2482891e-05
2.387261e-05
2.5254664e-05
2.6659282e-05
2.807363e-05
2.9488094e-05
3.0934691e-05
3.2434055e-05
3.3955124e-05
3.5497774e-05
3.7071452e-05
3.8672519e-05
4.0293641e-05
4.1930358e-05
4.3582554e-05
4.5245603e-05
4.6912968e-05
4.857585e-05
5.0227091e-05
5.1858152e-05
5.3461447e-05
5.5031222e-05
5.6561581e-05
5.8046804e-05
5.9482264e-05
6.0863968e-05
6.2188791e-05
6.3455169e-05
6.4662432e-05
6.5810396e-05
6.689975e-05
6.7932163e-05
6.8909669e-05
6.9834805e-05
7.0710254e-05
7.1538621e-05
7.2322252e-05
7.3064439e-05
7.3765044e-05
7.443463e-05
7.5047325e-05
7.5616344e-05
7.6319966e-05
1.6824328e-07
1.6785067e-07
1.6745948e-07
1.6708829e-07
1.6677808e-07
1.6658682e-07
1.6657925e-07
1.6682272e-07
1.6739033e-07
1.6836403e-07
1.6983335e-07
1.7188913e-07
1.7461937e-07
1.7810447e-07
1.824207e-07
1.8763521e-07
1.9379574e-07
2.0093313e-07
2.0906611e-07
2.182074e-07
2.2839701e-07
2.3971937e-07
2.5219297e-07
2.6582447e-07
2.806654e-07
2.9682218e-07
3.1446509e-07
3.3384231e-07
3.5528645e-07
3.7922131e-07
4.061882e-07
4.3686288e-07
4.7208216e-07
5.1287147e-07
5.6050783e-07
6.1649678e-07
6.8272379e-07
7.6161294e-07
8.5610668e-07
9.6955557e-07
1.1065508e-06
1.2731346e-06
1.4772687e-06
1.7293962e-06
2.042736e-06
2.4337758e-06
2.920738e-06
3.5195867e-06
4.2476413e-06
5.1234284e-06
6.1661113e-06
7.3937261e-06
8.8203285e-06
1.0456031e-05
1.2308194e-05
1.4363935e-05
1.6579077e-05
1.8899826e-05
2.1256276e-05
2.3633781e-05
2.5604769e-05
2.7112598e-05
2.8629859e-05
3.0182421e-05
3.1768605e-05
3.3371452e-05
3.5018203e-05
3.6741541e-05
3.8508272e-05
4.0313272e-05
4.2168184e-05
4.407447e-05
4.6018035e-05
4.7989057e-05
4.9979754e-05
5.1979209e-05
5.3974896e-05
5.5958394e-05
5.7921315e-05
5.9854106e-05
6.1749238e-05
6.3600222e-05
6.5400323e-05
6.7144098e-05
6.8827994e-05
7.0449256e-05
7.200589e-05
7.3497033e-05
7.4922944e-05
7.6284622e-05
7.7583848e-05
7.8822816e-05
8.0003954e-05
8.112938e-05
8.220275e-05
8.3223212e-05
8.4202749e-05
8.5117312e-05
8.596408e-05
8.7033778e-05
1.6834499e-07
1.6795283e-07
1.6755436e-07
1.6715097e-07
1.667491e-07
1.6636025e-07
1.6600023e-07
1.6568869e-07
1.6544946e-07
1.6531142e-07
1.6530889e-07
1.6548129e-07
1.6587264e-07
1.6653061e-07
1.67506e-07
1.688521e-07
1.7062303e-07
1.7287208e-07
1.7565106e-07
1.7901031e-07
1.8300128e-07
1.8768021e-07
1.9310192e-07
1.993201e-07
2.0639245e-07
2.1438618e-07
2.2339055e-07
2.3356676e-07
2.45118e-07
2.5820622e-07
2.7302933e-07
2.89874e-07
3.0913211e-07
3.3131973e-07
3.5711023e-07
3.8734779e-07
4.2309383e-07
4.6571085e-07
5.1693717e-07
5.7893279e-07
6.545e-07
7.4733297e-07
8.6229777e-07
1.0057376e-06
1.1861633e-06
1.4147306e-06
1.7053512e-06
2.0737096e-06
2.5373337e-06
3.1155115e-06
3.8291237e-06
4.7001536e-06
5.7506232e-06
7.0018134e-06
8.4741119e-06
1.0180518e-05
1.2116384e-05
1.4259427e-05
1.6565602e-05
1.8999876e-05
2.1510031e-05
2.4053454e-05
2.6627738e-05
2.8805007e-05
3.0459529e-05
3.2132911e-05
3.3854746e-05
3.5627418e-05
3.7435101e-05
3.9302463e-05
4.127117e-05
4.3314332e-05
4.5416918e-05
4.7585952e-05
4.9810278e-05
5.2072376e-05
5.436198e-05
5.6671408e-05
5.8986084e-05
6.1292536e-05
6.3582308e-05
6.5844798e-05
6.8069224e-05
7.0247752e-05
7.2373669e-05
7.444075e-05
7.6444334e-05
7.8380975e-05
8.0248464e-05
8.204588e-05
8.3773427e-05
8.5432007e-05
8.7023239e-05
8.85485e-05
9.0011385e-05
9.1410077e-05
9.2757321e-05
9.4031411e-05
9.5214511e-05
9.6720869e-05
1.6852013e-07
1.6817101e-07
1.6780839e-07
1.6743179e-07
1.670426e-07
1.6664352e-07
1.6623863e-07
1.6583333e-07
1.6543444e-07
1.6505046e-07
1.6469193e-07
1.6437173e-07
1.6410543e-07
1.6391138e-07
1.6381087e-07
1.6382819e-07
1.6399055e-07
1.6432788e-07
1.6487252e-07
1.6565913e-07
1.6672469e-07
1.6810875e-07
1.6985332e-07
1.7200283e-07
1.7460439e-07
1.7770868e-07
1.8137245e-07
1.8566554e-07
1.9067377e-07
1.964941e-07
2.0324023e-07
2.1105226e-07
2.2010875e-07
2.3068354e-07
2.4315533e-07
2.57875e-07
2.7527302e-07
2.9595276e-07
3.2073214e-07
3.5069431e-07
3.8726199e-07
4.3231648e-07
4.8837085e-07
5.5879973e-07
6.4821789e-07
7.629674e-07
9.1158428e-07
1.1050458e-06
1.3572174e-06
1.684975e-06
2.1081652e-06
2.6492279e-06
3.3324259e-06
4.1828838e-06
5.2260555e-06
6.4858389e-06
7.9798334e-06
9.7153415e-06
1.168404e-05
1.3869541e-05
1.6240802e-05
1.8759544e-05
2.1400246e-05
2.4119843e-05
2.6879169e-05
2.9681791e-05
3.2157617e-05
3.3988423e-05
3.5842431e-05
3.7758257e-05
3.9740472e-05
4.1770181e-05
4.3879632e-05
4.6122495e-05
4.8443928e-05
5.0834578e-05
5.3307618e-05
5.5843832e-05
5.8420372e-05
6.102799e-05
6.3656088e-05
6.6285635e-05
6.8903578e-05
7.1499858e-05
7.4062258e-05
7.6580275e-05
7.904572e-05
8.1451138e-05
8.3790815e-05
8.6060903e-05
8.8258846e-05
9.0383174e-05
9.2433713e-05
9.44103e-05
9.6315734e-05
9.8146705e-05
9.991597e-05
0.00010160398
0.00010318086
0.00010518905
1.6867628e-07
1.6839167e-07
1.6809256e-07
1.677775e-07
1.6744638e-07
1.6709985e-07
1.6673926e-07
1.6636636e-07
1.6598325e-07
1.6559226e-07
1.6519623e-07
1.6479864e-07
1.6440394e-07
1.6401774e-07
1.6364702e-07
1.6330028e-07
1.6298776e-07
1.6272154e-07
1.6251566e-07
1.6238619e-07
1.6235138e-07
1.6243166e-07
1.6264987e-07
1.6303123e-07
1.6360356e-07
1.6439735e-07
1.6544633e-07
1.6678858e-07
1.6846776e-07
1.7053383e-07
1.7304473e-07
1.7606883e-07
1.7968813e-07
1.8400769e-07
1.8916534e-07
1.9532708e-07
2.0269561e-07
2.1152956e-07
2.2218232e-07
2.352094e-07
2.5122153e-07
2.7092997e-07
2.9535682e-07
3.2594355e-07
3.6471991e-07
4.1454054e-07
4.7941558e-07
5.6492952e-07
6.78814e-07
8.3161074e-07
1.0373481e-06
1.3141118e-06
1.6844375e-06
2.1748475e-06
2.8146527e-06
3.6338302e-06
4.6597229e-06
5.9134831e-06
7.4071051e-06
9.1448741e-06
1.1121697e-05
1.3323408e-05
1.573389e-05
1.8325855e-05
2.1064494e-05
2.3929628e-05
2.688697e-05
2.9893814e-05
3.2958523e-05
3.5737246e-05
3.7769739e-05
3.9818776e-05
4.1937164e-05
4.4134746e-05
4.6392097e-05
4.8760264e-05
5.1284026e-05
5.3894825e-05
5.6591205e-05
5.9383082e-05
6.2240912e-05
6.514076e-05
6.8075624e-05
7.1028632e-05
7.3979721e-05
7.6916115e-05
7.9824142e-05
8.2691094e-05
8.5507191e-05
8.8264336e-05
9.0955677e-05
9.3576049e-05
9.6122177e-05
9.859113e-05
0.00010098376
0.00010329439
0.00010553476
0.00010768667
0.00010971269
0.0001122805
1.6876845e-07
1.6852879e-07
1.6827881e-07
1.6801673e-07
1.6774161e-07
1.6745308e-07
1.6715131e-07
1.6683683e-07
1.6651031e-07
1.6617239e-07
1.6582367e-07
1.6546483e-07
1.6509672e-07
1.6472053e-07
1.6433789e-07
1.6395097e-07
1.6356262e-07
1.6317649e-07
1.6279713e-07
1.6243016e-07
1.6208236e-07
1.6176181e-07
1.6147805e-07
1.6124221e-07
1.6106711e-07
1.6096748e-07
1.6096006e-07
1.6106397e-07
1.6130104e-07
1.6169622e-07
1.6227817e-07
1.6308014e-07
1.6414087e-07
1.6550658e-07
1.6723394e-07
1.6939227e-07
1.7206644e-07
1.7536195e-07
1.794142e-07
1.8440841e-07
1.9058146e-07
1.9823197e-07
2.0775539e-07
2.1970977e-07
2.3498608e-07
2.5462438e-07
2.8004281e-07
3.1337908e-07
3.5778812e-07
4.1786957e-07
5.0025665e-07
6.1444433e-07
7.7388631e-07
9.9718435e-07
1.3090228e-06
1.7401951e-06
2.3259667e-06
3.1014222e-06
4.0953821e-06
5.3265999e-06
6.8034569e-06
8.5266247e-06
1.0494217e-05
1.269975e-05
1.5129832e-05
1.7770924e-05
2.0600655e-05
2.3584919e-05
2.6706596e-05
2.9936376e-05
3.3227947e-05
3.6592619e-05
3.9600156e-05
4.1821422e-05
4.4077567e-05
4.6420359e-05
4.8852273e-05
5.1351914e-05
5.4013254e-05
5.6840302e-05
5.9757525e-05
6.2780703e-05
6.5908593e-05
6.9102469e-05
7.2342277e-05
7.5617257e-05
7.890253e-05
8.2182122e-05
8.5441982e-05
8.8667567e-05
9.1846549e-05
9.496862e-05
9.802598e-05
0.00010101125
0.00010392187
0.00010674853
0.00010950051
0.00011215972
0.00011468579
0.00011786107
1.6881474e-07
1.6859842e-07
1.6837547e-07
1.6814449e-07
1.6790449e-07
1.6765479e-07
1.673951e-07
1.6712549e-07
1.6684614e-07
1.6655724e-07
1.6625886e-07
1.65951e-07
1.6563361e-07
1.6530667e-07
1.6497026e-07
1.6462458e-07
1.6427e-07
1.6390715e-07
1.6353697e-07
1.6316075e-07
1.6278026e-07
1.623978e-07
1.6201631e-07
1.6163947e-07
1.6127179e-07
1.6091878e-07
1.6058701e-07
1.6028432e-07
1.6001996e-07
1.598048e-07
1.5965159e-07
1.5957527e-07
1.5959332e-07
1.5972635e-07
1.5999889e-07
1.604404e-07
1.6108642e-07
1.6198017e-07
1.6317518e-07
1.6473969e-07
1.6676091e-07
1.6935003e-07
1.726516e-07
1.7685897e-07
1.8224764e-07
1.8918734e-07
1.981839e-07
2.0996243e-07
2.2569958e-07
2.4707254e-07
2.7632677e-07
3.1697788e-07
3.7443258e-07
4.5689405e-07
5.7662712e-07
7.5160845e-07
1.0072437e-06
1.3770081e-06
1.9004617e-06
2.6175689e-06
3.5611511e-06
4.7509265e-06
6.1943668e-06
7.8914551e-06
9.8392631e-06
1.2036295e-05
1.4479024e-05
1.7155853e-05
2.0055051e-05
2.3156835e-05
2.6426009e-05
2.984673e-05
3.3386142e-05
3.6998144e-05
4.0696347e-05
4.3789906e-05
4.6219985e-05
4.8702078e-05
5.1291218e-05
5.3972647e-05
5.6741961e-05
5.9729408e-05
6.287864e-05
6.6135775e-05
6.9512815e-05
7.2992071e-05
7.6532957e-05
8.0125821e-05
8.3749391e-05
8.7379931e-05
9.100061e-05
9.4593971e-05
9.814684e-05
0.00010164531
0.00010508218
0.00010844283
0.00011173222
0.00011493102
0.00011799803
0.00012181443
1.6883646e-07
1.686309e-07
1.6842079e-07
1.6820515e-07
1.6798326e-07
1.6775448e-07
1.6751849e-07
1.6727519e-07
1.6702466e-07
1.6676699e-07
1.6650218e-07
1.6623016e-07
1.6595076e-07
1.656638e-07
1.6536905e-07
1.6506631e-07
1.6475536e-07
1.6443607e-07
1.6410834e-07
1.6377216e-07
1.6342768e-07
1.6307516e-07
1.6271509e-07
1.6234822e-07
1.619756e-07
1.6159865e-07
1.6121926e-07
1.6083983e-07
1.604634e-07
1.6009374e-07
1.5973548e-07
1.5939425e-07
1.5907689e-07
1.5879158e-07
1.585482e-07
1.5835865e-07
1.5823731e-07
1.5820155e-07
1.5827259e-07
1.5847665e-07
1.5884647e-07
1.594232e-07
1.6025925e-07
1.6142259e-07
1.6300415e-07
1.651265e-07
1.6795701e-07
1.7172982e-07
1.7679359e-07
1.8366268e-07
1.9307997e-07
2.0617118e-07
2.2480736e-07
2.5182631e-07
2.9141196e-07
3.5036751e-07
4.3948825e-07
5.7534852e-07
7.8226984e-07
1.0935332e-06
1.5503248e-06
2.1969758e-06
3.0722825e-06
4.2019333e-06
5.5961441e-06
7.2552981e-06
9.177461e-06
1.1361399e-05
1.3808645e-05
1.6518668e-05
1.948024e-05
2.268165e-05
2.6100489e-05
2.9699391e-05
3.3463301e-05
3.7344808e-05
4.1310904e-05
4.5375679e-05
4.8390545e-05
5.1039038e-05
5.3767973e-05
5.6620286e-05
5.9561629e-05
6.2674923e-05
6.6008773e-05
6.9494405e-05
7.3114485e-05
7.6867467e-05
8.0717947e-05
8.4634498e-05
8.8599851e-05
9.2585719e-05
9.6574585e-05
0.0001005438
0.00010448122
0.00010836481
0.00011219326
0.00011594499
0.00011957338
0.0001240439
1.6884598e-07
1.6864503e-07
1.6844053e-07
1.6823184e-07
1.6801842e-07
1.6779982e-07
1.6757574e-07
1.6734609e-07
1.6711093e-07
1.6687033e-07
1.6662433e-07
1.6637292e-07
1.6611599e-07
1.6585342e-07
1.6558504e-07
1.6531064e-07
1.6503001e-07
1.6474293e-07
1.6444916e-07
1.6414847e-07
1.6384065e-07
1.635255e-07
1.6320286e-07
1.6287264e-07
1.6253482e-07
1.6218948e-07
1.6183683e-07
1.6147726e-07
1.6111139e-07
1.6074007e-07
1.6036452e-07
1.599863e-07
1.5960749e-07
1.5923073e-07
1.5885931e-07
1.5849739e-07
1.581501e-07
1.5782377e-07
1.5752623e-07
1.5726714e-07
1.5705852e-07
1.5691533e-07
1.568564e-07
1.5690567e-07
1.5709416e-07
1.5746265e-07
1.5806588e-07
1.5897873e-07
1.603075e-07
1.6220644e-07
1.6490108e-07
1.6872928e-07
1.7422398e-07
1.822219e-07
1.9402707e-07
2.1175186e-07
2.3912707e-07
2.8174937e-07
3.4872412e-07
4.5457087e-07
6.2123624e-07
8.7987974e-07
1.270996e-06
1.8412707e-06
2.6361701e-06
3.6901318e-06
5.0210162e-06
6.6325803e-06
8.5231393e-06
1.0693235e-05
1.3145276e-05
1.5883725e-05
1.8908126e-05
2.2204994e-05
2.5761035e-05
2.9544433e-05
3.3518742e-05
3.7670012e-05
4.1924945e-05
4.627777e-05
5.0563226e-05
5.345886e-05
5.633946e-05
5.9339392e-05
6.2463369e-05
6.5692903e-05
6.9202876e-05
7.2908849e-05
7.6786718e-05
8.0811377e-05
8.4964503e-05
8.9205453e-05
9.351491e-05
9.7861154e-05
0.00010222717
0.00010658109
0.00011091404
0.00011520141
0.00011937785
0.0001244852
1.6884954e-07
1.6865036e-07
1.6844808e-07
1.6824228e-07
1.6803259e-07
1.6781865e-07
1.6760024e-07
1.6737729e-07
1.6714983e-07
1.6691795e-07
1.6668172e-07
1.6644116e-07
1.6619626e-07
1.6594695e-07
1.6569315e-07
1.6543475e-07
1.6517162e-07
1.6490361e-07
1.6463055e-07
1.6435228e-07
1.6406859e-07
1.6377929e-07
1.6348417e-07
1.6318302e-07
1.6287563e-07
1.6256179e-07
1.6224135e-07
1.6191415e-07
1.6158009e-07
1.6123915e-07
1.6089138e-07
1.6053698e-07
1.6017627e-07
1.5980976e-07
1.5943824e-07
1.5906274e-07
1.5868469e-07
1.5830598e-07
1.5792902e-07
1.5755692e-07
1.5719362e-07
1.5684415e-07
1.5651486e-07
1.562138e-07
1.5595135e-07
1.5574092e-07
1.5560022e-07
1.5555301e-07
1.5563204e-07
1.5588363e-07
1.5637469e-07
1.5720407e-07
1.5852309e-07
1.6056821e-07
1.6371295e-07
1.6856183e-07
1.7614384e-07
1.8814033e-07
2.0734967e-07
2.3866207e-07
2.8975662e-07
3.7284102e-07
5.0699371e-07
7.2020773e-07
1.0506955e-06
1.5455147e-06
2.2551124e-06
3.2238468e-06
4.4802861e-06
6.0358943e-06
7.8913325e-06
1.0046529e-05
1.2506114e-05
1.5275619e-05
1.8360951e-05
2.1757133e-05
2.5446824e-05
2.9414127e-05
3.3610532e-05
3.8005097e-05
4.2575729e-05
4.7234453e-05
5.2004752e-05
5.5902093e-05
5.9014997e-05
6.2166484e-05
6.5473045e-05
6.8883431e-05
7.2538669e-05
7.6451022e-05
8.0568003e-05
8.486632e-05
8.93148e-05
9.3885512e-05
9.8549958e-05
0.00010326803
0.00010802169
0.00011278222
0.00011745279
0.00012313142
1.6885026e-07
1.6865155e-07
1.6844994e-07
1.6824515e-07
1.6803693e-07
1.67825e-07
1.6760918e-07
1.673894e-07
1.6716571e-07
1.6693817e-07
1.6670687e-07
1.6647185e-07
1.6623312e-07
1.6599069e-07
1.6574453e-07
1.6549458e-07
1.652408e-07
1.6498311e-07
1.6472143e-07
1.6445565e-07
1.6418568e-07
1.6391138e-07
1.6363263e-07
1.6334928e-07
1.6306116e-07
1.6276812e-07
1.6246997e-07
1.6216653e-07
1.6185761e-07
1.6154302e-07
1.612226e-07
1.6089619e-07
1.6056366e-07
1.6022492e-07
1.5987996e-07
1.5952883e-07
1.5917171e-07
1.5880889e-07
1.5844088e-07
1.5806838e-07
1.5769239e-07
1.5731428e-07
1.5693586e-07
1.5655951e-07
1.5618836e-07
1.5582651e-07
1.5547935e-07
1.5515412e-07
1.5486062e-07
1.5461252e-07
1.5442926e-07
1.5433916e-07
1.5438471e-07
1.5463138e-07
1.5518223e-07
1.5620331e-07
1.5797191e-07
1.609516e-07
1.659252e-07
1.7425019e-07
1.8820838e-07
2.116131e-07
2.5106139e-07
3.1677783e-07
4.2492848e-07
6.0007914e-07
8.7718891e-07
1.3021025e-06
1.9282355e-06
2.8084003e-06
3.984062e-06
5.4770586e-06
7.2940617e-06
9.4353493e-06
1.1905036e-05
1.4711495e-05
1.786174e-05
2.1360801e-05
2.5193218e-05
2.9336439e-05
3.3766348e-05
3.8420145e-05
4.3276374e-05
4.8269837e-05
5.3368097e-05
5.8450389e-05
6.1819758e-05
6.5167462e-05
6.8626087e-05
7.2228642e-05
7.6024462e-05
8.0145398e-05
8.4480913e-05
8.9065494e-05
9.3828521e-05
9.8742276e-05
0.00010377082
0.00010888202
0.00011395572
0.00012006479
1.6884968e-07
1.6865086e-07
1.6844924e-07
1.6824462e-07
1.6803682e-07
1.6782563e-07
1.676109e-07
1.6739258e-07
1.6717069e-07
1.6694529e-07
1.6671645e-07
1.6648423e-07
1.6624865e-07
1.6600974e-07
1.6576751e-07
1.6552194e-07
1.6527303e-07
1.6502074e-07
1.6476504e-07
1.645059e-07
1.6424327e-07
1.6397709e-07
1.6370729e-07
1.6343381e-07
1.6315655e-07
1.6287543e-07
1.6259033e-07
1.6230114e-07
1.6200773e-07
1.6170996e-07
1.6140769e-07
1.6110076e-07
1.6078901e-07
1.6047227e-07
1.6015039e-07
1.5982322e-07
1.5949061e-07
1.5915248e-07
1.5880875e-07
1.5845942e-07
1.5810457e-07
1.5774437e-07
1.5737914e-07
1.5700937e-07
1.5663576e-07
1.5625932e-07
1.5588143e-07
1.5550401e-07
1.551297e-07
1.5476222e-07
1.5440686e-07
1.5407131e-07
1.5376704e-07
1.535116e-07
1.5333243e-07
1.5327357e-07
1.5340775e-07
1.5385707e-07
1.5482914e-07
1.5668384e-07
1.6004237e-07
1.6597276e-07
1.7633756e-07
1.9425778e-07
2.2493729e-07
2.7724274e-07
3.6471103e-07
5.08595e-07
7.4034892e-07
1.1034019e-06
1.6522874e-06
2.4463404e-06
3.5388508e-06
4.9656589e-06
6.7417733e-06
8.8708279e-06
1.1355403e-05
1.4205437e-05
1.7430461e-05
2.1035568e-05
2.5019182e-05
2.9352225e-05
3.4007856e-05
3.8934648e-05
4.4085214e-05
4.9435029e-05
5.4876613e-05
6.0441635e-05
6.4718361e-05
6.830398e-05
7.1944752e-05
7.5746199e-05
7.9686579e-05
8.4020705e-05
8.8609776e-05