/*--------------------------------*- C++ -*----------------------------------*\
| =========                 |                                                 |
| \\      /  F ield         | OpenFOAM: The Open Source CFD Toolbox           |
|  \\    /   O peration     | Version:  2206                                  |
|   \\  /    A nd           | Website:  www.openfoam.com                      |
|    \\/     M anipulation  |                                                 |
\*---------------------------------------------------------------------------*/
FoamFile
{
    version     2.0;
    format      ascii;
    arch        "LSB;label=32;scalar=64";
    class       volScalarField;
    location    "400";
    object      omega;
}
// * * * * * * * * * * * * * * * * * * * * * * * * * * * * * * * * * * * * * //

dimensions      [0 0 -1 0 0 0 0];

internalField   nonuniform List<scalar> 
7480
(
7569.1019
7590.81
7571.1074
7538.1525
7512.5636
7498.0756
7491.1189
7487.7286
7485.8493
7484.6256
7483.6802
7482.8693
7482.1627
7481.5514
7481.0213
7480.5594
7480.156
7479.8016
7479.4863
7479.2038
7478.9501
7478.7211
7478.5129
7478.3231
7478.1497
7477.9906
7477.8441
7477.7089
7477.5841
7477.4686
7477.3616
7477.2623
7477.1704
7477.0851
7477.006
7476.9327
7476.865
7476.8025
7476.7451
7476.6925
7476.6449
7476.6019
7476.5637
7476.5303
7476.5017
7476.4785
7476.4604
7476.4481
7476.4415
7476.4406
7476.4451
7476.4548
7476.4691
7476.4872
7476.5081
7476.5312
7476.5551
7476.5778
7476.5973
7476.612
7476.6219
7476.627
7476.6279
7476.625
7476.6193
7476.6114
7476.602
7476.5916
7476.5806
7476.5692
7476.5577
7476.5461
7476.5346
7476.5233
7476.5121
7476.501
7476.4902
7476.479
7476.4676
7476.4562
7476.4446
7476.4331
7476.4215
7476.4098
7476.398
7476.3861
7476.3742
7476.3622
7476.3502
7476.3381
7476.326
7476.3139
7476.3019
7476.2898
7476.2778
7476.2653
7476.2544
7476.2387
7476.2299
7476.2059
1003.2446
1574.4089
1842.5095
1920.7985
1937.0497
1923.8812
1863.1759
1797.8192
1744.1933
1704.0023
1673.3593
1647.7011
1624.4808
1603.0689
1583.2761
1564.8937
1547.8464
1532.2246
1517.8681
1504.5607
1492.2094
1480.7907
1470.197
1460.3154
1451.1002
1442.5245
1434.5169
1427.0089
1419.9694
1413.3747
1407.1827
1401.3579
1395.8841
1390.7448
1385.9157
1381.3786
1377.1243
1373.1413
1369.4158
1365.94
1362.7121
1359.7295
1356.9893
1354.4954
1352.2392
1350.2348
1348.4768
1346.9695
1345.7271
1344.742
1344.0353
1343.64
1343.451
1343.4358
1343.5567
1343.7755
1344.0496
1344.3184
1344.5257
1344.6206
1344.5786
1344.3977
1344.1229
1343.7462
1343.2663
1342.7066
1342.0886
1341.433
1340.7554
1340.0677
1339.3788
1338.6955
1338.0213
1337.3594
1336.7125
1336.0801
1335.4652
1334.8587
1334.2559
1333.6582
1333.0656
1332.4783
1331.8957
1331.3152
1330.7364
1330.1583
1329.5809
1329.0042
1328.4284
1327.8543
1327.2816
1326.7111
1326.1434
1325.5771
1325.0169
1324.4457
1323.9004
1323.3382
1322.6628
1322.0512
190.66672
396.63063
585.95657
709.20255
769.25151
785.37981
782.08773
789.21009
803.67891
812.84267
819.3265
823.54477
825.04447
824.14774
821.42019
817.40113
811.93867
805.28442
797.69681
789.39416
780.58875
771.48484
762.2261
752.91652
743.66086
734.55358
725.61065
716.83233
708.23472
699.84135
691.66663
683.72054
676.01666
668.56743
661.38011
654.46264
647.82474
641.46653
635.38525
629.58153
624.06147
618.83275
613.90291
609.28312
604.98041
600.99264
597.33452
593.97322
590.90137
588.10999
585.63611
583.48445
581.54938
579.79669
578.20135
576.71013
575.26122
573.8131
572.35757
570.89251
569.41315
567.90692
566.45559
565.01093
563.55504
562.09054
560.62359
559.16307
557.71731
556.29325
554.89635
553.53105
552.2005
550.90675
549.6516
548.43417
547.25524
546.13704
545.0631
544.02052
543.00267
542.00637
541.0298
540.06937
539.12314
538.18879
537.26511
536.35113
535.44599
534.54969
533.66144
532.78132
531.90943
531.04414
530.18941
529.32868
528.49442
527.65729
526.73895
525.65083
72.002826
121.36414
193.99428
267.72226
324.62253
359.73307
377.80336
386.77802
392.44901
397.56593
404.51664
415.22592
426.20808
437.93244
452.27986
470.5515
485.14218
496.53367
505.30369
511.86244
516.5341
519.61034
521.35032
522.02357
521.94588
521.36349
520.00548
517.81996
514.89497
511.35466
507.31821
502.88944
498.15918
493.20789
488.11014
482.94031
477.74596
472.51014
467.23245
461.93006
456.6292
451.35752
446.14043
441.00228
435.97174
431.03881
426.19145
421.38893
416.62197
411.89907
407.24242
402.75109
398.32641
393.97993
389.74709
385.58287
381.45191
377.39851
373.50949
369.85336
366.44946
363.31486
360.48419
357.88236
355.4598
353.181
351.01895
348.95483
346.97578
345.07309
343.24066
341.47494
339.77381
338.13491
336.55664
335.0364
333.57333
332.19263
330.88655
329.63952
328.44136
327.28658
326.17245
325.09517
324.05183
323.03917
322.05448
321.09543
320.15961
319.24551
318.35121
317.4755
316.61719
315.77431
314.94819
314.12902
313.32629
312.57425
311.72081
310.76023
55.641826
64.53225
83.910447
111.34886
140.42057
165.52766
184.5823
198.13104
207.74175
214.78828
220.42073
225.66371
230.9604
236.8326
244.10011
253.54859
263.34637
273.15057
282.747
292.00507
300.83137
309.30622
317.7231
326.71542
337.34826
349.83614
359.69466
366.92532
372.20637
375.98799
378.57644
380.19285
381.01563
381.21243
380.97418
380.51229
379.80465
378.45911
376.47195
373.92802
370.92259
367.53819
363.84276
359.89764
355.77652
351.47858
346.94148
342.14237
337.10763
331.88271
326.51635
321.06885
315.61354
310.16024
304.74511
299.3223
293.91732
288.65315
283.6492
278.98463
274.72258
270.87754
267.40913
264.26077
261.37879
258.71667
256.23484
253.90224
251.69519
249.59591
247.59159
245.6742
243.8365
242.07265
240.37863
238.75058
237.18744
235.69208
234.26732
232.9091
231.61166
230.37055
229.18317
228.0462
226.95675
225.91144
224.90703
223.9405
223.00865
222.10899
221.23913
220.39681
219.57982
218.78589
218.01452
217.26027
216.5201
215.85144
215.10198
214.2836
53.509706
54.437264
58.088129
65.265272
75.158032
86.041409
96.433784
105.64108
113.54109
120.26063
125.96624
130.8725
135.18414
139.11318
142.94238
147.01071
151.41932
156.27045
161.71006
167.8186
174.15733
180.72481
187.52668
194.6151
202.10223
210.07147
218.05369
225.69117
232.80976
239.34846
245.32085
250.80648
255.97635
261.16059
266.96936
274.12283
281.53568
286.10515
288.75107
290.0804
290.44716
290.06846
289.09704
287.6791
285.99479
284.19304
281.82783
278.80476
275.225
271.19663
266.81977
262.19256
257.4154
252.51975
247.55791
242.60234
237.70761
232.95721
228.43141
224.18128
220.22791
216.57835
213.21561
210.11146
207.23602
204.55895
202.05119
199.6886
197.451
195.32186
193.28861
191.34301
189.47763
187.68654
185.96548
184.31054
182.72079
181.19116
179.72308
178.31815
176.97545
175.693
174.46918
173.30157
172.18773
171.12467
170.10931
169.13857
168.20907
167.31794
166.4624
165.63982
164.84761
164.08332
163.34557
162.63088
161.93261
161.30361
160.6318
159.89053
53.224245
52.808668
52.959022
54.08512
56.273137
59.363576
62.97323
66.789146
70.617573
74.355803
77.933708
81.305236
84.448629
87.361821
90.075708
92.658952
95.181723
97.714602
100.34167
103.15357
106.19331
109.52895
113.24344
117.38769
121.86592
126.72745
131.94266
137.42761
143.08554
148.83252
154.59602
160.31892
165.97005
171.55942
177.1426
182.82558
188.52924
193.80416
198.43823
202.38656
205.68573
208.42318
210.75081
212.9479
215.47885
218.47733
219.85323
219.67068
218.48959
216.62324
214.29204
211.69576
209.00198
205.97341
202.55496
199.05046
195.61303
192.28948
189.03932
185.87149
182.81302
179.87788
177.06716
174.38305
171.82587
169.38845
167.06121
164.83729
162.70737
160.66249
158.69557
156.8018
154.97728
153.21928
151.52538
149.89264
148.32076
146.80555
145.34574
143.94298
142.59844
141.31214
140.08367
138.91159
137.79406
136.72879
135.71322
134.7446
133.81975
132.93586
132.08999
131.2795
130.5019
129.75477
129.0364
128.34407
127.67157
127.05894
126.43659
125.73457
53.16211
52.542458
52.02072
51.7126
51.711896
52.046728
52.632782
53.45487
54.479133
55.668222
56.982473
58.383971
59.83746
61.310038
62.776374
64.223883
65.650457
67.061178
68.470442
69.902313
71.382799
72.943195
74.623546
76.469503
78.517599
80.819436
83.431882
86.358812
89.554887
93.018282
96.73864
100.69631
104.86828
109.235
113.78746
118.52626
123.43145
128.41046
133.35917
138.18128
142.79609
147.1416
151.17462
154.87928
158.27784
161.33631
163.87921
165.76661
166.99889
167.66918
167.93013
167.98186
167.97556
167.24262
165.7303
163.8817
162.05438
160.27382
158.31809
156.28908
154.24917
152.19795
150.13112
148.07062
146.03329
144.02288
142.04575
140.11408
138.22631
136.38297
134.58569
132.83576
131.13381
129.48283
127.88347
126.33416
124.83624
123.38805
121.98764
120.63586
119.33429
118.0841
116.8859
115.73927
114.64306
113.59592
112.59621
111.64183
110.73006
109.85854
109.02468
108.2261
107.46069
106.72624
106.0211
105.34291
104.68718
104.08147
103.4892
102.80754
53.125755
52.475451
51.83896
51.240597
50.710718
50.272154
49.929127
49.683934
49.538708
49.482682
49.493609
49.598052
49.795912
50.077216
50.428415
50.836413
51.29098
51.783948
52.310054
52.86795
53.45944
54.089206
54.765985
55.503132
56.316839
57.227967
58.263099
59.448122
60.804523
62.358149
64.139082
66.149979
68.388115
70.859826
73.576527
76.547079
79.777867
83.261559
86.975484
90.888887
94.965915
99.166094
103.44544
107.75787
112.06338
116.26246
120.21072
123.79661
126.93149
129.55896
131.6523
133.21389
134.27454
134.88094
135.0406
134.79173
134.37288
133.84367
132.99369
132.01054
130.9896
129.84361
128.54359
127.16093
125.72131
124.22413
122.69166
121.14267
119.58395
118.02491
116.47488
114.9414
113.42966
111.95202
110.51069
109.10376
107.73586
106.40658
105.11381
103.85879
102.64314
101.46836
100.33567
99.245554
98.19736
97.191109
96.22636
95.301874
94.415417
93.565526
92.750358
91.968007
91.217142
90.495832
89.802806
89.136116
88.493083
87.891606
87.31789
86.648128
53.095738
52.438906
51.782832
51.131378
50.491372
49.870161
49.273263
48.705323
48.171123
47.674433
47.216812
46.802339
46.434602
46.115311
45.829918
45.572542
45.355837
45.185248
45.060968
44.981469
44.944651
44.948078
44.990851
45.074455
45.202334
45.379893
45.615051
45.917724
46.299236
46.772953
47.355114
48.06174
48.909366
49.917453
51.109723
52.492716
54.083323
55.900196
57.954901
60.256243
62.813424
65.633192
68.719744
72.074564
75.697564
79.568127
83.603348
87.701118
91.757238
95.664413
99.317289
102.61746
105.48063
107.85122
109.69071
110.92156
111.55144
111.75783
111.74049
111.55992
111.32146
110.95808
110.41682
109.76892
109.01218
108.0902
107.06653
105.96584
104.79356
103.57122
102.31528
101.04117
99.759254
98.501815
97.263596
96.042077
94.840671
93.661222
92.503918
91.370316
90.262284
89.181621
88.130255
87.109594
86.119125
85.160499
84.235884
83.344818
82.485726
81.65788
80.860382
80.091991
79.35262
78.640493
77.954964
77.294667
76.658427
76.057362
75.492524
74.827668
53.069381
52.409169
51.747926
51.085921
50.424278
49.764542
49.108479
48.458122
47.815879
47.184355
46.566023
45.963436
45.379175
44.81565
44.273576
43.75308
43.255558
42.782798
42.33642
41.917587
41.521915
41.139111
40.773979
40.436013
40.131237
39.863151
39.634374
39.447186
39.304068
39.20911
39.168411
39.189419
39.280859
39.453023
39.718295
40.089253
40.580891
41.211563
42.001283
42.961244
44.111552
45.474215
47.073299
48.934983
51.087779
53.562207
56.376996
59.520495
62.963097
66.651818
70.509161
74.433342
78.301638
81.983824
85.356887
88.279596
90.621776
92.35347
93.516808
94.220454
94.584656
94.753502
94.782306
94.707175
94.543204
94.220522
93.780442
93.222787
92.517306
91.712043
90.827257
89.891722
88.91528
87.932558
86.937141
85.930097
84.917217
83.902478
82.888978
81.880555
80.880531
79.892051
78.918559
77.962864
77.026654
76.112313
75.222363
74.358033
73.519645
72.707505
71.921666
71.16187
70.428093
69.719652
69.036519
68.377707
67.743322
67.139838
66.577315
65.912768
53.031382
52.367289
51.702329
51.036266
50.369083
49.700827
49.031759
48.362473
47.693888
47.027149
46.363498
45.704245
45.050768
44.404497
43.766749
43.138702
42.52155
41.916523
41.324879
40.747858
40.186144
39.63935
39.107636
38.592131
38.094457
37.616383
37.159011
36.716543
36.283814
35.869414
35.483752
35.134017
34.825333
34.561704
34.346836
34.185908
34.085977
34.056038
34.106908
34.250069
34.499384
34.871992
35.387503
36.065744
36.934761
38.02905
39.388166
41.050997
43.053561
45.423528
48.173232
51.291252
54.733709
58.419666
62.234479
66.024688
69.602598
72.794933
75.471481
77.594934
79.177344
80.296829
81.051645
81.519937
81.791973
81.93351
81.956116
81.881964
81.674642
81.356
80.921037
80.39234
79.78972
79.120953
78.39384
77.621862
76.815424
75.980695
75.124131
74.252538
73.371282
72.485409
71.600162
70.719737
69.847553
68.987232
68.141969
67.314168
66.505546
65.717386
64.950639
64.205908
63.483703
62.784123
62.107558
61.453401
60.822758
60.219279
59.658585
58.995438
52.97301
52.293824
51.616126
50.93956
50.263708
49.588065
48.912266
48.236241
47.560206
46.884569
46.209821
45.536494
44.865166
44.196465
43.53106
42.869647
42.212961
41.561772
40.916892
40.279166
39.64942
39.028356
38.416622
37.814918
37.22403
36.644835
36.078219
35.524385
34.982988
34.454623
33.940943
33.444164
32.966438
32.503905
32.049706
31.613688
31.208267
30.8415
30.518998
30.244792
30.023848
29.863842
29.774764
29.768657
29.860915
30.071838
30.426802
30.955845
31.697607
32.697335
34.00502
35.671093
37.739118
40.234413
43.151692
46.440395
49.990491
53.637842
57.185382
60.456153
63.312822
65.686333
67.581106
69.022293
70.070209
70.812556
71.306161
71.622899
71.813366
71.884984
71.857721
71.720426
71.491726
71.181542
70.770342
70.28344
69.734137
69.127278
68.47125
67.775905
67.048927
66.297208
65.528192
64.747819
63.961434
63.174501
62.391331
61.615633
60.850556
60.098487
59.361438
58.640955
57.938278
57.254308
56.590002
55.945295
55.322124
54.722431
54.165162
53.505493
52.922145
52.2221
51.524472
50.829286
50.13633
49.445177
48.755412
48.06681
47.37938
46.693304
46.008838
45.326265
44.645877
43.967981
43.292895
42.62095
41.952494
41.287893
40.627532
39.971819
39.32118
38.67605
38.036866
37.40408
36.778168
36.159632
35.54901
34.946803
34.353424
33.7693
33.194993
32.631236
32.078896
31.538317
31.009069
30.49187
29.988725
29.502257
29.033358
28.572327
28.123567
27.702423
27.318731
26.97868
26.686921
26.450597
26.280833
26.192608
26.205953
26.347451
26.651273
27.15992
27.926822
29.013246
30.482395
32.387722
34.754147
37.555956
40.702045
44.045249
47.404163
50.600354
53.498249
56.005829
58.083084
59.749392
61.034137
61.984413
62.673833
63.14692
63.466869
63.65662
63.7361
63.7354
63.643941
63.468687
63.221882
62.887687
62.475153
61.999815
61.469179
60.8894
60.271076
59.621803
58.948643
58.259567
57.560142
56.855676
56.151051
55.449931
54.755665
54.070894
53.397775
52.738135
52.093622
51.464857
50.854538
50.263682
49.713222
49.060481
52.89219
52.177449
51.464342
50.753213
50.044188
49.337156
48.631933
47.928407
47.226611
46.526703
45.828914
45.133504
44.440746
43.750919
43.064304
42.381184
41.701841
41.026562
40.35563
39.68933
39.027947
38.371765
37.721061
37.076112
36.437193
35.804577
35.178537
34.559349
33.947275
33.342573
32.74551
32.156386
31.575541
31.003299
30.439893
29.885606
29.340903
28.806472
28.283006
27.770024
27.267621
26.777651
26.302825
25.843825
25.389264
24.948975
24.539361
24.170029
23.847947
23.581719
23.385755
23.280463
23.294018
23.464689
23.842483
24.488587
25.473729
26.865299
28.707343
30.998891
33.67924
36.629583
39.696254
42.715622
45.541345
48.07336
50.251556
52.052545
53.500511
54.624389
55.463845
56.074544
56.49699
56.773884
56.947104
57.029828
57.039441
56.970105
56.821825
56.606
56.311907
55.9409
55.511613
55.029442
54.5018
53.940525
53.35126
52.741307
52.117804
51.485753
50.850232
50.215174
49.583889
48.959365
48.344069
47.739477
47.149059
46.573456
46.034927
45.394028
52.877284
52.154517
51.432496
50.711654
49.992268
49.274425
48.558127
47.843393
47.130319
46.419081
45.709917
45.003094
44.298895
43.597615
42.899552
42.205004
41.514271
40.827651
40.145441
39.467931
38.79541
38.128159
37.466455
36.810564
36.160746
35.517251
34.880319
34.250179
33.627048
33.011128
32.402607
31.801666
31.208477
30.623199
30.045976
29.476941
28.916234
28.364027
27.820522
27.285823
26.760015
26.243367
25.736412
25.239673
24.752294
24.274723
23.809307
23.359172
22.916772
22.4813
22.07411
21.708176
21.393377
21.142907
20.978503
20.931431
21.045007
21.376069
21.991603
22.960177
24.337528
26.145129
28.354686
30.883899
33.606877
36.380132
39.064893
41.544135
43.744158
45.625555
47.176064
48.419328
49.38152
50.094746
50.614947
50.979793
51.21691
51.35951
51.431291
51.433717
51.363809
51.220641
51.017041
50.736353
50.386817
49.987752
49.538725
49.050612
48.533285
47.992261
47.434973
46.866684
46.292153
45.715879
45.141273
44.570929
44.009164
43.456662
42.936909
42.314324
52.8707
52.143861
51.417202
50.691162
49.966059
49.242066
48.519278
47.797786
47.077723
46.359278
45.642686
44.92821
44.216134
43.506751
42.800363
42.097276
41.397794
40.702225
40.010873
39.32404
38.642024
37.965119
37.293612
36.627786
35.967914
35.314261
34.667086
34.026635
33.393144
32.766837
32.147924
31.536603
30.933055
30.337448
29.749928
29.170629
28.599663
28.03713
27.483115
26.937684
26.40088
25.872741
25.353334
24.842751
24.340946
23.847918
23.36393
22.889562
22.424439
21.968196
21.523113
21.092722
20.670064
20.257006
19.877928
19.548131
19.282039
19.103336
19.046941
19.160105
19.502023
20.137806
21.12706
22.508555
24.282316
26.400308
28.769876
31.267882
33.765354
36.145946
38.31627
40.221734
41.835905
43.153786
44.203811
45.010299
45.605667
46.034839
46.336899
46.527011
46.632445
46.680556
46.663688
46.578812
46.428757
46.226879
45.945668
45.608487
45.226355
44.801819
44.346242
43.865341
43.365686
42.85366
42.333638
41.809742
41.287238
40.767255
40.274859
39.678717
52.868511
52.139618
51.410578
50.681822
49.953684
49.226376
48.50004
47.774808
47.05083
46.328298
45.607439
44.888505
44.17177
43.457518
42.746043
42.037642
41.332616
40.631268
39.933896
39.2408
38.552277
37.868617
37.190109
36.517035
35.84967
35.188284
34.53314
33.884492
33.242586
32.607657
31.979933
31.359629
30.746949
30.142085
29.545214
28.9565
28.376091
27.804119
27.240697
26.685922
26.139872
25.602601
25.074153
24.554557
24.043817
23.541918
23.048864
22.564709
22.089441
21.623003
21.165606
20.717844
20.279409
19.850305
19.433566
19.033731
18.637128
18.267073
17.945951
17.691305
17.528862
17.496135
17.642351
18.025126
18.705062
19.731194
21.125041
22.868435
24.899029
27.119275
29.411577
31.660868
33.768771
35.660602
37.299335
38.669258
39.775911
40.648483
41.308076
41.789938
42.130155
42.3653
42.500539
42.572851
42.589115
42.546151
42.439709
42.27852
42.061275
41.778555
41.451387
41.081525
40.678216
40.249802
39.801155
39.338562
38.868149
38.392008
37.937319
37.377632
52.868685
52.138752
51.408467
50.67826
49.948473
49.219345
48.491053
47.763753
47.037613
46.312823
45.589604
44.868202
44.148877
43.431904
42.717566
42.006151
41.297949
40.593254
39.892355
39.195545
38.503109
37.815333
37.132494
36.454869
35.782726
35.116329
34.455933
33.801789
33.154138
32.513214
31.879243
31.252443
30.63302
30.021173
29.417087
28.820941
28.232899
27.653111
27.081718
26.518845
25.964601
25.41908
24.882363
24.354512
23.835575
23.325583
22.82456
22.332524
21.849486
21.375446
20.910423
20.454497
20.007695
19.570038
19.141902
18.724154
18.315869
17.919218
17.538967
17.166561
16.819799
16.523834
16.297819
16.17009
16.180446
16.378989
16.821089
17.562028
18.638148
20.054955
21.777634
23.731946
25.816977
27.920728
29.941852
31.798305
33.434619
34.829427
35.974738
36.886622
37.59295
38.114889
38.486702
38.74684
38.914651
38.993635
39.032508
39.015888
38.943422
38.816107
38.643955
38.407962
38.124202
37.801792
37.444165
37.060891
36.658063
36.239545
35.834759
35.323906
52.870179
52.139724
51.408778
50.677766
49.947038
49.216856
48.487423
47.75892
47.031529
46.305445
45.580889
44.858098
44.137328
43.418844
42.702921
41.989839
41.279881
40.573331
39.870471
39.171584
38.476949
37.786841
37.10153
36.421284
35.746361
35.077018
34.413501
33.756051
33.104901
32.460279
31.822402
31.191479
30.567712
29.951294
29.342407
28.741226
28.147914
27.562627
26.985507
26.416686
25.856286
25.304415
24.761172
24.22664
23.700892
23.183991
22.675986
22.176923
21.686841
21.205771
20.733746
20.270805
19.816983
19.372317
18.936881
18.510837
18.094212
17.68728
17.290851
16.904514
16.530256
16.173154
15.824802
15.508551
15.246482
15.059138
14.9778
15.044984
15.310422
15.828398
16.64677
17.787417
19.238942
20.949434
22.834105
24.789945
26.712682
28.516059
30.133704
31.529329
32.694666
33.630761
34.361356
34.911262
35.309289
35.579816
35.765312
35.868167
35.911168
35.911647
35.862264
35.761734
35.616982
35.423538
35.177185
34.894176
34.576875
34.232641
33.891956
33.445303
52.872439
52.141739
51.410441
50.678965
49.947669
49.216833
48.486684
47.757424
47.02925
46.302366
45.576994
44.853371
44.131747
43.412384
42.695552
41.981523
41.270576
40.562989
39.859038
39.159
38.463147
37.771748
37.085068
36.403365
35.726894
35.055901
34.390626
33.731303
33.078158
32.431408
31.791264
31.157927
30.53159
29.912439
29.300648
28.696385
28.099806
27.511061
26.930287
26.357613
25.793159
25.237033
24.689334
24.15015
23.61956
23.097632
22.584428
22.080002
21.584402
21.097673
20.619858
20.150998
19.691138
19.240321
18.798596
18.366028
17.942675
17.528615
17.124
16.728892
16.343578
15.96894
15.60461
15.253472
14.921049
14.599483
14.317435
14.093718
13.952021
13.927058
14.063572
14.412311
15.024658
15.937251
17.15576
18.649052
20.347936
22.159345
23.9807
25.718696
27.303635
28.687014
29.851534
30.797436
31.540853
32.105515
32.515026
32.80016
32.991139
33.10732
33.154493
33.164981
33.131203
33.05166
32.929407
32.768623
32.55452
32.303603
32.043117
31.679181
52.875163
52.144368
51.412888
50.681139
49.949482
49.218211
48.487575
47.757795
47.029085
46.301658
45.575739
44.851568
44.129393
43.409473
42.692076
41.977471
41.265931
40.557732
39.853147
39.152446
38.4559
37.763772
37.076323
36.393807
35.716473
35.044562
34.378311
33.717948
33.063691
32.415754
31.77434
31.139645
30.511855
29.891149
29.277695
28.671653
28.073174
27.482399
26.89946
26.32448
25.757572
25.198839
24.648376
24.106267
23.572588
23.047404
22.530775
22.022753
21.523384
21.032709
20.55077
20.077602
19.613245
19.157735
18.711115
18.273427
17.844719
17.425038
17.014436
16.612957
16.220661
15.837696
15.464129
15.100384
14.747553
14.405488
14.078118
13.766427
13.47684
13.232539
13.052492
12.964868
13.008558
13.230472
13.682188
14.409306
15.431501
16.734988
18.266448
19.941118
21.661107
23.329655
24.869755
26.228628
27.380657
28.324244
29.067042
29.63491
30.049409
30.340517
30.532127
30.653893
30.708887
30.721826
30.699318
30.635739
30.532907
30.394355
30.230206
29.969364
52.878178
52.147372
51.415809
50.683896
49.951997
49.220418
48.489427
47.759263
47.030152
46.302319
45.575997
44.851426
44.128856
43.408546
42.69076
41.975767
41.263839
40.555246
39.85026
39.14915
38.452181
37.759617
37.071713
36.388722
35.71089
35.038455
34.371649
33.710697
33.055816
32.407213
31.765088
31.129634
30.501032
29.879455
29.265068
28.658025
28.058473
27.466547
26.882374
26.306071
25.737746
25.177498
24.625415
24.081576
23.546052
23.018905
22.500187
21.989947
21.488223
20.99505
20.510461
20.034482
19.567142
19.108465
18.658479
18.217211
17.784691
17.360948
16.94601
16.5399
16.142636
15.754243
15.374742
15.004193
14.642785
14.290648
13.948421
13.616778
13.297209
12.994335
12.706081
12.451508
12.248413
12.119165
12.097027
12.225116
12.553332
13.130969
13.990726
15.131454
16.514317
18.063998
19.685595
21.282163
22.771465
24.097617
25.227036
26.155103
26.888776
27.450518
27.862878
28.152282
28.342954
28.46407
28.52495
28.538992
28.525695
28.474714
28.406367
28.266676
52.881382
52.150613
51.419022
50.687011
49.954944
49.223138
48.491873
47.761404
47.031972
46.303813
45.577166
44.852276
44.129394
43.408781
42.690699
41.975416
41.263203
40.554329
39.849063
39.147673
38.450422
37.757572
37.069377
36.386088
35.707947
35.035193
34.368054
33.706753
33.051505
32.402515
31.759981
31.124092
30.495027
29.872956
29.258041
28.650433
28.050275
27.4577
26.87283
26.295779
25.726651
25.16554
24.612531
24.067699
23.531112
23.002825
22.482888
21.971341
21.468221
20.973554
20.487365
20.009673
19.540494
19.079843
18.627732
18.184175
17.749183
17.322769
16.904943
16.495711
16.095074
15.703028
15.319565
14.944676
14.578374
14.220678
13.871683
13.531555
13.200633
12.87984
12.569661
12.273292
11.994577
11.736644
11.520056
11.36361
11.295494
11.354658
11.588853
12.048706
12.775205
13.778586
15.031742
16.468694
17.997987
19.523534
20.958968
22.243906
23.342651
24.246642
24.963531
25.511531
25.916236
26.19771
26.385165
26.502665
26.567356
26.5862
26.593464
26.548756
52.884709
52.154005
51.422421
50.690354
49.958167
49.226183
48.494696
47.763975
47.034273
46.305836
45.578911
44.853748
44.130602
43.409732
42.691403
41.975882
41.263439
40.554341
39.848858
39.147256
38.449796
37.756739
37.068337
36.384841
35.706491
35.033524
34.366169
33.704645
33.049166
32.399937
31.757153
31.121002
30.49166
29.869298
29.254074
28.646138
28.04563
27.45268
26.86741
26.289931
25.720344
25.158741
24.605204
24.059805
23.522609
22.993668
22.47303
21.960731
21.456802
20.961266
20.474142
19.995443
19.525177
19.063349
18.609964
18.165021
17.72852
17.300459
16.880834
16.469636
16.066853
15.672465
15.286448
14.908773
14.539412
14.178334
13.825524
13.480984
13.144755
12.816993
12.49789
12.188054
11.888532
11.600672
11.328682
11.07358
10.851184
10.678463
10.579438
10.589124
10.752542
11.120539
11.738771
12.628007
13.770188
15.107777
16.552827
18.008852
19.388103
20.626902
21.68901
22.562385
23.256284
23.784187
24.17431
24.445262
24.627987
24.742917
24.823041
24.850518
52.88812
52.157494
51.425939
50.693842
49.961566
49.229441
48.497769
47.766832
47.036894
46.308211
45.581038
44.85563
44.132246
43.411147
42.692598
41.976867
41.264223
40.554933
39.849265
39.147485
38.449854
37.756631
37.068067
36.384411
35.705905
35.032782
34.36527
33.70359
33.047953
32.398563
31.755613
31.119292
30.489774
29.867228
29.251813
28.643675
28.042955
27.449781
26.864273
26.286541
25.716684
25.154793
24.600948
24.05522
23.517671
22.988352
22.467309
21.954575
21.450178
20.95414
20.466475
19.987191
19.516292
19.053779
18.599647
18.153889
17.716497
17.287457
16.866756
16.454374
16.050287
15.654466
15.266874
14.887472
14.516213
14.153052
13.797938
13.450827
13.111681
12.780486
12.457248
12.142053
11.835114
11.536789
11.24798
10.969589
10.704753
10.456728
10.233315
10.051553
9.9321859
9.9066675
10.017246
10.314424
10.846533
11.642334
12.691427
13.94259
15.31119
16.700779
18.023384
19.213086
20.234116
21.071532
21.735415
22.239092
22.611918
22.871709
23.062383
23.178803
52.891587
52.161047
51.429531
50.697422
49.965079
49.232839
48.50101
47.769883
47.039734
46.310828
45.583428
44.857795
44.134189
43.412877
42.694123
41.978198
41.265368
40.555902
39.850067
39.148128
38.450345
37.756976
37.068274
36.384484
35.705848
35.032599
34.364964
33.703162
33.047405
32.397895
31.754826
31.118383
30.488743
29.866072
29.250528
28.642258
28.0414
27.448083
26.862425
26.284535
25.714512
25.152446
24.598414
24.052489
23.514729
22.985186
22.463903
21.950913
21.446243
20.949911
20.461929
19.982304
19.511038
19.048125
18.593559
18.147326
17.709413
17.279801
16.858468
16.445388
16.04053
15.643855
15.255322
14.87488
14.502475
14.13805
13.781543
13.432892
13.092034
12.758909
12.433465
12.115664
11.805498
11.503007
11.208342
10.921754
10.643898
10.375793
10.119466
9.8792415
9.6584225
9.4727862
9.3408321
9.290938
9.3629582
9.6063686
10.071286
10.791964
11.764092
12.941281
14.241694
15.569013
16.835677
17.974334
18.949529
19.746561
20.377557
20.855337
21.224342
21.474269
52.895091
52.164639
51.433169
50.701059
49.968666
49.236328
48.504362
47.773067
47.042727
46.313617
45.586005
44.860159
44.136345
43.414829
42.695881
41.979769
41.266763
40.55713
39.851136
39.149047
38.451123
37.75762
37.06879
36.384878
35.706126
35.032767
34.365025
33.703121
33.047264
32.397656
31.754492
31.117955
30.488221
29.865457
29.249819
28.641454
28.0405
27.447084
26.861325
26.28333
25.713198
25.151018
24.596867
24.050817
23.512926
22.983244
22.461814
21.948669
21.443833
20.947325
20.459155
19.979329
19.507845
19.044697
18.589876
18.143366
17.705148
17.275202
16.853499
16.440011
16.0347
15.637524
15.248434
14.867376
14.49429
14.129111
13.771772
13.4222
13.080322
12.746065
12.419354
12.100118
11.788292
11.483821
11.186679
10.89687
10.614488
10.339749
10.073119
9.8156148
9.5685822
9.3355851
9.1201419
8.9346475
8.7959486
8.7300535
8.7746796
8.9781816
9.3917511
10.053357
10.963328
12.078545
13.319218
14.588817
15.800067
16.885622
17.81336
18.568124
19.181397
19.637498
52.898617
52.168252
51.436832
50.704728
49.972296
49.239877
48.50779
47.776343
47.045829
46.316528
45.588718
44.862671
44.138656
43.416946
42.697809
41.981517
41.268338
40.558542
39.852395
39.15016
38.452099
37.758467
37.069515
36.385488
35.706627
35.033165
34.365325
33.703327
33.047381
32.397688
31.754441
31.117824
30.488013
29.865172
29.249459
28.64102
28.039992
27.446502
26.860668
26.282598
25.712389
25.15013
24.595898
24.049764
23.511786
22.982014
22.46049
21.947246
21.442306
20.945689
20.457404
19.977454
19.505839
19.042551
18.587578
18.140904
17.702506
17.272363
16.850443
16.436714
16.031137
15.633666
15.244248
14.862827
14.489337
14.123712
13.765877
13.415758
13.073274
12.738345
12.410887
12.090818
11.778055
11.472517
11.174128
10.882823
10.598553
10.321306
10.051131
9.7882083
9.5328771
9.285938
9.0485839
8.8237261
8.6152752
8.4323824
8.2911173
8.2153555
8.2412682
8.4159857
8.7915902
9.4081461
10.269776
11.334534
12.523445
13.738979
14.897237
15.929447
16.82865
17.55052
52.902154
52.171875
51.440505
50.708412
49.97595
49.243459
48.511266
47.779682
47.049006
46.319529
45.591531
44.865292
44.141085
43.419185
42.699865
41.983396
41.270048
40.560091
39.853792
39.151414
38.453218
37.759459
37.070387
36.386248
35.707282
35.033719
34.365786
33.703699
33.047668
32.397895
31.754572
31.117883
30.488002
29.865095
29.249317
28.640815
28.039725
27.446175
26.860281
26.282152