/*--------------------------------*- C++ -*----------------------------------*\
| =========                 |                                                 |
| \\      /  F ield         | OpenFOAM: The Open Source CFD Toolbox           |
|  \\    /   O peration     | Version:  2206                                  |
|   \\  /    A nd           | Website:  www.openfoam.com                      |
|    \\/     M anipulation  |                                                 |
\*---------------------------------------------------------------------------*/
FoamFile
{
    version     2.0;
    format      ascii;
    arch        "LSB;label=32;scalar=64";
    class       volScalarField;
    location    "400";
    object      p;
}
// * * * * * * * * * * * * * * * * * * * * * * * * * * * * * * * * * * * * * //

dimensions      [0 2 -2 0 0 0 0];

internalField   nonuniform List<scalar> 
7480
(
0.054714184
0.042457421
0.028333141
0.016524046
0.0059168421
0.0004706994
-0.00078392071
0.00023297275
0.0017864081
0.0028170976
0.00329284
0.003495983
0.0035871504
0.0036160474
0.0036179084
0.0036222923
0.0036300574
0.0036237717
0.0036071512
0.0035891077
0.0035684291
0.0035409559
0.0035095419
0.0034775551
0.0034437401
0.0034057075
0.0033648797
0.0033228151
0.0032786348
0.0032315379
0.0031826386
0.0031327043
0.003081118
0.0030276883
0.0029732708
0.002918464
0.002863309
0.0028084651
0.0027551624
0.0027044158
0.0026570699
0.0026146769
0.0025797439
0.0025546714
0.0025437893
0.0025507383
0.0025804126
0.0026323592
0.0027051754
0.0027994808
0.0029134983
0.0030443606
0.0031876047
0.0033369451
0.003490204
0.003640979
0.0037712015
0.0038680828
0.0039234935
0.0039406991
0.0039219177
0.0038732982
0.0038038998
0.0037208193
0.0036292315
0.003533179
0.0034360224
0.003339047
0.003243162
0.0031489074
0.0030564008
0.0029651429
0.0028751444
0.0027863944
0.0026981137
0.0026108824
0.0025237856
0.0024346938
0.0023440375
0.002251948
0.0021592352
0.0020654955
0.0019695568
0.0018724954
0.0017734128
0.0016729467
0.0015709183
0.0014673782
0.001362957
0.0012572382
0.0011515246
0.001045511
0.00094101297
0.00083741227
0.00074151511
0.00063996195
0.00058875455
0.00030737845
0.00083612549
-0.00087542742
0.04973765
0.039221839
0.027267774
0.016375465
0.0065176946
0.0012717856
-7.7172639e-05
0.00070240156
0.0020132332
0.0029409593
0.0033705436
0.003555183
0.0036379913
0.0036600758
0.0036579465
0.0036607401
0.0036624314
0.0036508626
0.0036312142
0.0036107837
0.0035879219
0.0035584686
0.0035254281
0.0034920452
0.0034569512
0.0034177592
0.0033759304
0.0033329712
0.0032879575
0.0032400982
0.0031905186
0.0031399605
0.0030877886
0.003033817
0.0029789015
0.0029236281
0.0028680305
0.0028127687
0.0027590688
0.0027079385
0.0026602186
0.0026174614
0.0025821714
0.0025567431
0.0025455686
0.0025524604
0.0025815769
0.0026330448
0.002705535
0.0027995295
0.0029132695
0.0030438949
0.0031869438
0.0033361405
0.0034893144
0.0036400564
0.0037703007
0.0038672838
0.0039228497
0.0039402222
0.0039216397
0.0038731972
0.003803941
0.0037209735
0.0036294682
0.0035334717
0.0034363496
0.0033393924
0.0032435143
0.0031492587
0.0030567459
0.0029654786
0.0028754688
0.0027867062
0.0026984128
0.0026111691
0.0025240662
0.0024349737
0.0023443142
0.0022522186
0.0021594991
0.002065753
0.0019698086
0.0018727421
0.0017736545
0.0016731834
0.00157115
0.0014676046
0.0013631779
0.0012574536
0.0011517343
0.0010457149
0.00094121124
0.00083760479
0.00074170323
0.00064014201
0.00058900303
0.00030836277
0.00083834175
-0.00087495827
0.045678459
0.037541269
0.026904857
0.016650094
0.0078924715
0.0028003125
0.0010955641
0.0013640729
0.0023495076
0.0031252077
0.0034914527
0.0036560387
0.0037261355
0.0037331955
0.0037220254
0.0037177602
0.0037108773
0.0036920037
0.0036675691
0.0036434291
0.0036169538
0.0035841113
0.0035485146
0.0035129913
0.0034758471
0.0034348111
0.0033915046
0.0033472771
0.0033010608
0.0032521063
0.0032015953
0.0031502018
0.0030972377
0.0030425408
0.0029869794
0.0029311096
0.002874948
0.0028191659
0.0027649856
0.0027133983
0.0026652362
0.0026220565
0.0025863606
0.0025605339
0.0025490104
0.0025559525
0.0025845573
0.0026353004
0.0027074128
0.0028010172
0.0029143875
0.0030446659
0.0031873898
0.0033362997
0.0034892586
0.0036398345
0.0037699364
0.0038668817
0.0039225446
0.0039400167
0.0039216484
0.0038734002
0.0038043086
0.003721481
0.0036300804
0.0035341546
0.0034370748
0.0033401355
0.0032442583
0.0031499917
0.0030574597
0.002966168
0.0028761311
0.0027873395
0.0026990164
0.0026117436
0.0025246117
0.0024354969
0.0023448213
0.002252708
0.0021599713
0.0020662087
0.0019702495
0.00187317
0.0017740701
0.0016735876
0.0015715428
0.0014679865
0.0013635488
0.0012578134
0.0011520834
0.0010460531
0.00094153913
0.00083792181
0.00074201296
0.00064043481
0.00058940597
0.00030994312
0.00084226732
-0.00087438194
0.042957892
0.036240036
0.026550415
0.016949957
0.0091789344
0.0042629351
0.0021770972
0.002057664
0.0027412219
0.0033625078
0.0036732762
0.003813531
0.0038605362
0.0038379778
0.0038062935
0.003790206
0.0037727514
0.0037434034
0.0037123669
0.0036839072
0.0036529638
0.0036155687
0.0035767524
0.0035386392
0.0034988646
0.0034553929
0.0034102856
0.0033645998
0.0033169625
0.0032667238
0.0032152106
0.0031629597
0.003109168
0.003053731
0.0029975555
0.0029411384
0.0028844665
0.0028282495
0.0027737103
0.0027218045
0.0026733467
0.0026299108
0.0025939936
0.0025679706
0.0025561818
0.0025636096
0.0025921337
0.0026420461
0.0027138608
0.0028071037
0.0029200533
0.0030498666
0.0031920698
0.0033404299
0.0034928694
0.0036429136
0.0037724769
0.0038689043
0.0039243765
0.0039416277
0.003923194
0.0038749593
0.0038059044
0.0037231304
0.0036317732
0.0035358702
0.0034387912
0.0033418283
0.0032459106
0.0031515913
0.0030589976
0.0029676381
0.0028775319
0.0027886697
0.002700275
0.0026129323
0.0025256994
0.0024364858
0.0023457535
0.002253593
0.0021608127
0.0020670092
0.0019710125
0.0018739007
0.0017747708
0.0016742613
0.0015721911
0.0014686108
0.0013641505
0.0012583931
0.0011526424
0.0010465916
0.00094205864
0.00083842167
0.00074249912
0.00064089343
0.00059002599
0.00031244499
0.00084870019
-0.00087335995
0.040488896
0.034646594
0.025925818
0.01730236
0.010246803
0.0054692421
0.0032157747
0.0028260213
0.0032172245
0.0036612215
0.0038949973
0.0039846847
0.0039997278
0.003959307
0.0039166982
0.003890959
0.0038606331
0.0038156002
0.0037736158
0.0037383111
0.0037009009
0.0036571456
0.0036140706
0.0035728245
0.0035297937
0.003483123
0.0034356816
0.0033881173
0.0033385798
0.0032866123
0.0032338151
0.0031805034
0.0031256861
0.0030693657
0.0030125226
0.00295555
0.0028983712
0.0028417723
0.0027869962
0.0027349298
0.0026863513
0.0026428613
0.0026069482
0.002580956
0.0025692128
0.0025772933
0.0026058618
0.0026551826
0.0027266987
0.0028195054
0.0029318938
0.0030610267
0.0032024063
0.0033498471
0.0035014059
0.0036506054
0.0037791845
0.0038744905
0.0039294141
0.0039460178
0.00392708
0.0038786007
0.0038093859
0.0037265186
0.0036350896
0.0035391149
0.0034419568
0.0033448969
0.0032488701
0.0031544324
0.0030617128
0.0029702227
0.0028799881
0.0027909974
0.002702474
0.0026150051
0.0025276074
0.0024382325
0.0023473918
0.0022551361
0.0021622687
0.0020683837
0.0019723119
0.0018751344
0.0017759438
0.0016753802
0.0015732595
0.0014696326
0.0013651289
0.0012593301
0.0011535412
0.0010474533
0.00094288634
0.00083921519
0.00074326645
0.00064161974
0.00059097689
0.00031616198
0.00085822001
-0.0008713243
0.03817541
0.033054362
0.025337515
0.017614125
0.011131523
0.0065661167
0.0042146752
0.0035731934
0.0037147815
0.0039836333
0.0041294164
0.004167003
0.0041511813
0.0040965226
0.0040406154
0.0039963749
0.0039506004
0.0038957603
0.0038469751
0.0038057419
0.0037607492
0.0037090819
0.0036600776
0.003614601
0.0035674783
0.0035169044
0.0034667586
0.0034171064
0.0033654005
0.0033114266
0.0032571822
0.0032026837
0.0031467021
0.0030894352
0.0030320097
0.0029746645
0.0029170971
0.0028601614
0.0028052251
0.0027531126
0.0027045537
0.0026611875
0.0026254932
0.0025997536
0.0025883552
0.0025968535
0.0026252569
0.0026742245
0.0027452037
0.0028373026
0.0029488678
0.003077039
0.0032172616
0.0033634104
0.0035137466
0.0036617246
0.0037888204
0.0038825476
0.0039367244
0.0039524072
0.0039326755
0.0038838533
0.0038143994
0.0037313718
0.0036398079
0.0035437026
0.0034464121
0.003349203
0.0032530173
0.0031584125
0.003065516
0.0029738467
0.0028834413
0.0027942803
0.0027055847
0.0026179451
0.0025303619
0.0024408134
0.0023498257
0.0022574266
0.0021644258
0.002070415
0.0019742261
0.0018769446
0.0017776573
0.0016770069
0.0015748057
0.0014711047
0.0013665325
0.0012606685
0.0011548195
0.0010486748
0.00094405533
0.00084033298
0.00074434132
0.0006426414
0.00059229651
0.00032122132
0.00087093859
-0.00086782664
0.036074252
0.031575754
0.024784761
0.017843452
0.011889344
0.0075641577
0.0051505221
0.0042812695
0.0041988919
0.0043143681
0.0043750936
0.0043626833
0.0043148729
0.0042422002
0.0041688776
0.0041058917
0.0040462511
0.0039833329
0.003926458
0.0038755191
0.003822103
0.0037651819
0.0037120666
0.0036626486
0.0036108988
0.0035559072
0.0035024777
0.0034501292
0.0033957336
0.0033394033
0.0032835538
0.0032277765
0.0031705104
0.003112223
0.0030542377
0.0029965668
0.00293865
0.0028814754
0.002826554
0.0027746136
0.0027263217
0.0026833861
0.0026483017
0.0026233784
0.0026121598
0.0026200927
0.0026482704
0.0026971274
0.0027676665
0.0028590721
0.0029696907
0.0030966073
0.0032353135
0.0033799139
0.0035279285
0.0036729457
0.0037978763
0.0038901114
0.003943924
0.0039588926
0.0039385136
0.0038895767
0.0038200572
0.0037369944
0.0036453763
0.0035491906
0.0034517963
0.0033544478
0.0032581023
0.0031633226
0.0030702361
0.0029783701
0.0028877745
0.0027984201
0.0027095255
0.0026216861
0.0025338945
0.0024441529
0.0023529903
0.0022604123
0.002167241
0.0020730668
0.0019767232
0.0018793028
0.0017798851
0.0016791168
0.0015768057
0.0014730036
0.001368338
0.0012623855
0.0011564553
0.0010502337
0.00094554329
0.00084175283
0.00074570027
0.00064393711
0.00059396133
0.00032756759
0.00088650458
-0.00086278415
0.03417559
0.030193867
0.024217935
0.017986845
0.012535869
0.0084551663
0.0060130824
0.0049584883
0.0046809426
0.0046551377
0.0046309151
0.0045672836
0.0044853386
0.0043912758
0.0043001393
0.0042204735
0.0041474479
0.0040750784
0.0040084508
0.0039475298
0.0038868648
0.0038252698
0.0037673604
0.0037123495
0.0036557847
0.0035976211
0.0035416168
0.0034865815
0.0034292117
0.0033702432
0.0033125301
0.0032552262
0.0031962595
0.0031364802
0.0030775687
0.0030192159
0.002960665
0.0029031325
0.0028482155
0.0027964996
0.002748572
0.002706238
0.0026720297
0.0026482778
0.0026372913
0.0026443778
0.0026722071
0.002721033
0.0027912579
0.0028820293
0.002991604
0.0031169726
0.003253931
0.0033970485
0.0035417848
0.0036823532
0.0038047394
0.0038958594
0.0039497695
0.003964416
0.0039437606
0.0038950533
0.0038257389
0.0037428558
0.0036513474
0.0035552035
0.0034577922
0.0033603594
0.0032638911
0.0031689617
0.0030757022
0.002983646
0.0028928567
0.0028032995
0.0027141906
0.0026261337
0.0025381115
0.0024481554
0.0023567983
0.0022640174
0.0021706489
0.002076282
0.0019797536
0.0018821651
0.0017825883
0.001681675
0.0015792281
0.0014753002
0.0013705184
0.0012644564
0.0011584257
0.0010521087
0.00094732978
0.00084345518
0.00074732374
0.00064548902
0.00059593841
0.00033507623
0.00090438687
-0.00085632958
0.032454913
0.02890237
0.023643389
0.018065997
0.013085782
0.0092459123
0.0068069038
0.0056073279
0.0051594749
0.0050021389
0.0048943586
0.0047786694
0.0046616819
0.0045445791
0.004434868
0.0043386968
0.0042518212
0.004168908
0.0040926998
0.0040227586
0.0039549325
0.0038878511
0.0038243863
0.0037637581
0.0037029313
0.0036416897
0.0035825579
0.0035241745
0.0034639734
0.0034030113
0.0033436966
0.0032847306
0.0032238432
0.0031623854
0.0031023572
0.0030431217
0.0029837136
0.0029254874
0.0028701139
0.0028181503
0.0027701406
0.0027279931
0.0026942839
0.0026712385
0.002660793
0.0026678063
0.0026952563
0.0027436627
0.0028132723
0.0029032288
0.0030116984
0.0031355794
0.0032709317
0.0034126422
0.0035545971
0.0036909719
0.0038104484
0.0039004088
0.0039543038
0.0039688301
0.0039482158
0.0038999815
0.0038310616
0.0037485491
0.0036573279
0.0035613618
0.0034640386
0.0033666039
0.0032700793
0.0031750502
0.0030816538
0.0029894344
0.0028984718
0.0028087232
0.002719403
0.0026311272
0.0025428661
0.0024526851
0.0023611257
0.0022681303
0.0021745503
0.0020799736
0.0019832406
0.0018854645
0.0017857079
0.0016846297
0.0015820268
0.0014779539
0.0013730374
0.0012668481
0.0011607005
0.0010542723
0.00094938922
0.00084541644
0.00074918925
0.00064727656
0.00059818467
0.00034359866
0.00092399986
-0.00084849924
0.030891611
0.027702596
0.023072537
0.018091013
0.013547004
0.009943284
0.0075340689
0.0062241928
0.0056292072
0.0053515088
0.0051637054
0.0049964137
0.0048438714
0.0047023542
0.0045734144
0.0044603836
0.0043594685
0.0042654184
0.0041791744
0.0041003427
0.0040251217
0.0039520382
0.003883107
0.0038173042
0.0037521783
0.0036873601
0.0036248072
0.0035632111
0.0035004221
0.0034374311
0.0033760582
0.0033150221
0.0032524209
0.0031897253
0.0031287026
0.0030684726
0.0030080512
0.0029489266
0.0028928972
0.0028404516
0.0027920336
0.0027496387
0.0027158869
0.0026928386
0.0026824344
0.0026892793
0.0027162464
0.0027639648
0.0028327255
0.002921721
0.0030290936
0.0031516952
0.0032856308
0.0034258709
0.0035659485
0.0036995851
0.0038165646
0.0039044722
0.0039573339
0.0039718505
0.0039515131
0.0039038748
0.003835527
0.0037536159
0.00366288
0.0035672166
0.0034701016
0.0033727844
0.0032762948
0.0031812362
0.0030877658
0.00299544
0.0029043515
0.0028144465
0.0027249399
0.0026364635
0.0025479728
0.0024575735
0.0023658187
0.0022726111
0.00217882
0.0020840304
0.001987086
0.0018891144
0.0017891681
0.0016879142
0.0015851434
0.0014809132
0.0013758496
0.00126952
0.0011632432
0.0010566913
0.00095169181
0.00084760944
0.00075127138
0.00064927655
0.0006006512
0.00035298847
0.00094477104
-0.00083920907
0.029468246
0.026592273
0.022510315
0.018066719
0.013926784
0.01055416
0.0081960172
0.0068063281
0.0060870566
0.005701124
0.005437741
0.0052197731
0.0050313826
0.0048643846
0.0047155911
0.0045854406
0.0044701845
0.0043645808
0.0042681666
0.0041803036
0.0040975916
0.0040182513
0.0039434803
0.0038724603
0.0038029778
0.0037343426
0.0036683827
0.0036037636
0.0035383218
0.0034729856
0.0034094272
0.0033464976
0.0032823459
0.0032183682
0.0031560103
0.0030945738
0.0030332374
0.0029733735
0.0029167791
0.0028638149
0.0028148825
0.0027720488
0.0027379937
0.0027145917
0.0027037215
0.0027099288
0.0027361049
0.0027828221
0.0028503543
0.0029380016
0.0030439424
0.0031650168
0.0032973474
0.0034360009
0.003574562
0.0037066331
0.0038220607
0.0039080783
0.0039600233
0.0039745305
0.00395377
0.0039063016
0.0038387528
0.0037576761
0.0036675488
0.0035723215
0.0034755909
0.0033785456
0.0032821786
0.0031871732
0.0030937275
0.0030013745
0.0029102199
0.0028202103
0.0027305608
0.0026419189
0.0025532259
0.0024626346
0.0023707085
0.0022773065
0.0021833206
0.0020883302
0.0019911819
0.0018930201
0.0017928861
0.0016914564
0.0015885151
0.0014841231
0.0013789067
0.0012724298
0.0011660162
0.0010593325
0.00095420743
0.00085000696
0.00075354489
0.00065146605
0.00060328753
0.00036311055
0.00096616431
-0.000828323
0.028169586
0.025566506
0.021960451
0.017999528
0.014233655
0.011085779
0.008795067
0.0073522887
0.006530615
0.0060487112
0.005714712
0.0054475137
0.00522342
0.0050302987
0.0048611711
0.0047137306
0.0045838978
0.0044664167
0.0043596818
0.0042626456
0.0041722256
0.0040863991
0.004005681
0.0039293553
0.003855401
0.0037829612
0.0037133362
0.0036454438
0.0035773889
0.0035096239
0.003443869
0.0033791159
0.0033133632
0.0032479074
0.0031841515
0.0031216598
0.0030595015
0.002998871
0.0029415283
0.0028879492
0.0028385673
0.0027953125
0.0027608987
0.0027370568
0.0027256132
0.0027309994
0.0027561394
0.0028015596
0.0028674817
0.0029533453
0.0030573894
0.0031764589
0.0033067321
0.0034434369
0.0035802479
0.0037106442
0.0038245859
0.003909723
0.0039616457
0.0039763585
0.0039555174
0.0039083988
0.0038416213
0.0037608093
0.0036709712
0.0035763877
0.0034802443
0.0033835469
0.0032873922
0.0031925718
0.0030992763
0.0030069633
0.0029158039
0.0028257622
0.0027360231
0.0026472622
0.0025584149
0.0024676777
0.0023756201
0.0022820584
0.0021879113
0.0020927474
0.0019954165
0.0018970838
0.0017967761
0.0016951815
0.001592077
0.0014875274
0.0013821598
0.0012755346
0.001168982
0.0010621623
0.00095690632
0.00085258225
0.00075598514
0.00065382283
0.00060604327
0.00037383862
0.00098766831
-0.00081567884
0.026982272
0.024619498
0.021426291
0.01789621
0.014475445
0.011544644
0.0093337662
0.0078610359
0.0069574455
0.0063918246
0.0059927616
0.0056784166
0.0054192443
0.0051997494
0.005009962
0.0048451099
0.004700528
0.0045708872
0.0044536599
0.0043473273
0.0042490057
0.0041565028
0.0040697496
0.0039880132
0.0039094447
0.0038330685
0.0037596833
0.0036884503
0.0036176909
0.0035475711
0.0034794898
0.0034126403
0.0033452826
0.0032783595
0.0032132073
0.0031496511
0.0030866363
0.00302515
0.0029670336
0.0029129352
0.0028631474
0.0028194232
0.0027845572
0.0027602516
0.0027482626
0.0027528141
0.0027768393
0.0028208172
0.0028849365
0.0029687675
0.0030706068
0.0031872957
0.0033150825
0.003449384
0.0035839805
0.0037122662
0.0038244377
0.0039087249
0.0039604551
0.0039756064
0.003955736
0.003909819
0.0038438949
0.0037633915
0.003674111
0.0035802376
0.0034841988
0.0033875008
0.0032917195
0.00319725
0.0031041383
0.003011915
0.0029208558
0.00283088
0.0027410987
0.002652281
0.0025633533
0.0024725238
0.0023803851
0.0022867152
0.0021924542
0.0020971545
0.0019996758
0.0019012044
0.0018007484
0.0016990106
0.0015957598
0.0014910655
0.0013855559
0.0012787883
0.0011721001
0.0010651454
0.00095975727
0.00085530757
0.00075856684
0.00065632432
0.0006088678
0.00038504827
0.0010087632
-0.00080110066
0.02589454
0.023745126
0.020910245
0.017762931
0.014659174
0.011936826
0.0098149905
0.00833204
0.0073654201
0.0067282339
0.0062701644
0.0059113004
0.0056180803
0.0053723021
0.0051616971
0.0049793785
0.0048199447
0.0046779245
0.0045500535
0.0044343221
0.0043279373
0.0042285791
0.0041356807
0.0040484281
0.0039651132
0.0038846617
0.003807467
0.0037328332
0.0036592617
0.0035867038
0.0035162246
0.0034472256
0.0033782178
0.0033098429
0.0032432853
0.0031784701
0.0031145051
0.0030522211
0.0029933305
0.0029386817
0.0028884611
0.0028442248
0.0028089173
0.0027841915
0.0027716383
0.0027753014
0.0027981371
0.0028406311
0.0029029368
0.0029846769
0.0030841847
0.0031983044
0.0033233639
0.0034549589
0.0035869789
0.0037127636
0.0038227786
0.0039058773
0.0039570545
0.0039724993
0.0039536985
0.0039091147
0.003844332
0.0037649608
0.0036768219
0.003583675
0.0034877175
0.0033912355
0.0032959089
0.0032013608
0.0031080788
0.0030160616
0.0029252326
0.0028353406
0.0027455751
0.0026568114
0.0025678874
0.0024770081
0.0023848559
0.0022911446
0.002196816
0.0021014266
0.0020038469
0.0019052779
0.0018047074
0.0017028582
0.0015994872
0.0014946696
0.0013890357
0.0012821391
0.0011753255
0.0010682425
0.00096272566
0.00085815243
0.00076126246
0.00065894626
0.00061170988
0.00039661005
0.0010288771
-0.00078441754
0.024895999
0.022937253
0.020413789
0.017605271
0.014791443
0.012268187
0.010241891
0.0087652699
0.007752778
0.0070559011
0.0065452371
0.0061449315
0.005819071
0.0055474334
0.005316052
0.0051163037
0.0049419924
0.004787444
0.0046488061
0.0045235898
0.0044090045
0.0043026268
0.0042034738
0.0041106097
0.0040224279
0.0039377749
0.0038567078
0.0037785982
0.0037021081
0.003627015
0.0035541039
0.0034829251
0.0034121927
0.0033423093
0.0032743041
0.0032081841
0.0031432379
0.0030801596
0.0030205052
0.002965165
0.0029144278
0.0028697104
0.0028339477
0.0028088163
0.0027956531
0.0027983624
0.0028199993
0.0028610245
0.0029215065
0.0030010987
0.0030981806
0.0032096551
0.0033319248
0.003460708
0.0035899813
0.0037130516
0.0038206454
0.0039022522
0.0039525185
0.0039679785
0.0039502161
0.0039067267
0.0038431129
0.0037649943
0.0036779735
0.0035856938
0.0034904545
0.0033946935
0.0032998016
0.00320511
0.0031118464
0.0030200861
0.0029290818
0.0028389806
0.002749361
0.002660751
0.0025718357
0.0024809726
0.0023889167
0.0022952243
0.0022008656
0.0021054529
0.0020078254
0.0019091986
0.001808555
0.0017066343
0.0016031748
0.0014982638
0.0013925322
0.0012855275
0.001178606
0.0010714077
0.00096577155
0.00086108179
0.00076404073
0.00066166144
0.00061451753
0.00040838434
0.0010473402
-0.00076548076
0.023977447
0.022189941
0.019937646
0.017428231
0.014878461
0.0125443
0.010617726
0.0091610951
0.0081180978
0.007372959
0.0068163406
0.0063780562
0.0060213187
0.0057245667
0.0054726605
0.0052556247
0.0050664896
0.0048993361
0.0047498424
0.0046150744
0.0044921773
0.0043786372
0.0042731267
0.0041745634
0.0040814032
0.0039924295
0.0039074193
0.0038257619
0.0037462547
0.0036685401
0.0035931573
0.0035197511
0.0034472135
0.0033757615
0.0033062758
0.0032388304
0.0031728614
0.0031089452
0.0030484979
0.0029924307
0.0029411443
0.0028959908
0.0028596519
0.0028340027
0.0028202881
0.0028220485
0.002842457
0.002881971
0.0029405775
0.0030179658
0.003112583
0.0032213929
0.0033408426
0.0034667414
0.0035931546
0.003713427
0.0038185214
0.0038985117
0.0039477105
0.0039630283
0.0039460495
0.0039034203
0.0038408204
0.003763817
0.0036778429
0.0035864929
0.0034920767
0.0033969772
0.0033025636
0.0032082347
0.0031154308
0.003023886
0.0029326483
0.002842526
0.0027530154
0.002664161
0.0025750734
0.0024843668
0.0023924566
0.0022987913
0.0022044826
0.0021091427
0.0020115084
0.0019128635
0.0018122
0.0017102473
0.0016067352
0.0015017688
0.0013959723
0.0012888869
0.001181882
0.0010745881
0.00096884827
0.00086405443
0.00076686505
0.00066443825
0.00061723835
0.00042021807
0.0010633497
-0.0007441811
0.02313072
0.021497589
0.01948196
0.01723618
0.014925983
0.012770424
0.010945798
0.0095202465
0.0084603123
0.0076777439
0.0070819196
0.0066094341
0.0062239021
0.005903076
0.0056311084
0.0053970439
0.0051932228
0.0050134628
0.0048530673
0.0047087059
0.0045774141
0.0044565926
0.0043446305
0.0042402869
0.0041420465
0.004048641
0.0039596152
0.0038743418
0.003791726
0.0037113052
0.0036334032
0.0035577202
0.0034833039
0.0034102281
0.0033392287
0.0032704264
0.0032033829
0.0031385829
0.0030773137
0.0030205009
0.0029686355
0.0029230084
0.0028861002
0.0028598216
0.0028455024
0.0028463743
0.0028654917
0.0029034199
0.0029601139
0.0030352652
0.0031273598
0.0032334657
0.0033500818
0.0034730407
0.0035965342
0.0037139851
0.0038165502
0.0038948549
0.0039429197
0.0039580122
0.003941704
0.0038998372
0.003838155
0.0037620449
0.003676983
0.003586463
0.0034927963
0.0033982864
0.0033043841
0.0032104972
0.0031180804
0.0030267754
0.0029357469
0.0028459555
0.002756472
0.0026673561
0.0025782927
0.0024875827
0.0023954209
0.0023017535
0.0022076367
0.002112367
0.002014759
0.0019161779
0.0018155552
0.0017136037
0.0016100896
0.0015051097
0.0013992822
0.0012921476
0.0011850891
0.0010777241
0.00097190208
0.00086702202
0.00076969246
0.00066723944
0.00061982024
0.00043194338
0.0010759704
-0.00072046727
0.022348562
0.020855
0.019046439
0.017032859
0.014939298
0.012951524
0.011229426
0.0098437635
0.0087786991
0.0079688117
0.0073405186
0.0068378497
0.0064258813
0.0060822901
0.0057909345
0.0055402279
0.0053219489
0.0051296595
0.0049583665
0.0048044
0.0046646603
0.004536464
0.0044179676
0.0043077713
0.0042043599
0.0041064208
0.0040133076
0.0039243526
0.0038385417
0.003755332
0.0036748601
0.0035968528
0.0035204891
0.003445733
0.0033731827
0.0033029889
0.0032348216
0.0031690953
0.0031069759
0.0030493918
0.0029969081
0.0029507631
0.0029132621
0.0028863181
0.0028713453
0.0028713044
0.0028890854
0.0029253718
0.0029801214
0.0030529973
0.0031425296
0.0032458924
0.0033596228
0.0034795845
0.0036001011
0.0037146857
0.0038147057
0.0038912782
0.0039382037
0.0039530542
0.0039373679
0.0038962207
0.0038353975
0.0037601352
0.003675959
0.0035860837
0.0034930552
0.0033990436
0.0033055681
0.0032120323
0.0031199438
0.0030289093
0.0029381438
0.0028485837
0.0027592006
0.0026702387
0.0025814238
0.0024905915
0.0023982421
0.0023047355
0.0022105367
0.0021149962
0.0020175062
0.0019190721
0.0018184918
0.0017166063
0.0016131695
0.0015082125
0.0014023902
0.0012952435
0.0011881616
0.0010807535
0.0009748742
0.0008699306
0.00077247409
0.00067002186
0.00062221285
0.00044337899
0.0010842092
-0.00069436272
0.021624517
0.020257406
0.018630487
0.016821414
0.014923218
0.013092269
0.011471899
0.010132933
0.0090728569
0.0082449463
0.0075907972
0.0070621262
0.0066263105
0.0062615041
0.0059516366
0.0056848095
0.0054523954
0.0052477344
0.0050656044
0.0049020561
0.0047538471
0.00461821
0.004493112
0.0043770008
0.0042683397
0.0041657756
0.0040685049
0.0039758054
0.0038867187
0.0038006404
0.0037175465
0.003637168
0.0035587911
0.0034822971
0.0034081569
0.0033365365
0.0032671987
0.0032005027
0.003137502
0.0030791175
0.0030259762
0.0029792719
0.0029411489
0.0029135117
0.0028978328
0.0028968349
0.0029132473
0.0029478551
0.0030006226
0.0030711804
0.003158105
0.0032586688
0.0033694532
0.0034863641
0.0036038558
0.0037155455
0.0038130199
0.0038877501
0.0039335518
0.0039481597
0.0039330174
0.0038925763
0.0038325824
0.003758263
0.003674964
0.0035856872
0.0034931446
0.0033996627
0.0033065513
0.0032132075
0.0031213394
0.0030305042
0.0029399325
0.00285055
0.0027613033
0.0026725148
0.0025838205
0.0024930385
0.0024009122
0.002307636
0.0022132366
0.0021175776
0.0020201759
0.0019215823
0.001820937
0.0017192343
0.0016158695
0.001510973
0.0014052213
0.0012981077
0.0011910333
0.0010836172
0.00097770503
0.00087272614
0.00077515823
0.00067273857
0.00062437013
0.00045433563
0.0010872036
-0.0006659755
0.020952838
0.019700468
0.018233306
0.016604452
0.014882076
0.013197026
0.011676447
0.010389235
0.0093426807
0.0085051659
0.0078315458
0.0072811422
0.006824252
0.0064399896
0.006112677
0.0058303886
0.005584261
0.0053674686
0.005174623
0.0050015566
0.0048448905
0.0047017766
0.0045700278
0.0044479519
0.0043339751
0.004226706
0.0041252116
0.004028708
0.003936271
0.0038472483
0.0037614796
0.0036786831
0.0035982301
0.0035199407
0.0034441706
0.0033710881
0.0033005335
0.0032328235
0.0031689082
0.0031096933
0.0030558556
0.0030085498
0.0029697745
0.0029414105
0.002924972
0.0029229744
0.0029379891
0.0029708796
0.0030216214
0.0030898175
0.0031740888
0.0032718014
0.0033795874
0.0034933991
0.0036078178
0.0037165733
0.0038114812
0.0038842943
0.0039289623
0.0039433112
0.0039286686
0.0038889206
0.0038297499
0.0037563701
0.0036738947
0.0035854128
0.0034932135
0.003400325
0.003307519
0.0032143242
0.0031226085
0.0030318613
0.0029413756
0.0028520902
0.0027629218
0.0026742491
0.0025856374
0.0024949643
0.0024030326
0.0023098763
0.0022155533
0.0021201283
0.0020227401
0.0019239846
0.0018234298
0.0017216802
0.0016180874
0.0015133385
0.0014077016
0.0013006383
0.0011936301
0.0010862535
0.00098033546
0.00087536019
0.00077769451
0.00067534325
0.00062625661
0.00046462523
0.0010844292
-0.00063549535
0.020328403
0.019180266
0.017853978
0.016384108
0.014819733
0.013269856
0.011846214
0.010614299
0.0095883316
0.0087487225
0.0080616979
0.0074938446
0.0070187877
0.0066170049
0.0062734885
0.0059765344
0.0057172161
0.0054886163
0.0052852415
0.0051027656
0.0049376912
0.0047870959
0.0046486686
0.004520593
0.0044012484
0.0042892061
0.0041834277
0.0040830644
0.0039872091
0.0038951708
0.0038066744
0.0037214136
0.003638825
0.0035586835
0.0034812422
0.0034066616
0.0033348446
0.0032660755
0.003201211
0.0031411346
0.0030865612
0.0030386107
0.0029991499
0.0029700235
0.0029527734
0.0029497334
0.0029633191
0.0029944512
0.0030431232
0.0031089155
0.0031904887
0.0032852994
0.0033900356
0.0035006987
0.0036119946
0.0037177816
0.0038100496
0.0038809491
0.0039244559
0.0039385105
0.0039243169
0.0038852472
0.0038269075
0.0037544666
0.0036728039
0.0035851193
0.0034933409
0.0034009874
0.0033084796
0.00321551
0.0031239194
0.003033201
0.0029427634
0.002853494
0.0027642955
0.0026756466
0.0025870538
0.0024964443
0.002404656
0.0023116079
0.0022174274
0.0021221486
0.0020248202
0.0019262157
0.0018258816
0.0017239764
0.0016203026
0.0015156307
0.0014098345
0.0013027808
0.0011959115
0.0010885677
0.00098269998
0.00087777778
0.0007800306
0.0006777913
0.00062785578
0.00047407497
0.0010757927
-0.00060319295
0.019746648
0.018693271
0.017491524
0.016162109
0.014739597
0.013314506
0.011984234
0.010809856
0.0098102042
0.0089750948
0.0082803396
0.0076992617
0.0072090315
0.0067918058
0.0064334817
0.006122789
0.0058509046
0.0056109062
0.0053972562
0.0052055285
0.0050321336
0.0048740857
0.0047289764
0.0045948828
0.0044701334
0.0043532633
0.0042431477
0.0041388746
0.0040395397
0.0039444198
0.0038531437
0.0037653734
0.0036805926
0.0035985437
0.0035193892
0.0034432736
0.0033701495
0.0033002763
0.0032344266
0.0031734559
0.003118107
0.0030694681
0.0030292863
0.0029993607
0.0029812474
0.0029771206
0.0029892436
0.0030185766
0.0030651353
0.0031284817
0.0032073125
0.0032991711
0.0034008063
0.0035082714
0.003616396
0.0037191811
0.0038087394
0.0038777256
0.0039200396
0.0039337645
0.0039199647
0.0038815578
0.0038240462
0.003752542
0.0036717119
0.0035847321
0.003493584
0.0034016614
0.0033094436
0.0032167237
0.0031252585
0.003034617
0.002944244
0.0028549316
0.0027656491
0.0026769668
0.0025882994
0.0024976597
0.0024059391
0.0023129559
0.0022188875
0.0021237132
0.0020264771
0.0019280204
0.0018277989
0.0017259634
0.001622516
0.0015178392
0.0014119269
0.00130493
0.0011979712
0.001090512
0.0009847843
0.00087988601
0.00078209438
0.00068002428
0.00062915234
0.00048254812
0.0010615928
-0.00056944636
0.019203502
0.018236319
0.01714495
0.015939836
0.014644653
0.013334408
0.012093414
0.01097771
0.010008892
0.0091839776
0.008486715
0.0078965141
0.0073941405
0.0069636562
0.0065920528
0.0062686719
0.0059849464
0.0057340421
0.0055104402
0.005309671
0.0051280852
0.0049626493
0.004810881
0.0046707703
0.0045405957
0.0044188577
0.0043043609
0.004196134
0.0040932652
0.0039950036
0.0039008979
0.003810574
0.0037235481
0.0036395378
0.0035586277
0.0034809401
0.0034064648
0.0033354424
0.0032685701
0.0032066713
0.0031505068
0.0031011347
0.0030601945
0.0030294314
0.0030104037
0.0030051441
0.0030157692
0.0030432627
0.0030876648
0.003148523
0.0032245672
0.0033134246
0.0034119081