/*--------------------------------*- C++ -*----------------------------------*\
| =========                 |                                                 |
| \\      /  F ield         | OpenFOAM: The Open Source CFD Toolbox           |
|  \\    /   O peration     | Version:  2206                                  |
|   \\  /    A nd           | Website:  www.openfoam.com                      |
|    \\/     M anipulation  |                                                 |
\*---------------------------------------------------------------------------*/
FoamFile
{
    version     2.0;
    format      ascii;
    arch        "LSB;label=32;scalar=64";
    class       surfaceScalarField;
    location    "400";
    object      phi;
}
// * * * * * * * * * * * * * * * * * * * * * * * * * * * * * * * * * * * * * //

dimensions      [0 3 -1 0 0 0 0];

oriented        oriented;

internalField   nonuniform List<scalar> 
14782
(
0.00061770082
8.7780547e-05
-0.00070548136
0.00051030685
0.00010739397
0.00040013576
0.00011017108
0.00030667249
9.3463271e-05
0.00023999836
6.6674131e-05
0.00019925781
4.0740549e-05
0.00017534022
2.3917589e-05
0.0001611697
1.4170522e-05
0.00015176108
9.4086199e-06
0.00014419347
7.567611e-06
0.00013732329
6.8701789e-06
0.00013096136
6.3619314e-06
0.0001251523
5.8090607e-06
0.0001198593
5.2930038e-06
0.00011502437
4.834924e-06
0.0001106215
4.4028704e-06
0.00010661503
4.0064707e-06
0.00010292333
3.6916987e-06
9.9495539e-05
3.4277955e-06
9.6311937e-05
3.1836011e-06
9.3350318e-05
2.9616192e-06
9.0575849e-05
2.7744693e-06
8.7967192e-05
2.6086573e-06
8.5514938e-05
2.4522535e-06
8.320628e-05
2.3086576e-06
8.1022645e-05
2.1836351e-06
7.8953066e-05
2.0695789e-06
7.6992761e-05
1.9603051e-06
7.5134419e-05
1.8583425e-06
7.3368591e-05
1.765828e-06
7.1690155e-05
1.6784358e-06
7.0096761e-05
1.5933939e-06
6.8584216e-05
1.5125446e-06
6.7147827e-05
1.4363896e-06
6.5785399e-05
1.3624274e-06
6.4496024e-05
1.2893755e-06
6.3277972e-05
1.218052e-06
6.2130242e-05
1.1477298e-06
6.1053762e-05
1.0764806e-06
6.0050261e-05
1.0035005e-06
5.9120957e-05
9.2930429e-07
5.8267552e-05
8.5340498e-07
5.7493218e-05
7.7433396e-07
5.6800321e-05
6.9289709e-07
5.6197318e-05
6.0300235e-07
5.5688355e-05
5.0896344e-07
5.528269e-05
4.0566549e-07
5.4987801e-05
2.9488827e-07
5.4802413e-05
1.8538793e-07
5.4724939e-05
7.7474052e-08
5.4750991e-05
-2.6052171e-08
5.4873706e-05
-1.2271492e-07
5.5080859e-05
-2.0715246e-07
5.5352616e-05
-2.7175726e-07
5.5675853e-05
-3.2323637e-07
5.6037779e-05
-3.6192594e-07
5.6405041e-05
-3.6726294e-07
5.6740695e-05
-3.3565376e-07
5.7008719e-05
-2.6802352e-07
5.7194599e-05
-1.8587992e-07
5.7295205e-05
-1.0060663e-07
5.7313608e-05
-1.8403113e-08
5.725984e-05
5.3768519e-08
5.7147202e-05
1.1263733e-07
5.6989142e-05
1.5806008e-07
5.679763e-05
1.9151285e-07
5.6583426e-05
2.1420335e-07
5.6354353e-05
2.2907274e-07
5.6116267e-05
2.3808664e-07
5.5873618e-05
2.4264901e-07
5.5629645e-05
2.4397306e-07
5.5386053e-05
2.4359132e-07
5.5144339e-05
2.4171416e-07
5.4905761e-05
2.3857859e-07
5.4670233e-05
2.3552796e-07
5.4438365e-05
2.3186767e-07
5.4206855e-05
2.3150979e-07
5.3971236e-05
2.35619e-07
5.3732815e-05
2.3842109e-07
5.3492932e-05
2.3988332e-07
5.3252495e-05
2.4043647e-07
5.3011418e-05
2.4107698e-07
5.2768427e-05
2.4299099e-07
5.2523705e-05
2.4472268e-07
5.2276672e-05
2.4703255e-07
5.2027593e-05
2.4907919e-07
5.1776544e-05
2.5104909e-07
5.1523628e-05
2.5291626e-07
5.1269371e-05
2.5425681e-07
5.1013619e-05
2.5575213e-07
5.0756946e-05
2.5667237e-07
5.0499219e-05
2.577274e-07
5.0240595e-05
2.5862427e-07
4.9980754e-05
2.5984054e-07
4.9718923e-05
2.6183104e-07
4.9454996e-05
2.6392661e-07
4.9209732e-05
2.4526409e-07
4.8807045e-05
4.0268733e-07
4.881632e-05
-9.2749111e-09
8.396996e-07
0.00079176211
9.1061901e-05
-0.00079504346
0.0007787868
0.00012036928
0.00075194712
0.00013701076
0.00070879724
0.00013661315
0.00065526111
0.00012021027
0.00060117492
9.482673e-05
0.00055308348
7.2009029e-05
0.00051315206
5.410195e-05
0.00048029066
4.2270018e-05
0.0004527935
3.5064768e-05
0.0004291644
3.0499278e-05
0.00040850178
2.7024557e-05
0.00039019245
2.4118389e-05
0.00037375162
2.1733839e-05
0.00035883572
1.9750815e-05
0.00034524069
1.7997904e-05
0.00033279412
1.6453043e-05
0.00032131916
1.5166656e-05
0.00031068101
1.4065948e-05
0.00030078941
1.3075196e-05
0.00029156642
1.2184614e-05
0.00028293036
1.141053e-05
0.00027481885
1.0720166e-05
0.00026718594
1.0085156e-05
0.00025998818
9.5064191e-06
0.00025318197
8.989846e-06
0.00024673457
8.5169758e-06
0.00024062326
8.0716153e-06
0.00023482559
7.6560142e-06
0.00022931833
7.2730929e-06
0.00022408468
6.9120791e-06
0.00021911326
6.5648157e-06
0.00021439228
6.23353e-06
0.00020991027
5.9183989e-06
0.0002056599
5.612793e-06
0.00020163698
5.312293e-06
0.00019783774
5.0173002e-06
0.00019426052
4.7249512e-06
0.00019090762
4.4293768e-06
0.00018778397
4.1271533e-06
0.00018489499
3.8182791e-06
0.00018224803
3.5003693e-06
0.00017985339
3.1689694e-06
0.00017772141
2.8248741e-06
0.0001758747
2.4497191e-06
0.00017432855
2.055114e-06
0.00017310251
1.6316999e-06
0.00017221324
1.1841615e-06
0.00017165863
7.399961e-07
0.00017143066
3.0544214e-07
0.00017151305
-1.0843434e-07
0.00017188154
-4.9121199e-07
0.00017249724
-8.2285238e-07
0.0001733051
-1.0796131e-06
0.00017425709
-1.2752309e-06
0.00017529839
-1.4032265e-06
0.0001763352
-1.4040664e-06
0.0001772659
-1.2663544e-06
0.00017799812
-1.0002448e-06
0.00017849119
-6.7894581e-07
0.0001787373
-3.4672315e-07
0.00017874774
-2.884121e-08
0.00017855048
2.5102975e-07
0.00017818255
4.8056799e-07
0.00017768253
6.5807893e-07
0.00017708509
7.8895297e-07
0.00017642037
8.7891685e-07
0.00017571136
9.3808475e-07
0.0001749754
9.7404748e-07
0.00017422555
9.9249654e-07
0.0001734712
9.9832433e-07
0.00017271802
9.9677252e-07
0.00017197057
9.8916169e-07
0.0001712323
9.7685754e-07
0.00017050381
9.6400947e-07
0.00016978586
9.4981846e-07
0.00016906753
9.4984278e-07
0.000168337
9.6614513e-07
0.00016759858
9.7684987e-07
0.00016685651
9.8194417e-07
0.00016611261
9.8434512e-07
0.00016536619
9.8749425e-07
0.00016461451
9.9466807e-07
0.00016385723
1.0020048e-06
0.00016309324
1.0110226e-06
0.00016232297
1.0193458e-06
0.00016154676
1.027258e-06
0.00016076513
1.0345498e-06
0.00015997931
1.0400765e-06
0.00015918948
1.045587e-06
0.00015839684
1.0493072e-06
0.00015760171
1.0528613e-06
0.00015680408
1.0562555e-06
0.00015600467
1.0592457e-06
0.0001551975
1.0689993e-06
0.00015439599
1.0654365e-06
0.00015358669
1.0545621e-06
0.00015257123
1.4181547e-06
0.00015201246
5.494906e-07
2.5183699e-06
0.0008315818
8.6590062e-05
-0.00082710996
0.00083709754
0.00011485354
0.000841625
0.0001324833
0.00084052901
0.00013770914
0.00083141289
0.00012932639
0.00081412848
0.00011211113
0.00079128442
9.4853096e-05
0.00076529408
8.0092284e-05
0.00073805645
6.9507647e-05
0.00071108203
6.2039194e-05
0.00068521043
5.6370877e-05
0.00066073872
5.1496264e-05
0.00063767501
4.7182098e-05
0.00061591683
4.3492023e-05
0.00059539917
4.0268476e-05
0.0005760925
3.730457e-05
0.00055793771
3.4607834e-05
0.0005408407
3.2263665e-05
0.00052471746
3.0189196e-05
0.00050950285
2.8289802e-05
0.00049513155
2.6555918e-05
0.0004815298
2.5012274e-05
0.00046863731
2.3612655e-05
0.00045640658
2.2315887e-05
0.00044479144
2.1121561e-05
0.0004337435
2.0037786e-05
0.00042322385
1.9036624e-05
0.0004132026
1.8092867e-05
0.00040365102
1.7207591e-05
0.000394541
1.6383116e-05
0.00038585113
1.5601947e-05
0.00037756563
1.4850314e-05
0.00036966949
1.4129671e-05
0.00036214918
1.3438714e-05
0.00035499596
1.2766014e-05
0.00034820522
1.2103032e-05
0.00034177416
1.1448356e-05
0.00033570313
1.079598e-05
0.0003299972
1.013531e-05
0.00032466517
9.4591865e-06
0.00031971778
8.765667e-06
0.00031516902
8.0491313e-06
0.00031103665
7.3013366e-06
0.00030734051
6.5210085e-06
0.00030411171
5.678525e-06
0.00030137686
4.7899647e-06
0.00029915663
3.8519274e-06
0.00029746403
2.8767625e-06
0.00029629369
1.9103349e-06
0.00029562808
9.7105335e-07
0.00029543618
8.346078e-08
0.00029567486
-7.2988594e-07
0.00029628238
-1.4303695e-06
0.00029717792
-1.975159e-06
0.0002982834
-2.3807127e-06
0.0002995038
-2.6236177e-06
0.00030070093
-2.6012015e-06
0.00030173459
-2.3000105e-06
0.0003024879
-1.753558e-06
0.00030290716
-1.098207e-06
0.00030298403
-4.2359134e-07
0.00030273617
2.190194e-07
0.00030220284
7.843566e-07
0.00030143594
1.2474662e-06
0.00030048838
1.6056431e-06
0.00029940782
1.8695066e-06
0.00029823563
2.0511106e-06
0.00029700421
2.1695005e-06
0.00029573843
2.2398344e-06
0.00029445704
2.2738828e-06
0.00029317352
2.2818462e-06
0.0002918965
2.2737905e-06
0.00029063282
2.2528444e-06
0.00028938735
2.2223244e-06
0.00028816141
2.1899524e-06
0.00028695514
2.1560908e-06
0.00028575127
2.1537085e-06
0.00028453486
2.1825576e-06
0.00028331361
2.1980987e-06
0.00028209214
2.2034107e-06
0.00028087113
2.2053547e-06
0.00027964875
2.2098766e-06
0.00027842122
2.2221953e-06
0.0002771872
2.2360303e-06
0.00027594504
2.2531817e-06
0.0002746949
2.2694809e-06
0.00027343711
2.2850558e-06
0.00027217235
2.2993059e-06
0.00027090211
2.3103152e-06
0.00026962689
2.3208111e-06
0.00026834809
2.3281033e-06
0.00026706648
2.3344731e-06
0.00026578177
2.3409637e-06
0.00026449579
2.3452236e-06
0.00026319793
2.3668641e-06
0.00026191368
2.3496874e-06
0.00026058467
2.3835729e-06
0.00025910069
2.9021354e-06
0.00025782605
1.824123e-06
4.5911446e-06
0.00086137895
8.2259436e-05
-0.00085704833
0.00086791472
0.00010831778
0.0008752051
0.00012519291
0.00088223061
0.00013068363
0.000886138
0.000125419
0.00088512309
0.00011312604
0.00088103702
9.8939165e-05
0.00087431316
8.6816143e-05
0.00086522696
7.8593851e-05
0.00085402333
7.3242824e-05
0.00084103214
6.9362064e-05
0.00082645409
6.6074318e-05
0.00081065386
6.2982326e-05
0.00079422076
5.9925125e-05
0.00077749415
5.6995084e-05
0.00076069958
5.4099136e-05
0.0007439757
5.1331712e-05
0.00072741031
4.8829062e-05
0.00071108829
4.6511209e-05
0.00069508853
4.4289566e-05
0.00067946623
4.2178221e-05
0.00066424841
4.0230085e-05
0.00064945671
3.8404362e-05
0.00063510936
3.6663238e-05
0.00062121521
3.501571e-05
0.00060777096
3.3482032e-05
0.00059477352
3.2034062e-05
0.00058222073
3.0645657e-05
0.00057010621
2.9322114e-05
0.00055842043
2.8068893e-05
0.00054715704
2.686534e-05
0.0005363122
2.5695152e-05
0.00052588118
2.4560695e-05
0.00051585983
2.346006e-05
0.00050624817
2.2377677e-05
0.00049705009
2.1301106e-05
0.0004882705
2.0227955e-05
0.00047991578
1.91507e-05
0.00047199607
1.8055012e-05
0.00046452509
1.6930168e-05
0.00045751889
1.5771874e-05
0.00045099708
1.4570937e-05
0.00044498292
1.3315492e-05
0.00043950326
1.2000676e-05
0.00043459126
1.0590524e-05
0.00043027383
9.1073947e-06
0.00042656155
7.5642029e-06
0.00042345319
5.9851281e-06
0.00042093714
4.4263801e-06
0.00041899059
2.9176088e-06
0.00041757919
1.4948577e-06
0.00041665336
1.9593784e-07
0.00041614239
-9.1939625e-07
0.0004159629
-1.7956715e-06
0.00041602875
-2.4465584e-06
0.00041622221
-2.8170775e-06
0.00041639131
-2.7703039e-06
0.00041640381
-2.31251e-06
0.00041616431
-1.5140566e-06
0.0004156326
-5.6649643e-07
0.00041480499
4.0402167e-07
0.00041370081
1.3231932e-06
0.00041235709
2.1280739e-06
0.0004108186
2.7859623e-06
0.00040913073
3.2935066e-06
0.00040733538
3.6648581e-06
0.00040546992
3.9165719e-06
0.00040356463
4.0747915e-06
0.00040164337
4.161091e-06
0.00039972448
4.1927787e-06
0.00039782113
4.1851978e-06
0.00039594219
4.1527268e-06
0.00039409487
4.1001605e-06
0.00039228401
4.0331894e-06
0.00039051067
3.9632877e-06
0.0003887736
3.8931667e-06
0.00038706744
3.8598698e-06
0.00038538474
3.8652553e-06
0.00038372081
3.8620235e-06
0.0003820717
3.8525264e-06
0.0003804345
3.8425576e-06
0.00037880574
3.8386297e-06
0.00037718061
3.8473252e-06
0.00037555647
3.8601775e-06
0.00037393074
3.8789085e-06
0.00037230269
3.8975337e-06
0.00037067196
3.9157844e-06
0.00036903874
3.9325194e-06
0.00036740405
3.945009e-06
0.0003657681
3.956764e-06
0.0003641319
3.9643051e-06
0.00036249614
3.9702233e-06
0.00036086
3.9771118e-06
0.00035922579
3.9794309e-06
0.00035757966
4.0129938e-06
0.00035595337
3.9759781e-06
0.00035426465
4.0722915e-06
0.00035247028
4.6965063e-06
0.0003506621
3.6323003e-06
6.8120229e-06
0.00089167125
7.8534331e-05
-0.00088794614
0.00089770403
0.00010228499
0.00090491098
0.00011798597
0.00091181613
0.00012377848
0.00091698234
0.0001202528
0.00091991081
0.00011019756
0.00092055157
9.8298404e-05
0.00091940809
8.7959628e-05
0.0009175205
8.0481441e-05
0.00091496863
7.5794695e-05
0.00091167856
7.2652128e-05
0.00090743034
7.0322547e-05
0.00090197889
6.8433769e-05
0.00089526338
6.6640638e-05
0.00088735681
6.4901651e-05
0.00087828093
6.3175021e-05
0.0008681862
6.1426443e-05
0.00085736078
5.9654485e-05
0.00084596745
5.7904536e-05
0.00083412719
5.6129825e-05
0.00082193843
5.4366983e-05
0.00080947956
5.2688956e-05
0.00079682835
5.1055563e-05
0.00078406359
4.9428003e-05
0.00077125438
4.7824918e-05
0.00075845677
4.6279639e-05
0.00074572357
4.4767264e-05
0.00073310215
4.3267072e-05
0.00072063034
4.1793926e-05
0.00070833843
4.0360803e-05
0.0006962554
3.8948367e-05
0.00068440841
3.7542142e-05
0.00067282043
3.6148677e-05
0.00066151261
3.4767885e-05
0.0006505087
3.338158e-05
0.00063983476
3.1975053e-05
0.00062951131
3.0551405e-05
0.0006195545
2.9107505e-05
0.00060998379
2.7625727e-05
0.00060082214
2.6091815e-05
0.00059209447
2.4499541e-05
0.00058382851
2.2836896e-05
0.00057605459
2.1089411e-05
0.00056880984
1.9245434e-05
0.00056212516
1.7275205e-05
0.0005560107
1.5221856e-05
0.00055046205
1.3112845e-05
0.00054547317
1.0974011e-05
0.00054103868
8.8608723e-06
0.00053714536
6.8109299e-06
0.00053376978
4.8704308e-06
0.00053087125
3.0944714e-06
0.00052838662
1.5652399e-06
0.00052625183
3.3911361e-07
0.00052437547
-5.7020271e-07
0.00052261113
-1.0527341e-06
0.00052082416
-9.8333113e-07
0.00051894053
-4.2887828e-07
0.00051692174
5.0473268e-07
0.00051475708
1.5981624e-06
0.00051245103
2.7100736e-06
0.00051001638
3.7578343e-06
0.00050747304
4.671421e-06
0.00050484466
5.4143446e-06
0.00050215627
5.9818931e-06
0.00049943235
6.3887799e-06
0.0004966963
6.6526183e-06
0.00049396802
6.803075e-06
0.00049126393
6.86518e-06
0.000488597
6.859705e-06
0.00048597658
6.8056211e-06
0.00048340943
6.7198804e-06
0.0004809013
6.6082864e-06
0.00047845537
6.4791171e-06
0.00047607135
6.3473049e-06
0.00047374641
6.2181112e-06
0.00047148173
6.1245532e-06
0.0004692757
6.0712856e-06
0.00046711786
6.0198623e-06
0.00046499816
5.9722246e-06
0.00046291014
5.9305793e-06
0.00046084843
5.900332e-06
0.00045880703
5.8887252e-06
0.00045678193
5.8852809e-06
0.00045476938
5.8914615e-06
0.00045276735
5.8995579e-06
0.00045077438
5.9087593e-06
0.00044878961
5.9172882e-06
0.00044681306
5.9215595e-06
0.00044484416
5.9256627e-06
0.00044288311
5.9253591e-06
0.00044093006
5.9232714e-06
0.00043898329
5.9238778e-06
0.00043704505
5.9176713e-06
0.00043509916
5.9588854e-06
0.0004331796
5.8955431e-06
0.00043119364
6.0582452e-06
0.00042914271
6.7474379e-06
0.00042690488
5.8701268e-06
9.1303495e-06
0.00092306534
7.5203369e-05
-0.00091973438
0.00092858472
9.6765617e-05
0.00093515799
0.0001114127
0.00094157712
0.00011735935
0.00094672706
0.00011510286
0.00094997094
0.00010695368
0.00095155905
9.6710298e-05
0.00095193376
8.7584912e-05
0.00095159464
8.0820561e-05
0.00095108266
7.6306677e-05
0.00095043458
7.3300213e-05
0.00094958453
7.1172589e-05
0.00094843343
6.9584869e-05
0.00094685457
6.8219501e-05
0.00094477095
6.6985267e-05
0.00094204688
6.5899092e-05
0.00093854163
6.4931694e-05
0.00093421366
6.398246e-05
0.00092906868
6.3049514e-05
0.00092308598
6.2112528e-05
0.00091631909
6.1133871e-05
0.00090889549
6.0112552e-05
0.00090089112
5.9059935e-05
0.00089236473
5.7954394e-05
0.00088336864
5.6821006e-05
0.00087395542
5.5692856e-05
0.00086418163
5.4541059e-05
0.00085410141
5.3347284e-05
0.00084376739
5.2127953e-05
0.0008332311
5.0897087e-05
0.00082254512
4.9634351e-05
0.0008117605
4.8326765e-05
0.00080092351
4.6985661e-05
0.00079007708
4.5614319e-05
0.00077926409
4.4194571e-05
0.00076852746
4.2711682e-05
0.00075790909
4.1169774e-05
0.00074745065
3.9565948e-05
0.00073719383
3.7882546e-05
0.00072718007
3.6105572e-05
0.0007174503
3.4229315e-05
0.00070804696
3.2240234e-05
0.00069901473
3.0121642e-05
0.00069041162
2.7848546e-05
0.00068224491
2.5441915e-05
0.00067449212
2.2974646e-05
0.00066717528
2.0429678e-05
0.00066032587
1.7823423e-05
0.00065396261
1.5224137e-05
0.00064808538
1.2688152e-05
0.00064267646
1.0279353e-05
0.00063769699
8.0739402e-06
0.00063309644
6.165796e-06
0.00062884677
4.5887841e-06
0.00062481857
3.457992e-06
0.00062082152
2.9443185e-06
0.00061680369
3.0344955e-06
0.00061279094
3.5838764e-06
0.00060879805
4.4976241e-06
0.00060482955
5.5666588e-06
0.0006008886
6.6510238e-06
0.00059697733
7.669103e-06
0.00059309755
8.5511998e-06
0.00058925328
9.2586142e-06
0.00058545071
9.784467e-06
0.00058169716
1.0142328e-05
0.00057800118
1.0348598e-05
0.00057437075
1.0433505e-05
0.00057081317
1.042276e-05
0.00056733472
1.0338153e-05
0.00056394051
1.0199834e-05
0.00056063367
1.0026716e-05
0.00055741625
9.8257148e-06
0.00055428877
9.6065968e-06
0.00055124909
9.3869813e-06
0.00054829321
9.1739909e-06
0.00054541941
8.9983518e-06
0.00054262625
8.8644515e-06
0.00053990685
8.7392625e-06
0.00053725124
8.627833e-06
0.00053465131
8.5305067e-06
0.00053210024
8.4514051e-06
0.00052959092
8.3980411e-06
0.00052711814
8.3580597e-06
0.00052467697
8.3326346e-06
0.00052226404
8.312489e-06
0.00051987655
8.2962427e-06
0.0005175124
8.281446e-06
0.00051517031
8.2636425e-06
0.00051284883
8.2471463e-06
0.00051054714
8.2270456e-06
0.00050826433
8.206082e-06
0.00050599754
8.1906685e-06
0.00050374842
8.166795e-06
0.00050149918
8.2081208e-06
0.00049928346
8.1112656e-06
0.00049700431
8.3373939e-06
0.00049469471
9.0570437e-06
0.00049206437
8.500458e-06
1.1577797e-05
0.00095544453
7.2203308e-05
-0.00095244447
0.00096052938
9.1680768e-05
0.00096659939
0.00010534269
0.00097256931
0.00011138942
0.00097745244
0.00011021974
0.00098069955
0.00010370657
0.00098245236
9.4957489e-05
0.00098321251
8.6824762e-05
0.00098342296
8.0610108e-05
0.00098340816
7.6321478e-05
0.00098331866
7.3389714e-05
0.00098320329
7.1287959e-05
0.00098305839
6.9729771e-05
0.0009828198
6.8458095e-05
0.00098244179
6.7363273e-05
0.00098188692
6.6453962e-05
0.00098110548
6.5713135e-05
0.00098003437
6.5053569e-05
0.0009786229
6.4460988e-05
0.00097678437
6.3951052e-05
0.00097442602
6.349222e-05
0.00097150643
6.3032141e-05
0.00096800422
6.2562146e-05
0.00096388744
6.2071175e-05
0.00095917073
6.153772e-05
0.00095390477
6.095881e-05
0.0009481178
6.0328033e-05
0.0009418346
5.9630486e-05
0.0009350782
5.8884353e-05
0.00092787464
5.8100642e-05
0.00092025716
5.7251832e-05
0.00091226174
5.6322186e-05
0.00090391989
5.5327508e-05
0.0008952637
5.4270514e-05
0.00088633157
5.3126694e-05
0.00087716301
5.1880244e-05
0.00086779999
5.0532796e-05
0.00085828969
4.9076251e-05
0.00084868173
4.7490505e-05
0.00083902674
4.5760561e-05
0.00082937617
4.3879885e-05
0.00081978371
4.1832696e-05
0.00081030654
3.9598807e-05
0.00080100522
3.7149864e-05
0.00079192891
3.4518229e-05
0.0007831013
3.1802252e-05
0.00077453915
2.8991836e-05
0.00076627382
2.608875e-05
0.00075833644
2.3161517e-05
0.00075074659
2.0278006e-05
0.00074350859
1.7517351e-05
0.00073660771
1.4974816e-05
0.00073002935
1.2744155e-05
0.00072378031
1.0837827e-05
0.00071777912
9.4591811e-06
0.00071188681
8.8366261e-06
0.0007060644
8.8569043e-06
0.00070033198
9.316296e-06
0.00069470111
1.0128502e-05
0.0006891771
1.1090666e-05
0.00068376808
1.2060039e-05
0.00067847756
1.2959622e-05
0.00067330349
1.372527e-05
0.00066824566
1.4316445e-05
0.00066330477
1.4725361e-05
0.00065848049
1.4966614e-05
0.00065377328
1.5055801e-05
0.00064918408
1.5022704e-05
0.000644714
1.489284e-05
0.0006403641
1.4688054e-05
0.00063613588
1.4428056e-05
0.00063202947
1.4133129e-05
0.00062804379
1.3811388e-05
0.00062417697
1.3473422e-05
0.00062042497
1.3138984e-05
0.00061678276
1.2816195e-05
0.00061324609
1.2535023e-05
0.00060981185
1.2298688e-05
0.00060647531
1.207581e-05
0.00060322821
1.1874927e-05
0.00060006258
1.1696138e-05
0.00059697098
1.1543004e-05
0.00059394558
1.1423446e-05
0.00059098017
1.1323464e-05
0.00058806877
1.1244041e-05
0.00058520672
1.1174539e-05
0.00058238988
1.1113075e-05
0.00057961478
1.1056554e-05
0.00057687876
1.0999663e-05
0.00057417918
1.0946724e-05
0.00057151404
1.0892178e-05
0.0005688812
1.0838927e-05
0.00056627656
1.0795307e-05
0.00056370087
1.074249e-05
0.00056113506
1.0773929e-05
0.00055861127
1.063506e-05
0.00055603028
1.0918379e-05
0.00055345027
1.1637052e-05
0.0005504426
1.1508129e-05
1.4185044e-05
0.0009888498
6.9473033e-05
-0.00098611952
0.00099352834
8.7002226e-05
0.00099915951
9.9711514e-05
0.0010047417
0.00010580728
0.0010093992
0.00010556214
0.0010126237
0.00010048214
0.0010144729
9.3108284e-05
0.0010153722
8.5925491e-05
0.0010157583
8.0223991e-05
0.0010159306
7.6149203e-05
0.0010160288
7.3291484e-05
0.0010160986
7.1218168e-05
0.0010161675
6.9660861e-05
0.0010162209
6.8404643e-05
0.0010162308
6.7353381e-05
0.0010161943
6.6490482e-05
0.0010161071
6.5800356e-05
0.0010159428
6.5217848e-05
0.0010156802
6.4723563e-05
0.0010152951
6.4336193e-05
0.0010147521
6.4035242e-05
0.0010140102
6.3774004e-05
0.0010130293
6.3543023e-05
0.0010117482
6.3352351e-05
0.0010101039
6.318202e-05
0.001008059
6.3003652e-05
0.0010055818
6.2805195e-05
0.0010026415
6.2570876e-05
0.00099923746
6.2288352e-05
0.00099538369
6.1954412e-05
0.00099108245
6.1553074e-05
0.00098633531
6.1069322e-05
0.00098114699
6.051583e-05
0.00097552641
5.9891099e-05
0.00096948565
5.9167457e-05
0.00096303884
5.8327048e-05
0.00095620146
5.7370174e-05
0.00094899011
5.6287605e-05
0.00094142357
5.5057047e-05
0.0009335273
5.3656824e-05
0.00092533261
5.2074576e-05
0.0009168752
5.0290109e-05
0.00090819756
4.827645e-05
0.00089933832
4.6009097e-05
0.00089037719
4.3479363e-05
0.00088140952
4.0769923e-05
0.00087246887
3.7932489e-05
0.0008635764
3.4981219e-05
0.000854766
3.1971912e-05
0.00084607703
2.8966977e-05
0.00083755002
2.6044358e-05
0.0008292219
2.3302941e-05
0.00082112116
2.0844899e-05
0.0008132555
1.8703487e-05
0.00080566841
1.7046268e-05
0.00079834189
1.6163147e-05
0.00079119543
1.600336e-05
0.0007841935
1.6318225e-05
0.00077730365
1.7018354e-05
0.00077052598
1.7868337e-05
0.00076387588
1.8710142e-05
0.0007573606
1.94749e-05
0.00075098434
2.0101534e-05
0.00074475715
2.0543634e-05
0.00073868539
2.0797113e-05
0.00073276954
2.0882467e-05
0.00072701067
2.0814675e-05
0.00072140977
2.0623599e-05
0.0007159662
2.0336417e-05
0.00071067857
1.9975683e-05
0.00070554645
1.9560174e-05
0.00070056873
1.9110842e-05
0.00069574319
1.8636928e-05
0.00069106644
1.8150181e-05
0.00068653295
1.7672474e-05
0.00068213685
1.7212292e-05
0.00067787249
1.679938e-05
0.00067373521
1.6435966e-05
0.0006697207
1.6090324e-05
0.0006658221
1.5773523e-05
0.00066203227
1.5485975e-05
0.00065834383
1.5231442e-05
0.00065474856
1.5018718e-05
0.00065123951
1.4832513e-05
0.00064780971
1.4673834e-05
0.00064445333
1.4530923e-05
0.00064116488
1.4401525e-05
0.00063793946
1.4281976e-05
0.00063477296
1.4166157e-05
0.0006316613
1.4058392e-05
0.00062860105
1.3952425e-05
0.00062558881
1.3851167e-05
0.00062261924
1.376488e-05
0.00061969194
1.3669784e-05
0.00061678668
1.3679194e-05
0.00061393362
1.3488119e-05
0.00061103144
1.3820556e-05
0.0006081605
1.450799e-05
0.00060477038
1.4898247e-05
1.6982789e-05
0.0010233183
6.6956864e-05
-0.0010208021
0.001027616
8.2704484e-05
0.0010328334
9.4494177e-05
0.0010380554
0.00010058528
0.001042507
0.0001011105
0.0010457111
9.727801e-05
0.0010476612
9.115822e-05
0.0010486966
8.4890113e-05
0.0010492067
7.9713859e-05
0.0010494759
7.5880039e-05
0.0010496531
7.3114267e-05
0.0010497994
7.1071867e-05
0.0010499395
6.9520738e-05
0.0010500648
6.8279373e-05
0.0010501673
6.725089e-05
0.0010502493
6.6408476e-05
0.0010503215
6.5728173e-05
0.0010503739
6.516537e-05
0.0010503895
6.4708032e-05
0.0010503709
6.4354742e-05
0.0010503147
6.4091501e-05
0.0010502042
6.3884499e-05
0.001050024
6.3723198e-05
0.0010497555
6.3620843e-05
0.0010493732
6.3564284e-05
0.0010488483
6.352855e-05
0.0010481487
6.3504797e-05
0.0010472288
6.3490857e-05
0.0010460434
6.3473703e-05
0.0010445618
6.3436028e-05
0.0010427497
6.3365202e-05
0.0010405767
6.3242302e-05
0.0010380358
6.3056688e-05
0.0010351236
6.2803361e-05
0.0010318292
6.246187e-05
0.0010281407
6.2015521e-05
0.0010240468
6.1464007e-05
0.0010195403
6.0794109e-05
0.0010146174
5.9980018e-05
0.0010092738
5.9000363e-05
0.0010035049
5.7843528e-05
0.00099730665
5.6488343e-05
0.00099067856
5.490454e-05
0.00098361681
5.3070846e-05
0.00097613067
5.0965502e-05
0.00096828152
4.8619074e-05
0.00096013866
4.6075348e-05
0.00095174666
4.3373221e-05
0.00094314744
4.0571128e-05
0.00093438733
3.7727089e-05
0.00092552233
3.4909357e-05
0.00091661955
3.2205721e-05
0.00090774201
2.9722439e-05
0.00089891584
2.7529652e-05
0.00089024127
2.5720844e-05
0.00088185757
2.4546846e-05
0.00087376117
2.4099754e-05
0.00086582446
2.4254941e-05
0.00085796998
2.487283e-05
0.00085021649
2.5621827e-05
0.00084256642
2.6360216e-05
0.00083501794
2.7023378e-05
0.00082758907
2.7530397e-05
0.00082030389
2.7828821e-05
0.00081317295
2.7928047e-05
0.00080620201
2.7853409e-05
0.00079940172
2.7614963e-05
0.00079277896
2.7246362e-05
0.00078633479
2.6780589e-05
0.00078006997
2.6240504e-05
0.00077398626
2.564388e-05
0.00076808336
2.5013744e-05
0.00076235928
2.4361009e-05
0.00075681086
2.3698598e-05
0.00075143248
2.3050855e-05
0.00074621837
2.2426406e-05
0.00074116295
2.1854794e-05
0.00073626108
2.1337836e-05
0.00073150838
2.084303e-05
0.00072689883
2.0383073e-05
0.00072242626
1.9958542e-05
0.0007180838
1.9573904e-05
0.00071386318
1.9239336e-05
0.00070975701
1.8938684e-05
0.00070575753
1.8673318e-05
0.00070185782
1.8430625e-05
0.00069805119
1.8208156e-05
0.00069433135
1.8001816e-05
0.00069069274
1.7804771e-05
0.00068712973
1.7621405e-05
0.0006836374
1.7444752e-05
0.00068021096
1.7277601e-05
0.00067684376
1.7132084e-05
0.00067353413
1.6979417e-05
0.0006702606
1.6952718e-05
0.0006670513
1.6697426e-05
0.0006638023
1.706955e-05
0.00066061452
1.7695774e-05
0.00065682414
1.868863e-05
2.000156e-05
0.0010588794
6.4615088e-05
-0.0010565376
0.0010628259
7.8757912e-05
0.0010676542
8.9665942e-05
0.0010725378
9.5701657e-05
0.0010767856
9.686274e-05
0.001079955
9.410853e-05
0.001081993
8.912027e-05
0.0010831628
8.3720292e-05
0.0010838025
7.9074206e-05
0.0010841722
7.5510274e-05
0.0010844202
7.2866313e-05
0.0010846158
7.0876265e-05
0.0010847912
6.9345328e-05
0.0010849493
6.8121246e-05
0.0010850884
6.7111781e-05
0.0010852124
6.6284471e-05
0.0010853249
6.5615727e-05
0.0010854219
6.5068348e-05
0.0010855038
6.462614e-05
0.0010855734
6.4285123e-05
0.0010856363
6.4028599e-05
0.0010856871
6.3833683e-05
0.0010857115
6.3698814e-05
0.0010857092
6.3623107e-05
0.0010856788
6.3594754e-05
0.0010856088
6.3598569e-05
0.0010854882
6.3625308e-05
0.0010853022
6.3676936e-05
0.0010850306
6.3745231e-05
0.0010846524
6.3814277e-05
0.001084141
6.387657e-05
0.0010834613
6.3922017e-05
0.0010825793
6.3938666e-05
0.0010814695
6.3913222e-05
0.0010800984
6.3832907e-05
0.001078439
6.3674974e-05
0.0010764787
6.3424324e-05
0.0010742003
6.3072423e-05
0.0010715857
6.259466e-05
0.0010686141
6.1971951e-05
0.0010652626
6.1195039e-05
0.0010615068
6.0244155e-05
0.0010573207
5.9090629e-05
0.001052675
5.7716574e-05
0.0010475315
5.6108967e-05
0.0010418704
5.4280231e-05
0.0010357007
5.2244998e-05
0.0010290392
5.0034759e-05
0.0010219037
4.7706637e-05
0.0010143181
4.5312653e-05
0.001006318
4.2909475e-05
0.00099795521
4.0568485e-05
0.00098929798
3.8379673e-05
0.00098040789
3.6419743e-05
0.00097137727
3.4751461e-05
0.00096239952
3.3524592e-05
0.00095361277
3.2886504e-05
0.00094501832
3.2849395e-05
0.0009365943
3.3296845e-05
0.00092827839
3.3937746e-05
0.00091998756
3.4651045e-05
0.00091171853
3.5292402e-05
0.00090352287
3.5726061e-05
0.00089542021
3.5931484e-05
0.00088741661
3.5931647e-05
0.00087953598
3.5734032e-05
0.00087180521
3.5345734e-05
0.00086423619
3.4815385e-05
0.00085683566
3.4181122e-05
0.00084961436
3.3461805e-05
0.00084258091
3.2677326e-05
0.000835738
3.1856654e-05
0.00082908697
3.1012039e-05
0.00082262832
3.0157251e-05
0.0008163589
2.9320268e-05
0.00081027536
2.8509952e-05
0.00080437454
2.7755609e-05
0.00079865248
2.7059897e-05
0.00079310536
2.6390154e-05
0.00078772818
2.576025e-05
0.00078251597
2.5170754e-05
0.00077746267
2.4627206e-05
0.00077256046
2.4141541e-05
0.00076780195
2.3697196e-05
0.00076317889
2.3296379e-05
0.00075868361
2.2925906e-05
0.0007543084
2.2583367e-05
0.00075004576
2.2264455e-05
0.00074588877
2.1961762e-05
0.00074183033
2.1679839e-05
0.00073786403
2.1411054e-05
0.00073398362
2.1158018e-05
0.00073018105
2.0934649e-05
0.00072645331
2.0707157e-05
0.00072277766
2.0628364e-05
0.00071918017
2.0294921e-05
0.00071555377
2.0695945e-05
0.00071201885
2.12307e-05
0.00070780121
2.2906266e-05
2.3272375e-05
0.0010955669
6.241952e-05
-0.0010933714
0.0010991946
7.5130253e-05
0.0011036597
8.5200857e-05
0.0011082254
9.1135959e-05
0.0011122715
9.2816664e-05
0.0011153907
9.0989278e-05
0.0011174969
8.7014072e-05
0.0011187873
8.2429914e-05
0.0011195509
7.8310638e-05
0.0011200237
7.5037388e-05
0.0011203493
7.2540802e-05
0.0011206006
7.0624969e-05
0.0011208145
6.9131347e-05
0.0011210018
6.7933973e-05
0.001121165
6.6948625e-05
0.0011213097
6.6139706e-05
0.0011214412
6.5484292e-05
0.0011215594
6.4950135e-05
0.0011216661
6.4519376e-05
0.0011217649
6.4186352e-05
0.0011218568
6.3936723e-05
0.0011219394
6.3751115e-05
0.0011220129
6.3625313e-05
0.0011220788
6.3557178e-05
0.0011221375
6.3536023e-05
0.001122191
6.3545099e-05
0.0011222282
6.3588121e-05
0.0011222411
6.3664056e-05
0.001122232
6.375424e-05
0.0011221929
6.3853403e-05
0.0011221153
6.3954162e-05
0.0011219872
6.4050095e-05
0.0011217921
6.4133764e-05
0.0011215138
6.4191618e-05
0.0011211295
6.4217126e-05
0.0011206111
6.4193416e-05
0.0011199324
6.4103049e-05
0.0011190695
6.3935279e-05
0.0011179915
6.3672704e-05
0.0011166726
6.3290833e-05
0.0011150955
6.2772161e-05
0.0011132337
6.2105954e-05
0.0011110566
6.1267708e-05
0.0011085303
6.0242902e-05
0.0011056136
5.9025652e-05
0.0011022611
5.7632724e-05
0.0010984304
5.6075643e-05
0.0010940863
5.4378918e-05
0.0010891976
5.2595317e-05
0.0010837385
5.0771776e-05