/*--------------------------------*- C++ -*----------------------------------*\
| =========                 |                                                 |
| \\      /  F ield         | OpenFOAM: The Open Source CFD Toolbox           |
|  \\    /   O peration     | Version:  2206                                  |
|   \\  /    A nd           | Website:  www.openfoam.com                      |
|    \\/     M anipulation  |                                                 |
\*---------------------------------------------------------------------------*/
FoamFile
{
    version     2.0;
    format      ascii;
    arch        "LSB;label=32;scalar=64";
    class       volVectorField;
    location    "400";
    object      U;
}
// * * * * * * * * * * * * * * * * * * * * * * * * * * * * * * * * * * * * * //

dimensions      [0 1 -1 0 0 0 0];

internalField   nonuniform List<vector> 
7480
(
(0.82756855 0.011163647 0)
(0.70301221 0.020214192 0)
(0.56656316 0.021428026 0)
(0.43054661 0.014559814 0)
(0.33055869 0.0062885855 0)
(0.26658189 0.0019097164 0)
(0.23007619 0.0022252631 0)
(0.20853373 -0.00029120287 0)
(0.19447408 -0.00042993948 0)
(0.18414556 -0.00017523785 0)
(0.17532157 1.044045e-06 0)
(0.16713282 5.4225762e-05 0)
(0.15956149 6.4881831e-05 0)
(0.15266042 6.6853869e-05 0)
(0.14637179 0.0002409978 0)
(0.14063485 0.00020899348 0)
(0.13540264 8.0424815e-05 0)
(0.13061631 5.034071e-05 0)
(0.1261898 4.487266e-05 0)
(0.12207502 4.0439635e-05 0)
(0.11825076 3.6963294e-05 0)
(0.11468107 3.5016149e-05 0)
(0.11132921 3.2822287e-05 0)
(0.10817718 3.0191989e-05 0)
(0.10521236 2.7913927e-05 0)
(0.10241457 2.6237501e-05 0)
(0.099764581 2.4468535e-05 0)
(0.097253202 2.2535741e-05 0)
(0.094873827 2.0841859e-05 0)
(0.09261549 1.9427402e-05 0)
(0.090468592 1.7976973e-05 0)
(0.088428971 1.6493547e-05 0)
(0.086492963 1.5171571e-05 0)
(0.084654681 1.398625e-05 0)
(0.08290958 1.2805841e-05 0)
(0.081256031 1.1643744e-05 0)
(0.079692484 1.057693e-05 0)
(0.078216997 9.5602916e-06 0)
(0.076829451 8.5388294e-06 0)
(0.075531774 7.5291921e-06 0)
(0.074325915 6.5747782e-06 0)
(0.073213365 5.6584708e-06 0)
(0.0721976 4.7350779e-06 0)
(0.071281408 3.8623126e-06 0)
(0.070468128 1.5456462e-05 0)
(0.069782049 7.5827043e-06 0)
(0.069204706 8.9537563e-07 0)
(0.068767625 1.1462695e-08 0)
(0.068469762 -8.9793491e-07 0)
(0.06830801 -1.6557711e-06 0)
(0.06827873 -2.3914862e-06 0)
(0.068375408 -2.8864579e-06 0)
(0.068587223 -3.2288384e-06 0)
(0.068891985 -3.3229178e-06 0)
(0.06926801 -3.4170708e-06 0)
(0.069703505 -3.5292968e-06 0)
(0.070169208 -3.235996e-06 0)
(0.070617835 -2.7609229e-06 0)
(0.071003396 -2.4064186e-06 0)
(0.071285508 -4.8817255e-06 0)
(0.07146317 -9.4175623e-07 0)
(0.071534725 -4.4802755e-07 0)
(0.071508569 -7.7687652e-08 0)
(0.071400092 1.0343248e-07 0)
(0.071226964 2.0469993e-07 0)
(0.071005183 2.6587078e-07 0)
(0.070749104 2.8217912e-07 0)
(0.070470353 2.8560121e-07 0)
(0.070177271 2.8067372e-07 0)
(0.069876115 2.7043654e-07 0)
(0.069571749 2.5619506e-07 0)
(0.069267059 2.4724154e-07 0)
(0.068963806 2.3687977e-07 0)
(0.068663988 2.2288892e-07 0)
(0.068368108 2.1927084e-07 0)
(0.068076521 2.0974167e-07 0)
(0.067789685 2.2061692e-07 0)
(0.067498103 2.5059248e-07 0)
(0.067201605 2.5701319e-07 0)
(0.066902888 2.6242762e-07 0)
(0.066603102 2.6120512e-07 0)
(0.066302909 2.5836265e-07 0)
(0.066000994 2.6456298e-07 0)
(0.065696737 2.6197304e-07 0)
(0.065389912 2.6448014e-07 0)
(0.065080271 2.6256615e-07 0)
(0.064768174 2.6088847e-07 0)
(0.064453571 2.5975882e-07 0)
(0.064137057 2.5504109e-07 0)
(0.063818722 2.5426081e-07 0)
(0.063498943 2.488455e-07 0)
(0.063177815 2.4777527e-07 0)
(0.062856004 2.4179749e-07 0)
(0.062531403 2.4846103e-07 0)
(0.06220992 2.2455553e-07 0)
(0.06186977 3.0524076e-07 0)
(0.061575234 9.4628882e-07 0)
(0.061138443 1.1411605e-05 0)
(0.060898271 1.911847e-05 0)
(0.060226363 1.0933904e-05 0)
(0.95867122 0.028039608 0)
(0.94943255 0.038588871 0)
(0.93030635 0.041834847 0)
(0.88513322 0.039312446 0)
(0.82442455 0.032447726 0)
(0.75684479 0.023974633 0)
(0.69438742 0.015508073 0)
(0.64141131 0.0094015049 0)
(0.59778505 0.0060294658 0)
(0.56173166 0.0043629675 0)
(0.53124308 0.0035597011 0)
(0.50478696 0.003081587 0)
(0.48144827 0.0027033076 0)
(0.46060694 0.0023889239 0)
(0.44177551 0.002130107 0)
(0.4246312 0.0018769555 0)
(0.40896751 0.0016557238 0)
(0.39457708 0.0014835422 0)
(0.381268 0.0013368596 0)
(0.36890454 0.0012054334 0)
(0.35739239 0.0010890731 0)
(0.34663538 0.00099002069 0)
(0.33654455 0.00090295276 0)
(0.32705692 0.00082400074 0)
(0.3181185 0.00075338926 0)
(0.30967756 0.00069152288 0)
(0.30168696 0.00063577145 0)
(0.29411385 0.00058426049 0)
(0.28693268 0.00053732682 0)
(0.28011541 0.00049510923 0)
(0.27363696 0.00045626432 0)
(0.26748095 0.00041996661 0)
(0.26163428 0.00038644907 0)
(0.25608254 0.0003556099 0)
(0.25081383 0.00032674817 0)
(0.24582162 0.00029949206 0)
(0.24110134 0.00027388574 0)
(0.23664938 0.00024965651 0)
(0.23246591 0.00022635921 0)
(0.22855574 0.00020380754 0)
(0.22492545 0.00018205555 0)
(0.22158212 0.00016096069 0)
(0.21853723 0.00014027171 0)
(0.21580214 0.00012006746 0)
(0.21339404 0.00010068069 0)
(0.21135541 0.00010069725 0)
(0.20966928 5.6970627e-05 0)
(0.20839205 3.7481464e-05 0)
(0.20752544 1.8418983e-05 0)
(0.20706014 7.0988325e-07 0)
(0.20698121 -1.5076881e-05 0)
(0.20726525 -2.8819053e-05 0)
(0.20787678 -3.977815e-05 0)
(0.20875399 -4.720922e-05 0)
(0.20983282 -5.2132548e-05 0)
(0.21106046 -5.464894e-05 0)
(0.21234539 -5.2614282e-05 0)
(0.21356098 -4.6049744e-05 0)
(0.21458552 -3.6585197e-05 0)
(0.21532734 -2.5494414e-05 0)
(0.21576875 -1.455595e-05 0)
(0.21591585 -5.0571346e-06 0)
(0.21579149 2.7032394e-06 0)
(0.21543697 8.6610624e-06 0)
(0.21490076 1.2906642e-05 0)
(0.21422767 1.572667e-05 0)
(0.2134572 1.7379494e-05 0)
(0.21262143 1.822221e-05 0)
(0.21174431 1.849244e-05 0)
(0.21084372 1.8358941e-05 0)
(0.20993331 1.7958644e-05 0)
(0.20902162 1.7430706e-05 0)
(0.20811429 1.6805299e-05 0)
(0.20721675 1.6115223e-05 0)
(0.20633097 1.545498e-05 0)
(0.20545792 1.4790413e-05 0)
(0.20459746 1.4461468e-05 0)
(0.20372204 1.444761e-05 0)
(0.20283297 1.4265851e-05 0)
(0.20193834 1.397266e-05 0)
(0.20104101 1.3628712e-05 0)
(0.2001418 1.3298514e-05 0)
(0.19923762 1.3038182e-05 0)
(0.19832671 1.2771792e-05 0)
(0.19740817 1.2533603e-05 0)
(0.19648157 1.2283061e-05 0)
(0.19554766 1.2029889e-05 0)
(0.19460663 1.1772528e-05 0)
(0.19366 1.1495305e-05 0)
(0.1927083 1.1226973e-05 0)
(0.19175265 1.0940047e-05 0)
(0.1907935 1.0662229e-05 0)
(0.18983266 1.0386552e-05 0)
(0.18886572 1.012194e-05 0)
(0.1879054 9.9123011e-06 0)
(0.18690459 9.6366422e-06 0)
(0.18600444 1.1613642e-05 0)
(0.18477427 4.0004993e-05 0)
(0.18403441 6.5084245e-05 0)
(0.18205871 3.6626951e-05 0)
(0.96803869 0.029706037 0)
(0.97312634 0.037719551 0)
(0.9824124 0.041543268 0)
(0.98427237 0.041013794 0)
(0.97940072 0.037118725 0)
(0.96363733 0.030600715 0)
(0.93927788 0.024147474 0)
(0.91013224 0.019116601 0)
(0.87837342 0.01550051 0)
(0.84617714 0.012897443 0)
(0.81517892 0.010957627 0)
(0.78577784 0.009404762 0)
(0.75804293 0.0081188064 0)
(0.73189217 0.0070811633 0)
(0.70722211 0.0062338238 0)
(0.68397713 0.0055130827 0)
(0.66212007 0.0048989735 0)
(0.64155814 0.0043850959 0)
(0.62217971 0.0039455233 0)
(0.60389638 0.003558151 0)
(0.58663687 0.0032169433 0)
(0.5703185 0.0029218979 0)
(0.55486085 0.0026626791 0)
(0.54020113 0.0024302698 0)
(0.52628716 0.0022225535 0)
(0.51306293 0.0020389257 0)
(0.50047614 0.0018739789 0)
(0.48848714 0.0017232761 0)
(0.47706316 0.001586049 0)
(0.4661705 0.0014617477 0)
(0.45577944 0.0013476633 0)
(0.44586887 0.0012417799 0)
(0.43642155 0.0011438631 0)
(0.42742047 0.0010533868 0)
(0.41885209 0.00096888278 0)
(0.41070895 0.00088933217 0)
(0.40298702 0.00081444748 0)
(0.39568459 0.00074350558 0)
(0.3888046 0.00067548194 0)
(0.38235553 0.00060979076 0)
(0.37634908 0.0005463201 0)
(0.37079915 0.00048467161 0)
(0.36572526 0.0004242769 0)
(0.36114767 0.00036521512 0)
(0.35709521 0.00030477791 0)
(0.35361721 0.00028256171 0)
(0.35071455 0.00018809847 0)
(0.34843102 0.00012880527 0)
(0.34676684 7.4242812e-05 0)
(0.3457059 2.40488e-05 0)
(0.34522035 -2.0780798e-05 0)
(0.345266 -5.9453574e-05 0)
(0.34578585 -9.0554215e-05 0)
(0.34668969 -0.00011252273 0)
(0.34788488 -0.00012698877 0)
(0.34928057 -0.00013384682 0)
(0.35073523 -0.00012953515 0)
(0.35207461 -0.00011310306 0)
(0.35314295 -8.7245865e-05 0)
(0.35383119 -5.8690164e-05 0)
(0.35411428 -3.0420134e-05 0)
(0.35400362 -5.111311e-06 0)
(0.35353089 1.5931796e-05 0)
(0.3527534 3.2067764e-05 0)
(0.35173543 4.358791e-05 0)
(0.3505364 5.1230208e-05 0)
(0.34920876 5.5702841e-05 0)
(0.34779563 5.7891681e-05 0)
(0.34633007 5.8457821e-05 0)
(0.34483699 5.7885348e-05 0)
(0.34333528 5.6561027e-05 0)
(0.34183709 5.4837879e-05 0)
(0.34035086 5.2832905e-05 0)
(0.33888414 5.0653208e-05 0)
(0.33744 4.8518056e-05 0)
(0.33601962 4.6409061e-05 0)
(0.33462133 4.5193179e-05 0)
(0.33320509 4.4790051e-05 0)
(0.33177829 4.4006657e-05 0)
(0.33035068 4.2944596e-05 0)
(0.3289238 4.1797725e-05 0)
(0.32749714 4.0715946e-05 0)
(0.32606635 3.9812313e-05 0)
(0.3246285 3.8939732e-05 0)
(0.3231818 3.8140396e-05 0)
(0.32172537 3.7329812e-05 0)
(0.32025985 3.6516438e-05 0)
(0.31878545 3.5693355e-05 0)
(0.31730399 3.4828952e-05 0)
(0.3158163 3.3977559e-05 0)
(0.31432379 3.3092012e-05 0)
(0.31282716 3.221785e-05 0)
(0.31132881 3.1363629e-05 0)
(0.30982339 3.0508884e-05 0)
(0.30832634 2.9886364e-05 0)
(0.30677963 2.8829439e-05 0)
(0.3053559 3.1729152e-05 0)
(0.30351771 7.2805508e-05 0)
(0.30231674 0.0001133753 0)
(0.29932275 6.8635744e-05 0)
(0.97008224 0.027083565 0)
(0.97643234 0.034265397 0)
(0.98549024 0.038379033 0)
(0.99345611 0.039212643 0)
(1.0016595 0.036176535 0)
(1.0025462 0.031201661 0)
(0.99958853 0.026292942 0)
(0.99334881 0.022246951 0)
(0.98421934 0.019368121 0)
(0.97252862 0.017346189 0)
(0.95870493 0.015775948 0)
(0.94314573 0.014349619 0)
(0.92572726 0.013014526 0)
(0.90738368 0.01178018 0)
(0.88856864 0.010669206 0)
(0.86956773 0.0096635264 0)
(0.85058276 0.0087601266 0)
(0.83173793 0.0079707534 0)
(0.81312364 0.007274922 0)
(0.79483208 0.0066466249 0)
(0.77694344 0.0060787542 0)
(0.75950291 0.005572858 0)
(0.74253459 0.0051177351 0)
(0.7260587 0.0047030497 0)
(0.7100935 0.0043267181 0)
(0.69464098 0.0039883045 0)
(0.67969553 0.0036810005 0)
(0.66525408 0.0033987444 0)
(0.65131277 0.0031400713 0)
(0.63786183 0.0029037974 0)
(0.62489133 0.0026858395 0)
(0.61239582 0.0024830156 0)
(0.60037092 0.0022945527 0)
(0.5888111 0.002119354 0)
(0.57771339 0.0019550621 0)
(0.56708019 0.0017999135 0)
(0.55691737 0.0016532735 0)
(0.54723084 0.0015139668 0)
(0.53802946 0.0013802996 0)
(0.52932691 0.0012512016 0)
(0.52114021 0.0011263052 0)
(0.51348911 0.001004876 0)
(0.50639884 0.0008859909 0)
(0.49989533 0.00076956402 0)
(0.49401494 0.00065156503 0)
(0.48879875 0.00054886315 0)
(0.48426183 0.00042700695 0)
(0.48041192 0.00031342848 0)
(0.4772423 0.00021004718 0)
(0.47473202 0.0001155419 0)
(0.47284976 3.1265773e-05 0)
(0.47154921 -4.1414735e-05 0)
(0.47076407 -0.00010002629 0)
(0.47039821 -0.00014236045 0)
(0.47036452 -0.00017114987 0)
(0.47055394 -0.00018578741 0)
(0.47080054 -0.00017828887 0)
(0.47093275 -0.00015126974 0)
(0.47082226 -0.00010672031 0)
(0.4703874 -6.1030259e-05 0)
(0.46961249 -1.5040643e-05 0)
(0.46850968 2.6133357e-05 0)
(0.4671119 6.0103331e-05 0)
(0.46546766 8.5974874e-05 0)
(0.46362988 0.00010420874 0)
(0.46164841 0.00011597571 0)
(0.45956851 0.00012244292 0)
(0.4574286 0.00012502665 0)
(0.45525907 0.00012482959 0)
(0.45308341 0.00012268539 0)
(0.45091951 0.00011927115 0)
(0.44877894 0.00011516634 0)
(0.44667051 0.00011058533 0)
(0.44460171 0.00010574061 0)
(0.44257535 0.00010099475 0)
(0.44059199 9.639768e-05 0)
(0.43864747 9.2968593e-05 0)
(0.43673322 9.0753412e-05 0)
(0.43484223 8.8381824e-05 0)
(0.43297018 8.5827611e-05 0)
(0.43111294 8.3268488e-05 0)
(0.42926771 8.0892024e-05 0)
(0.427429 7.8851434e-05 0)
(0.42559259 7.6928948e-05 0)
(0.42375551 7.5161378e-05 0)
(0.42191585 7.3413574e-05 0)
(0.42007335 7.1684706e-05 0)
(0.41822758 6.9956331e-05 0)
(0.41637973 6.8179096e-05 0)
(0.41453023 6.642904e-05 0)
(0.41267999 6.464158e-05 0)
(0.41082945 6.2872619e-05 0)
(0.40898084 6.1159324e-05 0)
(0.40712814 5.9425286e-05 0)
(0.40528735 5.8188963e-05 0)
(0.40339672 5.5979592e-05 0)
(0.40163438 5.9744155e-05 0)
(0.39945283 0.00010782998 0)
(0.39792114 0.00015854402 0)
(0.3943855 9.0397725e-05 0)
(0.97244069 0.025563702 0)
(0.97779974 0.032400566 0)
(0.98588984 0.036408363 0)
(0.99419769 0.03706977 0)
(1.0012776 0.034669172 0)
(1.0056302 0.030636552 0)
(1.0079687 0.026373209 0)
(1.007119 0.022757426 0)
(1.0053099 0.020141706 0)
(1.002801 0.018353425 0)
(0.99959383 0.017017168 0)
(0.99558857 0.015923736 0)
(0.99029593 0.014971705 0)
(0.98362525 0.01407898 0)
(0.97559112 0.013226069 0)
(0.96631728 0.012373541 0)
(0.9557032 0.011537697 0)
(0.94420059 0.010747415 0)
(0.93200595 0.010010198 0)
(0.91926182 0.0093178689 0)
(0.90608439 0.0086716631 0)
(0.89257664 0.0080778597 0)
(0.8788158 0.0075281678 0)
(0.86488791 0.0070128343 0)
(0.85087726 0.006531316 0)
(0.83685203 0.0060858229 0)
(0.8228704 0.0056709336 0)
(0.808987 0.005281682 0)
(0.7952492 0.0049181246 0)
(0.78169353 0.0045802489 0)
(0.7683513 0.0042640907 0)
(0.75525322 0.0039664492 0)
(0.74242704 0.0036867822 0)
(0.72989621 0.003423906 0)
(0.71768419 0.0031748894 0)
(0.70581886 0.0029374837 0)
(0.69432885 0.0027113701 0)
(0.68323106 0.002495577 0)
(0.67254411 0.0022879359 0)
(0.66229154 0.0020868377 0)
(0.65249988 0.0018915886 0)
(0.64319757 0.0017011093 0)
(0.63441731 0.001514197 0)
(0.62619155 0.0013302911 0)
(0.61857019 0.0011476808 0)
(0.61157359 0.00096760391 0)
(0.60519794 0.00078995415 0)
(0.59943846 0.00062365265 0)
(0.59428964 0.0004670198 0)
(0.58974261 0.0003232764 0)
(0.58577798 0.00019468304 0)
(0.58236368 8.339407e-05 0)
(0.57944212 -7.1190928e-06 0)
(0.57693057 -7.4513176e-05 0)
(0.57477662 -0.00012075826 0)
(0.57283018 -0.00014199685 0)
(0.57091356 -0.00013416316 0)
(0.56891615 -0.00010085943 0)
(0.56678754 -4.4768718e-05 0)
(0.56449615 9.2155169e-06 0)
(0.56204546 6.4644481e-05 0)
(0.55944628 0.0001139128 0)
(0.55671601 0.0001539688 0)
(0.55387899 0.00018381808 0)
(0.55096279 0.00020406797 0)
(0.54799473 0.0002161474 0)
(0.5450014 0.00022148983 0)
(0.54200678 0.00022186066 0)
(0.53903073 0.00021866109 0)
(0.5360893 0.00021297837 0)
(0.5331948 0.00020571553 0)
(0.53035506 0.00019761201 0)
(0.52757735 0.00018895117 0)
(0.52486699 0.00018005192 0)
(0.52222508 0.00017140807 0)
(0.51965067 0.00016314844 0)
(0.51713786 0.00015642909 0)
(0.51469491 0.00015122577 0)
(0.51231077 0.00014605896 0)
(0.50997294 0.00014100978 0)
(0.5076724 0.00013620106 0)
(0.50540374 0.0001317875 0)
(0.5031603 0.00012793007 0)
(0.50093655 0.00012434124 0)
(0.49872827 0.00012104311 0)
(0.49653222 0.00011784808 0)
(0.49434684 0.00011473907 0)
(0.49217053 0.00011168034 0)
(0.4900033 0.00010860191 0)
(0.48784466 0.0001055942 0)
(0.48569453 0.00010257482 0)
(0.48355268 9.9602426e-05 0)
(0.48142055 9.6748216e-05 0)
(0.47929141 9.386385e-05 0)
(0.47718071 9.1793572e-05 0)
(0.47502592 8.8175222e-05 0)
(0.47299986 9.2599052e-05 0)
(0.47058078 0.00014350982 0)
(0.46878708 0.00019901573 0)
(0.46490198 0.00013137867 0)
(0.97463044 0.024511579 0)
(0.97932323 0.030794331 0)
(0.98639624 0.034469248 0)
(0.99380902 0.035113473 0)
(1.000205 0.033234395 0)
(1.0048312 0.029796399 0)
(1.0073245 0.025983138 0)
(1.0083097 0.022699676 0)
(1.0079856 0.020248446 0)
(1.0074321 0.018529373 0)
(1.0068014 0.017263325 0)
(1.0060439 0.016264745 0)
(1.0050124 0.015424593 0)
(1.0035925 0.014654702 0)
(1.0016705 0.013930399 0)
(0.99918058 0.013260292 0)
(0.99588687 0.012639879 0)
(0.99173594 0.012046199 0)
(0.98671271 0.011471652 0)
(0.98083116 0.010899826 0)
(0.97402511 0.010331843 0)
(0.96648445 0.0097853447 0)
(0.95829641 0.0092605985 0)
(0.94952571 0.0087554453 0)
(0.94022955 0.0082720914 0)
(0.93046419 0.0078136014 0)
(0.920289 0.0073757582 0)
(0.90976032 0.0069547038 0)
(0.89893525 0.0065516488 0)
(0.88786997 0.006167815 0)
(0.87661892 0.0058001772 0)
(0.86523711 0.0054466343 0)
(0.85377697 0.0051080469 0)
(0.84228519 0.0047842239 0)
(0.8308064 0.0044726742 0)
(0.81938597 0.0041714758 0)
(0.80806894 0.0038803997 0)
(0.79689993 0.0035987667 0)
(0.78592266 0.0033249241 0)
(0.77518114 0.0030575433 0)
(0.76471892 0.0027960917 0)
(0.75457958 0.0025394076 0)
(0.7448098 0.0022862116 0)
(0.73545631 0.0020349137 0)
(0.72659661 0.0017872609 0)
(0.71816954 0.0015462467 0)
(0.71018378 0.0013127343 0)
(0.70268025 0.0010878816 0)
(0.69568636 0.00087599194 0)
(0.68921187 0.00068088896 0)
(0.68324731 0.00050561347 0)
(0.67776424 0.00035335497 0)
(0.67270825 0.00022811567 0)
(0.66802519 0.00013052155 0)
(0.66371488 6.4801297e-05 0)
(0.65949822 3.513758e-05 0)
(0.6552472 3.9381224e-05 0)
(0.65098697 6.9671988e-05 0)
(0.64674883 0.0001255882 0)
(0.64253116 0.00017465213 0)
(0.63834208 0.00022731228 0)
(0.63418494 0.00027376602 0)
(0.6300598 0.00031059458 0)
(0.62596923 0.00033670722 0)
(0.62191915 0.00035267401 0)
(0.61791688 0.00035994116 0)
(0.61397098 0.00035997938 0)
(0.61009041 0.00035468154 0)
(0.60628346 0.00034556112 0)
(0.60255729 0.00033381386 0)
(0.59891803 0.00032044893 0)
(0.59537015 0.00030632837 0)
(0.59191607 0.00029178565 0)
(0.58855766 0.00027719238 0)
(0.58529377 0.00026314026 0)
(0.58212168 0.00024982252 0)
(0.57903507 0.00023824259 0)
(0.57603639 0.00022840423 0)
(0.57312088 0.0002190872 0)
(0.57027812 0.0002103807 0)
(0.56749779 0.00020228353 0)
(0.56477278 0.00019488661 0)
(0.56209546 0.00018834031 0)
(0.55945926 0.00018228616 0)
(0.55685887 0.00017672462 0)
(0.55428978 0.00017141468 0)
(0.55174904 0.00016631723 0)
(0.54923378 0.00016137407 0)
(0.54674258 0.00015649065 0)
(0.54427378 0.00015176069 0)
(0.54182649 0.00014708428 0)
(0.53939928 0.0001425211 0)
(0.53699235 0.00013817625 0)
(0.53459819 0.00013381371 0)
(0.53223098 0.00013063142 0)
(0.52982906 0.00012532299 0)
(0.52755542 0.00012997241 0)
(0.52492113 0.00018095457 0)
(0.52289364 0.0002384948 0)
(0.51869951 0.00018227145 0)
(0.97660313 0.023525705 0)
(0.98076416 0.029152463 0)
(0.98702234 0.032517713 0)
(0.99364013 0.033276262 0)
(0.99944942 0.031815802 0)
(1.003763 0.028881807 0)
(1.0063101 0.025505585 0)
(1.0074645 0.022522915 0)
(1.0077803 0.020236924 0)
(1.0077586 0.01857198 0)
(1.00766 0.017318991 0)
(1.0075548 0.016318889 0)
(1.0074338 0.015485038 0)
(1.0072524 0.014745329 0)
(1.0069482 0.014071839 0)
(1.0064818 0.013464015 0)
(1.0058076 0.012910751 0)
(1.0048706 0.012388076 0)
(1.0036111 0.011891215 0)
(1.0019751 0.011424754 0)
(0.99983277 0.010984317 0)
(0.99713049 0.010557156 0)
(0.99384318 0.010138294 0)
(0.98994578 0.0097200333 0)
(0.98539439 0.0093040681 0)
(0.9802686 0.0088984681 0)
(0.9745959 0.0085017553 0)
(0.96840165 0.0081125007 0)
(0.96171029 0.0077331777 0)
(0.95454703 0.0073651581 0)
(0.94694153 0.0070052653 0)
(0.93892986 0.0066515256 0)
(0.93054925 0.0063058438 0)
(0.9218285 0.0059686618 0)
(0.91280499 0.0056374916 0)
(0.90351906 0.0053108659 0)
(0.89401085 0.0049897073 0)
(0.88432751 0.0046740141 0)
(0.87451868 0.0043621286 0)
(0.8646357 0.0040529675 0)
(0.85473088 0.0037464974 0)
(0.84485792 0.0034419584 0)
(0.83507339 0.0031383881 0)
(0.82543716 0.0028343761 0)
(0.81601357 0.0025304287 0)
(0.80684179 0.0022354298 0)
(0.79792617 0.0019525371 0)
(0.78929821 0.0016798397 0)
(0.78099259 0.0014209639 0)
(0.77303671 0.0011798729 0)
(0.7654436 0.00096073706 0)
(0.75820876 0.00076816337 0)
(0.75130602 0.0006066209 0)
(0.74473085 0.00047533115 0)
(0.73850525 0.00038073333 0)
(0.73243653 0.00033293745 0)
(0.72642892 0.00032685089 0)
(0.72050317 0.00034720229 0)
(0.71468314 0.00039265847 0)
(0.70896436 0.00042982165 0)
(0.70336105 0.00047098107 0)
(0.69788084 0.00050607062 0)
(0.69252094 0.00053203895 0)
(0.68727932 0.00054770075 0)
(0.68215744 0.00055353505 0)
(0.67715537 0.00055098381 0)
(0.67227267 0.00054146529 0)
(0.66751023 0.00052685993 0)
(0.66286939 0.00050867302 0)
(0.65835108 0.00048812151 0)
(0.65395658 0.00046623154 0)
(0.64968751 0.00044389194 0)
(0.64554271 0.00042145581 0)
(0.64152115 0.0003993434 0)
(0.6376196 0.00037821299 0)
(0.63383367 0.00035828143 0)
(0.63015695 0.0003404563 0)
(0.62658686 0.00032470921 0)
(0.62312039 0.00030993602 0)
(0.61975025 0.00029628663 0)
(0.61646719 0.00028369342 0)
(0.61326382 0.00027219161 0)
(0.61013206 0.00026191374 0)
(0.60706467 0.00025243043 0)
(0.60405545 0.00024371659 0)
(0.60109884 0.0002354777 0)
(0.59819062 0.00022764843 0)
(0.5953266 0.00022014357 0)
(0.59250398 0.00021283962 0)
(0.58971979 0.00020582652 0)
(0.58697209 0.00019898213 0)
(0.58425818 0.00019236141 0)
(0.58157697 0.00018610327 0)
(0.57892007 0.00017987361 0)
(0.57630016 0.0001752352 0)
(0.57365693 0.00016792353 0)
(0.57114272 0.00017235551 0)
(0.56829851 0.00022171073 0)
(0.56605441 0.00028059052 0)
(0.56156882 0.00022830707 0)
(0.97840321 0.0226124 0)
(0.98210584 0.027631657 0)
(0.9876518 0.030750944 0)
(0.99359227 0.031604341 0)
(0.99889958 0.03047685 0)
(1.0029364 0.027994558 0)
(1.0054607 0.025028868 0)
(1.0067072 0.022315785 0)
(1.0071893 0.020161991 0)
(1.0073579 0.018543684 0)
(1.007449 0.01730625 0)
(1.0075294 0.0163121 0)
(1.007593 0.015479486 0)
(1.0076632 0.014745345 0)
(1.0077012 0.014082945 0)
(1.007687 0.013486609 0)
(1.0076284 0.012947328 0)
(1.007509 0.012447464 0)
(1.0073032 0.01198169 0)
(1.0069885 0.01155165 0)
(1.0065357 0.011150312 0)
(1.0059069 0.01076591 0)
(1.0050632 0.01039616 0)
(1.0039589 0.010043673 0)
(1.0025156 0.0097055873 0)
(1.0006909 0.0093753809 0)
(0.99845584 0.0090486362 0)
(0.99577208 0.008721213 0)
(0.99261589 0.0083950509 0)
(0.98901383 0.0080732926 0)
(0.9849677 0.0077541908 0)
(0.98047728 0.0074364009 0)
(0.97554548 0.0071213379 0)
(0.97018101 0.0068095979 0)
(0.96439306 0.0064989809 0)
(0.95819491 0.0061879403 0)
(0.9516011 0.0058771534 0)
(0.94462923 0.0055664586 0)
(0.93729446 0.0052543142 0)
(0.92961813 0.0049396149 0)
(0.92162948 0.0046223818 0)
(0.91336205 0.0043019603 0)
(0.90485325 0.0039773164 0)
(0.8961497 0.0036471164 0)
(0.88728006 0.0033136763 0)
(0.87837888 0.0029863917 0)
(0.86949644 0.0026672829 0)
(0.86064798 0.0023571128 0)
(0.85186231 0.0020600943 0)
(0.84317698 0.0017804785 0)
(0.8346328 0.0015230047 0)
(0.82626918 0.0012931749 0)
(0.81811987 0.0010964483 0)
(0.81020697 0.00093205822 0)
(0.80252433 0.00080706365 0)
(0.79516688 0.0007370705 0)
(0.78799668 0.00071321785 0)
(0.78099445 0.00071560288 0)
(0.77411374 0.00074255117 0)
(0.76733112 0.00076348002 0)
(0.76067107 0.0007876715 0)
(0.75414492 0.00080614436 0)
(0.74775244 0.00081626698 0)
(0.7415022 0.00081661801 0)
(0.73540529 0.00080771871 0)
(0.72946325 0.00079118558 0)
(0.72367571 0.00076833996 0)
(0.71804469 0.00074099418 0)
(0.71257048 0.0007106586 0)
(0.70725142 0.00067853548 0)
(0.70208648 0.00064558463 0)
(0.69707567 0.00061270314 0)
(0.692217 0.00058026946 0)
(0.68750802 0.00054871173 0)
(0.68294409 0.00051872813 0)
(0.67851951 0.0004905239 0)
(0.67422786 0.00046495843 0)
(0.67006409 0.00044193987 0)
(0.66602476 0.00042035442 0)
(0.66210424 0.00040041404 0)
(0.65829488 0.00038202349 0)
(0.65458989 0.00036518346 0)
(0.65098122 0.00035001477 0)
(0.64746127 0.00033602119 0)
(0.6440232 0.00032315151 0)
(0.64066052 0.0003110588 0)
(0.63736786 0.00029964908 0)
(0.63413981 0.00028880664 0)
(0.63097221 0.0002783752 0)
(0.62786076 0.00026843242 0)
(0.62480207 0.00025883077 0)
(0.62179229 0.00024961803 0)
(0.61882907 0.00024096208 0)
(0.61590317 0.00023242282 0)
(0.61302557 0.00022592884 0)
(0.61013738 0.00021626382 0)
(0.60738088 0.00022008266 0)
(0.60432138 0.00026683893 0)
(0.6018663 0.00032739794 0)
(0.59708834 0.00027558281 0)
(0.98004775 0.021775139 0)
(0.98335909 0.026246705 0)
(0.98827096 0.029130982 0)
(0.99359726 0.030040321 0)
(0.9984453 0.029192576 0)
(1.002238 0.027113376 0)
(1.0047313 0.024524596 0)
(1.0060769 0.022066277 0)
(1.006687 0.020047787 0)
(1.0069607 0.018487121 0)
(1.0071299 0.017270604 0)
(1.0072759 0.016283553 0)
(1.0074126 0.015452533 0)
(1.0075425 0.014722957 0)
(1.0076534 0.01406746 0)
(1.0077428 0.013475873 0)
(1.0078108 0.012939527 0)
(1.0078783 0.012444509 0)
(1.0079121 0.011986584 0)
(1.0079088 0.011564925 0)
(1.007875 0.01117328 0)
(1.0077987 0.010803633 0)
(1.0076634 0.010453265 0)
(1.0074525 0.010123046 0)
(1.0071457 0.0098092198 0)
(1.0067161 0.0095061803 0)
(1.0061375 0.0092124652 0)
(1.005371 0.0089283849 0)
(1.004367 0.0086518555 0)
(1.0030917 0.0083795753 0)
(1.0015205 0.0081077696 0)
(0.99960912 0.0078336199 0)
(0.99734366 0.0075592448 0)
(0.99472743 0.007285714 0)
(0.99175017 0.0070110251 0)
(0.9883995 0.0067338171 0)
(0.98466494 0.0064544252 0)
(0.98053694 0.0061721757 0)
(0.97601084 0.0058853243 0)
(0.97108313 0.0055929715 0)
(0.96574937 0.0052950719 0)
(0.96000549 0.0049907201 0)
(0.95384816 0.0046784308 0)
(0.94727933 0.0043575847 0)
(0.94028844 0.0040291544 0)
(0.93290773 0.0036980115 0)
(0.92522117 0.0033681392 0)
(0.91727656 0.0030436993 0)
(0.90911301 0.0027300522 0)
(0.90077123 0.0024313261 0)
(0.89229968 0.0021520897 0)
(0.88375731 0.001897852 0)
(0.87521435 0.0016739042 0)
(0.86672109 0.0014811275 0)
(0.85827636 0.0013262627 0)
(0.85007837 0.0012214493 0)
(0.84219178 0.0011649386 0)
(0.83454205 0.0011450767 0)
(0.82696318 0.0011527545 0)
(0.81946838 0.0011571523 0)
(0.81208175 0.0011634921 0)
(0.80478888 0.0011643501 0)
(0.79759718 0.0011567924 0)
(0.79053452 0.0011394167 0)
(0.78361855 0.0011132444 0)
(0.77685187 0.0010801354 0)
(0.77024329 0.0010412253 0)
(0.76380394 0.00099838654 0)
(0.75753611 0.00095330996 0)
(0.75143949 0.0009071599 0)
(0.74551589 0.00086079461 0)
(0.73976671 0.00081514747 0)
(0.73419016 0.00077062508 0)
(0.7287842 0.00072765441 0)
(0.72354445 0.00068697059 0)
(0.71846507 0.00064874976 0)
(0.71354037 0.00061380909 0)
(0.70876513 0.0005819938 0)
(0.70413538 0.00055213453 0)
(0.69964618 0.00052447668 0)
(0.69529127 0.00049890135 0)
(0.69106481 0.00047539258 0)
(0.68695921 0.00045407166 0)
(0.68296684 0.0004343824 0)
(0.67908047 0.00041625062 0)
(0.67529292 0.00039927893 0)
(0.67159787 0.00038334352 0)
(0.66798882 0.00036829591 0)
(0.66446036 0.00035394375 0)
(0.66100691 0.00034034839 0)
(0.65762369 0.00032733186 0)
(0.65430559 0.00031492744 0)
(0.65104904 0.00030332758 0)
(0.64784391 0.00029198113 0)
(0.64469947 0.0002831791 0)
(0.64155806 0.00027076569 0)
(0.63855305 0.00027358391 0)
(0.63526852 0.00031715574 0)
(0.63260117 0.00038026311 0)
(0.62752077 0.00032561516 0)
(0.98154999 0.020999879 0)
(0.98452446 0.02497535 0)
(0.98887575 0.027626419 0)
(0.99364476 0.028568941 0)
(0.99806683 0.027961792 0)
(1.0016222 0.026237551 0)
(1.0040681 0.023991494 0)
(1.0054943 0.021778793 0)
(1.0062262 0.019902019 0)
(1.0066056 0.018409379 0)
(1.0068477 0.017221368 0)
(1.0070404 0.016245337 0)
(1.0072097 0.015417835 0)
(1.0073639 0.014691983 0)
(1.0075025 0.014040855 0)
(1.0076247 0.013452943 0)
(1.0077331 0.012919255 0)
(1.007831 0.012428391 0)
(1.0079135 0.011975035 0)
(1.0079841 0.011556145 0)
(1.0080417 0.011166604 0)
(1.0080997 0.010799853 0)
(1.0081368 0.010454379 0)
(1.008145 0.010129998 0)
(1.0081315 0.0098229285 0)
(1.0080871 0.0095297045 0)
(1.0080021 0.0092486439 0)
(1.0078627 0.0089786905 0)
(1.0076544 0.0087178394 0)
(1.0073569 0.0084634277 0)
(1.0069514 0.0082145538 0)
(1.0064052 0.0079705033 0)
(1.0056853 0.0077295471 0)
(1.0047642 0.0074897788 0)
(1.0036217 0.0072481022 0)
(1.002214 0.0070024694 0)
(1.000535 0.0067539637 0)
(0.99856914 0.0065025343 0)
(0.99629981 0.0062467743 0)
(0.99370862 0.00598533 0)
(0.99077556 0.0057178019 0)
(0.98747888 0.0054433593 0)
(0.983795 0.0051603892 0)
(0.97969872 0.0048683669 0)
(0.97515977 0.0045671163 0)
(0.97014046 0.0042598726 0)
(0.96463987 0.0039499518 0)
(0.95867562 0.0036406816 0)
(0.95226227 0.0033373058 0)
(0.94541801 0.0030441361 0)
(0.93816929 0.0027654847 0)
(0.93055553 0.0025062538 0)
(0.92263426 0.002271847 0)
(0.91447471 0.0020657526 0)
(0.90612121 0.0018917423 0)
(0.89770366 0.0017599751 0)
(0.88945129 0.0016732786 0)
(0.88138638 0.0016220938 0)
(0.873495 0.0016027058 0)
(0.86574297 0.0015898505 0)
(0.85804906 0.0015815159 0)
(0.8503465 0.0015675156 0)
(0.84269359 0.0015430425 0)
(0.8351282 0.0015082354 0)
(0.82764763 0.0014648472 0)
(0.82026633 0.0014143661 0)
(0.81301487 0.0013580129 0)
(0.80591178 0.0012981674 0)
(0.79896078 0.0012367354 0)
(0.79217071 0.001174748 0)
(0.78555274 0.0011130581 0)
(0.77911146 0.0010527837 0)
(0.77284743 0.00099434034 0)
(0.76676259 0.00093813028 0)
(0.76085555 0.00088496914 0)
(0.75512244 0.0008350027 0)
(0.74956043 0.00078899588 0)
(0.74416627 0.00074676192 0)
(0.73893651 0.00070708299 0)
(0.73386702 0.00067021038 0)
(0.72895299 0.00063599233 0)
(0.72418973 0.00060440917 0)
(0.71957046 0.00057559243 0)
(0.71508806 0.00054893443 0)
(0.71073524 0.00052434538 0)
(0.70650446 0.00050137996 0)
(0.70238875 0.00047988463 0)
(0.69838082 0.0004596776 0)
(0.69447419 0.00044052816 0)
(0.69066217 0.00042247844 0)
(0.68693869 0.00040531551 0)
(0.68329746 0.00038905132 0)
(0.67973366 0.00037389753 0)
(0.67623632 0.00035918787 0)
(0.672813 0.00034757063 0)
(0.66940707 0.00033196248 0)
(0.66614418 0.00033337216 0)
(0.66262252 0.00037332858 0)
(0.65973692 0.0004400778 0)
(0.65433876 0.00037937129 0)
(0.98292331 0.020275464 0)
(0.9856052 0.023806059 0)
(0.98946366 0.026233248 0)
(0.9937304 0.027193551 0)
(0.99775862 0.026790547 0)
(1.0010817 0.025375078 0)
(1.0034628 0.023438609 0)
(1.0049443 0.021459547 0)
(1.0057793 0.019725399 0)
(1.0062567 0.01830679 0)
(1.0065724 0.017153872 0)
(1.0068161 0.016194383 0)
(1.0070202 0.0153748 0)
(1.0071982 0.014654923 0)
(1.007355 0.014009253 0)
(1.0074927 0.013425558 0)
(1.0076154 0.012894941 0)
(1.0077269 0.012407308 0)
(1.0078278 0.011956718 0)
(1.0079196 0.011539801 0)
(1.0080045 0.011151785 0)
(1.0080835 0.010787335 0)
(1.0081535 0.010444601 0)
(1.008216 0.010122105 0)
(1.0082713 0.0098168777 0)
(1.0083205 0.0095253211 0)
(1.0083685 0.0092468316 0)
(1.0083871 0.0089811278 0)
(1.0083903 0.0087252339 0)
(1.0083703 0.0084776163 0)
(1.0083205 0.0082374418 0)
(1.0082305 0.0080029354 0)
(1.0080884 0.0077725993 0)
(1.0078789 0.0075449723 0)