/*--------------------------------*- C++ -*----------------------------------*\
| =========                 |                                                 |
| \\      /  F ield         | OpenFOAM: The Open Source CFD Toolbox           |
|  \\    /   O peration     | Version:  2206                                  |
|   \\  /    A nd           | Website:  www.openfoam.com                      |
|    \\/     M anipulation  |                                                 |
\*---------------------------------------------------------------------------*/
FoamFile
{
    version     2.0;
    format      ascii;
    arch        "LSB;label=32;scalar=64";
    class       volScalarField;
    location    "1600";
    object      k;
}
// * * * * * * * * * * * * * * * * * * * * * * * * * * * * * * * * * * * * * //

dimensions      [0 2 -2 0 0 0 0];

internalField   nonuniform List<scalar> 
7480
(
0.011445237
0.014109506
0.011690985
0.0076597614
0.0045416749
0.0027809874
0.0019368573
0.0015257604
0.0012979714
0.0011496722
0.001035123
0.00093688356
0.00085129552
0.00077725195
0.00071305335
0.00065707675
0.00060822624
0.00056531618
0.00052714392
0.00049293512
0.0004622197
0.00043448994
0.00040927949
0.00038629392
0.00036529981
0.00034604484
0.00032830495
0.00031193757
0.00029682988
0.00028285293
0.00026989445
0.00025788119
0.00024674869
0.00023642498
0.00022684971
0.00021798193
0.00020978422
0.00020221991
0.00019526424
0.00018890488
0.00018313141
0.00017793297
0.00017331002
0.00016926193
0.0001658026
0.00016298237
0.00016078923
0.00015930203
0.00015851213
0.0001583999
0.00015894282
0.00016011207
0.00016184623
0.00016403282
0.00016656173
0.00016935696
0.00017225123
0.00017499605
0.00017734647
0.00017913681
0.00018033399
0.00018095445
0.00018105267
0.00018070527
0.00018000948
0.00017905341
0.00017791475
0.00017665567
0.00017532071
0.00017394296
0.00017254755
0.00017114928
0.00016975762
0.00016838257
0.0001670266
0.00016569108
0.00016437651
0.00016302862
0.00016165199
0.00016026292
0.00015886799
0.00015747046
0.00015606497
0.00015464946
0.00015322348
0.00015178678
0.00015034162
0.00014888863
0.00014743111
0.00014597014
0.00014450801
0.00014304567
0.00014158641
0.00014012212
0.00013867704
0.00013716295
0.00013584202
0.00013394096
0.00013286983
0.00012997055
0.0014157644
0.0025665554
0.0028348337
0.0024741787
0.0020072271
0.001560905
0.0011995305
0.00093130275
0.00073510027
0.0005909211
0.00048471746
0.00040597927
0.00034687067
0.00030174846
0.0002665486
0.00023843304
0.00021550055
0.00019644118
0.00018032541
0.00016652247
0.000154607
0.00014425644
0.0001352166
0.00012729754
0.00012021692
0.00011383466
0.00010806508
0.00010285758
9.8178862e-05
9.3999833e-05
9.0297621e-05
8.7058328e-05
8.4271916e-05
8.19292e-05
8.0024947e-05
7.8559334e-05
7.7536629e-05
7.6968404e-05
7.6877858e-05
7.7300761e-05
7.8283789e-05
7.9884953e-05
8.2176535e-05
8.5243599e-05
8.9191395e-05
9.4133382e-05
0.00010014718
0.00010729629
0.00011560503
0.00012506461
0.00013564219
0.00014734146
0.00015989993
0.00017302064
0.00018641519
0.00019965296
0.0002120951
0.00022315463
0.00023248376
0.00024001751
0.00024590523
0.00025041403
0.00025380286
0.00025616554
0.00025772299
0.00025867423
0.00025917699
0.00025934785
0.00025927206
0.00025901168
0.00025860974
0.00025809275
0.00025748457
0.00025680355
0.00025605655
0.00025524465
0.00025434813
0.00025316198
0.00025177196
0.00025024883
0.00024861545
0.00024687829
0.00024503947
0.00024310601
0.00024108461
0.00023898537
0.00023681832
0.00023459353
0.00023232202
0.00023001283
0.00022767495
0.00022531641
0.00022294505
0.00022056556
0.00021818192
0.00021579252
0.00021343475
0.00021076319
0.00020884716
0.00020445422
0.00021001015
0.00055721709
0.00084139715
0.00095108095
0.00092902194
0.00084363022
0.00075625447
0.00069806315
0.00065934671
0.00062438181
0.00059317111
0.00056411183
0.00053582493
0.00050889672
0.0004835888
0.00045992604
0.00043797097
0.00041774082
0.00039923822
0.00038247227
0.00036743207
0.00035407513
0.0003423539
0.00033220889
0.00032247797
0.00031329038
0.00030476103
0.00029701965
0.00029019381
0.00028440229
0.00027976388
0.00027639611
0.0002744083
0.00027390599
0.00027499962
0.00027780475
0.00028244863
0.00028909908
0.00029798176
0.00030938274
0.00032364699
0.00034118443
0.00036247708
0.0003880781
0.00041864351
0.00045481642
0.00049700235
0.00054545359
0.00060021158
0.00066110697
0.00072760323
0.00079926651
0.00087488787
0.00095274179
0.0010311462
0.0011075557
0.0011785013
0.0012410391
0.0012936557
0.0013363199
0.0013700295
0.001396375
0.0014161473
0.0014304574
0.0014405894
0.001447586
0.0014522501
0.0014551658
0.0014567589
0.0014573379
0.0014571131
0.0014562139
0.0014547647
0.0014528571
0.0014505248
0.0014477688
0.0014444729
0.0014394573
0.0014332826
0.0014263353
0.001418729
0.0014104943
0.001401649
0.0013922355
0.0013822935
0.0013718812
0.0013610541
0.0013498695
0.0013383872
0.0013266588
0.0013147334
0.0013026574
0.0012904729
0.0012782174
0.0012658849
0.0012535732
0.0012411756
0.0012276368
0.0012173946
0.0011948767
3.6613372e-05
0.0001164171
0.00022889377
0.00032891531
0.00038971302
0.00041116857
0.00040820707
0.0003950627
0.0003806564
0.00036979602
0.00036657272
0.00037470919
0.00038619927
0.0003960134
0.0004041921
0.00041047291
0.00041546372
0.00041966528
0.00042339685
0.00042691898
0.00043044836
0.00043417302
0.00043824861
0.00044278335
0.00044761493
0.00045255738
0.00045765751
0.00046312839
0.0004692473
0.00047631543
0.00048465129
0.00049458714
0.00050646335
0.00052063044
0.00053745328
0.00055730884
0.00058061341
0.0006078979
0.00063982156
0.00067716115
0.0007208019
0.00077174127
0.00083109409
0.00090008769
0.00098009663
0.0010722258
0.0011768412
0.001293935
0.0014230799
0.0015633717
0.001713362
0.0018699808
0.0020313507
0.0021939118
0.0023543535
0.0025073145
0.002646363
0.0027670787
0.002868037
0.0029502038
0.0030160933
0.0030681838
0.0031080688
0.0031385093
0.0031617822
0.0031796543
0.0031934567
0.0032041488
0.0032124216
0.0032187725
0.003223534
0.003226909
0.0032291144
0.0032303001
0.0032305139
0.0032297407
0.0032277866
0.0032223236
0.0032146614
0.0032054693
0.0031949107
0.0031830389
0.0031698991
0.0031555762
0.0031401544
0.0031237456
0.0031064554
0.003088392
0.0030696657
0.0030503745
0.0030306068
0.0030104534
0.0029899902
0.0029692988
0.0029483445
0.002927408
0.0029059529
0.002883222
0.002864647
0.002827232
1.2523853e-05
2.7574128e-05
5.8628363e-05
9.9478868e-05
0.00013898583
0.00016943591
0.00018922022
0.00020027696
0.00020549727
0.00020736253
0.00020804151
0.00020960321
0.00021296392
0.0002186261
0.00022752254
0.000240634
0.00025527925
0.00027044569
0.00028571204
0.00030134264
0.00031748651
0.00033432752
0.0003519393
0.00037025379
0.00038899424
0.00040785466
0.0004273135
0.00044782002
0.00046970011
0.00049323208
0.00051869596
0.00054640351
0.00057671238
0.0006100277
0.00064679525
0.00068749695
0.00073273265
0.00078336201
0.00084042027
0.0009050486
0.00097849008
0.0010620966
0.0011573313
0.0012657653
0.0013891169
0.0015278961
0.0016815888
0.0018495285
0.0020308122
0.0022240693
0.0024272897
0.0026372485
0.0028492436
0.0030592692
0.0032642104
0.0034561076
0.0036272213
0.0037742246
0.0038973762
0.0039988565
0.0040813166
0.0041476185
0.0042007145
0.0042433846
0.0042779875
0.0043063776
0.0043299604
0.0043497621
0.0043665256
0.0043807873
0.0043929008
0.004403085
0.0044116058
0.0044186229
0.0044241738
0.0044282163
0.0044305676
0.0044302598
0.0044274792
0.0044225219
0.004415549
0.0044066539
0.0043959266
0.0043834962
0.0043694975
0.0043540894
0.0043374216
0.0043196421
0.0043008986
0.0042813247
0.0042610357
0.0042401554
0.0042187807
0.0041970232
0.0041748407
0.0041526184
0.0041295431
0.0041056545
0.0040847782
0.0040463385
9.3805586e-06
1.1752522e-05
1.8506039e-05
3.0347213e-05
4.549318e-05
6.1123509e-05
7.5212485e-05
8.6940628e-05
9.6293047e-05
0.00010358619
0.00010921785
0.00011369591
0.00011751384
0.00012112219
0.00012502792
0.00012980514
0.00013572993
0.00014307788
0.00015227461
0.00016376877
0.00017688332
0.00019189954
0.00020809877
0.00022550246
0.00024419257
0.00026422668
0.00028583263
0.00030931287
0.00033500285
0.00036328149
0.00039456783
0.00042932045
0.00046804086
0.00051126593
0.0005595804
0.00061370019
0.000674622
0.00074336986
0.00082096099
0.00090848805
0.0010071597
0.0011183059
0.0012433688
0.0013839216
0.0015416329
0.0017147399
0.0019012645
0.0021003969
0.0023114881
0.0025333584
0.0027639641
0.0029999901
0.0032366291
0.0034696145
0.0036957261
0.0039039676
0.0040874708
0.004245985
0.004381124
0.0044953955
0.0045918178
0.0046731102
0.0047416966
0.0047998627
0.0048496466
0.0048926885
0.0049302791
0.0049634089
0.004992815
0.0050190393
0.0050424366
0.0050632324
0.0050817597
0.0050981762
0.0051125014
0.0051246713
0.0051345423
0.005141462
0.0051453867
0.0051465019
0.005144985
0.005140977
0.0051346202
0.0051260902
0.0051155734
0.005103273
0.0050893791
0.0050740752
0.0050575422
0.0050399447
0.0050214193
0.0050021182
0.0049821552
0.0049616639
0.0049406076
0.0049194226
0.0048971684
0.0048744639
0.0048537553
0.0048171135
8.9898797e-06
9.2310513e-06
1.0392101e-05
1.3066881e-05
1.73533e-05
2.2793165e-05
2.8763464e-05
3.479656e-05
4.0622526e-05
4.6100028e-05
5.1146221e-05
5.5729955e-05
5.9870009e-05
6.362221e-05
6.7090576e-05
7.0431778e-05
7.3811505e-05
7.7404265e-05
8.1422386e-05
8.6122437e-05
9.1691106e-05
9.8404345e-05
0.00010650214
0.00011619201
0.00012734594
0.00014017074
0.00015491441
0.00017142724
0.00018973606
0.00021020838
0.00023328268
0.00025947923
0.00028940908
0.00032375577
0.00036328592
0.00040891031
0.00046180756
0.00052344902
0.0005953778
0.0006792461
0.00077680163
0.00088986874
0.0010203324
0.0011701947
0.0013415681
0.0015226926
0.0017159582
0.0019248873
0.0021499311
0.0023895432
0.0026406104
0.0028984206
0.0031568545
0.0034119043
0.0036610865
0.0038826973
0.0040755626
0.004246642
0.0043984633
0.0045330597
0.0046524845
0.0047582698
0.0048517891
0.0049346474
0.0050084106
0.0050743614
0.0051336436
0.005187231
0.0052358754
0.0052801636
0.005320547
0.0053573534
0.0053908801
0.0054213071
0.0054486666
0.0054729118
0.0054939584
0.0055113941
0.0055251044
0.0055352159
0.0055419315
0.0055454529
0.0055459877
0.0055437705
0.0055390481
0.0055320762
0.005523092
0.0055123213
0.005499986
0.0054862879
0.0054714046
0.0054555075
0.0054387284
0.0054212239
0.0054029784
0.0053844425
0.0053646831
0.0053445889
0.0053258035
0.0052922945
8.9408455e-06
8.8619049e-06
8.9453971e-06
9.3735168e-06
1.0288463e-05
1.1705616e-05
1.3541846e-05
1.5693709e-05
1.8077486e-05
2.0627268e-05
2.3281406e-05
2.5981358e-05
2.8676996e-05
3.132774e-05
3.3909246e-05
3.6419459e-05
3.887568e-05
4.1310737e-05
4.3777162e-05
4.6350754e-05
4.9118771e-05
5.2190421e-05
5.5693697e-05
5.9774414e-05
6.456485e-05
7.0243043e-05
7.7049288e-05
8.5129587e-05
9.4549317e-05
0.00010554804
0.0001184341
0.00013358514
0.00015135058
0.00017184882
0.0001957132
0.00022371442
0.00025682669
0.00029629558
0.00034365633
0.00040074029
0.00046971334
0.00055308757
0.00065367969
0.00077453338
0.00091877292
0.0010825364
0.0012631164
0.0014615886
0.0016783176
0.0019124235
0.0021612727
0.0024201792
0.0026829636
0.0029480955
0.003214139
0.0034582913
0.0036787627
0.0038799452
0.0040627119
0.0042298715
0.0043832503
0.0045233147
0.0046507262
0.0047667864
0.0048726143
0.0049690719
0.0050572161
0.0051380089
0.0052121821
0.0052803914
0.0053432062
0.0054010507
0.0054542646
0.0055030772
0.0055475429
0.005587659
0.0056234178
0.0056546277
0.0056812087
0.0057032671
0.0057210248
0.0057347374
0.0057446795
0.00575115
0.0057544615
0.005754928
0.0057528393
0.0057484712
0.0057420954
0.0057339586
0.005724278
0.0057132578
0.0057010582
0.0056878634
0.0056736918
0.0056589886
0.0056429164
0.0056264201
0.0056107822
0.0055810389
8.9328466e-06
8.8092052e-06
8.7106331e-06
8.6774572e-06
8.7584756e-06
8.9873633e-06
9.3745869e-06
9.9174517e-06
1.0610962e-05
1.1450012e-05
1.2426537e-05
1.3527363e-05
1.4735818e-05
1.6032429e-05
1.7397471e-05
1.8814168e-05
2.0270357e-05
2.1758561e-05
2.3278047e-05
2.4837085e-05
2.6452519e-05
2.8150669e-05
2.9968927e-05
3.1956897e-05
3.4173192e-05
3.6690517e-05
3.9603431e-05
4.3016286e-05
4.7038278e-05
5.1813913e-05
5.7537446e-05
6.439876e-05
7.2613234e-05
8.2424134e-05
9.4177347e-05
0.00010831641
0.00012541943
0.00014623808
0.00017146595
0.00020215551
0.00023987465
0.00028663016
0.00034496764
0.00041806871
0.00050985019
0.000623114
0.00075700307
0.00091179852
0.0010885295
0.0012875404
0.0015078651
0.0017466366
0.0019991343
0.0022629795
0.0025354931
0.0028006207
0.0030436714
0.00327041
0.0034831989
0.0036836223
0.0038727593
0.0040493148
0.004213406
0.0043664031
0.0045086896
0.0046404619
0.0047626976
0.004876156
0.0049813332
0.0050789157
0.0051695247
0.0052536063
0.0053315144
0.0054035217
0.0054696591
0.0055299706
0.0055845389
0.0056333541
0.0056764262
0.0057138849
0.0057459729
0.0057729868
0.0057952635
0.005813166
0.0058270749
0.0058373677
0.0058443934
0.0058484863
0.0058499794
0.0058491738
0.0058463374
0.0058417181
0.0058355142
0.0058279461
0.0058190786
0.005809346
0.0057980583
0.0057861042
0.0057746687
0.0057492491
8.930149e-06
8.799986e-06
8.6732564e-06
8.5571452e-06
8.4633077e-06
8.4039739e-06
8.3886416e-06
8.4242512e-06
8.5169183e-06
8.6725971e-06
8.8964627e-06
9.1918482e-06
9.5601718e-06
1.0000674e-05
1.0510827e-05
1.1086968e-05
1.1724697e-05
1.2419349e-05
1.3166907e-05
1.3964934e-05
1.4813142e-05
1.5713935e-05
1.6673583e-05
1.770334e-05
1.8819559e-05
2.0044518e-05
2.1408535e-05
2.2950063e-05
2.4715533e-05
2.676307e-05
2.9168143e-05
3.2022359e-05
3.5438076e-05
3.9554072e-05
4.4552415e-05
5.0627507e-05
5.8054117e-05
6.7200361e-05
7.8496103e-05
9.2504187e-05
0.00011001052
0.00013208111
0.00016014972
0.00019613059
0.00024246632
0.00030211198
0.0003778188
0.00047157299
0.00058580472
0.00072278252
0.00088419643
0.0010705649
0.0012806728
0.0015124641
0.0017632887
0.0020239726
0.0022816519
0.0025302994
0.0027637308
0.0029864643
0.0032005012
0.0034057891
0.0036021289
0.0037897899
0.003967849
0.0041352041
0.0042930551
0.0044416025
0.0045808314
0.0047114282
0.0048338388
0.004948384
0.0050553579
0.0051550613
0.0052473299
0.0053322163
0.005409892
0.0054804502
0.0055439785
0.0056006576
0.0056507499
0.0056945752
0.0057325201
0.0057650001
0.0057924546
0.0058153277
0.0058340284
0.0058489559
0.0058605114
0.0058690598
0.0058749315
0.00587843
0.0058798035
0.0058793196
0.0058771011
0.0058735762
0.0058682299
0.0058618518
0.0058556727
0.0058352606
8.9285551e-06
8.7969136e-06
8.6656914e-06
8.5358821e-06
8.4096993e-06
8.2901636e-06
8.1805121e-06
8.083984e-06
8.0039912e-06
7.9442271e-06
7.9085391e-06
7.9006784e-06
7.9241231e-06
7.9818709e-06
8.0763685e-06
8.2095019e-06
8.3825403e-06
8.5961725e-06
8.850676e-06
9.1461524e-06
9.482751e-06
9.8609418e-06
1.028183e-05
1.0747612e-05
1.1261981e-05
1.1830594e-05
1.2461742e-05
1.3167031e-05
1.3961858e-05
1.4866336e-05
1.5906885e-05
1.7117255e-05
1.8540328e-05
2.0230509e-05
2.2258195e-05
2.4710235e-05
2.7700369e-05
3.1381494e-05
3.5951189e-05
4.1646214e-05
4.8803742e-05
5.7885931e-05
6.9529976e-05
8.4616832e-05
0.00010434774
0.00013034601
0.00016464656
0.00020946877
0.00026742324
0.00034146298
0.00043474533
0.00055032198
0.00069063712
0.0008572308
0.0010506157
0.0012680986
0.0015025179
0.0017456039
0.0019879933
0.0022270129
0.0024575517
0.002678457
0.0028932456
0.0031025076
0.0033057347
0.0035019776
0.0036911859
0.0038724231
0.0040445092
0.0042082686
0.0043636175
0.0045106595
0.0046494109
0.004779733
0.0049013453
0.005014322
0.0051188284
0.0052149275
0.005302724
0.00538242
0.0054542608
0.0055185558
0.0055757112
0.0056261608
0.0056703721
0.0057088501
0.005742063
0.0057704709
0.0057945414
0.0058147062
0.0058313671
0.0058448931
0.005855599
0.0058638087
0.0058697154
0.0058737533
0.0058755961
0.0058759312
0.0058761134
0.0058615442
8.9275535e-06
8.7952316e-06
8.6629597e-06
8.5307817e-06
8.3990312e-06
8.268284e-06
8.1393353e-06
8.013175e-06
7.8909947e-06
7.774196e-06
7.6643714e-06
7.5632683e-06
7.4727539e-06
7.3947593e-06
7.3312249e-06
7.2840649e-06
7.2551229e-06
7.2461166e-06
7.2586206e-06
7.2940793e-06
7.3538291e-06
7.4391452e-06
7.5512841e-06
7.6916052e-06
7.8617129e-06
8.0636178e-06
8.3000314e-06
8.5746947e-06
8.8926138e-06
9.2603672e-06
9.6866271e-06
1.0182816e-05
1.0763853e-05
1.1449037e-05
1.2263496e-05
1.3239545e-05
1.4419071e-05
1.5857539e-05
1.7628147e-05
1.9825222e-05
2.2576247e-05
2.6057008e-05
3.0510168e-05
3.6267793e-05
4.3805715e-05
5.379534e-05
6.7163677e-05
8.5119516e-05
0.00010923159
0.00014150692
0.00018445061
0.00024106767
0.00031474786
0.00040904613
0.00052739702
0.00067219964
0.00084339212
0.0010381111
0.0012503611
0.001474471
0.0017033168
0.0019316526
0.0021584844
0.0023800525
0.002594389
0.0028048868
0.003011661
0.0032143219
0.0034115872
0.0036031446
0.0037878114
0.0039648744
0.0041342904
0.0042952448
0.0044471639
0.0045900501
0.0047238366
0.0048483616
0.0049636217
0.0050697298
0.0051668299
0.0052551549
0.0053350716
0.0054069708
0.0054713054
0.0055286149
0.0055793981
0.005624162
0.005663435
0.0056977097
0.0057274633
0.0057531373
0.0057751228
0.0057938122
0.0058094812
0.0058225854
0.005832994
0.0058413074
0.0058490523
0.005841331
8.927002e-06
8.7943008e-06
8.6616259e-06
8.5289204e-06
8.3962102e-06
8.26357e-06
8.1311576e-06
7.9992342e-06
7.8681609e-06
7.7383902e-06
7.6104589e-06
7.484989e-06
7.3626938e-06
7.2443776e-06
7.1309294e-06
7.0233159e-06
6.9225728e-06
6.8297859e-06
6.7460756e-06
6.6725873e-06
6.6104781e-06
6.560908e-06
6.5250439e-06
6.5040735e-06
6.4992227e-06
6.5117861e-06
6.5432088e-06
6.5951982e-06
6.6698093e-06
6.7695269e-06
6.8974852e-06
7.0577091e-06
7.2553658e-06
7.4972001e-06
7.7920615e-06
8.1513023e-06
8.5896291e-06
9.1263698e-06
9.7870691e-06
1.0605224e-05
1.162553e-05
1.2908941e-05
1.4539301e-05
1.6632741e-05
1.93544e-05
2.2941678e-05
2.7733977e-05
3.4204571e-05
4.3017063e-05
5.5090435e-05
7.1684521e-05
9.4497941e-05
0.00012576181
0.00016829864
0.00022552255
0.00030122515
0.00039895256
0.00052117103
0.00066824605
0.00083861697
0.0010284002
0.0012324324
0.0014464733
0.0016650511
0.0018836947
0.002102129
0.0023177405
0.0025281062
0.0027360568
0.0029416016
0.0031444036
0.0033426825
0.0035359542
0.0037232667
0.0039027537
0.0040742688
0.0042372971
0.004391164
0.0045355304
0.0046702503
0.004795236
0.0049105033
0.0050162807
0.0051128257
0.0052005064
0.0052798458
0.0053513114
0.0054154233
0.0054727488
0.0055238189
0.0055691796
0.0056093402
0.0056447695
0.0056759363
0.0057032056
0.0057270675
0.0057475891
0.0057653062
0.005781956
0.0057822846
8.9266921e-06
8.7937601e-06
8.6608859e-06
8.5280274e-06
8.3951747e-06
8.2623204e-06
8.1294891e-06
7.9967567e-06
7.864247e-06
7.7321197e-06
7.6005612e-06
7.4697852e-06
7.340039e-06
7.2116109e-06
7.0848346e-06
6.9600923e-06
6.8378184e-06
6.718499e-06
6.6026711e-06
6.4909214e-06
6.3838839e-06
6.2822348e-06
6.186691e-06
6.0980103e-06
6.0169904e-06
5.94447e-06
5.8813436e-06
5.8285839e-06
5.7872641e-06
5.7585898e-06
5.7439608e-06
5.7450453e-06
5.763858e-06
5.8029132e-06
5.8654207e-06
5.9554269e-06
6.0780825e-06
6.2400596e-06
6.4501219e-06
6.7198655e-06
7.0645919e-06
7.5047251e-06
8.0680458e-06
8.7927641e-06
9.7325083e-06
1.0964073e-05
1.2598549e-05
1.4795983e-05
1.7787892e-05
2.1909738e-05
2.7645722e-05
3.5690692e-05
4.7041462e-05
6.3101663e-05
8.5802827e-05
0.00011770237
0.00016196452
0.00022211972
0.00030153602
0.00040286131
0.00052731297
0.00067429997
0.00084190106
0.0010265517
0.0012237164
0.0014300332
0.00164129
0.0018532333
0.002065935
0.0022774346
0.0024854065
0.0026914395
0.0028957551
0.0030980273
0.0032964564
0.0034900996
0.0036780622
0.0038583919
0.0040302741
0.004193265
0.0043467677
0.0044902931
0.0046238303
0.0047473424
0.0048609713
0.0049651422
0.0050601704
0.0051465235
0.0052247586
0.0052953934
0.0053590181
0.005416183
0.0054674215
0.0055132758
0.005554196
0.0055907149
0.0056230933
0.0056518221
0.0056788925
0.0056886881
8.9265124e-06
8.7933938e-06
8.6603619e-06
8.5274042e-06
8.3945191e-06
8.2616958e-06
8.1289376e-06
7.9962785e-06
7.86378e-06
7.7315221e-06
7.5995928e-06
7.4680859e-06
7.3371031e-06
7.2067586e-06
7.077182e-06
6.9485216e-06
6.8209472e-06
6.6946532e-06
6.5698608e-06
6.4468201e-06
6.3258121e-06
6.2071499e-06
6.0911793e-06
5.9782806e-06
5.8688692e-06
5.7633957e-06
5.6623488e-06
5.5662601e-06
5.4757085e-06
5.3913276e-06
5.3138224e-06
5.2439894e-06
5.1827382e-06
5.1311312e-06
5.0904441e-06
5.0622313e-06
5.0484062e-06
5.0513627e-06
5.0741592e-06
5.1207961e-06
5.1964596e-06
5.3079314e-06
5.4642898e-06
5.6778718e-06
5.9658702e-06
6.3523683e-06
6.8718021e-06
7.5741042e-06
8.5322425e-06
9.8538569e-06
1.1698762e-05
1.4304663e-05
1.8027484e-05
2.3399983e-05
3.1213114e-05
4.2620068e-05
5.9260337e-05
8.3336045e-05
0.00011759288
0.00016515798
0.00022919064
0.00031240475
0.00041668664
0.00054261312
0.00068919891
0.0008545051
0.0010354384
0.0012279025
0.0014290867
0.0016355336
0.001843237
0.0020522118
0.0022605597
0.0024658548
0.0026702391
0.0028736912
0.0030753152
0.0032732153
0.0034662588
0.0036533867
0.0038326653
0.0040029058
0.0041639249
0.0043150062
0.0044558449
0.0045866896
0.0047074586
0.0048184712
0.0049201904
0.005013018
0.005097539
0.0051742842
0.0052438164
0.00530673
0.0053635368
0.00541481
0.0054609887
0.0055025299
0.0055417344
0.0055626474
8.9264421e-06
8.7931586e-06
8.6599727e-06
8.5268989e-06
8.3939509e-06
8.2611284e-06
8.1284375e-06
7.995904e-06
7.8635729e-06
7.7315016e-06
7.599752e-06
7.4683861e-06
7.3374672e-06
7.2070608e-06
7.0772363e-06
6.9480679e-06
6.8196364e-06
6.6920307e-06
6.5653491e-06
6.4397009e-06
6.3152081e-06
6.1920075e-06
6.0702514e-06
5.9501104e-06
5.831774e-06
5.7154529e-06
5.6013803e-06
5.4898141e-06
5.3810391e-06
5.2753691e-06
5.1731519e-06
5.0747747e-06
4.9806706e-06
4.8913286e-06
4.8073101e-06
4.7292699e-06
4.6579809e-06
4.5943697e-06
4.5395702e-06
4.4950025e-06
4.462463e-06
4.4442492e-06
4.4433644e-06
4.4637946e-06
4.5109879e-06
4.5924178e-06
4.7185697e-06
4.9045039e-06
5.1722776e-06
5.5545161e-06
6.09973e-06
6.8811782e-06
8.0107307e-06
9.6607414e-06
1.2097994e-05
1.5734392e-05
2.1201273e-05
2.9441232e-05
4.1804931e-05
6.0117635e-05
8.6695691e-05
0.00012425247
0.00017569536
0.00024379612
0.00033076872
0.00043801162
0.00056577997
0.00071291245
0.00087750757
0.0010567818
0.0012469329
0.0014454348
0.0016489341
0.0018536923
0.0020601276
0.0022659251
0.002469497
0.0026723543
0.0028749442
0.0030753581
0.0032717363
0.0034628995
0.0036477793
0.0038240423
0.0039909212
0.0041484742
0.0042956908
0.0044326994
0.0045597192
0.0046768372
0.0047845615
0.0048832841
0.004973535
0.0050559109
0.0051309328
0.0051991954
0.0052612827
0.0053176132
0.0053708682
0.0054047896
8.926477e-06
8.793054e-06
8.6597256e-06
8.5265266e-06
8.3934846e-06
8.2606112e-06
8.1279195e-06
7.995436e-06
7.8632009e-06
7.731264e-06
7.5996792e-06
7.4685006e-06
7.3377821e-06
7.2075775e-06
7.0779413e-06
6.9489288e-06
6.8205961e-06
6.6930014e-06
6.5662047e-06
6.4402689e-06
6.3152605e-06
6.1912501e-06
6.0683138e-06
5.9465337e-06
5.8259995e-06
5.7068093e-06
5.5890711e-06
5.472904e-06
5.3584398e-06
5.2458242e-06
5.135219e-06
5.0268043e-06
4.9207811e-06
4.8173739e-06
4.716836e-06
4.6194559e-06
4.525564e-06
4.4355437e-06
4.3498464e-06
4.2690133e-06
4.1937032e-06
4.1247297e-06
4.0631195e-06
4.010195e-06
3.9676928e-06
3.9379445e-06
3.9241598e-06
3.9308497e-06
3.9645366e-06
4.0347946e-06
4.1557669e-06
4.3488405e-06
4.6469849e-06
5.1015704e-06
5.7931901e-06
6.8498875e-06
8.4756849e-06
1.0993362e-05
1.4903874e-05
2.0959182e-05
3.0244957e-05
4.4258666e-05
6.4933264e-05
9.4616118e-05
0.00013593912
0.00019161274
0.00026412736
0.0003553651
0.00046639989
0.00059725657
0.00074661055
0.00091252197
0.0010921817
0.0012818998
0.0014794773
0.0016811652
0.001884274
0.0020891251
0.0022927388
0.0024947744
0.0026961411
0.0028973475
0.0030956759
0.0032894765
0.0034775199
0.0036588658
0.0038305854
0.0039929439
0.0041455902
0.0042879346
0.0044203568
0.0045428752
0.0046558989
0.0047599297
0.0048554006
0.0049428907
0.0050230609
0.0050962707
0.0051656575
0.0052147025
8.9266084e-06
8.7930736e-06
8.6596233e-06
8.5263064e-06
8.3931611e-06
8.2602096e-06
8.1274724e-06
7.9949785e-06
7.8627669e-06
7.730884e-06
7.5993805e-06
7.468308e-06
7.3377178e-06
7.2076615e-06
7.0781906e-06
6.9493563e-06
6.8212098e-06
6.6938017e-06
6.5671828e-06
6.4414038e-06
6.3165152e-06
6.1925681e-06
6.0696141e-06
5.9477059e-06
5.8268976e-06
5.7072452e-06
5.5888075e-06
5.4716465e-06
5.3558284e-06
5.2414244e-06
5.1285116e-06
5.0171741e-06
4.9075046e-06
4.7996052e-06
4.6935896e-06
4.5895851e-06
4.4877352e-06
4.3882028e-06
4.2911747e-06
4.1968678e-06
4.1055374e-06
4.0174875e-06
3.9330876e-06
3.8527958e-06
3.7771909e-06
3.7070221e-06
3.6432898e-06
3.5873622e-06
3.541161e-06
3.5074557e-06
3.4903085e-06
3.4958016e-06
3.5332814e-06
3.617326e-06
3.7708738e-06
4.0307781e-06
4.4571918e-06
5.1475557e-06
6.2596102e-06
8.0444307e-06
1.0893319e-05
1.5400521e-05
2.2432919e-05
3.3203935e-05
4.9331908e-05
7.2842899e-05
0.00010611446
0.00015173849
0.00021229965
0.00029009745
0.00038675321
0.0005030498
0.0006386873
0.00079205064
0.00096109958
0.0011427041
0.0013334914
0.0015314909
0.001732088
0.0019341885
0.0021375199
0.0023390389
0.002539173
0.002739308
0.0029381951
0.0031334666
0.0033236627
0.0035076285
0.0036836746
0.0038500375
0.0040070931
0.004154
0.0042909756
0.0044182432
0.0045359862
0.0046447041
0.0047450095
0.0048371691
0.0049248182
0.0049912663
8.9268246e-06
8.7932036e-06
8.6596543e-06
8.5262347e-06
8.3929915e-06
8.2599553e-06
8.1271532e-06
7.9946173e-06
7.8623866e-06
7.7305061e-06
7.5990243e-06
7.4679914e-06
7.337458e-06
7.207475e-06
7.0780934e-06
6.9493638e-06
6.8213367e-06
6.6940618e-06
6.5675881e-06
6.4419639e-06
6.3172366e-06
6.1934526e-06
6.0706576e-06
5.9488963e-06
5.8282127e-06
5.7086503e-06
5.590252e-06
5.4730608e-06
5.3571197e-06
5.2424725e-06
5.1291637e-06
5.0172395e-06
4.9067482e-06
4.7977408e-06
4.6902718e-06
4.5844002e-06
4.4801905e-06
4.3777138e-06
4.2770495e-06
4.1782872e-06
4.0815291e-06
3.9868932e-06
3.8945183e-06
3.8045698e-06
3.7172493e-06
3.6328077e-06
3.5515669e-06
3.4739527e-06
3.4005431e-06
3.3321477e-06
3.2699306e-06
3.2156062e-06
3.1717673e-06
3.1424265e-06
3.1339012e-06
3.156339e-06
3.2264528e-06
3.3716362e-06
3.6372027e-06
4.0978553e-06
4.8749155e-06
6.1627989e-06
8.2661775e-06
1.1651079e-05
1.7008921e-05
2.5326484e-05
3.7952095e-05
5.664438e-05
8.3542427e-05
0.0001211019
0.00017192414
0.00023851402
0.00032298365
0.00042664492
0.00054992579
0.00069202884
0.00085101554
0.001024708
0.0012093695
0.0014021252
0.0016007778
0.0018005616
0.0020017133
0.0022026708
0.0024022565
0.0026001893
0.0027987269
0.0029945504
0.0031860222
0.003371754
0.0035507831
0.0037204482
0.0038808883
0.0040317347
0.0041726502
0.00430397
0.0044260249
0.0045389532
0.0046468176
0.0047329889
8.9271128e-06
8.7934276e-06
8.6598004e-06
8.5262956e-06
8.3929657e-06
8.2598484e-06
8.1269767e-06
7.9943858e-06
7.8621157e-06
7.7302104e-06
7.5987174e-06
7.4676856e-06
7.3371652e-06
7.2072066e-06
7.0778605e-06
6.9491777e-06
6.8212083e-06
6.6940023e-06
6.5676087e-06
6.4420756e-06
6.31745e-06
6.1937779e-06
6.071104e-06
5.9494716e-06
5.8289226e-06
5.7094977e-06
5.5912359e-06
5.4741752e-06
5.3583521e-06
5.2438021e-06
5.1305595e-06
5.0186579e-06
4.9081304e-06
4.7990095e-06
4.6913279e-06
4.5851186e-06
4.4804156e-06
4.3772539e-06
4.2756708e-06
4.175706e-06
4.0774028e-06
3.9808092e-06
3.885979e-06
3.7929742e-06
3.701867e-06
3.6127439e-06
3.5257115e-06
3.4409051e-06
3.3585021e-06
3.2787429e-06
3.2019634e-06
3.1286471e-06
3.05951e-06
2.9956434e-06
2.93875e-06
2.891548e-06
2.8584905e-06
2.8469339e-06
2.8691849e-06
2.9459173e-06
3.1115643e-06
3.4231216e-06
3.9740674e-06
4.9144828e-06
6.4813999e-06
9.0409884e-06
1.3145057e-05
1.9600302e-05
2.953728e-05
4.4474562e-05
6.6352988e-05
9.7465917e-05
0.00014038823
0.00019774146
0.00027193842
0.00036481833
0.00047728131
0.00060929818
0.00075935969
0.0009251725
0.0011042018
0.0012923278
0.0014872694
0.0016853784
0.0018845984
0.0020845315
0.0022829454
0.0024800528
0.0026766908
0.0028722168
0.0030641602
0.0032510007
0.0034316451
0.0036042576
0.003767506
0.0039215654
0.0040660287
0.004200909
0.0043304164
0.0044384326
8.9274617e-06
8.7937299e-06
8.660043e-06
8.526469e-06
8.3930649e-06
8.2598744e-06
8.1269352e-06
7.9942861e-06
7.861968e-06
7.7300252e-06
7.5985042e-06
7.4674535e-06
7.3369225e-06
7.2069613e-06
7.0776203e-06
6.9489501e-06
6.8210009e-06
6.6938226e-06
6.5674642e-06
6.4419741e-06
6.3173995e-06
6.1937864e-06
6.0711796e-06
5.9496224e-06
5.8291567e-06
5.7098228e-06
5.5916592e-06
5.4747031e-06
5.3589898e-06
5.2445528e-06
5.1314242e-06
5.0196341e-06
4.9092115e-06
4.8001835e-06
4.692576e-06
4.5864136e-06
4.4817201e-06
4.378518e-06
4.2768296e-06
4.1766766e-06
4.0780808e-06
3.9810646e-06
3.885651e-06
3.7918647e-06
3.6997327e-06
3.6092854e-06
3.5205582e-06
3.433594e-06
3.348447e-06
3.2651879e-06
3.1839126e-06
3.104756e-06
3.0279138e-06
2.9536791e-06
2.8825027e-06
2.8150976e-06
2.7526213e-06
2.6969838e-06
2.6513932e-06
2.6212759e-06
2.6158311e-06
2.6506449e-06
2.7520331e-06
2.9636564e-06
3.3571721e-06
4.0489858e-06
5.2239178e-06
7.1714288e-06
1.0334678e-05
1.5375222e-05
2.3249072e-05
3.5274965e-05
5.3195209e-05
7.9173975e-05
0.00011570804
0.00016549638
0.00023114223
0.00031488912
0.00041812519
0.00054116346
0.0006832929
0.0008422259
0.0010154025
0.0011993081
0.0013907086
0.0015873411
0.0017845088
0.0019826782
0.0021799388
0.0023759938
0.0025707647
0.0027654562
0.0029572908
0.0031447982
0.0033266016
0.0035014268
0.0036671635
0.0038239176
0.0039754754
0.0041068106
8.9278609e-06
8.7940967e-06
8.6603648e-06
8.5267355e-06
8.3932693e-06
8.2600141e-06
8.1270126e-06
7.9943062e-06
7.8619378e-06
7.7299519e-06
7.598395e-06
7.4673151e-06
7.3367612e-06
7.206783e-06
7.0774308e-06
6.9487547e-06
6.820805e-06
6.6936313e-06
6.5672828e-06
6.4418077e-06
6.3172534e-06
6.1936659e-06
6.0710902e-06
5.9495697e-06
5.8291464e-06
5.7098609e-06
5.5917518e-06
5.4748563e-06
5.3592097e-06
5.2448454e-06
5.1317952e-06
5.0200888e-06
4.9097542e-06
4.8008176e-06
4.6933032e-06
4.5872336e-06
4.4826296e-06
4.3795104e-06
4.2778936e-06
4.1777953e-06
4.0792304e-06
3.9822127e-06
3.8867548e-06
3.7928687e-06
3.7005661e-06
3.6098585e-06
3.5207575e-06
3.4332764e-06
3.3474302e-06
3.2632381e-06
3.180725e-06
3.0999258e-06