/*--------------------------------*- C++ -*----------------------------------*\
| =========                 |                                                 |
| \\      /  F ield         | OpenFOAM: The Open Source CFD Toolbox           |
|  \\    /   O peration     | Version:  2206                                  |
|   \\  /    A nd           | Website:  www.openfoam.com                      |
|    \\/     M anipulation  |                                                 |
\*---------------------------------------------------------------------------*/
FoamFile
{
    version     2.0;
    format      ascii;
    arch        "LSB;label=32;scalar=64";
    class       volScalarField;
    location    "1600";
    object      nut;
}
// * * * * * * * * * * * * * * * * * * * * * * * * * * * * * * * * * * * * * //

dimensions      [0 2 -1 0 0 0 0];

internalField   nonuniform List<scalar> 
7480
(
1.512099e-06
1.8587603e-06
1.544157e-06
1.0161321e-06
6.0454391e-07
3.7089351e-07
2.5855382e-07
2.0376813e-07
1.7339e-07
1.5360451e-07
1.3831738e-07
1.2520378e-07
1.1377666e-07
1.0388914e-07
9.531497e-08
8.7837913e-08
8.131197e-08
7.5579031e-08
7.0478623e-08
6.590743e-08
6.1802749e-08
5.809682e-08
5.4727387e-08
5.1655151e-08
4.8848955e-08
4.6275109e-08
4.3903689e-08
4.171566e-08
3.9695959e-08
3.7827363e-08
3.6094876e-08
3.4488716e-08
3.3000276e-08
3.1619939e-08
3.0339644e-08
2.9153923e-08
2.8057777e-08
2.7046308e-08
2.6116208e-08
2.5265834e-08
2.4493794e-08
2.379864e-08
2.3180437e-08
2.2639101e-08
2.2176494e-08
2.179935e-08
2.1506062e-08
2.130718e-08
2.1201547e-08
2.1186538e-08
2.1259143e-08
2.1415506e-08
2.1647414e-08
2.1939824e-08
2.227801e-08
2.2651809e-08
2.303885e-08
2.3405902e-08
2.3720212e-08
2.3959623e-08
2.4119715e-08
2.4202686e-08
2.4215819e-08
2.4169364e-08
2.4076321e-08
2.3948471e-08
2.3796205e-08
2.3627834e-08
2.3449317e-08
2.3265077e-08
2.3078476e-08
2.289149e-08
2.2705388e-08
2.2521507e-08
2.2340177e-08
2.2161581e-08
2.1985786e-08
2.1805535e-08
2.162144e-08
2.143568e-08
2.1249137e-08
2.1062245e-08
2.0874288e-08
2.068499e-08
2.0494292e-08
2.0302159e-08
2.0108895e-08
1.9914582e-08
1.9719663e-08
1.9524283e-08
1.9328746e-08
1.9133182e-08
1.8938028e-08
1.87422e-08
1.8548942e-08
1.8346452e-08
1.8169797e-08
1.7915554e-08
1.7772303e-08
1.738456e-08
1.4111712e-06
1.6301597e-06
1.5385637e-06
1.288094e-06
1.0362257e-06
8.1133192e-07
6.4381484e-07
5.1802364e-07
4.2145973e-07
3.4678746e-07
2.8967014e-07
2.4639388e-07
2.1352972e-07
1.8823452e-07
1.683539e-07
1.5236385e-07
1.3922718e-07
1.2820827e-07
1.1880325e-07
1.1067974e-07
1.0361058e-07
9.7419544e-08
9.1972705e-08
8.7172153e-08
8.284619e-08
7.8914264e-08
7.5332732e-08
7.2079781e-08
6.9142111e-08
6.6507889e-08
6.4169546e-08
6.2124675e-08
6.0372077e-08
5.8910622e-08
5.774184e-08
5.6870476e-08
5.6303489e-08
5.605296e-08
5.61393e-08
5.6591734e-08
5.7447138e-08
5.8750684e-08
6.0558027e-08
6.2933955e-08
6.5958094e-08
6.9716507e-08
7.426721e-08
7.9657626e-08
8.5905244e-08
9.3002597e-08
1.0092148e-07
1.0965829e-07
1.1902161e-07
1.2878947e-07
1.3874732e-07
1.485759e-07
1.5780282e-07
1.659978e-07
1.7291082e-07
1.7850206e-07
1.8288619e-07
1.8626468e-07
1.8882397e-07
1.9063524e-07
1.9186285e-07
1.9265133e-07
1.9311469e-07
1.933365e-07
1.9337771e-07
1.9328267e-07
1.9308201e-07
1.927944e-07
1.9243701e-07
1.9202303e-07
1.9155713e-07
1.9104011e-07
1.9045674e-07
1.8965467e-07
1.8869854e-07
1.8764101e-07
1.8649911e-07
1.8527758e-07
1.8397801e-07
1.8260592e-07
1.8116631e-07
1.7966685e-07
1.7811499e-07
1.7651824e-07
1.7488482e-07
1.732214e-07
1.7153474e-07
1.6983076e-07
1.6811531e-07
1.6639207e-07
1.6466346e-07
1.6293041e-07
1.6121646e-07
1.5926638e-07
1.5789914e-07
1.5464937e-07
1.1014369e-06
1.4048406e-06
1.4359041e-06
1.3410282e-06
1.207675e-06
1.0741528e-06
9.669607e-07
8.8450346e-07
8.2040606e-07
7.6814153e-07
7.2396967e-07
6.7970468e-07
6.3738547e-07
6.0225068e-07
5.7251557e-07
5.4697039e-07
5.2493415e-07
5.0591554e-07
4.895548e-07
4.7561456e-07
4.6393114e-07
4.5436691e-07
4.4682388e-07
4.4122231e-07
4.3362871e-07
4.2649736e-07
4.1999911e-07
4.14343e-07
4.0973507e-07
4.0637356e-07
4.0447014e-07
4.0424496e-07
4.0591098e-07
4.09682e-07
4.1578719e-07
4.2446757e-07
4.3598471e-07
4.5067306e-07
4.6896565e-07
4.9139666e-07
5.1859934e-07
5.5131949e-07
5.9042958e-07
6.3692544e-07
6.919696e-07
7.5673041e-07
8.3200608e-07
9.1828832e-07
1.0157275e-06
1.1240888e-06
1.2423786e-06
1.3697759e-06
1.5043647e-06
1.6431874e-06
1.7833192e-06
1.9204204e-06
2.0485845e-06
2.1627305e-06
2.260172e-06
2.3407141e-06
2.4059991e-06
2.4587711e-06
2.4999772e-06
2.5317004e-06
2.5562249e-06
2.5753381e-06
2.5904016e-06
2.6023873e-06
2.6119946e-06
2.6197261e-06
2.6259198e-06
2.6307755e-06
2.6344928e-06
2.6372194e-06
2.6390001e-06
2.6398343e-06
2.6394992e-06
2.6357202e-06
2.6295847e-06
2.6218536e-06
2.6127597e-06
2.6023686e-06
2.5907162e-06
2.5778926e-06
2.5639755e-06
2.5490793e-06
2.5333091e-06
2.5167725e-06
2.4995826e-06
2.481833e-06
2.4636177e-06
2.4450216e-06
2.4261222e-06
2.4069973e-06
2.3876167e-06
2.368241e-06
2.3485204e-06
2.3265848e-06
2.3112027e-06
2.2731349e-06
5.0849534e-07
9.592096e-07
1.1798576e-06
1.2285223e-06
1.2004671e-06
1.1429435e-06
1.080445e-06
1.0213977e-06
9.6993342e-07
9.3013529e-07
9.0618626e-07
9.0240992e-07
9.058133e-07
8.5770932e-07
8.2200018e-07
7.9457709e-07
7.7456389e-07
7.60059e-07
7.5003759e-07
7.4386462e-07
7.4113823e-07
7.4157317e-07
7.450011e-07
7.5126447e-07
7.598334e-07
7.701936e-07
7.822094e-07
7.9609807e-07
8.1225009e-07
8.3114398e-07
8.5332913e-07
8.794213e-07
9.1009338e-07
9.4607738e-07
9.8817148e-07
1.0372319e-06
1.0942275e-06
1.1604305e-06
1.2374319e-06
1.327129e-06
1.4317209e-06
1.5537289e-06
1.6960247e-06
1.8618356e-06
2.0547703e-06
2.2780578e-06
2.5343198e-06
2.8248581e-06
3.1501807e-06
3.5097838e-06
3.9017101e-06
4.3200292e-06
4.761412e-06
5.2181533e-06
5.6818018e-06
6.1407113e-06
6.5797648e-06
6.9849779e-06
7.3474418e-06
7.6642753e-06
7.9379182e-06
8.1723079e-06
8.3701064e-06
8.5382798e-06
8.6832539e-06
8.8103183e-06
8.9236218e-06
9.0262132e-06
9.1202723e-06
9.2073388e-06
9.2884428e-06
9.3641814e-06
9.4350696e-06
9.501502e-06
9.5635804e-06
9.6212364e-06
9.6739895e-06
9.7002039e-06
9.7153438e-06
9.7242167e-06
9.7275462e-06
9.7255955e-06
9.7185319e-06
9.7066806e-06
9.6903429e-06
9.6699256e-06
9.6458054e-06
9.6183619e-06
9.5879878e-06
9.555016e-06
9.5197666e-06
9.482548e-06
9.4436259e-06
9.403309e-06
9.3614426e-06
9.319207e-06
9.274608e-06
9.2241677e-06
9.1898529e-06
9.0977986e-06
2.2507966e-07
4.2728635e-07
6.9868207e-07
8.9336272e-07
9.8973786e-07
1.0235638e-06
1.0250832e-06
1.0107937e-06
9.8916368e-07
9.6540006e-07
9.4381492e-07
9.2881028e-07
9.2206312e-07
9.2311045e-07
9.3207307e-07
9.4905006e-07
9.6935275e-07
9.5334828e-07
9.2971607e-07
9.1686005e-07
9.1366544e-07
9.1848506e-07
9.3040093e-07
9.4878685e-07
9.7328375e-07
1.0037241e-06
1.0384461e-06
1.0775038e-06
1.1214396e-06
1.1707863e-06
1.2261467e-06
1.288255e-06
1.3580215e-06
1.4365677e-06
1.5252592e-06
1.62571e-06
1.7395592e-06
1.8684386e-06
2.0151051e-06
2.1828888e-06
2.3755908e-06
2.5974852e-06
2.853355e-06
3.1485308e-06
3.4887688e-06
3.8789183e-06
4.3213245e-06
4.8167735e-06
5.3660617e-06
5.9691173e-06
6.6242386e-06
7.326406e-06
8.0662575e-06
8.8341282e-06
9.6193362e-06
1.0408079e-05
1.1176565e-05
1.1901496e-05
1.2568243e-05
1.3170851e-05
1.3707895e-05
1.4182092e-05
1.4599814e-05
1.4969438e-05
1.5299574e-05
1.5597883e-05
1.587082e-05
1.6123455e-05
1.6359576e-05
1.6581946e-05
1.6792392e-05
1.6991873e-05
1.7181557e-05
1.7362209e-05
1.7533992e-05
1.7696709e-05
1.7849493e-05
1.7986551e-05
1.810783e-05
1.821485e-05
1.8308683e-05
1.8389928e-05
1.8458938e-05
1.8516288e-05
1.8562614e-05
1.8598725e-05
1.8625445e-05
1.8643592e-05
1.8654027e-05
1.8657514e-05
1.8654712e-05
1.864635e-05
1.8633073e-05
1.8615533e-05
1.8593775e-05
1.8569401e-05
1.854093e-05
1.8499811e-05
1.8478862e-05
1.8402013e-05
1.7530594e-07
2.1589046e-07
3.1858208e-07
4.6497229e-07
6.0528061e-07
7.1036854e-07
7.7990738e-07
8.2294917e-07
8.4805895e-07
8.6131891e-07
8.6701545e-07
8.6873182e-07
8.6926965e-07
8.7065971e-07
8.746622e-07
8.8295473e-07
8.9637815e-07
9.1557531e-07
9.4165153e-07
9.7586915e-07
1.0156556e-06
1.0618376e-06
1.0570659e-06
1.0562614e-06
1.0670878e-06
1.0882358e-06
1.1196816e-06
1.1617329e-06
1.2148742e-06
1.2798125e-06
1.3575177e-06
1.4493193e-06
1.5571434e-06
1.6840169e-06
1.8350119e-06
2.0181616e-06
2.2359763e-06
2.4752109e-06
2.7408344e-06
3.0385255e-06
3.3740764e-06
3.7535991e-06
4.183839e-06
4.6726783e-06
5.2301309e-06
5.8555164e-06
6.5394617e-06
7.2798803e-06
8.0785038e-06
8.9364845e-06
9.8528646e-06
1.0823076e-05
1.1837295e-05
1.2882126e-05
1.3946306e-05
1.499773e-05
1.6005534e-05
1.6954399e-05
1.7837893e-05
1.8655558e-05
1.9409395e-05
2.0102527e-05
2.073973e-05
2.1327191e-05
2.1871555e-05
2.2379274e-05
2.2856456e-05
2.3308261e-05
2.3738723e-05
2.4150976e-05
2.4546094e-05
2.4923651e-05
2.5288455e-05
2.5641216e-05
2.5981729e-05
2.6309295e-05
2.6622223e-05
2.6918689e-05
2.719549e-05
2.7451225e-05
2.7685809e-05
2.789949e-05
2.8092489e-05
2.8265372e-05
2.8418918e-05
2.8554197e-05
2.8672398e-05
2.877475e-05
2.8862599e-05
2.8937205e-05
2.8999033e-05
2.9049824e-05
2.9090837e-05
2.9123116e-05
2.9147124e-05
2.9164483e-05
2.917552e-05
2.9165129e-05
2.917508e-05
2.9133567e-05
1.6890601e-07
1.748018e-07
1.9622847e-07
2.4159651e-07
3.0837181e-07
3.839508e-07
4.5674563e-07
5.2097728e-07
5.7523101e-07
6.199761e-07
6.5626299e-07
6.8542732e-07
7.0894048e-07
7.2825261e-07
7.4481865e-07
7.6011577e-07
7.754806e-07
7.9215087e-07
8.1145951e-07
8.3490707e-07
8.6345107e-07
8.984511e-07
9.4049347e-07
9.8984071e-07
1.0449986e-06
1.106116e-06
1.1741438e-06
1.2083278e-06
1.2332668e-06
1.2729025e-06
1.3285219e-06
1.4020154e-06
1.4958492e-06
1.6130373e-06
1.7575121e-06
1.9347704e-06
2.1513705e-06
2.4124475e-06
2.7238281e-06
3.0927102e-06
3.5277064e-06
4.039234e-06
4.6407044e-06
5.3515319e-06
6.2044181e-06
6.9693972e-06
7.8047511e-06
8.7622353e-06
9.8395038e-06
1.1030301e-05
1.2321799e-05
1.3690632e-05
1.5103475e-05
1.6563684e-05
1.8073283e-05
1.9178087e-05
2.0095652e-05
2.1003396e-05
2.1904387e-05
2.2797783e-05
2.367822e-05
2.4540728e-05
2.5381816e-05
2.6198875e-05
2.699037e-05
2.7756817e-05
2.8500014e-05
2.9221576e-05
2.9923092e-05
3.0606311e-05
3.1272475e-05
3.1921848e-05
3.2554912e-05
3.3171745e-05
3.3771529e-05
3.4352956e-05
3.4913572e-05
3.5451651e-05
3.5964129e-05
3.6448079e-05
3.6901844e-05
3.7324735e-05
3.7716509e-05
3.807751e-05
3.8408503e-05
3.8710702e-05
3.8985568e-05
3.9234702e-05
3.9459953e-05
3.9663125e-05
3.9845927e-05
4.0010107e-05
4.0157312e-05
4.0289032e-05
4.0406398e-05
4.0510753e-05
4.0605186e-05
4.0668526e-05
4.0745137e-05
4.0789782e-05
1.6818113e-07
1.686619e-07
1.7195818e-07
1.8126117e-07
1.9895617e-07
2.2490381e-07
2.5728611e-07
2.9358388e-07
3.3181892e-07
3.7053353e-07
4.0856529e-07
4.4500271e-07
4.792435e-07
5.1096925e-07
5.4015807e-07
5.6707142e-07
5.921656e-07
6.1602298e-07
6.3936928e-07
6.6309333e-07
6.8812178e-07
7.1551585e-07
7.4635446e-07
7.8170647e-07
8.2233249e-07
8.6917544e-07
9.2354505e-07
9.8581712e-07
1.0558261e-06
1.1347643e-06
1.2243365e-06
1.326687e-06
1.4276041e-06
1.4948336e-06
1.5856492e-06
1.7047439e-06
1.8583925e-06
2.0546576e-06
2.303314e-06
2.6160217e-06
3.0068308e-06
3.4925962e-06
4.0932743e-06
4.8323027e-06
5.738386e-06
6.7097354e-06
7.7074947e-06
8.8169599e-06
1.0049595e-05
1.1405552e-05
1.2869573e-05
1.4406759e-05
1.5971571e-05
1.7626712e-05
1.9392669e-05
2.0669873e-05
2.1768577e-05
2.2849758e-05
2.3923987e-05
2.5000092e-05
2.6080045e-05
2.716478e-05
2.8249627e-05
2.932915e-05
3.0399904e-05
3.1460694e-05
3.2509996e-05
3.3545647e-05
3.4567081e-05
3.5574592e-05
3.6567748e-05
3.7545772e-05
3.8507731e-05
3.9452333e-05
4.0377295e-05
4.1280159e-05
4.2157477e-05
4.3006146e-05
4.3823065e-05
4.4604748e-05
4.5348197e-05
4.6051419e-05
4.6713272e-05
4.7333464e-05
4.7912417e-05
4.8451179e-05
4.8951178e-05
4.9414148e-05
4.984227e-05
5.0237765e-05
5.0603045e-05
5.0940295e-05
5.1251598e-05
5.1538855e-05
5.1803982e-05
5.2047864e-05
5.2276564e-05
5.2464935e-05
5.2652322e-05
5.2845145e-05
1.6814571e-07
1.6787306e-07
1.680325e-07
1.6934699e-07
1.7271387e-07
1.7877322e-07
1.8775655e-07
1.9960914e-07
2.1419333e-07
2.3139194e-07
2.5107096e-07
2.7273719e-07
2.9592189e-07
3.2015236e-07
3.4499249e-07
3.7009263e-07
3.9520508e-07
4.2018361e-07
4.4500774e-07
4.6980379e-07
4.9482674e-07
5.2046405e-07
5.4723628e-07
5.7578936e-07
6.0682809e-07
6.4115895e-07
6.7976863e-07
7.2363283e-07
7.7364287e-07
8.3095898e-07
8.9713036e-07
9.7359022e-07
1.0618522e-06
1.1632781e-06
1.2800779e-06
1.4151242e-06
1.5722105e-06
1.7564799e-06
1.9284453e-06
2.121339e-06
2.3730513e-06
2.7009159e-06
3.1274755e-06
3.6820538e-06
4.4017439e-06
5.321068e-06
6.297359e-06
7.3653123e-06
8.5756843e-06
9.937752e-06
1.1453166e-05
1.3111171e-05
1.4887913e-05
1.6776944e-05
1.8774932e-05
2.0624609e-05
2.1909413e-05
2.3189677e-05
2.4437867e-05
2.5675015e-05
2.6933227e-05
2.8216892e-05
2.9508258e-05
3.0809446e-05
3.2126493e-05
3.3454917e-05
3.4789124e-05
3.6125804e-05
3.7464271e-05
3.8802361e-05
4.0136251e-05
4.1463851e-05
4.2783311e-05
4.409123e-05
4.5382515e-05
4.6652757e-05
4.7896669e-05
4.9109012e-05
5.0285698e-05
5.142259e-05
5.2515506e-05
5.3561127e-05
5.4557105e-05
5.5502021e-05
5.6395547e-05
5.7238159e-05
5.8030792e-05
5.8774925e-05
5.9472759e-05
6.0126652e-05
6.0739307e-05
6.1313323e-05
6.185115e-05
6.2355004e-05
6.2827579e-05
6.3269211e-05
6.3688621e-05
6.4059178e-05
6.4409003e-05
6.4820089e-05
1.6819002e-07
1.678143e-07
1.674929e-07
1.6735582e-07
1.6761842e-07
1.6851637e-07
1.7024639e-07
1.729625e-07
1.7680411e-07
1.8191141e-07
1.8841558e-07
1.9639542e-07
2.0588288e-07
2.1686065e-07
2.2934268e-07
2.4328051e-07
2.5850401e-07
2.7485421e-07
2.9220327e-07
3.1046225e-07
3.2959041e-07
3.4960778e-07
3.706072e-07
3.9276773e-07
4.1635289e-07
4.4171999e-07
4.693485e-07
4.998295e-07
5.338462e-07
5.7221957e-07
6.1597764e-07
6.6631293e-07
7.2460905e-07
7.9243854e-07
8.7175725e-07
9.6453014e-07
1.0734908e-06
1.2022285e-06
1.3545228e-06
1.5352778e-06
1.7514925e-06
2.0125292e-06
2.3306001e-06
2.7213485e-06
3.1865327e-06
3.7660998e-06
4.5193157e-06
5.3771733e-06
6.3843964e-06
7.5554655e-06
8.902754e-06
1.0432505e-05
1.2141122e-05
1.4023292e-05
1.6074607e-05
1.8246193e-05
2.0452907e-05
2.2483537e-05
2.3873136e-05
2.525531e-05
2.6659805e-05
2.8073949e-05
2.9488152e-05
3.0934534e-05
3.2433602e-05
3.3954358e-05
3.5496746e-05
3.70702e-05
3.8671069e-05
4.0292027e-05
4.1928636e-05
4.3580767e-05
4.524378e-05
4.6911151e-05
4.8574083e-05
5.0225406e-05
5.185658e-05
5.3460021e-05
5.5029957e-05
5.6560484e-05
5.804588e-05
5.9481513e-05
6.0863384e-05
6.218836e-05
6.3454865e-05
6.4662231e-05
6.5810275e-05
6.6899689e-05
6.7932138e-05
6.8909659e-05
6.9834794e-05
7.0710232e-05
7.1538584e-05
7.2322194e-05
7.3064387e-05
7.3764896e-05
7.4434498e-05
7.5047167e-05
7.561608e-05
7.6319438e-05
1.6824357e-07
1.6785095e-07
1.6745974e-07
1.6708857e-07
1.6677837e-07
1.6658714e-07
1.6657961e-07
1.6682311e-07
1.6739071e-07
1.6836435e-07
1.6983349e-07
1.7188893e-07
1.746186e-07
1.7810287e-07
1.8241795e-07
1.8763095e-07
1.937896e-07
2.0092468e-07
2.0905495e-07
2.1819322e-07
2.2837939e-07
2.3969795e-07
2.5216763e-07
2.6579518e-07
2.8063203e-07
2.967847e-07
3.1442348e-07
3.3379639e-07
3.5523607e-07
3.7916635e-07
4.0612849e-07
4.3679827e-07
4.7201232e-07
5.1279604e-07
5.6042649e-07
6.1640936e-07
6.8262977e-07
7.6151177e-07
8.5599892e-07
9.6944105e-07
1.106429e-06
1.2730056e-06
1.477132e-06
1.7292517e-06
2.0426021e-06
2.4336352e-06
2.9205644e-06
3.5193887e-06
4.2474221e-06
5.1231992e-06
6.1658901e-06
7.3935365e-06
8.8201976e-06
1.045599e-05
1.2308278e-05
1.4364189e-05
1.6579527e-05
1.8900511e-05
2.1257098e-05
2.3634847e-05
2.5605431e-05
2.7113478e-05
2.8630443e-05
3.018272e-05
3.1768517e-05
3.337094e-05
3.5017416e-05
3.6740425e-05
3.8506817e-05
4.0311576e-05
4.2166311e-05
4.4072436e-05
4.6015883e-05
4.7986862e-05
4.9977571e-05
5.1977077e-05
5.3972878e-05
5.5956541e-05
5.7919651e-05
5.9852655e-05
6.1748018e-05
6.359924e-05
6.5399573e-05
6.7143554e-05
6.8827622e-05
7.0449023e-05
7.2005764e-05
7.3496982e-05
7.4922931e-05
7.6284613e-05
7.758382e-05
7.8822754e-05
8.0003852e-05
8.112923e-05
8.2202573e-05
8.3222918e-05
8.4202403e-05
8.5116968e-05
8.5963651e-05
8.7033187e-05
1.683453e-07
1.6795312e-07
1.6755465e-07
1.6715126e-07
1.6674939e-07
1.6636054e-07
1.6600053e-07
1.6568899e-07
1.6544973e-07
1.6531166e-07
1.6530905e-07
1.6548131e-07
1.6587244e-07
1.6653008e-07
1.6750499e-07
1.6885045e-07
1.7062053e-07
1.7286849e-07
1.7564613e-07
1.7900377e-07
1.8299287e-07
1.8766965e-07
1.9308895e-07
1.9930451e-07
2.0637408e-07
2.1436485e-07
2.2336606e-07
2.3353885e-07
2.4508656e-07
2.5817128e-07
2.729909e-07
2.8983202e-07
3.0908644e-07
3.3127018e-07
3.5705664e-07
3.8729007e-07
4.2303158e-07
4.6564368e-07
5.1686491e-07
5.7885517e-07
6.5441644e-07
7.4724309e-07
8.6220155e-07
1.0056345e-06
1.1860631e-06
1.4146237e-06
1.7052221e-06
2.0735627e-06
2.5371716e-06
3.1153423e-06
3.8289611e-06
4.7000173e-06
5.7505381e-06
7.0018106e-06
8.4742288e-06
1.0180799e-05
1.211687e-05
1.426018e-05
1.6566558e-05
1.9001095e-05
2.1511386e-05
2.4054864e-05
2.6629177e-05
2.8805879e-05
3.0459976e-05
3.213292e-05
3.3854316e-05
3.5626482e-05
3.7433643e-05
3.9300763e-05
4.1269173e-05
4.3312004e-05
4.5414414e-05
4.7583352e-05
4.9807606e-05
5.2069703e-05
5.4359414e-05
5.6668999e-05
5.8983869e-05
6.1290574e-05
6.3580634e-05
6.5843435e-05
6.8068167e-05
7.0246967e-05
7.2373122e-05
7.4440403e-05
7.6444148e-05
7.8380903e-05
8.0248449e-05
8.2045873e-05
8.3773397e-05
8.5431934e-05
8.7023107e-05
8.8548298e-05
9.0011124e-05
9.1409685e-05
9.2756792e-05
9.4030906e-05
9.5213969e-05
9.6720294e-05
1.6852045e-07
1.6817133e-07
1.678087e-07
1.674321e-07
1.6704292e-07
1.6664384e-07
1.6623895e-07
1.6583365e-07
1.6543475e-07
1.6505076e-07
1.6469219e-07
1.6437195e-07
1.6410556e-07
1.6391139e-07
1.6381071e-07
1.6382779e-07
1.6398983e-07
1.6432673e-07
1.6487082e-07
1.6565675e-07
1.6672148e-07
1.6810454e-07
1.6984795e-07
1.7199614e-07
1.7459622e-07
1.7769886e-07
1.8136083e-07
1.8565199e-07
1.9065814e-07
1.9647631e-07
2.0322019e-07
2.1102989e-07
2.2008399e-07
2.3065616e-07
2.4312529e-07
2.5784233e-07
2.7523762e-07
2.9591451e-07
3.2069092e-07
3.5065004e-07
3.8721431e-07
4.3226515e-07
4.8831565e-07
5.5874039e-07
6.4815873e-07
7.6290382e-07
9.1150858e-07
1.1049592e-06
1.357121e-06
1.6848729e-06
2.1080657e-06
2.6491445e-06
3.3323775e-06
4.1828959e-06
5.2261622e-06
6.4860825e-06
7.9802642e-06
9.716022e-06
1.1684971e-05
1.3870674e-05
1.6242157e-05
1.8761132e-05
2.1402001e-05
2.4121612e-05
2.6880909e-05
2.9683483e-05
3.2157857e-05
3.3988e-05
3.5841423e-05
3.7756708e-05
3.9738324e-05
4.1767463e-05
4.3876791e-05
4.6119443e-05
4.8440623e-05
5.0831263e-05
5.3304407e-05
5.5840708e-05
5.8417429e-05
6.1025334e-05
6.3653765e-05
6.628369e-05
6.8902009e-05
7.149863e-05
7.4061353e-05
7.6579661e-05
7.9045352e-05
8.1450953e-05
8.3790731e-05
8.6060861e-05
8.8258805e-05
9.0383105e-05
9.2433585e-05
9.4410092e-05
9.6315443e-05
9.814628e-05
9.9915312e-05
0.00010160337
0.00010318028
0.00010518858
1.6867662e-07
1.68392e-07
1.680929e-07
1.6777784e-07
1.6744672e-07
1.671002e-07
1.6673961e-07
1.6636672e-07
1.659836e-07
1.6559261e-07
1.6519656e-07
1.6479895e-07
1.6440422e-07
1.6401798e-07
1.636472e-07
1.6330038e-07
1.6298775e-07
1.6272138e-07
1.625153e-07
1.6238558e-07
1.6235045e-07
1.6243035e-07
1.6264808e-07
1.6302888e-07
1.6360056e-07
1.643936e-07
1.6544172e-07
1.6678303e-07
1.6846117e-07
1.7052612e-07
1.7303582e-07
1.7605865e-07
1.7967663e-07
1.8399481e-07
1.8915103e-07
1.9531129e-07
2.0267833e-07
2.1151076e-07
2.2216196e-07
2.3518737e-07
2.5119781e-07
2.7090459e-07
2.9532979e-07
3.2591484e-07
3.6469126e-07
4.1451028e-07
4.7938047e-07
5.6488996e-07
6.7877042e-07
8.315651e-07
1.037305e-06
1.3140786e-06
1.6844263e-06
2.1748759e-06
2.814746e-06
3.6340228e-06
4.6600625e-06
5.9140164e-06
7.4078689e-06
9.1458661e-06
1.1122925e-05
1.3324921e-05
1.5735664e-05
1.8327808e-05
2.106656e-05
2.393177e-05
2.6889012e-05
2.9895759e-05
3.2960385e-05
3.5736395e-05
3.7767985e-05
3.9816337e-05
4.1934154e-05
4.4131138e-05
4.6387965e-05
4.8756244e-05
5.1280034e-05
5.3890725e-05
5.6587339e-05
5.9379541e-05
6.2237732e-05
6.5138013e-05
6.8073294e-05
7.1026706e-05
7.3978216e-05
7.691501e-05
7.9823397e-05
8.2690624e-05
8.5506898e-05
8.826416e-05
9.0955566e-05
9.3575959e-05
9.6122056e-05
9.8590943e-05
0.00010098349
0.00010329399
0.00010553403
0.00010768601
0.00010971214
0.00011228025
1.6876881e-07
1.6852914e-07
1.6827917e-07
1.6801709e-07
1.6774197e-07
1.6745345e-07
1.6715168e-07
1.668372e-07
1.6651068e-07
1.6617275e-07
1.6582402e-07
1.6546517e-07
1.6509705e-07
1.6472084e-07
1.6433817e-07
1.6395122e-07
1.6356283e-07
1.6317665e-07
1.6279723e-07
1.6243017e-07
1.6208225e-07
1.6176157e-07
1.6147765e-07
1.612416e-07
1.6106626e-07
1.6096634e-07
1.6095858e-07
1.610621e-07
1.6129873e-07
1.616934e-07
1.6227481e-07
1.6307619e-07
1.6413628e-07
1.6550132e-07
1.6722797e-07
1.6938555e-07
1.7205898e-07
1.7535375e-07
1.7940525e-07
1.8439869e-07
1.9057102e-07
1.9822084e-07
2.0774363e-07
2.1969744e-07
2.349739e-07
2.5461192e-07
2.8002904e-07
3.1336431e-07
3.5777274e-07
4.1785468e-07
5.002444e-07
6.1443876e-07
7.7389433e-07
9.9721662e-07
1.3090962e-06
1.7403345e-06
2.3262113e-06
3.1018011e-06
4.095954e-06
5.3274002e-06
6.8044632e-06
8.527901e-06
1.0495777e-05
1.2701569e-05
1.5131872e-05
1.7773156e-05
2.0602987e-05
2.3587303e-05
2.6709015e-05
2.9938603e-05
3.3230028e-05
3.65946e-05
3.9597788e-05
4.1818005e-05
4.4073469e-05
4.6415756e-05
4.8847188e-05
5.1346487e-05
5.4008294e-05
5.6835612e-05
5.9753254e-05
6.2776913e-05
6.5905213e-05
6.909956e-05
7.2339896e-05
7.561539e-05
7.8901147e-05
8.2181114e-05
8.5441258e-05
8.8667079e-05
9.1846238e-05
9.4968419e-05
9.8025812e-05
0.00010101106
0.00010392162
0.00010674818
0.00010949977
0.00011215908
0.00011468536
0.00011786112
1.6881511e-07
1.6859879e-07
1.6837584e-07
1.6814486e-07
1.6790486e-07
1.6765516e-07
1.6739548e-07
1.6712586e-07
1.6684651e-07
1.665576e-07
1.6625921e-07
1.6595134e-07
1.6563393e-07
1.6530698e-07
1.6497055e-07
1.6462485e-07
1.6427024e-07
1.6390737e-07
1.6353715e-07
1.631609e-07
1.6278037e-07
1.6239787e-07
1.6201633e-07
1.6163942e-07
1.6127166e-07
1.6091855e-07
1.6058667e-07
1.6028385e-07
1.6001933e-07
1.5980399e-07
1.5965057e-07
1.5957401e-07
1.5959181e-07
1.5972455e-07
1.5999679e-07
1.6043797e-07
1.6108365e-07
1.6197706e-07
1.6317172e-07
1.647359e-07
1.667568e-07
1.6934564e-07
1.7264697e-07
1.7685418e-07
1.8224298e-07
1.8918272e-07
1.9817907e-07
2.0995757e-07
2.2569509e-07
2.4706898e-07
2.7632511e-07
3.1697995e-07
3.7444165e-07
4.5691544e-07
5.7666979e-07
7.5168687e-07
1.0073842e-06
1.37723e-06
1.9008279e-06
2.618132e-06
3.5618912e-06
4.7519077e-06
6.195614e-06
7.89297e-06
9.8410335e-06
1.2038314e-05
1.4481256e-05
1.7158265e-05
2.0057622e-05
2.3159448e-05
2.6428628e-05
2.984936e-05
3.3388494e-05
3.7000315e-05
4.0698412e-05
4.3785759e-05
4.6214702e-05
4.8696323e-05
5.1285171e-05
5.3966333e-05
5.6736317e-05
5.9724207e-05
6.2873769e-05
6.6131547e-05
6.950924e-05
7.2989134e-05
7.6530629e-05
8.0123959e-05
8.3747952e-05
8.7378883e-05
9.0999885e-05
9.4593479e-05
9.8146488e-05
0.00010164504
0.00010508189
0.00010844251
0.00011173147
0.00011493044
0.00011799781
0.00012181484
1.6883684e-07
1.6863128e-07
1.6842117e-07
1.6820554e-07
1.6798364e-07
1.6775487e-07
1.6751888e-07
1.6727558e-07
1.6702504e-07
1.6676736e-07
1.6650254e-07
1.6623049e-07
1.6595108e-07
1.656641e-07
1.6536932e-07
1.6506655e-07
1.6475558e-07
1.6443627e-07
1.6410851e-07
1.6377231e-07
1.634278e-07
1.6307526e-07
1.6271517e-07
1.6234827e-07
1.6197563e-07
1.6159865e-07
1.6121923e-07
1.6083976e-07
1.6046328e-07
1.6009357e-07
1.5973525e-07
1.5939396e-07
1.5907651e-07
1.587911e-07
1.5854762e-07
1.5835796e-07
1.5823649e-07
1.5820061e-07
1.5827151e-07
1.5847544e-07
1.5884513e-07
1.5942174e-07
1.602577e-07
1.6142099e-07
1.6300262e-07
1.6512503e-07
1.6795555e-07
1.7172847e-07
1.7679254e-07
1.8366222e-07
1.9308055e-07
2.0617352e-07
2.2481301e-07
2.5183731e-07
2.9143194e-07
3.504027e-07
4.3955093e-07
5.754486e-07
7.8244775e-07
1.0938356e-06
1.5507569e-06
2.1976041e-06
3.0731504e-06
4.2030639e-06
5.5975393e-06
7.2569551e-06
9.1793672e-06
1.1363541e-05
1.3811016e-05
1.6521222e-05
1.948294e-05
2.2684489e-05
2.6103322e-05
2.9702193e-05
3.3466098e-05
3.7347265e-05
4.1313185e-05
4.5377888e-05
4.8384616e-05
5.1032167e-05
5.3760835e-05
5.6613006e-05
5.9554493e-05
6.2668944e-05
6.6003522e-05
6.9490014e-05
7.3110841e-05
7.6864375e-05
8.0715467e-05
8.4632584e-05
8.8598425e-05
9.2584668e-05
9.657382e-05
0.00010054325
0.00010448074
0.00010836441
0.0001121924
0.00011594446
0.00011957342
0.0001240447
1.6884637e-07
1.6864543e-07
1.6844093e-07
1.6823223e-07
1.6801882e-07
1.6780022e-07
1.6757614e-07
1.6734649e-07
1.6711131e-07
1.668707e-07
1.6662469e-07
1.6637325e-07
1.6611631e-07
1.6585371e-07
1.655853e-07
1.6531087e-07
1.6503021e-07
1.647431e-07
1.644493e-07
1.6414858e-07
1.6384073e-07
1.6352556e-07
1.632029e-07
1.6287266e-07
1.6253483e-07
1.6218947e-07
1.6183681e-07
1.6147723e-07
1.6111135e-07
1.6074003e-07
1.6036446e-07
1.5998624e-07
1.5960742e-07
1.5923063e-07
1.588592e-07
1.5849726e-07
1.5814994e-07
1.5782358e-07
1.5752601e-07
1.5726689e-07
1.5705823e-07
1.56915e-07
1.5685604e-07
1.5690531e-07
1.5709382e-07
1.5746235e-07
1.5806562e-07
1.5897855e-07
1.6030747e-07
1.622067e-07
1.6490181e-07
1.6873075e-07
1.7422669e-07
1.8222665e-07
1.940352e-07
2.1176561e-07
2.391512e-07
2.8178726e-07
3.4879338e-07
4.5469485e-07
6.2142428e-07
8.8017794e-07
1.2714534e-06
1.8419378e-06
2.6370862e-06
3.691319e-06
5.022478e-06
6.6343072e-06
8.5251202e-06
1.0695449e-05
1.3147708e-05
1.5886375e-05
1.8910937e-05
2.220793e-05
2.5764097e-05
2.9547459e-05
3.3521738e-05
3.7673023e-05
4.1927595e-05
4.6280272e-05
5.0555925e-05
5.345057e-05
5.6331092e-05
5.933131e-05
6.2455572e-05
6.5686499e-05
6.9197324e-05
7.290396e-05
7.6782787e-05
8.0808218e-05
8.496204e-05
8.9203508e-05
9.3513428e-05
9.7860047e-05
0.00010222624
0.0001065804
0.00011091289
0.00011520089
0.00011937784
0.00012448634
1.6884995e-07
1.6865077e-07
1.6844849e-07
1.6824269e-07
1.68033e-07
1.6781907e-07
1.6760065e-07
1.6737769e-07
1.6715022e-07
1.6691833e-07
1.6668208e-07
1.664415e-07
1.6619657e-07
1.6594724e-07
1.656934e-07
1.6543497e-07
1.651718e-07
1.6490376e-07
1.6463067e-07
1.6435236e-07
1.6406865e-07
1.6377932e-07
1.6348417e-07
1.6318299e-07
1.6287558e-07
1.6256173e-07
1.6224127e-07
1.6191406e-07
1.6158e-07
1.6123906e-07
1.608913e-07
1.605369e-07
1.601762e-07
1.598097e-07
1.5943819e-07
1.590627e-07
1.5868467e-07
1.5830596e-07
1.5792901e-07
1.5755692e-07
1.5719363e-07
1.5684417e-07
1.5651488e-07
1.5621383e-07
1.559514e-07
1.55741e-07
1.5560033e-07
1.5555316e-07
1.5563226e-07
1.5588396e-07
1.563752e-07
1.5720487e-07
1.5852435e-07
1.605702e-07
1.6371611e-07
1.6856692e-07
1.7615233e-07
1.8815334e-07
2.0737341e-07
2.3870559e-07
2.8982399e-07
3.7295216e-07
5.0717554e-07
7.2049746e-07
1.0511377e-06
1.5461599e-06
2.2560065e-06
3.2250206e-06
4.4817455e-06
6.0376274e-06
7.8933189e-06
1.0048762e-05
1.2508575e-05
1.5278291e-05
1.836384e-05
2.176018e-05
2.5450007e-05
2.9417456e-05
3.3613824e-05
3.8008375e-05
4.2578587e-05
4.7237182e-05
5.2007488e-05
5.5893248e-05
5.9005679e-05
6.2157498e-05
6.5464496e-05
6.8875654e-05
7.2532615e-05
7.6445988e-05
8.0564059e-05
8.4863075e-05
8.9312251e-05
9.388349e-05
9.8548252e-05
0.00010326676
0.00010802018
0.00011278174
0.00011745242
0.00012313265
1.6885068e-07
1.6865197e-07
1.6845036e-07
1.6824557e-07
1.6803735e-07
1.6782542e-07
1.676096e-07
1.6738982e-07
1.6716611e-07
1.6693856e-07
1.6670724e-07
1.6647219e-07
1.6623344e-07
1.6599098e-07
1.6574478e-07
1.654948e-07
1.6524099e-07
1.6498326e-07
1.6472154e-07
1.6445572e-07
1.6418571e-07
1.6391138e-07
1.636326e-07
1.6334922e-07
1.6306108e-07
1.6276801e-07
1.6246985e-07
1.6216639e-07
1.6185746e-07
1.6154288e-07
1.6122246e-07
1.6089605e-07
1.6056353e-07
1.602248e-07
1.5987986e-07
1.5952875e-07
1.5917164e-07
1.5880885e-07
1.5844086e-07
1.5806838e-07
1.5769242e-07
1.5731433e-07
1.5693593e-07
1.565596e-07
1.5618847e-07
1.5582664e-07
1.5547951e-07
1.551543e-07
1.5486084e-07
1.5461279e-07
1.5442959e-07
1.5433959e-07
1.543853e-07
1.5463221e-07
1.5518345e-07
1.5620516e-07
1.5797482e-07
1.6095592e-07
1.6593288e-07
1.7426406e-07
1.8823e-07
2.1164919e-07
2.5112244e-07
3.1687905e-07
4.2509273e-07
6.003395e-07
8.7758843e-07
1.3026913e-06
1.9290637e-06
2.8095051e-06
3.9854547e-06
5.4787385e-06
7.2960105e-06
9.4375447e-06
1.190748e-05
1.4714177e-05
1.7864662e-05
2.1363974e-05
2.5196572e-05
2.9339957e-05
3.3769823e-05
3.8423629e-05
4.3279928e-05
4.8273006e-05
5.3371161e-05
5.8440155e-05
6.180912e-05
6.5157479e-05
6.8616994e-05
7.2220452e-05
7.6018123e-05
8.0140144e-05
8.4476827e-05
8.906212e-05
9.3825717e-05
9.8740063e-05
0.00010376996
0.00010888173
0.00011395514
0.00012006574
1.688501e-07
1.6865129e-07
1.6844967e-07
1.6824505e-07
1.6803726e-07
1.6782607e-07
1.6761133e-07
1.6739301e-07
1.6717111e-07
1.6694569e-07
1.6671683e-07
1.6648458e-07
1.6624898e-07
1.6601004e-07
1.6576777e-07
1.6552217e-07
1.6527321e-07
1.6502089e-07
1.6476515e-07
1.6450597e-07
1.642433e-07
1.6397708e-07
1.6370725e-07
1.6343373e-07
1.6315644e-07
1.6287529e-07
1.6259017e-07
1.6230097e-07
1.6200754e-07
1.6170977e-07
1.614075e-07
1.6110057e-07
1.6078882e-07
1.604721e-07
1.6015023e-07
1.5982307e-07
1.5949049e-07
1.5915238e-07
1.5880867e-07
1.5845937e-07
1.5810455e-07
1.5774438e-07
1.5737917e-07
1.5700942e-07
1.5663584e-07
1.5625942e-07
1.5588155e-07
1.5550416e-07
1.5512987e-07
1.5476241e-07
1.5440707e-07
1.5407155e-07
1.5376734e-07
1.5351197e-07
1.5333292e-07
1.5327424e-07
1.5340873e-07
1.5385848e-07
1.5483153e-07
1.5668804e-07
1.6004891e-07
1.6598369e-07
1.7635609e-07
1.9428911e-07
2.2498981e-07
2.7732975e-07
3.648522e-07
5.0881912e-07
7.4069507e-07
1.1039174e-06
1.6530211e-06
2.4473384e-06
3.5401428e-06
4.9672378e-06
6.7436336e-06
8.8729611e-06
1.1357807e-05
1.4208129e-05
1.7433436e-05
2.103883e-05
2.5022651e-05
2.9355891e-05
3.4011728e-05
3.8938491e-05
4.4089064e-05
4.9438405e-05
5.4879844e-05
6.04448e-05
6.4707209e-05
6.8293119e-05
7.1934787e-05
7.5737431e-05
7.9679921e-05
8.4015214e-05
8.8605376e-05
9.3481156e-05
9.8570731e-05