/*--------------------------------*- C++ -*----------------------------------*\
| =========                 |                                                 |
| \\      /  F ield         | OpenFOAM: The Open Source CFD Toolbox           |
|  \\    /   O peration     | Version:  2206                                  |
|   \\  /    A nd           | Website:  www.openfoam.com                      |
|    \\/     M anipulation  |                                                 |
\*---------------------------------------------------------------------------*/
FoamFile
{
    version     2.0;
    format      ascii;
    arch        "LSB;label=32;scalar=64";
    class       volScalarField;
    location    "1600";
    object      omega;
}
// * * * * * * * * * * * * * * * * * * * * * * * * * * * * * * * * * * * * * //

dimensions      [0 0 -1 0 0 0 0];

internalField   nonuniform List<scalar> 
7480
(
7569.106
7590.815
7571.1117
7538.155
7512.5641
7498.0751
7491.1185
7487.7283
7485.8492
7484.6255
7483.6802
7482.8694
7482.1629
7481.5516
7481.0216
7480.5596
7480.1562
7479.8019
7479.4866
7479.2041
7478.9505
7478.7215
7478.5132
7478.3234
7478.15
7477.9909
7477.8444
7477.7092
7477.5844
7477.469
7477.3619
7477.2627
7477.1707
7477.0854
7477.0063
7476.9331
7476.8653
7476.8029
7476.7454
7476.6929
7476.6452
7476.6022
7476.564
7476.5306
7476.502
7476.4788
7476.4606
7476.4483
7476.4417
7476.4408
7476.4453
7476.455
7476.4693
7476.4873
7476.5082
7476.5313
7476.5552
7476.5779
7476.5973
7476.6121
7476.622
7476.6271
7476.6279
7476.625
7476.6193
7476.6114
7476.602
7476.5916
7476.5806
7476.5692
7476.5576
7476.5461
7476.5346
7476.5232
7476.512
7476.501
7476.4901
7476.479
7476.4676
7476.4561
7476.4446
7476.4331
7476.4215
7476.4098
7476.398
7476.3861
7476.3742
7476.3622
7476.3501
7476.3381
7476.326
7476.3139
7476.3018
7476.2897
7476.2778
7476.2653
7476.2544
7476.2387
7476.2298
7476.2059
1003.2549
1574.4195
1842.5195
1920.806
1937.0559
1923.8797
1863.1607
1797.7997
1744.1768
1703.9863
1673.3429
1647.6841
1624.4609
1603.0453
1583.2635
1564.8925
1547.8339
1532.2037
1517.8491
1504.5435
1492.1932
1480.7751
1470.1818
1460.3006
1451.0857
1442.5106
1434.5036
1426.9963
1419.9575
1413.3637
1407.1725
1401.3486
1395.8757
1390.7373
1385.9092
1381.3729
1377.1194
1373.1372
1369.4125
1365.9373
1362.71
1359.728
1356.9883
1354.4929
1352.2434
1350.2309
1348.4711
1346.9682
1345.7273
1344.7432
1344.0369
1343.6417
1343.4529
1343.4378
1343.5588
1343.7776
1344.0513
1344.3228
1344.5298
1344.6204
1344.5807
1344.3989
1344.1241
1343.747
1343.2668
1342.7067
1342.0884
1341.4324
1340.7547
1340.0668
1339.3777
1338.6942
1338.02
1337.358
1336.7111
1336.0788
1335.464
1334.8576
1334.2549
1333.6574
1333.0651
1332.4779
1331.8954
1331.315
1330.7364
1330.1584
1329.5811
1329.0045
1328.4287
1327.8546
1327.2819
1326.7114
1326.1436
1325.5773
1325.0172
1324.4459
1323.9017
1323.3376
1322.6618
1322.0502
190.66924
396.64079
585.9703
709.21769
769.26483
785.39124
782.09432
789.21471
803.68337
812.84736
819.33143
823.54989
825.04949
824.15304
821.42798
817.41152
811.94862
805.29342
797.70623
789.40428
780.59959
771.49628
762.23796
752.92859
743.67301
734.56581
725.62302
716.84485
708.24743
699.85432
691.67994
683.73422
676.03074
668.58195
661.39512
654.47814
647.84068
641.48294
635.40211
629.5988
624.07908
618.85065
613.92093
609.29909
605.00274
601.02834
597.35423
593.98947
590.91789
588.12697
585.6534
583.50166
581.56633
579.81323
578.21739
576.72563
575.2759
573.82976
572.37045
570.90269
569.42229
567.91582
566.46408
565.01843
563.5613
562.09554
560.62738
559.16574
557.71896
556.29397
554.89627
553.5303
552.19915
550.9049
549.64938
548.43171
547.25265
546.13436
545.06042
544.01791
543.00018
542.00405
541.02761
540.0673
539.12119
538.18695
537.26335
536.34941
535.44428
534.54795
533.65967
532.77952
531.90761
531.0423
530.18767
529.32671
528.49257
527.65617
526.73641
525.65148
72.003359
121.36774
194.00119
267.73248
324.63449
359.7453
377.81385
386.78635
392.45621
397.57229
404.52249
415.23168
426.21394
437.93834
452.2863
470.55952
485.15125
496.54333
505.31415
511.87381
516.54645
519.6237
521.36462
522.03859
521.96135
521.37942
520.02242
517.83792
514.91384
511.37433
507.3386
502.91047
498.1808
493.23005
488.13281
482.96346
477.76961
472.53434
467.25721
461.95535
456.65494
451.38368
446.16686
441.02797
435.99804
431.08519
426.22902
421.41809
416.64881
411.92522
407.26834
402.77675
398.35167
394.00463
389.7711
385.60616
381.47423
377.42164
373.53042
369.87104
366.46531
363.33007
360.49848
357.89549
355.47152
353.19124
351.02768
348.9621
346.98168
345.07771
343.24412
341.47736
339.77531
338.13559
336.55664
335.03586
333.57237
332.19132
330.88498
329.63779
328.43953
327.28473
326.17057
325.09324
324.04988
323.03719
322.05247
321.09335
320.15745
319.24326
318.34885
317.47305
316.61464
315.7717
314.94553
314.1263
313.32353
312.57259
311.71849
310.76002
55.641869
64.533136
83.912792
111.35328
140.42692
165.53528
184.59011
198.13832
207.7485
214.7944
220.42617
225.66848
230.96458
236.83634
244.10376
253.55248
263.35021
273.15423
282.75061
292.00872
300.83511
309.31001
317.72655
326.71749
337.34763
349.83438
359.69791
366.93192
372.21533
375.99873
378.5886
380.2062
381.02997
381.22758
380.98993
380.5285
379.8218
378.4775
376.49149
373.94859
370.94404
367.56042
363.86564
359.92056
355.80077
351.5136
346.97353
342.17014
337.13378
331.90809
326.5414
321.09372
315.63815
310.18447
304.76888
299.34557
293.93984
288.67596
283.67093
279.00409
274.74039
270.89423
267.42476
264.27528
261.39207
258.72863
256.24545
253.91148
251.7031
249.60256
247.59704
245.67857
243.83987
242.07512
240.38032
238.7516
237.18791
235.69208
234.26693
232.90841
231.61074
230.36947
229.18193
228.04482
226.95525
225.90981
224.90529
223.93863
223.00666
222.10687
221.23687
220.39442
219.57732
218.7833
218.01183
217.25764
216.51739
215.84953
215.09996
214.28271
53.509644
54.437429
58.088763
65.266713
75.160479
86.044785
96.437714
105.6452
113.54523
120.26462
125.9699
130.87573
135.18687
139.11542
142.94424
147.01223
151.42039
156.27101
161.71015
167.81837
174.1568
180.724
187.52558
194.61357
202.10007
210.06878
218.05125
225.68936
232.80872
239.34821
245.32134
250.80756
255.97768
261.16156
266.96901
274.12114
281.53683
286.11031
288.75879
290.0899
290.458
290.0804
289.1099
287.69255
286.00986
284.21032
281.84592
278.8231
275.24337
271.21515
266.83854
262.21162
257.43466
252.53911
247.57723
242.62147
237.72636
232.97597
228.44974
224.19838
220.24414
216.59375
213.23017
210.12516
207.24876
204.57067
202.06182
199.6981
197.45937
195.32911
193.29478
191.34816
189.48182
187.68985
185.968
184.31236
182.72202
181.19188
179.72337
178.31808
176.97509
175.69242
174.46841
173.30062
172.18663
171.12344
170.10796
169.13709
168.20749
167.31625
166.4606
165.63791
164.8456
164.08124
163.34339
162.62878
161.93044
161.30188
160.63015
159.89021
53.224156
52.808674
52.959188
54.085552
56.273949
59.364808
62.974798
66.790936
70.619499
74.35775
77.935555
81.306878
84.44998
87.362832
90.076391
92.659277
95.181627
97.714044
100.34066
103.15212
106.19143
109.52666
113.2407
117.38455
121.86231
126.72336
131.9382
137.42291
143.08073
148.82772
154.59137
160.3145
165.96589
171.55552
177.13889
182.82204
188.52633
193.80239
198.43777
202.38737
205.68769
208.42617
210.75457
212.95202
215.48404
218.48268
219.86072
219.67993
218.49995
216.63446
214.30398
211.70831
209.01511
205.98705
202.56898
199.06461
195.62712
192.30411
189.05372
185.88533
182.82657
179.89103
177.07985
174.3952
171.83738
169.39923
167.07118
164.84639
162.71555
160.66972
158.70185
156.80716
154.98175
153.22291
151.52824
149.89481
148.32232
146.80658
145.34631
143.94318
142.59833
141.3118
140.08313
138.91087
137.79322
136.72784
135.71218
134.74348
133.81857
132.93461
132.08867
131.27812
130.50047
129.75329
129.03487
128.34261
127.67002
127.05761
126.43538
125.73447
53.162002
52.542423
52.020772
51.712767
51.712212
52.047212
52.633415
53.455623
54.479974
55.669099
56.983317
58.384719
59.83805
61.310421
62.776525
64.22376
65.650015
67.060382
68.469292
69.9008
71.380927
72.940972
74.620975
76.466572
78.514288
80.815725
83.427753
86.354339
89.550081
93.013177
96.733287
100.69077
104.86262
109.22927
113.78172
118.52058
123.42596
128.40534
133.3546
138.17742
142.79303
147.13942
151.17334
154.87888
158.27901
161.33817
163.88157
165.77014
167.0035
167.67479
167.93663
167.98916
167.9837
167.25158
165.7399
163.89175
162.06472
160.28477
158.32908
156.29993
154.2601
152.2088
150.14182
148.08108
146.04338
144.03252
142.05485
140.12255
138.23406
136.38996
134.59188
132.84114
131.13839
129.48662
127.88651
126.33651
124.83797
123.38923
121.98834
120.63617
119.33427
118.08384
116.88543
115.73864
114.64232
113.59511
112.59535
111.64094
110.72915
109.85761
109.02374
108.22515
107.45974
106.72527
106.02011
105.34199
104.68618
104.08056
103.48836
102.80753
53.12563
52.475395
51.838978
51.240694
50.7109
50.272425
49.92948
49.684357
49.539184
49.483193
49.494122
49.598526
49.796308
50.077497
50.42855
50.836375
51.290731
51.783459
52.309308
52.866932
53.458144
54.087633
54.764146
55.501021
56.314453
57.225306
58.260163
59.444907
60.801023
62.354357
64.13499
66.145652
68.383561
70.855058
73.571576
76.541985
79.77267
83.256336
86.970342
90.88393
94.96124
99.161817
103.44166
107.75467
112.06134
116.26101
120.20961
123.79631
126.93209
129.56052
131.65487
133.21743
134.27902
134.88628
135.04673
134.7986
134.38039
133.8519
133.00224
132.01934
130.99879
129.85278
128.55279
127.17008
125.73028
124.23285
122.70004
121.1506
119.59134
118.03169
116.481
114.9468
113.43433
111.95596
110.5139
109.10629
107.73776
106.4079
105.11464
103.85918
102.64318
101.46812
100.33522
99.244945
98.196652
97.190346
96.225578
95.301094
94.414658
93.564796
92.749659
91.967339
91.2165
90.495211
89.802197
89.135562
88.492477
87.891018
87.317324
86.648128
53.095594
52.438833
51.782831
51.131448
50.491513
49.870372
49.273536
48.705651
48.171495
47.674839
47.217236
46.802762
46.435002
46.115668
45.830226
45.572773
45.355956
45.185225
45.06078
44.981101
44.944093
44.947327
44.989904
45.073306
45.200981
45.378337
45.613303
45.915784
46.297105
46.77063
47.3526
48.059039
48.906477
49.914372
51.106446
52.489295
54.079756
55.896496
57.951114
60.252409
62.809584
65.629412
68.716089
72.071105
75.69473
79.565595
83.600886
87.699049
91.755693
95.663532
99.317181
102.6182
105.48224
107.85371
109.69405
110.92575
111.55637
111.76371
111.74692
111.56689
111.32915
110.96598
110.42494
109.77722
109.02038
108.0983
107.07446
105.97346
104.80079
103.57797
102.32146
101.04673
99.764146
98.506017
97.267093
96.044885
94.842823
93.662765
92.504916
91.370843
90.262416
89.181436
88.129822
87.108984
86.118408
85.159728
84.235104
83.344059
82.485013
81.657226
80.85979
80.091461
79.352147
78.640068
77.954576
77.29433
76.658065
76.056988
75.492124
74.827643
53.06922
52.409079
51.747908
51.085974
50.424399
49.764728
49.108723
48.458419
47.816221
47.184734
46.566429
45.963859
45.379604
44.816072
44.273979
43.753451
43.255882
42.783059
42.3366
41.917675
41.521921
41.139032
40.773789
40.435693
40.130775
39.862545
39.633625
39.446296
39.303042
39.207951
39.167123
39.18801
39.27933
39.451374
39.716529
40.087378
40.578906
41.209466
41.999106
42.958995
44.109238
45.47186
47.070928
48.932628
51.085692
53.56021
56.374913
59.518508
62.961305
66.650342
70.508122
74.432848
78.301774
81.984657
85.35846
88.281953
90.624893
92.357497
93.521387
94.225823
94.590631
94.759891
94.789085
94.714387
94.550604
94.22806
93.788032
93.230176
92.524461
91.718856
90.833622
89.897557
88.920512
87.937141
86.941042
85.93331
84.919754
83.904368
82.890276
81.881325
80.880845
79.891989
78.918198
77.962286
77.025937
76.111523
75.221553
74.357245
73.518911
72.706845
71.921088
71.161375
70.427675
69.719303
69.036228
68.377467
67.743083
67.139578
66.576994
65.912686
53.031202
52.367181
51.702294
51.036301
50.369186
49.700993
49.031983
48.36275
47.694212
47.027512
46.363895
45.704667
45.051209
44.404948
43.767202
43.139149
42.521982
41.916931
41.325253
40.748189
40.186425
39.639576
39.107801
38.592227
38.094479
37.616325
37.158875
36.716352
36.283564
35.869084
35.483333
35.133507
34.824734
34.561024
34.34608
34.185088
34.085093
34.055093
34.105908
34.24902
34.498289
34.870858
35.386352
36.064586
36.933713
38.028022
39.387056
41.049887
43.052502
45.42259
48.172495
51.290805
54.733637
58.420051
62.2354
66.026218
69.604782
72.797892
75.475011
77.599262
79.182104
80.301951
81.057118
81.525774
81.798227
81.940052
81.962972
81.888928
81.681597
81.362815
80.927526
80.398447
79.795335
79.125974
78.398237
77.6256
76.818487
75.983091
75.125893
74.253716
73.371936
72.485614
71.600001
70.719297
69.84692
68.986479
68.14116
67.313356
66.504776
65.716686
64.950022
64.205381
63.483265
62.783766
62.107274
61.453171
60.822554
60.219056
59.658279
58.995281
52.972811
52.293698
51.616071
50.939576
50.26379
49.58821
48.912469
48.236496
47.560508
46.884912
46.210198
45.536901
44.865596
44.196914
43.53152
42.870113
42.213427
41.562233
40.917341
40.279598
39.649829
39.028737
38.416971
37.81523
37.224302
36.645063
36.078401
35.524523
34.983081
34.454672
33.940945
33.44412
32.96635
32.503794
32.049572
31.613515
31.208048
30.841238
30.518698
30.244468
30.023502
29.863479
29.774391
29.768281
29.860587
30.071521
30.426457
30.955505
31.697295
32.697086
34.00488
35.671116
37.739366
40.234957
43.152611
46.441769
49.992401
53.640371
57.188507
60.459711
63.316726
65.690727
67.585893
69.027358
70.07556
70.818137
71.311992
71.629009
71.819601
71.891359
71.864033
71.726565
71.497566
71.186914
70.775208
70.287718
69.737786
69.130269
68.473585
67.777616
67.050051
66.297811
65.528358
64.747634
63.960982
63.173862
62.390578
61.614832
60.849763
60.097738
59.360757
58.640357
57.937768
57.253885
56.589661
55.945013
55.321891
54.722189
54.164827
53.505245
52.921929
52.221957
51.524401
50.829284
50.136394
49.445304
48.755597
48.067046
47.379663
46.693628
46.009198
45.326654
44.646292
43.968416
43.293345
42.62141
41.95296
41.28836
40.627997
39.972277
39.321628
38.676484
38.037284
37.404479
36.778544
36.159984
35.549337
34.947104
34.353697
33.769546
33.195212
32.631428
32.079063
31.538461
31.009193
30.491975
29.988812
29.502327
29.033422
28.572391
28.123621
27.702465
27.318767
26.978717
26.68698
26.450667
26.280897
26.192682
26.206051
26.347592
26.651489
27.160241
27.927291
29.013915
30.483329
32.389
34.755869
37.558184
40.704827
44.04846
47.40776
50.604426
53.502734
56.01061
58.088098
59.754593
61.039429
61.989838
62.679334
63.15252
63.472552
63.662248
63.741705
63.740822
63.649047
63.473365
63.226073
62.891259
62.478089
62.002129
61.470866
60.890512
60.271692
59.621992
58.948485
58.259141
57.559526
56.85495
56.150278
55.449159
54.754927
54.070215
53.397172
52.737613
52.093184
51.464479
50.854227
50.263376
49.712821
49.06013
52.891956
52.17729
51.464255
50.753196
50.044238
49.337269
48.632104
47.928631
47.226882
46.527016
45.829264
45.133885
44.441153
43.751347
43.064749
42.38164
41.702305
41.02703
40.356098
39.689795
39.028407
38.372215
37.721501
37.07654
36.437607
35.804975
35.178919
34.559714
33.947623
33.342904
32.745824
32.156684
31.575824
31.003567
30.440148
29.88585
29.341138
28.806698
28.283226
27.770241
27.267837
26.777867
26.303044
25.844051
25.389502
24.949218
24.539605
24.170284
23.848219
23.582019
23.386093
23.28086
23.294504
23.465296
23.843255
24.489584
25.475045
26.866985
28.709522
31.001609
33.682399
36.633253
39.700407
42.720164
45.546177
48.078412
50.256715
52.057777
53.505781
54.629589
55.469016
56.079636
56.502037
56.778868
56.951888
57.034454
57.043787
56.974032
56.825249
56.608904
56.314172
55.942583
55.512778
55.03011
54.502045
53.940418
53.350881
52.740741
52.117122
51.485008
50.84947
50.214431
49.583194
48.958735
48.343516
47.73898
47.14864
46.573053
46.034433
45.393561
52.877033
52.154342
51.432394
50.711623
49.992304
49.274525
48.558286
47.843606
47.130581
46.419386
45.710261
45.00347
44.2993
43.598043
42.899997
42.205463
41.51474
40.828126
40.145918
39.468407
38.795882
38.128625
37.466912
36.811011
36.161182
35.517675
34.88073
34.250576
33.627432
33.011499
32.402965
31.802012
31.208812
30.623524
30.046292
29.477249
28.916535
28.364323
27.820814
27.286113
26.760306
26.243659
25.736707
25.239972
24.752602
24.275038
23.809627
23.3595
22.917103
22.481641
22.074468
21.70856
21.393802
21.14339
20.979068
20.93211
21.045867
21.377136
21.993012
22.962034
24.339792
26.147914
28.358022
30.887755
33.611177
36.384798
39.069813
41.549216
43.749332
45.6307
47.181146
48.424315
49.386296
50.099365
50.61936
50.984045
51.220928
51.363264
51.43481
51.436888
51.366527
51.222875
51.018804
50.737559
50.387551
49.988059
49.538684
49.050309
48.532783
47.99162
47.434247
46.865922
46.291396
45.715154
45.140606
44.570304
44.008618
43.456137
42.9363
42.31373
52.870434
52.14367
51.417085
50.691117
49.966083
49.242154
48.519425
47.797988
47.077976
46.359576
45.643024
44.928583
44.216537
43.507179
42.800812
42.09774
41.39827
40.702708
40.01136
39.324528
38.64251
37.965601
37.294088
36.628253
35.968372
35.314709
34.667522
34.02706
33.393557
32.767238
32.148314
31.536982
30.933424
30.337807
29.75028
29.170973
28.600002
28.037463
27.483445
26.938012
26.401207
25.873068
25.353662
24.843083
24.341283
23.848259
23.364276
22.889913
22.424796
21.968561
21.523487
21.093108
20.670445
20.257405
19.878363
19.548615
19.2826
19.103986
19.047756
19.161181
19.503352
20.139508
21.129217
22.511225
24.285514
26.404013
28.774027
31.272392
33.770135
36.150873
38.321246
40.226693
41.840717
43.158421
44.20824
45.014413
45.609507
46.038395
46.340222
46.530031
46.635292
46.683076
46.665822
46.580502
46.430013
46.22766
45.946052
45.608548
45.226128
44.801372
44.345634
43.864629
43.364919
42.85288
42.33288
41.809
41.286558
40.766594
40.274122
39.677986
52.868229
52.139413
51.410447
50.681764
49.953695
49.226451
48.500177
47.775
47.051075
46.328589
45.607771
44.888874
44.172171
43.457945
42.746492
42.038109
41.333097
40.631758
39.934393
39.2413
38.552777
37.869115
37.190602
36.517521
35.850148
35.188754
34.5336
33.884941
33.243024
32.608085
31.98035
31.360036
30.747347
30.142474
29.545595
28.956874
28.376459
27.804482
27.241056
26.686278
26.140225
25.602954
25.074505
24.55491
24.044172
23.542275
23.049224
22.565071
22.089806
21.623372
21.165981
20.718225
20.279794
19.850697
19.433968
19.034149
18.637548
18.267525
17.946471
17.691933
17.529601
17.497054
17.643524
18.026632
18.706976
19.733569
21.127909
22.871792
24.902834
27.123446
29.416018
31.665487
33.773436
35.665216
37.303834
38.673516
39.779901
40.652191
41.311408
41.792938
42.132935
42.367798
42.502681
42.574779
42.59071
42.547382
42.440566
42.279029
42.06141
41.778398
41.450997
41.08095
40.677517
40.249027
39.800354
39.337735
38.867343
38.391206
37.936453
37.376762
52.868388
52.138532
51.408323
50.678189
49.948471
49.219409
48.491178
47.763936
47.037848
46.313105
45.58993
44.868566
44.149274
43.43233
42.718015
42.006619
41.298433
40.593749
39.892859
39.196053
38.503619
37.815841
37.133
36.45537
35.78322
35.116815
34.456411
33.802257
33.154596
32.513663
31.879683
31.252873
30.633442
30.021586
29.417493
28.82134
28.233292
27.653499
27.082102
26.519224
25.964977
25.419455
24.882736
24.354884
23.835947
23.325956
22.824933
22.332897
21.84986
21.375822
20.9108
20.454876
20.008076
19.570421
19.142289
18.724545
18.316265
17.919619
17.539388
17.166985
16.820262
16.524368
16.298455
16.170881
16.18144
16.380249
16.822689
17.564037
18.6406
20.057863
21.78097
23.735661
25.820979
27.924911
29.946121
31.802532
33.438715
34.833332
35.978338
36.889901
37.595841
38.117463
38.488944
38.748834
38.916341
38.99514
39.033709
39.016754
38.943956
38.816326
38.643891
38.407622
38.123663
37.801105
37.443386
37.060032
36.657147
36.238606
35.833774
35.322904
52.869866
52.139491
51.408621
50.677682
49.947024
49.216908
48.487537
47.759093
47.031755
46.30572
45.581208
44.858456
44.13772
43.419266
42.703368
41.990307
41.280366
40.573828
39.870978
39.172097
38.477465
37.787357
37.102044
36.421794
35.746867
35.077516
34.413992
33.756533
33.105376
32.460745
31.822859
31.191927
30.568152
29.951726
29.342832
28.741645
28.148328
27.563035
26.98591
26.417086
25.856682
25.304809
24.761563
24.22703
23.701282
23.184379
22.676373
22.17731
21.687226
21.206156
20.734131
20.271189
19.817366
19.3727
18.937263
18.51122
18.094595
17.687662
17.291237
16.904905
16.53065
16.173563
15.825218
15.509018
15.247026
15.059793
14.978612
15.046007
15.311718
15.830035
16.648787
17.789847
19.24178
20.952638
22.837613
24.793661
26.716504
28.51989
30.13742
31.532852
32.697886
33.633674
34.363952
34.913475
35.311175
35.58147
35.76668
35.869208
35.912004
35.912194
35.862522
35.761713
35.616709
35.423033
35.176513
34.893358
34.575875
34.231596
33.890872
33.444189
52.872113
52.141492
51.410271
50.678869
49.947644
49.216874
48.486788
47.757587
47.029467
46.302633
45.577306
44.853723
44.132135
43.412803
42.695996
41.98199
41.271061
40.563487
39.859547
39.159516
38.463667
37.772269
37.085588
36.403883
35.727407
35.056408
34.391127
33.731797
33.078643
32.431886
31.791733
31.158388
30.532044
29.912885
29.301088
28.696818
28.100234
27.511484
26.930706
26.358028
25.793571
25.237442
24.689741
24.150555
23.619963
23.098034
22.584829
22.080401
21.584799
21.098068
20.620251
20.15139
19.691528
19.240708
18.798982
18.366411
17.943055
17.528991
17.124374
16.729266
16.343948
15.96931
15.604979
15.253848
14.921441
14.599897
14.317901
14.09426
13.952675
13.927873
14.064595
14.413603
15.026289
15.939236
17.158115
18.651765
20.350956
22.162604
23.984096
25.722128
27.306975
28.690183
29.85448
30.800066
31.543164
32.107451
32.516651
32.801469
32.992199
33.10809
33.15503
33.16527
33.131224
33.051431
32.928946
32.767941
32.553523
32.302528
32.041985
31.677991
52.874823
52.144108
51.412706
50.681031
49.949445
49.218241
48.487669
47.757949
47.029294
46.301917
45.576044
44.851914
44.129776
43.409888
42.692518
41.977935
41.266415
40.558231
39.853656
39.152964
38.456423
37.764297
37.076848
36.39433
35.716992
35.045077
34.37882
33.718449
33.064185
32.41624
31.774819
31.140116
30.512319
29.891606
29.278145
28.672097
28.073613
27.482833
26.89989
26.324906
25.757995
25.19926
24.648794
24.106683
23.573002
23.047816
22.531186
22.023162
21.52379
21.033114
20.551172
20.078002
19.613642
19.158129
18.711505
18.273814
17.845101
17.425414
17.014808
16.613326
16.221024
15.838053
15.46448
15.100731
14.747899
14.405834
14.078471
13.76677
13.477219
13.232976
13.053012
12.965505
13.009369
13.231489
13.683468
14.410905
15.433431
16.737258
18.269029
19.943955
21.664107
23.332721
24.872792
26.231522
27.383341
28.326626
29.069119
29.636677
30.050816
30.341613
30.532959
30.654447
30.709208
30.721896
30.699117
30.635295
30.532112
30.393392
30.229111
29.968155
52.877825
52.1471
51.415615
50.683777
49.951949
49.220439
48.489512
47.759408
47.030352
46.302571
45.576296
44.851766
44.129234
43.408956
42.691199
41.97623
41.264321
40.555744
39.85077
39.149669
38.452706
37.760145
37.072242
36.389249
35.711414
35.038974
34.372163
33.711205
33.056316
32.407706
31.765574
31.130113
30.501503
29.87992
29.265526
28.658478
28.05892
27.46699
26.882812
26.306506
25.738178
25.177927
24.625841
24.082
23.546474
23.019325
22.500606
21.990364
21.488637
20.995463
20.51087
20.034889
19.567545
19.108865
18.658874
18.217602
17.785077
17.361328
16.946384
16.540269
16.142998
15.754597
15.375088
15.004532
14.643116
14.290972
13.948739
13.617089
13.29752
12.994652
12.70641
12.451871
12.248828
12.119664
12.097647
12.225896
12.554329
13.132246
13.9923
15.13335
16.516523
18.066473
19.688268
21.284931
22.774228
24.100259
25.229485
26.15731
26.89067
27.452098
27.864097
28.153195
28.343599
28.46443
28.52502
28.538838
28.525219
28.47399
28.405425
28.265533
52.881016
52.150328
51.418817
50.686882
49.954887
49.223149
48.491948
47.76154
47.032165
46.304058
45.577458
44.852611
44.129767
43.409187
42.691135
41.975877
41.263684
40.554826
39.849573
39.148193
38.450949
37.758102
37.069909
36.386618
35.708475
35.035717
34.368573
33.707266
33.052011
32.403014
31.760473
31.124577
30.495505
29.873427
29.258506
28.650893
28.05073
27.458149
26.873275
26.296221
25.727089
25.165975
24.612964
24.06813
23.531541
23.003252
22.483313
21.971765
21.468642
20.973973
20.487781
20.010086
19.540904
19.080248
18.628133
18.184571
17.749573
17.323153
16.905321
16.496083
16.095438
15.703383
15.319911
14.945013
14.578701
14.220996
13.871991
13.531854
13.200923
12.880122
12.569938
12.273569
11.994844
11.736934
11.520385
11.363999
11.295972
11.35527
11.589635
12.049718
12.776486
13.780173
15.033646
16.470873
18.000377
19.526037
20.961483
22.246339
23.344904
24.248658
24.965239
25.512932
25.917283
26.198449
26.385608
26.50283
26.56721
26.585796
26.592782
26.547795
52.884331
52.153709
51.422205
50.690214
49.958099
49.226185
48.494763
47.764103
47.034458
46.306074
45.579198
44.854078
44.13097
43.410135
42.691836
41.976341
41.263918
40.554838
39.849369
39.147776
38.450324
37.757271
37.068871
36.385374
35.707023
35.034052
34.366692
33.705162
33.049677
32.400441
31.75765
31.121492
30.492144
29.869775
29.254545
28.646603
28.046089
27.453135
26.867861
26.290378
25.720788
25.159182
24.605642
24.060241
23.523043
22.994101
22.473461
21.96116
21.457228
20.96169
20.474563
19.995861
19.525591
19.06376
18.61037
18.165421
17.728915
17.300848
16.881216
16.470011
16.06722
15.672823
15.286797
14.909112
14.53974
14.178652
13.825831
13.481279
13.145038
12.817265
12.498152
12.188306
11.888775
11.600909
11.32892
11.073825
10.851452
10.67877
10.579811
10.589599
10.753154
11.121353
11.739866
12.629378
13.771854
15.109712
16.554972
18.011122
19.390394
20.629117
21.691053
22.564202
23.257806
23.785407
24.175227
24.445836
24.628248
24.742893
24.822702
24.849856
52.887731
52.157188
51.425712
50.693692
49.961489
49.229434
48.497828
47.766953
47.037072
46.308443
45.581319
44.855955
44.13261
43.411546
42.693028
41.977323
41.264701
40.555429
39.849776
39.148006
38.450383
37.757164
37.068603
36.384947
35.706439
35.033313
34.365797
33.704111
33.048468
32.399071
31.756115
31.119787
30.490262
29.86771
29.252288
28.644145
28.043419
27.450241
26.864729
26.286993
25.717132
25.155238
24.601391
24.055661
23.51811
22.988789
22.467744
21.955008
21.450609
20.954569
20.466901
19.987614
19.516712
19.054194
18.600058
18.154295
17.716897
17.287851
16.867143
16.454753
16.050658
15.654828
15.267226
14.887814
14.516545
14.153372
13.798247
13.451124
13.111966
12.780758
12.457507
12.1423
11.835348
11.537012
11.248193
10.969795
10.704955
10.456927
10.233529
10.051796
9.9324786
9.9070412
10.017762
10.315106
10.847446
11.643504
12.692876
13.944298
15.313103
16.702814
18.02544
19.215076
20.235947
21.073144
21.736769
22.240132
22.612649
22.87212
23.062472
23.178534
52.891187
52.16073
51.429295
50.697262
49.964994
49.232823
48.501061
47.769996
47.039905
46.311054
45.583703
44.858114
44.134549
43.413272
42.69455
41.978652
41.265844
40.556397
39.850577
39.148649
38.450875
37.757512
37.068812
36.385022
35.706385
35.033133
34.365494
33.703687
33.047924
32.398407
31.755332
31.118882
30.489236
29.866558
29.251008
28.642732
28.041869
27.448547
26.862885
26.284992
25.714965
25.152895
24.598862
24.052934
23.515172
22.985627
22.464342
21.95135
21.446678
20.950343
20.462359
19.982731
19.511461
19.048545
18.593974
18.147736
17.709817
17.280199
16.858859
16.445772
16.040905
15.644222
15.255679
14.875226
14.502811
14.138374
13.781856
13.433192
13.092321
12.759184
12.433727
12.115912
11.805733
11.503228
11.208551
10.921951
10.644084
10.375969
10.119635
9.8794105
9.6585984
9.4729821
9.3410618
9.2912385
9.3633694
9.606929
10.072058
10.792971
11.765354
12.94278
14.243379
15.570813
16.837501
17.976093
18.951146
19.747953
20.378694
20.856198
21.224887
21.474446
52.89468
52.164312
51.432923
50.70089
49.968572
49.236305
48.504406
47.773173
47.042892
46.313836
45.586275
44.860474
44.136701
43.415222
42.696306
41.980221
41.267238
40.557624
39.851646
39.149569
38.451653
37.758156
37.069329
36.385419
35.706666
35.033304
34.365558
33.703649
33.047786
32.398172
31.755001
31.118458
30.488718
29.865947
29.250303
28.641932
28.040973
27.447552
26.861789
26.28379
25.713655
25.151471
24.597319
24.051266
23.513372
22.983689
22.462257
21.94911
21.444272
20.947761
20.459589
19.979759
19.508272
19.045121
18.590295
18.14378
17.705557
17.275604
16.853895
16.440399
16.03508
15.637895
15.248796
14.867727
14.494631
14.12944
13.772089
13.422505
13.080614
12.746344
12.41962
12.10037
11.78853
11.484046
11.186889
10.897067
10.614672
10.33992
10.073278
9.8157647
9.568725
9.3357248
9.1202836
8.9348048
8.7961383
8.7302996
8.7750181
8.9786538
9.3924039
10.054219
10.96441
12.07984
13.320677
14.590377
15.801646
16.887123
17.81472
18.569304
19.182316
19.638097
52.898196
52.167916
51.436578
50.704551
49.972195
49.239846
48.507827
47.776443
47.045988
46.316742
45.588983
44.862981
44.139009
43.417335
42.698231
41.981966
41.268812
40.559035
39.852904
39.150682
38.45263
37.759004
37.070056
36.386031
35.707169
35.033704
34.365861
33.703859
33.047907
32.398208
31.754954
31.118331
30.488513
29.865666
29.249947
28.641502
28.040469
27.446974
26.861136
26.283061
25.712849
25.150587
24.596353
24.050216
23.512236
22.982462
22.460936
21.94769
21.442748
20.946129
20.457841
19.977889
19.50627
19.042978
18.588001
18.141321
17.702919
17.272769
16.850843
16.437107
16.031522
15.634041
15.244614
14.863183
14.489683
14.124046
13.766199
13.416067
13.073571
12.738629
12.411158
12.091075
11.778298
11.472746
11.174343
10.883024
10.59874
10.321479
10.051291
9.7883563
9.5330136
9.2860645
9.0487024
8.8238407
8.6153899
8.4325092
8.2912706
8.2155541
8.2415438
8.4163886
8.7921358
9.4088856
10.27069
11.335623
12.524672
13.74027
14.898538
15.93071
16.829759
17.551405
52.901724
52.17153
51.440242
50.708227
49.975841
49.243422
48.511296
47.779776
47.04916
46.319738
45.591791
44.865598
44.141434
43.419571
42.700284
41.983843
41.27052
40.560584
39.854301
39.151937
38.45375
37.759997
37.07093
36.386793
35.707826
35.034261
34.366324
33.704233
33.048197
32.398418
31.755089
31.118393
30.488506
29.865592
29.249808
28.6413
28.040205
27.44665
26.860752
26.282619
25.712348
25.150026
24.595732