/*--------------------------------*- C++ -*----------------------------------*\
| =========                 |                                                 |
| \\      /  F ield         | OpenFOAM: The Open Source CFD Toolbox           |
|  \\    /   O peration     | Version:  2206                                  |
|   \\  /    A nd           | Website:  www.openfoam.com                      |
|    \\/     M anipulation  |                                                 |
\*---------------------------------------------------------------------------*/
FoamFile
{
    version     2.0;
    format      ascii;
    arch        "LSB;label=32;scalar=64";
    class       volScalarField;
    location    "1600";
    object      p;
}
// * * * * * * * * * * * * * * * * * * * * * * * * * * * * * * * * * * * * * //

dimensions      [0 2 -2 0 0 0 0];

internalField   nonuniform List<scalar> 
7480
(
0.054554772
0.042303659
0.028185227
0.016380464
0.0057763111
0.00033181995
-0.00092161794
9.7102448e-05
0.0016526459
0.0026855448
0.0031636461
0.0033692726
0.0034630194
0.0034946243
0.0034993095
0.0035066863
0.0035176342
0.003514537
0.0035009087
0.0034858952
0.0034683177
0.003443989
0.0034157423
0.0033869272
0.0033562685
0.0033213612
0.0032836196
0.0032445941
0.0032033982
0.0031592273
0.0031131953
0.0030660707
0.0030172383
0.0029665083
0.0029147423
0.0028625445
0.002809958
0.0027576464
0.002706848
0.0026585819
0.002613689
0.0025737304
0.0025412217
0.0025185405
0.002509886
0.0025200292
0.0025524567
0.0026062728
0.0026811197
0.0027774814
0.0028936317
0.0030266938
0.0031721832
0.0033237888
0.0034793079
0.0036323214
0.0037647564
0.0038638269
0.0039216486
0.0039404195
0.0039228201
0.0038757326
0.0038080044
0.0037266741
0.0036368038
0.0035423723
0.0034467304
0.0033511517
0.0032565397
0.0031634441
0.0030719822
0.0029816574
0.0028925018
0.0028044876
0.0027168214
0.0026300933
0.0025433861
0.0024545844
0.0023641036
0.0022720666
0.0021792849
0.0020853534
0.0019891295
0.0018916697
0.0017920588
0.0016909494
0.0015881678
0.0014837796
0.001378412
0.0012716671
0.0011648451
0.0010576305
0.00095185759
0.00084691231
0.00074962169
0.00064655971
0.00059429016
0.00031187169
0.0008384401
-0.00087471239
0.049577212
0.039067528
0.027119219
0.016231356
0.0063768298
0.0011328745
-0.00021470145
0.00056664073
0.0018795275
0.0028094344
0.0032413546
0.0034284625
0.0035138446
0.0035386322
0.0035393587
0.0035451946
0.0035500081
0.0035414899
0.0035248637
0.0035075026
0.0034877721
0.0034614855
0.0034316271
0.0034014238
0.0033694896
0.0033334234
0.0032946793
0.003254757
0.0032127253
0.0031677898
0.0031210757
0.003073326
0.0030239072
0.0029726349
0.0029203708
0.0028677066
0.0028146779
0.0027619488
0.0027107535
0.0026621041
0.0026168375
0.002576515
0.0025436494
0.0025206133
0.0025117281
0.0025216552
0.0025534591
0.0026068868
0.0026814408
0.0027775119
0.0028933973
0.003026228
0.0031715238
0.0033229852
0.0034784183
0.0036313978
0.0037638543
0.0038630283
0.0039209921
0.0039399005
0.0039225184
0.0038756261
0.0038080428
0.0037268267
0.0036370389
0.0035426632
0.003447056
0.0033514958
0.003256891
0.0031637949
0.003072327
0.0029819929
0.0028928261
0.0028047994
0.0027171204
0.0026303799
0.0025436666
0.0024548642
0.0023643801
0.002272337
0.0021795486
0.0020856108
0.0019893812
0.0018919163
0.0017923005
0.0016911861
0.0015883994
0.001484006
0.0013786329
0.0012718825
0.0011650547
0.0010578344
0.00095205584
0.00084710481
0.00074980975
0.00064673983
0.0005945367
0.00031285138
0.00084065316
-0.00087419972
0.045517432
0.037386686
0.026755807
0.01650553
0.0077512651
0.0026613766
0.00095826881
0.0012284953
0.0022159364
0.0029937743
0.0033623167
0.0035293399
0.0036019889
0.0036117379
0.003603479
0.0036022696
0.0035983764
0.0035825043
0.0035611146
0.0035400688
0.0035167495
0.003487097
0.0034547009
0.0034223704
0.0033883938
0.0033504874
0.0033102665
0.0032690747
0.0032258382
0.0031798048
0.0031321567
0.0030835694
0.0030333566
0.0029813579
0.0029284473
0.0028751865
0.0028215938
0.0027683446
0.0027166695
0.0026675636
0.002621855
0.0025811102
0.0025478391
0.0025244067
0.0025152402
0.0025250951
0.0025563041
0.0026090678
0.0026832676
0.0027789712
0.0028945033
0.0030269965
0.0031719712
0.0033231464
0.0034783637
0.0036311761
0.0037634896
0.0038626298
0.0039206668
0.0039396554
0.0039225022
0.0038758188
0.0038084061
0.0037273327
0.0036376502
0.0035433449
0.0034477798
0.0033522378
0.0032576343
0.0031645275
0.0030730407
0.0029826823
0.0028934885
0.0028054328
0.002717724
0.0026309544
0.0025442121
0.0024553874
0.0023648872
0.0022728264
0.0021800207
0.0020860664
0.001989822
0.0018923442
0.001792716
0.0016915902
0.0015887923
0.0014843878
0.0013790037
0.0012722423
0.0011654038
0.0010581726
0.00095238372
0.00084742182
0.00075011941
0.00064703266
0.00059493755
0.00031442688
0.00084457559
-0.00087357515
0.042796598
0.036085075
0.026400904
0.016805008
0.0090374628
0.0041240052
0.0020400569
0.0019223674
0.0026078912
0.0032312626
0.0035442681
0.0036869017
0.0037364144
0.003716519
0.0036877137
0.003674624
0.0036601217
0.0036337721
0.0036057944
0.0035804518
0.0035526904
0.0035185121
0.0034829204
0.0034480187
0.0034114248
0.0033710902
0.0033290712
0.0032864202
0.0032417596
0.0031944377
0.003145783
0.0030963339
0.0030452899
0.0029925482
0.002939022
0.002885213
0.0028311093
0.0027774255
0.0027253924
0.0026759686
0.0026299648
0.0025889646
0.0025554726
0.002531848
0.002522531
0.0025326623
0.0025636656
0.0026157175
0.0026896378
0.0027850101
0.0029001468
0.003032191
0.003176653
0.0033272805
0.0034819776
0.0036342563
0.0037660303
0.0038646662
0.0039224507
0.0039411959
0.0039240073
0.0038773568
0.0038099937
0.0037289796
0.0036393416
0.0035450587
0.0034494942
0.0033539289
0.0032592854
0.0031661265
0.0030745785
0.0029841526
0.0028948896
0.0028067631
0.0027189827
0.0026321432
0.0025452999
0.0024563763
0.0023658194
0.0022737113
0.0021808621
0.0020868668
0.001990585
0.0018930749
0.0017934167
0.001692264
0.0015894406
0.0014850122
0.0013796055
0.001272822
0.0011659628
0.0010587111
0.00095290326
0.00084792171
0.00075060549
0.00064749134
0.00059555395
0.00031692018
0.000851001
-0.00087251631
0.040327451
0.034491437
0.025776123
0.017157236
0.010105245
0.0053303699
0.0030789462
0.0026910213
0.0030841667
0.0035301971
0.003766145
0.0038581441
0.003875641
0.0038378421
0.0037980597
0.0037752688
0.0037478863
0.0037058549
0.0036669431
0.0036347768
0.0036005707
0.0035600553
0.0035202269
0.0034822107
0.0034423743
0.0033988495
0.0033545004
0.0033099706
0.0032634064
0.0032143507
0.003164406
0.0031138899
0.0030618147
0.0030081853
0.0029539886
0.0028996219
0.0028450102
0.0027909443
0.0027386751
0.0026890917
0.0026429677
0.0026019147
0.0025684277
0.0025448397
0.0025356569
0.0025462628
0.0025771875
0.0026287407
0.0027023845
0.0027973537
0.0029119583
0.0030433423
0.0031869915
0.0033367031
0.0034905189
0.0036419502
0.0037727388
0.0038702816
0.0039274098
0.0039454631
0.0039278366
0.0038809674
0.0038134627
0.0037323639
0.0036426562
0.0035483011
0.0034526571
0.0033569949
0.0032622432
0.0031689669
0.0030772936
0.0029867374
0.0028973462
0.0028090914
0.0027211821
0.0026342163
0.0025472081
0.0024581232
0.0023674578
0.0022752545
0.0021823181
0.0020882413
0.0019918845
0.0018943088
0.0017945898
0.0016933829
0.0015905091
0.0014860341
0.0013805841
0.0012737592
0.0011668618
0.001059573
0.00095373103
0.0008487153
0.0007513727
0.00064821782
0.00059649905
0.0003206232
0.00086050418
-0.00087047853
0.038013856
0.032899094
0.025187757
0.017468971
0.010990012
0.0064273912
0.0040781006
0.0034385058
0.0035820092
0.0038528356
0.0040007215
0.004040549
0.0040271202
0.0039750348
0.0039219007
0.003880568
0.0038377353
0.0037859056
0.0037402104
0.0037021379
0.0036603705
0.0036119648
0.0035662277
0.0035239985
0.0034800838
0.0034326653
0.0033856165
0.0033389988
0.0032902632
0.0032391958
0.0031877976
0.0031360877
0.0030828413
0.0030282597
0.0029734766
0.0029187345
0.0028637316
0.0028093282
0.0027568997
0.0027072713
0.0026611674
0.0026202397
0.0025869728
0.002563644
0.0025548183
0.0025657844
0.0025964754
0.0026476749
0.0027208098
0.0028151006
0.0029289073
0.0030593481
0.0032018503
0.0033502733
0.0035028653
0.0036530722
0.0037823759
0.0038783807
0.0039346173
0.0039516898
0.0039333622
0.0038861813
0.0038184602
0.003737212
0.0036473724
0.0035528861
0.0034571089
0.0033612978
0.0032663882
0.0031729461
0.0030810968
0.0029903619
0.0029008003
0.0028123752
0.0027242935
0.0026371569
0.002549963
0.0024607045
0.002369892
0.0022775452
0.0021844754
0.0020902727
0.0019937989
0.0018961192
0.0017963035
0.0016950098
0.0015920554
0.0014875064
0.0013819878
0.0012750978
0.0011681403
0.0010607945
0.00095490014
0.00084983322
0.00075244739
0.00064923979
0.0005978101
0.00032566165
0.0008731965
-0.00086699777
0.035912608
0.031420402
0.024634972
0.017698312
0.011747923
0.0074256122
0.0050142166
0.004146891
0.0040663997
0.0041837948
0.0042465498
0.0042363046
0.0041908234
0.0041206729
0.0040500717
0.003989958
0.0039332564
0.0038733595
0.0038195941
0.0037718403
0.0037216725
0.0036680352
0.003618208
0.0035720552
0.0035235282
0.0034717023
0.0034213755
0.0033720627
0.0033206351
0.0032672069
0.0032141973
0.0031612015
0.0031066631
0.0030510547
0.0029957072
0.0029406355
0.00288528
0.0028306363
0.0027782233
0.0027287679
0.0026829315
0.0026424362
0.0026097809
0.0025872751
0.0025786194
0.0025889887
0.0026194363
0.0026705215
0.0027432296
0.0028368434
0.0029497185
0.0030789161
0.0032199083
0.0033667844
0.0035170533
0.0036642962
0.0037914333
0.0038859913
0.0039417034
0.0039579982
0.003939122
0.0038918603
0.003824099
0.0037428286
0.0036529383
0.0035583709
0.0034624893
0.003366539
0.0032714707
0.0031778553
0.0030858171
0.0029948861
0.0029051347
0.0028165162
0.0027282353
0.0026408988
0.0025534962
0.0024640447
0.0023730571
0.0022805313
0.002187291
0.0020929247
0.0019962964
0.0018984777
0.0017985316
0.00169712
0.0015940558
0.0014894055
0.0013837935
0.0012768151
0.0011697763
0.0010623536
0.00095638824
0.00085125322
0.00075380605
0.00065053594
0.00059946316
0.00033197917
0.00088872863
-0.00086193302
0.034013866
0.030038448
0.024068126
0.017841736
0.012394548
0.0083168021
0.0058770336
0.0048244
0.0045487143
0.0045247757
0.0045025161
0.0044409748
0.0043612911
0.0042696961
0.004181232
0.0041044062
0.004034315
0.0039649769
0.0039014785
0.0038437674
0.0037863745
0.0037280865
0.0036734869
0.0036217607
0.0035684347
0.0035134484
0.0034605536
0.0034085561
0.0033541532
0.003298083
0.0032432044
0.0031886751
0.0031324286
0.0030753213
0.0030190427
0.0029632847
0.0029072908
0.0028522871
0.0027998791
0.0027506488
0.0027051767
0.0026652849
0.0026335076
0.0026121796
0.0026037398
0.0026132513
0.0026433541
0.0026944093
0.0027668103
0.0028597969
0.0029716337
0.0030992875
0.0032385339
0.0033839266
0.003530915
0.0036737061
0.0037982976
0.0038917806
0.0039474436
0.0039633564
0.0039442898
0.0038972906
0.0038297601
0.0037486829
0.0036589065
0.0035643805
0.0034684812
0.003372447
0.0032772571
0.0031834936
0.0030912837
0.003000163
0.0029102185
0.0028213972
0.0027329017
0.0026453474
0.0025577141
0.002468048
0.0023768658
0.002284137
0.0021906994
0.0020961403
0.0019993273
0.0019013406
0.0018012351
0.0016996786
0.0015964784
0.0014917026
0.0013859742
0.0012788863
0.001171747
0.0010642289
0.00095817487
0.00085295575
0.00075542912
0.00065208845
0.00060142508
0.00033945088
0.00090657129
-0.00085542659
0.032293119
0.028746899
0.023493571
0.017920929
0.012944568
0.0091077287
0.0066711014
0.0054735152
0.0050275003
0.0048719814
0.0047660967
0.0046524305
0.0045376417
0.0044229492
0.0043158611
0.0042224955
0.0041385471
0.0040586728
0.0039856124
0.0039189059
0.0038543755
0.0037906249
0.0037304923
0.0036731689
0.0036155982
0.0035575466
0.0035015321
0.0034461899
0.0033889559
0.0033308893
0.0032744042
0.003218206
0.0031600313
0.0031012385
0.003043838
0.0029871922
0.0029303362
0.0028746361
0.0028217719
0.002772294
0.0027267393
0.0026870359
0.0026557595
0.0026351436
0.0026272289
0.0026366621
0.0026663972
0.0027170388
0.0027888313
0.0028810062
0.0029917384
0.0031179043
0.0032555434
0.003399527
0.0035437312
0.0036823257
0.0038040068
0.0038963611
0.0039518935
0.0039676351
0.0039486745
0.0039021758
0.0038350626
0.0037543688
0.0036648839
0.0035705355
0.003474724
0.0033786882
0.0032834432
0.0031895817
0.0030972361
0.0030059528
0.0029158356
0.002826823
0.0027381158
0.0026503424
0.0025624699
0.0024725787
0.0023811942
0.0022882507
0.0021946016
0.0020998324
0.002002815
0.0019046407
0.0018043552
0.0017026337
0.0015992775
0.0014943566
0.0013884935
0.0012812782
0.0011740221
0.0010663926
0.00096023446
0.00085491719
0.00075729408
0.00065387674
0.00060365283
0.00034792854
0.00092614079
-0.00084753699
0.030729755
0.027547084
0.022922722
0.017945997
0.013405905
0.0098052827
0.0073985074
0.0060906478
0.0054974827
0.0052215558
0.0050355846
0.0048702506
0.0047198449
0.0045806806
0.0044543152
0.0043440554
0.0042460568
0.0041550518
0.0040719704
0.0039963942
0.0039244922
0.0038547627
0.0037891869
0.00372671
0.0036648579
0.0036032437
0.0035438171
0.0034852668
0.0034254462
0.0033653488
0.0033068012
0.0032485268
0.003188631
0.0031285931
0.0030701927
0.0030125467
0.0029546716
0.00289807
0.0028445497
0.0027945896
0.0027486253
0.0027086764
0.0026773592
0.0026567451
0.0026488576
0.0026581191
0.002687384
0.0027373456
0.0028082966
0.0028995128
0.0030091469
0.0031340311
0.0032702505
0.0034127608
0.0035550846
0.0036909384
0.0038101219
0.0039004453
0.003954863
0.0039705562
0.0039519188
0.0039060353
0.0038395117
0.0037594295
0.0036704335
0.0035763876
0.003480784
0.0033848662
0.0032896574
0.0031957681
0.0031033497
0.0030119605
0.002921718
0.0028325489
0.0027436547
0.0026556804
0.0025675779
0.0024774685
0.0023858884
0.0022927326
0.0021988722
0.0021038898
0.0020066612
0.0019082914
0.001807816
0.0017059187
0.0016023945
0.0014973163
0.0013913059
0.0012839505
0.0011765651
0.0010688118
0.00096253717
0.00085711038
0.00075937553
0.00065587768
0.0006060977
0.0003572666
0.00094686663
-0.00083819523
0.029306334
0.026436731
0.02236051
0.017921765
0.013785806
0.010416343
0.0080606938
0.0066730461
0.0059555811
0.0055713784
0.0053097682
0.0050936941
0.0049073782
0.0047426757
0.0045964079
0.0044689933
0.0043566399
0.0042540839
0.0041608447
0.004076256
0.0039968854
0.0039209222
0.0038495289
0.0037818558
0.0037156654
0.0036502485
0.0035874256
0.0035258587
0.0034633876
0.0034009437
0.0033402074
0.0032800337
0.0032185801
0.003157253
0.0030975118
0.0030386533
0.0029798569
0.0029225121
0.0028684264
0.002817947
0.0027714666
0.0027310807
0.0026994616
0.0026784977
0.0026701322
0.0026787531
0.0027072386
0.0027562072
0.0028259375
0.002915808
0.003024009
0.0031473631
0.0032819741
0.0034228947
0.0035636992
0.0036979852
0.0038156161
0.003904064
0.0039575132
0.0039731727
0.003954146
0.0039084431
0.0038427289
0.0037634871
0.0036751012
0.0035814908
0.0034862713
0.0033906259
0.0032955408
0.0032017066
0.0031093138
0.0030178978
0.0029275899
0.002838316
0.0027492783
0.0026611381
0.0025728328
0.0024825314
0.0023907797
0.0022974294
0.002203374
0.0021081905
0.0020107582
0.0019121981
0.0018115346
0.0017094615
0.0016057667
0.0015005267
0.0013943633
0.0012868607
0.0011793385
0.0010714531
0.00096505292
0.00085950808
0.00076164825
0.00065806833
0.00060870972
0.00036733123
0.00096821484
-0.00082727232
0.028007624
0.025410943
0.021810667
0.017854645
0.014092806
0.01094815
0.0086599799
0.0072192663
0.0063993881
0.0059191762
0.0055868939
0.0053215274
0.0050994466
0.0049085633
0.004741912
0.004597171
0.004470224
0.0043557898
0.0042522398
0.0041584947
0.004071437
0.0039890101
0.0039116924
0.0038387352
0.0037680917
0.0036988862
0.0036324097
0.0035675769
0.0035024961
0.0034376228
0.0033746873
0.0033126854
0.0032496238
0.003186811
0.0031256665
0.0030657462
0.0030061209
0.0029480051
0.0028931705
0.0028420754
0.0027951431
0.0027543376
0.0027223608
0.0027009605
0.0026920112
0.0026998082
0.0027272678
0.0027749475
0.0028430755
0.0029311652
0.0030374684
0.003158815
0.0032913653
0.0034303341
0.0035693858
0.0037019948
0.003818139
0.0039057101
0.0039591159
0.0039749731
0.003955888
0.0039105392
0.0038455995
0.003766623
0.0036785256
0.0035855569
0.0034909238
0.0033956266
0.0033007552
0.0032071076
0.0031148661
0.0030234904
0.0029331783
0.0028438721
0.0027547439
0.0026664842
0.0025780239
0.0024875765
0.0023956932
0.0023021828
0.0022079661
0.0021126086
0.002014994
0.0019162629
0.0018154254
0.0017131873
0.0016093291
0.0015039315
0.0013976167
0.0012899658
0.0011823045
0.0010742831
0.00096775192
0.00086208356
0.00076408763
0.00066042654
0.00061143911
0.00037799771
0.00098967611
-0.00081460749
0.026820264
0.024463922
0.021276536
0.017751406
0.014334731
0.011407205
0.0091989143
0.0077282709
0.006826467
0.0062625034
0.0058651046
0.0055525309
0.0052953102
0.0050779954
0.0048906342
0.0047284442
0.0045867283
0.0044601303
0.0043460948
0.0042430681
0.0041481285
0.0040590471
0.0039757172
0.0038973712
0.0038221331
0.0037490079
0.0036787845
0.0036106203
0.0035428393
0.0034756121
0.0034103476
0.0033462443
0.0032815722
0.0032172836
0.003154737
0.0030937465
0.0030332572
0.0029742801
0.0029186716
0.0028670552
0.0028197137
0.0027784404
0.0027460121
0.0027241508
0.0027146476
0.0027216073
0.0027479609
0.0027942061
0.0028605394
0.0029465997
0.0030506975
0.0031696612
0.0032997222
0.0034362847
0.0035731193
0.0037036156
0.0038179879
0.0039046962
0.0039579207
0.0039742437
0.0039561236
0.0039119717
0.003847887
0.0037692158
0.003681672
0.0035894088
0.0034948782
0.0033995812
0.0033050844
0.0032117892
0.0031197327
0.0030284472
0.0029382359
0.0028489951
0.0027598237
0.0026715065
0.002582965
0.002492425
0.0024004603
0.0023068415
0.0022125106
0.0021170169
0.0020192547
0.001920385
0.0018193987
0.0017170171
0.0016130125
0.0015074701
0.0014010131
0.0012932199
0.0011854231
0.0010772664
0.000970603
0.0008648091
0.00076666841
0.00066292975
0.00061423601
0.00038914329
0.0010107326
-0.00080002341
0.02573249
0.023589544
0.020760527
0.017618213
0.014518599
0.01179958
0.0096803737
0.0081995307
0.0072346903
0.0065991293
0.0061426742
0.0057855228
0.0054941937
0.0052505375
0.005042308
0.0048626125
0.0047060224
0.0045670376
0.0044423626
0.0043299496
0.0042269652
0.0041310499
0.0040415976
0.0039577576
0.0038777937
0.003800611
0.0037265927
0.003655038
0.0035844506
0.0035147873
0.003447123
0.0033808662
0.0033145382
0.0032487915
0.0031848307
0.0031225738
0.00306113
0.0030013478
0.0029449637
0.002892796
0.0028450181
0.0028032334
0.0027703635
0.0027480845
0.0027380098
0.0027440787
0.0027692506
0.0028140196
0.0028785473
0.0029625203
0.0030642865
0.0031806791
0.0033080101
0.0034418635
0.003576119
0.003704112
0.0038163257
0.0039018162
0.003954532
0.0039711975
0.0039541222
0.0039112962
0.0038483512
0.0037708051
0.0036843952
0.0035928511
0.0034983986
0.0034033179
0.0033092761
0.0032159036
0.0031236788
0.0030326001
0.0029426193
0.0028534621
0.0027643056
0.0026760413
0.0025875023
0.0024969122
0.0024049335
0.002311273
0.0022168743
0.0021212902
0.0020234274
0.00192446
0.0018233588
0.0017208657
0.0016167405
0.0015110747
0.0014044933
0.0012965711
0.0011886489
0.0010803636
0.00097357153
0.0008676542
0.0007693631
0.00066555376
0.00061705005
0.00040064021
0.0010308144
-0.00078334665
0.024733908
0.022781669
0.020264114
0.017460647
0.014651015
0.012131136
0.01010751
0.0086330154
0.0076222972
0.0069270162
0.0064179193
0.0060192693
0.0056952397
0.0054256661
0.0051966088
0.0049994436
0.004827951
0.0046764276
0.0045409871
0.0044190999
0.0043079318
0.0042050176
0.0041093332
0.0040199044
0.0039350948
0.0038537295
0.0037758544
0.0037008354
0.0036273364
0.0035551409
0.0034850438
0.0034166039
0.0033485461
0.0032812844
0.0032158671
0.003152298
0.003089868
0.0030292868
0.0029721322
0.0029192698
0.0028709764
0.0028287101
0.0027953845
0.0027727019
0.0027620105
0.0027671233
0.0027911036
0.0028344111
0.0028971231
0.0029789519
0.0030782926
0.003192039
0.0033165778
0.0034476169
0.0035791232
0.0037043996
0.0038141892
0.0038981492
0.0039500225
0.0039667549
0.0039506897
0.0039089535
0.0038471705
0.0037708669
0.0036855646
0.0035948788
0.0035011401
0.0034067791
0.0033131716
0.0032196571
0.003127453
0.0030366314
0.0029464758
0.00285711
0.0027680982
0.0026799862
0.0025914547
0.0025008804
0.0024089972
0.002315355
0.0022209259
0.0021253179
0.0020274076
0.0019283824
0.0018272075
0.0017246427
0.0016204288
0.0015146696
0.0014079901
0.00129996
0.0011919298
0.0010835291
0.00097661761
0.00087058384
0.00077214047
0.00066827137
0.00061983017
0.00041235052
0.0010492531
-0.00076442579
0.023815317
0.022034359
0.019788021
0.017283706
0.014738183
0.012407447
0.01048358
0.0090290948
0.0079878665
0.0072442963
0.0066892004
0.0062525162
0.0058975504
0.0056028044
0.0053531704
0.0051386763
0.0049523326
0.0047881911
0.0046418936
0.0045104631
0.0043909986
0.0042809418
0.004178922
0.0040838169
0.0039940508
0.0039083845
0.0038265829
0.0037480288
0.003671521
0.003596708
0.0035241393
0.0034534692
0.0033836014
0.003314765
0.0032478585
0.0031829566
0.0031194982
0.003058074
0.0030001191
0.0029465261
0.0028976845
0.0028549802
0.0028210782
0.0027978801
0.002786631
0.0027907928
0.0028135508
0.0028553538
0.0029161985
0.0029958277
0.0030927046
0.0032037856
0.0033255025
0.0034536549
0.0035822986
0.003704775
0.0038120621
0.0038943631
0.0039452445
0.0039618953
0.0039465802
0.0039056979
0.003844922
0.003769723
0.0036854561
0.00359569
0.0035027689
0.003409067
0.0033159372
0.003222787
0.0031310443
0.0030404385
0.0029500506
0.0028606645
0.0027717603
0.0026834022
0.0025946976
0.002504279
0.0024125403
0.0023189247
0.002224545
0.0021290092
0.0020310925
0.0019320491
0.0018308539
0.0017282569
0.0016239901
0.0015181755
0.0014114308
0.00130332
0.0011952064
0.0010867098
0.00097969457
0.00087355681
0.00077496397
0.000671051
0.00062252494
0.00042412274
0.0010652472
-0.00074314916
0.02296855
0.021342013
0.019332388
0.017091759
0.014785859
0.012633772
0.010811888
0.0093885001
0.0083303312
0.0075493062
0.0069549618
0.0064840231
0.0061002044
0.0057813265
0.0055115788
0.0052800133
0.0050789544
0.0049021906
0.0047449876
0.0046039698
0.0044761244
0.004358805
0.0042503552
0.0041494928
0.0040546688
0.0039645914
0.0038787917
0.0037966355
0.0037170284
0.0036395145
0.0035644277
0.0034914789
0.003419728
0.0033492617
0.003280833
0.0032145666
0.0031500276
0.0030877142
0.00302893
0.0029745873
0.0029251666
0.0028819868
0.0028475167
0.0028236884
0.0028118279
0.0028151023
0.0028365741
0.0028767978
0.0029357382
0.0030131351
0.0031074907
0.0032158669
0.0033347485
0.003459959
0.0035856809
0.0037053336
0.0038100881
0.0038906613
0.0039404839
0.0039569715
0.0039422925
0.0039021658
0.0038423009
0.0037679865
0.003684621
0.0035956749
0.003503497
0.0034103814
0.0033177618
0.0032250547
0.0031337006
0.0030433353
0.0029531584
0.002864104
0.0027752253
0.0026866044
0.0025979232
0.0025074999
0.0024155081
0.0023218897
0.0022277013
0.0021322353
0.0020343452
0.0019353655
0.0018342107
0.0017316146
0.0016273455
0.0015215174
0.0014147414
0.0013065813
0.0011984141
0.0010898462
0.00098274871
0.00087652481
0.00077779072
0.00067385539
0.00062508317
0.00043579047
0.0010778617
-0.00071946345
0.022186353
0.020699432
0.018896924
0.016888546
0.014799331
0.012815074
0.011095752
0.0097122711
0.0086489688
0.0078406013
0.0072137478
0.0067125738
0.0063022614
0.0059605611
0.0056713726
0.0054231214
0.0052075732
0.0050182618
0.0048501551
0.0046995362
0.0045632551
0.0044385784
0.0043236156
0.0042169232
0.0041169511
0.0040223614
0.0039324928
0.0038466698
0.0037638782
0.0036835816
0.0036059269
0.0035306526
0.0034569504
0.0033847981
0.0033148106
0.0032471447
0.0031814756
0.0031182297
0.003058588
0.0030034694
0.0029534298
0.00290973
0.0028746679
0.0028501725
0.0028376534
0.0028400153
0.0028601545
0.0028987436
0.0029557479
0.0030308743
0.0031226691
0.0032283015
0.0033442963
0.0034665078
0.0035892512
0.0037060348
0.0038082406
0.0038870436
0.0039357963
0.0039520999
0.0039380111
0.0038985973
0.0038395864
0.003766113
0.0036836227
0.0035953118
0.0035037659
0.0034111448
0.0033189502
0.0032265949
0.0031355702
0.0030454764
0.0029555645
0.0028667423
0.0027779632
0.0026894956
0.0026010615
0.0025105142
0.0024183333
0.0023248746
0.0022306033
0.0021348663
0.0020370947
0.0019382618
0.0018371489
0.0017346185
0.0016304266
0.0015246214
0.0014178502
0.0013096781
0.0012014874
0.0010928761
0.00098572126
0.00087943393
0.00078057192
0.00067664138
0.00062745528
0.00044717373
0.0010861033
-0.00069339063
0.021462267
0.020101845
0.018481031
0.01667721
0.014783411
0.012956023
0.011338462
0.010001694
0.008943378
0.0081169656
0.0074642176
0.0069369915
0.0065027756
0.006139803
0.0058320497
0.0055676333
0.0053379169
0.0051362133
0.004957261
0.0047970621
0.004652322
0.0045202212
0.0043986771
0.0042860925
0.0041808937
0.004081701
0.0039876942
0.0038981424
0.0038120868
0.0037289288
0.0036486554
0.0035710093
0.0034952906
0.003421395
0.0033498099
0.0032807095
0.0032138631
0.0031496411
0.0030891107
0.0030331867
0.002982488
0.0029382267
0.0029025427
0.0028773526
0.0028641227
0.0028655281
0.0028843021
0.0029212198
0.0029762501
0.0030490634
0.0031382524
0.0032410858
0.0033541335
0.0034732927
0.0035930095
0.0037068955
0.0038065515
0.0038834819
0.0039311691
0.00394728
0.0039337102
0.0038949965
0.0038368127
0.0037642761
0.0036826528
0.003594931
0.0035038665
0.0034117709
0.0033199379
0.003227775
0.0031369715
0.0030470779
0.002957362
0.0028687185
0.0027800757
0.002691781
0.0026034661
0.0025129679
0.0024210086
0.0023277785
0.0022333056
0.0021374495
0.0020397662
0.0019407737
0.0018395956
0.0017372479
0.001633128
0.0015273834
0.0014206823
0.0013125433
0.00120436
0.0010957404
0.00098855267
0.00088223018
0.00078325598
0.00067936195
0.00062959577
0.00045808426
0.0010891075
-0.00066503779
0.020790545
0.019544916
0.018083911
0.01646036
0.014742431
0.013060985
0.011543247
0.01025825
0.0092134536
0.0083774168
0.0077051612
0.0071561541
0.0067008087
0.0063183237
0.0059930722
0.005713149
0.0054696843
0.0052558265
0.0050661477
0.0048964305
0.0047432418
0.0046036793
0.0044755041
0.0043569772
0.004246486
0.0041426105
0.0040444001
0.0039510609
0.0038616677
0.0037755738
0.0036926296
0.0036125659
0.0035347685
0.0034590725
0.0033858501
0.0033152799
0.0032472096
0.0031819668
0.0031205143
0.0030637544
0.0030123571
0.0029674919
0.0029311552
0.0029052365
0.002891243
0.002891649
0.0029090288
0.0029442358
0.0029972485
0.0030677055
0.0031542434
0.0032542256
0.0033642744
0.0034803331
0.0035969753
0.0037079246
0.0038050087
0.0038800002
0.0039266006
0.0039424934
0.0039294048
0.0038913799
0.0038340177
0.0037624155
0.0036816083
0.0035946713
0.0035039476
0.0034124405
0.0033209102
0.0032288966
0.0031382461
0.003048441
0.0029588135
0.0028702684
0.0027817039
0.0026935247
0.0026052914
0.002514901
0.0024231349
0.0023300231
0.0022356253
0.0021400021
0.0020423322
0.0019431776
0.0018420896
0.0017396948
0.0016353472
0.0015297503
0.0014231636
0.0013150751
0.0012069579
0.0010983775
0.00099118382
0.00088486519
0.00078579259
0.00068197065
0.00063146929
0.00046833471
0.0010863478
-0.0006345941
0.020166063
0.01902472
0.017704642
0.016240129
0.01468025
0.01313402
0.01171325
0.010483566
0.0094593567
0.0086212066
0.0079355119
0.0073690084
0.0068954425
0.0064953812
0.0061538728
0.0058592376
0.0056025459
0.0053768561
0.0051766349
0.0049975057
0.0048359154
0.0046888853
0.0045540505
0.0044295457
0.0043137098
0.004205084
0.0041026102
0.004005429
0.0039126312
0.0038235311
0.0037378643
0.0036553376
0.0035754026
0.0034978499
0.0034229495
0.0033508734
0.0032815334
0.0032152246
0.0031528153
0.0030951879
0.0030430522
0.0029975397
0.0029605165
0.0029338334
0.0029190245
0.0029183886
0.0029343426
0.0029677976
0.0030187484
0.003086807
0.0031706494
0.0032677304
0.003374729
0.003487638
0.0036011559
0.0037091341
0.0038035737
0.0038766359
0.0039221117
0.003937744
0.0039250913
0.0038877416
0.0038312109
0.0037605397
0.0036805376
0.0035943924
0.0035040869
0.0034131103
0.0033218763
0.0032300878
0.0031395624
0.0030497868
0.0029602093
0.0028716813
0.0027830868
0.0026949317
0.0026067163
0.0025163889
0.0024247647
0.0023317596
0.002237503
0.0021420246
0.0020444141
0.0019454103
0.0018445422
0.0017419919
0.0016375634
0.0015320437
0.0014252976
0.0013172187
0.0012092405
0.0011006926
0.00099354923
0.00088728403
0.00078812947
0.00068442276
0.00063305912
0.00047775247
0.0010777291
-0.00060232982
0.019584258
0.018537728
0.017342246
0.016018242
0.014600276
0.013178873
0.011851506
0.010679376
0.0096814813
0.0088478136
0.0081543552
0.0075745821
0.0070857905
0.0066702313
0.0063138621
0.0060054414
0.0057361459
0.0054990308
0.0052885191
0.0051001337
0.0049302278
0.0047757575
0.0046342584
0.0045037569
0.0043825394
0.0042691088
0.0041623191
0.0040612465
0.0039649837
0.0038728124
0.003784372
0.0036993379
0.0036172095
0.0035377453
0.0034611252
0.0033875067
0.0033168521
0.0032494318
0.0031860297
0.0031275019
0.0030745874
0.0030283834
0.0029906377
0.0029631532
0.0029474779
0.0029457556
0.0029602499
0.0029919118
0.0030407571
0.0031063754
0.0031874783
0.0032816082
0.0033855057
0.0034952158
0.0036055613
0.0037105347
0.0038022622
0.0038733988
0.0039177101
0.0039330396
0.0039207731
0.0038840844
0.003828382
0.0037586397
0.0036794625
0.0035940188
0.0035043393
0.0034137913
0.0033228467
0.0032313078
0.0031409079
0.0030512093
0.0029616981
0.0028731278
0.0027844496
0.0026962612
0.0026079704
0.0025176123
0.0024260546
0.002333113
0.0022389672
0.0021435916
0.0020460731
0.0019472166
0.0018464605
0.0017439796
0.0016397776
0.0015342532
0.0014273907
0.0013193689
0.0012113014
0.0011026379
0.00099563465
0.00088939375
0.00079019435
0.00068665952
0.00063434967
0.00048620085
0.001063548
-0.00056862251
0.019041057
0.018080776
0.016995729
0.015796079
0.014505492
0.013198978
0.011960919
0.010847481
0.0098804207
0.0090569319
0.0083609348
0.0077719955
0.0072710095
0.0068421374
0.0064724361
0.0061512796
0.0058701042
0.0056220549
0.0054015741
0.0052041406
0.0050260469
0.0048641993
0.004716058
0.0045795602
0.0044529403
0.0043346648
0.0042235156
0.0041185083
0.0040187272
0.0039234257
0.0038321627
0.003744578
0.0036602039
0.003578775
0.0035003933
0.0034251954
0.0033531822
0.0032846052
0.0032201728
0.0031607104
0.0031069762
0.0030600359
0.0030215297
0.0029932053
0.0029766126
0.0029737579
0.0029867572
0.0030165854
0.0030632816
0.0031264176
0.003204737
0.0032958669