/*--------------------------------*- C++ -*----------------------------------*\
| =========                 |                                                 |
| \\      /  F ield         | OpenFOAM: The Open Source CFD Toolbox           |
|  \\    /   O peration     | Version:  2206                                  |
|   \\  /    A nd           | Website:  www.openfoam.com                      |
|    \\/     M anipulation  |                                                 |
\*---------------------------------------------------------------------------*/
FoamFile
{
    version     2.0;
    format      ascii;
    arch        "LSB;label=32;scalar=64";
    class       surfaceScalarField;
    location    "1600";
    object      phi;
}
// * * * * * * * * * * * * * * * * * * * * * * * * * * * * * * * * * * * * * //

dimensions      [0 3 -1 0 0 0 0];

oriented        oriented;

internalField   nonuniform List<scalar> 
14782
(
0.0006176931
8.7780997e-05
-0.0007054741
0.0005102983
0.0001073948
0.00040012533
0.00011017297
0.00030665939
9.3465949e-05
0.00023998452
6.667486e-05
0.0001992445
4.0740025e-05
0.00017532786
2.391664e-05
0.00016115829
1.4169572e-05
0.00015174935
9.4089358e-06
0.00014418146
7.5678952e-06
0.00013731113
6.8703225e-06
0.00013094919
6.3619432e-06
0.00012514072
5.8084736e-06
0.00011984868
5.2920336e-06
0.00011501221
4.8364768e-06
0.00011060731
4.4049006e-06
0.00010660119
4.0061202e-06
0.0001029108
3.6903824e-06
9.9483505e-05
3.4272982e-06
9.6300192e-05
3.1833136e-06
9.33388e-05
2.961392e-06
9.056458e-05
2.77422e-06
8.7956236e-05
2.608344e-06
8.5504373e-05
2.4518627e-06
8.3196168e-05
2.3082053e-06
8.1013022e-05
2.1831458e-06
7.8943962e-05
2.0690601e-06
7.6984207e-05
1.9597552e-06
7.5126432e-05
1.8577743e-06
7.3361177e-05
1.7652554e-06
7.1683308e-05
1.677869e-06
7.009047e-05
1.5928378e-06
6.8578467e-05
1.512003e-06
6.7142593e-05
1.4358745e-06
6.5780648e-05
1.3619451e-06
6.4491725e-05
1.2889221e-06
6.3274095e-05
1.2176302e-06
6.2126746e-05
1.1473496e-06
6.1050608e-05
1.0761382e-06
6.0047423e-05
1.0031844e-06
5.9118396e-05
9.2902729e-07
5.8265224e-05
8.531718e-07
5.7491103e-05
7.741208e-07
5.6798906e-05
6.9219735e-07
5.6193938e-05
6.0496772e-07
5.5684566e-05
5.093726e-07
5.5280719e-05
4.0384705e-07
5.4986476e-05
2.9424246e-07
5.4801338e-05
1.851382e-07
5.472387e-05
7.7468207e-08
5.4749847e-05
-2.5977473e-08
5.4872476e-05
-1.2262874e-07
5.5079558e-05
-2.0708218e-07
5.5351268e-05
-2.7171013e-07
5.567447e-05
-3.2320143e-07
5.6036364e-05
-3.6189436e-07
5.640377e-05
-3.674062e-07
5.6738277e-05
-3.345067e-07
5.7006378e-05
-2.6810105e-07
5.71934e-05
-1.870225e-07
5.7293986e-05
-1.005851e-07
5.731212e-05
-1.8133949e-08
5.7258126e-05
5.3993428e-08
5.7145322e-05
1.1280411e-07
5.6987179e-05
1.5814279e-07
5.6795625e-05
1.91554e-07
5.6581414e-05
2.1421101e-07
5.6352359e-05
2.2905537e-07
5.6114303e-05
2.3805577e-07
5.5871703e-05
2.4260004e-07
5.5627791e-05
2.4391226e-07
5.5384262e-05
2.43529e-07
5.5142637e-05
2.4162524e-07
5.4904175e-05
2.3846212e-07
5.4668774e-05
2.3540049e-07
5.4437044e-05
2.3173033e-07
5.4205676e-05
2.3136781e-07
5.3970214e-05
2.3546184e-07
5.3731953e-05
2.3826098e-07
5.3492225e-05
2.3972841e-07
5.3251933e-05
2.4029144e-07
5.3010977e-05
2.4095604e-07
5.2768106e-05
2.4287086e-07
5.2523502e-05
2.446046e-07
5.2276569e-05
2.4693321e-07
5.202757e-05
2.4899821e-07
5.1776582e-05
2.5098805e-07
5.1523715e-05
2.528674e-07
5.1269491e-05
2.5422426e-07
5.1013767e-05
2.5572345e-07
5.0757124e-05
2.5664286e-07
5.049942e-05
2.5770479e-07
5.0240816e-05
2.5860307e-07
4.9981014e-05
2.5980221e-07
4.9719151e-05
2.6186294e-07
4.9455148e-05
2.6400294e-07
4.9209827e-05
2.4532179e-07
4.8807116e-05
4.0271101e-07
4.8816263e-05
-9.1470819e-09
8.399587e-07
0.00079175172
9.1059783e-05
-0.0007950305
0.00077877392
0.0001203726
0.00075193343
0.00013701345
0.00070878149
0.00013661789
0.00065524225
0.0001202141
0.00060115208
9.4830196e-05
0.00055305798
7.2010743e-05
0.00051312574
5.4101816e-05
0.00048026335
4.2271322e-05
0.00045276526
3.5065981e-05
0.00042913537
3.0500213e-05
0.00040847212
2.7025194e-05
0.00039016211
2.4118491e-05
0.00037372028
2.1733863e-05
0.00035880407
1.9752681e-05
0.0003452092
1.7999772e-05
0.00033276241
1.6452916e-05
0.00032128731
1.5165474e-05
0.0003106494
1.4065208e-05
0.00030075818
1.3074539e-05
0.00029153564
1.2183927e-05
0.0002829001
1.140976e-05
0.00027478923
1.0719216e-05
0.00026715715
1.0083939e-05
0.00025996037
9.5049855e-06
0.00025315521
8.9883053e-06
0.0002467089
8.5153787e-06
0.00024059875
8.0698977e-06
0.00023480231
7.6542172e-06
0.00022929629
7.2712729e-06
0.00022406387
6.910289e-06
0.00021909365
6.563061e-06
0.00021437386
6.2317964e-06
0.00020989301
5.9167168e-06
0.00020564373
5.6112297e-06
0.00020162181
5.3108377e-06
0.00019782355
5.0158947e-06
0.00019424727
4.7236323e-06
0.00019089521
4.4281976e-06
0.00018777231
4.1260788e-06
0.00018488407
3.8172655e-06
0.00018223777
3.4994733e-06
0.00017984382
3.1680786e-06
0.0001777145
2.8215128e-06
0.00017585849
2.4609808e-06
0.00017431462
2.0532426e-06
0.0001730967
1.6217642e-06
0.0001722067
1.1842381e-06
0.0001716526
7.3924068e-07
0.0001714249
3.0516935e-07
0.00017150744
-1.0851845e-07
0.00017187609
-4.9127324e-07
0.00017249198
-8.229767e-07
0.00017330009
-1.0798213e-06
0.00017425231
-1.2754199e-06
0.00017529379
-1.4033731e-06
0.00017633119
-1.404809e-06
0.00017725756
-1.2608781e-06
0.00017799414
-1.0046762e-06
0.00017849006
-6.8294746e-07
0.00017873402
-3.4454224e-07
0.00017874408
-2.8188881e-08
0.00017854649
2.5158073e-07
0.00017817839
4.8090483e-07
0.00017767837
6.5816068e-07
0.00017708098
7.8894078e-07
0.00017641635
8.7884628e-07
0.00017570743
9.3796888e-07
0.00017497158
9.7391399e-07
0.00017422187
9.9231142e-07
0.00017346769
9.9809191e-07
0.00017271467
9.9654621e-07
0.00017196745
9.8883962e-07
0.00017122948
9.7643181e-07
0.00017050133
9.6355993e-07
0.00016978372
9.4933608e-07
0.00016906572
9.4936353e-07
0.00016833558
9.656027e-07
0.00016759755
9.7629386e-07
0.00016685585
9.8142592e-07
0.00016611229
9.8385654e-07
0.00016536612
9.8712729e-07
0.0001646147
9.9428374e-07
0.0001638577
1.0016048e-06
0.00016309392
1.0107187e-06
0.00016232381
1.0191082e-06
0.0001615477
1.0271005e-06
0.00016076614
1.0344199e-06
0.00015998035
1.040018e-06
0.00015919054
1.0455294e-06
0.00015839796
1.0492273e-06
0.00015760284
1.0528206e-06
0.00015680523
1.056215e-06
0.00015600585
1.0591841e-06
0.00015519857
1.0691439e-06
0.00015439698
1.0655945e-06
0.00015358667
1.0556287e-06
0.00015257118
1.4182024e-06
0.00015201609
5.4594203e-07
2.5242777e-06
0.00083155734
8.6588749e-05
-0.00082708631
0.0008370742
0.00011485574
0.00084160274
0.00013248491
0.00084050757
0.00013771306
0.00083139122
0.00012933045
0.00081410532
0.0001121161
0.00079126005
9.4856016e-05
0.00076526875
8.0093113e-05
0.00073803005
6.9510021e-05
0.00071105472
6.2041315e-05
0.00068518253
5.6372396e-05
0.00066071053
5.1497199e-05
0.00063764658
4.7182442e-05
0.00061588807
4.3492364e-05
0.00059537049
4.0270268e-05
0.00057606408
3.7306179e-05
0.00055790938
3.4607618e-05
0.00054081251
3.2262346e-05
0.00052468966
3.0188054e-05
0.00050947558
2.828862e-05
0.00049510488
2.6554624e-05
0.00048150378
2.5010855e-05
0.00046861203
2.3610974e-05
0.00045638218
2.2313788e-05
0.00044476806
2.1119102e-05
0.00043372123
2.0035141e-05
0.00042320274
1.9033868e-05
0.00041318276
1.8089875e-05
0.00040363254
1.7204433e-05
0.00039452393
1.6379888e-05
0.00038583547
1.5598746e-05
0.00037755138
1.4847149e-05
0.00036965666
1.4126518e-05
0.00036213775
1.3435632e-05
0.00035498584
1.2763136e-05
0.00034819634
1.2100342e-05
0.00034176648
1.1445748e-05
0.00033569659
1.0793527e-05
0.00032999167
1.0133123e-05
0.00032466054
9.4572057e-06
0.000319714
8.7638026e-06
0.00031516597
8.0475007e-06
0.00031103431
7.2997385e-06
0.00030734021
6.5156189e-06
0.00030410523
5.6959551e-06
0.00030136979
4.788685e-06
0.00029915508
3.836474e-06
0.00029746351
2.8758096e-06
0.000296294
1.9087468e-06
0.00029562876
9.7041244e-07
0.00029543697
8.3272288e-08
0.00029567564
-7.2994629e-07
0.00029628314
-1.4304776e-06
0.00029717869
-1.9753636e-06
0.00029828411
-2.3808393e-06
0.00029950437
-2.6236389e-06
0.00030070195
-2.6023884e-06
0.00030173122
-2.2901461e-06
0.00030248662
-1.760074e-06
0.00030290783
-1.1041602e-06
0.00030298322
-4.1993337e-07
0.00030273492
2.2011122e-07
0.00030220087
7.8563132e-07
0.00030143329
1.2484823e-06
0.0003004852
1.6062549e-06
0.0002994042
1.8699444e-06
0.00029823163
2.051415e-06
0.00029699991
2.1696856e-06
0.00029573388
2.2399414e-06
0.00029445235
2.2738485e-06
0.00029316876
2.2816793e-06
0.00029189172
2.273587e-06
0.00029062813
2.2524281e-06
0.00028938288
2.2216785e-06
0.00028815723
2.1892178e-06
0.0002869513
2.1552585e-06
0.00028574782
2.1528466e-06
0.00028453187
2.181557e-06
0.0002833111
2.1970568e-06
0.00028209011
2.2024233e-06
0.00028086955
2.2044156e-06
0.00027964752
2.2091565e-06
0.00027842035
2.2214489e-06
0.00027718669
2.2352641e-06
0.00027594481
2.2526e-06
0.00027469489
2.2690328e-06
0.00027343722
2.2847658e-06
0.00027217256
2.2990788e-06
0.00027090236
2.3102264e-06
0.00026962716
2.3207281e-06
0.0002683484
2.3279807e-06
0.0002670668
2.3344188e-06
0.00026578211
2.3409052e-06
0.0002644962
2.3451001e-06
0.00026319816
2.3671804e-06
0.00026191386
2.3498925e-06
0.00026058412
2.3853742e-06
0.00025909997
2.9023515e-06
0.00025782828
1.8176323e-06
4.6024349e-06
0.00086134962
8.2259192e-05
-0.00085702007
0.00086788583
0.00010831953
0.0008751764
0.00012519434
0.00088220281
0.00013068666
0.00088611098
0.00012542228
0.00088509696
0.00011313012
0.00088101113
9.8941845e-05
0.00087428715
8.6817093e-05
0.00086520127
7.8595905e-05
0.0008539977
7.3244883e-05
0.00084100645
6.9363641e-05
0.00082642835
6.6075303e-05
0.0008106281
6.2982688e-05
0.00079419508
5.9925385e-05
0.00077746901
5.6996346e-05
0.00076067516
5.4100026e-05
0.00074395184
5.1330934e-05
0.00072738704
4.8827151e-05
0.00071106584
4.6509255e-05
0.00069506701
4.4287447e-05
0.00067944572
4.2175918e-05
0.00066422894
4.0227633e-05
0.0006494383
3.8401609e-05
0.00063509212
3.6659971e-05
0.00062119923
3.5011989e-05
0.00060775629
3.3478082e-05
0.00059476019
3.2029969e-05
0.00058220883
3.0641231e-05
0.00057009582
2.9317445e-05
0.00055841159
2.8064114e-05
0.00054714976
2.6860583e-05
0.00053630648
2.5690428e-05
0.00052587703
2.4555972e-05
0.00051585723
2.3455427e-05
0.00050624704
2.237333e-05
0.00049705035
2.1297025e-05
0.00048827211
2.0223993e-05
0.00047991867
1.914697e-05
0.00047200011
1.8051683e-05
0.00046453015
1.6927161e-05
0.00045752489
1.5769061e-05
0.00045100389
1.4568499e-05
0.00044499048
1.3313147e-05
0.00043951189
1.1994213e-05
0.0004345979
1.0609943e-05
0.00043027866
9.1079232e-06
0.00042656837
7.5467734e-06
0.00042346203
5.9821443e-06
0.00042094669
4.4240908e-06
0.00041900047
2.9166257e-06
0.00041758912
1.494627e-06
0.00041666316
1.9600965e-07
0.00041615199
-9.1930066e-07
0.00041597224
-1.795623e-06
0.00041603775
-2.4463399e-06
0.00041623078
-2.8166732e-06
0.00041639993
-2.7715431e-06
0.00041640859
-2.2988005e-06
0.00041616955
-1.5210356e-06
0.00041563843
-5.7303767e-07
0.00041480935
4.0913999e-07
0.00041370443
1.325041e-06
0.00041235958
2.1304733e-06
0.0004108199
2.7881667e-06
0.00040913093
3.2952224e-06
0.00040733455
3.6663311e-06
0.00040546814
3.9178161e-06
0.00040356202
4.0758061e-06
0.00040164005
4.1619193e-06
0.00039972057
4.1933254e-06
0.00039781677
4.1854752e-06
0.00039593749
4.1528703e-06
0.00039408999
4.0999288e-06
0.00039227911
4.032555e-06
0.00039050589
3.9624448e-06
0.00038876903
3.8921136e-06
0.00038706316
3.8587155e-06
0.00038538086
3.8638591e-06
0.00038371739
3.8605225e-06
0.00038206875
3.8510651e-06
0.00038043202
3.8411479e-06
0.00037880366
3.8375213e-06
0.00037717892
3.8461879e-06
0.00037555516
3.8590249e-06
0.00037392973
3.8780289e-06
0.0003723019
3.896865e-06
0.0003706713
3.9153606e-06
0.00036903817
3.9322081e-06
0.00036740349
3.9449085e-06
0.00036576754
3.9566822e-06
0.00036413134
3.9641722e-06
0.00036249558
3.970183e-06
0.00036085942
3.9770598e-06
0.00035922527
3.9792499e-06
0.00035757893
4.0135261e-06
0.00035595268
3.976143e-06
0.00035426356
4.0744942e-06
0.00035246881
4.6971033e-06
0.00035066274
3.6236965e-06
6.8276994e-06
0.00089163944
7.8534896e-05
-0.00088791514
0.00089767233
0.00010228664
0.00090487919
0.00011798748
0.00091178503
0.00012378081
0.00091695186
0.00012025545
0.00091988132
0.00011020066
0.00092052281
9.8300347e-05
0.00091937957
8.7960341e-05
0.00091749274
8.0482732e-05
0.00091494161
7.5796008e-05
0.00091165222
7.2653034e-05
0.00090740457
7.0322957e-05
0.0009019536
6.843366e-05
0.00089523853
6.6640448e-05
0.00088733272
6.4902153e-05
0.00087825778
6.3174971e-05
0.00086816391
6.14248e-05
0.0008573394
5.9651664e-05
0.00084594721
5.7901448e-05
0.00083410826
5.6126394e-05
0.00082192093
5.4363247e-05
0.00080946355
5.2685016e-05
0.00079681389
5.1051265e-05
0.00078405077
4.9423093e-05
0.00077124328
4.7819475e-05
0.00075844742
4.6273945e-05
0.00074571597
4.4761424e-05
0.00073309637
4.3260828e-05
0.00072062642
4.1787392e-05
0.0007083364
4.0354139e-05
0.00069625524
3.8941742e-05
0.0006844101
3.7535563e-05
0.00067282397
3.6142103e-05
0.00066151797
3.4761433e-05
0.00065051579
3.3375508e-05
0.00063984348
3.1969332e-05
0.00062952163
3.0545844e-05
0.00061956634
2.9102257e-05
0.000609997
2.7621024e-05
0.0006008366
2.6087562e-05
0.00059211009
2.4495576e-05
0.00058384512
2.2833463e-05
0.00057607209
2.1086182e-05
0.00056882731
1.9238986e-05
0.00056214433
1.7292923e-05
0.00055602964
1.5222619e-05
0.00055048002
1.309639e-05
0.00054549234
1.0969827e-05
0.00054105842
8.8580079e-06
0.00053716536
6.8096935e-06
0.00053378976
4.8702265e-06
0.00053089098
3.0947892e-06
0.00052840596
1.5657184e-06
0.00052627069
3.3964811e-07
0.00052439375
-5.694052e-07
0.00052262875
-1.0516681e-06
0.00052084135
-9.8414908e-07
0.00051895457
-4.1202012e-07
0.00051693503
4.9850485e-07
0.0005147696
1.592397e-06
0.0005124619
2.7168329e-06
0.00051002602
3.7609226e-06
0.00050748109
4.6754058e-06
0.00050485102
5.4182341e-06
0.00050216099
5.985257e-06
0.00049943547
6.3918529e-06
0.00049669792
6.6553664e-06
0.00049396826
6.8054644e-06
0.00049126294
6.8672419e-06
0.00048859495
6.8613063e-06
0.00048597366
6.8067722e-06
0.00048340578
6.7207506e-06
0.00048089713
6.6085766e-06
0.0004784509
6.4787876e-06
0.00047606674
6.346597e-06
0.00047374182
6.217035e-06
0.00047147727
6.1232664e-06
0.0004692715
6.0696283e-06
0.00046711402
6.0180037e-06
0.00046499473
5.9703587e-06
0.00046290713
5.9287485e-06
0.00046084578
5.898867e-06
0.00045880474
5.8872306e-06
0.00045677998
5.8837804e-06
0.00045476769
5.8903195e-06
0.00045276585
5.8987081e-06
0.00045077297
5.9082442e-06
0.00044878823
5.9169427e-06
0.00044681164
5.9214972e-06
0.00044484269
5.9256359e-06
0.00044288159
5.9252721e-06
0.00044092848
5.9232952e-06
0.00043898166
5.9238766e-06
0.00043704344
5.917472e-06
0.0004350973
5.9596608e-06
0.00043317788
5.8955638e-06
0.00043119179
6.060584e-06
0.00042914035
6.7485471e-06
0.00042690408
5.8599671e-06
9.1493673e-06
0.00092303161
7.5204557e-05
-0.00091970127
0.00092855096
9.6767287e-05
0.00093512418
0.00011141426
0.00094154371
0.00011736128
0.00094669414
0.00011510502
0.00094993877
0.00010695603
0.0009515277
9.6711424e-05
0.00095190292
8.7585113e-05
0.00095156448
8.082118e-05
0.0009510534
7.6307088e-05
0.00095040627
7.3300162e-05
0.00094955711
7.1172111e-05
0.00094840684
6.9583937e-05
0.00094682877
6.8218515e-05
0.00094474616
6.6984762e-05
0.00094202319
6.5897943e-05
0.00093851888
6.4929108e-05
0.00093419181
6.3978739e-05
0.00092904794
6.3045317e-05
0.00092306659
6.2107738e-05
0.00091630126
6.1128583e-05
0.00090887933
6.0106943e-05
0.00090087673
5.9053864e-05
0.00089235226
5.7947562e-05
0.00088335822
5.6813513e-05
0.00087394712
5.5685051e-05
0.00086417547
5.4533073e-05
0.00085409749
5.3338801e-05
0.00084376576
5.2119122e-05
0.0008332318
5.0888099e-05
0.00082254813
4.9625417e-05
0.0008117658
4.8317893e-05
0.0008009311
4.6976803e-05
0.00079008691
4.5605619e-05
0.00077927607
4.4186353e-05
0.00076854148
4.2703916e-05
0.0007579251
4.1162231e-05
0.00074746853
3.9558823e-05
0.00073721343
3.7876126e-05
0.00072720124
3.6099746e-05
0.00071747293
3.4223887e-05
0.00070807089
3.2235506e-05
0.00069903979
3.0117279e-05
0.00069043679
2.7841994e-05
0.00068227275
2.5456961e-05
0.0006745204
2.2974964e-05
0.00066720244
2.0414355e-05
0.00066035377
1.7818499e-05
0.00065399092
1.5220854e-05
0.0006481139
1.2686717e-05
0.00064270495
1.0279176e-05
0.00063772523
8.0745097e-06
0.00063312424
6.1667055e-06
0.000628874
4.5898916e-06
0.00062484516
3.4594266e-06
0.00062084737
2.9461267e-06
0.00061682868
3.0345381e-06
0.00061281357
3.6030932e-06
0.00060881902
4.4930567e-06
0.0006048486
5.5628122e-06
0.00060090593
6.6595063e-06
0.00059699298
7.6738741e-06
0.0005931112
8.5571826e-06
0.00058926483
9.2646073e-06
0.00058546016
9.7899284e-06
0.00058170453
1.0147476e-05
0.00057800656
1.0353337e-05
0.00057437427
1.0437755e-05
0.00057081499
1.0426526e-05
0.00056733503
1.0341259e-05
0.00056393953
1.0202281e-05
0.00056063158
1.0028696e-05
0.00055741328
9.8268734e-06
0.00055428519
9.6068808e-06
0.00055124511
9.3866744e-06
0.00054828903
9.1731176e-06
0.00054541518
8.9971208e-06
0.00054262211
8.8626948e-06
0.00053990293
8.7371828e-06
0.00053724762
8.6256724e-06
0.00053464802
8.5283452e-06
0.00053209723
8.4496564e-06
0.0005295882
8.3962599e-06
0.0005271157
8.3562829e-06
0.00052467472
8.3312975e-06
0.0005222619
8.3115251e-06
0.00051987445
8.2957028e-06
0.00051751025
8.281135e-06
0.00051516807
8.2636842e-06
0.00051284646
8.2472391e-06
0.00051054467
8.2270673e-06
0.00050826174
8.2062273e-06
0.00050599484
8.1907683e-06
0.00050374569
8.1666292e-06
0.00050149619
8.2091525e-06
0.0004992807
8.1110565e-06
0.00049700159
8.3396983e-06
0.00049469143
9.0587009e-06
0.00049206237
8.4890277e-06
1.1599294e-05
0.00095540904
7.2204988e-05
-0.00095240947
0.0009604938
9.168253e-05
0.00096656379
0.00010534427
0.00097253401
0.00011139106
0.00097741758
0.00011022145
0.00098066536
0.00010370825
0.00098241874
9.4958042e-05
0.00098317942
8.6824432e-05
0.00098339058
8.0610027e-05
0.00098337653
7.6321135e-05
0.00098328815
7.3388537e-05
0.00098317395
7.1286319e-05
0.00098303001
6.9727874e-05
0.00098279233
6.8456189e-05
0.00098241547
6.7361631e-05
0.00098186181
6.6451596e-05
0.00098108143
6.5709487e-05
0.00098001128
6.5048894e-05
0.00097860088
6.4455718e-05
0.00097676361
6.394501e-05
0.00097440665
6.3485537e-05
0.00097148855
6.3025041e-05
0.00096798798
6.2554438e-05
0.00096387306
6.2062486e-05
0.00095915839
6.1528182e-05
0.0009538946
6.094884e-05
0.00094810987
6.0317801e-05
0.00094182907
5.9619605e-05
0.00093507518
5.8873012e-05
0.00092787422
5.8089061e-05
0.00092025936
5.7240268e-05
0.0009122666
5.6310653e-05
0.00090392745
5.5315953e-05
0.00089527395
5.4259121e-05
0.00088634445
5.3115858e-05
0.00087717841
5.1869948e-05
0.00086781786
5.0522784e-05
0.00085830992
4.9066762e-05
0.00084870416
4.748189e-05
0.0008390512
4.57527e-05
0.00082940254
4.3872551e-05
0.0008198118
4.1826247e-05
0.00081033615
3.9592928e-05
0.0008010354
3.7142739e-05
0.00079196208
3.4530283e-05
0.00078313545
3.1801592e-05
0.00077457276
2.8977049e-05
0.00076630831
2.6082953e-05
0.00075837151
2.3157655e-05
0.00075078201
2.0276213e-05
0.00074354413
1.7517052e-05
0.00073664313
1.4975515e-05
0.00073006442
1.2745415e-05
0.00072381484
1.0839467e-05
0.00071781297
9.4613031e-06
0.00071191977
8.8393209e-06
0.00070609611
8.8581992e-06
0.0007003622
9.3370068e-06
0.00069472894
1.0126319e-05
0.00068920213
1.1089623e-05
0.00068379148
1.2070153e-05
0.00067849897
1.2966378e-05
0.00067332259
1.3733563e-05
0.00066826233
1.4324868e-05
0.00066331898
1.473328e-05
0.00065849223
1.4974231e-05
0.00065378261
1.5062952e-05
0.00064919112
1.5029247e-05
0.0006447189
1.4898744e-05
0.00064036707
1.4693089e-05
0.00063613715
1.4432207e-05
0.00063202924
1.4136603e-05
0.00062804234
1.381377e-05
0.00062417458
1.3474642e-05
0.00062042189
1.3139363e-05
0.00061677924
1.2815774e-05
0.0006132423
1.253406e-05
0.00060980798
1.2297012e-05
0.0006064715
1.2073664e-05
0.00060322457
1.18726e-05
0.00060005916
1.1693754e-05
0.00059696776
1.1541061e-05
0.00059394256
1.1421461e-05
0.00059097735
1.1321489e-05
0.00058806607
1.124258e-05
0.00058520407
1.1173528e-05
0.00058238719
1.1112574e-05
0.00057961199
1.105634e-05
0.00057687581
1.0999868e-05
0.00057417605
1.0946992e-05
0.00057151076
1.0892361e-05
0.00056887775
1.0839241e-05
0.00056627297
1.0795549e-05
0.00056369719
1.0742402e-05
0.00056113113
1.0775219e-05
0.00055860762
1.0634559e-05
0.00055602677
1.0920553e-05
0.0005534462
1.1639269e-05
0.00055043971
1.1495516e-05
1.4208286e-05
0.00098881259
6.9475108e-05
-0.00098608271
0.000993491
8.7004115e-05
0.00099912218
9.9713093e-05
0.0010047046
0.00010580868
0.0010093626
0.00010556344
0.0010125876
0.0001004832
0.0010144374
9.3108305e-05
0.0010153371
8.5924655e-05
0.001015724
8.0223123e-05
0.0010158972
7.6147982e-05
0.001015996
7.3289742e-05
0.0010160666
7.1215678e-05
0.0010161365
6.9658013e-05
0.0010161912
6.8401449e-05
0.0010162029
6.7349951e-05
0.0010161676
6.6486931e-05
0.0010160814
6.5795639e-05
0.0010159182
6.5212151e-05
0.0010156567
6.4717134e-05
0.0010152729
6.4328872e-05
0.0010147312
6.4027196e-05
0.0010139908
6.3765514e-05
0.0010130113
6.3533847e-05
0.0010117318
6.3342026e-05
0.0010100893
6.3170684e-05
0.0010080464
6.2991774e-05
0.0010055712
6.2792926e-05
0.0010026331
6.2557729e-05
0.00099923154
6.227459e-05
0.00099538033
6.1940272e-05
0.00099108174
6.1538857e-05
0.00098633734
6.1055046e-05
0.00098115186
6.0501436e-05
0.00097553419
5.9876797e-05
0.00096949632
5.9153727e-05
0.00096305238
5.8313887e-05
0.00095621787
5.735729e-05
0.00094900934
5.627529e-05
0.0009414455
5.5045734e-05
0.0009335518
5.3646406e-05
0.00092535955
5.2064795e-05
0.0009169044
5.02814e-05
0.00090822879
4.8268537e-05
0.00089937075
4.6000777e-05
0.000890413
4.3488033e-05
0.000881447
4.0767596e-05
0.00087250655
3.7917499e-05
0.00086361539
3.4974112e-05
0.000854806
3.1967048e-05
0.00084611777
2.8964441e-05
0.00083759122
2.60436e-05
0.00082926326
2.3303482e-05
0.00082116239
2.0846284e-05
0.00081329635
1.8705502e-05
0.0008057086
1.7049059e-05
0.00079838108
1.6166835e-05
0.00079123308
1.6006203e-05
0.00078423055
1.6339531e-05
0.00077733779
1.7019082e-05
0.00077055663
1.7870788e-05
0.0007639051
1.8721684e-05
0.00075738767
1.9483806e-05
0.00075100888
2.0112348e-05
0.00074477902
2.0554729e-05
0.00073870452
2.0807782e-05
0.00073278586
2.089289e-05
0.00072702421
2.0824606e-05
0.00072142062
2.0632831e-05
0.0007159745
2.0344871e-05
0.00071068452
1.9983065e-05
0.00070555029
1.9566442e-05
0.00070057068
1.9116209e-05
0.00069574354
1.864091e-05
0.00069106549
1.8152687e-05
0.000686531
1.7673858e-05
0.00068213417
1.7212606e-05
0.0006778693
1.6798931e-05
0.00067373173
1.6434582e-05
0.0006697171
1.6088289e-05
0.00066581852
1.5771181e-05
0.00066202878
1.5483493e-05
0.00065834044
1.5229407e-05
0.00065474528
1.5016616e-05
0.00065123635
1.4830416e-05
0.00064780662
1.4672312e-05
0.00064445023
1.4529919e-05
0.00064116169
1.4401111e-05
0.00063793613
1.4281904e-05
0.00063476943
1.4166564e-05
0.00063165755
1.4058872e-05
0.00062859711
1.3952803e-05
0.00062558467
1.3851679e-05
0.00062261493
1.376529e-05
0.00061968753
1.3669805e-05
0.00061678201
1.3680736e-05
0.0006139293
1.3487274e-05
0.0006110273
1.382255e-05
0.00060815579
1.4510783e-05
0.00060476684
1.4884469e-05
1.7007199e-05
0.0010232793
6.6959261e-05
-0.0010207635
0.001027577
8.2706511e-05
0.0010327943
9.4495751e-05
0.0010380165
0.00010058648
0.0010424685
0.00010111141
0.0010456732
9.7278507e-05
0.0010476238
9.1157718e-05
0.0010486597
8.488875e-05
0.0010491706
7.9712232e-05
0.0010494406
7.5877954e-05
0.0010496187
7.3111668e-05
0.0010497658
7.1068581e-05
0.0010499069
6.9516908e-05
0.0010500333
6.8275071e-05
0.001050137
6.7246253e-05
0.0010502203
6.6403562e-05
0.0010502935
6.5722449e-05
0.0010503474
6.515824e-05
0.0010503647
6.46999e-05
0.0010503473
6.4346249e-05
0.0010502924
6.4082146e-05
0.0010501832
6.3874629e-05
0.0010500045
6.3712535e-05
0.0010497376
6.3608931e-05
0.0010493571
6.3551251e-05
0.0010488339
6.3514931e-05
0.0010481361
6.3490728e-05
0.0010472181
6.3475706e-05
0.0010460349
6.3457794e-05
0.0010445556
6.3419594e-05
0.0010427459
6.3348544e-05
0.0010405755
6.3225433e-05
0.0010380374
6.3039565e-05
0.001035128
6.2786205e-05
0.0010318365
6.2445245e-05
0.0010281509
6.199943e-05
0.0010240601
6.1448112e-05
0.0010195567
6.0778757e-05
0.0010146366
5.9965738e-05
0.001009296
5.8987053e-05
0.0010035299
5.7830896e-05
0.00099733439
5.6476916e-05
0.00099070882
5.4894102e-05
0.00098364892
5.3060677e-05
0.00097616659
5.0970362e-05
0.00096831971
4.8614475e-05
0.00096017774
4.605947e-05
0.00095178756
4.3364292e-05
0.00094318989
4.056472e-05
0.00093443105
3.7723276e-05
0.00092556702
3.4907634e-05
0.00091666486
3.2205638e-05
0.00090778761
2.9723536e-05
0.00089896142
2.7531696e-05
0.00089028642
2.5724054e-05
0.0008819019
2.455136e-05
0.00087380392
2.4104181e-05
0.00086586758
2.4275868e-05
0.00085800991
2.4876756e-05
0.00085025242
2.5628276e-05
0.00084260122
2.6372883e-05
0.00083505057
2.7034456e-05
0.0008276191
2.7543812e-05
0.0008203311
2.7842729e-05
0.00081319721
2.7941675e-05
0.0008062232
2.7866898e-05
0.00079941983
2.7627981e-05
0.00079279402
2.7258641e-05
0.0007863469
2.6791985e-05
0.00078007933
2.6250641e-05
0.00077399309
2.5652685e-05
0.00076808787
2.5021426e-05
0.00076236178
2.4367002e-05
0.00075681168
2.3702781e-05
0.00075143193
2.3053608e-05
0.00074621675
2.2427787e-05
0.00074116053
2.1855155e-05
0.00073625811
2.1337002e-05
0.00073150507
2.0841325e-05
0.00072689536
2.0380897e-05
0.00072242274
1.9956111e-05
0.00071808025
1.9571899e-05
0.00071385965
1.9237216e-05
0.00070975352
1.8936542e-05
0.00070575404
1.8671792e-05
0.00070185429
1.8429669e-05
0.00069804754
1.820786e-05
0.00069432754
1.8001911e-05
0.0006906887
1.7805399e-05
0.00068712546
1.762211e-05
0.00068363293
1.7445336e-05
0.00068020629
1.7278321e-05
0.00067683891
1.713267e-05
0.00067352915
1.6979558e-05
0.0006702554
1.6954491e-05
0.00066704649
1.6696187e-05
0.0006637977
1.7071332e-05
0.00066060931
1.7699175e-05
0.00065682008
1.8673698e-05
2.0026711e-05
0.0010588386
6.4617751e-05
-0.0010564971
0.0010627851
7.8760072e-05
0.0010676133
8.9667505e-05
0.0010724971
9.5702676e-05
0.0010767452
9.6863296e-05
0.0010799152
9.4108508e-05
0.0010819537
8.9119254e-05
0.0010831241
8.3718385e-05
0.0010837645
7.9071841e-05
0.001084135
7.5507357e-05
0.0010843839
7.2862798e-05
0.0010845804
7.0872055e-05
0.0010847568
6.9340518e-05
0.001084916
6.8115902e-05
0.0010850563
6.7106001e-05
0.0010851815
6.6278274e-05
0.0010852953
6.5608673e-05
0.0010853936
6.5059962e-05
0.0010854768
6.4616739e-05
0.0010855478
6.4275171e-05
0.0010856119
6.4018103e-05
0.0010856645
6.3822034e-05
0.001085691
6.3686009e-05
0.0010856902
6.3609739e-05
0.0010856613
6.3580124e-05
0.001085593
6.3583287e-05
0.0010854742
6.3609472e-05
0.0010852901
6.3659848e-05
0.0010850206
6.3727306e-05
0.0010846444
6.3795728e-05
0.0010841353
6.3857712e-05
0.0010834579
6.390282e-05
0.0010825784
6.3919063e-05
0.0010814711
6.3893442e-05
0.0010801028
6.3813561e-05
0.0010784462
6.3656073e-05
0.0010764888
6.3405499e-05
0.0010742135
6.3054064e-05
0.0010716018
6.2577389e-05
0.0010686332
6.1955665e-05
0.0010652847
6.1179398e-05
0.0010615319
6.0229786e-05
0.0010573486
5.9077384e-05
0.0010527051
5.7704106e-05
0.0010475658
5.6109745e-05
0.0010419073
5.4272907e-05
0.0010357391
5.2227682e-05
0.0010290798
5.0023563e-05
0.0010219464
4.7698169e-05
0.0010143627
4.5307002e-05
0.0010063641
4.2906209e-05
0.00099800251
4.0567216e-05
0.0009893461
3.8379945e-05
0.00098045648
3.6421318e-05
0.00097142591
3.4754624e-05
0.00096244777
3.3529506e-05
0.00095365964
3.2892308e-05
0.00094506665
3.2868857e-05
0.00093663945
3.3303963e-05
0.00092831926
3.3948464e-05
0.00092002772
3.4664417e-05
0.00091175666
3.5305523e-05
0.00090355845
3.5742022e-05
0.00089545293
3.5948247e-05
0.00088744627
3.5948333e-05
0.00087956244
3.5750732e-05
0.00087182836
3.5362062e-05
0.00086425599
3.4831011e-05
0.00085685216
3.4195809e-05
0.00084962772
3.3475086e-05
0.00084259131
3.2689095e-05
0.00083574564
3.1867096e-05
0.00082909215
3.1020488e-05
0.00082263138
3.0163554e-05
0.00081636017
2.9324817e-05
0.00081027516
2.8512797e-05
0.00080437317
2.7757145e-05
0.00079865023
2.7059939e-05
0.0007931025
2.6389061e-05
0.00078772492
2.5758476e-05
0.00078251246
2.5168568e-05
0.00077745897
2.4625387e-05
0.00077255666
2.4139523e-05
0.00076779811
2.3695097e-05
0.00076317499
2.3294908e-05
0.00075867963
2.2925034e-05
0.00075430428
2.2583209e-05
0.00075004146
2.2264726e-05
0.00074588425
2.1962612e-05
0.0007418256
2.1680764e-05
0.0007378591
2.1411835e-05
0.00073397848
2.1158935e-05
0.00073017575
2.0935402e-05
0.0007264479
2.0707412e-05
0.00072277205
2.0630342e-05
0.000719175
2.0293234e-05
0.00071554884
2.0697492e-05
0.00071201326
2.1234754e-05
0.00070779676
2.28902e-05
2.329795e-05
0.0010955244
6.2422407e-05
-0.001093329
0.0010991519
7.5132534e-05
0.001103617
8.5202405e-05
0.0011081829
9.1136811e-05
0.0011122293
9.2816883e-05
0.001115349
9.0988773e-05
0.0011174557
8.7012549e-05
0.0011187466
8.2427451e-05
0.0011195109
7.8307553e-05
0.0011199846
7.503365e-05
0.0011203111
7.2536382e-05
0.0011205633
7.0619812e-05
0.0011207783
6.9125527e-05
0.0011209666
6.7927556e-05
0.001121131
6.6941679e-05
0.001121277
6.6132226e-05
0.0011214098
6.5475927e-05
0.0011215292
6.4940501e-05
0.0011216373
6.4508691e-05
0.0011217375
6.4174976e-05
0.0011218309
6.3924649e-05
0.0011219151
6.3737875e-05
0.0011219902
6.3610914e-05
0.0011220579
6.3541998e-05
0.0011221179
6.3520174e-05
0.0011221731
6.3528013e-05
0.001122213
6.3569582e-05
0.001122228
6.3644913e-05
0.0011222209
6.3734386e-05
0.0011221838
6.3832829e-05
0.0011221083
6.3933182e-05
0.0011219825
6.4028644e-05
0.0011217897
6.4111804e-05
0.0011215138
6.4169372e-05
0.0011211321
6.4195273e-05
0.0011206162
6.4171937e-05
0.0011199402
6.4081493e-05
0.0011190802
6.3914074e-05
0.0011180051
6.3652562e-05
0.0011166891
6.3271647e-05
0.0011151149
6.2753533e-05
0.0011132561
6.2088627e-05
0.0011110819
6.1251593e-05
0.0011085581
6.022792e-05
0.0011056456
5.902226e-05
0.001102296
5.7622426e-05
0.0010984672
5.6056559e-05
0.0010941255
5.4365198e-05
0.0010892393
5.2584435e-05
0.0010837824
5.0763853e-05
0.0010777375