/*--------------------------------*- C++ -*----------------------------------*\
| =========                 |                                                 |
| \\      /  F ield         | OpenFOAM: The Open Source CFD Toolbox           |
|  \\    /   O peration     | Version:  2206                                  |
|   \\  /    A nd           | Website:  www.openfoam.com                      |
|    \\/     M anipulation  |                                                 |
\*---------------------------------------------------------------------------*/
FoamFile
{
    version     2.0;
    format      ascii;
    arch        "LSB;label=32;scalar=64";
    class       volVectorField;
    location    "1600";
    object      U;
}
// * * * * * * * * * * * * * * * * * * * * * * * * * * * * * * * * * * * * * //

dimensions      [0 1 -1 0 0 0 0];

internalField   nonuniform List<vector> 
7480
(
(0.8275626 0.011160342 0)
(0.70300367 0.020208549 0)
(0.56655157 0.021424178 0)
(0.43053164 0.014558259 0)
(0.33054107 0.0062884709 0)
(0.26656126 0.0019121555 0)
(0.23006376 0.0022269842 0)
(0.20851993 -0.00029118368 0)
(0.1944596 -0.00042999915 0)
(0.18413071 -0.00017532228 0)
(0.17530646 9.9795978e-07 0)
(0.16711763 5.4194497e-05 0)
(0.15954627 6.4876806e-05 0)
(0.15264667 6.7211265e-05 0)
(0.14636055 0.00015403378 0)
(0.14061406 9.6851083e-05 0)
(0.13538412 5.943027e-05 0)
(0.1306002 4.7306654e-05 0)
(0.12617454 4.4072783e-05 0)
(0.12206024 4.0354857e-05 0)
(0.11823626 3.7108741e-05 0)
(0.11466684 3.5203197e-05 0)
(0.11131532 3.2972534e-05 0)
(0.10816374 3.0277925e-05 0)
(0.10519945 2.7933326e-05 0)
(0.10240225 2.6200874e-05 0)
(0.099752888 2.4391796e-05 0)
(0.097242178 2.2435156e-05 0)
(0.094863504 2.0730882e-05 0)
(0.092605882 1.9316752e-05 0)
(0.090459697 1.7874494e-05 0)
(0.088420778 1.6404529e-05 0)
(0.086485457 1.5098293e-05 0)
(0.084647838 1.3928361e-05 0)
(0.082903358 1.2761503e-05 0)
(0.081250393 1.1611155e-05 0)
(0.079687395 1.055379e-05 0)
(0.078212409 9.543197e-06 0)
(0.076825311 8.5246844e-06 0)
(0.075528046 7.516276e-06 0)
(0.074322559 6.5622838e-06 0)
(0.073210327 5.6449028e-06 0)
(0.072194842 4.7207913e-06 0)
(0.07127899 3.8596601e-06 0)
(0.070469534 1.7563988e-05 0)
(0.069772273 -3.7658942e-06 0)
(0.069200742 -4.8141765e-06 0)
(0.068765909 -1.5574685e-06 0)
(0.068468359 -1.5557905e-06 0)
(0.068306717 -2.0044823e-06 0)
(0.068277363 -2.6358345e-06 0)
(0.068373929 -3.1142396e-06 0)
(0.06858564 -3.4501103e-06 0)
(0.068890329 -3.5260721e-06 0)
(0.069266303 -3.5892119e-06 0)
(0.069701757 -3.6654154e-06 0)
(0.070167415 -3.3342947e-06 0)
(0.070616327 -2.7249012e-06 0)
(0.070998822 -2.685207e-06 0)
(0.07128423 -6.9088956e-06 0)
(0.071461983 -2.1118894e-06 0)
(0.07153301 -9.0195124e-07 0)
(0.071506589 -4.77406e-07 0)
(0.071397827 -2.2628624e-07 0)
(0.071224549 -4.4157829e-08 0)
(0.071002694 8.1867236e-08 0)
(0.070746587 1.5054331e-07 0)
(0.070467845 1.9410695e-07 0)
(0.070174794 2.1765678e-07 0)
(0.069873688 2.261623e-07 0)
(0.069569395 2.2409241e-07 0)
(0.069264779 2.2365042e-07 0)
(0.068961617 2.1873789e-07 0)
(0.06866193 2.0837647e-07 0)
(0.068366204 2.077097e-07 0)
(0.068074785 2.002853e-07 0)
(0.06778812 2.1275432e-07 0)
(0.067496728 2.4361257e-07 0)
(0.067200431 2.5082082e-07 0)
(0.066901911 2.568549e-07 0)
(0.066602316 2.5596276e-07 0)
(0.066302286 2.5387676e-07 0)
(0.06600052 2.6019796e-07 0)
(0.065696414 2.5742983e-07 0)
(0.065389726 2.6028936e-07 0)
(0.065080198 2.5881252e-07 0)
(0.064768188 2.5770323e-07 0)
(0.064453654 2.5693206e-07 0)
(0.064137189 2.5276432e-07 0)
(0.063818889 2.5230416e-07 0)
(0.063499147 2.4701085e-07 0)
(0.063178052 2.4631381e-07 0)
(0.062856267 2.4071464e-07 0)
(0.062531689 2.4741318e-07 0)
(0.062210294 2.2409439e-07 0)
(0.061869903 2.9427974e-07 0)
(0.061575822 1.0029429e-06 0)
(0.061138189 1.1308568e-05 0)
(0.060897745 1.8948416e-05 0)
(0.060225702 1.0522014e-05 0)
(0.9586593 0.028033004 0)
(0.94941843 0.038590566 0)
(0.93029027 0.041836637 0)
(0.88511545 0.039313678 0)
(0.82440407 0.032447536 0)
(0.7568145 0.023981434 0)
(0.69435764 0.015507769 0)
(0.64138054 0.0094009982 0)
(0.59775265 0.0060294933 0)
(0.56169806 0.0043631009 0)
(0.53120848 0.0035598513 0)
(0.50475152 0.0030817483 0)
(0.48141204 0.00270333 0)
(0.46056965 0.0023887075 0)
(0.4417379 0.0021299595 0)
(0.42459288 0.0018839605 0)
(0.4089291 0.0016607925 0)
(0.39453865 0.0014836591 0)
(0.38122968 0.0013364749 0)
(0.36886661 0.0012050363 0)
(0.35735495 0.0010887129 0)
(0.34659851 0.00098968693 0)
(0.33650836 0.00090262992 0)
(0.32702161 0.0008236862 0)
(0.31808429 0.0007530994 0)
(0.30964459 0.00069127474 0)
(0.30165527 0.00063556809 0)
(0.29408353 0.00058409115 0)
(0.28690381 0.00053718917 0)
(0.28008804 0.00049499923 0)
(0.27361109 0.00045617628 0)
(0.26745655 0.00041989141 0)
(0.26161133 0.00038637841 0)
(0.25606102 0.00035554175 0)
(0.25079367 0.00032668369 0)
(0.24580271 0.00029942765 0)
(0.24108364 0.00027381787 0)
(0.23663284 0.00024958951 0)
(0.23245044 0.000226297 0)
(0.22854124 0.00020374875 0)
(0.22491185 0.00018200077 0)
(0.22156938 0.00016091449 0)
(0.21852526 0.00014022443 0)
(0.21579154 0.00011986891 0)
(0.21338311 9.9002331e-05 0)
(0.21131152 5.3624056e-05 0)
(0.20965588 6.2901781e-05 0)
(0.20838585 3.9039919e-05 0)
(0.20751802 1.9220105e-05 0)
(0.20705313 1.177608e-06 0)
(0.20697439 -1.4775783e-05 0)
(0.20725858 -2.8585768e-05 0)
(0.2078703 -3.9571511e-05 0)
(0.20874779 -4.7020602e-05 0)
(0.2098269 -5.1964331e-05 0)
(0.21105478 -5.4504706e-05 0)
(0.21233979 -5.2537103e-05 0)
(0.2135558 -4.6136927e-05 0)
(0.21457963 -3.6630124e-05 0)
(0.21532186 -1.0691745e-05 0)
(0.21576706 -1.3742203e-05 0)
(0.21591161 -4.4028198e-06 0)
(0.21578693 3.1555535e-06 0)
(0.215432 9.0104009e-06 0)
(0.2148957 1.316984e-05 0)
(0.21422265 1.5924658e-05 0)
(0.21345226 1.7521476e-05 0)
(0.2126166 1.8318532e-05 0)
(0.2117396 1.8555311e-05 0)
(0.21083916 1.8398265e-05 0)
(0.20992895 1.7983045e-05 0)
(0.20901745 1.7446383e-05 0)
(0.20811035 1.6813216e-05 0)
(0.20721315 1.6117883e-05 0)
(0.20632776 1.545517e-05 0)
(0.20545512 1.4788609e-05 0)
(0.20459506 1.44588e-05 0)
(0.20372009 1.4443311e-05 0)
(0.2028315 1.4261241e-05 0)
(0.20193733 1.3968642e-05 0)
(0.20104043 1.3625379e-05 0)
(0.20014157 1.3296894e-05 0)
(0.1992377 1.3036131e-05 0)
(0.19832712 1.2769908e-05 0)
(0.19740888 1.2533117e-05 0)
(0.1964825 1.228322e-05 0)
(0.19554874 1.2030695e-05 0)
(0.19460782 1.1773352e-05 0)
(0.19366125 1.1496577e-05 0)
(0.19270958 1.1227855e-05 0)
(0.19175397 1.0940557e-05 0)
(0.19079486 1.0662935e-05 0)
(0.18983405 1.0386929e-05 0)
(0.18886708 1.0121986e-05 0)
(0.18790695 9.9146495e-06 0)
(0.1869056 9.6500273e-06 0)
(0.18600773 1.1239277e-05 0)
(0.1847735 3.9733966e-05 0)
(0.18403293 6.4488101e-05 0)
(0.18205666 2.9597913e-05 0)
(0.9680111 0.029708364 0)
(0.9730982 0.037720309 0)
(0.98238583 0.041542722 0)
(0.98424648 0.041014664 0)
(0.97937596 0.03711996 0)
(0.9636077 0.030609251 0)
(0.93924958 0.024149455 0)
(0.91010372 0.019117261 0)
(0.87834318 0.015501431 0)
(0.84614566 0.012898113 0)
(0.81514659 0.010958045 0)
(0.78574503 0.0094049942 0)
(0.75800983 0.0081188704 0)
(0.7318588 0.0070812123 0)
(0.70718868 0.0062346268 0)
(0.68394367 0.0055141179 0)
(0.66208677 0.0048992603 0)
(0.6415251 0.0043849567 0)
(0.622147 0.0039452852 0)
(0.6038642 0.0035578594 0)
(0.58660535 0.0032166732 0)
(0.5702877 0.002921674 0)
(0.55483084 0.0026624756 0)
(0.54017206 0.0024300455 0)
(0.52625921 0.0022222951 0)
(0.51303623 0.002038642 0)
(0.50045076 0.0018736742 0)
(0.48846319 0.001722938 0)
(0.47704075 0.0015856909 0)
(0.46614972 0.0014613864 0)
(0.45576032 0.0013473142 0)
(0.4458514 0.0012414478 0)
(0.43640574 0.0011435476 0)
(0.42740631 0.0010530937 0)
(0.41883953 0.00096862271 0)
(0.41069788 0.00088910103 0)
(0.40297737 0.00081423367 0)
(0.39567632 0.00074331254 0)
(0.38879758 0.0006753156 0)
(0.38234962 0.00060964399 0)
(0.37634421 0.00054618468 0)
(0.37079522 0.00048455507 0)
(0.36572212 0.00042416895 0)
(0.36114552 0.000364805 0)
(0.35709424 0.0003066484 0)
(0.3535904 0.00020482604 0)
(0.35070757 0.00018487967 0)
(0.34843108 0.00012760955 0)
(0.34676693 7.3742567e-05 0)
(0.34570663 2.3873687e-05 0)
(0.34522127 -2.0848405e-05 0)
(0.34526694 -5.9489854e-05 0)
(0.34578677 -9.0593355e-05 0)
(0.34669059 -0.00011256997 0)
(0.34788574 -0.00012703248 0)
(0.34928132 -0.0001338835 0)
(0.35073568 -0.00012961545 0)
(0.35207574 -0.00011288528 0)
(0.35314152 -8.6180006e-05 0)
(0.35382994 -5.8450607e-05 0)
(0.35411526 -3.0262804e-05 0)
(0.3540025 -5.2225275e-06 0)
(0.35352911 1.5926831e-05 0)
(0.35275067 3.2070768e-05 0)
(0.35173198 4.3582223e-05 0)
(0.35053237 5.1222672e-05 0)
(0.34920425 5.5694967e-05 0)
(0.34779074 5.7883315e-05 0)
(0.34632486 5.8449521e-05 0)
(0.34483155 5.7874587e-05 0)
(0.34332973 5.6547951e-05 0)
(0.34183149 5.4825319e-05 0)
(0.34034529 5.2815634e-05 0)
(0.33887875 5.0631074e-05 0)
(0.33743492 4.8495164e-05 0)
(0.33601492 4.6385128e-05 0)
(0.33461705 4.5169865e-05 0)
(0.33320132 4.4764467e-05 0)
(0.33177508 4.3981254e-05 0)
(0.33034803 4.2921562e-05 0)
(0.3289217 4.1776675e-05 0)
(0.3274955 4.0700389e-05 0)
(0.32606512 3.9796602e-05 0)
(0.32462771 3.8923998e-05 0)
(0.32318139 3.8128706e-05 0)
(0.32172525 3.7320906e-05 0)
(0.32025992 3.6510626e-05 0)
(0.31878566 3.5688737e-05 0)
(0.31730427 3.4826838e-05 0)
(0.3158166 3.3975568e-05 0)
(0.31432413 3.3089447e-05 0)
(0.31282753 3.2216521e-05 0)
(0.3113292 3.1362375e-05 0)
(0.30982376 3.0506902e-05 0)
(0.30832697 2.9890995e-05 0)
(0.30677953 2.8834263e-05 0)
(0.30535813 3.1275802e-05 0)
(0.30351644 7.2382967e-05 0)
(0.30231442 0.00011228255 0)
(0.29931938 2.1383844e-05 0)
(0.9700503 0.027084404 0)
(0.97639936 0.034266652 0)
(0.98545741 0.038380351 0)
(0.99342388 0.039214063 0)
(1.0016281 0.036177845 0)
(1.0025163 0.031202574 0)
(0.99955904 0.0262933 0)
(0.99331954 0.022247422 0)
(0.98419022 0.019368814 0)
(0.97249968 0.017346811 0)
(0.95867595 0.015776388 0)
(0.94311667 0.014349861 0)
(0.92569814 0.013014591 0)
(0.90735462 0.011780207 0)
(0.88853994 0.010669551 0)
(0.86953964 0.0096640323 0)
(0.85055538 0.0087604269 0)
(0.83171129 0.0079708228 0)
(0.8130978 0.0072749164 0)
(0.79480722 0.0066465334 0)
(0.77691968 0.0060785944 0)
(0.7594803 0.0055726542 0)
(0.74251316 0.0051174788 0)
(0.72603853 0.0047027198 0)
(0.7100747 0.0043263282 0)
(0.69462364 0.0039878849 0)
(0.67967967 0.0036805608 0)
(0.6652398 0.0033982613 0)
(0.65130015 0.0031395581 0)
(0.63785096 0.0029032731 0)
(0.62488222 0.0026853232 0)
(0.61238847 0.0024825121 0)
(0.60036534 0.002294062 0)
(0.58880731 0.0021188875 0)
(0.57771131 0.0019546397 0)
(0.56707972 0.0017995321 0)
(0.55691846 0.0016529177 0)
(0.54723342 0.0015136447 0)
(0.53803341 0.0013800229 0)
(0.52933209 0.00125096 0)
(0.52114651 0.0011260857 0)
(0.51349641 0.0010046898 0)
(0.50640697 0.00088581129 0)
(0.49990401 0.00076908217 0)
(0.49402589 0.00065751041 0)
(0.48879669 0.00048569627 0)
(0.48426669 0.00041744287 0)
(0.48042179 0.00031362583 0)
(0.47725284 0.00020967753 0)
(0.47474314 0.0001152666 0)
(0.47286104 3.1133529e-05 0)
(0.4715604 -4.1481945e-05 0)
(0.47077505 -0.00010007324 0)
(0.47040893 -0.00014240589 0)
(0.47037489 -0.00017118403 0)
(0.47056387 -0.00018580732 0)
(0.47080982 -0.00017840533 0)
(0.4709426 -0.00015050148 0)
(0.47082908 -0.00010275724 0)
(0.47039263 -6.1675008e-05 0)
(0.46961915 -1.4911926e-05 0)
(0.46851428 2.6081578e-05 0)
(0.46711546 6.0106671e-05 0)
(0.46546978 8.5987927e-05 0)
(0.46363069 0.00010421284 0)
(0.461648 0.00011597904 0)
(0.45956698 0.00012244591 0)
(0.45742607 0.00012502891 0)
(0.45525566 0.0001248318 0)
(0.45307926 0.00012268315 0)
(0.4509148 0.00011926403 0)
(0.44877377 0.00011515819 0)
(0.44666504 0.00011056809 0)
(0.44459613 0.00010571363 0)
(0.44256983 0.00010096414 0)
(0.44058667 9.6363378e-05 0)
(0.43864244 9.2933619e-05 0)
(0.43672859 9.0713724e-05 0)
(0.43483809 8.8341197e-05 0)
(0.43296657 8.5789768e-05 0)
(0.43110989 8.3233351e-05 0)
(0.42926514 8.0865263e-05 0)
(0.42742687 7.8824794e-05 0)
(0.42559091 7.6902629e-05 0)
(0.42375422 7.5141631e-05 0)
(0.42191486 7.339869e-05 0)
(0.42007255 7.1675135e-05 0)
(0.41822691 6.9949146e-05 0)
(0.4163791 6.8176125e-05 0)
(0.41452959 6.6426511e-05 0)
(0.41267936 6.4638238e-05 0)
(0.41082882 6.2871095e-05 0)
(0.40898019 6.1157801e-05 0)
(0.40712746 5.9421956e-05 0)
(0.40528692 5.819698e-05 0)
(0.40339549 5.5983159e-05 0)
(0.40163539 5.921412e-05 0)
(0.3994511 0.00010733155 0)
(0.39791797 0.00015713534 0)
(0.39438319 0.00010651023 0)
(0.97240701 0.025563796 0)
(0.977765 0.032401244 0)
(0.98585483 0.036409152 0)
(0.9941629 0.037070824 0)
(1.0012437 0.034670259 0)
(1.0055972 0.030637569 0)
(1.0079369 0.026373727 0)
(1.0070877 0.022757587 0)
(1.0052791 0.020142126 0)
(1.0027711 0.018353841 0)
(0.9995647 0.01701746 0)
(0.99556012 0.015923881 0)
(0.99026804 0.014971704 0)
(0.98359785 0.014078944 0)
(0.97556437 0.01322622 0)
(0.96629138 0.012373637 0)
(0.95567829 0.011537552 0)
(0.9441767 0.010747079 0)
(0.93198318 0.010009849 0)
(0.91924038 0.0093174837 0)
(0.90606446 0.0086712409 0)
(0.89255831 0.0080774128 0)
(0.87879912 0.0075276742 0)
(0.86487297 0.0070122614 0)
(0.85086417 0.0065306799 0)
(0.83684084 0.0060851649 0)
(0.82286112 0.0056702675 0)
(0.80897967 0.0052809757 0)
(0.79524389 0.0049173932 0)
(0.78169028 0.0045795134 0)
(0.7683501 0.0042633719 0)
(0.75525407 0.0039657492 0)
(0.74242992 0.003686098 0)
(0.72990111 0.0034232518 0)
(0.71769103 0.0031742919 0)
(0.70582754 0.0029369388 0)
(0.69433931 0.0027108581 0)
(0.68324324 0.002495111 0)
(0.67255787 0.0022875339 0)
(0.66230673 0.0020864875 0)
(0.65251638 0.0018912728 0)
(0.64321525 0.0017008458 0)
(0.63443599 0.0015139553 0)
(0.62621063 0.001329725 0)
(0.61859088 0.0011468209 0)
(0.61159427 0.00096990778 0)
(0.60521763 0.00079246013 0)
(0.59945888 0.00062193406 0)
(0.59431106 0.0004662212 0)
(0.58976446 0.00032290128 0)
(0.58579992 0.00019451424 0)
(0.58238544 8.3330661e-05 0)
(0.57946352 -7.1453277e-06 0)
(0.57695149 -7.4531039e-05 0)
(0.57479693 -0.0001207596 0)
(0.57284983 -0.00014198607 0)
(0.57093224 -0.0001342456 0)
(0.56893523 -9.980434e-05 0)
(0.56680355 -3.8529278e-05 0)
(0.5645093 8.1333727e-06 0)
(0.56205901 6.4860166e-05 0)
(0.55945756 0.0001139452 0)
(0.55672578 0.00015405122 0)
(0.55388687 0.00018390126 0)
(0.55096882 0.00020413325 0)
(0.54799897 0.00021620657 0)
(0.54500393 0.00022154339 0)
(0.54200773 0.0002219079 0)
(0.53903026 0.00021870271 0)
(0.53608757 0.0002130086 0)
(0.53319202 0.00020573403 0)
(0.53035141 0.00019762422 0)
(0.52757301 0.0001889471 0)
(0.5248622 0.00018003086 0)
(0.52222006 0.00017137822 0)
(0.5196456 0.00016311037 0)
(0.51713287 0.00015638748 0)
(0.51469015 0.00015117613 0)
(0.51230636 0.00014600634 0)
(0.50996895 0.00014095933 0)
(0.50766889 0.00013615344 0)
(0.50540065 0.00013175059 0)
(0.5031576 0.00012789357 0)
(0.50093425 0.00012430555 0)
(0.4987263 0.00012101644 0)
(0.49653051 0.00011782842 0)
(0.49434526 0.00011472696 0)
(0.49216903 0.00011167192 0)
(0.49000178 0.00010859935 0)
(0.48784308 0.00010559242 0)
(0.4856929 0.00010257199 0)
(0.48355099 9.9601812e-05 0)
(0.48141879 9.6747354e-05 0)
(0.47928958 9.3859883e-05 0)
(0.47717904 9.1805615e-05 0)
(0.4750235 8.8176101e-05 0)
(0.4729996 9.2007141e-05 0)
(0.47057836 0.00014294156 0)
(0.46878305 0.00019736327 0)
(0.46489762 0.00015423205 0)
(0.97459577 0.02451189 0)
(0.97928752 0.030794875 0)
(0.98636019 0.034469726 0)
(0.99377313 0.035114089 0)
(1.0001696 0.033235085 0)
(1.0047967 0.02979715 0)
(1.0072907 0.025983486 0)
(1.008277 0.022699714 0)
(1.0079532 0.020248594 0)
(1.0074006 0.018529488 0)
(1.006771 0.017263346 0)
(1.0060145 0.016264678 0)
(1.0049838 0.015424426 0)
(1.0035648 0.014654526 0)
(1.0016437 0.013930351 0)
(0.9991549 0.013260148 0)
(0.99586227 0.012639445 0)
(0.99171232 0.012045564 0)
(0.98669014 0.011470974 0)
(0.98080989 0.010899088 0)
(0.97400538 0.010331059 0)
(0.96646644 0.0097845434 0)
(0.95828022 0.0092597572 0)
(0.94951146 0.0087545235 0)
(0.94021741 0.0082711092 0)
(0.93045427 0.0078126098 0)
(0.92028133 0.0073747741 0)
(0.90975498 0.0069536859 0)
(0.89893231 0.0065506166 0)
(0.88786948 0.0061667927 0)
(0.8766209 0.0057991887 0)
(0.86524153 0.0054456793 0)
(0.85378381 0.005107119 0)
(0.84229444 0.0047833385 0)
(0.83081798 0.0044718634 0)
(0.81939978 0.0041707337 0)
(0.80808488 0.0038797019 0)
(0.79691792 0.0035981297 0)
(0.78594256 0.0033243711 0)
(0.77520277 0.0030570597 0)
(0.76474217 0.0027956566 0)
(0.75460429 0.0025390429 0)
(0.74483578 0.0022858845 0)
(0.73548297 0.002034366 0)
(0.72662488 0.0017880627 0)
(0.7181993 0.0015468627 0)
(0.71021297 0.0013128433 0)
(0.70270941 0.0010879468 0)
(0.6957162 0.00087584658 0)
(0.68924203 0.00068078454 0)
(0.68327755 0.00050557284 0)
(0.67779432 0.00035335698 0)
(0.67273795 0.00022813623 0)
(0.66805435 0.00013054998 0)
(0.66374334 6.4841553e-05 0)
(0.65952603 3.5194282e-05 0)
(0.65527384 3.9343443e-05 0)
(0.65101395 7.0989164e-05 0)
(0.64677286 0.00013142551 0)
(0.64255147 0.00017372968 0)
(0.63836202 0.00022761372 0)
(0.63420245 0.00027388456 0)
(0.63007539 0.0003107751 0)
(0.62598256 0.00033688762 0)
(0.62193024 0.00035283053 0)
(0.61792574 0.00036008605 0)
(0.61397767 0.00036011144 0)
(0.61009506 0.00035479891 0)
(0.60628622 0.00034566423 0)
(0.60255834 0.00033389587 0)
(0.59891761 0.00032050988 0)
(0.59536845 0.00030637536 0)
(0.59191332 0.00029180713 0)
(0.58855413 0.00027718779 0)
(0.58528971 0.00026311987 0)
(0.58211731 0.00024978774 0)
(0.57903057 0.00023820007 0)
(0.57603192 0.00022834931 0)
(0.57311659 0.00021902622 0)
(0.57027411 0.00021032038 0)
(0.56749413 0.00020222558 0)
(0.56476946 0.0001948412 0)
(0.56209243 0.00018829553 0)
(0.55945655 0.00018224271 0)
(0.5568564 0.00017669253 0)
(0.55428749 0.00017139174 0)
(0.55174682 0.00016630402 0)
(0.54923154 0.00016136591 0)
(0.54674027 0.00015648989 0)
(0.54427133 0.00015176097 0)
(0.54182393 0.00014708323 0)
(0.53939659 0.00014252252 0)
(0.53698954 0.00013817699 0)
(0.53459527 0.00013380998 0)
(0.53222815 0.00013064802 0)
(0.52982554 0.00012532031 0)
(0.52755397 0.00012934537 0)
(0.5249179 0.0001803138 0)
(0.52288885 0.00023673491 0)
(0.51869485 0.0001939223 0)
(0.97656777 0.023526173 0)
(0.98072779 0.029152999 0)
(0.98698559 0.032518181 0)
(0.99360353 0.033276764 0)
(0.99941322 0.031816305 0)
(1.0037275 0.028882304 0)
(1.0062753 0.025505747 0)
(1.0074303 0.022522816 0)
(1.0077468 0.02023691 0)
(1.0077257 0.018571906 0)
(1.0076281 0.017318752 0)
(1.0075242 0.016318551 0)
(1.0074043 0.015484628 0)
(1.0072238 0.014744938 0)
(1.0069207 0.01407158 0)
(1.0064555 0.01346364 0)
(1.0057825 0.012910119 0)
(1.0048465 0.012387261 0)
(1.0035879 0.011890323 0)
(1.0019532 0.011423767 0)
(0.99981218 0.01098326 0)
(0.99711138 0.010556065 0)
(0.99382565 0.010137149 0)
(0.98993005 0.0097187865 0)
(0.98538066 0.009302744 0)
(0.98025703 0.0088971307 0)
(0.9745866 0.0085004278 0)
(0.96839473 0.0081111342 0)
(0.9617059 0.0077317991 0)
(0.95454526 0.0073637963 0)
(0.94694244 0.0070039498 0)
(0.93893349 0.0066502556 0)
(0.93055563 0.0063046114 0)
(0.92183765 0.0059674856 0)
(0.91281687 0.0056364105 0)
(0.90353359 0.0053098729 0)
(0.89402794 0.0049887723 0)
(0.88434709 0.0046731575 0)
(0.87454059 0.0043613791 0)
(0.86465978 0.0040523081 0)
(0.85475699 0.003745903 0)
(0.84488588 0.0034414562 0)
(0.835103 0.0031379432 0)
(0.82546787 0.0028337964 0)
(0.81604615 0.0025314499 0)
(0.8068763 0.0022359284 0)
(0.79796084 0.0019519741 0)
(0.78933314 0.0016798704 0)
(0.78102831 0.0014209463 0)
(0.7730729 0.0011798724 0)
(0.76548002 0.0009607659 0)
(0.75824518 0.00076821858 0)
(0.75134218 0.00060668934 0)
(0.74476654 0.00047540911 0)
(0.73854029 0.00038083292 0)
(0.7324708 0.00033306109 0)
(0.72646183 0.0003268821 0)
(0.72053651 0.00034847818 0)
(0.71471371 0.00039701394 0)
(0.70899062 0.00042923718 0)
(0.70338652 0.00047132048 0)
(0.69790384 0.00050627673 0)
(0.69254176 0.00053232906 0)
(0.68729764 0.00054799538 0)
(0.68217324 0.00055380277 0)
(0.67716863 0.00055123528 0)
(0.67228341 0.00054169637 0)
(0.66751855 0.00052706698 0)
(0.66287544 0.00050885594 0)
(0.65835504 0.0004882723 0)
(0.65395867 0.00046635054 0)
(0.64968796 0.00044398767 0)
(0.64554176 0.0004215152 0)
(0.6415191 0.00039936605 0)
(0.63761673 0.00037821119 0)
(0.63383023 0.00035825758 0)
(0.63015315 0.0003404191 0)
(0.62658288 0.00032465418 0)
(0.62311643 0.00030987089 0)
(0.61974641 0.00029621979 0)
(0.61646357 0.00028362785 0)
(0.61326042 0.00027213986 0)
(0.61012886 0.00026186265 0)
(0.60706168 0.00025238111 0)
(0.60405264 0.00024368078 0)
(0.60109613 0.00023545308 0)
(0.5981879 0.00022763565 0)
(0.59532381 0.00022013716 0)
(0.59250105 0.00021284204 0)
(0.58971668 0.00020583017 0)
(0.58696881 0.00019898408 0)
(0.58425473 0.00019236591 0)
(0.58157334 0.00018610651 0)
(0.57891631 0.00017987105 0)
(0.57629642 0.00017525657 0)
(0.57365259 0.00016791622 0)
(0.57114036 0.00017171232 0)
(0.56829459 0.00022101027 0)
(0.56604901 0.00027880972 0)
(0.56156405 0.00023584189 0)
(0.97836728 0.022613005 0)
(0.98206894 0.027632225 0)
(0.98761449 0.030751418 0)
(0.9935551 0.031604779 0)
(0.99886276 0.030477261 0)
(1.0029001 0.02799491 0)
(1.0054252 0.025028922 0)
(1.0066722 0.022315608 0)
(1.007155 0.020161841 0)
(1.0073244 0.018543472 0)
(1.0074165 0.017305877 0)
(1.0074969 0.016311584 0)
(1.0075622 0.015478939 0)
(1.0076326 0.014744784 0)
(1.007673 0.014082382 0)
(1.0076599 0.013485979 0)
(1.0076024 0.012946473 0)
(1.0074841 0.012446453 0)
(1.0072794 0.011980616 0)
(1.0069659 0.011550458 0)
(1.0065144 0.011149033 0)
(1.0058869 0.010764595 0)
(1.0050446 0.010394772 0)
(1.0039419 0.010042156 0)
(1.0025002 0.0097039713 0)
(1.0006774 0.0093737383 0)
(0.99844427 0.009046995 0)
(0.99576265 0.0087195151 0)
(0.99260878 0.0083933304 0)
(0.9890092 0.0080715828 0)
(0.98496567 0.0077525278 0)
(0.98047793 0.0074347861 0)
(0.9755489 0.0071197642 0)
(0.97018729 0.0068080872 0)
(0.96440223 0.0064975809 0)
(0.95820694 0.0061866446 0)
(0.95161598 0.0058759278 0)
(0.94464695 0.0055653279 0)
(0.93731492 0.0052533139 0)
(0.9296412 0.0049387274 0)
(0.92165504 0.0046215781 0)
(0.91338995 0.0043012726 0)
(0.90488327 0.0039767119 0)
(0.89618136 0.0036464593 0)
(0.88731396 0.0033145294 0)
(0.87841524 0.0029863897 0)
(0.86953371 0.0026663271 0)
(0.86068607 0.0023568309 0)
(0.85190156 0.0020599287 0)
(0.8432171 0.0017804228 0)
(0.8346735 0.0015230224 0)
(0.82631018 0.0012932429 0)
(0.81816088 0.0010965465 0)
(0.81024773 0.00093217942 0)
(0.80256457 0.00080721708 0)
(0.79520627 0.00073726124 0)
(0.78803457 0.00071333887 0)
(0.781033 0.00071682704 0)
(0.77414982 0.00074584635 0)
(0.76736245 0.00076333796 0)
(0.76070142 0.00078810373 0)
(0.75417287 0.00080645823 0)
(0.74777808 0.00081668059 0)
(0.74152521 0.00081704091 0)
(0.73542561 0.0008081137 0)
(0.72948079 0.00079156093 0)
(0.72369047 0.00076868762 0)
(0.71805673 0.00074130832 0)
(0.71257991 0.00071093825 0)
(0.7072584 0.00067877126 0)
(0.70209125 0.00064577701 0)
(0.69707845 0.0006128618 0)
(0.69221804 0.00058037963 0)
(0.68750764 0.0005487731 0)
(0.68294258 0.00051875489 0)
(0.67851714 0.00049051949 0)
(0.67422488 0.00046493365 0)
(0.67006073 0.00044189057 0)
(0.66602121 0.00042028994 0)
(0.66210065 0.00040034456 0)
(0.65829137 0.00038195342 0)
(0.65458648 0.00036512786 0)
(0.65097792 0.00034995953 0)
(0.64745809 0.00033596789 0)
(0.64402011 0.00032311357 0)
(0.64065747 0.00031103389 0)
(0.63736476 0.00029963799 0)
(0.6341366 0.00028880317 0)
(0.63096882 0.00027838185 0)
(0.62785715 0.0002684404 0)
(0.62479826 0.00025883657 0)
(0.62178828 0.00024962637 0)
(0.61882487 0.00024096846 0)
(0.61589882 0.00023242211 0)
(0.6130212 0.00022595497 0)
(0.61013248 0.0002162509 0)
(0.60737788 0.00021943072 0)
(0.60431694 0.0002660966 0)
(0.60186049 0.00032565021 0)
(0.59708353 0.00028095029 0)
(0.98001133 0.021775857 0)
(0.98332172 0.026247313 0)
(0.98823317 0.029131455 0)
(0.99355959 0.030040698 0)
(0.99840794 0.029192883 0)
(1.0022012 0.02711358 0)
(1.0046951 0.024524526 0)
(1.0060413 0.02206599 0)
(1.0066519 0.020047473 0)
(1.0069265 0.018486716 0)
(1.0070966 0.017270097 0)
(1.0072433 0.01628291 0)
(1.0073809 0.015451794 0)
(1.0075118 0.014722149 0)
(1.0076238 0.014066617 0)
(1.0077143 0.013475014 0)
(1.0077837 0.012938519 0)
(1.0078518 0.0124433 0)
(1.0078879 0.011985227 0)
(1.0078856 0.011563502 0)
(1.007853 0.011171753 0)
(1.0077779 0.010802074 0)
(1.0076441 0.010451658 0)
(1.0074346 0.010121293 0)
(1.0071293 0.0098073481 0)
(1.0067014 0.0095042792 0)
(1.0061245 0.0092105528 0)
(1.0053598 0.0089263875 0)
(1.0043579 0.0086498228 0)
(1.0030846 0.0083775421 0)
(1.0015157 0.008105778 0)
(0.99960677 0.0078316715 0)
(0.99734386 0.0075573312 0)
(0.99473031 0.0072838608 0)
(0.99175582 0.0070092893 0)
(0.98840796 0.006732194 0)
(0.98467625 0.0064528771 0)
(0.98055117 0.0061707338 0)
(0.97602795 0.0058840323 0)
(0.97110305 0.0055918109 0)
(0.96577206 0.0052940104 0)
(0.96003085 0.004989797 0)
(0.95387605 0.0046776168 0)
(0.94730934 0.0043567902 0)
(0.94032114 0.0040297285 0)
(0.93294331 0.0036977615 0)
(0.92525827 0.0033669817 0)
(0.917315 0.0030431603 0)
(0.90915309 0.0027297029 0)
(0.90081267 0.002431151 0)
(0.89234218 0.0021520399 0)
(0.88380058 0.001897892 0)
(0.87525805 0.001674003 0)
(0.86676491 0.0014812704 0)
(0.85831999 0.0013264607 0)
(0.85012134 0.0012217058 0)
(0.84223339 0.0011651592 0)
(0.83458472 0.0011462427 0)
(0.82700383 0.0011553857 0)
(0.81950399 0.001157406 0)
(0.81211639 0.0011640107 0)
(0.80482129 0.0011647807 0)
(0.7976273 0.0011573369 0)
(0.790562 0.0011399767 0)
(0.78364325 0.0011137782 0)
(0.77687365 0.001080648 0)
(0.77026211 0.0010417042 0)
(0.76381981 0.0009988235 0)
(0.75754908 0.00095370247 0)
(0.75144971 0.00090749658 0)
(0.74552358 0.00086107587 0)
(0.73977207 0.0008153839 0)
(0.73419342 0.00077079986 0)
(0.7287857 0.00072776712 0)
(0.72354449 0.0006870372 0)
(0.71846395 0.00064877464 0)
(0.71353837 0.00061380514 0)
(0.70876248 0.00058195728 0)
(0.70413232 0.00055207648 0)
(0.69964289 0.00052440921 0)
(0.6952879 0.00049883049 0)
(0.69106141 0.00047533606 0)
(0.6869558 0.00045401459 0)
(0.68296347 0.00043432698 0)
(0.67907713 0.00041621197 0)
(0.67528957 0.0003992548 0)
(0.67159444 0.00038333497 0)
(0.66798525 0.0003682961 0)
(0.66445659 0.00035395525 0)
(0.66100293 0.00034036121 0)
(0.6576195 0.00032734196 0)
(0.6543012 0.00031493999 0)
(0.65104446 0.00030333742 0)
(0.64783917 0.00029198267 0)
(0.64469469 0.00028320975 0)
(0.64155283 0.00027074625 0)
(0.63854967 0.00027292562 0)
(0.63526374 0.00031638711 0)
(0.6325951 0.00037856463 0)
(0.62751595 0.00032977982 0)
(0.98151312 0.02100069 0)
(0.98448665 0.024976 0)
(0.98883752 0.02762689 0)
(0.99360664 0.028569263 0)
(0.99802899 0.027961995 0)
(1.0015848 0.02623761 0)
(1.0040313 0.02399129 0)
(1.005458 0.02177837 0)
(1.0061905 0.01990152 0)
(1.0065707 0.018408773 0)
(1.0068137 0.017220652 0)
(1.0070072 0.016244486 0)
(1.0071774 0.015416884 0)
(1.0073326 0.01469095 0)
(1.0074722 0.014039774 0)
(1.0075954 0.013451823 0)
(1.007705 0.012918 0)
(1.0078042 0.012426915 0)
(1.0078878 0.011973416 0)
(1.0079597 0.011554489 0)
(1.0080187 0.011164894 0)
(1.0080773 0.010798048 0)
(1.0081172 0.010452443 0)
(1.0081266 0.010127982 0)
(1.0081146 0.00982078 0)
(1.0080716 0.0095275168 0)
(1.0079882 0.0092464748 0)
(1.0078506 0.0089764335 0)
(1.007644 0.0087155342 0)
(1.0073485 0.0084611111 0)
(1.006945 0.0082122681 0)
(1.006401 0.0079682467 0)
(1.0056832 0.0077273166 0)
(1.0047645 0.0074876016 0)
(1.0036245 0.007246045 0)
(1.0022194 0.0070005284 0)
(1.000543 0.0067520948 0)
(0.99857995 0.0065007731 0)
(0.99631342 0.0062451748 0)
(0.993725 0.0059838753 0)
(0.99079473 0.0057164552 0)
(0.98750082 0.0054421688 0)
(0.98381962 0.0051593302 0)
(0.97972573 0.004867387 0)
(0.97518972 0.0045673583 0)
(0.97017353 0.0042593949 0)
(0.96467489 0.0039486525 0)
(0.9587124 0.0036399306 0)
(0.95230108 0.0033367764 0)
(0.94545863 0.0030438184 0)
(0.93821148 0.0027653316 0)
(0.93059899 0.0025062272 0)
(0.92267864 0.00227191 0)
(0.9145197 0.002065886 0)
(0.90616645 0.001891957 0)
(0.89774868 0.0017602746 0)
(0.8894953 0.001673593 0)
(0.88143206 0.0016232512 0)
(0.87353926 0.0016051693 0)
(0.86578212 0.0015902922 0)
(0.85808745 0.0015821087 0)
(0.8503829 0.0015680637 0)
(0.84272789 0.0015437259 0)
(0.83515994 0.0015089392 0)
(0.8276766 0.0014655277 0)
(0.82029238 0.001415026 0)
(0.81303788 0.0013586357 0)
(0.80593168 0.0012987418 0)
(0.79897757 0.0012372563 0)
(0.79218451 0.0011752015 0)
(0.7855637 0.0011134444 0)
(0.77911975 0.0010531138 0)
(0.77285328 0.00099459491 0)
(0.76676632 0.00093830864 0)
(0.76085747 0.00088508877 0)
(0.75512285 0.0008350686 0)
(0.74955961 0.00078902308 0)
(0.74416452 0.00074674701 0)
(0.73893407 0.00070703868 0)
(0.73386412 0.00067015084 0)
(0.72894982 0.00063592535 0)
(0.72418637 0.00060435537 0)
(0.71956696 0.00057553634 0)
(0.7150845 0.00054887889 0)
(0.71073165 0.00052430733 0)
(0.70650081 0.00050135745 0)
(0.702385 0.00047987915 0)
(0.69837692 0.0004596818 0)
(0.6944701 0.00044054468 0)
(0.69065787 0.00042249615 0)
(0.6869342 0.00040532991 0)
(0.68329278 0.00038906804 0)
(0.67972881 0.00037391081 0)
(0.67623132 0.00035919171 0)
(0.67280796 0.00034760537 0)
(0.66940164 0.00033193558 0)
(0.66614058 0.00033270756 0)
(0.66261753 0.00037254532 0)
(0.65973069 0.00043842481 0)
(0.65433394 0.00038282511 0)
(0.982886 0.020276353 0)
(0.98556696 0.023806749 0)
(0.989425 0.026233715 0)
(0.99369185 0.027193822 0)
(0.99772033 0.026790652 0)
(1.0010439 0.025375 0)
(1.0034254 0.023438269 0)
(1.0049075 0.021458982 0)
(1.0057431 0.019724717 0)
(1.0062212 0.018305983 0)
(1.0065377 0.017152939 0)
(1.0067823 0.016193314 0)
(1.0069872 0.015373622 0)
(1.0071662 0.014653659 0)
(1.007324 0.014007926 0)
(1.0074628 0.013424173 0)
(1.0075866 0.012893424 0)
(1.0076992 0.012405586 0)
(1.0078012 0.011954858 0)
(1.0078943 0.011537885 0)
(1.0079805 0.011149814 0)
(1.008061 0.010785231 0)
(1.0081324 0.010442371 0)
(1.0081963 0.010119832 0)
(1.0082534 0.0098145401 0)
(1.008303 0.0095229224 0)
(1.0083539 0.0092443337 0)
(1.0083745 0.008978557 0)
(1.0083794 0.0087226382 0)
(1.0083612 0.0084750046 0)
(1.0083133 0.0082348674 0)
(1.0082252 0.0080004019 0)
(1.0080852 0.0077700828 0)
(1.0078778 0.0075425009 0)
(1.0075888 0.0073173812 0)
(1.0071902 0.0070933193 0)