/*--------------------------------*- C++ -*----------------------------------*\
| =========                 |                                                 |
| \\      /  F ield         | OpenFOAM: The Open Source CFD Toolbox           |
|  \\    /   O peration     | Version:  2206                                  |
|   \\  /    A nd           | Website:  www.openfoam.com                      |
|    \\/     M anipulation  |                                                 |
\*---------------------------------------------------------------------------*/
FoamFile
{
    version     2.0;
    format      ascii;
    arch        "LSB;label=32;scalar=64";
    class       volScalarField;
    location    "700";
    object      epsilon;
}
// * * * * * * * * * * * * * * * * * * * * * * * * * * * * * * * * * * * * * //

dimensions      [0 2 -3 0 0 0 0];

internalField   nonuniform List<scalar> 
7480
(
5.7722248
15.517395
18.080449
15.975556
12.850241
10.348671
8.6610123
7.5081779
6.6616664
5.9974726
5.4588063
5.0174678
4.6544302
4.3546207
4.1058286
3.8977799
3.7228454
3.5752671
3.4496177
3.3427055
3.2496212
3.1677727
3.0949058
3.0291534
2.9692869
2.9143067
2.8635215
2.8162517
2.7718994
2.7299755
2.6901984
2.6523692
2.6162797
2.5817577
2.5486078
2.5167469
2.4859079
2.4560457
2.4270826
2.3989182
2.3714791
2.3447011
2.318535
2.2929485
2.2679005
2.2433653
2.2193069
2.1956864
2.1724818
2.1496703
2.1272337
2.1051599
2.0834338
2.062047
2.0409852
2.0202381
1.999797
1.9796489
1.9597819
1.9401876
1.9208637
1.9018063
1.8830089
1.8644659
1.8461729
1.8281254
1.8103164
1.7927404
1.7753938
1.7582734
1.7413749
1.7246943
1.708228
1.6919735
1.6759266
1.6600834
1.6444401
1.6289931
1.6137392
1.5986749
1.5837968
1.5691012
1.5545846
1.5402429
1.5260726
1.5120687
1.498227
1.4845408
1.4710058
1.457609
1.4443511
1.4311924
1.4181728
1.4051293
1.3923099
1.3790206
1.3663283
1.3516911
1.3400294
1.3181106
0.34573142
1.5981846
2.8398417
3.2968699
3.1715906
2.8628496
2.5614005
2.3165596
2.1176164
1.9474064
1.7989663
1.6706792
1.5611493
1.4681848
1.38935
1.3219537
1.2642012
1.2147264
1.1722034
1.1353504
1.1030543
1.0744031
1.0486615
1.0252932
1.0039347
0.98427363
0.96609357
0.94915268
0.93324672
0.91821658
0.90396717
0.89042867
0.87752917
0.86520597
0.85338456
0.84204151
0.83107305
0.82046845
0.81020234
0.80023719
0.79054369
0.78110005
0.77188855
0.76289531
0.75410565
0.74550944
0.73709259
0.72884159
0.72074694
0.71280074
0.70499641
0.69732843
0.68979136
0.68238094
0.67509201
0.66792068
0.66086313
0.65391451
0.64707012
0.64032696
0.63368365
0.62713854
0.62068893
0.61433256
0.60806762
0.60189225
0.59580375
0.58979998
0.58387954
0.57804102
0.57228277
0.56660315
0.56100077
0.55547456
0.55002294
0.54464435
0.53933737
0.53410069
0.52893301
0.52383305
0.51879952
0.51383113
0.50892657
0.50408443
0.49930338
0.49458188
0.4899184
0.48531097
0.48075796
0.47625598
0.47180413
0.46739346
0.46303012
0.45867986
0.45438872
0.450013
0.44575816
0.44108198
0.43709805
0.4300058
0.010374669
0.06330567
0.16340166
0.28124515
0.38460969
0.47574586
0.55935639
0.6308487
0.68651029
0.72773443
0.75613695
0.77249923
0.77815393
0.7753416
0.76665072
0.75447191
0.74047054
0.72563557
0.71055848
0.69555857
0.68085023
0.66656423
0.65275429
0.6394735
0.62676074
0.61460266
0.60304831
0.59202688
0.58148932
0.57139495
0.56172976
0.55247488
0.54360396
0.53509151
0.52689913
0.51902342
0.51140373
0.50404325
0.49692692
0.49003265
0.48334277
0.47684422
0.47052589
0.4643776
0.45838915
0.45255297
0.44685867
0.44129728
0.43586158
0.43054552
0.42534401
0.42025199
0.41526485
0.41037842
0.40558834
0.4008912
0.39628331
0.39176076
0.38731978
0.38295777
0.37867283
0.37446293
0.3703256
0.36625864
0.36226021
0.35832843
0.35446103
0.35065615
0.34691236
0.34322821
0.33960219
0.3360328
0.33251874
0.32905887
0.32565181
0.32229623
0.31899091
0.31573472
0.31252654
0.30936529
0.30624988
0.30317927
0.30015241
0.29716824
0.29422571
0.29132373
0.2884612
0.28563686
0.2828495
0.2800974
0.27737931
0.27469174
0.27203496
0.26939754
0.26679016
0.26416714
0.26158261
0.25885163
0.2564076
0.25220027
0.000387002
0.0025233863
0.0090251957
0.019085003
0.031865045
0.046990281
0.066625851
0.090913819
0.12639398
0.17011431
0.21718612
0.26293366
0.30599283
0.3453486
0.37975377
0.40810438
0.42992733
0.44550232
0.4556822
0.4615163
0.4639782
0.46386132
0.46178525
0.45823854
0.4536249
0.44824906
0.44237294
0.43617953
0.42979576
0.42332179
0.416834
0.4103903
0.40403067
0.39778512
0.39166264
0.38568886
0.37982872
0.37411694
0.36854787
0.36311953
0.35782889
0.35267309
0.34764913
0.34275344
0.33798162
0.33333031
0.32879342
0.32436622
0.32004442
0.31582421
0.31170217
0.30767464
0.30373823
0.29988962
0.2961253
0.29244237
0.28883771
0.28530812
0.28185053
0.27846263
0.27514246
0.27188801
0.26869701
0.26556738
0.26249734
0.25948502
0.2565284
0.25362576
0.25077566
0.24797663
0.24522723
0.24252601
0.23987169
0.23726308
0.23469888
0.23217785
0.22969883
0.22726073
0.22486249
0.22250308
0.22018151
0.21789679
0.21564797
0.21343409
0.21125422
0.20910742
0.20699274
0.2049092
0.20285575
0.20083125
0.19883447
0.19686372
0.19491765
0.19299235
0.1910877
0.18919011
0.18730694
0.18537172
0.18358577
0.18058134
4.5342511e-05
0.00015084996
0.00053625791
0.0014147792
0.0028927846
0.0048836702
0.0073945875
0.010598582
0.015117924
0.021833671
0.031395597
0.046250352
0.066510208
0.09097647
0.11830252
0.1473173
0.17712494
0.20655038
0.23416203
0.25861973
0.27906484
0.29527619
0.30754256
0.31640122
0.32242945
0.3261363
0.32796813
0.32830997
0.32748734
0.32576328
0.32334658
0.32040586
0.31707583
0.31346303
0.30964845
0.30570826
0.30167086
0.2975868
0.29348852
0.2893982
0.28533325
0.28130827
0.27733446
0.27342007
0.26957087
0.26579209
0.26208489
0.25845011
0.25488812
0.25139919
0.24798344
0.24464019
0.24136852
0.2381672
0.23503464
0.23196941
0.22896971
0.2260336
0.22315901
0.22034438
0.21758834
0.21488939
0.21224581
0.20965602
0.2071185
0.2046317
0.20219398
0.19980388
0.19746013
0.19516145
0.19290655
0.19069415
0.18852308
0.18639223
0.18430044
0.18224658
0.18022961
0.17824853
0.17630234
0.17439013
0.17251095
0.17066393
0.16884818
0.16706285
0.16530708
0.16358006
0.16188093
0.16020887
0.15856299
0.15694241
0.15534602
0.15377295
0.15222136
0.15069056
0.14917644
0.14767876
0.14618739
0.14468526
0.14327792
0.14093444
2.226574e-05
3.4426445e-05
6.9246885e-05
0.00014663358
0.00029474939
0.00054018831
0.00090726469
0.0014170506
0.0021027989
0.0030384485
0.0043194671
0.0062057228
0.0090154104
0.013072196
0.019226125
0.028528803
0.041023052
0.056726886
0.075154207
0.095761445
0.1178175
0.14027443
0.16186788
0.18145196
0.19829623
0.21216553
0.22319921
0.23171522
0.23806807
0.24259001
0.24558252
0.24731666
0.24802734
0.24791143
0.24713064
0.24582703
0.24410116
0.24204511
0.23973481
0.23723014
0.23457941
0.23182218
0.22899085
0.2261119
0.22320628
0.22029175
0.21738171
0.21448654
0.21161451
0.20877235
0.20596549
0.2031979
0.20047275
0.19779235
0.19515822
0.19257167
0.190033
0.18754217
0.18509884
0.18270278
0.18035372
0.17805116
0.17579433
0.1735824
0.17141455
0.16928986
0.16720726
0.16516576
0.16316447
0.16120245
0.15927871
0.15739224
0.15554213
0.1537275
0.15194738
0.15020083
0.14848698
0.14680496
0.14515394
0.1435331
0.14194164
0.14037877
0.13884373
0.13733577
0.13585413
0.1343981
0.13296693
0.13155993
0.13017631
0.12881541
0.12747623
0.12615834
0.12485982
0.12358147
0.12231786
0.12107448
0.11983511
0.11860409
0.11744625
0.11552043
1.8866317e-05
2.1796057e-05
2.8208427e-05
4.0484053e-05
6.1769138e-05
9.6005523e-05
0.0001483353
0.00022526776
0.00033489952
0.00048906784
0.00070251225
0.0010007071
0.0014233644
0.0020202386
0.0028806849
0.0041712394
0.0060858249
0.0088497745
0.013159516
0.019650206
0.028584078
0.040159042
0.054065749
0.069949322
0.087160029
0.10476271
0.12170773
0.13712259
0.15050643
0.16172911
0.17089721
0.17821378
0.18390169
0.18818076
0.19126005
0.19333531
0.19457092
0.19510937
0.19507412
0.19456912
0.19368125
0.19248314
0.1910355
0.18938925
0.18758646
0.18566251
0.18364664
0.18156266
0.17943016
0.17726542
0.17508184
0.17289048
0.17070037
0.16851889
0.16635205
0.16420476
0.16208087
0.1599833
0.15791423
0.15587545
0.15386837
0.15189408
0.14995315
0.14804597
0.14617282
0.1443337
0.14252831
0.14075639
0.13901765
0.13731169
0.13563801
0.13399605
0.13238523
0.13080499
0.12925469
0.12773368
0.12624129
0.1247769
0.12333985
0.12192952
0.12054527
0.11918645
0.11785244
0.11654262
0.11525637
0.11399307
0.11275211
0.11153291
0.11033481
0.10915729
0.10799948
0.1068612
0.10574068
0.10463934
0.10355162
0.10248527
0.10142289
0.10037742
0.099397302
0.097760494
1.7923072e-05
1.9132974e-05
2.1130591e-05
2.4407039e-05
2.9557062e-05
3.7237461e-05
4.8250186e-05
6.3648165e-05
8.4814198e-05
0.00011372456
0.00015308328
0.00020687437
0.00028112262
0.00038437763
0.00052893372
0.00073545756
0.0010345111
0.0014633693
0.0020982546
0.0030643034
0.0045269988
0.0066788015
0.010160673
0.015383843
0.022648674
0.032076112
0.04346246
0.056443038
0.070381632
0.084435666
0.097782217
0.10983437
0.12031585
0.12919123
0.13654936
0.14252749
0.14727631
0.15095011
0.15369849
0.15565776
0.1569486
0.15767659
0.15793301
0.15779653
0.15733411
0.15660285
0.15565135
0.1545205
0.15324463
0.15185265
0.15036881
0.14881353
0.14720393
0.14555434
0.14387683
0.14218145
0.14047664
0.13876932
0.13706516
0.13536883
0.13368425
0.13201464
0.13036255
0.12873003
0.12711875
0.12553003
0.12396479
0.12242372
0.12090736
0.11941607
0.11795005
0.11650932
0.11509383
0.11370346
0.11233798
0.11099713
0.10968058
0.10838799
0.10711897
0.10587313
0.10465005
0.10344929
0.10227039
0.1011129
0.099976346
0.098860265
0.097764175
0.096687621
0.095630079
0.094591156
0.093570143
0.092567008
0.091580191
0.090611363
0.089655336
0.088720434
0.087790302
0.086880268
0.086033529
0.084610006
1.7383184e-05
1.8155132e-05
1.9096729e-05
2.0335688e-05
2.2080464e-05
2.4537925e-05
2.7919515e-05
3.2452737e-05
3.8401553e-05
4.6115856e-05
5.6071443e-05
6.8941185e-05
8.5687399e-05
0.0001077366
0.00013709954
0.0001768507
0.00023177603
0.00030841615
0.00041714303
0.00057502429
0.00080894883
0.0011520548
0.001679635
0.0025049945
0.0037742766
0.0057597153
0.0089602551
0.013691054
0.020222161
0.02850625
0.038360993
0.049361198
0.060859616
0.072143633
0.08263812
0.09201338
0.10015708
0.10708463
0.11286918
0.11760994
0.12141897
0.12441025
0.12669137
0.12836079
0.12950686
0.13020764
0.13053161
0.13053812
0.13027828
0.12979593
0.12912847
0.1283079
0.12736145
0.12631232
0.12518026
0.12398201
0.12273186
0.12144187
0.12012223
0.11878151
0.11742692
0.11606458
0.11469961
0.11333626
0.11197811
0.11062821
0.10928901
0.10796253
0.10665042
0.10535405
0.10407451
0.10281262
0.10156903
0.1003442
0.099138474
0.097952065
0.096785087
0.095637574
0.094509497
0.093400763
0.092311228
0.091240703
0.090188963
0.089155756
0.088140795
0.08714379
0.086164419
0.085202376
0.084257285
0.083328887
0.082416634
0.08152061
0.080639504
0.079775045
0.078922637
0.078090365
0.077263817
0.076457784
0.075715113
0.074456809
1.6922938e-05
1.7517762e-05
1.8145523e-05
1.8801668e-05
1.9556793e-05
2.0521209e-05
2.180036e-05
2.3489324e-05
2.5673821e-05
2.8443704e-05
3.1908575e-05
3.6204504e-05
4.151476e-05
4.8108759e-05
5.6361199e-05
6.6805761e-05
8.0241902e-05
9.7803079e-05
0.00012115739
0.00015287475
0.00019712628
0.00025962582
0.00035028056
0.00048589141
0.00069142686
0.001007047
0.0015107568
0.0023179569
0.0035685809
0.0056594188
0.008917655
0.013617312
0.019845283
0.027505389
0.036306519
0.045746895
0.055227195
0.064229642
0.072428255
0.07968181
0.085965518
0.091312669
0.095786565
0.09946734
0.10244099
0.10479181
0.10659923
0.10793611
0.10886791
0.10945266
0.10974123
0.10977809
0.10960182
0.10924578
0.10873879
0.10810559
0.10736754
0.10654297
0.10564762
0.1046949
0.10369624
0.10266143
0.10159882
0.1005155
0.099417515
0.098310059
0.097197542
0.096083662
0.094971546
0.093863845
0.092762785
0.091670213
0.09058765
0.089516354
0.088457365
0.087411512
0.086379463
0.085361742
0.084358755
0.083370798
0.082398076
0.081440715
0.080498769
0.07957224
0.078661072
0.077765183
0.076884444
0.076018721
0.075167811
0.0743316
0.073509715
0.072702348
0.07190845
0.07112972
0.070362236
0.069613475
0.068871255
0.068148509
0.067489665
0.066364366
1.6505048e-05
1.6980104e-05
1.7467578e-05
1.792959e-05
1.8377556e-05
1.8856341e-05
1.9425389e-05
2.0143914e-05
2.1061823e-05
2.2220492e-05
2.3656705e-05
2.5415612e-05
2.7552214e-05
3.013184e-05
3.3242087e-05
3.7002696e-05
4.1585115e-05
4.7219906e-05
5.42168e-05
6.3041158e-05
7.4409934e-05
8.9338539e-05
0.00010938105
0.00013706813
0.00017636918
0.00023342192
0.00031901335
0.00045181077
0.00065730898
0.00099037118
0.0015398345
0.0024203415
0.0038947208
0.0062860274
0.0098549475
0.014733551
0.020879077
0.028079247
0.035927827
0.043919444
0.051606476
0.05869691
0.065051031
0.070627016
0.075435361
0.07951654
0.082928644
0.085737065
0.088007949
0.089805042
0.091187693
0.092210044
0.092920708
0.093362821
0.093574453
0.093588909
0.093435324
0.093139106
0.092722337
0.092204109
0.09160088
0.090926858
0.09019431
0.089413794
0.088594393
0.087743956
0.086869265
0.08597611
0.085069449
0.084153536
0.083232015
0.082307994
0.08138411
0.080462597
0.079545363
0.078634011
0.077729893
0.076834143
0.075947707
0.075071362
0.074205745
0.073351366
0.072508624
0.071677832
0.070859214
0.070052938
0.069259105
0.06847779
0.067708985
0.066952745
0.066208889
0.065477724
0.06475847
0.064052772
0.063357384
0.062679048
0.062007794
0.061354229
0.060764816
0.059750065
1.6121639e-05
1.6503338e-05
1.6895916e-05
1.7262514e-05
1.7595346e-05
1.7907586e-05
1.8226636e-05
1.8586462e-05
1.9020113e-05
1.9556623e-05
2.0220356e-05
2.1033505e-05
2.2018381e-05
2.3198061e-05
2.459885e-05
2.6253136e-05
2.8201833e-05
3.050668e-05
3.3262835e-05
3.6580637e-05
4.0617143e-05
4.5594376e-05
5.1821874e-05
5.9741021e-05
7.0054923e-05
8.3817132e-05
0.00010269823
0.00012956572
0.00016863123
0.00022743772
0.00031971635
0.00046590224
0.00070562367
0.0011102378
0.0017772894
0.002908708
0.0047928624
0.0076697954
0.011673015
0.016785645
0.022833915
0.029468866
0.036259272
0.042828701
0.048931994
0.054446598
0.059328118
0.063576519
0.067219068
0.070299078
0.072866979
0.074975121
0.076674773
0.078014277
0.079038215
0.079786976
0.080296821
0.080600048
0.080725237
0.080697516
0.080538852
0.080268433
0.079902996
0.079457112
0.078943431
0.078372955
0.077755263
0.077098643
0.076410259
0.075696305
0.074962146
0.074212417
0.073451107
0.072681649
0.071907004
0.071129721
0.070351986
0.069575673
0.068802385
0.068033489
0.067270143
0.066513324
0.065763851
0.065022408
0.064289558
0.06356577
0.06285142
0.062146825
0.061452209
0.060767824
0.0600937
0.05943028
0.058777058
0.05813563
0.057503405
0.056886378
0.056276644
0.055682449
0.05515205
0.054231752
1.5764889e-05
1.6073604e-05
1.639273e-05
1.6693291e-05
1.6964225e-05
1.7207115e-05
1.7432755e-05
1.7657642e-05
1.7900279e-05
1.8179261e-05
1.8512197e-05
1.8915075e-05
1.9402486e-05
1.9987962e-05
2.0684634e-05
2.1506233e-05
2.2467626e-05
2.358745e-05
2.4893126e-05
2.6418415e-05
2.82061e-05
3.0311165e-05
3.2813671e-05
3.5845108e-05
3.9566358e-05
4.4205491e-05
5.01048e-05
5.7758083e-05
6.7934919e-05
8.1855939e-05
0.00010165199
0.00013063807
0.00017453214
0.00024411329
0.00035636969
0.00054332526
0.00086589078
0.0014099022
0.0023528778
0.0039467195
0.0064089662
0.009851064
0.014261223
0.019476766
0.025180416
0.031001486
0.036632044
0.041877191
0.046637742
0.050874427
0.054584289
0.057787604
0.060517903
0.062814928
0.064720585
0.066276329
0.067521698
0.068493476
0.069225317
0.069747617
0.070087552
0.070269293
0.070314229
0.070241228
0.070066858
0.06980565
0.06947035
0.069072101
0.068620616
0.068124363
0.067590727
0.067026141
0.066436199
0.065825756
0.065199037
0.064559712
0.063910964
0.063255556
0.062595879
0.061934002
0.061271709
0.060610536
0.059951802
0.059296636
0.058646003
0.05800073
0.057361517
0.056728971
0.056103582
0.055485834
0.054875997
0.054274671
0.053681637
0.053098466
0.052523186
0.051961104
0.051406167
0.05086446
0.050385477
0.049547903
1.5427734e-05
1.5679621e-05
1.5940994e-05
1.6190061e-05
1.6416749e-05
1.6619241e-05
1.6801626e-05
1.6971548e-05
1.7138155e-05
1.7311431e-05
1.7502014e-05
1.7720656e-05
1.797781e-05
1.8283387e-05
1.8646725e-05
1.9076779e-05
1.9582222e-05
2.0171966e-05
2.085667e-05
2.1649292e-05
2.2565543e-05
2.3624355e-05
2.4849836e-05
2.6278691e-05
2.7957888e-05
2.9948976e-05
3.2327018e-05
3.5246218e-05
3.8890611e-05
4.3519743e-05
4.9556163e-05
5.7590399e-05
6.8595574e-05
8.4286055e-05
0.0001074272
0.00014275048
0.00019944316
0.00029235917
0.00045024481
0.00072864926
0.0012061849
0.0020566569
0.0034993843
0.0057287078
0.0088184953
0.012747862
0.017345321
0.022315228
0.027342301
0.032183034
0.036689466
0.040785854
0.044441482
0.047654584
0.050441869
0.052830415
0.054852473
0.056542196
0.057933544
0.059059049
0.05994911
0.060631674
0.061132114
0.061473273
0.061675556
0.061757099
0.061733984
0.06162042
0.061428923
0.061170497
0.060854807
0.060490335
0.060084517
0.059643854
0.059174038
0.058680047
0.058166235
0.057636403
0.057093871
0.056541534
0.055981915
0.055417209
0.054849322
0.054279912
0.053710416
0.053142081
0.052575988
0.052013084
0.051454169
0.050899999
0.050351113
0.049808302
0.049271646
0.048742726
0.048220154
0.047708639
0.047203759
0.046709738
0.046276645
0.045513192
1.5104816e-05
1.5312257e-05
1.5528136e-05
1.5736154e-05
1.5927857e-05
1.6100533e-05
1.6255706e-05
1.6397257e-05
1.6529817e-05
1.6658375e-05
1.6788483e-05
1.6926238e-05
1.7078135e-05
1.7250869e-05
1.7451162e-05
1.7685647e-05
1.7960718e-05
1.8282546e-05
1.8657426e-05
1.9092151e-05
1.9594329e-05
2.0172639e-05
2.0837097e-05
2.1600771e-05
2.2480455e-05
2.3497946e-05
2.4677726e-05
2.6060974e-05
2.7702422e-05
2.9672938e-05
3.2065254e-05
3.5064514e-05
3.8892892e-05
4.3902109e-05
5.0627503e-05
5.9883397e-05
7.3164294e-05
9.2921012e-05
0.00012342979
0.00017319777
0.00025598597
0.00040020109
0.00065995382
0.0011106596
0.0019361669
0.0033265398
0.0054356068
0.0083144869
0.011909322
0.01602853
0.020398118
0.024759525
0.028929199
0.03279948
0.036315194
0.03945504
0.04222017
0.044625588
0.046694098
0.048452487
0.049928993
0.051151709
0.05214758
0.052941863
0.053557825
0.054016648
0.054337466
0.054537452
0.054631943
0.054634576
0.054557449
0.054411268
0.054205494
0.053948461
0.053647514
0.053309117
0.052938954
0.052542022
0.05212271
0.051684868
0.051231875
0.05076669
0.050291906
0.049809793
0.049322335
0.048831275
0.048338132
0.04784425
0.047350788
0.046858817
0.046369182
0.045882902
0.045400373
0.04492323
0.044450637
0.043986808
0.043528742
0.043079139
0.042687981
0.041992377
1.4792323e-05
1.496472e-05
1.5144555e-05
1.5319629e-05
1.548299e-05
1.5631739e-05
1.5766231e-05
1.5888657e-05
1.6001693e-05
1.6108047e-05
1.6210586e-05
1.6312463e-05
1.6417186e-05
1.6528637e-05
1.6651033e-05
1.6788857e-05
1.6946685e-05
1.7129088e-05
1.7340639e-05
1.7585969e-05
1.786988e-05
1.8197484e-05
1.8574298e-05
1.9006629e-05
1.9501984e-05
2.0069727e-05
2.0720549e-05
2.1468769e-05
2.2333659e-05
2.3340486e-05
2.4518773e-05
2.5918751e-05
2.7606621e-05
2.9669693e-05
3.2248826e-05
3.5565142e-05
3.9936477e-05
4.5867236e-05
5.4096388e-05
6.603747e-05
8.3998197e-05
0.00011218843
0.00015914621
0.00023837527
0.00038097561
0.00064015081
0.0011091587
0.0019632409
0.0033702494
0.0054391367
0.0081915451
0.011532503
0.015253382
0.019110067
0.022901187
0.026494825
0.029815479
0.032825269
0.035511633
0.037878636
0.039940425
0.041716908
0.043230833
0.044505902
0.045565543
0.04643218
0.047126819
0.047668854
0.048075997
0.048364286
0.048548158
0.048640546
0.048652997
0.048595784
0.048478027
0.048307811
0.048092292
0.047837796
0.047549913
0.047233573
0.046893125
0.046532403
0.046154782
0.045763234
0.045360377
0.044948516
0.044529681
0.04410567
0.043678056
0.043248272
0.04281751
0.042387058
0.041957652
0.041531028
0.041106875
0.040689023
0.040275699
0.039868424
0.03951647
0.038884241
1.4487609e-05
1.4632133e-05
1.4783185e-05
1.4931621e-05
1.507179e-05
1.5200858e-05
1.5318533e-05
1.5426061e-05
1.5525156e-05
1.5617521e-05
1.570484e-05
1.5788834e-05
1.5871341e-05
1.595441e-05
1.6040366e-05
1.6131846e-05
1.6231731e-05
1.634309e-05
1.6469139e-05
1.6613204e-05
1.6778698e-05
1.6969152e-05
1.7188238e-05
1.7439863e-05
1.7728298e-05
1.8058458e-05
1.8435918e-05
1.8867296e-05
1.9360845e-05
1.9927204e-05
2.0578869e-05
2.1333143e-05
2.221366e-05
2.3250388e-05
2.4485421e-05
2.5981968e-05
2.7826881e-05
3.0139858e-05
3.3141945e-05
3.7141751e-05
4.262862e-05
5.0337337e-05
6.1713113e-05
7.9033674e-05
0.00010694399
0.00015410704
0.00023647734
0.00038917776
0.00066698145
0.0011894158
0.0021171801
0.0035909249
0.0056744571
0.0083464105
0.011468872
0.014832252
0.018234573
0.021528592
0.024623074
0.027466887
0.030036221
0.032325801
0.034342159
0.036098966
0.037613878
0.038906417
0.039996605
0.040904099
0.041647662
0.042244862
0.042711918
0.043063659
0.04331354
0.043473696
0.043555023
0.043567271
0.043519143
0.043418386
0.043271891
0.043085774
0.042865457
0.042615746
0.042340894
0.042044666
0.041730391
0.041401018
0.041059153
0.040707112
0.040346938
0.039980482
0.039609323
0.039235066
0.038858812
0.038482447
0.038106173
0.03773354
0.037363837
0.036997732
0.036683234
0.036111345
1.4188873e-05
1.4311041e-05
1.4438921e-05
1.4565647e-05
1.4686664e-05
1.479934e-05
1.4903003e-05
1.4998285e-05
1.5086298e-05
1.516821e-05
1.524516e-05
1.5318246e-05
1.5388544e-05
1.5457173e-05
1.5525368e-05
1.5594552e-05
1.5666341e-05
1.574255e-05
1.5825196e-05
1.5916474e-05
1.6018725e-05
1.6134413e-05
1.6266124e-05
1.6416566e-05
1.6588594e-05
1.67853e-05
1.7010072e-05
1.7266689e-05
1.7559503e-05
1.7893773e-05
1.8275696e-05
1.8712928e-05
1.9215414e-05
1.9795738e-05
2.0470116e-05
2.1260906e-05
2.2198684e-05
2.3322015e-05
2.4693573e-05
2.6401287e-05
2.8563298e-05
3.1395476e-05
3.5223999e-05
4.0538534e-05
4.8152257e-05
5.9564136e-05
7.7344934e-05
0.00010696053
0.00015777644
0.00025041911
0.00042448087
0.00074914745
0.0013629476
0.0024076181
0.0039783481
0.0061005714
0.0086982853
0.011604713
0.014630394
0.017621895
0.020477332
0.02313573
0.025564549
0.027750898
0.029694855
0.031404653
0.032893395
0.034176825
0.035271832
0.036195473
0.03696435
0.037594238
0.038099872
0.038494848
0.038791599
0.039001411
0.03913448
0.03919998
0.039206136
0.039160304
0.039069055
0.038938242
0.038773077
0.038578195
0.038357714
0.038115298
0.037854199
0.037577316
0.037287219
0.036986227
0.036676359
0.036359582
0.036037392
0.03571188
0.035383751
0.035056377
0.034729967
0.034404642
0.03412666
0.033613261
1.3894938e-05
1.3999025e-05
1.4108105e-05
1.4217003e-05
1.4322075e-05
1.4420956e-05
1.4512777e-05
1.4597751e-05
1.4676565e-05
1.4750024e-05
1.4818951e-05
1.4884136e-05
1.4946319e-05
1.5006208e-05
1.5064525e-05
1.5122057e-05
1.517968e-05
1.5238387e-05
1.5299321e-05
1.5363781e-05
1.5433222e-05
1.5509238e-05
1.5593557e-05
1.5688033e-05
1.5794637e-05
1.5915476e-05
1.6052815e-05
1.620911e-05
1.6387058e-05
1.6589718e-05
1.6820592e-05
1.7083761e-05
1.738417e-05
1.77279e-05
1.8122463e-05
1.8577481e-05
1.9105717e-05
1.9723066e-05
2.0451764e-05
2.1323138e-05
2.2376802e-05
2.367537e-05
2.5311732e-05
2.7407963e-05
3.0194262e-05
3.4017434e-05
3.941391e-05
4.7342473e-05
5.9444189e-05
7.8966867e-05
0.00011234796
0.00017149558
0.00028396568
0.00049466297
0.00090470868
0.0016473802
0.002835585
0.0045213319
0.0066759678
0.0091752953
0.011850581
0.014550264
0.01716685
0.019632675
0.021908763
0.023976298
0.025830126
0.027473949
0.02891699
0.030171679
0.031252095
0.03217291
0.032948711
0.033593573
0.034120793
0.034542755
0.034870869
0.035115563
0.035286314
0.035391688
0.035439406
0.0354364
0.035388888
0.03530243
0.035181995
0.035032023
0.034856474
0.034658887
0.034442417
0.034209907
0.033963862
0.033706657
0.033440221
0.033166898
0.032887898
0.032606514
0.032323753
0.03203947
0.03179774
0.031341989
1.3605075e-05
1.3694425e-05
1.378814e-05
1.3882295e-05
1.3973995e-05
1.4061167e-05
1.4142864e-05
1.4219024e-05
1.4290024e-05
1.43564e-05
1.4418744e-05
1.4477649e-05
1.4533675e-05
1.458734e-05
1.4639139e-05
1.4689571e-05
1.4739151e-05
1.4788437e-05
1.4838055e-05
1.488873e-05
1.494129e-05
1.4996674e-05
1.5055942e-05
1.5120267e-05
1.5190939e-05
1.5269363e-05
1.5357066e-05
1.5455704e-05
1.5567075e-05
1.5693159e-05
1.5836156e-05
1.599854e-05
1.6183159e-05
1.6393357e-05
1.663312e-05
1.690729e-05
1.7221975e-05
1.7584734e-05
1.8005265e-05
1.8496666e-05
1.9075529e-05
1.9764715e-05
2.0597298e-05
2.1615116e-05
2.2885109e-05
2.4507665e-05
2.6613074e-05
2.9472549e-05
3.3462495e-05
3.9226106e-05
4.7913468e-05
6.1529274e-05
8.4496624e-05
0.00012452531
0.00019962394
0.00034373199
0.00062432879
0.0011590589
0.0020647566
0.003409722
0.0051992254
0.0073464836
0.0097062155
0.01213404
0.014521076
0.016795898
0.018915281
0.020856133
0.022609296
0.024174853
0.025558809
0.026770774
0.027822366
0.028726129
0.029494817
0.03014092
0.030676382
0.031112428
0.031459478
0.031727119
0.03192411
0.03205841
0.032137223
0.032167045
0.032153725
0.032102516
0.03201813
0.031904797
0.031766305
0.031606068
0.031427123
0.031232301
0.031023998
0.030804863
0.030576617
0.030342562
0.030104408
0.029861996
0.029656843
0.029258768
1.3318885e-05
1.3396134e-05
1.3477199e-05
1.3559085e-05
1.36395e-05
1.3716664e-05
1.3789628e-05
1.385816e-05
1.3922414e-05
1.398272e-05
1.4039494e-05
1.4093178e-05
1.4144204e-05
1.4192979e-05
1.4239883e-05
1.4285283e-05
1.4329532e-05
1.4372985e-05
1.4416016e-05
1.4459036e-05
1.4502509e-05
1.4546961e-05
1.4592994e-05
1.4641294e-05
1.4692639e-05
1.4747902e-05
1.4808057e-05
1.4874183e-05
1.4947468e-05
1.5029223e-05
1.5120895e-05
1.5224089e-05
1.5340601e-05
1.5472476e-05
1.5622067e-05
1.5792126e-05
1.5985955e-05
1.6207551e-05
1.6461811e-05
1.6754991e-05
1.7094978e-05
1.7491897e-05
1.7959617e-05
1.8515829e-05
1.91851e-05
2.0003592e-05
2.1015819e-05
2.2299373e-05
2.3963873e-05
2.617035e-05
2.9230756e-05
3.3587383e-05
4.0083333e-05
5.0094905e-05
6.657122e-05
9.5154822e-05
0.00014763118
0.00024982318
0.00044771372
0.0008405358
0.0015396544
0.0026234971
0.0041185046
0.0059682184
0.0080504363
0.010231154
0.012403434
0.01449459
0.016459073
0.018271017
0.019918394
0.021398518
0.02271482
0.023874564
0.024887267
0.025763607
0.026514695
0.027151587
0.027684975
0.028125001
0.028481151
0.028762203
0.028976224
0.029130577
0.029231953
0.029286418
0.029299448
0.029275988
0.029220492
0.029136985
0.029029069
0.028900075
0.0287529
0.028590544
0.02841525
0.02823041
0.028038361
0.027839155
0.027671415
0.027331826
1.3036206e-05
1.3103444e-05
1.3174024e-05
1.324564e-05
1.3316481e-05
1.3385039e-05
1.3450418e-05
1.3512283e-05
1.3570638e-05
1.3625659e-05
1.3677619e-05
1.3726842e-05
1.3773658e-05
1.3818391e-05
1.3861345e-05
1.3902811e-05
1.3943066e-05
1.3982369e-05
1.4020979e-05
1.4059159e-05
1.4097189e-05
1.4135373e-05
1.4174049e-05
1.4213602e-05
1.4254472e-05
1.4297162e-05
1.434225e-05
1.4390393e-05
1.4442334e-05
1.4498907e-05
1.4561047e-05
1.4629799e-05
1.4706329e-05
1.479195e-05
1.4888144e-05
1.4996608e-05
1.5119306e-05
1.525855e-05
1.5417083e-05
1.5598251e-05
1.5806177e-05
1.6045969e-05
1.6324236e-05
1.6649402e-05
1.7032362e-05
1.7488334e-05
1.8036347e-05
1.8704288e-05
1.9532031e-05
2.0572379e-05
2.1916129e-05
2.3685066e-05
2.6100897e-05
2.9513924e-05
3.4542083e-05
4.2225981e-05
5.4575382e-05
7.5906139e-05
0.00011423473
0.00018919667
0.00033469476
0.0006302989
0.0011786821
0.0020642466
0.0033252215
0.0049277037
0.0067700446
0.0087300317
0.010705118
0.012623406
0.014438624
0.016123399
0.017663821
0.019055196
0.02029896
0.021400481
0.022367514
0.023209133
0.023935009
0.024554914
0.025078408
0.025514639
0.025872221
0.026159175
0.026382905
0.026550204
0.026667273
0.026739758
0.026772778
0.026770983
0.026738568
0.02667939
0.026596874
0.026494413
0.026374779
0.026241532
0.026097574
0.025943367
0.02581433
0.025534734
1.2757036e-05
1.2815938e-05
1.2877771e-05
1.2940741e-05
1.300342e-05
1.3064546e-05
1.3123299e-05
1.3179298e-05
1.3232443e-05
1.32828e-05
1.3330533e-05
1.3375868e-05
1.3419053e-05
1.3460341e-05
1.3499978e-05
1.3538202e-05
1.3575237e-05
1.3611295e-05
1.3646577e-05
1.3681277e-05
1.371559e-05
1.3749711e-05
1.3783847e-05
1.3818219e-05
1.3853076e-05
1.3888697e-05
1.3925407e-05
1.3963581e-05
1.4003651e-05
1.4046116e-05
1.4091549e-05
1.41406e-05
1.4194008e-05
1.4252612e-05
1.4317358e-05
1.4389325e-05
1.4469743e-05
1.456003e-05
1.4661838e-05
1.4777114e-05
1.4908195e-05
1.5057898e-05
1.5229717e-05
1.542802e-05
1.5658274e-05
1.5927694e-05
1.6245421e-05
1.6623621e-05
1.7079193e-05
1.7633915e-05
1.8320708e-05
1.9183475e-05
2.0290724e-05
2.1746895e-05
2.3704884e-05
2.6462458e-05
3.046963e-05
3.6582429e-05
4.6227987e-05
6.2730499e-05
9.2021323e-05
0.00014889846
0.00026097378
0.00049000274
0.00092962208
0.0016648556
0.0027409958
0.0041401793
0.0057777309
0.0075431145
0.0093396332
0.011097731
0.012771693
0.014333691
0.015768767
0.017070875
0.018239974
0.019279936
0.020197073
0.020999105
0.021694459
0.022291777
0.022799607
0.023226192
0.023579344
0.023866383
0.024094097
0.024268744
0.024396066
0.024481312
0.024529265
0.024544317
0.024530433
0.024491428
0.024430613
0.024351771
0.024258329
0.024151322
0.02406268
0.023845216
1.2481491e-05
1.2533405e-05
1.2587895e-05
1.2643548e-05
1.2699238e-05
1.2753921e-05
1.2806862e-05
1.285767e-05
1.2906183e-05
1.2952385e-05
1.2996359e-05
1.3038252e-05
1.3078245e-05
1.3116533e-05
1.3153311e-05
1.3188773e-05
1.3223106e-05
1.3256486e-05
1.328908e-05
1.3321044e-05
1.3352533e-05
1.338369e-05
1.3414658e-05
1.3445582e-05
1.3476611e-05
1.3507907e-05
1.3539651e-05
1.3572052e-05
1.3605348e-05
1.3639822e-05
1.3675801e-05
1.3713668e-05
1.3753867e-05
1.3796909e-05
1.3843383e-05
1.3893964e-05
1.3949426e-05
1.4010657e-05
1.4078682e-05
1.4154693e-05
1.4240088e-05
1.4336525e-05
1.4445994e-05
1.4570926e-05
1.4714298e-05
1.4879867e-05
1.5072368e-05
1.5297827e-05
1.5564259e-05
1.5881927e-05
1.6265048e-05
1.6732499e-05
1.7310798e-05
1.8038775e-05
1.896824e-05
2.0188815e-05
2.1826819e-05
2.4108751e-05
2.7398985e-05
3.2401156e-05
4.0216685e-05
5.3403016e-05
7.6752566e-05
0.00012163356
0.00021093194
0.00039418526
0.00075561304
0.0013775829
0.0023089113
0.003542414
0.0050067258
0.0066021116
0.0082384959
0.0098497687
0.01139176
0.012837017
0.014170217