/*--------------------------------*- C++ -*----------------------------------*\
| =========                 |                                                 |
| \\      /  F ield         | OpenFOAM: The Open Source CFD Toolbox           |
|  \\    /   O peration     | Version:  2206                                  |
|   \\  /    A nd           | Website:  www.openfoam.com                      |
|    \\/     M anipulation  |                                                 |
\*---------------------------------------------------------------------------*/
FoamFile
{
    version     2.0;
    format      ascii;
    arch        "LSB;label=32;scalar=64";
    class       volScalarField;
    location    "700";
    object      k;
}
// * * * * * * * * * * * * * * * * * * * * * * * * * * * * * * * * * * * * * //

dimensions      [0 2 -2 0 0 0 0];

internalField   nonuniform List<scalar> 
7480
(
0.032172473
0.062201575
0.068875003
0.063419994
0.054852517
0.047480173
0.042166592
0.038336509
0.035397959
0.033004151
0.030997136
0.029303055
0.027871964
0.026661842
0.025636409
0.024762904
0.024016334
0.023377373
0.0228264
0.022352298
0.021935385
0.021565496
0.021233507
0.020931689
0.020654984
0.02039922
0.020161539
0.019939044
0.019729146
0.019529709
0.019339539
0.01915781
0.018983631
0.018816266
0.018654849
0.018499048
0.018347617
0.018200384
0.018057013
0.017917048
0.01778016
0.017646059
0.017514529
0.017385434
0.017258589
0.017133888
0.017011168
0.016890249
0.016771037
0.01665343
0.016537349
0.016422746
0.016309558
0.016197751
0.016087266
0.015978059
0.015870097
0.015763322
0.015657681
0.01555314
0.015449697
0.01534734
0.015246044
0.015145788
0.015046557
0.014948337
0.014851098
0.014754817
0.014659484
0.01456509
0.014471618
0.014379054
0.014287386
0.014196608
0.014106704
0.014017659
0.013929459
0.013842091
0.013755544
0.013669805
0.01358486
0.013500696
0.013417298
0.013334651
0.013252738
0.013171538
0.013091031
0.013011184
0.012931977
0.012853339
0.012775278
0.012697564
0.012620436
0.012542929
0.012466516
0.012387054
0.012310919
0.012222824
0.012152408
0.012019494
0.0025289295
0.0095553217
0.016650875
0.020684841
0.0217328
0.021461515
0.02082394
0.020172249
0.019536743
0.018905395
0.01829404
0.017727663
0.017220297
0.016774044
0.016385663
0.016042259
0.015742943
0.015486122
0.015266366
0.015075081
0.014906054
0.01475347
0.014612695
0.014481174
0.014357804
0.01424117
0.014130973
0.014025226
0.013922611
0.013822349
0.013724489
0.013629012
0.013535683
0.013444326
0.013354383
0.013266195
0.01317844
0.013091736
0.013006005
0.012920982
0.012836522
0.01275258
0.012669154
0.012586239
0.012503802
0.01242188
0.012340383
0.012259263
0.01217851
0.01209812
0.012018117
0.011938509
0.01185931
0.011780537
0.011702181
0.011624263
0.011546787
0.011469737
0.011393096
0.011316878
0.011241113
0.011165822
0.011091005
0.011016669
0.010942827
0.010869485
0.010796635
0.010724278
0.010652425
0.010581083
0.010510254
0.01043994
0.010370144
0.010300875
0.010232131
0.01016391
0.010096211
0.010029036
0.0099623837
0.0098962537
0.0098306445
0.0097655543
0.0097009802
0.0096369183
0.0095733644
0.0095103125
0.0094477557
0.0093856843
0.009324087
0.0092629457
0.0092022424
0.0091419348
0.0090820081
0.0090223149
0.0089629401
0.0089032284
0.008843813
0.0087815884
0.0087261555
0.0086271868
0.00022004073
0.00057068624
0.0013067416
0.0026306703
0.0042079151
0.0058214601
0.0072755004
0.008509462
0.009572767
0.01049941
0.011293888
0.011951555
0.012476653
0.012886634
0.013205066
0.013460126
0.013667077
0.013834255
0.013967887
0.014072374
0.014152024
0.014210267
0.01424924
0.014272527
0.014283072
0.014282145
0.014274701
0.014258977
0.014235974
0.014206338
0.014171735
0.014133017
0.014090722
0.014045406
0.013996864
0.013946392
0.013892242
0.013836402
0.01377867
0.013719042
0.01365765
0.013594688
0.013530358
0.013464823
0.013398203
0.013330692
0.013262271
0.013193013
0.013123008
0.013052342
0.012981129
0.012909446
0.012837377
0.012764998
0.012692347
0.012619504
0.01254651
0.012473386
0.012400147
0.012326846
0.012253553
0.012180316
0.012107163
0.012034124
0.011961238
0.011888533
0.011816016
0.011743707
0.011671638
0.011599832
0.011528305
0.011457072
0.011386152
0.011315565
0.011245322
0.011175429
0.011105898
0.011036739
0.010967962
0.010899574
0.010831583
0.010763995
0.010696814
0.010630045
0.01056369
0.010497752
0.01043223
0.010367125
0.010302429
0.010238144
0.010174243
0.010110741
0.010047548
0.0099847522
0.0099220324
0.0098597134
0.0097967871
0.0097335104
0.0096742827
0.0095722426
0.00015931969
0.00017123742
0.00020221483
0.00028337353
0.00045014281
0.00069611319
0.0011520628
0.001791486
0.0026164317
0.0035371169
0.0044945491
0.005473631
0.0064619141
0.0074365602
0.0083662291
0.0092223555
0.0099869485
0.010654904
0.011231601
0.011726813
0.012150443
0.012511242
0.012817403
0.013075567
0.013292305
0.013472596
0.013622009
0.0137451
0.013845176
0.013925878
0.013989745
0.014039138
0.014076014
0.0141023
0.014118819
0.014127756
0.014126158
0.014119033
0.014105096
0.014085366
0.014060418
0.014030802
0.013997029
0.013959531
0.013918674
0.01387489
0.013828272
0.01377911
0.013727635
0.013674071
0.013618657
0.013561574
0.013503013
0.013443136
0.013382051
0.013319919
0.013256838
0.013192883
0.013128117
0.013062649
0.012996599
0.012930054
0.012863077
0.012795735
0.012728101
0.012660229
0.01259215
0.012523911
0.012455568
0.012387164
0.012318736
0.012250315
0.012181938
0.012113645
0.012045456
0.011977394
0.011909484
0.011841746
0.011774204
0.011706874
0.011639776
0.011572924
0.011506333
0.011440016
0.011373984
0.011308247
0.011242814
0.011177694
0.011112887
0.011048406
0.010984229
0.010920401
0.010856804
0.010793642
0.010730423
0.010667933
0.010604445
0.010541854
0.010481769
0.010380775
0.00016104535
0.00016318296
0.0001648661
0.00016713771
0.00017346908
0.0001862873
0.00021711187
0.00028233188
0.00039065596
0.00059439425
0.00091250927
0.0013516296
0.001922489
0.0025906192
0.0033462175
0.0041811204
0.0050780939
0.0060071519
0.0069302319
0.0078105437
0.0086218329
0.0093520099
0.01000047
0.01057214
0.011073552
0.011510937
0.011890894
0.012220088
0.012505166
0.012751545
0.012963766
0.01314599
0.013301845
0.013434284
0.013546187
0.013640758
0.013718337
0.013781806
0.013832677
0.013872007
0.013900938
0.013920629
0.013932054
0.013936048
0.013933361
0.013924834
0.013910816
0.013891765
0.01386809
0.01384023
0.013808624
0.013773609
0.013735507
0.013694619
0.013651194
0.013605518
0.013557769
0.013508104
0.013456657
0.013403622
0.013349188
0.0132935
0.013236669
0.013178822
0.013120073
0.013060517
0.013000218
0.012939262
0.012877737
0.012815717
0.012753263
0.012690432
0.012627287
0.012563889
0.012500279
0.012436498
0.012372587
0.012308585
0.01224453
0.012180453
0.012116388
0.012052361
0.0119884
0.011924529
0.011860769
0.011797143
0.011733668
0.011670365
0.011607244
0.011544329
0.011481607
0.011419145
0.011356818
0.011294907
0.011232827
0.011171651
0.011109262
0.011048568
0.010989454
0.010891526
0.00016215138
0.00016577528
0.00016749004
0.00016801021
0.00016813543
0.00016787282
0.00016803775
0.00016948832
0.00017414091
0.00018708957
0.00021581669
0.00026953929
0.00035678575
0.00051035108
0.00074584839
0.0010843628
0.0015356372
0.002092415
0.0027545546
0.0035152799
0.0043547527
0.0052396249
0.0061292755
0.0069863338
0.0077853081
0.0085143615
0.0091715801
0.0097597763
0.010283492
0.010747832
0.011158209
0.011520105
0.011838664
0.012118461
0.012363661
0.012578538
0.012765799
0.012928573
0.013069604
0.013191163
0.013295266
0.013383628
0.013457823
0.013519286
0.013569177
0.013608655
0.013638789
0.013660457
0.013674475
0.013681543
0.013682278
0.013677212
0.013666882
0.013651771
0.013632317
0.013608992
0.013582063
0.013551812
0.013518523
0.013482488
0.01344395
0.013403134
0.013360225
0.013315405
0.013268872
0.013220779
0.013171238
0.013120387
0.013068362
0.013015273
0.012961219
0.012906288
0.01285058
0.012794186
0.01273717
0.0126796
0.01262154
0.012563052
0.012504192
0.012445012
0.012385561
0.012325885
0.012266025
0.012206021
0.012145909
0.012085723
0.012025494
0.011965255
0.011905029
0.011844854
0.011784726
0.011724734
0.011664756
0.011605123
0.011545215
0.011486275
0.011425996
0.011367912
0.011310843
0.011217113
0.00016124456
0.00016595357
0.00016907046
0.00017081598
0.00017095134
0.00017068271
0.0001701475
0.0001694595
0.00016886453
0.00016823278
0.00016862187
0.00017054508
0.00017590505
0.00018831456
0.00021288478
0.00025738172
0.00032896452
0.00045396208
0.00065172764
0.0009434337
0.0013455924
0.0018582319
0.0024828902
0.0032103651
0.0040165359
0.0048646397
0.0057139148
0.0065304919
0.0072936901
0.0079950549
0.0086333785
0.0092104843
0.0097294825
0.010194334
0.010609475
0.010979675
0.011309023
0.011601452
0.011860693
0.012090084
0.012292617
0.012470935
0.012627415
0.012764213
0.012883206
0.012986111
0.013074507
0.013149778
0.01321317
0.013265786
0.013308602
0.013342535
0.013368351
0.013386756
0.013398406
0.013403833
0.013403633
0.013398306
0.01338831
0.013374023
0.013355806
0.01333399
0.013308857
0.013280692
0.013249782
0.013216347
0.013180557
0.013142626
0.013102736
0.013061061
0.013017756
0.012972967
0.012926813
0.012879414
0.012830879
0.01278131
0.012730803
0.012679445
0.01262732
0.012574504
0.012521069
0.01246708
0.0124126
0.012357687
0.012302392
0.012246769
0.012190863
0.012134723
0.012078385
0.012021904
0.01196529
0.01190865
0.011851873
0.011795325
0.011738384
0.011682387
0.011624975
0.011570037
0.011515744
0.01142704
0.00015945819
0.00016420007
0.0001680097
0.00017037964
0.00017153814
0.00017177954
0.00017161626
0.00017120557
0.00017059244
0.00016990007
0.00016918826
0.00016861562
0.0001678468
0.00016785081
0.00016836983
0.00017080329
0.00017628931
0.00018785812
0.00021018509
0.00025056584
0.00031717129
0.00043469253
0.00062525301
0.00090995559
0.0013054154
0.0018150073
0.0024373448
0.0031571259
0.0039439162
0.0047582188
0.0055625583
0.006330345
0.0070476769
0.0077095088
0.0083150935
0.0088658241
0.0093642834
0.0098138848
0.010218422
0.010581666
0.010907245
0.011198565
0.011458769
0.011690756
0.011897147
0.012080329
0.01224249
0.012385605
0.012511451
0.012621625
0.012717546
0.012800517
0.012871685
0.012932081
0.012982653
0.01302422
0.013057579
0.013083446
0.013102476
0.013115239
0.013122254
0.013123996
0.013120913
0.01311338
0.013101733
0.013086315
0.01306746
0.01304543
0.013020476
0.012992838
0.012962734
0.012930365
0.012895908
0.012859535
0.012821394
0.012781629
0.012740376
0.012697756
0.012653887
0.012608875
0.012562819
0.012515812
0.01246794
0.012419284
0.012369919
0.012319915
0.012269339
0.012218257
0.012166724
0.012114811
0.012062545
0.012010052
0.011957239
0.011904494
0.011851221
0.011798793
0.011744893
0.011693582
0.01164263
0.011559661
0.00015747473
0.0001616841
0.00016548916
0.00016825543
0.0001699399
0.00017074467
0.00017099347
0.00017092216
0.0001706624
0.00017028052
0.00016980024
0.00016924246
0.00016861536
0.00016801988
0.00016743805
0.00016691889
0.00016654369
0.00016659198
0.00016754948
0.00017038149
0.00017632457
0.00018843515
0.00021185081
0.00025388725
0.00032694252
0.00045508924
0.00066256413
0.00097121358
0.0013915604
0.0019271144
0.0025693941
0.0032939116
0.0040640608
0.0048414913
0.005596374
0.0063112401
0.0069781915
0.007594453
0.0081598069
0.008675686
0.0091446363
0.0095697245
0.0099541513
0.010301127
0.010613754
0.01089496
0.011147499
0.011373919
0.011576558
0.01175755
0.01191882
0.012062126
0.012189053
0.012301029
0.012399357
0.012485195
0.012559617
0.012623608
0.012678063
0.012723784
0.012761494
0.012791848
0.012815457
0.012832855
0.012844524
0.012850922
0.012852487
0.012849597
0.012842598
0.012831813
0.01281754
0.012800053
0.0127796
0.0127564
0.012730672
0.012702608
0.012672389
0.012640183
0.012606146
0.012570423
0.012533147
0.012494444
0.012454429
0.012413212
0.012370892
0.012327566
0.012283323
0.012238251
0.012192425
0.012145937
0.012098834
0.012051259
0.012003146
0.011954895
0.011905954
0.011857699
0.011807908
0.011760707
0.011713582
0.011637014
0.00015566762
0.00015916629
0.00016254081
0.00016528766
0.00016724265
0.00016845478
0.00016909683
0.00016936851
0.00016938931
0.00016925009
0.0001690031
0.00016867419
0.00016827922
0.0001678334
0.00016733948
0.0001668129
0.00016628195
0.00016575343
0.00016525919
0.00016488295
0.00016475109
0.00016514828
0.00016665588
0.0001702772
0.00017772026
0.00019255524
0.00022112913
0.00027140032
0.00036360374
0.00052206089
0.00077087787
0.0011277777
0.0015987997
0.002180009
0.0028512674
0.0035786385
0.0043242712
0.0050573063
0.0057585835
0.0064185191
0.0070329401
0.007600524
0.0081218103
0.0085985905
0.0090333016
0.0094286544
0.0097874807
0.010112597
0.010406713
0.010672395
0.010912028
0.011127826
0.011321823
0.011495876
0.011651685
0.011790788
0.011914596
0.012024404
0.012121398
0.012206651
0.012281132
0.012345721
0.012401224
0.012448372
0.012487816
0.012520167
0.012545995
0.012565813
0.012580084
0.012589239
0.01259367
0.012593743
0.012589787
0.0125821
0.012570966
0.012556642
0.012539369
0.012519367
0.012496841
0.012471983
0.012444968
0.012415962
0.012385115
0.012352571
0.012318461
0.012282912
0.012246038
0.012207955
0.012168762
0.012128574
0.012087462
0.012045589
0.012002917
0.011959857
0.011915913
0.011872439
0.011827348
0.011784755
0.011741917
0.011672414
0.00015415265
0.00015698173
0.00015979801
0.00016224578
0.00016417879
0.00016557606
0.00016650186
0.00016706416
0.00016735747
0.00016745665
0.00016741774
0.00016727819
0.00016706242
0.00016678636
0.00016645959
0.00016608938
0.00016568457
0.00016524596
0.00016477853
0.00016430135
0.00016382726
0.00016338625
0.00016302627
0.00016285134
0.00016304894
0.00016399078
0.00016648253
0.00017167834
0.00018225916
0.00020328172
0.00024224058
0.00031399821
0.00044289542
0.00065453072
0.00096988566
0.0013971765
0.0019350972
0.0025657942
0.0032568862
0.0039714629
0.0046791484
0.0053607402
0.0060061092
0.0066103298
0.0071713939
0.0076892651
0.0081652079
0.0086011888
0.0089995343
0.009362745
0.0096933422
0.0099937936
0.01026646
0.010513557
0.010737158
0.010939171
0.011121361
0.011285363
0.01143268
0.011564686
0.011682633
0.01178766
0.011880809
0.011963031
0.012035187
0.012098067
0.012152406
0.012198873
0.012238074
0.012270567
0.012296865
0.012317439
0.012332719
0.012343097
0.012348937
0.012350576
0.012348323
0.012342464
0.012333265
0.012320972
0.012305812
0.012287995
0.012267719
0.012245165
0.012220503
0.012193894
0.012165486
0.012135424
0.012103838
0.012070867
0.012036611
0.012001255
0.011964794
0.011927649
0.011889386
0.011851326
0.011811537
0.011774088
0.011735993
0.01167424
0.00015291988
0.00015519159
0.00015748682
0.00015955162
0.00016128073
0.00016264937
0.00016368003
0.00016442109
0.00016492302
0.00016523184
0.00016538895
0.00016542819
0.00016537557
0.00016525029
0.00016506634
0.00016483385
0.00016456059
0.00016425114
0.00016390836
0.00016353676
0.00016313963
0.00016271766
0.00016228603
0.00016186133
0.00016146761
0.0001611446
0.00016097887
0.00016111133
0.00016183187
0.00016376028
0.00016793782
0.0001764288
0.00019351933
0.00022630989
0.00028734839
0.00040058407
0.00059214035
0.00088413022
0.0012861918
0.0017976813
0.0024008621
0.0030636282
0.0037502366
0.004432
0.0050909138
0.0057171677
0.0063056713
0.0068541683
0.0073623494
0.0078311464
0.008262186
0.0086574921
0.0090192813
0.0093498185
0.0096513421
0.0099260049
0.010175854
0.010402821
0.010608712
0.010795203
0.010963838
0.011116033
0.011253094
0.011376219
0.011486499
0.011584937
0.011672458
0.011749912
0.011818072
0.011877648
0.011929293
0.011973603
0.01201113
0.012042375
0.0120678
0.012087834
0.012102871
0.012113273
0.012119379
0.0121215
0.012119923
0.012114915
0.012106725
0.012095582
0.0120817
0.012065282
0.012046515
0.012025577
0.012002635
0.011977857
0.011951377
0.011923402
0.011893967
0.0118635
0.011831639
0.011799661
0.011765802
0.011734072
0.011701201
0.011647917
0.00015192352
0.0001537516
0.00015561239
0.00015731882
0.00015879212
0.00016001563
0.00016100503
0.0001617879
0.00016238955
0.00016283214
0.00016313776
0.00016332755
0.00016342073
0.00016343376
0.00016338043
0.00016327203
0.00016311719
0.00016292231
0.00016269193
0.0001624297
0.0001621386
0.00016181972
0.00016147606
0.00016111145
0.00016072958
0.00016033699
0.00015995464
0.00015960411
0.00015932517
0.00015918764
0.00015932682
0.00015999097
0.00016170449
0.00016544423
0.00017299836
0.0001883497
0.00021838097
0.00027533052
0.00038289075
0.00056771845
0.00085148539
0.0012442322
0.0017439486
0.0023309901
0.0029725469
0.0036344887
0.0042908657
0.0049257421
0.005530199
0.0060994241
0.0066312594
0.0071253559
0.0075824708
0.0080040092
0.0083917596
0.0087476976
0.0090738697
0.0093723169
0.0096450251
0.0098938929
0.01012071
0.010327153
0.010514784
0.010685051
0.01083929
0.010978732
0.011104515
0.011217688
0.011319212
0.01140997
0.011490774
0.011562371
0.011625448
0.011680633
0.011728507
0.011769603
0.011804415
0.011833398
0.011856971
0.011875525
0.011889417
0.011898981
0.011904525
0.011906336
0.01190468
0.011899807
0.011891948
0.011881327
0.011868145
0.01185261
0.01183489
0.011815223
0.011793683
0.01177071
0.011746017
0.011720838
0.011693578
0.011668189
0.011641052
0.011597006
0.0001511166
0.00015259572
0.000154108
0.00015551305
0.00015674732
0.00015779675
0.0001586755
0.00015940675
0.00016000905
0.00016049503
0.00016087521
0.00016115962
0.00016135831
0.00016148122
0.00016153799
0.00016153771
0.00016148805
0.00016139535
0.00016126471
0.00016110019
0.00016090504
0.00016068144
0.00016043121
0.00016015611
0.00015985767
0.00015953726
0.00015919905
0.0001588481
0.00015848908
0.00015814361
0.0001578346
0.00015760165
0.0001575117
0.00015769957
0.00015839749
0.00016010612
0.00016378393
0.00017119658
0.00018637459
0.00021624862
0.00027431989
0.00038444616
0.00057400893
0.00086264451
0.0012595636
0.0017593343
0.0023386834
0.0029640153
0.0036037061
0.0042353637
0.0048455485
0.0054265672
0.0059742204
0.006486675
0.0069636625
0.0074058719
0.0078145839
0.0081914223
0.0085381877
0.0088567509
0.0091489802
0.009416698
0.0096616524
0.0098855017
0.010089802
0.010276004
0.010445459
0.010599424
0.010739059
0.010865435
0.010979541
0.011082287
0.011174516
0.011256999
0.01133045
0.011395525
0.011452832
0.01150293
0.011546336
0.01158353
0.011614951
0.011641011
0.011662088
0.011678534
0.011690675
0.011698818
0.011703247
0.011704231
0.01170202
0.011696862
0.011688966
0.011678605
0.011665897
0.011651297
0.011634595
0.011616986
0.01159704
0.011578667
0.01155782
0.01152384
0.00015045998
0.00015166425
0.00015289945
0.00015405955
0.00015509148
0.00015598011
0.00015673558
0.00015737805
0.00015792511
0.00015838839
0.00015877562
0.00015909223
0.00015934274
0.00015953157
0.00015966352
0.00015974384
0.00015977755
0.00015976926
0.00015972315
0.00015964284
0.00015953135
0.00015939106
0.00015922382
0.00015903112
0.00015881415
0.0001585738
0.00015831132
0.00015802839
0.00015772606
0.00015740877
0.00015708255
0.00015675403
0.00015644268
0.00015617524
0.00015599257
0.00015596576
0.0001562356
0.00015704241
0.00015892061
0.00016285259
0.00017081086
0.00018720581
0.00021936146
0.00028354669
0.00040433246
0.00060948329
0.00091495051
0.0013272564
0.0018353678
0.0024117379
0.0030230587
0.0036415285
0.0042487876
0.0048338814
0.0053904285
0.0059150216
0.0064062724
0.0068640789
0.0072891473
0.0076826902
0.0080462147
0.008381385
0.0086899248
0.0089735574
0.0092339619
0.0094727474
0.0096914421
0.0098914869
0.010074232
0.010240934
0.010392765
0.01053081
0.010656074
0.010769488
0.010871911
0.010964135
0.011046896
0.011120873
0.011186691
0.011244932
0.011296131
0.011340786
0.011379356
0.011412269
0.011439921
0.011462682
0.011480897
0.01149489
0.011504964
0.011511413
0.011514496
0.01151452
0.011511657
0.011506379
0.011498558
0.011489351
0.011477491
0.011466867
0.011452917
0.011429902
0.00014992302
0.00015090949
0.00015192391
0.0001528861
0.00015375162
0.00015450397
0.00015514815
0.00015569976
0.00015617463
0.00015658476
0.00015693853
0.00015724134
0.00015749654
0.00015770641
0.00015787297
0.00015799853
0.00015808543
0.00015813606
0.00015815286
0.00015813821
0.00015809426
0.00015802284
0.00015792549
0.00015780344
0.00015765766
0.00015748888
0.00015729777
0.00015708506
0.00015685128
0.00015659745
0.00015632549
0.00015603716
0.00015573695
0.00015543192
0.00015513056
0.00015485298
0.00015462961
0.00015450521
0.00015456238
0.00015495415
0.00015595479
0.00015819099
0.00016271744
0.00017197809
0.00019114401
0.00022846256
0.00030438451
0.00044521613
0.00067526646
0.0010081379
0.0014442062
0.0019650861
0.0025397736
0.0031372355
0.0037345546
0.004317346
0.0048769538
0.0054083443
0.0059089453
0.0063778162
0.0068150634
0.0072214667
0.0075982184
0.0079467506
0.008268616
0.0085654087
0.0088387149
0.0090900807
0.0093209923
0.0095328622
0.0097270233
0.0099047263
0.010067141
0.010215358
0.010350388
0.010473172
0.010584582
0.010685426
0.010776452
0.010858355
0.010931775
0.010997308
0.011055506
0.011106881
0.011151909
0.011191032
0.011224664
0.011253193
0.011276979
0.011296373
0.011311685
0.011323269
0.011331349
0.011336422
0.011338444
0.011338541
0.011335602
0.011333525
0.011327136
0.011316064
0.00014948207
0.00015029469
0.00015113213
0.00015193382
0.00015266282
0.00015330217
0.00015385248
0.00015432444
0.00015473081
0.00015508266
0.00015538873
0.00015565536
0.00015588674
0.00015608541
0.00015625298
0.00015639072
0.00015649962
0.00015658055
0.0001566345
0.00015666253
0.0001566657
0.00015664495
0.00015660115
0.00015653501
0.00015644709
0.00015633781
0.00015620752
0.00015605651
0.00015588501
0.00015569327
0.00015548185
0.00015525133
0.00015500283
0.00015473849
0.00015446085
0.00015417501
0.00015388934
0.00015361408
0.00015337289
0.00015320026
0.00015314847
0.00015332129
0.00015389056
0.00015520008
0.00015803373
0.00016361626
0.00017519516
0.00019890413
0.00024683732
0.00034195379
0.00051233259
0.00077728559
0.0011459541
0.0016097734
0.0021430272
0.0027139834
0.0032961052
0.0038716176
0.0044295413
0.0049632354
0.0054689646
0.0059449565
0.0063907137
0.0068065682
0.0071933783
0.0075523235
0.0078847661
0.0081921602
0.0084759895
0.0087377249
0.0089787969
0.0092005789
0.0094043777
0.009591427
0.0097628857
0.0099198382
0.010063297
0.010194206
0.010313442
0.010421821
0.010520101
0.010608983
0.010689121
0.010761123
0.01082555
0.01088293
0.010933751
0.010978473
0.011017524
0.011051316
0.011080218
0.011104634
0.01112485
0.01114139
0.011154299
0.011164679
0.011171568
0.011178901
0.011180802
0.011182742
0.00014911881
0.00014979164
0.00015048627
0.00015115695
0.0001517733
0.00015231883
0.00015279105
0.00015319646
0.00015354446
0.0001538442
0.00015410373
0.00015432959
0.00015452669
0.00015469844
0.00015484715
0.00015497436
0.000155081
0.00015516761
0.00015523455
0.00015528215
0.0001553107
0.00015532042
0.00015531151
0.00015528409
0.00015523824
0.00015517396
0.0001550912
0.00015498991
0.00015486997
0.0001547313
0.00015457387
0.00015439771
0.00015420298
0.00015399022
0.0001537602
0.00015351433
0.00015325523
0.00015298617
0.00015271351
0.0001524474
0.00015220003
0.00015200208
0.00015189305
0.00015193678
0.00015227302
0.00015310364
0.00015490589
0.00015860908
0.00016607942
0.00018168059
0.00021296181
0.00027801832
0.00040291096
0.00061256048
0.00092182053
0.0013310738
0.0018214495
0.0023627131
0.0029260008
0.0034905187
0.0040430537
0.0045754354
0.0050828176
0.0055626138
0.0060137295
0.0064360498
0.0068300966
0.0071967959
0.00753732
0.0078529786
0.0081451451
0.0084152063
0.0086645302
0.0088944433
0.0091062169
0.0093010589
0.0094801105
0.009644445
0.009795068
0.0099329196
0.010058877
0.010173758
0.010278324
0.010373284
0.010459299
0.010536984
0.010606914
0.010669627
0.010725626
0.010775391
0.010819359
0.010857989
0.010891634
0.010920853
0.010945781
0.010967507
0.010985208
0.011002891
0.011013878
0.011029998
0.00014881897
0.00014937858
0.0001499572
0.00015052025
0.00015104298
0.00015150999
0.00015191688
0.00015226695
0.00015256667
0.00015282306
0.00015304284
0.00015323198
0.00015339543
0.00015353703
0.00015365973
0.00015376568
0.00015385635
0.00015393261
0.00015399498
0.00015404373
0.00015407895
0.00015410058
0.00015410846
0.00015410236
0.00015408198
0.00015404698
0.00015399697
0.00015393156
0.00015385035
0.00015375294
0.00015363895
0.00015350806
0.00015335999
0.00015319459
0.00015301187
0.00015281205
0.00015259582
0.00015236422
0.00015211914
0.00015186397
0.00015160272
0.000151344
0.00015110009
0.0001508875
0.000150745
0.00015072001
0.00015090256
0.00015146064
0.00015269167
0.00015529243
0.00016041149
0.00017103616
0.00019300364
0.00023845153
0.00033016219
0.00049639428
0.00075548393
0.0011151693
0.0015637785
0.0020741704
0.0026165062
0.0031675522
0.0037120319
0.0042403382
0.0047465903
0.0052274405
0.0056812321
0.006107429
0.006506235
0.0068783336
0.00722471
0.0075465287
0.0078450511
0.0081215768
0.0083774055
0.0086138102
0.0088320212
0.0090332154
0.0092185105
0.0093889624
0.0095455646
0.0096892495
0.0098208897
0.0099413015
0.010051247
0.01015144
0.010242546
0.010325189
0.010399955
0.010467397
0.010528028
0.010582369
0.010630844
0.010674056
0.01071223
0.010746454
0.010776036
0.010805086
0.010826033
0.010857609
0.00014857127
0.00014903859
0.00014952236
0.00014999646
0.00015044085
0.0001508416
0.00015119325
0.00015149685
0.00015175652
0.00015197738
0.00015216472
0.00015232357
0.00015245838
0.00015257294
0.00015267036
0.00015275317
0.00015282331
0.00015288212
0.00015293055
0.00015296921
0.00015299839
0.00015301816
0.00015302839
0.00015302882
0.00015301904
0.00015299856
0.00015296685
0.00015292332
0.00015286735
0.00015279835
0.0001527157
0.00015261881
0.00015250712
0.00015238015
0.00015223747
0.00015207878
0.00015190395
0.00015171306
0.00015150649
0.00015128525
0.00015105072
0.00015080557
0.0001505542
0.0001503021
0.00015006074
0.00014984481
0.0001496798
0.00014961065
0.00014970265
0.00015009295
0.00015098677
0.00015286651
0.00015665947
0.00016432625
0.00018040389
0.00021298883
0.00028197978
0.00041417858
0.00063227063
0.000948986
0.0013591291
0.001839432
0.0023601835
0.0028963969
0.0034310361
0.0039532236
0.0044561624
0.0049358252
0.0053900508
0.0058179213
0.0062193484
0.0065947886
0.0069450497
0.0072711572
0.0075742611
0.0078555728
0.0081163211
0.0083577228
0.0085809639
0.008787186
0.0089774795
0.0091528795
0.0093143641
0.0094628541
0.0095992151
0.0097242597
0.0098387497
0.0099434016
0.010038886
0.010125841
0.010204856
0.010276523
0.010341344
0.010399967
0.010452717
0.010500686
0.010543307
0.010584829
0.010616688
0.010665113
0.00014836673
0.00014875832
0.00014916409
0.00014956428
0.00014994275
0.00015028718
0.00015059168
0.00015085576
0.00015108178
0.00015127326
0.00015143422
0.00015156869
0.00015168048
0.00015177295
0.00015184907
0.00015191138
0.00015196199
0.00015200256
0.00015203438
0.00015205841
0.00015207529
0.00015208539
0.00015208884
0.00015208557
0.00015207531
0.00015205768
0.00015203218
0.00015199821
0.00015195514
0.00015190229
0.00015183894
0.00015176438
0.0001516779
0.00015157881
0.00015146646
0.00015134024
0.00015119965
0.00015104426
0.00015087383
0.00015068832
0.000150488
0.00015027353
0.00015004637
0.00014980852
0.00014956383
0.00014931772
0.00014907864
0.00014886094
0.00014868284
0.00014858573
0.00014862199
0.00014889378
0.00014958177
0.00015102217
0.00015399077
0.00015977435
0.00017190076
0.00019693136
0.00025020445
0.00035673107
0.000542042
0.00082247666
0.0011983845
0.0016505604
0.0021501551
0.0026710508
0.0031947937
0.0037094355
0.0042074063
0.0046841012
0.005136923
0.0055646204
0.0059668451
0.0063438493
0.0066962778
0.0070250242
0.0073311325
0.0076157276
0.0078799683
0.008125015
0.0083520076
0.008562051
0.0087562066
0.0089354862
0.00910085
0.0092532065
0.0093934126
0.0095222775
0.0096405623
0.0097489899
0.0098482342
0.0099389615
0.010021757
0.010097322
0.010166082
0.010229143
0.010286056
0.010341244
0.010385048
0.010451843
0.00014819811
0.00014852719
0.00014886845
0.00014920693
0.00014952967
0.00014982596
0.0001500899
0.00015032001
0.00015051731
0.00015068411
0.00015082333
0.00015093813
0.00015103162
0.00015110667
0.00015116592
0.00015121172
0.00015124611
0.00015127082
0.00015128729
0.00015129668
0.00015129991
0.00015129762
0.00015129022
0.0001512779
0.00015126067
0.00015123835
0.00015121064
0.00015117711
0.00015113723
0.00015109039
0.00015103594
0.00015097317
0.00015090135
0.00015081973
0.00015072758
0.00015062415
0.00015050875
0.00015038072
0.00015023947
0.00015008454
0.00014991558
0.00014973245
0.00014953533
0.00014932476
0.00014910192
0.00014886879
0.00014862848
0.00014838629
0.00014814887
0.00014792961
0.00014774606
0.00014762779
0.00014762704
0.00014782232
0.00014837948
0.00014953849
0.00015191101
0.00015656727
0.00016619958
0.00018626611
0.00022876816
0.00031638849
0.00047624614
0.00072703465
0.0010735892
0.0015004933
0.0019801834
0.002485966
0.0029983468
0.0035045326
0.0039963348
0.0044686824
0.0049186199
0.0053446162
0.005746101
0.0061231469
0.0064762527
0.0068061925
0.0071139118
0.0074004542
0.0076669121
0.0079143907
0.0081439848
0.0083567625
0.0085537549
0.0087359504
0.0089042915
0.0090596747
0.0092029491
0.0093349234
0.0094563572
0.0095679946
0.0096705069
0.0097646538
0.009850964
0.0099305663
0.010003122
0.010073264
0.010130135
0.010216951
0.00014805952
0.00014833671
0.00014862436
0.00014891108
0.00014918653
0.00014944149
0.00014967034
0.00014987096
0.00015004347
0.00015018921
0.0001503102
0.00015040885
0.00015048766
0.00015054901
0.00015059517
0.0001506282
0.00015064997
0.00015066211
0.00015066606
0.00015066302
0.00015065402
0.00015063987
0.00015062116
0.00015059833
0.0001505716
0.00015054103
0.00015050657
0.00015046798
0.00015042495
0.00015037706
0.00015032379
0.00015026457
0.00015019876
0.00015012568
0.00015004462
0.00014995484
0.00014985562
0.0001497462
0.00014962587
0.00014949395
0.00014934983
0.00014919298
0.00014902302
0.00014883975
0.00014864325
0.000148434
0.00014821298
0.00014798211
0.00014774402
0.00014750355
0.00014726765
0.00014704675
0.00014685861
0.00014672664
0.00014670202
0.00014684849
0.00014730457
0.0001482818
0.00015027488
0.00015421438
0.00016220752
0.00017890592
0.00021398355
0.00028811794
0.00042860287
0.00065580329
0.00097802269
0.0013830503
0.0018447014
0.0023361203
0.0028371448
0.0033343824
0.0038191918
0.0042861522