/*--------------------------------*- C++ -*----------------------------------*\
| =========                 |                                                 |
| \\      /  F ield         | OpenFOAM: The Open Source CFD Toolbox           |
|  \\    /   O peration     | Version:  2206                                  |
|   \\  /    A nd           | Website:  www.openfoam.com                      |
|    \\/     M anipulation  |                                                 |
\*---------------------------------------------------------------------------*/
FoamFile
{
    version     2.0;
    format      ascii;
    arch        "LSB;label=32;scalar=64";
    class       volScalarField;
    location    "700";
    object      nut;
}
// * * * * * * * * * * * * * * * * * * * * * * * * * * * * * * * * * * * * * //

dimensions      [0 2 -1 0 0 0 0];

internalField   nonuniform List<scalar> 
7480
(
1.6138686e-05
2.2440187e-05
2.3613293e-05
2.2658906e-05
2.1072902e-05
1.9605707e-05
1.8476124e-05
1.7617046e-05
1.6928406e-05
1.6345995e-05
1.5841196e-05
1.5402234e-05
1.5021425e-05
1.4691715e-05
1.4406421e-05
1.4158862e-05
1.3943793e-05
1.3757054e-05
1.3593972e-05
1.3452058e-05
1.3326015e-05
1.3213182e-05
1.3111082e-05
1.3017567e-05
1.2931237e-05
1.2850925e-05
1.2775839e-05
1.2705147e-05
1.2638096e-05
1.2574054e-05
1.2512683e-05
1.2453753e-05
1.2397008e-05
1.2342238e-05
1.2289182e-05
1.2237755e-05
1.2187561e-05
1.213856e-05
1.2090654e-05
1.2043702e-05
1.1997604e-05
1.1952273e-05
1.1907643e-05
1.1863676e-05
1.1820316e-05
1.1777533e-05
1.1735278e-05
1.1693494e-05
1.1652153e-05
1.1611225e-05
1.1570686e-05
1.1530523e-05
1.1490718e-05
1.1451264e-05
1.1412141e-05
1.137334e-05
1.133485e-05
1.1296654e-05
1.1258737e-05
1.1221088e-05
1.118371e-05
1.1146601e-05
1.1109755e-05
1.1073166e-05
1.1036832e-05
1.100075e-05
1.0964911e-05
1.0929311e-05
1.0893945e-05
1.0858815e-05
1.0823915e-05
1.0789243e-05
1.0754797e-05
1.0720576e-05
1.0686577e-05
1.0652795e-05
1.0619228e-05
1.0585873e-05
1.0552727e-05
1.0519787e-05
1.0487051e-05
1.0454514e-05
1.0422174e-05
1.0390025e-05
1.0358063e-05
1.0326281e-05
1.0294673e-05
1.0263229e-05
1.023194e-05
1.0200781e-05
1.0169755e-05
1.0138772e-05
1.0107927e-05
1.0076834e-05
1.0046084e-05
1.0014005e-05
9.9831682e-06
9.9473686e-06
9.9186562e-06
9.8642262e-06
1.6648576e-06
5.1416935e-06
8.7866336e-06
1.168006e-05
1.3402838e-05
1.4479872e-05
1.5236696e-05
1.580912e-05
1.6221818e-05
1.6517997e-05
1.674321e-05
1.6929823e-05
1.7095403e-05
1.7247944e-05
1.7392375e-05
1.7520936e-05
1.7644045e-05
1.7768443e-05
1.7894142e-05
1.8014903e-05
1.8128881e-05
1.8233231e-05
1.8326007e-05
1.8407804e-05
1.8480472e-05
1.8544622e-05
1.8602334e-05
1.8652032e-05
1.8693361e-05
1.8726691e-05
1.8753495e-05
1.8774662e-05
1.8790627e-05
1.880187e-05
1.880812e-05
1.8810563e-05
1.8807511e-05
1.8800747e-05
1.8790437e-05
1.8776507e-05
1.8759073e-05
1.8738377e-05
1.8714712e-05
1.8688287e-05
1.8659264e-05
1.8627904e-05
1.8594211e-05
1.8558295e-05
1.8520299e-05
1.8480347e-05
1.843862e-05
1.8395234e-05
1.8350318e-05
1.830399e-05
1.8256315e-05
1.8207423e-05
1.8157384e-05
1.8106248e-05
1.8054053e-05
1.800089e-05
1.7946868e-05
1.7892063e-05
1.7836528e-05
1.7780321e-05
1.7723508e-05
1.7666142e-05
1.7608248e-05
1.7549869e-05
1.7491063e-05
1.7431874e-05
1.7372339e-05
1.7312489e-05
1.7252365e-05
1.7192007e-05
1.7131441e-05
1.7070692e-05
1.7009787e-05
1.6948753e-05
1.6887617e-05
1.6826402e-05
1.676513e-05
1.6703824e-05
1.6642502e-05
1.6581186e-05
1.6519891e-05
1.6458638e-05
1.6397441e-05
1.6336322e-05
1.6275287e-05
1.6214378e-05
1.6153555e-05
1.6092967e-05
1.6032344e-05
1.5972349e-05
1.5911677e-05
1.5853037e-05
1.5791461e-05
1.5735094e-05
1.5678682e-05
1.5577817e-05
4.2002428e-07
4.6301462e-07
9.4051438e-07
2.2145745e-06
4.1433941e-06
6.4110823e-06
8.5168628e-06
1.0330504e-05
1.2013524e-05
1.3633249e-05
1.5182002e-05
1.6641532e-05
1.8004173e-05
1.927651e-05
2.047039e-05
2.1612137e-05
2.2703144e-05
2.3737529e-05
2.4711783e-05
2.56238e-05
2.6474516e-05
2.7264967e-05
2.7994722e-05
2.8669606e-05
2.9294359e-05
2.9869981e-05
3.0410563e-05
3.0908494e-05
3.1367157e-05
3.1788528e-05
3.2178154e-05
3.2538663e-05
3.2872019e-05
3.3180509e-05
3.3463899e-05
3.3727124e-05
3.396435e-05
3.4183857e-05
3.4384649e-05
3.4567269e-05
3.4732758e-05
3.4882249e-05
3.5016889e-05
3.5137636e-05
3.5245308e-05
3.5340969e-05
3.5424856e-05
3.5497622e-05
3.5559915e-05
3.5612327e-05
3.565555e-05
3.5690116e-05
3.5716586e-05
3.5735469e-05
3.5747111e-05
3.575202e-05
3.575054e-05
3.5742944e-05
3.5729462e-05
3.5710468e-05
3.5686373e-05
3.5657494e-05
3.562407e-05
3.5586361e-05
3.5544643e-05
3.5499137e-05
3.5449994e-05
3.5397411e-05
3.5341613e-05
3.5282791e-05
3.5221105e-05
3.5156703e-05
3.5089752e-05
3.5020425e-05
3.4948841e-05
3.487512e-05
3.4799386e-05
3.4721761e-05
3.4642361e-05
3.4561294e-05
3.4478666e-05
3.4394575e-05
3.4309118e-05
3.4222388e-05
3.4134472e-05
3.4045463e-05
3.3955444e-05
3.3864517e-05
3.3772746e-05
3.3680294e-05
3.3587112e-05
3.3493683e-05
3.339935e-05
3.3306076e-05
3.321039e-05
3.312015e-05
3.3021818e-05
3.2940532e-05
3.2851043e-05
3.2698238e-05
5.9029379e-06
1.045818e-06
4.0776683e-07
3.7867692e-07
5.7230639e-07
9.2809876e-07
1.7928836e-06
3.1771627e-06
4.8745544e-06
6.6191237e-06
8.3711031e-06
1.0255276e-05
1.2281562e-05
1.4412158e-05
1.6588225e-05
1.8756637e-05
2.0879163e-05
2.2934625e-05
2.4915166e-05
2.6817326e-05
2.8637107e-05
3.0370728e-05
3.2018613e-05
3.3579323e-05
3.50547e-05
3.6443974e-05
3.7751682e-05
3.89828e-05
4.0139998e-05
4.1230356e-05
4.2257032e-05
4.3224135e-05
4.4135453e-05
4.4995995e-05
4.5806498e-05
4.6574885e-05
4.7282763e-05
4.7956231e-05
4.8584832e-05
4.9173281e-05
4.9723714e-05
5.0238328e-05
5.0719278e-05
5.1168456e-05
5.1587583e-05
5.197887e-05
5.234259e-05
5.2680417e-05
5.2993635e-05
5.32835e-05
5.355145e-05
5.3798603e-05
5.4026199e-05
5.4235324e-05
5.4426747e-05
5.4601606e-05
5.4760641e-05
5.4904485e-05
5.5033675e-05
5.5149062e-05
5.5251532e-05
5.5341783e-05
5.5420367e-05
5.5487894e-05
5.554498e-05
5.5592133e-05
5.5629715e-05
5.5658191e-05
5.5678071e-05
5.5689783e-05
5.5693707e-05
5.569019e-05
5.5679626e-05
5.566241e-05
5.5638829e-05
5.5609172e-05
5.5573736e-05
5.5532808e-05
5.548666e-05
5.5435554e-05
5.5379739e-05
5.5319455e-05
5.525493e-05
5.5186391e-05
5.5114051e-05
5.5038128e-05
5.4958827e-05
5.4876382e-05
5.4790969e-05
5.4702917e-05
5.4612242e-05
5.4519763e-05
5.4424609e-05
5.4329843e-05
5.4230476e-05
5.4138305e-05
5.4033682e-05
5.3955164e-05
5.386078e-05
5.3706789e-05
5.1479384e-05
1.5887183e-05
4.5617503e-06
1.7770626e-06
9.3620416e-07
6.395326e-07
5.7371431e-07
6.7688453e-07
9.0852999e-07
1.4563472e-06
2.3869776e-06
3.5550266e-06
5.001289e-06
6.6392739e-06
8.5183765e-06
1.068007e-05
1.3102804e-05
1.5723663e-05
1.845957e-05
2.1229677e-05
2.3973784e-05
2.6657781e-05
2.9266992e-05
3.1792904e-05
3.4228013e-05
3.6564927e-05
3.8800727e-05
4.0936163e-05
4.2976094e-05
4.4922717e-05
4.677746e-05
4.8543225e-05
5.0223057e-05
5.1818546e-05
5.3334438e-05
5.4778777e-05
5.614513e-05
5.7443527e-05
5.867645e-05
5.9844645e-05
6.095065e-05
6.1998008e-05
6.2989614e-05
6.3928039e-05
6.4815864e-05
6.5656918e-05
6.6451643e-05
6.7201758e-05
6.7908825e-05
6.8574909e-05
6.9202321e-05
6.9792729e-05
7.0347923e-05
7.0869679e-05
7.1359516e-05
7.1819435e-05
7.225051e-05
7.2653796e-05
7.3030189e-05
7.3381217e-05
7.3708336e-05
7.4012691e-05
7.429521e-05
7.4556983e-05
7.4799056e-05
7.5022294e-05
7.522732e-05
7.5414976e-05
7.5586147e-05
7.5741564e-05
7.5881898e-05
7.6007768e-05
7.6119883e-05
7.6218943e-05
7.6305453e-05
7.637994e-05
7.6442938e-05
7.6494963e-05
7.6536506e-05
7.656804e-05
7.6590016e-05
7.660287e-05
7.6607019e-05
7.6602874e-05
7.6590826e-05
7.6571267e-05
7.6544577e-05
7.6511165e-05
7.6471372e-05
7.6425729e-05
7.6374381e-05
7.6318482e-05
7.6257096e-05
7.6194172e-05
7.6123785e-05
7.6060506e-05
7.5980653e-05
7.5932943e-05
7.5860456e-05
7.5753515e-05
0.00010627881
7.1843899e-05
3.6460302e-05
1.7325288e-05
8.6319331e-06
4.6952433e-06
2.8010588e-06
1.8244699e-06
1.2979154e-06
1.0367876e-06
9.7047067e-07
1.0536449e-06
1.2707848e-06
1.7932137e-06
2.6040652e-06
3.7094383e-06
5.1735874e-06
6.9462306e-06
9.0864031e-06
1.1613728e-05
1.4486374e-05
1.7614259e-05
2.0888157e-05
2.4209148e-05
2.7509308e-05
3.0751893e-05
3.3918621e-05
3.69971e-05
3.997814e-05
4.2855972e-05
4.5628276e-05
4.829498e-05
5.085672e-05
5.3313951e-05
5.5668576e-05
5.7925961e-05
6.008536e-05
6.2150899e-05
6.4126314e-05
6.6014419e-05
6.7818268e-05
6.9540084e-05
7.1182632e-05
7.2748928e-05
7.4240882e-05
7.5661456e-05
7.701425e-05
7.8302018e-05
7.9527699e-05
8.0693709e-05
8.1802177e-05
8.2854952e-05
8.3854436e-05
8.4802955e-05
8.5702797e-05
8.6556963e-05
8.7366502e-05
8.8132948e-05
8.8858164e-05
8.9544191e-05
9.0192657e-05
9.0805139e-05
9.138296e-05
9.1927533e-05
9.2440612e-05
9.2923515e-05
9.3377134e-05
9.3802796e-05
9.4201812e-05
9.4575243e-05
9.4924102e-05
9.524933e-05
9.5552029e-05
9.5833261e-05
9.6093765e-05
9.6334372e-05
9.6555905e-05
9.6759157e-05
9.6944887e-05
9.7113825e-05
9.7266674e-05
9.7404113e-05
9.7526792e-05
9.7635351e-05
9.7730405e-05
9.7812564e-05
9.7882423e-05
9.7940609e-05
9.7987672e-05
9.8024376e-05
9.8051051e-05
9.8069186e-05
9.8077897e-05
9.8081857e-05
9.8074632e-05
9.8072731e-05
9.8049768e-05
9.8062792e-05
9.8037738e-05
9.802705e-05
0.00012402965
0.00011372024
9.1200891e-05
6.4865761e-05
4.2581014e-05
2.7310231e-05
1.756504e-05
1.1472956e-05
7.6631068e-06
5.208284e-06
3.6426415e-06
2.6158567e-06
1.9565143e-06
1.5798202e-06
1.415911e-06
1.4293309e-06
1.6003729e-06
2.0957982e-06
2.9049247e-06
4.0766008e-06
5.7009257e-06
7.738539e-06
1.0262078e-05
1.3260743e-05
1.6658214e-05
2.0329989e-05
2.4143036e-05
2.7991443e-05
3.1811347e-05
3.5571093e-05
3.925266e-05
4.2841647e-05
4.6327224e-05
4.9703275e-05
5.2967078e-05
5.6119045e-05
5.9158174e-05
6.2085343e-05
6.490273e-05
6.7612543e-05
7.0217215e-05
7.2718993e-05
7.5120309e-05
7.7423944e-05
7.9632235e-05
8.1747882e-05
8.3774173e-05
8.571421e-05
8.7571155e-05
8.9347923e-05
9.1047128e-05
9.2671907e-05
9.4224482e-05
9.57072e-05
9.7122676e-05
9.8472459e-05
9.9759859e-05
0.0001009875
0.00010215808
0.00010327351
0.0001043358
0.00010534695
0.0001063086
0.00010722284
0.00010809195
0.00010891749
0.00010970057
0.00011044312
0.00011114669
0.0001118129
0.00011244325
0.00011303923
0.00011360198
0.00011413278
0.00011463283
0.00011510332
0.0001155454
0.00011596016
0.00011634867
0.00011671196
0.000117051
0.00011736677
0.00011766017
0.00011793211
0.00011818347
0.00011841511
0.00011862787
0.00011882264
0.0001190002
0.0001191616
0.00011930737
0.00011943936
0.00011955682
0.00011966504
0.00011975737
0.00011985171
0.00011991972
0.00012002618
0.0001200748
0.00012021167
0.00012768025
0.00012682554
0.00012022632
0.00010704412
8.9598896e-05
7.1319011e-05
5.4936423e-05
4.1446933e-05
3.0881155e-05
2.2844169e-05
1.6828879e-05
1.2368911e-05
9.0193008e-06
6.5967694e-06
4.8235835e-06
3.5700752e-06
2.7037052e-06
2.1704437e-06
1.8949079e-06
1.8439727e-06
1.9999534e-06
2.5462927e-06
3.4628337e-06
4.8441552e-06
6.7716921e-06
9.2430974e-06
1.2301616e-05
1.5893368e-05
1.9890172e-05
2.4132671e-05
2.8479462e-05
3.2836663e-05
3.715452e-05
4.1405964e-05
4.5570849e-05
4.9634321e-05
5.358691e-05
5.7423674e-05
6.114213e-05
6.4741061e-05
6.8220541e-05
7.1581383e-05
7.4824796e-05
7.7952536e-05
8.0966488e-05
8.3868787e-05
8.666209e-05
8.9349243e-05
9.1933253e-05
9.44171e-05
9.6803576e-05
9.9095769e-05
0.00010129638
0.00010340802
0.00010543348
0.00010737496
0.00010923547
0.00011101799
0.00011272551
0.00011436056
0.00011592554
0.00011742284
0.00011885508
0.00012022421
0.00012153193
0.00012278057
0.00012397284
0.00012511049
0.00012619539
0.00012722948
0.00012821463
0.00012915268
0.0001300452
0.0001308939
0.00013170018
0.00013246563
0.00013319172
0.00013387989
0.00013453151
0.00013514793
0.00013573044
0.0001362803
0.00013679872
0.00013728689
0.00013774598
0.00013817712
0.00013858145
0.00013896011
0.00013931417
0.00013964496
0.00013995329
0.00014024133
0.00014050856
0.00014076079
0.00014099137
0.00014121929
0.00014141454
0.00014164998
0.00014180024
0.00014213826
0.00012839111
0.00012959186
0.00012906921
0.00012529156
0.00011771316
0.00010692985
9.4252671e-05
8.1019191e-05
6.8260492e-05
5.6587715e-05
4.6278297e-05
3.7392321e-05
2.9862065e-05
2.3583085e-05
1.8404109e-05
1.4179036e-05
1.0770363e-05
8.0986673e-06
6.0568064e-06
4.5436112e-06
3.4589724e-06
2.7739155e-06
2.4048491e-06
2.3158878e-06
2.548893e-06
3.2361945e-06
4.4093845e-06
6.2006201e-06
8.6182491e-06
1.1725124e-05
1.548867e-05
1.9782478e-05
2.4424951e-05
2.9241713e-05
3.4109515e-05
3.8960178e-05
4.3756908e-05
4.8473945e-05
5.3091732e-05
5.7597832e-05
6.1985316e-05
6.6249898e-05
7.0388864e-05
7.4401135e-05
7.8286653e-05
8.2045983e-05
8.5680441e-05
8.9191896e-05
9.2582607e-05
9.5855069e-05
9.9011805e-05
0.00010205559
0.00010498915
0.00010781513
0.00011053632
0.00011315518
0.0001156746
0.0001180976
0.0001204273
0.00012266659
0.00012481819
0.00012688475
0.00012886909
0.00013077365
0.00013260058
0.00013435234
0.00013603178
0.00013764121
0.00013918284
0.00014065893
0.00014207168
0.00014342326
0.00014471574
0.00014595082
0.00014713057
0.00014825683
0.00014933138
0.00015035598
0.00015133234
0.00015226212
0.00015314692
0.00015398831
0.00015478782
0.00015554694
0.00015626711
0.0001569498
0.00015759641
0.00015820839
0.00015878711
0.00015933419
0.00015985074
0.00016033928
0.00016079954
0.00016123783
0.00016164762
0.00016204882
0.00016240982
0.00016281246
0.00016309453
0.00016368965
0.00012887342
0.00013015656
0.00013103818
0.00013077569
0.0001287179
0.00012445325
0.0001180456
0.00010991003
0.00010058287
9.0638808e-05
8.0560927e-05
7.0725687e-05
6.1390472e-05
5.2695696e-05
4.4715604e-05
3.7487617e-05
3.1012126e-05
2.5282209e-05
2.0287281e-05
1.6005094e-05
1.2392376e-05
9.4545903e-06
7.1362123e-06
5.3705193e-06
4.1112144e-06
3.3136259e-06
2.9129958e-06
2.8599462e-06
3.3342922e-06
4.3342404e-06
5.9973997e-06
8.4061689e-06
1.1592399e-05
1.5550391e-05
2.0152725e-05
2.5195127e-05
3.0473011e-05
3.5838145e-05
4.120651e-05
4.6532136e-05
5.1783578e-05
5.6937519e-05
6.1978861e-05
6.6898525e-05
7.1690523e-05
7.6350978e-05
8.087798e-05
8.527095e-05
8.953024e-05
9.3656937e-05
9.7652553e-05
0.00010151903
0.00010525857
0.00010887345
0.00011236615
0.00011573907
0.00011899484
0.00012213631
0.00012516653
0.00012808847
0.00013090502
0.00013361896
0.00013623321
0.0001387505
0.00014117331
0.00014350426
0.00014574627
0.00014790203
0.00014997404
0.00015196483
0.00015387688
0.00015571266
0.00015747452
0.00015916457
0.0001607851
0.00016233828
0.0001638262
0.00016525094
0.00016661452
0.00016791889
0.00016916598
0.00017035766
0.00017149575
0.00017258206
0.00017361833
0.00017460632
0.00017554775
0.00017644436
0.00017729783
0.0001781101
0.00017888257
0.00017961812
0.00018031679
0.00018098533
0.00018161743
0.00018223386
0.00018280129
0.00018341181
0.0001838583
0.00018476893
0.00012957693
0.0001306172
0.00013156868
0.00013213533
0.00013200454
0.00013085194
0.00012844315
0.00012469965
0.00011968418
0.00011357785
0.00010663289
9.9087891e-05
9.1168239e-05
8.3087923e-05
7.5019103e-05
6.7095419e-05
5.9411258e-05
5.2045007e-05
4.5072315e-05
3.8539014e-05
3.2462646e-05
2.6892718e-05
2.1868328e-05
1.7413606e-05
1.3566123e-05
1.0369069e-05
7.8193558e-06
5.8710655e-06
4.5483268e-06
3.7552701e-06
3.4297485e-06
3.6662343e-06
4.532821e-06
6.1337534e-06
8.5907142e-06
1.192443e-05
1.6141236e-05
2.1100886e-05
2.657154e-05
3.2321142e-05
3.8183167e-05
4.4063277e-05
4.9908529e-05
5.5682395e-05
6.1358494e-05
6.6919811e-05
7.2355648e-05
7.7658833e-05
8.2824854e-05
8.7851297e-05
9.273707e-05
9.7482135e-05
0.00010208722
0.00010655354
0.00011088272
0.00011507657
0.00011913718
0.00012306697
0.00012686862
0.00013054491
0.00013409864
0.00013753255
0.00014084953
0.00014405239
0.00014714381
0.00015012647
0.00015300334
0.00015577728
0.00015845101
0.00016102727
0.00016350873
0.00016589806
0.0001681979
0.00017041065
0.00017253882
0.00017458484
0.00017655109
0.00017843992
0.00018025362
0.00018199446
0.00018366462
0.00018526628
0.00018680155
0.00018827252
0.00018968124
0.00019102975
0.00019232006
0.00019355425
0.00019473427
0.00019586239
0.00019694033
0.00019797132
0.00019895571
0.00019990068
0.00020080021
0.0002016759
0.00020249254
0.00020335391
0.00020399993
0.00020528697
0.00013054529
0.00013134305
0.0001321141
0.00013272138
0.00013304841
0.0001329567
0.00013229011
0.00013090639
0.00012870398
0.00012564237
0.00012174936
0.00011709811
0.00011178919
0.00010594374
9.9688425e-05
9.3143841e-05
8.6420513e-05
7.9591074e-05
7.2691807e-05
6.5799414e-05
5.8972847e-05
5.2263755e-05
4.5739526e-05
3.9468996e-05
3.3494593e-05
2.7883111e-05
2.2710007e-05
1.8030365e-05
1.3977599e-05
1.0611997e-05
7.9391628e-06
6.0129371e-06
4.7765914e-06
4.1517725e-06
4.1812091e-06
4.9651198e-06
6.5841068e-06
9.1725734e-06
1.2754721e-05
1.7327259e-05
2.2719384e-05
2.8664952e-05
3.490927e-05
4.1276903e-05
4.7669553e-05
5.4029832e-05
6.0317675e-05
6.6505152e-05
7.2574303e-05
7.8513361e-05
8.4314386e-05
8.9972448e-05
9.548472e-05
0.00010084974
0.00010606713
0.0001111372
0.00011606089
0.00012083965
0.00012547537
0.00012997026
0.00013432667
0.00013854708
0.00014263409
0.00014659042
0.00015041871
0.00015412163
0.00015770205
0.00016116286
0.00016450689
0.00016773696
0.00017085586
0.0001738664
0.00017677137
0.0001795734
0.00018227518
0.00018487934
0.00018738849
0.00018980521
0.00019213203
0.00019437145
0.00019652592
0.00019859788
0.00020058969
0.0002025037
0.00020434226
0.00020610768
0.00020780225
0.00020942834
0.00021098821
0.00021248442
0.00021391903
0.00021529559
0.00021661479
0.00021788421
0.00021909816
0.0002202791
0.0002213897
0.00022254697
0.00022343011
0.00022515696
0.00013176547
0.00013236358
0.00013294732
0.00013343259
0.00013377236
0.00013392426
0.00013383058
0.00013341415
0.00013258638
0.00013126428
0.00012938786
0.00012692681
0.0001238795
0.00012027007
0.00011614346
0.00011155826
0.00010658222
0.00010127975
9.5696285e-05
8.9880744e-05
8.3882679e-05
7.7750427e-05
7.1516127e-05
6.5172659e-05
5.8763556e-05
5.2340006e-05
4.5957552e-05
3.969336e-05
3.3629332e-05
2.7861917e-05
2.2475241e-05
1.7634522e-05
1.3483768e-05
1.0091468e-05
7.5583281e-06
5.8764153e-06
4.9568865e-06
4.8390736e-06
5.6078047e-06
7.3497447e-06
1.0181433e-05
1.4143674e-05
1.9193452e-05
2.5107675e-05
3.1581811e-05
3.8348346e-05
4.5234647e-05
5.2144475e-05
5.9018274e-05
6.5814357e-05
7.2504822e-05
7.9071676e-05
8.550276e-05
9.178988e-05
9.7927833e-05
0.00010391341
0.00010974487
0.00011542164
0.00012094399
0.00012631285
0.00013152963
0.00013659606
0.00014151419
0.00014628628
0.0001509147
0.00015540189
0.0001597505
0.00016396326
0.00016804294
0.00017199232
0.0001758142
0.00017951143
0.00018308684
0.00018654321
0.00018988331
0.00019310991
0.00019622579
0.00019923368
0.0002021363
0.00020493634
0.00020763647
0.00021023931
0.00021274748
0.00021516356
0.00021749013
0.00021972975
0.00022188498
0.00022395846
0.00022595273
0.00022787065
0.00022971456
0.00023148835
0.00023319306
0.00023483663
0.00023641374
0.0002379477
0.00023939889
0.00024089899
0.00024205921
0.00024429186
0.00013321855
0.00013365699
0.00013408416
0.00013443975
0.00013469628
0.00013484269
0.00013486863
0.00013475177
0.00013445209
0.00013391608
0.00013308612
0.00013190924
0.00013034321
0.00012836006
0.00012594743
0.00012310772
0.00011985643
0.00011621878
0.00011222154
0.00010789242
0.00010326092
9.8358967e-05
9.3217341e-05
8.7846772e-05
8.2263106e-05
7.6486504e-05
7.0559876e-05
6.4430877e-05
5.8129477e-05
5.1720117e-05
4.5242779e-05
3.8816282e-05
3.255158e-05
2.655509e-05
2.101962e-05
1.6161469e-05
1.2105031e-05
9.0222731e-06
6.9433205e-06
5.7760461e-06
5.6149157e-06
6.4677277e-06
8.4739944e-06
1.1690943e-05
1.6191542e-05
2.1852539e-05
2.8379389e-05
3.5432523e-05
4.2747053e-05
5.0164554e-05
5.7595295e-05
6.498054e-05
7.227972e-05
7.9466138e-05
8.6522043e-05
9.3435277e-05
0.00010019776
0.00010680423
0.00011325146
0.00011953771
0.00012566234
0.00013162556
0.00013742822
0.00014307166
0.00014855754
0.00015388778
0.00015906451
0.00016409012
0.00016896708
0.00017369798
0.00017828548
0.0001827323
0.00018704123
0.00019121505
0.00019525655
0.00019916854
0.00020295386
0.00020661535
0.00021015582
0.00021357811
0.00021688502
0.00022007934
0.00022316387
0.00022614137
0.00022901461
0.00023178638
0.00023445947
0.00023703674
0.00023952101
0.00024191537
0.0002442225
0.00024644653
0.00024858887
0.00025065779
0.00025264836
0.00025458477
0.00025642491
0.00025831654
0.00025979604
0.00026260299
0.00013488669
0.00013519784
0.00013549867
0.00013574415
0.00013591301
0.00013600056
0.00013601032
0.00013594387
0.00013579282
0.00013553659
0.00013514459
0.00013457984
0.00013380325
0.00013277761
0.00013147088
0.00012985832
0.0001279235
0.00012565862
0.00012306272
0.0001201397
0.00011689722
0.00011334639
0.00010950183
0.00010537497
0.00010097546
9.631091e-05
9.1403183e-05
8.6242655e-05
8.0822386e-05
7.5151869e-05
6.9257004e-05
6.3068445e-05
5.6634722e-05
5.0001322e-05
4.3257742e-05
3.6559026e-05
3.0026404e-05
2.3887049e-05
1.8415477e-05
1.378128e-05
1.0257872e-05
7.8813909e-06
6.562202e-06
6.5149443e-06
7.5993583e-06
1.005017e-05
1.3860844e-05
1.9068509e-05
2.5456678e-05
3.2659464e-05
4.0322327e-05
4.8202284e-05
5.6161168e-05
6.4116163e-05
7.2011312e-05
7.9809151e-05
8.7484948e-05
9.5021766e-05
0.00010240802
0.00010963597
0.00011670056
0.00012359871
0.0001303288
0.00013689027
0.00014328335
0.00014950881
0.00015556788
0.00016146218
0.00016719363
0.00017276434
0.00017817661
0.00018343289
0.00018853574
0.0001934878
0.00019829175
0.00020295034
0.00020746637
0.00021184268
0.00021608211
0.00022018754
0.00022416185
0.00022800794
0.0002317287
0.00023532703
0.00023880585
0.00024216812
0.0002454168
0.00024855496
0.00025158562
0.00025451214
0.00025733741
0.00026006585
0.00026269922
0.00026524603
0.00026770181
0.00027009158
0.00027237063
0.00027470406
0.00027654713
0.00027999937
0.00013675486
0.00013696419
0.0001371634
0.00013731889
0.00013741276
0.00013744042
0.00013740667
0.00013731917
0.00013718213
0.00013699308
0.00013674232
0.00013641321
0.00013598337
0.00013542665
0.00013471529
0.00013382198
0.00013272155
0.00013139235
0.00012981698
0.00012798228
0.00012587894
0.00012350112
0.00012084664
0.00011791535
0.00011470804
0.00011122459
0.00010746978
0.00010344396
9.9142243e-05
9.4558808e-05
8.9702255e-05
8.4544337e-05
7.907015e-05
7.3284119e-05
6.7161955e-05
6.0681613e-05
5.3883781e-05
4.6841002e-05
3.9744939e-05
3.2723406e-05
2.6059732e-05
2.0075109e-05
1.4973193e-05
1.1166769e-05
8.6311118e-06
7.3382127e-06
7.5178542e-06
9.0867942e-06
1.2176734e-05
1.6817151e-05
2.2915804e-05
3.0135758e-05
3.8059788e-05
4.6352647e-05
5.4810297e-05
6.3316247e-05
7.1795626e-05
8.0197879e-05
8.8489512e-05
9.6647848e-05
0.00010465732
0.00011250743
0.00012019114
0.00012770387
0.00013504285
0.00014220656
0.00014919444
0.00015600671
0.00016264418
0.00016910808
0.00017540003
0.0001815219
0.00018747582
0.00019326406
0.00019888904
0.0002043533
0.00020965948
0.00021481027
0.00021980847
0.00022465689
0.00022935842
0.00023391594
0.0002383324
0.00024261077
0.00024675405
0.0002507653
0.00025464762
0.00025840421
0.00026203828
0.00026555336
0.00026895259
0.00027224058
0.00027541942
0.00027849784
0.00028147184
0.00028436725
0.00028713664
0.00028996356
0.00029221638
0.00029638733
0.00013881103
0.00013893835
0.00013905549
0.00013913758
0.00013916955
0.00013914608
0.00013907029
0.00013894947
0.00013879063
0.00013859797
0.00013837194
0.00013810858
0.00013779937
0.00013743153
0.00013698874
0.00013645216
0.00013580139
0.0001350156
0.00013407458
0.00013295951
0.0001316534
0.00013014131
0.00012841064
0.00012645103
0.00012425401
0.00012181195
0.00011911916
0.00011617071
0.00011296058
0.00010948026
0.00010572566
0.00010168533
9.7342304e-05
9.2684907e-05
8.7694384e-05
8.233764e-05
7.6594054e-05
7.0463359e-05
6.3879528e-05
5.6872082e-05
4.9518396e-05
4.2029789e-05
3.4537351e-05
2.742927e-05
2.1017724e-05
1.5634102e-05
1.1681462e-05
9.149178e-06
8.2214872e-06
8.8479698e-06
1.1158059e-05
1.5142494e-05
2.0828244e-05
2.794295e-05
3.6039368e-05
4.4694058e-05
5.3622746e-05
6.2663088e-05
7.171628e-05
8.071659e-05
8.9620517e-05
9.8398976e-05
0.000107032
0.00011550589
0.00012381128
0.00013194181
0.00013989333
0.00014766329
0.00015525039
0.00016265422
0.0001698751
0.00017691387
0.00018377184
0.00019045063
0.00019695212
0.00020327844
0.00020943188
0.00021541486
0.00022122996
0.00022687982
0.00023236721
0.00023769493
0.00024286588
0.00024788301
0.00025274933
0.00025746793
0.00026204199
0.00026647478
0.00027076964
0.00027493022
0.00027895986
0.00028286331
0.00028664298
0.00029030774
0.00029385408
0.00029730857
0.00030062102
0.00030399445
0.00030670494
0.00031167031
0.00014104557
0.00014110631
0.00014115671
0.00014117863
0.00014115949
0.00014109361
0.00014098229
0.00014083103
0.00014064625
0.00014043342
0.00014019639
0.00013993678
0.00013965355
0.00013934274
0.00013899752
0.00013860832
0.00013816312
0.00013764789
0.00013704721
0.00013634485
0.00013552435
0.00013456944
0.00013346448
0.00013219473
0.00013074659
0.00012910738
0.0001272655
0.00012521036
0.00012293194
0.00012041953
0.00011766322
0.00011465222
0.00011137258
0.00010780951
0.00010394655
9.9760493e-05
9.5223889e-05
9.0319342e-05
8.4998938e-05
7.9224124e-05
7.299005e-05
6.6233008e-05
5.8949435e-05
5.1250761e-05
4.333829e-05
3.5418381e-05
2.7922e-05
2.1167768e-05
1.5733741e-05
1.1862934e-05
9.6158536e-06
9.2858577e-06
1.0719672e-05
1.4026615e-05
1.9223501e-05
2.6138236e-05
3.4327576e-05
4.3294234e-05
5.2666609e-05
6.2225705e-05
7.1843611e-05
8.1437446e-05
9.0952245e-05
0.00010035137
0.00010960972
0.00011871
0.00012764021
0.00013639208
0.00014496007
0.00015334057
0.00016153144
0.00016953164
0.00017734095
0.00018495984
0.00019238925
0.00019963054
0.00020668537
0.00021355569
0.00022024364
0.00022675156
0.00023308193
0.00023923735
0.00024522055
0.00025103436
0.00025668172
0.00026216568
0.00026748937
0.00027265612
0.00027766929
0.00028253261
0.00028724954
0.00029182496
0.00029626152
0.00030056815
0.00030474189
0.00030880996
0.00031271934
0.00031669344
0.00031991107
0.00032574873
0.00014345063
0.00014345689
0.00014345261
0.00014342482
0.00014336318
0.00014326199
0.00014312122
0.00014294462
0.00014273728
0.00014250417
0.00014224961
0.00014197691
0.000141688
0.00014138321
0.00014106108
0.00014071827
0.00014034946
0.00013994739
0.00013950299
0.00013900566
0.00013844349
0.00013780361
0.00013707248
0.00013623622
0.00013528093
0.00013419281
0.00013295836
0.00013156449
0.00012999855
0.00012824793
0.00012630016
0.00012414276
0.00012176225
0.00011914397
0.0001162721
0.00011312821
0.00010968935
0.00010593368
0.00010183087
9.734214e-05
9.2439687e-05
8.7071519e-05
8.1180196e-05
7.4760515e-05
6.7733559e-05
6.010115e-05
5.1997945e-05
4.361051e-05
3.5299111e-05
2.7485153e-05
2.0613336e-05
1.5352018e-05
1.1806133e-05
1.0345067e-05
1.0843973e-05
1.3461771e-05
1.8115499e-05
2.4754702e-05
3.2966949e-05
4.2199889e-05
5.1993183e-05
6.2061058e-05
7.2239592e-05
8.242596e-05
9.2552495e-05
0.0001025743
0.00011246077
0.00012219073
0.00013174948
0.0001411268
0.00015031565
0.00015931132
0.0001681108
0.0001767124
0.00018511536
0.00019331971
0.00020132604
0.00020913542
0.00021674931
0.00022416945
0.00023139785
0.00023843674
0.00024528854
0.00025195582
0.00025844133
0.00026474795
0.00027087872
0.00027683688
0.00028262578
0.00028824915
0.00029371051
0.00029901474
0.00030416476
0.00030916946
0.00031402642
0.00031876342
0.00032332462
0.00032795455
0.00033173017
0.00033852003
0.00014601963
0.00014598094
0.00014593152
0.00014586237
0.00014576508
0.00014563421
0.00014546883
0.00014527133
0.00014504551
0.00014479545
0.00014452502
0.00014423766
0.00014393608
0.00014362215
0.00014329678
0.00014295979
0.00014260975
0.00014224389
0.00014185807
0.00014144672
0.00014100293
0.00014051849
0.00013998407
0.00013938932
0.00013872311
0.00013797369
0.00013712887
0.00013617618
0.000135103
0.00013389657
0.00013254401
0.00013103226
0.00012934792
0.00012747688
0.00012540416
0.00012311352
0.00012058622
0.00011780199
0.00011473753
0.00011136333
0.00010764937
0.00010355873
9.904168e-05
9.4062186e-05
8.8557168e-05
8.2456329e-05
7.5765917e-05
6.835178e-05
6.0275827e-05
5.1687784e-05
4.282158e-05
3.4181053e-05
2.6140653e-05
1.9516358e-05
1.4673094e-05
1.1877805e-05
1.1462123e-05
1.3320247e-05
1.7425275e-05
2.3770765e-05
3.1976086e-05
4.1450569e-05
5.1651639e-05
6.2223329e-05
7.2961587e-05
8.3741752e-05
9.4482575e-05
0.00010513039
0.00011564881
0.00012601271
0.00013620457
0.00014621211
0.00015602679
0.00016564276
0.00017505614
0.00018426452
0.0001932666
0.00020206195
0.00021065082
0.00021903399
0.00022721268
0.00023518847
0.00024296325
0.00025053917
0.0002579186
0.00026510416
0.00027209864
0.00027890512
0.0002855268
0.00029196733
0.00029823022
0.00030432029
0.00031024065
0.00031600005
0.00032159663
0.00032705862
0.00033232736
0.00033766915
0.00034205478
0.0003498786
0.00014874682
0.00014867075
0.00014858379
0.00014847997
0.00014835254
0.00014819648
0.0001480103
0.00014779535
0.0001475544
0.00014729065
0.00014700736
0.00014670759
0.00014639403
0.00014606888
0.00014573382
0.00014538992
0.00014503755
0.00014467628
0.00014430483
0.00014392095
0.00014352139
0.00014310184
0.00014265691
0.00014218017
0.0001416642
0.00014110064
0.00014048031
0.0001397933
0.00013902909
0.00013817663
0.0001372244
0.00013616043
0.00013497233
0.00013364714
0.00013217123
0.00013053012
0.00012870798
0.00012668745
0.00012444937
0.00012197126
0.00011922785
0.00011619049
0.00011282268
0.00010908685
0.00010493771
0.00010031301
9.517591e-05
8.9435794e-05
8.3024683e-05
7.592542e-05
6.8009343e-05
5.9404516e-05
5.0238427e-05
4.0976078e-05
3.205866e-05
2.4144924e-05
1.8014408e-05
1.3971387e-05
1.258439e-05
1.3625993e-05
1.7174541e-05
2.320647e-05
3.1383062e-05
4.1082856e-05
5.1684778e-05
6.2759894e-05
7.4060422e-05
8.5438228e-05
9.6797926e-05
0.00010807676
0.00011923241
0.00013023565
0.00014106613
0.0001517095
0.0001621557
0.00017239771
0.00018243074
0.00019225166
0.00020185863
0.00021125077
0.00022042799
0.00022939079
0.0002381402
0.00024667765
0.00025500494
0.00026312418
0.00027103781
0.00027874855
0.00028625937
0.0002935737
0.00030069495
0.00030762779
0.00031437543
0.0003209464