/*--------------------------------*- C++ -*----------------------------------*\
| =========                 |                                                 |
| \\      /  F ield         | OpenFOAM: The Open Source CFD Toolbox           |
|  \\    /   O peration     | Version:  2206                                  |
|   \\  /    A nd           | Website:  www.openfoam.com                      |
|    \\/     M anipulation  |                                                 |
\*---------------------------------------------------------------------------*/
FoamFile
{
    version     2.0;
    format      ascii;
    arch        "LSB;label=32;scalar=64";
    class       volScalarField;
    location    "700";
    object      p;
}
// * * * * * * * * * * * * * * * * * * * * * * * * * * * * * * * * * * * * * //

dimensions      [0 2 -2 0 0 0 0];

internalField   nonuniform List<scalar> 
7480
(
0.062681489
0.051757434
0.036344237
0.027007653
0.021761543
0.018623036
0.016649273
0.015142046
0.013819973
0.012717842
0.011843725
0.011157626
0.010638373
0.01025982
0.0099916352
0.0098115397
0.0096992415
0.0096406458
0.0096140597
0.0096127824
0.0096372166
0.0096613936
0.0096782248
0.0096909835
0.0096976354
0.0096968705
0.0096894439
0.0096755692
0.0096538677
0.0096249051
0.0095899108
0.009549313
0.0095036374
0.0094536328
0.009399233
0.0093407067
0.0092781437
0.0092113858
0.009140984
0.0090673089
0.0089903831
0.0089101077
0.0088270286
0.0087412426
0.0086527018
0.0085618145
0.0084684203
0.0083726077
0.0082745891
0.0081741095
0.0080715199
0.0079668017
0.0078599566
0.00775117
0.0076401975
0.0075272743
0.0074123195
0.0072953268
0.0071763102
0.0070551843
0.0069320905
0.0068068888
0.0066796728
0.0065503414
0.0064189144
0.0062853459
0.0061495934
0.0060116294
0.005871411
0.0057289344
0.0055841366
0.0054370129
0.0052875003
0.0051356053
0.0049812577
0.0048244635
0.0046651599
0.0045033722
0.0043390484
0.0041722344
0.0040028968
0.0038311124
0.0036568879
0.0034803349
0.0033015598
0.0031206877
0.0029380185
0.0027537456
0.0025685177
0.002382509
0.0021974948
0.0020125693
0.0018343451
0.0016540742
0.0015016986
0.0013250031
0.0012613496
0.0010576421
0.001794641
-0.0017653482
0.058989277
0.050745634
0.038404863
0.029149762
0.022882842
0.019122242
0.016894699
0.015294571
0.013935461
0.012817606
0.011932538
0.011236751
0.010709219
0.01032282
0.010047067
0.0098601105
0.0097419446
0.0096777901
0.0096516008
0.0096515075
0.0096670772
0.0096841776
0.0096987442
0.0097095017
0.0097143481
0.0097120341
0.0097032608
0.0096881803
0.0096654107
0.0096355212
0.0095997143
0.0095583858
0.0095120539
0.0094614568
0.0094065187
0.0093475061
0.0092845048
0.009217351
0.0091465867
0.0090725796
0.008995348
0.008914791
0.008831453
0.0087454259
0.0086566612
0.0085655657
0.0084719768
0.0083759833
0.0082777956
0.0081771575
0.0080744195
0.0079695614
0.0078625847
0.0077536738
0.0076425838
0.0075295497
0.00741449
0.0072973981
0.0071782875
0.0070570726
0.0069338941
0.0068086119
0.0066813193
0.0065519151
0.0064204187
0.0062867842
0.0061509689
0.0060129451
0.0058726698
0.0057301388
0.0055852891
0.0054381159
0.0052885561
0.005136616
0.0049822253
0.0048253901
0.0046660473
0.0045042222
0.0043398627
0.0041730145
0.0040036443
0.0038318287
0.0036575746
0.0034809933
0.0033021911
0.0031212933
0.0029385996
0.0027543035
0.0025690536
0.0023830242
0.0021979907
0.002013047
0.0018348073
0.0016545212
0.0015021369
0.0013254318
0.0012617836
0.0010581585
0.0017950506
-0.0017647988
0.055220939
0.048424486
0.03763277
0.028910768
0.023141712
0.01963411
0.017394436
0.015698723
0.014255093
0.013086183
0.0121641
0.01143744
0.010885862
0.010479203
0.010186026
0.0099845281
0.0098535267
0.0097778465
0.0097429952
0.0097333563
0.0097374473
0.0097469102
0.0097552543
0.0097602567
0.0097600747
0.0097534884
0.0097410026
0.0097225231
0.0096967119
0.0096641817
0.009626073
0.0095826762
0.0095344887
0.0094822146
0.0094257601
0.0093653537
0.0093010953
0.0092328302
0.0091610328
0.0090860827
0.0090079871
0.0089266377
0.008842576
0.0087558801
0.008666498
0.0085748319
0.008480711
0.0083842261
0.0082855825
0.008184519
0.0080813863
0.0079761591
0.0078688374
0.0077596033
0.0076482094
0.0075348909
0.0074195631
0.007302219
0.0071828711
0.0070614326
0.0069380433
0.0068125616
0.0066850805
0.006555498
0.0064238329
0.0062900385
0.0061540718
0.0060159044
0.0058754929
0.0057328327
0.0055878601
0.0054405703
0.0052908997
0.0051388542
0.0049843632
0.0048274327
0.0046679992
0.0045060878
0.0043416461
0.0041747198
0.0040052753
0.0038333889
0.0036590674
0.003482422
0.0033035589
0.0031226032
0.0029398547
0.0027555065
0.0025702077
0.0023841319
0.002199056
0.0020140715
0.0018357987
0.0016554767
0.0015030778
0.0013263427
0.0012627244
0.0010591093
0.0017961212
-0.001764077
0.052324121
0.046696642
0.037369496
0.029217689
0.023715315
0.020187241
0.017854295
0.0161078
0.014632121
0.013433304
0.012477126
0.011715231
0.011134501
0.010702138
0.010385634
0.01016332
0.010013081
0.0099202031
0.0098701244
0.009847076
0.009839944
0.009839841
0.0098395829
0.0098369294
0.0098298677
0.009817206
0.0097993468
0.0097759446
0.0097456988
0.0097092859
0.0096677299
0.0096211951
0.0095701778
0.0095153371
0.0094565549
0.0093939281
0.0093276619
0.0092576448
0.009184175
0.0091077045
0.0090282155
0.0089455843
0.0088603509
0.0087725711
0.0086821888
0.0085895974
0.0084946105
0.008397326
0.0082979404
0.0081961846
0.0080924106
0.0079865842
0.0078787037
0.0077689468
0.0076570616
0.0075432843
0.0074275246
0.0073097741
0.0071900441
0.0070682466
0.0069445199
0.0068187192
0.0066909375
0.0065610711
0.0064291378
0.0062950896
0.0061588826
0.006020488
0.0058798613
0.0057369971
0.005591831
0.0054443575
0.0052945127
0.0051423018
0.0049876538
0.004830574
0.0046709988
0.0045089526
0.0043443829
0.0041773349
0.0040077745
0.0038357781
0.0036613519
0.003484607
0.0033056495
0.003124604
0.0029417705
0.0027573417
0.0025719671
0.0023858196
0.0022006777
0.0020156302
0.0018373048
0.0016569278
0.0015045017
0.0013277209
0.0012641374
0.0010604793
0.001797776
-0.0017631024
0.049643107
0.044877869
0.036894221
0.029563321
0.024352267
0.020773016
0.018317205
0.016474951
0.014927828
0.013711313
0.012751417
0.011981784
0.011384572
0.010930003
0.010593887
0.010353839
0.010187248
0.010079317
0.010013679
0.0099759814
0.0099559194
0.009944257
0.0099347283
0.0099244649
0.0099106187
0.0098918119
0.0098684275
0.0098399641
0.0098050739
0.0097644916
0.0097191087
0.0096690009
0.0096146942
0.0095568385
0.0094953013
0.0094300248
0.0093613438
0.0092891819
0.0092136605
0.0091353106
0.0090540879
0.0089698526
0.0088831466
0.0087939978
0.0087023493
0.0086085836
0.00851249
0.0084141785
0.008313837
0.0082111875
0.0081065851
0.007999983
0.0078913787
0.007780945
0.0076684241
0.0075540534
0.0074377341
0.0073194566
0.0071992311
0.0070769688
0.0069528055
0.0068265923
0.0066984221
0.0065681889
0.0064359097
0.0063015339
0.0061650169
0.0060263293
0.0058854255
0.0057422987
0.0055968835
0.005449174
0.0052991055
0.0051466824
0.0049918328
0.0048345618
0.0046748048
0.0045125861
0.0043478525
0.0041806487
0.0040109403
0.0038388032
0.0036642434
0.0034873715
0.0033082933
0.0031271334
0.0029441913
0.0027596597
0.0025741881
0.002387949
0.0022027223
0.0020175941
0.0018391995
0.0016587525
0.0015062842
0.0013294463
0.0012658863
0.0010621751
0.0017998389
-0.0017618839
0.047201448
0.043025199
0.036220519
0.029697245
0.024778649
0.021263243
0.018768072
0.016870468
0.015286331
0.014029877
0.013030338
0.012220296
0.011596274
0.011122888
0.010777203
0.010525184
0.010341816
0.010223051
0.010148345
0.010102542
0.010074784
0.010054346
0.010035873
0.010016948
0.0099950959
0.0099695142
0.0099407098
0.009907636
0.0098685371
0.0098241621
0.0097752322
0.0097217038
0.0096641501
0.0096032524
0.0095388668
0.0094708755
0.0093996872
0.0093252125
0.009247498
0.009167117
0.0090839978
0.0089979848
0.0089096347
0.0088189425
0.0087258517
0.0086307457
0.0085333874
0.0084338983
0.0083324579
0.0082287746
0.0081232094
0.0080157021
0.0079062509
0.0077950247
0.0076817596
0.0075666932
0.0074497155
0.0073308179
0.0072100098
0.0070872002
0.0069625223
0.0068358223
0.0067071932
0.0065765272
0.0064438398
0.0063090774
0.0061721944
0.0060331613
0.0058919305
0.005748494
0.0056027851
0.0054547973
0.0053044653
0.0051517924
0.0049967054
0.0048392092
0.0046792384
0.0045168169
0.0043518905
0.0041845036
0.0040146213
0.003842319
0.0036676022
0.0034905813
0.0033113615
0.0031300671
0.0029469977
0.0027623454
0.0025767598
0.0023904129
0.0022050859
0.0020198628
0.0018413842
0.0016608553
0.0015083287
0.0013314243
0.0012678682
0.0010641037
0.0018021782
-0.0017604615
0.045069903
0.041329838
0.035462504
0.029661495
0.025071077
0.021669837
0.019168027
0.017237856
0.015642229
0.014359577
0.013329975
0.012491728
0.011837158
0.011333328
0.010958701
0.010679574
0.01047339
0.010341326
0.010257989
0.010203977
0.010169421
0.010145503
0.010125313
0.010104667
0.01007985
0.010049572
0.010015214
0.0099765879
0.0099324401
0.0098840938
0.0098319549
0.0097754913
0.0097151785
0.00965167
0.0095847411
0.0095142673
0.0094407402
0.0093640334
0.0092841667
0.0092017734
0.0091167443
0.00902891
0.0089388591
0.0088465509
0.0087519298
0.0086553932
0.0085566811
0.008455928
0.0083533029
0.0082484958
0.0081418792
0.0080333785
0.0079229928
0.0078108889
0.0076967938
0.0075809488
0.0074632351
0.0073436453
0.007222186
0.0070987619
0.0069735047
0.0068462555
0.0067171081
0.006585953
0.0064528042
0.006317604
0.0061803065
0.0060408817
0.0058992802
0.0057554925
0.0056094508
0.0054611476
0.0053105165
0.0051575599
0.0050022035
0.0048444517
0.0046842383
0.0045215864
0.0043564412
0.0041888466
0.0040187668
0.003846277
0.003671382
0.0034941919
0.0033148114
0.0031333644
0.0029501503
0.0027653608
0.0025796455
0.002393176
0.0022077343
0.0020224028
0.0018438261
0.0016632038
0.0015106021
0.0013336221
0.0012700468
0.0010662233
0.0018047384
-0.0017588401
0.043182462
0.03984491
0.034735399
0.029546263
0.025271907
0.021998227
0.019516301
0.017573467
0.015970973
0.014668332
0.01361729
0.01276138
0.012084649
0.011555033
0.011156624
0.010853967
0.010623336
0.010469418
0.010365098
0.010292675
0.010244326
0.010213091
0.010189383
0.010166258
0.010141629
0.010113102
0.01008011
0.010041898
0.0099961394
0.0099446133
0.0098887027
0.0098285494
0.0097651959
0.0096993092
0.0096302739
0.0095577786
0.0094823533
0.009403775
0.0093220321
0.009237842
0.0091510584
0.0090615108
0.0089698355
0.0088759575
0.0087798295
0.0086818684
0.0085817891
0.0084797488
0.0083759074
0.0082699361
0.0081622256
0.0080526848
0.0079413139
0.007828279
0.0077132957
0.007596614
0.0074781091
0.0073577737
0.0072356105
0.0071115195
0.0069856319
0.0068577839
0.0067280707
0.0065963794
0.006462723
0.0063270416
0.0061892884
0.006049432
0.0059074213
0.0057632459
0.0056168364
0.0054681845
0.0053172222
0.0051639511
0.005008296
0.0048502607
0.004689778
0.0045268704
0.0043614822
0.0041936567
0.0040233576
0.0038506593
0.0036755661
0.0034981877
0.0033186283
0.0031370115
0.0029536361
0.0027686936
0.0025828336
0.0023962271
0.0022106564
0.0020252036
0.0018465146
0.0016657877
0.0015130933
0.001336028
0.001272408
0.0010685156
0.0018074885
-0.0017570035
0.041476821
0.038509357
0.03406101
0.029413064
0.025428377
0.022278502
0.019828895
0.017884167
0.016278757
0.014963651
0.013896051
0.013023835
0.012326267
0.011775654
0.01135414
0.011030359
0.010781008
0.010606836
0.010483858
0.01039492
0.010331487
0.010285977
0.010249669
0.010216135
0.010185102
0.010154914
0.010121959
0.010084493
0.010041761
0.0099933923
0.0099397032
0.0098798134
0.0098148019
0.0097463044
0.0096745427
0.0095997026
0.0095225196
0.0094424466
0.009359249
0.0092736776
0.0091854967
0.0090945258
0.0090014619
0.0089061941
0.0088086971
0.0087094169
0.0086080433
0.0085047683
0.0083997462
0.008292629
0.0081838331
0.0080732496
0.0079608835
0.0078469019
0.007731008
0.0076134642
0.0074941376
0.0073730236
0.007250122
0.0071253289
0.0069987753
0.0068702928
0.0067399784
0.0066077144
0.0064735139
0.0063373164
0.0061990741
0.006058753
0.005916301
0.0057717065
0.0056248991
0.0054758691
0.0053245473
0.0051709345
0.0050149545
0.0048566106
0.0046958344
0.0045326479
0.0043669944
0.0041989168
0.0040283778
0.0038554515
0.0036801413
0.0035025568
0.0033228013
0.0031409981
0.0029574458
0.0027723353
0.0025863159
0.0023995585
0.0022138451
0.0020282583
0.0018494428
0.0016686002
0.0015157949
0.0013386345
0.0012749419
0.0010709679
0.0018104015
-0.0017549284
0.039923267
0.037278199
0.033404864
0.029252319
0.02555053
0.022529728
0.02012231
0.018182303
0.016575608
0.015250878
0.014168372
0.013280616
0.012564323
0.011994267
0.011550915
0.011207008
0.010939734
0.010745993
0.010605228
0.010501471
0.010424592
0.01036612
0.010318801
0.010275905
0.010236356
0.010198254
0.010157951
0.010114663
0.010070247
0.010022612
0.0099704264
0.0099137364
0.0098524103
0.0097867068
0.0097161398
0.0096405953
0.0095616484
0.0094795989
0.0093946589
0.0093078116
0.0092185563
0.0091265406
0.0090324682
0.0089361422
0.008837552
0.0087371792
0.0086346874
0.0085303195
0.0084242284
0.0083160501
0.0082062361
0.0080946591
0.0079813345
0.0078664314
0.0077496414
0.0076312425
0.0075110927
0.0073891928
0.0072655409
0.0071400303
0.0070127928
0.006883655
0.0067527172
0.0066198571
0.0064850884
0.0063483498
0.0062095927
0.0060687817
0.0059258629
0.0057808241
0.0056335936
0.0054841613
0.005332456
0.0051784781
0.0050221505
0.0048634758
0.0047023847
0.0045388985
0.0043729596
0.0042046105
0.0040338128
0.0038606404
0.003685096
0.0035072886
0.0033273209
0.0031453159
0.0029615716
0.0027762787
0.002590086
0.0024031643
0.0022172948
0.0020315615
0.0018526054
0.0016716362
0.0015187008
0.0013414356
0.0012776404
0.00107357
0.0018134513
-0.0017525877
0.038503023
0.036135834
0.032753731
0.029049383
0.025626577
0.022746172
0.020395019
0.018469831
0.016865742
0.015533899
0.014437864
0.013535126
0.012801123
0.012212105
0.011748106
0.011384481
0.011099426
0.010886907
0.01072895
0.010609751
0.010519089
0.010448491
0.010390866
0.010339516
0.010292327
0.010247142
0.010200526
0.010151978
0.010102547
0.010049864
0.0099930519
0.0099343567
0.009873782
0.0098099484
0.0097422407
0.0096703372
0.0095943293
0.0095138812
0.0094287693
0.0093407016
0.0092499861
0.0091567064
0.0090617336
0.0089646373
0.0088652936
0.0087641654
0.0086608494
0.0085556385
0.008448684
0.0083396082
0.0082289112
0.0081164488
0.0080022537
0.0078865006
0.0077688692
0.0076496586
0.0075287171
0.0074060533
0.0072816652
0.0071554445
0.0070275255
0.0068977295
0.0067661619
0.0066326965
0.0064973482
0.0063600544
0.0062207669
0.006079449
0.0059360459
0.0057905446
0.0056428723
0.0054930185
0.0053409107
0.0051865487
0.0050298545
0.0048708303
0.0047094058
0.0045456019
0.0043793599
0.0042107219
0.0040396488
0.003866214
0.0036904193
0.0035123736
0.0033321788
0.0031499574
0.0029660071
0.0027805181
0.0025941388
0.00240704
0.0022210014
0.0020351095
0.0018559988
0.001674892
0.0015218071
0.0013444268
0.0012804972
0.0010763133
0.0018166128
-0.0017499493
0.037200575
0.035074203
0.032109529
0.028805225
0.025652136
0.022920714
0.020639625
0.018741114
0.017146191
0.01581164
0.014704918
0.013788539
0.013037829
0.012430397
0.011946465
0.01156339
0.011260545
0.011029716
0.010854732
0.010720157
0.010615771
0.010533005
0.010464799
0.010404616
0.010349707
0.010297858
0.010245801
0.010192608
0.010138615
0.010081702
0.010021379
0.0099593121
0.009895198
0.0098277757
0.0097579627
0.009686681
0.0096125643
0.0095347713
0.0094531463
0.0093679284
0.0092787989
0.0091855273
0.0090896555
0.0089914695
0.0088912389
0.0087894847
0.008685608
0.0085798612
0.0084723376
0.0083626193
0.0082512586
0.0081380901
0.0080231733
0.0079066937
0.0077883213
0.0076683828
0.0075467175
0.007423345
0.0072982643
0.0071713669
0.0070427918
0.0069123554
0.00678017
0.0066461062
0.0065101809
0.0063723309
0.0062325087
0.0060906775
0.0059467813
0.0058008071
0.0056526814
0.0055023934
0.0053498696
0.0051951094
0.0050380341
0.0048786457
0.0047168729
0.0045527362
0.0043861762
0.0042172345
0.0040458713
0.0038721596
0.0036961004
0.0035178024
0.0033373669
0.0031549157
0.0029707463
0.0027850485
0.0025984698
0.0024111817
0.0022249614
0.0020388993
0.0018596199
0.0016783649
0.0015251103
0.0013476048
0.0012835069
0.0010791902
0.0018198604
-0.0017469765
0.036002508
0.034086162
0.031476416
0.02852669
0.025630073
0.023052047
0.020851952
0.018991041
0.017412585
0.016080709
0.014967173
0.014039437
0.013273685
0.01264893
0.012145992
0.011743973
0.011423442
0.011174637
0.010982706
0.010832826
0.010714678
0.010619711
0.01054081
0.010471534
0.010408745
0.010350087
0.010292338
0.010234231
0.010175814
0.010115298
0.010052018
0.0099870351
0.0099199691
0.0098498882
0.0097776457
0.0097037663
0.0096268482
0.0095472444
0.0094662694
0.0093829007
0.0092963086
0.0092062897
0.0091130319
0.0090161573
0.0089158954
0.0088134208
0.0087087264
0.0086024005
0.0084944646
0.0083843458
0.0082725927
0.008158971
0.0080435536
0.0079265355
0.0078075769
0.0076870417
0.0075647613
0.0074407713
0.0073150741
0.0071875626
0.0070583832
0.0069273474
0.0067945772
0.0066599404
0.0065234574
0.0063850648
0.0062447169
0.0061023774
0.0059579898
0.0058115417
0.005662959
0.0055122315
0.0053592846
0.005204118
0.0050466522
0.0048868893
0.0047247572
0.0045602764
0.0043933866
0.0042241292
0.0040524637
0.0038784628
0.0037021268
0.0035235644
0.0033428759
0.0031601829
0.0029757825
0.002789864
0.0026030744
0.0024155853
0.0022291714
0.0020429277
0.0018634659
0.0016820524
0.0015286072
0.0013509663
0.0012866643
0.0010821935
0.0018231669
-0.0017436271
0.034897188
0.033164999
0.030857733
0.028221101
0.02556566
0.02314218
0.021031076
0.019216967
0.017661952
0.016338206
0.015222081
0.014285826
0.013507192
0.012866664
0.012345966
0.011925794
0.011587919
0.011321563
0.011112896
0.010947779
0.01081585
0.010708606
0.010618901
0.010540411
0.010469624
0.010403962
0.010340287
0.0102771
0.010214179
0.010149896
0.010083429
0.010015519
0.0099458953
0.0098737312
0.0097995069
0.0097234659
0.0096445007
0.0095630982
0.0094801334
0.0093945208
0.0093065796
0.0092173318
0.0091258876
0.0090315122
0.0089342148
0.0088339993
0.0087302073
0.008623726
0.0085152067
0.0084045075
0.0082923873
0.0081784858
0.0080627995
0.0079454804
0.0078261501
0.0077052067
0.0075824695
0.0074579957
0.0073317946
0.0072037638
0.0070740606
0.0069424924
0.0068091938
0.0066740304
0.0065370279
0.0063981233
0.0062572738
0.0061144444
0.0059695792
0.0058226667
0.0056736331
0.005522469
0.0053690995
0.0052135248
0.005055665
0.0048955227
0.0047330252
0.004568193
0.0044009653
0.0042313836
0.0040594064
0.0038851068
0.003708484
0.0035296469
0.0033486951
0.0031657498
0.0029811078
0.0027949582
0.0026079467
0.0024202461
0.0022336272
0.0020471914
0.0018675336
0.0016859516
0.0015322944
0.0013545081
0.0012899637
0.0010853155
0.0018265025
-0.0017398533
0.033874517
0.032304532
0.030255849
0.027895043
0.025464464
0.023194208
0.021177653
0.019417872
0.017892641
0.016582237
0.015467768
0.014526074
0.013736963
0.013082482
0.012545488
0.012108173
0.011753511
0.011470152
0.011245088
0.011064889
0.010919241
0.0107997
0.010699122
0.010611281
0.010532348
0.01045954
0.010389788
0.01032139
0.010253845
0.010185619
0.010115805
0.010044885
0.0099726081
0.0098981957
0.0098219222
0.0097439954
0.0096635133
0.0095807168
0.009496146
0.0094089624
0.0093196199
0.0092287219
0.0091354259
0.0090403216
0.0089439687
0.0088455368
0.0087442338
0.0086403318
0.0085335545
0.0084233775
0.0083109888
0.0081966167
0.0080805869
0.0079630572
0.0078435336
0.0077223953
0.0075994065
0.0074746321
0.0073480839
0.0072196668
0.0070895529
0.006957548
0.0068238032
0.0066881828
0.0065507198
0.0064113527
0.0062700428
0.0061267574
0.0059814418
0.0058340867
0.005684619
0.0055330311
0.0053792482
0.0052232715
0.0050650211
0.0049045006
0.0047416369
0.0045764511
0.0044088817
0.0042389707
0.0040666761
0.003892071
0.0037151542
0.0035360346
0.0033548113
0.0031716051
0.0029867126
0.0028003225
0.0026130798
0.0024251579
0.0022383236
0.0020516857
0.0018718188
0.0016900586
0.0015361676
0.001358226
0.001293399
0.0010885477
0.0018298342
-0.0017356014
0.032925709
0.031499125
0.02967231
0.027554188
0.025331787
0.023211492
0.021293022
0.019593577
0.018103778
0.016811585
0.015702896
0.014758924
0.013961851
0.013295401
0.012743715
0.012290429
0.011919714
0.011620001
0.011378984
0.011183946
0.011024708
0.010892906
0.010781428
0.010684128
0.01059693
0.010516866
0.0104409
0.010367152
0.010294862
0.010222561
0.010149277
0.010075254
0.010000219
0.0099234297
0.0098450232
0.0097651523
0.0096830306
0.0095987686
0.009512817
0.00942452
0.0093341248
0.0092419783
0.0091474802
0.009051247
0.0089534001
0.0088534212
0.0087521168
0.0086493327
0.0085442693
0.0084366135
0.0083263909
0.0082131308
0.0080972631
0.007979444
0.0078595878
0.0077382637
0.0076151533
0.00749026
0.0073635535
0.0072349234
0.0071045514
0.0069722396
0.00683816
0.0067021778
0.0065643363
0.0064245771
0.0062828667
0.0061391761
0.0059934529
0.0058456909
0.0056958184
0.0055438306
0.0053896533
0.0052332896
0.0050746599
0.0049137696
0.0047505452
0.004585009
0.0044170993
0.0042468586
0.0040742447
0.0038993311
0.0037221161
0.003542709
0.0033612083
0.0031777347
0.0029925847
0.0028059467
0.0026184646
0.0024303132
0.002243254
0.002056405
0.0018763163
0.001694369
0.0015402217
0.0013621152
0.001296963
0.0010918803
0.001833125
-0.0017308107
0.032043098
0.030743685
0.029108002
0.027203321
0.025172517
0.023197403
0.021378835
0.019744368
0.018294929
0.017025442
0.015926478
0.014983387
0.014180922
0.013504579
0.012939899
0.012471931
0.012086034
0.011770704
0.011514265
0.011304712
0.011132074
0.010988095
0.010865726
0.010758898
0.010663346
0.010575931
0.010493627
0.010414401
0.010337264
0.010260779
0.010183911
0.010106688
0.010028801
0.0099495408
0.0098689215
0.0097870317
0.0097031738
0.009617372
0.0095299935
0.0094404813
0.0093489896
0.0092558191
0.0091604978
0.0090633974
0.0089645327
0.0088636017
0.0087613462
0.0086571432
0.0085510132
0.0084438575
0.0083350138
0.0082236675
0.0081100212
0.0079937883
0.0078745057
0.0077530872
0.0076297161
0.0075046557
0.0073778681
0.007249171
0.0071187104
0.0069862541
0.0068519857
0.0067157673
0.0065776556
0.0064375972
0.0062955667
0.0061515402
0.006005469
0.0058573511
0.0057071172
0.0055547659
0.0054002246
0.0052434989
0.0050845105
0.0049232666
0.0047596944
0.0045938176
0.0044255746
0.0042550091
0.0040820786
0.0039068576
0.0037293438
0.0035496474
0.0033678665
0.0031841216
0.0029987093
0.0028118179
0.00262409
0.0024357022
0.0022484098
0.0020613418
0.0018810193
0.0016988766
0.0015444504
0.0013661699
0.0013006472
0.0010953024
0.0018363332
-0.0017254129
0.031219971
0.030033637
0.028563306
0.026846416
0.024991095
0.023155218
0.021436912
0.01987082
0.018465935
0.017223247
0.016137746
0.015198655
0.014393382
0.01370928
0.013133369
0.012652094
0.012251997
0.01192186
0.01165061
0.011426937
0.011241145
0.011085124
0.010951912
0.01083552
0.010731547
0.0106367
0.010547948
0.010463131
0.010381051
0.010300278
0.01021972
0.01013921
0.010058392
0.0099765794
0.0098936763
0.0098097034
0.009724037
0.0096366256
0.0095477595
0.009456959
0.0093643116
0.0092700722
0.0091738312
0.0090758755
0.0089762443
0.0088746794
0.0087716394
0.0086665968
0.0085597089
0.0084515807
0.0083415106
0.0082299394
0.0081170891
0.0080022407
0.0078850594
0.0077654528
0.0076429978
0.0075180906
0.0073911377
0.0072622873
0.0071317687
0.0069992816
0.0068649744
0.0067286705
0.0065904262
0.0064501886
0.0063079419
0.0061636692
0.0060173278
0.0058689214
0.0057183843
0.0055657199
0.0054108575
0.0052538065
0.0050944899
0.0049329181
0.0047690192
0.004602819
0.0044342565
0.0042633769
0.0040901378
0.0039146152
0.0037368063
0.0035568227
0.003374762
0.003190745
0.0030050682
0.0028179201
0.0026299422
0.0024413128
0.0022537806
0.0020664868
0.0018859193
0.0017035739
0.0015488457
0.0013703827
0.0013044417
0.0010988007
0.0018394116
-0.0017193316
0.030450432
0.029364889
0.028038224
0.026486733
0.024791509
0.023088086
0.021469163
0.019973719
0.018616842
0.017404621
0.016336079
0.01540403
0.01459853
0.013908839
0.013323509
0.012830373
0.012417149
0.012073083
0.011787697
0.011550364
0.011351724
0.01118384
0.01103987
0.010913914
0.010801475
0.010699132
0.010603839
0.010513327
0.010426213
0.010341054
0.010256704
0.010172822
0.010088998
0.010004555
0.0099193021
0.0098331913
0.009745657
0.009656582
0.0095661806
0.0094740366
0.0093801769
0.0092848143
0.0091875946
0.0090887422
0.0089882936
0.0088860049
0.0087822621
0.0086766544
0.0085692379
0.0084604135
0.00834965
0.0082374334
0.0081235109
0.00800782
0.0078910314
0.0077725896
0.0076517993
0.0075287121
0.0074029351
0.0072744718
0.0071438968
0.0070112811
0.0068769303
0.0067406268
0.0066023793
0.0064621
0.0063197653
0.00617536
0.0060288469
0.0058802378
0.0057294721
0.0055765596
0.0054214326
0.0052641052
0.0051045026
0.0049426389
0.0047784438
0.0046119458
0.004443085
0.0042719088
0.0040983753
0.0039225622
0.003744467
0.0035642025
0.0033818663
0.0031975796
0.0030116392
0.002824234
0.0026360041
0.0024471302
0.002259353
0.0020718283
0.0018910058
0.0017084514
0.0015533978
0.0013747445
0.0013083348
0.00110236
0.0018423064
-0.001712481
0.029729282
0.028733787
0.027532484
0.026126901
0.024577299
0.022998992
0.021477547
0.020054014
0.018747872
0.017569328
0.016520976
0.015598897
0.014795723
0.014102632
0.013509734
0.013006243
0.012581047
0.012223991
0.011925206
0.011674735
0.011463602
0.011284083
0.011129477
0.010993988
0.010873065
0.010763179
0.010661267
0.010564967
0.010472735
0.010383098
0.010294859
0.010207523
0.010120618
0.01003347
0.0099458008
0.0098574985
0.0097680392
0.0096772501
0.0095852729
0.0094917411
0.0093966295
0.0093001068
0.0092018659
0.0091020683
0.0090007511
0.0088976936
0.0087932226
0.0086869833
0.0085789872
0.0084696074
0.0083584089
0.008245658
0.0081311325
0.0080148931
0.0078973402
0.0077779599
0.0076570914
0.007534794
0.0074103257
0.0072836308
0.0071544021
0.0070223555
0.0068880467
0.0067516529
0.0066133737
0.0064731135
0.0063308008
0.0061863873
0.0060398216
0.0058911163
0.0057402152
0.0055871358
0.0054318152
0.0052742735
0.0051144391
0.0049523309
0.0047878802
0.0046211196
0.0044519902
0.0042805426
0.0041067358
0.0039306497
0.0037522822
0.0035717482
0.0033891453
0.0032045954
0.003018396
0.0028307363
0.0026422551
0.002453136
0.002265111
0.0020773521
0.0018962656
0.0017134973
0.0015580951
0.0013792445
0.0013123128
0.0011059622
0.0018449562
-0.001704765
0.029051928
0.028137071
0.027045623
0.025769017
0.024351578
0.022890743
0.021464037
0.020112788
0.018859404
0.017717274
0.016692043
0.015782719
0.014984368
0.014290063
0.013691475
0.013179186
0.012743245
0.012374198
0.012062809
0.011799782
0.011576564
0.011385682
0.011220603
0.011075648
0.010946245
0.010828791
0.010720198
0.010618029
0.010520601
0.010426399
0.010334178
0.010243308
0.010153249
0.010063321
0.009973172
0.0098826239
0.0097911832
0.0096986296
0.0096050362
0.0095100739
0.0094136739
0.0093159609
0.0092166655
0.0091158935
0.0090136781
0.0089098183
0.0088045779
0.0086976575
0.0085890491
0.0084790846
0.0083673768
0.0082541298
0.0081391979
0.0080225712
0.007904501
0.0077845991
0.007663194
0.0075400342
0.0074151838
0.0072889565
0.0071607703
0.0070303358
0.0068974258
0.0067617323
0.0066235946
0.0064832838
0.0063409503
0.0061965692
0.0060500444
0.0059013554
0.0057504287
0.0055972821
0.0054418553
0.0052841761
0.005124177
0.0049618832
0.0047972288
0.0046302506
0.0044608919
0.0042892066
0.0041151552
0.0039388205
0.0037602012
0.0035794147
0.0033965589
0.0032117569
0.003025307
0.002837399
0.0026486706
0.0024593086
0.0022710352
0.0020830408
0.0019016831
0.0017186973
0.0015629231
0.0013838695
0.0013163597
0.0011095864
0.0018472919
-0.001696076
0.028414302
0.027571831
0.026577052
0.02541472
0.024117051
0.022765948
0.02143059
0.020151224
0.018951956
0.017848495
0.016848999
0.015955033
0.015163922
0.014470569
0.013868182
0.01334869
0.012903292
0.012523311
0.012200169
0.011925224
0.011690383
0.011488457
0.011313106
0.011158787
0.01102094
0.01089591
0.010780591
0.010672486
0.010569791
0.010470945
0.010374656
0.010280173
0.010186888
0.010094109
0.010001415
0.0099085666
0.0098150886
0.0097207197
0.0096254686
0.0095290332
0.0094313077
0.0093323737
0.0092319917
0.0091302199
0.0090270831
0.008922396
0.008816365
0.0087087384
0.0085994881
0.0084889007
0.0083766415
0.0082628804
0.0081474889
0.0080304335
0.0079119583
0.0077917291
0.0076699083
0.0075462898
0.0074210325
0.0072940718
0.0071652918
0.0070350955
0.0069030786
0.0067687665
0.006632008
0.0064924843
0.0063503746
0.0062059819
0.0060594486
0.0059108019
0.0057599297
0.0056068174
0.005451386
0.0052936619
0.00513358
0.0049711725
0.0048063776
0.0046392376
0.0044696985
0.0042978185
0.0041235597
0.0039470086
0.0037681649
0.0035871493
0.0034040603
0.0032190224
0.0030323351
0.0028441892
0.0026552212
0.0024656216
0.0022771021
0.0020888735
0.0019072391
0.0017240341
0.001567865
0.0013886039
0.0013204567
0.0011132079
0.0018492433
-0.0016862934
0.027812794
0.027035463
0.026126098
0.025065273
0.023876048
0.022627007
0.021379118
0.020170574
0.019026167
0.017963152
0.016991666
0.016115459
0.015333895
0.014643616
0.01403932
0.013514248
0.013060734
0.012670928
0.012336936
0.012050769
0.011804819
0.011592214
0.011406833
0.011243289
0.011097062
0.010964472
0.010842402
0.010728308
0.010620285
0.010516723
0.010416286
0.010318115
0.010221534
0.010125833
0.010030531
0.0099353269
0.0098397559
0.0097435206
0.0096465696
0.0095486182
0.0094495291
0.0093493424
0.0092478413
0.0091450431
0.009040961
0.008935423
0.0088285849
0.0087202335
0.0086103222
0.0084990946
0.008386263
0.0082719566
0.008156067
0.0080385587
0.0079196506
0.0077990365
0.0076768425
0.0075529236
0.0074273226
0.0072999627
0.0071708188
0.0070400477
0.0069074029
0.0067731222
0.006637086
0.0064987513
0.0063579743
0.0062144175
0.0060681676
0.0059195415
0.0057686734
0.0056156117
0.005460245
0.0053025682
0.005142497
0.004980062
0.0048152027
0.0046479683
0.004478308
0.0043062856
0.0041318656
0.0039551386
0.0037761057
0.0035948914
0.0034115952
0.0032263433
0.003039437
0.0028510682
0.0026618724
0.0024720445
0.0022832843
0.0020948255
0.001912911
0.0017294873
0.0015729006
0.0013934291
0.0013245824
0.0011167981
0.001850743
-0.0016752815
0.027244197
0.026525638
0.025692043
0.024721624
0.023630555
0.022476109