/*--------------------------------*- C++ -*----------------------------------*\
| =========                 |                                                 |
| \\      /  F ield         | OpenFOAM: The Open Source CFD Toolbox           |
|  \\    /   O peration     | Version:  2206                                  |
|   \\  /    A nd           | Website:  www.openfoam.com                      |
|    \\/     M anipulation  |                                                 |
\*---------------------------------------------------------------------------*/
FoamFile
{
    version     2.0;
    format      ascii;
    arch        "LSB;label=32;scalar=64";
    class       surfaceScalarField;
    location    "700";
    object      phi;
}
// * * * * * * * * * * * * * * * * * * * * * * * * * * * * * * * * * * * * * //

dimensions      [0 3 -1 0 0 0 0];

oriented        oriented;

internalField   nonuniform List<scalar> 
14782
(
0.00064614891
7.5171407e-05
-0.00072132032
0.00055262863
9.352028e-05
0.0004630542
8.9574424e-05
0.00039107653
7.197768e-05
0.0003397853
5.1291223e-05
0.00030366009
3.6125212e-05
0.00027688691
2.677318e-05
0.0002557457
2.1141207e-05
0.00023824912
1.7496586e-05
0.00022350848
1.4740633e-05
0.00021104304
1.2465441e-05
0.000200473
1.0570046e-05
0.00019149732
8.9756735e-06
0.00018386092
7.6364049e-06
0.0001773395
6.5214223e-06
0.00017175231
5.5871894e-06
0.00016695069
4.8016197e-06
0.00016281254
4.1381454e-06
0.00015922192
3.5906214e-06
0.00015607795
3.1439659e-06
0.00015330244
2.7755126e-06
0.00015081548
2.4869649e-06
0.00014856232
2.2531575e-06
0.00014650388
2.0584432e-06
0.00014460795
1.895924e-06
0.00014284925
1.7587042e-06
0.00014120831
1.6409329e-06
0.00013966741
1.5409003e-06
0.00013820966
1.4577504e-06
0.00013682357
1.3860963e-06
0.00013550229
1.3212807e-06
0.00013423929
1.2629972e-06
0.00013302845
1.2108439e-06
0.00013186452
1.1639273e-06
0.00013074292
1.1215996e-06
0.00012965819
1.0847284e-06
0.00012860563
1.0525603e-06
0.00012758295
1.0226838e-06
0.00012658721
9.95737e-07
0.00012561578
9.7143033e-07
0.00012466653
9.4925019e-07
0.00012373732
9.2920753e-07
0.00012282701
9.1031549e-07
0.0001219344
8.9260679e-07
0.00012105818
8.7621627e-07
0.00012019756
8.6062125e-07
0.00011935118
8.4638525e-07
0.00011851798
8.331994e-07
0.00011769739
8.2058259e-07
0.0001168885
8.0889749e-07
0.00011609091
7.9758411e-07
0.00011530416
7.8674951e-07
0.00011452779
7.7637805e-07
0.00011376155
7.6623678e-07
0.00011300488
7.5667249e-07
0.00011225756
7.4731493e-07
0.00011151921
7.3834892e-07
0.00011078941
7.2979789e-07
0.00011006787
7.2154499e-07
0.00010935434
7.1353015e-07
0.00010864881
7.0552563e-07
0.00010795106
6.9775598e-07
0.00010726094
6.9012062e-07
0.00010657826
6.8267225e-07
0.00010590292
6.7534031e-07
0.00010523474
6.6818874e-07
0.0001045735
6.6123565e-07
0.00010391909
6.5441278e-07
0.00010327139
6.4769746e-07
0.00010263031
6.4107552e-07
0.00010199573
6.3458779e-07
0.00010136753
6.2819585e-07
0.00010074563
6.2190034e-07
0.00010012995
6.1568069e-07
9.9520354e-05
6.0959568e-07
9.8916743e-05
6.0361119e-07
9.8318997e-05
5.9774595e-07
9.7727034e-05
5.9196298e-07
9.7140739e-05
5.8629513e-07
9.6560027e-05
5.8071153e-07
9.5984778e-05
5.752495e-07
9.5414898e-05
5.6988005e-07
9.4850254e-05
5.6464398e-07
9.429073e-05
5.5952406e-07
9.3736189e-05
5.5454087e-07
9.3186455e-05
5.4973351e-07
9.264136e-05
5.4509492e-07
9.210065e-05
5.4071034e-07
9.1564072e-05
5.3657844e-07
9.1031188e-05
5.3288321e-07
9.0501598e-05
5.2959045e-07
8.9974351e-05
5.2724703e-07
8.94489e-05
5.2545103e-07
8.8922254e-05
5.2664605e-07
8.8395062e-05
5.2719201e-07
8.7853103e-05
5.4195889e-07
8.7309396e-05
5.4370703e-07
8.6672579e-05
6.3681662e-07
8.641157e-05
2.6100896e-07
1.1682974e-06
0.00078817239
8.1282167e-05
-0.00079428315
0.00076955795
0.00011213473
0.00073465119
0.00012448118
0.0006872914
0.00011933747
0.00063509473
0.00010348789
0.00058538228
8.5837661e-05
0.00054163275
7.0522719e-05
0.00050445538
5.8318569e-05
0.00047313519
4.8816776e-05
0.00044671071
4.1165122e-05
0.00042428596
3.489019e-05
0.00040512281
2.9733195e-05
0.00038867011
2.5428375e-05
0.00037449809
2.1808416e-05
0.00036225699
1.876253e-05
0.00035165862
1.6185552e-05
0.0003424475
1.4012743e-05
0.00033439906
1.2186584e-05
0.00032732233
1.0667355e-05
0.00032105783
9.4084664e-06
0.00031546835
8.3649889e-06
0.00031043547
7.5198509e-06
0.00030586567
6.8229573e-06
0.00030168612
6.2379923e-06
0.00029783671
5.7453324e-06
0.00029426936
5.3260516e-06
0.00029094556
4.9647361e-06
0.00028783092
4.6555355e-06
0.00028489583
4.3928447e-06
0.00028211784
4.1640888e-06
0.00027948052
3.958596e-06
0.00027696909
3.7744332e-06
0.00027457035
3.609575e-06
0.00027227282
3.4614595e-06
0.00027006695
3.3274684e-06
0.00026794179
3.2098924e-06
0.00026588806
3.1062869e-06
0.00026390052
3.0102234e-06
0.00026197253
2.9237313e-06
0.00026009846
2.8454969e-06
0.00025827377
2.7739378e-06
0.00025649418
2.708801e-06
0.00025475655
2.6479499e-06
0.00025305797
2.5911833e-06
0.00025139565
2.5385365e-06
0.00024976734
2.4889277e-06
0.00024817033
2.4433946e-06
0.00024660237
2.4011627e-06
0.00024506182
2.361133e-06
0.00024354685
2.3238631e-06
0.00024205625
2.2881866e-06
0.0002405888
2.2542034e-06
0.00023914339
2.2217904e-06
0.00023771917
2.1904522e-06
0.00023631504
2.1608017e-06
0.00023493027
2.1320888e-06
0.00023356396
2.1046564e-06
0.00023221522
2.0785409e-06
0.00023088331
2.0534471e-06
0.00022956769
2.0291505e-06
0.00022826806
2.0051633e-06
0.00022698389
1.9819258e-06
0.00022571476
1.9592502e-06
0.00022446023
1.937197e-06
0.00022321996
1.9156118e-06
0.00022199352
1.8946313e-06
0.00022078047
1.8742883e-06
0.00021958047
1.8544079e-06
0.00021839325
1.8349167e-06
0.00021721854
1.8157832e-06
0.00021605605
1.7970831e-06
0.00021490551
1.7787304e-06
0.00021376671
1.7607045e-06
0.00021263942
1.7429694e-06
0.00021152337
1.7256482e-06
0.00021041831
1.70867e-06
0.000209324
1.6920593e-06
0.00020824022
1.6757394e-06
0.00020716675
1.6597694e-06
0.00020610337
1.6440892e-06
0.00020504985
1.6287714e-06
0.00020400597
1.6137609e-06
0.00020297146
1.5991445e-06
0.0002019461
1.5848908e-06
0.00020092959
1.5710523e-06
0.0001999216
1.55772e-06
0.00019892178
1.5449149e-06
0.00019792968
1.5328063e-06
0.00019694475
1.521516e-06
0.00019596632
1.5113129e-06
0.00019499327
1.5026372e-06
0.00019402467
1.4958476e-06
0.00019305765
1.4924689e-06
0.00019209083
1.4934633e-06
0.00019111647
1.5015606e-06
0.00019012753
1.5308938e-06
0.00018910867
1.5625667e-06
0.00018801404
1.7314505e-06
0.00018713254
1.1425107e-06
2.6800491e-06
0.00082958561
7.788791e-05
-0.00082619135
0.00083387997
0.00010784036
0.00083492392
0.00012343723
0.00082808243
0.00012617896
0.00080983964
0.00012173068
0.00078217302
0.00011350428
0.0007494092
0.00010328654
0.00071514279
9.2584981e-05
0.00068157735
8.2382214e-05
0.00065004164
7.2700836e-05
0.00062118471
6.3747121e-05
0.00059520994
5.5707956e-05
0.0005720681
4.8570222e-05
0.00055155065
4.2325865e-05
0.00053338214
3.6931041e-05
0.0005172847
3.2282993e-05
0.00050299134
2.8306098e-05
0.00049026167
2.491625e-05
0.00047888645
2.204258e-05
0.0004686825
1.9612414e-05
0.00045948652
1.7560975e-05
0.00045115662
1.5849744e-05
0.00044357149
1.4408091e-05
0.00043662885
1.3180627e-05
0.0004302407
1.2133491e-05
0.0004243308
1.1235952e-05
0.00041883696
1.0458567e-05
0.00041370871
9.7837931e-06
0.00040890231
9.1992432e-06
0.00040438108
8.6853174e-06
0.00040011391
8.2257639e-06
0.0003960736
7.8147405e-06
0.0003922366
7.4465817e-06
0.00038858282
7.1152411e-06
0.00038509511
6.8151793e-06
0.00038175534
6.5496594e-06
0.00037854881
6.3128142e-06
0.0003754648
6.0942331e-06
0.00037249139
5.89714e-06
0.00036961909
5.717795e-06
0.00036683972
5.5533151e-06
0.00036414558
5.4029396e-06
0.00036153029
5.2632339e-06
0.00035898808
5.1333937e-06
0.00035651361
5.0130139e-06
0.00035410226
4.9002713e-06
0.00035174934
4.7963171e-06
0.00034945076
4.6997417e-06
0.00034720316
4.6087309e-06
0.00034500321
4.5238173e-06
0.00034284819
4.4432029e-06
0.00034073557
4.3668279e-06
0.00033866303
4.2943311e-06
0.00033662863
4.2248545e-06
0.00033463032
4.1591061e-06
0.00033266644
4.0959687e-06
0.00033073525
4.0358498e-06
0.00032883509
3.9786947e-06
0.00032696458
3.9239589e-06
0.00032512252
3.8712162e-06
0.00032330795
3.8197274e-06
0.00032151981
3.7700651e-06
0.00031975714
3.7219256e-06
0.00031801902
3.6753199e-06
0.00031630463
3.6299929e-06
0.00031461315
3.5861189e-06
0.00031294373
3.5437086e-06
0.00031129568
3.5024572e-06
0.00030966837
3.4622233e-06
0.00030806122
3.4229379e-06
0.00030647362
3.3846794e-06
0.00030490505
3.3473019e-06
0.000303355
3.3107491e-06
0.00030182301
3.2749652e-06
0.00030030854
3.2401151e-06
0.00029881113
3.2060833e-06
0.0002973303
3.1728851e-06
0.00029586564
3.1404016e-06
0.00029441671
3.1087027e-06
0.0002929831
3.0776985e-06
0.00029156438
3.0474844e-06
0.00029016016
3.0179817e-06
0.00028876999
2.9893177e-06
0.00028739343
2.9614494e-06
0.00028603002
2.9344647e-06
0.00028467923
2.90851e-06
0.00028334048
2.8836673e-06
0.00028201311
2.860175e-06
0.00028069623
2.8383927e-06
0.00027938899
2.8185546e-06
0.00027808957
2.802061e-06
0.0002767971
2.7883118e-06
0.00027550656
2.7830103e-06
0.00027421842
2.7816053e-06
0.00027291692
2.8030621e-06
0.00027160374
2.8440741e-06
0.00027023524
2.9310675e-06
0.00026881734
3.1493476e-06
0.00026740685
2.5529956e-06
4.3124698e-06
0.00085967739
7.433158e-05
-0.00085612106
0.00086584929
0.00010166846
0.00087186966
0.00011741687
0.00087609208
0.00012195654
0.00087751079
0.00012031197
0.0008746811
0.00011633397
0.00086635304
0.00011161461
0.00085221884
0.00010671918
0.00083315198
0.00010144908
0.00081084307
9.500975e-05
0.0007866921
8.7898089e-05
0.00076181273
8.0587324e-05
0.00073712806
7.3254895e-05
0.00071332667
6.6127247e-05
0.00069086959
5.9388128e-05
0.0006700153
5.3137281e-05
0.00065084746
4.7473934e-05
0.00063333179
4.2431924e-05
0.0006173655
3.8008867e-05
0.00060281578
3.4162136e-05
0.00058954474
3.0832019e-05
0.00057741995
2.7974536e-05
0.00056631698
2.5511055e-05
0.00055612135
2.3376262e-05
0.00054672799
2.1526846e-05
0.00053804096
1.9922983e-05
0.00052997756
1.852197e-05
0.00052246931
1.7292043e-05
0.00051545556
1.6212995e-05
0.00050888284
1.5258033e-05
0.00050270435
1.4404254e-05
0.00049687889
1.3640202e-05
0.00049137008
1.2955389e-05
0.00048614703
1.2338294e-05
0.00048118289
1.1779317e-05
0.00047645362
1.127893e-05
0.00047193787
1.0828567e-05
0.00046761648
1.041562e-05
0.00046347245
1.0041174e-05
0.00045949081
9.6994353e-06
0.0004556584
9.3857205e-06
0.00045196306
9.0982772e-06
0.00044839421
8.8320823e-06
0.00044494229
8.5853125e-06
0.00044159855
8.3567584e-06
0.00043835538
8.1434384e-06
0.00043520552
7.9461823e-06
0.00043214245
7.7628049e-06
0.00042916061
7.5905723e-06
0.00042625465
7.4297848e-06
0.0004234199
7.2779488e-06
0.00042065205
7.1346827e-06
0.00041794715
6.9992298e-06
0.00041530181
6.8701862e-06
0.00041271275
6.7481746e-06
0.00041017701
6.6317029e-06
0.00040769175
6.5211077e-06
0.00040525438
6.4160717e-06
0.00040286261
6.3157211e-06
0.00040051439
6.2194375e-06
0.00039820789
6.1262346e-06
0.00039594124
6.0367074e-06
0.0003937128
5.9503699e-06
0.000391521
5.867123e-06
0.00038936441
5.7865802e-06
0.00038724163
5.7088966e-06
0.00038515134
5.6340004e-06
0.00038309236
5.5614361e-06
0.0003810636
5.4909806e-06
0.00037906405
5.4224954e-06
0.00037709271
5.3560181e-06
0.00037514869
5.2913247e-06
0.00037323112
5.2283146e-06
0.00037133919
5.1668976e-06
0.00036947206
5.1072432e-06
0.00036762897
5.0491761e-06
0.00036580916
4.9926875e-06
0.00036401196
4.9376091e-06
0.00036223665
4.8840042e-06
0.00036048261
4.8317457e-06
0.00035874915
4.7809384e-06
0.00035703566
4.7314754e-06
0.00035534146
4.683516e-06
0.00035366591
4.6370036e-06
0.00035200831
4.5920596e-06
0.00035036794
4.548885e-06
0.00034874396
4.5076414e-06
0.00034713551
4.4686269e-06
0.00034554139
4.4325101e-06
0.00034396053
4.3994213e-06
0.00034239057
4.3720222e-06
0.00034083058
4.3483008e-06
0.00033927407
4.3395185e-06
0.00033772246
4.3332134e-06
0.00033615496
4.3705617e-06
0.0003345782
4.4208305e-06
0.00033293064
4.5786347e-06
0.0003312498
4.8301851e-06
0.00032942524
4.3775556e-06
6.0561872e-06
0.00088955476
7.1354262e-05
-0.00088657744
0.00089535406
9.5869154e-05
0.00090167664
0.00011109429
0.00090700961
0.00011662356
0.00091075853
0.00011656305
0.00091327757
0.00011381493
0.00091436675
0.00011052543
0.00091362879
0.00010745714
0.00091076274
0.00010431512
0.00090476674
0.00010100575
0.00089521996
9.7444862e-05
0.00088225613
9.3551161e-05
0.00086650555
8.9005468e-05
0.00084867789
8.3954911e-05
0.00082941748
7.8648541e-05
0.00080936512
7.3189641e-05
0.00078912982
6.770923e-05
0.00076923785
6.2323889e-05
0.0007500924
5.715432e-05
0.00073195621
5.2298326e-05
0.00071495942
4.7828811e-05
0.00069912681
4.3807146e-05
0.00068442006
4.02178e-05
0.00067077232
3.7024004e-05
0.00065810561
3.4193562e-05
0.00064633878
3.1689806e-05
0.00063539189
2.9468863e-05
0.00062518894
2.7494993e-05
0.00061565802
2.5743914e-05
0.0006067341
2.4181951e-05
0.00059835918
2.2779174e-05
0.00059048045
2.1518933e-05
0.00058305008
2.0385766e-05
0.00057602629
1.9362079e-05
0.00056937154
1.8434067e-05
0.00056305395
1.7596521e-05
0.00055704478
1.6837733e-05
0.00055131631
1.614409e-05
0.000545845
1.5512486e-05
0.00054060983
1.4934605e-05
0.00053559183
1.4403723e-05
0.00053077336
1.3916745e-05
0.0005261389
1.3466541e-05
0.00052167439
1.3049825e-05
0.0005173668
1.266435e-05
0.00051320489
1.2305347e-05
0.00050917845
1.1972626e-05
0.00050527821
1.1663043e-05
0.00050149598
1.1372803e-05
0.00049782386
1.1101903e-05
0.0004942548
1.084701e-05
0.00049078231
1.0607175e-05
0.00048740046
1.0381076e-05
0.00048410406
1.0166583e-05
0.00048088815
9.9640866e-06
0.00047774822
9.7716326e-06
0.00047468007
9.5892617e-06
0.00047167995
9.4161856e-06
0.00046874453
9.2511488e-06
0.00046587057
9.0933906e-06
0.00046305517
8.9416338e-06
0.00046029553
8.7963552e-06
0.00045758909
8.656804e-06
0.0004549335
8.5227104e-06
0.00045232658
8.3935045e-06
0.00044976623
8.2692461e-06
0.00044725052
8.1497063e-06
0.0004447777
8.0342616e-06
0.00044234609
7.9225886e-06
0.00043995415
7.8144327e-06
0.00043760043
7.7097414e-06
0.00043528356
7.6081926e-06
0.00043300224
7.5096348e-06
0.00043075523
7.413914e-06
0.00042854131
7.3211584e-06
0.00042635937
7.2311118e-06
0.00042420834
7.1437257e-06
0.00042208718
7.0587697e-06
0.0004199949
6.976281e-06
0.00041793056
6.8960831e-06
0.00041589323
6.8182737e-06
0.00041388199
6.7427093e-06
0.00041189594
6.6695691e-06
0.00040993417
6.5987773e-06
0.00040799574
6.5304828e-06
0.00040607969
6.4649373e-06
0.00040418494
6.4023906e-06
0.00040231037
6.3431954e-06
0.00040045451
6.2883691e-06
0.00039861603
6.2379069e-06
0.00039679214
6.1959059e-06
0.00039498173
6.1587118e-06
0.00039317732
6.1439276e-06
0.00039138062
6.129919e-06
0.00038956778
6.1833995e-06
0.00038774772
6.2408919e-06
0.00038584797
6.4783813e-06
0.00038392444
6.7537157e-06
0.00038174569
6.5563097e-06
7.9367519e-06
0.00092044014
6.8793481e-05
-0.00091787935
0.00092558833
9.0720959e-05
0.00093138206
0.00010530057
0.00093649768
0.00011150794
0.00094058727
0.00011247346
0.00094356983
0.00011083237
0.00094568642
0.00010840884
0.00094715892
0.00010598464
0.00094811757
0.00010335648
0.00094841713
0.00010070619
0.00094773614
9.8125857e-05
0.00094578098
9.5506321e-05
0.00094193102
9.2855423e-05
0.00093573066
9.0155275e-05
0.00092697962
8.7399575e-05
0.00091579188
8.4377381e-05
0.00090249405
8.1007062e-05
0.00088741677
7.7401168e-05
0.00087095643
7.3614659e-05
0.00085359541
6.9659349e-05
0.00083584982
6.5574407e-05
0.00081818979
6.1467167e-05
0.00080099184
5.7415758e-05
0.00078450853
5.3507311e-05
0.00076887164
4.9830449e-05
0.00075412289
4.6438556e-05
0.00074025249
4.3339266e-05
0.00072722519
4.0522288e-05
0.00071499293
3.7976181e-05
0.0007035034
3.567148e-05
0.00069270259
3.357998e-05
0.00068253605
3.1685476e-05
0.00067295178
2.9970038e-05
0.00066390208
2.8411777e-05
0.00065534181
2.6994335e-05
0.00064723038
2.5707956e-05
0.00063953183
2.4536279e-05
0.00063221181
2.346411e-05
0.0006252393
2.2484997e-05
0.00061858696
2.158694e-05
0.00061222985
2.0760834e-05
0.00060614469
2.0001909e-05
0.00060031068
1.9300553e-05
0.0005947089
1.8651609e-05
0.00058932178
1.8051463e-05
0.00058413384
1.7493291e-05
0.00057913105
1.6975417e-05
0.00057430076
1.6493326e-05
0.00056963165
1.6041921e-05
0.00056511287
1.5620676e-05
0.00056073472
1.5225159e-05
0.00055648825
1.4853644e-05
0.0005523652
1.4504131e-05
0.00054835818
1.4173601e-05
0.00054446012
1.3862144e-05
0.00054066466
1.35671e-05
0.00053696606
1.3287862e-05
0.00053335917
1.3023067e-05
0.00052983926
1.277106e-05
0.00052640175
1.25309e-05
0.00052304248
1.2300909e-05
0.00051975751
1.2081319e-05
0.0005165433
1.1871016e-05
0.00051339649
1.1669524e-05
0.00051031395
1.1476045e-05
0.00050729278
1.1290415e-05
0.00050433032
1.1112162e-05
0.00050142409
1.0940491e-05
0.00049857174
1.0774939e-05
0.0004957711
1.0615072e-05
0.00049302015
1.0460695e-05
0.00049031697
1.0311371e-05
0.00048765971
1.0166892e-05
0.00048504664
1.0026987e-05
0.00048247611
9.8916884e-06
0.00047994658
9.7606405e-06
0.00047745657
9.6337359e-06
0.00047500468
9.5106624e-06
0.00047258955
9.3914094e-06
0.0004702099
9.2757333e-06
0.00046786447
9.1637069e-06
0.00046555204
9.0551359e-06
0.0004632714
8.9502056e-06
0.00046102137
8.8488114e-06
0.00045880073
8.7511203e-06
0.00045660824
8.6574276e-06
0.00045444256
8.5680734e-06
0.00045230229
8.4834605e-06
0.00045018569
8.4049781e-06
0.00044809112
8.3324719e-06
0.00044601545
8.271579e-06
0.00044395727
8.2168908e-06
0.00044190839
8.1928089e-06
0.00043987043
8.1678731e-06
0.0004378176
8.2362356e-06
0.00043575968
8.2988057e-06
0.00043361706
8.6210055e-06
0.0004314576
8.9131724e-06
0.00042895193
9.061978e-06
9.9722467e-06
0.00095240427
6.6561848e-05
-0.00095017264
0.00095697261
8.6152621e-05
0.00096229202
9.9981155e-05
0.00096708515
0.0001067148
0.00097097167
0.00010858694
0.00097395273
0.00010785131
0.00097625992
0.00010610165
0.00097812682
0.00010411774
0.00097956343
0.00010191987
0.00098062411
9.964551e-05
0.00098136857
9.7381392e-05
0.00098180464
9.5070257e-05
0.00098185121
9.2808846e-05
0.00098131683
9.0689654e-05
0.00098005014
8.8666269e-05
0.00097767441
8.6753106e-05
0.00097371908
8.4962401e-05
0.00096789689
8.322335e-05
0.00096002351
8.1488041e-05
0.00095010353
7.9579334e-05
0.00093827424
7.7403694e-05
0.00092474064
7.5000762e-05
0.00090983094
7.2325456e-05
0.00089399063
6.934763e-05
0.00087770767
6.611341e-05
0.00086142695
6.2719269e-05
0.00084549489
5.9271326e-05
0.00083013347
5.5883713e-05
0.00081545333
5.2656319e-05
0.00080149364
4.9631173e-05
0.00078825492
4.6818697e-05
0.0007757177
4.4222694e-05
0.00076385185
4.1835893e-05
0.00075262125
3.9642375e-05
0.00074198548
3.7630107e-05
0.0007319036
3.5789835e-05
0.00072233731
3.4102562e-05
0.0007132493
3.2552124e-05
0.00070460381
3.1130485e-05
0.00069636832
2.9822435e-05
0.00068851277
2.8616379e-05
0.00068100897
2.7505708e-05
0.00067383125
2.6478278e-05
0.00066695594
2.5526916e-05
0.0006603611
2.4646308e-05
0.00065402682
2.3827566e-05
0.00064793475
2.3067492e-05
0.00064206828
2.2359794e-05
0.00063641247
2.1697732e-05
0.00063095325
2.1079896e-05
0.00062567792
2.0500484e-05
0.00062057476
1.9956809e-05
0.0006156329
1.9445984e-05
0.00061084255
1.8963957e-05
0.00060619434
1.8510355e-05
0.0006016798
1.8081634e-05
0.00059729128
1.7676385e-05
0.00059302181
1.729254e-05
0.00058886496
1.692791e-05
0.00058481466
1.6581198e-05
0.00058086535
1.6250221e-05
0.00057701182
1.5934851e-05
0.0005732493
1.5633528e-05
0.00056957327
1.5345562e-05
0.00056597946
1.5069846e-05
0.00056246408
1.4805802e-05
0.00055902358
1.4552656e-05
0.00055565463
1.4309444e-05
0.00055235407
1.4075503e-05
0.00054911898
1.385016e-05
0.00054594664
1.3633029e-05
0.00054283451
1.3423507e-05
0.00053978011
1.3221289e-05
0.00053678115
1.3025953e-05
0.00053383544
1.2837391e-05
0.00053094096
1.2655119e-05
0.00052809576
1.2478941e-05
0.00052529798
1.230844e-05
0.00052254586
1.2143531e-05
0.00051983771
1.1983881e-05
0.0005171719
1.1829518e-05
0.00051454686
1.1680177e-05
0.00051196103
1.1536034e-05
0.0005094129
1.1396942e-05
0.00050690095
1.1263074e-05
0.00050442362
1.1134758e-05
0.00050197927
1.1012421e-05
0.00049956622
1.0896512e-05
0.00049718239
1.0788803e-05
0.00049482588
1.0688985e-05
0.00049249316
1.0604298e-05
0.00049018252
1.0527532e-05
0.00048788517
1.0490161e-05
0.00048560247
1.0450574e-05
0.00048330722
1.0531485e-05
0.00048100942
1.0596607e-05
0.00047862426
1.1006162e-05
0.00047622872
1.1308714e-05
0.00047340658
1.1884112e-05
1.2176175e-05
0.00098555126
6.4582147e-05
-0.00098357156
0.00098960467
8.209921e-05
0.00099448692
9.5098902e-05
0.0009990347
0.00010216702
0.0010027926
0.00010482903
0.0010057293
0.00010491463
0.0010080284
0.00010380257
0.0010098955
0.00010225064
0.0010114091
0.00010040619
0.0010126425
9.8412153e-05
0.0010136458
9.637806e-05
0.0010144102
9.4305844e-05
0.0010149469
9.2272189e-05
0.0010153259
9.0310699e-05
0.001015496
8.8496168e-05
0.0010153928
8.6856258e-05
0.0010149862
8.5369037e-05
0.0010141236
8.4085896e-05
0.001012608
8.3003621e-05
0.0010101052
8.2082182e-05
0.0010062469
8.1261983e-05
0.0010007257
8.0521983e-05
0.00099334206
7.9709083e-05
0.00098404664
7.864305e-05
0.0009728939
7.7266156e-05
0.00096007076
7.5542403e-05
0.00094592495
7.3417133e-05
0.00093092049
7.0888173e-05
0.00091553701
6.8039801e-05
0.00090018731
6.4980872e-05
0.00088516468
6.1841329e-05
0.00087064018
5.8747191e-05
0.00085669611
5.5779973e-05
0.00084336411
5.297437e-05
0.00083064835
5.0345866e-05
0.00081853682
4.7901367e-05
0.00080700827
4.5631108e-05
0.00079603486
4.3525535e-05
0.00078558534
4.1580008e-05
0.00077562854
3.9779237e-05
0.00076613362
3.8111291e-05
0.0007570703
3.6569027e-05
0.00074841012
3.5138462e-05
0.00074012608
3.3810955e-05
0.00073219268
3.2579705e-05
0.00072458638
3.1433865e-05
0.00071728499
3.0368888e-05
0.00071026814
2.9376644e-05
0.00070351727
2.8448599e-05
0.0006970149
2.7582268e-05
0.0006907451
2.677028e-05
0.00068469311
2.6008798e-05
0.00067884532
2.5293774e-05
0.00067318932
2.4619962e-05
0.00066771337
2.3986309e-05
0.00066240671
2.3388286e-05
0.00065725942
2.2823684e-05
0.00065226239
2.2289568e-05
0.0006474073
2.1783001e-05
0.00064268636
2.1302132e-05
0.00063809243
2.0844154e-05
0.00063361879
2.0408492e-05
0.00062925928
1.9993034e-05
0.00062500807
1.9596775e-05
0.0006208597
1.9218213e-05
0.00061680922
1.8856285e-05
0.00061285205
1.8509829e-05
0.00060898386
1.8177635e-05
0.00060520058
1.7858779e-05
0.00060149843
1.7552307e-05
0.00059787388
1.7257587e-05
0.0005943236
1.6973779e-05
0.00059084447
1.6700423e-05
0.00058743351
1.643691e-05
0.00058408795
1.6182951e-05
0.00058080517
1.5937901e-05
0.00057758267
1.5701443e-05
0.00057441809
1.5473017e-05
0.00057130919
1.5252438e-05
0.00056825381
1.5039258e-05
0.0005652499
1.4833431e-05
0.00056229547
1.4634605e-05
0.00055938858
1.4442923e-05
0.00055652734
1.4258179e-05
0.00055370988
1.4080536e-05
0.0005509343
1.3910343e-05
0.00054819861
1.3748108e-05
0.0005455008
1.3594316e-05
0.00054283848
1.3451127e-05
0.00054020939
1.3318076e-05
0.00053760964
1.3204045e-05
0.00053503717
1.3100009e-05
0.00053248265
1.3044679e-05
0.00052994706
1.298616e-05
0.00052740215
1.3076401e-05
0.00052485772
1.3141031e-05
0.0005222249
1.3638984e-05
0.00051958857
1.3945048e-05
0.00051645088
1.5021801e-05
1.4560482e-05
0.0010198717
6.2778372e-05
-0.0010180679
0.0010234887
7.8482151e-05
0.001027952
9.0635633e-05
0.0010322595
9.7859538e-05
0.0010359316
0.00010115696
0.0010388727
0.00010197347
0.0010412024
0.00010147291
0.0010430879
0.00010036508
0.0010446203
9.8873861e-05
0.0010458738
9.715866e-05
0.0010469057
9.5346132e-05
0.0010477397
9.3471861e-05
0.0010484028
9.1609051e-05
0.0010489124
8.9801114e-05
0.0010492853
8.8123298e-05
0.0010495311
8.6610398e-05
0.0010496656
8.5234566e-05
0.0010496896
8.4061938e-05
0.0010495701
8.3123054e-05
0.0010492628
8.238947e-05
0.0010486727
8.1852131e-05
0.0010476786
8.15161e-05
0.001046055
8.1332697e-05
0.0010434569
8.1241107e-05
0.0010395375
8.118551e-05
0.001033977
8.1102904e-05
0.0010265743
8.0819866e-05
0.0010172758
8.0186641e-05
0.0010061477
7.9167934e-05
0.00099343719
7.7691392e-05
0.00097955957
7.5718946e-05
0.00096500347
7.3303297e-05
0.00095022305
7.0560386e-05
0.00093556514
6.7632288e-05
0.00092124864
6.4662365e-05
0.00090739084
6.1759169e-05
0.00089404884
5.8973108e-05
0.00088124629
5.6328082e-05
0.00086898654
5.3839757e-05
0.0008572604
5.1505377e-05
0.00084605005
4.9321639e-05
0.00083533274
4.7286339e-05
0.00082508414
4.5387061e-05
0.00081527882
4.3616277e-05
0.00080589114
4.1967389e-05
0.0007968964
4.0428604e-05
0.00078827044
3.8994843e-05
0.00077999045
3.7656637e-05
0.00077203509
3.6403962e-05
0.00076438395
3.5233406e-05
0.00075701822
3.4136012e-05
0.00074992025
3.3106766e-05
0.00074307369
3.2140337e-05
0.00073646349
3.1230159e-05
0.00073007542
3.0374379e-05
0.00072389636
2.9567342e-05
0.00071791406
2.880599e-05
0.00071211719
2.8086432e-05
0.00070649535
2.7404845e-05
0.00070103882
2.6758659e-05
0.00069573868
2.6144299e-05
0.00069058651
2.5560662e-05
0.00068557458
2.5004962e-05
0.00068069565
2.4475705e-05
0.00067594295
2.3970911e-05
0.00067131019
2.3489042e-05
0.00066679156
2.3028462e-05
0.00066238163
2.2587567e-05
0.0006580753
2.2165109e-05
0.0006538678
2.1759803e-05
0.00064975467
2.1370719e-05
0.00064573174
2.0996712e-05
0.00064179507
2.0637097e-05
0.00063794095
2.0291031e-05
0.00063416589
1.9958005e-05
0.00063046662
1.9637171e-05
0.00062684002
1.9328047e-05
0.00062328313
1.9029898e-05
0.00061979317
1.8742402e-05
0.00061636746
1.8464965e-05
0.00061300345
1.8197441e-05
0.0006096987
1.7939363e-05
0.0006064508
1.7690818e-05
0.00060325746
1.745152e-05
0.00060011639
1.7221605e-05
0.00059702531
1.7001427e-05
0.00059398186
1.6791559e-05
0.00059098365
1.6592519e-05
0.00058802793
1.6406849e-05
0.00058511208
1.6233931e-05
0.00058223181
1.6084309e-05
0.00057938467
1.5947151e-05
0.00057656085
1.5868504e-05
0.00057376085
1.5786158e-05
0.00057095553
1.588172e-05
0.00056815434
1.5942215e-05
0.0005652649
1.6528429e-05
0.00056237968
1.6830271e-05
0.00055892121
1.8480265e-05
1.7136939e-05
0.0010553365
6.1098233e-05
-0.0010536563
0.0010585951
7.5223573e-05
0.0010626747
8.655601e-05
0.0010667303
9.3803969e-05
0.0010703016
9.7585655e-05
0.0010732489
9.9026108e-05
0.0010756297
9.9092086e-05
0.0010775687
9.8426106e-05
0.0010791495
9.7293084e-05
0.0010804412
9.5867e-05
0.0010815005
9.4286766e-05
0.0010823604
9.2611993e-05
0.0010830525
9.0916903e-05
0.0010835987
8.9254953e-05
0.0010840257
8.7696302e-05
0.001084355
8.6281074e-05
0.0010845899
8.4999706e-05
0.0010847444
8.3907455e-05
0.0010848422
8.3025257e-05
0.0010848795
8.2352125e-05
0.0010848446
8.1887002e-05
0.0010847363
8.1624395e-05
0.0010845167
8.1552357e-05
0.0010841182
8.1639632e-05
0.0010834389
8.18648e-05
0.0010823319
8.2209822e-05
0.0010805216
8.2630249e-05
0.0010776414
8.3066845e-05
0.001073331
8.3478306e-05
0.0010672926
8.3729829e-05
0.0010593644
8.3647136e-05
0.0010495242
8.3143486e-05
0.0010379386
8.2145956e-05
0.0010249745
8.0596425e-05
0.0010111162
7.8520625e-05
0.00099684194
7.6033439e-05
0.00098253318
7.3281866e-05
0.00096844056
7.0420706e-05
0.00095470607
6.7574239e-05
0.00094140583
6.4805624e-05
0.00092857835
6.2149115e-05
0.00091623896
5.9625727e-05
0.00090438823
5.7237793e-05
0.00089301639
5.4988113e-05
0.0008821077
5.2876081e-05
0.00087164355
5.0892759e-05
0.000861603
4.9035389e-05
0.00085196456
4.7295079e-05
0.00084270685
4.5661669e-05
0.00083380849
4.4131771e-05
0.00082524913
4.2695363e-05
0.00081700927
4.1346634e-05
0.00080907043
4.0079174e-05
0.0008014154
3.8885192e-05
0.00079402768
3.776209e-05
0.00078689198
3.6703045e-05
0.00077999384
3.5704133e-05
0.00077331979
3.4760482e-05
0.00076685731
3.3867326e-05
0.00076059468
3.3021286e-05
0.00075452108
3.2217896e-05
0.00074862632
3.145543e-05
0.00074290095
3.0730333e-05
0.00073733616
3.0040491e-05
0.00073192374
2.938333e-05
0.00072665598
2.8756797e-05
0.00072152573
2.8158718e-05
0.0007165263
2.7586993e-05
0.00071165145
2.7039966e-05
0.0007068953
2.6515948e-05
0.00070225236
2.6013656e-05
0.00069771749
2.5531581e-05
0.00069328586
2.5068736e-05
0.0006889529
2.4623983e-05
0.00068471435
2.419656e-05
0.00068056616
2.3785361e-05
0.00067650451
2.3389693e-05
0.00067252581
2.3008603e-05
0.00066862661
2.2641598e-05
0.00066480367
2.2287901e-05
0.00066105388
2.1947237e-05
0.00065737425
2.1618991e-05
0.0006537619
2.1303167e-05
0.00065021405
2.0999377e-05
0.00064672795
2.0707705e-05
0.00064330088
2.0428493e-05
0.00063993007
2.0162365e-05
0.00063661273
1.9909859e-05
0.00063334569
1.9673892e-05
0.00063012593
1.9453693e-05
0.00062694876
1.9261479e-05
0.00062381128
1.9084631e-05
0.00062070319
1.8976586e-05
0.0006176245
1.8864858e-05
0.00061454524
1.8960972e-05
0.00061147443
1.9013026e-05
0.00060831643
1.968643e-05
0.00060517146
1.9975239e-05
0.00060138258
2.2269149e-05
1.991778e-05
0.0010919453
5.9513399e-05
-0.0010903604
0.0010949072
7.2261678e-05
0.0010986475
8.2815704e-05
0.0011024543
8.9997133e-05
0.0011059028
9.4137184e-05
0.0011088329
9.609595e-05
0.0011112553
9.6669722e-05
0.0011132542
9.6427204e-05
0.0011148982
9.5649108e-05
0.0011162472
9.4517962e-05
0.0011173543
9.3179708e-05
0.0011182545
9.1711751e-05
0.0011189804
9.0191043e-05
0.0011195569
8.8678378e-05
0.0011200119
8.7241331e-05
0.0011203688
8.592415e-05
0.0011206383
8.4730204e-05
0.0011208385
8.3707253e-05
0.0011209845
8.2879341e-05
0.0011210859
8.2250687e-05
0.0011211506
8.1822339e-05
0.0011211868
8.1588199e-05
0.0011211962
8.154286e-05
0.0011211703
8.1665574e-05
0.001121094
8.1941115e-05
0.001120943
8.2360855e-05
0.0011206699
8.2903274e-05
0.0011201907
8.3546076e-05
0.0011193892
8.4279802e-05
0.0011180458
8.5073206e-05
0.0011158189
8.5874028e-05
0.0011123269
8.6635507e-05
0.0011072094
8.7263471e-05
0.0011002212
8.7584654e-05
0.0010912785
8.7463302e-05
0.0010804914
8.682049e-05
0.0010681934
8.5579874e-05
0.0010548646
8.3749493e-05
0.0010409966
8.1442298e-05
0.0010269883
7.8813882e-05
0.0010131057
7.6031708e-05
0.00099950412
7.3227343e-05
0.00098627149
7.0470425e-05
0.00097345645
6.7803153e-05
0.0009610829
6.5249631e-05
0.00094915859
6.281707e-05
0.00093767982
6.0514161e-05
0.00092663641
5.8338486e-05
0.00091601418
5.6283903e-05
0.00090579593