/*--------------------------------*- C++ -*----------------------------------*\
| =========                 |                                                 |
| \\      /  F ield         | OpenFOAM: The Open Source CFD Toolbox           |
|  \\    /   O peration     | Version:  2206                                  |
|   \\  /    A nd           | Website:  www.openfoam.com                      |
|    \\/     M anipulation  |                                                 |
\*---------------------------------------------------------------------------*/
FoamFile
{
    version     2.0;
    format      ascii;
    arch        "LSB;label=32;scalar=64";
    class       volVectorField;
    location    "700";
    object      U;
}
// * * * * * * * * * * * * * * * * * * * * * * * * * * * * * * * * * * * * * //

dimensions      [0 1 -1 0 0 0 0];

internalField   nonuniform List<vector> 
7480
(
(0.86072677 0.014744248 5.84031e-16)
(0.7449845 0.025619996 0)
(0.62908294 0.027271436 0)
(0.52569916 0.019496907 0)
(0.44996424 0.0094064382 0)
(0.39769389 0.0037516679 0)
(0.35994563 0.0017189592 0)
(0.33081902 0.001208282 0)
(0.30711261 0.0010849775 0)
(0.287222 0.00096732093 0)
(0.27039282 0.00081731191 0)
(0.25613945 0.00067089607 0)
(0.2440465 0.00054313476 0)
(0.23376644 0.00043787299 0)
(0.22500531 0.00035426183 0)
(0.21750734 0.00028701344 0)
(0.21107286 0.00023275943 0)
(0.20553992 0.00018314341 0)
(0.20073668 0.00027364792 -1.4426767e-17)
(0.19659504 0.00030664253 -1.7557243e-17)
(0.19292067 0.0001370513 0)
(0.18965325 8.999969e-05 0)
(0.18671365 7.716019e-05 0)
(0.18403612 6.8691478e-05 0)
(0.18157902 6.1335531e-05 0)
(0.17930605 5.5052085e-05 0)
(0.17719223 4.9723531e-05 0)
(0.17521321 4.5394258e-05 0)
(0.17334727 4.1986606e-05 0)
(0.1715761 3.9064784e-05 0)
(0.16988941 3.6347635e-05 0)
(0.16827952 3.3906852e-05 0)
(0.16673814 3.1736517e-05 0)
(0.16525869 2.9786425e-05 0)
(0.16383387 2.8036562e-05 0)
(0.1624602 2.6532584e-05 0)
(0.16112725 2.520732e-05 0)
(0.15983353 2.3940113e-05 0)
(0.1585754 2.2796324e-05 0)
(0.15734892 2.175129e-05 0)
(0.15615133 2.0784038e-05 0)
(0.15497994 1.9900062e-05 0)
(0.15383268 1.9048409e-05 0)
(0.15270831 1.8240841e-05 0)
(0.15160506 1.748686e-05 0)
(0.15052188 1.6759914e-05 0)
(0.14945729 1.6088577e-05 0)
(0.14840965 1.5455808e-05 0)
(0.14737812 1.4842967e-05 0)
(0.14636168 1.4270047e-05 0)
(0.14535954 1.3711802e-05 0)
(0.14437123 1.3176572e-05 0)
(0.14339609 1.2664456e-05 0)
(0.1424338 1.2166288e-05 0)
(0.14148376 1.1696439e-05 0)
(0.14054551 1.1239575e-05 0)
(0.13961873 1.0803543e-05 0)
(0.13870286 1.0387704e-05 0)
(0.13779744 9.9880564e-06 0)
(0.1369021 9.6042668e-06 0)
(0.13601678 9.2295493e-06 0)
(0.13514132 8.8711662e-06 0)
(0.13427546 8.5246917e-06 0)
(0.133419 8.1921412e-06 0)
(0.13257176 7.8711728e-06 0)
(0.13173359 7.5631258e-06 0)
(0.13090419 7.2677942e-06 0)
(0.13008337 6.9834421e-06 0)
(0.129271 6.7096763e-06 0)
(0.12846695 6.4458588e-06 0)
(0.12767108 6.192655e-06 0)
(0.12688324 5.9488218e-06 0)
(0.12610331 5.7143748e-06 0)
(0.1253312 5.488462e-06 0)
(0.12456677 5.271924e-06 0)
(0.12380986 5.063637e-06 0)
(0.12306034 4.8638462e-06 0)
(0.1223181 4.6715203e-06 0)
(0.12158299 4.4870874e-06 0)
(0.12085491 4.3096185e-06 0)
(0.12013371 4.1395373e-06 0)
(0.11941928 3.9759872e-06 0)
(0.11871147 3.8193227e-06 0)
(0.11801011 3.6689351e-06 0)
(0.11731507 3.5247491e-06 0)
(0.11662614 3.3869454e-06 0)
(0.11594312 3.254727e-06 0)
(0.11526571 3.1291274e-06 0)
(0.11459372 3.0083919e-06 0)
(0.11392643 2.8960165e-06 0)
(0.11326401 2.7855446e-06 0)
(0.11260412 2.6919785e-06 0)
(0.11194934 2.5852692e-06 0)
(0.11128978 2.5356295e-06 0)
(0.11064097 2.3997067e-06 0)
(0.1099604 2.5001917e-06 0)
(0.10931461 2.1942293e-06 -1.3837412e-21)
(0.10854863 6.1041301e-06 6.3627664e-20)
(0.10795359 -1.6290994e-06 -3.184802e-19)
(0.10681159 1.2025569e-05 -1.0982879e-18)
(0.95754831 0.02479557 0)
(0.9436299 0.032446147 0)
(0.91260157 0.03259382 0)
(0.86100269 0.028799687 0)
(0.79813896 0.022955222 0)
(0.7350858 0.017304036 0)
(0.67816136 0.012901747 0)
(0.62938571 0.0098291574 0)
(0.58835914 0.0077478892 0)
(0.55384334 0.0062560511 0)
(0.5246319 0.0051165234 0)
(0.49974025 0.0042180084 0)
(0.47840504 0.0034888355 0)
(0.46004969 0.0028906603 0)
(0.44421115 0.002399808 0)
(0.43051624 0.0019954022 0)
(0.41863908 0.001664109 0)
(0.40829273 0.0013949733 0)
(0.39921773 0.001176858 0)
(0.39121634 0.00099227648 0)
(0.38410206 0.00084726163 0)
(0.37772382 0.00074336058 0)
(0.37195475 0.0006545173 0)
(0.36669475 0.00057976874 0)
(0.36186647 0.00051785292 0)
(0.35740249 0.00046589095 0)
(0.35325559 0.00042158627 0)
(0.3493794 0.00038401297 0)
(0.34573599 0.00035230437 0)
(0.34229342 0.00032484432 0)
(0.33902955 0.00030033679 0)
(0.33592617 0.00027847638 0)
(0.33296604 0.00025896978 0)
(0.33013494 0.00024149166 0)
(0.32741867 0.00022573773 0)
(0.32480899 0.00021181678 0)
(0.32228737 0.00019941853 0)
(0.31984991 0.00018796536 0)
(0.31748826 0.00017758616 0)
(0.31519453 0.00016811595 0)
(0.31296297 0.00015940815 0)
(0.31078824 0.00015141161 0)
(0.3086658 0.00014394171 0)
(0.30659227 0.00013696581 0)
(0.30456397 0.00013046797 0)
(0.30257821 0.00012435832 0)
(0.30063182 0.00011868484 0)
(0.29872163 0.00011338025 0)
(0.29684548 0.00010836623 0)
(0.29500124 0.00010366435 0)
(0.29318706 9.9196257e-05 0)
(0.29140156 9.4959289e-05 0)
(0.28964323 9.0938854e-05 0)
(0.28791107 8.710237e-05 0)
(0.28620375 8.3473703e-05 0)
(0.28452022 8.000783e-05 0)
(0.28285957 7.6714011e-05 0)
(0.28122064 7.3586866e-05 0)
(0.27960241 7.0607466e-05 0)
(0.27800408 6.7761391e-05 0)
(0.27642525 6.5024007e-05 0)
(0.27486544 6.2408954e-05 0)
(0.27332403 5.9904029e-05 0)
(0.27180049 5.7507765e-05 0)
(0.27029437 5.5210523e-05 0)
(0.26880523 5.3013052e-05 0)
(0.2673325 5.091245e-05 0)
(0.2658757 4.8899469e-05 0)
(0.2644345 4.6968642e-05 0)
(0.26300856 4.5115906e-05 0)
(0.26159755 4.3340609e-05 0)
(0.26020113 4.1637291e-05 0)
(0.25881899 4.0002758e-05 0)
(0.2574509 3.8433311e-05 0)
(0.25609655 3.6929646e-05 0)
(0.25475562 3.5487322e-05 0)
(0.2534278 3.4104614e-05 0)
(0.25211283 3.2777315e-05 0)
(0.25081043 3.1504687e-05 0)
(0.24952036 3.0283162e-05 0)
(0.24824233 2.9112307e-05 0)
(0.24697607 2.798886e-05 0)
(0.24572131 2.6912631e-05 0)
(0.24447771 2.5880972e-05 0)
(0.243245 2.4892946e-05 0)
(0.24202277 2.394825e-05 0)
(0.24081067 2.3045009e-05 0)
(0.23960812 2.2184308e-05 0)
(0.23841473 2.1365117e-05 0)
(0.2372293 2.0590525e-05 0)
(0.23605195 1.9861113e-05 0)
(0.23487874 1.9185223e-05 0)
(0.23371375 1.8565098e-05 0)
(0.23254055 1.8038304e-05 0)
(0.23138423 1.7567167e-05 0)
(0.2301747 1.7442862e-05 0)
(0.22901968 1.7152458e-05 2.4825655e-21)
(0.22766321 1.8970377e-05 0)
(0.22658352 9.7503673e-06 0)
(0.22454843 3.0226001e-05 0)
(0.96626153 0.026154744 0)
(0.9711439 0.035032457 0)
(0.97616343 0.038631623 0)
(0.97498662 0.03752856 0)
(0.96038398 0.034318443 0)
(0.9322105 0.02997891 0)
(0.89551195 0.025280182 0)
(0.85546205 0.02087879 0)
(0.81533408 0.017148142 0)
(0.77705714 0.014086986 0)
(0.74168088 0.01160393 0)
(0.70965495 0.0096049183 0)
(0.68102799 0.0079827811 0)
(0.65561743 0.0066591262 0)
(0.63311598 0.005578382 0)
(0.61319309 0.0046920848 0)
(0.5955255 0.0039636745 0)
(0.57981624 0.0033639658 0)
(0.56579974 0.002867743 0)
(0.55325107 0.0024603165 0)
(0.54196939 0.002131855 0)
(0.53177422 0.0018636002 0)
(0.52251385 0.0016408857 0)
(0.51405853 0.0014553585 0)
(0.50629807 0.0013000073 0)
(0.49913694 0.00116886 0)
(0.49249366 0.0010567327 0)
(0.48630412 0.00096049783 0)
(0.48051361 0.00087799306 0)
(0.47507601 0.00080615383 0)
(0.46995172 0.00074250743 0)
(0.46510713 0.00068598095 0)
(0.46051261 0.00063564992 0)
(0.456143 0.0005906201 0)
(0.45197611 0.00055010395 0)
(0.44799448 0.00051419487 0)
(0.444173 0.00048210376 0)
(0.44050246 0.00045268034 0)
(0.43696724 0.00042604706 0)
(0.43355505 0.0004017781 0)
(0.43025594 0.00037952062 0)
(0.42706064 0.00035910932 0)
(0.42396083 0.00034018206 0)
(0.42094966 0.00032261134 0)
(0.41802043 0.00030630654 0)
(0.41516765 0.0002910797 0)
(0.41238575 0.00027696378 0)
(0.40966946 0.00026381093 0)
(0.40701459 0.00025145736 0)
(0.40441723 0.00023990099 0)
(0.40187381 0.000228993 0)
(0.39938137 0.00021870253 0)
(0.39693696 0.00020898308 0)
(0.39453825 0.00019976306 0)
(0.39218282 0.00019106129 0)
(0.38986855 0.00018279432 0)
(0.38759349 0.00017496456 0)
(0.38535559 0.00016755133 0)
(0.38315306 0.00016051096 0)
(0.38098438 0.00015380755 0)
(0.37884838 0.00014739314 0)
(0.3767439 0.00014128208 0)
(0.37466968 0.00013544892 0)
(0.37262466 0.00012988343 0)
(0.37060784 0.00012456436 0)
(0.36861828 0.0001194883 0)
(0.36665495 0.00011464574 0)
(0.36471695 0.0001100161 0)
(0.36280355 0.00010558576 0)
(0.36091404 0.00010134443 0)
(0.35904771 9.7287396e-05 0)
(0.35720391 9.340248e-05 0)
(0.35538202 8.9681072e-05 0)
(0.35358153 8.6114812e-05 0)
(0.3518018 8.2702445e-05 0)
(0.35004228 7.9434368e-05 0)
(0.34830239 7.6305221e-05 0)
(0.34658164 7.3306092e-05 0)
(0.34487951 7.0433647e-05 0)
(0.34319552 6.7680374e-05 0)
(0.34152919 6.5043798e-05 0)
(0.33988002 6.2517146e-05 0)
(0.33824754 6.0098744e-05 0)
(0.3366312 5.7782968e-05 0)
(0.33503053 5.556723e-05 0)
(0.3334449 5.3450093e-05 0)
(0.33187374 5.1428281e-05 0)
(0.3303162 4.9502182e-05 0)
(0.32877168 4.767239e-05 0)
(0.32723853 4.5939721e-05 0)
(0.32571676 4.4317607e-05 0)
(0.32420128 4.279826e-05 0)
(0.322697 4.1443622e-05 0)
(0.32118308 4.0213503e-05 0)
(0.3196906 3.9286459e-05 0)
(0.31813162 3.8761408e-05 0)
(0.31663946 3.8609909e-05 1.8354262e-21)
(0.31489431 4.073753e-05 0)
(0.31347997 2.9296428e-05 0)
(0.31086705 5.5734808e-05 -1.1963881e-20)
(0.96890762 0.024307269 0)
(0.97449146 0.032459332 0)
(0.98250873 0.036276551 0)
(0.98908545 0.036588994 0)
(0.99260589 0.034842255 0)
(0.99224757 0.032363972 0)
(0.98605848 0.029731073 0)
(0.9732245 0.027102976 0)
(0.95390367 0.024435297 0)
(0.93004396 0.02158606 0)
(0.90341017 0.018760432 0)
(0.87539193 0.016137111 0)
(0.8471437 0.013797402 0)
(0.81957374 0.011766242 0)
(0.79333003 0.010025132 0)
(0.76880963 0.0085431802 0)
(0.74619138 0.007293729 0)
(0.72548739 0.0062474887 0)
(0.70660464 0.0053787607 0)
(0.6894011 0.0046598428 0)
(0.67372049 0.004062855 0)
(0.65940671 0.0035662751 0)
(0.6463156 0.0031498693 0)
(0.63431207 0.0027975311 0)
(0.62327099 0.0024984934 0)
(0.61308009 0.0022436972 0)
(0.60363547 0.0020248061 0)
(0.59485376 0.0018358618 0)
(0.58666296 0.0016724625 0)
(0.57899905 0.0015297083 0)
(0.57180511 0.0014036035 0)
(0.5650318 0.0012919575 0)
(0.55863567 0.0011928395 0)
(0.5525781 0.0011043659 0)
(0.54682757 0.0010249546 0)
(0.54135517 0.0009541624 0)
(0.53613552 0.00089076969 0)
(0.53114554 0.00083309465 0)
(0.52636522 0.00078089988 0)
(0.52177618 0.00073345827 0)
(0.51736284 0.0006900893 0)
(0.51311098 0.00065042098 0)
(0.50900762 0.00061384834 0)
(0.5050416 0.00058007573 0)
(0.50120245 0.00054887036 0)
(0.4974811 0.00051988545 0)
(0.49386917 0.00049308017 0)
(0.49035874 0.00046819103 0)
(0.4869431 0.00044493367 0)
(0.48361613 0.00042324723 0)
(0.48037214 0.00040289227 0)
(0.47720612 0.00038378351 0)
(0.47411331 0.00036581764 0)
(0.47108969 0.00034886138 0)
(0.46813145 0.00033290534 0)
(0.4652351 0.00031781865 0)
(0.46239739 0.00030358129 0)
(0.45961516 0.00029014003 0)
(0.45688571 0.00027741458 0)
(0.45420658 0.00026534067 0)
(0.45157562 0.00025384172 0)
(0.44899076 0.0002429218 0)
(0.44644996 0.00023253433 0)
(0.44395143 0.00022265249 0)
(0.4414935 0.0002132379 0)
(0.43907458 0.00020427707 0)
(0.43669309 0.00019574797 0)
(0.43434763 0.00018761433 0)
(0.43203693 0.00017985086 0)
(0.42975981 0.00017243718 0)
(0.42751512 0.00016536034 0)
(0.42530182 0.00015859846 0)
(0.42311889 0.00015213486 0)
(0.42096541 0.00014595418 0)
(0.41884043 0.00014005016 0)
(0.41674305 0.00013440584 0)
(0.41467241 0.00012901007 0)
(0.4126277 0.00012384757 0)
(0.41060813 0.00011891044 0)
(0.40861297 0.00011418575 0)
(0.40664145 0.00010966734 0)
(0.40469286 0.00010534369 0)
(0.40276646 0.00010121032 0)
(0.4008615 9.7257549e-05 0)
(0.39897727 9.3480148e-05 0)
(0.3971129 8.9874559e-05 0)
(0.39526761 8.6435765e-05 0)
(0.3934403 8.3162191e-05 0)
(0.39163014 8.0057159e-05 0)
(0.38983514 7.7116141e-05 0)
(0.38805512 7.4372507e-05 0)
(0.3862843 7.1788698e-05 0)
(0.38452778 6.9520387e-05 0)
(0.38276249 6.7386107e-05 0)
(0.38102191 6.592522e-05 0)
(0.37920973 6.4794648e-05 0)
(0.37746978 6.4978905e-05 1.4082751e-21)
(0.37545272 6.7061837e-05 0)
(0.3737867 5.6032829e-05 0)
(0.3707671 8.2607268e-05 9.2153025e-21)
(0.97073939 0.023185353 0)
(0.97565188 0.030425668 0)
(0.98301755 0.034209671 0)
(0.99009185 0.034735004 0)
(0.99519642 0.033475508 0)
(0.99826791 0.031604788 0)
(1.0006933 0.02971244 0)
(1.0005537 0.027954595 0)
(0.99895682 0.026261108 0)
(0.99426373 0.024518345 0)
(0.98577333 0.022709449 0)
(0.9732956 0.020841554 0)
(0.95735149 0.018864798 0)
(0.93878271 0.016858687 0)
(0.91830469 0.014924485 0)
(0.89661132 0.013124833 0)
(0.87440858 0.011504457 0)
(0.85232698 0.010061481 0)
(0.83088243 0.0087935109 0)
(0.81043967 0.0076930045 0)
(0.79120795 0.0067469166 0)
(0.77325948 0.0059441321 0)
(0.75657537 0.0052644024 0)
(0.74109084 0.0046858609 0)
(0.72672284 0.0041909583 0)
(0.71338402 0.0037652164 0)
(0.70098477 0.0033961075 0)
(0.68943908 0.0030746422 0)
(0.67866616 0.0027945227 0)
(0.66859056 0.0025488052 0)
(0.65914528 0.0023317244 0)
(0.65027003 0.0021395779 0)
(0.64190993 0.0019690617 0)
(0.63401534 0.0018170053 0)
(0.62654429 0.001680841 0)
(0.6194567 0.0015592566 0)
(0.61272324 0.001450173 0)
(0.60631005 0.0013513662 0)
(0.60019048 0.0012621067 0)
(0.59433987 0.001181056 0)
(0.58873672 0.0011071649 0)
(0.58336098 0.0010397648 0)
(0.57819441 0.00097789919 0)
(0.57322109 0.00092101023 0)
(0.56842617 0.00086865523 0)
(0.56379621 0.0008202367 0)
(0.55931983 0.00077554578 0)
(0.55498621 0.00073415905 0)
(0.55078597 0.00069564111 0)
(0.54671036 0.00065984231 0)
(0.54275109 0.00062640055 0)
(0.53890087 0.00059513787 0)
(0.53515284 0.00056586457 0)
(0.53150097 0.0005383584 0)
(0.52793978 0.00051255706 0)
(0.52446405 0.00048826451 0)
(0.52106904 0.00046541386 0)
(0.51775034 0.00044389734 0)
(0.51450419 0.00042358588 0)
(0.51132698 0.0004043811 0)
(0.50821537 0.00038616804 0)
(0.50516622 0.000368926 0)
(0.5021766 0.00035257685 0)
(0.49924385 0.00033706791 0)
(0.4963655 0.00032233615 0)
(0.49353921 0.00030835023 0)
(0.49076275 0.00029506801 0)
(0.48803414 0.00028243266 0)
(0.4853515 0.00027040274 0)
(0.48271307 0.0002589426 0)
(0.48011722 0.00024802598 0)
(0.47756242 0.00023761772 0)
(0.47504719 0.00022769017 0)
(0.47257017 0.00021821752 0)
(0.47013 0.00020918464 0)
(0.46772541 0.00020056448 0)
(0.4653552 0.00019233763 0)
(0.46301822 0.0001844803 0)
(0.46071338 0.0001769777 0)
(0.45843961 0.00016980962 0)
(0.45619589 0.00016296423 0)
(0.4539812 0.00015642375 0)
(0.45179458 0.00015017925 0)
(0.449635 0.0001442157 0)
(0.4475015 0.00013852396 0)
(0.445393 0.00013309719 0)
(0.44330846 0.00012792791 0)
(0.44124654 0.0001230114 0)
(0.43920618 0.00011835399 0)
(0.43718511 0.00011394368 0)
(0.43518291 0.00010983794 0)
(0.43319337 0.00010596109 0)
(0.43122145 0.00010258357 0)
(0.42924306 9.9344587e-05 0)
(0.42729206 9.7232507e-05 0)
(0.42526911 9.531599e-05 0)
(0.42332032 9.591468e-05 1.1598426e-21)
(0.42108536 9.7565161e-05 5.1120846e-20)
(0.41920803 8.8966346e-05 0)
(0.41585671 0.00011138245 0)
(0.97235735 0.022370426 0)
(0.97668993 0.028805781 0)
(0.98305084 0.032394918 0)
(0.98925501 0.033157802 0)
(0.99423583 0.032333574 0)
(0.99795273 0.030816634 0)
(1.0005486 0.029164017 0)
(1.0023851 0.027612085 0)
(1.0035752 0.026095413 0)
(1.0044335 0.024633792 0)
(1.0041911 0.023248813 0)
(1.0029581 0.021913712 0)
(1.0000332 0.02059462 0)
(0.99476507 0.019275397 0)
(0.98686449 0.017962443 0)
(0.97618671 0.016604615 0)
(0.96312853 0.015195563 0)
(0.94799677 0.01380025 0)
(0.93116964 0.012453765 0)
(0.91311628 0.011187465 0)
(0.89439115 0.010019819 0)
(0.87553011 0.0089583794 0)
(0.85699392 0.0080039896 0)
(0.83911733 0.0071556774 0)
(0.82209725 0.0064111688 0)
(0.80601461 0.0057640297 0)
(0.79087624 0.0052017352 0)
(0.77665313 0.0047106282 0)
(0.76329897 0.004280052 0)
(0.75075937 0.003899857 0)
(0.73897749 0.0035622708 0)
(0.72789536 0.0032623828 0)
(0.71745599 0.0029956638 0)
(0.70760638 0.0027575329 0)
(0.69829827 0.0025443208 0)
(0.6894844 0.0023535169 0)
(0.68112645 0.002182086 0)
(0.67318634 0.0020272411 0)
(0.66562947 0.0018874163 0)
(0.65842503 0.0017606177 0)
(0.65154574 0.0016452459 0)
(0.64496606 0.001540204 0)
(0.63866253 0.0014440878 0)
(0.63261437 0.0013559726 0)
(0.62680231 0.0012751142 0)
(0.62120864 0.0012005971 0)
(0.61581805 0.0011319684 0)
(0.61061633 0.0010685741 0)
(0.60559095 0.0010097689 0)
(0.60073026 0.00095526394 0)
(0.59602323 0.00090453267 0)
(0.59146017 0.00085726991 0)
(0.58703187 0.00081316985 0)
(0.58273011 0.00077188826 0)
(0.57854736 0.00073328635 0)
(0.57447632 0.00069707313 0)
(0.57051071 0.00066310128 0)
(0.56664474 0.00063119023 0)
(0.56287332 0.00060114977 0)
(0.55919144 0.00057283518 0)
(0.55559449 0.0005460793 0)
(0.55207819 0.00052082164 0)
(0.5486386 0.00049693958 0)
(0.54527207 0.00047434594 0)
(0.54197518 0.00045294481 0)
(0.53874471 0.00043267532 0)
(0.53557775 0.00041346618 0)
(0.5324716 0.0003952351 0)
(0.52942367 0.00037791859 0)
(0.52643159 0.00036145923 0)
(0.52349314 0.00034581176 0)
(0.52060627 0.00033092385 0)
(0.51776896 0.00031675354 0)
(0.51497932 0.00030325982 0)
(0.51223555 0.00029041421 0)
(0.50953599 0.00027817649 0)
(0.50687903 0.00026651619 0)
(0.50426314 0.00025539833 0)
(0.50168688 0.00024479868 0)
(0.49914884 0.00023468746 0)
(0.49664769 0.00022504502 0)
(0.49418211 0.00021584538 0)
(0.49175083 0.00020707337 0)
(0.48935256 0.00019870706 0)
(0.48698608 0.00019073187 0)
(0.48465004 0.00018313636 0)
(0.48234315 0.0001759096 0)
(0.48006385 0.00016904249 0)
(0.4778108 0.00016254406 0)
(0.4755815 0.0001563933 0)
(0.47337526 0.00015067379 0)
(0.47118558 0.00014526706 0)
(0.46901708 0.00014056986 0)
(0.46684532 0.00013602191 0)
(0.46470352 0.00013310918 0)
(0.46249206 0.00013023444 0)
(0.46035533 0.00013123968 0)
(0.45793124 0.00013217304 0)
(0.45586664 0.00012754698 1.1108158e-19)
(0.45222409 0.00014255865 0)
(0.97393125 0.021606699 0)
(0.97767598 0.027362789 0)
(0.98324263 0.030773516 0)
(0.98875052 0.031732014 0)
(0.99328001 0.031205511 0)
(0.99676498 0.02996975 0)
(0.99939221 0.028535735 0)
(1.0014664 0.027125263 0)
(1.0031589 0.025721248 0)
(1.0044145 0.024363703 0)
(1.005328 0.023077632 0)
(1.0059207 0.02184077 0)
(1.0062241 0.020668554 0)
(1.0060048 0.019578328 0)
(1.0051218 0.018552478 0)
(1.0033926 0.017574581 0)
(1.0002245 0.01663742 0)
(0.99526641 0.015721167 0)
(0.98825933 0.01480942 0)
(0.97909507 0.013861719 0)
(0.96789791 0.01287437 0)
(0.95482282 0.011881433 0)
(0.94013669 0.010901687 0)
(0.9242482 0.0099558961 0)
(0.90766201 0.0090583623 0)
(0.89087389 0.0082206761 0)
(0.87429965 0.0074526461 0)
(0.8582303 0.0067593496 0)
(0.84282717 0.0061426951 0)
(0.82815585 0.0055970818 0)
(0.81422938 0.0051127476 0)
(0.80103506 0.0046812246 0)
(0.78854603 0.0042953059 0)
(0.77672727 0.0039488908 0)
(0.76553936 0.0036376573 0)
(0.75493891 0.0033582647 0)
(0.74488576 0.0031066657 0)
(0.73534126 0.0028793919 0)
(0.72626765 0.0026740973 0)
(0.71762975 0.0024879813 0)
(0.70939579 0.002318803 0)
(0.70153601 0.0021649385 0)
(0.6940227 0.0020244235 0)
(0.68683071 0.0018958728 0)
(0.67993677 0.0017781562 0)
(0.67331938 0.0016699509 0)
(0.66695904 0.0015704755 0)
(0.66083778 0.0014787769 0)
(0.65493961 0.0013939423 0)
(0.64924974 0.0013154949 0)
(0.64375438 0.0012426957 0)
(0.63844115 0.0011750637 0)
(0.63329842 0.0011121357 0)
(0.62831568 0.0010534143 0)
(0.62348321 0.00099865171 0)
(0.61879171 0.00094743717 0)
(0.61423304 0.0008995165 0)
(0.60979969 0.00085460785 0)
(0.6054849 0.00081243894 0)
(0.60128224 0.00077280223 0)
(0.59718577 0.00073546269 0)
(0.59318996 0.00070030255 0)
(0.58928973 0.00066714204 0)
(0.58548036 0.00063585051 0)
(0.5817573 0.00060628677 0)
(0.5781164 0.00057834551 0)
(0.57455399 0.00055191797 0)
(0.57106653 0.00052689123 0)
(0.56765067 0.00050317244 0)
(0.56430333 0.00048067536 0)
(0.56102161 0.00045932929 0)
(0.55780284 0.00043905884 0)
(0.55464445 0.00041980292 0)
(0.55154399 0.00040150108 0)
(0.54849916 0.00038410676 0)
(0.54550782 0.00036756277 0)
(0.54256793 0.0003518242 0)
(0.53967756 0.00033684178 0)
(0.53683483 0.00032257887 0)
(0.534038 0.00030899349 0)
(0.53128537 0.00029605566 0)
(0.52857529 0.00028372903 0)
(0.52590618 0.00027199013 0)
(0.52327644 0.00026080825 0)
(0.52068456 0.00025016174 0)
(0.51812894 0.00024003298 0)
(0.51560801 0.00023040629 0)
(0.51311993 0.00022126694 0)
(0.51066314 0.00021262588 0)
(0.50823487 0.00020445179 0)
(0.50583415 0.00019685505 0)
(0.50345429 0.00018967175 0)
(0.50109943 0.00018343092 0)
(0.49874517 0.00017736257 0)
(0.49642358 0.0001734763 0)
(0.49403612 0.00016946857 0)
(0.49172365 0.00017081642 0)
(0.48912685 0.00017079773 0)
(0.48689064 0.00017141592 9.9353081e-20)
(0.48298093 0.000176355 0)
(0.97555642 0.020924925 0)
(0.97875398 0.026029797 0)
(0.98360057 0.029278263 0)
(0.98856422 0.030416295 0)
(0.99276798 0.030151661 0)
(0.9960586 0.029166416 0)
(0.99859193 0.027921374 0)
(1.0006016 0.026636081 0)
(1.0022558 0.025338606 0)
(1.0036015 0.024069291 0)
(1.0047006 0.022849639 0)
(1.0055782 0.02167233 0)
(1.0062173 0.020554237 0)
(1.006635 0.019505272 0)
(1.0069727 0.018528824 0)
(1.0069637 0.017630438 0)
(1.0067574 0.016807271 0)
(1.0061599 0.016051513 0)
(1.0050359 0.015355015 0)
(1.0031397 0.014702929 0)
(1.000054 0.014075335 0)
(0.99546575 0.013461011 0)
(0.98907616 0.012823101 0)
(0.98079252 0.012128877 0)
(0.97061285 0.01138824 0)
(0.95864688 0.010618293 0)
(0.94515905 0.0098379338 0)
(0.93057674 0.0090707686 0)
(0.91539213 0.0083306566 0)
(0.90006627 0.0076320116 0)
(0.88495419 0.0069857742 0)
(0.87027987 0.0063989597 0)
(0.8561577 0.0058718783 0)
(0.84263534 0.0053987137 0)
(0.82972694 0.0049725906 0)
(0.81742653 0.0045880688 0)
(0.80571645 0.0042399215 0)
(0.79457166 0.003924268 0)
(0.783962 0.0036383855 0)
(0.77385596 0.0033788123 0)
(0.76422285 0.003142711 0)
(0.75503226 0.0029279196 0)
(0.74625485 0.0027318792 0)
(0.73786324 0.0025526965 0)
(0.72983136 0.0023887823 0)
(0.7221349 0.0022383579 0)
(0.71475125 0.0021002693 0)
(0.7076592 0.001973191 0)
(0.70083962 0.0018558749 0)
(0.69427468 0.0017475907 0)
(0.68794778 0.0016473295 0)
(0.6818438 0.0015543922 0)
(0.67594864 0.0014681179 0)
(0.67024948 0.0013878183 0)
(0.66473441 0.0013131058 0)
(0.65939223 0.0012434141 0)
(0.65421272 0.0011783505 0)
(0.64918644 0.0011175108 0)
(0.64430482 0.0010605182 0)
(0.63955989 0.0010070776 0)
(0.63494426 0.00095686556 0)
(0.63045105 0.00090969132 0)
(0.62607391 0.00086530139 0)
(0.62180695 0.00082350736 0)
(0.6176445 0.00078411252 0)
(0.61358142 0.00074695586 0)
(0.60961303 0.00071187877 0)
(0.60573493 0.00067872808 0)
(0.60194294 0.00064737371 0)
(0.59823319 0.00061769284 0)
(0.59460204 0.00058958229 0)
(0.59104612 0.00056293718 0)
(0.58756224 0.00053767189 0)
(0.58414735 0.00051370059 0)
(0.58079863 0.00049095347 0)
(0.57751341 0.00046935246 0)
(0.57428915 0.00044883414 0)
(0.57112344 0.0004293313 0)
(0.56801401 0.00041079154 0)
(0.56495869 0.00039315759 0)
(0.56195538 0.00037638639 0)
(0.55900209 0.00036042863 0)
(0.55609689 0.0003452502 0)
(0.55323786 0.0003308095 0)
(0.55042317 0.00031707584 0)
(0.54765091 0.00030402367 0)
(0.54491925 0.00029163103 0)
(0.54222608 0.0002798761 0)
(0.53956954 0.00026877066 0)
(0.53694664 0.00025827187 0)
(0.53435609 0.00024851674 0)
(0.53179104 0.00023929429 0)
(0.52925515 0.0002312688 0)
(0.52672418 0.00022345532 0)
(0.52422884 0.00021840164 0)
(0.52167237 0.00021307541 0)
(0.51919135 0.00021466532 0)
(0.51643127 0.00021345881 -1.8086403e-20)
(0.51403388 0.00022046242 0)
(0.50987195 0.00021294517 -3.0306545e-21)
(0.97714464 0.020321126 0)
(0.9799125 0.024835361 0)
(0.98411264 0.027870419 0)
(0.98856849 0.02913331 0)
(0.99249316 0.029117117 0)
(0.99565617 0.028377844 0)
(0.99813733 0.027319123 0)
(1.000114 0.026160707 0)
(1.0017282 0.024962471 0)
(1.0030493 0.023768132 0)
(1.0041325 0.022606404 0)
(1.0050201 0.021481789 0)
(1.0057321 0.020410682 0)
(1.0062883 0.019398458 0)
(1.0067114 0.018457166 0)
(1.0069999 0.017590917 0)
(1.0071755 0.01678687 0)
(1.0072629 0.016054068 0)
(1.0072176 0.015396603 0)
(1.0070292 0.014803532 0)
(1.0066243 0.014263724 0)
(1.0058919 0.013772507 0)
(1.0047089 0.013317385 0)
(1.0027627 0.012881411 0)
(0.99970649 0.012447036 0)
(0.99521988 0.011998259 0)
(0.9890086 0.01150056 0)
(0.98098548 0.010933433 0)
(0.97113601 0.010316786 0)
(0.95960366 0.0096647874 0)
(0.94672294 0.0089996952 0)
(0.93295705 0.0083390596 0)
(0.9187818 0.0077004777 0)
(0.90459184 0.0070989344 0)
(0.89065541 0.006544156 0)
(0.87712284 0.0060398701 0)
(0.86406816 0.005582723 0)
(0.85152567 0.0051671374 0)
(0.83950634 0.0047888571 0)
(0.82800581 0.0044436533 0)
(0.81701014 0.0041284746 0)
(0.80649906 0.0038409772 0)
(0.79644948 0.0035781837 0)
(0.78683741 0.0033378084 0)
(0.77763811 0.0031178514 0)
(0.76882733 0.0029160792 0)
(0.76038163 0.0027309585 0)
(0.75227831 0.0025607586 0)
(0.74449627 0.0024038544 0)
(0.73701552 0.0022592147 0)
(0.72981718 0.0021255138 0)
(0.72288383 0.0020017909 0)
(0.7161991 0.001887139 0)
(0.70974805 0.0017806412 0)
(0.70351664 0.0016817313 0)
(0.69749176 0.0015896575 0)
(0.69166125 0.0015038706 0)
(0.68601379 0.0014238158 0)
(0.68053901 0.0013489816 0)
(0.67522727 0.0012789579 0)
(0.67006965 0.0012133119 0)
(0.66505786 0.0011517615 0)
(0.66018414 0.0010939629 0)
(0.65544136 0.0010396546 0)
(0.65082279 0.00098856907 0)
(0.64632217 0.00094047609 0)
(0.64193369 0.00089515644 0)
(0.637652 0.00085240608 0)
(0.63347205 0.00081204756 0)
(0.62938912 0.00077391336 0)
(0.62539878 0.00073786012 0)
(0.62149689 0.0007037454 0)
(0.61767958 0.00067145128 0)
(0.61394318 0.00064086128 0)
(0.61028424 0.0006118773 0)
(0.60669954 0.00058439504 0)
(0.60318599 0.00055832804 0)
(0.5997407 0.00053358693 0)
(0.59636091 0.00051009973 0)
(0.593044 0.00048779045 0)
(0.58978749 0.0004665997 0)
(0.58658896 0.00044646232 0)
(0.58344611 0.00042733087 0)
(0.58035668 0.00040915048 0)
(0.5773185 0.00039187916 0)
(0.57432934 0.00037548144 0)
(0.57138706 0.00035992728 0)
(0.56848927 0.00034518613 0)
(0.56563381 0.00033126924 0)
(0.56281745 0.00031812094 0)
(0.56003858 0.00030590423 0)
(0.55729019 0.00029435983 0)
(0.55457542 0.00028428853 0)
(0.55187031 0.00027448781 0)
(0.54920411 0.000268052 0)
(0.54648214 0.00026120644 0)
(0.5438365 0.00026291 3.8331468e-22)
(0.54091825 0.00026026241 0)
(0.53836654 0.00027472603 8.5959335e-20)
(0.53396162 0.00025250966 0)
(0.97863513 0.019766798 0)
(0.98107261 0.023773016 0)
(0.984727 0.026584065 0)
(0.98870674 0.027908684 0)
(0.99234622 0.028090078 0)
(0.99538108 0.027571817 0)
(0.99782259 0.026696821 0)
(0.99979192 0.025672913 0)
(1.0014026 0.024578446 0)
(1.0027208 0.023463317 0)
(1.003799 0.02236303 0)
(1.0046804 0.021290035 0)
(1.0053938 0.020260664 0)
(1.0059625 0.019283325 0)
(1.0064079 0.018371085 0)
(1.006753 0.017527229 0)
(1.0070138 0.016744467 0)
(1.007192 0.016030676 0)
(1.0072985 0.015384964 0)
(1.0073717 0.014800511 0)
(1.0073662 0.014274117 0)
(1.0073058 0.013802883 0)
(1.0071637 0.01337856 0)
(1.0068944 0.012991515 0)
(1.0064207 0.012634467 0)
(1.0056285 0.012300848 0)
(1.004357 0.011979772 0)
(1.0022532 0.011658835 0)
(0.99899168 0.011323988 0)
(0.99422534 0.010948385 0)
(0.98775146 0.01050406 0)
(0.97947462 0.0099973454 0)
(0.96945066 0.0094416109 0)
(0.95793663 0.0088562575 0)
(0.9453587 0.0082623158 0)
(0.93219111 0.0076776635 0)
(0.91884752 0.0071188137 0)
(0.90562002 0.0065969295 0)
(0.89268026 0.0061174902 0)
(0.88011966 0.0056788847 0)
(0.86798673 0.00527702 0)
(0.85630433 0.004908509 0)
(0.84507824 0.0045699711 0)
(0.83430307 0.0042591291 0)
(0.82396611 0.0039739281 0)
(0.81405097 0.0037118872 0)
(0.80453909 0.0034712333 0)
(0.79541043 0.0032499065 0)
(0.78664504 0.003045937 0)
(0.778223 0.0028579982 0)
(0.7701248 0.0026844283 0)
(0.76233198 0.0025239801 0)
(0.75482683 0.0023754687 0)
(0.74759287 0.0022377163 0)
(0.74061445 0.0021099475 0)
(0.73387679 0.001991195 0)
(0.72736612 0.0018807278 0)
(0.72106945 0.0017778158 0)
(0.71497476 0.0016817878 0)
(0.70907081 0.0015920937 0)
(0.70334715 0.0015081677 0)
(0.69779406 0.0014296179 0)
(0.6924024 0.0013559909 0)
(0.68716375 0.0012869313 0)
(0.68207021 0.0012220852 0)
(0.6771144 0.0011611441 0)
(0.67228941 0.0011038155 0)
(0.66758886 0.0010498294 0)
(0.66300674 0.0009989504 0)
(0.65853744 0.00095095704 0)
(0.6541757 0.00090565708 0)
(0.64991657 0.00086286218 0)
(0.64575545 0.00082241422 0)
(0.64168797 0.00078415914 0)
(0.63771005 0.00074796449 0)
(0.63381783 0.00071369431 0)
(0.63000766 0.00068123373 0)
(0.62627612 0.00065046655 0)
(0.62261992 0.00062129689 0)
(0.61903599 0.00059362608 0)
(0.61552137 0.00056737481 0)
(0.61207323 0.0005424588 0)
(0.60868888 0.00051881423 0)
(0.60536565 0.00049637021 0)
(0.60210102 0.00047507096 0)
(0.59889244 0.00045486878 0)
(0.59573741 0.00043572349 0)
(0.59263325 0.00041759401 0)
(0.58957751 0.00040048938 0)
(0.58656665 0.0003843397 0)
(0.58359878 0.00036933288 0)
(0.5806667 0.00035516036 0)
(0.57777304 0.00034275954 0)
(0.57489414 0.00033070925 0)
(0.57205777 0.00032265499 0)
(0.56917145 0.00031407104 0)
(0.56636287 0.00031573575 0)
(0.56328872 0.00031137077 0)
(0.5605869 0.00033433392 0)
(0.55594443 0.00029523809 0)
(0.98001207 0.019246515 0)
(0.98218361 0.022813957 0)
(0.98538549 0.025412053 0)
(0.9889384 0.026761475 0)
(0.99229135 0.027093756 0)
(0.99517783 0.026761861 0)
(0.99756388 0.026055541 0)
(0.99952325 0.025164476 0)
(1.0011401 0.024175944 0)
(1.0024706 0.023144588 0)
(1.0035615 0.022110183 0)
(1.0044535 0.0210912 0)
(1.0051765 0.020105246 0)
(1.005755 0.019163843 0)
(1.0062116 0.018279536 0)
(1.0065705 0.017457552 0)
(1.0068486 0.016693854 0)
(1.0070562 0.015994787 0)
(1.007207 0.015360058 0)
(1.0073165 0.014785638 0)
(1.0073884 0.014267687 0)
(1.007432 0.013800708 0)
(1.007453 0.013380189 0)
(1.0074476 0.012999657 0)
(1.0074058 0.012653584 0)
(1.0073099 0.012338345 0)
(1.0071324 0.012048663 0)
(1.0068168 0.011777817 0)
(1.0062685 0.011521497 0)
(1.0053707 0.011272828 0)