# Region        : all region0
# Cells         : 7480
# Volume        : 2.33333000e+00
# Time          	min(U)
1               	(2.87366723e-01 -4.62127743e-19 0.00000000e+00)
2               	(1.43001734e-01 -3.65129573e-07 0.00000000e+00)
3               	(1.00345425e-01 -5.05347946e-05 0.00000000e+00)
4               	(8.10177021e-02 -3.93137677e-04 0.00000000e+00)
5               	(6.97025611e-02 -1.12189113e-03 0.00000000e+00)
6               	(6.20900708e-02 -1.71561513e-03 0.00000000e+00)
7               	(5.65582695e-02 -2.70278783e-03 0.00000000e+00)
8               	(5.23442442e-02 -3.06274888e-03 0.00000000e+00)
9               	(4.90368213e-02 -1.08125159e-03 0.00000000e+00)
10              	(4.63951609e-02 -2.61456013e-03 0.00000000e+00)
11              	(4.42667251e-02 -1.18132222e-03 0.00000000e+00)
12              	(4.25509984e-02 -5.60565930e-04 0.00000000e+00)
13              	(4.11815956e-02 -4.80181235e-04 0.00000000e+00)
14              	(4.01144528e-02 -5.06726072e-04 0.00000000e+00)
15              	(3.93194529e-02 -5.06040093e-04 0.00000000e+00)
16              	(3.87755694e-02 -5.03379434e-04 0.00000000e+00)
17              	(3.84654827e-02 -5.29061088e-04 0.00000000e+00)
18              	(3.83740440e-02 -5.34034295e-04 0.00000000e+00)
19              	(3.84846795e-02 -5.46069834e-04 0.00000000e+00)
20              	(3.87791095e-02 -5.39708974e-04 0.00000000e+00)
21              	(3.92348015e-02 -5.35083335e-04 0.00000000e+00)
22              	(3.98149273e-02 -5.20087636e-04 0.00000000e+00)
23              	(4.04785177e-02 -5.10310026e-04 0.00000000e+00)
24              	(4.11850195e-02 -5.02819376e-04 0.00000000e+00)
25              	(4.19062836e-02 -4.89799420e-04 0.00000000e+00)
26              	(4.26249987e-02 -4.67724845e-04 0.00000000e+00)
27              	(4.33312839e-02 -4.48607230e-04 0.00000000e+00)
28              	(4.40199247e-02 -4.31118482e-04 0.00000000e+00)
29              	(4.46881348e-02 -4.16901024e-04 0.00000000e+00)
30              	(4.53344249e-02 -4.05195034e-04 0.00000000e+00)
31              	(4.59581377e-02 -3.95699124e-04 0.00000000e+00)
32              	(4.65589000e-02 -3.88923133e-04 0.00000000e+00)
33              	(4.71368675e-02 -3.84734711e-04 0.00000000e+00)
34              	(4.76920090e-02 -3.82799703e-04 0.00000000e+00)
35              	(4.82248610e-02 -3.82743207e-04 0.00000000e+00)
36              	(4.87360532e-02 -3.83986620e-04 0.00000000e+00)
37              	(4.92266980e-02 -3.86719506e-04 0.00000000e+00)
38              	(4.96972345e-02 -3.90321643e-04 0.00000000e+00)
39              	(5.01489394e-02 -3.94313369e-04 0.00000000e+00)
40              	(5.05817209e-02 -3.98113349e-04 0.00000000e+00)
41              	(5.09969239e-02 -4.01931293e-04 0.00000000e+00)
42              	(5.13949155e-02 -4.05719003e-04 0.00000000e+00)
43              	(5.17762312e-02 -4.09420926e-04 0.00000000e+00)
44              	(5.21414264e-02 -4.12979995e-04 0.00000000e+00)
45              	(5.24906353e-02 -4.16343400e-04 0.00000000e+00)
46              	(5.28248516e-02 -4.19304584e-04 0.00000000e+00)
47              	(5.31447147e-02 -4.21930325e-04 0.00000000e+00)
48              	(5.34507991e-02 -4.24220478e-04 0.00000000e+00)
49              	(5.37438490e-02 -4.26624712e-04 0.00000000e+00)
50              	(5.40243765e-02 -4.28650890e-04 0.00000000e+00)
51              	(5.42931294e-02 -4.29927945e-04 0.00000000e+00)
52              	(5.45504311e-02 -4.30807113e-04 0.00000000e+00)
53              	(5.47970590e-02 -4.31481842e-04 0.00000000e+00)
54              	(5.50336209e-02 -4.32006616e-04 0.00000000e+00)
55              	(5.52605533e-02 -4.32439725e-04 0.00000000e+00)
56              	(5.54781918e-02 -4.32745976e-04 0.00000000e+00)
57              	(5.56869950e-02 -4.32965138e-04 0.00000000e+00)
58              	(5.58873737e-02 -4.33132727e-04 0.00000000e+00)
59              	(5.60797320e-02 -4.33155578e-04 0.00000000e+00)
60              	(5.62644387e-02 -4.33031079e-04 0.00000000e+00)
61              	(5.64417595e-02 -4.32833402e-04 0.00000000e+00)
62              	(5.66120511e-02 -4.32700962e-04 0.00000000e+00)
63              	(5.67756301e-02 -4.32531619e-04 0.00000000e+00)
64              	(5.69328334e-02 -4.32267605e-04 0.00000000e+00)
65              	(5.70839327e-02 -4.32803869e-04 0.00000000e+00)
66              	(5.72290277e-02 -4.32673291e-04 0.00000000e+00)
67              	(5.73683593e-02 -4.32020234e-04 0.00000000e+00)
68              	(5.75021536e-02 -4.31302255e-04 0.00000000e+00)
69              	(5.76306913e-02 -4.30936638e-04 0.00000000e+00)
70              	(5.77541441e-02 -4.30775727e-04 0.00000000e+00)
71              	(5.78726496e-02 -4.30740179e-04 0.00000000e+00)
72              	(5.79863096e-02 -4.30756536e-04 0.00000000e+00)
73              	(5.80952404e-02 -4.30734821e-04 0.00000000e+00)
74              	(5.81995821e-02 -4.30635191e-04 0.00000000e+00)
75              	(5.82994935e-02 -4.30523563e-04 0.00000000e+00)
76              	(5.83951911e-02 -4.30446572e-04 0.00000000e+00)
77              	(5.84868502e-02 -4.30340443e-04 0.00000000e+00)
78              	(5.85746207e-02 -4.30262378e-04 0.00000000e+00)
79              	(5.86586324e-02 -4.30285104e-04 0.00000000e+00)
80              	(5.87390229e-02 -4.30191589e-04 0.00000000e+00)
81              	(5.88159717e-02 -4.30963496e-04 0.00000000e+00)
82              	(5.88894440e-02 -4.30790885e-04 0.00000000e+00)
83              	(5.89596483e-02 -4.30373812e-04 0.00000000e+00)
84              	(5.90267478e-02 -4.29901297e-04 0.00000000e+00)
85              	(5.90909136e-02 -4.29700042e-04 0.00000000e+00)
86              	(5.91521568e-02 -4.29690104e-04 0.00000000e+00)
87              	(5.92106461e-02 -4.29834503e-04 0.00000000e+00)
88              	(5.92664021e-02 -4.30047930e-04 0.00000000e+00)
89              	(5.93194955e-02 -4.30148620e-04 0.00000000e+00)
90              	(5.93700343e-02 -4.30106636e-04 0.00000000e+00)
91              	(5.94180665e-02 -4.30038632e-04 0.00000000e+00)
92              	(5.94637272e-02 -4.30240216e-04 0.00000000e+00)
93              	(5.95071410e-02 -4.30053746e-04 0.00000000e+00)
94              	(5.95485610e-02 -4.30183082e-04 0.00000000e+00)
95              	(5.95878823e-02 -4.30373745e-04 0.00000000e+00)
96              	(5.96253096e-02 -4.30893853e-04 0.00000000e+00)
97              	(5.96606819e-02 -4.30496011e-04 0.00000000e+00)
98              	(5.96942904e-02 -4.30185351e-04 0.00000000e+00)
99              	(5.97261898e-02 -4.29822338e-04 0.00000000e+00)
100             	(5.97565689e-02 -4.29741600e-04 0.00000000e+00)
101             	(5.97853650e-02 -4.29769594e-04 0.00000000e+00)
102             	(5.98126394e-02 -4.29960895e-04 0.00000000e+00)
103             	(5.98383505e-02 -4.30130053e-04 0.00000000e+00)
104             	(5.98625705e-02 -4.30118761e-04 0.00000000e+00)
105             	(5.98854143e-02 -4.30134738e-04 0.00000000e+00)
106             	(5.99069109e-02 -4.30149981e-04 0.00000000e+00)
107             	(5.99272650e-02 -4.30250684e-04 0.00000000e+00)
108             	(5.99464971e-02 -4.30044536e-04 0.00000000e+00)
109             	(5.99647497e-02 -4.30905347e-04 0.00000000e+00)
110             	(5.99817280e-02 -4.30776645e-04 0.00000000e+00)
111             	(5.99978117e-02 -4.30435568e-04 0.00000000e+00)
112             	(6.00128172e-02 -4.29990957e-04 0.00000000e+00)
113             	(6.00271201e-02 -4.29819790e-04 0.00000000e+00)
114             	(6.00406386e-02 -4.29805580e-04 0.00000000e+00)
115             	(6.00532381e-02 -4.29860844e-04 0.00000000e+00)
116             	(6.00649309e-02 -4.30010887e-04 0.00000000e+00)
117             	(6.00759107e-02 -4.30127804e-04 0.00000000e+00)
118             	(6.00862387e-02 -4.30182307e-04 0.00000000e+00)
119             	(6.00957253e-02 -4.30189373e-04 0.00000000e+00)
120             	(6.01045350e-02 -4.30163652e-04 0.00000000e+00)
121             	(6.01128786e-02 -4.30155555e-04 0.00000000e+00)
122             	(6.01206407e-02 -4.30141619e-04 0.00000000e+00)
123             	(6.01279246e-02 -4.30210805e-04 0.00000000e+00)
124             	(6.01348196e-02 -4.30164101e-04 0.00000000e+00)
125             	(6.01415500e-02 -4.30987581e-04 0.00000000e+00)
126             	(6.01472717e-02 -4.30792869e-04 0.00000000e+00)
127             	(6.01527925e-02 -4.30387536e-04 0.00000000e+00)
128             	(6.01580746e-02 -4.29932664e-04 0.00000000e+00)
129             	(6.01630876e-02 -4.29771923e-04 0.00000000e+00)
130             	(6.01676818e-02 -4.29762697e-04 0.00000000e+00)
131             	(6.01721315e-02 -4.29893148e-04 0.00000000e+00)
132             	(6.01763314e-02 -4.30092712e-04 0.00000000e+00)
133             	(6.01801860e-02 -4.30186757e-04 0.00000000e+00)
134             	(6.01837320e-02 -4.30180997e-04 0.00000000e+00)
135             	(6.01868540e-02 -4.30213407e-04 0.00000000e+00)
136             	(6.01896906e-02 -4.30037473e-04 0.00000000e+00)
137             	(6.01925109e-02 -4.30350778e-04 0.00000000e+00)
138             	(6.01949052e-02 -4.29976973e-04 0.00000000e+00)
139             	(6.01976566e-02 -4.30204525e-04 0.00000000e+00)
140             	(6.01997821e-02 -4.30737770e-04 0.00000000e+00)
141             	(6.02021573e-02 -4.30835699e-04 0.00000000e+00)
142             	(6.02038906e-02 -4.30391420e-04 0.00000000e+00)
143             	(6.02057226e-02 -4.30077459e-04 0.00000000e+00)
144             	(6.02074354e-02 -4.29755131e-04 0.00000000e+00)
145             	(6.02091722e-02 -4.29737283e-04 0.00000000e+00)
146             	(6.02108703e-02 -4.29815016e-04 0.00000000e+00)
147             	(6.02123543e-02 -4.30035860e-04 0.00000000e+00)
148             	(6.02136014e-02 -4.30187413e-04 0.00000000e+00)
149             	(6.02147198e-02 -4.30137693e-04 0.00000000e+00)
150             	(6.02157593e-02 -4.30113368e-04 0.00000000e+00)
151             	(6.02165418e-02 -4.30180443e-04 0.00000000e+00)
152             	(6.02173179e-02 -4.30206932e-04 0.00000000e+00)
153             	(6.02181393e-02 -4.30071573e-04 0.00000000e+00)
154             	(6.02190486e-02 -4.30726070e-04 0.00000000e+00)
155             	(6.02196238e-02 -4.30805302e-04 0.00000000e+00)
156             	(6.02202039e-02 -4.30447746e-04 0.00000000e+00)
157             	(6.02205736e-02 -4.30059915e-04 0.00000000e+00)
158             	(6.02211085e-02 -4.29802441e-04 0.00000000e+00)
159             	(6.02217551e-02 -4.29757566e-04 0.00000000e+00)
160             	(6.02223254e-02 -4.29812506e-04 0.00000000e+00)
161             	(6.02227442e-02 -4.29979077e-04 0.00000000e+00)
162             	(6.02230831e-02 -4.30119458e-04 0.00000000e+00)
163             	(6.02233437e-02 -4.30174077e-04 0.00000000e+00)
164             	(6.02234532e-02 -4.30129627e-04 0.00000000e+00)
165             	(6.02235150e-02 -4.30138515e-04 0.00000000e+00)
166             	(6.02235748e-02 -4.30167009e-04 0.00000000e+00)
167             	(6.02236663e-02 -4.30177486e-04 0.00000000e+00)
168             	(6.02237761e-02 -4.30095707e-04 0.00000000e+00)
169             	(6.02239863e-02 -4.30667031e-04 0.00000000e+00)
170             	(6.02240937e-02 -4.30893593e-04 0.00000000e+00)
171             	(6.02240364e-02 -4.30510718e-04 0.00000000e+00)
172             	(6.02239932e-02 -4.30070536e-04 0.00000000e+00)
173             	(6.02241857e-02 -4.29803419e-04 0.00000000e+00)
174             	(6.02243843e-02 -4.29760434e-04 0.00000000e+00)
175             	(6.02245665e-02 -4.29815956e-04 0.00000000e+00)
176             	(6.02247417e-02 -4.30007030e-04 0.00000000e+00)
177             	(6.02248574e-02 -4.30133264e-04 0.00000000e+00)
178             	(6.02249638e-02 -4.30174402e-04 0.00000000e+00)
179             	(6.02249192e-02 -4.30188046e-04 0.00000000e+00)
180             	(6.02248048e-02 -4.30155588e-04 0.00000000e+00)
181             	(6.02247959e-02 -4.30148421e-04 0.00000000e+00)
182             	(6.02247862e-02 -4.30137306e-04 0.00000000e+00)
183             	(6.02248342e-02 -4.30195453e-04 0.00000000e+00)
184             	(6.02249125e-02 -4.30159747e-04 0.00000000e+00)
185             	(6.02251892e-02 -4.30988281e-04 0.00000000e+00)
186             	(6.02250833e-02 -4.30690357e-04 0.00000000e+00)
187             	(6.02251001e-02 -4.30318509e-04 0.00000000e+00)
188             	(6.02251417e-02 -4.29902314e-04 0.00000000e+00)
189             	(6.02254444e-02 -4.29748034e-04 0.00000000e+00)
190             	(6.02256099e-02 -4.29751445e-04 0.00000000e+00)
191             	(6.02257968e-02 -4.29904339e-04 0.00000000e+00)
192             	(6.02259519e-02 -4.30096528e-04 0.00000000e+00)
193             	(6.02260637e-02 -4.30186987e-04 0.00000000e+00)
194             	(6.02261276e-02 -4.30166132e-04 0.00000000e+00)
195             	(6.02260759e-02 -4.30082498e-04 0.00000000e+00)
196             	(6.02260922e-02 -4.30274326e-04 0.00000000e+00)
197             	(6.02260305e-02 -4.30078294e-04 0.00000000e+00)
198             	(6.02261607e-02 -4.30193029e-04 0.00000000e+00)
199             	(6.02262019e-02 -4.30437927e-04 0.00000000e+00)
200             	(6.02264868e-02 -4.30921448e-04 0.00000000e+00)
201             	(6.02262787e-02 -4.30510281e-04 0.00000000e+00)
202             	(6.02262795e-02 -4.30187113e-04 0.00000000e+00)
203             	(6.02262734e-02 -4.29808718e-04 0.00000000e+00)
204             	(6.02265522e-02 -4.29754589e-04 0.00000000e+00)
205             	(6.02266772e-02 -4.29770213e-04 0.00000000e+00)
206             	(6.02267858e-02 -4.29964697e-04 0.00000000e+00)
207             	(6.02268242e-02 -4.30110449e-04 0.00000000e+00)
208             	(6.02268244e-02 -4.30180170e-04 0.00000000e+00)
209             	(6.02267056e-02 -4.30074304e-04 0.00000000e+00)
210             	(6.02266297e-02 -4.30230475e-04 0.00000000e+00)
211             	(6.02264410e-02 -4.30073225e-04 0.00000000e+00)
212             	(6.02264525e-02 -4.30280099e-04 0.00000000e+00)
213             	(6.02263607e-02 -4.30074897e-04 0.00000000e+00)
214             	(6.02265734e-02 -4.30982987e-04 0.00000000e+00)
215             	(6.02262733e-02 -4.30695894e-04 0.00000000e+00)
216             	(6.02262709e-02 -4.30334343e-04 0.00000000e+00)
217             	(6.02260494e-02 -4.29914872e-04 0.00000000e+00)
218             	(6.02262198e-02 -4.29771041e-04 0.00000000e+00)
219             	(6.02262626e-02 -4.29771328e-04 0.00000000e+00)
220             	(6.02263190e-02 -4.29875136e-04 0.00000000e+00)
221             	(6.02263451e-02 -4.30044182e-04 0.00000000e+00)
222             	(6.02263308e-02 -4.30150287e-04 0.00000000e+00)
223             	(6.02262594e-02 -4.30174825e-04 0.00000000e+00)
224             	(6.02260429e-02 -4.30197470e-04 0.00000000e+00)
225             	(6.02258249e-02 -4.30042372e-04 0.00000000e+00)
226             	(6.02257940e-02 -4.30335385e-04 0.00000000e+00)
227             	(6.02256057e-02 -4.29957181e-04 0.00000000e+00)
228             	(6.02256829e-02 -4.30240972e-04 0.00000000e+00)
229             	(6.02255639e-02 -4.30558353e-04 0.00000000e+00)
230             	(6.02257723e-02 -4.30957544e-04 0.00000000e+00)
231             	(6.02254031e-02 -4.30503486e-04 0.00000000e+00)
232             	(6.02254073e-02 -4.30148937e-04 0.00000000e+00)
233             	(6.02254036e-02 -4.29777289e-04 0.00000000e+00)
234             	(6.02255928e-02 -4.29749908e-04 0.00000000e+00)
235             	(6.02257022e-02 -4.29791575e-04 0.00000000e+00)
236             	(6.02258236e-02 -4.30005783e-04 0.00000000e+00)
237             	(6.02258964e-02 -4.30145201e-04 0.00000000e+00)
238             	(6.02259667e-02 -4.30175605e-04 0.00000000e+00)
239             	(6.02259370e-02 -4.30192130e-04 0.00000000e+00)
240             	(6.02258148e-02 -4.30047005e-04 0.00000000e+00)
241             	(6.02258599e-02 -4.30332368e-04 0.00000000e+00)
242             	(6.02257761e-02 -4.30007116e-04 0.00000000e+00)
243             	(6.02259487e-02 -4.30201313e-04 0.00000000e+00)
244             	(6.02259617e-02 -4.30565970e-04 0.00000000e+00)
245             	(6.02262514e-02 -4.30899047e-04 0.00000000e+00)
246             	(6.02259966e-02 -4.30459825e-04 0.00000000e+00)
247             	(6.02260071e-02 -4.30151464e-04 0.00000000e+00)
248             	(6.02260464e-02 -4.29777670e-04 0.00000000e+00)
249             	(6.02263311e-02 -4.29748224e-04 0.00000000e+00)
250             	(6.02264794e-02 -4.29782835e-04 0.00000000e+00)
251             	(6.02265987e-02 -4.29991169e-04 0.00000000e+00)
252             	(6.02266545e-02 -4.30141084e-04 0.00000000e+00)
253             	(6.02266854e-02 -4.30185580e-04 0.00000000e+00)
254             	(6.02266020e-02 -4.30056935e-04 0.00000000e+00)
255             	(6.02265753e-02 -4.30249526e-04 0.00000000e+00)
256             	(6.02264194e-02 -4.30081372e-04 0.00000000e+00)
257             	(6.02264644e-02 -4.30265878e-04 0.00000000e+00)
258             	(6.02264270e-02 -4.30186245e-04 0.00000000e+00)
259             	(6.02266676e-02 -4.30983640e-04 0.00000000e+00)
260             	(6.02263711e-02 -4.30619877e-04 0.00000000e+00)
261             	(6.02263614e-02 -4.30261593e-04 0.00000000e+00)
262             	(6.02262091e-02 -4.29875274e-04 0.00000000e+00)
263             	(6.02264093e-02 -4.29762239e-04 0.00000000e+00)
264             	(6.02264793e-02 -4.29772856e-04 0.00000000e+00)
265             	(6.02265429e-02 -4.29905241e-04 0.00000000e+00)
266             	(6.02265610e-02 -4.30062146e-04 0.00000000e+00)
267             	(6.02265427e-02 -4.30158064e-04 0.00000000e+00)
268             	(6.02264185e-02 -4.30179067e-04 0.00000000e+00)
269             	(6.02261994e-02 -4.30091494e-04 0.00000000e+00)
270             	(6.02260780e-02 -4.30262087e-04 0.00000000e+00)
271             	(6.02258796e-02 -4.30030081e-04 0.00000000e+00)
272             	(6.02259098e-02 -4.30278213e-04 0.00000000e+00)
273             	(6.02257810e-02 -4.30113320e-04 0.00000000e+00)
274             	(6.02259705e-02 -4.31019914e-04 0.00000000e+00)
275             	(6.02256487e-02 -4.30697534e-04 0.00000000e+00)
276             	(6.02256223e-02 -4.30330592e-04 0.00000000e+00)
277             	(6.02254688e-02 -4.29878828e-04 0.00000000e+00)
278             	(6.02256552e-02 -4.29767517e-04 0.00000000e+00)
279             	(6.02257090e-02 -4.29757494e-04 0.00000000e+00)
280             	(6.02258069e-02 -4.29907100e-04 0.00000000e+00)
281             	(6.02258732e-02 -4.30072485e-04 0.00000000e+00)
282             	(6.02259220e-02 -4.30163581e-04 0.00000000e+00)
283             	(6.02259139e-02 -4.30177962e-04 0.00000000e+00)
284             	(6.02257644e-02 -4.30215750e-04 0.00000000e+00)
285             	(6.02256182e-02 -4.30030073e-04 0.00000000e+00)
286             	(6.02256763e-02 -4.30338421e-04 0.00000000e+00)
287             	(6.02255682e-02 -4.29979837e-04 0.00000000e+00)
288             	(6.02257219e-02 -4.30205513e-04 0.00000000e+00)
289             	(6.02257036e-02 -4.30710722e-04 0.00000000e+00)
290             	(6.02259546e-02 -4.30873538e-04 0.00000000e+00)
291             	(6.02256562e-02 -4.30419210e-04 0.00000000e+00)
292             	(6.02256915e-02 -4.30089809e-04 0.00000000e+00)
293             	(6.02257764e-02 -4.29759790e-04 0.00000000e+00)
294             	(6.02260100e-02 -4.29745268e-04 0.00000000e+00)
295             	(6.02261633e-02 -4.29805653e-04 0.00000000e+00)
296             	(6.02262962e-02 -4.30026956e-04 0.00000000e+00)
297             	(6.02263739e-02 -4.30169614e-04 0.00000000e+00)
298             	(6.02264365e-02 -4.30189312e-04 0.00000000e+00)
299             	(6.02263788e-02 -4.30066534e-04 0.00000000e+00)
300             	(6.02263725e-02 -4.30268235e-04 0.00000000e+00)
301             	(6.02262392e-02 -4.30044617e-04 0.00000000e+00)
302             	(6.02263478e-02 -4.30289342e-04 0.00000000e+00)
303             	(6.02263157e-02 -4.30127412e-04 0.00000000e+00)
304             	(6.02266237e-02 -4.30988523e-04 0.00000000e+00)
305             	(6.02263535e-02 -4.30634466e-04 0.00000000e+00)
306             	(6.02264010e-02 -4.30287724e-04 0.00000000e+00)
307             	(6.02262553e-02 -4.29894365e-04 0.00000000e+00)
308             	(6.02264906e-02 -4.29753619e-04 0.00000000e+00)
309             	(6.02265952e-02 -4.29760288e-04 0.00000000e+00)
310             	(6.02267028e-02 -4.29896457e-04 0.00000000e+00)
311             	(6.02267468e-02 -4.30062803e-04 0.00000000e+00)
312             	(6.02267504e-02 -4.30168868e-04 0.00000000e+00)
313             	(6.02266544e-02 -4.30140642e-04 0.00000000e+00)
314             	(6.02264988e-02 -4.30131618e-04 0.00000000e+00)
315             	(6.02263429e-02 -4.30178065e-04 0.00000000e+00)
316             	(6.02262290e-02 -4.30177783e-04 0.00000000e+00)
317             	(6.02261693e-02 -4.30125210e-04 0.00000000e+00)
318             	(6.02261734e-02 -4.30487955e-04 0.00000000e+00)
319             	(6.02262551e-02 -4.30924433e-04 0.00000000e+00)
320             	(6.02260393e-02 -4.30557274e-04 0.00000000e+00)
321             	(6.02258976e-02 -4.30140147e-04 0.00000000e+00)
322             	(6.02259038e-02 -4.29825502e-04 0.00000000e+00)
323             	(6.02260089e-02 -4.29760935e-04 0.00000000e+00)
324             	(6.02260806e-02 -4.29794778e-04 0.00000000e+00)
325             	(6.02261478e-02 -4.29970581e-04 0.00000000e+00)
326             	(6.02261641e-02 -4.30104343e-04 0.00000000e+00)
327             	(6.02261633e-02 -4.30171974e-04 0.00000000e+00)
328             	(6.02260240e-02 -4.30181783e-04 0.00000000e+00)
329             	(6.02258147e-02 -4.30138300e-04 0.00000000e+00)
330             	(6.02257038e-02 -4.30180676e-04 0.00000000e+00)
331             	(6.02255840e-02 -4.30109692e-04 0.00000000e+00)
332             	(6.02255578e-02 -4.30222948e-04 0.00000000e+00)
333             	(6.02255212e-02 -4.30126348e-04 0.00000000e+00)
334             	(6.02257128e-02 -4.30988918e-04 0.00000000e+00)
335             	(6.02255154e-02 -4.30711176e-04 0.00000000e+00)
336             	(6.02254775e-02 -4.30339431e-04 0.00000000e+00)
337             	(6.02254143e-02 -4.29913075e-04 0.00000000e+00)
338             	(6.02256474e-02 -4.29755519e-04 0.00000000e+00)
339             	(6.02257460e-02 -4.29753866e-04 0.00000000e+00)
340             	(6.02258829e-02 -4.29891020e-04 0.00000000e+00)
341             	(6.02259964e-02 -4.30084192e-04 0.00000000e+00)
342             	(6.02260696e-02 -4.30178114e-04 0.00000000e+00)
343             	(6.02261119e-02 -4.30182852e-04 0.00000000e+00)
344             	(6.02260108e-02 -4.30108348e-04 0.00000000e+00)
345             	(6.02259732e-02 -4.30230549e-04 0.00000000e+00)
346             	(6.02258878e-02 -4.30077595e-04 0.00000000e+00)
347             	(6.02259809e-02 -4.30258086e-04 0.00000000e+00)
348             	(6.02260076e-02 -4.30109177e-04 0.00000000e+00)
349             	(6.02262959e-02 -4.30985226e-04 0.00000000e+00)
350             	(6.02260804e-02 -4.30659226e-04 0.00000000e+00)
351             	(6.02261323e-02 -4.30309648e-04 0.00000000e+00)
352             	(6.02260270e-02 -4.29913924e-04 0.00000000e+00)
353             	(6.02262885e-02 -4.29755761e-04 0.00000000e+00)
354             	(6.02264169e-02 -4.29748372e-04 0.00000000e+00)
355             	(6.02265628e-02 -4.29892988e-04 0.00000000e+00)
356             	(6.02266446e-02 -4.30069521e-04 0.00000000e+00)
357             	(6.02266869e-02 -4.30182849e-04 0.00000000e+00)
358             	(6.02266425e-02 -4.30127539e-04 0.00000000e+00)
359             	(6.02265613e-02 -4.30148306e-04 0.00000000e+00)
360             	(6.02264224e-02 -4.30154931e-04 0.00000000e+00)
361             	(6.02263638e-02 -4.30214014e-04 0.00000000e+00)
362             	(6.02263363e-02 -4.30074548e-04 0.00000000e+00)
363             	(6.02264554e-02 -4.30647151e-04 0.00000000e+00)
364             	(6.02264294e-02 -4.30855410e-04 0.00000000e+00)
365             	(6.02263385e-02 -4.30491248e-04 0.00000000e+00)
366             	(6.02261467e-02 -4.30078348e-04 0.00000000e+00)
367             	(6.02262160e-02 -4.29809173e-04 0.00000000e+00)
368             	(6.02263441e-02 -4.29756940e-04 0.00000000e+00)
369             	(6.02264301e-02 -4.29808575e-04 0.00000000e+00)
370             	(6.02264928e-02 -4.29984793e-04 0.00000000e+00)
371             	(6.02265026e-02 -4.30119858e-04 0.00000000e+00)
372             	(6.02264801e-02 -4.30175171e-04 0.00000000e+00)
373             	(6.02263161e-02 -4.30179628e-04 0.00000000e+00)
374             	(6.02261008e-02 -4.30061634e-04 0.00000000e+00)
375             	(6.02260382e-02 -4.30310125e-04 0.00000000e+00)
376             	(6.02258499e-02 -4.29984879e-04 0.00000000e+00)
377             	(6.02259134e-02 -4.30268884e-04 0.00000000e+00)
378             	(6.02257878e-02 -4.30328373e-04 0.00000000e+00)
379             	(6.02260035e-02 -4.31016230e-04 0.00000000e+00)
380             	(6.02256373e-02 -4.30580925e-04 0.00000000e+00)
381             	(6.02256290e-02 -4.30235057e-04 0.00000000e+00)
382             	(6.02255469e-02 -4.29805258e-04 0.00000000e+00)
383             	(6.02257583e-02 -4.29758720e-04 0.00000000e+00)
384             	(6.02258370e-02 -4.29771148e-04 0.00000000e+00)
385             	(6.02259293e-02 -4.29965638e-04 0.00000000e+00)
386             	(6.02259847e-02 -4.30109502e-04 0.00000000e+00)
387             	(6.02260368e-02 -4.30167143e-04 0.00000000e+00)
388             	(6.02260032e-02 -4.30188271e-04 0.00000000e+00)
389             	(6.02258510e-02 -4.30100473e-04 0.00000000e+00)
390             	(6.02258283e-02 -4.30275093e-04 0.00000000e+00)
391             	(6.02257131e-02 -4.30017974e-04 0.00000000e+00)
392             	(6.02258333e-02 -4.30274248e-04 0.00000000e+00)
393             	(6.02258058e-02 -4.30210661e-04 0.00000000e+00)
394             	(6.02261184e-02 -4.31009218e-04 0.00000000e+00)
395             	(6.02258425e-02 -4.30605758e-04 0.00000000e+00)
396             	(6.02258871e-02 -4.30262791e-04 0.00000000e+00)
397             	(6.02258341e-02 -4.29846519e-04 0.00000000e+00)
398             	(6.02261064e-02 -4.29750194e-04 0.00000000e+00)
399             	(6.02262267e-02 -4.29757768e-04 0.00000000e+00)
400             	(6.02263632e-02 -4.29939477e-04 0.00000000e+00)
401             	(6.02264401e-02 -4.30097425e-04 0.00000000e+00)
402             	(6.02264944e-02 -4.30179043e-04 0.00000000e+00)
403             	(6.02264460e-02 -4.30133167e-04 0.00000000e+00)
404             	(6.02263590e-02 -4.30148235e-04 0.00000000e+00)
405             	(6.02262539e-02 -4.30175911e-04 0.00000000e+00)
406             	(6.02262156e-02 -4.30199759e-04 0.00000000e+00)
407             	(6.02262185e-02 -4.30078169e-04 0.00000000e+00)
408             	(6.02263541e-02 -4.30673462e-04 0.00000000e+00)
409             	(6.02263339e-02 -4.30842858e-04 0.00000000e+00)
410             	(6.02262533e-02 -4.30466251e-04 0.00000000e+00)
411             	(6.02260989e-02 -4.30086814e-04 0.00000000e+00)
412             	(6.02261659e-02 -4.29795600e-04 0.00000000e+00)
413             	(6.02263474e-02 -4.29755370e-04 0.00000000e+00)
414             	(6.02264541e-02 -4.29801128e-04 0.00000000e+00)
415             	(6.02265317e-02 -4.29991550e-04 0.00000000e+00)
416             	(6.02265560e-02 -4.30132476e-04 0.00000000e+00)
417             	(6.02265430e-02 -4.30181727e-04 0.00000000e+00)
418             	(6.02263996e-02 -4.30138992e-04 0.00000000e+00)
419             	(6.02262338e-02 -4.30120462e-04 0.00000000e+00)
420             	(6.02261166e-02 -4.30204968e-04 0.00000000e+00)
421             	(6.02260074e-02 -4.30151895e-04 0.00000000e+00)
422             	(6.02259752e-02 -4.30106531e-04 0.00000000e+00)
423             	(6.02260269e-02 -4.30689701e-04 0.00000000e+00)
424             	(6.02260398e-02 -4.30866182e-04 0.00000000e+00)
425             	(6.02258574e-02 -4.30473695e-04 0.00000000e+00)
426             	(6.02257054e-02 -4.30074257e-04 0.00000000e+00)
427             	(6.02257907e-02 -4.29787522e-04 0.00000000e+00)
428             	(6.02259144e-02 -4.29758209e-04 0.00000000e+00)
429             	(6.02260015e-02 -4.29810566e-04 0.00000000e+00)
430             	(6.02260880e-02 -4.30009878e-04 0.00000000e+00)
431             	(6.02261163e-02 -4.30140240e-04 0.00000000e+00)
432             	(6.02261367e-02 -4.30177623e-04 0.00000000e+00)
433             	(6.02260202e-02 -4.30190036e-04 0.00000000e+00)
434             	(6.02258399e-02 -4.30052501e-04 0.00000000e+00)
435             	(6.02258346e-02 -4.30332120e-04 0.00000000e+00)
436             	(6.02256982e-02 -4.29964115e-04 0.00000000e+00)
437             	(6.02258160e-02 -4.30256204e-04 0.00000000e+00)
438             	(6.02257359e-02 -4.30419392e-04 0.00000000e+00)
439             	(6.02260151e-02 -4.30978335e-04 0.00000000e+00)
440             	(6.02256918e-02 -4.30530293e-04 0.00000000e+00)
441             	(6.02257182e-02 -4.30199918e-04 0.00000000e+00)
442             	(6.02256866e-02 -4.29791889e-04 0.00000000e+00)
443             	(6.02259398e-02 -4.29751993e-04 0.00000000e+00)
444             	(6.02260580e-02 -4.29775494e-04 0.00000000e+00)
445             	(6.02261719e-02 -4.29980038e-04 0.00000000e+00)
446             	(6.02262365e-02 -4.30125023e-04 0.00000000e+00)
447             	(6.02262915e-02 -4.30177371e-04 0.00000000e+00)
448             	(6.02262410e-02 -4.30148678e-04 0.00000000e+00)
449             	(6.02261310e-02 -4.30119101e-04 0.00000000e+00)
450             	(6.02260780e-02 -4.30228963e-04 0.00000000e+00)
451             	(6.02260185e-02 -4.30144432e-04 0.00000000e+00)
452             	(6.02260535e-02 -4.30105274e-04 0.00000000e+00)
453             	(6.02261821e-02 -4.30704510e-04 0.00000000e+00)
454             	(6.02262088e-02 -4.30832302e-04 0.00000000e+00)
455             	(6.02260996e-02 -4.30439264e-04 0.00000000e+00)
456             	(6.02259988e-02 -4.30082726e-04 0.00000000e+00)
457             	(6.02260959e-02 -4.29780927e-04 0.00000000e+00)
458             	(6.02263151e-02 -4.29751813e-04 0.00000000e+00)
459             	(6.02264329e-02 -4.29802629e-04 0.00000000e+00)