/*--------------------------------*- C++ -*----------------------------------*\
| =========                 |                                                 |
| \\      /  F ield         | OpenFOAM: The Open Source CFD Toolbox           |
|  \\    /   O peration     | Version:  2206                                  |
|   \\  /    A nd           | Website:  www.openfoam.com                      |
|    \\/     M anipulation  |                                                 |
\*---------------------------------------------------------------------------*/
FoamFile
{
    version     2.0;
    format      ascii;
    arch        "LSB;label=32;scalar=64";
    class       volScalarField;
    location    "800";
    object      epsilon;
}
// * * * * * * * * * * * * * * * * * * * * * * * * * * * * * * * * * * * * * //

dimensions      [0 2 -3 0 0 0 0];

internalField   nonuniform List<scalar> 
13056
(
0.0088180921
0.0087628986
0.0087336648
0.0087193462
0.008710882
0.0087050871
0.0087008371
0.0086976199
0.0086951435
0.0086932227
0.0086917352
0.0086906003
0.0086897673
0.0086892101
0.0086889281
0.0086889477
0.0086893563
0.0086902738
0.0086921857
0.0086952843
0.0087031136
0.0087165038
0.0087407639
0.011551041
0.030615617
0.001829918
0.0053133692
0.0003856462
0.0020945625
0.00019820565
0.0012567004
0.00089031718
0.00087719032
0.00072456134
0.00065776319
0.00058047131
0.00052472199
0.00047578284
0.00043504993
0.00040005866
0.00036986301
0.00034353741
0.00032040735
0.00029993743
0.00028170432
0.00026536246
0.00025062575
0.00023721703
0.00022499591
0.00021385086
0.00020364749
0.0001942724
0.00018562939
0.00017763631
0.00017022282
0.00016332829
0.00015689993
0.0001508917
0.00014526339
0.00013997964
0.00013500931
0.00013032482
0.00012590179
0.00012171835
0.00011775489
0.00011399379
0.00011041944
0.00010701766
0.00010377562
0.00010068174
9.7725593e-05
9.48976e-05
9.218896e-05
8.9591702e-05
8.7098526e-05
8.4702738e-05
8.2398179e-05
8.0179169e-05
7.8040561e-05
7.597759e-05
7.3985764e-05
7.2060946e-05
7.0199324e-05
6.8397345e-05
6.6651721e-05
6.4959366e-05
6.3317412e-05
6.1723249e-05
6.0174402e-05
5.8668494e-05
5.7203343e-05
5.5776901e-05
5.4387242e-05
5.3032559e-05
5.1711142e-05
5.0421418e-05
4.9161907e-05
4.7931166e-05
4.6727836e-05
4.5550644e-05
4.4398384e-05
4.3269909e-05
4.2164128e-05
4.1080027e-05
4.0016606e-05
3.897295e-05
3.7948172e-05
3.694143e-05
3.5951913e-05
3.4978875e-05
3.4021618e-05
3.3079542e-05
3.2152148e-05
3.126042e-05
3.0430536e-05
2.9665641e-05
2.8959023e-05
2.8304504e-05
2.769635e-05
2.7129588e-05
2.6599934e-05
2.610366e-05
2.5637495e-05
2.5198565e-05
2.4784331e-05
2.4392501e-05
2.4020989e-05
2.3667844e-05
2.333127e-05
2.3009205e-05
2.2700151e-05
2.2400032e-05
2.2111183e-05
2.1812554e-05
2.1559327e-05
2.118046e-05
0.0088165552
0.0087612578
0.0087319625
0.0087176104
0.0087091251
0.008703315
0.0086990534
0.0086958268
0.0086933425
0.0086914146
0.0086899204
0.0086887787
0.0086879383
0.0086873724
0.0086870796
0.0086870848
0.0086874731
0.0086883615
0.0086902245
0.0086932535
0.0087009058
0.0087140974
0.0087370911
0.011547734
0.030125438
0.0018343589
0.0053313651
0.00044195765
0.002166339
0.0003043629
0.0013365038
0.0009832461
0.00095745226
0.00080781657
0.000738195
0.00066100596
0.00060425685
0.00055470347
0.00051326282
0.00047761339
0.00044677736
0.00041983769
0.00039611806
0.00037508243
0.00035630615
0.00033944005
0.00032419475
0.00031031573
0.00029766687
0.00028611075
0.00027551198
0.00026575623
0.00025674639
0.00024839944
0.00024064424
0.00023341938
0.00022667136
0.00022035347
0.00021442487
0.00020884964
0.00020359627
0.00019863661
0.00019394576
0.00018950139
0.0001852834
0.00018127358
0.00017745614
0.00017381661
0.00017034183
0.00016701993
0.00016384023
0.00016079287
0.00015786881
0.00015505985
0.00015235847
0.00014975778
0.00014725142
0.00014483352
0.00014249877
0.00014024225
0.0001380593
0.00013594564
0.00013389731
0.00013191064
0.00012998221
0.0001281088
0.00012628745
0.00012451541
0.00012279013
0.00012110913
0.00011947012
0.00011787097
0.00011630965
0.00011478429
0.00011329308
0.00011183441
0.00011040671
0.00010900846
0.00010763823
0.00010629466
0.00010497648
0.00010368248
0.00010241151
0.00010116246
9.9934256e-05
9.8725942e-05
9.7536577e-05
9.6365268e-05
9.5211161e-05
9.4073473e-05
9.295147e-05
9.18447e-05
9.0752259e-05
8.9701683e-05
8.8724933e-05
8.7825102e-05
8.699395e-05
8.6223942e-05
8.5508205e-05
8.4840862e-05
8.4216877e-05
8.3631903e-05
8.3082121e-05
8.2564191e-05
8.2075163e-05
8.1612372e-05
8.1173395e-05
8.0755976e-05
8.0358034e-05
7.997716e-05
7.9611665e-05
7.9256585e-05
7.8915262e-05
7.8561455e-05
7.8263113e-05
7.7812674e-05
0.008811674
0.008756057
0.008726573
0.0087121188
0.0087035692
0.0086977134
0.0086934172
0.0086901633
0.0086876568
0.0086857101
0.0086841995
0.0086830427
0.0086821877
0.0086816065
0.0086812966
0.0086812812
0.0086816423
0.0086824936
0.0086842957
0.0086872402
0.0086946768
0.0087076426
0.0087289943
0.011537266
0.029637348
0.001838011
0.0053434632
0.00049766781
0.0022339083
0.00041005777
0.0014128856
0.0010716406
0.0010348832
0.00088813354
0.00081609569
0.00073904963
0.00068146423
0.00063139018
0.00058934077
0.00055311758
0.0005217185
0.00049423494
0.00046999014
0.00044844839
0.00042918484
0.00041184823
0.00039615015
0.00038185584
0.00036881921
0.00035688946
0.00034593047
0.00033582716
0.00032648173
0.00031781047
0.00030974157
0.00030221299
0.00029517062
0.0002885672
0.00028236136
0.00027651669
0.00027100139
0.00026578683
0.00026084761
0.00025616103
0.00025170655
0.00024746539
0.00024342165
0.00023956059
0.00023586879
0.00023233409
0.00022894558
0.00022569317
0.00022256761
0.00021956047
0.00021666406
0.00021387129
0.00021117563
0.00020857106
0.00020605209
0.00020361366
0.00020125098
0.00019895963
0.00019673552
0.00019457486
0.00019247412
0.00019042998
0.00018843935
0.00018649938
0.00018460745
0.00018276098
0.00018095759
0.00017919506
0.00017747129
0.00017578432
0.00017413228
0.0001725135
0.00017092635
0.00016936922
0.00016784061
0.00016633911
0.00016486337
0.00016341213
0.00016198416
0.00016057831
0.00015919339
0.00015782842
0.00015648241
0.00015515443
0.00015384358
0.00015254904
0.00015127004
0.00015000629
0.00014875648
0.00014755449
0.00014643783
0.00014540951
0.0001444598
0.00014357986
0.00014276173
0.00014199867
0.00014128492
0.00014061554
0.00013998619
0.00013939309
0.0001388329
0.0001383026
0.00013779944
0.00013732088
0.00013686456
0.00013642775
0.00013600858
0.00013560122
0.00013521
0.0001348037
0.00013446248
0.00013394394
0.0088032951
0.008747132
0.0087173261
0.0087026973
0.0086940381
0.0086881047
0.0086837498
0.00868045
0.0086779065
0.0086759292
0.0086743924
0.0086732126
0.0086723361
0.0086717341
0.0086714023
0.0086713623
0.0086716927
0.008672504
0.0086742426
0.008677101
0.0086843173
0.0086970709
0.0087166324
0.011519864
0.029142876
0.0018404281
0.005347702
0.00055217262
0.002296267
0.0005143614
0.0014850811
0.0011550657
0.001108814
0.0009649059
0.0008908452
0.00081401431
0.00075576257
0.00070527483
0.00066272407
0.00062601938
0.00059414108
0.00056618945
0.00054148886
0.00051950504
0.00049981422
0.00048206463
0.00046597168
0.00045131357
0.00043793104
0.00042566675
0.00041438415
0.00040396768
0.00039431906
0.00038535406
0.00037700039
0.0003691955
0.00036188484
0.00035502068
0.00034856124
0.00034246969
0.00033671406
0.00033126527
0.00032609755
0.00032118781
0.00031651519
0.00031206037
0.00030780737
0.00030374125
0.00029984832
0.00029611622
0.00029253382
0.00028909084
0.00028577782
0.00028258617
0.000279508
0.00027653607
0.00027366371
0.00027088474
0.00026819354
0.00026558491
0.00026305395
0.00026059611
0.00025820718
0.00025588328
0.00025362076
0.0002514162
0.00024926644
0.0002471685
0.00024511972
0.0002431174
0.0002411591
0.00023924253
0.0002373655
0.00023552599
0.00023372205
0.00023195199
0.00023021409
0.0002285067
0.00022682823
0.00022517721
0.00022355224
0.000221952
0.0002203752
0.00021882063
0.00021728701
0.00021577334
0.00021427858
0.00021280176
0.00021134194
0.00020989828
0.00020846997
0.00020705687
0.00020565728
0.00020431122
0.00020306148
0.00020191096
0.00020084852
0.00019986407
0.0001989486
0.00019809453
0.00019729543
0.0001965458
0.00019584081
0.00019517624
0.00019454839
0.0001939539
0.00019338971
0.00019285301
0.00019234119
0.0001918512
0.00019138099
0.00019092393
0.00019048529
0.00019002905
0.0001896471
0.00018906376
0.0087911784
0.0087342261
0.0087039546
0.0086890737
0.0086802562
0.0086742106
0.0086697712
0.0086664054
0.0086638089
0.0086617881
0.0086602147
0.008659003
0.0086580979
0.0086574689
0.00865711
0.0086570409
0.0086573368
0.0086581048
0.0086597769
0.0086625469
0.0086695371
0.0086820921
0.008699698
0.011495075
0.028634173
0.0018411472
0.0053420198
0.00060479605
0.0023522858
0.00061622405
0.0015522035
0.0012329075
0.0011784589
0.0010374095
0.00096171422
0.00088520251
0.00082646444
0.00077568498
0.00073275071
0.0006956663
0.00066340066
0.00063506386
0.0006099831
0.00058762685
0.00056757375
0.00054947296
0.00053304499
0.00051807445
0.00050439065
0.00049183344
0.00048026614
0.00046957299
0.00045965546
0.00045042903
0.00044182111
0.00043376881
0.00042621725
0.00041911841
0.00041243017
0.0004061154
0.00040014205
0.00039448067
0.00038910517
0.0003839922
0.00037912057
0.0003744705
0.00037002599
0.00036577192
0.00036169442
0.00035778093
0.00035402014
0.00035040161
0.0003469157
0.00034355368
0.00034030751
0.00033716983
0.00033413381
0.00033119315
0.00032834212
0.00032557541
0.00032288799
0.00032027523
0.00031773281
0.00031525676
0.00031284332
0.00031048902
0.00030819059
0.00030594496
0.00030374942
0.00030160119
0.00029949776
0.00029743676
0.00029541595
0.00029343324
0.00029148661
0.00028957436
0.0002876947
0.0002858459
0.00028402632
0.00028223445
0.00028046883
0.00027872807
0.00027701084
0.00027531587
0.00027364179
0.0002719876
0.0002703522
0.00026873458
0.00026713378
0.00026554893
0.00026397919
0.00026242456
0.00026088298
0.00025940033
0.00025802447
0.00025675816
0.00025558889
0.00025450539
0.00025349765
0.00025255732
0.00025167732
0.00025085162
0.0002500749
0.00024934257
0.00024865055
0.00024799519
0.00024737312
0.00024678129
0.00024621683
0.00024567639
0.00024515778
0.00024465358
0.00024416996
0.00024366634
0.00024324576
0.00024260089
0.0087749989
0.0087169917
0.0086860975
0.0086708793
0.0086618499
0.0086556544
0.0086511021
0.0086476482
0.0086449812
0.0086429028
0.0086412812
0.0086400281
0.0086390864
0.0086384237
0.008638032
0.0086379289
0.008638186
0.0086389069
0.0086405091
0.008643188
0.0086499451
0.0086623158
0.0086777829
0.011462296
0.02810394
0.001839683
0.0053242307
0.00065477252
0.002400688
0.00071444181
0.0016132234
0.0013043665
0.001242896
0.0011047829
0.0010278442
0.00095178784
0.00089275701
0.00084182458
0.00079863713
0.00076128604
0.00072873463
0.00070010411
0.00067472638
0.0006520741
0.00063172966
0.00061334437
0.00059664385
0.00058141463
0.00056747797
0.00055467288
0.00054286292
0.00053193247
0.00052178299
0.00051232992
0.00050350057
0.00049523191
0.00048746888
0.00048016329
0.00047327282
0.00046676018
0.00046059328
0.00045474246
0.00044918134
0.00044388639
0.00043883617
0.0004340105
0.00042939341
0.00042496965
0.0004207252
0.00041664737
0.00041272468
0.00040894657
0.00040530328
0.00040178594
0.00039838642
0.0003950972
0.00039191138
0.00038882256
0.00038582487
0.00038291294
0.00038008165
0.00037732626
0.00037464238
0.00037202595
0.00036947316
0.00036698044
0.00036454445
0.00036216205
0.00035983048
0.00035754689
0.0003553087
0.0003531135
0.00035095898
0.00034884298
0.00034676346
0.00034471867
0.00034270678
0.00034072599
0.00033877463
0.00033685111
0.00033495393
0.00033308166
0.00033123293
0.0003294064
0.00032760062
0.00032581458
0.00032404716
0.00032229729
0.000320564
0.00031884637
0.00031714357
0.00031545572
0.00031378041
0.0003121691
0.00031067444
0.00030929904
0.00030802913
0.0003068523
0.00030575762
0.00030473598
0.00030377971
0.00030288228
0.00030203792
0.00030124168
0.00030048914
0.00029977634
0.00029909967
0.0002984558
0.00029784167
0.00029725362
0.00029668932
0.00029614061
0.00029561455
0.00029506617
0.00029460916
0.00029390611
0.00875435
0.0086949933
0.0086633018
0.0086476517
0.008638351
0.0086319635
0.0086272666
0.0086237001
0.0086209432
0.0086187915
0.0086171088
0.0086158037
0.0086148165
0.0086141124
0.0086136815
0.0086135389
0.0086137524
0.0086144222
0.0086159503
0.0086185351
0.0086250515
0.0086372534
0.0086503792
0.011420775
0.027545411
0.001835527
0.0052920245
0.00070123997
0.002440045
0.00080764117
0.0016669634
0.0013684622
0.0013010616
0.0011660219
0.0010882408
0.0010128088
0.00095369553
0.0009027674
0.00085947157
0.00082197983
0.00078925548
0.00076043267
0.00073485004
0.000711986
0.00069142806
0.00067283058
0.00065592382
0.00064049394
0.00062635752
0.0006133539
0.00060134733
0.00059022263
0.00057988162
0.00057023992
0.00056122499
0.00055277383
0.00054483142
0.00053734952
0.0005302858
0.00052360287
0.00051726877
0.00051125366
0.00050553105
0.00050007723
0.00049487064
0.00048989072
0.00048512162
0.00048054801
0.00047615577
0.0004719321
0.00046786544
0.00046394512
0.0004601613
0.00045650501
0.00045296801
0.00044954274
0.00044622219
0.00044299986
0.00043986985
0.00043682669
0.00043386518
0.00043098053
0.00042816828
0.0004254243
0.00042274471
0.00042012588
0.00041756444
0.00041505715
0.00041260123
0.00041019377
0.00040783213
0.00040551385
0.00040323658
0.00040099812
0.00039879637
0.00039662959
0.00039449585
0.00039239336
0.00039032036
0.00038827524
0.00038625644
0.00038426251
0.00038229202
0.00038034359
0.00037841569
0.00037650729
0.00037461725
0.00037274447
0.00037088796
0.00036904677
0.00036722005
0.00036540807
0.00036360804
0.00036187673
0.00036027123
0.00035879405
0.00035743019
0.00035616622
0.00035499033
0.00035389274
0.00035286519
0.0003519007
0.00035099311
0.00035013708
0.00034932793
0.00034856139
0.00034783362
0.00034714106
0.00034648043
0.00034584782
0.00034524074
0.00034465035
0.00034408454
0.00034349421
0.0003430031
0.00034224546
0.0087287451
0.0086677098
0.0086350255
0.0086188372
0.0086091984
0.0086025717
0.0085976948
0.0085939881
0.0085911194
0.0085888766
0.0085871184
0.0085857493
0.0085847065
0.0085839527
0.0085834754
0.008583287
0.0085834516
0.0085840655
0.0085855151
0.0085880024
0.0085942696
0.0086063206
0.008616881
0.011369625
0.026952388
0.0018281521
0.0052429927
0.00074324473
0.0024687907
0.000894283
0.0017121091
0.0014240513
0.0013517592
0.0012199886
0.0011417817
0.0010671767
0.0010082106
0.00095746407
0.0009142209
0.00087672897
0.00084395716
0.00081505472
0.00078936925
0.0007663866
0.00074570073
0.00072696986
0.0007099283
0.00069436141
0.00068008385
0.00066693621
0.00065478383
0.00064351242
0.00063302444
0.00062323603
0.00061407503
0.00060547871
0.00059739227
0.00058976764
0.00058256256
0.00057573975
0.00056926746
0.00056311581
0.00055725824
0.00055167104
0.00054633253
0.0005412219
0.00053632346
0.00053162186
0.00052710294
0.00052275386
0.00051856298
0.00051451962
0.00051061383
0.00050683663
0.00050317972
0.00049963546
0.0004961968
0.0004928572
0.00048961068
0.00048645174
0.00048337513
0.00048037601
0.00047744985
0.00047459249
0.00047180001
0.00046906873
0.00046639523
0.00046377622
0.00046120889
0.0004586903
0.00045621776
0.00045378877
0.00045140093
0.00044905202
0.0004467399
0.00044446281
0.00044221882
0.00044000605
0.00043782272
0.00043566718
0.00043353785
0.00043143322
0.00042935184
0.00042729227
0.00042525292
0.00042323275
0.0004212306
0.00041924535
0.00041727597
0.00041532151
0.0004133811
0.00041145512
0.0004095405
0.00040769884
0.00040599138
0.00040442051
0.00040297015
0.00040162591
0.00040037518
0.00039920755
0.00039811426
0.0003970879
0.00039612193
0.00039521071
0.00039434926
0.00039353308
0.00039275807
0.00039202049
0.00039131687
0.00039064305
0.00038999641
0.00038936745
0.00038876486
0.00038813571
0.00038761305
0.00038680476
0.0086976208
0.0086345367
0.0086006391
0.0085837928
0.0085737406
0.0085668213
0.0085617242
0.0085578462
0.0085548409
0.0085524872
0.0085506371
0.0085491904
0.0085480807
0.0085472675
0.0085467356
0.0085464945
0.008546604
0.0085471567
0.0085485229
0.0085509091
0.0085569178
0.0085688381
0.0085765851
0.011307833
0.026319337
0.0018170239
0.0051746785
0.00077975873
0.0024852529
0.00097268671
0.0017472354
0.0014698591
0.0013936837
0.0012654347
0.0011872389
0.0011136971
0.0010551291
0.0010047628
0.00096175082
0.00092441475
0.00089173468
0.00086287748
0.00083720211
0.00081420369
0.00079348393
0.00077470569
0.0007576071
0.00074197344
0.00072761967
0.00071438833
0.00070214642
0.00069078091
0.00068019532
0.00067030661
0.0006610433
0.00065234319
0.0006441519
0.00063642171
0.00062911065
0.00062218165
0.00061560333
0.00060934589
0.00060338284
0.00059769051
0.00059224724
0.00058703201
0.0005820294
0.0005772241
0.00057260197
0.00056815016
0.00056385705
0.00055971193
0.00055570487
0.00055182685
0.00054806955
0.00054442533
0.0005408871
0.00053744831
0.00053410295
0.00053084548
0.00052767064
0.00052457355
0.00052154966
0.00051859479
0.00051570498
0.00051287652
0.00051010596
0.00050738999
0.00050472578
0.00050211035
0.00049954098
0.00049701514
0.00049453043
0.00049208457
0.00048967541
0.0004873012
0.00048495996
0.00048264979
0.00048036888
0.00047811554
0.00047588815
0.0004736852
0.00047150519
0.00046934666
0.00046720792
0.00046508796
0.00046298559
0.00046089967
0.00045882916
0.00045677309
0.00045473058
0.00045270211
0.00045068435
0.00044874329
0.00044694392
0.00044528853
0.00044376009
0.00044234333
0.00044102494
0.00043979397
0.00043864118
0.0004375588
0.00043653995
0.0004355787
0.00043466983
0.00043380861
0.00043299073
0.00043221229
0.00043146963
0.00043075837
0.00043007578
0.00042941177
0.00042877575
0.00042811127
0.00042755995
0.00042670546
0.0086603383
0.0085947881
0.0085594282
0.0085417883
0.0085312371
0.0085239648
0.0085186021
0.0085145173
0.0085113474
0.00850886
0.0085068994
0.0085053598
0.0085041703
0.008503287
0.0085026912
0.0085023894
0.0085024369
0.0085029225
0.0085041996
0.0085064806
0.0085122208
0.008524034
0.0085286917
0.011234267
0.025641518
0.0018016172
0.0050846533
0.00080970874
0.0024877037
0.0010410739
0.0017708489
0.0015045239
0.0014254596
0.0013010396
0.0012233143
0.0011511054
0.001093209
0.0010434433
0.0010008591
0.00096385124
0.00093141646
0.00090274219
0.0008772013
0.00085430012
0.0008336495
0.00081491777
0.00079784718
0.00078222426
0.00076786603
0.0007546177
0.00074234846
0.00073094707
0.00072031849
0.00071038088
0.00070106374
0.00069230566
0.00068405293
0.00067625842
0.0006688806
0.00066188282
0.00065523418
0.00064890511
0.0006428693
0.00063710326
0.00063158542
0.00062629468
0.00062121591
0.00061633396
0.00061163475
0.00060710552
0.00060273469
0.0005985116
0.00059442635
0.00059046995
0.00058663411
0.0005829112
0.00057929415
0.0005757764
0.00057235197
0.00056901531
0.00056576115
0.00056258463
0.00055948118
0.0005564466
0.00055347694
0.00055056848
0.00054771776
0.00054492144
0.00054217669
0.00053948052
0.0005368302
0.00053422318
0.00053165704
0.00052912949
0.00052663836
0.00052418192
0.00052175817
0.00051936518
0.00051700112
0.00051466427
0.00051235301
0.00051006578
0.00050780108
0.00050555741
0.000503333
0.00050112687
0.00049893781
0.00049676467
0.0004946064
0.00049246202
0.00049033063
0.00048821283
0.00048610501
0.00048407706
0.00048219723
0.0004804678
0.00047887086
0.00047739043
0.0004760126
0.00047472591
0.00047352075
0.00047238902
0.00047132355
0.00047031817
0.00046936744
0.00046846643
0.00046761068
0.0004667961
0.00046601892
0.00046527453
0.00046456012
0.00046386507
0.00046319943
0.00046250364
0.00046192695
0.00046103135
0.0086161863
0.0085476991
0.0085105948
0.0084920074
0.0084808604
0.0084731664
0.0084674863
0.0084631547
0.0084597883
0.0084571415
0.0084550494
0.0084533993
0.0084521154
0.0084511495
0.0084504793
0.0084501078
0.0084500855
0.0084504972
0.0084516791
0.0084538503
0.0084593111
0.008471044
0.008472306
0.011147694
0.024915158
0.0017814393
0.0049706159
0.00083201703
0.0024744258
0.0010976301
0.0017814446
0.0015266554
0.0014456928
0.0013254604
0.0012486889
0.0011781149
0.0011211858
0.0010722625
0.0010303212
0.00099383005
0.00096180859
0.00093346785
0.00090819742
0.00088551686
0.0008650476
0.00084646452
0.00082951474
0.00081398769
0.0007997039
0.00078651198
0.00077428391
0.00076291076
0.00075229939
0.00074236955
0.00073305206
0.00072428659
0.00071602041
0.00070820714
0.00070080596
0.00069378077
0.00068710136
0.0006807385
0.00067466621
0.00066886129
0.0006633024
0.00065796841
0.00065284463
0.0006479161
0.0006431689
0.0006385904
0.00063416915
0.00062989458
0.00062575688
0.00062174714
0.00061785714
0.0006140793
0.00061040661
0.00060683256
0.00060335118
0.00059995698
0.0005966447
0.00059340951
0.00059024686
0.00058715258
0.00058412271
0.00058115355
0.00057824166
0.00057538368
0.00057257681
0.00056981805
0.00056710467
0.00056443413
0.00056180399
0.00055921198
0.00055665591
0.00055413409
0.0005516445
0.0005491852
0.00054675434
0.0005443502
0.00054197112
0.00053961555
0.00053728199
0.00053496889
0.0005326744
0.0005303976
0.00052813727
0.00052589224
0.00052366145
0.00052144392
0.00051923874
0.00051704661
0.00051486372
0.00051276316
0.000510816
0.00050902447
0.00050737002
0.00050583605
0.00050440815
0.00050307448
0.00050182512
0.00050065168
0.00049954677
0.00049850402
0.00049751782
0.00049658306
0.00049569514
0.00049484987
0.00049404335
0.00049327078
0.00049252928
0.0004918078
0.00049111693
0.00049039442
0.00048979614
0.00048886531
0.008564383
0.0084924278
0.0084532597
0.0084335504
0.0084216975
0.0084135038
0.0084074477
0.0084028237
0.0083992245
0.008396389
0.0083941413
0.008392361
0.008390966
0.0083899034
0.0083891468
0.0083886954
0.0083885944
0.0083889246
0.0083900041
0.0083920607
0.0083972301
0.0084089134
0.0084064388
0.011046788
0.02413765
0.0017560576
0.0048305165
0.00084565232
0.0024437951
0.0011405831
0.0017775765
0.0015349042
0.0014530353
0.0013373955
0.0012620833
0.0011934758
0.0011378312
0.0010900124
0.0010489463
0.0010131762
0.00098174995
0.00095390585
0.00092905308
0.00090672659
0.00088655998
0.00086823598
0.00085150775
0.00083616936
0.00082204607
0.00080899067
0.0007968786
0.00078560381
0.00077507553
0.00076521552
0.00075595628
0.00074723892
0.00073901192
0.00073122996
0.0007238531
0.00071684603
0.00071017934
0.00070382437
0.00069775557
0.00069195019
0.00068638722
0.00068104563
0.00067591124
0.00067096937
0.00066620637
0.00066160978
0.00065716835
0.00065287167
0.00064871008
0.0006446748
0.00064075773
0.00063695137
0.00063324883
0.00062964366
0.00062612998
0.00062270236
0.0006193556
0.00061608492
0.00061288582
0.00060975416
0.00060668604
0.00060367777
0.00060072595
0.00059782725
0.00059497889
0.00059217789
0.00058942153
0.0005867073
0.00058403276
0.00058139566
0.00057879381
0.00057622557
0.00057368892
0.00057118191
0.00056870269
0.00056624953
0.00056382078
0.0005614149
0.00055903035
0.00055666559
0.00055431869
0.00055198878
0.00054967463
0.0005473751
0.00054508909
0.00054281565
0.00054055385
0.00053830446
0.00053606352
0.00053390664
0.00053190708
0.00053006711
0.00052836767
0.00052679173
0.00052532449
0.00052395384
0.0005226696
0.00052146321
0.00052032708
0.0005192547
0.00051824033
0.00051727874
0.00051636522
0.00051549549
0.00051466556
0.0005138705
0.00051310735
0.00051236471
0.00051165365
0.00051090973
0.00051029418
0.00050933489
0.0085040792
0.0084280578
0.0083864648
0.0083654359
0.0083527524
0.0083439705
0.0083374718
0.0083325035
0.0083286304
0.0083255729
0.0083231425
0.0083212092
0.0083196842
0.008318509
0.0083176524
0.0083171094
0.0083169195
0.0083171596
0.0083181288
0.0083200652
0.00832493
0.0083365988
0.0083300084
0.010930147
0.023307756
0.0017251337
0.0046627021
0.00084968987
0.0023943784
0.0011682956
0.0017579407
0.0015280429
0.0014462608
0.0013356578
0.0012623297
0.0011960461
0.0011420217
0.0010955875
0.0010556444
0.0010208135
0.00099017704
0.00096300406
0.00093872642
0.00091689678
0.00089716258
0.00087921594
0.00086281761
0.00084776792
0.00083389803
0.00082106572
0.0008091506
0.00079805006
0.00078767626
0.00077795338
0.00076881602
0.00076020706
0.00075207648
0.0007443803
0.00073707969
0.00073014035
0.00072353386
0.00071723227
0.00071121064
0.0007054468
0.00069992019
0.00069461003
0.00068950273
0.00068458399
0.00067984049
0.00067526006
0.00067083168
0.0006665452
0.00066239115
0.00065836094
0.00065444662
0.00065064088
0.00064693694
0.00064332848
0.00063980972
0.00063637535
0.00063302026
0.00062973974
0.00062652937
0.0006233851
0.00062030307
0.00061727966
0.00061431153
0.00061139536
0.00060852845
0.00060570784
0.00060293087
0.00060019503
0.00059749793
0.00059483734
0.00059221109
0.00058961761
0.00058705488
0.00058452096
0.000582014
0.00057953231
0.00057707422
0.0005746382
0.00057222273
0.00056982626
0.00056744678
0.0005650835
0.00056273519
0.00056040071
0.00055807898
0.00055576904
0.00055346997
0.0005511826
0.00054890287
0.00054670807
0.00054467303
0.00054280008
0.00054106985
0.00053946505
0.00053797066
0.00053657438
0.00053526589
0.00053403649
0.00053287851
0.00053178533
0.00053075112
0.00052977059
0.00052883894
0.00052795187
0.00052710531
0.00052629424
0.00052551566
0.00052475791
0.00052403242
0.00052327315
0.00052264529
0.00052166533
0.0084343626
0.0083536031
0.0083091773
0.0082866049
0.0082729494
0.0082634791
0.0082564623
0.0082510909
0.0082468972
0.00824358
0.0082409358
0.008238824
0.0082371475
0.0082358415
0.0082348694
0.0082342215
0.0082339314
0.0082340716
0.0082349214
0.0082367314
0.008241277
0.0082529709
0.0082418446
0.010796318
0.022425802
0.0016884618
0.0044660813
0.00084337863
0.0023250435
0.0011793686
0.0017214694
0.0015050564
0.0014243507
0.0013192584
0.0012484522
0.0011848697
0.0011328157
0.0010880606
0.0010495009
0.0010158388
0.00098619693
0.00095987901
0.00093634263
0.00091516052
0.00089599577
0.00087855174
0.00086259837
0.00084794386
0.00083442636
0.00082190953
0.00081027781
0.00079943269
0.00078928976
0.00077977614
0.00077082891
0.00076239306
0.00075442044
0.00074686862
0.0007397002
0.00073288205
0.00072638695
0.00072018784
0.00071426057
0.00070858367
0.0007031372
0.00069790073
0.00069286138
0.00068800534
0.00068331966
0.00067879258
0.0006744134
0.00067017225
0.00066605995
0.00066206816
0.00065818914
0.00065441579
0.0006507415
0.00064716014
0.00064366607
0.00064025412
0.00063691932
0.00063365706
0.00063046305
0.00062733332
0.0006242641
0.00062125187
0.00061829334
0.00061538529
0.00061252507
0.00060970978
0.00060693681
0.00060420372
0.00060150815
0.0005988479
0.00059622087
0.00059362555
0.00059105993
0.00058852211
0.00058601026
0.0005835227
0.0005810578
0.00057861404
0.00057618991
0.00057378387
0.00057139387
0.00056901916
0.00056665855
0.00056431091
0.00056197519
0.00055965041
0.00055733566
0.00055503184
0.00055273482
0.00055052272
0.00054847115
0.00054658255
0.0005448375
0.0005432186
0.00054171077
0.00054030165
0.00053898086
0.00053773969
0.00053657042
0.0005354664
0.00053442177
0.00053343121
0.00053248991
0.00053159355
0.00053073804
0.0005299183
0.00052913133
0.00052836533
0.00052763195
0.00052686421
0.00052622965
0.00052523789
0.0083542642
0.0082680134
0.0082202949
0.0081959262
0.0081811389
0.0081708665
0.0081632461
0.0081574051
0.0081528379
0.0081492183
0.0081463252
0.0081440058
0.0081421534
0.0081406961
0.008139591
0.0081388231
0.0081384197
0.0081384488
0.0081391691
0.0081408459
0.008145056
0.0081568195
0.0081406933
0.010643813
0.021493843
0.0016460111
0.0042403049
0.00082621311
0.0022350815
0.001172754
0.0016674341
0.0014652412
0.0013865875
0.0012874969
0.0012197549
0.0011592632
0.001109538
0.0010667654
0.0010298575
0.00099760154
0.00096916638
0.00094389411
0.00092127131
0.0009008932
0.00088244044
0.0008656296
0.00085024152
0.00083609378
0.00082303256
0.00081092824
0.00079967088
0.00078916668
0.00077933522
0.00077010702
0.00076142206
0.00075322783
0.00074547833
0.00073813303
0.00073115615
0.00072451603
0.00071818677
0.00071214241
0.00070635977
0.00070081825
0.00069549863
0.00069038103
0.00068545332
0.00068070229
0.00067611551
0.00067168164
0.00066739041
0.00066323233
0.00065919854
0.00065528101
0.0006514723
0.00064776554
0.00064415438
0.00064063288
0.00063719562
0.00063383759
0.00063055399
0.00062734038
0.00062419259
0.00062110678
0.00061807932
0.00061510678
0.00061218599
0.00060931382
0.00060648768
0.0006037048
0.0006009626
0.00059825874
0.00059559091
0.00059295698
0.0005903549
0.00058778325
0.00058524006
0.00058272345
0.00058023166
0.00057776302
0.00057531595
0.00057288894
0.00057048055
0.00056808922
0.00056571285
0.0005633508
0.00056100191
0.00055866507
0.00055633922
0.00055402344
0.00055171682
0.00054942027
0.00054712968
0.00054492304
0.00054287591
0.0005409909
0.00053924872
0.00053763211
0.00053612608
0.00053471834
0.00053339859
0.00053215816
0.00053098938
0.00052988564
0.0005288411
0.00052785049
0.00052690899
0.00052601235
0.00052515648
0.00052433631
0.00052354885
0.00052278227
0.00052204832
0.00052127984
0.0005206449
0.00051965131
0.0082627659
0.0081701828
0.0081186545
0.0080922045
0.0080761048
0.0080649024
0.0080565817
0.008050196
0.0080451955
0.008041225
0.0080380435
0.0080354835
0.0080334277
0.0080317957
0.0080305377
0.0080296329
0.0080291015
0.0080290069
0.0080295862
0.0080311218
0.0080349785
0.0080468615
0.0080252261
0.010471143
0.020515765
0.0015979714
0.0039859556
0.0007980063
0.0021243355
0.0011478689
0.0015955547
0.0014083081
0.0013326539
0.0012400571
0.0011759149
0.0011189054
0.0010718679
0.0010313832
0.00099639785
0.00096578805
0.00093877435
0.00091474115
0.00089320708
0.00087379231
0.00085619698
0.00084015293
0.00082545363
0.00081192737
0.00079942942
0.00078783772
0.00077704868
0.00076697385
0.00075753735
0.00074867358
0.00074032582
0.00073244444
0.00072498593
0.00071791194
0.00071118858
0.00070478583
0.00069867937
0.00069284449
0.00068725916
0.00068190381
0.0006767601
0.00067180882
0.00066703872
0.00066243727
0.00065799264
0.00065369404
0.00064953168
0.00064549651
0.00064158009
0.00063777475
0.00063407341
0.00063046949
0.00062695693
0.00062353007
0.00062018371
0.00061691306
0.00061371354
0.00061058089
0.00060751112
0.00060450054
0.00060154569
0.00059864327
0.00059579023
0.00059298357
0.00059022081
0.00058749928
0.00058481651
0.00058217022
0.00057955823
0.00057697845
0.00057442892
0.00057190832
0.00056941473
0.00056694634