/*--------------------------------*- C++ -*----------------------------------*\
| =========                 |                                                 |
| \\      /  F ield         | OpenFOAM: The Open Source CFD Toolbox           |
|  \\    /   O peration     | Version:  2206                                  |
|   \\  /    A nd           | Website:  www.openfoam.com                      |
|    \\/     M anipulation  |                                                 |
\*---------------------------------------------------------------------------*/
FoamFile
{
    version     2.0;
    format      ascii;
    arch        "LSB;label=32;scalar=64";
    class       volScalarField;
    location    "800";
    object      k;
}
// * * * * * * * * * * * * * * * * * * * * * * * * * * * * * * * * * * * * * //

dimensions      [0 2 -2 0 0 0 0];

internalField   nonuniform List<scalar> 
13056
(
0.00013817084
0.00013365182
0.00013210341
0.00013135944
0.00013090235
0.00013058606
0.00013035403
0.00013017791
0.00013004106
0.00012993288
0.00012984622
0.00012977609
0.00012971891
0.00012967202
0.00012963341
0.00012960159
0.00012957528
0.00012955384
0.00012953558
0.00012952444
0.00012950043
0.00012956999
0.00012912841
0.00013133625
1.8030888e-05
2.7561258e-06
5.6082433e-06
9.7575875e-07
3.0141915e-06
6.2591821e-07
2.1436273e-06
1.7019042e-06
1.6864597e-06
1.4842098e-06
1.3916505e-06
1.2801606e-06
1.1967661e-06
1.1210392e-06
1.0560264e-06
9.9853594e-07
9.4756564e-07
9.0198567e-07
8.6096951e-07
8.2384083e-07
7.9005313e-07
7.5914736e-07
7.3073409e-07
7.044098e-07
6.7996167e-07
6.5727792e-07
6.3616325e-07
6.1644998e-07
5.9799367e-07
5.8066898e-07
5.6436711e-07
5.4899301e-07
5.3446267e-07
5.2070178e-07
5.0764466e-07
4.9523284e-07
4.8341416e-07
4.721419e-07
4.6137439e-07
4.5107374e-07
4.412055e-07
4.3173841e-07
4.226446e-07
4.1389847e-07
4.0547654e-07
3.9735748e-07
3.89522e-07
3.8195207e-07
3.7463096e-07
3.6754341e-07
3.6067532e-07
3.5401364e-07
3.4754625e-07
3.4126186e-07
3.3515021e-07
3.2920172e-07
3.234072e-07
3.1775814e-07
3.1224663e-07
3.0686522e-07
3.0160698e-07
2.9646532e-07
2.9143406e-07
2.8650757e-07
2.8168045e-07
2.769474e-07
2.7230353e-07
2.6774422e-07
2.6326506e-07
2.5886188e-07
2.5453066e-07
2.5026771e-07
2.460695e-07
2.4193252e-07
2.3785341e-07
2.3382898e-07
2.2985618e-07
2.2593203e-07
2.2205368e-07
2.1821841e-07
2.1442348e-07
2.1066637e-07
2.0694454e-07
2.0325554e-07
1.9959696e-07
1.9596653e-07
1.9236208e-07
1.8878172e-07
1.8522391e-07
1.8177057e-07
1.7852713e-07
1.7551147e-07
1.7270245e-07
1.700801e-07
1.6762533e-07
1.6532143e-07
1.6315384e-07
1.6110977e-07
1.5917789e-07
1.5734815e-07
1.556116e-07
1.5396005e-07
1.5238596e-07
1.5088215e-07
1.4944192e-07
1.4805728e-07
1.4672249e-07
1.4542047e-07
1.4416181e-07
1.4285477e-07
1.4174165e-07
1.400684e-07
0.000138157
0.00013362954
0.00013207791
0.00013133226
0.0001308741
0.00013055704
0.00013032445
0.00013014789
0.00013001069
0.00012990223
0.00012981535
0.00012974503
0.00012968769
0.00012964067
0.00012960195
0.00012957003
0.00012954363
0.00012952213
0.00012950379
0.00012949261
0.00012946853
0.00012953821
0.00012909577
0.00013130872
1.7962447e-05
2.7029103e-06
5.5072666e-06
9.7055141e-07
2.9900032e-06
6.61753e-07
2.142924e-06
1.7242089e-06
1.6958851e-06
1.5015369e-06
1.4081457e-06
1.2996365e-06
1.2172576e-06
1.142853e-06
1.078779e-06
1.0221033e-06
9.7180052e-07
9.2677833e-07
8.8622656e-07
8.494839e-07
8.1601463e-07
7.8536616e-07
7.5715211e-07
7.3100978e-07
7.0676506e-07
6.842548e-07
6.6328765e-07
6.4369932e-07
6.2534817e-07
6.0811128e-07
5.9188189e-07
5.7656667e-07
5.6208311e-07
5.4835822e-07
5.3532743e-07
5.2293326e-07
5.111246e-07
4.9985545e-07
4.8908472e-07
4.7877508e-07
4.688925e-07
4.5940578e-07
4.5028781e-07
4.4151339e-07
4.3305935e-07
4.2490465e-07
4.1703023e-07
4.094183e-07
4.0205232e-07
3.9491723e-07
3.8799906e-07
3.8128493e-07
3.7476282e-07
3.6842158e-07
3.6225104e-07
3.5624171e-07
3.503845e-07
3.4467096e-07
3.3909323e-07
3.3364396e-07
3.2831623e-07
3.231035e-07
3.1799964e-07
3.1299904e-07
3.0809634e-07
3.0328626e-07
2.9856393e-07
2.9392475e-07
2.8936431e-07
2.8487845e-07
2.8046316e-07
2.761148e-07
2.7182984e-07
2.6760474e-07
2.6343613e-07
2.593208e-07
2.5525568e-07
2.5123778e-07
2.4726422e-07
2.4333222e-07
2.3943882e-07
2.3558165e-07
2.3175815e-07
2.2796587e-07
2.2420233e-07
2.2046524e-07
2.1675241e-07
2.1306203e-07
2.0939229e-07
2.0582915e-07
2.0248226e-07
1.993701e-07
1.9647081e-07
1.937637e-07
1.9122905e-07
1.8884964e-07
1.8661048e-07
1.8449843e-07
1.8250184e-07
1.806104e-07
1.7881491e-07
1.7710696e-07
1.7547881e-07
1.7392318e-07
1.7243321e-07
1.7100055e-07
1.6961937e-07
1.6827188e-07
1.669696e-07
1.6561639e-07
1.6446613e-07
1.6272994e-07
0.00013811266
0.00013355942
0.00013199799
0.00013124722
0.00013078578
0.00013046641
0.00013023209
0.00013005419
0.00012991595
0.00012980664
0.00012971906
0.00012964818
0.00012959036
0.00012954293
0.00012950387
0.00012947166
0.000129445
0.00012942328
0.00012940475
0.00012939342
0.00012936911
0.00012943915
0.00012899411
0.00013122169
1.7895753e-05
2.6488612e-06
5.4017288e-06
9.6416263e-07
2.9611556e-06
6.9760851e-07
2.1378245e-06
1.7404383e-06
1.7013132e-06
1.5146061e-06
1.4208477e-06
1.3153011e-06
1.2341098e-06
1.1611112e-06
1.0980786e-06
1.0423069e-06
9.9275748e-07
9.4837377e-07
9.0836319e-07
8.7208005e-07
8.3900055e-07
8.0868049e-07
7.8074338e-07
7.5486914e-07
7.3088588e-07
7.0860482e-07
6.8783879e-07
6.6842701e-07
6.5023082e-07
6.3312982e-07
6.1701942e-07
6.0180813e-07
5.8741504e-07
5.7376854e-07
5.6080529e-07
5.4846886e-07
5.3670928e-07
5.2548132e-07
5.1474453e-07
5.0446219e-07
4.9460076e-07
4.851291e-07
4.7602095e-07
4.6725153e-07
4.5879806e-07
4.5063977e-07
4.427579e-07
4.3513492e-07
4.2775452e-07
4.2060184e-07
4.1366312e-07
4.0692562e-07
4.0037751e-07
3.9400775e-07
3.8780629e-07
3.8176377e-07
3.7587119e-07
3.701202e-07
3.6450304e-07
3.5901241e-07
3.5364147e-07
3.4838375e-07
3.4323315e-07
3.3818412e-07
3.3323135e-07
3.283696e-07
3.2359404e-07
3.1890007e-07
3.1428333e-07
3.0973969e-07
3.0526514e-07
3.0085613e-07
2.9650912e-07
2.9222057e-07
2.879871e-07
2.8380552e-07
2.7967274e-07
2.7558577e-07
2.7154172e-07
2.6753777e-07
2.6357072e-07
2.5963838e-07
2.5573824e-07
2.5186778e-07
2.4802454e-07
2.4420622e-07
2.4041059e-07
2.3663599e-07
2.328803e-07
2.29233e-07
2.2580717e-07
2.2262162e-07
2.1965391e-07
2.168827e-07
2.1428775e-07
2.1185142e-07
2.0955838e-07
2.0739521e-07
2.0535002e-07
2.0341228e-07
2.0157261e-07
1.9982243e-07
1.9815385e-07
1.9655954e-07
1.9503252e-07
1.9356416e-07
1.9214856e-07
1.9076735e-07
1.894329e-07
1.8804543e-07
1.8686836e-07
1.8508455e-07
0.00013803646
0.00013343924
0.00013186112
0.00013110163
0.00013063461
0.00013031128
0.00013007401
0.00012989384
0.0001297538
0.00012964306
0.0001295543
0.00012948244
0.00012942381
0.0001293757
0.00012933605
0.00012930333
0.00012927624
0.00012925414
0.00012923528
0.0001292237
0.000129199
0.00012926965
0.0001288202
0.00013107241
1.7831049e-05
2.5933891e-06
5.2897256e-06
9.5618147e-07
2.9266361e-06
7.3293634e-07
2.1276144e-06
1.7503067e-06
1.7021684e-06
1.5229307e-06
1.4292579e-06
1.3267034e-06
1.2468848e-06
1.1753984e-06
1.1135249e-06
1.0587606e-06
1.0100622e-06
9.6640823e-07
9.2702508e-07
8.9128365e-07
8.5867346e-07
8.287609e-07
8.0118444e-07
7.756579e-07
7.519979e-07
7.300051e-07
7.094967e-07
6.9031565e-07
6.7232647e-07
6.5541146e-07
6.3946833e-07
6.2440755e-07
6.1014995e-07
5.9662543e-07
5.8377195e-07
5.7153422e-07
5.5986354e-07
5.4871547e-07
5.3805031e-07
5.2783202e-07
5.1802756e-07
5.0860594e-07
4.9954178e-07
4.9081081e-07
4.8239061e-07
4.742608e-07
4.6640293e-07
4.5879977e-07
4.5143526e-07
4.4429478e-07
4.3736481e-07
4.3063279e-07
4.2408707e-07
4.1771679e-07
4.1151203e-07
4.0546357e-07
3.9956256e-07
3.9380073e-07
3.8817044e-07
3.8266448e-07
3.7727611e-07
3.7199892e-07
3.6682691e-07
3.6175456e-07
3.5677663e-07
3.5188796e-07
3.4708374e-07
3.4235943e-07
3.3771072e-07
3.3313349e-07
3.2862379e-07
3.2417815e-07
3.1979304e-07
3.1546495e-07
3.111905e-07
3.069665e-07
3.0278988e-07
2.9865767e-07
2.9456697e-07
2.9051494e-07
2.8649815e-07
2.8251463e-07
2.7856187e-07
2.7463737e-07
2.7073868e-07
2.6686349e-07
2.6300958e-07
2.5917542e-07
2.5535863e-07
2.5165164e-07
2.4817017e-07
2.4493321e-07
2.4191776e-07
2.3910197e-07
2.3646521e-07
2.3398948e-07
2.316592e-07
2.2946076e-07
2.2738208e-07
2.2541247e-07
2.2354243e-07
2.2176326e-07
2.2006697e-07
2.1844624e-07
2.16894e-07
2.1540141e-07
2.1396251e-07
2.1255848e-07
2.1120249e-07
2.0979178e-07
2.0859746e-07
2.0678011e-07
0.0001379263
0.00013326557
0.00013166335
0.00013089127
0.00013041619
0.00013008715
0.00012984563
0.00012966218
0.00012951955
0.00012940672
0.00012931626
0.000129243
0.00012918319
0.00012913409
0.0001290936
0.00012906015
0.00012903243
0.00012900979
0.00012899043
0.00012897849
0.00012895324
0.00012902476
0.00012856897
0.00013085659
1.776855e-05
2.535951e-06
5.1694082e-06
9.4617956e-07
2.8853958e-06
7.670795e-07
2.1115198e-06
1.7533901e-06
1.6978083e-06
1.5259503e-06
1.4328111e-06
1.3333225e-06
1.2550767e-06
1.1852307e-06
1.1246499e-06
1.071011e-06
1.0232739e-06
9.8045228e-07
9.4179295e-07
9.0668467e-07
8.7463187e-07
8.4521349e-07
8.1808551e-07
7.9298452e-07
7.6971408e-07
7.4807259e-07
7.2788195e-07
7.089891e-07
6.9126195e-07
6.7458568e-07
6.5886052e-07
6.4399905e-07
6.2992397e-07
6.1656683e-07
6.03867e-07
5.9177046e-07
5.8022985e-07
5.6920165e-07
5.5864695e-07
5.4853046e-07
5.3881975e-07
5.29484e-07
5.2049879e-07
5.1184038e-07
5.0348684e-07
4.9541815e-07
4.8761624e-07
4.800642e-07
4.727463e-07
4.6564818e-07
4.5875657e-07
4.5205915e-07
4.4554448e-07
4.3920188e-07
4.3302161e-07
4.2699462e-07
4.2111219e-07
4.153662e-07
4.0974914e-07
4.0425391e-07
3.9887387e-07
3.9360273e-07
3.8843456e-07
3.8336393e-07
3.7838567e-07
3.734947e-07
3.6868628e-07
3.6395592e-07
3.5929937e-07
3.5471257e-07
3.501916e-07
3.4573313e-07
3.4133364e-07
3.3698963e-07
3.3269776e-07
3.2845487e-07
3.2425792e-07
3.2010394e-07
3.1599008e-07
3.1191346e-07
3.0787044e-07
3.0385928e-07
2.998775e-07
2.9592265e-07
2.9199226e-07
2.8808405e-07
2.8419583e-07
2.8032622e-07
2.7647258e-07
2.7272973e-07
2.6921528e-07
2.6594817e-07
2.6290499e-07
2.600635e-07
2.5740272e-07
2.5490445e-07
2.5255293e-07
2.5033441e-07
2.4823671e-07
2.4624906e-07
2.4436185e-07
2.4256633e-07
2.4085445e-07
2.3921896e-07
2.3765278e-07
2.3614687e-07
2.3469523e-07
2.3327873e-07
2.3191125e-07
2.3048772e-07
2.2928516e-07
2.2744755e-07
0.00013777934
0.00013303376
0.00013139936
0.00013061046
0.0001301246
0.00012978794
0.00012954073
0.00012935289
0.0001292068
0.00012909119
0.00012899847
0.00012892333
0.00012886195
0.00012881152
0.0001287699
0.00012873548
0.00012870692
0.00012868355
0.00012866355
0.00012865112
0.00012862512
0.0001286978
0.00012823357
0.00013056842
1.7708779e-05
2.4760584e-06
5.0389902e-06
9.3371106e-07
2.8363549e-06
7.9925596e-07
2.0887124e-06
1.749145e-06
1.6875277e-06
1.5230339e-06
1.4308772e-06
1.3345692e-06
1.2581127e-06
1.1900572e-06
1.1309186e-06
1.078538e-06
1.0318854e-06
9.9001032e-07
9.5218164e-07
9.1780742e-07
8.8640857e-07
8.5757818e-07
8.3098989e-07
8.0639387e-07
7.8358423e-07
7.6236162e-07
7.4255299e-07
7.2400956e-07
7.0660288e-07
6.9022129e-07
6.747677e-07
6.6015703e-07
6.4631398e-07
6.3317191e-07
6.2067176e-07
6.0876087e-07
5.9739335e-07
5.8652669e-07
5.7612286e-07
5.6614743e-07
5.5656862e-07
5.4735587e-07
5.3848577e-07
5.2993521e-07
5.2168274e-07
5.1370882e-07
5.0599577e-07
4.9852706e-07
4.9128732e-07
4.8426249e-07
4.7743959e-07
4.7080658e-07
4.6435225e-07
4.5806614e-07
4.5193872e-07
4.4596112e-07
4.4012481e-07
4.3442183e-07
4.288448e-07
4.2338677e-07
4.1804123e-07
4.1280202e-07
4.076633e-07
4.0261973e-07
3.9766627e-07
3.9279791e-07
3.8800999e-07
3.8329811e-07
3.7865808e-07
3.7408591e-07
3.6957776e-07
3.651304e-07
3.6074037e-07
3.5640421e-07
3.5211861e-07
3.4788045e-07
3.4368673e-07
3.3953453e-07
3.3542102e-07
3.3134332e-07
3.2729757e-07
3.2328231e-07
3.1929509e-07
3.1533349e-07
3.113951e-07
3.0747765e-07
3.0357898e-07
2.9969787e-07
2.9583147e-07
2.920764e-07
2.8855136e-07
2.852751e-07
2.8222391e-07
2.7937524e-07
2.7670792e-07
2.7420362e-07
2.7184651e-07
2.6962277e-07
2.6752018e-07
2.6552793e-07
2.6363641e-07
2.6183684e-07
2.6012114e-07
2.584822e-07
2.5691301e-07
2.5540434e-07
2.5395019e-07
2.5253123e-07
2.5116196e-07
2.4973564e-07
2.4853354e-07
2.4668838e-07
0.00013759205
0.00013273802
0.00013106246
0.00013025206
0.00012975243
0.00012940603
0.00012915154
0.0001289581
0.00012880759
0.00012868842
0.0001285928
0.00012851526
0.00012845187
0.00012839974
0.00012835668
0.00012832102
0.00012829139
0.00012826709
0.00012824625
0.00012823321
0.00012820625
0.00012828039
0.00012780544
0.00013020063
1.7652617e-05
2.413288e-06
4.8967717e-06
9.1831793e-07
2.77842e-06
8.2855142e-07
2.0583247e-06
1.7369345e-06
1.6705713e-06
1.5134926e-06
1.4227724e-06
1.3297968e-06
1.2553631e-06
1.1892687e-06
1.131738e-06
1.0807631e-06
1.0353312e-06
9.9452826e-07
9.5764741e-07
9.2411747e-07
8.934773e-07
8.6533514e-07
8.3938106e-07
8.1537301e-07
7.9310058e-07
7.7236915e-07
7.5301111e-07
7.3488231e-07
7.1785827e-07
7.0183071e-07
6.8670549e-07
6.7240004e-07
6.588413e-07
6.4596458e-07
6.3371253e-07
6.2203401e-07
6.1088471e-07
6.0022325e-07
5.9001259e-07
5.8021922e-07
5.7081214e-07
5.617611e-07
5.5304378e-07
5.4463776e-07
5.3652215e-07
5.2867792e-07
5.2108785e-07
5.1373584e-07
5.066069e-07
4.9968736e-07
4.9296454e-07
4.8642671e-07
4.8006293e-07
4.7386302e-07
4.6781766e-07
4.619182e-07
4.5615632e-07
4.5052425e-07
4.4501477e-07
4.3962111e-07
4.3433691e-07
4.2915614e-07
4.2407309e-07
4.1908255e-07
4.1417958e-07
4.0935929e-07
4.0461711e-07
3.9994876e-07
3.9535011e-07
3.9081726e-07
3.8634645e-07
3.8193461e-07
3.7757832e-07
3.7327418e-07
3.6901892e-07
3.6480948e-07
3.6064292e-07
3.5651637e-07
3.5242705e-07
3.4837209e-07
3.4434745e-07
3.403519e-07
3.3638309e-07
3.3243863e-07
3.2851615e-07
3.2461345e-07
3.207284e-07
3.1685995e-07
3.1300505e-07
3.0926149e-07
3.0574833e-07
3.0248392e-07
2.9944437e-07
2.9660699e-07
2.9395051e-07
2.914566e-07
2.8910941e-07
2.8689516e-07
2.8480166e-07
2.8281812e-07
2.8093496e-07
2.7914345e-07
2.7743554e-07
2.7580429e-07
2.7424283e-07
2.7274178e-07
2.7129517e-07
2.6988355e-07
2.68522e-07
2.6710272e-07
2.6590958e-07
2.6406921e-07
0.00013736025
0.00013237141
0.00013064471
0.00012980758
0.00012929083
0.00012893231
0.00012866878
0.00012846837
0.00012831236
0.00012818877
0.00012808954
0.00012800901
0.00012794313
0.0001278889
0.00012784403
0.00012780684
0.00012777586
0.00012775041
0.00012772854
0.00012771472
0.00012768658
0.00012776254
0.00012727432
0.00012974455
1.7601354e-05
2.3472954e-06
4.7411805e-06
8.9954082e-07
2.7105148e-06
8.5392437e-07
2.0194756e-06
1.7160627e-06
1.646157e-06
1.4966018e-06
1.4077797e-06
1.3183217e-06
1.2461606e-06
1.1822171e-06
1.126475e-06
1.0770672e-06
1.0330042e-06
9.9340997e-07
9.5760391e-07
9.2503715e-07
8.952678e-07
8.6791981e-07
8.4269793e-07
8.1936529e-07
7.9771154e-07
7.7754826e-07
7.5871369e-07
7.4106872e-07
7.2449315e-07
7.0888241e-07
6.9414554e-07
6.8020275e-07
6.6698339e-07
6.5442493e-07
6.4247188e-07
6.310748e-07
6.2019105e-07
6.0978053e-07
5.998073e-07
5.9023887e-07
5.8104509e-07
5.7219616e-07
5.6367091e-07
5.5544766e-07
5.4750615e-07
5.3982794e-07
5.3239631e-07
5.2519566e-07
5.1821142e-07
5.1143034e-07
5.048401e-07
4.9842932e-07
4.9218739e-07
4.861044e-07
4.8017129e-07
4.7437968e-07
4.6872147e-07
4.6318911e-07
4.5777558e-07
4.5247431e-07
4.472791e-07
4.4218407e-07
4.371837e-07
4.3227288e-07
4.2744683e-07
4.2270078e-07
4.1803029e-07
4.1343117e-07
4.0889942e-07
4.0443122e-07
4.0002292e-07
3.9567161e-07
3.9137393e-07
3.8712654e-07
3.8292626e-07
3.7877009e-07
3.7465515e-07
3.7057865e-07
3.6653787e-07
3.6252996e-07
3.5855073e-07
3.5459919e-07
3.5067309e-07
3.4677009e-07
3.4288789e-07
3.3902434e-07
3.3517739e-07
3.3134613e-07
3.2752734e-07
3.2381937e-07
3.2034077e-07
3.1710938e-07
3.1410128e-07
3.1129373e-07
3.0866554e-07
3.0619844e-07
3.0387671e-07
3.0168666e-07
2.996162e-07
2.9765464e-07
2.957925e-07
2.9402111e-07
2.9233252e-07
2.9072001e-07
2.891769e-07
2.8769381e-07
2.862647e-07
2.8487014e-07
2.8352571e-07
2.8212316e-07
2.8094738e-07
2.7912394e-07
0.00013707917
0.00013192593
0.00013013686
0.00012926715
0.00012872952
0.00012835622
0.00012808168
0.00012787277
0.00012771005
0.00012758107
0.00012747743
0.00012739327
0.00012732435
0.00012726754
0.00012722049
0.0001271814
0.0001271488
0.00012712194
0.0001270988
0.00012708405
0.00012705445
0.00012713262
0.00012662829
0.00012919016
1.7556751e-05
2.2778324e-06
4.57083e-06
8.7693605e-07
2.6316233e-06
8.7422618e-07
1.9713075e-06
1.6858169e-06
1.6135093e-06
1.4716344e-06
1.3851797e-06
1.299453e-06
1.229829e-06
1.1682433e-06
1.1144839e-06
1.0668169e-06
1.0242819e-06
9.860426e-07
9.5144689e-07
9.1996977e-07
8.9118969e-07
8.6474656e-07
8.4035832e-07
8.17793e-07
7.96844e-07
7.7733005e-07
7.5909576e-07
7.4200746e-07
7.2594959e-07
7.1082161e-07
6.9653606e-07
6.8301612e-07
6.7019383e-07
6.5800898e-07
6.4640817e-07
6.3534375e-07
6.2477496e-07
6.1466307e-07
6.0497337e-07
5.9567452e-07
5.8673732e-07
5.7813251e-07
5.6984015e-07
5.6183937e-07
5.5411063e-07
5.4663612e-07
5.393997e-07
5.3238631e-07
5.2558188e-07
5.189736e-07
5.1254958e-07
5.0629881e-07
5.0021105e-07
4.9427672e-07
4.8848706e-07
4.8283396e-07
4.7730959e-07
4.7190665e-07
4.6661836e-07
4.6143833e-07
4.5636059e-07
4.5137945e-07
4.4648955e-07
4.4168593e-07
4.3696399e-07
4.3231911e-07
4.2774696e-07
4.2324351e-07
4.1880486e-07
4.1442734e-07
4.1010738e-07
4.0584225e-07
4.0162869e-07
3.9746343e-07
3.9334337e-07
3.8926562e-07
3.8522735e-07
3.8122588e-07
3.7725855e-07
3.7332256e-07
3.6941358e-07
3.655309e-07
3.6167233e-07
3.5783563e-07
3.5401857e-07
3.5021907e-07
3.4643515e-07
3.4266608e-07
3.3890848e-07
3.3526055e-07
3.3183952e-07
3.2866259e-07
3.2570592e-07
3.2294692e-07
3.2036457e-07
3.1794083e-07
3.1566015e-07
3.1350906e-07
3.1147562e-07
3.0954933e-07
3.0772084e-07
3.0598163e-07
3.0432388e-07
3.0274111e-07
3.0122695e-07
2.997721e-07
2.983704e-07
2.9700258e-07
2.9568461e-07
2.9430842e-07
2.9315834e-07
2.9136379e-07
0.00013674344
0.00013139255
0.00012952851
0.00012861961
0.00012805689
0.00012766583
0.00012737803
0.00012715891
0.00012698813
0.00012685266
0.00012674373
0.00012665519
0.00012658261
0.00012652271
0.00012647302
0.00012643168
0.00012639711
0.00012636856
0.0001263439
0.00012632802
0.00012629668
0.00012637747
0.00012585389
0.00012852613
1.7521103e-05
2.2047665e-06
4.384593e-06
8.5009834e-07
2.5408447e-06
8.8823792e-07
1.9130336e-06
1.645519e-06
1.5719022e-06
1.4379026e-06
1.3542902e-06
1.2725319e-06
1.2057213e-06
1.1467139e-06
1.0951423e-06
1.0493997e-06
1.0085605e-06
9.7183034e-07
9.3858747e-07
9.0833234e-07
8.8066474e-07
8.5524071e-07
8.3179055e-07
8.1008829e-07
7.8993384e-07
7.7115387e-07
7.5359986e-07
7.3714403e-07
7.2167587e-07
7.070992e-07
6.9333033e-07
6.8029572e-07
6.6793033e-07
6.5617648e-07
6.4498302e-07
6.3430431e-07
6.2410158e-07
6.1433764e-07
6.0497911e-07
5.9599593e-07
5.8735998e-07
5.7904263e-07
5.7102526e-07
5.6328789e-07
5.5581176e-07
5.4857977e-07
5.4157642e-07
5.3478725e-07
5.2819874e-07
5.2179858e-07
5.1557536e-07
5.095185e-07
5.0361813e-07
4.9786507e-07
4.9225088e-07
4.8676777e-07
4.8140821e-07
4.7616518e-07
4.7103214e-07
4.6600298e-07
4.6107191e-07
4.5623348e-07
4.5148254e-07
4.4681429e-07
4.4222431e-07
4.3770815e-07
4.3326165e-07
4.2888092e-07
4.2456221e-07
4.2030196e-07
4.1609676e-07
4.1194407e-07
4.078407e-07
4.037835e-07
3.9976947e-07
3.957958e-07
3.9185979e-07
3.8795883e-07
3.8409036e-07
3.8025165e-07
3.7643828e-07
3.7264977e-07
3.6888405e-07
3.6513895e-07
3.6141235e-07
3.5770225e-07
3.5400674e-07
3.5032526e-07
3.4665434e-07
3.4309126e-07
3.3975109e-07
3.3665025e-07
3.3376518e-07
3.3107357e-07
3.2855473e-07
3.2619094e-07
3.2396697e-07
3.2186962e-07
3.1988722e-07
3.1800948e-07
3.1622727e-07
3.1453227e-07
3.1291685e-07
3.113748e-07
3.0990007e-07
3.084837e-07
3.0711931e-07
3.0578784e-07
3.045056e-07
3.0316531e-07
3.0204924e-07
3.002954e-07
0.00013634721
0.00013076125
0.00012880806
0.00012785257
0.00012726
0.00012684781
0.00012654426
0.00012631299
0.00012613262
0.00012598945
0.00012587423
0.00012578049
0.00012570355
0.00012563998
0.00012558715
0.00012554312
0.00012550621
0.00012547564
0.00012544918
0.00012543195
0.00012539855
0.00012548244
0.0001249361
0.00012773988
1.7497307e-05
2.1281035e-06
4.1816891e-06
8.1868923e-07
2.4374599e-06
8.9472473e-07
1.8439958e-06
1.5945851e-06
1.5207116e-06
1.3948088e-06
1.3145154e-06
1.236979e-06
1.1732657e-06
1.1170666e-06
1.0678954e-06
1.0242676e-06
9.8529814e-07
9.502364e-07
9.1849334e-07
8.8959627e-07
8.6316716e-07
8.3887845e-07
8.1647276e-07
7.9573187e-07
7.7646423e-07
7.5850516e-07
7.4171356e-07
7.2596797e-07
7.1116334e-07
6.9720822e-07
6.8402301e-07
6.7153771e-07
6.5969043e-07
6.4842628e-07
6.3769654e-07
6.2745777e-07
6.1767332e-07
6.0830767e-07
5.9932895e-07
5.9070848e-07
5.8241931e-07
5.7443365e-07
5.667342e-07
5.5930196e-07
5.5211905e-07
5.4516912e-07
5.3843741e-07
5.3191009e-07
5.2557427e-07
5.1941819e-07
5.1343096e-07
5.0760246e-07
5.0192329e-07
4.9638466e-07
4.9097851e-07
4.856974e-07
4.8053413e-07
4.7548199e-07
4.7053473e-07
4.6568651e-07
4.609318e-07
4.5626538e-07
4.5168232e-07
4.4717803e-07
4.4274829e-07
4.3838884e-07
4.3409571e-07
4.2986516e-07
4.256936e-07
4.2157765e-07
4.1751402e-07
4.1350037e-07
4.0953364e-07
4.0561079e-07
4.0172893e-07
3.9788538e-07
3.9407754e-07
3.9030291e-07
3.8655906e-07
3.8284331e-07
3.791512e-07
3.7548249e-07
3.7183523e-07
3.6820735e-07
3.6459681e-07
3.6100173e-07
3.5742029e-07
3.5385208e-07
3.5029358e-07
3.4684035e-07
3.4360447e-07
3.4060145e-07
3.3780818e-07
3.3520281e-07
3.3276513e-07
3.3047787e-07
3.2832622e-07
3.2629735e-07
3.2437992e-07
3.2256396e-07
3.2084059e-07
3.1920175e-07
3.1764003e-07
3.1614957e-07
3.1472459e-07
3.1335685e-07
3.1203954e-07
3.1075394e-07
3.095166e-07
3.0822164e-07
3.0714778e-07
3.0544632e-07
0.00013588419
0.00013002109
0.00012796281
0.0001269524
0.00012632467
0.00012588759
0.00012556546
0.00012531988
0.00012512822
0.00012497596
0.00012485333
0.00012475345
0.00012467139
0.00012460348
0.00012454696
0.00012449975
0.0001244601
0.00012442715
0.00012439856
0.00012437974
0.0001243439
0.00012443143
0.00012385842
0.00012681763
1.7488931e-05
2.0480124e-06
3.9617835e-06
7.8247022e-07
2.3210082e-06
8.9250723e-07
1.7637306e-06
1.5325922e-06
1.4594754e-06
1.341905e-06
1.265402e-06
1.1923499e-06
1.1320196e-06
1.078863e-06
1.0323075e-06
9.909877e-07
9.5406406e-07
9.2083199e-07
8.9073711e-07
8.6333505e-07
8.3827075e-07
8.1523359e-07
7.9397905e-07
7.7429864e-07
7.5601084e-07
7.3896029e-07
7.2301384e-07
7.0805684e-07
6.939901e-07
6.8072725e-07
6.6819309e-07
6.5632148e-07
6.4505391e-07
6.3433849e-07
6.2412917e-07
6.1438485e-07
6.0507114e-07
5.9615438e-07
5.8760432e-07
5.7939378e-07
5.7149714e-07
5.6388756e-07
5.5654912e-07
5.4946391e-07
5.4261495e-07
5.3598679e-07
5.295654e-07
5.2333769e-07
5.1729144e-07
5.1141551e-07
5.0569956e-07
5.0013401e-07
4.9470993e-07
4.8941899e-07
4.8425354e-07
4.7920651e-07
4.7427109e-07
4.6944091e-07
4.6471004e-07
4.6007292e-07
4.5552431e-07
4.5105926e-07
4.4667309e-07
4.4236142e-07
4.3812027e-07
4.3394559e-07
4.2983359e-07
4.2578074e-07
4.2178363e-07
4.1783903e-07
4.1394384e-07
4.1009592e-07
4.0629232e-07
4.0253015e-07
3.9880666e-07
3.9511929e-07
3.9146557e-07
3.8784313e-07
3.8424964e-07
3.8068255e-07
3.7713741e-07
3.7361416e-07
3.7011098e-07
3.6662592e-07
3.6315706e-07
3.5970262e-07
3.562609e-07
3.528316e-07
3.4941122e-07
3.460928e-07
3.4298451e-07
3.4010089e-07
3.3741946e-07
3.34919e-07
3.3257994e-07
3.3038559e-07
3.2832167e-07
3.2637582e-07
3.245371e-07
3.2279591e-07
3.2114372e-07
3.1957278e-07
3.1807597e-07
3.1664775e-07
3.1528258e-07
3.1397201e-07
3.1270998e-07
3.1147852e-07
3.1029373e-07
3.0905373e-07
3.080261e-07
3.0639713e-07
0.00013534774
0.00012916027
0.00012697905
0.0001259044
0.00012523552
0.00012476933
0.00012442549
0.00012416318
0.0001239583
0.00012379543
0.00012366412
0.00012355707
0.00012346901
0.00012339604
0.0001233352
0.00012328427
0.0001232414
0.00012320568
0.00012317458
0.0001231539
0.00012311523
0.00012320696
0.00012260298
0.00012574447
1.7500269e-05
1.9648516e-06
3.7250934e-06
7.4133933e-07
2.1913703e-06
8.8054813e-07
1.6720423e-06
1.4593506e-06
1.3879603e-06
1.2789575e-06
1.2067023e-06
1.1383963e-06
1.0817292e-06
1.0318466e-06
9.8811942e-07
9.4929832e-07
9.145943e-07
8.8335083e-07
8.5505015e-07
8.2927751e-07
8.0570167e-07
7.8402973e-07
7.6403104e-07
7.4550867e-07
7.2829233e-07
7.1223659e-07
6.9721677e-07
6.831255e-07
6.6986987e-07
6.5736892e-07
6.4555219e-07
6.3435764e-07
6.2373042e-07
6.1362186e-07
6.0398874e-07
5.9479253e-07
5.8600122e-07
5.7758312e-07
5.6950977e-07
5.6175562e-07
5.542965e-07
5.4710668e-07
5.4017167e-07
5.3347468e-07
5.2699978e-07
5.2073242e-07
5.1465942e-07
5.0876848e-07
5.030481e-07
4.9748781e-07
4.9207787e-07
4.8680928e-07
4.8167364e-07
4.7666311e-07
4.717705e-07
4.6698915e-07
4.6231265e-07
4.5773501e-07
4.5325064e-07
4.488543e-07
4.4454109e-07
4.4030631e-07
4.3614558e-07
4.3205477e-07
4.2803012e-07
4.2406783e-07
4.2016433e-07
4.1631629e-07
4.125205e-07
4.0877392e-07
4.0507363e-07
4.014177e-07
3.9780333e-07
3.9422778e-07
3.9068845e-07
3.8718293e-07
3.8370889e-07
3.8026409e-07
3.7684635e-07
3.7345323e-07
3.7008034e-07
3.6672781e-07
3.6339395e-07
3.6007693e-07
3.5677496e-07
3.5348637e-07
3.5020958e-07
3.4694444e-07
3.4368745e-07
3.4052833e-07
3.3757046e-07
3.3482735e-07
3.3227733e-07
3.2989999e-07
3.2767655e-07
3.2559106e-07
3.2362984e-07
3.2178111e-07
3.2003442e-07
3.1838062e-07
3.1681158e-07
3.1531991e-07
3.1389882e-07
3.1254312e-07
3.1124749e-07
3.1000354e-07
3.088059e-07
3.0763745e-07
3.0651371e-07
3.0533758e-07
3.0436346e-07
3.0281883e-07
0.00013473096
0.00012816626
0.00012584211
0.00012469281
0.00012397614
0.00012347613
0.00012310706
0.0001228253
0.00012260508
0.00012242987
0.00012228849
0.00012217312
0.00012207809
0.00012199923
0.00012193337
0.00012187814
0.00012183152
0.00012179257
0.00012175858
0.00012173573
0.00012169377
0.00012179033
0.00012115066
0.0001245045
1.7536394e-05
1.8791971e-06
3.4724952e-06
6.9536887e-07
2.0488565e-06
8.5805021e-07
1.5690798e-06
1.3749792e-06
1.3062322e-06
1.2060155e-06
1.1384401e-06
1.0751301e-06
1.0223924e-06
9.7600503e-07
9.3530875e-07
8.9916854e-07
8.6685006e-07
8.3774684e-07
8.113795e-07
7.8736414e-07
7.6539415e-07
7.4519539e-07
7.2655237e-07
7.0928127e-07
6.9322396e-07
6.7824552e-07
6.6423026e-07
6.5107852e-07
6.3870403e-07
6.2703162e-07
6.1599583e-07
6.0553901e-07
5.9561019e-07
5.8616413e-07
5.7716065e-07
5.6856392e-07
5.6034445e-07
5.5247269e-07
5.4492208e-07
5.3766883e-07
5.3069031e-07
5.239621e-07
5.1747116e-07
5.112019e-07
5.0513949e-07
4.9927037e-07
4.9358227e-07
4.8806373e-07
4.8270403e-07
4.7749341e-07
4.7242282e-07
4.6748384e-07
4.6266866e-07
4.5796996e-07
4.5338104e-07
4.488957e-07
4.4450796e-07
4.4021223e-07
4.360033e-07
4.318763e-07
4.2782662e-07
4.2384992e-07
4.1994209e-07
4.1609927e-07
4.1231798e-07
4.0859466e-07
4.0492597e-07
4.0130883e-07
3.9774023e-07
3.9421734e-07
3.9073742e-07
3.8729877e-07
3.8389876e-07
3.8053481e-07
3.7720448e-07
3.7390553e-07
3.7063577e-07
3.6739314e-07
3.6417558e-07
3.609808e-07
3.5780454e-07
3.5464707e-07
3.5150683e-07
3.4838214e-07
3.4527134e-07
3.4217289e-07
3.3908533e-07
3.3600862e-07
3.3293937e-07
3.2996308e-07
3.2717753e-07
3.2459513e-07
3.2219522e-07
3.1995837e-07
3.1786677e-07
3.1590532e-07
3.1406107e-07
3.1232287e-07
3.1068088e-07
3.0912644e-07
3.0765189e-07
3.0625025e-07
3.0491513e-07
3.0364168e-07
3.024248e-07
3.0125642e-07
3.0013177e-07
2.9903471e-07
2.9798001e-07
2.9687615e-07
2.9596239e-07
2.9451321e-07
0.00013402681
0.00012702591
0.00012453657
0.00012330102
0.00012252914
0.00012199007
0.00012159189
0.00012128768
0.00012104975
0.0001208603
0.0001207073
0.00012058231
0.00012047924
0.00012039359
0.00012032193
0.00012026172
0.00012021079
0.0001201681
0.00012013076
0.00012010542
0.00012005966
0.00012016174
0.0001194812
0.00012308088
1.7603181e-05
1.7918709e-06
3.2056247e-06
6.4484158e-07
1.8942916e-06
8.2456004e-07
1.4554122e-06
1.27998e-06
1.2147256e-06
1.1234783e-06
1.060976e-06
1.002888e-06
9.5432121e-07
9.1163053e-07
8.741501e-07
8.408572e-07
8.1107594e-07
7.8425155e-07
7.5994462e-07
7.3780318e-07
7.1754604e-07
6.9891903e-07
6.8172309e-07
6.6578881e-07
6.5097096e-07
6.3714564e-07
6.242066e-07
6.1206228e-07
6.0063342e-07
5.8985091e-07
5.7965459e-07
5.6999143e-07
5.6081453e-07
5.5208231e-07
5.4375778e-07
5.3580798e-07
5.2820601e-07
5.2092461e-07
5.1393926e-07
5.0722801e-07
5.0076992e-07
4.9454204e-07
4.8853277e-07
4.827278e-07
4.7711346e-07
4.7167727e-07
4.6640789e-07
4.6129476e-07
4.5632802e-07
4.5149865e-07
4.4679831e-07
4.4221924e-07
4.3775423e-07
4.3339654e-07
4.2913999e-07
4.2497884e-07
4.209076e-07
4.1692109e-07
4.1301453e-07
4.0918339e-07
4.0542346e-07
4.0173071e-07
3.9810135e-07
3.9453182e-07
3.910189e-07
3.8755933e-07
3.8415001e-07
3.8078809e-07
3.7747081e-07
3.7419556e-07
3.7095981e-07
3.6776206e-07
3.6459987e-07
3.6147084e-07
3.5837273e-07
3.5530344e-07
3.5226097e-07
3.4924341e-07
3.4624888e-07
3.4327522e-07
3.4031837e-07
3.3737872e-07
3.3445484e-07
3.315452e-07
3.2864828e-07
3.2576269e-07
3.2288707e-07
3.2002152e-07
3.1716276e-07
3.1439127e-07
3.1179845e-07
3.0939554e-07
3.0716311e-07
3.0508287e-07
3.0313814e-07
3.0131476e-07
2.9960064e-07
2.9798537e-07
2.9645975e-07
2.950157e-07
2.9364608e-07
2.9234438e-07
2.9110465e-07
2.8992238e-07
2.8879274e-07
2.8770815e-07
2.8666437e-07
2.8564638e-07
2.8466804e-07
2.8364412e-07
2.8279695e-07
2.8145332e-07
0.00013322834
0.00012572561
0.00012304636
0.00012171171
0.00012087643
0.00012029252
0.0001198609
0.00011953094
0.00011927268
0.00011906689
0.00011890055
0.00011876453
0.00011865223
0.00011855878
0.00011848048
0.00011841455
0.00011835866
0.00011831169
0.00011827051
0.00011824229
0.0001181922
0.00011830053
0.00011757352
0.00012145606
1.7707299e-05
1.7039704e-06
2.9269575e-06
5.9028103e-07
1.7290914e-06
7.800692e-07
1.3320979e-06
1.1753053e-06
1.1143071e-06
1.0321576e-06
9.7506721e-07
9.2238924e-07
8.7819869e-07
8.3937632e-07
8.0526985e-07
7.749669e-07
7.4785304e-07
7.2342656e-07
7.012892e-07
6.8112187e-07
6.6266949e-07
6.4569913e-07
6.3002928e-07
6.1550593e-07
6.0199729e-07
5.8939092e-07
5.7759042e-07
5.6651263e-07
5.5608558e-07
5.4624651e-07
5.3694074e-07