/*--------------------------------*- C++ -*----------------------------------*\
| =========                 |                                                 |
| \\      /  F ield         | OpenFOAM: The Open Source CFD Toolbox           |
|  \\    /   O peration     | Version:  2206                                  |
|   \\  /    A nd           | Website:  www.openfoam.com                      |
|    \\/     M anipulation  |                                                 |
\*---------------------------------------------------------------------------*/
FoamFile
{
    version     2.0;
    format      ascii;
    arch        "LSB;label=32;scalar=64";
    class       volScalarField;
    location    "800";
    object      nut;
}
// * * * * * * * * * * * * * * * * * * * * * * * * * * * * * * * * * * * * * //

dimensions      [0 2 -1 0 0 0 0];

internalField   nonuniform List<scalar> 
13056
(
6.6311304e-09
6.2364479e-09
6.11096e-09
6.0512009e-09
6.0143603e-09
5.988874e-09
5.9702036e-09
5.95604e-09
5.9450276e-09
5.9363019e-09
5.92928e-09
5.9235526e-09
5.9188196e-09
5.9148527e-09
5.9114654e-09
5.9084994e-09
5.905776e-09
5.9031543e-09
5.9001402e-09
5.8969696e-09
5.8893511e-09
5.8865754e-09
5.8293274e-09
4.546235e-09
3.1898798e-11
1.2468783e-11
1.7780677e-11
7.4156094e-12
1.3028869e-11
5.9370158e-12
1.0983038e-11
9.7719126e-12
9.7389506e-12
9.1320588e-12
8.8438962e-12
8.4800922e-12
8.1986299e-12
7.9338592e-12
7.6994871e-12
7.486086e-12
7.2916957e-12
7.1133772e-12
6.9490182e-12
6.7968257e-12
6.6553223e-12
6.5232271e-12
6.3994508e-12
6.2828172e-12
6.1722512e-12
6.0678705e-12
5.9690769e-12
5.8753476e-12
5.7862248e-12
5.7013047e-12
5.620232e-12
5.5426921e-12
5.4684021e-12
5.3971082e-12
5.3285831e-12
5.2626218e-12
5.1990391e-12
5.1376669e-12
5.0783542e-12
5.0209612e-12
4.9653591e-12
4.9114292e-12
4.8590655e-12
4.8081693e-12
4.7586485e-12
4.7104189e-12
4.6634041e-12
4.6175311e-12
4.5727312e-12
4.5289413e-12
4.4861025e-12
4.4441596e-12
4.4030605e-12
4.3627562e-12
4.3232021e-12
4.2843561e-12
4.2461765e-12
4.2086246e-12
4.171664e-12
4.1352597e-12
4.099379e-12
4.06399e-12
4.0290624e-12
3.994569e-12
3.9604824e-12
3.9267753e-12
3.8934223e-12
3.8603987e-12
3.8276808e-12
3.7952454e-12
3.7630699e-12
3.7311331e-12
3.6994144e-12
3.6678924e-12
3.6365464e-12
3.605356e-12
3.5743013e-12
3.5433623e-12
3.5125191e-12
3.4817524e-12
3.4510419e-12
3.4203684e-12
3.3897118e-12
3.3590523e-12
3.3283692e-12
3.2976425e-12
3.2668525e-12
3.2359806e-12
3.2050113e-12
3.174664e-12
3.145895e-12
3.1189083e-12
3.0935591e-12
3.0697056e-12
3.0472076e-12
3.0259403e-12
3.0057942e-12
2.986672e-12
2.9684863e-12
2.9511591e-12
2.9346199e-12
2.9188035e-12
2.9036488e-12
2.8890966e-12
2.8750907e-12
2.8615607e-12
2.8484567e-12
2.835616e-12
2.8231467e-12
2.8101396e-12
2.7990115e-12
2.7822096e-12
6.6309548e-09
6.2355198e-09
6.1097711e-09
6.0498783e-09
6.0129524e-09
5.9874061e-09
5.9686913e-09
5.9544938e-09
5.9434551e-09
5.9347087e-09
5.9276707e-09
5.9219307e-09
5.9171885e-09
5.9132154e-09
5.9098253e-09
5.9068604e-09
5.9041433e-09
5.9015351e-09
5.898549e-09
5.895422e-09
5.8879188e-09
5.8852907e-09
5.8288207e-09
4.5456226e-09
3.2172222e-11
1.1962884e-11
1.7088245e-11
6.4018589e-12
1.2395795e-11
4.3216248e-12
1.0320438e-11
9.0817749e-12
9.0225406e-12
8.3832327e-12
8.0681863e-12
7.6752009e-12
7.3653664e-12
7.0724579e-12
6.8104427e-12
6.5699633e-12
6.3491076e-12
6.1449682e-12
5.9554415e-12
5.7787304e-12
5.6133382e-12
5.457952e-12
5.3113941e-12
5.1723825e-12
5.0404293e-12
4.9152912e-12
4.7963503e-12
4.6830637e-12
4.5749537e-12
4.4715969e-12
4.3726189e-12
4.2776873e-12
4.1865009e-12
4.0987882e-12
4.0143051e-12
3.9328305e-12
3.8541631e-12
3.7781204e-12
3.7045378e-12
3.633262e-12
3.5641502e-12
3.4970694e-12
3.4319039e-12
3.3685436e-12
3.3068854e-12
3.2468348e-12
3.1883059e-12
3.1312165e-12
3.0754886e-12
3.0210508e-12
2.967836e-12
2.9157815e-12
2.864828e-12
2.8149196e-12
2.7660056e-12
2.718038e-12
2.6709693e-12
2.6247553e-12
2.5793546e-12
2.5347276e-12
2.4908371e-12
2.4476473e-12
2.405124e-12
2.3632369e-12
2.3219556e-12
2.2812498e-12
2.2410915e-12
2.201454e-12
2.1623116e-12
2.1236395e-12
2.0854138e-12
2.047613e-12
2.0102158e-12
1.9732006e-12
1.9365465e-12
1.9002337e-12
1.864243e-12
1.8285557e-12
1.7931533e-12
1.7580185e-12
1.7231309e-12
1.6884768e-12
1.6540399e-12
1.6198042e-12
1.5857537e-12
1.5518737e-12
1.5181506e-12
1.4845719e-12
1.4511326e-12
1.4185881e-12
1.3879422e-12
1.3593911e-12
1.3327542e-12
1.307856e-12
1.2845261e-12
1.2626128e-12
1.2419835e-12
1.2225207e-12
1.20412e-12
1.1866881e-12
1.1701418e-12
1.1544046e-12
1.1394058e-12
1.125079e-12
1.1113612e-12
1.0981755e-12
1.0854676e-12
1.0730758e-12
1.0611004e-12
1.0486722e-12
1.0380982e-12
1.0221796e-12
6.6303585e-09
6.2326246e-09
6.106083e-09
6.0457834e-09
6.0085977e-09
5.9828684e-09
5.9640179e-09
5.9497164e-09
5.9385962e-09
5.929785e-09
5.9226949e-09
5.9169129e-09
5.912137e-09
5.9081375e-09
5.9047278e-09
5.9017501e-09
5.8990286e-09
5.896426e-09
5.893464e-09
5.8903823e-09
5.8830078e-09
5.8805688e-09
5.8249776e-09
4.5436921e-09
3.2459694e-11
1.1466387e-11
1.6402328e-11
5.6106046e-12
1.1790001e-11
3.5647119e-12
9.7160805e-12
8.4902506e-12
8.4009715e-12
7.7584075e-12
7.430277e-12
7.0311639e-12
6.712969e-12
6.4135646e-12
6.1453938e-12
5.8996031e-12
5.6741238e-12
5.4660559e-12
5.2732515e-12
5.0938738e-12
4.9263793e-12
4.7694055e-12
4.6217253e-12
4.4821981e-12
4.3504339e-12
4.2259202e-12
4.108007e-12
3.9961214e-12
3.889758e-12
3.7884676e-12
3.691852e-12
3.5995563e-12
3.511259e-12
3.4266698e-12
3.3455274e-12
3.2675944e-12
3.1926561e-12
3.1205164e-12
3.0509977e-12
2.9839351e-12
2.919175e-12
2.8565721e-12
2.7960044e-12
2.7373539e-12
2.6805101e-12
2.6253717e-12
2.5718464e-12
2.5198462e-12
2.4692882e-12
2.4200962e-12
2.3721989e-12
2.3255298e-12
2.2800261e-12
2.2356287e-12
2.192284e-12
2.1499413e-12
2.1085511e-12
2.0680671e-12
2.0284461e-12
1.9896471e-12
1.9516317e-12
1.9143627e-12
1.8778054e-12
1.8419283e-12
1.8067003e-12
1.772091e-12
1.738072e-12
1.7046166e-12
1.6716989e-12
1.6392946e-12
1.6073798e-12
1.5759338e-12
1.5449356e-12
1.5143642e-12
1.4841994e-12
1.4544222e-12
1.4250143e-12
1.3959581e-12
1.3672364e-12
1.3388328e-12
1.3107271e-12
1.2829081e-12
1.2553612e-12
1.2280723e-12
1.201027e-12
1.1742127e-12
1.1476171e-12
1.1212304e-12
1.0950459e-12
1.069657e-12
1.0458389e-12
1.0237278e-12
1.0031675e-12
9.8400847e-13
9.6610744e-13
9.493383e-13
9.3359121e-13
9.1876956e-13
9.0478785e-13
8.9157014e-13
8.7904893e-13
8.671626e-13
8.5585454e-13
8.4507271e-13
8.3476725e-13
8.2487766e-13
8.1536168e-13
8.0609607e-13
7.971578e-13
7.8789085e-13
7.8003256e-13
7.6817385e-13
6.6293285e-09
6.2276721e-09
6.0997792e-09
6.0387862e-09
6.0011578e-09
5.9751164e-09
5.9560343e-09
5.9415551e-09
5.9302955e-09
5.9213728e-09
5.9141927e-09
5.9083374e-09
5.9035017e-09
5.8994536e-09
5.8960054e-09
5.8929987e-09
5.8902585e-09
5.8876494e-09
5.8847008e-09
5.8816563e-09
5.8743997e-09
5.8721639e-09
5.8173926e-09
4.5401618e-09
3.2772201e-11
1.097671e-11
1.5716685e-11
4.9734021e-12
1.1203947e-11
3.1369639e-12
9.1556451e-12
7.9666059e-12
7.8487032e-12
7.2198148e-12
6.8876216e-12
6.4947946e-12
6.1789783e-12
5.8838387e-12
5.6197341e-12
5.3784369e-12
5.1576831e-12
4.9545844e-12
4.766954e-12
4.5929255e-12
4.4309266e-12
4.2795699e-12
4.1376351e-12
4.0041336e-12
3.8785901e-12
3.7603499e-12
3.6487464e-12
3.5431924e-12
3.4431698e-12
3.3482185e-12
3.2579306e-12
3.1719426e-12
3.0899261e-12
3.0115847e-12
2.9366519e-12
2.8648861e-12
2.7960701e-12
2.7300045e-12
2.6665087e-12
2.6054161e-12
2.5465709e-12
2.4898247e-12
2.4350567e-12
2.3821486e-12
2.33099e-12
2.2814793e-12
2.2335242e-12
2.1870373e-12
2.1419361e-12
2.0981453e-12
2.0555942e-12
2.0142172e-12
1.9739526e-12
1.9347423e-12
1.8965335e-12
1.8592766e-12
1.8229233e-12
1.7874287e-12
1.7527508e-12
1.7188498e-12
1.6856884e-12
1.653231e-12
1.621444e-12
1.590297e-12
1.5597603e-12
1.5298049e-12
1.5004036e-12
1.471531e-12
1.4431626e-12
1.4152752e-12
1.3878464e-12
1.3608568e-12
1.3342866e-12
1.3081161e-12
1.2823262e-12
1.2568992e-12
1.231818e-12
1.2070663e-12
1.1826281e-12
1.1584878e-12
1.1346257e-12
1.1110326e-12
1.0876953e-12
1.0646007e-12
1.0417358e-12
1.0190889e-12
9.9664892e-13
9.7440729e-13
9.5235646e-13
9.3100032e-13
9.10991e-13
8.9243764e-13
8.7520394e-13
8.5915988e-13
8.4418183e-13
8.3016141e-13
8.1700447e-13
8.0462848e-13
7.9296053e-13
7.8193602e-13
7.714976e-13
7.6159305e-13
7.5217451e-13
7.4319872e-13
7.3462382e-13
7.2639828e-13
7.1848678e-13
7.1078576e-13
7.0336185e-13
6.9566334e-13
6.8915038e-13
6.7928403e-13
6.6278456e-09
6.220522e-09
6.0906784e-09
6.0286845e-09
5.990417e-09
5.9639252e-09
5.9445086e-09
5.9297728e-09
5.9183114e-09
5.9092276e-09
5.9019167e-09
5.8959545e-09
5.8910308e-09
5.8869105e-09
5.8834035e-09
5.8803505e-09
5.8775767e-09
5.8749481e-09
5.8720014e-09
5.8689857e-09
5.8618361e-09
5.8598195e-09
5.8058093e-09
4.5349116e-09
3.3121044e-11
1.0491757e-11
1.5025783e-11
4.446162e-12
1.0631044e-11
2.8680528e-12
8.6276839e-12
7.4899287e-12
7.3470635e-12
6.7418745e-12
6.4118228e-12
6.0322171e-12
5.7248636e-12
5.4396234e-12
5.1847345e-12
4.952616e-12
4.7408407e-12
4.5465582e-12
4.367572e-12
4.2020159e-12
4.0483203e-12
3.9051067e-12
3.7712016e-12
3.6457199e-12
3.5280744e-12
3.4175524e-12
3.3134891e-12
3.2153e-12
3.1224698e-12
3.0345418e-12
2.9511117e-12
2.8718197e-12
2.7963413e-12
2.7243846e-12
2.6556872e-12
2.590012e-12
2.5271471e-12
2.4668974e-12
2.4090859e-12
2.3535501e-12
2.3001383e-12
2.248704e-12
2.1991323e-12
2.1513091e-12
2.1051278e-12
2.0604904e-12
2.0173082e-12
1.9754972e-12
1.9349785e-12
1.8956798e-12
1.857534e-12
1.8204782e-12
1.7844539e-12
1.7494059e-12
1.7152841e-12
1.6820414e-12
1.6496323e-12
1.6180143e-12
1.5871478e-12
1.5569955e-12
1.5275223e-12
1.4986948e-12
1.4704815e-12
1.4428539e-12
1.4157841e-12
1.3892453e-12
1.3632121e-12
1.3376607e-12
1.3125685e-12
1.2879138e-12
1.2636761e-12
1.2398375e-12
1.2163798e-12
1.1932844e-12
1.1705338e-12
1.1481118e-12
1.1260024e-12
1.1041907e-12
1.0826618e-12
1.0614014e-12
1.04039e-12
1.0196204e-12
9.9908043e-13
9.7875819e-13
9.5864187e-13
9.3872069e-13
9.1898451e-13
8.9942592e-13
8.8003675e-13
8.6126508e-13
8.4368608e-13
8.273935e-13
8.1226553e-13
7.9818606e-13
7.8504514e-13
7.7274669e-13
7.6120743e-13
7.5035446e-13
7.4012345e-13
7.3045749e-13
7.2130607e-13
7.1262328e-13
7.0436704e-13
6.9650003e-13
6.8898575e-13
6.8177819e-13
6.7484648e-13
6.6809908e-13
6.6159701e-13
6.5485051e-13
6.4915549e-13
6.4048985e-13
6.6258862e-09
6.2109855e-09
6.0785362e-09
6.0152059e-09
5.976085e-09
5.9489916e-09
5.9291283e-09
5.9140496e-09
5.9023188e-09
5.8930192e-09
5.8855333e-09
5.8794275e-09
5.8743852e-09
5.8701668e-09
5.866579e-09
5.8634608e-09
5.860637e-09
5.8579749e-09
5.8550178e-09
5.8520219e-09
5.8449676e-09
5.8431876e-09
5.7898767e-09
4.5277773e-09
3.3519323e-11
1.0009979e-11
1.4324854e-11
3.9992732e-12
1.0065605e-11
2.6856518e-12
8.1229669e-12
7.0453487e-12
6.8820423e-12
6.3065486e-12
5.9831041e-12
5.6207035e-12
5.3254226e-12
5.0531472e-12
4.8101739e-12
4.5895521e-12
4.3887474e-12
4.2049768e-12
4.036068e-12
3.8801859e-12
3.7357929e-12
3.6015468e-12
3.4763392e-12
3.3593415e-12
3.2498843e-12
3.1472447e-12
3.0507736e-12
2.9599014e-12
2.8741268e-12
2.7930063e-12
2.716148e-12
2.6432036e-12
2.5738596e-12
2.5078346e-12
2.4448762e-12
2.3847566e-12
2.3272738e-12
2.2722405e-12
2.2194874e-12
2.1688592e-12
2.1202109e-12
2.073401e-12
2.0283225e-12
1.9848674e-12
1.9429348e-12
1.9024321e-12
1.8632754e-12
1.8253854e-12
1.788688e-12
1.7531154e-12
1.7186042e-12
1.6850957e-12
1.652535e-12
1.6208705e-12
1.5900554e-12
1.5600455e-12
1.5307987e-12
1.5022752e-12
1.4744382e-12
1.4472531e-12
1.4206872e-12
1.3947097e-12
1.3692912e-12
1.3444052e-12
1.3200262e-12
1.2961292e-12
1.2726908e-12
1.249689e-12
1.2271029e-12
1.2049127e-12
1.1830991e-12
1.1616464e-12
1.1405375e-12
1.1197553e-12
1.0992837e-12
1.0791076e-12
1.0592125e-12
1.0395845e-12
1.0202102e-12
1.0010758e-12
9.8216263e-13
9.6346487e-13
9.4497166e-13
9.2667199e-13
9.0855508e-13
8.9061101e-13
8.7283047e-13
8.5520711e-13
8.3773238e-13
8.2081514e-13
8.0497625e-13
7.9029908e-13
7.7667281e-13
7.6399182e-13
7.521564e-13
7.4107965e-13
7.3068635e-13
7.2091074e-13
7.1169486e-13
7.0298743e-13
6.94743e-13
6.8692024e-13
6.7948133e-13
6.7239336e-13
6.6562387e-13
6.5913065e-13
6.528859e-13
6.4680643e-13
6.4094981e-13
6.3486845e-13
6.2974665e-13
6.2191475e-13
6.6234239e-09
6.1988276e-09
6.0630479e-09
5.9980099e-09
5.9577986e-09
5.9299367e-09
5.9095028e-09
5.8939861e-09
5.8819108e-09
5.8723354e-09
5.8646254e-09
5.8583355e-09
5.8531409e-09
5.8487958e-09
5.8451029e-09
5.8418985e-09
5.8390068e-09
5.8362957e-09
5.8333145e-09
5.8303285e-09
5.8233567e-09
5.8218321e-09
5.7691535e-09
4.5185518e-09
3.3982456e-11
9.5304033e-12
1.3609964e-11
3.6121474e-12
9.5028017e-12
2.553084e-12
7.6340141e-12
6.6219219e-12
6.4429073e-12
5.9006909e-12
5.5872031e-12
5.2443447e-12
4.963371e-12
4.705779e-12
4.4761783e-12
4.2682194e-12
4.0793187e-12
3.9067883e-12
3.7485106e-12
3.6027066e-12
3.4678944e-12
3.3427863e-12
3.2263422e-12
3.1177622e-12
3.0163342e-12
2.9213515e-12
2.8321899e-12
2.748303e-12
2.6692106e-12
2.5944887e-12
2.5237633e-12
2.456702e-12
2.3930066e-12
2.3324099e-12
2.2746723e-12
2.2195781e-12
2.1669374e-12
2.1165729e-12
2.0683247e-12
2.0220462e-12
1.9776006e-12
1.9348527e-12
1.8937042e-12
1.8540542e-12
1.815808e-12
1.7788791e-12
1.743189e-12
1.7086638e-12
1.6752344e-12
1.6428375e-12
1.6114143e-12
1.5809101e-12
1.5512739e-12
1.522458e-12
1.4944186e-12
1.4671151e-12
1.4405083e-12
1.4145614e-12
1.3892405e-12
1.3645135e-12
1.3403503e-12
1.3167224e-12
1.2936027e-12
1.2709667e-12
1.248791e-12
1.2270524e-12
1.2057296e-12
1.1848021e-12
1.1642509e-12
1.1440576e-12
1.1242047e-12
1.1046779e-12
1.0854613e-12
1.0665394e-12
1.0478972e-12
1.0295209e-12
1.011397e-12
9.935129e-13
9.7585611e-13
9.5841396e-13
9.411679e-13
9.2411378e-13
9.072417e-13
8.9054155e-13
8.7400343e-13
8.5761822e-13
8.4137737e-13
8.2527547e-13
8.093037e-13
7.9384067e-13
7.7936499e-13
7.6595213e-13
7.5350013e-13
7.4191178e-13
7.3109556e-13
7.2097191e-13
7.1147203e-13
7.0253587e-13
6.941105e-13
6.8614912e-13
6.7861028e-13
6.7145631e-13
6.6465272e-13
6.5817017e-13
6.5197954e-13
6.4604151e-13
6.4033052e-13
6.3476975e-13
6.2941442e-13
6.2384872e-13
6.1917299e-13
6.119838e-13
6.6204331e-09
6.1837693e-09
6.0438504e-09
5.9766908e-09
5.9351251e-09
5.9063089e-09
5.8851663e-09
5.8691055e-09
5.8566024e-09
5.8466842e-09
5.8386957e-09
5.8321767e-09
5.826792e-09
5.8222884e-09
5.8184635e-09
5.8151498e-09
5.81217e-09
5.8093925e-09
5.806372e-09
5.8033848e-09
5.796481e-09
5.7952326e-09
5.7431112e-09
4.5069849e-09
3.4528796e-11
9.0526619e-12
1.2878103e-11
3.2700582e-12
8.9386574e-12
2.4491102e-12
7.1547823e-12
6.2114084e-12
6.0213285e-12
5.5144888e-12
5.2135608e-12
4.8916362e-12
4.6264098e-12
4.3844893e-12
4.1690651e-12
3.974356e-12
3.7977822e-12
3.6367739e-12
3.4892932e-12
3.3536374e-12
3.2283965e-12
3.112348e-12
3.0045164e-12
2.9041204e-12
2.8104395e-12
2.7227969e-12
2.6406e-12
2.5633308e-12
2.4905348e-12
2.4218112e-12
2.3568069e-12
2.2952086e-12
2.2367356e-12
2.1811366e-12
2.1281868e-12
2.0776838e-12
2.029451e-12
1.9833221e-12
1.9391473e-12
1.8967897e-12
1.8561211e-12
1.8170136e-12
1.7793773e-12
1.7431189e-12
1.7081503e-12
1.6743912e-12
1.6417688e-12
1.6102144e-12
1.579664e-12
1.5500592e-12
1.5213454e-12
1.4934722e-12
1.4663924e-12
1.4400619e-12
1.4144403e-12
1.3894902e-12
1.3651754e-12
1.3414621e-12
1.3183189e-12
1.2957164e-12
1.2736268e-12
1.2520239e-12
1.2308828e-12
1.2101811e-12
1.189897e-12
1.1700094e-12
1.1504986e-12
1.131346e-12
1.1125339e-12
1.0940456e-12
1.0758648e-12
1.0579789e-12
1.0403733e-12
1.0230335e-12
1.0059458e-12
9.8909743e-13
9.7247612e-13
9.5607011e-13
9.3986804e-13
9.2385807e-13
9.08022e-13
8.9235704e-13
8.7685421e-13
8.6150422e-13
8.4629797e-13
8.312271e-13
8.1628374e-13
8.0146331e-13
7.8675689e-13
7.7251771e-13
7.5918895e-13
7.4683947e-13
7.3537482e-13
7.2470498e-13
7.1474538e-13
7.0542266e-13
6.9667349e-13
6.884426e-13
6.8068135e-13
6.7334674e-13
6.6640066e-13
6.5980852e-13
6.5353865e-13
6.4756474e-13
6.4186064e-13
6.3638955e-13
6.3112747e-13
6.2600285e-13
6.2106916e-13
6.1593653e-13
6.1163686e-13
6.0498473e-13
6.6168921e-09
6.1654904e-09
6.0205251e-09
5.9507804e-09
5.9075649e-09
5.8775863e-09
5.8555807e-09
5.8388574e-09
5.8258332e-09
5.8154976e-09
5.8071695e-09
5.800371e-09
5.7947543e-09
5.7900568e-09
5.7860695e-09
5.7826205e-09
5.7795302e-09
5.7766671e-09
5.7735902e-09
5.7705891e-09
5.7637369e-09
5.762787e-09
5.711138e-09
4.4927834e-09
3.5180396e-11
8.5769999e-12
1.2127295e-11
2.9622435e-12
8.3700704e-12
2.360038e-12
6.680475e-12
5.8075638e-12
5.610833e-12
5.1405329e-12
4.8542458e-12
4.554087e-12
4.3055712e-12
4.0799015e-12
3.8791037e-12
3.697933e-12
3.533859e-12
3.3844486e-12
3.2477629e-12
3.1221906e-12
3.0064043e-12
2.8992523e-12
2.7998187e-12
2.7073428e-12
2.6211199e-12
2.5405115e-12
2.4649604e-12
2.3939806e-12
2.3271459e-12
2.2640811e-12
2.2044561e-12
2.1479781e-12
2.0943853e-12
2.0434434e-12
1.9949431e-12
1.9486963e-12
1.9045397e-12
1.862319e-12
1.8218945e-12
1.7831394e-12
1.7459345e-12
1.7101591e-12
1.6757323e-12
1.6425678e-12
1.6105845e-12
1.5797082e-12
1.5498715e-12
1.5210114e-12
1.4930687e-12
1.4659896e-12
1.439724e-12
1.4142254e-12
1.3894504e-12
1.3653584e-12
1.3419125e-12
1.319078e-12
1.296822e-12
1.2751132e-12
1.253923e-12
1.2332243e-12
1.2129916e-12
1.1932009e-12
1.1738295e-12
1.1548565e-12
1.1362622e-12
1.1180273e-12
1.1001337e-12
1.0825643e-12
1.0653028e-12
1.048334e-12
1.0316431e-12
1.0152188e-12
9.9904753e-13
9.8311605e-13
9.6741175e-13
9.5192285e-13
9.3663815e-13
9.2154685e-13
9.066385e-13
8.9190207e-13
8.7731981e-13
8.628901e-13
8.486048e-13
8.3445541e-13
8.2043357e-13
8.0653163e-13
7.9274236e-13
7.7906196e-13
7.6548144e-13
7.523314e-13
7.4002335e-13
7.2862028e-13
7.1803443e-13
7.0818221e-13
6.9898524e-13
6.9037571e-13
6.8229514e-13
6.7469255e-13
6.6752307e-13
6.6074706e-13
6.5432942e-13
6.4823826e-13
6.4244444e-13
6.3692429e-13
6.3165439e-13
6.2660056e-13
6.2173968e-13
6.1700486e-13
6.124481e-13
6.0770215e-13
6.0373946e-13
5.9756479e-13
6.6127879e-09
6.1436323e-09
5.9926009e-09
5.9197509e-09
5.8745544e-09
5.8431804e-09
5.820139e-09
5.8026205e-09
5.788971e-09
5.7781343e-09
5.7693985e-09
5.7622644e-09
5.7563686e-09
5.7514375e-09
5.7472539e-09
5.7436406e-09
5.7404146e-09
5.7374442e-09
5.7342919e-09
5.7312627e-09
5.7244436e-09
5.7238161e-09
5.6725439e-09
4.4756108e-09
3.5963963e-11
8.1042823e-12
1.1356732e-11
2.6807375e-12
7.7948736e-12
2.2762572e-12
6.2074484e-12
5.405739e-12
5.2064806e-12
4.7732694e-12
4.503318e-12
4.2254119e-12
3.9942678e-12
3.785189e-12
3.5992679e-12
3.4317658e-12
3.2802397e-12
3.1424079e-12
3.0164454e-12
2.9008426e-12
2.794362e-12
2.6959246e-12
2.6046714e-12
2.5198693e-12
2.4408464e-12
2.3670066e-12
2.297831e-12
2.2328676e-12
2.1717204e-12
2.1140413e-12
2.059524e-12
2.0078974e-12
1.9589189e-12
1.9123722e-12
1.8680637e-12
1.8258197e-12
1.7854909e-12
1.7469344e-12
1.7100216e-12
1.6746353e-12
1.6406654e-12
1.6079989e-12
1.5765633e-12
1.5462796e-12
1.5170733e-12
1.4888763e-12
1.4616268e-12
1.4352669e-12
1.4097425e-12
1.3850042e-12
1.361006e-12
1.3377056e-12
1.315063e-12
1.2930414e-12
1.2716066e-12
1.2507272e-12
1.2303729e-12
1.2105152e-12
1.191128e-12
1.1721864e-12
1.1536673e-12
1.1355486e-12
1.1178096e-12
1.1004313e-12
1.0833956e-12
1.066685e-12
1.0502827e-12
1.0341734e-12
1.0183421e-12
1.0027749e-12
9.8745827e-13
9.7238224e-13
9.5753442e-13
9.4290254e-13
9.2847507e-13
9.1424125e-13
9.0019079e-13
8.8631383e-13
8.7260081e-13
8.5904148e-13
8.456186e-13
8.3233159e-13
8.1917309e-13
8.0613533e-13
7.9321068e-13
7.8039214e-13
7.6767311e-13
7.5505049e-13
7.4251535e-13
7.3037691e-13
7.190171e-13
7.0849339e-13
6.9872428e-13
6.8963213e-13
6.8114436e-13
6.7319828e-13
6.6573991e-13
6.5872222e-13
6.5210385e-13
6.4584826e-13
6.3992311e-13
6.3429904e-13
6.2894919e-13
6.2385232e-13
6.1898749e-13
6.1432365e-13
6.0983785e-13
6.0546745e-13
6.0126316e-13
5.9687848e-13
5.9323156e-13
5.8750146e-13
6.6081223e-09
6.1178017e-09
5.9595574e-09
5.8830186e-09
5.83547e-09
5.8024397e-09
5.7781692e-09
5.7597073e-09
5.7453159e-09
5.7338846e-09
5.724665e-09
5.7171324e-09
5.710905e-09
5.7056959e-09
5.7012783e-09
5.6974682e-09
5.6940784e-09
5.6909765e-09
5.6877271e-09
5.6846538e-09
5.6778467e-09
5.6775676e-09
5.6265648e-09
4.455086e-09
3.6912073e-11
7.6359971e-12
1.056692e-11
2.4196379e-12
7.211926e-12
2.1906199e-12
5.7331902e-12
5.0026743e-12
4.8046889e-12
4.4086907e-12
4.1564619e-12
3.9010667e-12
3.6877483e-12
3.4954485e-12
3.3245315e-12
3.1707367e-12
3.0317397e-12
2.9054208e-12
2.7900802e-12
2.6843174e-12
2.5869884e-12
2.4970881e-12
2.4138136e-12
2.3364689e-12
2.264425e-12
2.1971307e-12
2.1341074e-12
2.0749382e-12
2.0192586e-12
1.9667479e-12
1.9171248e-12
1.8701399e-12
1.8255706e-12
1.7832183e-12
1.7429057e-12
1.7044735e-12
1.667786e-12
1.6327123e-12
1.5991342e-12
1.5669447e-12
1.5360426e-12
1.5063225e-12
1.4777202e-12
1.4501639e-12
1.4235855e-12
1.3979229e-12
1.3731197e-12
1.3491232e-12
1.3258841e-12
1.3033573e-12
1.2815011e-12
1.2602767e-12
1.2396479e-12
1.2195811e-12
1.2000453e-12
1.1810119e-12
1.1624532e-12
1.1443435e-12
1.1266589e-12
1.1093768e-12
1.0924761e-12
1.0759369e-12
1.0597403e-12
1.043869e-12
1.0283067e-12
1.0130372e-12
9.9804551e-13
9.8331753e-13
9.6883978e-13
9.5459951e-13
9.4058448e-13
9.2678592e-13
9.1319251e-13
8.9979302e-13
8.8657691e-13
8.7353438e-13
8.6065605e-13
8.4793295e-13
8.3535637e-13
8.2291682e-13
8.1059771e-13
7.9839931e-13
7.8631501e-13
7.7433775e-13
7.6246058e-13
7.5067717e-13
7.389815e-13
7.273711e-13
7.158372e-13
7.0466811e-13
6.9421708e-13
6.8453632e-13
6.755503e-13
6.6718715e-13
6.5937983e-13
6.5207057e-13
6.4520965e-13
6.3875385e-13
6.326651e-13
6.2690986e-13
6.2145838e-13
6.1628372e-13
6.113612e-13
6.0667179e-13
6.0219669e-13
5.9790894e-13
5.9378503e-13
5.8976625e-13
5.8590208e-13
5.8186572e-13
5.7852406e-13
5.7322166e-13
6.6029187e-09
6.0875746e-09
5.9208292e-09
5.8399478e-09
5.789632e-09
5.7546542e-09
5.7289387e-09
5.709368e-09
5.6941047e-09
5.6819746e-09
5.6721865e-09
5.6641853e-09
5.6575677e-09
5.6520313e-09
5.6473376e-09
5.6432945e-09
5.6397096e-09
5.6364491e-09
5.6330786e-09
5.6299432e-09
5.6231244e-09
5.6232214e-09
5.5723689e-09
4.4307832e-09
3.8064726e-11
7.1742596e-12
9.7598238e-12
2.1746427e-12
6.6212273e-12
2.0976864e-12
5.2563513e-12
4.5964152e-12
4.4031594e-12
4.0441779e-12
3.810792e-12
3.5779953e-12
3.3827957e-12
3.2073519e-12
3.0514777e-12
2.9113649e-12
2.7848327e-12
2.6699311e-12
2.5650935e-12
2.469033e-12
2.3807012e-12
2.2991677e-12
2.2236871e-12
2.1536089e-12
2.088353e-12
2.0274149e-12
1.970357e-12
1.9167984e-12
1.8664065e-12
1.8188888e-12
1.7739888e-12
1.7314792e-12
1.6911575e-12
1.652843e-12
1.6163742e-12
1.5816065e-12
1.5484178e-12
1.5166886e-12
1.4863116e-12
1.4571894e-12
1.4292299e-12
1.4023355e-12
1.3764499e-12
1.3515082e-12
1.3274487e-12
1.3042151e-12
1.2817564e-12
1.2600249e-12
1.2389758e-12
1.2185686e-12
1.1987653e-12
1.1795309e-12
1.1608328e-12
1.1426404e-12
1.1249257e-12
1.107663e-12
1.0908272e-12
1.074395e-12
1.0583448e-12
1.0426564e-12
1.0273105e-12
1.0122892e-12
9.9757545e-13
9.8315352e-13
9.690087e-13
9.5512649e-13
9.4149326e-13
9.2809626e-13
9.1492332e-13
9.0196293e-13
8.8920402e-13
8.7663899e-13
8.6425752e-13
8.5204939e-13
8.4000504e-13
8.2811559e-13
8.1637255e-13
8.047678e-13
7.9329345e-13
7.8194078e-13
7.70694e-13
7.5955403e-13
7.4851499e-13
7.3757051e-13
7.2671432e-13
7.159407e-13
7.0524423e-13
6.9462301e-13
6.8406851e-13
6.7384802e-13
6.6428641e-13
6.5543074e-13
6.4721138e-13
6.3956213e-13
6.3242139e-13
6.2573618e-13
6.1946097e-13
6.1355619e-13
6.0798705e-13
6.0272285e-13
5.9773642e-13
5.9300313e-13
5.8850043e-13
5.8421132e-13
5.8011873e-13
5.7619597e-13
5.7242326e-13
5.6874685e-13
5.6521274e-13
5.6152077e-13
5.5846559e-13
5.5361514e-13
6.5972323e-09
6.0525022e-09
5.875811e-09
5.7898567e-09
5.736311e-09
5.6990611e-09
5.6716607e-09
5.6507974e-09
5.6345178e-09
5.6215734e-09
5.6111225e-09
5.6025749e-09
5.5955024e-09
5.5895838e-09
5.5845672e-09
5.5802511e-09
5.5764362e-09
5.5729871e-09
5.5694688e-09
5.5662511e-09
5.5593944e-09
5.5598969e-09
5.5090632e-09
4.4022306e-09
3.9471353e-11
6.7218192e-12
8.9390147e-12
1.9427524e-12
6.0240414e-12
1.9934133e-12
4.7768087e-12
4.1863013e-12
4.0008655e-12
3.6784354e-12
3.4647612e-12
3.254502e-12
3.0775712e-12
2.9189613e-12
2.7780887e-12
2.6515741e-12
2.5373988e-12
2.4337882e-12
2.3393137e-12
2.2528047e-12
2.1733091e-12
2.0999721e-12
2.0321087e-12
1.9691204e-12
1.9104792e-12
1.8557281e-12
1.8044711e-12
1.7563636e-12
1.7111049e-12
1.6684309e-12
1.6281098e-12
1.5899366e-12
1.5537286e-12
1.5193227e-12
1.4865738e-12
1.4553513e-12
1.4255463e-12
1.397051e-12
1.3697685e-12
1.3436112e-12
1.3184958e-12
1.2943328e-12
1.2710732e-12
1.2486588e-12
1.2270343e-12
1.2061492e-12
1.1859575e-12
1.1664163e-12
1.1474857e-12
1.129129e-12
1.1113124e-12
1.0940044e-12
1.0771756e-12
1.0607987e-12
1.0448486e-12
1.0293021e-12
1.0141368e-12
9.9933188e-13
9.8486787e-13
9.7072656e-13
9.5689087e-13
9.433446e-13
9.3007246e-13
9.1706041e-13
9.0429523e-13
8.9176393e-13
8.7945429e-13
8.6735487e-13
8.5545477e-13
8.4374366e-13
8.3221162e-13
8.2085213e-13
8.0965585e-13
7.9861355e-13
7.8771663e-13
7.769571e-13
7.6632733e-13
7.5582003e-13
7.4542812e-13
7.3514365e-13
7.2495176e-13
7.1485388e-13
7.0484483e-13
6.9491888e-13
6.8507045e-13
6.7529441e-13
6.6558593e-13
6.5594359e-13
6.4635926e-13
6.3707874e-13
6.2839843e-13
6.2036034e-13
6.1290076e-13
6.0595914e-13
5.9947928e-13
5.9341298e-13
5.8771882e-13
5.8236087e-13
5.7730751e-13
5.7253089e-13
5.6800636e-13
5.6371157e-13
5.5962608e-13
5.5573475e-13
5.5202193e-13
5.4846219e-13
5.450389e-13
5.4170319e-13
5.3849742e-13
5.3514815e-13
5.3237783e-13
5.279779e-13
6.5911614e-09
6.0121177e-09
5.8238651e-09
5.7320245e-09
5.6747348e-09
5.6348532e-09
5.6055021e-09
5.5831428e-09
5.5656874e-09
5.5518008e-09
5.5405832e-09
5.5314037e-09
5.5238045e-09
5.5174432e-09
5.5120523e-09
5.5074188e-09
5.5033356e-09
5.4996647e-09
5.4959691e-09
5.4926468e-09
5.4857228e-09
5.4866619e-09
5.435704e-09
4.3689099e-09
4.1193424e-11
6.2820721e-12
8.109771e-12
1.7220725e-12
5.42301e-12
1.8750789e-12
4.2957367e-12
3.7729902e-12
3.5980716e-12
3.3114751e-12
3.1181274e-12
2.9301954e-12
2.7715385e-12
2.6296368e-12
2.5036392e-12
2.390572e-12
2.2885932e-12
2.1961058e-12
2.111822e-12
2.0346885e-12
1.9638493e-12
1.8985268e-12
1.838099e-12
1.7820237e-12
1.7298269e-12
1.6810991e-12
1.6354858e-12
1.5926788e-12
1.552409e-12
1.5144404e-12
1.4785661e-12
1.4446029e-12
1.4123877e-12
1.3817751e-12
1.3526354e-12
1.3248525e-12
1.29833e-12
1.2729718e-12
1.2486912e-12
1.2254101e-12
1.2030539e-12
1.1815413e-12
1.1608303e-12
1.1408693e-12
1.1216089e-12
1.1030043e-12
1.0850147e-12
1.0676018e-12
1.0507301e-12
1.0343671e-12
1.0184826e-12
1.0030487e-12
9.8803931e-13
9.734301e-13
9.591988e-13
9.4532474e-13
9.3178811e-13
9.1857032e-13
9.0565414e-13
8.9302337e-13
8.8066285e-13
8.6855818e-13
8.5669579e-13
8.4506318e-13
8.3364863e-13
8.2244062e-13
8.1142826e-13
8.0060142e-13
7.899504e-13
7.7946604e-13
7.6913951e-13
7.5896531e-13
7.4893505e-13
7.3904048e-13
7.2927394e-13
7.196283e-13
7.1009677e-13
7.0067289e-13
6.9135033e-13
6.8212196e-13
6.7297397e-13
6.6390815e-13
6.5491996e-13
6.4600435e-13
6.3715636e-13
6.2837148e-13
6.1964542e-13
6.1097721e-13
6.0235919e-13
5.9401511e-13
5.8621266e-13
5.7898892e-13
5.7228611e-13
5.660494e-13
5.60228e-13
5.5477845e-13
5.4966344e-13
5.4485064e-13
5.4031161e-13
5.3602131e-13
5.3195758e-13
5.2810033e-13
5.244312e-13
5.2093678e-13
5.1760271e-13
5.1440557e-13
5.1133132e-13
5.0833595e-13
5.0545806e-13
5.0245115e-13
4.9996507e-13
4.9601569e-13
6.5848625e-09
5.9659459e-09
5.76433e-09
5.6657009e-09
5.604099e-09
5.5611889e-09
5.5295943e-09
5.5055155e-09
5.486709e-09
5.47174e-09
5.4596417e-09
5.449736e-09
5.4415316e-09
5.4346615e-09
5.4288397e-09
5.4238403e-09
5.4194467e-09
5.4155175e-09
5.4116122e-09
5.4081605e-09
5.4011374e-09
5.4025453e-09
5.3513088e-09
4.3302556e-09
4.3307817e-11
5.8590827e-12
7.2791232e-12
1.5116709e-12
4.8222298e-12
1.7413304e-12
3.8156597e-12
3.3584814e-12
3.1963514e-12
2.9446134e-12
2.7719375e-12
2.6059588e-12
2.4654231e-12
2.3399854e-12
2.2286358e-12
2.1287833e-12
2.0387719e-12
1.9571825e-12
1.8828689e-12
1.8148945e-12
1.7524987e-12
1.6949821e-12
1.6417882e-12
1.5924337e-12
1.5464985e-12
1.5036205e-12
1.4634861e-12
1.425823e-12
1.3903936e-12
1.3569895e-12
1.3254279e-12
1.2955473e-12
1.2672037e-12
1.2402691e-12
1.2146291e-12
1.1901815e-12
1.1668421e-12
1.144526e-12
1.1231568e-12
1.1026654e-12
1.0829861e-12
1.0640456e-12
1.0458085e-12
1.0282294e-12
1.0112652e-12
9.9487607e-13
9.7902631e-13
9.6368233e-13
9.4881284e-13
9.3438924e-13
9.2038506e-13
9.0677572e-13
8.9353833e-13
8.8065152e-13
8.6809568e-13
8.558527e-13
8.4390513e-13
8.3223669e-13
8.2083221e-13
8.0967749e-13
7.9875918e-13
7.8806466e-13
7.7758201e-13
7.6730022e-13
7.5720903e-13
7.4729832e-13
7.3755852e-13
7.2798075e-13
7.1855648e-13
7.0927765e-13
7.0013655e-13
6.9112854e-13
6.8224624e-13
6.7348231e-13
6.6483002e-13
6.5628308e-13
6.4783553e-13
6.3948169e-13
6.3121601e-13
6.2303213e-13
6.1491745e-13
6.0687397e-13
5.9889776e-13
5.9098441e-13
5.831296e-13
5.7532939e-13
5.6758003e-13
5.5988094e-13
5.5222503e-13
5.4481341e-13
5.3788485e-13
5.3147166e-13
5.2552204e-13
5.199869e-13
5.148209e-13
5.0998531e-13
5.0544691e-13
5.0117695e-13
4.9715013e-13
4.9334421e-13
4.897395e-13
4.8631816e-13
4.8306389e-13
4.7996487e-13
4.7700804e-13
4.7417243e-13
4.7144618e-13
4.6879014e-13
4.66239e-13
4.6357342e-13
4.6137038e-13
4.5787044e-13
6.5785697e-09
5.9135156e-09
5.6965333e-09
5.5901196e-09
5.5235804e-09
5.4772066e-09
5.4430484e-09
5.4170056e-09
5.3966566e-09
5.3804524e-09
5.367349e-09
5.3566148e-09
5.3477198e-09
5.3402686e-09
5.3339545e-09
5.3285363e-09
5.3237865e-09
5.3195594e-09
5.3154091e-09
5.3118012e-09
5.304644e-09
5.3065541e-09
5.2548739e-09
4.285655e-09
4.591117e-11
5.4576232e-12
6.4558007e-12
1.3114578e-12
4.2272662e-12
1.5922722e-12
3.34046e-12
2.9461091e-12
2.7985779e-12
2.5804475e-12
2.4284976e-12
2.283912e-12
2.1611675e-12
2.051811e-12
1.9547622e-12
1.8677906e-12
1.7894309e-12
1.7184393e-12
1.6538099e-12
1.5947213e-12
1.5405065e-12
1.4905456e-12
1.4443484e-12
1.4014913e-12
1.3616077e-12
1.3243816e-12
1.2895396e-12
1.2568445e-12
1.2260893e-12
1.1970924e-12
1.169695e-12
1.1437562e-12