/*--------------------------------*- C++ -*----------------------------------*\
| =========                 |                                                 |
| \\      /  F ield         | OpenFOAM: The Open Source CFD Toolbox           |
|  \\    /   O peration     | Version:  2206                                  |
|   \\  /    A nd           | Website:  www.openfoam.com                      |
|    \\/     M anipulation  |                                                 |
\*---------------------------------------------------------------------------*/
FoamFile
{
    version     2.0;
    format      ascii;
    arch        "LSB;label=32;scalar=64";
    class       volScalarField;
    location    "800";
    object      p;
}
// * * * * * * * * * * * * * * * * * * * * * * * * * * * * * * * * * * * * * //

dimensions      [0 2 -2 0 0 0 0];

internalField   nonuniform List<scalar> 
13056
(
0.011436999
0.011541984
0.011760223
0.012036177
0.012372688
0.01276896
0.013221959
0.013730906
0.014297354
0.014924571
0.015617533
0.016383387
0.017231978
0.018177337
0.019238117
0.020443998
0.021829951
0.023474416
0.025428785
0.027996145
0.031062683
0.036396531
0.041434902
0.082693045
0.05172599
0.00090038601
0.00022255276
0.0013616536
0.0019027574
0.0023491215
0.0026327724
0.0028398121
0.0029933088
0.0031032598
0.0031828238
0.0032419516
0.0032863839
0.0033198191
0.0033447947
0.0033633825
0.0033770075
0.0033866344
0.0033930238
0.0033968099
0.0033984326
0.00339819
0.0033963851
0.0033932371
0.003388935
0.0033836187
0.0033773762
0.0033703071
0.0033624908
0.0033539934
0.0033448838
0.0033351964
0.0033249492
0.0033141773
0.0033029064
0.0032911554
0.0032789411
0.0032662867
0.0032531926
0.0032396493
0.0032256661
0.0032112449
0.0031963853
0.003181086
0.0031653449
0.0031491649
0.0031325278
0.0031154114
0.0030978117
0.0030797177
0.0030611139
0.0030419899
0.0030223249
0.0030021134
0.0029813357
0.0029599453
0.0029379264
0.0029152571
0.0028919088
0.0028678529
0.0028430611
0.0028174987
0.0027911401
0.0027639376
0.0027358328
0.0027067903
0.002676762
0.0026456933
0.002613532
0.0025802135
0.0025456835
0.0025098698
0.0024726731
0.0024340178
0.0023938152
0.0023519634
0.0023083592
0.0022628816
0.0022154147
0.0021658143
0.0021139055
0.002059533
0.0020025092
0.0019426328
0.0018796796
0.0018134254
0.0017435834
0.0016698574
0.0015921912
0.0015112175
0.0014291336
0.0013482128
0.0012689759
0.0011912549
0.0011150121
0.0010402501
0.00096699049
0.00089528543
0.00082523296
0.00075696876
0.00069065612
0.00062651831
0.00056487561
0.00050612086
0.00045085681
0.00039972245
0.00035423237
0.00031485414
0.00028748023
0.0002657148
0.00040600295
-0.00036301042
0.011436999
0.011541984
0.011760223
0.012036177
0.012372688
0.01276896
0.013221959
0.013730906
0.014297354
0.014924571
0.015617534
0.016383388
0.017231978
0.018177338
0.019238118
0.020444
0.021829953
0.023474419
0.025428789
0.027996152
0.031062692
0.03639655
0.041434955
0.082687777
0.051737816
0.00090806534
0.00022452106
0.0013624998
0.0019032677
0.00234948
0.0026330423
0.0028400255
0.0029934829
0.0031034051
0.0031829475
0.0032420584
0.0032864771
0.0033199014
0.0033448679
0.003363448
0.0033770666
0.003386688
0.0033930725
0.0033968545
0.0033984735
0.0033982277
0.0033964199
0.0033932694
0.003388965
0.0033836466
0.0033774022
0.0033703315
0.0033625136
0.0033540148
0.0033449039
0.0033352154
0.0033249671
0.0033141942
0.0033029223
0.0032911704
0.0032789554
0.0032663002
0.0032532054
0.0032396615
0.0032256777
0.0032112558
0.0031963957
0.0031810959
0.0031653543
0.0031491739
0.0031325364
0.0031154196
0.0030978195
0.0030797251
0.003061121
0.0030419967
0.0030223313
0.0030021195
0.0029813415
0.002959951
0.0029379318
0.0029152623
0.0028919137
0.0028678576
0.0028430655
0.002817503
0.0027911442
0.0027639415
0.0027358365
0.0027067939
0.0026767654
0.0026456966
0.0026135351
0.0025802165
0.0025456863
0.0025098724
0.0024726757
0.0024340202
0.0023938175
0.0023519656
0.0023083613
0.0022628836
0.0022154166
0.0021658161
0.0021139073
0.0020595346
0.0020025107
0.0019426343
0.001879681
0.0018134267
0.0017435846
0.0016698585
0.0015921923
0.0015112184
0.0014291345
0.0013482137
0.0012689767
0.0011912556
0.0011150129
0.0010402508
0.00096699115
0.00089528605
0.00082523355
0.00075696932
0.00069065666
0.00062651883
0.0005648761
0.00050612133
0.00045085726
0.0003997229
0.0003542328
0.00031485456
0.00028748066
0.00026571525
0.00040600341
-0.00036301011
0.011436999
0.011541984
0.011760223
0.012036177
0.012372688
0.01276896
0.013221959
0.013730907
0.014297354
0.014924572
0.015617534
0.016383388
0.017231979
0.018177339
0.01923812
0.020444001
0.021829955
0.023474422
0.025428794
0.02799616
0.031062702
0.03639657
0.041435004
0.082682872
0.051753925
0.00091522625
0.00022668837
0.0013634889
0.0019038642
0.002349899
0.0026333578
0.002840275
0.0029936862
0.0031035749
0.0031830919
0.0032421831
0.0032865861
0.0033199975
0.0033449533
0.0033635246
0.0033771356
0.0033867505
0.0033931295
0.0033969066
0.0033985214
0.0033982717
0.0033964606
0.0033933072
0.003389
0.0033836792
0.0033774327
0.00337036
0.0033625403
0.0033540398
0.0033449275
0.0033352375
0.003324988
0.0033142139
0.0033029409
0.003291188
0.003278972
0.003266316
0.0032532203
0.0032396756
0.0032256912
0.0032112687
0.0031964079
0.0031811075
0.0031653654
0.0031491844
0.0031325464
0.0031154291
0.0030978286
0.0030797338
0.0030611292
0.0030420046
0.0030223389
0.0030021267
0.0029813484
0.0029599576
0.002937938
0.0029152683
0.0028919194
0.0028678631
0.0028430708
0.002817508
0.002791149
0.0027639461
0.0027358409
0.0027067981
0.0026767694
0.0026457004
0.0026135388
0.00258022
0.0025456896
0.0025098756
0.0024726787
0.0024340231
0.0023938202
0.0023519682
0.0023083637
0.0022628859
0.0022154188
0.0021658182
0.0021139092
0.0020595365
0.0020025125
0.001942636
0.0018796826
0.0018134282
0.001743586
0.0016698598
0.0015921935
0.0015112196
0.0014291356
0.0013482147
0.0012689777
0.0011912565
0.0011150137
0.0010402516
0.00096699191
0.00089528678
0.00082523425
0.00075696998
0.00069065729
0.00062651943
0.00056487668
0.00050612189
0.0004508578
0.00039972341
0.00035423331
0.00031485505
0.00028748115
0.00026571574
0.00040600395
-0.00036300977
0.011436999
0.011541984
0.011760223
0.012036177
0.012372689
0.01276896
0.01322196
0.013730907
0.014297354
0.014924572
0.015617534
0.016383389
0.01723198
0.01817734
0.019238121
0.020444003
0.021829957
0.023474426
0.025428798
0.027996167
0.031062712
0.036396588
0.041435055
0.082678111
0.051771779
0.00092020044
0.00022870281
0.0013644476
0.0019044425
0.0023503052
0.0026336637
0.0028405168
0.0029938834
0.0031037395
0.003183232
0.003242304
0.0032866917
0.0033200907
0.0033450362
0.0033635989
0.0033772025
0.0033868112
0.0033931848
0.0033969572
0.0033985678
0.0033983145
0.0033965001
0.0033933438
0.003389034
0.0033837109
0.0033774622
0.0033703876
0.0033625662
0.0033540641
0.0033449503
0.003335259
0.0033250082
0.003314233
0.0033029589
0.0032912051
0.0032789881
0.0032663313
0.0032532348
0.0032396894
0.0032257042
0.0032112811
0.0031964197
0.0031811188
0.0031653761
0.0031491946
0.0031325561
0.0031154384
0.0030978375
0.0030797422
0.0030611373
0.0030420122
0.0030223462
0.0030021337
0.0029813551
0.0029599639
0.0029379441
0.0029152741
0.002891925
0.0028678684
0.0028430759
0.0028175129
0.0027911536
0.0027639505
0.0027358451
0.0027068021
0.0026767732
0.002645704
0.0026135423
0.0025802233
0.0025456928
0.0025098786
0.0024726816
0.0024340258
0.0023938228
0.0023519707
0.0023083661
0.0022628882
0.0022154209
0.0021658202
0.0021139112
0.0020595383
0.0020025142
0.0019426376
0.0018796841
0.0018134296
0.0017435874
0.0016698611
0.0015921947
0.0015112207
0.0014291366
0.0013482157
0.0012689786
0.0011912574
0.0011150145
0.0010402524
0.00096699266
0.00089528748
0.00082523492
0.00075697062
0.0006906579
0.00062652001
0.00056487724
0.00050612243
0.00045085832
0.00039972392
0.0003542338
0.00031485553
0.00028748163
0.00026571619
0.00040600448
-0.00036300945
0.011436999
0.011541984
0.011760223
0.012036177
0.012372689
0.01276896
0.01322196
0.013730907
0.014297354
0.014924572
0.015617535
0.01638339
0.017231981
0.018177341
0.019238122
0.020444005
0.02182996
0.023474429
0.025428803
0.027996176
0.031062724
0.036396608
0.041435112
0.082672948
0.051790758
0.00092579785
0.00023076635
0.0013654352
0.0019050384
0.0023507239
0.0026339789
0.002840766
0.0029940865
0.0031039092
0.0031833763
0.0032424287
0.0032868006
0.0033201867
0.0033451217
0.0033636754
0.0033772715
0.0033868737
0.0033932417
0.0033970092
0.0033986156
0.0033983585
0.0033965408
0.0033933815
0.0033890691
0.0033837435
0.0033774927
0.0033704161
0.0033625929
0.0033540891
0.0033449738
0.0033352811
0.0033250291
0.0033142526
0.0033029775
0.0032912226
0.0032790048
0.003266347
0.0032532498
0.0032397036
0.0032257177
0.0032112939
0.0031964318
0.0031811303
0.0031653871
0.0031492051
0.0031325661
0.0031154479
0.0030978466
0.0030797509
0.0030611456
0.0030420201
0.0030223537
0.0030021409
0.002981362
0.0029599705
0.0029379504
0.0029152801
0.0028919307
0.0028678739
0.0028430811
0.0028175179
0.0027911584
0.0027639551
0.0027358495
0.0027068063
0.0026767772
0.0026457078
0.0026135459
0.0025802268
0.0025456961
0.0025098818
0.0024726846
0.0024340287
0.0023938256
0.0023519733
0.0023083686
0.0022628905
0.0022154232
0.0021658223
0.0021139132
0.0020595402
0.002002516
0.0019426393
0.0018796857
0.0018134311
0.0017435888
0.0016698624
0.001592196
0.0015112219
0.0014291377
0.0013482167
0.0012689796
0.0011912583
0.0011150154
0.0010402532
0.00096699342
0.00089528821
0.00082523561
0.00075697128
0.00069065853
0.00062652062
0.00056487782
0.00050612298
0.00045085885
0.00039972443
0.0003542343
0.00031485602
0.00028748213
0.00026571666
0.00040600502
-0.00036300913
0.011436999
0.011541984
0.011760223
0.012036177
0.012372689
0.012768961
0.01322196
0.013730907
0.014297355
0.014924573
0.015617535
0.01638339
0.017231982
0.018177342
0.019238124
0.020444007
0.021829963
0.023474434
0.025428809
0.027996186
0.031062737
0.036396631
0.041435176
0.082667203
0.051810534
0.00093298078
0.00023297009
0.0013664872
0.0019056733
0.0023511698
0.0026343147
0.0028410315
0.002994303
0.0031040899
0.0031835301
0.0032425614
0.0032869165
0.003320289
0.0033452127
0.0033637569
0.003377345
0.0033869403
0.0033933024
0.0033970647
0.0033986665
0.0033984054
0.0033965842
0.0033934217
0.0033891064
0.0033837783
0.0033775251
0.0033704464
0.0033626213
0.0033541158
0.0033449989
0.0033353047
0.0033250513
0.0033142736
0.0033029973
0.0032912414
0.0032790225
0.0032663638
0.0032532657
0.0032397187
0.0032257321
0.0032113075
0.0031964448
0.0031811427
0.0031653988
0.0031492163
0.0031325768
0.0031154581
0.0030978562
0.0030797602
0.0030611544
0.0030420286
0.0030223618
0.0030021486
0.0029813693
0.0029599775
0.0029379571
0.0029152865
0.0028919369
0.0028678797
0.0028430867
0.0028175232
0.0027911635
0.0027639599
0.0027358541
0.0027068107
0.0026767814
0.0026457119
0.0026135497
0.0025802305
0.0025456996
0.0025098851
0.0024726878
0.0024340317
0.0023938284
0.002351976
0.0023083712
0.002262893
0.0022154255
0.0021658246
0.0021139153
0.0020595422
0.0020025179
0.0019426411
0.0018796874
0.0018134327
0.0017435903
0.0016698638
0.0015921973
0.0015112231
0.0014291389
0.0013482178
0.0012689806
0.0011912593
0.0011150163
0.001040254
0.00096699424
0.00089528898
0.00082523635
0.00075697198
0.00069065921
0.00062652126
0.00056487843
0.00050612357
0.00045085943
0.00039972499
0.00035423484
0.00031485654
0.00028748266
0.00026571716
0.0004060056
-0.00036300878
0.011436999
0.011541984
0.011760223
0.012036178
0.012372689
0.012768961
0.01322196
0.013730908
0.014297355
0.014924573
0.015617536
0.016383391
0.017231983
0.018177344
0.019238126
0.02044401
0.021829966
0.023474439
0.025428816
0.027996198
0.031062753
0.03639666
0.04143525
0.082660775
0.05183136
0.00094095619
0.00023534322
0.0013676192
0.0019063567
0.0023516499
0.0026346762
0.0028413173
0.002994536
0.0031042844
0.0031836956
0.0032427043
0.0032870414
0.0033203991
0.0033453106
0.0033638447
0.0033774241
0.003387012
0.0033933677
0.0033971244
0.0033987213
0.003398456
0.0033966309
0.0033934649
0.0033891466
0.0033838157
0.0033775601
0.0033704791
0.0033626519
0.0033541445
0.0033450258
0.0033353301
0.0033250752
0.0033142962
0.0033030187
0.0032912615
0.0032790416
0.0032663819
0.0032532829
0.003239735
0.0032257475
0.0032113222
0.0031964588
0.003181156
0.0031654115
0.0031492284
0.0031325883
0.003115469
0.0030978667
0.0030797701
0.0030611639
0.0030420376
0.0030223704
0.0030021569
0.0029813772
0.0029599851
0.0029379643
0.0029152934
0.0028919434
0.002867886
0.0028430927
0.0028175289
0.002791169
0.0027639652
0.0027358591
0.0027068155
0.002676786
0.0026457162
0.0026135539
0.0025802344
0.0025457034
0.0025098887
0.0024726912
0.002434035
0.0023938316
0.002351979
0.002308374
0.0022628957
0.0022154281
0.002165827
0.0021139176
0.0020595443
0.0020025199
0.001942643
0.0018796892
0.0018134344
0.0017435919
0.0016698654
0.0015921987
0.0015112245
0.0014291401
0.0013482189
0.0012689817
0.0011912603
0.0011150173
0.001040255
0.00096699512
0.00089528982
0.00082523714
0.00075697274
0.00069065993
0.00062652195
0.0005648791
0.00050612421
0.00045086004
0.00039972558
0.00035423542
0.00031485711
0.00028748323
0.0002657177
0.00040600622
-0.0003630084
0.011436999
0.011541984
0.011760223
0.012036178
0.012372689
0.012768961
0.01322196
0.013730908
0.014297356
0.014924574
0.015617537
0.016383392
0.017231984
0.018177345
0.019238128
0.020444013
0.021829971
0.023474445
0.025428825
0.027996213
0.031062773
0.036396696
0.041435336
0.082653522
0.051853509
0.00094950662
0.00023791552
0.0013688466
0.001907098
0.0023521706
0.0026350683
0.0028416274
0.0029947888
0.0031044955
0.0031838752
0.0032428594
0.0032871768
0.0033205186
0.0033454169
0.0033639399
0.00337751
0.0033870898
0.0033934385
0.0033971893
0.0033987808
0.0033985108
0.0033966815
0.0033935119
0.0033891902
0.0033838564
0.003377598
0.0033705146
0.0033626851
0.0033541757
0.0033450551
0.0033353577
0.0033251012
0.0033143207
0.0033030418
0.0032912834
0.0032790623
0.0032664016
0.0032533015
0.0032397526
0.0032257643
0.0032113381
0.0031964739
0.0031811704
0.0031654252
0.0031492415
0.0031326007
0.0031154809
0.003097878
0.0030797809
0.0030611742
0.0030420475
0.0030223798
0.0030021659
0.0029813858
0.0029599933
0.0029379721
0.0029153009
0.0028919506
0.0028678929
0.0028430992
0.0028175352
0.0027911749
0.0027639709
0.0027358645
0.0027068207
0.002676791
0.002645721
0.0026135584
0.0025802387
0.0025457075
0.0025098926
0.0024726949
0.0024340386
0.0023938349
0.0023519822
0.002308377
0.0022628986
0.0022154308
0.0021658296
0.0021139201
0.0020595467
0.0020025221
0.0019426451
0.0018796912
0.0018134363
0.0017435937
0.001669867
0.0015922002
0.0015112259
0.0014291415
0.0013482202
0.0012689829
0.0011912614
0.0011150183
0.001040256
0.00096699607
0.00089529072
0.000825238
0.00075697356
0.00069066071
0.0006265227
0.00056487982
0.00050612491
0.00045086071
0.00039972623
0.00035423605
0.00031485772
0.00028748384
0.00026571829
0.0004060069
-0.000363008
0.011436999
0.011541984
0.011760224
0.012036178
0.012372689
0.012768961
0.013221961
0.013730908
0.014297356
0.014924574
0.015617538
0.016383394
0.017231986
0.018177348
0.019238131
0.020444017
0.021829976
0.023474454
0.025428836
0.027996231
0.031062798
0.036396741
0.041435434
0.08264526
0.051877211
0.00095878346
0.00024072485
0.0013701876
0.0019079083
0.0023527399
0.002635497
0.0028419663
0.0029950651
0.0031047262
0.0031840715
0.0032430289
0.0032873249
0.0033206493
0.0033455331
0.0033640441
0.0033776039
0.0033871749
0.003393516
0.0033972601
0.0033988459
0.0033985707
0.0033967369
0.0033935632
0.0033892379
0.0033839008
0.0033776394
0.0033705533
0.0033627214
0.0033542098
0.0033450872
0.0033353878
0.0033251296
0.0033143475
0.0033030671
0.0032913074
0.003279085
0.003266423
0.0032533218
0.003239772
0.0032257826
0.0032113556
0.0031964905
0.0031811862
0.0031654402
0.0031492558
0.0031326144
0.0031154939
0.0030978904
0.0030797928
0.0030611855
0.0030420583
0.0030223901
0.0030021757
0.0029813952
0.0029600022
0.0029379807
0.002915309
0.0028919584
0.0028679003
0.0028431063
0.002817542
0.0027911814
0.0027639771
0.0027358705
0.0027068263
0.0026767964
0.0026457261
0.0026135634
0.0025802434
0.002545712
0.0025098969
0.002472699
0.0024340424
0.0023938386
0.0023519857
0.0023083804
0.0022629018
0.0022154338
0.0021658325
0.0021139228
0.0020595493
0.0020025246
0.0019426474
0.0018796934
0.0018134384
0.0017435956
0.0016698688
0.0015922019
0.0015112275
0.001429143
0.0013482216
0.0012689842
0.0011912627
0.0011150195
0.0010402571
0.00096699712
0.00089529172
0.00082523895
0.00075697446
0.00069066158
0.00062652353
0.00056488061
0.00050612567
0.00045086144
0.00039972694
0.00035423674
0.0003148584
0.00028748452
0.00026571893
0.00040600764
-0.00036300755
0.011436999
0.011541984
0.011760224
0.012036178
0.01237269
0.012768962
0.013221961
0.013730909
0.014297357
0.014924575
0.015617539
0.016383395
0.017231988
0.018177351
0.019238135
0.020444023
0.021829983
0.023474464
0.025428849
0.027996254
0.031062828
0.036396799
0.041435549
0.082635769
0.051902678
0.00096895339
0.0002438137
0.0013716625
0.0019088
0.0023533663
0.0026359688
0.0028423393
0.0029953693
0.0031049802
0.0031842876
0.0032432155
0.003287488
0.0033207931
0.0033456611
0.0033641587
0.0033777072
0.0033872686
0.0033936013
0.0033973382
0.0033989176
0.0033986367
0.0033967979
0.0033936197
0.0033892905
0.0033839497
0.0033776851
0.003370596
0.0033627614
0.0033542473
0.0033451224
0.003335421
0.0033251609
0.003314377
0.003303095
0.0032913338
0.00327911
0.0032664467
0.0032533443
0.0032397933
0.0032258029
0.0032113748
0.0031965088
0.0031812036
0.0031654568
0.0031492715
0.0031326294
0.0031155082
0.0030979041
0.0030798058
0.0030611979
0.0030420701
0.0030224015
0.0030021865
0.0029814055
0.0029600121
0.0029379901
0.0029153181
0.002891967
0.0028679086
0.0028431142
0.0028175495
0.0027911886
0.0027639839
0.002735877
0.0027068326
0.0026768024
0.0026457318
0.0026135688
0.0025802486
0.0025457169
0.0025099017
0.0024727035
0.0024340467
0.0023938427
0.0023519896
0.0023083841
0.0022629053
0.0022154372
0.0021658356
0.0021139258
0.0020595521
0.0020025273
0.0019426499
0.0018796957
0.0018134406
0.0017435977
0.0016698708
0.0015922038
0.0015112292
0.0014291446
0.0013482232
0.0012689856
0.001191264
0.0011150208
0.0010402583
0.00096699827
0.00089529281
0.00082523999
0.00075697546
0.00069066253
0.00062652444
0.00056488148
0.0005061265
0.00045086225
0.00039972772
0.0003542375
0.00031485914
0.00028748527
0.00026571964
0.00040600846
-0.00036300706
0.011436999
0.011541985
0.011760224
0.012036178
0.01237269
0.012768962
0.013221962
0.01373091
0.014297358
0.014924577
0.015617541
0.016383397
0.017231991
0.018177354
0.01923814
0.020444029
0.021829992
0.023474476
0.025428866
0.027996282
0.031062866
0.036396871
0.041435685
0.082624789
0.051930113
0.00098016721
0.0002472285
0.0013732937
0.0019097867
0.0023540595
0.0026364909
0.0028427522
0.002995706
0.0031052613
0.0031845269
0.0032434221
0.0032876684
0.0033209523
0.0033458027
0.0033642856
0.0033778216
0.0033873723
0.0033936958
0.0033974246
0.0033989969
0.0033987098
0.0033968655
0.0033936824
0.0033893486
0.0033840039
0.0033777357
0.0033706433
0.0033628057
0.0033542889
0.0033451615
0.0033354578
0.0033251956
0.0033144097
0.0033031259
0.003291363
0.0032791376
0.0032664729
0.0032533691
0.0032398168
0.0032258253
0.0032113961
0.003196529
0.0031812228
0.0031654751
0.003149289
0.003132646
0.0031155241
0.0030979192
0.0030798202
0.0030612117
0.0030420833
0.003022414
0.0030021985
0.002981417
0.002960023
0.0029380006
0.002915328
0.0028919766
0.0028679177
0.0028431229
0.0028175578
0.0027911966
0.0027639915
0.0027358843
0.0027068395
0.002676809
0.0026457382
0.0026135748
0.0025802544
0.0025457224
0.0025099069
0.0024727085
0.0024340515
0.0023938472
0.0023519939
0.0023083882
0.0022629092
0.0022154408
0.0021658391
0.0021139291
0.0020595552
0.0020025302
0.0019426527
0.0018796984
0.0018134431
0.0017436001
0.001669873
0.0015922059
0.0015112312
0.0014291464
0.0013482249
0.0012689872
0.0011912655
0.0011150222
0.0010402596
0.00096699955
0.00089529403
0.00082524115
0.00075697656
0.00069066358
0.00062652544
0.00056488245
0.00050612743
0.00045086315
0.00039972859
0.00035423834
0.00031485996
0.0002874861
0.00026572042
0.00040600937
-0.00036300651
0.011436999
0.011541985
0.011760224
0.012036179
0.01237269
0.012768963
0.013221962
0.013730911
0.014297359
0.014924578
0.015617543
0.0163834
0.017231994
0.018177359
0.019238146
0.020444037
0.021830003
0.023474491
0.025428887
0.027996317
0.031062912
0.03639696
0.041435844
0.08261201
0.051959705
0.00099258621
0.00025102045
0.0013751057
0.0019108835
0.0023548301
0.0026370714
0.0028432112
0.0029960803
0.0031055739
0.0031847929
0.0032436518
0.0032878691
0.0033211294
0.0033459603
0.0033644268
0.0033779489
0.0033874877
0.0033938009
0.0033975207
0.0033990852
0.0033987912
0.0033969407
0.003393752
0.0033894134
0.0033840642
0.0033777919
0.0033706959
0.003362855
0.0033543351
0.003345205
0.0033354987
0.0033252341
0.0033144461
0.0033031603
0.0032913955
0.0032791684
0.0032665021
0.0032533968
0.0032398431
0.0032258502
0.0032114198
0.0031965516
0.0031812443
0.0031654955
0.0031493084
0.0031326646
0.0031155418
0.0030979361
0.0030798363
0.003061227
0.0030420979
0.003022428
0.0030022119
0.0029814297
0.0029600352
0.0029380122
0.0029153392
0.0028919872
0.0028679278
0.0028431326
0.0028175671
0.0027912054
0.002764
0.0027358924
0.0027068472
0.0026768164
0.0026457452
0.0026135815
0.0025802608
0.0025457285
0.0025099127
0.002472714
0.0024340568
0.0023938523
0.0023519987
0.0023083927
0.0022629135
0.002215445
0.002165843
0.0021139328
0.0020595587
0.0020025335
0.0019426559
0.0018797013
0.0018134459
0.0017436027
0.0016698755
0.0015922082
0.0015112333
0.0014291484
0.0013482268
0.001268989
0.0011912672
0.0011150238
0.0010402611
0.00096700097
0.00089529538
0.00082524244
0.00075697779
0.00069066475
0.00062652657
0.00056488353
0.00050612847
0.00045086415
0.00039972955
0.00035423929
0.00031486088
0.00028748702
0.0002657213
0.00040601039
-0.0003630059
0.011436999
0.011541985
0.011760224
0.012036179
0.012372691
0.012768963
0.013221963
0.013730912
0.01429736
0.01492458
0.015617545
0.016383403
0.017231998
0.018177364
0.019238153
0.020444046
0.021830015
0.023474509
0.025428911
0.027996358
0.031062967
0.036397068
0.041436008
0.082597056
0.051991615
0.0010063924
0.00025524641
0.001377126
0.0019121073
0.0023556899
0.0026377192
0.0028437235
0.0029964981
0.0031059228
0.0031850898
0.0032439082
0.0032880932
0.0033213271
0.0033461361
0.0033645844
0.003378091
0.0033876165
0.0033939183
0.0033976281
0.0033991837
0.003398882
0.0033970246
0.0033938298
0.0033894857
0.0033841315
0.0033778548
0.0033707547
0.0033629101
0.0033543868
0.0033452536
0.0033355445
0.0033252773
0.0033144868
0.0033031987
0.0032914318
0.0032792028
0.0032665347
0.0032534277
0.0032398724
0.0032258781
0.0032114463
0.0031965768
0.0031812682
0.0031655184
0.0031493302
0.0031326853
0.0031155615
0.0030979549
0.0030798543
0.0030612442
0.0030421143
0.0030224436
0.0030022268
0.002981444
0.0029600488
0.0029380252
0.0029153516
0.0028919991
0.0028679392
0.0028431435
0.0028175775
0.0027912153
0.0027640095
0.0027359014
0.0027068559
0.0026768246
0.0026457531
0.0026135891
0.002580268
0.0025457354
0.0025099192
0.0024727202
0.0024340627
0.0023938579
0.002352004
0.0023083978
0.0022629183
0.0022154495
0.0021658474
0.0021139369
0.0020595626
0.0020025372
0.0019426594
0.0018797046
0.001813449
0.0017436056
0.0016698782
0.0015922108
0.0015112357
0.0014291507
0.0013482289
0.001268991
0.0011912691
0.0011150256
0.0010402628
0.00096700257
0.0008952969
0.00082524388
0.00075697917
0.00069066607
0.00062652783
0.00056488474
0.00050612963
0.00045086527
0.00039973064
0.00035424034
0.00031486192
0.00028748806
0.00026572229
0.00040601153
-0.00036300521
0.011436999
0.011541985
0.011760225
0.012036179
0.012372691
0.012768964
0.013221964
0.013730913
0.014297362
0.014924582
0.015617548
0.016383406
0.017232003
0.01817737
0.019238161
0.020444057
0.02183003
0.023474531
0.025428941
0.027996407
0.031063033
0.036397197
0.041436149
0.082579478
0.052025969
0.0010217918
0.00025996974
0.0013793851
0.0019134768
0.0023566522
0.0026384443
0.002844297
0.0029969658
0.0031063133
0.0031854222
0.0032441953
0.003288344
0.0033215484
0.0033463331
0.0033647609
0.0033782501
0.0033877608
0.0033940497
0.0033977483
0.0033992941
0.0033989837
0.0033971187
0.003393917
0.0033895667
0.003384207
0.0033779252
0.0033708206
0.0033629718
0.0033544448
0.003345308
0.0033355957
0.0033253256
0.0033145324
0.0033032418
0.0032914726
0.0032792414
0.0032665712
0.0032534624
0.0032399053
0.0032259093
0.003211476
0.003196605
0.0031812951
0.0031655439
0.0031493545
0.0031327085
0.0031155837
0.003097976
0.0030798744
0.0030612634
0.0030421326
0.0030224611
0.0030022435
0.00298146
0.0029600641
0.0029380398
0.0029153655
0.0028920124
0.0028679519
0.0028431556
0.0028175891
0.0027912264
0.0027640201
0.0027359115
0.0027068656
0.0026768338
0.0026457619
0.0026135975
0.002580276
0.002545743
0.0025099265
0.0024727272
0.0024340693
0.0023938642
0.00235201
0.0023084035
0.0022629238
0.0022154547
0.0021658523
0.0021139415
0.002059567
0.0020025414
0.0019426633
0.0018797083
0.0018134525
0.0017436089
0.0016698813
0.0015922136
0.0015112384
0.0014291532
0.0013482313
0.0012689933
0.0011912712
0.0011150276
0.0010402647
0.00096700436
0.0008952986
0.0008252455
0.00075698071
0.00069066755
0.00062652925
0.00056488609
0.00050613094
0.00045086653
0.00039973186
0.00035424153
0.00031486308
0.00028748923
0.0002657234
0.00040601281
-0.00036300444
0.011436999
0.011541986
0.011760225
0.01203618
0.012372692
0.012768965
0.013221965
0.013730914
0.014297364
0.014924585
0.015617551
0.016383411
0.017232008
0.018177378
0.019238171
0.020444071
0.021830048
0.023474557
0.025428975
0.027996465
0.03106311
0.03639735
0.04143628
0.082558736
0.052062837
0.0010390186
0.00026526124
0.0013819171
0.001915013
0.0023577318
0.0026392578
0.0028449404
0.0029974906
0.0031067516
0.0031857952
0.0032445175
0.0032886256
0.0033217968
0.0033465541
0.003364959
0.0033784288
0.0033879228
0.0033941972
0.0033978833
0.0033994181
0.003399098
0.0033972243
0.0033940149
0.0033896576
0.0033842917
0.0033780043
0.0033708946
0.0033630411
0.0033545098
0.0033453692
0.0033356533
0.0033253798
0.0033145836
0.0033032902
0.0032915183
0.0032792847
0.0032666123
0.0032535013
0.0032399423
0.0032259444
0.0032115093
0.0031966367
0.0031813253
0.0031655727
0.0031493819
0.0031327346
0.0031156085
0.0030979997
0.003079897
0.003061285
0.0030421533
0.0030224808
0.0030022623
0.0029814779
0.0029600813
0.0029380562
0.0029153812
0.0028920274
0.0028679662
0.0028431693
0.0028176021
0.0027912389
0.002764032
0.0027359229
0.0027068764
0.0026768442
0.0026457718
0.0026136069
0.002580285
0.0025457516
0.0025099347
0.002472735
0.0024340767
0.0023938713
0.0023520168
0.0023084099
0.0022629298
0.0022154605
0.0021658577
0.0021139467
0.002059572
0.002002546
0.0019426677
0.0018797125
0.0018134564
0.0017436126
0.0016698848
0.0015922169
0.0015112415
0.0014291561
0.0013482339
0.0012689958
0.0011912736
0.0011150298
0.0010402668
0.00096700638
0.00089530052
0.00082524733
0.00075698246
0.00069066921
0.00062653084
0.00056488762
0.00050613241
0.00045086795
0.00039973323
0.00035424287
0.00031486438
0.00028749055
0.00026572465
0.00040601425
-0.00036300357
0.011436999
0.011541986
0.011760226
0.012036181
0.012372693
0.012768966
0.013221967
0.013730916
0.014297366
0.014924588
0.015617555
0.016383416
0.017232015
0.018177386
0.019238182
0.020444086
0.02183007
0.023474587
0.025429016
0.027996532
0.031063201
0.036397529
0.041436434
0.082534179
0.052102217
0.0010583414
0.0002712003
0.0013847603
0.0019167396
0.0023589451
0.0026401723
0.0028456637
0.0029980806
0.0031072444
0.0031862147
0.0032448798
0.0032889422
0.0033220762
0.0033468027
0.0033651818
0.0033786297
0.0033881049
0.0033943632
0.0033980351
0.0033995576
0.0033992265
0.0033973431
0.003394125
0.00338976
0.003384387
0.0033780933
0.0033709778
0.0033631192
0.003354583
0.003345438
0.0033357181
0.0033254409
0.0033146412
0.0033033447
0.0032915698
0.0032793335
0.0032666585
0.0032535451
0.0032399839
0.0032259839
0.0032115469
0.0031966724
0.0031813593
0.003165605
0.0031494128
0.003132764
0.0031156365
0.0030980264
0.0030799225
0.0030613093
0.0030421765
0.003022503
0.0030022835
0.0029814982
0.0029601006
0.0029380747
0.0029153989
0.0028920442
0.0028679823
0.0028431847
0.0028176169
0.002791253
0.0027640454
0.0027359358
0.0027068887
0.0026768559
0.002645783
0.0026136176
0.0025802952
0.0025457613
0.002509944
0.0024727438
0.0024340851
0.0023938793
0.0023520244
0.0023084172
0.0022629367
0.002215467
0.0021658639
0.0021139526
0.0020595775
0.0020025513
0.0019426726
0.0018797172
0.0018134608
0.0017436167
0.0016698887
0.0015922205
0.0015112449
0.0014291593
0.001348237
0.0012689986
0.0011912763
0.0011150324
0.0010402692
0.00096700865
0.00089530268
0.00082524939
0.00075698442
0.00069067109
0.00062653264
0.00056488935
0.00050613407
0.00045086955
0.00039973478
0.00035424438
0.00031486586
0.00028749203
0.00026572606
0.00040601588
-0.00036300259
0.011436999
0.011541986
0.011760226
0.012036181
0.012372694
0.012768967
0.013221969
0.013730918
0.014297369
0.014924591
0.01561756
0.016383422
0.017232023
0.018177397
0.019238196
0.020444105
0.021830094
0.023474622
0.025429063
0.02799661
0.031063305
0.036397736
0.041436622
0.082505026
0.052144007
0.0010800723
0.00027787604
0.0013879577
0.0019186831
0.0023603109
0.0026412019
0.0028464781
0.0029987449
0.0031077993
0.003186687
0.0032452878
0.0032892987
0.0033223909
0.0033470828
0.0033654328
0.003378856
0.0033883102
0.0033945502
0.0033982062
0.0033997147
0.0033993713
0.0033974769
0.0033942491
0.0033898753
0.0033844945
0.0033781936
0.0033710717
0.0033632071
0.0033546656
0.0033455156
0.0033357911
0.0033255097
0.0033147062
0.0033034061
0.0032916279
0.0032793885
0.0032667106
0.0032535945
0.0032400308
0.0032260285
0.0032115892
0.0031967127
0.0031813976
0.0031656415
0.0031494475
0.0031327971
0.0031156681
0.0030980566
0.0030799513
0.0030613368
0.0030422027
0.003022528
0.0030023074
0.002981521
0.0029601224
0.0029380955
0.0029154188
0.0028920632
0.0028680005
0.0028432021
0.0028176335
0.0027912688
0.0027640606
0.0027359502
0.0027069025
0.0026768691