/*--------------------------------*- C++ -*----------------------------------*\
| =========                 |                                                 |
| \\      /  F ield         | OpenFOAM: The Open Source CFD Toolbox           |
|  \\    /   O peration     | Version:  2206                                  |
|   \\  /    A nd           | Website:  www.openfoam.com                      |
|    \\/     M anipulation  |                                                 |
\*---------------------------------------------------------------------------*/
FoamFile
{
    version     2.0;
    format      ascii;
    arch        "LSB;label=32;scalar=64";
    class       surfaceScalarField;
    location    "800";
    object      phi;
}
// * * * * * * * * * * * * * * * * * * * * * * * * * * * * * * * * * * * * * //

dimensions      [0 3 -1 0 0 0 0];

oriented        oriented;

internalField   nonuniform List<scalar> 
25880
(
2.0046418e-06
1.2320365e-11
2.0046144e-06
2.7476437e-11
2.0045816e-06
3.2789163e-11
2.0045446e-06
3.7006603e-11
2.0045016e-06
4.2937036e-11
2.0044519e-06
4.9706598e-11
2.0043945e-06
5.7454502e-11
2.0043278e-06
6.662232e-11
2.0042502e-06
7.7603094e-11
2.0041594e-06
9.0839547e-11
2.0040525e-06
1.069255e-10
2.0039257e-06
1.2676406e-10
2.0037742e-06
1.5151038e-10
2.0035908e-06
1.8339208e-10
2.0033664e-06
2.2440171e-10
2.0030841e-06
2.8230104e-10
2.0027273e-06
3.5677126e-10
2.0022389e-06
4.883869e-10
2.0016077e-06
6.3119027e-10
2.0005531e-06
1.054668e-09
1.9992272e-06
1.3258612e-09
1.9960288e-06
3.1984e-09
1.9952979e-06
7.3093903e-10
1.0019205e-06
9.9337734e-07
4.4373973e-09
9.9748314e-07
2.1425654e-09
2.2948318e-09
1.6370532e-09
5.055123e-10
1.394061e-09
2.4299215e-10
1.2462501e-09
1.4781093e-10
1.1414666e-09
1.0478353e-10
1.0618324e-09
7.9634223e-11
9.9826129e-10
6.3571095e-11
9.4592076e-10
5.2340539e-11
9.0177715e-10
4.4143612e-11
8.6382449e-10
3.7952669e-11
8.3070477e-10
3.3119728e-11
8.0145584e-10
2.9248929e-11
7.7536483e-10
2.6091015e-11
7.5188879e-10
2.3476048e-11
7.306081e-10
2.1280694e-11
7.1119293e-10
1.9415174e-11
6.9337823e-10
1.7814698e-11
6.7694844e-10
1.64298e-11
6.6172708e-10
1.5221357e-11
6.4756713e-10
1.4159954e-11
6.3434508e-10
1.3222058e-11
6.2195686e-10
1.2388221e-11
6.1031349e-10
1.1643376e-11
5.9933876e-10
1.0974725e-11
5.8896687e-10
1.03719e-11
5.7914041e-10
9.8264627e-12
5.6980918e-10
9.3312273e-12
5.6092909e-10
8.8800967e-12
5.5246126e-10
8.467827e-12
5.4437142e-10
8.0898422e-12
5.36629e-10
7.7424253e-12
5.2920652e-10
7.4224797e-12
5.2207936e-10
7.1271584e-12
5.1522541e-10
6.8539558e-12
5.0862464e-10
6.6007687e-12
5.0225896e-10
6.3656852e-12
4.9611206e-10
6.1469022e-12
4.9016908e-10
5.942981e-12
4.844163e-10
5.7527777e-12
4.7884117e-10
5.5751306e-12
4.7343221e-10
5.4089602e-12
4.6817886e-10
5.2533505e-12
4.6307136e-10
5.1075042e-12
4.581007e-10
4.9706655e-12
4.5325866e-10
4.8420421e-12
4.4853761e-10
4.7210504e-12
4.4393031e-10
4.6072977e-12
4.3943003e-10
4.5002792e-12
4.3503054e-10
4.3994945e-12
4.30726e-10
4.3045431e-12
4.2651093e-10
4.215065e-12
4.2238019e-10
4.1307452e-12
4.1832899e-10
4.0512009e-12
4.1435291e-10
3.9760837e-12
4.1044767e-10
3.905239e-12
4.0660918e-10
3.8384943e-12
4.0283359e-10
3.7755869e-12
3.9911729e-10
3.7163073e-12
3.9545681e-10
3.6604754e-12
3.9184888e-10
3.6079355e-12
3.8829033e-10
3.558552e-12
3.8477823e-10
3.512099e-12
3.8130981e-10
3.4684203e-12
3.778823e-10
3.4275139e-12
3.7449301e-10
3.3892884e-12
3.7113941e-10
3.3535993e-12
3.6781905e-10
3.3203633e-12
3.6452955e-10
3.2895024e-12
3.6126859e-10
3.2609562e-12
3.5803396e-10
3.2346363e-12
3.5482352e-10
3.210434e-12
3.5163518e-10
3.1883397e-12
3.4846682e-10
3.1683638e-12
3.4531637e-10
3.1504514e-12
3.4218181e-10
3.1345568e-12
3.3906115e-10
3.1206646e-12
3.3595239e-10
3.1087663e-12
3.3285357e-10
3.0988151e-12
3.2976279e-10
3.0907797e-12
3.2667808e-10
3.0847102e-12
3.2359745e-10
3.0806373e-12
3.205189e-10
3.0785484e-12
3.1744043e-10
3.078466e-12
3.1436005e-10
3.0803873e-12
3.1127578e-10
3.0842698e-12
3.0818572e-10
3.0900652e-12
3.0508822e-10
3.0974925e-12
3.0198339e-10
3.1048358e-12
2.9900271e-10
2.9806768e-12
2.9621029e-10
2.7924268e-12
2.9358959e-10
2.6207035e-12
2.9112626e-10
2.4633312e-12
2.8880619e-10
2.3200705e-12
2.866161e-10
2.1900893e-12
2.8454422e-10
2.0718773e-12
2.8258016e-10
1.964066e-12
2.8071462e-10
1.8655368e-12
2.7893929e-10
1.775333e-12
2.7724669e-10
1.6926017e-12
2.7562999e-10
1.6166972e-12
2.7408284e-10
1.5471543e-12
2.7259916e-10
1.4836801e-12
2.7117313e-10
1.4260278e-12
2.6979841e-10
1.3747189e-12
2.6846897e-10
1.3294397e-12
2.6717421e-10
1.2947647e-12
2.6591126e-10
1.2629514e-12
2.6464035e-10
1.2709093e-12
2.6343571e-10
1.2046364e-12
2.620461e-10
1.3896181e-12
8.4119481e-13
2.0345155e-06
2.491076e-11
2.0344874e-06
5.5564606e-11
2.0344539e-06
6.6318092e-11
2.034416e-06
7.4849664e-11
2.0343721e-06
8.6842656e-11
2.0343213e-06
1.0053109e-10
2.0342625e-06
1.1619624e-10
2.0341944e-06
1.3473075e-10
2.0341151e-06
1.5692897e-10
2.0340223e-06
1.8368551e-10
2.033913e-06
2.1620023e-10
2.0337835e-06
2.562979e-10
2.0336286e-06
3.0631243e-10
2.0334413e-06
3.7074472e-10
2.0332121e-06
4.5361985e-10
2.0329238e-06
5.7062026e-10
2.0325594e-06
7.2109714e-10
2.0320608e-06
9.8702783e-10
2.0314164e-06
1.2755395e-09
2.0303401e-06
2.1310599e-09
2.0289869e-06
2.6790028e-09
2.0257233e-06
6.4620027e-09
2.0249745e-06
1.4797334e-09
1.0232982e-06
1.9950537e-06
1.3538893e-08
2.0072424e-06
6.5554585e-09
9.2782659e-09
5.0088077e-09
2.0521631e-09
4.2652264e-09
9.8657346e-10
3.8128714e-09
6.0016588e-10
3.4921923e-09
4.2546266e-10
3.2484791e-09
3.2334749e-10
3.0539262e-09
2.58124e-10
2.8937426e-09
2.1252416e-10
2.7586449e-09
1.7924132e-10
2.642494e-09
1.5410351e-10
2.5411339e-09
1.3447989e-10
2.4516197e-09
1.1876305e-10
2.3717699e-09
1.0594082e-10
2.2999229e-09
9.5323136e-11
2.2347943e-09
8.6409245e-11
2.1753749e-09
7.8834608e-11
2.1208535e-09
7.2336134e-11
2.0705703e-09
6.6712978e-11
2.0239853e-09
6.18063e-11
1.9806487e-09
5.7496614e-11
1.9401823e-09
5.3688427e-11
1.9022678e-09
5.0302781e-11
1.8666327e-09
4.727843e-11
1.833044e-09
4.4563464e-11
1.8013001e-09
4.2115773e-11
1.7712255e-09
3.9901092e-11
1.7426665e-09
3.7890246e-11
1.7154881e-09
3.605848e-11
1.6895714e-09
3.4384501e-11
1.6648115e-09
3.2849732e-11
1.6411149e-09
3.1439077e-11
1.6183974e-09
3.0139964e-11
1.5965837e-09
2.8940834e-11
1.5756062e-09
2.7831513e-11
1.5554035e-09
2.6803461e-11
1.5359202e-09
2.5848917e-11
1.5171066e-09
2.4960559e-11
1.498917e-09
2.4132545e-11
1.4813096e-09
2.336023e-11
1.4642458e-09
2.2638898e-11
1.4476906e-09
2.1964165e-11
1.4316116e-09
2.1332313e-11
1.415979e-09
2.0740104e-11
1.4007652e-09
2.0184468e-11
1.3859451e-09
1.9662191e-11
1.3714952e-09
1.9170902e-11
1.3573935e-09
1.8709005e-11
1.3436194e-09
1.8274452e-11
1.3301536e-09
1.7865211e-11
1.3169785e-09
1.7479656e-11
1.3040773e-09
1.7116324e-11
1.2914341e-09
1.6773937e-11
1.2790343e-09
1.6450941e-11
1.2668645e-09
1.6145922e-11
1.2549115e-09
1.5858251e-11
1.2431628e-09
1.5587227e-11
1.2316066e-09
1.5331785e-11
1.2202318e-09
1.5091074e-11
1.2090279e-09
1.4864362e-11
1.1979848e-09
1.4651018e-11
1.1870929e-09
1.445049e-11
1.1763431e-09
1.4261862e-11
1.165727e-09
1.40845e-11
1.1552362e-09
1.3918394e-11
1.1448623e-09
1.3763175e-11
1.1345976e-09
1.3618255e-11
1.1244347e-09
1.3483297e-11
1.1143662e-09
1.3357983e-11
1.1043851e-09
1.3242069e-11
1.0944845e-09
1.3135195e-11
1.0846581e-09
1.3036921e-11
1.0748992e-09
1.2947207e-11
1.0652015e-09
1.2866095e-11
1.0555586e-09
1.2793364e-11
1.0459643e-09
1.2728827e-11
1.0364125e-09
1.2672422e-11
1.0268972e-09
1.2624115e-11
1.0174123e-09
1.2583715e-11
1.007952e-09
1.2551096e-11
9.9851022e-10
1.2526461e-11
9.8908092e-10
1.2509935e-11
9.79658e-10
1.2501468e-11
9.7023532e-10
1.250115e-11
9.6080673e-10
1.2508972e-11
9.5136624e-10
1.2524761e-11
9.4190798e-10
1.2548324e-11
9.3242696e-10
1.2578515e-11
9.2292341e-10
1.2608393e-11
9.1379979e-10
1.2104296e-11
9.0525228e-10
1.1339933e-11
8.9723031e-10
1.0642678e-11
8.8968995e-10
1.000369e-11
8.8258803e-10
9.4219885e-12
8.7588393e-10
8.8941988e-12
8.6954161e-10
8.4141913e-12
8.6352927e-10
7.9764116e-12
8.5781849e-10
7.5763196e-12
8.5238379e-10
7.2100305e-12
8.4720231e-10
6.8740832e-12
8.4225315e-10
6.5658556e-12
8.3751685e-10
6.2834595e-12
8.3297482e-10
6.0257059e-12
8.2860926e-10
5.7915928e-12
8.2440074e-10
5.5832391e-12
8.2033081e-10
5.3993694e-12
8.1636701e-10
5.2585619e-12
8.1250059e-10
5.1293694e-12
8.086098e-10
5.1617036e-12
8.0492245e-10
4.8919882e-12
8.0066405e-10
5.6480136e-12
3.4099887e-12
2.094708e-06
3.7986943e-11
2.0946788e-06
8.4749672e-11
2.094644e-06
1.0116976e-10
2.0946046e-06
1.1418771e-10
2.094559e-06
1.3248018e-10
2.0945062e-06
1.533559e-10
2.0944451e-06
1.7724339e-10
2.0943744e-06
2.0550351e-10
2.0942919e-06
2.3934698e-10
2.0941955e-06
2.8013699e-10
2.094082e-06
3.297018e-10
2.0939475e-06
3.9082182e-10
2.0937867e-06
4.6705285e-10
2.0935922e-06
5.6525271e-10
2.0933543e-06
6.9155247e-10
2.093055e-06
8.6984627e-10
2.092677e-06
1.0991363e-09
2.0921597e-06
1.5043219e-09
2.0914914e-06
1.9438641e-09
2.0903753e-06
3.2471633e-09
2.0889723e-06
4.0819874e-09
2.0855892e-06
9.8451289e-09
2.0848101e-06
2.2588596e-09
1.0603127e-06
3.019551e-06
2.3409231e-08
3.0441459e-06
1.1359814e-08
2.1327683e-08
8.6795106e-09
4.7324663e-09
7.3907443e-09
2.2753398e-09
6.6066363e-09
1.3842739e-09
6.0507699e-09
9.8132911e-10
5.628311e-09
7.4580631e-10
5.2910672e-09
5.9536782e-10
5.0133982e-09
4.9019316e-10
4.7792132e-09
4.1342636e-10
4.5778709e-09
3.5544579e-10
4.4021668e-09
3.1018394e-10
4.2469967e-09
2.7393322e-10
4.1085786e-09
2.4435893e-10
3.9840323e-09
2.1986938e-10
3.871132e-09
1.9930961e-10
3.7681277e-09
1.8183882e-10
3.6736137e-09
1.6685016e-10
3.5864463e-09
1.538804e-10
3.5056894e-09
1.425632e-10
3.4305631e-09
1.3262287e-10
3.3604123e-09
1.2383927e-10
3.2946848e-09
1.1603031e-10
3.2329086e-09
1.0905459e-10
3.1746796e-09
1.0279248e-10
3.1196486e-09
9.7146828e-11
3.067511e-09
9.2038611e-11
3.0180007e-09
8.7400533e-11
2.9708837e-09
8.3175499e-11
2.9259538e-09
7.9314398e-11
2.8830292e-09
7.5774383e-11
2.8419476e-09
7.2520637e-11
2.8025634e-09
6.9524158e-11
2.764746e-09
6.6758289e-11
2.7283779e-09
6.4199566e-11
2.6933531e-09
6.182829e-11
2.6595754e-09
5.9626558e-11
2.6269585e-09
5.7577487e-11
2.5954235e-09
5.56676e-11
2.5648975e-09
5.3886181e-11
2.5353141e-09
5.2222355e-11
2.5066122e-09
5.0666013e-11
2.4787359e-09
4.9208576e-11
2.4516335e-09
4.7842575e-11
2.425257e-09
4.6560933e-11
2.399563e-09
4.5356235e-11
2.3745109e-09
4.4223011e-11
2.3500623e-09
4.3157581e-11
2.3261815e-09
4.2155221e-11
2.3028355e-09
4.1211245e-11
2.2799932e-09
4.0321902e-11
2.2576257e-09
3.948382e-11
2.2357056e-09
3.8694047e-11
2.2142076e-09
3.7949002e-11
2.1931081e-09
3.7245421e-11
2.1723845e-09
3.6581855e-11
2.152015e-09
3.595669e-11
2.1319793e-09
3.5367464e-11
2.1122582e-09
3.4812218e-11
2.0928333e-09
3.4289263e-11
2.0736872e-09
3.3797141e-11
2.0548031e-09
3.3334584e-11
2.0361654e-09
3.2899475e-11
2.0177596e-09
3.2490352e-11
1.9995708e-09
3.2107196e-11
1.9815848e-09
3.1749152e-11
1.9637882e-09
3.1414866e-11
1.9461679e-09
3.1103558e-11
1.9287114e-09
3.0814499e-11
1.9114064e-09
3.0547123e-11
1.894241e-09
3.0300601e-11
1.877204e-09
3.0073918e-11
1.8602842e-09
2.9866982e-11
1.8434704e-09
2.9679892e-11
1.8267516e-09
2.9512134e-11
1.8101172e-09
2.9363281e-11
1.7935564e-09
2.9233189e-11
1.7770587e-09
2.9121779e-11
1.7606138e-09
2.9028612e-11
1.7442115e-09
2.8953397e-11
1.7278414e-09
2.8896603e-11
1.7114928e-09
2.8858521e-11
1.6951553e-09
2.8839032e-11
1.6788181e-09
2.8838349e-11
1.6624706e-09
2.8856449e-11
1.6461024e-09
2.8892937e-11
1.6297033e-09
2.8947377e-11
1.6132648e-09
2.901711e-11
1.596787e-09
2.9086193e-11
1.5809677e-09
2.7923574e-11
1.566147e-09
2.6160567e-11
1.5522374e-09
2.4552352e-11
1.5391625e-09
2.3078514e-11
1.5268478e-09
2.1736776e-11
1.5152226e-09
2.0519363e-11
1.5042246e-09
1.9412148e-11
1.4937987e-09
1.8402325e-11
1.4838956e-09
1.7479426e-11
1.4744711e-09
1.6634493e-11
1.4654857e-09
1.5859544e-11
1.456903e-09
1.5148534e-11
1.4486894e-09
1.4497109e-11
1.4408125e-09
1.3902528e-11
1.4332417e-09
1.3362481e-11
1.425943e-09
1.2881859e-11
1.4188847e-09
1.245772e-11
1.4120103e-09
1.2132918e-11
1.4053048e-09
1.1834932e-11
1.3985569e-09
1.1909567e-11
1.392162e-09
1.1286855e-11
1.3847736e-09
1.3036492e-11
7.8607094e-12
2.1861164e-06
5.1779721e-11
2.1860856e-06
1.1555155e-10
2.1860488e-06
1.3796988e-10
2.1860073e-06
1.5572771e-10
2.1859591e-06
1.8066891e-10
2.1859033e-06
2.0912785e-10
2.1858389e-06
2.4168795e-10
2.1857642e-06
2.8020367e-10
2.1856772e-06
3.263243e-10
2.1855754e-06
3.8190641e-10
2.1854557e-06
4.4943972e-10
2.1853138e-06
5.3271059e-10
2.1851443e-06
6.3656074e-10
2.1849392e-06
7.7032872e-10
2.1846884e-06
9.423606e-10
2.1843731e-06
1.1851935e-09
2.1839748e-06
1.4974533e-09
2.1834299e-06
2.0492123e-09
2.1827261e-06
2.6476752e-09
2.1815511e-06
4.4220838e-09
2.1800743e-06
5.558808e-09
2.1765141e-06
1.340537e-08
2.1756903e-06
3.0825974e-09
1.1138239e-06
4.0814174e-06
3.4632233e-08
4.1233376e-06
1.6842555e-08
3.9117361e-08
1.2868124e-08
8.7068969e-09
1.0956872e-08
4.186592e-09
9.7938533e-09
2.5472927e-09
8.9693629e-09
1.8058195e-09
8.3427362e-09
1.372433e-09
7.8425038e-09
1.0956002e-09
7.4306339e-09
9.0206305e-10
7.0832615e-09
7.6079882e-10
6.7846033e-09
6.5410391e-10
6.5239733e-09
5.7081402e-10
6.2938001e-09
5.0410642e-10
6.0884744e-09
4.496846e-10
5.9037242e-09
4.0461953e-10
5.7362479e-09
3.6678591e-10
5.5834502e-09
3.3463654e-10
5.4432457e-09
3.0705468e-10
5.3139382e-09
2.8318789e-10
5.1941393e-09
2.6236214e-10
5.0826922e-09
2.4406991e-10
4.9786252e-09
2.2790634e-10
4.8811191e-09
2.1353632e-10
4.7894743e-09
2.0069947e-10
4.7030909e-09
1.8917585e-10
4.6214511e-09
1.7878661e-10
4.5441034e-09
1.6938633e-10
4.4706527e-09
1.6085118e-10
4.4007521e-09
1.5307611e-10
4.3340958e-09
1.4597074e-10
4.2704139e-09
1.3945623e-10
4.2094661e-09
1.3346851e-10
4.151036e-09
1.279542e-10
4.0949301e-09
1.2286426e-10
4.0409741e-09
1.1815551e-10
3.9890107e-09
1.137917e-10
3.9388974e-09
1.0973988e-10
3.8905059e-09
1.0596899e-10
3.8437193e-09
1.0245423e-10
3.7984296e-09
9.9175881e-11
3.754538e-09
9.6113925e-11
3.7119542e-09
9.3249764e-11
3.6705952e-09
9.056761e-11
3.6303841e-09
8.8053721e-11
3.5912499e-09
8.5695071e-11
3.5531281e-09
8.3478017e-11
3.5159587e-09
8.1392494e-11
3.4796845e-09
7.9431729e-11
3.4442527e-09
7.7587027e-11
3.4096142e-09
7.5849767e-11
3.375723e-09
7.4213047e-11
3.3425362e-09
7.2670663e-11
3.3100131e-09
7.1217181e-11
3.2781161e-09
6.9846009e-11
3.2468103e-09
6.8551145e-11
3.2160623e-09
6.7329921e-11
3.1858396e-09
6.6179368e-11
3.1561121e-09
6.5094953e-11
3.1268512e-09
6.4073072e-11
3.0980299e-09
6.311062e-11
3.0696221e-09
6.2204912e-11
3.0416031e-09
6.1353613e-11
3.0139497e-09
6.0552829e-11
2.9866402e-09
5.979987e-11
2.9596527e-09
5.9094704e-11
2.9329661e-09
5.8435753e-11
2.9065604e-09
5.7820529e-11
2.8804164e-09
5.7247594e-11
2.8545153e-09
5.6715611e-11
2.8288389e-09
5.6223536e-11
2.8033696e-09
5.5769842e-11
2.7780909e-09
5.5352663e-11
2.752986e-09
5.4971835e-11
2.7280384e-09
5.4627536e-11
2.7032317e-09
5.4318821e-11
2.6785501e-09
5.4044904e-11
2.6539778e-09
5.3805523e-11
2.629499e-09
5.3600532e-11
2.6050985e-09
5.3429125e-11
2.5807611e-09
5.3290765e-11
2.5564714e-09
5.3186321e-11
2.5322136e-09
5.3116327e-11
2.5079721e-09
5.3080566e-11
2.483731e-09
5.3079433e-11
2.4594745e-09
5.3112888e-11
2.4351873e-09
5.3180209e-11
2.410854e-09
5.328062e-11
2.386462e-09
5.3409186e-11
2.3620114e-09
5.3536722e-11
2.3385375e-09
5.1397462e-11
2.3165449e-09
4.8153179e-11
2.2959035e-09
4.5193755e-11
2.2765005e-09
4.248156e-11
2.2582249e-09
4.0012379e-11
2.2409723e-09
3.7771932e-11
2.2246502e-09
3.573424e-11
2.2091768e-09
3.3875752e-11
2.194479e-09
3.2177216e-11
2.1804913e-09
3.0622153e-11
2.167155e-09
2.919588e-11
2.1544163e-09
2.7887277e-11
2.142225e-09
2.6688334e-11
2.1305335e-09
2.5594012e-11
2.119296e-09
2.4600065e-11
2.1084623e-09
2.3715499e-11
2.0979851e-09
2.2934909e-11
2.0877809e-09
2.2337158e-11
2.077827e-09
2.1788851e-11
2.0678102e-09
2.192636e-11
2.058317e-09
2.0779996e-11
2.047347e-09
2.4006503e-11
1.4464917e-11
2.3101029e-06
6.6541538e-11
2.3100699e-06
1.4854023e-10
2.3100305e-06
1.7740573e-10
2.309986e-06
2.0024644e-10
2.3099343e-06
2.3230878e-10
2.3098746e-06
2.6888654e-10
2.3098055e-06
3.1072837e-10
2.3097255e-06
3.6021656e-10
2.3096324e-06
4.1946914e-10
2.3095234e-06
4.9086951e-10
2.3093952e-06
5.7761361e-10
2.3092434e-06
6.8456178e-10
2.309062e-06
8.1792823e-10
2.3088427e-06
9.8969973e-10
2.3085744e-06
1.2105848e-09
2.3082373e-06
1.5223467e-09
2.3078115e-06
1.9231982e-09
2.3072293e-06
2.6314289e-09
2.3064775e-06
3.3994842e-09
2.305223e-06
5.6765541e-09
2.3036463e-06
7.1354939e-09
2.2998466e-06
1.7205132e-08
2.2989625e-06
3.9667159e-09
1.1849746e-06
5.1954052e-06
4.7867522e-08
5.2604447e-06
2.333103e-08
6.3653852e-08
1.782442e-08
1.4213507e-08
1.5176011e-08
6.835001e-09
1.3564125e-08
4.1591794e-09
1.2421404e-08
2.9485397e-09
1.1552892e-08
2.2409458e-09
1.0859554e-08
1.7889378e-09
1.0288681e-08
1.4729362e-09
9.8071986e-09
1.2422811e-09
9.3932332e-09
1.0680693e-09
9.0319737e-09
9.3207347e-10
8.7129267e-09
8.2315345e-10
8.4283177e-09
7.3429357e-10
8.1722261e-09
6.6071118e-10
7.9400758e-09
5.9893623e-10
7.7282699e-09
5.4644245e-10
7.5339181e-09
5.0140642e-10
7.3546698e-09
4.6243626e-10
7.1886004e-09
4.2843151e-10
7.034107e-09
3.9856331e-10
6.8898425e-09
3.7217083e-10
6.7546719e-09
3.4870694e-10
6.6276251e-09
3.2774627e-10
6.5078711e-09
3.0892987e-10
6.394692e-09
2.9196567e-10
6.2874621e-09
2.7661624e-10
6.1856339e-09
2.626794e-10
6.0887264e-09
2.4998362e-10
5.9963157e-09
2.3838135e-10
5.9080281e-09
2.2774384e-10
5.8235302e-09
2.1796647e-10
5.7425223e-09
2.0896211e-10
5.6647359e-09
2.0065066e-10
5.5899297e-09
1.9296163e-10
5.5178856e-09
1.8583583e-10
5.448406e-09
1.7921947e-10
5.3813132e-09
1.7306183e-10
5.316445e-09
1.673224e-10
5.2536519e-09
1.6196899e-10
5.1927969e-09
1.5696892e-10
5.1337548e-09
1.5229182e-10
5.0764105e-09
1.4791192e-10
5.0206575e-09
1.4380678e-10
4.9663974e-09
1.3995512e-10
4.9135408e-09
1.3633467e-10
4.8620043e-09
1.32929e-10
4.8117089e-09
1.2972705e-10
4.7625814e-09
1.2671461e-10
4.7145535e-09
1.2387762e-10
4.6675618e-09
1.212048e-10
4.6215464e-09
1.1868603e-10
4.5764511e-09
1.1631243e-10
4.5322239e-09
1.1407323e-10
4.4888164e-09
1.1195864e-10
4.4461821e-09
1.099643e-10
4.4042761e-09
1.0808537e-10
4.3630566e-09
1.0631444e-10
4.322484e-09
1.0464563e-10
4.2825208e-09
1.0307386e-10
4.2431309e-09
1.0159476e-10
4.20428e-09
1.0020452e-10
4.1659361e-09
9.8896761e-11
4.1280688e-09
9.7667109e-11
4.090648e-09
9.6515509e-11
4.0536444e-09
9.5439385e-11
4.0170303e-09
9.4434672e-11
3.9807788e-09
9.3499025e-11
3.9448642e-09
9.2630261e-11
3.909261e-09
9.1826677e-11
3.8739451e-09
9.1085776e-11
3.8388933e-09
9.0404513e-11
3.8040825e-09
8.9782627e-11
3.7694896e-09
8.9220409e-11
3.7350921e-09
8.8716311e-11
3.700868e-09
8.8269056e-11
3.6667953e-09
8.7878217e-11
3.6328522e-09
8.7543557e-11
3.5990176e-09
8.7263756e-11
3.5652704e-09
8.7037946e-11
3.5315892e-09
8.6867549e-11
3.4979521e-09
8.6753439e-11
3.4643374e-09
8.6695264e-11
3.4307231e-09
8.6693676e-11
3.3970874e-09
8.6748617e-11
3.3634087e-09
8.6858913e-11
3.329666e-09
8.7023355e-11
3.2958414e-09
8.7233802e-11
3.2619352e-09
8.74429e-11
3.2293824e-09
8.3950233e-11
3.1988827e-09
7.8652858e-11
3.1702559e-09
7.3820629e-11
3.1433455e-09
6.9391968e-11
3.1179979e-09
6.5359955e-11
3.0940685e-09
6.1701314e-11
3.0714291e-09
5.8373678e-11
3.0499662e-09
5.5338623e-11
3.0295787e-09
5.2564731e-11
3.0101757e-09
5.0025108e-11
2.9916758e-09
4.7695787e-11
2.9740045e-09
4.5558621e-11
2.9570923e-09
4.3600544e-11
2.9408729e-09
4.1813332e-11
2.9252829e-09
4.0190065e-11
2.910253e-09
3.8745464e-11
2.8957172e-09
3.747072e-11
2.8815597e-09
3.6494612e-11
2.8677491e-09
3.5599465e-11
2.853851e-09
3.5824415e-11
2.8406786e-09
3.3952422e-11
2.8254559e-09
3.9229269e-11
2.3626202e-11
2.4685152e-06
8.255415e-11
2.4684793e-06
1.8435359e-10
2.4684365e-06
2.2024824e-10
2.4683881e-06
2.4861543e-10
2.468332e-06
2.8840923e-10
2.4682671e-06
3.3379754e-10
2.4681921e-06
3.8570753e-10
2.4681053e-06
4.4709354e-10
2.4680042e-06
5.2058111e-10
2.4678859e-06
6.0912366e-10
2.4677468e-06
7.1668101e-10
2.4675821e-06
8.4927512e-10
2.4673854e-06
1.0146042e-09
2.4671476e-06
1.2275189e-09
2.4668569e-06
1.5012799e-09
2.4664916e-06
1.887628e-09
2.4660305e-06
2.3843146e-09
2.4654002e-06
3.2617668e-09
2.4645865e-06
4.2131571e-09
2.4632296e-06
7.0335084e-09
2.4615242e-06
8.8408298e-09
2.457416e-06
2.1313323e-08
2.4564538e-06
4.9289764e-09
1.2752274e-06
6.3766316e-06
6.3888954e-08
6.4717832e-06
3.1212518e-08
9.6330288e-08
2.3843816e-08
2.1582209e-08
2.0299307e-08
1.037951e-08
1.8141563e-08
6.3169226e-09
1.6611835e-08
4.4782678e-09
1.5449137e-08
3.4036443e-09
1.4520933e-08
2.7171418e-09
1.3756663e-08
2.2372065e-09
1.3112056e-08
1.8868875e-09
1.2557833e-08
1.6222926e-09
1.2074166e-08
1.4157405e-09
1.1647008e-08
1.2503117e-09
1.1265951e-08
1.1153502e-09
1.092307e-08
1.003592e-09
1.0612239e-08
9.0976683e-10
1.0328644e-08
8.3003793e-10
1.0068415e-08
7.6163572e-10
9.8284046e-09
7.0244632e-10
9.6060377e-09
6.5079842e-10
9.3991681e-09
6.0543289e-10
9.2059926e-09
5.6534641e-10
9.0249916e-09
5.2970794e-10
8.8548666e-09
4.9787123e-10
8.6945051e-09
4.6929135e-10
8.5429462e-09
4.4352459e-10
8.3993521e-09
4.2021034e-10
8.2629899e-09
3.9904159e-10
8.1332158e-09
3.7975778e-10
8.0094623e-09
3.6213483e-10
7.8912289e-09
3.4597721e-10
7.7780694e-09
3.3112599e-10
7.6695827e-09
3.1744883e-10
7.5654092e-09
3.0482413e-10
7.4652261e-09
2.9314478e-10
7.368741e-09
2.8232089e-10
7.2756897e-09
2.7227078e-10
7.1858341e-09
2.6291741e-10
7.0989573e-09
2.5419925e-10
7.0148589e-09
2.460674e-10
6.9333555e-09
2.3847224e-10
6.8542797e-09
2.3136764e-10
6.7774772e-09
2.2471446e-10
6.7028054e-09
2.184786e-10
6.6301327e-09
2.1262776e-10
6.5593393e-09
2.0712811e-10
6.4903136e-09
2.019547e-10
6.4229499e-09
1.9709071e-10
6.35715e-09
1.9251459e-10
6.2928226e-09
1.8820497e-10
6.2298827e-09
1.8414471e-10
6.1682503e-09
1.8031845e-10
6.10785e-09
1.767127e-10
6.0486121e-09
1.733111e-10
5.990472e-09
1.7009878e-10
5.9333672e-09
1.6706913e-10
5.8772377e-09
1.6421479e-10
5.8220277e-09
1.615245e-10
5.767684e-09
1.5898933e-10
5.7141562e-09
1.5660159e-10
5.6613964e-09
1.5435462e-10
5.6093583e-09
1.5224262e-10
5.5579991e-09
1.5025592e-10
5.5072783e-09
1.4838788e-10
5.4571554e-09
1.4663843e-10
5.4075912e-09
1.4500363e-10
5.3585485e-09
1.4347732e-10
5.3099916e-09
1.4205594e-10
5.2618857e-09
1.4073617e-10
5.214197e-09
1.3951544e-10
5.1668928e-09
1.3838993e-10
5.1199423e-09
1.3735504e-10
5.0733145e-09
1.3641038e-10
5.0269786e-09
1.3555638e-10
4.9809042e-09
1.3479069e-10
4.9350618e-09
1.3411139e-10
4.8894222e-09
1.3351781e-10
4.8439562e-09
1.3300962e-10
4.7986352e-09
1.3258479e-10
4.7534311e-09
1.3224202e-10
4.7083151e-09
1.3198349e-10
4.6632581e-09
1.3181051e-10
4.6182308e-09
1.3172256e-10
4.5732038e-09
1.3172064e-10
4.5281477e-09
1.3180469e-10
4.4830337e-09
1.3197292e-10
4.4378335e-09
1.3222361e-10
4.392523e-09
1.3254424e-10
4.3471025e-09
1.3286344e-10
4.3034934e-09
1.275593e-10
4.2626329e-09
1.1951334e-10
4.2242797e-09
1.1217391e-10
4.1882244e-09
1.0544722e-10
4.1542617e-09
9.9322674e-11
4.122198e-09
9.3765027e-11
4.0918616e-09
8.8710014e-11
4.0631009e-09
8.4099332e-11
4.0357804e-09
7.98853e-11
4.0097784e-09
7.6027092e-11
3.9849858e-09
7.2488325e-11
3.961303e-09
6.9241455e-11
3.9386369e-09
6.6266653e-11
3.9168988e-09
6.3551445e-11
3.8960035e-09
6.1085342e-11
3.8758582e-09
5.8890736e-11
3.8563747e-09
5.6954282e-11
3.8373977e-09
5.5471598e-11
3.8188848e-09
5.4112328e-11
3.8002543e-09
5.4454899e-11
3.7825949e-09
5.1611899e-11
3.7621862e-09
5.9637892e-11
3.590548e-11
2.6637138e-06
1.0013772e-10
2.6636744e-06
2.2371873e-10
2.6636273e-06
2.6737831e-10
2.6635741e-06
3.0183089e-10
2.6635124e-06
3.5012368e-10
2.663441e-06
4.0519206e-10
2.6633585e-06
4.6815823e-10
2.663263e-06
5.4260405e-10
2.6631519e-06
6.3171125e-10
2.663022e-06
7.3905731e-10
2.6628692e-06
8.6943808e-10
2.6626883e-06
1.0301469e-09
2.6624724e-06
1.2305052e-09
2.6622114e-06
1.488498e-09
2.6618925e-06
1.8201751e-09
2.661492e-06
2.2881946e-09
2.6609865e-06
2.8897844e-09
2.6602959e-06
3.9524148e-09
2.6594047e-06
5.1043304e-09
2.6579194e-06
8.5187552e-09
2.6560531e-06
1.0707198e-08
2.6515591e-06
2.5807337e-08
2.6504983e-06
5.9897622e-09
1.3864085e-06
7.6407214e-06
8.3628684e-08
7.774563e-06
4.0957296e-08
1.3900168e-07
3.1284934e-08
3.1254571e-08
2.6631539e-08
1.5032906e-08
2.379805e-08
9.150411e-09
2.17892e-08
6.4871185e-09
2.0262265e-08
4.9305792e-09
1.9043256e-08
3.9361505e-09
1.8039517e-08
3.2409456e-09
1.7192919e-08
2.7334856e-09
1.6465013e-08
2.3501988e-09
1.5829762e-08
2.0509914e-09
1.5268719e-08
1.8113545e-09
1.4768218e-08
1.6158514e-09
1.4317851e-08
1.4539593e-09
1.3909573e-08
1.3180445e-09
1.3537062e-08
1.2025491e-09
1.3195237e-08
1.103461e-09
1.2879965e-08
1.0177181e-09
1.2587863e-08
9.4289961e-10
1.2316115e-08
8.7718156e-10
1.2062351e-08
8.1911059e-10
1.1824576e-08
7.6748286e-10
1.1601085e-08
7.2136224e-10
1.1390417e-08
6.7995949e-10
1.1191309e-08
6.4263172e-10
1.1002663e-08
6.0885662e-10
1.0823515e-08
5.7818949e-10
1.065302e-08
5.5025291e-10
1.0490433e-08
5.2472228e-10
1.0335096e-08
5.0131435e-10
1.0186423e-08
4.7979887e-10
1.0043887e-08
4.5998417e-10
9.9070174e-09
4.4169408e-10
9.7753887e-09
4.2477348e-10
9.6486174e-09
4.0909214e-10
9.5263565e-09
3.9453173e-10
9.4082932e-09
3.8098066e-10
9.2941427e-09
3.6834979e-10
9.1836418e-09
3.5656828e-10
9.0765497e-09
3.4556427e-10
8.9726465e-09
3.3527093e-10
8.8717294e-09
3.2563155e-10
8.7736112e-09
3.1659675e-10
8.6781192e-09
3.0811972e-10
8.5850959e-09
3.0015147e-10
8.4943947e-09
2.9265584e-10
8.405877e-09
2.8560849e-10
8.3194134e-09
2.7897817e-10
8.2348844e-09
2.7273395e-10
8.1521781e-09
2.66851e-10
8.0711895e-09
2.6130706e-10
7.9918196e-09
2.5608259e-10
7.9139768e-09
2.5115388e-10
7.8375762e-09
2.4649939e-10
7.7625358e-09
2.4210958e-10
7.6887768e-09
2.3797375e-10
7.6162257e-09
2.3407561e-10
7.5448128e-09
2.3040223e-10
7.474472e-09
2.2694245e-10
7.40514e-09
2.2368663e-10
7.3367562e-09
2.2062637e-10
7.2692645e-09
2.1774766e-10
7.2026115e-09
2.1504088e-10
7.136744e-09
2.1250594e-10
7.0716105e-09
2.1013714e-10
7.0071622e-09
2.0792554e-10
6.9433522e-09
2.0586601e-10
6.8801346e-09
2.0395373e-10
6.8174651e-09
2.0218496e-10
6.7553008e-09
2.0055419e-10
6.6936011e-09
1.9905474e-10
6.6323255e-09
1.9768607e-10
6.571433e-09
1.9644881e-10
6.5108842e-09
1.9533955e-10
6.4506401e-09
1.943555e-10
6.3906621e-09
1.9349572e-10
6.330912e-09
1.9275972e-10
6.2713523e-09
1.9214456e-10
6.2119459e-09
1.9164837e-10
6.1526551e-09
1.9127432e-10
6.0934413e-09
1.9102434e-10
6.0342662e-09
1.9089765e-10
5.9750911e-09
1.9089575e-10
5.9158772e-09
1.9101856e-10
5.8565866e-09
1.9126351e-10
5.7971819e-09
1.9162831e-10
5.7376316e-09
1.9209452e-10
5.6779353e-09
1.9255974e-10
5.6206174e-09
1.848772e-10
5.5669093e-09
1.7322152e-10
5.5164938e-09
1.6258939e-10
5.4690965e-09
1.5284449e-10
5.4244478e-09
1.4397136e-10
5.3822937e-09
1.359191e-10
5.342409e-09
1.2859478e-10
5.3045943e-09
1.2191404e-10
5.2686717e-09
1.1580786e-10
5.2344817e-09
1.1021715e-10
5.2018807e-09
1.0508924e-10
5.1707379e-09
1.0038425e-10
5.1409311e-09
9.60735e-11
5.1123436e-09
9.2138941e-11
5.0848635e-09
8.8565415e-11
5.0583688e-09
8.5385424e-11
5.0327434e-09
8.2579699e-11
5.0077834e-09
8.0431665e-11
4.9834325e-09
7.8463207e-11
4.9589262e-09
7.8961204e-11
4.9356943e-09
7.4843745e-11
4.9088463e-09
8.6485957e-11
5.2056172e-11
2.8986077e-06
1.1966183e-10
2.898564e-06
2.6747764e-10
2.8985115e-06
3.1981885e-10
2.8984523e-06
3.6105e-10
2.8983837e-06
4.1879151e-10
2.8983042e-06
4.8461511e-10
2.8982125e-06
5.5985832e-10
2.8981063e-06
6.4879894e-10
2.8979828e-06
7.5523483e-10
2.8978384e-06
8.8343402e-10
2.8976688e-06
1.0391172e-09
2.8974679e-06
1.2309838e-09
2.8972283e-06
1.4701503e-09
2.8969387e-06
1.7780675e-09
2.896585e-06
2.1738654e-09
2.8961409e-06
2.7322754e-09
2.8955808e-06
3.4499222e-09
2.8948159e-06
4.7173483e-09
2.8938293e-06
6.0909088e-09
2.8921863e-06
1.0161779e-08
2.8901219e-06
1.2771581e-08
2.8851538e-06
3.0775396e-08
2.8839707e-06
7.1728946e-09
1.5207607e-06
9.0039314e-06
1.082297e-07
9.187094e-06
5.3146659e-08
1.9408472e-07
4.0590915e-08
4.3810315e-08
3.4549195e-08
2.1074625e-08
3.0869312e-08
1.2830294e-08
2.8260309e-08
9.0961211e-09
2.627709e-08
6.9137988e-09
2.4693768e-08
5.5194723e-09
2.3390014e-08
4.5446996e-09
2.2290344e-08
3.8331557e-09
2.1344825e-08
3.2957175e-09
2.0519643e-08
2.8761732e-09
1.979084e-08
2.5401575e-09
1.9140667e-08
2.2660247e-09
1.8555607e-08
2.0390197e-09
1.8025212e-08
1.8484391e-09
1.7541271e-08
1.6864898e-09
1.7097186e-08
1.5475462e-09
1.6687589e-08
1.4273148e-09
1.6308088e-08
1.3224011e-09
1.5955022e-08
1.2302479e-09
1.5625315e-08
1.1488173e-09
1.5316377e-08
1.0764211e-09
1.5025992e-08
1.011747e-09
1.4752263e-08
9.5368826e-10
1.4493551e-08
9.0134339e-10
1.4248428e-08
8.5398007e-10
1.4015643e-08
8.1097478e-10
1.3794097e-08
7.717983e-10
1.3582824e-08
7.3599556e-10
1.3380969e-08
7.0316933e-10
1.3187771e-08
6.7299671e-10
1.3002546e-08
6.4520899e-10
1.2824681e-08
6.1955917e-10
1.2653625e-08
5.9582973e-10
1.2488879e-08
5.7383804e-10
1.2329993e-08
5.5341822e-10
1.217656e-08
5.3441376e-10
1.202821e-08
5.166997e-10
1.1884601e-08
5.0017666e-10
1.1745422e-08
4.8474392e-10
1.1610385e-08
4.7030776e-10
1.1479228e-08
4.5678867e-10
1.1351707e-08
4.4411739e-10
1.1227599e-08
4.3222829e-10
1.1106697e-08
4.2105265e-10
1.0988813e-08
4.1053982e-10
1.0873766e-08
4.0065562e-10
1.0761388e-08
3.9135627e-10
1.0651524e-08
3.8259836e-10
1.0544028e-08
3.7434712e-10
1.0438763e-08
3.6657129e-10
1.0335602e-08
3.5924351e-10
1.0234426e-08
3.5233048e-10
1.0135123e-08
3.4580203e-10
1.0037588e-08
3.396448e-10
9.941718e-09
3.3384379e-10
9.8474175e-09
3.2837612e-10
9.7545961e-09
3.2322367e-10
9.6631677e-09
3.1837082e-10
9.5730503e-09
3.1380404e-10
9.4841651e-09
3.0951155e-10
9.3964391e-09
3.0547368e-10
9.309803e-09
3.0167696e-10
9.2241876e-09
2.9812131e-10
9.139526e-09
2.9479871e-10
9.055755e-09
2.9169661e-10
8.9728131e-09
2.8880782e-10
8.8906413e-09
2.8612562e-10
8.8091815e-09
2.8364475e-10
8.7283782e-09
2.8135745e-10
8.6481786e-09
2.7925438e-10
8.5685298e-09
2.7733484e-10
8.4893789e-09