/*--------------------------------*- C++ -*----------------------------------*\
| =========                 |                                                 |
| \\      /  F ield         | OpenFOAM: The Open Source CFD Toolbox           |
|  \\    /   O peration     | Version:  2206                                  |
|   \\  /    A nd           | Website:  www.openfoam.com                      |
|    \\/     M anipulation  |                                                 |
\*---------------------------------------------------------------------------*/
FoamFile
{
    version     2.0;
    format      ascii;
    arch        "LSB;label=32;scalar=64";
    class       volVectorField;
    location    "800";
    object      U;
}
// * * * * * * * * * * * * * * * * * * * * * * * * * * * * * * * * * * * * * //

dimensions      [0 1 -1 0 0 0 0];

internalField   nonuniform List<vector> 
13056
(
(1 1.5336086e-10 4.1833233e-25)
(0.99998844 3.8814382e-10 0)
(0.99997284 5.2559142e-10 0)
(0.99995582 6.7298517e-10 0)
(0.99993609 8.8558262e-10 0)
(0.99991317 1.1622279e-09 0)
(0.99988671 1.5220701e-09 0)
(0.9998561 1.9982289e-09 0)
(0.99982053 2.6327532e-09 0)
(0.99977902 3.4816683e-09 0)
(0.9997303 4.6228044e-09 0)
(0.99967281 6.16993e-09 0)
(0.9996044 8.2814567e-09 0)
(0.99952232 1.1221848e-08 0)
(0.99942225 1.5311732e-08 0)
(0.99929938 2.1375054e-08 0)
(0.99914193 2.9797011e-08 0)
(0.99894466 4.4665178e-08 0)
(0.99865749 6.2659128e-08 0)
(0.99831543 1.1248652e-07 0)
(0.99761397 1.5012541e-07 0)
(0.99698628 3.7936825e-07 0)
(0.99444863 9.009676e-08 -4.7808713e-21)
(0.99620365 0.00012410778 7.8324364e-18)
(0.003175976 0.0001245056 0)
(0.001242415 6.4777959e-08 -1.0419878e-20)
(0.00089372936 4.5833108e-08 3.3828219e-18)
(0.00073888324 5.2247818e-09 0)
(0.000651553 3.1534213e-09 0)
(0.00059153241 2.2157411e-09 0)
(0.00054707637 1.6689721e-09 0)
(0.00051212328 1.319963e-09 0)
(0.00048368041 1.0763402e-09 0)
(0.00045992415 8.9882145e-10 0)
(0.00043965422 7.6493734e-10 0)
(0.00042207119 6.6057718e-10 0)
(0.00040662064 5.7713403e-10 0)
(0.00039289771 5.0917205e-10 0)
(0.00038059644 4.5298328e-10 0)
(0.00036948141 4.0588359e-10 0)
(0.00035936961 3.6592239e-10 0)
(0.00035011514 3.3168863e-10 0)
(0.00034159958 3.0210656e-10 0)
(0.00033372637 2.7632717e-10 0)
(0.00032641611 2.5371689e-10 -3.4131966e-25)
(0.00031960153 2.3375811e-10 0)
(0.00031322674 2.1603018e-10 0)
(0.00030724385 2.0021359e-10 0)
(0.00030161199 1.8602691e-10 0)
(0.00029629603 1.7324722e-10 0)
(0.00029126546 1.6169177e-10 0)
(0.00028649355 1.5120531e-10 0)
(0.00028195695 1.4165637e-10 0)
(0.00027763503 1.3293244e-10 0)
(0.00027350965 1.249359e-10 0)
(0.00026956476 1.1758649e-10 0)
(0.00026578592 1.1081677e-10 0)
(0.00026216016 1.0456567e-10 0)
(0.0002586759 9.8779653e-11 0)
(0.00025532266 9.3413263e-11 0)
(0.00025209095 8.8425695e-11 0)
(0.0002489722 8.3779335e-11 0)
(0.00024595872 7.9443249e-11 0)
(0.00024304338 7.5391775e-11 0)
(0.00024021962 7.1600018e-11 0)
(0.00023748148 6.8045261e-11 0)
(0.00023482347 6.4707846e-11 0)
(0.00023224055 6.1570434e-11 0)
(0.00022972802 5.8616935e-11 0)
(0.00022728158 5.5831564e-11 0)
(0.00022489735 5.3201746e-11 0)
(0.00022257161 5.0717553e-11 0)
(0.00022030084 4.8368178e-11 0)
(0.00021808183 4.6143407e-11 0)
(0.00021591159 4.4034547e-11 0)
(0.00021378729 4.2033694e-11 0)
(0.00021170629 4.0133766e-11 0)
(0.0002096661 3.8327284e-11 0)
(0.00020766443 3.6607544e-11 0)
(0.00020569916 3.4970004e-11 0)
(0.00020376815 3.340999e-11 0)
(0.00020186944 3.1922271e-11 0)
(0.00020000117 3.0502368e-11 0)
(0.00019816157 2.9146232e-11 0)
(0.00019634898 2.7850188e-11 0)
(0.00019456178 2.6610878e-11 0)
(0.00019279843 2.5424407e-11 0)
(0.00019105754 2.4287664e-11 0)
(0.00018933774 2.3198747e-11 0)
(0.00018763763 2.2155119e-11 0)
(0.00018595594 2.1154051e-11 0)
(0.00018429141 2.0193354e-11 0)
(0.00018264283 1.9270954e-11 0)
(0.00018100906 1.838498e-11 0)
(0.00017938893 1.7533449e-11 0)
(0.00017778137 1.6714421e-11 0)
(0.00017618534 1.5926589e-11 0)
(0.00017459978 1.5168721e-11 0)
(0.00017302364 1.4439323e-11 0)
(0.00017145589 1.3737032e-11 0)
(0.00016989555 1.3060674e-11 0)
(0.00016834161 1.2409145e-11 0)
(0.00016679307 1.1781224e-11 0)
(0.00016524899 1.1175837e-11 0)
(0.00016370839 1.059226e-11 0)
(0.00016217028 1.0029677e-11 0)
(0.00016063366 9.4871676e-12 0)
(0.00015909753 8.9639743e-12 0)
(0.00015756088 8.4592954e-12 0)
(0.00015602272 7.9722642e-12 0)
(0.00015448207 7.5021582e-12 0)
(0.00015293798 7.0475811e-12 0)
(0.00015138977 6.6047474e-12 0)
(0.00014987307 6.181821e-12 0)
(0.00014843546 5.7934807e-12 0)
(0.00014708713 5.4392294e-12 0)
(0.00014582084 5.1143899e-12 0)
(0.00014462952 4.8184744e-12 0)
(0.00014350616 4.5498413e-12 0)
(0.00014244451 4.3054235e-12 0)
(0.00014143909 4.0824344e-12 0)
(0.00014048501 3.8785908e-12 0)
(0.00013957788 3.6919315e-12 0)
(0.0001387138 3.5207077e-12 0)
(0.00013788921 3.3636025e-12 0)
(0.00013710085 3.2196692e-12 0)
(0.00013634565 3.0883146e-12 0)
(0.00013562062 2.9690485e-12 0)
(0.00013492294 2.8629746e-12 0)
(0.00013424909 2.7694839e-12 0)
(0.00013359658 2.6980403e-12 0)
(0.00013295733 2.6328848e-12 0)
(0.00013233657 2.6502875e-12 0)
(0.00013168934 1.0409292e-11 0)
(0.00013113517 2.8744204e-12 2.3707217e-24)
(0.00013030029 7.2863314e-12 0)
(1 4.6403426e-10 0)
(0.99998836 1.1747818e-09 0)
(0.99997264 1.5910328e-09 0)
(0.99995549 2.0372561e-09 0)
(0.99993561 2.6807673e-09 0)
(0.99991253 3.5180807e-09 0)
(0.99988587 4.6071224e-09 0)
(0.99985503 6.0480881e-09 0)
(0.99981921 7.9681749e-09 0)
(0.99977739 1.0536845e-08 0)
(0.99972834 1.3989501e-08 0)
(0.99967045 1.8670226e-08 0)
(0.99960157 2.5058088e-08 0)
(0.99951894 3.395285e-08 0)
(0.99941822 4.6324006e-08 0)
(0.99929456 6.4663047e-08 0)
(0.99913612 9.0134097e-08 0)
(0.99893765 1.350968e-07 0)
(0.99864878 1.895075e-07 0)
(0.99830473 3.4016287e-07 0)
(0.99759939 4.5397651e-07 0)
(0.99696817 1.1471156e-06 0)
(0.99441687 2.7076538e-07 1.7092214e-20)
(0.99617924 0.00037301046 -6.6603074e-21)
(0.0095388654 0.00037469979 0)
(0.0037455131 1.2146511e-06 0)
(0.0026943306 2.6162113e-07 2.8271472e-22)
(0.0022275108 1.2416477e-07 0)
(0.0019641652 7.4868028e-08 0)
(0.001783179 5.2596194e-08 0)
(0.0016491219 3.9602082e-08 0)
(0.0015437223 3.1312786e-08 0)
(0.0014579536 2.5528801e-08 0)
(0.0013863172 2.1314482e-08 0)
(0.0013251936 1.8136264e-08 0)
(0.0012721724 1.5659346e-08 0)
(0.0012255815 1.3679168e-08 0)
(0.0011842002 1.2066565e-08 0)
(0.0011471057 1.0733452e-08 0)
(0.0011135882 9.6161089e-09 0)
(0.0010830959 8.6682208e-09 0)
(0.0010551887 7.8562744e-09 0)
(0.0010295097 7.1547233e-09 0)
(0.0010057676 6.5434608e-09 0)
(0.000983723 6.0072995e-09 -4.4079496e-25)
(0.00096317313 5.5341073e-09 0)
(0.00094394937 5.113926e-09 0)
(0.00092590738 4.7389895e-09 0)
(0.00090892388 4.4027497e-09 0)
(0.00089289299 4.0998921e-09 0)
(0.00087772261 3.8260729e-09 0)
(0.00086333226 3.5776078e-09 0)
(0.00084965145 3.3513774e-09 0)
(0.000836618 3.1447111e-09 0)
(0.00082417722 2.955296e-09 0)
(0.00081228069 2.7812282e-09 0)
(0.00080088489 2.6209045e-09 0)
(0.00078995072 2.4728763e-09 0)
(0.0007794432 2.3358744e-09 0)
(0.00076933079 2.2088204e-09 0)
(0.00075958484 2.0907455e-09 0)
(0.00075017955 1.9807595e-09 0)
(0.00074109168 1.8781282e-09 0)
(0.00073229977 1.7822413e-09 0)
(0.00072378402 1.692509e-09 0)
(0.00071552645 1.6083926e-09 0)
(0.00070751054 1.529426e-09 0)
(0.00069972104 1.4551977e-09 0)
(0.00069214382 1.3853268e-09 0)
(0.00068476592 1.3194395e-09 0)
(0.00067757559 1.2572367e-09 0)
(0.00067056163 1.1984823e-09 0)
(0.00066371345 1.1429209e-09 0)
(0.00065702139 1.0903103e-09 0)
(0.00065047636 1.0404442e-09 0)
(0.00064406989 9.9313526e-10 0)
(0.000637794 9.4821531e-10 0)
(0.00063164114 9.0550845e-10 0)
(0.0006256045 8.6485552e-10 0)
(0.00061967757 8.2614677e-10 0)
(0.000613854 7.8927255e-10 0)
(0.00060812782 7.5410945e-10 0)
(0.00060249344 7.2055082e-10 0)
(0.00059694553 6.8850071e-10 0)
(0.00059147906 6.5787208e-10 0)
(0.00058608914 6.285854e-10 0)
(0.00058077116 6.0054917e-10 0)
(0.00057552093 5.7368892e-10 0)
(0.00057033429 5.4795879e-10 0)
(0.00056520704 5.2329957e-10 0)
(0.0005601353 4.9964672e-10 0)
(0.00055511533 4.7694808e-10 0)
(0.00055014349 4.5515464e-10 0)
(0.00054521626 4.3422192e-10 0)
(0.00054033019 4.1410368e-10 0)
(0.00053548203 3.947537e-10 0)
(0.00053066865 3.7614026e-10 0)
(0.00052588682 3.5823474e-10 0)
(0.00052113339 3.4100195e-10 0)
(0.00051640529 3.2440946e-10 0)
(0.00051169951 3.0842947e-10 0)
(0.00050701302 2.9303588e-10 0)
(0.00050234283 2.7820013e-10 0)
(0.00049768607 2.6389666e-10 0)
(0.00049303982 2.5010794e-10 0)
(0.00048840106 2.3681496e-10 0)
(0.00048376678 2.2399603e-10 0)
(0.00047913399 2.1163305e-10 0)
(0.00047449961 1.9970697e-10 0)
(0.00046986066 1.8819744e-10 0)
(0.00046521419 1.7708553e-10 0)
(0.00046055735 1.6634151e-10 0)
(0.00045588806 1.5586895e-10 0)
(0.00045131374 1.4584956e-10 0)
(0.00044697791 1.3663931e-10 0)
(0.0004429113 1.2823767e-10 0)
(0.00043909208 1.2053807e-10 0)
(0.00043549891 1.1352879e-10 0)
(0.00043211069 1.0716913e-10 0)
(0.00042890858 1.0138525e-10 0)
(0.00042587601 9.6110206e-11 0)
(0.00042299827 9.1289296e-11 0)
(0.00042026214 8.68757e-11 0)
(0.0004176558 8.2827717e-11 0)
(0.0004151686 7.9113756e-11 0)
(0.00041279064 7.5711056e-11 0)
(0.00041051267 7.26053e-11 0)
(0.00040832569 6.9784418e-11 0)
(0.0004062212 6.7273943e-11 0)
(0.0004041886 6.5058522e-11 0)
(0.00040222034 6.3362042e-11 0)
(0.00040029206 6.1805575e-11 0)
(0.00039841955 6.2195653e-11 0)
(0.00039646725 5.9200708e-11 0)
(0.00039479546 6.8029481e-11 -3.6710717e-24)
(0.00039227702 4.1301781e-11 2.5117865e-25)
(1 7.8409954e-10 0)
(0.99998826 1.9853611e-09 0)
(0.99997239 2.6892613e-09 0)
(0.99995507 3.4435736e-09 0)
(0.999935 4.5311891e-09 0)
(0.9999117 5.9462429e-09 0)
(0.99988479 7.786572e-09 0)
(0.99985366 1.0221423e-08 0)
(0.99981751 1.3465633e-08 0)
(0.99977532 1.78054e-08 0)
(0.99972582 2.3638264e-08 0)
(0.99966743 3.1545264e-08 0)
(0.99959795 4.233533e-08 0)
(0.99951463 5.7358846e-08 0)
(0.99941307 7.8252577e-08 0)
(0.99928841 1.0922301e-07 0)
(0.99912871 1.5223442e-07 0)
(0.99892871 2.2815305e-07 0)
(0.99863766 3.2001614e-07 0)
(0.9982911 5.7434616e-07 0)
(0.99758082 7.6650049e-07 0)
(0.99694513 1.9366352e-06 0)
(0.99437653 4.5805251e-07 -9.0556705e-21)
(0.99614816 0.00062567741 5.3630814e-55)
(0.016006064 0.00062973386 -5.362472e-55)
(0.0063040612 3.447548e-06 0)
(0.0045347318 7.6135017e-07 -1.4742067e-22)
(0.0037489775 3.6361204e-07 0)
(0.0033056075 2.1926642e-07 0)
(0.0030009046 1.540395e-07 0)
(0.0027752036 1.1598396e-07 0)
(0.0025977514 9.1706609e-08 0)
(0.002453349 7.4767141e-08 0)
(0.0023327393 6.2424556e-08 0)
(0.0022298293 5.3116388e-08 0)
(0.0021405602 4.586219e-08 0)
(0.0020621173 4.0062838e-08 0)
(0.0019924449 3.5340018e-08 0)
(0.0019299899 3.1435736e-08 0)
(0.0018735571 2.816338e-08 0)
(0.0018222174 2.538731e-08 0)
(0.0017752301 2.3009368e-08 0)
(0.001731994 2.0954737e-08 0)
(0.0016920189 1.9164538e-08 0)
(0.0016549017 1.7594269e-08 -4.6612572e-25)
(0.0016203011 1.6208425e-08 -3.9030574e-25)
(0.0015879331 1.4977844e-08 0)
(0.0015575547 1.3879753e-08 0)
(0.0015289585 1.2894997e-08 0)
(0.001501966 1.2008008e-08 0)
(0.0014764224 1.1206061e-08 0)
(0.001452192 1.0478368e-08 0)
(0.0014291563 9.8157936e-09 0)
(0.0014072104 9.2105157e-09 0)
(0.0013862624 8.6557615e-09 0)
(0.0013662308 8.1459549e-09 0)
(0.0013470422 7.6764002e-09 0)
(0.0013286308 7.2428551e-09 0)
(0.0013109378 6.8416028e-09 0)
(0.00129391 6.4694847e-09 0)
(0.0012774992 6.1236642e-09 0)
(0.001261662 5.8015337e-09 0)
(0.0012463592 5.500943e-09 0)
(0.0012315548 5.2201047e-09 0)
(0.0012172153 4.9572916e-09 0)
(0.0012033105 4.7109262e-09 0)
(0.0011898126 4.4796428e-09 0)
(0.0011766959 4.2622372e-09 0)
(0.0011639366 4.057593e-09 0)
(0.001151513 3.8646161e-09 0)
(0.0011394051 3.6824301e-09 0)
(0.0011275942 3.5103437e-09 0)
(0.0011160625 3.3476091e-09 0)
(0.0011047936 3.1935166e-09 0)
(0.0010937723 3.0474621e-09 0)
(0.0010829843 2.9088973e-09 0)
(0.0010724162 2.7773292e-09 0)
(0.0010620552 2.652243e-09 0)
(0.0010518899 2.5331724e-09 0)
(0.0010419093 2.419796e-09 0)
(0.0010321028 2.3117927e-09 0)
(0.0010224603 2.2088009e-09 0)
(0.0010129723 2.1105085e-09 0)
(0.00100363 2.0166344e-09 0)
(0.00099442471 1.9269236e-09 0)
(0.00098534838 1.8411432e-09 0)
(0.00097639319 1.7590253e-09 0)
(0.00096755206 1.6803518e-09 0)
(0.000958818 1.6049883e-09 0)
(0.00095018395 1.5327615e-09 0)
(0.00094164339 1.4634822e-09 0)
(0.00093318998 1.3969978e-09 0)
(0.00092481761 1.3331647e-09 0)
(0.00091652036 1.2718526e-09 0)
(0.00090829242 1.2129261e-09 0)
(0.0009001283 1.1562498e-09 0)
(0.00089202274 1.1017309e-09 0)
(0.00088397031 1.0492855e-09 0)
(0.00087596569 9.9881047e-10 0)
(0.00086800373 9.5021095e-10 0)
(0.00086007933 9.0340545e-10 0)
(0.00085218742 8.5831752e-10 0)
(0.00084432294 8.1486354e-10 0)
(0.00083648106 7.7296864e-10 0)
(0.00082865686 7.3258144e-10 0)
(0.00082084526 6.9364634e-10 0)
(0.00081304119 6.5609972e-10 0)
(0.00080523962 6.1988862e-10 0)
(0.00079743534 5.8495726e-10 0)
(0.00078962335 5.5124603e-10 0)
(0.00078179866 5.1869962e-10 0)
(0.00077395647 4.8723065e-10 0)
(0.00076609327 4.5655776e-10 0)
(0.00075838992 4.2721359e-10 0)
(0.00075108806 4.0023958e-10 0)
(0.00074423946 3.7563384e-10 0)
(0.00073780736 3.5308397e-10 0)
(0.00073175587 3.3255549e-10 0)
(0.00072604944 3.1392925e-10 0)
(0.00072065638 2.9698906e-10 0)
(0.0007155488 2.8153902e-10 0)
(0.00071070191 2.6741895e-10 0)
(0.0007060935 2.5449175e-10 0)
(0.00070170362 2.4263533e-10 0)
(0.00069751435 2.3175719e-10 0)
(0.00069350904 2.2179068e-10 0)
(0.00068967211 2.1269389e-10 0)
(0.0006859884 2.0443147e-10 0)
(0.00068244357 1.9707824e-10 0)
(0.00067901981 1.9058922e-10 0)
(0.00067570439 1.8562014e-10 0)
(0.0006724563 1.8106126e-10 0)
(0.00066930206 1.8220391e-10 0)
(0.00066601352 1.723534e-10 0)
(0.00066319708 1.9940607e-10 0)
(0.00065895478 1.2008656e-10 0)
(1 1.1191911e-09 8.6335679e-25)
(0.99998813 2.8344834e-09 0)
(0.99997208 3.8402164e-09 0)
(0.99995456 4.9174969e-09 0)
(0.99993425 6.4704413e-09 0)
(0.99991067 8.4907232e-09 0)
(0.99988345 1.1117925e-08 0)
(0.99985197 1.4593536e-08 0)
(0.99981541 1.9224062e-08 0)
(0.99977275 2.541778e-08 0)
(0.99972271 3.3741754e-08 0)
(0.99966368 4.502475e-08 0)
(0.99959348 6.0420474e-08 0)
(0.99950929 8.1854784e-08 0)
(0.9994067 1.1166159e-07 0)
(0.99928079 1.5583942e-07 0)
(0.99911955 2.171872e-07 0)
(0.99891765 3.2545882e-07 0)
(0.99862393 4.5645477e-07 0)
(0.99827426 8.1908503e-07 0)
(0.9975579 1.0930917e-06 0)
(0.9969167 2.761485e-06 0)
(0.99432684 6.5459741e-07 0)
(0.99610977 0.00088584214 -2.7979885e-55)
(0.022670729 0.00089348381 2.7976733e-55)
(0.0089560136 7.1085691e-06 0)
(0.0064421108 1.5725469e-06 0)
(0.0053256697 7.4989966e-07 0)
(0.0046955386 4.5224373e-07 0)
(0.004262492 3.1771203e-07 0)
(0.0039417116 2.3922276e-07 0)
(0.0036895046 1.8914945e-07 0)
(0.0034842678 1.5421151e-07 0)
(0.0033128455 1.2875445e-07 0)
(0.0031665787 1.095559e-07 0)
(0.003039699 9.4593836e-08 0)
(0.0029282057 8.2632496e-08 0)
(0.0028291774 7.2891548e-08 0)
(0.0027404067 6.483885e-08 0)
(0.0026601949 5.808952e-08 0)
(0.0025872217 5.2363793e-08 0)
(0.0025204342 4.7459211e-08 0)
(0.0024589782 4.3221461e-08 0)
(0.0024021569 3.9529116e-08 0)
(0.0023493974 3.6290352e-08 0)
(0.0023002148 3.3431981e-08 0)
(0.0022542051 3.089386e-08 0)
(0.0022110234 2.8628977e-08 0)
(0.0021703745 2.6597858e-08 0)
(0.0021320051 2.4768383e-08 0)
(0.0020956949 2.3114309e-08 0)
(0.0020612513 2.1613385e-08 0)
(0.0020285055 2.0246769e-08 0)
(0.001997309 1.8998329e-08 0)
(0.0019675307 1.7854096e-08 0)
(0.0019390548 1.6802568e-08 0)
(0.0019117772 1.5834061e-08 0)
(0.0018856043 1.4939825e-08 0)
(0.0018604524 1.4112195e-08 0)
(0.0018362461 1.3344654e-08 0)
(0.0018129168 1.2631354e-08 0)
(0.0017904027 1.1966916e-08 0)
(0.0017686483 1.1346906e-08 0)
(0.0017476021 1.0767635e-08 0)
(0.0017272169 1.0225542e-08 0)
(0.0017074496 9.7173743e-09 0)
(0.0016882606 9.2403142e-09 0)
(0.0016696135 8.791878e-09 0)
(0.0016514745 8.3697631e-09 0)
(0.0016338125 7.9717134e-09 0)
(0.0016165994 7.5959209e-09 0)
(0.0015998085 7.2409596e-09 0)
(0.0015834143 6.9052873e-09 0)
(0.0015673938 6.5874404e-09 0)
(0.0015517252 6.2861728e-09 0)
(0.0015363882 6.0003536e-09 0)
(0.0015213638 5.7289661e-09 0)
(0.0015066339 5.4709481e-09 0)
(0.0014921821 5.2253385e-09 0)
(0.0014779929 4.9914738e-09 0)
(0.0014640511 4.7686918e-09 0)
(0.0014503425 4.5562472e-09 0)
(0.0014368535 4.3534956e-09 0)
(0.0014235716 4.1598574e-09 0)
(0.0014104845 3.974807e-09 0)
(0.0013975807 3.7978637e-09 0)
(0.0013848492 3.628475e-09 0)
(0.0013722797 3.466191e-09 0)
(0.0013598625 3.3107347e-09 0)
(0.0013475874 3.1617483e-09 0)
(0.0013354453 3.0188419e-09 0)
(0.001323427 2.8817006e-09 0)
(0.0013115239 2.7500283e-09 0)
(0.0012997276 2.623556e-09 0)
(0.0012880299 2.5020047e-09 0)
(0.0012764228 2.3850951e-09 0)
(0.001264899 2.2726355e-09 0)
(0.0012534507 2.1644531e-09 0)
(0.0012420704 2.0603352e-09 0)
(0.0012307507 1.9600859e-09 0)
(0.0012194844 1.8635374e-09 0)
(0.0012082642 1.7705318e-09 0)
(0.001197083 1.6808967e-09 0)
(0.001185934 1.5944776e-09 0)
(0.00117481 1.5111687e-09 0)
(0.0011637039 1.4308551e-09 0)
(0.0011526085 1.3534056e-09 0)
(0.0011415166 1.2787112e-09 0)
(0.0011304208 1.2066566e-09 0)
(0.001119314 1.1371189e-09 0)
(0.0011081891 1.0699843e-09 0)
(0.0010970392 1.0050721e-09 0)
(0.0010858594 9.4180385e-10 0)
(0.0010749067 8.8127937e-10 0)
(0.0010645245 8.2564457e-10 0)
(0.0010547865 7.7489459e-10 0)
(0.0010456405 7.2838469e-10 0)
(0.0010370355 6.8604273e-10 0)
(0.0010289209 6.4762376e-10 0)
(0.0010212518 6.12682e-10 0)
(0.0010139885 5.8081352e-10 0)
(0.0010070958 5.5168803e-10 0)
(0.0010005421 5.2502289e-10 0)
(0.00099429909 5.0056629e-10 0)
(0.00098834126 4.7812748e-10 0)
(0.00098264494 4.5756906e-10 0)
(0.00097718801 4.3880462e-10 0)
(0.00097194889 4.2176129e-10 0)
(0.00096690721 4.0659344e-10 0)
(0.00096203764 3.9320832e-10 0)
(0.00095732207 3.8295837e-10 0)
(0.0009527022 3.7355538e-10 0)
(0.00094821566 3.7591259e-10 0)
(0.00094353819 3.5614434e-10 0)
(0.00093953155 4.1152637e-10 0)
(0.00093349744 2.4797428e-10 0)
(1 1.4752593e-09 0)
(0.99998798 3.7373391e-09 0)
(0.99997171 5.0646554e-09 0)
(0.99995393 6.4856364e-09 0)
(0.99993334 8.5334961e-09 0)
(0.99990943 1.1197334e-08 0)
(0.99988182 1.4661039e-08 0)
(0.99984991 1.9242798e-08 0)
(0.99981285 2.5346414e-08 0)
(0.99976962 3.3509706e-08 0)
(0.99971893 4.4479592e-08 0)
(0.99965915 5.9347604e-08 0)
(0.99958805 7.9633086e-08 0)
(0.99950281 1.0787211e-07 0)
(0.99939897 1.4713751e-07 0)
(0.99927157 2.0532757e-07 0)
(0.99910845 2.861243e-07 0)
(0.99890424 4.2870207e-07 0)
(0.99860729 6.0118102e-07 0)
(0.99825386 1.0785818e-06 0)
(0.99753017 1.4393505e-06 0)
(0.9968823 3.6357543e-06 0)
(0.99426678 8.639482e-07 0)
(0.99606327 0.001157184 0)
(0.029627096 0.001169709 0)
(0.011740697 1.2359152e-05 0)
(0.0084446226 2.7279073e-06 0)
(0.0069807756 1.3005313e-06 0)
(0.0061543136 7.8439685e-07 0)
(0.0055863478 5.5106102e-07 0)
(0.0051656063 4.1492967e-07 0)
(0.0048348039 3.2807936e-07 0)
(0.0045656044 2.6748148e-07 0)
(0.0043407549 2.2332707e-07 0)
(0.0041488989 1.9002764e-07 0)
(0.0039824709 1.6407633e-07 0)
(0.0038362235 1.4332975e-07 0)
(0.0037063251 1.2643435e-07 0)
(0.0035898804 1.1246714e-07 0)
(0.0034846615 1.0076057e-07 0)
(0.0033889368 9.0829403e-08 0)
(0.0033013253 8.2322465e-08 0)
(0.0032207067 7.497211e-08 0)
(0.0031461671 6.8567749e-08 0)
(0.0030769551 6.2950069e-08 0)
(0.0030124346 5.7992184e-08 0)
(0.0029520759 5.358978e-08 0)
(0.0028954265 4.9661263e-08 0)
(0.0028420993 4.6138216e-08 0)
(0.0027917621 4.296491e-08 0)
(0.002744126 4.0095831e-08 0)
(0.0026989381 3.7492388e-08 0)
(0.0026559774 3.5121899e-08 0)
(0.0026150488 3.2956384e-08 0)
(0.0025759805 3.0971616e-08 0)
(0.0025386207 2.9147644e-08 0)
(0.0025028326 2.746767e-08 0)
(0.0024684937 2.591652e-08 0)
(0.0024354941 2.4480898e-08 0)
(0.0024037349 2.3149503e-08 0)
(0.0023731261 2.1912188e-08 0)
(0.0023435866 2.0759626e-08 0)
(0.0023150438 1.9684125e-08 0)
(0.00228743 1.8679288e-08 0)
(0.0022606833 1.7738939e-08 0)
(0.0022347471 1.6857433e-08 0)
(0.0022095696 1.6029885e-08 0)
(0.002185103 1.5251988e-08 0)
(0.0021613028 1.4519746e-08 0)
(0.0021381285 1.3829248e-08 0)
(0.0021155431 1.3177357e-08 0)
(0.0020935114 1.2561599e-08 0)
(0.0020720003 1.1979299e-08 0)
(0.0020509794 1.142792e-08 0)
(0.0020304202 1.09053e-08 0)
(0.0020102961 1.0409476e-08 0)
(0.0019905819 9.9386866e-09 0)
(0.0019712541 9.4910879e-09 0)
(0.0019522913 9.0650134e-09 0)
(0.001933673 8.6593124e-09 0)
(0.0019153792 8.2728363e-09 0)
(0.0018973913 7.9042919e-09 0)
(0.0018796916 7.5525619e-09 0)
(0.0018622635 7.216641e-09 0)
(0.0018450912 6.8956172e-09 0)
(0.0018281593 6.5886569e-09 0)
(0.0018114532 6.2948015e-09 0)
(0.00179496 6.013271e-09 0)
(0.0017786664 5.7435847e-09 0)
(0.0017625593 5.4851222e-09 0)
(0.0017466266 5.237207e-09 0)
(0.0017308565 4.9992928e-09 0)
(0.0017152374 4.7708661e-09 0)
(0.0016997585 4.5514604e-09 0)
(0.0016844088 4.3405914e-09 0)
(0.0016691782 4.1377748e-09 0)
(0.0016540567 3.9426783e-09 0)
(0.0016390343 3.7550018e-09 0)
(0.0016241011 3.5743765e-09 0)
(0.0016092473 3.4004627e-09 0)
(0.0015944636 3.232969e-09 0)
(0.0015797404 3.0716218e-09 0)
(0.0015650684 2.9161218e-09 0)
(0.0015504384 2.7662011e-09 0)
(0.0015358413 2.6216761e-09 0)
(0.0015212676 2.4823476e-09 0)
(0.0015067079 2.3479881e-09 0)
(0.0014921527 2.2184081e-09 0)
(0.0014775923 2.093408e-09 0)
(0.0014630174 1.9727747e-09 0)
(0.0014484186 1.8563114e-09 0)
(0.0014337869 1.7437031e-09 0)
(0.0014191158 1.633951e-09 0)
(0.0014047424 1.5289677e-09 0)
(0.0013911173 1.4324697e-09 0)
(0.0013783371 1.3444447e-09 0)
(0.0013663334 1.2637724e-09 0)
(0.0013550392 1.1903271e-09 0)
(0.0013443885 1.1236844e-09 0)
(0.0013343222 1.0630721e-09 0)
(0.0013247883 1.0077898e-09 0)
(0.0013157406 9.57265e-10 0)
(0.0013071376 9.1100768e-10 0)
(0.0012989423 8.6858117e-10 0)
(0.0012911212 8.2965481e-10 0)
(0.0012836432 7.9399039e-10 0)
(0.0012764794 7.6143812e-10 0)
(0.0012696013 7.318718e-10 0)
(0.0012629822 7.0555938e-10 0)
(0.001256589 6.8234026e-10 0)
(0.0012503977 6.6456022e-10 0)
(0.001244332 6.4825251e-10 0)
(0.0012384411 6.5234613e-10 0)
(0.0012322996 6.1825838e-10 0)
(0.0012270379 7.1428702e-10 -4.729159e-24)
(0.0012191151 4.302968e-10 3.2359306e-25)
(1 1.8589509e-09 0)
(0.9999878 4.710969e-09 0)
(0.99997126 6.3859207e-09 0)
(0.99995318 8.1779262e-09 0)
(0.99993224 1.0759681e-08 0)
(0.99990794 1.4117565e-08 0)
(0.99987988 1.8483145e-08 0)
(0.99984745 2.4257169e-08 0)
(0.9998098 3.1948148e-08 0)
(0.99976589 4.2233259e-08 0)
(0.99971441 5.605286e-08 0)
(0.99965371 7.4781048e-08 0)
(0.99958155 1.0033023e-07 0)
(0.99949506 1.358924e-07 0)
(0.99938972 1.8533426e-07 0)
(0.99926052 2.5859549e-07 0)
(0.99909516 3.6030481e-07 0)
(0.99888821 5.397577e-07 0)
(0.99858739 7.5681041e-07 0)
(0.99822948 1.3574885e-06 0)
(0.99749703 1.8114763e-06 0)
(0.99684121 4.5750044e-06 0)
(0.99419514 1.0902246e-06 0)
(0.99600772 0.0014434297 0)
(0.036971583 0.0014624238 0)
(0.014699392 1.9378244e-05 0)
(0.010571812 4.2949911e-06 0)
(0.0087386223 2.0478514e-06 0)
(0.007703278 1.2352883e-06 0)
(0.0069917667 8.678335e-07 0)
(0.0064646594 6.5346089e-07 0)
(0.0060502222 5.1668684e-07 0)
(0.0057129554 4.2125643e-07 0)
(0.0054312477 3.517204e-07 0)
(0.005190873 2.9927881e-07 0)
(0.0049823539 2.5840939e-07 0)
(0.0047991162 2.2573666e-07 0)
(0.0046363602 1.9912891e-07 0)
(0.0044904586 1.7713253e-07 0)
(0.0043586208 1.5869628e-07 0)
(0.0042386769 1.4305598e-07 0)
(0.0041288975 1.296586e-07 0)
(0.0040278788 1.1808263e-07 0)
(0.0039344759 1.0799646e-07 -6.1900992e-35)
(0.0038477476 9.9149145e-08 -6.0916723e-25)
(0.003766897 9.1340918e-08 0)
(0.0036912606 8.4407504e-08 0)
(0.0036202713 7.8220356e-08 0)
(0.0035534445 7.2671776e-08 0)
(0.0034903637 6.7673982e-08 0)
(0.0034306669 6.3155301e-08 0)
(0.0033740377 5.905496e-08 0)
(0.003320199 5.532149e-08 0)
(0.0032689062 5.1910831e-08 0)
(0.0032199444 4.8784826e-08 0)
(0.0031731231 4.5912056e-08 0)
(0.0031282712 4.3266066e-08 0)
(0.003085235 4.0822961e-08 0)
(0.0030438771 3.85618e-08 0)
(0.0030040732 3.6464789e-08 0)
(0.0029657108 3.4515946e-08 0)
(0.0029286884 3.2700584e-08 0)
(0.0028929147 3.1006586e-08 0)
(0.0028583052 2.9423879e-08 0)
(0.0028247821 2.7942737e-08 0)
(0.0027922747 2.6554272e-08 0)
(0.002760718 2.5250789e-08 0)
(0.0027300521 2.4025503e-08 0)
(0.0027002213 2.2872124e-08 0)
(0.0026711747 2.1784489e-08 0)
(0.0026428661 2.0757662e-08 0)
(0.0026152515 1.9787744e-08 0)
(0.0025882892 1.8870524e-08 0)
(0.0025619411 1.8002003e-08 0)
(0.0025361716 1.7178779e-08 0)
(0.0025109474 1.6397762e-08 0)
(0.0024862369 1.5656174e-08 0)
(0.0024620107 1.4951113e-08 0)
(0.0024382417 1.4279954e-08 0)
(0.0024149046 1.3640885e-08 0)
(0.0023919742 1.3032097e-08 0)
(0.002369427 1.2451554e-08 0)
(0.0023472411 1.1897495e-08 0)
(0.0023253956 1.1368338e-08 0)
(0.0023038705 1.0862646e-08 0)
(0.0022826468 1.0379105e-08 0)
(0.0022617062 9.9162071e-09 0)
(0.0022410322 9.4727227e-09 0)
(0.0022206085 9.0478956e-09 0)
(0.0022004185 8.6407481e-09 0)
(0.0021804471 8.2502145e-09 0)
(0.0021606793 7.8754349e-09 0)
(0.002141101 7.5156001e-09 0)
(0.0021216982 7.1699759e-09 0)
(0.0021024574 6.8377985e-09 0)
(0.0020833658 6.5183058e-09 0)
(0.002064411 6.2109747e-09 0)
(0.0020455803 5.9153321e-09 0)
(0.0020268614 5.6307972e-09 0)
(0.002008242 5.3568347e-09 0)
(0.0019897104 5.092986e-09 0)
(0.0019712546 4.8388199e-09 0)
(0.0019528628 4.5938647e-09 0)
(0.0019345237 4.3576988e-09 0)
(0.0019162257 4.130033e-09 0)
(0.001897957 3.9105535e-09 0)
(0.0018797057 3.6989018e-09 0)
(0.0018614599 3.4947795e-09 0)
(0.0018432076 3.2978726e-09 0)
(0.0018249368 3.107845e-09 0)
(0.001806636 2.9243889e-09 0)
(0.0017882937 2.7470042e-09 0)
(0.0017699019 2.5741279e-09 0)
(0.0017518827 2.4087823e-09 0)
(0.0017348008 2.2568095e-09 0)
(0.0017187776 2.1181812e-09 0)
(0.0017037271 1.9911287e-09 0)
(0.0016895657 1.8754533e-09 0)
(0.0016762105 1.7704877e-09 0)
(0.0016635877 1.6750171e-09 0)
(0.0016516321 1.5879398e-09 0)
(0.0016402858 1.5083547e-09 0)
(0.001629497 1.4354903e-09 0)
(0.001619219 1.3686594e-09 0)
(0.0016094101 1.3073414e-09 0)
(0.0016000313 1.2511615e-09 0)
(0.0015910461 1.1998841e-09 0)
(0.0015824191 1.1533108e-09 0)
(0.0015741167 1.111864e-09 0)
(0.0015660974 1.0752915e-09 0)
(0.0015583312 1.0472877e-09 0)
(0.0015507223 1.02161e-09 0)
(0.0015433321 1.0280706e-09 0)
(0.0015356278 9.7437971e-10 0)
(0.0015290254 1.125847e-09 0)
(0.0015190867 6.7794872e-10 -1.8468697e-25)
(1 2.2777587e-09 0)
(0.99998758 5.7746541e-09 0)
(0.99997072 7.8304876e-09 0)
(0.99995229 1.0028329e-08 0)
(0.99993095 1.31936e-08 0)
(0.99990617 1.7309791e-08 0)
(0.99987757 2.266042e-08 0)
(0.99984453 2.9736244e-08 0)
(0.99980617 3.9159888e-08 0)
(0.99976145 5.1760353e-08 0)
(0.99970904 6.8688678e-08 0)
(0.99964726 9.162663e-08 0)
(0.99957384 1.2291448e-07 0)
(0.99948586 1.6645806e-07 0)
(0.99937875 2.2698761e-07 0)
(0.99924742 3.1666373e-07 0)
(0.9990794 4.4114224e-07 0)
(0.9988692 6.6072759e-07 0)
(0.99856382 9.2627158e-07 0)
(0.9982006 1.6610038e-06 0)
(0.99745781 2.2163959e-06 0)
(0.9967926 5.5965883e-06 0)
(0.99411046 1.3381074e-06 0)
(0.99594198 0.0017484131 0)
(0.044803852 0.0017757986 0)
(0.017875937 2.8620896e-05 0)
(0.012855049 6.3687571e-06 0)
(0.010625032 3.0369819e-06 0)
(0.0093650767 1.8322135e-06 0)
(0.0084992093 1.2872116e-06 0)
(0.007857709 9.6926791e-07 0)
(0.0073533206 7.6640167e-07 0)
(0.006942841 6.2485775e-07 0)
(0.0065999738 5.2171899e-07 0)
(0.0063074078 4.4393469e-07 0)
(0.0060536093 3.833148e-07 0)
(0.0058305779 3.3485269e-07 0)
(0.0056324723 2.9538637e-07 0)
(0.0054548784 2.6275976e-07 0)
(0.0052944 2.3541365e-07 0)
(0.0051483969 2.1221462e-07 0)
(0.0050147639 1.9234234e-07 0)
(0.0048917931 1.7517165e-07 0)
(0.0047780911 1.6021068e-07 6.6772805e-35)
(0.0046725124 1.470872e-07 -6.8813675e-25)
(0.0045740873 1.3550498e-07 0)
(0.0044820082 1.2522033e-07 0)
(0.0043955852 1.1604256e-07 0)
(0.0043142282 1.0781196e-07 0)
(0.0042374306 1.0039833e-07 0)
(0.0041647518 9.3695343e-08 0)
(0.0040958067 8.7612874e-08 0)
(0.004030258 8.2074582e-08 0)
(0.0039678082 7.7015115e-08 0)
(0.0039081955 7.2377877e-08 0)
(0.0038511884 6.8116259e-08 0)
(0.0037965784 6.4191027e-08 0)
(0.0037441785 6.056674e-08 0)
(0.0036938213 5.7212337e-08 0)
(0.0036453559 5.4101421e-08 0)
(0.0035986451 5.1210292e-08 0)
(0.0035535655 4.8517162e-08 0)
(0.0035100059 4.6004058e-08 0)
(0.0034678635 4.3656041e-08 0)
(0.0034270436 4.1458683e-08 0)
(0.0033874601 3.9398799e-08 0)
(0.0033490339 3.7464979e-08 0)
(0.003311692 3.5647158e-08 0)
(0.0032753669 3.3936003e-08 0)
(0.0032399965 3.2322377e-08 0)
(0.0032055245 3.0798954e-08 0)
(0.0031718972 2.9359953e-08 0)
(0.0031390641 2.7999127e-08 0)
(0.0031069789 2.6710546e-08 0)
(0.003075598 2.5489161e-08 0)
(0.0030448809 2.433039e-08 0)
(0.0030147894 2.3230112e-08 0)
(0.0029852873 2.2184021e-08 0)
(0.002956342 2.1188225e-08 0)
(0.0029279224 2.0240038e-08 0)
(0.002899998 1.9336774e-08 0)
(0.0028725402 1.8475412e-08 0)
(0.0028455224 1.7653342e-08 0)
(0.0028189188 1.6868216e-08 0)
(0.0027927055 1.6117903e-08 0)
(0.0027668591 1.5400455e-08 0)
(0.0027413574 1.4713631e-08 0)
(0.0027161803 1.4055611e-08 0)
(0.0026913079 1.3425273e-08 0)
(0.0026667201 1.2821165e-08 0)
(0.0026423984 1.2241706e-08 0)
(0.0026183247 1.1685622e-08 0)
(0.0025944816 1.1151712e-08 0)
(0.0025708523 1.0638887e-08 0)
(0.0025474201 1.0146012e-08 0)
(0.0025241695 9.6719585e-09 0)
(0.0025010856 9.2159502e-09 0)
(0.0024781527 8.7772851e-09 0)
(0.0024553558 8.3551009e-09 0)
(0.0024326802 7.9486042e-09 0)
(0.0024101113 7.5571142e-09 0)
(0.0023876346 7.1799915e-09 0)
(0.0023652358 6.8165355e-09 0)
(0.0023429011 6.4661213e-09 0)
(0.0023206164 6.1283202e-09 0)
(0.0022983671 5.8026662e-09 0)
(0.002276139 5.4886272e-09 0)
(0.0022539174 5.1857612e-09 0)
(0.0022316876 4.8936021e-09 0)
(0.0022094352 4.6116513e-09 0)
(0.002187146 4.3394556e-09 0)
(0.0021648059 4.0762664e-09 0)
(0.0021424052 3.8197829e-09 0)
(0.0021204576 3.5745077e-09 0)
(0.0020996507 3.3490863e-09 0)
(0.0020801321 3.1434599e-09 0)
(0.0020617974 2.9549969e-09 0)
(0.0020445449 2.7834002e-09 0)
(0.002028274 2.6276834e-09 0)
(0.0020128946 2.486047e-09 0)
(0.0019983274 2.3568585e-09 0)
(0.0019845023 2.2387827e-09 0)