/*--------------------------------*- C++ -*----------------------------------*\
| =========                 |                                                 |
| \\      /  F ield         | OpenFOAM: The Open Source CFD Toolbox           |
|  \\    /   O peration     | Version:  2206                                  |
|   \\  /    A nd           | Website:  www.openfoam.com                      |
|    \\/     M anipulation  |                                                 |
\*---------------------------------------------------------------------------*/
FoamFile
{
    version     2.0;
    format      ascii;
    arch        "LSB;label=32;scalar=64";
    class       volScalarField;
    location    "400";
    object      k;
}
// * * * * * * * * * * * * * * * * * * * * * * * * * * * * * * * * * * * * * //

dimensions      [0 2 -2 0 0 0 0];

internalField   nonuniform List<scalar> 
13056
(
0.00012578676
0.00012114282
0.00012069648
0.00012075293
0.00012078549
0.00012079395
0.00012079658
0.00012079836
0.00012080024
0.00012080241
0.000120805
0.00012080813
0.00012081196
0.0001208167
0.00012082265
0.00012083028
0.00012084033
0.00012085385
0.00012087403
0.00012090004
0.00012096988
0.0001209337
0.00012207608
7.1859415e-05
3.2389391e-07
4.9625143e-08
2.5080977e-08
1.6892013e-08
1.2895469e-08
1.0465491e-08
8.8232342e-09
7.6241416e-09
6.7089387e-09
5.9876043e-09
5.403019e-09
4.9189947e-09
4.5113869e-09
4.1632686e-09
3.8623874e-09
3.5996252e-09
3.3681592e-09
3.1624577e-09
2.9786077e-09
2.8131538e-09
2.6634541e-09
2.5273302e-09
2.402986e-09
2.2889303e-09
2.1839142e-09
2.0868882e-09
1.9969582e-09
1.9133555e-09
1.8354216e-09
1.7625862e-09
1.6943542e-09
1.6302959e-09
1.5700324e-09
1.5132284e-09
1.4595886e-09
1.4088513e-09
1.3607833e-09
1.3151776e-09
1.2718511e-09
1.2306391e-09
1.1913911e-09
1.1539723e-09
1.1182626e-09
1.0841546e-09
1.0515515e-09
1.0203666e-09
9.9052431e-10
9.619584e-10
9.3461125e-10
9.0843301e-10
8.8338104e-10
8.5941985e-10
8.365211e-10
8.1466816e-10
7.9386281e-10
7.7411693e-10
7.5545057e-10
7.3789712e-10
7.2149652e-10
7.063016e-10
6.924024e-10
6.7990618e-10
6.6896007e-10
6.5995989e-10
6.5234358e-10
6.4867553e-10
6.4676811e-10
6.4864877e-10
6.5434762e-10
6.64593e-10
6.8005146e-10
7.0134731e-10
7.285195e-10
7.6164336e-10
8.0098082e-10
8.4508964e-10
8.9019969e-10
9.331464e-10
9.6856337e-10
9.9796906e-10
1.0201529e-09
1.0367174e-09
1.0489137e-09
1.0576995e-09
1.0638272e-09
1.0677006e-09
1.0696346e-09
1.0698729e-09
1.0684115e-09
1.0652909e-09
1.0607326e-09
1.054932e-09
1.0481362e-09
1.0406214e-09
1.0325542e-09
1.0241006e-09
1.0154593e-09
1.0067487e-09
9.9801114e-10
9.8930852e-10
9.8073158e-10
9.7230907e-10
9.6403071e-10
9.5588395e-10
9.4787896e-10
9.4000662e-10
9.3229354e-10
9.2438669e-10
9.1686847e-10
9.0756879e-10
9.0005093e-10
8.8915914e-10
0.00012577483
0.00012112731
0.00012068062
0.00012073711
0.00012076969
0.00012077815
0.00012078078
0.00012078257
0.00012078445
0.00012078662
0.00012078921
0.00012079234
0.00012079617
0.00012080091
0.00012080687
0.0001208145
0.00012082456
0.00012083809
0.00012085828
0.0001208843
0.00012095419
0.00012091793
0.00012206116
7.1842954e-05
5.0207579e-08
7.6209243e-09
3.8516735e-09
2.5940967e-09
1.9803503e-09
1.607181e-09
1.3549811e-09
1.1708376e-09
1.0302908e-09
9.1951628e-10
8.2974218e-10
7.5541115e-10
6.9281534e-10
6.3935529e-10
5.931494e-10
5.5279741e-10
5.1725155e-10
4.8566231e-10
4.5742878e-10
4.3202032e-10
4.0903122e-10
3.8812693e-10
3.6903163e-10
3.5151632e-10
3.3538919e-10
3.204891e-10
3.0667868e-10
2.9383994e-10
2.8187178e-10
2.7068667e-10
2.6020857e-10
2.5037144e-10
2.4111707e-10
2.3239398e-10
2.2415685e-10
2.1636546e-10
2.0898401e-10
2.0198072e-10
1.9532748e-10
1.8899897e-10
1.8297208e-10
1.7722611e-10
1.7174258e-10
1.6650499e-10
1.6149837e-10
1.5670961e-10
1.521275e-10
1.4774155e-10
1.4354288e-10
1.3952385e-10
1.3567793e-10
1.3199968e-10
1.2848479e-10
1.2513069e-10
1.2193757e-10
1.189068e-10
1.1604119e-10
1.133491e-10
1.1083496e-10
1.085068e-10
1.0637864e-10
1.0446717e-10
1.0279521e-10
1.0142341e-10
1.0026352e-10
9.9703916e-11
9.9431482e-11
9.9746431e-11
1.0065368e-10
1.0226615e-10
1.0468716e-10
1.08013e-10
1.122488e-10
1.174038e-10
1.2351228e-10
1.3034286e-10
1.3730979e-10
1.4393047e-10
1.493879e-10
1.5392134e-10
1.5734591e-10
1.5990823e-10
1.6180019e-10
1.6316805e-10
1.6412627e-10
1.6473609e-10
1.6504567e-10
1.650923e-10
1.6487517e-10
1.644003e-10
1.6370177e-10
1.6281007e-10
1.6176365e-10
1.6060536e-10
1.5936122e-10
1.5805701e-10
1.5672347e-10
1.5537897e-10
1.5403016e-10
1.5268664e-10
1.5136241e-10
1.5006194e-10
1.4878368e-10
1.4752574e-10
1.4628967e-10
1.4507411e-10
1.4388308e-10
1.4266251e-10
1.4150146e-10
1.4006725e-10
1.3890661e-10
1.3722497e-10
0.0001257368
0.00012107833
0.0001206306
0.0001206872
0.00012071985
0.00012072832
0.00012073096
0.00012073275
0.00012073462
0.0001207368
0.00012073939
0.00012074253
0.00012074636
0.00012075111
0.00012075708
0.00012076472
0.0001207748
0.00012078835
0.00012080858
0.00012083464
0.00012090468
0.00012086816
0.00012201389
7.1765823e-05
1.6789236e-08
2.3775604e-09
1.2016135e-09
8.0928131e-10
6.1781515e-10
5.0140225e-10
4.2272633e-10
3.6528082e-10
3.2143573e-10
2.8687843e-10
2.5887251e-10
2.3568432e-10
2.1615715e-10
1.9948005e-10
1.8506603e-10
1.7247826e-10
1.6138984e-10
1.5153571e-10
1.4272844e-10
1.3480251e-10
1.2763137e-10
1.211106e-10
1.1515412e-10
1.0969053e-10
1.0465995e-10
1.0001208e-10
9.5704023e-11
9.1699013e-11
8.7965795e-11
8.4477419e-11
8.1209988e-11
7.8142631e-11
7.5257176e-11
7.2537578e-11
6.9969713e-11
6.7541057e-11
6.5240453e-11
6.3058007e-11
6.0984969e-11
5.9013394e-11
5.7136029e-11
5.5346392e-11
5.363862e-11
5.200731e-11
5.0447441e-11
4.8956003e-11
4.7531909e-11
4.6170093e-11
4.4867535e-11
4.3622006e-11
4.2431565e-11
4.1294736e-11
4.0210344e-11
3.9177639e-11
3.8196262e-11
3.7264246e-11
3.6380862e-11
3.5567361e-11
3.4815743e-11
3.4128249e-11
3.3510693e-11
3.2970018e-11
3.2515254e-11
3.2165812e-11
3.1884755e-11
3.1766973e-11
3.1833931e-11
3.2125006e-11
3.2645568e-11
3.3439527e-11
3.4547447e-11
3.6004795e-11
3.7810751e-11
3.9959353e-11
4.2431846e-11
4.5097229e-11
4.7719868e-11
5.0142473e-11
5.2127236e-11
5.378072e-11
5.5054972e-11
5.6038308e-11
5.6795655e-11
5.7373398e-11
5.7804516e-11
5.8106158e-11
5.8293912e-11
5.8379181e-11
5.8360437e-11
5.8238162e-11
5.8023884e-11
5.773066e-11
5.7374517e-11
5.6972458e-11
5.6535673e-11
5.6074681e-11
5.5600939e-11
5.5121626e-11
5.4639856e-11
5.4159393e-11
5.3685158e-11
5.3218914e-11
5.2760437e-11
5.2309289e-11
5.186602e-11
5.1430311e-11
5.1003042e-11
5.0567974e-11
5.0150768e-11
4.9649845e-11
4.9235436e-11
4.863429e-11
0.00012567151
0.00012099432
0.00012054483
0.00012060161
0.00012063437
0.00012064287
0.00012064552
0.00012064731
0.00012064919
0.00012065137
0.00012065397
0.00012065711
0.00012066095
0.00012066571
0.0001206717
0.00012067936
0.00012068947
0.00012070306
0.00012072335
0.00012074948
0.00012081977
0.00012078281
0.00012193273
7.1626216e-05
9.5427808e-09
1.0492378e-09
5.3020749e-10
3.5708093e-10
2.7261546e-10
2.2126661e-10
1.8656221e-10
1.612214e-10
1.4187978e-10
1.2663537e-10
1.1428117e-10
1.040525e-10
9.5439137e-11
8.8083303e-11
8.1726002e-11
7.6174564e-11
7.1284596e-11
6.6939102e-11
6.3055437e-11
5.9560671e-11
5.6399013e-11
5.3524278e-11
5.0898385e-11
4.8489922e-11
4.6272391e-11
4.4223506e-11
4.2324172e-11
4.0558314e-11
3.8912975e-11
3.7377299e-11
3.594025e-11
3.4591848e-11
3.3324041e-11
3.2129803e-11
3.1002959e-11
2.9938041e-11
2.8930187e-11
2.7975095e-11
2.7068969e-11
2.6208187e-11
2.5389436e-11
2.460979e-11
2.3866423e-11
2.3156277e-11
2.2476176e-11
2.1827822e-11
2.12175e-11
2.0638079e-11
2.0087604e-11
1.9565607e-11
1.9071636e-11
1.8605772e-11
1.8168166e-11
1.7758891e-11
1.7377036e-11
1.7015869e-11
1.6671119e-11
1.6400901e-11
1.6178352e-11
1.6004696e-11
1.5887466e-11
1.5835877e-11
1.5861254e-11
1.5977159e-11
1.6151937e-11
1.6373154e-11
1.6916894e-11
1.7693607e-11
1.8724022e-11
2.0058433e-11
2.1745958e-11
2.382695e-11
2.630531e-11
2.917415e-11
3.2371136e-11
3.5688833e-11
3.8843264e-11
4.1639678e-11
4.3938106e-11
4.5828139e-11
4.7338166e-11
4.8561944e-11
4.9565506e-11
5.0391554e-11
5.1061976e-11
5.1589243e-11
5.1988504e-11
5.2266958e-11
5.2420389e-11
5.2444628e-11
5.2348557e-11
5.2150563e-11
5.1872153e-11
5.1533978e-11
5.1151921e-11
5.0739508e-11
5.0308732e-11
4.9868019e-11
4.9422383e-11
4.8976296e-11
4.8534069e-11
4.8097814e-11
4.766827e-11
4.7245732e-11
4.6830677e-11
4.6423316e-11
4.6022833e-11
4.5623161e-11
4.5230117e-11
4.4799995e-11
4.4417268e-11
4.3860022e-11
0.00012557708
0.00012087285
0.00012042081
0.00012047786
0.00012051078
0.00012051932
0.00012052197
0.00012052376
0.00012052565
0.00012052784
0.00012053044
0.0001205336
0.00012053745
0.00012054223
0.00012054824
0.00012055594
0.00012056608
0.00012057974
0.00012060011
0.00012062634
0.00012069698
0.0001206594
0.00012181534
7.1421504e-05
8.4884918e-09
5.6194543e-10
2.8378638e-10
1.9109546e-10
1.459308e-10
1.1849049e-10
9.9942311e-11
8.6395492e-11
7.6054848e-11
6.7904692e-11
6.1300045e-11
5.5832354e-11
5.1228954e-11
4.7298508e-11
4.3902437e-11
4.0937803e-11
3.8326975e-11
3.6007212e-11
3.3934445e-11
3.2069869e-11
3.038375e-11
2.885115e-11
2.7451507e-11
2.6168201e-11
2.4986891e-11
2.3895484e-11
2.2883391e-11
2.1942275e-11
2.1066893e-11
2.025355e-11
1.949539e-11
1.8785531e-11
1.8119619e-11
1.749402e-11
1.6905563e-11
1.6351465e-11
1.5829267e-11
1.5336823e-11
1.4872256e-11
1.4433478e-11
1.4018473e-11
1.3625585e-11
1.3252948e-11
1.2897743e-11
1.2556518e-11
1.2235958e-11
1.1952435e-11
1.1693121e-11
1.145601e-11
1.1242082e-11
1.1052257e-11
1.0888342e-11
1.0752224e-11
1.0645516e-11
1.0567537e-11
1.0506192e-11
1.0453376e-11
1.0522189e-11
1.0662786e-11
1.0879195e-11
1.1187687e-11
1.1608783e-11
1.2168677e-11
1.2895841e-11
1.3782521e-11
1.4789881e-11
1.6333549e-11
1.8314273e-11
2.0801056e-11
2.3896255e-11
2.7702675e-11
3.2303844e-11
3.7715645e-11
4.3931928e-11
5.0803061e-11
5.7872162e-11
6.4552216e-11
7.0404088e-11
7.52366e-11
7.9179578e-11
8.2371911e-11
8.5001453e-11
8.7200384e-11
8.9051565e-11
9.0589614e-11
9.1836694e-11
9.2823023e-11
9.3558649e-11
9.4032943e-11
9.4233117e-11
9.4173402e-11
9.3894585e-11
9.344357e-11
9.2863689e-11
9.2190261e-11
9.1452318e-11
9.0673368e-11
8.987083e-11
8.9056295e-11
8.8239062e-11
8.7426731e-11
8.6623709e-11
8.5832421e-11
8.5054202e-11
8.4289885e-11
8.3540431e-11
8.2802492e-11
8.2075163e-11
8.1348703e-11
8.0600343e-11
7.9901526e-11
7.8881725e-11
0.00012545101
0.00012071062
0.00012025516
0.00012031257
0.0001203457
0.00012035429
0.00012035696
0.00012035876
0.00012036065
0.00012036284
0.00012036546
0.00012036863
0.0001203725
0.0001203773
0.00012038334
0.00012039108
0.00012040129
0.00012041501
0.00012043551
0.00012046187
0.00012053298
0.00012049456
0.0001216585
7.1148416e-05
1.0042725e-08
3.4293202e-10
1.7282113e-10
1.1631899e-10
8.8904387e-11
7.2281987e-11
6.1041165e-11
5.2824936e-11
4.6551294e-11
4.16064e-11
3.7599639e-11
3.4283735e-11
3.1493558e-11
2.9112961e-11
2.7057673e-11
2.5265383e-11
2.3688123e-11
2.228744e-11
2.1036823e-11
1.9913096e-11
1.889841e-11
1.7977262e-11
1.7136866e-11
1.636742e-11
1.5659948e-11
1.500686e-11
1.4401023e-11
1.3837719e-11
1.3316508e-11
1.2838615e-11
1.239842e-11
1.198931e-11
1.1608608e-11
1.1254351e-11
1.0924879e-11
1.0618777e-11
1.0334844e-11
1.0072081e-11
9.8296682e-12
9.6062979e-12
9.4003172e-12
9.2106922e-12
9.0360386e-12
8.8732212e-12
8.7178235e-12
8.5823115e-12
8.495783e-12
8.4382217e-12
8.4076086e-12
8.4070075e-12
8.4397271e-12
8.5104279e-12
8.6243317e-12
8.7868812e-12
9.001248e-12
9.2564797e-12
9.5456662e-12
1.0018954e-11
1.0622538e-11
1.1372097e-11
1.2302225e-11
1.3457029e-11
1.4893869e-11
1.6676501e-11
1.8838096e-11
2.133675e-11
2.4809011e-11
2.9173127e-11
3.4593809e-11
4.1286137e-11
4.9467915e-11
5.9316639e-11
7.0872621e-11
8.4133388e-11
9.8784875e-11
1.1386445e-10
1.2813833e-10
1.4063786e-10
1.5098656e-10
1.5940991e-10
1.6624538e-10
1.7188904e-10
1.7662192e-10
1.806205e-10
1.8395614e-10
1.8667648e-10
1.8884629e-10
1.9048491e-10
1.9156908e-10
1.9206966e-10
1.9201466e-10
1.9149181e-10
1.9060159e-10
1.8943602e-10
1.8807109e-10
1.8656878e-10
1.8497815e-10
1.8333606e-10
1.8166767e-10
1.7999266e-10
1.7832644e-10
1.7667836e-10
1.7505401e-10
1.7345659e-10
1.7188776e-10
1.7034985e-10
1.6883491e-10
1.6734702e-10
1.6585436e-10
1.6434355e-10
1.6291262e-10
1.6082308e-10
0.00012529017
0.00012050347
0.00012004364
0.00012010151
0.00012013492
0.00012014357
0.00012014625
0.00012014806
0.00012014996
0.00012015216
0.00012015479
0.00012015797
0.00012016187
0.00012016671
0.00012017279
0.00012018057
0.00012019085
0.00012020468
0.00012022532
0.00012025184
0.00012032356
0.00012028406
0.00012145819
7.0803269e-05
1.3345069e-08
2.353926e-10
1.1797738e-10
7.9307288e-11
6.0754643e-11
4.956676e-11
4.1992202e-11
3.6444057e-11
3.2203846e-11
2.8860977e-11
2.6152739e-11
2.3913163e-11
2.2031289e-11
2.0428597e-11
1.9047836e-11
1.7847153e-11
1.6792572e-11
1.5857394e-11
1.5024099e-11
1.4277673e-11
1.3606388e-11
1.2999333e-11
1.2447505e-11
1.1944646e-11
1.1484349e-11
1.1061236e-11
1.0669323e-11
1.0305707e-11
9.9737327e-12
9.6789299e-12
9.4157676e-12
9.176721e-12
8.9600386e-12
8.7648252e-12
8.5904229e-12
8.4363715e-12
8.3023748e-12
8.1883121e-12
8.0942066e-12
8.0196588e-12
7.9629232e-12
7.9235819e-12
7.9012644e-12
7.8933727e-12
7.8954674e-12
7.924383e-12
8.0189698e-12
8.1562334e-12
8.3358264e-12
8.5642254e-12
8.8487601e-12
9.1989704e-12
9.6258886e-12
1.0141822e-11
1.0757325e-11
1.1465498e-11
1.2264106e-11
1.3358487e-11
1.4693237e-11
1.6305969e-11
1.8264462e-11
2.0655518e-11
2.3593005e-11
2.7206321e-11
3.1601418e-11
3.6757619e-11
4.3672505e-11
5.2314234e-11
6.3020048e-11
7.6211146e-11
9.2315318e-11
1.1168255e-10
1.3439841e-10
1.6047051e-10
1.8929778e-10
2.1901147e-10
2.4720082e-10
2.7191885e-10
2.9241428e-10
3.0908149e-10
3.2260821e-10
3.3377407e-10
3.4313601e-10
3.5104603e-10
3.5764732e-10
3.6303693e-10
3.673441e-10
3.7060652e-10
3.727783e-10
3.738012e-10
3.7372922e-10
3.7273552e-10
3.7101825e-10
3.6875842e-10
3.6610606e-10
3.6318323e-10
3.6008606e-10
3.5688694e-10
3.5363566e-10
3.5037094e-10
3.4712271e-10
3.4390932e-10
3.4074202e-10
3.3762726e-10
3.3456832e-10
3.3156986e-10
3.2861585e-10
3.2571733e-10
3.2280608e-10
3.1987349e-10
3.1708521e-10
3.1301291e-10
0.0001250908
0.00012024645
0.00011978116
0.0001198396
0.00011987335
0.00011988209
0.00011988478
0.0001198866
0.00011988851
0.00011989072
0.00011989337
0.00011989658
0.0001199005
0.00011990537
0.0001199115
0.00011991935
0.00011992972
0.00011994366
0.00011996449
0.00011999121
0.00012006367
0.00012002285
0.00012120959
7.0382255e-05
1.8265558e-08
1.8600077e-10
9.2174801e-11
6.1802497e-11
4.757123e-11
3.9090458e-11
3.3334586e-11
2.9099165e-11
2.5855474e-11
2.3296422e-11
2.1223244e-11
1.9511045e-11
1.8076207e-11
1.6858819e-11
1.5814713e-11
1.4912313e-11
1.4123096e-11
1.3425474e-11
1.2806673e-11
1.2256247e-11
1.1765764e-11
1.1326642e-11
1.0931797e-11
1.0576783e-11
1.0256458e-11
9.9667375e-12
9.7013861e-12
9.458022e-12
9.2425927e-12
9.0638561e-12
8.9164849e-12
8.7924227e-12
8.6906759e-12
8.6112483e-12
8.5543832e-12
8.5205234e-12
8.5102755e-12
8.5244426e-12
8.5639807e-12
8.6296593e-12
8.7192122e-12
8.8329756e-12
8.9721685e-12
9.1352494e-12
9.3181277e-12
9.5436621e-12
9.8638436e-12
1.0252722e-11
1.0713084e-11
1.1257019e-11
1.1898506e-11
1.2655225e-11
1.3547945e-11
1.4600574e-11
1.5836423e-11
1.7256719e-11
1.8869407e-11
2.0966476e-11
2.3492386e-11
2.6522474e-11
3.0180848e-11
3.4626798e-11
4.0070308e-11
4.6753827e-11
5.4911125e-11
6.4584274e-11
7.7327845e-11
9.3220958e-11
1.1289528e-10
1.3712337e-10
1.6669099e-10
2.0224301e-10
2.4394384e-10
2.9182284e-10
3.4480213e-10
3.9948479e-10
4.5145906e-10
4.970939e-10
5.3497059e-10
5.6575844e-10
5.9073795e-10
6.1134538e-10
6.2861198e-10
6.4319314e-10
6.5535855e-10
6.6529209e-10
6.7323427e-10
6.7925498e-10
6.8327002e-10
6.8517187e-10
6.8505927e-10
6.8325098e-10
6.8011165e-10
6.7597414e-10
6.7111462e-10
6.6575767e-10
6.6007978e-10
6.5421405e-10
6.482522e-10
6.422654e-10
6.3630848e-10
6.3041517e-10
6.2460628e-10
6.1889379e-10
6.1328369e-10
6.0778462e-10
6.0236686e-10
5.9705243e-10
5.9171273e-10
5.8634174e-10
5.8122902e-10
5.737615e-10
0.00012484859
0.00011993375
0.00011946179
0.00011952094
0.00011955511
0.00011956394
0.00011956666
0.00011956848
0.00011957041
0.00011957264
0.0001195753
0.00011957853
0.00011958249
0.00011958741
0.0001195936
0.00011960153
0.000119612
0.00011962609
0.00011964714
0.0001196741
0.00011974746
0.00011970502
0.00012090709
6.988177e-05
2.4962172e-08
1.7563792e-10
8.5548426e-11
5.7130459e-11
4.4302753e-11
3.680851e-11
3.17021e-11
2.7915565e-11
2.5004882e-11
2.2704674e-11
2.0839952e-11
1.9301996e-11
1.8018022e-11
1.6934867e-11
1.6012572e-11
1.5223466e-11
1.4538281e-11
1.3935923e-11
1.3405798e-11
1.2939996e-11
1.2531713e-11
1.2173168e-11
1.1857952e-11
1.1582414e-11
1.134179e-11
1.1132733e-11
1.0947421e-11
1.0783109e-11
1.0648434e-11
1.055581e-11
1.0499918e-11
1.0471861e-11
1.0471402e-11
1.0499529e-11
1.0557531e-11
1.0646946e-11
1.0769518e-11
1.0927256e-11
1.1122374e-11
1.1357329e-11
1.1628822e-11
1.1938273e-11
1.2289425e-11
1.2682562e-11
1.3114462e-11
1.3617232e-11
1.4262374e-11
1.5020086e-11
1.5898417e-11
1.6918518e-11
1.8105129e-11
1.9489147e-11
2.1107194e-11
2.3002181e-11
2.521871e-11
2.7773306e-11
3.0693585e-11
3.4401418e-11
3.8846066e-11
4.4165365e-11
5.057543e-11
5.8354024e-11
6.7868492e-11
7.9547929e-11
9.3843601e-11
1.1093233e-10
1.3319893e-10
1.6094195e-10
1.9527733e-10
2.3755304e-10
2.8914128e-10
3.5117107e-10
4.2393831e-10
5.0751401e-10
6.0005301e-10
6.9567354e-10
7.8669266e-10
8.6669882e-10
9.3315134e-10
9.87151e-10
1.0309488e-09
1.0670598e-09
1.0972967e-09
1.1228166e-09
1.1441006e-09
1.1614779e-09
1.1753727e-09
1.1859084e-09
1.1929384e-09
1.1962745e-09
1.1960891e-09
1.1929395e-09
1.1874632e-09
1.1802421e-09
1.1717589e-09
1.1624063e-09
1.1524927e-09
1.1422505e-09
1.1318402e-09
1.1213861e-09
1.1109841e-09
1.1006929e-09
1.0905491e-09
1.0805737e-09
1.070777e-09
1.0611743e-09
1.0517135e-09
1.0424341e-09
1.0331093e-09
1.0237346e-09
1.0148071e-09
1.0017676e-09
0.00012455863
0.00011955882
0.0001190788
0.00011913879
0.00011917347
0.00011918242
0.00011918516
0.000119187
0.00011918893
0.00011919118
0.00011919387
0.00011919713
0.00011920114
0.0001192061
0.00011921236
0.00011922039
0.00011923099
0.00011924525
0.00011926656
0.00011929382
0.00011936824
0.00011932386
0.0001205443
6.9298776e-05
3.3765413e-08
1.9967371e-10
9.549926e-11
6.3501386e-11
4.9640449e-11
4.1729889e-11
3.6315072e-11
3.2263155e-11
2.9134486e-11
2.6656396e-11
2.4645043e-11
2.298795e-11
2.1609951e-11
2.0454898e-11
1.9479586e-11
1.8655119e-11
1.7945482e-11
1.7325848e-11
1.6785877e-11
1.6318854e-11
1.5918389e-11
1.5576241e-11
1.5285627e-11
1.5042948e-11
1.4843065e-11
1.4683014e-11
1.4551795e-11
1.4445416e-11
1.4375934e-11
1.4360652e-11
1.4394026e-11
1.4465792e-11
1.457663e-11
1.4728818e-11
1.4925059e-11
1.5168416e-11
1.5462244e-11
1.5810301e-11
1.6216649e-11
1.6686321e-11
1.7214291e-11
1.7803654e-11
1.8462217e-11
1.9193419e-11
1.9995916e-11
2.0915801e-11
2.2053105e-11
2.3373362e-11
2.4893272e-11
2.6648342e-11
2.8680411e-11
3.1041367e-11
3.3793083e-11
3.7008909e-11
4.0768127e-11
4.5114767e-11
5.0111925e-11
5.6370014e-11
6.3854498e-11
7.2804168e-11
8.3581706e-11
9.6653693e-11
1.1263866e-10
1.3226553e-10
1.5634491e-10
1.8530887e-10
2.2275737e-10
2.6939055e-10
3.271007e-10
3.9815408e-10
4.8485913e-10
5.8911893e-10
7.1144247e-10
8.5197494e-10
1.0076629e-09
1.16868e-09
1.3221302e-09
1.4571351e-09
1.5693304e-09
1.6604809e-09
1.7343886e-09
1.7952942e-09
1.8462637e-09
1.8892607e-09
1.9251087e-09
1.9543719e-09
1.9777701e-09
1.9955129e-09
2.007354e-09
2.0129767e-09
2.0126712e-09
2.0073756e-09
1.9981635e-09
1.986014e-09
1.9717402e-09
1.9560029e-09
1.9393211e-09
1.9220861e-09
1.9045681e-09
1.8869766e-09
1.8694723e-09
1.8521545e-09
1.8350847e-09
1.8182982e-09
1.8018125e-09
1.7856533e-09
1.7697327e-09
1.7541179e-09
1.7384261e-09
1.7226534e-09
1.7076305e-09
1.6856883e-09
0.00012421549
0.00011911427
0.00011862462
0.00011868563
0.0001187209
0.00011872999
0.00011873277
0.00011873462
0.00011873657
0.00011873884
0.00011874156
0.00011874486
0.00011874891
0.00011875394
0.00011876028
0.00011876842
0.00011877916
0.00011879363
0.00011881525
0.00011884284
0.00011891852
0.00011887184
0.00012011406
6.86312e-05
4.5155308e-08
2.6204972e-10
1.2361786e-10
8.1925648e-11
6.4445164e-11
5.4664231e-11
4.7943506e-11
4.2875515e-11
3.8947219e-11
3.5829262e-11
3.3295284e-11
3.1208802e-11
2.947888e-11
2.8036277e-11
2.6826619e-11
2.5814528e-11
2.495005e-11
2.4199755e-11
2.3551724e-11
2.2999359e-11
2.2535588e-11
2.2150412e-11
2.1835591e-11
2.1586863e-11
2.1397939e-11
2.1266006e-11
2.117474e-11
2.111777e-11
2.1111788e-11
2.1180912e-11
2.1319202e-11
2.1514412e-11
2.1768502e-11
2.208559e-11
2.2470441e-11
2.2928365e-11
2.3465115e-11
2.4087075e-11
2.4801099e-11
2.5616238e-11
2.652474e-11
2.7532342e-11
2.8653371e-11
2.9896668e-11
3.1264607e-11
3.2823972e-11
3.4715663e-11
3.6900353e-11
3.9408769e-11
4.2298818e-11
4.5639099e-11
4.9514314e-11
5.4025903e-11
5.9295147e-11
6.5456742e-11
7.2602219e-11
8.0855731e-11
9.1096636e-11
1.033284e-10
1.1794987e-10
1.3555317e-10
1.5690062e-10
1.8300468e-10
2.1506689e-10
2.5447789e-10
3.0212089e-10
3.6335748e-10
4.3958502e-10
5.3391794e-10
6.5006215e-10
7.9179431e-10
9.6223295e-10
1.1622253e-09
1.3920425e-09
1.6467567e-09
1.9103838e-09
2.1618635e-09
2.3832766e-09
2.5673597e-09
2.7168873e-09
2.8380969e-09
2.9379405e-09
3.0214559e-09
3.0918788e-09
3.1505754e-09
3.198483e-09
3.2367868e-09
3.2658323e-09
3.2852175e-09
3.2944244e-09
3.2939275e-09
3.285263e-09
3.2701878e-09
3.2503049e-09
3.2269451e-09
3.20119e-09
3.173889e-09
3.1456824e-09
3.1170128e-09
3.0882228e-09
3.0595754e-09
3.0312333e-09
3.0032969e-09
2.9758243e-09
2.9488439e-09
2.9223978e-09
2.8963422e-09
2.8707874e-09
2.8451061e-09
2.8192943e-09
2.7947079e-09
2.7587977e-09
0.00012381324
0.00011859195
0.00011809087
0.0001181531
0.00011818907
0.00011819833
0.00011820114
0.00011820301
0.00011820498
0.00011820728
0.00011821003
0.00011821337
0.00011821747
0.00011822258
0.00011822902
0.00011823728
0.00011824821
0.00011826291
0.00011828489
0.00011831287
0.00011839001
0.0001183406
0.00011960843
6.7878361e-05
5.9773773e-08
3.7414479e-10
1.7505244e-10
1.1577915e-10
9.1429309e-11
7.7980561e-11
6.8716875e-11
6.1695868e-11
5.6239741e-11
5.190259e-11
4.8374062e-11
4.546903e-11
4.3064519e-11
4.1065733e-11
3.9397178e-11
3.8010551e-11
3.6832217e-11
3.5813705e-11
3.493939e-11
3.4201731e-11
3.3591746e-11
3.309611e-11
3.2703812e-11
3.2409086e-11
3.2203551e-11
3.2084414e-11
3.2026956e-11
3.2020808e-11
3.2089031e-11
3.226529e-11
3.2543199e-11
3.2907895e-11
3.3363237e-11
3.3916076e-11
3.4574258e-11
3.5346475e-11
3.6242104e-11
3.7271515e-11
3.8445819e-11
3.9780323e-11
4.1263092e-11
4.290403e-11
4.4727828e-11
4.6752385e-11
4.8986949e-11
5.1528488e-11
5.4575676e-11
5.8085344e-11
6.2110638e-11
6.6744035e-11
7.2095515e-11
7.8300476e-11
8.5521607e-11
9.3954701e-11
1.0382167e-10
1.1529351e-10
1.2859597e-10
1.4498866e-10
1.6455123e-10
1.879327e-10
2.1607999e-10
2.5021287e-10
2.9195376e-10
3.432391e-10
4.0637934e-10
4.8302127e-10
5.8106768e-10
7.0308313e-10
8.5408058e-10
1.0399945e-09
1.2668751e-09
1.5397246e-09
1.8599191e-09
2.2279373e-09
2.6359752e-09
3.0585482e-09
3.46197e-09
3.817373e-09
4.1129561e-09
4.3530173e-09
4.5475702e-09
4.7077709e-09
4.8417194e-09
4.9546298e-09
5.0487155e-09
5.1254974e-09
5.1868833e-09
5.2334311e-09
5.2644973e-09
5.2792522e-09
5.2784564e-09
5.2645721e-09
5.2404147e-09
5.2085531e-09
5.1711199e-09
5.1298485e-09
5.0861e-09
5.0409002e-09
4.9949586e-09
4.9488242e-09
4.9029184e-09
4.8575014e-09
4.8127348e-09
4.7687112e-09
4.7254764e-09
4.6830977e-09
4.6413448e-09
4.6003946e-09
4.5592412e-09
4.5178803e-09
4.4784816e-09
4.4209372e-09
0.00012334543
0.00011798294
0.00011746839
0.00011753204
0.00011756884
0.0001175783
0.00011758115
0.00011758304
0.00011758504
0.00011758736
0.00011759015
0.00011759354
0.00011759771
0.0001176029
0.00011760945
0.00011761787
0.00011762899
0.00011764397
0.00011766636
0.00011769478
0.00011777362
0.000117721
0.00011901874
6.7041404e-05
7.8457017e-08
5.5591737e-10
2.5899327e-10
1.7111533e-10
1.3541679e-10
1.1584507e-10
1.023457e-10
9.2085046e-11
8.409933e-11
7.7745246e-11
7.25719e-11
6.8312185e-11
6.4789136e-11
6.1865402e-11
5.943068e-11
5.7414988e-11
5.5707062e-11
5.4234263e-11
5.297446e-11
5.1917921e-11
5.1052178e-11
5.0358495e-11
4.982133e-11
4.9432285e-11
4.9179639e-11
4.9060581e-11
4.9037514e-11
4.9093655e-11
4.9260811e-11
4.9586e-11
5.0062554e-11
5.0672367e-11
5.1422202e-11
5.2323012e-11
5.3387293e-11
5.4628851e-11
5.6062557e-11
5.7704832e-11
5.9573264e-11
6.1692867e-11
6.4045367e-11
6.6647195e-11
6.9539347e-11
7.2754593e-11
7.6314257e-11
8.0358995e-11
8.5168585e-11
9.0699143e-11
9.7039188e-11
1.0433408e-10
1.1275725e-10
1.2252172e-10
1.3388412e-10
1.4715496e-10
1.6269184e-10
1.8079541e-10
2.018565e-10
2.2767014e-10
2.5845594e-10
2.9524987e-10
3.3954241e-10
3.9325449e-10
4.5894427e-10
5.3967947e-10
6.3920974e-10
7.6043664e-10
9.1492032e-10
1.1071292e-09
1.3449967e-09
1.6378754e-09
1.9953027e-09
2.4251733e-09
2.9296813e-09
3.5096391e-09
4.1528633e-09
4.819341e-09
5.4560361e-09
6.017226e-09
6.4840881e-09
6.8632054e-09
7.1703918e-09
7.4232607e-09
7.6346207e-09
7.8127318e-09
7.9611165e-09
8.082197e-09
8.1789939e-09
8.252391e-09
8.3013755e-09
8.3246394e-09
8.3233826e-09
8.3014875e-09
8.2633938e-09
8.2131525e-09
8.1541261e-09
8.089048e-09
8.0200643e-09
7.9487922e-09
7.8763506e-09
7.8036052e-09
7.7312204e-09
7.6596061e-09
7.5890175e-09
7.5196004e-09
7.4514269e-09
7.3846033e-09
7.3187664e-09
7.2541953e-09
7.1893035e-09
7.1240856e-09
7.0619605e-09
6.9712234e-09
0.0001228052
0.00011727755
0.00011674722
0.00011681254
0.00011685029
0.00011685998
0.00011686288
0.0001168648
0.00011686682
0.00011686917
0.00011687201
0.00011687545
0.0001168797
0.00011688499
0.00011689167
0.00011690026
0.00011691161
0.0001169269
0.00011694976
0.00011697869
0.00011705946
0.00011700309
0.00011833554
6.6123738e-05
1.0228508e-07
8.388262e-10
3.9000924e-10
2.575439e-10
2.040466e-10
1.7483264e-10
1.5466907e-10
1.393195e-10
1.2736305e-10
1.1784374e-10
1.1008917e-10
1.0370271e-10
9.8422145e-11
9.4043272e-11
9.0401293e-11
8.7392037e-11
8.4846144e-11
8.2653487e-11
8.0781486e-11
7.9216573e-11
7.794061e-11
7.6926524e-11
7.615177e-11
7.5603708e-11
7.5265533e-11
7.5134507e-11
7.5153537e-11
7.5295773e-11
7.5605021e-11
7.6146927e-11
7.6915062e-11
7.7887536e-11
7.9075575e-11
8.049632e-11
8.2169282e-11
8.4115998e-11
8.6359653e-11
8.8925837e-11
9.1841958e-11
9.5147999e-11
9.8816145e-11
1.0287298e-10
1.0738489e-10
1.1240864e-10
1.1798597e-10
1.2432056e-10
1.3180567e-10
1.4040334e-10
1.5025733e-10
1.6159337e-10
1.7468148e-10
1.8985276e-10
2.0750698e-10
2.2812991e-10
2.5228833e-10
2.8049061e-10
3.1339093e-10
3.5353719e-10
4.0139268e-10
4.5858691e-10
5.2743755e-10
6.1093279e-10
7.1305632e-10
8.3860415e-10
9.9355497e-10
1.1828291e-09
1.423247e-09
1.7223235e-09
2.092452e-09
2.5481905e-09
3.1043892e-09
3.7733514e-09
4.5585263e-09
5.4612545e-09
6.4627241e-09
7.500847e-09
8.4931362e-09
9.3681162e-09
1.009619e-08
1.0687355e-08
1.1166272e-08
1.1560402e-08
1.188974e-08
1.2167201e-08
1.2398313e-08
1.258688e-08
1.2737621e-08
1.2851919e-08
1.2928197e-08
1.2964421e-08
1.2962458e-08
1.2928356e-08
1.2869029e-08
1.2790785e-08
1.2698861e-08
1.2597513e-08
1.2490083e-08
1.237909e-08
1.2266276e-08
1.215299e-08
1.2040265e-08
1.1928739e-08
1.1818811e-08
1.1710707e-08
1.160454e-08
1.1500475e-08
1.1397947e-08
1.1297389e-08
1.1196332e-08
1.1094768e-08
1.0998019e-08
1.0856713e-08
0.0001221853
0.00011646535
0.00011591661
0.00011598388
0.00011602275
0.0001160327
0.00011603566
0.0001160376
0.00011603965
0.00011604204
0.00011604492
0.00011604844
0.00011605277
0.00011605817
0.000116065
0.00011607378
0.0001160854
0.00011610104
0.00011612444
0.00011615393
0.0001162369
0.00011617617
0.00011754865
6.5131451e-05
1.3265033e-07
1.2707415e-09
5.9032254e-10
3.8973109e-10
3.0896707e-10
2.6495646e-10
2.3457028e-10
2.1141971e-10
1.9337795e-10
1.7900797e-10
1.6729733e-10
1.5765049e-10
1.4967437e-10
1.4306238e-10
1.3756637e-10
1.3302971e-10
1.291946e-10
1.2589376e-10
1.2307842e-10
1.2072889e-10
1.1881819e-10
1.1730673e-10
1.1616137e-10
1.1536289e-10
1.148869e-10
1.1473101e-10
1.1480883e-10
1.1507792e-10
1.1559851e-10
1.1646224e-10
1.1766401e-10
1.1917781e-10
1.2102173e-10
1.2322222e-10
1.2580938e-10
1.2881639e-10
1.3227899e-10
1.3623662e-10
1.4073153e-10
1.4582662e-10
1.5147982e-10
1.5773335e-10
1.6469287e-10
1.724532e-10
1.8108977e-10
1.9089695e-10
2.0242676e-10
2.1565955e-10
2.3082448e-10
2.4826889e-10
2.6840912e-10
2.9175492e-10
3.1892295e-10
3.5066526e-10
3.8786883e-10
4.3137005e-10
4.8223755e-10
5.4407822e-10
6.177643e-10
7.0583006e-10
8.1184541e-10
9.4041466e-10
1.0976815e-09
1.2910674e-09
1.5299757e-09
1.8225248e-09
2.1931025e-09
2.6540301e-09
3.2244721e-09
3.9268732e-09
4.7841339e-09
5.8152419e-09
7.0255588e-09
8.4172515e-09
9.9615183e-09
1.1562896e-08
1.3094304e-08
1.4445144e-08
1.5569391e-08
1.6482137e-08
1.7221456e-08
1.7829749e-08
1.8337919e-08
1.8765951e-08
1.9122426e-08
1.9413254e-08
1.9645734e-08
1.9822003e-08
1.9939636e-08
1.9995493e-08
1.9992457e-08
1.9939854e-08
1.9848348e-08
1.9727669e-08
1.9585892e-08
1.9429583e-08
1.9263895e-08
1.9092711e-08
1.891872e-08
1.8744e-08
1.8570147e-08
1.8398143e-08
1.8228603e-08
1.8061876e-08
1.7898136e-08
1.7737637e-08
1.7579509e-08
1.742442e-08
1.726856e-08
1.7111919e-08
1.6962703e-08
1.6744768e-08
0.0001214782
0.00011553526
0.00011496513
0.00011503464
0.00011507479
0.00011508504
0.00011508807
0.00011509005
0.00011509213
0.00011509457
0.0001150975
0.00011510109
0.00011510552
0.00011511105
0.00011511804
0.00011512704
0.00011513896
0.000115155
0.000115179
0.00011520913
0.00011529457
0.00011522878
0.00011664721
6.4073665e-05
1.7134946e-07
1.9235234e-09
8.9333137e-10
5.8972501e-10
4.6768382e-10
4.0125758e-10
3.5538782e-10
3.2042471e-10
2.9316904e-10
2.7145419e-10
2.5375251e-10
2.3916714e-10
2.2710689e-10
2.1711038e-10
2.0880347e-10
2.0195001e-10
1.9615873e-10
1.9117595e-10
1.8692829e-10
1.8338659e-10
1.805104e-10
1.7824153e-10
1.7653103e-10
1.7534957e-10
1.7466164e-10
1.744657e-10
1.7463155e-10
1.750928e-10
1.759322e-10
1.7727759e-10
1.7912731e-10