/*--------------------------------*- C++ -*----------------------------------*\
| =========                 |                                                 |
| \\      /  F ield         | OpenFOAM: The Open Source CFD Toolbox           |
|  \\    /   O peration     | Version:  2206                                  |
|   \\  /    A nd           | Website:  www.openfoam.com                      |
|    \\/     M anipulation  |                                                 |
\*---------------------------------------------------------------------------*/
FoamFile
{
    version     2.0;
    format      ascii;
    arch        "LSB;label=32;scalar=64";
    class       volScalarField;
    location    "400";
    object      nut;
}
// * * * * * * * * * * * * * * * * * * * * * * * * * * * * * * * * * * * * * //

dimensions      [0 2 -1 0 0 0 0];

internalField   nonuniform List<scalar> 
13056
(
1.9758897e-07
1.9735243e-07
1.9737249e-07
1.9741441e-07
1.9743726e-07
1.9744785e-07
1.9745333e-07
1.9745683e-07
1.9745949e-07
1.9746182e-07
1.9746406e-07
1.9746642e-07
1.9746909e-07
1.9747228e-07
1.9747629e-07
1.9748148e-07
1.9748862e-07
1.9749813e-07
1.9751488e-07
1.9752671e-07
1.9763112e-07
1.9732181e-07
1.9875874e-07
4.0033624e-09
2.7116926e-16
4.1546978e-17
2.0998203e-17
1.4142268e-17
1.0796297e-17
8.7618801e-18
7.3869555e-18
6.3830556e-18
5.6168329e-18
5.01292e-18
4.5234956e-18
4.1182626e-18
3.7770067e-18
3.4855563e-18
3.2336537e-18
3.0136649e-18
2.8198778e-18
2.6476611e-18
2.4937389e-18
2.3552182e-18
2.2298872e-18
2.1159221e-18
2.0118191e-18
1.9163298e-18
1.8284085e-18
1.7471769e-18
1.6718859e-18
1.6018924e-18
1.5366449e-18
1.4756659e-18
1.4185409e-18
1.3649103e-18
1.3144567e-18
1.2668995e-18
1.2219914e-18
1.1795133e-18
1.13927e-18
1.1010881e-18
1.0648145e-18
1.0303111e-18
9.9745204e-19
9.6612442e-19
9.3622765e-19
9.0767194e-19
8.8037606e-19
8.5426752e-19
8.292831e-19
8.0536726e-19
7.8247177e-19
7.6055493e-19
7.3958101e-19
7.1952031e-19
7.003491e-19
6.8205347e-19
6.6463489e-19
6.4810331e-19
6.3247553e-19
6.177795e-19
6.0404865e-19
5.9132721e-19
5.7969058e-19
5.6922854e-19
5.6006428e-19
5.5252918e-19
5.4615268e-19
5.4308173e-19
5.4148481e-19
5.4305932e-19
5.478305e-19
5.5640809e-19
5.6935017e-19
5.871794e-19
6.099284e-19
6.3766024e-19
6.705942e-19
7.0752283e-19
7.4528969e-19
7.8124538e-19
8.1089704e-19
8.3551597e-19
8.5408861e-19
8.679567e-19
8.7816764e-19
8.8552328e-19
8.9065348e-19
8.9389637e-19
8.9551552e-19
8.9571504e-19
8.944915e-19
8.9187894e-19
8.8806259e-19
8.8320624e-19
8.7751669e-19
8.7122517e-19
8.644712e-19
8.5739376e-19
8.5015908e-19
8.4286639e-19
8.355512e-19
8.2826522e-19
8.2108446e-19
8.14033e-19
8.0710222e-19
8.0028163e-19
7.9357972e-19
7.8698887e-19
7.8053135e-19
7.7391161e-19
7.6761723e-19
7.5983139e-19
7.5353731e-19
7.4441853e-19
1.9758769e-07
1.9735089e-07
1.9737095e-07
1.9741291e-07
1.9743578e-07
1.9744638e-07
1.9745187e-07
1.9745537e-07
1.9745804e-07
1.9746036e-07
1.9746261e-07
1.9746497e-07
1.9746764e-07
1.9747083e-07
1.9747484e-07
1.9748004e-07
1.9748719e-07
1.9749671e-07
1.9751347e-07
1.975253e-07
1.9762981e-07
1.9732019e-07
1.9875898e-07
4.0679347e-09
2.5632868e-16
3.8828825e-17
1.9624389e-17
1.3216999e-17
1.0089942e-17
8.1886335e-18
6.9036674e-18
5.9654506e-18
5.2493606e-18
4.6849609e-18
4.2275592e-18
3.8488404e-18
3.5299128e-18
3.2575322e-18
3.0221118e-18
2.8165172e-18
2.6354099e-18
2.4744618e-18
2.3306111e-18
2.2011542e-18
2.084024e-18
1.977516e-18
1.8802248e-18
1.7909837e-18
1.7088154e-18
1.6328989e-18
1.5625343e-18
1.4971204e-18
1.4361421e-18
1.3791536e-18
1.3257672e-18
1.2756467e-18
1.2284953e-18
1.1840508e-18
1.1420823e-18
1.1023848e-18
1.064776e-18
1.0290938e-18
9.9519516e-19
9.6295104e-19
9.3224361e-19
9.0296745e-19
8.7502839e-19
8.4834228e-19
8.2283284e-19
7.9843334e-19
7.7508697e-19
7.5274004e-19
7.3134721e-19
7.108696e-19
6.9127385e-19
6.7253231e-19
6.5462289e-19
6.3753246e-19
6.2126179e-19
6.0581743e-19
5.9121328e-19
5.7749489e-19
5.6468303e-19
5.5281825e-19
5.419718e-19
5.322285e-19
5.2370414e-19
5.1670671e-19
5.1078209e-19
5.0790071e-19
5.0649961e-19
5.0808893e-19
5.126916e-19
5.2088156e-19
5.3318344e-19
5.5008527e-19
5.716095e-19
5.9779635e-19
6.2881003e-19
6.6346312e-19
6.9877684e-19
7.3232305e-19
7.5996424e-19
7.8293613e-19
8.0029084e-19
8.132791e-19
8.2287215e-19
8.298094e-19
8.3466929e-19
8.3776066e-19
8.3932692e-19
8.3955722e-19
8.384473e-19
8.3602796e-19
8.3247245e-19
8.2793565e-19
8.2261282e-19
8.1672178e-19
8.1039451e-19
8.0376211e-19
7.9698074e-19
7.9014383e-19
7.8328513e-19
7.7645336e-19
7.6971973e-19
7.6310695e-19
7.5660716e-19
7.5021065e-19
7.4392541e-19
7.3774439e-19
7.3168815e-19
7.254814e-19
7.1957768e-19
7.1228358e-19
7.0638167e-19
6.9783053e-19
1.9758356e-07
1.9734595e-07
1.9736603e-07
1.9740812e-07
1.9743105e-07
1.9744169e-07
1.9744719e-07
1.974507e-07
1.9745337e-07
1.9745571e-07
1.9745796e-07
1.9746033e-07
1.9746301e-07
1.9746621e-07
1.9747023e-07
1.9747544e-07
1.974826e-07
1.9749215e-07
1.9750895e-07
1.9752079e-07
1.9762558e-07
1.9731507e-07
1.9875798e-07
4.1414488e-09
2.6167219e-16
3.7021197e-17
1.8710448e-17
1.2601405e-17
9.6200619e-18
7.8073803e-18
6.5823065e-18
5.6878148e-18
5.0050973e-18
4.4670016e-18
4.0309184e-18
3.6698528e-18
3.3657935e-18
3.106113e-18
2.881671e-18
2.6856658e-18
2.5130068e-18
2.3595673e-18
2.2224283e-18
2.0990128e-18
1.9873501e-18
1.8858141e-18
1.7930644e-18
1.7079891e-18
1.629656e-18
1.5572814e-18
1.4901973e-18
1.4278317e-18
1.3696987e-18
1.3153802e-18
1.2645031e-18
1.2167414e-18
1.171812e-18
1.1294652e-18
1.0894809e-18
1.0516642e-18
1.0158413e-18
9.8185812e-19
9.4957845e-19
9.1887809e-19
8.8964404e-19
8.617751e-19
8.3517924e-19
8.0977078e-19
7.8546965e-19
7.6223407e-19
7.4005819e-19
7.1885369e-19
6.9857164e-19
6.7917732e-19
6.6063975e-19
6.4293589e-19
6.2604664e-19
6.0995815e-19
5.9465922e-19
5.8010013e-19
5.6625729e-19
5.5358055e-19
5.4187472e-19
5.3116469e-19
5.2153943e-19
5.131037e-19
5.0598918e-19
5.0046809e-19
4.958216e-19
4.9323406e-19
4.9419819e-19
4.9866924e-19
5.0668011e-19
5.1889664e-19
5.3591898e-19
5.5824028e-19
5.8573792e-19
6.1809644e-19
6.546396e-19
6.9293503e-19
7.2937294e-19
7.6242109e-19
7.8915561e-19
8.1177211e-19
8.293578e-19
8.4313947e-19
8.5395091e-19
8.623466e-19
8.6870122e-19
8.7318529e-19
8.7598744e-19
8.7726009e-19
8.7697342e-19
8.7513265e-19
8.7191043e-19
8.6750267e-19
8.6214999e-19
8.5610779e-19
8.4954403e-19
8.4261675e-19
8.3549801e-19
8.2829569e-19
8.210565e-19
8.1383699e-19
8.067111e-19
7.9970533e-19
7.9281628e-19
7.8603736e-19
7.7937682e-19
7.7282986e-19
7.6640975e-19
7.5987225e-19
7.536034e-19
7.4607564e-19
7.3984863e-19
7.3081571e-19
1.9757647e-07
1.9733746e-07
1.9735758e-07
1.9739988e-07
1.9742293e-07
1.9743361e-07
1.9743914e-07
1.9744267e-07
1.9744536e-07
1.974477e-07
1.9744996e-07
1.9745234e-07
1.9745503e-07
1.9745825e-07
1.9746229e-07
1.9746752e-07
1.9747471e-07
1.974843e-07
1.9750116e-07
1.9751303e-07
1.976183e-07
1.9730627e-07
1.9875574e-07
4.2179662e-09
3.2366558e-16
3.5756908e-17
1.8069082e-17
1.2169078e-17
9.2905204e-18
7.5405485e-18
6.3578206e-18
5.4942078e-18
4.8350502e-18
4.315528e-18
3.894506e-18
3.5459232e-18
3.25239e-18
3.0017126e-18
2.7850638e-18
2.5958775e-18
2.429233e-18
2.2811431e-18
2.1487916e-18
2.0296929e-18
1.9219456e-18
1.8239737e-18
1.7344775e-18
1.6523878e-18
1.5768001e-18
1.5069532e-18
1.4421953e-18
1.3819818e-18
1.3258825e-18
1.2735411e-18
1.2245735e-18
1.1786275e-18
1.1354273e-18
1.0947337e-18
1.0563361e-18
1.0200481e-18
9.8570405e-19
9.5315714e-19
9.2227791e-19
8.9293801e-19
8.6502354e-19
8.384321e-19
8.1305908e-19
7.8878353e-19
7.6547616e-19
7.4325108e-19
7.2244491e-19
7.0271055e-19
6.8396093e-19
6.6617977e-19
6.4934393e-19
6.3345545e-19
6.1851094e-19
6.0448908e-19
5.9129589e-19
5.7848825e-19
5.6578174e-19
5.5648683e-19
5.4890312e-19
5.4296194e-19
5.3890403e-19
5.3700639e-19
5.375521e-19
5.4064183e-19
5.4343887e-19
5.4196726e-19
5.5942398e-19
5.8506886e-19
6.1908003e-19
6.6310261e-19
7.1872806e-19
7.8721513e-19
8.6856111e-19
9.6224962e-19
1.0657055e-18
1.171498e-18
1.2702193e-18
1.3565857e-18
1.4270012e-18
1.4852162e-18
1.5319714e-18
1.5701987e-18
1.6018633e-18
1.6281657e-18
1.6496567e-18
1.666624e-18
1.6794958e-18
1.6884793e-18
1.693429e-18
1.6942074e-18
1.6911006e-18
1.6847023e-18
1.675707e-18
1.6647815e-18
1.6524389e-18
1.639116e-18
1.6252e-18
1.6109632e-18
1.5965675e-18
1.5821572e-18
1.5678717e-18
1.5537791e-18
1.5399034e-18
1.5262539e-18
1.5128462e-18
1.4996871e-18
1.4867501e-18
1.4738391e-18
1.4611425e-18
1.4472468e-18
1.4348833e-18
1.4168821e-18
1.975662e-07
1.9732516e-07
1.9734535e-07
1.9738795e-07
1.9741117e-07
1.9742192e-07
1.9742749e-07
1.9743104e-07
1.9743375e-07
1.974361e-07
1.9743838e-07
1.9744078e-07
1.9744349e-07
1.9744672e-07
1.9745079e-07
1.9745605e-07
1.9746329e-07
1.9747293e-07
1.9748989e-07
1.9750179e-07
1.9760774e-07
1.9729353e-07
1.9875229e-07
4.2966664e-09
5.1465637e-16
3.4987988e-17
1.7670184e-17
1.1898845e-17
9.0864105e-18
7.3775748e-18
6.2224926e-18
5.3788895e-18
4.7349645e-18
4.2274649e-18
3.8162229e-18
3.4757904e-18
3.189181e-18
2.944474e-18
2.7330367e-18
2.5484583e-18
2.3859058e-18
2.2414733e-18
2.1124169e-18
1.9963202e-18
1.8913315e-18
1.7958848e-18
1.7086878e-18
1.6287139e-18
1.5550613e-18
1.4869655e-18
1.4237617e-18
1.3649495e-18
1.3102733e-18
1.2595885e-18
1.2124183e-18
1.1682588e-18
1.1268315e-18
1.0879101e-18
1.0512971e-18
1.0168187e-18
9.8432174e-19
9.5367167e-19
9.2475092e-19
8.9739847e-19
8.7148207e-19
8.4688147e-19
8.23427e-19
8.0083622e-19
7.787589e-19
7.5796647e-19
7.4025704e-19
7.2417332e-19
7.0945982e-19
6.9617539e-19
6.8432602e-19
6.7401727e-19
6.6531121e-19
6.581536e-19
6.5204799e-19
6.4473747e-19
6.3471785e-19
6.3815825e-19
6.4665586e-19
6.5973428e-19
6.7836383e-19
7.0374869e-19
7.3735981e-19
7.8049549e-19
8.3051523e-19
8.8016585e-19
9.7131316e-19
1.0890444e-18
1.2368256e-18
1.4207056e-18
1.6467258e-18
1.9196882e-18
2.2402332e-18
2.6073227e-18
3.0108234e-18
3.4221175e-18
3.8060912e-18
4.1392992e-18
4.4128862e-18
4.6366123e-18
4.8183169e-18
4.96881e-18
5.0954484e-18
5.2026612e-18
5.2921021e-18
5.36479e-18
5.4223427e-18
5.4652854e-18
5.4929745e-18
5.5046562e-18
5.5011599e-18
5.4848674e-18
5.4585178e-18
5.4246419e-18
5.3853025e-18
5.3421951e-18
5.2966928e-18
5.249813e-18
5.2022327e-18
5.1544948e-18
5.1070435e-18
5.060136e-18
5.0139141e-18
4.9684555e-18
4.923809e-18
4.8800306e-18
4.8369249e-18
4.7944384e-18
4.7520035e-18
4.7082861e-18
4.6674652e-18
4.6078945e-18
1.9755248e-07
1.9730872e-07
1.9732898e-07
1.97372e-07
1.9739543e-07
1.9740629e-07
1.9741191e-07
1.9741549e-07
1.9741822e-07
1.974206e-07
1.974229e-07
1.9742532e-07
1.9742805e-07
1.9743131e-07
1.9743541e-07
1.9744071e-07
1.9744801e-07
1.9745772e-07
1.9747482e-07
1.9748676e-07
1.9759362e-07
1.972765e-07
1.9874766e-07
4.3779063e-09
9.8506924e-16
3.5002432e-17
1.7643859e-17
1.1875956e-17
9.0761503e-18
7.3780554e-18
6.2297197e-18
5.3904599e-18
4.7497144e-18
4.2447713e-18
3.8357172e-18
3.4972668e-18
3.2125223e-18
2.9695945e-18
2.7598625e-18
2.576959e-18
2.4159903e-18
2.2730332e-18
2.1453816e-18
2.0306689e-18
1.9270716e-18
1.8329461e-18
1.7469321e-18
1.6680658e-18
1.5953907e-18
1.5280771e-18
1.4653716e-18
1.4068781e-18
1.3528761e-18
1.3038842e-18
1.2591024e-18
1.2175093e-18
1.1787971e-18
1.1427653e-18
1.1092434e-18
1.0780858e-18
1.0491676e-18
1.0223837e-18
9.9764558e-19
9.7467029e-19
9.5325249e-19
9.3319779e-19
9.1409505e-19
8.9508259e-19
8.7502337e-19
8.5692998e-19
8.4763184e-19
8.4186705e-19
8.3878562e-19
8.3869092e-19
8.4186239e-19
8.4875431e-19
8.5982503e-19
8.7544146e-19
8.9539051e-19
9.1677969e-19
9.3744442e-19
9.8301877e-19
1.0422022e-18
1.1156813e-18
1.2068227e-18
1.3198849e-18
1.46029e-18
1.6335245e-18
1.838832e-18
2.0621378e-18
2.3963117e-18
2.8177255e-18
3.3410883e-18
3.9870799e-18
4.7765561e-18
5.7262439e-18
6.8392549e-18
8.113615e-18
9.515765e-18
1.0948869e-17
1.2293056e-17
1.3461623e-17
1.4424816e-17
1.5209896e-17
1.5848423e-17
1.6377752e-17
1.6823723e-17
1.7202085e-17
1.7518674e-17
1.7777308e-17
1.7983768e-17
1.8139736e-17
1.8242935e-17
1.8290575e-17
1.8285316e-17
1.8235511e-17
1.8150728e-17
1.8039727e-17
1.7909744e-17
1.776668e-17
1.7615207e-17
1.7458834e-17
1.7299957e-17
1.7140451e-17
1.6981783e-17
1.6824842e-17
1.667016e-17
1.6518042e-17
1.6368649e-17
1.6222198e-17
1.6077936e-17
1.5936247e-17
1.5794106e-17
1.5650229e-17
1.5513965e-17
1.5314985e-17
1.9753495e-07
1.9728769e-07
1.9730805e-07
1.973516e-07
1.9737531e-07
1.973863e-07
1.9739198e-07
1.973956e-07
1.9739836e-07
1.9740077e-07
1.974031e-07
1.9740554e-07
1.974083e-07
1.974116e-07
1.9741574e-07
1.974211e-07
1.9742847e-07
1.9743828e-07
1.9745554e-07
1.9746754e-07
1.9757556e-07
1.9725471e-07
1.9874192e-07
4.462447e-09
1.9853426e-15
3.6659555e-17
1.8389157e-17
1.2363733e-17
9.4684487e-18
7.7207195e-18
6.5374038e-18
5.6709847e-18
5.009131e-18
4.4876898e-18
4.0655897e-18
3.716812e-18
3.4239147e-18
3.1745406e-18
2.9596987e-18
2.772844e-18
2.6086916e-18
2.4630905e-18
2.3333114e-18
2.2170113e-18
2.112358e-18
2.0174102e-18
1.9305417e-18
1.8509192e-18
1.7773799e-18
1.7088603e-18
1.6443211e-18
1.5836481e-18
1.528661e-18
1.4818065e-18
1.4413396e-18
1.4047026e-18
1.3714848e-18
1.3415474e-18
1.3147878e-18
1.2911331e-18
1.2705347e-18
1.2529698e-18
1.2384355e-18
1.2267143e-18
1.2174914e-18
1.2105964e-18
1.2056615e-18
1.2016546e-18
1.1970511e-18
1.1962933e-18
1.209803e-18
1.2304855e-18
1.2575462e-18
1.2919587e-18
1.3347616e-18
1.3873727e-18
1.4513594e-18
1.528306e-18
1.6189692e-18
1.7193978e-18
1.8264301e-18
1.9879116e-18
2.1864744e-18
2.4263518e-18
2.7175743e-18
3.0729174e-18
3.5088985e-18
4.0431583e-18
4.6829106e-18
5.4028551e-18
6.4161566e-18
7.6854952e-18
9.2578329e-18
1.1194824e-17
1.3558884e-17
1.6400432e-17
1.9730165e-17
2.3545023e-17
2.774892e-17
3.2057927e-17
3.6116018e-17
3.9653622e-17
4.2576402e-17
4.4955703e-17
4.689012e-17
4.849204e-17
4.9840139e-17
5.0982987e-17
5.1939063e-17
5.2720722e-17
5.33458e-17
5.3819382e-17
5.4134658e-17
5.4283129e-17
5.4272625e-17
5.4128286e-17
5.3878884e-17
5.3550701e-17
5.316552e-17
5.2741068e-17
5.2291301e-17
5.1826732e-17
5.135459e-17
5.0880497e-17
5.0408799e-17
4.9942162e-17
4.9482217e-17
4.9029903e-17
4.8585694e-17
4.8150268e-17
4.7721296e-17
4.7300379e-17
4.6877618e-17
4.6451739e-17
4.6046833e-17
4.5455465e-17
1.9751319e-07
1.9726155e-07
1.9728203e-07
1.9732624e-07
1.9735031e-07
1.9736145e-07
1.9736722e-07
1.9737089e-07
1.9737369e-07
1.9737613e-07
1.9737849e-07
1.9738097e-07
1.9738377e-07
1.9738711e-07
1.973913e-07
1.9739673e-07
1.9740419e-07
1.9741411e-07
1.9743158e-07
1.9744364e-07
1.9755311e-07
1.9722762e-07
1.9873522e-07
4.5512871e-09
3.9443349e-15
4.1898223e-17
2.0813334e-17
1.396188e-17
1.0737212e-17
8.8095783e-18
7.5010463e-18
6.5392417e-18
5.8037193e-18
5.2246638e-18
4.7567992e-18
4.3714246e-18
4.0491555e-18
3.7760506e-18
3.5418985e-18
3.3395017e-18
3.1624513e-18
3.0059088e-18
2.867006e-18
2.7433924e-18
2.6331686e-18
2.5341505e-18
2.4445065e-18
2.3633735e-18
2.2894081e-18
2.2214297e-18
2.1578979e-18
2.0986245e-18
2.0463739e-18
2.0049133e-18
1.9721123e-18
1.9446213e-18
1.9220597e-18
1.9044258e-18
1.8917708e-18
1.8841891e-18
1.88181e-18
1.8848046e-18
1.8933749e-18
1.9074848e-18
1.9265581e-18
1.9505076e-18
1.9791483e-18
2.0111954e-18
2.0444245e-18
2.0864133e-18
2.1552673e-18
2.240198e-18
2.3407341e-18
2.4595102e-18
2.5994701e-18
2.764432e-18
2.958757e-18
3.1871701e-18
3.4532185e-18
3.7517032e-18
4.0785728e-18
4.528999e-18
5.0744985e-18
5.7287985e-18
6.5185907e-18
7.4779867e-18
8.6514469e-18
1.0087929e-17
1.1819747e-17
1.380781e-17
1.6525685e-17
1.9921623e-17
2.41251e-17
2.9300717e-17
3.5615438e-17
4.3204877e-17
5.2100004e-17
6.2297835e-17
7.3550718e-17
8.5111773e-17
9.6033871e-17
1.0557753e-16
1.1347535e-16
1.1990032e-16
1.2512075e-16
1.2943882e-16
1.330679e-16
1.3614104e-16
1.3871017e-16
1.4081034e-16
1.424904e-16
1.4376427e-16
1.4461381e-16
1.4501617e-16
1.4499222e-16
1.4460942e-16
1.4394494e-16
1.4306921e-16
1.4204068e-16
1.4090688e-16
1.3970517e-16
1.384637e-16
1.3720189e-16
1.3593481e-16
1.3467404e-16
1.3342675e-16
1.3219732e-16
1.3098829e-16
1.2980094e-16
1.2863708e-16
1.2749043e-16
1.2636565e-16
1.2523552e-16
1.2409873e-16
1.2301664e-16
1.2143616e-16
1.974867e-07
1.9722967e-07
1.9725029e-07
1.9729533e-07
1.9731983e-07
1.9733116e-07
1.9733703e-07
1.9734076e-07
1.9734361e-07
1.9734609e-07
1.9734849e-07
1.9735101e-07
1.9735386e-07
1.9735725e-07
1.9736151e-07
1.9736702e-07
1.973746e-07
1.9738465e-07
1.9740238e-07
1.974145e-07
1.9752574e-07
1.9719457e-07
1.9872775e-07
4.6456295e-09
7.5854061e-15
5.5323018e-17
2.7001984e-17
1.8039698e-17
1.3978495e-17
1.1598845e-17
9.9769068e-18
8.7752977e-18
7.8527509e-18
7.125017e-18
6.5364474e-18
6.0521713e-18
5.6486396e-18
5.3085895e-18
5.0191249e-18
4.7714245e-18
4.5562892e-18
4.3671026e-18
4.2005343e-18
4.054091e-18
3.925624e-18
3.8123569e-18
3.7119558e-18
3.6234273e-18
3.5450079e-18
3.4752685e-18
3.4115278e-18
3.3533513e-18
3.3053775e-18
3.2740189e-18
3.256401e-18
3.2476268e-18
3.2474007e-18
3.2560257e-18
3.2738968e-18
3.3014852e-18
3.339323e-18
3.3880225e-18
3.4482538e-18
3.5204528e-18
3.6034629e-18
3.6974435e-18
3.8027819e-18
3.9179418e-18
4.0395792e-18
4.1817195e-18
4.3778728e-18
4.610385e-18
4.8798948e-18
5.1928816e-18
5.5567378e-18
5.980856e-18
6.4761376e-18
7.0547971e-18
7.72754e-18
8.4888073e-18
9.335368e-18
1.0457528e-17
1.1808387e-17
1.342491e-17
1.5372556e-17
1.7735156e-17
2.062255e-17
2.4158216e-17
2.8442142e-17
3.3428605e-17
4.0124828e-17
4.848096e-17
5.882185e-17
7.1552524e-17
8.7084349e-17
1.0575285e-16
1.2763852e-16
1.5274348e-16
1.8047588e-16
2.0902021e-16
2.3605287e-16
2.5971836e-16
2.7932608e-16
2.9527025e-16
3.0821794e-16
3.1891678e-16
3.2789823e-16
3.354962e-16
3.418437e-16
3.4703101e-16
3.5118065e-16
3.5432768e-16
3.564276e-16
3.5742403e-16
3.5736839e-16
3.5642719e-16
3.5479089e-16
3.5263329e-16
3.5009866e-16
3.4730428e-16
3.4434227e-16
3.4128211e-16
3.3817174e-16
3.3504831e-16
3.3194041e-16
3.2886564e-16
3.2583491e-16
3.2285448e-16
3.1992747e-16
3.170584e-16
3.1423173e-16
3.1145922e-16
3.0867321e-16
3.0587218e-16
3.0320483e-16
2.9930891e-16
1.9745492e-07
1.9719134e-07
1.9721213e-07
1.9725816e-07
1.9728318e-07
1.9729475e-07
1.9730074e-07
1.9730455e-07
1.9730746e-07
1.9730999e-07
1.9731244e-07
1.9731501e-07
1.9731791e-07
1.9732137e-07
1.9732571e-07
1.9733132e-07
1.9733902e-07
1.9734924e-07
1.9736727e-07
1.9737948e-07
1.9749284e-07
1.971548e-07
1.9871985e-07
4.7468998e-09
1.4117023e-14
8.6098192e-17
4.1252346e-17
2.7440084e-17
2.1436476e-17
1.8000382e-17
1.5647402e-17
1.3888007e-17
1.2530888e-17
1.1457672e-17
1.0588427e-17
9.873832e-18
9.2806312e-18
8.7838991e-18
8.3645705e-18
8.0100302e-18
7.7047779e-18
7.4381464e-18
7.2056805e-18
7.0044744e-18
6.8317599e-18
6.6834855e-18
6.556238e-18
6.448674e-18
6.3581507e-18
6.2827729e-18
6.2174146e-18
6.1609832e-18
6.1216888e-18
6.1110238e-18
6.1247737e-18
6.1551924e-18
6.202217e-18
6.2668099e-18
6.3501136e-18
6.4534206e-18
6.578143e-18
6.7258597e-18
6.8982685e-18
7.0969451e-18
7.3195049e-18
7.5667507e-18
7.8406053e-18
8.1395766e-18
8.4587549e-18
8.8249051e-18
9.3012006e-18
9.8579096e-18
1.0498775e-17
1.1238746e-17
1.2095093e-17
1.3089521e-17
1.4247477e-17
1.5598067e-17
1.7169004e-17
1.8958396e-17
2.0969897e-17
2.3577935e-17
2.6707996e-17
3.0450477e-17
3.4956612e-17
4.0420377e-17
4.7096899e-17
5.5277408e-17
6.5227857e-17
7.6932335e-17
9.2452471e-17
1.1180464e-16
1.3575193e-16
1.6523289e-16
2.0120163e-16
2.4443897e-16
2.95139e-16
3.5332384e-16
4.1765476e-16
4.8396669e-16
5.4688874e-16
6.0205635e-16
6.4780685e-16
6.8499714e-16
7.1518347e-16
7.40106e-16
7.6100812e-16
7.7867566e-16
7.9342675e-16
8.0547804e-16
8.1511765e-16
8.2242844e-16
8.273076e-16
8.2962428e-16
8.2949787e-16
8.2731507e-16
8.2351818e-16
8.1851081e-16
8.1262798e-16
8.0614204e-16
7.9926685e-16
7.9216369e-16
7.8494393e-16
7.7769384e-16
7.7047972e-16
7.6334249e-16
7.5630745e-16
7.4938917e-16
7.4259488e-16
7.3593512e-16
7.2937373e-16
7.2293831e-16
7.1647121e-16
7.0997056e-16
7.0377911e-16
6.9473596e-16
1.9741722e-07
1.9714574e-07
1.9716673e-07
1.9721395e-07
1.972396e-07
1.9725146e-07
1.9725759e-07
1.9726149e-07
1.9726447e-07
1.9726706e-07
1.9726957e-07
1.9727219e-07
1.9727516e-07
1.972787e-07
1.9728313e-07
1.9728886e-07
1.9729672e-07
1.9730713e-07
1.9732552e-07
1.9733782e-07
1.9745371e-07
1.9710743e-07
1.9871199e-07
4.8567923e-09
2.5544681e-14
1.5226502e-16
7.1941066e-17
4.7692426e-17
3.7495077e-17
3.1773835e-17
2.7840832e-17
2.4876949e-17
2.2581598e-17
2.0762273e-17
1.9286495e-17
1.8073716e-17
1.7069788e-17
1.6233361e-17
1.5532149e-17
1.4945339e-17
1.4443954e-17
1.4008628e-17
1.3632434e-17
1.3311515e-17
1.3041735e-17
1.2816446e-17
1.263004e-17
1.2480358e-17
1.2363002e-17
1.2275262e-17
1.2206955e-17
1.2155405e-17
1.2135444e-17
1.2168055e-17
1.2246724e-17
1.2358657e-17
1.2504376e-17
1.2686238e-17
1.2906963e-17
1.3169582e-17
1.3477372e-17
1.3833963e-17
1.4243238e-17
1.4709376e-17
1.5227474e-17
1.579988e-17
1.6432263e-17
1.7124273e-17
1.7869239e-17
1.8718454e-17
1.9790705e-17
2.1035918e-17
2.2465587e-17
2.4112676e-17
2.6015588e-17
2.8222276e-17
3.0789349e-17
3.378251e-17
3.7267785e-17
4.1258801e-17
4.5782669e-17
5.1561133e-17
5.8483464e-17
6.6757569e-17
7.6717721e-17
8.8793152e-17
1.0355011e-16
1.2164271e-16
1.4371907e-16
1.6990374e-16
2.0429016e-16
2.4714311e-16
3.0017118e-16
3.6545405e-16
4.4510753e-16
5.4086766e-16
6.5317802e-16
7.8211824e-16
9.2478122e-16
1.0720139e-15
1.2119398e-15
1.3347714e-15
1.4367101e-15
1.5195538e-15
1.5867683e-15
1.6422238e-15
1.688697e-15
1.7279513e-15
1.7607093e-15
1.7874646e-15
1.8088634e-15
1.8250922e-15
1.8359236e-15
1.8410675e-15
1.8407889e-15
1.8359462e-15
1.8275211e-15
1.8164095e-15
1.8033549e-15
1.7889618e-15
1.7737049e-15
1.7579419e-15
1.7419202e-15
1.7258312e-15
1.709822e-15
1.6939833e-15
1.6783714e-15
1.6630186e-15
1.6479409e-15
1.6331618e-15
1.618601e-15
1.6043199e-15
1.5899683e-15
1.5755433e-15
1.5618035e-15
1.5417354e-15
1.9737288e-07
1.9709194e-07
1.9711316e-07
1.9716181e-07
1.9718821e-07
1.972004e-07
1.9720671e-07
1.9721072e-07
1.9721378e-07
1.9721645e-07
1.9721902e-07
1.9722172e-07
1.9722476e-07
1.9722839e-07
1.9723293e-07
1.972388e-07
1.9724684e-07
1.9725748e-07
1.9727629e-07
1.9728869e-07
1.9740756e-07
1.9705147e-07
1.9870484e-07
4.9773381e-09
4.5180709e-14
2.8949702e-16
1.3563606e-16
8.9733624e-17
7.0826746e-17
6.0358094e-17
5.3143846e-17
4.7679207e-17
4.3435778e-17
4.0066752e-17
3.7330465e-17
3.5081626e-17
3.3222905e-17
3.167907e-17
3.039054e-17
2.9319503e-17
2.8409065e-17
2.7621816e-17
2.694566e-17
2.6374714e-17
2.5901977e-17
2.5515671e-17
2.5205857e-17
2.496859e-17
2.4796066e-17
2.4684207e-17
2.4612624e-17
2.4575054e-17
2.4598372e-17
2.4720964e-17
2.4932529e-17
2.5211573e-17
2.5559999e-17
2.5983034e-17
2.6486663e-17
2.7077509e-17
2.7762707e-17
2.855013e-17
2.9448194e-17
3.0466788e-17
3.1595946e-17
3.284153e-17
3.4217798e-17
3.5728569e-17
3.7366222e-17
3.9228446e-17
4.1536423e-17
4.4207131e-17
4.7270098e-17
5.079562e-17
5.4866111e-17
5.9584003e-17
6.5070872e-17
7.1469403e-17
7.8928678e-17
8.7507728e-17
9.7297415e-17
1.0966311e-16
1.2445771e-16
1.4213927e-16
1.6342236e-16
1.8922543e-16
2.2076299e-16
2.5945165e-16
3.0678141e-16
3.6330053e-16
4.3695038e-16
5.286952e-16
6.42226e-16
7.8199815e-16
9.5254716e-16
1.1576026e-15
1.3981386e-15
1.6743795e-15
1.980203e-15
2.296136e-15
2.5967794e-15
2.8609595e-15
3.0803335e-15
3.2585761e-15
3.4031413e-15
3.5223464e-15
3.6221784e-15
3.7064539e-15
3.7767531e-15
3.8341575e-15
3.8800644e-15
3.9148786e-15
3.9381142e-15
3.9491492e-15
3.9485523e-15
3.938165e-15
3.9200933e-15
3.8962588e-15
3.8682567e-15
3.8373835e-15
3.8046575e-15
3.7708459e-15
3.7364795e-15
3.7019688e-15
3.6676292e-15
3.6336553e-15
3.6001679e-15
3.5672362e-15
3.5348947e-15
3.5031935e-15
3.4719605e-15
3.4413278e-15
3.4105433e-15
3.3796028e-15
3.3501308e-15
3.3070849e-15
1.9732113e-07
1.9702891e-07
1.9705039e-07
1.9710073e-07
1.9712803e-07
1.9714062e-07
1.9714713e-07
1.9715127e-07
1.9715443e-07
1.9715718e-07
1.9715983e-07
1.9716262e-07
1.9716575e-07
1.9716948e-07
1.9717415e-07
1.9718018e-07
1.9718844e-07
1.9719935e-07
1.9721864e-07
1.9723115e-07
1.9735353e-07
1.9698578e-07
1.986993e-07
5.1109963e-09
7.8477368e-14
5.6763698e-16
2.6478423e-16
1.7498365e-16
1.3841904e-16
1.1832721e-16
1.0446315e-16
9.3930482e-17
8.5738497e-17
7.9227326e-17
7.3933984e-17
6.9582226e-17
6.5987602e-17
6.3006611e-17
6.0524605e-17
5.8469364e-17
5.6727413e-17
5.5224742e-17
5.3938738e-17
5.2859374e-17
5.1973824e-17
5.1260358e-17
5.0700633e-17
5.0286941e-17
5.0004967e-17
4.9848429e-17
4.9776669e-17
4.9775631e-17
4.9893795e-17
5.0201067e-17
5.0681133e-17
5.1297837e-17
5.2056176e-17
5.2967201e-17
5.4043513e-17
5.5299024e-17
5.6748699e-17
5.8409038e-17
6.0297668e-17
6.2436621e-17
6.4805923e-17
6.74191e-17
7.0309279e-17
7.3491821e-17
7.6961782e-17
8.0903565e-17
8.5724525e-17
9.1290414e-17
9.7670759e-17
1.0501172e-16
1.1348552e-16
1.2330547e-16
1.3472581e-16
1.4804763e-16
1.6359504e-16
1.8154191e-16
2.0213452e-16
2.2791635e-16
2.5873241e-16
2.955604e-16
3.3988945e-16
3.9363504e-16
4.5933525e-16
5.3997397e-16
6.3883748e-16
7.5756197e-16
9.1128914e-16
1.1027203e-15
1.3396147e-15
1.6312744e-15
1.9871736e-15
2.4151173e-15
2.9171803e-15
3.4939256e-15
4.1327559e-15
4.7932532e-15
5.4224677e-15
5.9758304e-15
6.4355631e-15
6.809029e-15
7.1118408e-15
7.3614107e-15
7.5703061e-15
7.7465638e-15
7.8935392e-15
8.013532e-15
8.1094826e-15
8.182245e-15
8.2308067e-15
8.2538685e-15
8.2526193e-15
8.2309083e-15
8.1931372e-15
8.1433222e-15
8.0847974e-15
8.0202725e-15
7.9518753e-15
7.8812094e-15
7.8093841e-15
7.7372576e-15
7.6654886e-15
7.5944837e-15
7.5244957e-15
7.4556692e-15
7.3880758e-15
7.3218207e-15
7.256544e-15
7.1925222e-15
7.1281826e-15
7.0635184e-15
7.0019218e-15
6.9119566e-15
1.9726111e-07
1.9695547e-07
1.9697725e-07
1.970296e-07
1.9705796e-07
1.9707102e-07
1.9707777e-07
1.9708207e-07
1.9708534e-07
1.970882e-07
1.9709094e-07
1.9709382e-07
1.9709706e-07
1.9710092e-07
1.9710574e-07
1.9711195e-07
1.9712046e-07
1.9713167e-07
1.9715153e-07
1.9716415e-07
1.9729062e-07
1.9690908e-07
1.986966e-07
5.2607725e-09
1.3438899e-13
1.1224302e-15
5.2247116e-16
3.4509084e-16
2.7330675e-16
2.3402759e-16
2.0690634e-16
1.8626911e-16
1.7020322e-16
1.5742428e-16
1.4702806e-16
1.3847773e-16
1.3141588e-16
1.2556358e-16
1.206968e-16
1.1667481e-16
1.1327121e-16
1.1033891e-16
1.0783428e-16
1.0573901e-16
1.0402864e-16
1.0266237e-16
1.016057e-16
1.0084321e-16
1.0034827e-16
1.0011116e-16
1.0005146e-16
1.0013866e-16
1.0045964e-16
1.0114089e-16
1.0215695e-16
1.0344743e-16
1.0502402e-16
1.069094e-16
1.0912942e-16
1.1171255e-16
1.1468943e-16
1.1809384e-16
1.2196185e-16
1.2634073e-16
1.3119093e-16
1.3654223e-16
1.4246793e-16
1.4901172e-16
1.5618181e-16
1.6432339e-16
1.7417941e-16
1.8553975e-16
1.9855973e-16
2.1353739e-16
2.3082543e-16
2.5085936e-16
2.7416028e-16
3.0134972e-16
3.3311281e-16
3.6989168e-16
4.1228785e-16
4.6498309e-16
5.279187e-16
6.0313209e-16
6.9366626e-16
8.0343793e-16
9.3764577e-16
1.1024421e-15
1.3048551e-15
1.5490861e-15
1.8636396e-15
2.2552324e-15
2.7398369e-15
3.3364926e-15
4.0645989e-15
4.9401621e-15
5.9675005e-15
7.1479288e-15
8.4559864e-15
9.8093626e-15
1.1099823e-14
1.2235515e-14
1.3179425e-14
1.394609e-14
1.4567551e-14
1.507953e-14
1.5507869e-14
1.5869134e-14
1.6170292e-14
1.641612e-14
1.6612678e-14
1.6761728e-14
1.68612e-14
1.6908436e-14
1.6905871e-14
1.6861391e-14
1.6784013e-14
1.6681964e-14
1.6562074e-14
1.6429894e-14
1.6289783e-14
1.6145024e-14
1.5997891e-14
1.5850142e-14
1.5703124e-14
1.5557672e-14
1.5414303e-14
1.5273313e-14
1.5134848e-14
1.4999126e-14
1.4865407e-14
1.4734259e-14
1.4602459e-14
1.4469996e-14
1.4343815e-14
1.4159522e-14
1.9719189e-07
1.9687034e-07
1.9689246e-07
1.9694718e-07
1.9697678e-07
1.969904e-07
1.9699744e-07
1.9700191e-07
1.9700533e-07
1.970083e-07
1.9701115e-07
1.9701414e-07
1.9701751e-07
1.9702151e-07
1.970265e-07
1.9703293e-07
1.9704172e-07
1.9705329e-07
1.970738e-07
1.9708653e-07
1.9721775e-07
1.9681995e-07
1.9869833e-07
5.4303716e-09
2.2760139e-13
2.2162424e-15
1.0306785e-15
6.80591e-16
5.3937818e-16
4.6228916e-16
4.0904581e-16
3.6849617e-16
3.3691106e-16
3.117751e-16
2.9131461e-16
2.7448026e-16
2.6057506e-16
2.4905441e-16
2.3947938e-16
2.3157442e-16
2.248903e-16
2.1913568e-16
2.1422548e-16
2.1012501e-16
2.0678695e-16
2.0413413e-16
2.0210133e-16
2.0065752e-16
1.997529e-16
1.993727e-16
1.9935915e-16
1.996477e-16
2.0039304e-16
2.0182265e-16
2.0389795e-16
2.065192e-16
2.0971215e-16
2.1352252e-16
2.1800229e-16
2.2320879e-16
2.2920366e-16
2.3605485e-16
2.4383501e-16
2.5264291e-16
2.6240104e-16
2.7317287e-16
2.8511528e-16
2.9833687e-16
3.1288516e-16
3.2940175e-16
3.4923112e-16
3.7205821e-16
3.9821769e-16
4.2830832e-16
4.6304108e-16
5.0329189e-16
5.501119e-16
6.0476268e-16
6.6866193e-16
7.4284779e-16
8.2869963e-16
9.3475828e-16
1.0613457e-15
1.2126298e-15
1.3947346e-15
1.6155468e-15
1.8855498e-15
2.2172194e-15
2.6252383e-15
3.1195423e-15
3.7533006e-15
4.5420905e-15
5.5182596e-15
6.7201783e-15
8.1869581e-15
9.950911e-15
1.2020863e-14
1.4399743e-14
1.7036797e-14
1.9766858e-14
2.2372041e-14
2.4666142e-14
2.6573485e-14
2.8122446e-14
2.9377752e-14
3.0411542e-14
3.12761e-14
3.2005021e-14
3.2612507e-14
3.3108315e-14
3.3504722e-14
3.3805306e-14
3.4005902e-14
3.4101149e-14
3.4095962e-14
3.4006245e-14
3.3850183e-14
3.3644368e-14
3.3402576e-14
3.3135999e-14
3.2853429e-14
3.2561485e-14
3.2264755e-14
3.1966782e-14
3.1670286e-14
3.1376946e-14
3.1087807e-14
3.0803466e-14
3.0524218e-14
3.0250499e-14
2.9980821e-14
2.9716328e-14
2.9450519e-14
2.9183375e-14
2.8928897e-14
2.8557224e-14
1.9711246e-07
1.9677208e-07
1.9679458e-07
1.9685207e-07
1.9688314e-07
1.9689742e-07
1.9690479e-07
1.9690948e-07
1.9691306e-07
1.9691616e-07
1.9691915e-07
1.9692227e-07
1.9692578e-07
1.9692994e-07
1.9693513e-07
1.9694181e-07
1.9695093e-07
1.969629e-07
1.9698415e-07
1.9699699e-07
1.9713371e-07
1.9671674e-07
1.9870656e-07
5.6243972e-09
3.8218557e-13
4.3539682e-15
2.0242629e-15
1.3365545e-15
1.059665e-15
9.0871516e-16
8.0444524e-16
7.2499418e-16
6.6308549e-16
6.1379868e-16
5.7366176e-16
5.4062589e-16
5.1333298e-16
4.9072137e-16
4.7193348e-16
4.5643066e-16
4.4332776e-16
4.3205123e-16
4.2243486e-16
4.1441207e-16
4.0789082e-16
4.0272513e-16
3.9879149e-16
3.9602775e-16
3.9434081e-16
3.9370877e-16
3.9382447e-16
3.9455417e-16
3.9617169e-16
3.9908413e-16