/*--------------------------------*- C++ -*----------------------------------*\
| =========                 |                                                 |
| \\      /  F ield         | OpenFOAM: The Open Source CFD Toolbox           |
|  \\    /   O peration     | Version:  2206                                  |
|   \\  /    A nd           | Website:  www.openfoam.com                      |
|    \\/     M anipulation  |                                                 |
\*---------------------------------------------------------------------------*/
FoamFile
{
    version     2.0;
    format      ascii;
    arch        "LSB;label=32;scalar=64";
    class       volScalarField;
    location    "400";
    object      omega;
}
// * * * * * * * * * * * * * * * * * * * * * * * * * * * * * * * * * * * * * //

dimensions      [0 0 -1 0 0 0 0];

internalField   nonuniform List<scalar> 
13056
(
636.6082
613.84001
611.51624
611.67234
611.76646
611.77646
611.77279
611.77101
611.77225
611.77605
611.78221
611.79074
611.80186
611.81598
611.83373
611.85626
611.88503
611.92401
611.97428
612.06931
612.09931
612.8755
614.19224
17949.765
1.1944345e+09
1.1944345e+09
1.1944345e+09
1.1944345e+09
1.1944345e+09
1.1944345e+09
1.1944345e+09
1.1944345e+09
1.1944345e+09
1.1944345e+09
1.1944345e+09
1.1944345e+09
1.1944345e+09
1.1944345e+09
1.1944345e+09
1.1944345e+09
1.1944345e+09
1.1944345e+09
1.1944345e+09
1.1944345e+09
1.1944345e+09
1.1944345e+09
1.1944345e+09
1.1944345e+09
1.1944345e+09
1.1944345e+09
1.1944345e+09
1.1944345e+09
1.1944345e+09
1.1944345e+09
1.1944345e+09
1.1944345e+09
1.1944345e+09
1.1944345e+09
1.1944345e+09
1.1944345e+09
1.1944345e+09
1.1944345e+09
1.1944345e+09
1.1944345e+09
1.1944345e+09
1.1944345e+09
1.1944345e+09
1.1944345e+09
1.1944345e+09
1.1944345e+09
1.1944345e+09
1.1944345e+09
1.1944345e+09
1.1944345e+09
1.1944345e+09
1.1944345e+09
1.1944345e+09
1.1944345e+09
1.1944345e+09
1.1944345e+09
1.1944345e+09
1.1944345e+09
1.1944345e+09
1.1944345e+09
1.1944345e+09
1.1944345e+09
1.1944345e+09
1.1944345e+09
1.1944345e+09
1.1944345e+09
1.1944345e+09
1.1944345e+09
1.1944345e+09
1.1944345e+09
1.1944345e+09
1.1944345e+09
1.1944345e+09
1.1944345e+09
1.1944345e+09
1.1944345e+09
1.1944345e+09
1.1944345e+09
1.1944345e+09
1.1944345e+09
1.1944345e+09
1.1944345e+09
1.1944345e+09
1.1944345e+09
1.1944345e+09
1.1944345e+09
1.1944345e+09
1.1944345e+09
1.1944345e+09
1.1944345e+09
1.1944345e+09
1.1944345e+09
1.1944345e+09
1.1944345e+09
1.1944345e+09
1.1944345e+09
1.1944345e+09
1.1944345e+09
1.1944345e+09
1.1944345e+09
1.1944345e+09
1.1944345e+09
1.1944345e+09
1.1944345e+09
1.1944345e+09
1.1944345e+09
1.1944345e+09
1.1944345e+09
1.1944345e+09
1.1944345e+09
1.1944345e+09
1.1944345e+09
636.55195
613.76621
611.44066
611.59684
611.69101
611.70101
611.69734
611.69555
611.69678
611.70059
611.70674
611.71528
611.7264
611.74052
611.75828
611.78082
611.80961
611.84861
611.89891
611.994
612.024
612.80059
614.11648
17660.793
1.9587187e+08
1.9626976e+08
1.9626973e+08
1.9626972e+08
1.9626973e+08
1.9626974e+08
1.9626976e+08
1.9626977e+08
1.9626978e+08
1.9626979e+08
1.962698e+08
1.9626981e+08
1.9626982e+08
1.9626983e+08
1.9626984e+08
1.9626985e+08
1.9626986e+08
1.9626988e+08
1.9626989e+08
1.962699e+08
1.9626992e+08
1.9626994e+08
1.9626995e+08
1.9626997e+08
1.9627e+08
1.9627002e+08
1.9627005e+08
1.9627008e+08
1.9627012e+08
1.9627015e+08
1.9627018e+08
1.9627021e+08
1.9627024e+08
1.9627028e+08
1.9627032e+08
1.9627036e+08
1.9627041e+08
1.9627046e+08
1.9627052e+08
1.9627059e+08
1.9627067e+08
1.9627076e+08
1.9627087e+08
1.96271e+08
1.9627118e+08
1.9627137e+08
1.9627152e+08
1.9627168e+08
1.9627186e+08
1.9627208e+08
1.9627233e+08
1.9627263e+08
1.9627299e+08
1.9627344e+08
1.9627405e+08
1.9627498e+08
1.9627637e+08
1.9627723e+08
1.9627818e+08
1.9627934e+08
1.9628077e+08
1.9628256e+08
1.9628489e+08
1.9628817e+08
1.9629411e+08
1.9630592e+08
1.9631107e+08
1.9631688e+08
1.9632404e+08
1.9633283e+08
1.9634361e+08
1.9635684e+08
1.9637323e+08
1.963943e+08
1.9642224e+08
1.9645833e+08
1.9650021e+08
1.9653959e+08
1.9657228e+08
1.9659501e+08
1.9661091e+08
1.966216e+08
1.9662859e+08
1.9663317e+08
1.9663629e+08
1.9663861e+08
1.9664051e+08
1.9664211e+08
1.9664345e+08
1.966445e+08
1.9664527e+08
1.966458e+08
1.9664615e+08
1.9664636e+08
1.9664647e+08
1.9664651e+08
1.9664649e+08
1.9664643e+08
1.9664635e+08
1.9664625e+08
1.9664614e+08
1.9664601e+08
1.9664588e+08
1.9664575e+08
1.9664562e+08
1.966455e+08
1.9664536e+08
1.966453e+08
1.9664515e+08
1.9664535e+08
1.9664527e+08
1.9664513e+08
636.3728
613.53338
611.20246
611.35885
611.45318
611.46318
611.45949
611.45768
611.4589
611.4627
611.46886
611.4774
611.48853
611.50267
611.52045
611.54302
611.57185
611.61092
611.66129
611.75656
611.78657
612.56428
613.88171
17328.676
64161333
64221599
64221527
64221513
64221536
64221574
64221611
64221644
64221674
64221699
64221719
64221736
64221750
64221763
64221776
64221791
64221807
64221823
64221842
64221862
64221884
64221916
64221965
64222028
64222113
64222229
64222382
64222565
64222731
64222817
64222848
64222876
64222908
64222943
64222982
64223026
64223077
64223135
64223202
64223311
64223472
64223707
64224082
64224730
64225831
64226994
64227259
64227386
64227536
64227714
64227992
64228389
64228991
64230044
64232187
64237609
64247937
64249658
64250539
64251728
64253421
64256052
64260769
64271454
64306911
64405473
64415312
64421471
64430333
64443523
64463935
64496950
64552336
64649058
64817108
65081468
65425883
65767426
66054445
66251007
66382654
66463865
66509274
66531715
66541309
66545049
66546516
66547176
66547555
66547811
66547987
66548107
66548185
66548231
66548255
66548264
66548260
66548247
66548229
66548208
66548182
66548154
66548124
66548095
66548066
66548038
66548008
66547994
66547959
66548004
66547986
66547954
636.06516
613.13409
610.79402
610.95078
611.04539
611.05538
611.05165
611.04982
611.05102
611.05481
611.06097
611.06952
611.08066
611.09483
611.11264
611.13526
611.16417
611.20334
611.25386
611.34943
611.37945
612.15902
613.4803
16981.221
29483458
29343638
29343356
29343301
29343401
29343569
29343736
29343884
29344014
29344120
29344202
29344263
29344309
29344350
29344391
29344437
29344487
29344542
29344604
29344672
29344750
29344874
29345083
29345365
29345756
29346304
29347045
29347935
29348736
29349111
29349197
29349263
29349338
29349423
29349521
29349635
29349770
29349929
29350122
29350511
29351150
29352156
29353861
29356949
29362346
29368033
29369022
29369246
29369520
29369861
29370623
29371872
29374042
29378349
29388055
29414372
29465636
29472217
29473967
29476645
29481068
29489177
29506450
29552207
29721719
30210596
30239844
30241922
30244914
30249365
30256169
30267394
30286078
30318692
30375313
30464272
30579966
30694468
30790519
30856208
30900162
30927261
30942408
30949892
30953092
30954339
30954828
30955048
30955174
30955260
30955318
30955358
30955384
30955400
30955408
30955411
30955409
30955405
30955399
30955392
30955383
30955374
30955364
30955354
30955345
30955335
30955325
30955321
30955309
30955324
30955318
30955307
635.62025
612.55672
610.20345
610.36075
610.45574
610.46573
610.46194
610.46007
610.46124
610.46502
610.47118
610.47974
610.49091
610.5051
610.52298
610.54567
610.57468
610.61401
610.66472
610.76073
610.79076
611.573
612.9003
16622.539
16493513
16061096
16060182
16060001
16060336
16060900
16061459
16061957
16062390
16062745
16063015
16063211
16063357
16063483
16063610
16063752
16063909
16064082
16064274
16064492
16064740
16065145
16065841
16066789
16068107
16069965
16072487
16075521
16078243
16079498
16079756
16079940
16080149
16080391
16080672
16081003
16081396
16081869
16082446
16083689
16085785
16089129
16094867
16105345
16123756
16143139
16146330
16146854
16147510
16148347
16150573
16154396
16161195
16174819
16206685
16295303
16469327
16488370
16489120
16490268
16492163
16495637
16503038
16522634
16595145
16803516
16815945
16816829
16818100
16819991
16822882
16827652
16835589
16849440
16873477
16911214
16960239
17008697
17049295
17077032
17095578
17107004
17113388
17116541
17117889
17118414
17118620
17118712
17118766
17118802
17118826
17118843
17118854
17118861
17118864
17118865
17118865
17118863
17118860
17118857
17118854
17118850
17118846
17118842
17118837
17118834
17118829
17118827
17118822
17118829
17118826
17118822
635.02626
611.78554
609.4146
609.57262
609.66813
609.67812
609.67425
609.67232
609.67346
609.67722
609.68338
609.69195
609.70315
609.71739
609.73534
609.75813
609.78728
609.82682
609.87779
609.97438
610.00442
610.79022
612.12544
16251.699
10194944
9797376.9
9794973.3
9794494.5
9795385
9796888.6
9798380.7
9799708.5
9800861.5
9801800.2
9802505.5
9803008.2
9803374.3
9803682.2
9803993.2
9804340
9804726.1
9805153.8
9805632
9806175.8
9806802.3
9807850.8
9809692.1
9812215
9815744.8
9820747.9
9827556.8
9835762.8
9843109.9
9846438.4
9847031.1
9847407.6
9847842.1
9848349
9848946.5
9849658.6
9850517.3
9851566.3
9852866
9855946.2
9861308.9
9870032.2
9885228.6
9913298.9
9962960.8
10015184
10022963
10023224
10023549
10023964
10025067
10026963
10030333
10037086
10052874
10096733
10182648
10192027
10192397
10192962
10193896
10195608
10199255
10208908
10244599
10346908
10352998
10353431
10354054
10354981
10356398
10358734
10362623
10369409
10381181
10399654
10423635
10447318
10467140
10480671
10489711
10495277
10498385
10499919
10500574
10500830
10500930
10500975
10501001
10501018
10501030
10501039
10501044
10501047
10501049
10501049
10501049
10501048
10501047
10501045
10501044
10501042
10501040
10501038
10501036
10501034
10501032
10501031
10501028
10501032
10501030
10501028
634.26836
610.80078
608.40721
608.56616
608.66233
608.67231
608.66834
608.66634
608.66744
608.67118
608.67733
608.68592
608.69716
608.71146
608.7295
608.75242
608.78174
608.82154
608.87284
608.97018
609.00021
609.79056
611.13524
15866.467
6721796.4
6421043.6
6415594.5
6414509.8
6416536.1
6419966.5
6423375.9
6426407.2
6429028.5
6431143.4
6432705.1
6433783.4
6434532.1
6435134.7
6435734.6
6436407.1
6437162.6
6438007.2
6438960.3
6440054.4
6441326.6
6443574.9
6447674.9
6453359
6461392.6
6472873.2
6488588.1
6507573.4
6524489.6
6531844.7
6532650.4
6532856.6
6533093.5
6533369.8
6533695.5
6534083.6
6534551.7
6535123.5
6535831.9
6537511.8
6540434.8
6545189
6553468.6
6568753.6
6595764.9
6624114
6628326.7
6628467.9
6628644.3
6628869.5
6629468.4
6630496.9
6632325.8
6635989.2
6644552.3
6668322.2
6714796.3
6719859.6
6720059.2
6720364.7
6720869.3
6721794.2
6723763.8
6728977.5
6748242.9
6803369.4
6806645.8
6806878.7
6807213.8
6807712.6
6808474.8
6809732
6811824.2
6815474.7
6821807.1
6831741.4
6844631
6857352.2
6867989.3
6875245.5
6880089.2
6883069.4
6884732.1
6885552.3
6885902.4
6886038.7
6886092.2
6886116.3
6886130.2
6886139.6
6886146
6886150.4
6886153.3
6886155
6886155.8
6886156.2
6886156
6886155.6
6886154.9
6886154.1
6886153.2
6886152.1
6886151
6886150
6886148.9
6886147.9
6886146.8
6886146.2
6886144.9
6886146.6
6886145.9
6886144.8
633.32886
609.57874
607.15697
607.31708
607.41406
607.42403
607.41995
607.41785
607.41889
607.42261
607.42876
607.43737
607.44865
607.46303
607.48117
607.50425
607.53379
607.57392
607.62563
607.72388
607.7539
608.5499
609.90496
15464.253
4630833.6
4439347.4
4428641.8
4426517
4430501.1
4437267.8
4443991.5
4449929.6
4454983.7
4458932.2
4461664.9
4463315.1
4464191.9
4464669.7
4465038.5
4465430.7
4465870.1
4466361.2
4466915.4
4467551.6
4468291.3
4469601
4471985.4
4475290.5
4479960.6
4486631.9
4495757.8
4506771.9
4516570.9
4520822
4521286.5
4521406
4521543.3
4521703.4
4521892.1
4522117
4522388.2
4522719.5
4523130
4524103.9
4525797.7
4528552.2
4533348.3
4542198.7
4557824.4
4574195.5
4576622
4576703.6
4576805.4
4576935.5
4577281.3
4577875.2
4578931.2
4581046.3
4585989.3
4599702.5
4626473.1
4629384.1
4629499
4629674.8
4629965.2
4630497.5
4631630.9
4634630.7
4645710.8
4677372.7
4679252.1
4679385.7
4679578
4679864.1
4680301.5
4681022.7
4682223.1
4684317.6
4687950.6
4693649
4701039.9
4708330.3
4714421.3
4718573.4
4721342.6
4723045
4723994.1
4724461.8
4724661.3
4724738.9
4724769.4
4724783.1
4724791
4724796.4
4724800.1
4724802.6
4724804.2
4724805.2
4724805.7
4724805.9
4724805.8
4724805.5
4724805.1
4724804.7
4724804.2
4724803.6
4724802.9
4724802.3
4724801.7
4724801.1
4724800.5
4724800.2
4724799.4
4724800.4
4724800
4724799.3
632.18732
608.09185
605.63556
605.79709
605.89506
605.90502
605.90078
605.89857
605.89955
605.90323
605.90938
605.91801
605.92935
605.94382
605.9621
605.98537
606.01518
606.0557
606.10789
606.20726
606.23725
607.04015
608.40568
15042.476
3290815.5
3174771.1
3168227.4
3166929.9
3169350.8
3173463.4
3177547.9
3181153
3184219.4
3186613.3
3188268.9
3189267.9
3189798.5
3190087.9
3190311.5
3190549.5
3190816.2
3191114.2
3191450.5
3191836.6
3192285.6
3193082
3194529.4
3196535.5
3199369.5
3203416.5
3208949.6
3215621.5
3221548.6
3224113.9
3224393.5
3224465.8
3224548.8
3224645.7
3224759.9
3224896
3225060.2
3225260.7
3225509.1
3226098.9
3227124.1
3228791.1
3231693.4
3237047.2
3246492
3256371.5
3257831.9
3257881.1
3257942.6
3258021.1
3258229.9
3258588.3
3259225.7
3260502.2
3263484.8
3271755.9
3287881.7
3289632
3289701.2
3289807
3289981.8
3290302.2
3290984.4
3292789.9
3299456.2
3318485.3
3319613.7
3319694
3319809.4
3319981.3
3320243.9
3320677
3321398
3322655.8
3324837.7
3328259.8
3332696.9
3337071.8
3340723.9
3343211.8
3344869.6
3345887.8
3346454.9
3346734.1
3346853.1
3346899.4
3346917.5
3346925.7
3346930.5
3346933.7
3346935.9
3346937.4
3346938.4
3346938.9
3346939.2
3346939.4
3346939.3
3346939.1
3346938.9
3346938.6
3346938.3
3346938
3346937.6
3346937.2
3346936.8
3346936.5
3346936.1
3346935.9
3346935.5
3346936.1
3346935.8
3346935.4
630.82058
606.30867
603.81071
603.97396
604.07311
604.08306
604.07864
604.07629
604.07719
604.08083
604.08697
604.09564
604.10704
604.12162
604.14006
604.16356
604.19368
604.23467
604.28745
604.38815
604.41808
605.22931
606.60422
14598.744
2391822.4
2319139.4
2315001.9
2314183.4
2315700.1
2318278
2320837.1
2323094.6
2325013.6
2326510.7
2327545.2
2328169
2328500.2
2328680.9
2328820.8
2328969.8
2329136.8
2329323.4
2329534
2329775.7
2330056.8
2330556.6
2331463.1
2332719.5
2334494.1
2337027.6
2340489.7
2344660.8
2348360.8
2349958.4
2350132
2350177.1
2350229
2350289.5
2350360.9
2350445.9
2350548.4
2350673.7
2350828.9
2351197.6
2351838.2
2352879.8
2354692.8
2358036.5
2363931.3
2370087.9
2370995.5
2371026.2
2371064.5
2371113.4
2371243.6
2371467
2371864.3
2372660
2374519
2379672.1
2389707.8
2390795.2
2390838.2
2390904.1
2391012.8
2391212
2391636.4
2392759.2
2396904.1
2408725.4
2409425.8
2409475.7
2409547.3
2409654
2409817.1
2410086
2410533.6
2411314.6
2412669.4
2414794.3
2417548.8
2420263.7
2422528.3
2424069.9
2425096.1
2425725.8
2426076.2
2426248.5
2426321.9
2426350.4
2426361.6
2426366.6
2426369.5
2426371.5
2426372.9
2426373.8
2426374.4
2426374.8
2426375
2426375
2426375
2426374.9
2426374.8
2426374.6
2426374.4
2426374.2
2426373.9
2426373.7
2426373.5
2426373.3
2426373
2426372.9
2426372.6
2426373
2426372.8
2426372.6
629.20294
604.19398
601.64621
601.81152
601.91207
601.922
601.91736
601.91485
601.91565
601.91924
601.92538
601.93408
601.94556
601.96027
601.97889
602.00266
602.03315
602.0747
602.12816
602.23044
602.26027
603.08146
604.46305
14130.973
1767699
1721010.7
1718321.2
1717791.6
1718763.4
1720416.6
1722057.2
1723503.8
1724732.7
1725690.7
1726352.2
1726750.8
1726962.2
1727077.7
1727167.3
1727262.8
1727369.7
1727489.3
1727624.3
1727779.2
1727959.3
1728280.4
1728861.6
1729666.9
1730804.4
1732427.9
1734645.6
1737315.1
1739679.9
1740698.3
1740808.6
1740837.5
1740870.6
1740909.4
1740955
1741009.4
1741075
1741155.1
1741254.3
1741490.4
1741900.2
1742566.6
1743726.4
1745864.9
1749632.8
1753562.2
1754139.8
1754159.3
1754183.8
1754215
1754298.2
1754440.8
1754694.5
1755202.5
1756389.4
1759678.4
1766077.3
1766769.5
1766796.9
1766838.9
1766908.2
1767035.2
1767305.6
1768021.1
1770662
1778188.6
1778634.2
1778665.9
1778711.5
1778779.4
1778883.2
1779054.3
1779339.2
1779836.3
1780698.7
1782051.3
1783804.4
1785531.7
1786971.3
1787950.7
1788602
1789001.3
1789223.2
1789332.2
1789378.5
1789396.5
1789403.6
1789406.8
1789408.7
1789409.9
1789410.8
1789411.4
1789411.8
1789412
1789412.1
1789412.1
1789412.1
1789412.1
1789412
1789411.9
1789411.7
1789411.6
1789411.4
1789411.3
1789411.1
1789411
1789410.9
1789410.8
1789410.6
1789410.8
1789410.7
1789410.6
627.30622
601.70878
599.10192
599.26969
599.37187
599.38178
599.37688
599.37418
599.37486
599.37839
599.38452
599.39326
599.40483
599.41968
599.43853
599.46261
599.49354
599.53573
599.59
599.69412
599.72379
600.5568
601.94022
13637.482
1322993.2
1292396
1290604
1290253.8
1290886.8
1291965.3
1293035.4
1293978.5
1294779.2
1295403
1295833.4
1296092.4
1296229.8
1296304.9
1296363.2
1296425.5
1296495.2
1296573.2
1296661.1
1296762.2
1296879.6
1297089.6
1297468.8
1297994.2
1298736.3
1299795.2
1301241
1302980.2
1304518.5
1305179.3
1305250.6
1305269.4
1305291
1305316.2
1305345.9
1305381.3
1305424
1305476.2
1305540.8
1305694.7
1305961.6
1306395.6
1307151
1308543.4
1310995.5
1313549
1313923.3
1313936.1
1313952
1313972.3
1314026.3
1314119.1
1314284
1314614.3
1315385.9
1317523.7
1321679.2
1322128
1322145.8
1322173
1322218
1322300.4
1322476
1322940.5
1324654.4
1329536.4
1329825.3
1329845.9
1329875.4
1329919.4
1329986.7
1330097.7
1330282.4
1330604.8
1331164.1
1332041.4
1333178.3
1334298.2
1335230.8
1335864.8
1336286
1336544
1336687.2
1336757.4
1336787.3
1336798.9
1336803.4
1336805.5
1336806.7
1336807.5
1336808
1336808.4
1336808.7
1336808.8
1336808.9
1336808.9
1336808.9
1336808.9
1336808.8
1336808.7
1336808.6
1336808.5
1336808.5
1336808.4
1336808.3
1336808.2
1336808.1
1336808
1336807.9
1336808.1
1336808
1336807.9
625.09994
598.81031
596.13379
596.30446
596.40855
596.41842
596.41321
596.41028
596.41082
596.41429
596.4204
596.42918
596.44086
596.45589
596.47499
596.49944
596.53087
596.57381
596.629
596.73526
596.76469
597.61167
598.98923
13117.091
999740.69
979353.69
978129.52
977893.26
978310.41
979023.08
979730.23
980353.17
980881.79
981293.33
981577.02
981747.62
981838.03
981887.47
981925.95
981967.03
982013.09
982064.59
982122.73
982189.48
982267.11
982406.21
982656.96
983004.43
983495.08
984195.12
985150.57
986299.01
987313.37
987747.93
987794.69
987807.09
987821.34
987837.97
987857.57
987880.94
987909.12
987943.54
987986.2
988087.86
988264.09
988550.64
989049.36
989968.57
991586.41
993268.91
993514.81
993523.19
993533.67
993547.05
993582.7
993643.85
993752.58
993970.34
994479
995887.98
998624.6
998919.71
998931.42
998949.36
998978.97
999033.25
999148.82
999454.61
1000582.7
1003794.6
1003984.7
1003998.2
1004017.6
1004046.6
1004090.8
1004163.8
1004285.3
1004497.4
1004865.4
1005442.6
1006190.6
1006927.2
1007540.1
1007956.5
1008232.9
1008401.9
1008495.7
1008541.6
1008561.1
1008568.6
1008571.6
1008573
1008573.7
1008574.3
1008574.6
1008574.9
1008575.1
1008575.1
1008575.2
1008575.2
1008575.2
1008575.2
1008575.1
1008575.1
1008575
1008575
1008574.9
1008574.8
1008574.8
1008574.7
1008574.7
1008574.6
1008574.5
1008574.6
1008574.6
1008574.5
622.5515
595.45208
592.69391
592.86797
592.97426
592.98408
592.97851
592.97531
592.97569
592.97907
592.98517
592.994
593.00579
593.02102
593.04041
593.06529
593.09729
593.1411
593.19734
593.30608
593.33515
594.19856
595.55895
12569.207
761112.08
747330.4
746470.36
746307.55
746584.57
747059.97
747531.84
747947.41
748299.89
748574.11
748762.98
748876.43
748936.49
748969.35
748994.96
749022.35
749053.06
749087.42
749126.21
749170.77
749222.59
749315.72
749483.24
749715.39
750043.19
750510.8
751148.81
751915.12
752591.01
752879.77
752910.74
752918.99
752928.49
752939.57
752952.64
752968.22
752987.01
753009.97
753038.42
753106.29
753223.88
753415.08
753747.84
754361.07
755439.9
756560.32
756723.59
756729.17
756736.15
756745.06
756768.82
756809.56
756882.01
757027.11
757366.04
758304.71
760126.51
760322.69
760330.48
760342.41
760362.12
760398.24
760475.16
760678.66
761429.34
763565.79
763692.16
763701.14
763714.07
763733.31
763762.74
763811.26
763892.08
764033.15
764277.96
764662.01
765159.63
765649.53
766056.89
766333.44
766516.76
766628.78
766690.82
766721.18
766734.05
766739.04
766740.99
766741.88
766742.41
766742.76
766743
766743.17
766743.28
766743.34
766743.37
766743.38
766743.37
766743.35
766743.33
766743.29
766743.26
766743.21
766743.17
766743.13
766743.08
766743.04
766743
766742.98
766742.93
766742.99
766742.96
766742.91
619.62642
591.58403
588.73058
588.90857
589.01739
589.02715
589.02115
589.01764
589.01782
589.0211
589.02718
589.03607
589.04799
589.06345
589.08317
589.10853
589.14119
589.18599
589.24343
589.35501
589.38357
590.26624
591.59354
11993.922
582818.62
573376.59
572751.37
572636.27
572820.86
573140.1
573457.23
573736.51
573973.29
574157.38
574284.04
574360.03
574400.21
574422.18
574439.33
574457.7
574478.33
574501.41
574527.49
574557.45
574592.3
574655.14
574767.96
574924.31
575145.07
575459.95
575889.43
576404.92
576858.93
577052.37
577073.03
577078.57
577084.95
577092.39
577101.17
577111.64
577124.27
577139.7
577158.82
577204.51
577283.61
577412.23
577636.08
578048.57
578773.91
579526.23
579635.53
579639.28
579643.96
579649.94
579665.9
579693.28
579741.96
579839.45
580067.17
580697.76
581920.8
582052.32
582057.54
582065.55
582078.77
582103.02
582154.64
582291.22
582794.98
584228.27
584313.04
584319.06
584327.73
584340.63
584360.37
584392.91
584447.13
584541.77
584706.04
584963.79
585297.72
585626.4
585899.49
586084.76
586207.43
586282.31
586323.72
586343.97
586352.53
586355.85
586357.15
586357.75
586358.1
586358.33
586358.5
586358.61
586358.68
586358.72
586358.74
586358.75
586358.74
586358.73
586358.71
586358.68
586358.66
586358.63
586358.6
586358.57
586358.54
586358.51
586358.48
586358.46
586358.43
586358.47
586358.45
586358.42
616.28877
587.1527
584.1885
584.371
584.4827
584.49238
584.48589
584.482
584.48196
584.48512
584.49117
584.50012
584.5122
584.5279
584.54801
584.57391
584.60732
584.65325
584.71203
584.82685
584.85468
585.7599
587.03249
11392.095
448340.99
441786.28
441311.94
441227.81
441350.62
441565.84
441780.01
441968.66
442128.57
442252.81
442338.2
442389.35
442416.33
442431.06
442442.59
442454.95
442468.86
442484.44
442502.05
442522.31
442545.88
442588.54
442664.98
442770.92
442920.52
443133.89
443424.83
443773.79
444080.7
444211.09
444224.96
444228.69
444232.99
444238.02
444243.94
444251.02
444259.55
444269.99
444282.92
444313.87
444367.41
444454.49
444606.04
444885.28
445376.12
445884.55
445958.21
445960.73
445963.89
445967.93
445978.72
445997.23
446030.15
446096.08
446250.08
446676.48
447502.99
447591.74
447595.27
447600.67
447609.6
447625.98
447660.85
447753.13
448093.45
449061.46
449118.72
449122.78
449128.62
449137.33
449150.66
449172.64
449209.25
449273.18
449384.16
449558.32
449783.94
450005.97
450190.3
450315.27
450397.92
450448.31
450476.14
450489.73
450495.48
450497.7
450498.57
450498.97
450499.21
450499.37
450499.48
450499.55
450499.6
450499.63
450499.64
450499.64
450499.64
450499.62
450499.61
450499.59
450499.57
450499.55
450499.53
450499.51
450499.49
450499.47
450499.45
450499.43
450499.41
450499.44
450499.42
450499.4
612.50162
582.10147
579.00904
579.19666
579.31161
579.32119
579.31412
579.3098
579.30949
579.31251
579.31852
579.32753
579.33978
579.35577
579.37631
579.40282
579.43708
579.48427
579.54456
579.66305
579.68989
580.62147
581.81072
10765.429
346154.2
341541.22
341162.19
341097.92
341178.9
341324.13
341469.12
341596.94
341705.29
341789.42
341847.16
341881.67
341899.82
341909.69
341917.42
341925.74
341935.13
341945.67
341957.6
341971.33
341987.33
342016.41
342068.44
342140.57
342242.44
342387.73
342585.79
342823.19
343031.68
343120
343129.35
343131.87
343134.78
343138.18
343142.19
343146.99
343152.78
343159.87
343168.66
343189.72
343226.14
343285.39
343388.51
343578.5
343912.33
344257.7
344307.58
344309.29
344311.43
344314.17
344321.5
344334.07
344356.44
344401.25
344505.94
344795.76
345357.2
345417.41
345419.8
345423.47
345429.53
345440.65
345464.33
345527
345758.1
346415.34
346454.22
346456.97
346460.94
346466.85
346475.9
346490.81
346515.68
346559.09
346634.47
346752.78
346906.05
347056.85
347181.95
347266.7
347322.69
347356.78
347375.59
347384.77
347388.64
347390.14
347390.73
347391
347391.16
347391.26
347391.34
347391.39
347391.42
347391.44
347391.44
347391.44
347391.44
347391.43
347391.42
347391.4
347391.39
347391.37
347391.36
347391.34
347391.32
347391.31
347391.29
347391.28
347391.27
347391.28
347391.27
347391.25
608.22773
576.3711
573.13064
573.32399
573.44261
573.45205
573.44431
573.43949
573.43886
573.44171
573.44768
573.45676
573.46919
573.4855
573.50651
573.53372
573.56892
573.61753
573.67949
573.80213
573.82762
574.78999
575.85889
10116.526
268046.6
264752.22
264430.97
264379.01
264431.27
264528.97
264627.09
264713.75
264787.24
264844.27
264883.35
264906.63
264918.79
264925.36
264930.51
264936.08
264942.4
264949.52
264957.6
264966.92
264977.79
264997.67
265033.2
265082.49
265152.11
265251.41
265386.75
265548.88
265691.06
265751.12
265757.43
265759.13
265761.09
265763.39
265766.12
265769.37
265773.31
265778.14
265784.12
265798.51
265823.38
265863.84
265934.28
266064.06
266292.03
266527.57
266561.49
266562.64
266564.09
266565.95
266570.95
266579.52
266594.79
266625.36
266696.81
266894.6
267277.56
267318.58
267320.2
267322.69
267326.82
267334.4
267350.54
267393.28
267550.86
267998.98
268025.5
268027.37
268030.07
268034.09
268040.26
268050.43
268067.39
268097
268148.42
268229.14
268333.71
268436.58
268521.85
268579.58
268617.67
268640.84
268653.61
268659.83
268662.45
268663.46
268663.86
268664.05
268664.15
268664.23
268664.28
268664.31
268664.33
268664.34
268664.34
268664.34
268664.33
268664.33
268664.32
268664.31
268664.29
268664.28
268664.27
268664.25
268664.24
268664.23
268664.22
268664.21
268664.19
268664.2
268664.19
268664.18
603.43043
569.90027
566.48948
566.68914
566.81185
566.82111
566.81259
566.80718
566.80619
566.80884
566.81474
566.82389
566.83652
566.85319
566.87473
566.90271
566.93896
566.98916
567.05295
567.18025
567.20392
568.20226
569.1039
9448.9057
208065.04
205674.81
205385.5
205340.55
205372.77
205437.9
205504
205562.6
205612.35
205650.94
205677.32
205692.95
205701.03
205705.33
205708.69
205712.38
205716.59
205721.36
205726.81
205733.12
205740.5
205754.1
205778.42
205812.17
205859.88
205927.94
206020.7
206131.75
206229.01
206269.95
206274.21
206275.35
206276.66
206278.22
206280.06
206282.27
206284.95
206288.23
206292.32
206302.16
206319.19
206346.91
206395.17
206484.1
206640.26
206801.42
206824.55
206825.32
206826.31
206827.57
206830.98
206836.84
206847.28
206868.21
206917.12
207052.54
207314.61
207342.65
207343.75
207345.45
207348.27
207353.44
207364.49
207393.72
207501.53
207808.09
207826.23
207827.51
207829.35
207832.1
207836.32
207843.28
207854.88
207875.14
207910.35
207965.61
208037.21
208107.63
208165.96
208205.42
208231.44
208247.24
208255.94
208260.17
208261.95
208262.64
208262.91
208263.04
208263.11
208263.16
208263.2
208263.22
208263.23
208263.23
208263.23
208263.23
208263.22
208263.21
208263.21
208263.19
208263.18
208263.17
208263.16
208263.15
208263.14
208263.13
208263.12
208263.11
208263.1
208263.1
208263.09
208263.07
598.07477
562.62651
559.02029
559.22673
559.35397
559.36299
559.35357
559.34748
559.34606
559.34847
559.35429
559.3635
559.37636
559.39341
559.41554
559.44437
559.48178
559.53373
559.59953
559.73203
559.7533
560.79366
561.46971
8766.9983
161831.74
160068.26
159792.72
159750.96
159768.84
159811.39
159855.44
159894.75
159928.22
159954.17
159971.84
159982.2
159987.46
159990.18
159992.29
159994.66
159997.41
160000.56
160004.19
160008.42
160013.41
160022.7
160039.35
160062.5
160095.24
160141.98
160205.69
160281.93
160348.6
160376.57
160379.43
160380.18
160381.05
160382.08
160383.32
160384.81
160386.62
160388.86
160391.64
160398.39
160410.07
160429.09
160462.23
160523.31
160630.55
160741.09
160756.9
160757.42
160758.08
160758.93
160761.26
160765.27
160772.43
160786.79
160820.35
160913.3
161093.12
161112.33
161113.07
161114.23
161116.15
161119.7
161127.26
161147.31
161221.26
161431.54
161443.99
161444.86
161446.12
161448
161450.89
161455.66
161463.63
161477.54
161501.71
161539.66
161588.83
161637.18
161677.2
161704.26
161722.08
161732.89
161738.83
161741.72
161742.94
161743.41
161743.6
161743.69
161743.74
161743.77
161743.79
161743.8
161743.81
161743.81
161743.81
161743.8
161743.79
161743.78
161743.77
161743.76
161743.75
161743.74
161743.73
161743.72
161743.71
161743.7
161743.69
161743.68
161743.67
161743.67
161743.66
161743.64
592.1289
554.48728
550.65749
550.871
551.00321
551.01193
551.00145
550.99457
550.99264
550.99477
551.00049
551.00977
551.02285
551.04033
551.0631
551.09286
551.13155
551.18543
551.2534
551.39168
551.4098
552.4993
552.87848
8076.0819
126089.61
124766.68
124491.8
124450.29
124457.6
124484.26
124512.94
124538.87
124561.05
124578.25
124589.89
124596.6
124599.87
124601.46
124602.67
124604.1
124605.81
124607.83
124610.19
124612.99
124616.31
124622.63
124634.01
124649.87
124672.36
124704.49
124748.31
124800.72
124846.49
124865.62
124867.53
124867.99
124868.55
124869.23
124870.04
124871.03
124872.25
124873.76
124875.64
124880.26
124888.28
124901.35
124924.15
124966.18
125039.96
125115.93
125126.75
125127.09
125127.52
125128.09
125129.68
125132.42
125137.33
125147.2
125170.27
125234.2
125357.83
125371.02
125371.52
125372.3
125373.61
125376.04
125381.23
125395.01
125445.83
125590.38
125598.94
125599.53
125600.39
125601.68
125603.67
125606.95
125612.43
125622.01
125638.65
125664.78
125698.63
125731.92
125759.44
125778.05
125790.29
125797.71
125801.78
125803.76
125804.6
125804.92
125805.05
125805.11
125805.15
125805.17
125805.18
125805.19
125805.19
125805.19
125805.18
125805.17
125805.16
125805.15
125805.14
125805.13
125805.12
125805.1
125805.09
125805.08
125805.07
125805.06
125805.05
125805.04
125805.03
125805.02
125805.01
125804.99
585.56586
545.42149
541.33667
541.55722
541.69481
541.70312
541.69142
541.68363
541.68111
541.68289
541.68848
541.69781
541.71114
541.72907
541.75255
541.78333
541.8234
541.8794
541.94968
542.09436
542.1084
543.25538
543.25227
7382.1749
98392.083
97384.964
97101.036
97057.384
97056.496
97071.728
97089.531
97106.044
97120.327
97131.4
97138.796
97142.916
97144.756
97145.506
97146.056