/*--------------------------------*- C++ -*----------------------------------*\
| =========                 |                                                 |
| \\      /  F ield         | OpenFOAM: The Open Source CFD Toolbox           |
|  \\    /   O peration     | Version:  2206                                  |
|   \\  /    A nd           | Website:  www.openfoam.com                      |
|    \\/     M anipulation  |                                                 |
\*---------------------------------------------------------------------------*/
FoamFile
{
    version     2.0;
    format      ascii;
    arch        "LSB;label=32;scalar=64";
    class       volScalarField;
    location    "400";
    object      p;
}
// * * * * * * * * * * * * * * * * * * * * * * * * * * * * * * * * * * * * * //

dimensions      [0 2 -2 0 0 0 0];

internalField   nonuniform List<scalar> 
13056
(
0.01203133
0.012134455
0.012353366
0.012632987
0.012971697
0.01336977
0.013825356
0.014337644
0.014907932
0.015539418
0.016237068
0.017007968
0.017861926
0.01881279
0.019879477
0.021090927
0.022484353
0.024133679
0.02610431
0.028673043
0.031801843
0.037153322
0.042384352
0.081801957
0.051780976
0.0023722487
0.0010802232
0.0019610289
0.0025214174
0.0029610725
0.0032234367
0.0034082534
0.0035490663
0.0036478358
0.0037170542
0.0037664621
0.0038015438
0.0038259953
0.0038421623
0.0038519088
0.0038566651
0.0038573032
0.0038545651
0.0038491023
0.0038413087
0.0038314817
0.0038198927
0.0038067431
0.0037922097
0.0037764244
0.0037594469
0.003741354
0.0037222058
0.0037020381
0.0036808945
0.003658782
0.0036356797
0.0036115884
0.0035864928
0.0035603722
0.0035331981
0.0035049447
0.0034755575
0.0034449576
0.0034130687
0.0033798087
0.0033451002
0.0033088586
0.0032709896
0.0032314133
0.0031900343
0.0031467445
0.0031014368
0.0030540059
0.0030043661
0.0029524607
0.0028982839
0.002841925
0.0027835213
0.0027231699
0.0026611927
0.0025979997
0.0025340771
0.0024704812
0.0024088142
0.002351065
0.0023008439
0.0022629495
0.0022342661
0.0022358683
0.0022705289
0.0023295265
0.0024302941
0.002576691
0.0027714466
0.0030129158
0.0032916561
0.0036073778
0.003937669
0.004231878
0.0044450633
0.0045710519
0.0045962331
0.0045328556
0.0044294566
0.004300611
0.0041567278
0.0040088079
0.0038592988
0.0037066142
0.0035537968
0.0033984381
0.0032375059
0.0030744387
0.0029110983
0.0027493029
0.0025911801
0.0024349993
0.0022804288
0.0021301934
0.0019837449
0.001839498
0.0016981667
0.0015614479
0.0014289583
0.0012990539
0.0011728805
0.0010510607
0.00093560869
0.00082599371
0.00072496325
0.00062900983
0.00056703869
0.00048079958
0.00066645039
-0.00051310964
0.01203133
0.012134455
0.012353366
0.012632987
0.012971698
0.01336977
0.013825357
0.014337644
0.014907933
0.015539418
0.016237069
0.017007969
0.017861927
0.018812792
0.019879479
0.02109093
0.022484357
0.024133685
0.026104319
0.028673057
0.031801862
0.037153361
0.04238441
0.081797118
0.051792504
0.0023795699
0.0010820964
0.0019618756
0.0025219355
0.0029614367
0.0032237121
0.0034084723
0.0035492454
0.0036479857
0.0037171822
0.0037665729
0.0038016408
0.0038260811
0.0038422387
0.0038519775
0.0038567272
0.0038573596
0.0038546166
0.0038491495
0.0038413521
0.0038315218
0.0038199298
0.0038067775
0.0037922417
0.0037764542
0.0037594748
0.0037413801
0.0037222303
0.0037020612
0.0036809162
0.0036588024
0.003635699
0.0036116066
0.00358651
0.0035603884
0.0035332135
0.0035049593
0.0034755714
0.0034449707
0.0034130811
0.0033798205
0.0033451114
0.0033088693
0.0032709997
0.003231423
0.0031900435
0.0031467531
0.003101445
0.0030540136
0.0030043734
0.0029524677
0.0028982905
0.0028419312
0.002783527
0.0027231753
0.0026611977
0.0025980043
0.0025340813
0.002470485
0.0024088175
0.002351068
0.0023008463
0.0022629514
0.0022342675
0.0022358689
0.0022705289
0.0023295257
0.0024302925
0.0025766886
0.0027714433
0.0030129116
0.0032916513
0.0036073723
0.0039376631
0.0042318721
0.0044450579
0.0045710474
0.0045962294
0.004532853
0.0044294548
0.0043006097
0.0041567269
0.0040088073
0.0038592984
0.003706614
0.0035537967
0.0033984381
0.003237506
0.0030744389
0.0029110986
0.0027493033
0.0025911805
0.0024349997
0.0022804293
0.0021301939
0.0019837454
0.0018394985
0.0016981672
0.0015614484
0.0014289588
0.0012990544
0.001172881
0.0010510612
0.00093560916
0.00082599417
0.00072496371
0.00062901029
0.00056703919
0.00048080011
0.00066645094
-0.00051310929
0.01203133
0.012134456
0.012353366
0.012632987
0.012971698
0.01336977
0.013825357
0.014337645
0.014907933
0.015539419
0.01623707
0.01700797
0.017861929
0.018812794
0.019879482
0.021090934
0.022484362
0.024133692
0.026104328
0.028673073
0.031801882
0.037153406
0.042384457
0.081792213
0.051808402
0.00238665
0.001084318
0.0019628881
0.0025225552
0.0029618722
0.0032240415
0.0034087341
0.0035494596
0.003648165
0.0037173351
0.0037667053
0.0038017568
0.0038261837
0.0038423302
0.0038520596
0.0038568013
0.003857427
0.0038546781
0.0038492058
0.003841404
0.0038315696
0.0038199741
0.0038068187
0.00379228
0.0037764899
0.0037595082
0.0037414114
0.0037222597
0.0037020887
0.0036809421
0.0036588268
0.003635722
0.0036116283
0.0035865306
0.0035604079
0.003533232
0.0035049767
0.0034755879
0.0034449864
0.003413096
0.0033798347
0.0033451249
0.0033088821
0.0032710118
0.0032314345
0.0031900544
0.0031467635
0.0031014548
0.0030540229
0.0030043822
0.002952476
0.0028982983
0.0028419386
0.002783534
0.0027231817
0.0026612037
0.0025980098
0.0025340863
0.0024704896
0.0024088216
0.0023510715
0.0023008492
0.0022629538
0.0022342691
0.0022358697
0.0022705289
0.0023295247
0.0024302906
0.0025766857
0.0027714393
0.0030129067
0.0032916455
0.0036073658
0.0039376561
0.0042318651
0.0044450515
0.004571042
0.004596225
0.0045328499
0.0044294526
0.0043006082
0.0041567259
0.0040088066
0.003859298
0.0037066138
0.0035537966
0.0033984382
0.0032375062
0.0030744391
0.0029110989
0.0027493037
0.002591181
0.0024350002
0.0022804298
0.0021301945
0.001983746
0.0018394991
0.0016981678
0.001561449
0.0014289594
0.001299055
0.0011728816
0.0010510618
0.00093560971
0.00082599471
0.00072496427
0.00062901084
0.00056703979
0.00048080075
0.00066645161
-0.00051310887
0.01203133
0.012134456
0.012353366
0.012632988
0.012971698
0.01336977
0.013825357
0.014337645
0.014907934
0.01553942
0.016237071
0.017007971
0.017861931
0.018812796
0.019879484
0.021090937
0.022484366
0.024133698
0.026104337
0.028673088
0.031801903
0.037153448
0.042384504
0.081787405
0.051826121
0.0023919053
0.0010864081
0.0019638799
0.0025231623
0.0029622989
0.0032243642
0.0034089905
0.0035496694
0.0036483407
0.003717485
0.003766835
0.0038018704
0.0038262841
0.0038424197
0.00385214
0.003856874
0.003857493
0.0038547383
0.003849261
0.0038414548
0.0038316165
0.0038200175
0.003806859
0.0037923175
0.0037765249
0.0037595409
0.003741442
0.0037222884
0.0037021157
0.0036809675
0.0036588507
0.0036357446
0.0036116496
0.0035865507
0.0035604269
0.00353325
0.0035049938
0.0034756041
0.0034450018
0.0034131106
0.0033798485
0.003345138
0.0033088945
0.0032710237
0.0032314457
0.0031900651
0.0031467736
0.0031014644
0.003054032
0.0030043909
0.0029524842
0.002898306
0.0028419458
0.0027835407
0.0027231881
0.0026612096
0.0025980152
0.0025340913
0.002470494
0.0024088255
0.0023510749
0.0023008521
0.0022629561
0.0022342707
0.0022358704
0.0022705289
0.0023295238
0.0024302887
0.0025766828
0.0027714354
0.0030129018
0.0032916398
0.0036073594
0.0039376492
0.0042318582
0.0044450452
0.0045710368
0.0045962209
0.0045328469
0.0044294505
0.0043006067
0.0041567248
0.004008806
0.0038592975
0.0037066136
0.0035537965
0.0033984382
0.0032375064
0.0030744394
0.0029110993
0.0027493041
0.0025911815
0.0024350007
0.0022804304
0.0021301951
0.0019837466
0.0018394997
0.0016981684
0.0015614496
0.00142896
0.0012990555
0.0011728821
0.0010510623
0.00093561026
0.00082599525
0.00072496481
0.00062901138
0.00056704038
0.00048080134
0.00066645226
-0.00051310849
0.01203133
0.012134456
0.012353366
0.012632988
0.012971698
0.013369771
0.013825358
0.014337645
0.014907934
0.01553942
0.016237072
0.017007973
0.017861932
0.018812798
0.019879487
0.021090941
0.022484371
0.024133706
0.026104347
0.028673104
0.031801924
0.037153492
0.042384558
0.081782253
0.051844927
0.0023977828
0.0010885219
0.0019648953
0.0025237839
0.0029627358
0.0032246947
0.0034092531
0.0035498843
0.0036485205
0.0037176384
0.0037669679
0.0038019867
0.003826387
0.0038425115
0.0038522224
0.0038569484
0.0038575606
0.0038548
0.0038493176
0.0038415068
0.0038316645
0.0038200619
0.0038069002
0.0037923559
0.0037765607
0.0037595743
0.0037414733
0.0037223178
0.0037021433
0.0036809935
0.0036588752
0.0036357677
0.0036116714
0.0035865714
0.0035604464
0.0035332685
0.0035050113
0.0034756207
0.0034450175
0.0034131255
0.0033798627
0.0033451515
0.0033089073
0.0032710359
0.0032314572
0.003190076
0.003146784
0.0031014743
0.0030540414
0.0030043997
0.0029524925
0.0028983138
0.0028419532
0.0027835477
0.0027231945
0.0026612156
0.0025980208
0.0025340963
0.0024704986
0.0024088296
0.0023510784
0.002300855
0.0022629585
0.0022342722
0.0022358711
0.0022705289
0.0023295229
0.0024302868
0.0025766799
0.0027714314
0.0030128969
0.003291634
0.0036073528
0.0039376422
0.0042318512
0.0044450387
0.0045710314
0.0045962168
0.0045328438
0.0044294483
0.0043006052
0.0041567238
0.0040088053
0.0038592971
0.0037066133
0.0035537965
0.0033984383
0.0032375065
0.0030744396
0.0029110996
0.0027493045
0.0025911819
0.0024350013
0.0022804309
0.0021301956
0.0019837472
0.0018395003
0.001698169
0.0015614502
0.0014289606
0.0012990561
0.0011728827
0.0010510629
0.00093561082
0.0008259958
0.00072496536
0.00062901193
0.00056704098
0.00048080195
0.00066645292
-0.00051310809
0.01203133
0.012134456
0.012353367
0.012632988
0.012971698
0.013369771
0.013825358
0.014337646
0.014907935
0.015539421
0.016237073
0.017007974
0.017861934
0.0188128
0.01987949
0.021090945
0.022484377
0.024133713
0.026104357
0.028673122
0.031801948
0.037153539
0.042384622
0.081776535
0.051864524
0.0024050897
0.0010907699
0.0019659737
0.0025244442
0.0029631999
0.0032250457
0.003409532
0.0035501125
0.0036487116
0.0037178014
0.003767109
0.0038021103
0.0038264963
0.0038426089
0.0038523099
0.0038570275
0.0038576324
0.0038548655
0.0038493776
0.003841562
0.0038317155
0.0038201092
0.0038069441
0.0037923967
0.0037765988
0.0037596099
0.0037415066
0.003722349
0.0037021727
0.0036810211
0.0036589013
0.0036357922
0.0036116946
0.0035865933
0.0035604672
0.0035332881
0.0035050299
0.0034756383
0.0034450342
0.0034131414
0.0033798778
0.0033451658
0.0033089209
0.0032710487
0.0032314695
0.0031900876
0.0031467951
0.0031014847
0.0030540513
0.0030044091
0.0029525014
0.0028983222
0.002841961
0.002783555
0.0027232014
0.0026612219
0.0025980266
0.0025341017
0.0024705034
0.0024088339
0.0023510821
0.0023008581
0.002262961
0.0022342739
0.0022358719
0.0022705289
0.0023295219
0.0024302848
0.0025766768
0.0027714272
0.0030128916
0.0032916278
0.0036073459
0.0039376347
0.0042318437
0.0044450318
0.0045710257
0.0045962124
0.0045328405
0.004429446
0.0043006036
0.0041567227
0.0040088045
0.0038592966
0.0037066131
0.0035537964
0.0033984383
0.0032375067
0.0030744399
0.0029111
0.002749305
0.0025911825
0.0024350018
0.0022804315
0.0021301963
0.0019837478
0.0018395009
0.0016981696
0.0015614508
0.0014289612
0.0012990567
0.0011728833
0.0010510635
0.00093561141
0.00082599639
0.00072496595
0.00062901251
0.00056704162
0.00048080259
0.00066645363
-0.00051310767
0.01203133
0.012134456
0.012353367
0.012632988
0.012971699
0.013369771
0.013825358
0.014337646
0.014907936
0.015539422
0.016237074
0.017007975
0.017861936
0.018812802
0.019879494
0.02109095
0.022484383
0.024133722
0.026104369
0.028673142
0.031801974
0.037153591
0.042384696
0.081770132
0.05188515
0.0024131438
0.0010931921
0.0019671344
0.002525155
0.0029636995
0.0032254235
0.0034098322
0.0035503582
0.0036489172
0.0037179769
0.0037672608
0.0038022433
0.0038266139
0.0038427138
0.003852404
0.0038571126
0.0038577097
0.0038549361
0.0038494423
0.0038416215
0.0038317704
0.00382016
0.0038069912
0.0037924406
0.0037766397
0.0037596482
0.0037415425
0.0037223827
0.0037022043
0.0036810508
0.0036589293
0.0036358186
0.0036117195
0.0035866168
0.0035604895
0.0035333092
0.0035050499
0.0034756573
0.0034450522
0.0034131585
0.003379894
0.0033451812
0.0033089355
0.0032710626
0.0032314827
0.0031901002
0.0031468069
0.003101496
0.003054062
0.0030044192
0.0029525109
0.0028983312
0.0028419695
0.002783563
0.0027232088
0.0026612288
0.0025980329
0.0025341074
0.0024705086
0.0024088385
0.0023510862
0.0023008614
0.0022629637
0.0022342757
0.0022358728
0.0022705289
0.0023295208
0.0024302826
0.0025766734
0.0027714226
0.0030128859
0.0032916211
0.0036073384
0.0039376266
0.0042318357
0.0044450244
0.0045710195
0.0045962076
0.004532837
0.0044294435
0.0043006018
0.0041567215
0.0040088037
0.0038592961
0.0037066128
0.0035537963
0.0033984384
0.0032375069
0.0030744402
0.0029111004
0.0027493055
0.002591183
0.0024350024
0.0022804322
0.0021301969
0.0019837485
0.0018395016
0.0016981703
0.0015614515
0.0014289619
0.0012990574
0.001172884
0.0010510641
0.00093561205
0.00082599702
0.00072496658
0.00062901314
0.00056704231
0.00048080328
0.00066645439
-0.00051310722
0.01203133
0.012134456
0.012353367
0.012632988
0.012971699
0.013369771
0.013825359
0.014337647
0.014907937
0.015539423
0.016237075
0.017007977
0.017861938
0.018812805
0.019879497
0.021090955
0.02248439
0.024133732
0.026104383
0.028673164
0.031802004
0.03715365
0.042384782
0.081762908
0.051907081
0.0024217898
0.0010958183
0.0019683928
0.0025259258
0.0029642413
0.0032258332
0.0034101578
0.0035506246
0.0036491402
0.0037181671
0.0037674255
0.0038023875
0.0038267414
0.0038428275
0.0038525061
0.0038572048
0.0038577935
0.0038550125
0.0038495124
0.003841686
0.0038318299
0.0038202151
0.0038070424
0.0037924882
0.0037766842
0.0037596897
0.0037415814
0.0037224191
0.0037022385
0.0036810831
0.0036589596
0.0036358473
0.0036117466
0.0035866424
0.0035605137
0.0035333321
0.0035050716
0.0034756779
0.0034450717
0.003413177
0.0033799116
0.0033451979
0.0033089514
0.0032710777
0.003231497
0.0031901137
0.0031468198
0.0031015082
0.0030540735
0.0030044301
0.0029525212
0.0028983409
0.0028419787
0.0027835716
0.0027232168
0.0026612362
0.0025980398
0.0025341137
0.0024705143
0.0024088435
0.0023510905
0.002300865
0.0022629666
0.0022342776
0.0022358737
0.0022705289
0.0023295196
0.0024302802
0.0025766697
0.0027714177
0.0030128797
0.0032916139
0.0036073302
0.0039376178
0.0042318269
0.0044450164
0.0045710129
0.0045962025
0.0045328331
0.0044294408
0.0043005999
0.0041567202
0.0040088029
0.0038592956
0.0037066125
0.0035537962
0.0033984384
0.0032375071
0.0030744405
0.0029111008
0.002749306
0.0025911836
0.0024350031
0.0022804329
0.0021301976
0.0019837492
0.0018395024
0.0016981711
0.0015614522
0.0014289626
0.0012990581
0.0011728847
0.0010510648
0.00093561274
0.0008259977
0.00072496727
0.00062901382
0.00056704305
0.00048080403
0.00066645521
-0.00051310673
0.01203133
0.012134456
0.012353367
0.012632989
0.012971699
0.013369772
0.013825359
0.014337648
0.014907937
0.015539424
0.016237077
0.017007979
0.017861941
0.018812809
0.019879502
0.021090961
0.022484398
0.024133743
0.026104398
0.028673189
0.031802038
0.037153718
0.042384882
0.081754682
0.051930548
0.0024311661
0.0010986853
0.0019697671
0.0025267678
0.0029648331
0.0032262808
0.0034105134
0.0035509156
0.0036493838
0.0037183749
0.0037676054
0.003802545
0.0038268807
0.0038429517
0.0038526176
0.0038573056
0.0038578851
0.0038550961
0.0038495889
0.0038417564
0.0038318949
0.0038202753
0.0038070983
0.0037925402
0.0037767327
0.003759735
0.0037416238
0.003722459
0.003702276
0.0036811183
0.0036589928
0.0036358786
0.0036117761
0.0035866703
0.0035605401
0.0035333571
0.0035050953
0.0034757003
0.0034450931
0.0034131972
0.0033799308
0.0033452161
0.0033089687
0.0032710941
0.0032315126
0.0031901286
0.0031468339
0.0031015215
0.0030540862
0.0030044421
0.0029525325
0.0028983516
0.0028419887
0.0027835809
0.0027232256
0.0026612444
0.0025980473
0.0025341205
0.0024705205
0.002408849
0.0023510953
0.002300869
0.0022629698
0.0022342797
0.0022358747
0.0022705289
0.0023295183
0.0024302776
0.0025766658
0.0027714123
0.003012873
0.003291606
0.0036073213
0.0039376083
0.0042318174
0.0044450076
0.0045710056
0.0045961969
0.0045328289
0.0044294378
0.0043005979
0.0041567188
0.0040088019
0.003859295
0.0037066122
0.0035537961
0.0033984385
0.0032375073
0.0030744409
0.0029111013
0.0027493066
0.0025911843
0.0024350038
0.0022804336
0.0021301984
0.00198375
0.0018395032
0.0016981719
0.001561453
0.0014289634
0.0012990589
0.0011728854
0.0010510656
0.0009356135
0.00082599845
0.00072496802
0.00062901457
0.00056704387
0.00048080484
0.00066645611
-0.00051310619
0.01203133
0.012134456
0.012353367
0.012632989
0.0129717
0.013369772
0.01382536
0.014337649
0.014907938
0.015539425
0.016237078
0.017007981
0.017861943
0.018812813
0.019879507
0.021090968
0.022484407
0.024133757
0.026104416
0.028673219
0.031802077
0.037153797
0.042384998
0.081745237
0.051955762
0.0024414378
0.0011018356
0.0019712776
0.0025276935
0.0029654837
0.0032267728
0.0034109043
0.0035512354
0.0036496516
0.0037186033
0.0037678031
0.0038027182
0.0038270339
0.0038430882
0.0038527402
0.0038574164
0.0038579857
0.0038551879
0.0038496731
0.0038418338
0.0038319664
0.0038203414
0.0038071597
0.0037925974
0.003776786
0.0037597849
0.0037416705
0.0037225027
0.0037023171
0.003681157
0.0036590293
0.003635913
0.0036118086
0.003586701
0.0035605691
0.0035333846
0.0035051214
0.003475725
0.0034451165
0.0034132194
0.0033799519
0.0033452361
0.0033089877
0.0032711122
0.0032315298
0.0031901449
0.0031468493
0.0031015362
0.0030541
0.0030044552
0.002952545
0.0028983633
0.0028419997
0.0027835913
0.0027232352
0.0026612533
0.0025980555
0.0025341281
0.0024705272
0.002408855
0.0023511005
0.0023008733
0.0022629733
0.002234282
0.0022358758
0.0022705289
0.0023295169
0.0024302748
0.0025766614
0.0027714063
0.0030128655
0.0032915973
0.0036073115
0.0039375977
0.0042318069
0.004444998
0.0045709976
0.0045961907
0.0045328243
0.0044294346
0.0043005956
0.0041567172
0.0040088009
0.0038592943
0.0037066118
0.0035537959
0.0033984385
0.0032375075
0.0030744413
0.0029111018
0.0027493072
0.002591185
0.0024350046
0.0022804345
0.0021301993
0.0019837509
0.0018395041
0.0016981728
0.0015614539
0.0014289643
0.0012990598
0.0011728863
0.0010510665
0.00093561433
0.00082599927
0.00072496885
0.00062901539
0.00056704476
0.00048080574
0.0006664571
-0.00051310561
0.01203133
0.012134456
0.012353368
0.012632989
0.0129717
0.013369773
0.013825361
0.014337649
0.01490794
0.015539427
0.016237081
0.017007984
0.017861947
0.018812817
0.019879513
0.021090976
0.022484418
0.024133772
0.026104436
0.028673253
0.031802123
0.037153887
0.042385134
0.081734316
0.051982924
0.0024527581
0.001105316
0.0019729469
0.0025287167
0.0029662029
0.0032273167
0.0034113365
0.003551589
0.0036499475
0.0037188558
0.0037680217
0.0038029096
0.0038272031
0.0038432391
0.0038528757
0.0038575388
0.0038580969
0.0038552894
0.0038497661
0.0038419194
0.0038320454
0.0038204145
0.0038072276
0.0037926606
0.0037768449
0.00375984
0.0037417221
0.0037225511
0.0037023626
0.0036811998
0.0036590696
0.003635951
0.0036118445
0.0035867349
0.0035606012
0.003533415
0.0035051501
0.0034757523
0.0034451424
0.003413244
0.0033799752
0.0033452583
0.0033090088
0.0032711322
0.0032315487
0.0031901629
0.0031468664
0.0031015524
0.0030541154
0.0030044697
0.0029525587
0.0028983763
0.0028420119
0.0027836027
0.0027232458
0.0026612632
0.0025980646
0.0025341364
0.0024705347
0.0024088617
0.0023511063
0.0023008781
0.0022629772
0.0022342846
0.002235877
0.0022705289
0.0023295153
0.0024302716
0.0025766565
0.0027713997
0.0030128573
0.0032915876
0.0036073007
0.0039375861
0.0042317953
0.0044449874
0.0045709887
0.0045961839
0.0045328192
0.004429431
0.0043005931
0.0041567155
0.0040087997
0.0038592936
0.0037066114
0.0035537958
0.0033984386
0.0032375078
0.0030744417
0.0029111024
0.0027493079
0.0025911858
0.0024350054
0.0022804354
0.0021302002
0.0019837518
0.001839505
0.0016981738
0.0015614549
0.0014289652
0.0012990607
0.0011728872
0.0010510674
0.00093561525
0.00082600018
0.00072496976
0.00062901629
0.00056704575
0.00048080674
0.0006664582
-0.00051310495
0.01203133
0.012134457
0.012353368
0.01263299
0.012971701
0.013369774
0.013825362
0.014337651
0.014907941
0.015539429
0.016237083
0.017007987
0.017861951
0.018812822
0.01987952
0.021090985
0.02248443
0.02413379
0.02610446
0.028673292
0.031802175
0.037153992
0.042385291
0.08172161
0.05201222
0.0024652889
0.001109178
0.0019747998
0.0025298528
0.0029670014
0.0032279206
0.0034118162
0.0035519816
0.0036502761
0.0037191361
0.0037682643
0.0038031221
0.003827391
0.0038434066
0.0038530261
0.0038576747
0.0038582204
0.0038554021
0.0038498694
0.0038420144
0.0038321331
0.0038204957
0.0038073029
0.0037927307
0.0037769103
0.0037599011
0.0037417793
0.0037226049
0.003702413
0.0036812472
0.0036591143
0.0036359932
0.0036118844
0.0035867726
0.0035606368
0.0035334488
0.0035051821
0.0034757826
0.0034451711
0.0034132713
0.0033800011
0.0033452829
0.0033090321
0.0032711544
0.0032315698
0.0031901829
0.0031468854
0.0031015704
0.0030541324
0.0030044859
0.0029525739
0.0028983906
0.0028420254
0.0027836153
0.0027232576
0.0026612741
0.0025980747
0.0025341456
0.0024705431
0.0024088691
0.0023511127
0.0023008834
0.0022629815
0.0022342874
0.0022358783
0.0022705288
0.0023295135
0.0024302681
0.0025766511
0.0027713924
0.0030128481
0.0032915769
0.0036072886
0.0039375732
0.0042317825
0.0044449755
0.0045709789
0.0045961763
0.0045328136
0.004429427
0.0043005904
0.0041567136
0.0040087985
0.0038592928
0.003706611
0.0035537957
0.0033984387
0.0032375081
0.0030744422
0.002911103
0.0027493087
0.0025911866
0.0024350064
0.0022804364
0.0021302013
0.0019837529
0.0018395061
0.0016981749
0.001561456
0.0014289663
0.0012990618
0.0011728883
0.0010510684
0.00093561628
0.00082600118
0.00072497077
0.00062901729
0.00056704685
0.00048080784
0.00066645941
-0.00051310423
0.01203133
0.012134457
0.012353368
0.01263299
0.012971701
0.013369774
0.013825363
0.014337652
0.014907943
0.015539431
0.016237086
0.017007991
0.017861956
0.018812829
0.019879528
0.021090996
0.022484445
0.02413381
0.026104487
0.028673337
0.031802235
0.037154112
0.042385474
0.081706747
0.052043809
0.0024792115
0.0011134785
0.0019768638
0.0025311187
0.0029678912
0.0032285935
0.0034123508
0.003552419
0.0036506422
0.0037194485
0.0037685347
0.0038033589
0.0038276004
0.0038435933
0.0038531937
0.0038578262
0.003858358
0.0038555276
0.0038499845
0.0038421202
0.0038322308
0.0038205862
0.0038073869
0.0037928089
0.0037769832
0.0037599692
0.0037418431
0.0037226647
0.0037024693
0.0036813002
0.0036591641
0.0036360402
0.0036119287
0.0035868146
0.0035606765
0.0035334863
0.0035052177
0.0034758164
0.0034452032
0.0034133017
0.0033800299
0.0033453103
0.0033090581
0.0032711791
0.0032315933
0.0031902051
0.0031469065
0.0031015904
0.0030541514
0.0030045038
0.0029525909
0.0028984066
0.0028420404
0.0027836294
0.0027232708
0.0026612863
0.0025980859
0.0025341558
0.0024705523
0.0024088773
0.0023511198
0.0023008893
0.0022629863
0.0022342906
0.0022358798
0.0022705288
0.0023295115
0.0024302641
0.002576645
0.0027713842
0.0030128379
0.003291565
0.0036072752
0.0039375587
0.0042317681
0.0044449624
0.004570968
0.0045961679
0.0045328073
0.0044294226
0.0043005873
0.0041567115
0.0040087971
0.0038592919
0.0037066105
0.0035537955
0.0033984388
0.0032375084
0.0030744427
0.0029111037
0.0027493095
0.0025911876
0.0024350075
0.0022804375
0.0021302025
0.0019837541
0.0018395074
0.0016981761
0.0015614572
0.0014289675
0.001299063
0.0011728895
0.0010510696
0.00093561741
0.0008260023
0.0007249719
0.00062901841
0.00056704807
0.00048080907
0.00066646077
-0.00051310342
0.01203133
0.012134457
0.012353369
0.012632991
0.012971702
0.013369775
0.013825364
0.014337653
0.014907945
0.015539433
0.016237089
0.017007995
0.017861961
0.018812836
0.019879537
0.021091008
0.022484461
0.024133833
0.026104519
0.028673389
0.031802305
0.037154249
0.042385685
0.081689282
0.052077815
0.0024947312
0.0011182811
0.0019791697
0.0025325335
0.0029688856
0.0032293454
0.0034129481
0.0035529077
0.0036510513
0.0037197974
0.0037688368
0.0038036234
0.0038278343
0.0038438019
0.003853381
0.0038579954
0.0038585117
0.0038556679
0.003850113
0.0038422385
0.0038323399
0.0038206872
0.0038074807
0.0037928962
0.0037770647
0.0037600454
0.0037419144
0.0037227316
0.0037025321
0.0036813593
0.0036592198
0.0036360927
0.0036119784
0.0035868615
0.0035607209
0.0035335284
0.0035052575
0.0034758541
0.0034452389
0.0034133356
0.0033800622
0.0033453409
0.0033090872
0.0032712067
0.0032316195
0.00319023
0.0031469302
0.0031016128
0.0030541726
0.0030045239
0.0029526099
0.0028984245
0.0028420573
0.0027836452
0.0027232855
0.0026613
0.0025980985
0.0025341673
0.0024705627
0.0024088865
0.0023511278
0.0023008959
0.0022629916
0.0022342941
0.0022358814
0.0022705287
0.0023295093
0.0024302597
0.0025766382
0.002771375
0.0030128265
0.0032915516
0.0036072602
0.0039375426
0.0042317521
0.0044449476
0.0045709558
0.0045961585
0.0045328003
0.0044294177
0.0043005838
0.0041567092
0.0040087955
0.003859291
0.00370661
0.0035537953
0.0033984389
0.0032375088
0.0030744433
0.0029111045
0.0027493105
0.0025911887
0.0024350087
0.0022804388
0.0021302038
0.0019837555
0.0018395087
0.0016981774
0.0015614585
0.0014289689
0.0012990643
0.0011728908
0.0010510709
0.00093561869
0.00082600356
0.00072497316
0.00062901966
0.00056704944
0.00048081044
0.00066646228
-0.00051310252
0.01203133
0.012134458
0.012353369
0.012632991
0.012971703
0.013369776
0.013825365
0.014337655
0.014907947
0.015539436
0.016237093
0.017008
0.017861967
0.018812844
0.019879548
0.021091022
0.02248448
0.02413386
0.026104555
0.028673448
0.031802384
0.037154406
0.04238593
0.081668678
0.052114307
0.0025120813
0.0011236564
0.0019817516
0.0025341181
0.0029699994
0.0032301877
0.0034136172
0.0035534552
0.0036515096
0.0037201883
0.0037691751
0.0038039197
0.0038280963
0.0038440355
0.0038535907
0.0038581849
0.0038586839
0.003855825
0.003850257
0.003842371
0.0038324622
0.0038208004
0.0038075858
0.003792994
0.0037771559
0.0037601306
0.0037419943
0.0037228065
0.0037026025
0.0036814255
0.0036592822
0.0036361516
0.0036120339
0.003586914
0.0035607706
0.0035335754
0.0035053021
0.0034758964
0.003445279
0.0034133737
0.0033800983
0.0033453752
0.0033091198
0.0032712376
0.0032316488
0.0031902579
0.0031469566
0.0031016379
0.0030541964
0.0030045464
0.0029526311
0.0028984445
0.0028420761
0.0027836628
0.002723302
0.0026613152
0.0025981126
0.0025341802
0.0024705743
0.0024088968
0.0023511367
0.0023009033
0.0022629976
0.002234298
0.0022358832
0.0022705286
0.0023295068
0.0024302547
0.0025766306
0.0027713647
0.0030128137
0.0032915367
0.0036072434
0.0039375245
0.0042317341
0.0044449311
0.0045709421
0.004596148
0.0045327925
0.0044294122
0.00430058
0.0041567065
0.0040087937
0.0038592899
0.0037066094
0.0035537951
0.003398439
0.0032375092
0.003074444
0.0029111054
0.0027493116
0.00259119
0.00243501
0.0022804402
0.0021302053
0.001983757
0.0018395102
0.001698179
0.0015614601
0.0014289704
0.0012990658
0.0011728922
0.0010510723
0.00093562011
0.00082600496
0.00072497457
0.00062902106
0.00056705097
0.00048081198
0.00066646397
-0.00051310151
0.01203133
0.012134458
0.01235337
0.012632992
0.012971704
0.013369778
0.013825367
0.014337657
0.014907949
0.01553944
0.016237097
0.017008005
0.017861974
0.018812853
0.01987956
0.021091039
0.022484502
0.024133891
0.026104596
0.028673514
0.031802473
0.037154582
0.042386213
0.081644288
0.052153283
0.0025315293
0.0011296839
0.0019846479
0.0025358965
0.0029712494
0.003231133
0.003414368
0.0035540694
0.0036520237
0.0037206269
0.0037695547
0.0038042522
0.0038283903
0.0038442976
0.0038538261
0.0038583975
0.003858877
0.0038560012
0.0038504186
0.0038425196
0.0038325994
0.0038209274
0.0038077037
0.0037931037
0.0037772582
0.0037602263
0.0037420839
0.0037228905
0.0037026814
0.0036814998
0.0036593522
0.0036362176
0.0036120963
0.0035869729
0.0035608263
0.0035336282
0.0035053521
0.0034759438
0.003445324
0.0034134164
0.0033801388
0.0033454136
0.0033091563
0.0032712723
0.0032316818
0.0031902892
0.0031469863
0.0031016661
0.0030542231
0.0030045716
0.0029526549
0.002898467
0.0028420972
0.0027836826
0.0027233204
0.0026613324
0.0025981283
0.0025341946
0.0024705873
0.0024089083
0.0023511467
0.0023009116
0.0022630043
0.0022343024
0.0022358853
0.0022705285
0.0023295039
0.0024302491
0.0025766221
0.0027713531
0.0030127993
0.0032915198
0.0036072244
0.0039375042
0.0042317139
0.0044449126
0.0045709268
0.0045961361
0.0045327837
0.004429406
0.0043005757
0.0041567036
0.0040087918
0.0038592886
0.0037066087
0.0035537949
0.0033984392
0.0032375097
0.0030744447
0.0029111064
0.0027493128
0.0025911913
0.0024350115
0.0022804419
0.002130207
0.0019837587
0.001839512
0.0016981807
0.0015614618
0.001428972
0.0012990675
0.0011728939
0.0010510739
0.00093562171
0.00082600654
0.00072497616
0.00062902263
0.00056705268
0.0004808137
0.00066646587
-0.00051310038
0.01203133
0.012134458
0.01235337
0.012632993
0.012971705
0.013369779
0.013825368
0.014337659
0.014907952
0.015539443
0.016237102
0.017008012
0.017861983
0.018812864
0.019879574
0.021091057
0.022484527
0.024133926
0.026104642
0.028673589
0.031802575
0.03715478
0.042386539
0.081615338
0.05219464
0.0025533851
0.0011364523
0.0019879017
0.0025378953
0.0029726544
0.0032321953
0.0034152117
0.0035547598
0.0036526016
0.0037211198
0.0037699814
0.0038046257
0.0038287206
0.0038445921
0.0038540905
0.0038586365
0.0038590941
0.0038561993
0.0038506001
0.0038426866
0.0038327535
0.0038210701
0.0038078362
0.003793227
0.0037773733
0.0037603338
0.0037421845
0.003722985
0.0037027702
0.0036815833
0.0036594309
0.0036362918
0.0036121663
0.0035870391
0.003560889
0.0035336875
0.0035054083
0.0034759971
0.0034453745
0.0034134643
0.0033801843
0.0033454569
0.0033091974
0.0032713113
0.0032317188
0.0031903243
0.0031470196
0.0031016977
0.003054253
0.0030045999
0.0029526817
0.0028984923
0.002842121
0.0027837049
0.0027233412
0.0026613516
0.0025981461
0.0025342107
0.0024706019
0.0024089212
0.0023511579
0.0023009209
0.0022630118
0.0022343073
0.0022358875
0.0022705283
0.0023295007
0.0024302427
0.0025766124
0.00277134
0.0030127831
0.0032915009
0.0036072031
0.0039374814
0.0042316912
0.0044448918
0.0045709096
0.0045961229
0.0045327738