/*--------------------------------*- C++ -*----------------------------------*\
| =========                 |                                                 |
| \\      /  F ield         | OpenFOAM: The Open Source CFD Toolbox           |
|  \\    /   O peration     | Version:  2206                                  |
|   \\  /    A nd           | Website:  www.openfoam.com                      |
|    \\/     M anipulation  |                                                 |
\*---------------------------------------------------------------------------*/
FoamFile
{
    version     2.0;
    format      ascii;
    arch        "LSB;label=32;scalar=64";
    class       surfaceScalarField;
    location    "400";
    object      phi;
}
// * * * * * * * * * * * * * * * * * * * * * * * * * * * * * * * * * * * * * //

dimensions      [0 3 -1 0 0 0 0];

oriented        oriented;

internalField   nonuniform List<scalar> 
25880
(
2.0046332e-06
2.0941026e-11
2.0045841e-06
4.9091827e-11
2.0045231e-06
6.1056403e-11
2.004454e-06
6.9020406e-11
2.0043746e-06
7.9413591e-11
2.0042832e-06
9.1432842e-11
2.0041782e-06
1.0499011e-10
2.0040575e-06
1.2065851e-10
2.0039184e-06
1.3910534e-10
2.0037574e-06
1.6104873e-10
2.00357e-06
1.873982e-10
2.0033505e-06
2.1948794e-10
2.0030914e-06
2.5911587e-10
2.0027819e-06
3.0947517e-10
2.0024079e-06
3.7397432e-10
2.0019448e-06
4.6318609e-10
2.0013656e-06
5.7915436e-10
2.0005889e-06
7.7671609e-10
1.9995897e-06
9.9921669e-10
1.9979606e-06
1.6290589e-09
1.9959037e-06
2.0569208e-09
1.9908635e-06
5.040226e-09
1.989255e-06
1.608469e-09
9.9915213e-07
9.9010286e-07
4.4083199e-09
9.9474381e-07
2.1204556e-09
2.2878642e-09
1.6037092e-09
5.1674643e-10
1.3543243e-09
2.4938488e-10
1.2003782e-09
1.5394608e-10
1.0911985e-09
1.0917971e-10
1.0078477e-09
8.3350793e-11
9.4096993e-10
6.6877779e-11
8.8570422e-10
5.526571e-11
8.3897118e-10
4.6733045e-11
7.9868416e-10
4.0287019e-11
7.6343488e-10
3.5249274e-11
7.3222491e-10
3.1209974e-11
7.0431537e-10
2.7909539e-11
6.791435e-10
2.517187e-11
6.5627552e-10
2.2867986e-11
6.353604e-10
2.0915117e-11
6.1612434e-10
1.9236064e-11
5.9834902e-10
1.7775311e-11
5.8184503e-10
1.6503992e-11
5.6646077e-10
1.5384266e-11
5.5206756e-10
1.4393206e-11
5.385564e-10
1.3511161e-11
5.2583435e-10
1.2722054e-11
5.1382187e-10
1.2012476e-11
5.0245038e-10
1.1371487e-11
4.9165989e-10
1.0790493e-11
4.8139788e-10
1.0262009e-11
4.7161836e-10
9.7795263e-12
4.6228074e-10
9.3376191e-12
4.5334931e-10
8.9314262e-12
4.4479237e-10
8.5569427e-12
4.3658137e-10
8.2109941e-12
4.2869077e-10
7.8906049e-12
4.2109769e-10
7.5930768e-12
4.1378155e-10
7.316141e-12
4.0672385e-10
7.0577058e-12
3.9990813e-10
6.8157213e-12
3.9331964e-10
6.5884829e-12
3.8694482e-10
6.3748198e-12
3.8077125e-10
6.1735771e-12
3.7478784e-10
5.983409e-12
3.689848e-10
5.8030382e-12
3.633534e-10
5.6313976e-12
3.5788589e-10
5.4675125e-12
3.5257567e-10
5.310215e-12
3.4741735e-10
5.1583232e-12
3.424066e-10
5.0107527e-12
3.3754015e-10
4.8664462e-12
3.3281575e-10
4.7243979e-12
3.2823218e-10
4.5835747e-12
3.2378932e-10
4.4428616e-12
3.1948869e-10
4.3006309e-12
3.1533464e-10
4.1540432e-12
3.1133441e-10
4.0002291e-12
3.0749721e-10
3.8372009e-12
3.0383463e-10
3.662582e-12
3.0036059e-10
3.4740402e-12
2.9709136e-10
3.2692282e-12
2.9404877e-10
3.0425934e-12
2.9126084e-10
2.7879307e-12
2.8876211e-10
2.4987253e-12
2.8661843e-10
2.1436837e-12
2.8482107e-10
1.7973539e-12
2.8358997e-10
1.231103e-12
2.8298176e-10
6.0820433e-13
2.8297532e-10
6.4412046e-15
2.8379829e-10
-8.229736e-13
2.8552414e-10
-1.7258488e-12
2.8828614e-10
-2.7620078e-12
2.9219138e-10
-3.905244e-12
2.9726527e-10
-5.073892e-12
3.0346058e-10
-6.1953149e-12
3.1074329e-10
-7.2827237e-12
3.1893e-10
-8.1867118e-12
3.2746807e-10
-8.5380774e-12
3.3568993e-10
-8.2218569e-12
3.4285426e-10
-7.1643284e-12
3.4866433e-10
-5.8100781e-12
3.5322433e-10
-4.5599893e-12
3.5660866e-10
-3.3843299e-12
3.5909899e-10
-2.4903252e-12
3.609043e-10
-1.8053099e-12
3.6218159e-10
-1.2772945e-12
3.6303587e-10
-8.5427056e-13
3.6353143e-10
-4.9556592e-13
3.637174e-10
-1.8595913e-13
3.636152e-10
1.0219844e-13
3.6322163e-10
3.9356462e-13
3.6256121e-10
6.6042724e-13
3.6167419e-10
8.8702473e-13
3.6059342e-10
1.0807621e-12
3.5936223e-10
1.2311982e-12
3.5801727e-10
1.3449558e-12
3.5658611e-10
1.4311632e-12
3.5509946e-10
1.4866544e-12
3.5358431e-10
1.5151481e-12
3.5205439e-10
1.5299195e-12
3.5051868e-10
1.5357093e-12
3.4899062e-10
1.5280635e-12
3.4748091e-10
1.5097116e-12
3.459914e-10
1.4895086e-12
3.445203e-10
1.4711023e-12
3.4306761e-10
1.4526862e-12
3.4163367e-10
1.4339443e-12
3.4022027e-10
1.4133962e-12
3.3879786e-10
1.4224119e-12
3.3738735e-10
1.4105074e-12
3.3584268e-10
1.5446765e-12
3.3429057e-10
1.5521035e-12
3.3258816e-10
1.7024088e-12
1.0206238e-12
2.0345067e-06
4.2342538e-11
2.0344565e-06
9.9279868e-11
2.034394e-06
1.2349155e-10
2.0343235e-06
1.3960153e-10
2.0342422e-06
1.6062149e-10
2.0341488e-06
1.8492844e-10
2.0340414e-06
2.1234355e-10
2.033918e-06
2.4402552e-10
2.0337758e-06
2.8132354e-10
2.0336112e-06
3.2568913e-10
2.0334196e-06
3.7896043e-10
2.0331953e-06
4.4383393e-10
2.0329304e-06
5.2394298e-10
2.0326142e-06
6.2574117e-10
2.032232e-06
7.561152e-10
2.0317588e-06
9.364337e-10
2.0311671e-06
1.1708155e-09
2.0303737e-06
1.5700925e-09
2.0293533e-06
2.0197085e-09
2.0276899e-06
3.2924408e-09
2.0255897e-06
4.1570535e-09
2.0204449e-06
1.0185113e-08
2.0187958e-06
3.2575117e-09
1.0204203e-06
1.9884784e-06
1.3449987e-08
2.0017141e-06
6.4880082e-09
9.2498425e-09
4.907151e-09
2.0976036e-09
4.1440763e-09
1.0124595e-09
3.6730066e-09
6.2501586e-10
3.3389146e-09
4.4327163e-10
3.0838639e-09
3.3840151e-10
2.8792229e-09
2.7151878e-10
2.7101139e-09
2.2437469e-10
2.5671149e-09
1.8973212e-10
2.4438408e-09
1.635611e-10
2.3359821e-09
1.4310796e-10
2.2404835e-09
1.2670861e-10
2.1550839e-09
1.1330909e-10
2.0780614e-09
1.0219438e-10
2.0080885e-09
9.2840868e-11
1.9440913e-09
8.4912355e-11
1.8852318e-09
7.8095572e-11
1.8308419e-09
7.2165159e-11
1.7803422e-09
6.7003739e-11
1.7332686e-09
6.2457803e-11
1.6892276e-09
5.8434233e-11
1.6478855e-09
5.4853254e-11
1.608958e-09
5.1649591e-11
1.5722017e-09
4.8768803e-11
1.5374067e-09
4.6166485e-11
1.5043894e-09
4.3807738e-11
1.4729893e-09
4.1662171e-11
1.4430654e-09
3.9703367e-11
1.4144937e-09
3.7909291e-11
1.387165e-09
3.6260212e-11
1.360982e-09
3.4739869e-11
1.3358577e-09
3.3335373e-11
1.3117136e-09
3.2034644e-11
1.28848e-09
3.0826728e-11
1.2660937e-09
2.9702413e-11
1.2444982e-09
2.8653207e-11
1.2236431e-09
2.7670791e-11
1.2034834e-09
2.6748242e-11
1.1839774e-09
2.5880806e-11
1.1650872e-09
2.5063795e-11
1.1467788e-09
2.4291744e-11
1.1290224e-09
2.3559468e-11
1.1117912e-09
2.2862636e-11
1.0950614e-09
2.2197288e-11
1.0788129e-09
2.1558684e-11
1.0630292e-09
2.0942026e-11
1.0476971e-09
2.0342911e-11
1.0328065e-09
1.9757046e-11
1.0183505e-09
1.9180346e-11
1.0043255e-09
1.8608616e-11
9.90731e-10
1.8037329e-11
9.7757176e-10
1.7459874e-11
9.6486108e-10
1.6864726e-11
9.5262107e-10
1.6240238e-11
9.4087994e-10
1.5578331e-11
9.2967316e-10
1.486936e-11
9.1904334e-10
1.4103854e-11
9.0904031e-10
1.3272266e-11
8.9973085e-10
1.2352054e-11
8.9120075e-10
1.1318024e-11
8.8355578e-10
1.0143695e-11
8.769974e-10
8.7020638e-12
8.7149895e-10
7.2958056e-12
8.6773354e-10
4.9965049e-12
8.6587436e-10
2.4673843e-12
8.6585673e-10
2.4071344e-14
8.6837739e-10
-3.3436347e-12
8.7366102e-10
-7.0094834e-12
8.8211535e-10
-1.1216344e-11
8.9406788e-10
-1.5857783e-11
9.0959618e-10
-2.0602196e-11
9.2855577e-10
-2.5154916e-11
9.5084202e-10
-2.956898e-11
9.7589297e-10
-3.3237668e-11
1.0020176e-09
-3.4662704e-11
1.0271737e-09
-3.3377996e-11
1.0490933e-09
-2.9083874e-11
1.0668689e-09
-2.3585679e-11
1.0808199e-09
-1.8511025e-11
1.0911739e-09
-1.3738364e-11
1.0987927e-09
-1.0109123e-11
1.1043158e-09
-7.3283382e-12
1.1082233e-09
-5.1848246e-12
1.1108365e-09
-3.4674895e-12
1.1123523e-09
-2.0113091e-12
1.1129207e-09
-7.5439173e-13
1.1126074e-09
4.1547534e-13
1.1114026e-09
1.5983662e-12
1.1093813e-09
2.6817882e-12
1.1066666e-09
3.6017041e-12
1.1033592e-09
4.388192e-12
1.0995915e-09
4.9989097e-12
1.0954757e-09
5.4607068e-12
1.0910962e-09
5.8106291e-12
1.086547e-09
6.0358737e-12
1.0819107e-09
6.151526e-12
1.0772291e-09
6.2114514e-12
1.0725299e-09
6.234906e-12
1.0678542e-09
6.2038356e-12
1.0632346e-09
6.1293145e-12
1.0586768e-09
6.0472607e-12
1.0541754e-09
5.9725014e-12
1.0497304e-09
5.8976969e-12
1.0453427e-09
5.8215865e-12
1.041018e-09
5.7381312e-12
1.0366657e-09
5.7746959e-12
1.03235e-09
5.7262004e-12
1.0276237e-09
6.2710225e-12
1.0228763e-09
6.2995236e-12
1.0176595e-09
6.9191704e-12
4.1312149e-12
2.0946989e-06
6.454695e-11
2.0946468e-06
1.5137058e-10
2.094582e-06
1.8831188e-10
2.0945087e-06
2.1288158e-10
2.0944244e-06
2.4493295e-10
2.0943273e-06
2.819936e-10
2.0942159e-06
3.2378947e-10
2.0940878e-06
3.7208675e-10
2.0939402e-06
4.2894194e-10
2.0937693e-06
4.965669e-10
2.0935705e-06
5.7776222e-10
2.0933377e-06
6.7663632e-10
2.0930629e-06
7.9872457e-10
2.0927348e-06
9.538598e-10
2.0923384e-06
1.1525314e-09
2.0918475e-06
1.4272982e-09
2.0912339e-06
1.7844156e-09
2.0904113e-06
2.3927571e-09
2.0893533e-06
3.0776867e-09
2.0876292e-06
5.0165155e-09
2.0854526e-06
6.3336279e-09
2.0801218e-06
1.5515977e-08
2.078406e-06
4.9732462e-09
1.0572804e-06
3.009604e-06
2.3255634e-08
3.0357389e-06
1.1243485e-08
2.1261991e-08
8.5042414e-09
4.8368477e-09
7.1818489e-09
2.334852e-09
6.3654461e-09
1.4414187e-09
5.7864326e-09
1.0222851e-09
5.3444091e-09
7.8042497e-10
4.9897539e-09
6.2617396e-10
4.6966782e-09
5.1745045e-10
4.4488531e-09
4.3755719e-10
4.2352134e-09
3.7720076e-10
4.04829e-09
3.3003143e-10
3.8827873e-09
2.9221123e-10
3.734787e-09
2.613094e-10
3.6013046e-09
2.3567682e-10
3.4800394e-09
2.1410605e-10
3.3691304e-09
1.9582134e-10
3.2671254e-09
1.8010063e-10
3.1728663e-09
1.6642427e-10
3.0853489e-09
1.5452111e-10
3.0037692e-09
1.4403745e-10
2.927445e-09
1.3475845e-10
2.8557981e-09
1.2650013e-10
2.7883358e-09
1.1911198e-10
2.7246361e-09
1.1246842e-10
2.6643355e-09
1.0646708e-10
2.6071158e-09
1.0102744e-10
2.5526986e-09
9.607943e-11
2.5008398e-09
9.1562126e-11
2.4513244e-09
8.742471e-11
2.4039629e-09
8.3621682e-11
2.3585873e-09
8.0115543e-11
2.3150461e-09
7.6876561e-11
2.2732038e-09
7.3876884e-11
2.2329393e-09
7.1091246e-11
2.1941433e-09
6.8498405e-11
2.1567178e-09
6.6078779e-11
2.1205754e-09
6.3813179e-11
2.085638e-09
6.1685646e-11
2.0518336e-09
5.9685212e-11
2.0190963e-09
5.7801062e-11
1.9873674e-09
5.6020596e-11
1.956595e-09
5.4331857e-11
1.9267328e-09
5.2724853e-11
1.8977397e-09
5.1190456e-11
1.8695806e-09
4.9717733e-11
1.842227e-09
4.8295621e-11
1.815656e-09
4.6913962e-11
1.7898502e-09
4.5562855e-11
1.7647976e-09
4.423288e-11
1.7404919e-09
4.2914359e-11
1.7169324e-09
4.1596849e-11
1.6941271e-09
4.0265101e-11
1.6720993e-09
3.8892541e-11
1.6508872e-09
3.745231e-11
1.6305398e-09
3.5925762e-11
1.6111185e-09
3.4290659e-11
1.5926972e-09
3.2525155e-11
1.5753623e-09
3.0607203e-11
1.5592295e-09
2.8484809e-11
1.5444477e-09
2.6099869e-11
1.5312001e-09
2.3391265e-11
1.519836e-09
2.0066182e-11
1.5103093e-09
1.6822508e-11
1.5037864e-09
1.1519382e-11
1.5005676e-09
5.6861639e-12
1.5005411e-09
5.0601622e-14
1.5049141e-09
-7.7166195e-12
1.5140761e-09
-1.6171485e-11
1.5287336e-09
-2.5873815e-11
1.5494539e-09
-3.6578108e-11
1.5763712e-09
-4.7519521e-11
1.609235e-09
-5.8018723e-11
1.6478632e-09
-6.819715e-11
1.6912807e-09
-7.6655206e-11
1.7365565e-09
-7.9938462e-11
1.7801517e-09
-7.6973256e-11
1.8181361e-09
-6.7068222e-11
1.848938e-09
-5.4387538e-11
1.873112e-09
-4.2685026e-11
1.8910526e-09
-3.167898e-11
1.9042534e-09
-2.3309917e-11
1.9138226e-09
-1.6897543e-11
1.9205924e-09
-1.195463e-11
1.9251193e-09
-7.9944228e-12
1.9277445e-09
-4.6365023e-12
1.9287281e-09
-1.7379972e-12
1.9281837e-09
9.5983863e-13
1.9260944e-09
3.687736e-12
1.9225899e-09
6.1862377e-12
1.917884e-09
8.3076037e-12
1.912151e-09
1.0121232e-11
1.9056204e-09
1.152954e-11
1.8984867e-09
1.2594395e-11
1.8908961e-09
1.3401212e-11
1.8830114e-09
1.3920538e-11
1.8749758e-09
1.4187153e-11
1.866862e-09
1.4325232e-11
1.8587177e-09
1.4379197e-11
1.8506141e-09
1.4307455e-11
1.8426079e-09
1.4135536e-11
1.8347089e-09
1.3946225e-11
1.8269077e-09
1.3773734e-11
1.8192042e-09
1.3601138e-11
1.8116003e-09
1.3425553e-11
1.8041054e-09
1.3233025e-11
1.7965628e-09
1.3317227e-11
1.7890838e-09
1.3205199e-11
1.7808934e-09
1.4461488e-11
1.7726675e-09
1.4525401e-11
1.7636215e-09
1.5965143e-11
9.5135933e-12
2.1861069e-06
8.7918071e-11
2.186052e-06
2.0622206e-10
2.1859837e-06
2.5658949e-10
2.1859065e-06
2.9007321e-10
2.1858177e-06
3.3374279e-10
2.1857155e-06
3.8423329e-10
2.1855981e-06
4.4116932e-10
2.1854632e-06
5.0695632e-10
2.1853078e-06
5.8439507e-10
2.1851278e-06
6.7649706e-10
2.1849185e-06
7.8707472e-10
2.1846735e-06
9.2172089e-10
2.1843842e-06
1.0879702e-09
2.1840389e-06
1.2992083e-09
2.1836217e-06
1.5697094e-09
2.1831052e-06
1.9437982e-09
2.1824596e-06
2.4299592e-09
2.1815943e-06
3.2580947e-09
2.1804817e-06
4.1903253e-09
2.178669e-06
6.8291784e-09
2.1763808e-06
8.6218254e-09
2.1707781e-06
2.1118668e-08
2.1689666e-06
6.7847719e-09
1.110587e-06
4.0679836e-06
3.4405649e-08
4.1119202e-06
1.6671352e-08
3.8996288e-08
1.2610185e-08
8.8980146e-09
1.0649402e-08
4.2956346e-09
9.4387902e-09
2.6520305e-09
8.5801897e-09
1.8808857e-09
7.9247315e-09
1.4358831e-09
7.3988345e-09
1.152071e-09
6.9642506e-09
9.5203434e-10
6.596767e-09
8.0504078e-10
6.2799761e-09
6.9399166e-10
6.0028016e-09
6.0720593e-10
5.757391e-09
5.3762191e-10
5.5379334e-09
4.8076696e-10
5.3400034e-09
4.3360678e-10
5.1601894e-09
3.9392006e-10
4.9957321e-09
3.6027867e-10
4.8444778e-09
3.3135492e-10
4.7047091e-09
3.0619297e-10
4.5749373e-09
2.8429295e-10
4.45397e-09
2.6500473e-10
4.3407955e-09
2.479329e-10
4.2345567e-09
2.3273898e-10
4.1345227e-09
2.19146e-10
4.0400681e-09
2.0692298e-10
3.9506537e-09
1.9588152e-10
3.8658076e-09
1.8587351e-10
3.785117e-09
1.7677001e-10
3.7082202e-09
1.6845894e-10
3.6347981e-09
1.6084679e-10
3.5645699e-09
1.5384988e-10
3.4972863e-09
1.4739919e-10
3.4327228e-09
1.4144002e-10
3.3706786e-09
1.3592112e-10
3.3109738e-09
1.3079603e-10
3.2534466e-09
1.2602565e-10
3.1979514e-09
1.2157395e-10
3.1443589e-09
1.1740564e-10
3.0925532e-09
1.1349135e-10
3.0424276e-09
1.0981089e-10
2.9938842e-09
1.0634438e-10
2.9468362e-09
1.0306863e-10
2.9012064e-09
9.9961635e-11
2.8569263e-09
9.7005017e-11
2.8139347e-09
9.4181976e-11
2.7721801e-09
9.1472405e-11
2.7316197e-09
8.8855943e-11
2.6922198e-09
8.6313901e-11
2.6539546e-09
8.3828063e-11
2.6168064e-09
8.1381093e-11
2.5807656e-09
7.8955182e-11
2.5458313e-09
7.6531108e-11
2.5120156e-09
7.4080813e-11
2.4793527e-09
7.155541e-11
2.4478996e-09
6.8905481e-11
2.4177286e-09
6.6096702e-11
2.3889311e-09
6.308816e-11
2.3616166e-09
5.9839646e-11
2.3359133e-09
5.6310552e-11
2.3119929e-09
5.24052e-11
2.2900761e-09
4.8016667e-11
2.2704349e-09
4.3032437e-11
2.2535872e-09
3.6913893e-11
2.239465e-09
3.0944665e-11
2.2297976e-09
2.1186849e-11
2.2250306e-09
1.0453107e-11
2.2249989e-09
8.2379104e-14
2.2314918e-09
-1.4209571e-11
2.2450874e-09
-2.9767117e-11
2.2668331e-09
-4.7619462e-11
2.2975698e-09
-6.731484e-11
2.3374961e-09
-8.7445818e-11
2.3862401e-09
-1.0676267e-10
2.4435304e-09
-1.2548752e-10
2.5079196e-09
-1.4104441e-10
2.5750598e-09
-1.4707866e-10
2.639704e-09
-1.4161738e-10
2.696024e-09
-1.2338825e-10
2.7416911e-09
-1.0005469e-10
2.7775301e-09
-7.8524015e-11
2.8041263e-09
-5.827512e-11
2.8236948e-09
-4.2878409e-11
2.837879e-09
-3.1081789e-11
2.8479129e-09
-2.1988478e-11
2.8546214e-09
-1.4702949e-11
2.8585104e-09
-8.5255334e-12
2.8599656e-09
-3.1931551e-12
2.8591552e-09
1.7702196e-12
2.8560539e-09
6.7890043e-12
2.8508545e-09
1.1385689e-11
2.8438737e-09
1.5288388e-11
2.8353701e-09
1.8624849e-11
2.825684e-09
2.1215632e-11
2.8151039e-09
2.3174486e-11
2.8038466e-09
2.4658532e-11
2.7921534e-09
2.5613698e-11
2.7802366e-09
2.6103965e-11
2.7682041e-09
2.6357724e-11
2.7561266e-09
2.645672e-11
2.7441095e-09
2.6324503e-11
2.732237e-09
2.6008028e-11
2.7205237e-09
2.5659538e-11
2.7089555e-09
2.5341989e-11
2.6975324e-09
2.5024255e-11
2.6862569e-09
2.4701053e-11
2.6751432e-09
2.4346698e-11
2.6639591e-09
2.4501324e-11
2.6528693e-09
2.4294995e-11
2.6407251e-09
2.6605644e-11
2.6285291e-09
2.6721416e-11
2.6151125e-09
2.9381733e-11
1.7489742e-11
2.3100928e-06
1.1284905e-10
2.3100342e-06
2.6476325e-10
2.3099613e-06
3.2948654e-10
2.3098789e-06
3.7249117e-10
2.3097841e-06
4.285631e-10
2.3096749e-06
4.9338718e-10
2.3095496e-06
5.664786e-10
2.3094056e-06
6.5092448e-10
2.3092397e-06
7.503194e-10
2.3090477e-06
8.6852703e-10
2.3088243e-06
1.0104378e-09
2.3085628e-06
1.183226e-09
2.3082542e-06
1.3965558e-09
2.3078858e-06
1.6675978e-09
2.3074409e-06
2.0146554e-09
2.3068901e-06
2.4945894e-09
2.3062018e-06
3.1182398e-09
2.3052794e-06
4.1805351e-09
2.3040936e-06
5.3761247e-09
2.3021623e-06
8.7604454e-09
2.2997247e-06
1.1059488e-08
2.2937579e-06
2.708542e-08
2.2918188e-06
8.723903e-09
1.181477e-06
5.1783254e-06
4.755573e-08
5.2458415e-06
2.3096269e-08
6.345575e-08
1.7470642e-08
1.4523641e-08
1.4754216e-08
7.0120605e-09
1.3076927e-08
4.3293199e-09
1.1887341e-08
3.0704719e-09
1.0979213e-08
2.3440113e-09
1.0250599e-08
1.8806849e-09
9.6484974e-09
1.5541358e-09
9.1393624e-09
1.3141758e-09
8.7004621e-09
1.1328919e-09
8.3164499e-09
9.9121817e-10
7.9764456e-09
8.7762615e-10
7.6723986e-09
7.8481402e-10
7.3981772e-09
7.0782817e-10
7.1490545e-09
6.4304278e-10
6.9212081e-09
5.8812503e-10
6.711654e-09
5.4090901e-10
6.5180122e-09
4.9983475e-10
6.3382207e-09
4.6408446e-10
6.1706274e-09
4.3259802e-10
6.0138307e-09
4.0472966e-10
5.8666428e-09
3.7992684e-10
5.7280514e-09
3.5773743e-10
5.59719e-09
3.3778439e-10
5.4733113e-09
3.1976016e-10
5.3557619e-09
3.0342295e-10
5.2439696e-09
2.8856227e-10
5.1374334e-09
2.7499517e-10
5.0357112e-09
2.6256901e-10
4.9384139e-09
2.5114715e-10
4.8451961e-09
2.4061697e-10
4.755747e-09
2.3088915e-10
4.6697881e-09
2.2188004e-10
4.5870703e-09
2.1351377e-10
4.5073694e-09
2.0572654e-10
4.4304838e-09
1.9845953e-10
4.3562344e-09
1.9165513e-10
4.2844603e-09
1.852654e-10
4.2150138e-09
1.7925739e-10
4.1477596e-09
1.7359861e-10
4.082577e-09
1.6825122e-10
4.0193593e-09
1.6317931e-10
3.9580115e-09
1.5835287e-10
3.898449e-09
1.5374447e-10
3.8406001e-09
1.493213e-10
3.7844059e-09
1.4505011e-10
3.7298194e-09
1.4090039e-10
3.6768051e-09
1.3684241e-10
3.6253383e-09
1.3284785e-10
3.5754058e-09
1.2888764e-10
3.5270066e-09
1.2493039e-10
3.4801571e-09
1.2093029e-10
3.434905e-09
1.1680754e-10
3.391329e-09
1.1248146e-10
3.3495297e-09
1.07896e-10
3.3096335e-09
1.0298436e-10
3.2717923e-09
9.7680876e-11
3.2361836e-09
9.1919189e-11
3.2030458e-09
8.5543068e-11
3.1726845e-09
7.837793e-11
3.1454769e-09
7.0239998e-11
3.1221407e-09
6.0250159e-11
3.1025821e-09
5.0503224e-11
3.0891963e-09
3.4572672e-11
3.0826019e-09
1.7047448e-11
3.0825707e-09
1.1361994e-13
3.091581e-09
-2.3219909e-11
3.1104343e-09
-4.8620413e-11
3.1405814e-09
-7.7766517e-11
3.1831871e-09
-1.0992057e-10
3.2385258e-09
-1.427845e-10
3.3060813e-09
-1.743182e-10
3.3854762e-09
-2.0488236e-10
3.4747017e-09
-2.3026999e-10
3.5677314e-09
-2.4010833e-10
3.6572955e-09
-2.3118149e-10
3.7353191e-09
-2.0141183e-10
3.7985784e-09
-1.6331399e-10
3.8482203e-09
-1.2816595e-10
3.8850564e-09
-9.511118e-11
3.9121569e-09
-6.9978953e-11
3.9317991e-09
-5.072391e-11
3.945692e-09
-3.5881461e-11
3.9549788e-09
-2.3989683e-11
3.96036e-09
-1.3906785e-11
3.9623698e-09
-5.2029663e-12
3.9612412e-09
2.8988811e-12
3.9569388e-09
1.1091427e-11
3.9497297e-09
1.8594793e-11
3.940053e-09
2.496507e-11
3.9282669e-09
3.0410934e-11
3.9148429e-09
3.4639585e-11
3.9001808e-09
3.783662e-11
3.8845809e-09
4.0258474e-11
3.8683775e-09
4.181705e-11
3.8518647e-09
4.2616803e-11
3.8351919e-09
4.3030453e-11
3.8184572e-09
4.3191469e-11
3.8018065e-09
4.2975156e-11
3.7853564e-09
4.2458153e-11
3.7691271e-09
4.1888882e-11
3.7530989e-09
4.1370115e-11
3.7372721e-09
4.0851073e-11
3.72165e-09
4.0323155e-11
3.7062523e-09
3.9744432e-11
3.6907573e-09
3.9996281e-11
3.6753931e-09
3.9659198e-11
3.6585692e-09
4.3429547e-11
3.6416739e-09
4.3616721e-11
3.6230838e-09
4.797185e-11
2.8536953e-11
2.4685042e-06
1.3977157e-10
2.468441e-06
3.2801614e-10
2.4683622e-06
4.0828347e-10
2.4682731e-06
4.615843e-10
2.4681706e-06
5.3106e-10
2.4680526e-06
6.1137182e-10
2.4679172e-06
7.0191512e-10
2.4677616e-06
8.065129e-10
2.4675823e-06
9.2961673e-10
2.4673748e-06
1.0760096e-09
2.4671335e-06
1.2517443e-09
2.466851e-06
1.4657004e-09
2.4665178e-06
1.7298381e-09
2.4661199e-06
2.0654093e-09
2.4656395e-06
2.4950585e-09
2.465045e-06
3.0891658e-09
2.4643021e-06
3.8610873e-09
2.4633068e-06
5.1758807e-09
2.4620276e-06
6.6553281e-09
2.4599449e-06
1.084312e-08
2.4573164e-06
1.3687957e-08
2.450885e-06
3.3516854e-08
2.4487829e-06
1.0825971e-08
1.271406e-06
6.3557023e-06
6.3475243e-08
6.4537723e-06
3.0902509e-08
9.6028484e-08
2.3376422e-08
2.2049728e-08
1.974191e-08
1.0646573e-08
1.7497542e-08
6.5736871e-09
1.5905761e-08
4.6622532e-09
1.4690605e-08
3.5591678e-09
1.3715667e-08
2.8556225e-09
1.2910014e-08
2.3597891e-09
1.2228757e-08
1.9954322e-09
1.1641482e-08
1.7201669e-09
1.1127653e-08
1.505048e-09
1.0672709e-08
1.3325698e-09
1.0265878e-08
1.1916445e-09
9.8989565e-09
1.07475e-09
9.5656179e-09
9.7638139e-10
9.2607488e-09
8.9299414e-10
8.9803559e-09
8.2130193e-10
8.721254e-09
7.589367e-10
8.4806845e-09
7.0465391e-10
8.2564369e-09
6.5684565e-10
8.0466355e-09
6.1453104e-10
7.8496913e-09
5.7687109e-10
7.6642494e-09
5.4317928e-10
7.4891507e-09
5.1288314e-10
7.3233952e-09
4.8551567e-10
7.1661084e-09
4.6070973e-10
7.016525e-09
4.381457e-10
6.8739743e-09
4.175458e-10
6.7378651e-09
3.9867828e-10
6.6076765e-09
3.8133568e-10
6.4829465e-09
3.6534698e-10
6.3632591e-09
3.5057655e-10
6.2482418e-09
3.3689739e-10
6.1375613e-09
3.2419429e-10
6.0309174e-09
3.1237039e-10
5.9280406e-09
3.0133637e-10
5.8286909e-09
2.9100477e-10
5.7326535e-09
2.8130281e-10
5.6397305e-09
2.7218042e-10
5.5497408e-09
2.6358829e-10
5.4625231e-09
2.5546895e-10
5.3779345e-09
2.4776788e-10
5.2958478e-09
2.4043952e-10
5.2161501e-09
2.3344221e-10
5.1387453e-09
2.2672613e-10
5.0635546e-09
2.2024079e-10
4.9905151e-09
2.1393988e-10
4.9195793e-09
2.0777821e-10
4.8507143e-09
2.0171282e-10
4.7839025e-09
1.9569953e-10
4.7191422e-09
1.8969066e-10
4.6564558e-09
1.8361664e-10
4.5959071e-09
1.7735632e-10
4.5376013e-09
1.7078718e-10
4.4816733e-09
1.6382407e-10
4.4282921e-09
1.5636556e-10
4.377661e-09
1.4831189e-10
4.3300181e-09
1.3956218e-10
4.285682e-09
1.2987914e-10
4.2450623e-09
1.1899761e-10
4.2086639e-09
1.066384e-10
4.1774473e-09
9.1466806e-11
4.1512878e-09
7.6662711e-11
4.1333894e-09
5.2471027e-11
4.1245818e-09
2.5855063e-11
4.1245603e-09
1.3512935e-13
4.1366401e-09
-3.5299708e-11
4.1618945e-09
-7.38748e-11
4.2022644e-09
-1.181365e-10
4.2593083e-09
-1.669644e-10
4.3333919e-09
-2.1686809e-10
4.4238232e-09
-2.6474958e-10
4.5300946e-09
-3.1115374e-10
4.6495138e-09
-3.4968914e-10
4.7740116e-09
-3.6460615e-10
4.8938604e-09
-3.5103031e-10
4.9982537e-09
-3.0580517e-10
5.0828824e-09
-2.479426e-10
5.1492883e-09
-1.9457187e-10
5.198558e-09
-1.4438093e-10
5.2348025e-09
-1.0622339e-10
5.2610689e-09
-7.6990367e-11
5.2796444e-09
-5.4456918e-11
5.2920578e-09
-3.6403083e-11
5.2992467e-09
-2.1095733e-11
5.3019255e-09
-7.8817046e-12
5.3004053e-09
4.4190393e-12
5.2946387e-09
1.6857994e-11
5.2849833e-09
2.8250229e-11
5.2720267e-09
3.7921643e-11
5.2562483e-09
4.6189334e-11
5.238279e-09
5.260889e-11
5.2186537e-09
5.7461989e-11
5.1977742e-09
6.1137927e-11
5.1760881e-09
6.3503191e-11
5.1539885e-09
6.4716422e-11
5.1316755e-09
6.5343392e-11
5.1092802e-09
6.5586783e-11
5.0869979e-09
6.5257428e-11
5.0649844e-09
6.4471677e-11
5.0432667e-09
6.3606583e-11
5.0218186e-09
6.2818172e-11
5.0006403e-09
6.2029402e-11
4.9797362e-09
6.1227232e-11
4.9591326e-09
6.034803e-11
4.9383995e-09
6.0729432e-11
4.9178414e-09
6.0217256e-11
4.8953318e-09
6.5939133e-11
4.872727e-09
6.6221522e-11
4.847851e-09
7.2847936e-11
4.3316455e-11
2.663702e-06
1.691665e-10
2.6636329e-06
3.9712173e-10
2.6635468e-06
4.9441215e-10
2.6634494e-06
5.5897317e-10
2.6633373e-06
6.4309688e-10
2.6632084e-06
7.4033023e-10
2.6630603e-06
8.499357e-10
2.6628903e-06
9.7653944e-10
2.6626944e-06
1.1255284e-09
2.6624677e-06
1.3026882e-09
2.6622041e-06
1.5153386e-09
2.6618956e-06
1.7742184e-09
2.6615317e-06
2.0937894e-09
2.6610973e-06
2.499753e-09
2.6605729e-06
3.0194807e-09
2.659924e-06
3.7380917e-09
2.6591134e-06
4.6716557e-09
2.6580276e-06
6.2616876e-09
2.6566325e-06
8.0504044e-09
2.6543621e-06
1.3113561e-08
2.651497e-06
1.6553035e-08
2.6444896e-06
4.0524281e-08
2.6421847e-06
1.3130805e-08
1.3821915e-06
7.6156955e-06
8.3091081e-08
7.7528727e-06
4.0556925e-08
1.3856264e-07
3.0680875e-08
3.1925777e-08
2.5910934e-08
1.5416514e-08
2.2965144e-08
9.5194766e-09
2.0875883e-08
6.7515145e-09
1.9280962e-08
5.1540885e-09
1.8001352e-08
4.1352324e-09
1.6943931e-08
3.4172107e-09
1.6049783e-08
2.8895805e-09
1.5278988e-08
2.490961e-09
1.4604593e-08
2.1794436e-09
1.4007486e-08
1.9296768e-09
1.3473528e-08
1.7256028e-09
1.2991949e-08
1.5563283e-09
1.2554448e-08
1.4138825e-09
1.2154314e-08
1.2931286e-09
1.1786304e-08
1.1893115e-09
1.1446238e-08
1.099003e-09
1.1130495e-08
1.0203963e-09
1.0836175e-08
9.5116607e-10
1.0560815e-08
8.8989109e-10
1.030233e-08
8.3535645e-10
1.0058941e-08
7.8656801e-10
9.8291272e-09
7.426968e-10
9.6115762e-09
7.0306659e-10
9.4051403e-09
6.6714566e-10
9.2088148e-09
6.3447119e-10
9.0217197e-09
6.0464093e-10
8.8430787e-09
5.773193e-10
8.6722085e-09
5.5220588e-10
8.5085024e-09
5.2905303e-10
8.3514146e-09
5.0766432e-10
8.2004562e-09
4.8785583e-10
8.0551897e-09
4.6946077e-10
7.9152213e-09
4.5233884e-10
7.7801969e-09
4.3636072e-10
7.6498019e-09
4.2139976e-10
7.5237542e-09
4.0735056e-10
7.401794e-09
3.9414064e-10
7.2836837e-09
3.8169855e-10
7.1692116e-09
3.6994108e-10
7.0581902e-09
3.5878927e-10
6.9504525e-09
3.4817716e-10
6.8458503e-09
3.3804441e-10
6.7442576e-09
3.2831887e-10
6.6455709e-09
3.1892745e-10
6.5497078e-09
3.0980304e-10
6.4566058e-09
3.0088023e-10
6.3662218e-09
2.9209676e-10
6.2785327e-09
2.8338865e-10
6.1935365e-09
2.7468684e-10
6.1112626e-09
2.6589053e-10
6.0317946e-09
2.5682431e-10
5.9552711e-09
2.4731076e-10
5.8818686e-09
2.3722648e-10
5.8118096e-09
2.2642457e-10
5.745361e-09
2.1476051e-10
5.6828352e-09
2.02088e-10
5.624651e-09
1.8806331e-10
5.5713463e-09
1.7230233e-10
5.5235842e-09
1.5440055e-10
5.4826257e-09
1.3242528e-10
5.4483081e-09
1.1098025e-10
5.4248359e-09
7.5943227e-11
5.4133005e-09
3.7390534e-11
5.4133032e-09
1.3244685e-13
5.4291937e-09
-5.1190266e-11
5.4623822e-09
-1.0706334e-10
5.515416e-09
-1.711703e-10
5.5903397e-09
-2.4188805e-10
5.6876318e-09
-3.1416022e-10
5.806382e-09
-3.8349978e-10
5.94592e-09
-4.5069172e-10
6.1027053e-09
-5.0647441e-10
6.2661389e-09
-5.2803982e-10
6.4234525e-09
-5.0834392e-10
6.5604592e-09
-4.4281182e-10
6.6715097e-09
-3.5899314e-10
6.7586398e-09
-2.8170196e-10
6.8232764e-09
-2.0901755e-10
6.8708194e-09
-1.537663e-10
6.905269e-09
-1.1143998e-10
6.9296268e-09
-7.8814731e-11
6.9458991e-09
-5.2675385e-11
6.9553164e-09
-3.0513026e-11
6.9588156e-09
-1.138092e-11
6.9568047e-09
6.4299414e-12
6.9492209e-09
2.4441845e-11
6.9365336e-09
4.0937483e-11
6.9195146e-09
5.4940628e-11
6.8987931e-09
6.6910889e-11
6.875197e-09
7.6204955e-11
6.8494284e-09
8.3230538e-11
6.8220151e-09
8.8551274e-11
6.7935441e-09
9.1974194e-11
6.7645314e-09
9.3729108e-11
6.7352397e-09
9.4635079e-11
6.7058409e-09
9.4985641e-11
6.6765912e-09
9.4507101e-11
6.6476949e-09
9.3367938e-11
6.6191876e-09
9.2113943e-11
6.5910347e-09
9.0971002e-11
6.5632365e-09
8.9827651e-11
6.5357987e-09
8.8665016e-11
6.5087557e-09
8.7391027e-11
6.4815435e-09
8.7941673e-11
6.4545612e-09
8.719949e-11
6.42502e-09
9.5480329e-11
6.3953541e-09
9.5887458e-11
6.3627035e-09
1.0549851e-10
6.2713056e-11
2.8985949e-06
2.0157659e-10
2.8985186e-06
4.7337088e-10
2.8984235e-06
5.8949538e-10
2.898316e-06
6.6649488e-10
2.8981923e-06
7.6678584e-10
2.89805e-06
8.8269095e-10
2.8978866e-06
1.0133237e-09
2.8976989e-06
1.1641953e-09
2.8974827e-06
1.3417237e-09
2.8972326e-06
1.5527985e-09
2.8969418e-06
1.8061341e-09
2.8966015e-06
2.1145151e-09
2.8962001e-06
2.4951562e-09
2.8957212e-06
2.9786557e-09
2.8951431e-06
3.5975818e-09
2.894428e-06
4.4532772e-09
2.8935349e-06
5.564763e-09
2.8923388e-06
7.457714e-09
2.8908026e-06
9.5866155e-09
2.8883036e-06
1.5612589e-08
2.8851505e-06
1.9706124e-08
2.8774424e-06
4.82324e-08
2.8748892e-06
1.5683951e-08
1.5160664e-06
8.9745183e-06
1.0753996e-07
9.1613992e-06
5.2636864e-08
1.9346574e-07
3.9821041e-08
4.47416e-08
3.363044e-08
2.1607116e-08
2.9806895e-08
1.3343021e-08
2.7095087e-08
9.4633223e-09
2.5024933e-08
7.2242425e-09
2.3364067e-08
5.7960983e-09
2.1991592e-08
4.7896853e-09
2.083104e-08
4.0501327e-09
1.98306e-08
3.4914016e-09
1.8955281e-08
3.054762e-09
1.818028e-08
2.7046783e-09
1.7487242e-08
2.4186408e-09
1.686219e-08
2.1813803e-09
1.6294346e-08
1.9817258e-09
1.5775003e-08
1.8124715e-09
1.5297357e-08
1.6669583e-09
1.4855977e-08
1.5403827e-09
1.4446168e-08
1.4302051e-09
1.4064163e-08
1.3331709e-09
1.3706768e-08
1.2472869e-09
1.3371274e-08
1.1708503e-09
1.3055374e-08
1.1024677e-09
1.2757094e-08
1.0409772e-09
1.2474729e-08
9.8543095e-10
1.2206791e-08
9.3508371e-10
1.1951976e-08
8.8928675e-10
1.170914e-08
8.4747629e-10
1.1477278e-08
8.0918194e-10
1.1255501e-08
7.7398268e-10
1.1043023e-08
7.4153138e-10
1.0839134e-08
7.115527e-10
1.0643201e-08
6.8378889e-10
1.0454656e-08
6.5800614e-10
1.0272987e-08
6.340078e-10
1.0097735e-08
6.1161264e-10
9.9284915e-09
5.9064316e-10
9.7648904e-09
5.7095163e-10
9.6065946e-09
5.5243641e-10
9.4532958e-09
5.3499738e-10
9.304719e-09
5.1851788e-10
9.160621e-09
5.0288727e-10
9.0207851e-09
4.8801306e-10
8.8850188e-09
4.7381069e-10
8.7531587e-09
4.6017904e-10
8.6250705e-09
4.4701563e-10
8.5006471e-09
4.342264e-10
8.3798077e-09
4.2171967e-10
8.2624963e-09
4.0940813e-10
8.1486829e-09
3.972021e-10
8.038365e-09
3.8500468e-10
7.9315809e-09
3.7267461e-10
7.8284393e-09
3.59966e-10
7.7291199e-09
3.4663016e-10
7.6338523e-09
3.3249402e-10
7.5429253e-09
3.1735163e-10
7.4566855e-09
3.0100031e-10
7.3755387e-09
2.8323472e-10
7.3000292e-09
2.6357286e-10
7.2308554e-09
2.4147614e-10
7.1688787e-09
2.1637726e-10
7.1157366e-09
1.855673e-10
7.0712191e-09
1.5549779e-10
7.0407822e-09
1.0638013e-10
7.0258462e-09
5.2326528e-11
7.0258954e-09
8.3192986e-14
7.0465737e-09
-7.1868567e-11
7.0897134e-09
-1.5020295e-10