/*--------------------------------*- C++ -*----------------------------------*\
| =========                 |                                                 |
| \\      /  F ield         | OpenFOAM: The Open Source CFD Toolbox           |
|  \\    /   O peration     | Version:  2206                                  |
|   \\  /    A nd           | Website:  www.openfoam.com                      |
|    \\/     M anipulation  |                                                 |
\*---------------------------------------------------------------------------*/
FoamFile
{
    version     2.0;
    format      ascii;
    arch        "LSB;label=32;scalar=64";
    class       volVectorField;
    location    "400";
    object      U;
}
// * * * * * * * * * * * * * * * * * * * * * * * * * * * * * * * * * * * * * //

dimensions      [0 1 -1 0 0 0 0];

internalField   nonuniform List<vector> 
13056
(
(1 2.6069128e-10 5.0232101e-25)
(0.99998035 6.9336756e-10 0)
(0.99995159 9.7853603e-10 0)
(0.99991964 1.2549689e-09 0)
(0.99988302 1.6376343e-09 0)
(0.99984075 2.1374667e-09 0)
(0.99979218 2.7808252e-09 0)
(0.99973643 3.6182033e-09 0)
(0.99967229 4.7182309e-09 0)
(0.99959822 6.1711886e-09 0)
(0.99951227 8.0999758e-09 0)
(0.99941202 1.0680316e-08 0)
(0.99929419 1.4159351e-08 0)
(0.99915455 1.8931734e-08 0)
(0.99898669 2.5510399e-08 0)
(0.9987829 3.5060946e-08 0)
(0.99852655 4.835584e-08 0)
(0.99820702 7.1012512e-08 0)
(0.99775564 9.9163961e-08 0)
(0.99721114 1.736957e-07 0)
(0.99614277 2.3283473e-07 0)
(0.99515013 5.9766355e-07 0)
(0.99115453 1.9779858e-07 -5.3041911e-21)
(0.99346457 0.00012369804 8.9086138e-18)
(0.0031536178 0.00012416979 0)
(0.0012356201 7.4892237e-08 -1.2503503e-20)
(0.0008784307 4.8410201e-08 4.1389959e-18)
(0.00072090237 6.1374684e-09 0)
(0.000629875 3.7569188e-09 0)
(0.00056743407 2.6402469e-09 0)
(0.00052101386 1.997164e-09 0)
(0.00048431797 1.5872587e-09 0)
(0.00045431978 1.2988639e-09 0)
(0.00042920114 1.0873427e-09 0)
(0.00040771072 9.2773428e-10 0)
(0.00038901969 8.0316364e-10 0)
(0.00037255288 7.0342367e-10 0)
(0.00035789 6.220543e-10 0)
(0.00034471463 5.5466415e-10 0)
(0.00033278202 4.9803246e-10 0)
(0.00032190441 4.500721e-10 0)
(0.00031191938 4.0888407e-10 3.6479758e-25)
(0.00030271645 3.7310798e-10 0)
(0.00029418834 3.4199133e-10 0)
(0.00028625341 3.1461426e-10 0)
(0.00027884213 2.9040394e-10 0)
(0.0002718957 2.6887252e-10 0)
(0.00026536418 2.4962231e-10 0)
(0.00025920483 2.3232333e-10 0)
(0.00025338109 2.1670626e-10 0)
(0.00024786109 2.0255702e-10 0)
(0.00024261686 1.8969055e-10 0)
(0.00023762401 1.7794747e-10 0)
(0.00023286103 1.6719447e-10 0)
(0.00022830897 1.5731373e-10 0)
(0.00022395117 1.482076e-10 0)
(0.00021977265 1.3979678e-10 0)
(0.00021575993 1.3200848e-10 0)
(0.000211901 1.2477776e-10 0)
(0.00020818506 1.1804946e-10 0)
(0.00020460237 1.1177369e-10 0)
(0.00020114423 1.0590344e-10 0)
(0.00019780292 1.0039932e-10 0)
(0.00019457145 9.5231746e-11 0)
(0.00019144328 9.0372571e-11 0)
(0.00018841255 8.5792231e-11 0)
(0.00018547408 8.1463601e-11 0)
(0.00018262328 7.7363887e-11 0)
(0.00017985603 7.3472761e-11 0)
(0.00017716872 6.9768336e-11 0)
(0.00017455839 6.6229845e-11 0)
(0.00017202261 6.2839278e-11 0)
(0.00016955951 5.9580174e-11 0)
(0.00016716771 5.6437801e-11 0)
(0.00016484634 5.3398188e-11 0)
(0.00016259505 5.0447503e-11 0)
(0.00016041409 4.7567565e-11 0)
(0.00015830475 4.4728734e-11 0)
(0.0001562701 4.1904396e-11 0)
(0.0001543143 3.9080401e-11 0)
(0.00015244241 3.6240249e-11 0)
(0.00015066095 3.337061e-11 0)
(0.00014897731 3.046066e-11 0)
(0.00014740037 2.747165e-11 0)
(0.00014594309 2.4365886e-11 0)
(0.00014462053 2.1111065e-11 0)
(0.00014345219 1.7461761e-11 0)
(0.00014248474 1.4109614e-11 0)
(0.00014166091 3.5439068e-11 -3.0570007e-21)
(0.00014126374 4.176704e-12 0)
(0.00014105748 -3.2541824e-13 0)
(0.00014126461 -6.2360116e-12 0)
(0.00014188644 -1.2139194e-11 0)
(0.0001429961 -1.8453025e-11 0)
(0.00014465334 -2.4916668e-11 0)
(0.00014690511 -3.095563e-11 0)
(0.00014972844 -3.6139477e-11 0)
(0.00015309926 -4.0603538e-11 0)
(0.00015700795 -4.3563248e-11 0)
(0.00016127734 -4.3244432e-11 0)
(0.00016552836 -3.9591536e-11 0)
(0.0001694758 -3.2635046e-11 0)
(0.00017266005 -9.4636713e-11 8.105583e-21)
(0.00017525986 -1.8554168e-11 0)
(0.00017719436 -1.2944991e-11 0)
(0.00017862445 -8.9606527e-12 0)
(0.00017966953 -6.092137e-12 0)
(0.0001804181 -4.0246764e-12 0)
(0.00018093786 -2.4907664e-12 0)
(0.00018126507 -1.3045805e-12 0)
(0.00018142746 -4.1757811e-13 0)
(0.00018144611 4.1723689e-13 0)
(0.00018132067 1.0578501e-12 0)
(0.00018105428 1.6553282e-12 0)
(0.00018066518 2.1834952e-12 0)
(0.00018016931 2.6342629e-12 0)
(0.00017958694 2.982312e-12 0)
(0.00017894097 3.2437579e-12 0)
(0.0001782451 3.4401903e-12 0)
(0.00017751313 3.5638588e-12 0)
(0.0001767619 3.6241434e-12 0)
(0.0001760015 3.652821e-12 0)
(0.00017523553 3.6607993e-12 0)
(0.00017446936 3.6373065e-12 0)
(0.00017371102 3.5891602e-12 0)
(0.00017296315 3.5375179e-12 0)
(0.00017222497 3.4905406e-12 0)
(0.00017149546 3.443934e-12 0)
(0.00017077566 3.3967665e-12 0)
(0.00017006485 3.345865e-12 0)
(0.00016936555 3.3647358e-12 0)
(0.00016864571 3.3359651e-12 0)
(0.0001679584 3.6476477e-12 0)
(0.00016710438 1.381482e-11 0)
(0.00016641078 3.9731504e-12 4.8176779e-24)
(0.0001654008 9.1202415e-12 0)
(1 7.8883149e-10 0)
(0.99998022 2.0993437e-09 0)
(0.99995124 2.9631716e-09 0)
(0.99991904 3.8003201e-09 0)
(0.99988215 4.9590655e-09 0)
(0.99983956 6.4725295e-09 0)
(0.99979062 8.4204656e-09 0)
(0.99973446 1.0955702e-08 0)
(0.99966984 1.428596e-08 0)
(0.99959522 1.8684461e-08 0)
(0.99950866 2.4523117e-08 0)
(0.99940768 3.2333668e-08 0)
(0.99928902 4.2863911e-08 0)
(0.9991484 5.7307964e-08 0)
(0.99897939 7.7217567e-08 0)
(0.99877421 1.0611936e-07 0)
(0.99851614 1.4634871e-07 0)
(0.99819453 2.1490165e-07 0)
(0.99774026 3.0006817e-07 0)
(0.99719238 5.2553548e-07 0)
(0.99611758 7.04439e-07 0)
(0.99511899 1.8080317e-06 0)
(0.99110043 5.9582136e-07 1.9692677e-20)
(0.99341773 0.00037177133 -7.8025823e-21)
(0.0094717967 0.00037368227 0)
(0.003725054 1.2242259e-06 0)
(0.0026483789 2.7277871e-07 3.4941145e-22)
(0.0021734945 1.2864995e-07 0)
(0.0018990415 7.8719063e-08 0)
(0.0017107785 5.5325006e-08 0)
(0.0015708179 4.1844833e-08 0)
(0.0014601795 3.3254852e-08 0)
(0.0013697352 2.7211777e-08 0)
(0.0012940027 2.2779164e-08 0)
(0.0012292096 1.9434589e-08 0)
(0.0011728569 1.6824406e-08 0)
(0.0011232103 1.4734788e-08 0)
(0.0010790025 1.3029997e-08 0)
(0.0010392796 1.1617881e-08 0)
(0.0010033036 1.0431256e-08 0)
(0.00097050828 9.4263206e-09 -1.7894916e-24)
(0.00094040428 8.5633938e-09 -5.5040511e-25)
(0.00091265811 7.8138951e-09 0)
(0.00088694653 7.1619498e-09 0)
(0.00086302335 6.5884102e-09 0)
(0.00084067891 6.0812216e-09 0)
(0.00081973599 5.63017e-09 0)
(0.00080004401 5.2269199e-09 0)
(0.00078147408 4.8645556e-09 0)
(0.00076391596 4.5374333e-09 0)
(0.00074727364 4.2410641e-09 0)
(0.00073146271 3.9715728e-09 0)
(0.00071640968 3.7256184e-09 0)
(0.00070204972 3.5004074e-09 0)
(0.00068832564 3.2934738e-09 0)
(0.00067518724 3.1027698e-09 0)
(0.00066258935 2.9266323e-09 0)
(0.00065049132 2.7635382e-09 0)
(0.00063885696 2.6121264e-09 0)
(0.00062765371 2.4712416e-09 0)
(0.0006168522 2.3398389e-09 0)
(0.00060642617 2.2169344e-09 0)
(0.0005963524 2.1017019e-09 0)
(0.00058660977 1.9935216e-09 0)
(0.00057717858 1.8918049e-09 0)
(0.00056804118 1.7959325e-09 0)
(0.00055918192 1.7053366e-09 0)
(0.00055058699 1.6195403e-09 0)
(0.00054224394 1.5381178e-09 0)
(0.00053414192 1.4606128e-09 0)
(0.00052627198 1.3865935e-09 0)
(0.00051862681 1.3156818e-09 0)
(0.00051120075 1.2475323e-09 0)
(0.00050398966 1.1818376e-09 0)
(0.00049699091 1.1183074e-09 0)
(0.00049020347 1.0566561e-09 0)
(0.00048362806 9.9650531e-10 0)
(0.00047726858 9.3724146e-10 0)
(0.00047113432 8.7831131e-10 0)
(0.00046523778 8.1941625e-10 0)
(0.00045959424 7.6022184e-10 0)
(0.00045422338 7.0045495e-10 0)
(0.00044914747 6.3988947e-10 0)
(0.0004443933 5.7774104e-10 0)
(0.00043999997 5.1322665e-10 0)
(0.00043601286 4.4564077e-10 0)
(0.00043249084 3.7014927e-10 0)
(0.00042957456 3.0024027e-10 0)
(0.00042709169 2.0178752e-10 2.2442937e-24)
(0.00042589467 9.5033019e-11 1.1100696e-24)
(0.00042527403 1.2308411e-12 0)
(0.00042589957 -1.1894565e-10 0)
(0.00042777565 -2.4059852e-10 0)
(0.00043112263 -3.70725e-10 0)
(0.00043612061 -5.0407201e-10 0)
(0.00044291101 -6.2911501e-10 0)
(0.00045142456 -7.371004e-10 0)
(0.00046158863 -8.3050989e-10 0)
(0.00047337383 -8.9383127e-10 0)
(0.00048624577 -8.9146922e-10 0)
(0.00049906169 -8.1992358e-10 0)
(0.00051096182 -6.8159112e-10 0)
(0.00052056116 -5.3430844e-10 -9.0260622e-25)
(0.0005283982 -3.9314486e-10 0)
(0.00053422973 -2.7717673e-10 0)
(0.00053854067 -1.9342348e-10 0)
(0.00054169096 -1.3275872e-10 0)
(0.00054394743 -8.8781998e-11 0)
(0.00054551409 -5.6031568e-11 0)
(0.00054650027 -3.0631997e-11 0)
(0.00054698958 -1.0820763e-11 0)
(0.00054704553 5.4252122e-12 0)
(0.00054666705 1.9867318e-11 0)
(0.00054586363 3.2548558e-11 0)
(0.00054469029 4.3744716e-11 0)
(0.00054319502 5.3317801e-11 0)
(0.00054143899 6.075266e-11 0)
(0.00053949125 6.63761e-11 0)
(0.00053739309 7.0638784e-11 0)
(0.00053518612 7.3384651e-11 0)
(0.00053292108 7.4796917e-11 0)
(0.00053062842 7.5530877e-11 0)
(0.000528319 7.5820869e-11 0)
(0.00052600898 7.5447148e-11 0)
(0.00052372258 7.4544243e-11 0)
(0.00052146777 7.3549258e-11 0)
(0.00051924218 7.2642712e-11 0)
(0.00051704276 7.173538e-11 0)
(0.00051487261 7.0811834e-11 0)
(0.00051272958 6.9798673e-11 0)
(0.00051062128 7.0245678e-11 0)
(0.00050845111 6.965791e-11 0)
(0.00050637895 7.6288411e-11 0)
(0.00050380461 7.7765144e-11 0)
(0.00050171346 8.4126557e-11 -7.4513706e-24)
(0.00049866846 5.1063821e-11 1.1493603e-24)
(1 1.3327339e-09 0)
(0.99998006 3.5472059e-09 0)
(0.99995085 5.0074546e-09 0)
(0.99991837 6.4222539e-09 0)
(0.99988117 8.3803665e-09 0)
(0.99983823 1.0937788e-08 0)
(0.99978888 1.4229191e-08 0)
(0.99973225 1.8512721e-08 0)
(0.99966711 2.4139244e-08 0)
(0.99959189 3.1570224e-08 0)
(0.99950462 4.1433761e-08 0)
(0.99940285 5.4627847e-08 0)
(0.99928325 7.2415256e-08 0)
(0.99914155 9.6812417e-08 0)
(0.99897125 1.3043924e-07 0)
(0.99876454 1.792507e-07 0)
(0.99850457 2.4718738e-07 0)
(0.99818063 3.6294799e-07 0)
(0.99772316 5.0674403e-07 0)
(0.99717152 8.874034e-07 0)
(0.99608959 1.1894517e-06 0)
(0.99508442 3.0525562e-06 0)
(0.99104044 1.0085084e-06 -1.0433258e-20)
(0.99336573 0.00062361423 6.8507994e-55)
(0.015893688 0.00062800475 -6.8498569e-55)
(0.006269763 3.4332256e-06 0)
(0.0044577856 7.7920423e-07 -1.8722562e-22)
(0.00365852 3.7349031e-07 0)
(0.0031965368 2.2854594e-07 0)
(0.0028796363 1.6062768e-07 0)
(0.0026440411 1.2148882e-07 0)
(0.0024578074 9.6548397e-08 0)
(0.0023055663 7.9003716e-08 0)
(0.002178089 6.613444e-08 0)
(0.0020690261 5.6423995e-08 0)
(0.0019741708 4.8845821e-08 0)
(0.0018906038 4.2779046e-08 0)
(0.0018161918 3.7829559e-08 0)
(0.0017493288 3.3729811e-08 0)
(0.0016887729 3.0284747e-08 0)
(0.0016335707 2.7367135e-08 0)
(0.001582899 2.4861828e-08 0)
(0.0015361958 2.2685871e-08 0)
(0.0014929174 2.0793104e-08 0)
(0.0014526493 1.9127977e-08 0)
(0.0014150385 1.7655483e-08 0)
(0.0013797868 1.6345969e-08 0)
(0.0013466408 1.5175232e-08 0)
(0.0013153834 1.4123198e-08 0)
(0.0012858292 1.3173481e-08 0)
(0.0012578164 1.2313046e-08 0)
(0.001231203 1.1530644e-08 0)
(0.0012058654 1.0816575e-08 0)
(0.0011816943 1.0162729e-08 0)
(0.0011585936 9.5619468e-09 0)
(0.0011364787 9.008283e-09 0)
(0.0011152736 8.4969086e-09 0)
(0.0010949099 8.0234022e-09 0)
(0.0010753267 7.5838119e-09 0)
(0.0010564691 7.1747839e-09 0)
(0.0010382877 6.7932842e-09 0)
(0.0010207383 6.436457e-09 0)
(0.0010037818 6.1019037e-09 0)
(0.00098738278 5.7878239e-09 0)
(0.00097150794 5.492509e-09 0)
(0.00095612761 5.2141608e-09 0)
(0.00094121545 4.9511311e-09 0)
(0.00092674821 4.7020354e-09 0)
(0.00091270496 4.4656368e-09 0)
(0.0008990674 4.240611e-09 0)
(0.0008858205 4.0257041e-09 0)
(0.00087295194 3.819818e-09 0)
(0.00086045219 3.6219499e-09 0)
(0.00084831429 3.4312073e-09 0)
(0.00083653381 3.2467467e-09 0)
(0.00082510902 3.0677386e-09 0)
(0.00081404115 2.8930835e-09 0)
(0.00080333675 2.7210002e-09 0)
(0.00079301148 2.5498823e-09 0)
(0.00078308637 2.3788615e-09 0)
(0.00077358716 2.2069666e-09 0)
(0.00076454697 2.0334035e-09 0)
(0.0007560033 1.857513e-09 0)
(0.00074800127 1.6770152e-09 0)
(0.00074060673 1.4896365e-09 0)
(0.00073389608 1.293327e-09 0)
(0.00072796847 1.074028e-09 0)
(0.00072306059 8.710016e-10 0)
(0.0007188828 5.7560202e-10 0)
(0.0007168689 2.7487306e-10 2.3531277e-24)
(0.00071582625 2.4645159e-12 0)
(0.00071688117 -3.4685423e-10 0)
(0.00072004143 -7.0027281e-10 0)
(0.00072567785 -1.0782975e-09 0)
(0.00073409352 -1.4656473e-09 0)
(0.00074552635 -1.8288067e-09 0)
(0.00075985965 -2.1423578e-09 0)
(0.00077697101 -2.4134865e-09 0)
(0.00079681045 -2.597054e-09 0)
(0.000818478 -2.5896154e-09 0)
(0.00084005006 -2.3813076e-09 0)
(0.00086007966 -1.9788683e-09 0)
(0.00087623595 -1.5260016e-09 0)
(0.00088942562 -1.1407934e-09 0)
(0.00089923977 -8.0397787e-10 0)
(0.00090649463 -5.6087529e-10 0)
(0.00091179605 -3.8483189e-10 0)
(0.00091559318 -2.5723873e-10 0)
(0.00091822928 -1.6222818e-10 0)
(0.00091988842 -8.8552817e-11 0)
(0.00092071131 -3.1183865e-11 0)
(0.00092080478 1.6139794e-11 0)
(0.00092016704 5.7944148e-11 0)
(0.00091881404 9.474275e-11 0)
(0.00091683839 1.2723243e-10 0)
(0.00091432093 1.5500932e-10 0)
(0.0009113646 1.7657804e-10 0)
(0.00090808561 1.9288709e-10 0)
(0.00090455348 2.0524439e-10 0)
(0.00090083827 2.1319827e-10 0)
(0.00089702536 2.1728156e-10 0)
(0.000893166 2.193966e-10 0)
(0.00088927847 2.2022351e-10 0)
(0.00088538999 2.1912486e-10 0)
(0.00088154129 2.1649177e-10 0)
(0.0008777458 2.1359263e-10 0)
(0.00087399951 2.1095122e-10 0)
(0.00087029732 2.0830823e-10 0)
(0.00086664441 2.0561932e-10 0)
(0.0008630372 2.0267095e-10 0)
(0.00085948844 2.039617e-10 0)
(0.00085583568 2.0224715e-10 0)
(0.00085234777 2.214907e-10 0)
(0.00084801519 2.2213937e-10 0)
(0.0008444953 2.4444826e-10 0)
(0.00083936987 1.4558411e-10 0)
(1 1.9013001e-09 1.0765272e-24)
(0.99997989 5.0614602e-09 0)
(0.99995041 7.1461374e-09 0)
(0.99991763 9.1653664e-09 0)
(0.99988008 1.1959712e-08 0)
(0.99983674 1.5609125e-08 0)
(0.99978694 2.0305632e-08 0)
(0.99972979 2.6417446e-08 0)
(0.99966405 3.4445025e-08 0)
(0.99958815 4.504652e-08 0)
(0.99950011 5.911767e-08 0)
(0.99939744 7.7939042e-08 0)
(0.99927681 1.0331126e-07 0)
(0.99913389 1.3810956e-07 0)
(0.99896215 1.8606903e-07 0)
(0.99875372 2.556805e-07 0)
(0.99849163 3.5255807e-07 0)
(0.9981651 5.1762126e-07 0)
(0.99770405 7.226299e-07 0)
(0.99714822 1.2652989e-06 0)
(0.99605835 1.6959012e-06 0)
(0.99504583 4.3517101e-06 0)
(0.9909736 1.4411886e-06 0)
(0.9933077 0.00088292634 -3.5741287e-55)
(0.022511888 0.00089101604 3.5736594e-55)
(0.0089076393 7.0823246e-06 0)
(0.0063336095 1.6064479e-06 0)
(0.0051981088 7.6930599e-07 0)
(0.0045416956 4.7077536e-07 0)
(0.0040914245 3.3087431e-07 0)
(0.0037566749 2.5025113e-07 0)
(0.0034920665 1.9887527e-07 0)
(0.0032757569 1.627357e-07 0)
(0.0030946326 1.3622664e-07 0)
(0.0029396729 1.1622423e-07 0)
(0.0028049003 1.0061417e-07 0)
(0.0026861665 8.8117473e-08 0)
(0.0025804406 7.7922282e-08 0)
(0.0024854406 6.9477444e-08 0)
(0.0023994019 6.2381205e-08 0)
(0.0023209698 5.6371352e-08 0)
(0.002248975 5.1210828e-08 0)
(0.0021826185 4.6728788e-08 0)
(0.002121128 4.2829995e-08 0)
(0.0020639146 3.9400129e-08 0)
(0.0020104769 3.6367054e-08 0)
(0.0019603909 3.3669689e-08 0)
(0.0019132967 3.1258183e-08 0)
(0.0018688859 2.9091183e-08 0)
(0.0018268949 2.713494e-08 0)
(0.001787094 2.5362602e-08 0)
(0.0017492815 2.3750998e-08 0)
(0.0017132815 2.2280148e-08 0)
(0.001678939 2.0933345e-08 0)
(0.0016461172 1.9695845e-08 0)
(0.0016146961 1.8555401e-08 0)
(0.0015845676 1.7502065e-08 0)
(0.0015556346 1.652673e-08 0)
(0.0015278105 1.5621256e-08 0)
(0.0015010173 1.4778734e-08 0)
(0.001475185 1.3992916e-08 0)
(0.0014502506 1.3257919e-08 0)
(0.0014261587 1.2568802e-08 0)
(0.0014028587 1.1921857e-08 0)
(0.0013803035 1.1313564e-08 0)
(0.0013584509 1.0740219e-08 0)
(0.0013372634 1.0198426e-08 0)
(0.0013167082 9.6853355e-09 0)
(0.0012967553 9.1983977e-09 0)
(0.0012773789 8.7348859e-09 0)
(0.0012585575 8.2922169e-09 0)
(0.0012402737 7.8681287e-09 0)
(0.0012225139 7.4605557e-09 0)
(0.0012052682 7.067659e-09 0)
(0.0011885304 6.6877013e-09 0)
(0.0011722979 6.3189734e-09 0)
(0.0011565726 5.9592104e-09 0)
(0.0011413638 5.6047439e-09 0)
(0.0011266937 5.2522654e-09 0)
(0.0011125922 4.8999848e-09 0)
(0.0010990958 4.5459019e-09 0)
(0.0010862518 4.1883809e-09 0)
(0.0010741133 3.8260606e-09 0)
(0.0010627445 3.4542446e-09 0)
(0.001052239 3.0682495e-09 0)
(0.0010427054 2.6638484e-09 0)
(0.0010342847 2.212096e-09 0)
(0.0010273131 1.7938317e-09 0)
(0.0010213795 1.1865413e-09 -1.2951066e-24)
(0.0010185201 5.6584031e-10 -1.2812089e-24)
(0.0010170421 4.6391265e-12 0)
(0.0010185445 -7.1490594e-10 0)
(0.001023039 -1.4429289e-09 0)
(0.0010310522 -2.2216085e-09 0)
(0.0010430148 -3.0194719e-09 0)
(0.0010592645 -3.7674822e-09 0)
(0.0010796355 -4.4133004e-09 0)
(0.0011039534 -4.9716671e-09 0)
(0.0011321465 -5.3495925e-09 0)
(0.0011629353 -5.3340792e-09 0)
(0.0011935862 -4.904871e-09 0)
(0.0012220438 -4.0758574e-09 0)
(0.0012449962 -3.1462017e-09 1.0414504e-24)
(0.0012637333 -2.3496138e-09 0)
(0.0012776742 -1.6558886e-09 0)
(0.0012879792 -1.1551779e-09 0)
(0.001295509 -7.9259148e-10 0)
(0.0013009019 -5.2979178e-10 0)
(0.0013046453 -3.34099e-10 0)
(0.0013070009 -1.8235246e-10 0)
(0.0013081685 -6.4177511e-11 0)
(0.0013082998 3.3272588e-11 0)
(0.0013073923 1.1939124e-10 0)
(0.0013054685 1.9518826e-10 0)
(0.0013026602 2.6210882e-10 0)
(0.0012990821 3.1932087e-10 0)
(0.0012948806 3.6374672e-10 0)
(0.0012902207 3.9733717e-10 0)
(0.0012852013 4.2278704e-10 0)
(0.0012799218 4.3916782e-10 0)
(0.0012745037 4.4757665e-10 0)
(0.0012690196 4.5193046e-10 0)
(0.0012634957 4.5363069e-10 0)
(0.0012579704 4.5136571e-10 0)
(0.0012525018 4.4594082e-10 0)
(0.0012471088 4.3996719e-10 0)
(0.0012417857 4.3452421e-10 0)
(0.0012365254 4.2907796e-10 0)
(0.0012313352 4.2353765e-10 0)
(0.0012262099 4.1746296e-10 0)
(0.0012211678 4.2011748e-10 0)
(0.001215978 4.1658147e-10 0)
(0.0012110223 4.5621031e-10 0)
(0.0012048674 4.5796355e-10 0)
(0.0011998663 5.0372365e-10 0)
(0.001192584 2.9984677e-10 0)
(1 2.5038349e-09 0)
(0.9999797 6.6669744e-09 0)
(0.99994991 9.4144875e-09 0)
(0.9999168 1.2074917e-08 0)
(0.99987886 1.575614e-08 0)
(0.99983506 2.0563553e-08 0)
(0.99978475 2.6749895e-08 0)
(0.99972702 3.4799984e-08 0)
(0.99966061 4.5372761e-08 0)
(0.99958395 5.9334697e-08 0)
(0.99949504 7.7864955e-08 0)
(0.99939136 1.026492e-07 0)
(0.99926956 1.3605747e-07 0)
(0.99912528 1.8187417e-07 0)
(0.99895192 2.4501448e-07 0)
(0.99874156 3.3665353e-07 0)
(0.99847709 4.6417369e-07 0)
(0.99814766 6.8143044e-07 0)
(0.9976826 9.5121965e-07 0)
(0.99712208 1.6653177e-06 0)
(0.99602332 2.2319458e-06 0)
(0.99500258 5.726369e-06 0)
(0.99089876 1.9011283e-06 0)
(0.99324264 0.0011533775 0)
(0.029420075 0.001166467 0)
(0.011677953 1.2323794e-05 0)
(0.0083037977 2.7872834e-06 0)
(0.0068152065 1.3342213e-06 0)
(0.0059545644 8.1651574e-07 0)
(0.0053642012 5.7387283e-07 0)
(0.0049252986 4.3403659e-07 0)
(0.0045783677 3.4492702e-07 0)
(0.0042947628 2.8224665e-07 0)
(0.0040572896 2.3626926e-07 0)
(0.0038541218 2.0157674e-07 0)
(0.0036774221 1.7450259e-07 0)
(0.0035217513 1.528284e-07 0)
(0.0033831351 1.3514601e-07 0)
(0.0032585818 1.2049943e-07 0)
(0.0031457775 1.0819193e-07 0)
(0.003042946 9.7768483e-08 0)
(0.0029485551 8.8818184e-08 0)
(0.0028615559 8.1044769e-08 0)
(0.0027809368 7.4282786e-08 0)
(0.0027059252 6.8334141e-08 0)
(0.0026358638 6.307368e-08 0)
(0.0025701969 5.8395463e-08 0)
(0.0025084524 5.4213033e-08 0)
(0.002450226 5.0454668e-08 0)
(0.0023951723 4.7061833e-08 0)
(0.00234299 4.3987959e-08 0)
(0.0022934145 4.1192853e-08 0)
(0.0022462154 3.8641866e-08 0)
(0.0022011895 3.6306023e-08 0)
(0.0021581573 3.4159752e-08 0)
(0.0021169616 3.2181811e-08 0)
(0.0020774606 3.0354946e-08 0)
(0.0020395269 2.8663363e-08 0)
(0.002003047 2.7092944e-08 0)
(0.0019679189 2.5631708e-08 0)
(0.0019340504 2.4268815e-08 0)
(0.0019013593 2.2994065e-08 0)
(0.0018697726 2.1798889e-08 0)
(0.0018392243 2.0676853e-08 0)
(0.0018096524 1.9621853e-08 0)
(0.0017810017 1.8627464e-08 0)
(0.0017532231 1.76878e-08 0)
(0.0017262734 1.6797913e-08 0)
(0.0017001134 1.5953385e-08 0)
(0.0016747092 1.5149485e-08 0)
(0.0016500327 1.4381734e-08 0)
(0.001626061 1.3646208e-08 0)
(0.0016027763 1.2939324e-08 0)
(0.0015801658 1.2257892e-08 0)
(0.0015582211 1.15989e-08 0)
(0.001536939 1.0959381e-08 0)
(0.0015163219 1.0335408e-08 0)
(0.001496382 9.7206183e-09 0)
(0.0014771484 9.109275e-09 0)
(0.0014586605 8.4982706e-09 0)
(0.0014409661 7.8841368e-09 0)
(0.0014241269 7.2640349e-09 0)
(0.001408213 6.6355992e-09 0)
(0.0013933085 5.9906837e-09 0)
(0.0013795362 5.3211642e-09 0)
(0.0013670384 4.6197038e-09 0)
(0.0013560002 3.8361174e-09 0)
(0.0013468624 3.1105587e-09 0)
(0.0013390865 2.0583033e-09 0)
(0.0013353408 9.8059164e-10 0)
(0.0013334084 7.0667731e-12 0)
(0.001335384 -1.2409582e-09 0)
(0.0013412836 -2.5037417e-09 0)
(0.0013517976 -3.8543401e-09 0)
(0.0013674906 -5.2381673e-09 0)
(0.0013888052 -6.5354771e-09 0)
(0.0014155234 -7.6555067e-09 0)
(0.0014474164 -8.6237382e-09 0)
(0.0014843891 -9.2788504e-09 0)
(0.0015247623 -9.2515165e-09 0)
(0.0015649509 -8.506756e-09 0)
(0.0016022613 -7.0686578e-09 0)
(0.0016323497 -5.4589606e-09 0)
(0.0016569111 -4.0746054e-09 0)
(0.0016751838 -2.8714871e-09 0)
(0.0016886898 -2.0031411e-09 0)
(0.0016985577 -1.374351e-09 0)
(0.0017056244 -9.1861047e-10 0)
(0.0017105289 -5.7924423e-10 0)
(0.0017136142 -3.1609381e-10 0)
(0.0017151422 -1.1115289e-10 0)
(0.0017153118 5.7834004e-11 0)
(0.0017141194 2.0718988e-10 0)
(0.0017115947 3.3864246e-10 0)
(0.0017079104 4.5469961e-10 0)
(0.0017032171 5.5391719e-10 0)
(0.0016977065 6.3095996e-10 0)
(0.0016915952 6.8920949e-10 0)
(0.0016850127 7.3333846e-10 0)
(0.0016780895 7.6173988e-10 0)
(0.0016709845 7.763165e-10 0)
(0.0016637934 7.8385948e-10 0)
(0.00165655 7.8679998e-10 0)
(0.0016493051 7.8286531e-10 0)
(0.0016421346 7.734517e-10 0)
(0.0016350633 7.6308583e-10 0)
(0.0016280839 7.5364005e-10 0)
(0.0016211869 7.4418891e-10 0)
(0.0016143817 7.345755e-10 0)
(0.0016076619 7.240359e-10 0)
(0.0016010511 7.286307e-10 0)
(0.001594247 7.224927e-10 0)
(0.0015877496 7.9119832e-10 0)
(0.0015796811 7.9460327e-10 0)
(0.0015731241 8.7384659e-10 -9.5990266e-24)
(0.0015635764 5.1997935e-10 1.4806606e-24)
(1 3.1506039e-09 0)
(0.99997949 8.3912591e-09 0)
(0.99994936 1.1851588e-08 0)
(0.99991585 1.5201073e-08 0)
(0.99987747 1.9835085e-08 0)
(0.99983317 2.5886404e-08 0)
(0.99978228 3.3672863e-08 0)
(0.99972389 4.3804398e-08 0)
(0.99965673 5.7109996e-08 0)
(0.99957921 7.4679607e-08 0)
(0.99948932 9.7996371e-08 0)
(0.9993845 1.2918038e-07 0)
(0.99926139 1.7121217e-07 0)
(0.99911556 2.2885092e-07 0)
(0.99894039 3.0827648e-07 0)
(0.99872786 4.2354156e-07 0)
(0.9984607 5.8392032e-07 0)
(0.998128 8.5713547e-07 0)
(0.99765843 1.1963527e-06 0)
(0.99709263 2.0941483e-06 0)
(0.99598388 2.8065357e-06 0)
(0.9949539 7.1993784e-06 0)
(0.99081466 2.3965993e-06 0)
(0.99316944 0.0014386875 0)
(0.036714112 0.0014583591 0)
(0.014621932 1.9317938e-05 0)
(0.010397703 4.3884497e-06 0)
(0.0085339156 2.1007531e-06 0)
(0.0074562002 1.285689e-06 0)
(0.0067169339 9.0362558e-07 0)
(0.0061673264 6.8343489e-07 0)
(0.0057328976 5.4311783e-07 0)
(0.0053777673 4.4442159e-07 0)
(0.0050804031 3.7202559e-07 0)
(0.0048259975 3.1739832e-07 0)
(0.0046047359 2.7476731e-07 0)
(0.0044098069 2.4063933e-07 0)
(0.0042362338 2.1279689e-07 0)
(0.0040802702 1.8973466e-07 0)
(0.0039390188 1.7035566e-07 0)
(0.0038102548 1.5394298e-07 0)
(0.0036920608 1.3985004e-07 1.6292628e-24)
(0.003583122 1.2761042e-07 0)
(0.0034821723 1.1696315e-07 -9.0035013e-35)
(0.0033882443 1.075966e-07 0)
(0.0033005148 9.9313658e-08 0)
(0.003218288 9.1947496e-08 0)
(0.0031409728 8.5361985e-08 0)
(0.0030680629 7.9444197e-08 0)
(0.0029991257 7.4101962e-08 0)
(0.002933784 6.9261951e-08 0)
(0.0028717065 6.4860878e-08 0)
(0.0028126047 6.0844188e-08 0)
(0.0027562241 5.7166254e-08 0)
(0.00270234 5.3786814e-08 0)
(0.0026507553 5.0672422e-08 0)
(0.0026012929 4.7795908e-08 0)
(0.002553793 4.5132403e-08 0)
(0.0025081135 4.2659679e-08 0)
(0.0024641266 4.0358868e-08 0)
(0.002421717 3.8212905e-08 0)
(0.0023807817 3.620573e-08 0)
(0.0023412294 3.4323849e-08 0)
(0.0023029772 3.2557132e-08 0)
(0.0022659477 3.0895965e-08 0)
(0.0022300718 2.9330233e-08 0)
(0.0021952878 2.7850668e-08 0)
(0.0021615417 2.644948e-08 0)
(0.0021287846 2.5119709e-08 0)
(0.0020969738 2.385391e-08 0)
(0.0020660743 2.2645028e-08 0)
(0.0020360573 2.1486884e-08 0)
(0.0020069007 2.0373837e-08 0)
(0.0019785882 1.9300864e-08 0)
(0.0019511094 1.8263219e-08 0)
(0.0019244605 1.7256232e-08 0)
(0.0018986443 1.6273716e-08 0)
(0.0018736762 1.5305656e-08 0)
(0.0018495926 1.4343018e-08 0)
(0.0018264428 1.3380905e-08 0)
(0.0018042869 1.2413857e-08 0)
(0.0017832021 1.1437401e-08 0)
(0.0017632761 1.0447805e-08 0)
(0.0017446143 9.4322401e-09 0)
(0.0017273707 8.3779102e-09 0)
(0.0017117236 7.2732556e-09 0)
(0.0016979047 6.0392719e-09 0)
(0.0016864663 4.8965844e-09 0)
(0.0016767345 3.2397428e-09 0)
(0.0016720494 1.542388e-09 0)
(0.0016696375 9.14098e-12 0)
(0.0016721199 -1.956179e-09 0)
(0.0016795177 -3.9448032e-09 0)
(0.0016926953 -6.0716358e-09 0)
(0.0017123594 -8.2507166e-09 0)
(0.0017390641 -1.0293458e-08 0)
(0.0017725358 -1.2056952e-08 0)
(0.0018124875 -1.3581208e-08 0)
(0.0018587983 -1.4612107e-08 0)
(0.0019093636 -1.4568189e-08 0)
(0.0019596921 -1.3394716e-08 0)
(0.0020064125 -1.1129562e-08 -2.1572638e-24)
(0.0020440826 -8.5949218e-09 0)
(0.0020748316 -6.4147573e-09 0)
(0.0020977046 -4.520395e-09 0)
(0.0021146091 -3.153252e-09 0)
(0.0021269588 -2.1633136e-09 0)
(0.0021358017 -1.44583e-09 0)
(0.0021419376 -9.1156124e-10 0)
(0.0021457961 -4.9729099e-10 0)
(0.002147705 -1.7465462e-10 0)
(0.0021479133 9.1385785e-11 0)
(0.0021464162 3.2652956e-10 0)
(0.0021432511 5.3349168e-10 0)
(0.002138634 7.1621361e-10 0)
(0.0021327537 8.7241823e-10 0)
(0.0021258503 9.9370786e-10 0)
(0.002118195 1.0854058e-09 0)
(0.0021099499 1.1548667e-09 0)
(0.0021012785 1.1995657e-09 0)
(0.0020923798 1.2224992e-09 0)
(0.0020833734 1.2343573e-09 0)
(0.0020743019 1.2389686e-09 0)
(0.0020652288 1.2327578e-09 0)
(0.0020562488 1.2179229e-09 0)
(0.0020473934 1.2015888e-09 0)
(0.0020386532 1.1867032e-09 0)
(0.0020300162 1.1718102e-09 0)
(0.0020214946 1.1566631e-09 0)
(0.0020130798 1.1400594e-09 0)
(0.0020048016 1.1472766e-09 0)
(0.0019962818 1.1376047e-09 0)
(0.0019881456 1.2457354e-09 0)
(0.001978044 1.2511093e-09 0)
(0.0019698333 1.3761369e-09 0)
(0.0019578778 8.1845508e-10 -8.4505903e-25)
(1 3.8529831e-09 0)
(0.99997924 1.0264908e-08 0)
(0.99994873 1.450097e-08 0)
(0.99991479 1.8599724e-08 0)
(0.99987591 2.4269434e-08 0)
(0.99983103 3.1672716e-08 0)
(0.99977949 4.1197997e-08 0)
(0.99972035 5.3591031e-08 0)
(0.99965234 6.9865392e-08 0)
(0.99957385 9.1353551e-08 0)
(0.99948284 1.1986846e-07 0)
(0.99937674 1.5800147e-07 0)
(0.99925214 2.0939529e-07 0)
(0.99910457 2.7986623e-07 0)
(0.99892734 3.7696507e-07 0)
(0.99871235 5.178649e-07 0)
(0.99844217 7.1388671e-07 0)
(0.99810578 1.0477902e-06 0)
(0.99763111 1.4622733e-06 0)
(0.99705936 2.5591745e-06 0)
(0.99593935 3.4295494e-06 0)
(0.99489895 8.7958996e-06 0)
(0.99071985 2.9368406e-06 0)
(0.99308687 0.0017426795 0)
(0.0444931 0.0017708508 0)
(0.017783376 2.8531303e-05 0)
(0.012646522 6.5062898e-06 0)
(0.010379856 3.1148749e-06 0)
(0.0090689845 1.9064617e-06 0)
(0.0081697829 1.3399297e-06 0)
(0.0075012666 1.0134182e-06 0)
(0.0069728599 8.0534401e-07 0)
(0.0065409075 6.5899478e-07 0)
(0.0061792172 5.51644e-07 0)
(0.0058697799 4.7064046e-07 0)
(0.0056006573 4.0742592e-07 0)
(0.0053635639 3.5682027e-07 0)
(0.0051524462 3.1553513e-07 0)
(0.0049627472 2.8133823e-07 0)
(0.0047909428 2.526031e-07 0)
(0.0046343267 2.2826605e-07 0)
(0.0044905678 2.0736892e-07 0)
(0.0043580653 1.8922031e-07 0)
(0.0042352802 1.7343245e-07 9.7121066e-35)
(0.0041210355 1.5954378e-07 0)
(0.0040143302 1.4726186e-07 0)
(0.0039143177 1.3633935e-07 0)
(0.0038202791 1.2657439e-07 0)
(0.0037315988 1.1779953e-07 0)
(0.0036477504 1.098781e-07 0)
(0.0035682752 1.0270137e-07 0)
(0.0034927703 9.6175486e-08 0)
(0.0034208847 9.0219565e-08 0)
(0.0033523087 8.476595e-08 0)
(0.0032867693 7.9754941e-08 0)
(0.0032240268 7.5136945e-08 0)
(0.0031638654 7.087167e-08 0)
(0.003106091 6.6922242e-08 0)
(0.0030505309 6.3255702e-08 0)
(0.0029970294 5.9844073e-08 0)
(0.0029454464 5.6662051e-08 0)
(0.0028956565 5.3685823e-08 0)
(0.0028475488 5.0895382e-08 0)
(0.0028010224 4.8275703e-08 0)
(0.0027559833 4.5812531e-08 0)
(0.0027123471 4.3490868e-08 0)
(0.0026700392 4.129697e-08 0)
(0.0026289936 3.9219287e-08 0)
(0.0025891509 3.72475e-08 0)
(0.0025504592 3.5370566e-08 0)
(0.0025128759 3.3578027e-08 0)
(0.0024763661 3.1860718e-08 0)
(0.0024409028 3.0210276e-08 0)
(0.0024064662 2.861925e-08 0)
(0.0023730438 2.7080602e-08 0)
(0.0023406309 2.5587404e-08 0)
(0.0023092308 2.4130483e-08 0)
(0.0022788624 2.2694988e-08 0)
(0.00224957 2.1267525e-08 0)
(0.0022214135 1.9840827e-08 0)
(0.0021944661 1.8406797e-08 0)
(0.0021688218 1.6958801e-08 0)
(0.0021445874 1.5491289e-08 0)
(0.0021218911 1.3985235e-08 0)
(0.0021009202 1.242166e-08 0)
(0.0020818919 1.0783412e-08 0)
(0.0020650883 8.9533595e-09 0)
(0.0020511811 7.2585764e-09 0)
(0.0020393512 4.8015018e-09 0)
(0.00203366 2.2842221e-09 0)
(0.0020307374 1.0088105e-11 0)
(0.0020337691 -2.9044878e-09 0)
(0.0020427819 -5.8537334e-09 0)
(0.002058827 -9.0078214e-09 0)
(0.002082764 -1.2239266e-08 0)
(0.0021152665 -1.5268354e-08 0)
(0.0021560009 -1.7883169e-08 0)
(0.0022046172 -2.0142881e-08 0)
(0.0022609662 -2.1670478e-08 0)
(0.0023224851 -2.160383e-08 0)
(0.0023837079 -1.9862373e-08 0)
(0.0024405364 -1.6502147e-08 0)
(0.0024863462 -1.2742733e-08 0)
(0.0025237374 -9.5100755e-09 0)
(0.0025515468 -6.7011147e-09 0)
(0.0025720971 -4.6741275e-09 0)
(0.0025871083 -3.2064806e-09 0)
(0.0025978552 -2.1427956e-09 0)
(0.0026053104 -1.3507413e-09 0)
(0.0026099964 -7.3660433e-10 0)
(0.0026123118 -2.5830758e-10 0)
(0.0026125591 1.3610366e-10 0)
(0.0026107324 4.847217e-10 0)
(0.002606877 7.915688e-10 0)