/*--------------------------------*- C++ -*----------------------------------*\
| =========                 |                                                 |
| \\      /  F ield         | OpenFOAM: The Open Source CFD Toolbox           |
|  \\    /   O peration     | Version:  2206                                  |
|   \\  /    A nd           | Website:  www.openfoam.com                      |
|    \\/     M anipulation  |                                                 |
\*---------------------------------------------------------------------------*/
FoamFile
{
    version     2.0;
    format      ascii;
    arch        "LSB;label=32;scalar=64";
    class       volScalarField;
    location    "1100";
    object      k;
}
// * * * * * * * * * * * * * * * * * * * * * * * * * * * * * * * * * * * * * //

dimensions      [0 2 -2 0 0 0 0];

internalField   nonuniform List<scalar> 
7480
(
0.011444772
0.014108968
0.011690572
0.0076595794
0.0045417132
0.0027811473
0.001936976
0.001525857
0.0012980574
0.0011497424
0.0010351782
0.00093692544
0.00085132595
0.00077726472
0.00071304881
0.00065710604
0.00060824481
0.00056532435
0.00052714474
0.00049293055
0.00046221196
0.00043448011
0.00040926799
0.00038628083
0.00036528531
0.00034602908
0.00032828796
0.00031191935
0.00029681049
0.00028283245
0.00026987296
0.00025785873
0.00024672537
0.00023640097
0.00022682517
0.00021795694
0.00020975892
0.00020219456
0.00019523902
0.00018887984
0.00018310665
0.00017790872
0.0001732862
0.00016923849
0.00016577378
0.0001629719
0.00016077401
0.000159284
0.00015849354
0.00015838219
0.00015892659
0.00016009748
0.00016183334
0.00016402168
0.00016655239
0.00016934945
0.00017224556
0.00017499193
0.00017735217
0.0001791346
0.00018033303
0.00018095456
0.00018105413
0.00018070842
0.00018001415
0.00017905936
0.0001779217
0.0001766633
0.00017532879
0.00017395127
0.00017255594
0.00017115766
0.00016976588
0.00016839061
0.00016703432
0.00016569844
0.00016438348
0.00016303509
0.00016165802
0.00016026853
0.00015887321
0.00015747534
0.00015606954
0.00015465374
0.00015322752
0.0001517906
0.00015034525
0.00014889209
0.00014743442
0.00014597331
0.00014451103
0.00014304856
0.00014158916
0.00014012468
0.00013867943
0.00013716494
0.00013584201
0.0001339423
0.000132872
0.00012997005
0.0014156952
0.0025664323
0.0028346923
0.0024740536
0.0020071218
0.0015608286
0.0011994717
0.00093125317
0.00073505768
0.00059088313
0.00048468242
0.00040594688
0.00034684092
0.0003017209
0.00026652259
0.0002384111
0.00021548148
0.00019642355
0.00018030875
0.00016650673
0.00015459204
0.00014424214
0.00013520282
0.00012728332
0.00012020231
0.00011381993
0.00010805047
0.00010284323
9.8164851e-05
9.398619e-05
9.0284338e-05
8.7045369e-05
8.4259242e-05
8.1916789e-05
8.0012777e-05
7.8547365e-05
7.7524837e-05
7.6956798e-05
7.6866439e-05
7.7289487e-05
7.8272646e-05
7.987393e-05
8.2165555e-05
8.5232508e-05
8.9181517e-05
9.4121808e-05
0.00010013367
0.00010728493
0.000115595
0.00012505511
0.00013563242
0.00014733119
0.00015988914
0.00017300952
0.00018640421
0.00019964238
0.00021208502
0.00022314857
0.00023247495
0.00024000954
0.00024590159
0.00025041086
0.00025380062
0.00025616463
0.00025772327
0.00025867564
0.00025917939
0.00025935107
0.00025927595
0.00025901607
0.00025861446
0.0002580977
0.0002574896
0.00025680855
0.00025606146
0.00025524937
0.00025435262
0.00025316579
0.00025177545
0.00025025215
0.00024861865
0.00024688143
0.00024504256
0.00024310911
0.0002410878
0.00023898866
0.00023682172
0.00023459703
0.00023232562
0.00023001649
0.00022767866
0.00022532014
0.00022294875
0.00022056919
0.00021818537
0.00021579561
0.00021343741
0.00021076474
0.0002088489
0.00020445261
0.00020999874
0.00055717521
0.00084133353
0.00095100724
0.00092895103
0.00084356657
0.00075619009
0.0006979883
0.00065926545
0.00062429542
0.00059308149
0.00056402598
0.00053574523
0.00050882448
0.00048352551
0.00045987215
0.0004379246
0.00041770006
0.00039920236
0.00038244044
0.00036740321
0.00035404822
0.00034232796
0.00033217609
0.00032244042
0.00031324998
0.00030471928
0.00029697759
0.00029015212
0.00028436132
0.00027972374
0.00027635677
0.00027436963
0.00027386788
0.00027496192
0.00027776726
0.0002824112
0.00028906165
0.00029794424
0.00030934493
0.00032360877
0.00034114563
0.00036243735
0.00038803645
0.00041861216
0.00045475241
0.00049693367
0.00054540256
0.00060016812
0.00066106599
0.00072755765
0.00079921545
0.00087483103
0.00095268024
0.0010310825
0.0011074915
0.0011784378
0.0012409883
0.001293595
0.0013362679
0.0013699972
0.0013963443
0.0014161241
0.0014304412
0.0014405797
0.0014475827
0.0014522527
0.0014551737
0.0014567713
0.001457354
0.0014571321
0.0014562352
0.0014547873
0.0014528804
0.0014505485
0.0014477924
0.0014444958
0.001439477
0.001433301
0.0014263532
0.0014187465
0.0014105118
0.0014016663
0.0013922531
0.0013823116
0.0013719
0.0013610736
0.0013498896
0.0013384081
0.0013266801
0.0013147551
0.0013026794
0.0012904948
0.001278239
0.0012659058
0.0012535922
0.0012411961
0.0012276452
0.001217402
0.0011948685
3.6611368e-05
0.00011640593
0.0002288711
0.0003288813
0.00038967263
0.00041112683
0.00040816587
0.00039502162
0.00038061419
0.00036975115
0.00036652307
0.0003746531
0.00038614166
0.00039595644
0.00040413769
0.00041042296
0.00041541936
0.0004196269
0.00042336442
0.00042689198
0.00043042588
0.00043415387
0.00043823144
0.00044276569
0.0004475951
0.00045253455
0.00045763178
0.00046310019
0.00046921716
0.0004762838
0.00048461844
0.00049455318
0.00050642826
0.00052059413
0.00053741563
0.0005572696
0.00058057243
0.0006078552
0.00063977719
0.00067711503
0.00072075397
0.00077169142
0.00083104181
0.00090003111
0.00098005823
0.0010721229
0.0011767223
0.0012938491
0.0014230123
0.0015633118
0.0017132964
0.0018698991
0.0020312541
0.0021938017
0.0023542345
0.0025071888
0.0026462338
0.0027669584
0.00286791
0.0029500895
0.0030159999
0.0030681037
0.0031080034
0.0031384571
0.0031617425
0.0031796272
0.0031934414
0.0032041444
0.0032124272
0.0032187867
0.0032235554
0.0032269367
0.0032291469
0.003230336
0.0032305525
0.0032297807
0.0032278269
0.003222359
0.0032146956
0.0032055031
0.0031949443
0.0031830723
0.0031699322
0.0031556095
0.0031401886
0.0031237808
0.0031064917
0.0030884294
0.0030697042
0.0030504137
0.0030306468
0.0030104941
0.0029900311
0.0029693395
0.0029483844
0.0029274443
0.002905996
0.0028832394
0.0028646521
0.002827232
1.2523495e-05
2.7571697e-05
5.8621955e-05
9.9466829e-05
0.00013896864
0.00016941536
0.00018919807
0.00020025449
0.00020547483
0.00020734016
0.00020801882
0.00020957962
0.00021293949
0.00021860093
0.00022749671
0.00024060833
0.00025525515
0.00027042472
0.00028569482
0.00030132953
0.00031747754
0.00033432234
0.00035193718
0.00037025336
0.0003889937
0.00040785258
0.00042730976
0.00044781428
0.00046969197
0.00049322117
0.00051868192
0.00054638602
0.00057669111
0.00061000228
0.00064676526
0.00068746187
0.00073269222
0.00078331636
0.00084036962
0.00090499306
0.0009784297
0.0010620313
0.0011572606
0.0012656882
0.0013890469
0.0015277646
0.0016814423
0.0018494076
0.0020307069
0.0022239718
0.0024271867
0.0026371284
0.0028491
0.003059104
0.0032640299
0.003455912
0.0036270167
0.0037740201
0.0038971694
0.0039986661
0.0040811515
0.0041474719
0.0042005893
0.0042432787
0.0042778997
0.0043063075
0.0043299074
0.0043497251
0.0043665036
0.004380779
0.0043929043
0.0044030995
0.0044116294
0.0044186541
0.004424211
0.0044282579
0.0044306117
0.0044303034
0.0044275226
0.0044225651
0.0044155918
0.0044066961
0.0043959678
0.0043835367
0.0043695381
0.00435413
0.0043374623
0.0043196831
0.00430094
0.0042813663
0.0042610777
0.0042401978
0.004218823
0.0041970651
0.0041748821
0.0041526553
0.0041295895
0.0041056749
0.0040847799
0.0040463509
9.3804733e-06
1.1752042e-05
1.8504533e-05
3.034384e-05
4.5487518e-05
6.1115801e-05
7.5203326e-05
8.6930731e-05
9.628289e-05
0.00010357613
0.00010920806
0.00011368638
0.00011750455
0.00012111309
0.00012501893
0.00012979641
0.00013572191
0.0001430711
0.00015226956
0.00016376585
0.00017688301
0.00019190221
0.00020810442
0.00022551092
0.00024420333
0.00026423903
0.00028584606
0.00030932692
0.00033501698
0.00036329514
0.00039458036
0.00042933119
0.00046804901
0.00051127051
0.00055958016
0.00061369373
0.00067460845
0.00074334875
0.00082093176
0.00090845016
0.0010071126
0.0011182489
0.001243301
0.0013838415
0.0015415439
0.0017146248
0.0019011297
0.0021002624
0.002311358
0.0025332282
0.0027638244
0.0029998317
0.003236447
0.0034694081
0.0036954968
0.0039037138
0.0040872036
0.0042457107
0.0043808544
0.0044951448
0.0045915911
0.0046729056
0.004741518
0.0047997083
0.004849515
0.004892579
0.0049301907
0.0049633406
0.0049927658
0.005019008
0.0050424214
0.0050632325
0.0050817735
0.0050982019
0.005112537
0.0051247146
0.0051345911
0.0051415131
0.0051454391
0.0051465549
0.0051450376
0.0051410287
0.00513467
0.0051261383
0.0051156201
0.0051033181
0.0050894228
0.0050741176
0.0050575835
0.005039985
0.0050214588
0.0050021572
0.0049821935
0.0049617013
0.0049406443
0.0049194541
0.0048972096
0.0048744848
0.004853756
0.0048171082
8.989837e-06
9.2309355e-06
1.0391764e-05
1.3066067e-05
1.7351771e-05
2.2790857e-05
2.8760494e-05
3.4793151e-05
4.0618914e-05
4.6096462e-05
5.1142893e-05
5.5726976e-05
5.9867438e-05
6.3620059e-05
6.7088788e-05
7.0430384e-05
7.3810636e-05
7.7404076e-05
8.1423006e-05
8.6124049e-05
9.1693948e-05
9.8408705e-05
0.00010650836
0.00011620024
0.00012735635
0.00014018334
0.0001549292
0.00017144382
0.00018975425
0.00021022796
0.00023330339
0.00025950076
0.00028943105
0.00032377764
0.00036330695
0.0004089296
0.00046182432
0.00052346235
0.00059538663
0.00067924935
0.00077679803
0.00088985676
0.0010203102
0.0011701597
0.0013415152
0.0015226404
0.0017159047
0.001924831
0.0021498709
0.0023894734
0.0026405236
0.0028983094
0.0031567144
0.0034117318
0.0036608801
0.0038824435
0.0040752861
0.0042463516
0.0043981747
0.004532786
0.0046522255
0.0047580297
0.0048515736
0.0049344564
0.0050082439
0.0050742186
0.005133524
0.005187134
0.0052358004
0.0052801099
0.0053205137
0.0053573398
0.0053908849
0.0054213283
0.0054487023
0.0054729593
0.005494015
0.0055114566
0.0055251704
0.0055352837
0.0055419994
0.0055455195
0.0055460517
0.0055438311
0.0055391052
0.0055321294
0.0055231413
0.0055123668
0.0055000281
0.0054863268
0.0054714407
0.0054555413
0.00543876
0.0054212536
0.0054030063
0.0053844648
0.0053647142
0.0053446062
0.0053258022
0.005292283
8.9408103e-06
8.8618492e-06
8.9452931e-06
9.3733058e-06
1.0288073e-05
1.1705005e-05
1.3541027e-05
1.5692742e-05
1.807646e-05
2.0626301e-05
2.3280627e-05
2.5980859e-05
2.8676847e-05
3.1327982e-05
3.3909883e-05
3.6420512e-05
3.8877195e-05
4.1312752e-05
4.3779689e-05
4.6353834e-05
4.9122462e-05
5.2194806e-05
5.5698893e-05
5.9780565e-05
6.4572108e-05
7.0251561e-05
7.7059258e-05
8.5141007e-05
9.4562281e-05
0.00010556261
0.00011845032
0.00013360304
0.00015136977
0.00017186918
0.00019573453
0.00022373649
0.00025684922
0.00029631818
0.00034367848
0.00040076141
0.00046973264
0.00055310391
0.00065369168
0.00077453884
0.00091876401
0.0010825286
0.0012631128
0.0014615834
0.0016783066
0.0019124002
0.0021612306
0.0024201124
0.0026828681
0.0029479644
0.0032139692
0.0034580706
0.0036785089
0.0038796655
0.0040624252
0.0042295897
0.0043829705
0.0045230466
0.004650477
0.0047665586
0.0048724097
0.0049688911
0.0050570588
0.0051378755
0.0052120731
0.0052803068
0.005343146
0.0054010149
0.0054542524
0.0055030872
0.0055475731
0.0055877066
0.0056234797
0.0056547002
0.0056812886
0.0057033513
0.0057211109
0.0057348228
0.0057447621
0.0057512282
0.0057545343
0.0057549945
0.0057528993
0.0057485246
0.0057421426
0.0057339999
0.005724314
0.0057132893
0.0057010855
0.0056878872
0.0056737123
0.0056590032
0.0056429378
0.0056264331
0.0056107795
0.0055810264
8.9328141e-06
8.8091595e-06
8.7105696e-06
8.6773651e-06
8.7583397e-06
8.9871726e-06
9.3743436e-06
9.9171745e-06
1.0610685e-05
1.1449784e-05
1.2426419e-05
1.3527419e-05
1.4736103e-05
1.6032991e-05
1.7398342e-05
1.8815368e-05
2.0271921e-05
2.1760511e-05
2.3280387e-05
2.4839823e-05
2.6455658e-05
2.8154215e-05
2.9972893e-05
3.1961326e-05
3.4178131e-05
3.6696021e-05
3.9609566e-05
4.3023129e-05
4.7045914e-05
5.1822441e-05
5.7546991e-05
6.4409339e-05
7.26249e-05
8.243694e-05
9.4191318e-05
0.00010833157
0.00012543579
0.00014625558
0.00017148401
0.00020217407
0.00023989352
0.00028664898
0.00034498592
0.00041808547
0.0005098595
0.00062312231
0.00075701835
0.00091181563
0.0010885439
0.0012875458
0.0015078552
0.0017466051
0.0019990762
0.0022628879
0.0025353635
0.002800442
0.0030434533
0.0032701532
0.003482924
0.0036833383
0.003872463
0.0040490225
0.0042131246
0.0043661376
0.004508444
0.0046402369
0.0047624943
0.0048759763
0.0049811784
0.005078787
0.0051694238
0.0052535342
0.0053314711
0.0054035068
0.005469671
0.0055300067
0.005584596
0.0056334284
0.0056765136
0.0057139813
0.0057460747
0.0057730905
0.0057953657
0.0058132641
0.0058271667
0.0058374518
0.0058444688
0.0058485528
0.0058500371
0.005849223
0.0058463788
0.0058417527
0.0058355425
0.0058279691
0.0058190965
0.0058093576
0.0057980741
0.0057861153
0.0057746673
0.0057492395
8.9301185e-06
8.799943e-06
8.6732002e-06
8.5570742e-06
8.46322e-06
8.4038687e-06
8.3885211e-06
8.4241229e-06
8.516795e-06
8.672499e-06
8.8964159e-06
9.1918843e-06
9.5603242e-06
1.0000975e-05
1.0511308e-05
1.1087653e-05
1.1725613e-05
1.2420524e-05
1.3168354e-05
1.3966657e-05
1.4815145e-05
1.5716215e-05
1.6676139e-05
1.770618e-05
1.8822688e-05
2.0047943e-05
2.1412259e-05
2.2954109e-05
2.4719929e-05
2.6767848e-05
2.9173342e-05
3.2028022e-05
3.5444255e-05
3.9560826e-05
4.455981e-05
5.0635541e-05
5.8062867e-05
6.7209875e-05
7.8506323e-05
9.2515114e-05
0.00011002214
0.00013209335
0.00016016248
0.00019614354
0.00024247574
0.00030212079
0.0003778325
0.00047158904
0.0005858202
0.00072279307
0.0008841971
0.0010705502
0.0012806372
0.0015124013
0.0017631929
0.0020238354
0.0022814732
0.002530075
0.0027634805
0.0029861915
0.0032002026
0.0034054826
0.0036018235
0.003789492
0.003967566
0.0041349355
0.0042928031
0.0044413712
0.0045806227
0.004711245
0.0048336846
0.0049482611
0.0050552677
0.005155005
0.0052473069
0.0053322247
0.005409929
0.0054805123
0.005544061
0.0056007559
0.0056508593
0.0056946911
0.0057326381
0.0057651162
0.0057925654
0.0058154309
0.0058341222
0.0058490396
0.0058605844
0.0058691224
0.0058749842
0.0058784737
0.0058798389
0.0058793478
0.0058771224
0.0058735905
0.0058682456
0.0058618649
0.0058556763
0.0058352573
8.9285265e-06
8.7968724e-06
8.6656374e-06
8.5358154e-06
8.4096203e-06
8.2900736e-06
8.180413e-06
8.0838795e-06
8.0038867e-06
7.9441304e-06
7.9084608e-06
7.9006317e-06
7.9241237e-06
7.9819362e-06
8.0765164e-06
8.2097501e-06
8.3829077e-06
8.5966785e-06
8.851336e-06
9.1469767e-06
9.4837474e-06
9.862117e-06
1.0283187e-05
1.074915e-05
1.12637e-05
1.183249e-05
1.2463813e-05
1.3169278e-05
1.3964284e-05
1.4868942e-05
1.5909676e-05
1.7120236e-05
1.8543514e-05
2.0233917e-05
2.2261841e-05
2.4714135e-05
2.7704554e-05
3.1385991e-05
3.5955988e-05
4.1651333e-05
4.8809197e-05
5.789171e-05
6.9536063e-05
8.4623115e-05
0.00010435269
0.00013035077
0.00016465345
0.00020947682
0.00026743099
0.000341468
0.00043474451
0.00055031138
0.00069061205
0.00085718566
0.0010505444
0.001267994
0.001502375
0.001745416
0.0019877752
0.0022267522
0.0024572656
0.0026781591
0.0028929407
0.0031022003
0.0033054303
0.003501678
0.0036908942
0.0038721465
0.0040442491
0.0042080297
0.0043634054
0.0045104774
0.0046492626
0.0047796218
0.0049012718
0.0050142857
0.005118828
0.0052149601
0.0053027852
0.0053825051
0.0054543649
0.0055186733
0.0055758367
0.005626289
0.0056704983
0.0057089709
0.0057421758
0.0057705738
0.0057946332
0.0058147866
0.0058314362
0.0058449516
0.0058556475
0.0058638482
0.0058697463
0.0058737763
0.0058756176
0.0058759508
0.0058761258
0.0058615503
8.9275268e-06
8.7951919e-06
8.6629072e-06
8.5307167e-06
8.3989546e-06
8.2681971e-06
8.1392399e-06
8.0130732e-06
7.8908893e-06
7.7740904e-06
7.6642699e-06
7.5631762e-06
7.4726778e-06
7.3947067e-06
7.3312043e-06
7.2840854e-06
7.2551947e-06
7.2462505e-06
7.2588269e-06
7.2943671e-06
7.3542062e-06
7.439619e-06
7.5518601e-06
7.6922862e-06
7.8625004e-06
8.0645127e-06
8.3010336e-06
8.5758014e-06
8.8938224e-06
9.2616745e-06
9.6880288e-06
1.0184309e-05
1.0765438e-05
1.1450711e-05
1.2265258e-05
1.3241389e-05
1.4421003e-05
1.5859561e-05
1.7630253e-05
1.9827411e-05
2.2578518e-05
2.6059347e-05
3.0512546e-05
3.6270152e-05
4.3807475e-05
5.3796889e-05
6.7165859e-05
8.5121953e-05
0.00010923357
0.00014150723
0.00018444756
0.00024105887
0.00031473009
0.00040901515
0.00052734755
0.00067212535
0.00084328624
0.0010379656
0.0012501821
0.0014742519
0.0017030644
0.001931376
0.0021581901
0.0023797584
0.0025940904
0.0028045855
0.0030113569
0.0032140212
0.0034112935
0.0036028629
0.0037875503
0.0039646371
0.0041340831
0.0042950733
0.0044470302
0.0045899562
0.0047237835
0.0048483477
0.0049636443
0.0050697848
0.0051669127
0.0052552598
0.0053351923
0.0054071011
0.0054714398
0.0055287487
0.0055795275
0.0056242839
0.005663547
0.0056978107
0.0057275528
0.0057532154
0.0057751897
0.0057938686
0.0058095274
0.0058226227
0.0058330266
0.005841338
0.0058490772
0.0058413496
8.9269771e-06
8.7942626e-06
8.6615748e-06
8.5288567e-06
8.396135e-06
8.2634844e-06
8.1310633e-06
7.9991329e-06
7.8680545e-06
7.7382807e-06
7.6103484e-06
7.4848799e-06
7.3625889e-06
7.2442801e-06
7.1308429e-06
7.0232445e-06
6.9225209e-06
6.8297585e-06
6.7460781e-06
6.6726248e-06
6.6105556e-06
6.5610305e-06
6.5252157e-06
6.5042982e-06
6.4995028e-06
6.512124e-06
6.5436059e-06
6.5956543e-06
6.6703232e-06
6.7700968e-06
6.8981087e-06
7.0583829e-06
7.2560858e-06
7.4979624e-06
7.7928599e-06
8.1521325e-06
8.5904874e-06
9.12725e-06
9.7879617e-06
1.0606119e-05
1.1626419e-05
1.2909809e-05
1.4540127e-05
1.6633485e-05
1.9354843e-05
2.2941926e-05
2.7734292e-05
3.420479e-05
4.301686e-05
5.5089237e-05
7.1681501e-05
9.4491855e-05
0.00012575084
0.00016828018
0.00022549296
0.00030117967
0.00039888483
0.0005210739
0.00066811779
0.00083845659
0.0010282051
0.0012322015
0.0014462133
0.0016647766
0.0018834073
0.0021018303
0.0023174476
0.0025278118
0.002735763
0.0029413076
0.003144118
0.0033424103
0.0035357016
0.0037230429
0.0039025617
0.0040741141
0.0042371832
0.0043910918
0.0045354996
0.004670259
0.0047952808
0.0049105793
0.0050163815
0.0051129449
0.0052006379
0.0052799841
0.0053514515
0.0054155606
0.0054728797
0.0055239411
0.0055692918
0.0056094413
0.005644859
0.0056760142
0.0057032719
0.005727124
0.0057476379
0.0057653522
0.0057819972
0.0057823186
8.9266691e-06
8.7937235e-06
8.6608361e-06
8.527965e-06
8.3951007e-06
8.262236e-06
8.1293957e-06
7.996656e-06
7.8641406e-06
7.7320091e-06
7.600448e-06
7.4696708e-06
7.339925e-06
7.2114989e-06
7.0847262e-06
6.9599894e-06
6.8377228e-06
6.7184129e-06
6.6025968e-06
6.4908613e-06
6.3838404e-06
6.2822103e-06
6.186688e-06
6.0980311e-06
6.017037e-06
5.9445441e-06
5.8814468e-06
5.8287171e-06
5.7874274e-06
5.7587829e-06
5.744183e-06
5.7452951e-06
5.764133e-06
5.8032106e-06
5.8657375e-06
5.955759e-06
6.0784251e-06
6.2404075e-06
6.4504675e-06
6.7202027e-06
7.0649128e-06
7.5050178e-06
8.068295e-06
8.7929468e-06
9.7325418e-06
1.0963978e-05
1.2598396e-05
1.4795699e-05
1.7787329e-05
2.1908647e-05
2.7643735e-05
3.5687242e-05
4.703568e-05
6.3092232e-05
8.5787784e-05
0.00011767889
0.00016192825
0.00022206582
0.00030146013
0.00040275884
0.0005271809
0.00067413328
0.00084170059
0.0010263233
0.0012234642
0.0014297598
0.0016410104
0.0018529461
0.0020656409
0.0022771525
0.0024851289
0.0026911681
0.0028954883
0.0030977755
0.0032962255
0.0034898956
0.003677891
0.0038582597
0.0040301834
0.004193216
0.0043467607
0.0044903247
0.0046238949
0.004747435
0.0048610859
0.004965273
0.0050603115
0.005146669
0.0052249036
0.0052955344
0.0053591525
0.0054163084
0.0054675361
0.0055133788
0.0055542866
0.005590795
0.0056231628
0.0056518875
0.0056789536
0.0056887408
8.9264913e-06
8.7933588e-06
8.6603135e-06
8.527343e-06
8.3944463e-06
8.2616125e-06
8.1288453e-06
7.9961786e-06
7.8636741e-06
7.7314116e-06
7.5994791e-06
7.4679702e-06
7.3369866e-06
7.2066424e-06
7.0770672e-06
6.9484091e-06
6.820838e-06
6.6945483e-06
6.5697611e-06
6.4467267e-06
6.325726e-06
6.2070721e-06
6.0911109e-06
5.9782227e-06
5.8688228e-06
5.7633616e-06
5.662328e-06
5.5662533e-06
5.4757161e-06
5.3913498e-06
5.3138592e-06
5.2440404e-06
5.1828025e-06
5.1312076e-06
5.090531e-06
5.0623268e-06
5.0485074e-06
5.0514663e-06
5.0742617e-06
5.120893e-06
5.1965453e-06
5.3079993e-06
5.4643315e-06
5.6778753e-06
5.9658037e-06
6.3522323e-06
6.8716128e-06
7.573828e-06
8.5318185e-06
9.8531842e-06
1.1697692e-05
1.4302962e-05
1.8024783e-05
2.3395712e-05
3.1206411e-05
4.2609591e-05
5.9243811e-05
8.3310964e-05
0.0001175556
0.00016510372
0.00022911613
0.00031230426
0.00041655713
0.00054245383
0.00068901026
0.00085428767
0.0010351988
0.0012276443
0.0014288122
0.0016352606
0.0018429627
0.0020519363
0.0022603029
0.0024656085
0.0026700054
0.0028734673
0.0030751118
0.003273039
0.0034661145
0.0036532786
0.0038326
0.0040028816
0.0041639389
0.0043150567
0.004455927
0.0045867981
0.0047075874
0.0048186136
0.0049203407
0.0050131716
0.0050976918
0.0051744322
0.0052439564
0.0053068596
0.0053636546
0.0054149171
0.0054610831
0.0055026189
0.0055418192
0.0055627222
8.9264229e-06
8.7931252e-06
8.6599257e-06
8.526839e-06
8.3938792e-06
8.2610462e-06
8.1283461e-06
7.9958049e-06
7.8634676e-06
7.7313915e-06
7.5996383e-06
7.4682702e-06
7.3373501e-06
7.2069435e-06
7.0771196e-06
6.9479526e-06
6.8195232e-06
6.6919202e-06
6.5652418e-06
6.4395972e-06
6.3151086e-06
6.1919125e-06
6.0701614e-06
5.9500255e-06
5.8316948e-06
5.7153797e-06
5.6013133e-06
5.4897537e-06
5.3809855e-06
5.2753225e-06
5.1731122e-06
5.0747419e-06
4.9806445e-06
4.8913087e-06
4.8072958e-06
4.7292604e-06
4.6579748e-06
4.5943655e-06
4.5395662e-06
4.4949964e-06
4.462452e-06
4.4442298e-06
4.4433324e-06
4.463744e-06
4.5109066e-06
4.5923035e-06
4.7184247e-06
4.9043142e-06
5.1720188e-06
5.5541494e-06
6.0992003e-06
6.8803995e-06
8.0095641e-06
9.6589719e-06
1.2095282e-05
1.5730202e-05
2.1194627e-05
2.9431084e-05
4.1789203e-05
6.0093422e-05
8.666079e-05
0.00012420234
0.00017562633
0.00024370487
0.00033065238
0.00043786762
0.00056560842
0.0007127145
0.00087728447
0.001056542
0.0012466802
0.0014451712
0.0016486801
0.0018534433
0.0020598835
0.0022657055
0.0024692949
0.0026721679
0.0028747714
0.0030752103
0.0032716194
0.0034628179
0.0036477347
0.0038240393
0.0039909563
0.004148545
0.0042957917
0.0044328241
0.0045598624
0.0046769932
0.0047847249
0.0048834492
0.0049736972
0.0050560663
0.0051310784
0.0051993318
0.0052614054
0.0053177294
0.0053709803
0.0054048904
8.9264596e-06
8.7930221e-06
8.6596799e-06
8.526468e-06
8.393414e-06
8.26053e-06
8.1278291e-06
7.9953377e-06
7.8630962e-06
7.7311543e-06
7.5995658e-06
7.4683847e-06
7.3376647e-06
7.2074597e-06
7.0778239e-06
6.9488124e-06
6.8204815e-06
6.692889e-06
6.5660949e-06
6.4401621e-06
6.3151568e-06
6.1911499e-06
6.068217e-06
5.9464405e-06
5.8259099e-06
5.7067234e-06
5.5889889e-06
5.4728254e-06
5.3583648e-06
5.2457528e-06
5.1351512e-06
5.02674e-06
4.9207201e-06
4.817316e-06
4.7167811e-06
4.6194034e-06
4.5255136e-06
4.4354947e-06
4.3497981e-06
4.2689647e-06
4.193653e-06
4.1246763e-06
4.0630612e-06
4.010129e-06
3.9676143e-06
3.9378519e-06
3.9240528e-06
3.9307228e-06
3.9643801e-06
4.0345938e-06
4.1555014e-06
4.3484802e-06
4.6464818e-06
5.1008491e-06
5.7921309e-06
6.8483029e-06
8.4732197e-06
1.0989642e-05
1.4897991e-05
2.0949775e-05
3.0230938e-05
4.4237459e-05
6.4902405e-05
9.4572697e-05
0.00013587991
0.00019153425
0.00026402664
0.00035523989
0.00046624851
0.00059708051
0.00074641189
0.00091230232
0.0010919513
0.0012816625
0.0014792351
0.0016809397
0.001884059
0.0020889194
0.0022925612
0.0024946179
0.0026959954
0.0028972256
0.0030955841
0.003289419
0.0034774995
0.0036588862
0.0038306432
0.0039930347
0.0041457105
0.0042880786
0.0044205185
0.0045430476
0.0046560762
0.0047601061
0.0048555718
0.0049430561
0.005023214
0.0050964173
0.0051658002
0.005214833
8.9265928e-06
8.7930433e-06
8.659579e-06
8.5262489e-06
8.3930916e-06
8.2601294e-06
8.1273828e-06
7.9948809e-06
7.8626627e-06
7.7307746e-06
7.5992673e-06
7.468192e-06
7.3376002e-06
7.2075433e-06
7.0780727e-06
6.9492394e-06
6.8210944e-06
6.6936884e-06
6.567072e-06
6.4412956e-06
6.31641e-06
6.192466e-06
6.0695151e-06
5.94761e-06
5.8268047e-06
5.7071553e-06
5.5887204e-06
5.4715621e-06
5.3557466e-06
5.241345e-06
5.1284344e-06
5.0170991e-06
4.9074315e-06
4.7995339e-06
4.6935199e-06
4.5895168e-06
4.4876681e-06
4.3881366e-06
4.2911092e-06
4.1968025e-06
4.1054719e-06
4.0174212e-06
3.9330197e-06
3.8527253e-06
3.777116e-06
3.7069419e-06
3.6432039e-06
3.5872684e-06
3.5410557e-06
3.5073336e-06
3.4901622e-06
3.4956209e-06
3.53305e-06
3.6170189e-06
3.7704514e-06
4.0301785e-06
4.456298e-06
5.1462469e-06
6.2575501e-06
8.0411113e-06
1.0888307e-05
1.5392707e-05
2.242104e-05
3.3186324e-05
4.9306443e-05
7.2807109e-05
0.00010606545
0.00015167323
0.00021221512
0.00028999145
0.0003866243
0.00050289685
0.00063851306
0.00079185806
0.00096089081
0.0011424903
0.0013332758
0.0015312753
0.001731894
0.0019340093
0.0021373679
0.0023389063
0.0025390618
0.0027392121
0.0029381279
0.0031334334
0.0033236671
0.0035076708
0.0036837557
0.0038501525
0.0040072368
0.0041541655
0.004291156
0.0044184316
0.0045361768
0.004644895
0.0047451931
0.0048373476
0.0049249932
0.0049914297
8.9268107e-06
8.7931748e-06
8.6596113e-06
8.5261785e-06
8.3929231e-06
8.259876e-06
8.1270643e-06
7.9945203e-06
7.8622829e-06
7.730397e-06
7.5989112e-06
7.4678754e-06
7.3373403e-06
7.2073565e-06
7.077975e-06
6.9492463e-06
6.8212206e-06
6.6939477e-06
6.5674764e-06
6.4418548e-06
6.3171304e-06
6.1933494e-06
6.0705574e-06
5.9487991e-06
5.8281185e-06
5.7085588e-06
5.5901632e-06
5.4729744e-06
5.3570356e-06
5.2423904e-06
5.1290835e-06
5.0171609e-06
4.9066711e-06
4.797665e-06
4.6901971e-06
4.5843264e-06
4.4801175e-06
4.3776415e-06
4.2769778e-06
4.1782158e-06
4.0814579e-06
3.9868221e-06
3.8944468e-06
3.8044978e-06
3.7171762e-06
3.632733e-06
3.5514905e-06
3.4738737e-06
3.4004603e-06
3.3320594e-06
3.2698342e-06
3.2154982e-06
3.1716424e-06
3.1422766e-06
3.1337137e-06
3.1560945e-06
3.2261147e-06
3.3711679e-06
3.6364925e-06
4.0967338e-06
4.8732327e-06
6.1601559e-06
8.262072e-06
1.1644787e-05
1.6999472e-05
2.5312526e-05
3.7931879e-05
5.6615732e-05
8.3503041e-05
0.00012104916
0.00017185542
0.00023842655
0.00032287583
0.0004265161
0.00054977555
0.00069186072
0.00085083271
0.0010245132
0.0012091746
0.0014019333
0.001600609
0.0018004065
0.0020015715
0.0022025575
0.0024021664
0.0026001156
0.0027986834
0.0029945423
0.0031860522
0.0033718232
0.0035508902
0.0037205889
0.0038810557
0.0040319211
0.0041728492
0.0043041781
0.0044262365
0.0045391629
0.0046470245
0.0047331865
8.9271007e-06
8.7934003e-06
8.6597587e-06
8.5262405e-06
8.3928983e-06
8.25977e-06
8.1268885e-06
7.9942894e-06
7.8620124e-06
7.7301016e-06
7.5986043e-06
7.4675696e-06
7.3370473e-06
7.2070877e-06
7.0777416e-06
6.9490595e-06
6.8210915e-06
6.6938874e-06
6.5674961e-06
6.4419655e-06
6.3173428e-06
6.1936737e-06
6.0710028e-06
5.9493734e-06
5.8288274e-06
5.7094052e-06
5.5911461e-06
5.4740878e-06
5.3582669e-06
5.2437189e-06
5.1304781e-06
5.018578e-06
4.9080518e-06
4.7989321e-06
4.6912515e-06
4.585043e-06
4.4803406e-06
4.3771795e-06
4.2755968e-06
4.1756324e-06
4.0773295e-06
3.9807361e-06
3.8859061e-06
3.7929014e-06
3.7017942e-06
3.612671e-06
3.5256384e-06
3.4408316e-06
3.358428e-06
3.2786676e-06
3.2018861e-06
3.1285666e-06
3.0594248e-06
2.995551e-06
2.9386464e-06
2.8914274e-06
2.8583418e-06
2.8467464e-06
2.8689244e-06
2.945531e-06
3.1110041e-06
3.4222595e-06
3.9727303e-06
4.9124196e-06
6.4782293e-06
9.0361468e-06
1.3137761e-05
1.9589503e-05
2.9521608e-05
4.4452306e-05
6.6322283e-05
9.7424372e-05
0.00014033339
0.00019767109
0.00027185009
0.00036471078
0.00047715411
0.00060915175
0.00075919861
0.0009250005
0.0011040303
0.0012921587
0.0014871049
0.0016852386
0.0018844761
0.0020844377
0.0022828757
0.0024800104
0.002676673
0.0028722353
0.0030642184
0.0032510984
0.0034317798
0.0036044237
0.0037676973
0.0039217767
0.0040662617
0.0042011444
0.004330652
0.0044386632
8.9274512e-06
8.7937041e-06
8.6600026e-06
8.526415e-06
8.3929985e-06
8.2597968e-06
8.1268478e-06
7.9941902e-06
7.8618651e-06
7.7299166e-06
7.5983913e-06
7.4673374e-06
7.3368043e-06
7.206842e-06
7.0775009e-06
6.9488312e-06
6.8208833e-06
6.6937068e-06
6.5673507e-06
6.4418632e-06
6.3172914e-06
6.1936812e-06
6.0710774e-06
5.9495232e-06
5.8290604e-06
5.7097293e-06
5.5915684e-06
5.4746148e-06
5.3589037e-06
5.2444687e-06
5.1313419e-06
5.0195534e-06
4.9091321e-06
4.8001052e-06
4.6924987e-06
4.5863371e-06
4.4816442e-06
4.3784426e-06
4.2767546e-06
4.1766019e-06
4.0780065e-06
3.9809906e-06
3.8855773e-06
3.7917913e-06
3.6996596e-06
3.6092126e-06
3.5204858e-06
3.4335221e-06
3.3483755e-06
3.2651167e-06
3.1838415e-06
3.1046849e-06
3.0278422e-06
2.9536063e-06
2.8824276e-06
2.8150184e-06
2.752535e-06
2.6968872e-06
2.6512765e-06
2.6211236e-06
2.6156285e-06
2.6503535e-06
2.7515996e-06
2.962999e-06
3.3561607e-06
4.0474246e-06
5.221517e-06
7.1677675e-06
1.0329162e-05
1.5367054e-05
2.3237253e-05
3.5258116e-05
5.3171564e-05
7.9141908e-05
0.00011566524
0.00016544036
0.00023107063
0.00031479979
0.00041801748
0.00054103764
0.00068315315
0.00084207528
0.0010152444
0.0011991544
0.0013905622
0.0015872206
0.0017844064
0.0019825959
0.002179889
0.0023759742
0.0025707739
0.0027655021
0.0029573771
0.0031449241
0.0033267642
0.0035016214
0.0036674007
0.003824165
0.0039757312
0.0041070691
8.9278522e-06
8.7940723e-06
8.6603256e-06
8.5266826e-06
8.3932037e-06
8.2599373e-06
8.1269258e-06
7.9942109e-06
7.8618353e-06
7.7298436e-06
7.5982821e-06
7.4671989e-06
7.3366427e-06
7.2066634e-06
7.0773108e-06
6.9486352e-06
6.8206867e-06
6.6935148e-06
6.5671684e-06
6.4416958e-06
6.3171442e-06
6.1935597e-06
6.0709869e-06
5.9494694e-06
5.8290491e-06
5.7097664e-06
5.59166e-06
5.474767e-06
5.3591226e-06
5.2447604e-06
5.131712e-06
5.0200072e-06
4.909674e-06
4.8007386e-06
4.6932252e-06
4.5871564e-06
4.4825531e-06
4.3794344e-06
4.277818e-06
4.17772e-06
4.0791554e-06
3.982138e-06
3.8866804e-06
3.7927947e-06
3.7004925e-06
3.6097853e-06
3.5206848e-06
3.4332043e-06
3.3473589e-06
3.2631676e-06
3.1806554e-06
3.0998571e-06
3.0208225e-06
2.9436261e-06