/*--------------------------------*- C++ -*----------------------------------*\
| =========                 |                                                 |
| \\      /  F ield         | OpenFOAM: The Open Source CFD Toolbox           |
|  \\    /   O peration     | Version:  2206                                  |
|   \\  /    A nd           | Website:  www.openfoam.com                      |
|    \\/     M anipulation  |                                                 |
\*---------------------------------------------------------------------------*/
FoamFile
{
    version     2.0;
    format      ascii;
    arch        "LSB;label=32;scalar=64";
    class       volScalarField;
    location    "1100";
    object      nut;
}
// * * * * * * * * * * * * * * * * * * * * * * * * * * * * * * * * * * * * * //

dimensions      [0 2 -1 0 0 0 0];

internalField   nonuniform List<scalar> 
7480
(
1.5120386e-06
1.8586913e-06
1.5441037e-06
1.0161085e-06
6.0454913e-07
3.7091483e-07
2.5856966e-07
2.0378104e-07
1.7340148e-07
1.5361388e-07
1.3832475e-07
1.2520938e-07
1.1378073e-07
1.0389085e-07
9.5314371e-08
8.7841834e-08
8.1314458e-08
7.5580128e-08
7.0478737e-08
6.5906824e-08
6.1801719e-08
5.809551e-08
5.4725853e-08
5.1653404e-08
4.8847019e-08
4.6273004e-08
4.3901419e-08
4.1713225e-08
3.9693367e-08
3.7824626e-08
3.6092004e-08
3.4485715e-08
3.2997157e-08
3.1616729e-08
3.0336363e-08
2.9150582e-08
2.8054394e-08
2.7042918e-08
2.6112837e-08
2.5262486e-08
2.4490484e-08
2.3795398e-08
2.3177251e-08
2.2635967e-08
2.217264e-08
2.179795e-08
2.1504027e-08
2.1304769e-08
2.1199062e-08
2.1184171e-08
2.1256972e-08
2.1413556e-08
2.1645691e-08
2.1938336e-08
2.2276762e-08
2.2650805e-08
2.3038092e-08
2.3405351e-08
2.3720974e-08
2.3959328e-08
2.4119586e-08
2.42027e-08
2.4216015e-08
2.4169785e-08
2.4076945e-08
2.3949266e-08
2.3797134e-08
2.3628855e-08
2.3450397e-08
2.3266189e-08
2.3079597e-08
2.2892611e-08
2.2706493e-08
2.2522582e-08
2.234121e-08
2.2162565e-08
2.1986717e-08
2.18064e-08
2.1622245e-08
2.143643e-08
2.1249835e-08
2.1062897e-08
2.0874898e-08
2.0685563e-08
2.0494832e-08
2.030267e-08
2.010938e-08
1.9915045e-08
1.9720106e-08
1.9524707e-08
1.9329151e-08
1.9133568e-08
1.8938395e-08
1.8742542e-08
1.8549262e-08
1.8346719e-08
1.8169795e-08
1.7915734e-08
1.7772595e-08
1.7384493e-08
1.4111121e-06
1.6300925e-06
1.5384998e-06
1.2880429e-06
1.0361863e-06
8.1129962e-07
6.4378325e-07
5.1799252e-07
4.214324e-07
3.4676251e-07
2.8964671e-07
2.4637197e-07
2.135091e-07
1.8821494e-07
1.6833658e-07
1.5235019e-07
1.3921421e-07
1.2819547e-07
1.1879128e-07
1.106685e-07
1.0359995e-07
9.7409389e-08
9.1962899e-08
8.7162036e-08
8.2835789e-08
7.890377e-08
7.5322308e-08
7.2069526e-08
6.9132084e-08
6.6498115e-08
6.4160021e-08
6.2115376e-08
6.0362977e-08
5.8901708e-08
5.7733098e-08
5.6861874e-08
5.6295013e-08
5.6044619e-08
5.6131092e-08
5.6583629e-08
5.7439128e-08
5.8742765e-08
6.0550134e-08
6.2925911e-08
6.595127e-08
6.9708067e-08
7.425711e-08
7.9649336e-08
8.5898041e-08
9.299587e-08
1.0091458e-07
1.0965104e-07
1.1901399e-07
1.2878161e-07
1.3873958e-07
1.4856845e-07
1.5779571e-07
1.6599392e-07
1.7290494e-07
1.784962e-07
1.8288378e-07
1.862625e-07
1.8882246e-07
1.9063464e-07
1.9186305e-07
1.926523e-07
1.9311633e-07
1.9333869e-07
1.9338035e-07
1.9328564e-07
1.930852e-07
1.9279775e-07
1.9244041e-07
1.920264e-07
1.9156044e-07
1.910433e-07
1.9045977e-07
1.8965722e-07
1.8870089e-07
1.8764327e-07
1.8650131e-07
1.8527978e-07
1.8398019e-07
1.8260815e-07
1.8116863e-07
1.7966927e-07
1.7811751e-07
1.7652086e-07
1.7488754e-07
1.7322418e-07
1.7153756e-07
1.6983361e-07
1.6811815e-07
1.6639486e-07
1.6466613e-07
1.629328e-07
1.612187e-07
1.5926751e-07
1.5790036e-07
1.5464809e-07
1.1013896e-06
1.4047745e-06
1.435836e-06
1.3409649e-06
1.2076186e-06
1.074099e-06
9.6690025e-07
8.8443158e-07
8.2032179e-07
7.6804819e-07
7.2387049e-07
6.7961734e-07
6.3730539e-07
6.0218016e-07
5.7245564e-07
5.4692185e-07
5.2489489e-07
5.0588342e-07
4.8952881e-07
4.7559368e-07
4.6391434e-07
4.5435301e-07
4.4681168e-07
4.4118974e-07
4.335895e-07
4.2645388e-07
4.1995335e-07
4.1429633e-07
4.0968842e-07
4.0632748e-07
4.0442487e-07
4.042005e-07
4.0586724e-07
4.096389e-07
4.1574463e-07
4.2442534e-07
4.3594267e-07
4.5063128e-07
4.6892411e-07
4.9135518e-07
5.185579e-07
5.5127804e-07
5.903876e-07
6.3687953e-07
6.919495e-07
7.5666919e-07
8.319223e-07
9.1823262e-07
1.015688e-06
1.1240575e-06
1.2423427e-06
1.369734e-06
1.5043158e-06
1.6431326e-06
1.7832625e-06
1.9203638e-06
2.0485286e-06
2.1627045e-06
2.2601162e-06
2.3406642e-06
2.4059782e-06
2.4587513e-06
2.4999693e-06
2.5317004e-06
2.5562306e-06
2.5753492e-06
2.5904173e-06
2.6024068e-06
2.6120172e-06
2.6197509e-06
2.6259459e-06
2.6308026e-06
2.6345198e-06
2.6372456e-06
2.6390256e-06
2.6398586e-06
2.639522e-06
2.6357367e-06
2.6295992e-06
2.6218677e-06
2.612774e-06
2.6023837e-06
2.5907318e-06
2.5779095e-06
2.5639943e-06
2.5491002e-06
2.5333319e-06
2.5167972e-06
2.4996091e-06
2.4818607e-06
2.4636465e-06
2.4450513e-06
2.4261523e-06
2.4070274e-06
2.3876459e-06
2.3682667e-06
2.3485489e-06
2.326596e-06
2.3112071e-06
2.2731271e-06
5.0847231e-07
9.5914977e-07
1.1797891e-06
1.2284532e-06
1.200401e-06
1.1428802e-06
1.0803807e-06
1.021329e-06
9.6985727e-07
9.3004886e-07
9.0608687e-07
9.0229715e-07
9.0571694e-07
8.576196e-07
8.2191996e-07
7.945094e-07
7.7450953e-07
7.6001753e-07
7.5000863e-07
7.4384703e-07
7.4113046e-07
7.415733e-07
7.4500695e-07
7.5127201e-07
7.5983993e-07
7.7019771e-07
7.8221117e-07
7.9609827e-07
8.122497e-07
8.3114388e-07
8.5333001e-07
8.7942358e-07
9.1009734e-07
9.4608328e-07
9.8817956e-07
1.0372423e-06
1.0942406e-06
1.1604473e-06
1.2374534e-06
1.3271562e-06
1.4317551e-06
1.5537714e-06
1.6960766e-06
1.8618928e-06
2.0548436e-06
2.2782354e-06
2.5344025e-06
2.8249357e-06
3.1503273e-06
3.5099779e-06
3.9019266e-06
4.3202439e-06
4.7616259e-06
5.2183657e-06
5.6820197e-06
6.1409377e-06
6.5799987e-06
6.9852647e-06
7.3477018e-06
7.6644877e-06
7.9381385e-06
8.1725596e-06
8.3703729e-06
8.5385526e-06
8.6835218e-06
8.810575e-06
8.9238624e-06
9.0264343e-06
9.1204731e-06
9.2075187e-06
9.2886021e-06
9.3643221e-06
9.4351917e-06
9.5016059e-06
9.563668e-06
9.6213085e-06
9.6740473e-06
9.7002504e-06
9.7153798e-06
9.7242474e-06
9.7275737e-06
9.725622e-06
9.7185564e-06
9.7067047e-06
9.6903692e-06
9.6699543e-06
9.6458369e-06
9.6183958e-06
9.5880245e-06
9.5550544e-06
9.5198064e-06
9.4825894e-06
9.4436675e-06
9.4033502e-06
9.361481e-06
9.3192363e-06
9.2746455e-06
9.2241756e-06
9.1898189e-06
9.0978042e-06
2.2507433e-07
4.2725642e-07
6.9862859e-07
8.9329639e-07
9.8966904e-07
1.0234964e-06
1.0250175e-06
1.0107282e-06
9.8909708e-07
9.6533051e-07
9.4374043e-07
9.2872932e-07
9.2197683e-07
9.2302075e-07
9.3198275e-07
9.4896391e-07
9.6927507e-07
9.532981e-07
9.2968113e-07
9.1684e-07
9.1365988e-07
9.1849259e-07
9.304194e-07
9.4881335e-07
9.7331518e-07
1.003757e-06
1.0384752e-06
1.0775291e-06
1.1214611e-06
1.1708039e-06
1.2261604e-06
1.2882649e-06
1.3580275e-06
1.43657e-06
1.5252579e-06
1.6257048e-06
1.7395497e-06
1.8684261e-06
2.0150918e-06
2.1828771e-06
2.3755836e-06
2.5974854e-06
2.8533654e-06
3.1485488e-06
3.4888239e-06
3.8790908e-06
4.3213572e-06
4.8168367e-06
5.3662256e-06
5.9693568e-06
6.6245304e-06
7.3267239e-06
8.0665826e-06
8.8344632e-06
9.6196957e-06
1.0408473e-05
1.1176991e-05
1.1902009e-05
1.2568779e-05
1.3171346e-05
1.3708417e-05
1.4182665e-05
1.4600415e-05
1.4970061e-05
1.5300202e-05
1.5598502e-05
1.5871418e-05
1.6124023e-05
1.6360108e-05
1.6582439e-05
1.6792842e-05
1.6992284e-05
1.7181929e-05
1.7362542e-05
1.7534289e-05
1.7696971e-05
1.7849721e-05
1.7986736e-05
1.8107978e-05
1.8214968e-05
1.8308774e-05
1.8389996e-05
1.8458982e-05
1.8516308e-05
1.8562614e-05
1.8598706e-05
1.8625408e-05
1.8643538e-05
1.8653958e-05
1.8657431e-05
1.8654616e-05
1.8646242e-05
1.8632953e-05
1.8615403e-05
1.8593625e-05
1.8569247e-05
1.854073e-05
1.8499711e-05
1.8478785e-05
1.8401732e-05
1.7530491e-07
2.1588329e-07
3.185611e-07
4.6493327e-07
6.0522844e-07
7.1031078e-07
7.7984873e-07
8.2289188e-07
8.480033e-07
8.6126455e-07
8.6696149e-07
8.6867719e-07
8.6921379e-07
8.7060268e-07
8.7460453e-07
8.8289801e-07
8.9632478e-07
9.1552829e-07
9.4161386e-07
9.7584327e-07
1.0156437e-06
1.061841e-06
1.0570826e-06
1.0562905e-06
1.0671274e-06
1.0882835e-06
1.1197353e-06
1.1617909e-06
1.2149349e-06
1.2798743e-06
1.3575792e-06
1.4493791e-06
1.5572008e-06
1.6840719e-06
1.8350657e-06
2.0182124e-06
2.2360035e-06
2.4752044e-06
2.7407989e-06
3.0384638e-06
3.3739907e-06
3.7534908e-06
4.1837097e-06
4.6725304e-06
5.2299629e-06
5.8553014e-06
6.5392329e-06
7.2796775e-06
8.0783573e-06
8.9363969e-06
9.8528174e-06
1.082305e-05
1.1837279e-05
1.2882127e-05
1.3946337e-05
1.4997787e-05
1.6005639e-05
1.6954635e-05
1.783823e-05
1.8655922e-05
1.9409865e-05
2.0103128e-05
2.0740422e-05
2.1327966e-05
2.1872388e-05
2.2380142e-05
2.2857337e-05
2.3309137e-05
2.3739579e-05
2.41518e-05
2.4546874e-05
2.4924383e-05
2.528914e-05
2.564185e-05
2.5982312e-05
2.6309826e-05
2.6622701e-05
2.6919114e-05
2.7195859e-05
2.745154e-05
2.7686073e-05
2.7899706e-05
2.8092655e-05
2.8265488e-05
2.8418987e-05
2.8554221e-05
2.867238e-05
2.8774692e-05
2.8862505e-05
2.8937079e-05
2.8998878e-05
2.9049643e-05
2.909063e-05
2.9122887e-05
2.9146859e-05
2.9164217e-05
2.9175159e-05
2.916492e-05
2.9174942e-05
2.9133491e-05
1.6890565e-07
1.7480042e-07
1.9622365e-07
2.4158455e-07
3.0835053e-07
3.8392144e-07
4.567114e-07
5.209414e-07
5.7519567e-07
6.1994275e-07
6.5623214e-07
6.8539877e-07
7.0891379e-07
7.2822734e-07
7.4479431e-07
7.6009257e-07
7.7545937e-07
7.921328e-07
8.1144594e-07
8.3489968e-07
8.6345176e-07
8.9846186e-07
9.4051602e-07
9.8987516e-07
1.0450444e-06
1.1061719e-06
1.1742094e-06
1.2083828e-06
1.2333292e-06
1.2729718e-06
1.3285973e-06
1.4020963e-06
1.4959348e-06
1.6131265e-06
1.7576036e-06
1.9348623e-06
2.1514586e-06
2.4125255e-06
2.7238899e-06
3.0927508e-06
3.5277209e-06
4.0392171e-06
4.6406521e-06
5.3514452e-06
6.2042454e-06
6.9694417e-06
7.804882e-06
8.7624565e-06
9.8398106e-06
1.1030678e-05
1.2322223e-05
1.3691077e-05
1.5103927e-05
1.6564117e-05
1.807369e-05
1.9178107e-05
2.0095702e-05
2.1003597e-05
2.1904735e-05
2.2798178e-05
2.3678763e-05
2.4541453e-05
2.5382679e-05
2.6199869e-05
2.6991466e-05
2.7757985e-05
2.8501225e-05
2.9222804e-05
2.9924312e-05
3.0607504e-05
3.1273624e-05
3.1922945e-05
3.255595e-05
3.3172718e-05
3.3772435e-05
3.4353791e-05
3.4914333e-05
3.5452338e-05
3.5964738e-05
3.6448611e-05
3.6902298e-05
3.7325116e-05
3.7716815e-05
3.807774e-05
3.8408663e-05
3.8710796e-05
3.89856e-05
3.9234677e-05
3.9459877e-05
3.9663003e-05
3.9845764e-05
4.000991e-05
4.0157081e-05
4.0288773e-05
4.0406092e-05
4.0510451e-05
4.0604744e-05
4.0668256e-05
4.0744987e-05
4.0789714e-05
1.6818084e-07
1.6866149e-07
1.7195716e-07
1.8125855e-07
1.9895079e-07
2.2489516e-07
2.5727464e-07
2.935708e-07
3.3180566e-07
3.7052168e-07
4.0855623e-07
4.4499706e-07
4.7924145e-07
5.1097062e-07
5.4016238e-07
5.6707845e-07
5.921754e-07
6.1603568e-07
6.3938491e-07
6.6311234e-07
6.8814486e-07
7.1554393e-07
7.4638866e-07
7.817479e-07
8.22382e-07
8.6923362e-07
9.2361254e-07
9.8589298e-07
1.0559102e-06
1.1348561e-06
1.2244357e-06
1.326793e-06
1.4276625e-06
1.4948986e-06
1.5857209e-06
1.7048224e-06
1.858478e-06
2.0547493e-06
2.3034095e-06
2.6161176e-06
3.0069225e-06
3.4926764e-06
4.0933343e-06
4.8323364e-06
5.73831e-06
6.7098617e-06
7.7076922e-06
8.8172298e-06
1.0049932e-05
1.1405938e-05
1.2869986e-05
1.440718e-05
1.5971997e-05
1.7627088e-05
1.9392984e-05
2.06698e-05
2.1768498e-05
2.2849815e-05
2.3924223e-05
2.5000366e-05
2.6080483e-05
2.7165438e-05
2.8250477e-05
2.933019e-05
3.0401102e-05
3.1462016e-05
3.2511413e-05
3.3547123e-05
3.456858e-05
3.5576088e-05
3.656922e-05
3.7547199e-05
3.8509098e-05
3.9453628e-05
4.0378507e-05
4.1281282e-05
4.2158502e-05
4.3007069e-05
4.3823883e-05
4.4605462e-05
4.5348807e-05
4.6051928e-05
4.6713681e-05
4.7333775e-05
4.7912639e-05
4.8451321e-05
4.8951249e-05
4.9414154e-05
4.9842221e-05
5.023767e-05
5.0602911e-05
5.0940129e-05
5.1251402e-05
5.1538633e-05
5.1803716e-05
5.2047612e-05
5.2276147e-05
5.2464678e-05
5.2652223e-05
5.2845111e-05
1.6814541e-07
1.6787277e-07
1.6803213e-07
1.6934634e-07
1.7271267e-07
1.7877127e-07
1.8775388e-07
1.996061e-07
2.141905e-07
2.3139028e-07
2.5107144e-07
2.727407e-07
2.9592913e-07
3.2016381e-07
3.4500832e-07
3.7011279e-07
3.9522966e-07
4.2021254e-07
4.4504073e-07
4.6984061e-07
4.9486722e-07
5.2050813e-07
5.4728403e-07
5.7584121e-07
6.068845e-07
6.4122035e-07
6.798355e-07
7.2370557e-07
7.7372181e-07
8.3104444e-07
8.9722272e-07
9.7368884e-07
1.0619564e-06
1.1633872e-06
1.280191e-06
1.4152405e-06
1.5723294e-06
1.7566007e-06
1.9284805e-06
2.1213808e-06
2.3731006e-06
2.7009713e-06
3.1275343e-06
3.6821164e-06
4.401735e-06
5.3210432e-06
6.2975312e-06
7.3655434e-06
8.5759611e-06
9.9380536e-06
1.1453471e-05
1.311146e-05
1.4888171e-05
1.6777142e-05
1.8775051e-05
2.0624285e-05
2.1909071e-05
2.3189456e-05
2.443785e-05
2.5675015e-05
2.693337e-05
2.8217304e-05
2.9508929e-05
3.0810356e-05
3.2127626e-05
3.3456254e-05
3.4790631e-05
3.6127431e-05
3.7465975e-05
3.8804111e-05
4.013801e-05
4.1465586e-05
4.2784999e-05
4.409285e-05
4.538404e-05
4.6654172e-05
4.789796e-05
4.9110165e-05
5.0286709e-05
5.1423459e-05
5.2516233e-05
5.3561718e-05
5.4557563e-05
5.5502355e-05
5.6395775e-05
5.7238297e-05
5.8030854e-05
5.8774923e-05
5.9472706e-05
6.0126564e-05
6.0739193e-05
6.1313191e-05
6.1851003e-05
6.2354845e-05
6.2827391e-05
6.326905e-05
6.36883e-05
6.4058984e-05
6.4408989e-05
6.4820107e-05
1.681897e-07
1.67814e-07
1.674926e-07
1.6735549e-07
1.6761801e-07
1.6851583e-07
1.7024575e-07
1.7296188e-07
1.7680373e-07
1.8191164e-07
1.8841692e-07
1.9639847e-07
2.0588824e-07
2.1686894e-07
2.2935457e-07
2.4329636e-07
2.5852414e-07
2.7487892e-07
2.9223264e-07
3.1049616e-07
3.2962873e-07
3.496503e-07
3.7065374e-07
3.9281821e-07
4.1640724e-07
4.4177813e-07
4.6941035e-07
4.9989521e-07
5.3391595e-07
5.7229353e-07
6.1605603e-07
6.6639588e-07
7.2469668e-07
7.9253089e-07
8.7185428e-07
9.6463098e-07
1.0735954e-06
1.2023365e-06
1.3546324e-06
1.5353884e-06
1.7516035e-06
2.0126402e-06
2.3307107e-06
2.7214571e-06
3.1864615e-06
3.7660125e-06
4.5194452e-06
5.3773391e-06
6.3845829e-06
7.5556507e-06
8.9029158e-06
1.0432622e-05
1.2141174e-05
1.4023254e-05
1.6074458e-05
1.8245891e-05
2.0452464e-05
2.2483012e-05
2.387278e-05
2.5254919e-05
2.6659608e-05
2.8074014e-05
2.948852e-05
3.0935138e-05
3.2434525e-05
3.3955604e-05
3.5498239e-05
3.7071888e-05
3.8672921e-05
4.0294002e-05
4.1930673e-05
4.3582822e-05
4.5245826e-05
4.6913144e-05
4.857598e-05
5.022718e-05
5.18582e-05
5.346146e-05
5.5031207e-05
5.656154e-05
5.8046741e-05
5.9482182e-05
6.0863872e-05
6.2188685e-05
6.3455057e-05
6.4662313e-05
6.5810271e-05
6.6899618e-05
6.7932023e-05
6.8909522e-05
6.9834649e-05
7.0710088e-05
7.1538447e-05
7.2322066e-05
7.3064256e-05
7.3764808e-05
7.4434284e-05
7.5047036e-05
7.5616128e-05
7.6319484e-05
1.6824324e-07
1.6785063e-07
1.6745944e-07
1.6708827e-07
1.6677807e-07
1.6658683e-07
1.665793e-07
1.6682284e-07
1.6739057e-07
1.6836446e-07
1.6983405e-07
1.718902e-07
1.7462089e-07
1.7810653e-07
1.8242338e-07
1.8763853e-07
1.9379973e-07
2.0093778e-07
2.0907134e-07
2.1821311e-07
2.2840308e-07
2.3972564e-07
2.5219924e-07
2.6583055e-07
2.8067108e-07
2.9682725e-07
3.1446939e-07
3.3384565e-07
3.5528862e-07
3.7922212e-07
4.0618743e-07
4.3686034e-07
4.720776e-07
5.1286458e-07
5.6049827e-07
6.1648429e-07
6.8270794e-07
7.6159313e-07
8.5608268e-07
9.6952692e-07
1.1065167e-06
1.2730943e-06
1.4772214e-06
1.7293402e-06
2.0426699e-06
2.4337006e-06
2.9206584e-06
3.5195004e-06
4.2475372e-06
5.1232974e-06
6.1659494e-06
7.3935329e-06
8.8201062e-06
1.0455784e-05
1.2307928e-05
1.4363662e-05
1.6578809e-05
1.8899594e-05
2.1256099e-05
2.3633682e-05
2.5605098e-05
2.7113022e-05
2.863031e-05
3.0182925e-05
3.176917e-05
3.3372054e-05
3.5018791e-05
3.6742109e-05
3.8508813e-05
4.0313765e-05
4.2168624e-05
4.4074854e-05
4.6018356e-05
4.7989311e-05
4.9979942e-05
5.1979332e-05
5.3974955e-05
5.5958397e-05
5.7921271e-05
5.9854019e-05
6.1749113e-05
6.3600067e-05
6.5400145e-05
6.7143906e-05
6.8827791e-05
7.0449043e-05
7.2005665e-05
7.3496797e-05
7.4922697e-05
7.6284362e-05
7.7583573e-05
7.8822524e-05
8.0003647e-05
8.1129056e-05
8.2202425e-05
8.3222825e-05
8.420225e-05
8.5116845e-05
8.5963685e-05
8.7033187e-05
1.6834494e-07
1.6795278e-07
1.6755432e-07
1.6715093e-07
1.6674908e-07
1.6636023e-07
1.6600023e-07
1.6568872e-07
1.6544952e-07
1.6531154e-07
1.6530909e-07
1.654816e-07
1.658731e-07
1.6653125e-07
1.6750687e-07
1.6885322e-07
1.7062443e-07
1.7287377e-07
1.7565304e-07
1.7901255e-07
1.8300374e-07
1.8768283e-07
1.931046e-07
1.9932275e-07
2.0639495e-07
2.143884e-07
2.2339234e-07
2.3356797e-07
2.4511846e-07
2.5820577e-07
2.7302781e-07
2.8987125e-07
3.0912791e-07
3.3131384e-07
3.5710238e-07
3.8733774e-07
4.2308121e-07
4.6569519e-07
5.1691803e-07
5.7890974e-07
6.5447227e-07
7.4729977e-07
8.6225844e-07
1.0056905e-06
1.1861068e-06
1.4146644e-06
1.7052773e-06
2.0736261e-06
2.5372323e-06
3.1153842e-06
3.8289653e-06
4.699961e-06
5.7503948e-06
7.0015493e-06
8.473815e-06
1.0180195e-05
1.2116041e-05
1.4259089e-05
1.6565294e-05
1.8999633e-05
2.1509811e-05
2.4053285e-05
2.6627654e-05
2.8805552e-05
3.0460169e-05
3.2133607e-05
3.3855469e-05
3.5628154e-05
3.7435825e-05
3.930313e-05
4.1271784e-05
4.3314885e-05
4.5417391e-05
4.7586337e-05
4.9810578e-05
5.2072585e-05
5.43621e-05
5.6671449e-05
5.8986051e-05
6.1292435e-05
6.3582147e-05
6.5844587e-05
6.8068975e-05
7.0247476e-05
7.2373369e-05
7.4440426e-05
7.6443988e-05
7.8380608e-05
8.0248076e-05
8.2045467e-05
8.3772986e-05
8.5431537e-05
8.7022743e-05
8.8547978e-05
9.0010856e-05
9.140948e-05
9.2756615e-05
9.4030697e-05
9.5213875e-05
9.672014e-05
1.6852007e-07
1.6817096e-07
1.6780834e-07
1.6743174e-07
1.6704256e-07
1.6664349e-07
1.6623861e-07
1.6583332e-07
1.6543445e-07
1.6505049e-07
1.6469199e-07
1.6437183e-07
1.6410557e-07
1.6391158e-07
1.6381114e-07
1.6382854e-07
1.63991e-07
1.6432842e-07
1.6487317e-07
1.6565989e-07
1.6672554e-07
1.6810967e-07
1.6985429e-07
1.7200379e-07
1.7460531e-07
1.7770947e-07
1.8137304e-07
1.8566585e-07
1.9067368e-07
1.9649352e-07
2.0323904e-07
2.1105033e-07
2.2010594e-07
2.3067965e-07
2.4315017e-07
2.5786841e-07
2.7526477e-07
2.9594255e-07
3.2071961e-07
3.5067916e-07
3.8724364e-07
4.3229432e-07
4.8834416e-07
5.5876732e-07
6.4817834e-07
7.6291975e-07
9.1152896e-07
1.1049809e-06
1.3571373e-06
1.6848731e-06
2.1080362e-06
2.6490675e-06
3.3322305e-06
4.1826507e-06
5.2257843e-06
6.4855323e-06
7.9794926e-06
9.714983e-06
1.1683696e-05
1.3869193e-05
1.6240459e-05
1.8759255e-05
2.1400034e-05
2.4119733e-05
2.6879147e-05
2.9681842e-05
3.2158433e-05
3.3989294e-05
3.5843312e-05
3.775912e-05
3.9741301e-05
4.177095e-05
4.3880302e-05
4.6123069e-05
4.8444397e-05
5.0834931e-05
5.3307862e-05
5.584397e-05
5.8420403e-05
6.1027924e-05
6.3655936e-05
6.6285407e-05
6.8903293e-05
7.1499521e-05
7.4061872e-05
7.6579844e-05
7.9045246e-05
8.1450627e-05
8.3790266e-05
8.606031e-05
8.8258205e-05
9.0382486e-05
9.2432984e-05
9.4409532e-05
9.6314949e-05
9.8145845e-05
9.9915011e-05
0.00010160296
0.00010317993
0.00010518814
1.6867621e-07
1.6839161e-07
1.6809251e-07
1.6777745e-07
1.6744634e-07
1.6709982e-07
1.6673923e-07
1.6636635e-07
1.6598325e-07
1.6559228e-07
1.6519625e-07
1.6479868e-07
1.64404e-07
1.6401782e-07
1.6364711e-07
1.633004e-07
1.6298791e-07
1.6272172e-07
1.6251587e-07
1.6238644e-07
1.6235165e-07
1.6243197e-07
1.6265018e-07
1.6303155e-07
1.6360386e-07
1.643976e-07
1.6544649e-07
1.6678861e-07
1.6846761e-07
1.7053345e-07
1.7304405e-07
1.7606778e-07
1.7968662e-07
1.8400562e-07
1.8916261e-07
1.9532356e-07
2.0269117e-07
2.1152402e-07
2.2217547e-07
2.3520095e-07
2.5121121e-07
2.7091746e-07
2.9534169e-07
3.259251e-07
3.6469726e-07
4.1451289e-07
4.793825e-07
5.6488954e-07
6.7876365e-07
8.3154543e-07
1.0372634e-06
1.3140025e-06
1.6842984e-06
2.1746737e-06
2.8144405e-06
3.6335793e-06
4.6594313e-06
5.9131595e-06
7.4067754e-06
9.1445195e-06
1.1121333e-05
1.332307e-05
1.573361e-05
1.8325652e-05
2.1064368e-05
2.3929574e-05
2.6887006e-05
2.9893926e-05
3.29587e-05
3.5738261e-05
3.7770761e-05
3.9819753e-05
4.1938071e-05
4.4135566e-05
4.6392796e-05
4.8760823e-05
5.1284458e-05
5.3895113e-05
5.6591353e-05
5.938311e-05
6.2240824e-05
6.5140572e-05
6.8075352e-05
7.1028273e-05
7.3979279e-05
7.6915598e-05
7.9823556e-05
8.2690447e-05
8.550648e-05
8.8263552e-05
9.0954817e-05
9.3575119e-05
9.6121184e-05
9.859008e-05
0.00010098268
0.00010329322
0.00010553351
0.00010768529
0.00010971139
0.00011227939
1.6876838e-07
1.6852873e-07
1.6827876e-07
1.6801668e-07
1.6774158e-07
1.6745306e-07
1.6715129e-07
1.6683682e-07
1.6651032e-07
1.6617241e-07
1.658237e-07
1.6546487e-07
1.6509677e-07
1.6472059e-07
1.6433796e-07
1.6395105e-07
1.6356271e-07
1.6317658e-07
1.6279723e-07
1.6243027e-07
1.6208247e-07
1.6176192e-07
1.6147817e-07
1.6124232e-07
1.6106722e-07
1.6096756e-07
1.609601e-07
1.6106396e-07
1.6130096e-07
1.6169604e-07
1.6227786e-07
1.6307966e-07
1.6414018e-07
1.6550564e-07
1.6723268e-07
1.6939062e-07
1.7206434e-07
1.7535932e-07
1.7941092e-07
1.8440435e-07
1.9057648e-07
1.9822589e-07
2.0774799e-07
2.1970068e-07
2.3497481e-07
2.5461058e-07
2.8002616e-07
3.1335881e-07
3.5776251e-07
4.1783621e-07
5.0021261e-07
6.1438593e-07
7.7380894e-07
9.9708229e-07
1.3088905e-06
1.7400274e-06
2.3257575e-06
3.1011708e-06
4.0951107e-06
5.3263045e-06
6.8031274e-06
8.526293e-06
1.049392e-05
1.2699507e-05
1.512965e-05
1.7770804e-05
2.0600609e-05
2.3584948e-05
2.6706697e-05
2.9936566e-05
3.3228211e-05
3.6592946e-05
3.9601281e-05
4.1822491e-05
4.4078529e-05
4.6421191e-05
4.8852954e-05
5.1352409e-05
5.4013588e-05
5.6840481e-05
5.9757557e-05
6.2780614e-05
6.5908384e-05
6.9102127e-05
7.2341821e-05
7.5616693e-05
7.8901866e-05
8.218137e-05
8.5441127e-05
8.86666e-05
9.1845472e-05
9.4967442e-05
9.802471e-05
0.00010100989
0.00010392047
0.00010674702
0.00010949893
0.00011215792
0.00011468409
0.0001178597
1.6881467e-07
1.6859835e-07
1.6837542e-07
1.6814444e-07
1.6790445e-07
1.6765476e-07
1.6739509e-07
1.6712549e-07
1.6684615e-07
1.6655727e-07
1.662589e-07
1.6595105e-07
1.6563367e-07
1.6530674e-07
1.6497034e-07
1.6462466e-07
1.6427008e-07
1.6390724e-07
1.6353705e-07
1.6316084e-07
1.6278034e-07
1.6239788e-07
1.6201639e-07
1.6163954e-07
1.6127186e-07
1.6091883e-07
1.6058705e-07
1.6028433e-07
1.6001994e-07
1.5980475e-07
1.5965149e-07
1.5957509e-07
1.5959306e-07
1.5972599e-07
1.5999839e-07
1.6043974e-07
1.6108555e-07
1.6197906e-07
1.6317378e-07
1.6473794e-07
1.6675874e-07
1.6934736e-07
1.7264833e-07
1.7685495e-07
1.8224269e-07
1.8918127e-07
1.9817654e-07
2.0995343e-07
2.2568815e-07
2.4705775e-07
2.7630737e-07
3.1695211e-07
3.7439799e-07
4.5684721e-07
5.7656365e-07
7.515231e-07
1.007129e-06
1.3768559e-06
1.9002827e-06
2.6173607e-06
3.5608963e-06
4.7506452e-06
6.1940936e-06
7.8912135e-06
9.8390633e-06
1.2036142e-05
1.4478929e-05
1.7155825e-05
2.0055093e-05
2.3156959e-05
2.6426214e-05
2.9847013e-05
3.3386513e-05
3.6998587e-05
4.0696853e-05
4.3791036e-05
4.6220968e-05
4.8702882e-05
5.1291833e-05
5.3973039e-05
5.6742179e-05
5.9729467e-05
6.2878511e-05
6.613548e-05
6.9512385e-05
7.2991502e-05
7.6532267e-05
8.0125008e-05
8.3748425e-05
8.7378811e-05
9.099934e-05
9.4592562e-05
9.8145301e-05
0.00010164365
0.00010508043
0.00010844096
0.00011173029
0.00011492876
0.00011799588
0.00012181274
1.6883638e-07
1.6863083e-07
1.6842073e-07
1.6820511e-07
1.6798322e-07
1.6775446e-07
1.6751848e-07
1.672752e-07
1.6702469e-07
1.6676703e-07
1.6650223e-07
1.6623022e-07
1.6595084e-07
1.6566388e-07
1.6536914e-07
1.650664e-07
1.6475546e-07
1.6443617e-07
1.6410844e-07
1.6377226e-07
1.6342777e-07
1.6307525e-07
1.6271518e-07
1.623483e-07
1.6197567e-07
1.6159872e-07
1.6121931e-07
1.6083987e-07
1.6046343e-07
1.6009375e-07
1.5973547e-07
1.5939422e-07
1.5907682e-07
1.5879147e-07
1.5854804e-07
1.5835843e-07
1.5823701e-07
1.5820116e-07
1.5827208e-07
1.58476e-07
1.5884564e-07
1.5942216e-07
1.6025795e-07
1.6142098e-07
1.6300216e-07
1.6512404e-07
1.6795401e-07
1.7172614e-07
1.7678898e-07
1.8365678e-07
1.9307231e-07
2.0616107e-07
2.2479371e-07
2.5180781e-07
2.9138667e-07
3.5033276e-07
4.3943968e-07
5.7527978e-07
7.8218252e-07
1.0934227e-06
1.5501729e-06
2.1967855e-06
3.0720753e-06
4.2017297e-06
5.5959586e-06
7.2551415e-06
9.1773452e-06
1.1361335e-05
1.3808642e-05
1.6518738e-05
1.948039e-05
2.2681884e-05
2.6100814e-05
2.9699805e-05
3.3463799e-05
3.7345386e-05
4.1311548e-05
4.5376387e-05
4.8391548e-05
5.1039794e-05
5.3768488e-05
5.6620537e-05
5.9561581e-05
6.2674718e-05
6.6008388e-05
6.9493864e-05
7.311381e-05
7.6866618e-05
8.0716895e-05
8.4633262e-05
8.859843e-05
9.2584121e-05
9.6572807e-05
0.00010054186
0.00010447915
0.00010836257
0.00011219094
0.00011594225
0.00011957073
0.00012404181
1.6884589e-07
1.6864496e-07
1.6844047e-07
1.6823178e-07
1.6801839e-07
1.677998e-07
1.6757573e-07
1.673461e-07
1.6711095e-07
1.6687037e-07
1.6662439e-07
1.6637299e-07
1.6611608e-07
1.6585352e-07
1.6558514e-07
1.6531075e-07
1.6503012e-07
1.6474304e-07
1.6444927e-07
1.6414858e-07
1.6384076e-07
1.635256e-07
1.6320296e-07
1.6287274e-07
1.6253491e-07
1.6218955e-07
1.618369e-07
1.6147732e-07
1.6111144e-07
1.6074011e-07
1.6036455e-07
1.5998632e-07
1.596075e-07
1.5923071e-07
1.5885928e-07
1.5849734e-07
1.5815002e-07
1.5782366e-07
1.5752608e-07
1.5726694e-07
1.5705825e-07
1.5691498e-07
1.5685595e-07
1.5690511e-07
1.5709345e-07
1.5746176e-07
1.5806478e-07
1.5897737e-07
1.6030579e-07
1.6220425e-07
1.6489826e-07
1.6872559e-07
1.7421906e-07
1.8221528e-07
1.9401804e-07
2.1173944e-07
2.3910942e-07
2.8172375e-07
3.4869045e-07
4.5452613e-07
6.2116954e-07
8.7978684e-07
1.2708806e-06
1.8411406e-06
2.636034e-06
3.6900027e-06
5.0209065e-06
6.6325034e-06
8.5231079e-06
1.0693262e-05
1.3145372e-05
1.58839e-05
1.890839e-05
2.2205354e-05
2.5761494e-05
2.9544991e-05
3.3519394e-05
3.7670758e-05
4.1925763e-05
4.6278655e-05
5.0564204e-05
5.3459502e-05
5.6339774e-05
5.9339421e-05
6.2463056e-05
6.5692433e-05
6.9202219e-05
7.2907918e-05
7.6785582e-05
8.0810048e-05
8.4962981e-05
8.9203716e-05
9.3512943e-05
9.7858971e-05
0.0001022248
0.00010657848
0.00011091136
0.00011519825
0.00011937454
0.00012448265
1.6884946e-07
1.6865029e-07
1.6844801e-07
1.6824222e-07
1.6803255e-07
1.6781863e-07
1.6760023e-07
1.6737729e-07
1.6714985e-07
1.6691799e-07
1.6668178e-07
1.6644124e-07
1.6619635e-07
1.6594705e-07
1.6569326e-07
1.6543487e-07
1.6517174e-07
1.6490373e-07
1.6463068e-07
1.6435241e-07
1.6406872e-07
1.6377941e-07
1.6348429e-07
1.6318313e-07
1.6287572e-07
1.6256188e-07
1.6224143e-07
1.6191422e-07
1.6158015e-07
1.612392e-07
1.6089143e-07
1.6053701e-07
1.6017629e-07
1.5980978e-07
1.5943824e-07
1.5906274e-07
1.5868469e-07
1.5830596e-07
1.5792899e-07
1.5755687e-07
1.5719356e-07
1.5684407e-07
1.5651474e-07
1.5621365e-07
1.5595115e-07
1.5574066e-07
1.5559989e-07
1.5555259e-07
1.5563149e-07
1.5588291e-07
1.5637375e-07
1.5720284e-07
1.5852146e-07
1.6056601e-07
1.6370994e-07
1.6855771e-07
1.7613801e-07
1.8813178e-07
2.0733832e-07
2.386466e-07
2.8973267e-07
3.7280562e-07
5.0694578e-07
7.2014776e-07
1.0506252e-06
1.5454377e-06
2.255036e-06
3.2237814e-06
4.4802476e-06
6.0358959e-06
7.8913869e-06
1.0046648e-05
1.2506311e-05
1.5275906e-05
1.8361337e-05
2.1757627e-05
2.544743e-05
2.9414851e-05
3.3611367e-05
3.8006039e-05
4.2576736e-05
4.7235526e-05
5.2005902e-05
5.5902687e-05
5.9015136e-05
6.2166246e-05
6.5472396e-05
6.8882344e-05
7.253746e-05
7.6449567e-05
8.0566394e-05
8.4864459e-05
8.9312687e-05
9.3883145e-05
9.8547338e-05
0.00010326504
0.00010801871
0.00011277879
0.00011744884
0.00012312832
1.6885017e-07
1.6865147e-07
1.6844986e-07
1.6824509e-07
1.6803688e-07
1.6782497e-07
1.6760917e-07
1.6738941e-07
1.6716573e-07
1.6693822e-07
1.6670693e-07
1.6647193e-07
1.6623322e-07
1.659908e-07
1.6574464e-07
1.6549471e-07
1.6524093e-07
1.6498325e-07
1.6472156e-07
1.6445579e-07
1.6418581e-07
1.6391151e-07
1.6363275e-07
1.6334939e-07
1.6306127e-07
1.6276822e-07
1.6247006e-07
1.621666e-07
1.6185767e-07
1.6154308e-07
1.6122265e-07
1.6089623e-07
1.6056369e-07
1.6022494e-07
1.5987998e-07
1.5952884e-07
1.5917171e-07
1.5880889e-07
1.5844088e-07
1.5806837e-07
1.5769238e-07
1.5731427e-07
1.5693584e-07
1.5655949e-07
1.5618833e-07
1.5582646e-07
1.5547928e-07
1.5515402e-07
1.5486049e-07
1.5461235e-07
1.5442902e-07
1.5433883e-07
1.5438425e-07
1.5463074e-07
1.5518135e-07
1.5620207e-07
1.5797014e-07
1.6094897e-07
1.6592168e-07
1.7424536e-07
1.8820075e-07
2.1160144e-07
2.510448e-07
3.1675591e-07
4.2490062e-07
6.000453e-07
8.7715094e-07
1.302065e-06
1.928207e-06
2.8083922e-06
3.9840895e-06
5.4771343e-06
7.2941985e-06
9.4355604e-06
1.1905334e-05
1.4711893e-05
1.7862251e-05
2.136144e-05
2.5193992e-05
2.9337352e-05
3.3767382e-05
3.8421294e-05
4.3277645e-05
4.8271157e-05
5.3369477e-05
5.8450813e-05
6.1819572e-05
6.5166778e-05
6.8624982e-05
7.2227018e-05
7.60227e-05
8.0143323e-05
8.4478645e-05
8.9062945e-05
9.3825636e-05
9.8738893e-05
0.0001037677
0.00010887853
0.00011395153
0.00012006113
1.6884958e-07
1.6865078e-07
1.6844916e-07
1.6824455e-07
1.6803677e-07
1.678256e-07
1.6761089e-07
1.6739259e-07
1.6717072e-07
1.6694534e-07
1.6671652e-07
1.6648431e-07
1.6624875e-07
1.6600985e-07
1.6576763e-07
1.6552207e-07
1.6527316e-07
1.6502088e-07
1.6476519e-07
1.6450605e-07
1.6424341e-07
1.6397722e-07
1.6370742e-07
1.6343393e-07
1.6315667e-07
1.6287553e-07
1.6259042e-07
1.6230122e-07
1.620078e-07
1.6171002e-07
1.6140774e-07
1.611008e-07
1.6078904e-07
1.604723e-07
1.6015041e-07
1.5982323e-07
1.5949062e-07
1.5915248e-07
1.5880875e-07
1.5845942e-07
1.5810457e-07
1.5774437e-07
1.5737914e-07
1.5700937e-07
1.5663576e-07
1.5625932e-07
1.5588143e-07
1.5550401e-07
1.551297e-07
1.5476221e-07
1.5440683e-07
1.5407126e-07
1.5376697e-07
1.5351148e-07
1.5333224e-07
1.5327327e-07
1.534073e-07
1.5385637e-07
1.5482818e-07
1.5668248e-07
1.6004016e-07
1.6596928e-07
1.7633246e-07
1.9425074e-07
2.2492785e-07
2.7723058e-07
3.6469625e-07
5.0857869e-07
7.4033406e-07
1.1033943e-06
1.6522972e-06
2.4463796e-06
3.538933e-06
4.9658014e-06
6.7419879e-06
8.8711267e-06
1.13558e-05
1.4205951e-05
1.7431109e-05
2.1036366e-05
2.5020135e-05
2.9353336e-05
3.4009134e-05
3.8936057e-05
4.4086748e-05
4.9436577e-05
5.4878198e-05
6.0443265e-05
6.4718015e-05
6.8302877e-05
7.1943e-05
7.5743816e-05
7.968405e-05
8.4017843e-05