/*--------------------------------*- C++ -*----------------------------------*\
| =========                 |                                                 |
| \\      /  F ield         | OpenFOAM: The Open Source CFD Toolbox           |
|  \\    /   O peration     | Version:  2206                                  |
|   \\  /    A nd           | Website:  www.openfoam.com                      |
|    \\/     M anipulation  |                                                 |
\*---------------------------------------------------------------------------*/
FoamFile
{
    version     2.0;
    format      ascii;
    arch        "LSB;label=32;scalar=64";
    class       volScalarField;
    location    "1100";
    object      omega;
}
// * * * * * * * * * * * * * * * * * * * * * * * * * * * * * * * * * * * * * //

dimensions      [0 0 -1 0 0 0 0];

internalField   nonuniform List<scalar> 
7480
(
7569.1001
7590.8079
7571.1053
7538.1509
7512.5625
7498.0752
7491.1186
7487.7284
7485.8492
7484.6254
7483.68
7482.8691
7482.1625
7481.5512
7481.021
7480.5592
7480.1557
7479.8014
7479.4861
7479.2036
7478.9499
7478.7209
7478.5127
7478.3229
7478.1495
7477.9904
7477.8439
7477.7087
7477.5839
7477.4685
7477.3615
7477.2622
7477.1703
7477.085
7477.0059
7476.9327
7476.8649
7476.8025
7476.745
7476.6925
7476.6448
7476.6019
7476.5637
7476.5302
7476.5016
7476.4785
7476.4603
7476.448
7476.4415
7476.4406
7476.4451
7476.4547
7476.4691
7476.4872
7476.5081
7476.5312
7476.5551
7476.5778
7476.5973
7476.612
7476.6219
7476.6271
7476.6279
7476.625
7476.6193
7476.6114
7476.602
7476.5916
7476.5806
7476.5692
7476.5577
7476.5461
7476.5346
7476.5233
7476.5121
7476.501
7476.4902
7476.479
7476.4676
7476.4562
7476.4446
7476.4331
7476.4215
7476.4098
7476.398
7476.3861
7476.3742
7476.3622
7476.3502
7476.3381
7476.326
7476.3139
7476.3019
7476.2898
7476.2778
7476.2653
7476.2544
7476.2387
7476.2299
7476.2059
1003.2478
1574.409
1842.5041
1920.785
1937.0278
1923.8622
1863.1608
1797.812
1744.1888
1703.9994
1673.3573
1647.6992
1624.4784
1603.0656
1583.2719
1564.8888
1547.8412
1532.2192
1517.8619
1504.5539
1492.202
1480.7827
1470.1887
1460.3069
1451.0915
1442.5158
1434.5082
1427.0002
1419.9608
1413.3662
1407.1744
1401.3498
1395.8762
1390.7371
1385.9083
1381.3714
1377.1173
1373.1345
1369.4093
1365.9337
1362.706
1359.7237
1356.9839
1354.4899
1352.2335
1350.2284
1348.4725
1346.9658
1345.7233
1344.7383
1344.032
1343.637
1343.4483
1343.4334
1343.5546
1343.7738
1344.0481
1344.3177
1344.5246
1344.6199
1344.5785
1344.3976
1344.123
1343.7465
1343.2668
1342.7073
1342.0894
1341.4339
1340.7565
1340.0689
1339.38
1338.6966
1338.0225
1337.3606
1336.7137
1336.0813
1335.4663
1334.8597
1334.2568
1333.6591
1333.0665
1332.4791
1331.8964
1331.3158
1330.737
1330.1588
1329.5813
1329.0046
1328.4287
1327.8544
1327.2817
1326.7111
1326.1433
1325.5769
1325.0167
1324.4455
1323.8998
1323.338
1322.6626
1322.0507
190.66707
396.62964
585.9538
709.19622
769.24204
785.37133
782.07663
789.19424
803.66688
812.83366
819.31989
823.5399
825.04083
824.14479
821.41749
817.39815
811.93546
805.28107
797.69309
789.38992
780.58389
771.47933
762.21997
752.90982
743.65366
734.54596
725.60269
716.8241
708.22631
699.83285
691.65812
683.71209
676.00832
668.55926
661.37215
654.45493
647.81729
641.45935
635.37837
629.57498
624.05523
618.82682
613.89728
609.27763
604.97501
600.99237
597.33183
593.96992
590.89814
588.10692
585.63363
583.48224
581.54747
579.7951
578.20009
576.70921
575.26058
573.81319
572.35773
570.89261
569.41379
567.90791
566.45662
565.01204
563.55623
562.09183
560.62499
559.16458
557.71889
556.29487
554.89797
553.53265
552.20207
550.90826
549.65306
548.43558
547.2566
546.13839
545.06441
544.02181
543.00393
542.00762
541.03103
540.07057
539.12431
538.18993
537.2662
536.35217
535.44695
534.55056
533.66222
532.78201
531.91004
531.04467
530.18994
529.32899
528.49489
527.65721
526.73858
525.64966
72.002679
121.36367
193.99323
267.71984
324.61871
359.72872
377.79817
386.77216
392.44351
397.561
404.51206
415.22142
426.20465
437.92989
452.27812
470.54987
485.14034
496.53173
505.30158
511.86004
516.53134
519.60719
521.34678
522.01963
521.94158
521.35881
520.00033
517.81438
514.88899
511.34837
507.31167
502.88271
498.15235
493.201
488.10326
482.93349
477.73926
472.50358
467.22608
461.92392
456.62328
451.35186
446.135
440.9971
435.96722
431.03778
426.18811
421.3853
416.61863
411.89599
407.23964
402.74874
398.32432
393.97814
389.74558
385.58163
381.45092
377.39795
373.50935
369.85328
366.4497
363.31537
360.48489
357.88318
355.46068
353.18193
351.01993
348.95586
346.97686
345.07419
343.24175
341.47599
339.77481
338.13585
336.55752
335.03722
333.5741
332.19338
330.88728
329.64023
328.44205
327.28728
326.17315
325.09587
324.05253
323.03987
322.05518
321.0961
320.16024
319.24609
318.35173
317.47595
316.61758
315.77464
314.9485
314.12921
313.32691
312.5742
311.72018
310.75982
55.641595
64.531967
83.910043
111.34807
140.41931
165.52608
184.58034
198.12892
207.73981
214.78671
220.41953
225.66276
230.9597
236.83208
244.0997
253.54846
263.34646
273.15083
282.74731
292.00532
300.8315
309.30622
317.72305
326.7155
337.34858
349.83622
359.69364
366.92347
372.20387
375.98497
378.57298
380.18903
381.0115
381.20805
380.96959
380.50752
379.79979
378.45423
376.46708
373.92321
370.91785
367.53356
363.83822
359.89326
355.77233
351.4746
346.93776
342.13876
337.10433
331.87962
326.51346
321.06621
315.61124
310.15824
304.7433
299.3207
293.91595
288.65207
283.64862
278.9842
274.7223
270.87753
267.40938
264.26119
261.37933
258.71729
256.23553
253.90297
251.69595
249.59668
247.59236
245.67494
243.8372
242.07329
240.3792
238.75108
237.18787
235.69245
234.26764
232.90937
231.6119
230.37078
229.18338
228.0464
226.95694
225.91161
224.90719
223.94063
223.00875
222.10904
221.23913
220.39675
219.57971
218.78573
218.01434
217.26007
216.52031
215.8512
215.10119
214.28362
53.509472
54.437016
58.087863
65.264935
75.157602
86.040931
96.433222
105.64053
113.5407
120.26053
125.96644
130.87299
135.18486
139.11408
142.94338
147.01178
151.42046
156.27164
161.71126
167.81982
174.15853
180.72594
187.52773
194.61606
202.10309
210.07219
218.05413
225.69127
232.80949
239.34781
245.31984
250.80513
255.97466
261.15854
266.96689
274.11985
281.53247
286.10199
288.74791
290.0772
290.44391
290.06517
289.0937
287.67577
285.99135
284.18946
281.82447
278.80162
275.22201
271.19376
266.817
262.18994
257.41295
252.51753
247.55599
242.60067
237.70618
232.95599
228.43049
224.18055
220.22734
216.57803
213.21558
210.11166
207.2364
204.55947
202.05182
199.6893
197.45176
195.32265
193.28941
191.3438
189.47838
187.68724
185.96611
184.31109
182.72127
181.19155
179.7234
178.3184
176.97563
175.69312
174.46926
173.30161
172.18772
171.12462
170.10923
169.13843
168.20889
167.31771
166.46212
165.63948
164.84722
164.08289
163.3451
162.63043
161.93246
161.30321
160.63104
159.8905
53.224017
52.808428
52.958775
54.084862
56.272875
59.363335
62.973015
66.788992
70.617559
74.355999
77.934147
81.305918
84.449532
87.362909
90.076934
92.660272
95.183112
97.716034
100.34311
103.15497
106.19464
109.5302
113.2446
117.38878
121.86692
126.72835
131.94342
137.42821
143.08595
148.8327
154.59597
160.31863
165.96951
171.55862
177.14153
182.82423
188.52763
193.80235
198.43626
202.38446
205.68349
208.42081
210.74828
212.94515
215.47567
218.4738
219.85017
219.66796
218.48702
216.62072
214.28955
211.69331
208.99958
205.97124
202.553
199.04874
195.61151
192.2882
189.03829
185.87064
182.8123
179.87738
177.06694
174.38308
171.82612
169.3889
167.06181
164.83801
162.70818
160.66336
158.69648
156.80272
154.97819
153.22015
151.5262
149.8934
148.32143
146.80614
145.34623
143.94339
142.59876
141.31239
140.08384
138.91169
137.7941
136.72876
135.71313
134.74445
133.81955
132.9356
132.08967
131.27912
130.50147
129.75429
129.03589
128.34358
127.67127
127.05851
126.43596
125.73452
53.161884
52.542221
52.020475
51.71235
51.711649
52.046497
52.632575
53.454711
54.479059
55.668272
56.982675
58.384338
59.837994
61.310729
62.777202
64.224821
65.651485
67.062272
68.47157
69.90344
71.383897
72.944238
74.624517
76.470388
78.518386
80.820115
83.432451
86.359279
89.555234
93.018495
96.738706
100.69622
104.86802
109.23456
113.78683
118.52543
123.43043
128.40924
133.35777
138.17974
142.7944
147.13979
151.1727
154.87727
158.27566
161.33397
163.87692
165.76447
166.99681
167.66708
167.92797
167.97961
167.97324
167.24058
165.72845
163.88001
162.05281
160.27249
158.31697
156.28811
154.24832
152.19729
150.1307
148.07045
146.03335
144.02317
142.04622
140.11472
138.22708
136.38384
134.58663
132.83675
131.13483
129.48384
127.88445
126.33509
124.83711
123.38885
121.98835
120.63648
119.33482
118.08454
116.88625
115.73953
114.64324
113.59602
112.59624
111.64179
110.72995
109.85837
109.02445
108.22581
107.46036
106.72586
106.02068
105.3425
104.68688
104.08111
103.48872
102.8075
53.12553
52.475215
51.838715
51.240346
50.710465
50.271908
49.928894
49.683725
49.538539
49.48256
49.49356
49.598094
49.796055
50.077462
50.428761
50.836849
51.291497
51.784534
52.31069
52.868615
53.460113
54.089865
54.766614
55.503713
56.317358
57.22841
58.263457
59.448387
60.804689
62.358207
64.139025
66.149817
68.387837
70.859421
73.575986
76.546399
79.777038
83.260572
86.974341
90.887599
94.964482
99.164529
103.44376
107.75608
112.06146
116.26044
120.20875
123.79475
126.92967
129.55714
131.6505
133.21211
134.27279
134.87923
135.03897
134.79016
134.37134
133.84231
132.99249
132.00946
130.98858
129.84277
128.54298
127.16055
125.72117
124.22421
122.69195
121.14314
119.58458
118.02568
116.47577
114.94236
113.43068
111.95308
110.51175
109.1048
107.73687
106.40752
105.11468
103.85957
102.64384
101.46896
100.33618
99.245978
98.197695
97.191361
96.226535
95.301978
94.415454
93.565502
92.750276
91.967871
91.216956
90.4956
89.802536
89.135843
88.49287
87.891357
87.317556
86.648103
53.095513
52.438669
51.782586
51.131124
50.491114
49.869905
49.273013
48.705084
48.170902
47.674238
47.216651
46.80222
46.434533
46.115295
45.829947
45.572622
45.355972
45.185436
45.061201
44.981738
44.944944
44.948381
44.991153
45.074743
45.202595
45.380116
45.615227
45.917842
46.29929
46.772934
47.355014
48.061555
48.90909
49.917078
51.109241
52.492136
54.082635
55.899387
57.953969
60.255188
62.812237
65.631874
68.718301
72.072987
75.695844
79.5663
83.601523
87.69933
91.755438
95.662583
99.315451
102.61565
105.47886
107.84953
109.6891
110.92006
111.55005
111.75653
111.73929
111.55884
111.32037
110.95712
110.41604
109.76835
109.01185
108.09008
107.06662
105.96613
104.79403
103.57185
102.31605
101.04206
99.760232
98.502871
97.264693
96.043184
94.841762
93.662275
92.504913
91.37124
90.263127
89.182378
88.130921
87.110168
86.119607
85.160895
84.236204
83.345067
82.48591
81.658004
80.86045
80.092007
79.352588
78.640416
77.954847
77.294535
76.658322
76.057232
75.492322
74.82767
53.069156
52.408932
51.747679
51.085666
50.424018
49.764281
49.10822
48.457869
47.815636
47.184127
46.565813
45.963248
45.379013
44.815517
44.273473
43.753008
43.255517
42.782789
42.336439
41.917632
41.521977
41.139183
40.774059
40.436096
40.131316
39.863218
39.634422
39.447208
39.304056
39.209057
39.168311
39.189266
39.280649
39.452748
39.717949
40.088832
40.580389
41.21097
42.000602
42.960471
44.110675
45.47323
47.072201
48.933759
51.086418
53.560726
56.375455
59.518907
62.961424
66.650045
70.507311
74.431451
78.299743
81.981961
85.355093
88.277904
90.620196
92.352033
93.515525
94.219437
94.58365
94.752519
94.781465
94.706489
94.542699
94.220207
93.780327
93.222875
92.517586
91.712504
90.82789
89.8925
88.916179
87.933569
86.938225
85.931222
84.918356
83.903603
82.890068
81.881591
80.881498
79.89294
78.919361
77.963577
77.027277
76.112851
75.222824
74.358423
73.519969
72.70777
71.921878
71.162031
70.428206
69.719719
69.036546
68.377708
67.743327
67.13982
66.577227
65.912801
53.031157
52.367052
51.702082
51.03601
50.368822
49.700563
49.031496
48.362214
47.693637
47.026908
46.363269
45.704031
45.050571
44.404318
43.766589
43.138563
42.521431
41.916425
41.3248
40.747797
40.186098
39.639317
39.107613
38.592114
38.094442
37.616367
37.158989
36.716512
36.283772
35.869355
35.48367
35.133907
34.82519
34.561524
34.346614
34.185642
34.085662
34.055668
34.106477
34.249573
34.498815
34.871344
35.386776
36.064924
36.933837
38.028023
39.387059
41.049808
43.052255
45.422081
48.171646
51.289546
54.73191
58.417806
62.232601
66.02284
69.600809
72.793256
75.46996
77.593706
79.176167
80.295727
81.050702
81.51917
81.791366
81.933073
81.955839
81.88186
81.674723
81.356264
80.921489
80.392957
79.790485
79.12184
78.394829
77.622925
76.816534
75.981824
75.125253
74.253632
73.372328
72.486393
71.601072
70.720566
69.8483
68.987899
68.142562
67.31469
66.506004
65.717786
64.950987
64.206206
63.483953
62.784325
62.107715
61.453523
60.822869
60.219365
59.658595
58.995506
52.972785
52.293587
51.615879
50.939305
50.263447
49.587801
48.912003
48.23598
47.559952
46.884323
46.209585
45.53627
44.864955
44.196269
43.530879
42.869482
42.212811
41.561638
40.916773
40.279061
39.649327
39.028274
38.41655
37.814853
37.223971
36.644778
36.078162
35.524327
34.982925
34.454554
33.940864
33.444074
32.966333
32.503789
32.049576
31.613537
31.208089
30.84129
30.51875
30.244509
30.023524
29.863472
29.774344
29.768177
29.860367
30.071218
30.426122
30.955097
31.696764
32.696371
34.003923
35.669855
37.737739
40.232902
43.150069
46.438696
49.988746
53.63611
57.183772
60.454605
63.311331
65.684994
67.579955
69.021353
70.06946
70.811989
71.30576
71.622659
71.813294
71.88507
71.85797
71.720841
71.492299
71.18226
70.771187
70.284391
69.735168
69.128362
68.47236
67.777018
67.050018
66.298258
65.529185
64.748747
63.962291
63.175287
62.392046
61.616281
60.851142
60.099015
59.361913
58.64138
57.938653
57.254632
56.590279
55.945529
55.322333
54.722612
54.165261
53.505598
52.92192
52.221863
51.524224
50.829029
50.136067
49.444911
48.755146
48.066547
47.379122
46.693054
46.008598
45.326035
44.64566
43.967778
43.292705
42.620774
41.952332
41.287744
40.627396
39.971695
39.321068
38.675948
38.036772
37.403994
36.778087
36.159556
35.548938
34.946733
34.353353
33.769228
33.194918
32.631156
32.07881
31.538225
31.008969
30.49176
29.988604
29.502122
29.033212
28.572175
28.123398
27.70223
27.31851
26.978428
26.686633
26.45027
26.280467
26.192198
26.205483
26.346903
26.650641
27.159189
27.925978
29.012276
30.481292
32.386492
34.752793
37.554513
40.700591
44.04374
47.40267
50.598945
53.496979
56.004736
58.08217
59.748655
61.033585
61.984032
62.673618
63.14686
63.46696
63.656864
63.73649
63.735934
63.644615
63.469488
63.222791
62.88868
62.476206
62.000903
61.470276
60.890481
60.272126
59.622808
58.949595
58.260459
57.560971
56.856443
56.151758
55.450584
54.756265
54.071441
53.39827
52.738575
52.09401
51.465194
50.854839
50.263952
49.713404
49.060629
52.891964
52.17721
51.464092
50.752954
50.043922
49.336887
48.631663
47.92814
47.226348
46.526447
45.828667
45.133268
44.440522
43.750708
43.064106
42.380999
41.70167
41.026404
40.355484
39.689196
39.027824
38.371651
37.720956
37.076015
36.437103
35.804492
35.178457
34.559272
33.9472
33.342499
32.745436
32.156311
31.575464
31.003219
30.43981
29.88552
29.340812
28.806375
28.282903
27.769915
27.267506
26.777527
26.302692
25.843686
25.38912
24.948815
24.539181
24.169827
23.847715
23.581451
23.385441
23.280094
23.293583
23.464173
23.841881
24.487885
25.47291
26.864359
28.706329
30.997801
33.678059
36.628376
39.695094
42.714556
45.540396
48.07254
50.250884
52.052026
53.500146
54.624187
55.463794
56.07464
56.497226
56.774256
56.94761
57.03046
57.040194
56.970965
56.822773
56.60702
56.312964
55.941974
55.512687
55.030498
54.502823
53.941505
53.352189
52.742182
52.118627
51.486524
50.850951
50.21584
49.5845
48.959918
48.344566
47.739915
47.149452
46.573812
46.035189
45.394227
52.877057
52.154277
51.432244
50.711393
49.991999
49.274152
48.557853
47.843121
47.13005
46.418819
45.709663
45.00285
44.298663
43.597395
42.899345
42.20481
41.51409
40.827484
40.145286
39.467788
38.795277
38.128037
37.466341
36.810458
36.160648
35.517159
34.880232
34.250096
33.626968
33.01105
32.402531
31.801591
31.208402
30.623124
30.045901
29.476864
28.916156
28.363947
27.820439
27.285738
26.759928
26.243277
25.736319
25.239576
24.752195
24.27462
23.809199
23.359058
22.916661
22.481178
22.073969
21.70801
21.393181
21.142674
20.978225
20.931095
21.0446
21.375573
21.991045
22.959549
24.336791
26.144309
28.353838
30.883066
33.606084
36.379399
39.064243
41.543587
43.743724
45.62525
47.175892
48.419289
49.381619
50.094976
50.615301
50.980267
51.217498
51.360207
51.432092
51.434612
51.364776
51.221662
51.018104
50.737422
50.387881
49.988793
49.539733
49.051582
48.534213
47.993144
47.435807
46.867465
46.292878
45.716543
45.141877
44.571469
44.009649
43.457104
42.937255
42.314582
52.870474
52.14362
51.416949
50.690899
49.965789
49.241791
48.519
47.797508
47.077449
46.35901
45.642425
44.92796
44.215894
43.506523
42.800148
42.097073
41.397605
40.702048
40.010709
39.323888
38.641883
37.964988
37.293491
36.627673
35.967808
35.314163
34.666993
34.026547
33.39306
32.766756
32.147846
31.536526
30.93298
30.337373
29.749855
29.170556
28.59959
28.037056
27.483041
26.937611
26.400806
25.872666
25.353259
24.842675
24.34087
23.847841
23.363854
22.889484
22.424362
21.968118
21.523032
21.092635
20.669982
20.256914
19.877817
19.547995
19.281872
19.103126
19.046694
19.159814
19.501655
20.137359
21.126567
22.508039
24.281793
26.399795
28.769391
31.267444
33.764978
36.145649
38.316065
40.22163
41.83591
43.153904
44.20404
45.010639
45.606111
46.035383
46.33754
46.527742
46.633273
46.681465
46.664667
46.579839
46.429818
46.227942
45.946723
45.60953
45.22737
44.8028
44.347182
43.866231
43.36652
42.854433
42.334349
41.810387
41.287817
40.767783
40.275293
39.679045
52.868285
52.139377
51.410324
50.681558
49.953412
49.226098
48.49976
47.774527
47.050552
46.328025
45.607173
44.888249
44.171524
43.457283
42.74582
42.037432
41.33242
40.631084
39.933725
39.240641
38.552129
37.86848
37.189981
36.516916
35.849559
35.18818
34.533042
33.884399
33.242498
32.607573
31.979852
31.359551
30.746873
30.142011
29.545141
28.956428
28.37602
27.804049
27.240628
26.685854
26.139804
25.602534
25.074086
24.554492
24.043752
23.541855
23.048802
22.564648
22.089382
21.622945
21.16555
20.717788
20.279354
19.85025
19.433509
19.033669
18.637066
18.266997
17.94586
17.691197
17.528719
17.49595
17.64213
18.024873
18.704783
19.730909
21.124761
22.868171
24.898795
27.119083
29.411439
31.660793
33.768769
35.660681
37.299499
38.66951
39.776251
40.648911
41.308586
41.790527
42.130832
42.366059
42.501367
42.573765
42.590095
42.547179
42.440769
42.279603
42.062346
41.77961
41.452417
41.082511
40.679153
40.250679
39.801973
39.339314
38.868824
38.392623
37.937845
37.378041
52.868459
52.138511
51.408213
50.677995
49.948199
49.219065
48.49077
47.763469
47.037331
46.312545
45.589334
44.86794
44.148625
43.431664
42.717338
42.005935
41.297746
40.593063
39.892177
39.195379
38.502955
37.815189
37.132361
36.454745
35.78261
35.11622
34.45583
33.801692
33.154046
32.513127
31.87916
31.252362
30.632942
30.021097
29.417014
28.82087
28.232828
27.653043
27.081651
26.518779
25.964536
25.419017
24.882301
24.354452
23.835516
23.325527
22.824505
22.332471
21.849436
21.375398
20.910377
20.454454
20.007654
19.569999
19.141865
18.724119
18.315835
17.919183
17.538931
17.166529
16.819755
16.523774
16.297743
16.169997
16.18034
16.378872
16.820964
17.561902
18.638042
20.054878
21.777594
23.731951
25.817032
27.920839
29.942022
31.798538
33.434917
34.829793
35.97517
36.887119
37.593511
38.115517
38.487392
38.747608
38.915487
38.994557
39.033495
39.016926
38.944492
38.817196
38.645049
38.409021
38.125225
37.802763
37.445083
37.061749
36.658835
36.240244
35.835379
35.324404
52.869953
52.139483
51.408523
50.677499
49.946762
49.216573
48.487137
47.758633
47.031244
46.305164
45.580614
44.857832
44.137071
43.418598
42.702687
41.989618
41.279672
40.573134
39.870287
39.171413
38.476789
37.786692
37.101391
36.421154
35.74624
35.076904
34.413394
33.75595
33.104806
32.460189
31.822316
31.191396
30.567633
29.951217
29.342333
28.741154
28.147845
27.562559
26.985441
26.416622
25.856223
25.304355
24.761113
24.226583
23.700838
23.183939
22.675937
22.176876
21.686796
21.205729
20.733708
20.270769
19.816949
19.372286
18.936853
18.510813
18.094191
17.687261
17.290835
16.904501
16.530243
16.173139
15.824786
15.508533
15.246457
15.059108
14.977766
15.044949
15.310393
15.828383
16.646785
17.787472
19.239042
20.949586
22.83431
24.790201
26.712989
28.516418
30.134114
31.529788
32.695172
33.631317
34.361963
34.911918
35.309998
35.580601
35.766165
35.869071
35.912152
35.912685
35.863338
35.762822
35.618065
35.42458
35.17819
34.895131
34.577739
34.233423
33.892666
33.445898
52.872213
52.141497
51.410185
50.678698
49.947392
49.216549
48.486396
47.757134
47.028962
46.302082
45.576716
44.853101
44.131486
43.412134
42.695313
41.981297
41.270362
40.562787
39.858849
39.158823
38.462982
37.771594
37.084924
36.403231
35.726769
35.055783
34.390516
33.731199
33.07806
32.431315
31.791175
31.157842
30.531509
29.912361
29.300573
28.696312
28.099736
27.510992
26.930221
26.35755
25.793098
25.236974
24.689277
24.150095
23.619508
23.097583
22.584382
22.079958
21.584361
21.097635
20.619823
20.150967
19.69111
19.240296
18.798575
18.36601
17.94266
17.528603
17.123992
16.728888
16.343576
15.96894
15.604612
15.253476
14.921054
14.599489
14.317441
14.093724
13.952029
13.927073
14.063603
14.412365
15.024744
15.937389
17.155954
18.649306
20.348248
22.159712
23.981117
25.719159
27.304135
28.68755
29.852109
30.798045
31.5415
32.1062
32.515762
32.80094
32.99199
33.108225
33.155464
33.166014
33.132267
33.052733
32.930475
32.769651
32.555478
32.304471
32.043917
31.679876
52.874938
52.144126
51.412632
50.680871
49.949203
49.217925
48.487284
47.757503
47.028794
46.30137
45.575457
44.851293
44.129127
43.409219
42.691832
41.977239
41.265713
40.557526
39.852953
39.152265
38.45573
37.763614
37.076175
36.393669
35.716343
35.044441
34.378198
33.71784
33.06359
32.415658
31.774249
31.139558
30.511772
29.891069
29.277618
28.671579
28.073102
27.48233
26.899393
26.324416
25.75751
25.19878
24.64832
24.106213
23.572536
23.047356
22.53073
22.022711
21.523345
21.032674
20.550738
20.077574
19.61322
19.157714
18.711097
18.273413
17.844708
17.42503
17.014432
16.612957
16.220665
15.837703
15.464138
15.100396
14.747569
14.405507
14.078139
13.766449
13.476863
13.232566
13.052526
12.964913
13.00862
13.230565
13.682322
14.409492
15.431754
16.73531
18.266837
19.941569
21.661609
23.330198
24.870335
26.229236
27.381292
28.324901
29.06773
29.635632
30.050161
30.341308
30.532978
30.6548
30.709858
30.72285
30.700364
30.636789
30.533925
30.39531
30.231094
29.970158
52.877953
52.147131
51.415552
50.683627
49.951717
49.220131
48.489135
47.758969
47.029858
46.302029
45.575712
44.851148
44.128587
43.408287
42.690513
41.975532
41.263616
40.555035
39.850062
39.148964
38.452008
37.759454
37.071561
36.388581
35.710757
35.03833
34.371532
33.710587
33.055712
32.407114
31.764995
31.129544
30.500946
29.879373
29.264989
28.657949
28.0584
27.466476
26.882306
26.306006
25.737684
25.177438
24.625358
24.081522
23.546001
23.018856
22.500142
21.989905
21.488184
20.995016
20.51043
20.034455
19.567118
19.108445
18.658463
18.217199
17.784682
17.360943
16.946009
16.539903
16.142643
15.754253
15.374755
15.00421
14.642806
14.290672
13.948448
13.616807
13.297241
12.994369
12.706118
12.45155
12.248463
12.119228
12.097109
12.225229
12.553489
13.131182
13.991013
15.13182
16.514761
18.064511
19.686166
21.282778
22.772114
24.098287
25.227725
26.155815
26.889503
27.451267
27.863643
28.15308
28.343809
28.464975
28.525882
28.539979
28.526682
28.475688
28.407319
28.267562
52.881156
52.150371
51.418765
50.686742
49.954664
49.22285
48.491579
47.761107
47.031676
46.303519
45.576877
44.851994
44.129122
43.408518
42.690447
41.975177
41.262976
40.554114
39.848861
39.147483
38.450245
37.757406
37.069222
36.385942
35.707811
35.035065
34.367934
33.70664
33.051398
32.402414
31.759885
31.124
30.494939
29.872872
29.25796
28.650356
28.050201
27.457628
26.872761
26.295713
25.726587
25.165479
24.612473
24.067644
23.53106
23.002776
22.482842
21.971299
21.468182
20.97352
20.487334
20.009646
19.540471
19.079824
18.627717
18.184163
17.749175
17.322765
16.904944
16.495716
16.095083
15.70304
15.31958
14.944695
14.578396
14.220704
13.871712
13.531587
13.200668
12.879878
12.5697
12.273335
11.99462
11.736692
11.520112
11.363679
11.295583
11.354778
11.589019
12.048934
12.775512
13.778981
15.032225
16.469257
17.998615
19.524209
20.959675
22.244637
23.343394
24.247397
24.964287
25.512298
25.917011
26.198513
26.38599
26.503533
26.568236
26.587116
26.594406
26.549668
52.884484
52.153763
51.422164
50.690084
49.957885
49.225894
48.494401
47.763677
47.033974
46.30554
45.57862
44.853463
44.130325
43.409466
42.691148
41.975639
41.263208
40.554123
39.848653
39.147062
38.449615
37.756569
37.068179
36.384692
35.706352
35.033394
34.366046
33.704529
33.049057
32.399834
31.757055
31.120908
30.491571
29.869212
29.253991
28.646058
28.045553
27.452607
26.86734
26.289864
25.720279
25.158679
24.605145
24.059749
23.522555
22.993618
22.472983
21.960688
21.456762
20.961231
20.47411
19.995415
19.525153
19.06333
18.609948
18.165009
17.728512
17.300456
16.880835
16.469641
16.066862
15.672478
15.286465
14.908794
14.539435
14.178361
13.825555
13.481017
13.144791
12.817031
12.497931
12.188097
11.888577
11.600719
11.328732
11.073633
10.851245
10.678535
10.579529
10.589245
10.752711
11.120773
11.739085
12.62842
13.770701
15.108381
16.553502
18.009581
19.388864
20.627681
21.68979
22.563166
23.257056
23.784964
24.175099
24.446048
24.628774
24.743748
24.823897
24.851387
52.887895
52.157252
51.425681
50.693571
49.961284
49.22915
48.497473
47.766532
47.036593
46.307913
45.580744
44.855343
44.131967
43.410877
42.692339
41.97662
41.263988
40.554711
39.849056
39.147288
38.44967
37.756457
37.067905
36.384259
35.705762
35.032648
34.365145
33.703472
33.047841
32.398457
31.755513
31.119196
30.489683
29.867141
29.251728
28.643594
28.042877
27.449706
26.864201
26.286472
25.716618
25.154729
24.600887
24.055162
23.517616
22.988301
22.467261
21.954531
21.450138
20.954104
20.466442
19.987162
19.516268
19.053758
18.599631
18.153877
17.716489
17.287453
16.866756
16.454378
16.050296
15.654478
15.266891
14.887492
14.516237
14.153079
13.797969
13.450861
13.111718
12.780525
12.45729
12.142097
11.835159
11.536836
11.248029
10.96964
10.704806
10.456782
10.233376
10.051625
9.9322764
9.9067882
10.017413
10.314659
10.846856
11.642763
12.691964
13.943225
15.311904
16.701548
18.024179
19.213893
20.234915
21.072324
21.736208
22.239869
22.612684
22.872484
23.063172
23.17961
52.891362
52.160805
51.429273
50.69715
49.964796
49.232547
48.500711
47.769581
47.039431
46.310528
45.583132
44.857504
44.133907
43.412604
42.693862
41.977947
41.26513
40.555677
39.849854
39.147928
38.450157
37.7568
37.068108
36.384329
35.705702
35.032462
34.364835
33.703041
33.047291
32.397786
31.754723
31.118285
30.48865
29.865983
29.250442
28.642175
28.041321
27.448007
26.862352
26.284465
25.714445
25.152381
24.598352
24.05243
23.514673
22.985134
22.463854
21.950868
21.446201
20.949873
20.461895
19.982274
19.511012
19.048103
18.593541
18.147313
17.709404
17.279796
16.858467
16.445392
16.040538
15.643868
15.255338
14.8749
14.502499
14.138077
13.781574
13.432926
13.09207
12.758948
12.433507
12.115708
11.805544
11.503054
11.208391
10.921804
10.643949
10.375845
10.11952
9.8792984
9.6584846
9.4728581
9.3409215
9.2910567
9.3631235
9.6066039
10.071613
10.792403
11.764645
12.941938
14.242429
15.569799
16.836485
17.975147
18.950344
19.747358
20.378338
20.856125
21.225137
21.475045
52.894866
52.164397
51.432911
50.700786
49.968382
49.236035
48.504063
47.772764
47.042422
46.313314
45.585706
44.859866
44.13606
43.414554
42.695616
41.979516
41.266522
40.556901
39.85092
39.148844
38.450932
37.75744
37.068621
36.384721
35.705978
35.032627
34.364894
33.702997
33.047147
32.397546
31.754387
31.117855
30.488126
29.865366
29.249731
28.64137
28.040419
27.447006
26.86125
26.283258
25.713129
25.150951
24.596804
24.050757
23.512869
22.983191
22.461764
21.948622
21.44379
20.947286
20.45912
19.979297
19.507817
19.044674
18.589857
18.143351
17.705138
17.275195
16.853497
16.440013
16.034706
15.637535
15.248449
14.867395
14.494313
14.129138
13.771802
13.422233
13.080358
12.746104
12.419395
12.100162
11.788337
11.483869
11.186727
10.89692
10.614539
10.339801
10.073171
9.8156679
9.5686367
9.3356421
9.1202031
8.934718
8.7960356
8.7301694
8.7748422
8.9784142
9.392079
10.053798
10.963884
12.079204
13.319952
14.589597
15.800876
16.886432
17.814162
18.568945
19.182226
19.638308
52.898392
52.16801
51.436574
50.704455
49.972012
49.239582
48.507489
47.776038
47.045522
46.316223
45.588417
44.862375
44.138369
43.416667
42.697541
41.98126
41.268094
40.55831
39.852176
39.149954
38.451905
37.758284
37.069343
36.385328
35.706477
35.033023
34.365192
33.703202
33.047262
32.397575
31.754334
31.117722
30.487916
29.865079
29.24937
28.640934
28.03991
27.446423
26.860592
26.282524
25.712318
25.150062
24.595834
24.049703
23.511728
22.981959
22.460438
21.947198
21.442262
20.945648
20.457367
19.977422
19.505811
19.042527
18.587558
18.140888
17.702495
17.272355
16.85044
16.436716
16.031143
15.633676
15.244262
14.862845
14.489359
14.123737
13.765906
13.41579
13.073309
12.738383
12.410928
12.090862
11.778101
11.472564
11.174177
10.882872
10.598604
10.321357
10.051183
9.7882606
9.5329297
9.2859912
9.048638
8.8237823
8.6153344
8.4324505
8.2912015
8.2154688
8.2414275
8.4162134
8.791913
9.4085791
10.270322
11.335175
12.524164
13.739741
14.898023
15.930279
16.829507
17.551374
52.901929
52.171632
51.440246
50.708139
49.975664
49.243164
48.510964
47.779376
47.048698
46.319222
45.591228
44.864994
44.140795
43.418904
42.699594
41.983136
41.269801
40.559857
39.85357
39.151205
38.453021
37.759273
37.070213
36.386085
35.707128
35.033575
34.36565
33.703571
33.047548
32.397781
31.754464
31.11778
30.487903
29.865
29.249226
28.640728
28.039641
27.446094
26.860204
26.282077
25.711812
25.149497
24.595209