/*--------------------------------*- C++ -*----------------------------------*\
| =========                 |                                                 |
| \\      /  F ield         | OpenFOAM: The Open Source CFD Toolbox           |
|  \\    /   O peration     | Version:  2206                                  |
|   \\  /    A nd           | Website:  www.openfoam.com                      |
|    \\/     M anipulation  |                                                 |
\*---------------------------------------------------------------------------*/
FoamFile
{
    version     2.0;
    format      ascii;
    arch        "LSB;label=32;scalar=64";
    class       volScalarField;
    location    "1100";
    object      p;
}
// * * * * * * * * * * * * * * * * * * * * * * * * * * * * * * * * * * * * * //

dimensions      [0 2 -2 0 0 0 0];

internalField   nonuniform List<scalar> 
7480
(
0.054710833
0.042452907
0.028327368
0.01651696
0.0059084113
0.00046156475
-0.00079324725
0.00022338755
0.0017767052
0.0028074021
0.0032832407
0.0034865798
0.0035780289
0.0036072713
0.0036095643
0.0036144324
0.0036225372
0.003616593
0.0036004424
0.0035828941
0.0035627115
0.0035357259
0.0035047884
0.0034732669
0.0034399033
0.0034023076
0.0033619049
0.0033202588
0.0032764912
0.0032298025
0.0031813095
0.0031317832
0.0030806097
0.003027598
0.0029736035
0.0029192277
0.0028645146
0.002810121
0.0027572738
0.0027069902
0.0026601172
0.0026182016
0.0025837473
0.0025591587
0.0025487542
0.0025562259
0.0025862445
0.0026385258
0.0027118112
0.0028066135
0.0029211184
0.0030524431
0.0031961191
0.003345858
0.0034994785
0.0036505752
0.0037810865
0.0038782201
0.0039338688
0.0039512311
0.00393259
0.003884136
0.0038148863
0.0037318991
0.0036403213
0.0035442012
0.0034469163
0.0033497665
0.0032536703
0.0031591727
0.0030663939
0.0029748342
0.0028845072
0.0027954025
0.0027067419
0.0026191108
0.0025315976
0.0024420784
0.0023509853
0.0022584531
0.0021652974
0.0020711168
0.0019747494
0.0018772693
0.0017777762
0.0016769163
0.0015745116
0.0014706175
0.0013658598
0.0012598267
0.0011538196
0.0010475277
0.0009427734
0.00083893453
0.00074283967
0.00064105454
0.00058996921
0.00030882332
0.00083739605
-0.00087601471
0.049734135
0.039217185
0.027261954
0.016368416
0.0065093941
0.0012626989
-8.6570765e-05
0.00069277874
0.0020034978
0.0029312326
0.0033609204
0.0035457614
0.0036288571
0.0036512938
0.0036495735
0.0036527706
0.0036548387
0.0036436945
0.0036245265
0.0036045926
0.0035822245
0.0035532546
0.0035206861
0.0034877643
0.0034531183
0.0034143607
0.0033729551
0.0033304135
0.003285812
0.0032383608
0.0031891876
0.0031390377
0.003087279
0.0030337257
0.0029792334
0.0029243912
0.0028692358
0.0028144245
0.00276118
0.0027105127
0.0026632658
0.002620986
0.0025861745
0.00256123
0.0025505312
0.0025579188
0.0025873984
0.0026392174
0.0027121781
0.0028066678
0.0029208922
0.0030519775
0.0031954567
0.0033450511
0.0034985866
0.0036496506
0.0037801841
0.0038774202
0.0039332245
0.0039507499
0.0039323131
0.003884034
0.0038149261
0.0037320516
0.0036405565
0.0035444926
0.0034472427
0.0033501116
0.0032540225
0.003159524
0.0030667391
0.00297517
0.0028848317
0.0027957144
0.002707041
0.0026193975
0.0025318781
0.0024423583
0.002351262
0.0022587236
0.0021655613
0.0020713743
0.0019750013
0.001877516
0.0017780179
0.0016771531
0.0015747433
0.001470844
0.0013660808
0.0012600421
0.0011540293
0.0010477316
0.00094297168
0.00083912706
0.0007430278
0.0006412346
0.00059021701
0.00030980536
0.00083961052
-0.00087557069
0.045674756
0.037536542
0.026899008
0.016643081
0.0078843141
0.0027912677
0.0010860874
0.0013544101
0.0023397326
0.0031154379
0.0034817888
0.003646581
0.0037169713
0.0037243891
0.0037136098
0.0037097389
0.0037032644
0.0036848372
0.0036608923
0.0036372553
0.0036112759
0.0035789159
0.0035437883
0.0035087225
0.0034720225
0.0034314176
0.0033885318
0.0033447198
0.0032989145
0.0032503672
0.0032002622
0.0031492769
0.0030967263
0.003042448
0.0029873102
0.0029318719
0.0028761528
0.0028208214
0.0027670966
0.0027159724
0.0026682832
0.0026255809
0.0025903636
0.0025650204
0.0025539742
0.0025613755
0.0025903506
0.0026414739
0.0027140625
0.0028081625
0.0029220148
0.0030527503
0.0031959023
0.0033452085
0.0034985285
0.0036494265
0.003779818
0.0038770169
0.0039329178
0.0039505444
0.003932324
0.0038842366
0.0038152929
0.0037325578
0.0036411672
0.0035451743
0.003447967
0.0033508542
0.0032547663
0.0031602571
0.003067453
0.0029758595
0.002885494
0.0027963477
0.0027076446
0.0026199719
0.0025324236
0.0024428815
0.002351769
0.002259213
0.0021660334
0.00207183
0.0019754421
0.0018779439
0.0017784335
0.0016775572
0.0015751362
0.0014712258
0.0013664516
0.001260402
0.0011543784
0.0010480698
0.00094329958
0.00083944409
0.00074333753
0.00064152738
0.00059061894
0.00031138288
0.0008435341
-0.00087499527
0.042954228
0.036235363
0.02654461
0.016943022
0.0091709331
0.0042539882
0.0021676092
0.0020479645
0.0027313941
0.0033526725
0.0036635445
0.0038040087
0.0038513131
0.0038291186
0.0037978322
0.0037821535
0.003765126
0.00373624
0.0037057035
0.0036777544
0.0036473112
0.0036103992
0.0035720499
0.0035343906
0.0034950557
0.0034520101
0.0034073189
0.0033620454
0.0033148164
0.0032649831
0.0032138749
0.0031620318
0.0031086537
0.0030536357
0.0029978842
0.0029418992
0.0028856703
0.0028299045
0.0027758211
0.0027243784
0.0026763938
0.0026334352
0.0025979966
0.0025724569
0.0025611481
0.0025689925
0.0025978816
0.0026482173
0.002720519
0.0028142598
0.0029276889
0.0030579552
0.0032005828
0.0033493366
0.0035021359
0.003652502
0.0037823554
0.0038790372
0.0039347457
0.0039521568
0.0039338709
0.003885796
0.003816888
0.0037342053
0.0036428574
0.0035468874
0.0034496817
0.0033525462
0.0032564184
0.0031618567
0.0030689911
0.0029773298
0.002886895
0.002797678
0.0027089032
0.0026211606
0.0025335113
0.0024438703
0.0023527012
0.0022600979
0.0021668748
0.0020726304
0.0019762051
0.0018786745
0.0017791341
0.0016782309
0.0015757845
0.0014718502
0.0013670533
0.0012609817
0.0011549374
0.0010486083
0.00094381911
0.00083994396
0.00074382367
0.00064198595
0.00059123713
0.00031387989
0.00084996135
-0.00087395823
0.04048531
0.034642001
0.025920105
0.017295523
0.010238907
0.0054604101
0.0032063506
0.0028163137
0.0032073541
0.0036513206
0.0038851896
0.0039750838
0.0039904289
0.0039503782
0.0039081795
0.0038828687
0.0038529899
0.0038084347
0.0037669607
0.003732175
0.0036952705
0.0036520006
0.0036093923
0.0035685982
0.0035260033
0.0034797538
0.0034327238
0.003385568
0.0033364355
0.0032848709
0.0032324769
0.0031795721
0.0031251682
0.0030692672
0.0030128485
0.0029563085
0.0028995738
0.0028434267
0.0027891067
0.0027375037
0.0026893986
0.0026463859
0.0026109514
0.0025854421
0.0025741791
0.0025826447
0.0026115752
0.0026613538
0.0027333674
0.0028266744
0.0029395399
0.0030691211
0.0032109204
0.0033587515
0.0035106681
0.0036601889
0.0037890587
0.0038846206
0.0039397754
0.0039565437
0.0039377584
0.0038894389
0.0038203692
0.0037375911
0.0036461702
0.0035501287
0.0034528448
0.0033556134
0.0032593774
0.003164698
0.0030717067
0.0029799148
0.0028893515
0.0028000059
0.0027111023
0.0026232334
0.0025354191
0.0024456169
0.0023543394
0.0022616409
0.0021683307
0.0020740048
0.0019775045
0.0018799083
0.0017803071
0.0016793498
0.0015768529
0.001472872
0.0013680318
0.0012619188
0.0011558363
0.0010494701
0.00094464685
0.0008407375
0.00074459095
0.00064271219
0.00059218506
0.00031758908
0.0008594677
-0.00087189799
0.038171898
0.033049847
0.025331891
0.017607376
0.01112371
0.0065573751
0.004205298
0.0035634706
0.0037048642
0.0039736624
0.0041195267
0.0041573158
0.0041417983
0.0040875159
0.0040320314
0.0039882397
0.0039429328
0.0038885857
0.0038403215
0.003799616
0.0037551349
0.0037039561
0.0036554199
0.003610395
0.0035637059
0.0035135494
0.0034638108
0.0034145635
0.0033632594
0.0033096856
0.0032558421
0.0032017493
0.0031461808
0.0030893335
0.0030323325
0.0029754206
0.0029182983
0.0028618153
0.0028073355
0.0027556868
0.0027076016
0.0026647126
0.0026294969
0.0026042395
0.002593318
0.002602189
0.0026309658
0.0026804028
0.0027518848
0.0028444846
0.002956524
0.0030851389
0.0032257766
0.003372312
0.0035230039
0.0036713024
0.0037986898
0.0038926746
0.003947074
0.0039629267
0.0039433559
0.0038946941
0.003825383
0.0037424416
0.0036508841
0.0035547121
0.0034572969
0.0033599177
0.0032635242
0.0031686784
0.0030755104
0.0029835393
0.0028928052
0.002803289
0.0027142131
0.0026261734
0.0025381736
0.0024481978
0.0023567731
0.0022639313
0.0021704877
0.0020760361
0.0019794186
0.0018817184
0.0017820206
0.0016809765
0.001578399
0.001474344
0.0013694354
0.0012632572
0.0011571147
0.0010506916
0.00094581589
0.00084185533
0.00074566573
0.00064373374
0.00059350024
0.00032263673
0.00087216488
-0.00086834485
0.03607081
0.031571317
0.024779219
0.017836779
0.011881599
0.0075554786
0.00514117
0.0042715172
0.0041889134
0.0043043156
0.0043651115
0.0043529006
0.0043053976
0.0042331083
0.0041602222
0.0040977062
0.0040385532
0.0039761434
0.0039198005
0.0038693982
0.0038165003
0.0037600716
0.0037074268
0.0036584615
0.0036071441
0.0035525667
0.0034995406
0.0034475941
0.0033935972
0.0033376641
0.0032822131
0.00322684
0.0031699864
0.0031121186
0.0030545577
0.0029973207
0.0029398501
0.0028831291
0.0028286645
0.0027771883
0.0027293706
0.0026869122
0.0026523063
0.0026278643
0.0026171188
0.0026254283
0.0026539872
0.0027033157
0.0027743587
0.002866264
0.0029773541
0.0031047106
0.0032438281
0.0033888122
0.0035371806
0.0036825177
0.0038077407
0.0039002357
0.0039542605
0.0039694039
0.0039491963
0.0039004205
0.0038310416
0.0037480617
0.0036564479
0.0035601952
0.0034626775
0.0033651606
0.0032686086
0.0031735888
0.0030802311
0.0029880635
0.0028971389
0.0028074292
0.002718154
0.0026299145
0.0025417061
0.0024515371
0.0023599376
0.0022669169
0.0021733028
0.0020786877
0.0019819157
0.0018840765
0.0017842483
0.0016830863
0.0015803991
0.001476243
0.0013712409
0.0012649743
0.0011587505
0.0010522505
0.0009473039
0.00084327521
0.0007470245
0.00064502927
0.00059515895
0.00032896682
0.00088770427
-0.0008632143
0.034172218
0.030189507
0.024212473
0.017980245
0.012528186
0.0084465378
0.0060037462
0.0049487032
0.0046708985
0.0046449995
0.0046208375
0.0045574011
0.0044757666
0.0043820947
0.0042914081
0.0042122328
0.0041397147
0.0040678693
0.0040017858
0.0039414114
0.0038812716
0.0038201732
0.0037627375
0.0037081815
0.0036520485
0.0035942962
0.0035386919
0.003484056
0.0034270818
0.0033685076
0.0033111903
0.003254289
0.0031957342
0.0031363741
0.0030778867
0.003019968
0.0029618645
0.0029047864
0.0028503265
0.002799075
0.0027516223
0.0027097654
0.0026760356
0.0026527638
0.002642248
0.0026497181
0.0026779342
0.0027272305
0.0027979577
0.0028892265
0.0029992703
0.0031250763
0.0032624436
0.0034059428
0.0035510319
0.0036919199
0.0038145995
0.0039059817
0.0039600939
0.003974919
0.0039544451
0.0039059001
0.0038367244
0.003753921
0.0036624146
0.0035662034
0.0034686699
0.0033710704
0.003274397
0.0031792283
0.0030856981
0.0029933402
0.0029022217
0.002812309
0.0027228193
0.002634362
0.0025459231
0.0024555394
0.0023637455
0.0022705219
0.0021767105
0.0020819028
0.001984946
0.0018869388
0.0017869514
0.0016856445
0.0015828214
0.0014785396
0.0013734214
0.0012670452
0.0011607209
0.0010541257
0.00094909041
0.00084497759
0.0007486477
0.00064658094
0.00059712814
0.00033645456
0.00090555665
-0.00085666428
0.032451609
0.028898088
0.023638006
0.01805947
0.01307816
0.0092373293
0.0067975811
0.0055975124
0.005149368
0.0049919174
0.0048841857
0.0047686877
0.0046520123
0.0045353091
0.0044260615
0.0043303971
0.0042440492
0.004161676
0.0040860242
0.0040166405
0.0039493473
0.0038827673
0.0038197802
0.0037596096
0.0036992147
0.0036383816
0.0035796465
0.0035216604
0.0034618518
0.0034012811
0.0033423593
0.0032837941
0.0032233178
0.0031622787
0.0031026739
0.0030438725
0.002984913
0.0029271421
0.0028722258
0.0028207268
0.0027731927
0.0027315221
0.0026982913
0.0026757249
0.0026657481
0.0026731522
0.0027009937
0.0027498677
0.0028199767
0.0029104278
0.0030193645
0.0031436812
0.0032794412
0.0034215326
0.00356384
0.0037005343
0.0038203052
0.0039105301
0.0039646191
0.0039793259
0.0039589013
0.0039108306
0.0038420483
0.0037596127
0.0036683913
0.0035723577
0.0034749132
0.0033773133
0.003280585
0.0031853174
0.0030916506
0.0029991295
0.0029078375
0.0028177331
0.0027280319
0.0026393555
0.0025506775
0.0024600689
0.0023680726
0.0022746345
0.0021806118
0.0020855943
0.0019884329
0.001890238
0.001790071
0.0016885991
0.00158562
0.0014811933
0.0013759404
0.0012694369
0.0011629958
0.0010562892
0.00095114986
0.00084693885
0.00075051283
0.00064836818
0.00059936472
0.00034495157
0.00092513769
-0.000848747
0.030888375
0.027698391
0.023067233
0.018084558
0.013539442
0.0099347439
0.0075247586
0.0062143499
0.0056190413
0.005341207
0.0051534394
0.004986334
0.0048341046
0.004692995
0.0045645313
0.0044520229
0.0043516538
0.0042581616
0.0041724869
0.0040942218
0.0040195432
0.0039469663
0.0038785166
0.003813175
0.0037484816
0.0036840693
0.0036219103
0.0035607099
0.0034983104
0.0034357077
0.0033747248
0.0033140876
0.0032518965
0.0031896189
0.0031290187
0.0030692227
0.0030092509
0.0029505824
0.0028950101
0.0028430294
0.0027950877
0.0027531696
0.0027198961
0.0026973257
0.0026873885
0.002694631
0.0027219936
0.0027701768
0.0028394332
0.0029289201
0.0030367579
0.0031597941
0.0032941368
0.0034347578
0.003575188
0.0037091445
0.0038264193
0.0039145934
0.0039676432
0.0039823408
0.0039621987
0.003914725
0.0038465146
0.0037646786
0.003673941
0.0035782096
0.0034809741
0.003383493
0.0032868008
0.0031915044
0.0030977638
0.0030051361
0.002913718
0.0028234568
0.0027335688
0.0026446917
0.0025557839
0.002464957
0.0023727653
0.0022791151
0.0021848812
0.0020896508
0.0019922781
0.0018938878
0.001793531
0.0016918835
0.0015887366
0.0014841525
0.0013787525
0.0012721088
0.0011655385
0.0010587082
0.00095345242
0.00084913183
0.00075259446
0.00065036782
0.00060181981
0.00035431193
0.00094587573
-0.00083938145
0.029465078
0.026588144
0.022505089
0.018060336
0.01391928
0.010545661
0.0081867187
0.0067964604
0.0060768349
0.0056907445
0.0054273837
0.005209596
0.0050215185
0.0048549348
0.0047066292
0.0045770161
0.0044623237
0.0043572954
0.0042614639
0.0041741774
0.0040920165
0.0040131911
0.0039389066
0.003868349
0.0037993011
0.0037310701
0.003665501
0.0036012758
0.0035362208
0.0034712698
0.0034080985
0.0033455659
0.0032818232
0.0032182627
0.003156326
0.0030953234
0.0030344377
0.0029750306
0.0029188932
0.002866394
0.0028179388
0.0027755817
0.0027420049
0.0027190799
0.0027086753
0.0027152865
0.0027418619
0.0027890409
0.0028570652
0.0029452007
0.0030516048
0.0031731128
0.0033058503
0.0034448849
0.003583799
0.0037161905
0.0038319143
0.0039182
0.0039703302
0.0039850176
0.0039644553
0.0039171522
0.003849741
0.0037687383
0.0036786082
0.0035833128
0.0034864625
0.0033892543
0.0032926855
0.0031974429
0.003103727
0.0030110718
0.0029195872
0.002829221
0.0027391897
0.0026501469
0.0025610367
0.0024700178
0.0023776547
0.0022838101
0.0021893815
0.0020939504
0.0019963739
0.0018977934
0.0017972488
0.0016954255
0.0015921082
0.0014873624
0.0013818096
0.0012750186
0.0011683115
0.0010613493
0.00095596798
0.00085152929
0.00075486736
0.00065255693
0.00060444311
0.00036440117
0.00096723522
-0.00082843004
0.028166486
0.025562454
0.021955302
0.017993217
0.014226211
0.01107732
0.0087857801
0.0073423982
0.0065203402
0.0060382563
0.0057042646
0.0054372395
0.005213458
0.0050207568
0.004852128
0.0047052392
0.0045759869
0.0044590984
0.0043529601
0.0042565111
0.0041666516
0.0040813488
0.0040011227
0.0039252618
0.0038517426
0.003779708
0.0037104728
0.0036429703
0.0035752991
0.0035079168
0.0034425458
0.0033781873
0.0033128425
0.0032478031
0.0031844668
0.0031224087
0.0030607023
0.0030005295
0.0029436434
0.0028905294
0.0028416258
0.0027988475
0.0027649121
0.0027415465
0.0027305674
0.0027363631
0.0027619061
0.0028077856
0.0028741962
0.002960545
0.0030650505
0.0031845526
0.0033152325
0.0034523187
0.0035894833
0.0037202005
0.003834439
0.0039198451
0.0039719531
0.0039868453
0.0039662028
0.0039192489
0.0038526095
0.0037718711
0.0036820298
0.0035873784
0.0034911162
0.0033942568
0.0032979011
0.0032028437
0.0031092778
0.0030166621
0.0029251723
0.0028347734
0.002744652
0.0026554899
0.0025662252
0.0024750603
0.0023825658
0.0022885615
0.0021939718
0.0020983672
0.0020006082
0.0019018568
0.0018011385
0.0016991504
0.0015956698
0.0014907665
0.0013850625
0.0012781233
0.0011712771
0.001064179
0.00095866675
0.00085410449
0.0007573069
0.00065491333
0.00060718442
0.00037509376
0.00098870512
-0.00081572828
0.026979241
0.024615521
0.021421219
0.01788997
0.014468059
0.011536223
0.0093244906
0.0078511246
0.0069471202
0.0063812965
0.0059822257
0.0056680456
0.0054091838
0.0051901137
0.005000835
0.0048365483
0.0046925631
0.0045635318
0.0044469154
0.0043411815
0.0042434304
0.0041514603
0.0040652054
0.0039839368
0.0039058047
0.0038298349
0.003756839
0.0036859924
0.0036156135
0.0035458734
0.0034781738
0.0034117162
0.0033447638
0.0032782567
0.0032135224
0.003150399
0.0030878373
0.0030268094
0.0029691493
0.0029155163
0.0028662081
0.0028229603
0.0027885729
0.002764743
0.0027532177
0.002758184
0.0027826156
0.0028270507
0.0028916552
0.0029759685
0.0030782673
0.0031953876
0.0033235811
0.0034582642
0.0035932149
0.0037218219
0.0038342906
0.0039188463
0.0039707652
0.0039860988
0.0039664219
0.0039206671
0.0038548824
0.0037744527
0.003685169
0.0035912284
0.0034950719
0.003398213
0.0033022314
0.003207525
0.0031141425
0.003021616
0.0029302257
0.0028398919
0.0027497277
0.0026605083
0.0025711631
0.0024799058
0.0023873301
0.0022932178
0.0021985141
0.0021027738
0.0020048672
0.0019059771
0.0018051105
0.0017029792
0.0015993524
0.0014943044
0.0013884584
0.0012813768
0.0011743951
0.001067162
0.00096151755
0.0008568297
0.0007598878
0.00065741447
0.00060999342
0.00038626604
0.0010097658
-0.00080109839
0.025891579
0.023741226
0.02090525
0.017756761
0.014651844
0.011928442
0.0098057265
0.0083221095
0.0073550469
0.0067176347
0.0062595412
0.005900833
0.0056079208
0.0053625711
0.0051524839
0.0049707435
0.0048119221
0.0046705278
0.0045432822
0.0044281617
0.0043223581
0.0042235424
0.0041311493
0.0040443681
0.0039614917
0.003881448
0.0038046423
0.0037303918
0.0036571979
0.0035850166
0.0035149166
0.0034463068
0.0033777016
0.0033097408
0.0032436012
0.0031792185
0.0031157055
0.0030538813
0.0029954465
0.002941263
0.0028915236
0.0028477636
0.0028129352
0.0027886849
0.0027765948
0.0027806775
0.0028039229
0.0028468724
0.0029096602
0.0029918798
0.0030918454
0.0032063953
0.0033318611
0.003463838
0.0035962125
0.0037223189
0.0038326314
0.0039159973
0.0039673693
0.0039830007
0.0039643854
0.0039199602
0.003855318
0.0037760206
0.0036878791
0.0035946661
0.0034985924
0.0034019509
0.0033064246
0.0032116398
0.0031180865
0.0030257654
0.0029346044
0.0028443535
0.0027542044
0.0026650386
0.0025756965
0.0024843893
0.0023918002
0.0022976465
0.0022028753
0.0021070452
0.0020090378
0.0019100502
0.0018090691
0.0017068264
0.0016030794
0.0014979081
0.001391938
0.0012847274
0.0011776203
0.0010702589
0.00096448575
0.00085967441
0.00076258254
0.00066003614
0.00061281921
0.00039778933
0.0010298455
-0.00078436823
0.024893109
0.022933429
0.02040887
0.017599172
0.014784171
0.012259841
0.010232639
0.0087553218
0.007742359
0.007045233
0.0065345281
0.0061343683
0.0058088122
0.0055376058
0.0053067503
0.0051075925
0.0049339085
0.004780002
0.0046420044
0.0045174118
0.004403419
0.0042975939
0.0041989537
0.0041065656
0.0040188248
0.0039345814
0.0038539033
0.0037761744
0.0037000588
0.0036253392
0.0035528047
0.0034820124
0.0034116798
0.0033422081
0.003274621
0.0032089333
0.0031444379
0.0030818191
0.0030226221
0.002967748
0.0029174914
0.0028732504
0.0028379674
0.0028133116
0.0028006114
0.0028037446
0.0028257943
0.0028672738
0.0029282351
0.0030083041
0.0031058418
0.0032177453
0.0033404209
0.0034695863
0.0035992144
0.0037226068
0.003830498
0.0039123709
0.0039628398
0.003978489
0.0039609039
0.0039175697
0.003854096
0.0037760516
0.0036890291
0.0035966849
0.0035013313
0.0034054125
0.0033103218
0.0032153937
0.0031218587
0.0030297935
0.0029384561
0.0028479951
0.0027579909
0.002668978
0.0025796443
0.0024883531
0.0023958601
0.0023017253
0.0022069241
0.0021110708
0.0020130157
0.0019139703
0.0018129161
0.0017106019
0.0016067665
0.0015015019
0.001395434
0.0012881155
0.0011809005
0.0010734239
0.00096753143
0.00086260361
0.00076535986
0.00066275115
0.00061561028
0.00040952476
0.0010482748
-0.0007653883
0.023974628
0.022186194
0.019932804
0.017422201
0.014871245
0.012535991
0.010608486
0.0091511311
0.0081076352
0.0073622241
0.0068055475
0.0063673978
0.0060109603
0.0057146412
0.0054632682
0.0052468342
0.0050583408
0.0048918449
0.0047430064
0.0046088755
0.0044865829
0.0043736059
0.0042686163
0.0041705344
0.0040778184
0.0039892563
0.0039046353
0.0038233564
0.003744221
0.0036668768
0.0035918677
0.0035188452
0.0034467045
0.0033756618
0.0033065937
0.0032395803
0.0031740609
0.0031106038
0.0030506155
0.0029950155
0.0029442093
0.0028995329
0.0028636738
0.0028384994
0.0028252482
0.0028274366
0.0028482609
0.0028882284
0.0029473116
0.0030251741
0.0031202452
0.0032294829
0.0033493381
0.003475619
0.0036023873
0.003722982
0.0038283736
0.0039086287
0.0039580389
0.0039735492
0.0039567378
0.0039142599
0.0038517996
0.0037748706
0.003688896
0.0035974831
0.0035029548
0.0034076994
0.0033130883
0.0032185238
0.0031254483
0.0030335977
0.002942026
0.0028515428
0.0027616464
0.0026723881
0.0025828816
0.0024917466
0.002399399
0.0023052914
0.0022105402
0.0021147596
0.0020166979
0.0019176345
0.0018165604
0.0017142144
0.0016103264
0.0015050065
0.0013988737
0.0012914746
0.0011841763
0.001076604
0.0009706079
0.00086557606
0.00076818317
0.00066552792
0.00061831472
0.00042132004
0.0010642511
-0.00074404896
0.023127973
0.021493919
0.019477194
0.017230221
0.014918824
0.012762153
0.010936571
0.009510268
0.0084498084
0.0076669443
0.0070710439
0.0065986815
0.006213444
0.0058930517
0.0056216236
0.0053881715
0.0051850059
0.0050059188
0.0048461935
0.004702483
0.0045718081
0.0044515607
0.0043401282
0.004236272
0.0041384796
0.004045488
0.003956852
0.0038719554
0.0037897087
0.0037096554
0.0036321242
0.0035568219
0.0034827994
0.0034101305
0.0033395478
0.003271177
0.003204582
0.0031402406
0.0030794318
0.0030230873
0.0029717016
0.0029265525
0.0028901241
0.0028643201
0.0028504646
0.002851768
0.002871305
0.0029096861
0.002966854
0.0030424766
0.0031350233
0.0032415563
0.0033585774
0.003481918
0.0036057666
0.00372354
0.0038264021
0.0039049701
0.0039532553
0.0039685444
0.0039523925
0.0039106727
0.0038491295
0.003773094
0.0036880327
0.0035974516
0.0035036749
0.0034090112
0.003314913
0.0032207915
0.0031281033
0.0030364919
0.0029451287
0.0028549755
0.0027651047
0.0026755838
0.002586101
0.002494962
0.0024023622
0.0023082525
0.0022136932
0.0021179829
0.0020199476
0.0019209481
0.0018199149
0.0017175701
0.0016136801
0.0015083468
0.0014021831
0.0012947349
0.001187383
0.0010797397
0.00097366144
0.00086854344
0.00077100954
0.00066832924
0.00062088098
0.00043300807
0.0010768395
-0.00072029867
0.022345888
0.020851408
0.01904175
0.017026969
0.014932195
0.01294329
0.011220213
0.0098337721
0.0087681559
0.0079579495
0.007329562
0.0068270038
0.0064153237
0.0060721664
0.0057813555
0.0055312712
0.0053136606
0.005122059
0.0049514514
0.0047981497
0.0046590398
0.0045314291
0.0044134716
0.0043037693
0.0042008104
0.0041032881
0.0040105654
0.0039219859
0.0038365418
0.0037536965
0.0036735925
0.0035959627
0.0035199898
0.003445638
0.0033735034
0.0033037402
0.0032360204
0.0031707521
0.0031090942
0.0030519794
0.0029999754
0.0029543092
0.0029172881
0.0028908187
0.0028763097
0.002876704
0.0028949088
0.0029316472
0.0029868678
0.0030602123
0.0031501949
0.003253984
0.0033681188
0.0034884618
0.0036093333
0.0037242408
0.0038245574
0.0039013914
0.0039485464
0.003963598
0.0039480562
0.0039070516
0.0038463672
0.0037711796
0.003687005
0.0035970701
0.0035039336
0.00340977
0.0033161004
0.0032223312
0.0031299719
0.0030386308
0.0029475302
0.0028576073
0.0027678356
0.0026784678
0.0025892325
0.0024979703
0.0024051825
0.0023112334
0.0022165918
0.0021206109
0.002022694
0.0019238414
0.0018228507
0.0017205719
0.0016167593
0.001511449
0.0014052906
0.0012978304
0.0011904553
0.0010827688
0.00097663329
0.00087145181
0.0007737901
0.000671112
0.00062325925
0.00044440829
0.0010850473
-0.00069416081
0.021621918
0.020253892
0.018625875
0.016815593
0.014916172
0.013084072
0.0114627
0.01012293
0.0090622764
0.0082340237
0.0075797615
0.0070511882
0.0066156538
0.0062512802
0.0059419618
0.0056757661
0.0054440329
0.0052400741
0.0050586443
0.0048957752
0.0047482093
0.0046131697
0.0044886204
0.0043730105
0.0042648069
0.0041626628
0.0040657839
0.0039734589
0.0038847369
0.0037990201
0.0037162913
0.003636287
0.0035582977
0.0034822054
0.0034084795
0.0033372887
0.0032683971
0.0032021586
0.0031396203
0.0030817062
0.0030290446
0.0029828198
0.002945177
0.0029180146
0.0029027997
0.0029022407
0.0029190808
0.00295414
0.0030073758
0.0030783995
0.0031657726
0.003266762
0.00337795
0.0034952416
0.003613088
0.003725101
0.003822873
0.003897861
0.0039439014
0.0039587146
0.0039437047
0.0039034024
0.0038435473
0.003769303
0.0036860062
0.0035966711
0.0035040221
0.0034103897
0.0033170861
0.0032235105
0.0031313721
0.0030402306
0.0029493235
0.0028595774
0.0027699411
0.0026807456
0.0025916301
0.0025004173
0.0024078521
0.0023141328
0.0022192904
0.0021231911
0.0020253626
0.0019263504
0.0018252948
0.001723199
0.0016194586
0.0015142089
0.0014081211
0.0013006943
0.0011933266
0.0010856322
0.00097946386
0.00087424714
0.00077647318
0.00067382926
0.00062540399
0.0004553321
0.0010880123
-0.00066574348
0.020950313
0.019697033
0.018228772
0.016598701
0.014875087
0.013188868
0.011667264
0.010379223
0.009332065
0.008494185
0.0078204328
0.0072701132
0.0068134966
0.006429665
0.0061029052
0.0058212563
0.0055758214
0.0053597452
0.0051676146
0.0049952419
0.0048392324
0.0046967283
0.0045655385
0.0044439718
0.0043304582
0.0042236126
0.0041225118
0.004026382
0.0039343079
0.0038456441
0.0037602374
0.003677812
0.0035977434
0.0035198529
0.0034444954
0.0033718414
0.0033017318
0.0032344786
0.0031710265
0.0031122829
0.003058925
0.0030120994
0.0029738046
0.0029459158
0.0029299419
0.0029283864
0.0029438326
0.0029771741
0.0030283818
0.0030970412
0.0031817593
0.0032798965
0.0033880855
0.0035022773
0.0036170504
0.0037261293
0.0038213378
0.0038944024
0.0039393184
0.0039538765
0.0039393543
0.0038997422
0.0038407106
0.0037674059
0.0036849333
0.0035963942
0.0035040896
0.0034110521
0.0033180556
0.0032246304
0.0031326454
0.0030415919
0.002950771
0.0028611214
0.0027715626
0.0026824819
0.0025934481
0.0025023434
0.0024099722
0.0023163723
0.002221606
0.0021257407
0.0020279256
0.0019287516
0.0018277865
0.0017256436
0.0016216756
0.0015165737
0.0014106007
0.0013032245
0.0011959231
0.0010882682
0.00098209404
0.00087688099
0.00077900843
0.00067643472
0.00062728021
0.00046559199
0.0010852099
-0.0006352366
0.020325954
0.01917691
0.01784952
0.016378427
0.014812801
0.013261737
0.011837048
0.010604278
0.0095776828
0.0087376853
0.0080505096
0.0074827261
0.0070079342
0.0066065795
0.0062636186
0.0059673113
0.0057086968
0.0054808267
0.0052781815
0.0050964138
0.0049320099
0.004782037
0.0046441795
0.0045166215
0.0043977463
0.0042861317
0.0041807488
0.0040807593
0.0039852653
0.0038935834
0.0038054461
0.0037205532
0.0036383457
0.0035586002
0.0034815696
0.0034074161
0.0033360429
0.00326773
0.0032033293
0.0031437248
0.0030896314
0.003042162
0.0030031822
0.0029745314
0.0029577466
0.0029551519
0.0029691725
0.0030007554
0.0030498911
0.0031161443
0.0031981627
0.003293397
0.0033985355
0.0035095781
0.0036212279
0.0037273386
0.0038199084
0.0038910544
0.0039348186
0.0039490863
0.0039350011
0.0038960657
0.0038378648
0.0037654988
0.0036838392
0.0035960984
0.0035042155
0.0034117144
0.0033190176
0.0032258188
0.0031339596
0.0030429354
0.0029521626
0.0028625287
0.0027729391
0.0026838815
0.0025948656
0.002503824
0.0024115954
0.0023181032
0.0022234791
0.0021277598
0.0020300045
0.0019309817
0.0018302369
0.0017279386
0.00162389
0.0015188652
0.0014127328
0.0013053666
0.0011982042
0.0010905821
0.00098445834
0.00087929842
0.00078134357
0.00067888379
0.00062887169
0.00047501551
0.001076547
-0.00060291111
0.019744274
0.018689994
0.017487144
0.016156498
0.014732722
0.013306426
0.011975086
0.010799829
0.0097995241
0.0089640037
0.0082690779
0.0076880551
0.0071980808
0.0067812796
0.0064235128
0.0061134735
0.0058423032
0.0056030474
0.0053901413
0.0051991364
0.0050264261
0.0048690136
0.0047244852
0.0045909182
0.004466645
0.0043502072
0.0042404895
0.0041365906
0.0040376156
0.0039428499
0.00385193
0.0037645244
0.0036801215
0.0035984656
0.0035197197
0.0034440298
0.003371348
0.0033019303
0.0032365447
0.0031760467
0.0031211782
0.003073021
0.0030333208
0.0030038713
0.0029862243
0.0029825457
0.002995107
0.0030248907
0.0030719112
0.0031357162
0.0032149904
0.0033072718
0.0034093084
0.0035171523
0.0036256305
0.0037287395
0.0038185986
0.0038878299
0.0039304081
0.003944348
0.0039306478
0.0038923735
0.0038350007
0.0037635712
0.0036827445
0.0035957094
0.0035044577
0.0034123885
0.0033199828
0.0032270349
0.0031353017
0.0030443546
0.0029536466
0.0028639694
0.0027742951
0.0026852036
0.0025961124
0.0025050398
0.0024128783
0.0023194506
0.0022249382
0.002129323
0.0020316603
0.0019327853
0.0018321531
0.0017299246
0.0016261027
0.0015210728
0.0014148244
0.0013075152
0.0012002634
0.0010925262
0.00098654242
0.00088140656
0.00078340655
0.00068111781
0.00063016289
0.00048346627
0.0010623221
-0.00056914534
0.019201204
0.018233121
0.017140647
0.015934296
0.014637835
0.013326368
0.012084284
0.010967678
0.0099981828
0.0091728347
0.008475382
0.0078852212
0.0073830936
0.0069530294
0.0065819843
0.0062592625
0.0059762606
0.0057261115
0.0055032675
0.0053032355
0.0051223486
0.0049575611
0.0048063854
0.0046668109
0.0045371196
0.004415819
0.004301723
0.0041938711
0.0040913613
0.0039934519
0.0038996995
0.0038097372
0.0037230858
0.0036394657
0.0035589619
0.0034816981
0.0034076638
0.0033370961
0.0032706882
0.0032092626
0.0031535787
0.0031046892
0.0030642312
0.003033945
0.0030153846
0.0030105759
0.0030216425
0.0030495869
0.003094449
0.0031557638
0.0032322498
0.0033215289
0.003420413
0.0035250095