/*--------------------------------*- C++ -*----------------------------------*\
| =========                 |                                                 |
| \\      /  F ield         | OpenFOAM: The Open Source CFD Toolbox           |
|  \\    /   O peration     | Version:  2206                                  |
|   \\  /    A nd           | Website:  www.openfoam.com                      |
|    \\/     M anipulation  |                                                 |
\*---------------------------------------------------------------------------*/
FoamFile
{
    version     2.0;
    format      ascii;
    arch        "LSB;label=32;scalar=64";
    class       surfaceScalarField;
    location    "1100";
    object      phi;
}
// * * * * * * * * * * * * * * * * * * * * * * * * * * * * * * * * * * * * * //

dimensions      [0 3 -1 0 0 0 0];

oriented        oriented;

internalField   nonuniform List<scalar> 
14782
(
0.00061769432
8.7780474e-05
-0.00070547479
0.00051030098
0.00010739334
0.00040013126
0.00011016971
0.00030667054
9.3460723e-05
0.0002399989
6.6671643e-05
0.00019925965
4.0739247e-05
0.00017534222
2.3917432e-05
0.000161171
1.4171223e-05
0.00015176198
9.4090162e-06
0.00014419385
7.5681292e-06
0.00013732308
6.8707696e-06
0.00013096059
6.3624949e-06
0.00012515102
5.80957e-06
0.00011985757
5.2934443e-06
0.0001150223
4.8352747e-06
0.00011061938
4.4029226e-06
0.00010661269
4.0066879e-06
0.00010292062
3.6920654e-06
9.9492575e-05
3.428047e-06
9.6308777e-05
3.1837976e-06
9.3347046e-05
2.9617308e-06
9.0572514e-05
2.7745325e-06
8.7963826e-05
2.6086874e-06
8.5511576e-05
2.4522506e-06
8.3202949e-05
2.3086262e-06
8.1019362e-05
2.1835867e-06
7.8949838e-05
2.069524e-06
7.6989599e-05
1.9602397e-06
7.513133e-05
1.858268e-06
7.3365581e-05
1.7657491e-06
7.1687224e-05
1.6783575e-06
7.0093907e-05
1.5933171e-06
6.8581442e-05
1.5124648e-06
6.7145136e-05
1.4363057e-06
6.5782789e-05
1.3623469e-06
6.449349e-05
1.2892993e-06
6.327552e-05
1.2179698e-06
6.2127881e-05
1.1476396e-06
6.1051488e-05
1.0763932e-06
6.0048071e-05
1.003417e-06
5.9118858e-05
9.292132e-07
5.8265551e-05
8.5330621e-07
5.7491293e-05
7.7425839e-07
5.6798541e-05
6.92752e-07
5.6195649e-05
6.0289224e-07
5.5687002e-05
5.0864717e-07
5.528147e-05
4.0553174e-07
5.498648e-05
2.9499007e-07
5.4801126e-05
1.853535e-07
5.4723775e-05
7.7350905e-08
5.4749963e-05
-2.6187343e-08
5.4872814e-05
-1.2285158e-07
5.508011e-05
-2.072955e-07
5.535202e-05
-2.7191022e-07
5.5675414e-05
-3.2339403e-07
5.6037488e-05
-3.6207356e-07
5.6404939e-05
-3.674512e-07
5.674065e-05
-3.3571148e-07
5.7008734e-05
-2.6808356e-07
5.7194731e-05
-1.8599717e-07
5.7295419e-05
-1.0068822e-07
5.7313885e-05
-1.8465922e-08
5.7260186e-05
5.3699327e-08
5.7147641e-05
1.1254447e-07
5.6989682e-05
1.5795956e-07
5.6798256e-05
1.9142577e-07
5.6584118e-05
2.1413822e-07
5.635509e-05
2.2902809e-07
5.6117032e-05
2.3805822e-07
5.5874399e-05
2.4263221e-07
5.5630436e-05
2.4396356e-07
5.5386848e-05
2.4358802e-07
5.5145133e-05
2.4171432e-07
5.4906553e-05
2.3858071e-07
5.4671019e-05
2.3553367e-07
5.4439142e-05
2.3187661e-07
5.4207618e-05
2.3152458e-07
5.3971982e-05
2.3563549e-07
5.3733546e-05
2.3843678e-07
5.3493644e-05
2.3990132e-07
5.3253187e-05
2.4045745e-07
5.3012083e-05
2.4110382e-07
5.2769065e-05
2.4301841e-07
5.2524314e-05
2.4475032e-07
5.2277249e-05
2.4706487e-07
5.2028134e-05
2.4911548e-07
5.1777044e-05
2.5108967e-07
5.1524087e-05
2.5295767e-07
5.1269786e-05
2.5430058e-07
5.1013991e-05
2.5579473e-07
5.075728e-05
2.5671097e-07
5.0499516e-05
2.57764e-07
5.0240858e-05
2.5865852e-07
4.9980994e-05
2.5986367e-07
4.9719101e-05
2.6189308e-07
4.945501e-05
2.6409097e-07
4.9209627e-05
2.4538336e-07
4.8806949e-05
4.0267741e-07
4.8816368e-05
-9.4187714e-09
8.4036782e-07
0.00079175604
9.1061312e-05
-0.00079503688
0.00077878221
0.00012036717
0.00075194323
0.00013700869
0.00070879427
0.00013660968
0.0006552592
0.00012020671
0.00060117325
9.4825199e-05
0.00055308239
7.2008291e-05
0.00051315118
5.4102437e-05
0.00048028896
4.2271234e-05
0.00045279081
3.5066273e-05
0.00042916064
3.0500939e-05
0.00040849695
2.7026183e-05
0.00039018663
2.411989e-05
0.00037374496
2.1735115e-05
0.00035882837
1.9751872e-05
0.00034523277
1.7998515e-05
0.00033278564
1.6453822e-05
0.00032131012
1.5167586e-05
0.00031067149
1.4066679e-05
0.00030077956
1.3075724e-05
0.00029155635
1.2184941e-05
0.00028292016
1.1410723e-05
0.00027480857
1.0720269e-05
0.00026717565
1.008517e-05
0.00025997793
9.5063494e-06
0.0002531718
8.989719e-06
0.00024672449
8.5168268e-06
0.00024061329
8.0714409e-06
0.00023481575
7.6558141e-06
0.00022930862
7.2728766e-06
0.00022407512
6.9118615e-06
0.00021910383
6.5646006e-06
0.00021438299
6.2333062e-06
0.00020990114
5.9181557e-06
0.00020565094
5.6125517e-06
0.00020162817
5.3120623e-06
0.0001978291
5.0170457e-06
0.00019425208
4.7246587e-06
0.00019089939
4.4290806e-06
0.00018777594
4.126869e-06
0.0001848872
3.817951e-06
0.0001822405
3.5000033e-06
0.00017984617
3.1685963e-06
0.00017771456
2.8243552e-06
0.00017586762
2.4498378e-06
0.00017432226
2.0540013e-06
0.00017309693
1.6308634e-06
0.00017220747
1.1844483e-06
0.00017165309
7.3973869e-07
0.00017142558
3.0486292e-07
0.00017150846
-1.0907491e-07
0.00017187745
-4.9183514e-07
0.00017249362
-8.2347252e-07
0.00017330195
-1.0802366e-06
0.00017425443
-1.2758679e-06
0.00017529617
-1.4038198e-06
0.00017633348
-1.404764e-06
0.00017726416
-1.2663896e-06
0.00017799729
-1.0012105e-06
0.00017849074
-6.794499e-07
0.00017873689
-3.4683277e-07
0.00017874778
-2.935965e-08
0.00017855086
2.5061694e-07
0.00017818324
4.8017122e-07
0.00017768348
6.5771277e-07
0.00017708627
7.8863834e-07
0.00017642173
8.7867745e-07
0.00017571285
9.3791311e-07
0.00017497698
9.7392439e-07
0.0001742272
9.9241511e-07
0.00017347289
9.9827155e-07
0.00017271974
9.9673857e-07
0.0001719723
9.8915551e-07
0.000171234
9.7687478e-07
0.00017050549
9.6404433e-07
0.00016978749
9.4987479e-07
0.00016906909
9.4992654e-07
0.00016833848
9.6624897e-07
0.00016759996
9.7695776e-07
0.0001668578
9.8206387e-07
0.00016611377
9.8447912e-07
0.00016536723
9.8764345e-07
0.00016461543
9.9482376e-07
0.00016385801
1.0021647e-06
0.00016309389
1.0111945e-06
0.00016232347
1.0195275e-06
0.00016154712
1.0274477e-06
0.00016076533
1.0347417e-06
0.00015997936
1.0402682e-06
0.00015918939
1.0457724e-06
0.00015839662
1.049479e-06
0.00015760136
1.053017e-06
0.00015680362
1.0563992e-06
0.00015600413
1.0593559e-06
0.00015519676
1.0692693e-06
0.0001543952
1.0656462e-06
0.0001535852
1.0553871e-06
0.00015256943
1.4184478e-06
0.00015201155
5.4846156e-07
2.5205852e-06
0.0008315752
8.6589519e-05
-0.00082710341
0.00083709082
0.00011485156
0.00084161832
0.00013248119
0.00084052209
0.00013770591
0.000831406
0.0001293228
0.00081412233
0.00011210887
0.00079127964
9.4850977e-05
0.00076529054
8.0091546e-05
0.00073805312
6.9508653e-05
0.00071107811
6.2041278e-05
0.00068520564
5.6373406e-05
0.00066073299
5.1498836e-05
0.00063766835
4.7184534e-05
0.00061590926
4.3494203e-05
0.0005953908
4.0270331e-05
0.0005760833
3.730601e-05
0.00055792768
3.4609443e-05
0.00054082989
3.2265382e-05
0.00052470595
3.0190617e-05
0.00050949078
2.8290897e-05
0.000495119
2.655672e-05
0.00048151686
2.501286e-05
0.00046862406
2.3613066e-05
0.00045639311
2.2316118e-05
0.00044477785
2.1121615e-05
0.00043372986
2.0037707e-05
0.00042321022
1.9036468e-05
0.00041318903
1.8092632e-05
0.00040363756
1.7207278e-05
0.00039452769
1.6382744e-05
0.00038583801
1.5601546e-05
0.00037755272
1.4849894e-05
0.00036965681
1.4129217e-05
0.00036213675
1.3438211e-05
0.0003549838
1.2765501e-05
0.00034819334
1.2102527e-05
0.00034176258
1.1447802e-05
0.00033569189
1.0795353e-05
0.0003299863
1.013467e-05
0.0003246546
9.4585617e-06
0.00031970759
8.7649613e-06
0.00031515925
8.0483507e-06
0.00031102728
7.3005654e-06
0.00030733168
6.5199564e-06
0.00030410313
5.6783854e-06
0.00030136902
4.788108e-06
0.00029914947
3.8504162e-06
0.00029745698
2.8769424e-06
0.00029628704
1.9096745e-06
0.00029562207
9.6983754e-07
0.00029543083
8.2156463e-08
0.00029567014
-7.3113828e-07
0.00029627828
-1.4316122e-06
0.00029717446
-1.9764146e-06
0.00029828059
-2.3819966e-06
0.00029950159
-2.6248212e-06
0.00030069945
-2.602625e-06
0.00030173327
-2.3002108e-06
0.00030248739
-1.7553318e-06
0.0003029072
-1.0992627e-06
0.00030298434
-4.2396728e-07
0.00030273699
2.1798583e-07
0.00030220403
7.8357452e-07
0.00030143746
1.2467478e-06
0.00030049019
1.604976e-06
0.00029940991
1.8689197e-06
0.00029823794
2.0506542e-06
0.00029700668
2.1691706e-06
0.000295741
2.2396017e-06
0.00029445968
2.2737371e-06
0.00029317619
2.2817629e-06
0.00029189918
2.2737478e-06
0.00029063548
2.2528584e-06
0.00028938997
2.2223839e-06
0.00028816397
2.1900437e-06
0.00028695762
2.1562208e-06
0.00028575366
2.1538931e-06
0.00028453713
2.1827786e-06
0.00028331577
2.1983182e-06
0.00028209418
2.2036488e-06
0.00028087304
2.2056183e-06
0.00027965052
2.2101663e-06
0.00027842284
2.2225e-06
0.00027718866
2.2363451e-06
0.00027594634
2.2535188e-06
0.00027469603
2.2698395e-06
0.00027343804
2.2854336e-06
0.00027217309
2.2996936e-06
0.00027090265
2.3107057e-06
0.00026962723
2.3211931e-06
0.00026834825
2.3284608e-06
0.00026706647
2.3347967e-06
0.0002657816
2.341263e-06
0.00026449551
2.3454454e-06
0.00026319737
2.3674127e-06
0.00026191293
2.3500837e-06
0.00026058321
2.3851125e-06
0.00025909889
2.9027638e-06
0.00025782476
1.8225935e-06
4.5951224e-06
0.00086137141
8.2258876e-05
-0.00085704077
0.00086790683
0.00010831614
0.00087519699
0.00012519103
0.00088222213
0.00013068077
0.00088612903
0.0001254159
0.00088511389
0.00011312401
0.00088102761
9.8937255e-05
0.00087430396
8.6815195e-05
0.00086521822
7.8594397e-05
0.00085401494
7.3244552e-05
0.00084102384
6.9364507e-05
0.0008264456
6.607708e-05
0.00081064492
6.2985213e-05
0.00079421116
5.9927957e-05
0.00077748383
5.6997661e-05
0.00076068846
5.4101384e-05
0.0007439638
5.1334105e-05
0.00072739766
4.8831525e-05
0.00071107493
4.6513339e-05
0.00069507452
4.4291305e-05
0.00067945164
4.2179602e-05
0.00066423332
4.0231181e-05
0.00064944118
3.8405208e-05
0.00063509348
3.6663815e-05
0.00062119908
3.5016015e-05
0.00060775467
3.3482119e-05
0.00059475713
3.2034003e-05
0.00058220432
3.0645447e-05
0.00057008984
2.9321753e-05
0.00055840418
2.8068407e-05
0.00054714095
2.6864771e-05
0.00053629633
2.5694521e-05
0.00052586556
2.4559983e-05
0.00051584452
2.3459249e-05
0.0005062332
2.2376829e-05
0.00049703547
2.1300248e-05
0.00048825627
2.022701e-05
0.00047990198
1.9149638e-05
0.00047198273
1.8053921e-05
0.00046451221
1.6929086e-05
0.0004575065
1.5770668e-05
0.00045098523
1.4569625e-05
0.00044497158
1.3314213e-05
0.00043949259
1.1998944e-05
0.00043458128
1.0589692e-05
0.00043026445
9.1049411e-06
0.00042655274
7.5621241e-06
0.00042344487
5.9848202e-06
0.00042092942
4.4251182e-06
0.00041898365
2.9156117e-06
0.00041757305
1.4927576e-06
0.00041664798
1.9393228e-07
0.00041613775
-9.2137952e-07
0.00041595901
-1.7976787e-06
0.00041602562
-2.4486054e-06
0.0004162198
-2.8190072e-06
0.00041638975
-2.7725714e-06
0.00041640264
-2.3130994e-06
0.00041616392
-1.5166137e-06
0.00041563285
-5.6819537e-07
0.00041480571
4.0317566e-07
0.00041370212
1.3215743e-06
0.0004123588
2.1268935e-06
0.00041082063
2.7849171e-06
0.00040913307
3.2925349e-06
0.000407338
3.6639899e-06
0.00040547277
3.9158842e-06
0.00040356765
4.0742901e-06
0.00040164651
4.1607428e-06
0.00039972768
4.1925729e-06
0.00039782434
4.1850978e-06
0.0003959454
4.1526962e-06
0.00039409804
4.1002188e-06
0.0003922871
4.0333162e-06
0.00039051369
3.9634595e-06
0.00038877652
3.8933918e-06
0.00038707025
3.8601564e-06
0.00038538745
3.8655827e-06
0.00038372341
3.8623555e-06
0.00038207418
3.8528842e-06
0.00038043685
3.8429482e-06
0.00037880796
3.8390556e-06
0.00037718268
3.8477754e-06
0.00037555838
3.8606444e-06
0.00037393249
3.8794091e-06
0.00037230426
3.8980715e-06
0.00037067333
3.916359e-06
0.00036903991
3.9331183e-06
0.000367405
3.9456206e-06
0.00036576882
3.9573699e-06
0.0003641324
3.9648779e-06
0.00036249645
3.9707439e-06
0.00036086012
3.9775959e-06
0.00035922579
3.9797814e-06
0.00035757934
4.0138567e-06
0.0003559528
3.9766265e-06
0.00035426345
4.0744595e-06
0.00035246867
4.6975407e-06
0.00035066053
3.63074e-06
6.8178068e-06
0.00089166275
7.853379e-05
-0.00088793767
0.00089769527
0.00010228362
0.00090490198
0.00011798432
0.00091180669
0.00012377606
0.00091697244
0.00012025015
0.00091990053
0.00011019593
0.00092054082
9.8296968e-05
0.00091939714
8.795887e-05
0.00091750948
8.0482063e-05
0.00091495761
7.5796413e-05
0.00091166755
7.265457e-05
0.00090741928
7.0325347e-05
0.00090196773
6.8436762e-05
0.00089525197
6.6643721e-05
0.00088734499
6.4904639e-05
0.00087826851
6.3177863e-05
0.00086817313
6.1429489e-05
0.00085734705
5.9657606e-05
0.00084595304
5.7907345e-05
0.00083411212
5.613223e-05
0.00082192272
5.4368997e-05
0.00080946326
5.2690639e-05
0.00079681153
5.1056941e-05
0.0007840463
4.942904e-05
0.00077123672
4.7825597e-05
0.00075843882
4.6280019e-05
0.0007457054
4.4767426e-05
0.00073308384
4.3267001e-05
0.00072061197
4.1793622e-05
0.00070832009
4.0360294e-05
0.00069623715
3.8947708e-05
0.00068439031
3.7541358e-05
0.00067280255
3.6147746e-05
0.00066149501
3.4766787e-05
0.00065049144
3.3380401e-05
0.00063981786
3.197383e-05
0.00062949483
3.0550041e-05
0.0006195385
2.9105964e-05
0.00060996829
2.7624128e-05
0.00060080717
2.6090207e-05
0.00059208008
2.4497758e-05
0.00058381473
2.2834979e-05
0.00057604141
2.1087534e-05
0.00056879738
1.9242975e-05
0.00056211375
1.7273321e-05
0.00055599993
1.5218759e-05
0.00055045168
1.3110376e-05
0.00054546348
1.0973016e-05
0.0005410298
8.8587981e-06
0.00053713737
6.8080436e-06
0.00053376269
4.8674396e-06
0.00053086502
3.0915992e-06
0.00052838124
1.5623989e-06
0.00052624732
3.362439e-07
0.00052437182
-5.7310768e-07
0.0005226083
-1.0554822e-06
0.00052082225
-9.8651881e-07
0.00051893923
-4.3008602e-07
0.00051692123
5.0138713e-07
0.00051475727
1.5957711e-06
0.00051245188
2.7085651e-06
0.00051001792
3.7555333e-06
0.00050747503
4.6697844e-06
0.000504847
5.4129464e-06
0.00050215893
5.9806059e-06
0.00049943529
6.3876253e-06
0.00049669948
6.6516954e-06
0.00049397137
6.8023996e-06
0.0004912674
6.864718e-06
0.00048860052
6.8594477e-06
0.0004859801
6.8055195e-06
0.00048341291
6.7198824e-06
0.00048090472
6.6084136e-06
0.0004784587
6.4793378e-06
0.00047607457
6.3475836e-06
0.00047374951
6.2184552e-06
0.00047148471
6.1249531e-06
0.00046927857
6.0717229e-06
0.00046712061
6.0203139e-06
0.00046500079
5.9727067e-06
0.00046291264
5.9310959e-06
0.00046085081
5.9008896e-06
0.00045880927
5.8893155e-06
0.00045678402
5.885895e-06
0.00045477131
5.8921209e-06
0.00045276911
5.9002724e-06
0.00045077593
5.9095324e-06
0.00044879095
5.9181054e-06
0.00044681416
5.9224048e-06
0.00044484502
5.9265102e-06
0.00044288373
5.9261673e-06
0.00044093047
5.9240096e-06
0.0004389835
5.9245665e-06
0.00043704511
5.9181655e-06
0.00043509889
5.9600758e-06
0.00043317908
5.8964436e-06
0.0004311926
6.0609329e-06
0.00042914116
6.7489825e-06
0.00042690304
5.8688574e-06
9.1377986e-06
0.00092305618
7.5202933e-05
-0.00091972532
0.00092857527
9.6764523e-05
0.00093514829
0.00011141131
0.00094156698
0.00011735737
0.0009467164
0.00011510073
0.00094995996
0.00010695236
0.00095154762
9.6709313e-05
0.00095192196
8.7584527e-05
0.00095158265
8.0821378e-05
0.00095107044
7.6308616e-05
0.00095042215
7.3302859e-05
0.00094957193
7.117557e-05
0.00094842065
6.9588039e-05
0.00094684158
6.8222797e-05
0.00094475769
6.6988531e-05
0.00094203326
6.5902285e-05
0.00093852765
6.4935103e-05
0.00093419926
6.3985992e-05
0.00092905378
6.3052825e-05
0.00092307051
6.2115505e-05
0.00091630301
6.1136491e-05
0.00090887882
6.011483e-05
0.00090087388
5.9061885e-05
0.00089234696
5.7955958e-05
0.00088335041
5.6822152e-05
0.00087393679
5.569364e-05
0.00086416265
5.4541562e-05
0.00085408217
5.3347479e-05
0.00084374796
5.2127833e-05
0.00083321158
5.089668e-05
0.00082252556
4.9633719e-05
0.00081174099
4.8325934e-05
0.00080090413
4.6984605e-05
0.0007900579
4.5613015e-05
0.00077924518
4.4193124e-05
0.00076850887
4.2710139e-05
0.00075789089
4.1168021e-05
0.00074743291
3.9563948e-05
0.00073717659
3.7880445e-05
0.00072716337
3.610343e-05
0.00071743419
3.4226936e-05
0.00070803148
3.2237687e-05
0.0006989999
3.0119109e-05
0.00069039754
2.7845336e-05
0.00068223194
2.5438928e-05
0.00067447988
2.2970812e-05
0.00066716351
2.0426755e-05
0.00066031485
1.7821671e-05
0.0006539525
1.522115e-05
0.00064807624
1.2684299e-05
0.00064266829
1.0275397e-05
0.00063768978
8.0701077e-06
0.00063309018
6.1619925e-06
0.00062884148
4.5849492e-06
0.00062481422
3.4541497e-06
0.00062081806
2.9406742e-06
0.00061680123
3.0303173e-06
0.00061278933
3.5818151e-06
0.00060879724
4.4934783e-06
0.00060482946
5.5635488e-06
0.00060088936
6.6486616e-06
0.0005969789
7.6659978e-06
0.00059309967
8.5490153e-06
0.00058925581
9.2567993e-06
0.0005854536
9.7828192e-06
0.00058170037
1.0140857e-05
0.00057800464
1.0347421e-05
0.0005743744
1.0432645e-05
0.00057081694
1.0422181e-05
0.00056733854
1.0337846e-05
0.00056394432
1.0199739e-05
0.00056063743
1.0026768e-05
0.00055741991
9.8259352e-06
0.00055429231
9.6069402e-06
0.00055125249
9.3873979e-06
0.00054829647
9.1744837e-06
0.00054542252
8.9988978e-06
0.00054262921
8.8650307e-06
0.00053990967
8.7398575e-06
0.00053725392
8.6284577e-06
0.00053465385
8.5311626e-06
0.00053210264
8.452104e-06
0.00052959317
8.3987798e-06
0.00052712024
8.3588292e-06
0.0005246789
8.3334612e-06
0.00052226578
8.3133895e-06
0.00051987809
8.2972259e-06
0.0005175137
8.2824961e-06
0.00051517136
8.2647398e-06
0.00051284962
8.248256e-06
0.00051054767
8.2281106e-06
0.00050826462
8.2070594e-06
0.00050599761
8.191581e-06
0.00050374832
8.1674508e-06
0.00050149876
8.2096435e-06
0.00049928281
8.1123907e-06
0.00049700324
8.3405054e-06
0.00049469305
9.0591704e-06
0.0004920623
8.4996076e-06
1.1586669e-05
0.0009554349
7.2203036e-05
-0.000952435
0.00096051944
9.1679983e-05
0.00096658914
0.00010534161
0.00097255861
0.0001113879
0.00097744121
0.00011021813
0.00098068795
0.00010370562
0.00098244035
9.4956911e-05
0.00098320011
8.6824766e-05
0.0009834103
8.0611191e-05
0.00098339528
7.6323638e-05
0.00098330549
7.3392645e-05
0.00098318981
7.1291255e-05
0.00098304462
6.9733226e-05
0.00098280574
6.8461676e-05
0.00098242741
6.7366861e-05
0.00098187219
6.6457509e-05
0.00098109044
6.571685e-05
0.00098001903
6.50574e-05
0.00097860721
6.446465e-05
0.00097676829
6.3954426e-05
0.00097440951
6.349527e-05
0.00097148946
6.3034882e-05
0.00096798676
6.2564581e-05
0.00096386948
6.2073233e-05
0.00095915229
6.1539349e-05
0.00095388589
6.0960037e-05
0.00094809851
6.0328939e-05
0.00094181496
5.9631027e-05
0.00093505828
5.8884515e-05
0.00092785451
5.8100445e-05
0.00092023689
5.7251341e-05
0.0009122414
5.6321423e-05
0.00090389957
5.532644e-05
0.00089524347
5.4269112e-05
0.00088631152
5.3125077e-05
0.00087714319
5.1878466e-05
0.00086778049
5.0530728e-05
0.00085827058
4.9073852e-05
0.00084866308
4.748795e-05
0.00083900859
4.575792e-05
0.00082935859
4.3876934e-05
0.00081976674
4.1829534e-05
0.00081029025
3.9595597e-05
0.00080098969
3.7145898e-05
0.00079191439
3.4514224e-05
0.00078308753
3.1797675e-05
0.00077452594
2.8988345e-05
0.00076626143
2.6086179e-05
0.00075832501
2.3157573e-05
0.00075073618
2.0273135e-05
0.00074349921
1.751236e-05
0.00073659938
1.496994e-05
0.00073002208
1.2739298e-05
0.00072377409
1.0832932e-05
0.00071777395
9.4542936e-06
0.00071188266
8.8319652e-06
0.00070606132
8.8516528e-06
0.00070032999
9.3131512e-06
0.00069469992
1.0123549e-05
0.00068917663
1.108683e-05
0.00068376865
1.2056642e-05
0.00067847907
1.295558e-05
0.00067330566
1.3722425e-05
0.00066824834
1.431412e-05
0.00066330789
1.4723273e-05
0.00065848398
1.4964764e-05
0.00065377708
1.5054327e-05
0.00064918809
1.5021631e-05
0.00064471814
1.4892126e-05
0.0006403683
1.4687687e-05
0.00063614007
1.4427967e-05
0.0006320336
1.4133242e-05
0.00062804781
1.3811722e-05
0.00062418084
1.3473916e-05
0.00062042867
1.3139571e-05
0.00061678628
1.2816872e-05
0.00061324942
1.2535754e-05
0.000609815
1.2299449e-05
0.00060647828
1.2076585e-05
0.00060323101
1.1875726e-05
0.00060006521
1.1696962e-05
0.00059697344
1.154387e-05
0.00059394786
1.1424358e-05
0.00059098228
1.1324414e-05
0.00058807068
1.124506e-05
0.00058520842
1.117565e-05
0.00058239135
1.1114294e-05
0.00057961599
1.1057863e-05
0.00057687968
1.100104e-05
0.00057417982
1.0948124e-05
0.0005715144
1.0893527e-05
0.00056888129
1.0840169e-05
0.00056627641
1.0796465e-05
0.00056370053
1.0743329e-05
0.00056113438
1.0775788e-05
0.00055861039
1.0636382e-05
0.00055602906
1.0921839e-05
0.00055344842
1.1639804e-05
0.0005504403
1.1507728e-05
1.4195138e-05
0.00098883978
6.9472963e-05
-0.00098610971
0.000993518
8.7001765e-05
0.00099914882
9.9710784e-05
0.0010047305
0.00010580622
0.0010093876
0.00010556105
0.0010126116
0.0001004816
0.0010144604
9.3108141e-05
0.0010153592
8.5925924e-05
0.001015745
8.0225417e-05
0.001015917
7.6151622e-05
0.001016015
7.3294615e-05
0.0010160845
7.1221738e-05
0.001016153
6.9664742e-05
0.001016206
6.8408665e-05
0.0010162155
6.7357356e-05
0.0010161787
6.64944e-05
0.0010160911
6.5804403e-05
0.0010159265
6.5221998e-05
0.0010156636
6.4727569e-05
0.0010152781
6.4339928e-05
0.0010147347
6.4038653e-05
0.0010139925
6.3777115e-05
0.0010130112
6.3545839e-05
0.0010117296
6.3354795e-05
0.001010085
6.3184037e-05
0.0010080397
6.3005264e-05
0.0010055622
6.2806478e-05
0.0010026215
6.2571769e-05
0.00099921713
6.2288834e-05
0.0009953631
6.1954482e-05
0.00099106164
6.1552794e-05
0.00098631436
6.1068711e-05
0.00098112595
6.0514844e-05
0.00097550537
5.9889695e-05
0.00096946468
5.916577e-05
0.00096301801
5.8325135e-05
0.00095618085
5.7367882e-05
0.00094896982
5.6284888e-05
0.00094140366
5.5054107e-05
0.00093350784
5.3653743e-05
0.00092531368
5.2071096e-05
0.00091685685
5.0286365e-05
0.00090817987
4.8272571e-05
0.00089932138
4.6004392e-05
0.00089036115
4.3474449e-05
0.00088139419
4.0764634e-05
0.0008724542
3.7928342e-05
0.00086356261
3.4977761e-05
0.00085475321
3.1966976e-05
0.00084606529
2.8961054e-05
0.00083753937
2.6038282e-05
0.00082921235
2.3296959e-05
0.00082111273
2.0838913e-05
0.00081324822
1.8697443e-05
0.00080566231
1.704021e-05
0.00079833694
1.6157327e-05
0.00079119166
1.599694e-05
0.00078419104
1.6313772e-05
0.000777302
1.7012582e-05
0.00077052506
1.7863777e-05
0.00076387616
1.8705543e-05
0.00075736196
1.9469777e-05
0.00075098648
2.0097902e-05
0.00074475992
2.0540681e-05
0.00073868872
2.0794476e-05
0.00073277334
2.0880145e-05
0.00072701483
2.0812832e-05
0.0007214142
2.0622258e-05
0.0007159708
2.0335529e-05
0.00071068326
1.9975233e-05
0.00070555114
1.9560079e-05
0.00070057337
1.9111015e-05
0.00069574771
1.8637386e-05
0.00069107078
1.8150846e-05
0.00068653709
1.767326e-05
0.00068214077
1.7213186e-05
0.00067787619
1.6800335e-05
0.00067373869
1.6436953e-05
0.00066972395
1.6091322e-05
0.00066582514
1.577454e-05
0.00066203509
1.5487009e-05
0.00065834644
1.5232515e-05
0.00065475096
1.5019841e-05
0.00065124169
1.4833681e-05
0.00064781167
1.4675083e-05
0.00064445504
1.4532283e-05
0.00064116632
1.4403016e-05
0.0006379406
1.428358e-05
0.00063477379
1.4167849e-05
0.0006316618
1.4060117e-05
0.00062860123
1.3954091e-05
0.0006255887
1.3852704e-05
0.00062261885
1.3766311e-05
0.00061969135
1.3670832e-05
0.00061678574
1.3681398e-05
0.00061393251
1.3489615e-05
0.00061103004
1.3824309e-05
0.00060815844
1.4511398e-05
0.00060476787
1.4898296e-05
1.6993951e-05
0.0010233079
6.6957023e-05
-0.001020792
0.0010276053
8.2704355e-05
0.0010328223
9.4493824e-05
0.0010380438
0.0001005847
0.0010424949
0.00010110993
0.0010456986
9.7277915e-05
0.0010476482
9.1158535e-05
0.0010486832
8.4890999e-05
0.0010491929
7.9715664e-05
0.0010494618
7.5882771e-05
0.0010496387
7.3117685e-05
0.0010497847
7.1075743e-05
0.0010499245
6.9524957e-05
0.0010500494
6.828377e-05
0.0010501514
6.7255289e-05
0.001050233
6.6412831e-05
0.0010503047
6.573267e-05
0.0010503568
6.516995e-05
0.001050372
6.4712405e-05
0.001050353
6.4358847e-05
0.0010502964
6.4095284e-05
0.0010501855
6.3887982e-05
0.001050005
6.3726378e-05
0.0010497361
6.3623647e-05
0.0010493535
6.3566648e-05
0.0010488283
6.3530499e-05
0.0010481284
6.3506411e-05
0.0010472081
6.3492057e-05
0.0010460224
6.3474474e-05
0.0010445406
6.3436359e-05
0.0010427282
6.3365148e-05
0.001040555
6.3241876e-05
0.001038014
6.3055841e-05
0.0010351017
6.2802025e-05
0.0010318073
6.2460192e-05
0.0010281189
6.2013557e-05
0.0010240252
6.146158e-05
0.0010195189
6.0791163e-05
0.0010145962
5.9976781e-05
0.001009253
5.8996922e-05
0.0010034846
5.7839586e-05
0.00099728684
5.6484072e-05
0.00099065938
5.4900031e-05
0.00098359833
5.3065443e-05
0.00097611303
5.0959748e-05
0.00096826461
4.8613061e-05
0.00096012249
4.6070463e-05
0.00095173143
4.336882e-05
0.00094313323
4.0565177e-05
0.00093437419
3.7720093e-05
0.00092551031
3.4902158e-05
0.00091660869
3.2198581e-05
0.00090773234
2.9715263e-05
0.0008989074
2.7522383e-05
0.00089023408
2.5713534e-05
0.00088185163
2.4539778e-05
0.00087375649
2.4092073e-05
0.00086582131
2.4248951e-05
0.00085796768
2.4866215e-05
0.00085021491
2.5616545e-05
0.00084256621
2.6354251e-05
0.00083501896
2.7017026e-05
0.00082759103
2.752583e-05
0.00082030662
2.7825094e-05
0.00081317637
2.7924721e-05
0.00080620603
2.7850491e-05
0.00079940622
2.7612643e-05
0.00079278381
2.7244664e-05
0.00078633988
2.6779455e-05
0.0007800752
2.6239916e-05
0.00077399154
2.5643741e-05
0.0007680886
2.5013955e-05
0.0007623644
2.4361584e-05
0.00075681581
2.369944e-05
0.00075143721
2.3051858e-05
0.00074622285
2.2427547e-05
0.00074116717
2.1856011e-05
0.00073626503
2.1339092e-05
0.00073151206
2.0844297e-05
0.00072690224
2.0384356e-05
0.00072242942
1.9959834e-05
0.0007180867
1.9575233e-05
0.00071386582
1.924072e-05
0.00070975938
1.894012e-05
0.00070575962
1.8674845e-05
0.00070185962
1.843228e-05
0.00069805268
1.8209963e-05
0.0006943325
1.8003759e-05
0.00069069353
1.780682e-05
0.00068713015
1.7623495e-05
0.00068363747
1.7446772e-05
0.0006802107
1.7279468e-05
0.0006768432
1.7133817e-05
0.00067353333
1.6980702e-05
0.00067025945
1.6955277e-05
0.00066704998
1.6699079e-05
0.00066380074
1.7073554e-05
0.00066061227
1.7699869e-05
0.00065682143
1.8689133e-05
2.0013688e-05
0.0010588686
6.4615501e-05
-0.0010565271
0.0010628149
7.8758126e-05
0.0010676427
8.9665983e-05
0.0010725259
9.5701546e-05
0.0010767731
9.6862685e-05
0.0010799421
9.4108896e-05
0.0010819796
8.9121059e-05
0.001083149
8.3721646e-05
0.0010837882
7.9076415e-05
0.0010841576
7.5513355e-05
0.0010844052
7.2870069e-05
0.0010846005
7.0880494e-05
0.0010847755
6.934991e-05
0.0010849333
6.8126031e-05
0.001085072
6.7116611e-05
0.0010851955
6.628929e-05
0.0010853075
6.5620659e-05
0.0010854041
6.5073342e-05
0.0010854856
6.4630952e-05
0.0010855548
6.4289644e-05
0.0010856172
6.4032871e-05
0.0010856675
6.3837628e-05
0.0010856916
6.3702327e-05
0.001085689
6.3626268e-05
0.0010856581
6.3597469e-05
0.0010855878
6.3600859e-05
0.0010854669
6.3627244e-05
0.0010852806
6.367843e-05
0.0010850088
6.3746278e-05
0.0010846303
6.3814858e-05
0.0010841187
6.3876741e-05
0.0010834388
6.3921783e-05
0.0010825566
6.393797e-05
0.0010814467
6.3911984e-05
0.0010800756
6.3831279e-05
0.0010784161
6.3673012e-05
0.0010764559
6.3421833e-05
0.0010741777
6.3069329e-05
0.0010715633
6.2591211e-05
0.001068592
6.1968239e-05
0.0010652408
6.1190718e-05
0.0010614855
6.0239439e-05
0.0010572999
5.9085563e-05
0.0010526548
5.7710549e-05
0.0010475121
5.6102462e-05
0.0010418517
5.4273495e-05
0.0010356828
5.2239311e-05
0.0010290223
5.0029373e-05
0.0010218878
4.7699656e-05
0.0010143033
4.5304567e-05
0.0010063044
4.2901113e-05
0.00099794283
4.0560128e-05
0.00098928686
3.8371237e-05
0.00098039807
3.6411172e-05
0.00097136878
3.4742824e-05
0.00096239236
3.3516202e-05
0.00095360693
3.28775e-05
0.0009450142
3.2841683e-05
0.00093659105
3.3289359e-05
0.00092827587
3.3931728e-05
0.00091998657
3.4643549e-05
0.00091171893
3.5284669e-05
0.00090352437
3.5720389e-05
0.00089542266
3.5926805e-05
0.00088741991
3.5927469e-05
0.00087954004
3.5730365e-05
0.00087180989
3.5342793e-05
0.00086424135
3.48132e-05
0.00085684118
3.4179632e-05
0.00084962011
3.3460987e-05
0.00084258678
3.2677069e-05
0.00083574389
3.1856848e-05
0.00082909277
3.1012695e-05
0.00082263396
3.0158253e-05
0.00081636433
2.9321487e-05
0.00081028053
2.8511353e-05
0.00080437942
2.7757113e-05
0.00079865706
2.7061458e-05
0.00079310962
2.6391737e-05
0.00078773212
2.576185e-05
0.0007825196
2.5172358e-05
0.00077746599
2.4628845e-05
0.00077256347
2.4143242e-05
0.00076780463
2.3698957e-05
0.00076318123
2.3298241e-05
0.0007586856
2.2927909e-05
0.00075431003
2.2585541e-05
0.000750047
2.2266785e-05
0.00074588961
2.1964215e-05
0.00074183076
2.1682338e-05
0.00073786407
2.1413469e-05
0.00073398328
2.1160249e-05
0.00073018039
2.0936716e-05
0.00072645238
2.0708709e-05
0.00072277636
2.0631297e-05
0.00071917871
2.0296723e-05
0.0007155521
2.0700171e-05
0.00071201645
2.1235516e-05
0.00070779834
2.2907242e-05
2.3285407e-05
0.0010955559
6.2420212e-05
-0.0010933606
0.0010991832
7.5130821e-05
0.0011036478
8.5201308e-05
0.0011082131
9.1136326e-05
0.0011122586
9.2817123e-05
0.0011153774
9.0990122e-05
0.0011174831
8.7015347e-05
0.001118773
8.2431749e-05
0.0011195362
7.8313273e-05
0.0011200087
7.5040847e-05
0.0011203338
7.2544926e-05
0.0011205847
7.0629581e-05
0.0011207983
6.9136323e-05
0.0011209852
6.7939177e-05
0.0011211479
6.6953909e-05
0.0011212921
6.6145006e-05
0.0011214231
6.5489684e-05
0.0011215409
6.4955568e-05
0.0011216472
6.4524642e-05
0.0011217455
6.4191337e-05
0.0011218369
6.3941444e-05
0.0011219191
6.3755507e-05
0.0011219921
6.3629282e-05
0.0011220576
6.3560729e-05
0.0011221159
6.3539195e-05
0.0011221689
6.3547843e-05
0.0011222058
6.3590341e-05
0.0011222184
6.3665819e-05
0.0011222092
6.3755562e-05
0.0011221698
6.385424e-05
0.001122092
6.3954565e-05
0.0011219637
6.4050053e-05
0.0011217684
6.4133228e-05
0.0011214899
6.4190491e-05
0.0011211056
6.4215578e-05
0.0011205871
6.4191495e-05
0.0011199084
6.4100536e-05
0.0011190457
6.3932079e-05
0.0011179678
6.3669101e-05
0.0011166491
6.3286927e-05
0.0011150723
6.276754e-05
0.0011132108
6.2100879e-05
0.0011110342
6.1262176e-05
0.0011085084
6.0236351e-05
0.0011055924
5.9018508e-05
0.0011022406
5.7625319e-05
0.0010984107
5.6069153e-05
0.0010940675
5.437256e-05
0.0010891799
5.2587338e-05
0.0010837218
5.0762624e-05