/*--------------------------------*- C++ -*----------------------------------*\
| =========                 |                                                 |
| \\      /  F ield         | OpenFOAM: The Open Source CFD Toolbox           |
|  \\    /   O peration     | Version:  2206                                  |
|   \\  /    A nd           | Website:  www.openfoam.com                      |
|    \\/     M anipulation  |                                                 |
\*---------------------------------------------------------------------------*/
FoamFile
{
    version     2.0;
    format      ascii;
    arch        "LSB;label=32;scalar=64";
    class       volVectorField;
    location    "1100";
    object      U;
}
// * * * * * * * * * * * * * * * * * * * * * * * * * * * * * * * * * * * * * //

dimensions      [0 1 -1 0 0 0 0];

internalField   nonuniform List<vector> 
7480
(
(0.82755924 0.011165822 0)
(0.70300402 0.020216804 0)
(0.56655627 0.0214296 0)
(0.43054228 0.014560513 0)
(0.3305581 0.0062888025 0)
(0.26658179 0.0019108615 0)
(0.23008079 0.0022250616 0)
(0.2085354 -0.00029106773 0)
(0.19447554 -0.00042974657 0)
(0.1841464 -0.00017507621 0)
(0.17532166 1.2046912e-06 0)
(0.1671322 5.4448329e-05 0)
(0.15956019 6.5117233e-05 0)
(0.1526585 6.7121591e-05 0)
(0.14637012 0.0002230325 0)
(0.14063191 0.00018963035 0)
(0.13539977 7.2159403e-05 0)
(0.13061315 5.0718812e-05 0)
(0.12618627 4.5023714e-05 0)
(0.12207117 4.0430717e-05 0)
(0.11824672 3.6873545e-05 0)
(0.11467693 3.4882637e-05 0)
(0.11132501 3.2672679e-05 0)
(0.10817297 3.0045161e-05 0)
(0.10520817 2.7781583e-05 0)
(0.10241044 2.6125714e-05 0)
(0.099760513 2.437955e-05 0)
(0.097249211 2.2468649e-05 0)
(0.094869924 2.0794417e-05 0)
(0.092611684 1.9396594e-05 0)
(0.090464885 1.7959517e-05 0)
(0.088425361 1.6486082e-05 0)
(0.08648945 1.5170717e-05 0)
(0.084651272 1.3989093e-05 0)
(0.082906274 1.2810387e-05 0)
(0.081252822 1.1648613e-05 0)
(0.079689373 1.0580794e-05 0)
(0.078213994 9.5622828e-06 0)
(0.076826561 8.5390556e-06 0)
(0.075528989 7.5281977e-06 0)
(0.074323239 6.5725576e-06 0)
(0.073210805 5.6554333e-06 0)
(0.07219517 4.7303976e-06 0)
(0.071279037 3.8691217e-06 0)
(0.070466677 1.5637429e-05 0)
(0.069779355 6.6914366e-06 0)
(0.069203155 6.8522406e-07 0)
(0.068766046 -1.4379805e-07 0)
(0.068468099 -1.0604807e-06 0)
(0.06830648 -1.8523618e-06 0)
(0.068277365 -2.5865955e-06 0)
(0.068374209 -3.0478733e-06 0)
(0.068586197 -3.3464491e-06 0)
(0.068891143 -3.3977976e-06 0)
(0.069267367 -3.4570101e-06 0)
(0.069703053 -3.5432878e-06 0)
(0.070168935 -3.2327294e-06 0)
(0.070617843 -2.7214621e-06 0)
(0.071003223 -2.4776066e-06 0)
(0.071285714 -5.0484891e-06 0)
(0.071463421 -1.1366171e-06 0)
(0.071535038 -5.8762202e-07 0)
(0.071508957 -1.8186495e-07 0)
(0.071400574 3.4091877e-08 0)
(0.071227574 1.6621359e-07 0)
(0.071005914 2.5012542e-07 0)
(0.070749932 2.7785362e-07 0)
(0.070471249 2.8529271e-07 0)
(0.070178212 2.8034006e-07 0)
(0.069877082 2.6859683e-07 0)
(0.069572732 2.5284384e-07 0)
(0.069268049 2.4290481e-07 0)
(0.068964797 2.322722e-07 0)
(0.068664978 2.1873518e-07 0)
(0.068369093 2.1602039e-07 0)
(0.068077497 2.0756806e-07 0)
(0.067790647 2.1953249e-07 0)
(0.067499043 2.5057579e-07 0)
(0.067202526 2.5787436e-07 0)
(0.066903789 2.6379383e-07 0)
(0.066603979 2.6286768e-07 0)
(0.066303756 2.6013804e-07 0)
(0.066001806 2.6629647e-07 0)
(0.065697515 2.6369198e-07 0)
(0.065390653 2.6615477e-07 0)
(0.06508097 2.6411443e-07 0)
(0.064768824 2.6230272e-07 0)
(0.06445417 2.6103367e-07 0)
(0.064137603 2.5619451e-07 0)
(0.063819212 2.5529699e-07 0)
(0.063499383 2.4981042e-07 0)
(0.063178208 2.4867161e-07 0)
(0.062856354 2.4265049e-07 0)
(0.062531707 2.4917709e-07 0)
(0.062210224 2.2550356e-07 0)
(0.061869873 2.9986322e-07 0)
(0.06157514 1.0179819e-06 0)
(0.06113836 1.1410427e-05 0)
(0.060898173 1.9038867e-05 0)
(0.060225864 1.089641e-05 0)
(0.95866302 0.028039515 0)
(0.94942612 0.03858668 0)
(0.9303012 0.041833366 0)
(0.8851289 0.039311118 0)
(0.82442203 0.032446736 0)
(0.75683704 0.023984555 0)
(0.69438601 0.015508108 0)
(0.6414104 0.0094019283 0)
(0.59778364 0.0060298098 0)
(0.56172906 0.0043633029 0)
(0.53123917 0.0035600354 0)
(0.50478177 0.0030818435 0)
(0.48144183 0.0027034879 0)
(0.46059931 0.002389011 0)
(0.44176693 0.0021300089 0)
(0.424622 0.0018763837 0)
(0.40895767 0.0016553868 0)
(0.39456645 0.0014834238 0)
(0.38125673 0.0013368178 0)
(0.36889279 0.0012054504 0)
(0.35738032 0.0010890943 0)
(0.3466231 0.0009900523 0)
(0.33653216 0.00090299831 0)
(0.32704447 0.00082405506 0)
(0.31810607 0.00075344698 0)
(0.30966521 0.00069158115 0)
(0.30167471 0.00063582771 0)
(0.29410173 0.00058430869 0)
(0.2869207 0.00053736408 0)
(0.2801036 0.00049513519 0)
(0.27362532 0.00045628003 0)
(0.26746948 0.00041997281 0)
(0.26162298 0.00038644599 0)
(0.25607142 0.0003555991 0)
(0.25080291 0.00032673383 0)
(0.24581088 0.00029947611 0)
(0.2410908 0.0002738668 0)
(0.23663907 0.00024963569 0)
(0.23245585 0.00022634033 0)
(0.22854593 0.00020379113 0)
(0.2249159 0.00018203805 0)
(0.22157286 0.00016094271 0)
(0.21852839 0.00014025897 0)
(0.21579347 0.00012001876 0)
(0.21338572 0.00010046498 0)
(0.21134266 8.8514609e-05 0)
(0.20966218 5.7177742e-05 0)
(0.20838521 3.7530914e-05 0)
(0.20751853 1.8502328e-05 0)
(0.20705372 8.3341877e-07 0)
(0.20697538 -1.4930594e-05 0)
(0.20726001 -2.8679145e-05 0)
(0.20787212 -3.9663766e-05 0)
(0.2087499 -4.7129404e-05 0)
(0.20982931 -5.20874e-05 0)
(0.21105751 -5.4632383e-05 0)
(0.21234292 -5.2627641e-05 0)
(0.21355925 -4.6120055e-05 0)
(0.21458311 -3.6276034e-05 0)
(0.21532645 -2.5330203e-05 0)
(0.21576835 -1.4384745e-05 0)
(0.21591564 -4.9273531e-06 0)
(0.21579175 2.8075988e-06 0)
(0.2154376 8.7336267e-06 0)
(0.21490175 1.2947984e-05 0)
(0.21422897 1.5742807e-05 0)
(0.21345874 1.7380843e-05 0)
(0.21262315 1.8217097e-05 0)
(0.21174617 1.8486413e-05 0)
(0.21084567 1.8354946e-05 0)
(0.20993532 1.7957334e-05 0)
(0.20902368 1.7431764e-05 0)
(0.20811636 1.6808153e-05 0)
(0.20721882 1.6118869e-05 0)
(0.20633302 1.5458663e-05 0)
(0.20545992 1.4793766e-05 0)
(0.20459939 1.4464499e-05 0)
(0.20372387 1.4449948e-05 0)
(0.2028347 1.4267206e-05 0)
(0.20193995 1.3973575e-05 0)
(0.20104249 1.3629453e-05 0)
(0.20014314 1.3299339e-05 0)
(0.19923881 1.3039013e-05 0)
(0.19832774 1.27726e-05 0)
(0.19740904 1.2534597e-05 0)
(0.19648227 1.2284228e-05 0)
(0.19554818 1.2031205e-05 0)
(0.19460697 1.1773868e-05 0)
(0.19366015 1.1496666e-05 0)
(0.19270828 1.1228246e-05 0)
(0.19175245 1.0941111e-05 0)
(0.19079315 1.0663124e-05 0)
(0.18983218 1.0387285e-05 0)
(0.18886509 1.0122456e-05 0)
(0.18790473 9.9142485e-06 0)
(0.18690365 9.6462562e-06 0)
(0.18600238 1.1794698e-05 0)
(0.18477399 4.0040385e-05 0)
(0.18403414 6.4787352e-05 0)
(0.18205726 3.6436818e-05 0)
(0.96803082 0.029705493 0)
(0.97311822 0.037719572 0)
(0.98240477 0.041543176 0)
(0.98426429 0.041013013 0)
(0.9793927 0.03711765 0)
(0.96362528 0.030608332 0)
(0.93927161 0.024146898 0)
(0.91012759 0.01911619 0)
(0.87836978 0.015500624 0)
(0.84617304 0.012897834 0)
(0.81517386 0.010958119 0)
(0.7857717 0.0094052547 0)
(0.75803568 0.0081192777 0)
(0.7318838 0.0070815968 0)
(0.70721272 0.0062341247 0)
(0.6839669 0.0055134094 0)
(0.66210886 0.0048993602 0)
(0.6415459 0.004385489 0)
(0.62216661 0.0039458513 0)
(0.60388256 0.0035583965 0)
(0.58662244 0.0032171194 0)
(0.57030357 0.0029220102 0)
(0.5548455 0.0026627325 0)
(0.54018548 0.0024302719 0)
(0.52627131 0.0022225164 0)
(0.51304699 0.0020388657 0)
(0.50046018 0.0018739114 0)
(0.48847123 0.0017232067 0)
(0.47704735 0.0015859812 0)
(0.46615484 0.0014616846 0)
(0.45576399 0.0013476077 0)
(0.44585365 0.0012417315 0)
(0.43640659 0.0011438186 0)
(0.42740579 0.0010533431 0)
(0.41883773 0.00096884223 0)
(0.41069491 0.00088929498 0)
(0.4029733 0.0008144078 0)
(0.39567125 0.00074346111 0)
(0.38879166 0.00067543767 0)
(0.38234298 0.00060974886 0)
(0.37633696 0.00054627326 0)
(0.37078748 0.00048462077 0)
(0.36571417 0.00042422842 0)
(0.3611368 0.00036515004 0)
(0.35708516 0.00030477039 0)
(0.35360388 0.00026210953 0)
(0.35070579 0.00018802432 0)
(0.34842274 0.00012881902 0)
(0.34675874 7.4216855e-05 0)
(0.3456985 2.3968113e-05 0)
(0.34521373 -2.0883526e-05 0)
(0.34526012 -5.9553434e-05 0)
(0.3457807 -9.064485e-05 0)
(0.34668526 -0.00011260285 0)
(0.34788122 -0.00012705947 0)
(0.34927765 -0.00013390479 0)
(0.35073296 -0.00012959618 0)
(0.35207339 -0.00011313787 0)
(0.35314111 -8.7592891e-05 0)
(0.35383076 -5.8681826e-05 0)
(0.35411465 -3.0458636e-05 0)
(0.35400432 -5.1683342e-06 0)
(0.35353209 1.5892254e-05 0)
(0.35275497 3.2035989e-05 0)
(0.35173737 4.3561849e-05 0)
(0.35053869 5.1209888e-05 0)
(0.34921134 5.5688646e-05 0)
(0.34779844 5.7882188e-05 0)
(0.34633302 5.8451311e-05 0)
(0.34484004 5.7881253e-05 0)
(0.34333839 5.655855e-05 0)
(0.34184022 5.4836408e-05 0)
(0.34035398 5.2832938e-05 0)
(0.33888722 5.0654429e-05 0)
(0.33744303 4.8520088e-05 0)
(0.33602257 4.641206e-05 0)
(0.33462419 4.5197534e-05 0)
(0.3332078 4.4795226e-05 0)
(0.33178087 4.4011684e-05 0)
(0.33035313 4.2949957e-05 0)
(0.3289261 4.1803542e-05 0)
(0.32749929 4.0722181e-05 0)
(0.32606832 3.9818661e-05 0)
(0.3246303 3.8946078e-05 0)
(0.32318341 3.8146979e-05 0)
(0.32172679 3.7336558e-05 0)
(0.32026105 3.6523258e-05 0)
(0.31878643 3.5700064e-05 0)
(0.31730474 3.4835436e-05 0)
(0.31581681 3.3983649e-05 0)
(0.31432407 3.3097502e-05 0)
(0.31282724 3.2222657e-05 0)
(0.31132871 3.1367937e-05 0)
(0.30982309 3.0512043e-05 0)
(0.30832599 2.989407e-05 0)
(0.30677885 2.8835285e-05 0)
(0.30535399 3.2029511e-05 0)
(0.30351732 7.2886729e-05 0)
(0.30231627 0.00011273535 0)
(0.29932059 8.1124139e-05 0)
(0.97007347 0.027083276 0)
(0.97642351 0.034264733 0)
(0.98548124 0.038378259 0)
(0.99344667 0.039211764 0)
(1.0016497 0.03617577 0)
(1.0025361 0.031200849 0)
(0.99957806 0.026292378 0)
(0.99333818 0.022246869 0)
(0.98420923 0.019368328 0)
(0.97251902 0.017346612 0)
(0.95869558 0.015776488 0)
(0.94313631 0.01435021 0)
(0.9257175 0.013015115 0)
(0.90737321 0.011780722 0)
(0.88855737 0.010669681 0)
(0.86955564 0.0096639177 0)
(0.85056974 0.0087605201 0)
(0.83172401 0.0079711556 0)
(0.8131089 0.0072752683 0)
(0.79481658 0.0066469034 0)
(0.77692724 0.006078969 0)
(0.75948609 0.0055730215 0)
(0.74251724 0.0051178525 0)
(0.72604091 0.0047031177 0)
(0.71007537 0.0043267376 0)
(0.69462262 0.0039882863 0)
(0.67967702 0.0036809584 0)
(0.6652355 0.0033986826 0)
(0.65129421 0.0031399943 0)
(0.63784337 0.0029037119 0)
(0.62487303 0.0026857528 0)
(0.61237774 0.0024829308 0)
(0.6003531 0.0022944681 0)
(0.58879361 0.0021192676 0)
(0.57769626 0.0019549792 0)
(0.56706345 0.0017998358 0)
(0.55690105 0.0016531927 0)
(0.54721499 0.0015138797 0)
(0.53801412 0.0013802136 0)
(0.52931208 0.0012511197 0)
(0.52112593 0.0011262162 0)
(0.51347539 0.0010047816 0)
(0.50638579 0.00088589463 0)
(0.49988264 0.00076948329 0)
(0.49400344 0.00065189687 0)
(0.48878886 0.00055222073 0)
(0.48425147 0.00042629725 0)
(0.48040226 0.00031365539 0)
(0.47723317 0.00021001793 0)
(0.47472374 0.00011542825 0)
(0.47284238 3.11343e-05 0)
(0.4715427 -4.1551701e-05 0)
(0.4707584 -0.00010016489 0)
(0.47039337 -0.00014249444 0)
(0.47036056 -0.0001712765 0)
(0.47055082 -0.00018589688 0)
(0.47079818 -0.00017841252 0)
(0.4709316 -0.00015127413 0)
(0.47082074 -0.00010789709 0)
(0.47038715 -6.1141989e-05 0)
(0.4696132 -1.5091665e-05 0)
(0.46851088 2.6045206e-05 0)
(0.46711364 6.0035316e-05 0)
(0.46546976 8.5916545e-05 0)
(0.46363235 0.00010415933 0)
(0.46165123 0.00011593616 0)
(0.45957162 0.00012241458 0)
(0.45743194 0.00012500776 0)
(0.45526257 0.00012481734 0)
(0.453087 0.00012267832 0)
(0.45092315 0.00011926747 0)
(0.44878257 0.00011516464 0)
(0.44667411 0.00011058617 0)
(0.44460524 0.00010574333 0)
(0.4425788 0.00010099869 0)
(0.44059534 9.6403078e-05 0)
(0.43865071 9.2975597e-05 0)
(0.43673634 9.0761475e-05 0)
(0.43484523 8.8389979e-05 0)
(0.43297305 8.5836315e-05 0)
(0.43111567 8.3277852e-05 0)
(0.42927029 8.0902014e-05 0)
(0.42743142 7.8861678e-05 0)
(0.42559484 7.6939234e-05 0)
(0.42375759 7.5172063e-05 0)
(0.42191774 7.3424656e-05 0)
(0.42007503 7.1696108e-05 0)
(0.41822903 6.9967767e-05 0)
(0.41638092 6.8190341e-05 0)
(0.41453117 6.6439778e-05 0)
(0.41268068 6.4651383e-05 0)
(0.41082991 6.2881247e-05 0)
(0.40898108 6.116711e-05 0)
(0.40712817 5.9430802e-05 0)
(0.40528732 5.8202268e-05 0)
(0.40339616 5.598906e-05 0)
(0.40163288 6.0115704e-05 0)
(0.39945247 0.00010797916 0)
(0.3979205 0.00015867078 0)
(0.39438218 8.9823033e-05 0)
(0.97243113 0.025563502 0)
(0.9777902 0.032400019 0)
(0.98588018 0.036407702 0)
(0.99418762 0.03706886 0)
(1.001267 0.034668226 0)
(1.0056194 0.030635995 0)
(1.0079572 0.026372713 0)
(1.0071072 0.022757104 0)
(1.0052979 0.020141772 0)
(1.0027889 0.018353792 0)
(0.9995818 0.017017707 0)
(0.99557652 0.015924336 0)
(0.99028382 0.014972331 0)
(0.98361293 0.014079607 0)
(0.97557843 0.013226654 0)
(0.96630407 0.012374065 0)
(0.95568927 0.011538236 0)
(0.94418591 0.01074795 0)
(0.93199054 0.010010654 0)
(0.91924567 0.0093182389 0)
(0.90606752 0.0086719586 0)
(0.8925591 0.0080780956 0)
(0.87879765 0.0075283513 0)
(0.86486921 0.0070129622 0)
(0.85085811 0.0065313885 0)
(0.83683252 0.0060858504 0)
(0.82285061 0.0056709293 0)
(0.80896701 0.0052816469 0)
(0.79522911 0.0049180612 0)
(0.78167342 0.0045801639 0)
(0.76833125 0.0042639932 0)
(0.75523331 0.0039663439 0)
(0.74240734 0.0036866682 0)
(0.72987679 0.0034237823 0)
(0.71766511 0.0031747652 0)
(0.70580016 0.0029373627 0)
(0.69431058 0.0027112425 0)
(0.68321329 0.0024954394 0)
(0.67252688 0.002287799 0)
(0.66227487 0.0020867056 0)
(0.65248382 0.0018914466 0)
(0.64318215 0.0017009603 0)
(0.6344026 0.0015140606 0)
(0.62617731 0.0013300796 0)
(0.61855721 0.0011474047 0)
(0.61156167 0.00096765443 0)
(0.60518632 0.0007900247 0)
(0.59942741 0.00062345327 0)
(0.59427946 0.00046690469 0)
(0.5897334 0.00032310682 0)
(0.58576974 0.00019448644 0)
(0.5823564 8.3199153e-05 0)
(0.57943578 -7.3100523e-06 0)
(0.57692516 -7.4698998e-05 0)
(0.57477218 -0.00012093688 0)
(0.57282664 -0.00014215516 0)
(0.57091086 -0.00013432887 0)
(0.56891475 -0.00010087842 0)
(0.56678601 -4.6603232e-05 0)
(0.56449582 9.0203428e-06 0)
(0.56204617 6.4574287e-05 0)
(0.55944764 0.00011379344 0)
(0.55671798 0.00015387768 0)
(0.55388136 0.00018374081 0)
(0.55096552 0.00020400224 0)
(0.5479978 0.00021609426 0)
(0.54500477 0.00022145141 0)
(0.54201037 0.00022183509 0)
(0.53903448 0.00021864492 0)
(0.53609314 0.00021296979 0)
(0.53319866 0.00020571201 0)
(0.5303589 0.00019761146 0)
(0.52758113 0.00018895419 0)
(0.52487068 0.00018005749 0)
(0.52222866 0.00017141515 0)
(0.51965413 0.00016315728 0)
(0.51714118 0.00015643964 0)
(0.51469812 0.00015123734 0)
(0.51231385 0.00014607056 0)
(0.50997588 0.00014102196 0)
(0.50767521 0.0001362139 0)
(0.50540641 0.00013180105 0)
(0.50316282 0.00012794399 0)
(0.50093892 0.00012435527 0)
(0.49873047 0.00012105772 0)
(0.49653424 0.00011786338 0)
(0.49434865 0.00011475505 0)
(0.49217212 0.00011169662 0)
(0.49000464 0.00010861815 0)
(0.48784573 0.00010560993 0)
(0.48569534 0.00010258933 0)
(0.48355324 9.9615262e-05 0)
(0.48142088 9.675984e-05 0)
(0.47929152 9.3871964e-05 0)
(0.47718074 9.1812756e-05 0)
(0.4750254 8.8188674e-05 0)
(0.47299864 9.3023027e-05 0)
(0.47058038 0.00014372919 0)
(0.46878615 0.00019892816 0)
(0.46489903 0.00012570511 0)
(0.97462051 0.024511405 0)
(0.97931326 0.030793931 0)
(0.98638614 0.034468762 0)
(0.99379856 0.035112778 0)
(1.000194 0.033233669 0)
(1.0048198 0.029795959 0)
(1.0073128 0.025982757 0)
(1.0082974 0.022699458 0)
(1.007973 0.020248556 0)
(1.0074193 0.018529746 0)
(1.0067884 0.017263855 0)
(1.0060307 0.016265348 0)
(1.0049989 0.015425233 0)
(1.0035789 0.014655356 0)
(1.0016566 0.013931027 0)
(0.99916636 0.013260885 0)
(0.99587227 0.012640506 0)
(0.99172092 0.012046833 0)
(0.98669721 0.011472225 0)
(0.9808151 0.010900319 0)
(0.97400839 0.010332257 0)
(0.96646709 0.0097856894 0)
(0.95827844 0.0092608806 0)
(0.94950715 0.0087556606 0)
(0.94021046 0.0082722396 0)
(0.93044465 0.0078136939 0)
(0.92026906 0.0073758094 0)
(0.90974006 0.0069547128 0)
(0.89891475 0.0065516174 0)
(0.88784932 0.0061677497 0)
(0.87659821 0.005800088 0)
(0.86521641 0.0054465264 0)
(0.85375635 0.0051079192 0)
(0.84226475 0.004784076 0)
(0.83078622 0.0044725185 0)
(0.8193661 0.0041713177 0)
(0.80804945 0.0038802287 0)
(0.79688089 0.0035985796 0)
(0.78590414 0.0033247352 0)
(0.77516316 0.0030573581 0)
(0.76470154 0.0027958927 0)
(0.75456284 0.0025392007 0)
(0.74479378 0.002286012 0)
(0.73544087 0.002034674 0)
(0.72658232 0.0017869981 0)
(0.7181564 0.0015459807 0)
(0.71017104 0.001312626 0)
(0.7026681 0.0010877802 0)
(0.69567515 0.00087576936 0)
(0.68920169 0.00068061981 0)
(0.68323815 0.00050535208 0)
(0.67775609 0.0003531076 0)
(0.67270112 0.00022787511 0)
(0.66801907 0.00013028649 0)
(0.66370981 6.4575822e-05 0)
(0.65949409 3.4933252e-05 0)
(0.65524397 3.9162156e-05 0)
(0.65098514 6.9624538e-05 0)
(0.64674707 0.0001235167 0)
(0.64253052 0.00017441864 0)
(0.63834256 0.00022719864 0)
(0.63418625 0.00027360937 0)
(0.6300618 0.00031047983 0)
(0.6259717 0.00033661261 0)
(0.62192203 0.00035259344 0)
(0.61792012 0.00035987508 0)
(0.61397453 0.00035993072 0)
(0.6100942 0.00035464866 0)
(0.6062874 0.00034554036 0)
(0.60256131 0.00033380326 0)
(0.59892208 0.00032044545 0)
(0.59537416 0.00030632938 0)
(0.59192001 0.00029179163 0)
(0.58856148 0.00027720178 0)
(0.58529745 0.00026315153 0)
(0.58212521 0.00024983579 0)
(0.57903843 0.00023825728 0)
(0.57603961 0.00022841966 0)
(0.57312395 0.00021910271 0)
(0.57028103 0.0002103967 0)
(0.56750055 0.00020230002 0)
(0.5647754 0.0001949038 0)
(0.56209793 0.00018835795 0)
(0.55946157 0.00018230397 0)
(0.556861 0.0001767432 0)
(0.55429173 0.00017143428 0)
(0.55175079 0.00016633792 0)
(0.54923528 0.00016139543 0)
(0.54674383 0.00015651222 0)
(0.54427475 0.00015178177 0)
(0.54182719 0.00014710387 0)
(0.53939971 0.00014253853 0)
(0.53699254 0.00013819205 0)
(0.53459813 0.0001338247 0)
(0.53223084 0.00013065665 0)
(0.52982837 0.00012534068 0)
(0.52755423 0.00013043139 0)
(0.52492056 0.00018122353 0)
(0.52289238 0.00023830122 0)
(0.51869654 0.00017872432 0)
(0.97659307 0.023525589 0)
(0.98075401 0.029152168 0)
(0.98701202 0.032517334 0)
(0.99362944 0.033275745 0)
(0.99943822 0.031815263 0)
(1.0037514 0.028881481 0)
(1.0062981 0.025505371 0)
(1.007452 0.022522859 0)
(1.0077675 0.020237147 0)
(1.0077456 0.018572463 0)
(1.0076467 0.017319635 0)
(1.0075411 0.016319592 0)
(1.0074198 0.015485753 0)
(1.0072381 0.014746045 0)
(1.0069336 0.014072536 0)
(1.0064669 0.013464686 0)
(1.0057924 0.012911442 0)
(1.004855 0.012388773 0)
(1.0035952 0.011891858 0)
(1.0019588 0.011425327 0)
(0.99981606 0.010984819 0)
(0.99711332 0.010557592 0)
(0.99382552 0.010138669 0)
(0.98992763 0.0097203381 0)
(0.98537572 0.0093042981 0)
(0.98024945 0.0088986326 0)
(0.97457632 0.0085018691 0)
(0.96838169 0.0081125616 0)
(0.96169001 0.0077331876 0)
(0.95452649 0.0073651229 0)
(0.94692081 0.0070051959 0)
(0.93890904 0.0066514274 0)
(0.93052839 0.0063057152 0)
(0.9218077 0.0059685019 0)
(0.91278434 0.0056373154 0)
(0.90349862 0.0053106805 0)
(0.89399068 0.0049895005 0)
(0.88430771 0.0046737833 0)
(0.87449932 0.0043618919 0)
(0.86461683 0.0040527317 0)
(0.85471257 0.0037462426 0)
(0.84484021 0.0034416938 0)
(0.83505635 0.0031381301 0)
(0.82542075 0.0028340641 0)
(0.81599821 0.002530127 0)
(0.80682744 0.0022351163 0)
(0.79791232 0.0019522936 0)
(0.78928503 0.0016796674 0)
(0.78098037 0.0014206928 0)
(0.77302553 0.0011795436 0)
(0.76543347 0.00096041082 0)
(0.75819969 0.00076785656 0)
(0.75129803 0.00060632521 0)
(0.74472393 0.00047504204 0)
(0.73849944 0.00038045283 0)
(0.73243175 0.00033267945 0)
(0.72642513 0.0003265724 0)
(0.72050088 0.00034707612 0)
(0.71468107 0.00039080219 0)
(0.70896335 0.00042958172 0)
(0.70336122 0.00047080977 0)
(0.69788198 0.00050587034 0)
(0.69252288 0.00053189669 0)
(0.68728181 0.00054758616 0)
(0.68216042 0.00055343733 0)
(0.67715878 0.00055090277 0)
(0.67227642 0.00054140481 0)
(0.66751424 0.00052681861 0)
(0.66287359 0.00050864701 0)
(0.65835538 0.00048810873 0)
(0.65396089 0.00046622835 0)
(0.64969179 0.00044389506 0)
(0.64554689 0.00042146559 0)
(0.6415252 0.00039935766 0)
(0.63762348 0.00037822958 0)
(0.63383736 0.00035830025 0)
(0.63016046 0.00034047632 0)
(0.62659017 0.00032472967 0)
(0.62312353 0.00030995637 0)
(0.6197532 0.00029630721 0)
(0.61646996 0.00028371419 0)
(0.61326643 0.00027221295 0)
(0.61013449 0.00026193557 0)
(0.60706692 0.0002524525 0)
(0.60405751 0.00024373958 0)
(0.6011007 0.00023550205 0)
(0.59819225 0.00022767431 0)
(0.59532797 0.0002201705 0)
(0.59250508 0.00021286704 0)
(0.58972059 0.00020585352 0)
(0.5869726 0.00019900735 0)
(0.5842584 0.00019238392 0)
(0.58157693 0.00018612366 0)
(0.57891978 0.00017988787 0)
(0.57629976 0.00017526658 0)
(0.57365601 0.00016794509 0)
(0.57114143 0.00017283835 0)
(0.56829773 0.00022200894 0)
(0.56605283 0.0002803162 0)
(0.56156583 0.00022646673 0)
(0.9783931 0.022612343 0)
(0.98209563 0.027631462 0)
(0.98764139 0.030750669 0)
(0.99358148 0.031603963 0)
(0.9988883 0.030476467 0)
(1.0029246 0.027994355 0)
(1.0054486 0.025028781 0)
(1.0066946 0.022315852 0)
(1.0071763 0.020162314 0)
(1.0073446 0.01854425 0)
(1.0074355 0.017306975 0)
(1.0075157 0.016312894 0)
(1.0075789 0.015480308 0)
(1.0076486 0.014746173 0)
(1.0076862 0.01408374 0)
(1.0076716 0.013487368 0)
(1.0076127 0.012948091 0)
(1.007493 0.012448223 0)
(1.0072868 0.011982402 0)
(1.0069718 0.011552293 0)
(1.0065186 0.01115088 0)
(1.0058895 0.010766412 0)
(1.0050454 0.010396599 0)
(1.0039408 0.010044041 0)
(1.002497 0.0097058789 0)
(1.000672 0.0093756045 0)
(0.99843653 0.0090488064 0)
(0.9957524 0.0087213249 0)
(0.99259587 0.0083951043 0)
(0.98899352 0.0080732917 0)
(0.98494716 0.0077541465 0)
(0.98045656 0.0074363187 0)
(0.97552464 0.0071212159 0)
(0.97016013 0.0068094343 0)
(0.96437222 0.006498793 0)
(0.95817417 0.0061877359 0)
(0.95158054 0.0058769187 0)
(0.94460894 0.0055661912 0)
(0.93727452 0.0052540354 0)
(0.9295986 0.0049393331 0)
(0.92161043 0.0046220746 0)
(0.91334355 0.0043016404 0)
(0.90483536 0.0039769982 0)
(0.89613246 0.0036467408 0)
(0.88726375 0.0033132953 0)
(0.87836341 0.002985986 0)
(0.86948154 0.0026669819 0)
(0.86063383 0.0023568793 0)
(0.85184912 0.0020597576 0)
(0.84316483 0.0017800841 0)
(0.8346217 0.0015226158 0)
(0.82625917 0.0012928069 0)
(0.81811096 0.0010960922 0)
(0.81019919 0.000931709 0)
(0.8025177 0.00080672345 0)
(0.7951614 0.00073675386 0)
(0.78799229 0.00071287715 0)
(0.78099166 0.0007153925 0)
(0.77411129 0.00074104768 0)
(0.76732968 0.00076323326 0)
(0.76067085 0.00078744283 0)
(0.7541458 0.00080589593 0)
(0.74775423 0.00081609321 0)
(0.74150465 0.0008164797 0)
(0.73540833 0.00080760006 0)
(0.7294668 0.00079108611 0)
(0.72367969 0.00076826486 0)
(0.71804898 0.00074094234 0)
(0.71257499 0.00071062593 0)
(0.70725605 0.00067851968 0)
(0.70209115 0.0006455814 0)
(0.69708031 0.00061270859 0)
(0.69222154 0.00058028366 0)
(0.68751242 0.00054873179 0)
(0.6829483 0.00051875115 0)
(0.6785235 0.00049054946 0)
(0.67423163 0.00046498509 0)
(0.67006765 0.0004419667 0)
(0.66602809 0.00042038084 0)
(0.66210735 0.00040044033 0)
(0.65829778 0.00038204958 0)
(0.65459258 0.00036520989 0)
(0.65098371 0.00035004168 0)
(0.64746355 0.00033604836 0)
(0.64402525 0.00032317975 0)
(0.64066235 0.00031108869 0)
(0.63736943 0.00029968091 0)
(0.63414109 0.00028883989 0)
(0.63097319 0.0002784092 0)
(0.62786141 0.00026846604 0)
(0.62480241 0.00025886226 0)
(0.62179232 0.0002496462 0)
(0.61882882 0.00024098756 0)
(0.61590265 0.0002324408 0)
(0.61302492 0.00022596652 0)
(0.61013622 0.00021628881 0)
(0.60737945 0.00022058339 0)
(0.60432038 0.00026715212 0)
(0.60186445 0.00032708413 0)
(0.59708532 0.00027444854 0)
(0.98003762 0.02177515 0)
(0.98334886 0.026246611 0)
(0.98826052 0.029130818 0)
(0.99358644 0.03004008 0)
(0.998434 0.02919234 0)
(1.0022263 0.027113289 0)
(1.0047191 0.024524623 0)
(1.0060643 0.022066453 0)
(1.0066739 0.020048197 0)
(1.0069474 0.018487753 0)
(1.0071162 0.017271381 0)
(1.007262 0.016284409 0)
(1.0073984 0.015453438 0)
(1.0075279 0.014723872 0)
(1.0076384 0.014068341 0)
(1.0077273 0.013476715 0)
(1.007795 0.012940373 0)
(1.007862 0.012445349 0)
(1.0078955 0.011987363 0)
(1.0078918 0.011565633 0)
(1.0078577 0.011173909 0)
(1.007781 0.010804189 0)
(1.0076454 0.010453762 0)
(1.0074341 0.010123471 0)
(1.0071269 0.0098095645 0)
(1.0066971 0.009506454 0)
(1.0061181 0.0092126823 0)
(1.0053513 0.0089285378 0)
(1.004347 0.0086519456 0)
(1.0030714 0.0083796059 0)
(1.0015 0.0081077521 0)
(0.99958843 0.0078335589 0)
(0.99732281 0.0075591365 0)
(0.99470647 0.0072855546 0)
(0.99172918 0.0070108334 0)
(0.98837853 0.0067336017 0)
(0.98464406 0.0064541705 0)
(0.98051623 0.0061718793 0)
(0.97599038 0.0058850105 0)
(0.97106299 0.0055926499 0)
(0.96572963 0.0052947171 0)
(0.95998622 0.0049903485 0)
(0.95382944 0.0046780539 0)
(0.94726122 0.0043571446 0)
(0.94027114 0.0040287016 0)
(0.9328912 0.0036975457 0)
(0.92520527 0.0033677792 0)
(0.91726146 0.0030433969 0)
(0.90909888 0.0027296479 0)
(0.90075811 0.0024308633 0)
(0.89228761 0.0021516314 0)
(0.88374634 0.0018974148 0)
(0.8752045 0.0016734794 0)
(0.8667124 0.0014807097 0)
(0.85826887 0.0013258542 0)
(0.85007207 0.0012210655 0)
(0.84218662 0.0011645289 0)
(0.83453861 0.0011447759 0)
(0.82696018 0.0011515919 0)
(0.81946633 0.0011568873 0)
(0.81208099 0.0011631968 0)
(0.80478934 0.0011640469 0)
(0.79759866 0.0011565817 0)
(0.79053678 0.0011392494 0)
(0.78362152 0.0011130998 0)
(0.77685546 0.0010800129 0)
(0.7702474 0.0010411317 0)
(0.76380845 0.00099832102 0)
(0.75754091 0.00095326824 0)
(0.75144446 0.00090713943 0)
(0.74552095 0.00086079034 0)
(0.73977177 0.00081515482 0)
(0.73419514 0.00077064382 0)
(0.72878904 0.00072768079 0)
(0.72354909 0.0006870009 0)
(0.71846949 0.00064878317 0)
(0.71354455 0.00061384366 0)
(0.70876905 0.00058202839 0)
(0.70413904 0.00055216842 0)
(0.69964958 0.00052451006 0)
(0.69529442 0.00049893407 0)
(0.69106771 0.00047542535 0)
(0.68696186 0.00045410483 0)
(0.68296924 0.00043441583 0)
(0.67908261 0.00041628522 0)
(0.67529479 0.0003993154 0)
(0.67159944 0.00038338227 0)
(0.66799008 0.0003683364 0)
(0.66446129 0.00035398521 0)
(0.66100749 0.00034038944 0)
(0.65762392 0.00032737036 0)
(0.65430549 0.00031496194 0)
(0.65104864 0.00030335869 0)
(0.64784323 0.00029200335 0)
(0.64469862 0.00028322326 0)
(0.64155673 0.00027079374 0)
(0.63855151 0.00027409873 0)
(0.63526736 0.00031747492 0)
(0.63259913 0.00037993289 0)
(0.62751774 0.00032492683 0)
(0.98153987 0.020999968 0)
(0.98451422 0.024975362 0)
(0.98886531 0.027626371 0)
(0.99363393 0.028568839 0)
(0.99805554 0.027961702 0)
(1.0016105 0.026237587 0)
(1.004056 0.023991643 0)
(1.0054817 0.021779085 0)
(1.0062132 0.019902523 0)
(1.0065922 0.018410086 0)
(1.006834 0.017222214 0)
(1.0070264 0.016246265 0)
(1.0071954 0.015418813 0)
(1.0073492 0.014692972 0)
(1.0074875 0.01404182 0)
(1.0076092 0.013453873 0)
(1.0077171 0.012920182 0)
(1.0078147 0.012429306 0)
(1.0078968 0.011975887 0)
(1.007967 0.011556919 0)
(1.0080242 0.011167309 0)
(1.0080816 0.010800485 0)
(1.0081185 0.010454927 0)
(1.0081263 0.010130473 0)
(1.0081125 0.0098233205 0)
(1.0080678 0.0095300171 0)
(1.0079824 0.0092489015 0)
(1.0078428 0.0089788861 0)
(1.0076342 0.0087179693 0)
(1.0073364 0.0084634925 0)
(1.0069307 0.0082145648 0)
(1.0063844 0.0079704638 0)
(1.0056643 0.0077294541 0)
(1.0047431 0.0074896274 0)
(1.0036005 0.0072479137 0)
(1.0021928 0.0070022523 0)
(1.0005138 0.0067536993 0)
(0.99854804 0.0065022183 0)
(0.99627888 0.0062464341 0)
(0.99368792 0.0059849765 0)
(0.99075516 0.0057174061 0)
(0.98745887 0.0054429419 0)
(0.98377544 0.005159958 0)
(0.9796797 0.0048678682 0)
(0.97514143 0.0045665968 0)
(0.97012281 0.0042593485 0)
(0.96462289 0.0039495309 0)
(0.95865947 0.0036403054 0)
(0.95224707 0.003336826 0)
(0.94540379 0.0030435962 0)
(0.93815611 0.0027649476 0)
(0.93054346 0.0025057376 0)
(0.92262334 0.0022713435 0)
(0.91446498 0.0020652565 0)
(0.90611272 0.001891256 0)
(0.89769638 0.0017595157 0)
(0.88944519 0.0016727958 0)
(0.88138206 0.0016217089 0)
(0.8734912 0.0016017487 0)
(0.86574009 0.0015895287 0)
(0.85804754 0.0015811484 0)
(0.8503463 0.0015671506 0)
(0.84269452 0.0015427892 0)
(0.83513005 0.001508033 0)
(0.82765033 0.001464671 0)
(0.82026978 0.0014142155 0)
(0.81301896 0.0013578959 0)
(0.80591638 0.0012980838 0)
(0.79896577 0.0012366809 0)
(0.79217597 0.0011747199 0)
(0.78555816 0.0011130505 0)
(0.77911694 0.0010527915 0)
(0.77285287 0.00099436286 0)
(0.76676791 0.00093816282 0)
(0.7608607 0.00088500708 0)
(0.75512736 0.00083504472 0)
(0.74956509 0.00078903943 0)
(0.74417066 0.00074680557 0)
(0.73894061 0.0007071258 0)
(0.73387082 0.00067025233 0)
(0.72895651 0.00063603317 0)
(0.72419296 0.00060444973 0)
(0.7195734 0.00057563331 0)
(0.7150907 0.00054897552 0)
(0.71073757 0.00052438768 0)
(0.70650647 0.00050142426 0)
(0.70239044 0.00047993144 0)
(0.69838215 0.00045972639 0)
(0.69447516 0.00044057807 0)
(0.69066275 0.00042252783 0)
(0.6869389 0.00040536183 0)
(0.68329731 0.00038909284 0)
(0.67973319 0.00037393489 0)
(0.67623554 0.00035921489 0)
(0.67281204 0.00034762153 0)
(0.66940563 0.00033199332 0)
(0.66614258 0.00033389844 0)
(0.66262126 0.00037364884 0)
(0.65973475 0.00043974067 0)
(0.65433572 0.00037896197 0)
(0.9829132 0.020275638 0)
(0.98559496 0.023806178 0)
(0.98945321 0.026233321 0)
(0.99371958 0.027193588 0)
(0.99774735 0.026790603 0)
(1.00107 0.025375243 0)
(1.0034507 0.023438885 0)
(1.0049317 0.02145996 0)
(1.0057663 0.019726007 0)
(1.0062433 0.018307585 0)
(1.0065587 0.017154801 0)
(1.0068021 0.016195394 0)
(1.0070058 0.01537586 0)
(1.0071835 0.014655997 0)
(1.0073399 0.014010308 0)
(1.0074771 0.013426582 0)
(1.0075994 0.012895955 0)
(1.0077105 0.012408301 0)
(1.0078109 0.01195765 0)
(1.0079023 0.011540653 0)
(1.0079868 0.011152567 0)
(1.0080655 0.01078804 0)
(1.008135 0.010445215 0)
(1.0081971 0.010122638 0)
(1.0082521 0.0098173336 0)
(1.0083009 0.0095257028 0)
(1.0083485 0.0092471352 0)
(1.0083669 0.0089813554 0)
(1.0083698 0.0087253948 0)
(1.0083497 0.0084777081 0)
(1.0082996 0.0082374759 0)
(1.0082094 0.0080029208 0)
(1.0080672 0.0077725282 0)
(1.0078575 0.0075448354 0)