/*--------------------------------*- C++ -*----------------------------------*\
| =========                 |                                                 |
| \\      /  F ield         | OpenFOAM: The Open Source CFD Toolbox           |
|  \\    /   O peration     | Version:  2206                                  |
|   \\  /    A nd           | Website:  www.openfoam.com                      |
|    \\/     M anipulation  |                                                 |
\*---------------------------------------------------------------------------*/
FoamFile
{
    version     2.0;
    format      ascii;
    arch        "LSB;label=32;scalar=64";
    class       volScalarField;
    location    "600";
    object      epsilon;
}
// * * * * * * * * * * * * * * * * * * * * * * * * * * * * * * * * * * * * * //

dimensions      [0 2 -3 0 0 0 0];

internalField   nonuniform List<scalar> 
7480
(
5.7718339
15.516966
18.080093
15.974913
12.849005
10.346944
8.6590413
7.5061084
6.6596202
5.995615
5.456986
5.0155278
4.6524833
4.3527634
4.1040342
3.8960125
3.7211175
3.5736035
3.4479685
3.3411296
3.2480831
3.1662696
3.0934417
3.0277287
2.9679023
2.9129628
2.8622208
2.8149964
2.770691
2.728816
2.6890905
2.6513149
2.6152805
2.5808141
2.5477191
2.5159155
2.4851296
2.4553187
2.4264064
2.3982914
2.3708994
2.3441661
2.3180421
2.2924954
2.2674839
2.242983
2.2189567
2.1953657
2.1721878
2.1494006
2.1269859
2.1049319
2.0832237
2.0618528
2.0408051
2.0200705
1.9996404
1.9795018
1.9596431
1.9400561
1.9207384
1.9016863
1.8828933
1.8643539
1.8460638
1.8280186
1.8102114
1.7926366
1.775291
1.758171
1.7412728
1.7245922
1.7081256
1.6918707
1.6758234
1.6599796
1.6443357
1.6288885
1.6136345
1.5985707
1.5836939
1.5690011
1.5544892
1.5401549
1.5259952
1.5120059
1.4981838
1.4845237
1.4710233
1.4576727
1.4444762
1.4313987
1.4184831
1.4055714
1.3929116
1.3798101
1.3673257
1.3529084
1.341448
1.3197159
0.34564195
1.5979759
2.8396053
3.2967329
3.1714592
2.862635
2.5610749
2.3161353
2.117104
1.9468683
1.798444
1.6701226
1.5605574
1.4675883
1.3887575
1.3213624
1.2636127
1.2141474
1.171637
1.1347955
1.1025122
1.0738741
1.0481455
1.0247909
1.0034469
0.98380077
0.96563658
0.94871245
0.9328239
0.91781185
0.90358132
0.89006231
0.87718267
0.86487942
0.8530775
0.84175484
0.83080496
0.82021832
0.80996999
0.80002207
0.79034493
0.78091676
0.7717198
0.76274026
0.75396314
0.74537873
0.73697292
0.72873199
0.72064649
0.71270858
0.70491176
0.69725055
0.68971956
0.68231458
0.67503047
0.66786339
0.66080958
0.65386423
0.64702268
0.64028199
0.63364081
0.6270975
0.62064941
0.61429429
0.60803036
0.60185578
0.59576788
0.58976456
0.58384443
0.5780061
0.57224795
0.56656833
0.5609659
0.55543957
0.5499878
0.54460904
0.5393019
0.53406511
0.52889743
0.52379765
0.5187646
0.51379716
0.50889419
0.50405453
0.49927707
0.49456049
0.48990361
0.48530493
0.48076354
0.47627709
0.47184587
0.46746244
0.46313411
0.45882801
0.45459046
0.45027799
0.44609269
0.44149167
0.43757521
0.43054863
0.010364539
0.063246818
0.16331428
0.28117326
0.38456068
0.47567921
0.55929599
0.63078261
0.68640989
0.72759608
0.75597435
0.77230412
0.7779229
0.77508071
0.76636675
0.75417081
0.74015723
0.72531456
0.71023545
0.69523571
0.68052958
0.66624748
0.65244283
0.63916867
0.62646372
0.61431429
0.60276968
0.5917587
0.58123214
0.57114927
0.56149608
0.55225345
0.54339491
0.53489474
0.52671428
0.51885102
0.51124244
0.50389277
0.49678711
0.48990311
0.48322295
0.47673356
0.47042384
0.46428366
0.4583026
0.45247342
0.44678566
0.44123024
0.43579996
0.43048884
0.42529182
0.42020386
0.41522037
0.41033723
0.40555007
0.40085553
0.39624995
0.39172941
0.38729019
0.38292972
0.37864613
0.37443738
0.37030102
0.36623486
0.36223709
0.35830583
0.35443884
0.35063427
0.34689071
0.34320671
0.33958076
0.33601139
0.33249731
0.32903736
0.3256302
0.32227449
0.31896905
0.31571274
0.31250449
0.30934326
0.30622802
0.30315783
0.30013174
0.29714882
0.29420814
0.29130875
0.28844972
0.28563007
0.282849
0.28010535
0.27739859
0.27472601
0.27208863
0.26947572
0.26689817
0.26431052
0.26176465
0.25907595
0.25666975
0.25249784
0.00038741288
0.0025208337
0.0090072327
0.019044491
0.031815465
0.046943366
0.066589961
0.090890103
0.12637426
0.17009365
0.21716409
0.26290034
0.30594052
0.34527539
0.37965825
0.40798639
0.42978783
0.44534438
0.45551034
0.46133391
0.46378839
0.46366694
0.4615887
0.45804195
0.45343019
0.44805774
0.44218644
0.43599899
0.42962202
0.42315549
0.41667562
0.41024014
0.40388892
0.39765176
0.39153734
0.38557211
0.37971915
0.37401468
0.36845276
0.36303124
0.35774706
0.35259733
0.34757907
0.34268874
0.33792179
0.33327511
0.32874255
0.3243193
0.32000112
0.3157842
0.31166516
0.30764035
0.30370642
0.29986003
0.2960977
0.29241656
0.28881349
0.2852853
0.28182895
0.27844214
0.27512292
0.27186929
0.26867899
0.26554995
0.26248039
0.25946847
0.25651216
0.25360976
0.25075983
0.24796092
0.24521158
0.24251038
0.23985604
0.23724737
0.23468309
0.23216194
0.2296828
0.22724457
0.22484622
0.22248675
0.2201652
0.21788066
0.21563222
0.21341903
0.21124023
0.20909497
0.2069824
0.20490173
0.20285219
0.20083299
0.19884339
0.1968822
0.19494859
0.19303906
0.19115367
0.18927899
0.18742071
0.18551281
0.18375133
0.18076757
4.6466956e-05
0.00015109552
0.00053492127
0.0014108015
0.0028843216
0.0048681942
0.0073710879
0.010569904
0.015088429
0.021804371
0.031373916
0.046241196
0.066505767
0.090972816
0.11829456
0.14730241
0.17710008
0.20651339
0.23411139
0.25855443
0.27898547
0.29518472
0.30744155
0.31629328
0.32231705
0.32602155
0.32785291
0.32819591
0.32737576
0.32565518
0.32324269
0.32030669
0.31698167
0.31337408
0.30956461
0.30562987
0.30159727
0.29751789
0.29342421
0.28933829
0.28527752
0.28125648
0.27728636
0.27337544
0.26952935
0.2657536
0.2620492
0.25841698
0.25485732
0.25137054
0.24795674
0.24461528
0.24134523
0.23814539
0.23501415
0.23195012
0.2289515
0.22601634
0.22314259
0.22032872
0.21757334
0.21487496
0.21223189
0.20964251
0.20710534
0.20461882
0.20218132
0.1997914
0.19744778
0.19514918
0.19289433
0.19068194
0.18851084
0.18637994
0.18428807
0.18223411
0.18021703
0.17823582
0.17628952
0.17437721
0.172498
0.17065103
0.16883549
0.16705057
0.16529548
0.16356944
0.16187172
0.16020158
0.15855834
0.15694141
0.15534999
0.15378359
0.15224074
0.15072102
0.14922045
0.14773892
0.14626497
0.14478194
0.14339172
0.14106082
2.3854029e-05
3.5520325e-05
6.970429e-05
0.00014639152
0.00029367619
0.00053800366
0.00090350007
0.001411119
0.0020940626
0.0030261871
0.0043035275
0.0061870548
0.0089954222
0.013052887
0.019211749
0.028518515
0.041015509
0.056720809
0.075147329
0.095752226
0.11780448
0.14025613
0.16184281
0.18141926
0.19825608
0.21211898
0.2231478
0.23166058
0.23801167
0.24253309
0.24552604
0.24726139
0.24797385
0.2478601
0.24708164
0.24578073
0.24405738
0.24200379
0.23969591
0.23719361
0.23454516
0.23179008
0.22896077
0.22608372
0.2231798
0.22026693
0.21735844
0.21446468
0.21159394
0.20875298
0.2059472
0.2031806
0.20045637
0.1977768
0.19514344
0.19255758
0.19001955
0.18752929
0.18508646
0.18269086
0.1803422
0.17804
0.17578347
0.1735718
0.17140417
0.16927966
0.1671972
0.1651558
0.16315459
0.16119261
0.15926889
0.15738242
0.15553228
0.1537176
0.1519374
0.15019077
0.14847681
0.14679468
0.14514355
0.14352261
0.1419311
0.14036824
0.13883333
0.13732564
0.13584447
0.13438914
0.13295897
0.13155336
0.13017168
0.12881346
0.12747797
0.12616505
0.12487308
0.12360303
0.12234956
0.12111828
0.11989186
0.118675
0.11752983
0.11561201
2.0676522e-05
2.3392529e-05
2.9462025e-05
4.132611e-05
6.2183279e-05
9.5970805e-05
0.00014780372
0.00022415621
0.00033309194
0.00048637475
0.00069867856
0.00099543984
0.0014163298
0.0020110627
0.0028692465
0.0041576233
0.0060705247
0.0088338877
0.013146467
0.019638876
0.028574629
0.040151831
0.054060293
0.069945289
0.087156801
0.10475918
0.12170262
0.13711496
0.15049595
0.16171606
0.17088215
0.17819731
0.18388432
0.18816296
0.19124213
0.19331766
0.19455369
0.19509261
0.19505787
0.19455344
0.19366616
0.19246862
0.19102151
0.18937579
0.18757343
0.18564994
0.1836345
0.18155092
0.17941878
0.17725436
0.17507109
0.17288002
0.17069018
0.16850895
0.16634235
0.16419529
0.16207162
0.15997425
0.15790537
0.15586676
0.15385984
0.15188569
0.14994488
0.14803781
0.14616474
0.14432569
0.14252035
0.14074846
0.13900974
0.13730378
0.13563009
0.1339881
0.13237724
0.13079695
0.12924658
0.12772548
0.126233
0.12476851
0.12333138
0.12192096
0.12053666
0.11917785
0.11784393
0.11653433
0.11524844
0.11398569
0.11274551
0.1115274
0.11033082
0.1091554
0.10800051
0.10686616
0.10575082
0.10465605
0.10357633
0.10251949
0.10146727
0.10043285
0.099462585
0.097831311
1.9790611e-05
2.0926172e-05
2.2765207e-05
2.5811834e-05
3.0694302e-05
3.8094418e-05
4.8821288e-05
6.3923248e-05
8.4773281e-05
0.00011333268
0.00015228578
0.00020559836
0.00027927199
0.00038182404
0.00052551737
0.00073096771
0.0010287077
0.0014559494
0.002089079
0.0030531621
0.0045140077
0.006664642
0.010148068
0.01537221
0.022639054
0.032069613
0.043459963
0.056444891
0.070387435
0.084444289
0.097792183
0.10984441
0.1203252
0.12919961
0.13655669
0.14253385
0.14728173
0.15095464
0.15370214
0.1556606
0.15695068
0.15767794
0.15793367
0.15779653
0.15733345
0.15660159
0.15564954
0.15451817
0.15324182
0.15184939
0.15036513
0.14880949
0.14719955
0.14554967
0.14387191
0.14217632
0.14047133
0.13876385
0.13705956
0.13536314
0.13367846
0.13200878
0.13035664
0.12872405
0.12711272
0.12552395
0.12395866
0.12241755
0.12090114
0.11940981
0.11794374
0.11650296
0.11508741
0.11369697
0.11233143
0.1109905
0.10967387
0.1083812
0.10711211
0.10586621
0.1046431
0.10344235
0.10226355
0.10110626
0.09997003
0.098854429
0.09775901
0.096683376
0.095627107
0.094589949
0.093571372
0.092571518
0.091589013
0.09062564
0.089676238
0.088749195
0.087827419
0.08692649
0.086087789
0.084668724
1.9242208e-05
1.9993799e-05
2.087659e-05
2.2007922e-05
2.3601291e-05
2.5880217e-05
2.9071025e-05
3.3409196e-05
3.9160671e-05
4.6672735e-05
5.6414948e-05
6.9051861e-05
8.5538203e-05
0.00010729035
0.00013630719
0.00017564853
0.00023008299
0.00030612435
0.00041412307
0.00057110117
0.00080390435
0.0011456053
0.001671596
0.0024950951
0.0037624307
0.0057469381
0.0089469672
0.013678798
0.020212856
0.028501629
0.03836218
0.049368477
0.060872307
0.072160288
0.082657062
0.092033253
0.100177
0.10710405
0.11288771
0.11762732
0.12143504
0.12442493
0.12670461
0.1283726
0.12951723
0.13021661
0.13053925
0.1305445
0.13028346
0.1298
0.12913149
0.12830996
0.12736264
0.12631271
0.12517994
0.12398105
0.12273033
0.12143985
0.12011978
0.11877868
0.11742376
0.11606113
0.11469591
0.11333234
0.111974
0.11062393
0.10928458
0.10795797
0.10664574
0.10534927
0.10406964
0.10280767
0.10156399
0.10033908
0.099133287
0.097946806
0.096779759
0.095632184
0.094504055
0.093395286
0.092305747
0.091235266
0.090183641
0.089150643
0.088136007
0.087139461
0.086160715
0.085199513
0.084255567
0.083328738
0.082418635
0.081525493
0.080648156
0.079788445
0.078941784
0.078116306
0.07729698
0.076498859
0.075763094
0.074509136
1.8756272e-05
1.9345729e-05
1.9956195e-05
2.0571378e-05
2.1256616e-05
2.2123675e-05
2.3284546e-05
2.4842363e-05
2.6889493e-05
2.9519587e-05
3.2842105e-05
3.6987868e-05
4.2142642e-05
4.8572349e-05
5.6646388e-05
6.6892469e-05
8.010331e-05
9.7403044e-05
0.0001204499
0.00015179984
0.00019560577
0.00025755892
0.0003475413
0.00048230875
0.00068676515
0.0010010627
0.0015031119
0.0023083449
0.0035570223
0.0056468495
0.0089049527
0.013606387
0.019838472
0.027504419
0.036312267
0.045759171
0.055244787
0.064250824
0.072451404
0.07970571
0.085989327
0.091335787
0.095808566
0.099487944
0.10246002
0.10480916
0.10661486
0.10795005
0.10888019
0.10946334
0.1097504
0.10978583
0.10960823
0.10925097
0.10874286
0.10810865
0.10736968
0.1065443
0.10564823
0.10469486
0.10369564
0.10266033
0.10159727
0.10051357
0.099415246
0.098307495
0.097194723
0.096080621
0.094968315
0.09386045
0.092759247
0.091666551
0.09058388
0.08951249
0.088453418
0.087407493
0.086375382
0.085357613
0.084354595
0.083366631
0.082393935
0.08143665
0.08049485
0.079568557
0.078657736
0.077762319
0.076882203
0.076017299
0.07516748
0.074332741
0.073512849
0.072708132
0.071917675
0.071143262
0.070380982
0.06963836
0.068902681
0.068187183
0.067534585
0.066414207
1.8309142e-05
1.8782386e-05
1.9265244e-05
1.9714912e-05
2.0137146e-05
2.0572352e-05
2.1078615e-05
2.1717149e-05
2.2542206e-05
2.3599656e-05
2.4930421e-05
2.6584983e-05
2.8614478e-05
3.1083726e-05
3.4079478e-05
3.7719713e-05
4.2174406e-05
4.7664835e-05
5.4502386e-05
6.3147759e-05
7.4310639e-05
8.8998555e-05
0.0001087538
0.00013609244
0.00017496329
0.00023148211
0.00031639542
0.00044831774
0.00065268523
0.00098432472
0.0015320091
0.0024105286
0.003883081
0.0062734492
0.0098432518
0.014725256
0.02087616
0.028082904
0.035938182
0.0439355
0.051626592
0.058719446
0.065074697
0.070650867
0.075458708
0.079538881
0.082949645
0.085756518
0.088025737
0.089821114
0.091202052
0.09222273
0.092931788
0.093372381
0.093582593
0.093595736
0.093440949
0.093143641
0.092725887
0.092206778
0.09160276
0.090928037
0.090194865
0.0894138
0.088593916
0.087743059
0.086868002
0.085974532
0.0850676
0.084151454
0.083229736
0.082305549
0.081381524
0.080459894
0.079542563
0.078631134
0.07772696
0.076831174
0.075944726
0.075068399
0.074202839
0.073348569
0.07250601
0.071675491
0.070857255
0.070051485
0.069258303
0.068477822
0.067710105
0.066955308
0.066213375
0.065484742
0.064768752
0.064067127
0.063376637
0.06270407
0.062038998
0.061392389
0.060808906
0.05980014
1.7894229e-05
1.8275842e-05
1.8667505e-05
1.9031105e-05
1.9356582e-05
1.965387e-05
1.9947115e-05
2.0268181e-05
2.065003e-05
2.1123249e-05
2.1714624e-05
2.2449886e-05
2.3353121e-05
2.4448376e-05
2.5762401e-05
2.7327629e-05
2.918375e-05
3.1396818e-05
3.4055397e-05
3.72678e-05
4.1188938e-05
4.6039023e-05
5.211826e-05
5.98679e-05
6.9984238e-05
8.3511873e-05
0.00010210789
0.00012862122
0.00016724135
0.00022547885
0.00031701552
0.00046223327
0.00070068494
0.0011036586
0.0017687896
0.0028980727
0.0047808619
0.0076581034
0.011664124
0.016781577
0.022835949
0.029477239
0.036273117
0.042846509
0.048952241
0.054468059
0.059349872
0.063597885
0.067239554
0.070318354
0.072884836
0.074991441
0.076689508
0.07802743
0.07904983
0.079797122
0.080305585
0.08060753
0.080731539
0.080702742
0.080543103
0.080271805
0.07990558
0.079458996
0.078944696
0.078373676
0.077755511
0.077098481
0.076409743
0.075695487
0.074961073
0.074211129
0.073449642
0.072680039
0.07190528
0.071127912
0.07035012
0.069573778
0.068800495
0.06803164
0.06726838
0.066511705
0.065762452
0.065021324
0.0642889
0.063565664
0.062852008
0.06214829
0.061454792
0.060771863
0.060099654
0.059438726
0.058788692
0.058151228
0.057523759
0.056912337
0.056308651
0.055721391
0.055196854
0.054283949
1.7503634e-05
1.7813657e-05
1.8133662e-05
1.8434381e-05
1.8704245e-05
1.8943657e-05
1.9161518e-05
1.9372112e-05
1.959214e-05
1.9839242e-05
2.013099e-05
2.0484454e-05
2.0915775e-05
2.1439967e-05
2.2071381e-05
2.282473e-05
2.3715133e-05
2.4762522e-05
2.5993821e-05
2.7441882e-05
2.9148561e-05
3.1166993e-05
3.3580807e-05
3.6514855e-05
4.0127277e-05
4.4643817e-05
5.0399937e-05
5.7884121e-05
6.7860076e-05
8.1537664e-05
0.00010102998
0.00012963155
0.00017302934
0.00024195413
0.00035334482
0.00053913198
0.00086015523
0.0014023217
0.0023430782
0.0039353949
0.0063976871
0.0098422198
0.014256751
0.019477858
0.02518725
0.031013221
0.036647312
0.041894651
0.046656308
0.050893271
0.054602794
0.057805333
0.060534562
0.062830334
0.064734639
0.066288998
0.067532991
0.06850344
0.069234016
0.06975513
0.070093967
0.0702747
0.07031872
0.070244895
0.070069789
0.069807929
0.069472055
0.069073305
0.068621387
0.068124763
0.067590811
0.06702596
0.0664358
0.065825182
0.065198328
0.064558904
0.063910096
0.063254664
0.062595003
0.061933186
0.061271006
0.060610009
0.059951532
0.059296723
0.058646563
0.058001893
0.05736343
0.056731815
0.056107596
0.055491348
0.054883454
0.054284635
0.053694785
0.053115558
0.052545008
0.05198851
0.051439652
0.050905048
0.050432039
0.049603494
1.7130641e-05
1.7384872e-05
1.7648374e-05
1.7899182e-05
1.8127173e-05
1.8330272e-05
1.8511901e-05
1.8678601e-05
1.8838181e-05
1.8999269e-05
1.9171367e-05
1.9364669e-05
1.9589693e-05
1.9856861e-05
2.017627e-05
2.0557765e-05
2.1010785e-05
2.1545071e-05
2.2171842e-05
2.2904255e-05
2.3758019e-05
2.4751498e-05
2.5909373e-05
2.7267367e-05
2.8871146e-05
3.078054e-05
3.3071545e-05
3.5895364e-05
3.9431357e-05
4.393629e-05
4.982278e-05
5.7678852e-05
6.8467786e-05
8.3888023e-05
0.0001066846
0.00014155798
0.00019764723
0.00028975822
0.0004465326
0.00072344978
0.0011991873
0.0020474473
0.0034886672
0.00571803
0.0088101231
0.012743548
0.01734609
0.022321059
0.027352291
0.03219595
0.036704176
0.040801453
0.044457276
0.047670057
0.050456659
0.052844282
0.05486527
0.056553848
0.057944027
0.059068379
0.059957327
0.060638839
0.061138299
0.061478558
0.061680024
0.061760833
0.061737063
0.061622922
0.061430921
0.061172058
0.060855995
0.060491209
0.060085133
0.059644262
0.059174286
0.058680181
0.0581663
0.057636444
0.057093937
0.056541676
0.055982191
0.055417689
0.054850094
0.054281081
0.053712103
0.053144424
0.05257914
0.05201723
0.05145955
0.050906941
0.050360052
0.049819794
0.049286363
0.04876143
0.048243641
0.047737788
0.047239129
0.046752508
0.046325629
0.045572973
1.6770405e-05
1.6980883e-05
1.7199748e-05
1.7410529e-05
1.7604775e-05
1.7779745e-05
1.7936784e-05
1.8079386e-05
1.8211594e-05
1.8337597e-05
1.8461989e-05
1.8589969e-05
1.8727359e-05
1.8880465e-05
1.9055919e-05
1.926055e-05
1.950114e-05
1.9784378e-05
2.0117108e-05
2.0506599e-05
2.0960842e-05
2.1488667e-05
2.210031e-05
2.2808837e-05
2.3630787e-05
2.4587327e-05
2.5702841e-05
2.7017761e-05
2.8585445e-05
3.0474596e-05
3.2780163e-05
3.5680585e-05
3.9394659e-05
4.4270265e-05
5.0831463e-05
5.9887462e-05
7.2917765e-05
9.2353261e-05
0.00012243785
0.00017162945
0.00025363955
0.00039676012
0.00065503777
0.0011039567
0.0019272997
0.0033162956
0.0054258322
0.0083069945
0.011905598
0.016029331
0.02040322
0.024768024
0.028940031
0.032811711
0.036328084
0.039468022
0.042232834
0.044637648
0.046705369
0.048462859
0.049938413
0.051160168
0.0521551
0.052948489
0.053563615
0.054021669
0.054341787
0.054541144
0.054635077
0.054637222
0.054559675
0.054413136
0.054207065
0.053949792
0.05364866
0.05331013
0.052939889
0.05254293
0.052123646
0.051685892
0.051233051
0.050768094
0.050293632
0.049811951
0.049325055
0.0488347
0.048342425
0.047849602
0.047357444
0.046867102
0.046379532
0.045895872
0.045416637
0.04494356
0.044475852
0.044017826
0.043566196
0.043124373
0.042739754
0.042056768
1.6419602e-05
1.6595471e-05
1.6778835e-05
1.6957333e-05
1.7124009e-05
1.7275957e-05
1.7413479e-05
1.7538644e-05
1.7653928e-05
1.7761712e-05
1.7864374e-05
1.7964478e-05
1.8064912e-05
1.816896e-05
1.828034e-05
1.8403197e-05
1.854196e-05
1.8701231e-05
1.8885753e-05
1.9100422e-05
1.9350349e-05
1.9640931e-05
1.9977954e-05
2.0367941e-05
2.0818519e-05
2.1338999e-05
2.1940033e-05
2.2635746e-05
2.3445033e-05
2.4392285e-05
2.5507173e-05
2.6838473e-05
2.8450799e-05
3.0428894e-05
3.2915619e-05
3.612478e-05
4.0369921e-05
4.6145139e-05
5.4184177e-05
6.5884913e-05
8.353603e-05
0.00011131123
0.0001576968
0.00023614474
0.0003776188
0.00063533239
0.0011022561
0.0019544305
0.0033604649
0.0054301922
0.0081850621
0.011529671
0.015254549
0.019114748
0.022908501
0.02650389
0.029825562
0.032835789
0.035522153
0.037888841
0.039950102
0.041725924
0.043239116
0.044513423
0.045572308
0.046438215
0.047132165
0.047673565
0.048080131
0.048367905
0.048551325
0.048643324
0.048655448
0.048597968
0.048480004
0.048309638
0.048094029
0.047839501
0.047551647
0.047235401
0.046895119
0.046534645
0.046157369
0.045766285
0.045364026
0.044952916
0.044535003
0.044112114
0.043685871
0.043257788
0.042829162
0.042401405
0.041975374
0.041552913
0.041133774
0.040721903
0.040315271
0.039916199
0.039571164
0.038953364
1.6076012e-05
1.6224264e-05
1.6379165e-05
1.6531426e-05
1.667538e-05
1.6808188e-05
1.6929526e-05
1.7040587e-05
1.7143016e-05
1.72384e-05
1.7328225e-05
1.741394e-05
1.7497046e-05
1.757918e-05
1.7662218e-05
1.7748358e-05
1.7840104e-05
1.7940236e-05
1.8051791e-05
1.8178027e-05
1.8322388e-05
1.8488504e-05
1.8680198e-05
1.8901547e-05
1.9156993e-05
1.945157e-05
1.9790945e-05
2.018177e-05
2.0632257e-05
2.1152804e-05
2.1755791e-05
2.2458136e-05
2.32829e-05
2.4258949e-05
2.542826e-05
2.6852514e-05
2.8615947e-05
3.0839671e-05
3.3737842e-05
3.7614158e-05
4.2952884e-05
5.0473933e-05
6.1610049e-05
7.8620337e-05
0.00010610522
0.00015268611
0.00023421081
0.00038571472
0.00066198319
0.0011823606
0.0021084434
0.0035818826
0.0056666135
0.0083411373
0.011466994
0.014833756
0.018238849
0.02153486
0.024630624
0.027475144
0.03004474
0.032334257
0.034350326
0.036106694
0.037621076
0.038913041
0.040002643
0.040909564
0.041652584
0.042249282
0.042715887
0.04306723
0.04331677
0.043476644
0.043557748
0.043569835
0.043521606
0.043420813
0.043274347
0.043088328
0.042868186
0.042618737
0.042344249
0.042048508
0.041734862
0.041406278
0.041065382
0.040714519
0.04035578
0.039991091
0.039622137
0.039250649
0.038877852
0.038505753
0.038134631
0.037768169
0.037405429
0.037047965
0.03674079
0.036185075
1.5738203e-05
1.5864231e-05
1.5996131e-05
1.6126901e-05
1.625197e-05
1.6368695e-05
1.6476379e-05
1.657562e-05
1.6667495e-05
1.6753122e-05
1.6833561e-05
1.69098e-05
1.6982773e-05
1.7053401e-05
1.7122661e-05
1.7191671e-05
1.7261723e-05
1.7334305e-05
1.7411132e-05
1.7494149e-05
1.7585508e-05
1.7687553e-05
1.7802814e-05
1.7934001e-05
1.8084017e-05
1.825602e-05
1.8453476e-05
1.8680236e-05
1.8940706e-05
1.9240132e-05
1.9584682e-05
1.9981914e-05
2.0441592e-05
2.0975911e-05
2.1600768e-05
2.2338045e-05
2.3217259e-05
2.4276833e-05
2.557776e-05
2.7205868e-05
2.9276181e-05
3.2005979e-05
3.5711951e-05
4.0878292e-05
4.8301283e-05
5.9469128e-05
7.6924124e-05
0.00010608627
0.00015627315
0.00024798401
0.00042078522
0.00074360027
0.0013554188
0.0023988975
0.0039699472
0.0060938613
0.0086943164
0.011603822
0.014632241
0.017625837
0.020482724
0.023142025
0.025571313
0.027757806
0.029701674
0.031411223
0.032899617
0.034182642
0.035277223
0.036200439
0.036968914
0.037598432
0.03810374
0.038498439
0.038794967
0.039004614
0.03913758
0.039203041
0.039209226
0.039163497
0.03907243
0.038941889
0.038777102
0.038582724
0.038362895
0.038121298
0.037861207
0.037585549
0.03729694
0.036997774
0.036690174
0.03637623
0.036057574
0.035736422
0.035413575
0.035092559
0.034773378
0.03445712
0.034186863
0.033691275
1.5405319e-05
1.5513318e-05
1.5626487e-05
1.5739526e-05
1.5848776e-05
1.5951859e-05
1.6047884e-05
1.6137039e-05
1.6219984e-05
1.6297498e-05
1.6370359e-05
1.6439308e-05
1.6505029e-05
1.6568149e-05
1.6629275e-05
1.6689037e-05
1.6748123e-05
1.6807303e-05
1.6867474e-05
1.6929685e-05
1.6995146e-05
1.7065234e-05
1.7141492e-05
1.7225629e-05
1.7319516e-05
1.74252e-05
1.7544919e-05
1.7681123e-05
1.7836525e-05
1.8014194e-05
1.8217635e-05
1.8450912e-05
1.8718924e-05
1.902763e-05
1.938438e-05
1.9798589e-05
2.0282607e-05
2.0852029e-05
2.152852e-05
2.2342576e-05
2.3332433e-05
2.4560292e-05
2.6116858e-05
2.81209e-05
3.0803094e-05
3.450153e-05
3.9741638e-05
4.7470699e-05
5.9314121e-05
7.8481117e-05
0.00011136876
0.00016979091
0.00028119206
0.00049048106
0.00089859908
0.0016396732
0.0028274563
0.0045140594
0.0066707272
0.009172705
0.011850566
0.014552344
0.017170465
0.019637323
0.021914037
0.023981881
0.025835787
0.027479526
0.028922378
0.030176816
0.031256952
0.032177483
0.032953017
0.03359764
0.034124662
0.034546475
0.034874495
0.035119156
0.035289942
0.035395424
0.035443329
0.035440604
0.035393479
0.035307537
0.035187769
0.035038637
0.034864124
0.034667799
0.034452861
0.034222225
0.033978496
0.033724177
0.033461335
0.033192452
0.032918848
0.032643988
0.032368698
0.032093875
0.031860257
0.031423808
1.5076916e-05
1.5170173e-05
1.5267976e-05
1.5366289e-05
1.54622e-05
1.5553623e-05
1.5639591e-05
1.5720023e-05
1.5795274e-05
1.586586e-05
1.5932343e-05
1.5995289e-05
1.6055227e-05
1.6112643e-05
1.6167982e-05
1.6221675e-05
1.627415e-05
1.6325848e-05
1.6377254e-05
1.6428923e-05
1.6481496e-05
1.6535716e-05
1.6592443e-05
1.6652663e-05
1.6717492e-05
1.6788185e-05
1.6866145e-05
1.695293e-05
1.7050265e-05
1.7160078e-05
1.7284528e-05
1.7426056e-05
1.7587473e-05
1.7772072e-05
1.7983763e-05
1.8227284e-05
1.850857e-05
1.8834989e-05
1.9215973e-05
1.9664249e-05
2.0195831e-05
2.0833043e-05
2.1608191e-05
2.2561733e-05
2.3760046e-05
2.5300848e-05
2.7314319e-05
3.0064755e-05
3.3923163e-05
3.9518725e-05
4.7991183e-05
6.1320482e-05
8.3883427e-05
0.0001233413
0.00019757703
0.00034049372
0.00061934038
0.0011523345
0.002057144
0.0034023305
0.0051932144
0.0073426736
0.0097047766
0.012134656
0.014523271
0.016799214
0.018919337
0.020860627
0.022614005
0.024179618
0.025563525
0.026775377
0.027826825
0.02873044
0.029498993
0.030144992
0.030680391
0.031116426
0.031463526
0.031731286
0.031928475
0.032063063
0.03214227
0.032172616
0.032159972
0.032109615
0.032026284
0.031914237
0.031777307
0.031618979
0.031442384
0.031250484
0.031045816
0.030831177
0.030608412
0.030381017
0.030150541
0.029917932
0.029721243
0.029343789
1.475284e-05
1.4833951e-05
1.491906e-05
1.5005068e-05
1.5089665e-05
1.5171059e-05
1.5248285e-05
1.5321092e-05
1.538962e-05
1.5454182e-05
1.5515169e-05
1.5573005e-05
1.5628102e-05
1.5680848e-05
1.5731599e-05
1.5780692e-05
1.5828443e-05
1.5875153e-05
1.5921129e-05
1.5966693e-05
1.60122e-05
1.6058049e-05
1.6104696e-05
1.6152673e-05
1.6202592e-05
1.6255165e-05
1.6311207e-05
1.6371651e-05
1.6437554e-05
1.651011e-05
1.6590664e-05
1.6680735e-05
1.6782045e-05
1.6896568e-05
1.7026583e-05
1.7174763e-05
1.734431e-05
1.7539098e-05
1.7763874e-05
1.8024692e-05
1.8329165e-05
1.8687084e-05
1.9111908e-05
1.9620722e-05
2.0237547e-05
2.0997454e-05
2.1944544e-05
2.3154433e-05
2.4733845e-05
2.6843867e-05
2.9788188e-05
3.4002859e-05
4.031371e-05
5.0084582e-05
6.6226916e-05
9.4340655e-05
0.00014610233
0.0002472837
0.00044361678
0.00083465603
0.0015324784
0.0026161626
0.0041121151
0.005963658
0.0080480221
0.010230702
0.012404552
0.014496873
0.016462172
0.018274653
0.019922356
0.021402657
0.022719034
0.023878794
0.024891484
0.02576781
0.0265189
0.027155828
0.027689299
0.028129468
0.028485832
0.028767185
0.028981609
0.029136491
0.029238547
0.029293869
0.029307961
0.029285801
0.029231885
0.029150303
0.029044757
0.028918701
0.028775178
0.028617346
0.028447585
0.0282695
0.02808529
0.027896167
0.027737195
0.027419351
1.4433138e-05
1.4504169e-05
1.4578721e-05
1.4654387e-05
1.4729341e-05
1.4802066e-05
1.4871646e-05
1.4937735e-05
1.5000323e-05
1.5059572e-05
1.5115739e-05
1.5169129e-05
1.522006e-05
1.526884e-05
1.531576e-05
1.5361093e-05
1.5405096e-05
1.5448008e-05
1.5490054e-05
1.553146e-05
1.5572451e-05
1.5613263e-05
1.5654151e-05
1.5695401e-05
1.5737338e-05
1.5780343e-05
1.5824856e-05
1.5871396e-05
1.5920565e-05
1.597306e-05
1.6029685e-05
1.6091359e-05
1.6159136e-05
1.623422e-05
1.6317994e-05
1.6412057e-05
1.6518274e-05
1.6638848e-05
1.6776407e-05
1.6934158e-05
1.7116054e-05
1.7326994e-05
1.7573336e-05
1.7863177e-05
1.8207049e-05
1.8619618e-05
1.9119485e-05
1.9733798e-05
2.0501112e-05
2.1473703e-05
2.2740042e-05
2.4418687e-05
2.6730644e-05
3.0017646e-05
3.4885328e-05
4.2361021e-05
5.44257e-05
7.5358554e-05
0.00011309084
0.00018715276
0.0003314215
0.00062531464
0.0011722356
0.0020572936
0.0033188013
0.0049227522
0.0067670019
0.0087288324
0.010705451
0.012624921
0.014441006
0.016126395
0.017667237
0.019058895
0.020302852
0.021404512
0.022371663
0.023213404
0.023939426
0.024559518
0.02508326
0.025519812
0.025877811
0.026165301
0.026389712
0.026557869
0.026676
0.026749786
0.026784389
0.026784523
0.026754477
0.026698233
0.026619361
0.026521421
0.026407335
0.026280891
0.026144879
0.026000959
0.025880935
0.025624003
1.4117988e-05
1.4180598e-05
1.4246311e-05
1.4313239e-05
1.4379938e-05
1.4445136e-05
1.4508e-05
1.4568135e-05
1.4625434e-05
1.4679948e-05
1.4731829e-05
1.4781287e-05
1.4828561e-05
1.4873891e-05
1.4917513e-05
1.4959652e-05
1.5000521e-05
1.504032e-05
1.5079234e-05
1.511744e-05
1.5155107e-05
1.5192399e-05
1.5229482e-05
1.5266524e-05
1.5303708e-05
1.5341238e-05
1.5379348e-05
1.5418309e-05
1.5458443e-05
1.5500131e-05
1.5543821e-05
1.5590039e-05
1.5639398e-05
1.5692613e-05
1.575051e-05
1.581405e-05
1.5884346e-05
1.5962704e-05
1.6050653e-05
1.6150018e-05
1.6262994e-05
1.6392244e-05
1.6541079e-05
1.6713651e-05
1.6915176e-05
1.7152542e-05
1.7434551e-05
1.7772964e-05
1.8184036e-05
1.8689011e-05
1.9319913e-05
2.0119209e-05
2.1154534e-05
2.2527684e-05
2.4389356e-05
2.7032461e-05
3.0897525e-05
3.6824733e-05
4.6222866e-05
6.2374416e-05
9.1162701e-05
0.00014726525
0.00025824748
0.0004856859
0.00092380896
0.0016583305
0.0027347088
0.0041350715
0.005774322
0.0075414301
0.0093394317
0.01109871
0.012773576
0.014336251
0.015771832
0.017074323
0.018243728
0.019283954
0.020201342
0.021003642
0.021699298
0.022296977
0.02280525
0.023232384
0.023586224
0.023874117
0.024102887
0.024278827
0.024407722
0.024494887
0.024545191
0.02456315
0.024552876
0.024518355
0.024463061
0.02439102
0.024305574
0.024208975
0.024129526
0.023935424
1.3807651e-05
1.3863179e-05
1.3921448e-05
1.3980956e-05
1.4040558e-05
1.4099203e-05
1.4156146e-05
1.4210983e-05
1.4263544e-05
1.4313804e-05
1.4361834e-05
1.440777e-05
1.4451783e-05
1.4494058e-05
1.4534782e-05
1.4574139e-05
1.4612308e-05
1.4649455e-05
1.4685739e-05
1.4721307e-05
1.47563e-05
1.4790847e-05
1.4825072e-05
1.4859094e-05
1.4893031e-05
1.4927002e-05
1.4961138e-05
1.4995585e-05
1.5030509e-05
1.5066111e-05
1.5102624e-05
1.5140332e-05
1.5179569e-05
1.5220735e-05
1.5264301e-05
1.5310825e-05
1.5360959e-05
1.541547e-05
1.5475261e-05
1.5541396e-05
1.5615142e-05
1.5698014e-05
1.5791851e-05
1.5898909e-05
1.6021973e-05
1.6164572e-05
1.6331178e-05
1.6527529e-05
1.676126e-05
1.7042227e-05
1.7384145e-05
1.7805178e-05
1.8331144e-05
1.8999768e-05
1.9861737e-05
2.1004888e-05
2.2551868e-05
2.472822e-05
2.7888932e-05
3.2722113e-05
4.0316883e-05
5.3194186e-05
7.6101064e-05
0.00012029639
0.0002086111
0.0003903888
0.00075033806
0.0013714786
0.0023028525
0.0035373207
0.0050031548
0.0066001517
0.0082379657
0.0098504136
0.011393339
0.012839333
0.014173119
0.015387899
0.016482637
0.017460103
0.018325484