/*--------------------------------*- C++ -*----------------------------------*\
| =========                 |                                                 |
| \\      /  F ield         | OpenFOAM: The Open Source CFD Toolbox           |
|  \\    /   O peration     | Version:  2206                                  |
|   \\  /    A nd           | Website:  www.openfoam.com                      |
|    \\/     M anipulation  |                                                 |
\*---------------------------------------------------------------------------*/
FoamFile
{
    version     2.0;
    format      ascii;
    arch        "LSB;label=32;scalar=64";
    class       volScalarField;
    location    "600";
    object      k;
}
// * * * * * * * * * * * * * * * * * * * * * * * * * * * * * * * * * * * * * //

dimensions      [0 2 -2 0 0 0 0];

internalField   nonuniform List<scalar> 
7480
(
0.032171023
0.062200433
0.068874102
0.063418297
0.054849001
0.047474896
0.042160201
0.038329472
0.035390715
0.032997333
0.030990243
0.029295509
0.027864203
0.026654272
0.025628948
0.024755425
0.024008909
0.023370129
0.022819131
0.022345279
0.02192847
0.02155868
0.021226816
0.020925132
0.020648569
0.020392955
0.020155439
0.019933125
0.019723418
0.019524185
0.019334235
0.019152738
0.018978801
0.018811685
0.018650516
0.018494977
0.01834379
0.018196795
0.018053662
0.017913929
0.017777264
0.017643377
0.017512049
0.017383145
0.017256477
0.017131943
0.01700938
0.016888606
0.016769526
0.016652039
0.016536067
0.016421563
0.016308463
0.016196736
0.016086322
0.015977178
0.015869271
0.015762543
0.015656945
0.01555244
0.015449028
0.015346697
0.015245423
0.015145185
0.015045969
0.014947759
0.014850527
0.014754252
0.014658922
0.014564529
0.014471057
0.014378491
0.014286821
0.014196039
0.014106131
0.014017081
0.013928877
0.013841506
0.013754957
0.013669219
0.01358428
0.013500131
0.013416759
0.013334152
0.013252299
0.013171182
0.013090788
0.013011092
0.012932087
0.012853719
0.012776019
0.012698784
0.012622274
0.012545552
0.012470098
0.01239177
0.012316904
0.012230167
0.012161001
0.012029346
0.0025273057
0.0095537573
0.016649406
0.020683999
0.021732079
0.021460426
0.020822268
0.020169981
0.019533864
0.018902138
0.018290563
0.017723788
0.017216055
0.016769561
0.016380986
0.016037391
0.015737938
0.015481035
0.015261259
0.015069943
0.014900925
0.014748367
0.014607631
0.014476169
0.014352879
0.01423634
0.014126262
0.01402065
0.013918186
0.01381809
0.013720413
0.013625131
0.013532004
0.013440853
0.013351112
0.013263147
0.01317558
0.013089064
0.013003524
0.012918686
0.012834401
0.012750624
0.012667353
0.012584584
0.012502278
0.012420481
0.012339103
0.012258089
0.012177431
0.012097127
0.012017201
0.011937663
0.011858526
0.011779808
0.0117015
0.011623624
0.011546185
0.011469166
0.011392553
0.011316357
0.011240612
0.011165336
0.011090532
0.011016206
0.010942371
0.010869035
0.010796188
0.010723832
0.01065198
0.010580637
0.010509807
0.01043949
0.010369692
0.01030042
0.010231673
0.01016345
0.010095749
0.010028574
0.0099619233
0.0098957988
0.0098302006
0.0097651295
0.0097005857
0.009636569
0.0095730786
0.0095101124
0.0094476688
0.009385746
0.0093243447
0.0092634634
0.0092031048
0.0091432492
0.0090839032
0.0090249387
0.0089664471
0.0089077804
0.0088495085
0.0087885619
0.0087342452
0.0086365503
0.00021839245
0.00056910202
0.0013054034
0.0026297933
0.0042075458
0.0058211685
0.0072753013
0.008509187
0.0095721498
0.010498373
0.011292542
0.011949788
0.012474418
0.012883961
0.013201989
0.013456699
0.013663351
0.013830274
0.013963722
0.014068058
0.014147595
0.014205756
0.014244682
0.014267956
0.014278521
0.014277638
0.014270281
0.014254663
0.014231788
0.014202302
0.014167872
0.014129339
0.014087242
0.014042125
0.013993777
0.013943534
0.013889551
0.013833896
0.013776351
0.013716902
0.013655678
0.013592873
0.01352869
0.013463294
0.013396795
0.013329402
0.013261092
0.013191932
0.013122014
0.013051426
0.012980283
0.012908662
0.012836648
0.012764316
0.012691708
0.012618901
0.012545937
0.01247284
0.012399622
0.012326339
0.012253061
0.012179837
0.012106692
0.012033659
0.011960778
0.011888076
0.011815559
0.01174325
0.011671179
0.01159937
0.011527841
0.011456605
0.011385681
0.011315091
0.011244844
0.01117495
0.011105418
0.01103626
0.010967487
0.010899108
0.010831132
0.010763569
0.010696426
0.010629713
0.010563436
0.010497602
0.010432215
0.010367286
0.010302823
0.010238843
0.010175347
0.010112373
0.010049858
0.0099879088
0.0099262143
0.0098651096
0.0098035056
0.0097417347
0.0096837964
0.0095833508
0.00015741732
0.00016923727
0.00020026352
0.00028160642
0.00044868602
0.00069498795
0.0011513776
0.0017912251
0.0026163334
0.0035369644
0.0044944123
0.0054733733
0.0064614013
0.0074357453
0.0083650656
0.0092208138
0.0099850146
0.0106526
0.011228978
0.011723907
0.012147294
0.012507896
0.012813901
0.013071952
0.013288623
0.013468881
0.013618308
0.01374145
0.013841607
0.01392242
0.01398642
0.014035965
0.014073012
0.014099476
0.014116163
0.014125325
0.01412383
0.014116887
0.014103117
0.014083543
0.014058742
0.014029265
0.01399562
0.013958243
0.013917488
0.013873809
0.013827284
0.013778204
0.013726801
0.013673301
0.013617944
0.01356091
0.013502392
0.013442552
0.0133815
0.013319395
0.013256335
0.013192399
0.013127647
0.013062191
0.012996149
0.012929611
0.012862638
0.012795298
0.012727664
0.012659791
0.01259171
0.012523468
0.012455121
0.012386713
0.012318281
0.012249856
0.012181475
0.012113178
0.012044986
0.011976923
0.011909013
0.011841278
0.011773742
0.011706424
0.011639345
0.011572523
0.011505978
0.011439726
0.011373783
0.011308163
0.011242882
0.011177959
0.01111341
0.011049267
0.010985536
0.010922288
0.010859435
0.010797201
0.010735102
0.010673941
0.010611898
0.010550969
0.01049229
0.010393148
0.00015883537
0.00016087322
0.00016248027
0.00016472536
0.00017106926
0.0001839962
0.0002150027
0.00028047763
0.00038909086
0.00059316214
0.00091166986
0.0013512445
0.0019222532
0.002590428
0.0033460166
0.0041808619
0.0050776966
0.0060065454
0.0069293606
0.0078093617
0.0086203302
0.00935021
0.0099984118
0.010569869
0.011071114
0.011508378
0.011888261
0.012217427
0.01250252
0.012748947
0.012961243
0.013143566
0.013299533
0.0134321
0.013544134
0.013638868
0.013716567
0.013780167
0.013831169
0.013870625
0.013899675
0.013919477
0.013931005
0.013935096
0.013932481
0.013924046
0.013910097
0.013891106
0.013867483
0.013839668
0.013808101
0.013773117
0.013735043
0.013694178
0.013650771
0.013605109
0.01355737
0.013507713
0.013456271
0.01340324
0.013348806
0.013293117
0.013236285
0.013178434
0.01311968
0.013060119
0.012999814
0.012938851
0.01287732
0.012815294
0.012752834
0.012689998
0.012626849
0.012563447
0.012499835
0.012436053
0.012372143
0.012308147
0.0122441
0.01218004
0.012115998
0.012052008
0.0119881
0.011924303
0.011860644
0.01179715
0.011733845
0.011670759
0.011607921
0.011545376
0.011483139
0.011421308
0.011359786
0.011298876
0.011238007
0.011178265
0.011117436
0.011058553
0.011000956
0.010905159
0.00015971825
0.00016309902
0.00016471241
0.00016520637
0.00016532765
0.00016503927
0.00016520904
0.00016668282
0.0001714134
0.00018448514
0.00021338505
0.00026731151
0.0003548962
0.0005088261
0.00074469212
0.0010835141
0.0015349514
0.0020918352
0.0027540506
0.0035148112
0.0043542649
0.0052390574
0.0061285689
0.0069854485
0.0077842361
0.0085131205
0.0091702034
0.0097583026
0.01028196
0.010746278
0.011156664
0.011518594
0.011837208
0.012117076
0.012362357
0.012577336
0.012764687
0.012927552
0.013068674
0.013190322
0.01329451
0.013382949
0.013457215
0.013518743
0.013568682
0.013608215
0.013638393
0.013660098
0.013674145
0.013681235
0.013681988
0.013676935
0.013666613
0.013651506
0.013632055
0.013608729
0.013581797
0.013551541
0.013518247
0.013482204
0.013443658
0.013402833
0.013359914
0.013315084
0.013268539
0.013220436
0.013170884
0.013120023
0.013067989
0.013014891
0.012960829
0.012905892
0.012850179
0.012793781
0.012736763
0.012679194
0.012621138
0.012562657
0.01250381
0.01244465
0.012385229
0.012325597
0.012265799
0.01220588
0.012145882
0.012085843
0.012025803
0.011965805
0.011905889
0.011846117
0.011786517
0.011727207
0.011668098
0.011609545
0.011550939
0.011493542
0.011434949
0.011378834
0.011323405
0.011232137
0.00015873596
0.00016307028
0.00016598926
0.00016759659
0.00016774527
0.00016748529
0.00016696371
0.00016630297
0.00016570582
0.00016508368
0.0001654875
0.00016745819
0.00017289539
0.00018541458
0.00021013369
0.00025480346
0.00032666839
0.00045197677
0.00065009493
0.00094207767
0.0013444304
0.0018572489
0.0024820827
0.0032097178
0.0040160135
0.0048641886
0.005713478
0.0065300285
0.0072931844
0.0079945125
0.0086328142
0.0092099148
0.0097289221
0.010193797
0.010608972
0.010979221
0.011308622
0.011601102
0.011860394
0.012089836
0.012292416
0.012470778
0.012627296
0.012764127
0.01288314
0.012986067
0.013074479
0.01314976
0.013213155
0.01326577
0.01330858
0.013342505
0.013368309
0.013386699
0.013398333
0.013403743
0.013403525
0.013398178
0.013388163
0.013373857
0.013355621
0.013333786
0.013308634
0.013280451
0.013249524
0.013216072
0.013180266
0.01314232
0.013102417
0.01306073
0.013017416
0.01297262
0.012926459
0.012879057
0.012830521
0.012780954
0.012730453
0.012679106
0.012626997
0.012574207
0.012520808
0.012466871
0.012412463
0.012357647
0.012302481
0.012247023
0.012191326
0.012135451
0.012079453
0.012023412
0.01196737
0.011911466
0.011855626
0.01180024
0.011744702
0.011690367
0.011634776
0.011581983
0.011529471
0.01144362
0.00015702099
0.00016129914
0.00016480196
0.00016702293
0.00016809845
0.00016835528
0.00016819758
0.00016780132
0.00016721073
0.00016653964
0.00016584928
0.0001652875
0.00016453331
0.00016454764
0.00016509476
0.00016756657
0.0001731115
0.00018476334
0.00020720698
0.0002477223
0.00031454894
0.00043232541
0.00062320472
0.00090817177
0.0013038689
0.0018137265
0.002436357
0.0031564363
0.0039434955
0.0047580086
0.0055624912
0.0063303678
0.0070477591
0.0077096373
0.0083152615
0.0088660305
0.009364526
0.00981416
0.010218725
0.010581994
0.010907594
0.011198931
0.011459145
0.011691137
0.011897525
0.012080699
0.01224285
0.012385949
0.012511775
0.012621923
0.012717816
0.012800756
0.012871892
0.012932254
0.012982791
0.013024322
0.013057646
0.01308348
0.013102477
0.013115208
0.013122192
0.013123904
0.013120793
0.013113234
0.013101561
0.01308612
0.013067243
0.013045193
0.013020222
0.012992569
0.012962453
0.012930075
0.012895611
0.012859234
0.012821093
0.012781332
0.012740087
0.012697482
0.012653634
0.012608653
0.01256264
0.012515694
0.012467905
0.012419359
0.012370138
0.012320318
0.012269974
0.012219184
0.012168022
0.012116588
0.01206494
0.012013242
0.011961437
0.011909942
0.011858177
0.01180754
0.011755609
0.01170664
0.011657627
0.011577966
0.00015521835
0.00015894414
0.00016236
0.00016489428
0.00016647054
0.00016725335
0.00016751144
0.00016745735
0.00016721347
0.00016684961
0.00016638664
0.00016584105
0.00016523014
0.00016464948
0.00016407872
0.00016357011
0.00016320619
0.00016326824
0.00016424451
0.0001671015
0.00017308398
0.00018525048
0.00020874789
0.00025088135
0.00032409837
0.00045246169
0.00066014649
0.00096906505
0.0013897276
0.0019256614
0.0025683653
0.0032933089
0.0040638379
0.0048415691
0.0055966701
0.0063116921
0.0069787587
0.0075951062
0.0081605221
0.008676444
0.0091454222
0.0095705258
0.0099549567
0.010301927
0.010614538
0.010895721
0.011148231
0.011374617
0.011577216
0.011758164
0.011919386
0.012062642
0.012189518
0.012301442
0.012399717
0.012485503
0.012559874
0.012623816
0.012678224
0.0127239
0.012761566
0.01279188
0.01281545
0.012832813
0.012844448
0.012850816
0.012852353
0.012849437
0.012842417
0.012831614
0.012817326
0.012799827
0.012779367
0.012756163
0.012730435
0.012702377
0.012672169
0.012639981
0.012605971
0.012570284
0.01253306
0.012494426
0.012454506
0.012413412
0.012371254
0.012328132
0.012284144
0.012239392
0.012193971
0.012148001
0.012101565
0.012054846
0.012007815
0.011960906
0.011913586
0.011867258
0.011819599
0.011774952
0.011729945
0.011657203
0.00015363257
0.00015669046
0.00015965894
0.00016210546
0.00016388177
0.00016501558
0.00016564028
0.00016591925
0.00016596118
0.00016584359
0.00016561667
0.00016530479
0.00016492524
0.00016449334
0.00016401054
0.00016349458
0.00016297424
0.00016245582
0.00016196781
0.00016159674
0.00016146993
0.00016187323
0.00016338926
0.0001670215
0.00017448295
0.00018934773
0.00021796437
0.00026828963
0.00036060041
0.0005192311
0.00076826204
0.0011254655
0.0015968961
0.0021786007
0.0028503923
0.0035782696
0.004324327
0.0050576859
0.0057591988
0.0064193045
0.0070338466
0.0076015124
0.008122849
0.0085996548
0.0090343706
0.0094297111
0.009788512
0.010113592
0.010407663
0.010673293
0.010912868
0.011128604
0.011322536
0.011496523
0.011652266
0.011791303
0.011915046
0.012024791
0.012121725
0.012206921
0.012281347
0.012345884
0.012401339
0.012448441
0.012487844
0.012520156
0.01254595
0.012565737
0.012579983
0.012589115
0.012593529
0.012593588
0.012589623
0.012581932
0.012570799
0.012556483
0.012539223
0.012519242
0.012496748
0.012471934
0.012444978
0.012416051
0.01238531
0.012352904
0.012318973
0.012283648
0.012247054
0.01220932
0.012170566
0.012130938
0.012090544
0.012049588
0.012008075
0.011966453
0.011924246
0.011882844
0.011840057
0.011800249
0.011759724
0.011694624
0.00015233085
0.00015478816
0.00015723589
0.00015936985
0.00016107198
0.00016232582
0.00016317973
0.00016371594
0.0001640102
0.00016412333
0.00016410277
0.00016398196
0.0001637839
0.00016352402
0.00016321138
0.00016285336
0.00016245925
0.00016202956
0.00016157212
0.00016110321
0.00016063543
0.00016019964
0.00015984023
0.00015966406
0.00015985932
0.00016079748
0.00016328404
0.00016847357
0.00017904812
0.00020006926
0.0002390316
0.00031081772
0.00043979473
0.00065157246
0.00096719977
0.0013949012
0.001933354
0.0025646508
0.0032563318
0.003971415
0.0046794937
0.0053613745
0.0060069517
0.0066113177
0.0071724766
0.0076904021
0.0081663674
0.0086023461
0.0090006695
0.0093638425
0.0096943898
0.0099947823
0.010267383
0.01051441
0.010737938
0.010939877
0.011121994
0.011285923
0.01143317
0.011565109
0.011682991
0.011787956
0.011881048
0.011963217
0.012035323
0.012098157
0.012152456
0.012198886
0.012238056
0.012270524
0.012296801
0.012317359
0.012332629
0.012343002
0.012348844
0.012350492
0.012348255
0.012342422
0.01233326
0.012321017
0.012305923
0.012288196
0.012268037
0.012245636
0.012221169
0.012194805
0.012166702
0.012137019
0.012105907
0.012073538
0.012040051
0.012005675
0.011970451
0.01193484
0.011898435
0.011862596
0.011825293
0.011790872
0.011755303
0.01169858
0.00015128362
0.00015325243
0.00015523698
0.0001570166
0.00015850697
0.00015969452
0.00016060212
0.00016126888
0.00016173328
0.00016202946
0.00016218848
0.00016223729
0.00016219788
0.00016208705
0.00016191732
0.00016169802
0.00016143666
0.00016113759
0.00016080425
0.00016044093
0.00016005071
0.00015963381
0.00015920802
0.00015878716
0.00015839544
0.00015806972
0.00015789868
0.00015802336
0.00015873247
0.00016064475
0.00016480075
0.00017326395
0.00019032081
0.00022307461
0.00028407686
0.0003973174
0.00058895335
0.00088118304
0.0012836494
0.001795691
0.0023995101
0.0030629102
0.0037500665
0.0044322569
0.0050914859
0.0057179661
0.0063066255
0.0068552218
0.0073634573
0.0078322741
0.0082633063
0.0086585841
0.0090203291
0.0093508102
0.0096522693
0.0099268619
0.010176638
0.01040353
0.010609347
0.010795765
0.010964329
0.011116456
0.011253453
0.011376517
0.011486741
0.011585127
0.011672602
0.011750015
0.01181814
0.011877687
0.011929307
0.0119736
0.012011115
0.012042355
0.012067783
0.012087827
0.012102882
0.012113315
0.012119462
0.012121639
0.012120137
0.012115229
0.012107167
0.012096191
0.012082522
0.01206637
0.012047932
0.012027403
0.012004969
0.011980835
0.011955174
0.011928242
0.01190012
0.011871285
0.011841403
0.011811801
0.011780616
0.011752168
0.011722047
0.011674465
0.00015044233
0.00015202616
0.0001536329
0.00015509758
0.00015635447
0.00015739474
0.00015823776
0.00015891074
0.00015943594
0.00015983026
0.00016010889
0.00016028668
0.00016037787
0.0001603951
0.00016034941
0.0001602502
0.00016010502
0.00015991952
0.00015969794
0.00015944372
0.00015915968
0.00015884664
0.00015850804
0.00015814749
0.00015776805
0.00015737839
0.00015699685
0.00015664508
0.00015636016
0.00015621367
0.00015634045
0.00015698749
0.000158677
0.00016238416
0.00016989403
0.00018518654
0.00021514817
0.00027201018
0.00037951698
0.0005643784
0.00084836581
0.0012415199
0.0017418068
0.002329509
0.0029717157
0.0036342123
0.0042910193
0.0049262127
0.0055308961
0.0061002752
0.006632207
0.0071263549
0.0075834862
0.0080050141
0.0083927336
0.0087486257
0.0090747416
0.0093731255
0.0096457661
0.0098945641
0.010121311
0.010327685
0.010515248
0.010685451
0.010839631
0.010979017
0.01110475
0.011217878
0.011319363
0.011410089
0.011490866
0.011562444
0.011625508
0.011680688
0.011728565
0.011769673
0.011804506
0.011833522
0.011857143
0.011875759
0.011889734
0.011899406
0.011905091
0.011907082
0.011905655
0.011901067
0.011893563
0.011883378
0.01187074
0.01185589
0.011839038
0.011820474
0.011800323
0.011779077
0.011756485
0.011733835
0.01170944
0.011687595
0.011663443
0.011625804
0.00014976477
0.00015104637
0.00015235221
0.00015355745
0.00015460721
0.0001554917
0.00015622697
0.00015683696
0.00015734081
0.00015775075
0.00015807514
0.00015832098
0.00015849502
0.00015860384
0.00015865407
0.00015865232
0.00015860449
0.00015851555
0.00015838968
0.00015823031
0.00015804025
0.00015782135
0.00015757528
0.00015730369
0.0001570078
0.00015668939
0.00015635228
0.00015600094
0.00015564183
0.00015529408
0.00015498039
0.00015473947
0.00015463678
0.00015480766
0.00015548305
0.00015716041
0.00016079584
0.00016814931
0.00018324617
0.00021302063
0.00027096231
0.00038099012
0.00057056136
0.00085942004
0.0012567665
0.0017571309
0.002337153
0.0029631258
0.0036033495
0.0042354159
0.0048459022
0.0054271353
0.0059749328
0.0064874761
0.0069645095
0.007406732
0.0078154323
0.0081922408
0.0085389631
0.0088574741
0.0091496452
0.0094173017
0.0096621939
0.0098859819
0.010090223
0.01027637
0.010445774
0.010599693
0.010739287
0.010865629
0.010979706
0.011082432
0.011174647
0.011257125
0.01133058
0.011395668
0.011452999
0.011503134
0.011546592
0.011583855
0.011615367
0.011641544
0.011662772
0.011679411
0.011691797
0.011700244
0.01170505
0.011706499
0.011704865
0.011700431
0.01169345
0.011684249
0.011673003
0.011660222
0.011645739
0.011630811
0.011613921
0.011599356
0.011581735
0.011554892
0.0001492174
0.00015026059
0.00015132724
0.00015232267
0.00015320032
0.00015394775
0.00015457541
0.00015510312
0.00015554876
0.00015592471
0.00015623889
0.00015649642
0.00015670095
0.00015685538
0.00015696257
0.00015702581
0.00015704835
0.00015703327
0.00015698349
0.00015690164
0.00015679
0.00015665037
0.00015648418
0.00015629262
0.00015607658
0.00015583684
0.00015557453
0.00015529099
0.00015498761
0.00015466843
0.000154339
0.00015400618
0.00015368969
0.00015341448
0.00015322089
0.00015317751
0.00015342591
0.00015420456
0.00015604384
0.00015992327
0.00016780664
0.00018409764
0.00021612308
0.00028014284
0.00040079577
0.00060595803
0.00091167215
0.0013244421
0.0018331768
0.0024102213
0.003022155
0.0036411189
0.0042487522
0.00483412
0.0053908601
0.0059155818
0.0064069112
0.0068647577
0.0072898368
0.0076833685
0.0080468658
0.008381998
0.0086904928
0.0089740767
0.0092344311
0.0094731673
0.0096918149
0.009891816
0.010074522
0.010241191
0.010392994
0.010531018
0.01065627
0.010769679
0.010872106
0.010964346
0.011047135
0.011121152
0.011187027
0.011245342
0.011296639
0.011341419
0.011380151
0.011413269
0.01144118
0.011464264
0.011482877
0.011497362
0.011508043
0.011515252
0.011519294
0.011520533
0.011519199
0.011515827
0.011510338
0.011503958
0.011495342
0.011488789
0.011478307
0.01146317
0.00014877387
0.00014962775
0.00015050338
0.00015132908
0.00015206559
0.00015269863
0.00015323313
0.00015368367
0.00015406546
0.00015439054
0.0001546676
0.00015490252
0.00015509909
0.00015525958
0.00015538551
0.00015547833
0.00015553939
0.00015556996
0.00015557143
0.00015554519
0.00015549254
0.00015541461
0.00015531235
0.00015518651
0.00015503769
0.0001548663
0.00015467277
0.00015445757
0.00015422111
0.00015396429
0.00015368872
0.00015339605
0.0001530908
0.00015277955
0.00015247057
0.00015218466
0.00015195016
0.00015181067
0.00015184706
0.00015221255
0.00015317849
0.00015536679
0.00015982865
0.00016899579
0.00018803154
0.00022518539
0.00030091
0.00044160611
0.00067173078
0.0010049016
0.0014414796
0.0019630003
0.0025383348
0.0031363543
0.0037341118
0.0043172333
0.004877082
0.0054086414
0.0059093543
0.0063782929
0.0068155744
0.0072219872
0.0075987307
0.0079472423
0.0082690792
0.0085658388
0.0088391099
0.009090441
0.00932132
0.0095331611
0.0097272983
0.0099049837
0.010067388
0.010215603
0.01035064
0.010473442
0.010584883
0.010685771
0.010776859
0.010858841
0.010932366
0.010998033
0.011056401
0.011107992
0.011153292
0.011192754
0.011226804
0.011255847
0.01128027
0.011300457
0.011316769
0.011329615
0.011339287
0.011346346
0.011350805
0.011353869
0.011354355
0.011356603
0.011353923
0.01135147
0.00014841365
0.00014911617
0.00014983837
0.00015052601
0.00015114642
0.00015168468
0.00015214151
0.00015252659
0.0001528517
0.00015312727
0.00015336178
0.00015356171
0.00015373169
0.00015387474
0.00015399274
0.00015408698
0.00015415826
0.00015420711
0.00015423396
0.00015423929
0.0001542235
0.00015418698
0.00015413002
0.00015405285
0.0001539556
0.00015383831
0.000153701
0.00015354366
0.00015336628
0.00015316891
0.00015295188
0.00015271555
0.00015246094
0.00015218995
0.00015190487
0.00015161089
0.00015131583
0.00015103004
0.00015077685
0.00015058931
0.00015051708
0.00015066426
0.00015120153
0.00015246844
0.00015524312
0.00016074525
0.00017220718
0.0001957602
0.00024346869
0.00033836721
0.00050864587
0.00077374112
0.0011427899
0.0016071805
0.0021410835
0.0027126433
0.0032952601
0.0038711542
0.0044293628
0.004963263
0.005469136
0.0059452237
0.0063910404
0.0068069273
0.0071937503
0.0075526943
0.0078851266
0.008192505
0.0084763165
0.0087380343
0.0089790913
0.0092008626
0.0094046565
0.0095917083
0.0097631784
0.0099201531
0.010063647
0.010194605
0.010313907
0.010422373
0.010520763
0.010609786
0.010690102
0.010762329
0.01082704
0.010884773
0.01093603
0.010981288
0.011021001
0.011055615
0.011085552
0.011111274
0.011133135
0.011151733
0.011167174
0.01118065
0.011191134
0.011203037
0.011208881
0.011220169
0.00014812089
0.0001487016
0.00014929976
0.00014987442
0.00015039866
0.0001508579
0.00015124999
0.00015158077
0.00015185873
0.0001520922
0.00015228856
0.00015245404
0.00015259357
0.0001527108
0.00015280833
0.000152888
0.00015295098
0.00015299792
0.00015302918
0.00015304493
0.00015304523
0.00015303002
0.00015299916
0.00015295244
0.0001528896
0.00015281031
0.00015271424
0.00015260102
0.00015247028
0.0001523217
0.000152155
0.00015196999
0.00015176665
0.0001515453
0.00015130649
0.00015105151
0.00015078271
0.00015050321
0.00015021929
0.00014994036
0.00014967972
0.00014946555
0.00014933705
0.00014935522
0.00014965967
0.00015045079
0.00015219986
0.00015583154
0.0001631972
0.00017864882
0.00020973135
0.00027453625
0.00039919405
0.00060884721
0.0009183521
0.0013280796
0.0018190703
0.0023609553
0.0029247776
0.0034897188
0.0040425771
0.0045751996
0.0050827569
0.0055626772
0.0060138779
0.0064362539
0.006830335
0.0071970537
0.0075375874
0.0078532499
0.0081454182
0.0084154819
0.0086648116
0.0088947359
0.0091065283
0.0093013988
0.0094804909
0.0096448803
0.0097955753
0.0099335193
0.010059594
0.010174623
0.010279375
0.010374569
0.010460877
0.010538927
0.010609307
0.010672575
0.010729256
0.01077987
0.010824901
0.010864874
0.01090021
0.010931548
0.010959091
0.010984029
0.01100548
0.011027962
0.011043115
0.011069287
0.00014788346
0.00014836543
0.00014886268
0.00014934428
0.00014978827
0.00015018101
0.00015051861
0.00015080404
0.00015104312
0.00015124213
0.00015140709
0.00015154341
0.00015165572
0.00015174778
0.00015182254
0.00015188232
0.0001519288
0.0001519631
0.00015198593
0.00015199769
0.00015199855
0.00015198844
0.00015196716
0.00015193438
0.00015188964
0.00015183245
0.00015176224
0.00015167841
0.00015158037
0.00015146751
0.00015133925
0.00015119506
0.00015103445
0.00015085708
0.00015066276
0.00015045152
0.00015022383
0.00014998055
0.0001497234
0.00014945541
0.00014918077
0.00014890748
0.00014864712
0.00014841731
0.00014825409
0.00014820462
0.00014835552
0.00014887505
0.00015005637
0.00015258969
0.00015761668
0.00016810755
0.00018988842
0.00023506478
0.00032649162
0.00049261642
0.00075181952
0.0011118657
0.0015610292
0.0020720374
0.0026149338
0.0031664379
0.0037112758
0.0042398556
0.0047463125
0.0052273138
0.0056812153
0.0061074912
0.0065063539
0.0068784937
0.0072249012
0.0075467458
0.0078452924
0.0081218443
0.008377704
0.0086141475
0.0088324078
0.0090336647
0.0092190391
0.0093895905
0.0095463168
0.0096901562
0.0098219894
0.0099426425
0.01005289
0.010153457
0.010245025
0.010328237
0.010403703
0.010472014
0.010533732
0.010589444
0.010639648
0.010685027
0.010725886
0.010763421
0.010796891
0.010830949
0.010856269
0.010898565
0.00014769184
0.00014809312
0.00014850769
0.00014891216
0.00014928874
0.00014962507
0.00014991628
0.00015016334
0.00015036997
0.00015054074
0.00015068033
0.00015079321
0.00015088341
0.0001509544
0.0001510091
0.00015104995
0.0001510789
0.00015109746
0.00015110669
0.00015110739
0.00015110002
0.00015108478
0.00015106168
0.00015103052
0.00015099094
0.00015094247
0.00015088455
0.00015081653
0.00015073773
0.00015064744
0.00015054493
0.00015042948
0.00015030038
0.00015015698
0.0001499987
0.00014982504
0.00014963571
0.00014943059
0.00014920989
0.00014897436
0.00014872528
0.00014846509
0.00014819772
0.00014792884
0.00014766921
0.0001474328
0.00014724602
0.00014715141
0.00014721175
0.00014756325
0.00014840943
0.00015022618
0.00015393492
0.0001614766
0.00017738044
0.00020969211
0.00027838151
0.0004103523
0.00062844856
0.00094542559
0.0013560593
0.0018369653
0.0023582975
0.0028949999
0.0034300283
0.0039525183
0.0044556889
0.0049355283
0.0053898881
0.0058178613
0.0062193683
0.0065948728
0.0069451891
0.0072713473
0.0075745023
0.007855869
0.00811668
0.008358156
0.0085814862
0.0087878165
0.0089782421
0.009153804
0.0093154883
0.0094642262
0.0096008954
0.009726322
0.0098412836
0.009946515
0.010042713
0.010130552
0.010210671
0.010283729
0.010350304
0.010411132
0.010466621
0.010517982
0.010564608
0.010611321
0.01064774
0.010707505
0.00014753787
0.00014787281
0.00014821923
0.00014855944
0.00014887911
0.00014916727
0.00014941865
0.00014963286
0.00014981201
0.00014995927
0.0001500782
0.00015017237
0.00015024514
0.00015029953
0.00015033821
0.00015036348
0.00015037733
0.00015038138
0.00015037691
0.00015036497
0.0001503463
0.00015032141
0.00015029058
0.00015025386
0.00015021114
0.00015016215
0.00015010648
0.00015004361
0.00014997295
0.00014989383
0.00014980554
0.00014970733
0.00014959843
0.00014947808
0.00014934553
0.00014920005
0.00014904101
0.00014886784
0.00014868013
0.00014847768
0.00014826056
0.00014802928
0.00014778501
0.00014752962
0.00014726666
0.00014700111
0.00014674148
0.00014650133
0.00014629938
0.00014617492
0.00014617952
0.00014641164
0.00014705221
0.00014843131
0.00015131931
0.00015698619
0.0001689441
0.00019374302
0.0002467019
0.00035290851
0.00053813371
0.00081873824
0.0011950685
0.0016478207
0.0021480026
0.0026694087
0.0031935657
0.0037085354
0.0042067631
0.0046836589
0.0051366389
0.005564463
0.0059667925
0.0063438872
0.0066963984
0.0070252255
0.0073314174
0.0076161037
0.0078804478
0.0081256146
0.0083527493
0.0085629633
0.008757326
0.0089368598
0.0091025374
0.0092552816
0.0093959655
0.0095254173
0.0096444242
0.0097537452
0.0098541046
0.0099462343
0.010030799
0.010108592
0.010180127
0.010246641
0.010307652
0.010368185
0.010416714
0.010495409
0.00014741454
0.00014769469
0.00014798472
0.00014827122
0.00014854268
0.00014878955
0.00014900654
0.00014919233
0.00014934789
0.00014947529
0.00014957711
0.00014965615
0.00014971515
0.00014975668
0.00014978304
0.00014979633
0.00014979838
0.00014979076
0.0001497748
0.00014975163
0.00014972216
0.00014968707
0.00014964686
0.00014960183
0.00014955211
0.00014949765
0.00014943828
0.00014937369
0.00014930349
0.00014922716
0.00014914413
0.00014905376
0.00014895534
0.00014884816
0.00014873145
0.00014860445
0.00014846641
0.00014831659
0.00014815431
0.00014797898
0.00014779012
0.00014758744
0.00014737096
0.00014714101
0.00014689858
0.00014664537
0.00014638429
0.00014612027
0.00014585996
0.00014561608
0.0001454054
0.00014525815
0.00014522414
0.00014537902
0.00014588756
0.00014698624
0.00014927891
0.00015382734
0.00016330337
0.00018314804
0.00022532467
0.00031259386
0.00047229391
0.00072316838
0.0010700789
0.0014975289
0.0019778067
0.0024841158
0.0029969323
0.0035034687
0.0039955511
0.0044681234
0.004918244
0.0053443934
0.0057460109
0.0061231776
0.0064763992
0.0068064561
0.0071142997
0.0074009794
0.0076675934
0.0079152538
0.0081450641
0.0083581029
0.0085554143
0.0087380018
0.0089068244
0.0090627986
0.0092067993
0.0093396711
0.0094622235
0.0095752662
0.0096795514
0.009775934
0.0098650385
0.0099481316
0.010024854
0.010100463
0.010162195
0.010261403
0.00014731637
0.00014755113
0.00014779432
0.00014803577
0.00014826629
0.00014847764
0.00014866477
0.00014882582
0.00014896091
0.00014907124
0.00014915864
0.00014922522
0.00014927319
0.00014930468
0.00014932166
0.00014932595
0.00014931919
0.00014930283
0.00014927813
0.00014924618
0.00014920793
0.00014916413
0.0001491154
0.00014906216
0.00014900473
0.00014894325
0.00014887774
0.00014880812
0.00014873417
0.00014865561
0.00014857203
0.00014848299
0.00014838792
0.00014828625
0.00014817731
0.00014806043
0.00014793489
0.00014779995
0.00014765486
0.00014749892
0.00014733143
0.00014715179
0.00014695949
0.00014675421
0.00014653586
0.00014630474
0.00014606164
0.00014580819
0.00014554687
0.00014528222
0.00014502066
0.00014477266
0.0001445551
0.00014439153
0.00014433128
0.00014443674
0.00014484205
0.00014575834
0.00014767281
0.00015150858
0.00015934903
0.00017583158
0.00021058215
0.00028434621
0.00042462002
0.00065183869
0.00097435737
0.001379903
0.0018421406
0.002334099
0.0028355775
0.003333187
0.0038183001
0.0042855107
0.0047316003