/*--------------------------------*- C++ -*----------------------------------*\
| =========                 |                                                 |
| \\      /  F ield         | OpenFOAM: The Open Source CFD Toolbox           |
|  \\    /   O peration     | Version:  2206                                  |
|   \\  /    A nd           | Website:  www.openfoam.com                      |
|    \\/     M anipulation  |                                                 |
\*---------------------------------------------------------------------------*/
FoamFile
{
    version     2.0;
    format      ascii;
    arch        "LSB;label=32;scalar=64";
    class       volScalarField;
    location    "600";
    object      nut;
}
// * * * * * * * * * * * * * * * * * * * * * * * * * * * * * * * * * * * * * //

dimensions      [0 2 -1 0 0 0 0];

internalField   nonuniform List<scalar> 
7480
(
1.6138324e-05
2.2439982e-05
2.361314e-05
2.2658604e-05
2.1072229e-05
1.9604621e-05
1.8474728e-05
1.7615434e-05
1.6926678e-05
1.6344305e-05
1.5839433e-05
1.5400257e-05
1.5019343e-05
1.4689638e-05
1.4404331e-05
1.4156729e-05
1.3941644e-05
1.3754929e-05
1.3591814e-05
1.3449952e-05
1.332392e-05
1.3211099e-05
1.3109022e-05
1.3015533e-05
1.2929235e-05
1.2848958e-05
1.2773912e-05
1.2703267e-05
1.2636266e-05
1.2572281e-05
1.2510972e-05
1.2452109e-05
1.2395436e-05
1.2340739e-05
1.2287759e-05
1.2236411e-05
1.2186293e-05
1.2137366e-05
1.2089534e-05
1.2042656e-05
1.1996629e-05
1.1951366e-05
1.1906801e-05
1.1862896e-05
1.1819594e-05
1.1776866e-05
1.1734663e-05
1.1692927e-05
1.165163e-05
1.1610742e-05
1.1570239e-05
1.1530109e-05
1.1490334e-05
1.1450907e-05
1.1411809e-05
1.1373028e-05
1.1334557e-05
1.1296378e-05
1.1258475e-05
1.1220838e-05
1.1183471e-05
1.1146371e-05
1.1109532e-05
1.1072949e-05
1.103662e-05
1.1000542e-05
1.0964705e-05
1.0929106e-05
1.0893741e-05
1.0858611e-05
1.0823711e-05
1.0789038e-05
1.0754591e-05
1.0720368e-05
1.0686367e-05
1.0652583e-05
1.0619014e-05
1.0585658e-05
1.0552511e-05
1.0519572e-05
1.0486838e-05
1.0454306e-05
1.0421975e-05
1.0389841e-05
1.0357902e-05
1.0326152e-05
1.0294588e-05
1.0263202e-05
1.0231992e-05
1.0200938e-05
1.0170053e-05
1.0139259e-05
1.0108658e-05
1.0077879e-05
1.0047515e-05
1.0015898e-05
9.9855886e-06
9.9503613e-06
9.9221844e-06
9.8683863e-06
1.6631507e-06
5.1406815e-06
8.7858146e-06
1.1679595e-05
1.3402503e-05
1.4479488e-05
1.5236187e-05
1.580846e-05
1.6220963e-05
1.6516872e-05
1.6741708e-05
1.6928062e-05
1.7093462e-05
1.7245734e-05
1.7389862e-05
1.7518139e-05
1.764104e-05
1.7765241e-05
1.7890815e-05
1.8011427e-05
1.8125316e-05
1.8229595e-05
1.8322321e-05
1.8404097e-05
1.8476775e-05
1.8540953e-05
1.859873e-05
1.8648514e-05
1.8689949e-05
1.8723407e-05
1.8750362e-05
1.8771693e-05
1.8787834e-05
1.8799253e-05
1.8805674e-05
1.8808322e-05
1.8805415e-05
1.8798804e-05
1.8788657e-05
1.8774881e-05
1.875759e-05
1.8737025e-05
1.8713482e-05
1.868717e-05
1.8658242e-05
1.8626977e-05
1.8593371e-05
1.855753e-05
1.8519598e-05
1.8479703e-05
1.8438025e-05
1.8394682e-05
1.8349802e-05
1.8303505e-05
1.8255856e-05
1.8206984e-05
1.8156961e-05
1.8105838e-05
1.8053653e-05
1.8000496e-05
1.7946479e-05
1.7891677e-05
1.7836143e-05
1.7779934e-05
1.7723118e-05
1.7665748e-05
1.7607849e-05
1.7549465e-05
1.7490653e-05
1.7431458e-05
1.7371917e-05
1.7312062e-05
1.7251933e-05
1.7191571e-05
1.7131003e-05
1.7070252e-05
1.7009348e-05
1.694832e-05
1.6887192e-05
1.6825992e-05
1.6764744e-05
1.6703475e-05
1.6642207e-05
1.6580967e-05
1.6519775e-05
1.6458657e-05
1.6397634e-05
1.633674e-05
1.6275998e-05
1.6215472e-05
1.6155153e-05
1.609522e-05
1.6035435e-05
1.5976481e-05
1.5917064e-05
1.5859913e-05
1.579995e-05
1.574547e-05
1.5690636e-05
1.5591967e-05
4.141596e-07
4.6087599e-07
9.3909138e-07
2.2136641e-06
4.1431946e-06
6.4113382e-06
8.5173162e-06
1.0330919e-05
1.2013732e-05
1.3633149e-05
1.5181646e-05
1.6640815e-05
1.8003069e-05
1.9275e-05
2.0468433e-05
2.1609757e-05
2.2700372e-05
2.3734368e-05
2.470828e-05
2.5619979e-05
2.6470415e-05
2.7260615e-05
2.799017e-05
2.866491e-05
2.9289571e-05
2.9865143e-05
3.0405781e-05
3.0903794e-05
3.1362582e-05
3.1784134e-05
3.2173999e-05
3.2534774e-05
3.2868425e-05
3.3177207e-05
3.3460878e-05
3.3724503e-05
3.3961902e-05
3.4181677e-05
3.4382749e-05
3.4565621e-05
3.4731334e-05
3.4881028e-05
3.5015849e-05
3.5136763e-05
3.5244555e-05
3.5340345e-05
3.5424346e-05
3.5497196e-05
3.5559554e-05
3.5612015e-05
3.5655275e-05
3.5689866e-05
3.5716352e-05
3.5735241e-05
3.574688e-05
3.5751781e-05
3.5750286e-05
3.5742671e-05
3.5729166e-05
3.5710147e-05
3.5686025e-05
3.5657118e-05
3.5623665e-05
3.5585926e-05
3.5544178e-05
3.5498642e-05
3.544947e-05
3.539686e-05
3.5341038e-05
3.5282194e-05
3.522049e-05
3.5156073e-05
3.5089112e-05
3.5019779e-05
3.4948195e-05
3.487448e-05
3.4798761e-05
3.4721163e-05
3.4641804e-05
3.4560797e-05
3.4478254e-05
3.4394284e-05
3.4308994e-05
3.422249e-05
3.4134871e-05
3.404624e-05
3.39567e-05
3.386638e-05
3.3775386e-05
3.368394e-05
3.3592065e-05
3.3500316e-05
3.3408113e-05
3.331747e-05
3.322494e-05
3.3138427e-05
3.304413e-05
3.2967651e-05
3.2882067e-05
3.2735548e-05
5.7566983e-06
1.0225636e-06
4.0073273e-07
3.7476434e-07
5.6949421e-07
9.2602527e-07
1.7917165e-06
3.1770661e-06
4.8749491e-06
6.6193567e-06
8.3714429e-06
1.025561e-05
1.2281713e-05
1.4412054e-05
1.6587784e-05
1.8755789e-05
2.0877851e-05
2.2932837e-05
2.4912925e-05
2.6814634e-05
2.863398e-05
3.0367209e-05
3.2014745e-05
3.3575163e-05
3.5050322e-05
3.643943e-05
3.7747081e-05
3.8978232e-05
4.0135533e-05
4.1226077e-05
4.2253002e-05
4.3220413e-05
4.4132112e-05
4.4993059e-05
4.5803923e-05
4.6572952e-05
4.7280818e-05
4.795476e-05
4.8583737e-05
4.917251e-05
4.9723235e-05
5.0238112e-05
5.0719291e-05
5.1168675e-05
5.1587918e-05
5.1979373e-05
5.234321e-05
5.2681108e-05
5.2994366e-05
5.328425e-05
5.3552199e-05
5.3799331e-05
5.4026893e-05
5.4235968e-05
5.4427331e-05
5.4602121e-05
5.4761079e-05
5.4904841e-05
5.5033946e-05
5.5149248e-05
5.5251633e-05
5.53418e-05
5.5420301e-05
5.5487748e-05
5.5544757e-05
5.5591836e-05
5.5629349e-05
5.5657764e-05
5.567759e-05
5.5689257e-05
5.5693144e-05
5.5689602e-05
5.5679022e-05
5.5661804e-05
5.5638235e-05
5.5608607e-05
5.5573218e-05
5.5532363e-05
5.5486319e-05
5.5435357e-05
5.5379738e-05
5.531972e-05
5.5255552e-05
5.5187484e-05
5.5115749e-05
5.5040588e-05
5.496224e-05
5.4880988e-05
5.4797086e-05
5.471097e-05
5.4622788e-05
5.4533491e-05
5.4442346e-05
5.4352515e-05
5.4259055e-05
5.4173846e-05
5.4076809e-05
5.4007399e-05
5.3920335e-05
5.3779436e-05
4.8864416e-05
1.5415528e-05
4.4417478e-06
1.7310019e-06
9.1315143e-07
6.2588177e-07
5.6441528e-07
6.6983513e-07
9.0302665e-07
1.4522647e-06
2.3842346e-06
3.5537045e-06
5.0003956e-06
6.6385606e-06
8.5179273e-06
1.0679829e-05
1.3102593e-05
1.5723304e-05
1.845892e-05
2.1228612e-05
2.3972246e-05
2.6655778e-05
2.9264559e-05
3.1790089e-05
3.4224877e-05
3.6561537e-05
3.8797176e-05
4.0932556e-05
4.2972546e-05
4.4919316e-05
4.6774283e-05
4.8540349e-05
5.0220509e-05
5.1816407e-05
5.3332711e-05
5.4777642e-05
5.6144335e-05
5.7443169e-05
5.8676517e-05
5.9845106e-05
6.0951478e-05
6.1999166e-05
6.2991057e-05
6.3929738e-05
6.4817659e-05
6.5659002e-05
6.6453828e-05
6.7203997e-05
6.7911083e-05
6.8577153e-05
6.9204523e-05
6.9794859e-05
7.0349959e-05
7.0871602e-05
7.1361312e-05
7.182109e-05
7.2252013e-05
7.2655141e-05
7.3031372e-05
7.3382241e-05
7.3709202e-05
7.4013402e-05
7.429577e-05
7.4557398e-05
7.4799335e-05
7.5022442e-05
7.522735e-05
7.5414902e-05
7.5585982e-05
7.5741325e-05
7.5881603e-05
7.6007435e-05
7.6119535e-05
7.6218602e-05
7.6305146e-05
7.6379697e-05
7.6442795e-05
7.6494965e-05
7.6536707e-05
7.6568509e-05
7.6590841e-05
7.6604169e-05
7.6608942e-05
7.6605608e-05
7.6594592e-05
7.6576325e-05
7.6551238e-05
7.651982e-05
7.6482536e-05
7.6440084e-05
7.6392821e-05
7.6342114e-05
7.6287245e-05
7.6232333e-05
7.6171543e-05
7.6119579e-05
7.6052149e-05
7.6019447e-05
7.5959012e-05
7.5875245e-05
9.6247587e-05
6.7401304e-05
3.5029639e-05
1.6779544e-05
8.376542e-06
4.5565053e-06
2.7188291e-06
1.771987e-06
1.2628227e-06
1.0122074e-06
9.522389e-07
1.0394267e-06
1.2601541e-06
1.78515e-06
2.59794e-06
3.7049707e-06
5.1699182e-06
6.9431255e-06
9.0839097e-06
1.1611749e-05
1.448473e-05
1.7612742e-05
2.0886576e-05
2.4207375e-05
2.7507302e-05
3.0749676e-05
3.3916251e-05
3.6994652e-05
3.9975702e-05
4.2853635e-05
4.562613e-05
4.8293109e-05
5.0855181e-05
5.3312811e-05
5.5667867e-05
5.7925796e-05
6.0085673e-05
6.2151693e-05
6.4127589e-05
6.6016168e-05
6.7820452e-05
6.954266e-05
7.118555e-05
7.2752151e-05
7.4244275e-05
7.5665083e-05
7.701803e-05
7.8305877e-05
7.9531586e-05
8.0697572e-05
8.1805974e-05
8.2858641e-05
8.3857984e-05
8.4806336e-05
8.5705996e-05
8.6559956e-05
8.7369273e-05
8.8135487e-05
8.8860471e-05
8.9546263e-05
9.0194495e-05
9.0806747e-05
9.1384345e-05
9.1928702e-05
9.2441579e-05
9.2924292e-05
9.3377737e-05
9.3803247e-05
9.4202134e-05
9.4575461e-05
9.4924243e-05
9.5249423e-05
9.5552111e-05
9.5833366e-05
9.6093936e-05
9.6334658e-05
9.6556362e-05
9.6759853e-05
9.6945906e-05
9.7115273e-05
9.7268684e-05
9.7406861e-05
9.7530502e-05
9.76403e-05
9.7736923e-05
9.7821038e-05
9.7893316e-05
9.7954499e-05
9.8005317e-05
9.8046777e-05
9.8079514e-05
9.8105334e-05
9.8123677e-05
9.8139484e-05
9.8146473e-05
9.8161372e-05
9.8156989e-05
9.8192604e-05
9.8185759e-05
9.8211952e-05
0.00010967703
0.00010230927
8.4166621e-05
6.117139e-05
4.0725785e-05
2.6306115e-05
1.697467e-05
1.1104314e-05
7.4191456e-06
5.0428929e-06
3.5277313e-06
2.5353639e-06
1.8995247e-06
1.5385254e-06
1.3850518e-06
1.4054261e-06
1.5820876e-06
2.0812433e-06
2.893257e-06
4.0672353e-06
5.692966e-06
7.731742e-06
1.0256439e-05
1.3256161e-05
1.6654499e-05
2.0326903e-05
2.4140358e-05
2.7989028e-05
3.1809151e-05
3.5569137e-05
3.9250988e-05
4.2840309e-05
4.6326262e-05
4.9702743e-05
5.2967017e-05
5.611953e-05
5.9159213e-05
6.2086931e-05
6.4904864e-05
6.7615216e-05
7.0220399e-05
7.2722649e-05
7.5124385e-05
7.7428396e-05
7.9636959e-05
8.1752861e-05
8.3779351e-05
8.5719514e-05
8.7576518e-05
8.9353283e-05
9.1052427e-05
9.2677099e-05
9.4229516e-05
9.5712038e-05
9.712728e-05
9.8476808e-05
9.9763934e-05
0.00010099129
0.00010216158
0.0001032767
0.00010433869
0.00010534954
0.00010631091
0.00010722487
0.00010809371
0.000108919
0.00010970186
0.00011044421
0.00011114761
0.00011181368
0.00011244394
0.00011303987
0.00011360262
0.00011413347
0.00011463363
0.00011510429
0.00011554663
0.00011596175
0.00011635073
0.00011671464
0.00011705449
0.0001173713
0.00011766606
0.00011793975
0.00011819331
0.00011842768
0.00011864383
0.00011884277
0.00011902556
0.00011919355
0.00011934772
0.00011949032
0.00011962109
0.00011974569
0.00011985772
0.00011997544
0.00012006947
0.00012020778
0.00012028224
0.00012047348
0.00011212404
0.00011189657
0.00010737314
9.7269305e-05
8.2853748e-05
6.6962961e-05
5.2152218e-05
3.9643722e-05
2.9683273e-05
2.202534e-05
1.6255875e-05
1.1959221e-05
8.7241434e-06
6.3820848e-06
4.6679052e-06
3.4571567e-06
2.6218169e-06
2.1102205e-06
1.8496792e-06
1.8089345e-06
1.9726801e-06
2.5239876e-06
3.444456e-06
4.8288331e-06
6.7585273e-06
9.2319274e-06
1.2292353e-05
1.5885903e-05
1.9884289e-05
2.4128075e-05
2.8475872e-05
3.2833897e-05
3.7152497e-05
4.1404658e-05
4.5570242e-05
4.9634419e-05
5.3587714e-05
5.7425174e-05
6.1144309e-05
6.47439e-05
6.8224011e-05
7.1585443e-05
7.4829394e-05
7.795762e-05
8.0971968e-05
8.3874608e-05
8.6668192e-05
8.9355552e-05
9.1939691e-05
9.4423592e-05
9.6810053e-05
9.9102169e-05
0.00010130264
0.00010341409
0.00010543932
0.00010738052
0.00010924074
0.00011102294
0.00011273012
0.00011436482
0.00011592946
0.00011742641
0.00011885831
0.00012022711
0.0001215345
0.00012278284
0.00012397484
0.00012511225
0.00012619695
0.00012723089
0.00012821593
0.00012915393
0.00013004646
0.00013089524
0.00013170168
0.00013246737
0.00013319383
0.00013388248
0.00013453475
0.00013515201
0.0001357356
0.00013628686
0.00013680709
0.00013729757
0.00013775957
0.00013819433
0.00013860312
0.00013898729
0.00013934824
0.0001396877
0.00014000704
0.00014030901
0.0001405937
0.00014086747
0.00014112404
0.00014138291
0.00014161286
0.00014189101
0.00014207618
0.00014248989
0.00011268697
0.00011371983
0.00011364256
0.00011119229
0.00010567725
9.7280149e-05
8.6870261e-05
7.5541379e-05
6.4259141e-05
5.3682116e-05
4.416571e-05
3.5846866e-05
2.8725059e-05
2.2740635e-05
1.7775764e-05
1.3709003e-05
1.0419125e-05
7.8369681e-06
5.8626617e-06
4.4003797e-06
3.3539137e-06
2.6960389e-06
2.3461478e-06
2.2703466e-06
2.5126251e-06
3.206045e-06
4.3837654e-06
6.1787472e-06
8.5995194e-06
1.1709347e-05
1.547579e-05
1.9772324e-05
2.441718e-05
2.9235903e-05
3.4105306e-05
3.8957344e-05
4.3755318e-05
4.8473493e-05
5.3092323e-05
5.7599387e-05
6.1987767e-05
6.6253177e-05
7.0392897e-05
7.4405851e-05
7.8291959e-05
8.2051796e-05
8.5686684e-05
8.9198485e-05
9.2589452e-05
9.5862082e-05
9.9018901e-05
0.0001020627
0.00010499618
0.00010782203
0.00011054302
0.00011316164
0.00011568078
0.00011810345
0.00012043281
0.00012267174
0.00012482297
0.00012688915
0.00012887311
0.00013077731
0.00013260388
0.0001343553
0.00013603444
0.00013764361
0.00013918502
0.00014066094
0.00014207357
0.00014342512
0.00014471763
0.00014595282
0.0001471328
0.00014825939
0.00014933441
0.00015035964
0.00015133684
0.00015226769
0.00015315388
0.00015399705
0.00015479885
0.00015556088
0.00015628474
0.00015697199
0.00015762424
0.0001582432
0.00015883061
0.00015938863
0.00015991905
0.00016042513
0.00016090741
0.00016137292
0.00016181567
0.0001622563
0.00016266176
0.00016311948
0.00016344692
0.00016414275
0.00011325636
0.00011422009
0.00011496119
0.00011496732
0.00011371288
0.00011077332
0.00010604902
9.9733986e-05
9.2187688e-05
8.3855123e-05
7.516568e-05
6.6489657e-05
5.8089143e-05
5.0136039e-05
4.2737961e-05
3.5964333e-05
2.9842141e-05
2.4385999e-05
1.9601689e-05
1.5482333e-05
1.1996213e-05
9.1562148e-06
6.9132629e-06
5.2054961e-06
3.9897003e-06
3.2233051e-06
2.8446067e-06
2.8064001e-06
3.2900943e-06
4.2969241e-06
5.9652637e-06
8.3784575e-06
1.1568781e-05
1.5530854e-05
2.013717e-05
2.5183175e-05
3.0464093e-05
3.5831708e-05
4.1202147e-05
4.6529568e-05
5.1782587e-05
5.6937914e-05
6.1980479e-05
6.6901228e-05
7.1694175e-05
7.6355452e-05
8.0883158e-05
8.5276721e-05
8.9536489e-05
9.3663554e-05
9.7659431e-05
0.00010152607
0.00010526568
0.00010888054
0.00011237315
0.00011574591
0.00011900145
0.00012214265
0.00012517257
0.00012809418
0.00013091037
0.00013362394
0.0001362378
0.00013875472
0.00014117716
0.00014350776
0.00014574946
0.00014790494
0.00014997672
0.00015196735
0.0001538793
0.00015571504
0.00015747697
0.00015916719
0.00016078801
0.00016234161
0.00016383013
0.00016525566
0.00016662027
0.00016792597
0.00016917476
0.00017036862
0.00017150951
0.00017259936
0.00017364012
0.00017463368
0.00017558199
0.00017648711
0.00017735119
0.00017817679
0.00017896617
0.00017972312
0.00018044866
0.00018115052
0.0001818231
0.00018248817
0.00018311081
0.0001837901
0.00018429371
0.00018533354
0.00011406443
0.0001148067
0.00011549717
0.00011594713
0.00011595369
0.00011527464
0.00011369277
0.00011107636
0.00010739593
0.00010272532
9.7217558e-05
9.1032875e-05
8.4372146e-05
7.7423458e-05
7.0347787e-05
6.3280161e-05
5.6322568e-05
4.9571595e-05
4.3108195e-05
3.6990736e-05
3.1251739e-05
2.5952706e-05
2.1143178e-05
1.6858652e-05
1.3145329e-05
1.005272e-05
7.5840261e-06
5.6979695e-06
4.4205698e-06
3.6598632e-06
3.3565396e-06
3.6069635e-06
4.4829727e-06
6.0906209e-06
8.5533508e-06
1.1892319e-05
1.6114419e-05
2.1079338e-05
2.655484e-05
3.230855e-05
3.8173922e-05
4.405679e-05
4.9904377e-05
5.5680236e-05
6.1358033e-05
6.69208e-05
7.2357876e-05
7.7662112e-05
8.282901e-05
8.7856171e-05
9.2742513e-05
9.7488012e-05
0.00010209341
0.00010655992
0.00011088919
0.00011508304
0.00011914356
0.0001230732
0.00012687463
0.00013055067
0.0001341041
0.00013753769
0.00014085433
0.00014405684
0.00014714791
0.00015013025
0.00015300681
0.00015578048
0.00015845401
0.00016103011
0.00016351149
0.00016590083
0.00016820078
0.00017041376
0.00017254229
0.00017458883
0.00017655581
0.00017844559
0.00018026054
0.00018200296
0.00018367515
0.0001852794
0.00018681798
0.00018829315
0.00018970716
0.00019106226
0.00019236074
0.00019360502
0.00019479763
0.00019594157
0.00019703956
0.00019809593
0.00019911226
0.00020009694
0.00020104488
0.00020197902
0.0002028624
0.00020380735
0.00020452338
0.00020597125
0.00011511008
0.00011565911
0.00011618407
0.00011659224
0.00011681821
0.00011678161
0.00011637641
0.00011548588
0.00011400414
0.0001118587
0.00010902604
0.00010551878
0.00010138832
9.6713955e-05
9.1588889e-05
8.6109278e-05
8.0372179e-05
7.4430439e-05
6.8336325e-05
6.216402e-05
5.5972816e-05
4.9815694e-05
4.3770596e-05
3.7903494e-05
3.2264701e-05
2.6927227e-05
2.1975572e-05
1.74732e-05
1.3559085e-05
1.0300772e-05
7.7104609e-06
5.8451777e-06
4.6525633e-06
4.0579628e-06
4.1061805e-06
4.9023962e-06
6.5297733e-06
9.1254342e-06
1.271403e-05
1.7293103e-05
2.2691782e-05
2.8643378e-05
3.489278e-05
4.1264531e-05
4.7660548e-05
5.402363e-05
6.0313816e-05
6.6503247e-05
7.257403e-05
7.8514446e-05
8.431659e-05
8.9975562e-05
9.5488556e-05
0.00010085413
0.00010607192
0.00011114227
0.00011606611
0.00012084491
0.0001254806
0.00012997538
0.00013433162
0.00013855181
0.00014263858
0.00014659463
0.00015042264
0.00015412529
0.00015770546
0.00016116604
0.0001645099
0.00016773985
0.00017085872
0.00017386932
0.00017677445
0.00017957679
0.00018227902
0.00018488382
0.00018739383
0.00018981167
0.00019213995
0.00019438122
0.00019653804
0.00019861299
0.00020060862
0.00020252748
0.00020437214
0.00020614518
0.00020784919
0.00020948698
0.00021106142
0.00021257597
0.00021403379
0.00021543978
0.00021679608
0.00021811175
0.00021938231
0.0002206319
0.00022182136
0.00022307791
0.00022404491
0.000225967
0.00011637358
0.0001167686
0.00011714546
0.00011744215
0.00011763131
0.0001176953
0.00011760692
0.00011731999
0.00011677049
0.0001158872
0.00011460624
0.00011287896
0.00011067701
0.00010799424
0.000104845
0.00010125909
9.7280738e-05
9.2950263e-05
8.8302094e-05
8.3376456e-05
7.8215259e-05
7.2862429e-05
6.7337033e-05
6.1644954e-05
5.5826568e-05
4.9931129e-05
4.4014358e-05
3.8151937e-05
3.2425028e-05
2.6935331e-05
2.1773836e-05
1.7110467e-05
1.3096363e-05
9.808369e-06
7.3519072e-06
5.7248784e-06
4.8432957e-06
4.7485956e-06
5.5324582e-06
7.2844197e-06
1.0124785e-05
1.4094732e-05
1.9152342e-05
2.5074374e-05
3.1555587e-05
3.8328007e-05
4.5219038e-05
5.2132705e-05
5.9009663e-05
6.580835e-05
7.2500965e-05
7.9069591e-05
8.5502125e-05
9.1790416e-05
9.79293e-05
0.0001039156
0.00010974761
0.00011542476
0.00012094737
0.00012631638
0.00013153321
0.00013659962
0.00014151765
0.00014628961
0.00015091787
0.0001554049
0.00015975335
0.00016396597
0.00016804555
0.00017199489
0.00017581681
0.00017951417
0.00018308983
0.00018654658
0.00018988724
0.0001931146
0.00019623149
0.00019924068
0.00020214497
0.00020494712
0.00020764992
0.00021025616
0.00021276865
0.0002151902
0.00021752366
0.0002197719
0.00022193783
0.00022402458
0.00022603539
0.00022797411
0.00022984438
0.00023165162
0.00023339857
0.00023509494
0.00023673694
0.00023834997
0.00023989252
0.00024150824
0.00024276692
0.0002452315
0.00011783878
0.00011811134
0.00011836828
0.00011856353
0.00011867846
0.0001187102
0.00011865977
0.00011852091
0.00011827319
0.00011788227
0.00011730502
0.00011649556
0.0001154107
0.00011401429
0.00011228043
0.00011019439
0.00010775345
0.00010496351
0.0001018344
9.837975e-05
9.4616683e-05
9.0567538e-05
8.625053e-05
8.1672736e-05
7.6845938e-05
7.178694e-05
6.6526776e-05
6.1018089e-05
5.5290871e-05
4.9400224e-05
4.3387843e-05
3.7361826e-05
3.1432708e-05
2.5711502e-05
2.039421e-05
1.5703428e-05
1.1773386e-05
8.7820711e-06
6.7679812e-06
5.6451753e-06
5.5102748e-06
6.3805366e-06
8.3982283e-06
1.1625377e-05
1.6135028e-05
2.1805215e-05
2.8341002e-05
3.5402009e-05
4.2722982e-05
5.0145664e-05
5.7580617e-05
6.4969297e-05
7.2271273e-05
7.9459968e-05
8.6517724e-05
9.3432457e-05
0.00010019614
0.00010680357
0.00011325154
0.00011953834
0.00012566338
0.00013162688
0.00013742972
0.00014307325
0.00014855919
0.00015388943
0.00015906616
0.00016409177
0.00016896876
0.00017369974
0.00017828738
0.00018273443
0.00018704372
0.00019121803
0.0001952602
0.00019917309
0.00020295958
0.00020662255
0.00021016491
0.00021358957
0.00021689947
0.00022009758
0.00022318689
0.00022617046
0.00022905135
0.00023183269
0.00023451768
0.00023710973
0.00023961243
0.00024203
0.00024436652
0.00024662789
0.0002488175
0.00025094567
0.00025300935
0.00025503525
0.00025697941
0.00025900334
0.00026059641
0.00026367376
0.00011949175
0.00011966645
0.00011982698
0.00011993879
0.00011998621
0.00011996751
0.00011988884
0.00011975672
0.0001195715
0.0001193246
0.00011899873
0.00011856942
0.0001180074
0.00011728127
0.0001163603
0.00011521683
0.00011382804
0.00011217691
0.0001102516
0.00010804479
0.00010555298
0.00010277699
9.9720632e-05
9.6386517e-05
9.277689e-05
8.8893802e-05
8.474974e-05
8.0331458e-05
7.5629545e-05
7.0649303e-05
6.5400755e-05
5.9825572e-05
5.3962819e-05
4.7847926e-05
4.1566729e-05
3.5261161e-05
2.9054045e-05
2.3173131e-05
1.7898643e-05
1.3411397e-05
9.9918018e-06
7.6879568e-06
6.4176858e-06
6.3980779e-06
7.5013515e-06
9.9649326e-06
1.3786484e-05
1.9004854e-05
2.5403877e-05
3.2616769e-05
4.0288146e-05
4.8174905e-05
5.6139215e-05
6.409859e-05
7.1997288e-05
7.9798012e-05
8.7476157e-05
9.5014882e-05
0.00010240268
0.00010963186
0.00011669743
0.00012359635
0.00013032704
0.00013688898
0.00014328242
0.00014950817
0.00015556748
0.000161462
0.00016719366
0.00017276462
0.00017817719
0.00018343385
0.0001885372
0.00019348989
0.00019829466
0.0002029543
0.00020747167
0.00021184965
0.00021609119
0.00022019925
0.00022417687
0.0002280271
0.0002317531
0.00023535805
0.00023884523
0.00024221795
0.00024547966
0.00024863402
0.00025168492
0.00025463689
0.00025749444
0.00026026394
0.00026294935
0.00026556163
0.00026809849
0.000270588
0.00027298365
0.00027546614
0.00027743815
0.00028120049
0.00012132023
0.00012141636
0.00012149915
0.00012154294
0.00012153433
0.00012147046
0.0001213563
0.00012119981
0.00012100734
0.00012078112
0.0001205184
0.00012021118
0.00011984645
0.00011940685
0.00011887192
0.00011821946
0.00011742691
0.00011647261
0.0001153368
0.00011400206
0.00011245345
0.00011067872
0.00010866845
0.00010641512
0.00010391237
0.00010115382
9.8137045e-05
9.4856287e-05
9.1301798e-05
8.7464139e-05
8.3342045e-05
7.8906554e-05
7.4138912e-05
6.9037778e-05
6.356419e-05
5.7700429e-05
5.1473885e-05
4.4949115e-05
3.8298589e-05
3.1648813e-05
2.5279254e-05
1.9517307e-05
1.4579038e-05
1.0884689e-05
8.4265596e-06
7.1832658e-06
7.3932131e-06
8.9803324e-06
1.2084638e-05
1.6736875e-05
2.2847441e-05
3.0079203e-05
3.8013771e-05
4.6315266e-05
5.4779804e-05
6.3291287e-05
7.1775131e-05
8.0180993e-05
8.8475552e-05
9.6636261e-05
0.00010464766
0.00011249934
0.00012018432
0.0001276981
0.00013503794
0.00014220236
0.00014919085
0.00015600366
0.00016264163
0.00016910603
0.00017539851
0.00018152097
0.00018747557
0.00019326463
0.00019889062
0.00020435611
0.0002096638
0.00021481648
0.00021981702
0.00022466834
0.00022937346
0.00023393549
0.00023835761
0.00024264311
0.00024679539
0.00025081791
0.00025471428
0.00025848838
0.00026214433
0.00026568696
0.00026912114
0.00027245362
0.00027568899
0.00027883873
0.00028190141
0.0002849064
0.00028780466
0.0002907972
0.00029319433
0.00029771573
0.00012331386
0.00012334655
0.00012336638
0.00012335458
0.00012329983
0.00012319839
0.00012305326
0.00012287091
0.00012265798
0.00012241951
0.00012215822
0.00012187408
0.00012156389
0.0001212212
0.0001208364
0.00012039715
0.00011988883
0.00011929525
0.00011859933
0.00011778386
0.00011683193
0.00011572739
0.0001144552
0.00011300162
0.00011135409
0.00010950069
0.00010743094
0.00010513494
0.00010260193
9.9819602e-05
9.6778135e-05
9.3462061e-05
8.9850936e-05
8.5929534e-05
8.1671258e-05
7.704037e-05
7.2011707e-05
6.6567074e-05
6.0644936e-05
5.4259955e-05
4.7470273e-05
4.0475839e-05
3.3396683e-05
2.6611387e-05
2.0442334e-05
1.523068e-05
1.1395623e-05
8.9418029e-06
8.0590117e-06
8.7150345e-06
1.1043624e-05
1.5042587e-05
2.0742052e-05
2.7870615e-05
3.5979912e-05
4.4645402e-05
5.3582685e-05
6.2629855e-05
7.1688518e-05
8.0693229e-05
8.960072e-05
9.8382086e-05
0.00010701749
0.00011549336
0.00012380039
0.0001319323
0.000139885
0.000147656
0.00015524402
0.00016264873
0.00016987046
0.00017691011
0.00018376903
0.00019044888
0.00019695161
0.00020327939
0.00020943457
0.00021541967
0.00022123734
0.00022689037
0.00023238165
0.00023771421
0.00024289121
0.00024791595
0.00025279183
0.00025752244
0.00026211147
0.00026656295
0.00027088117
0.00027507118
0.00027913817
0.00028308923
0.00028692951
0.00029067096
0.00029431304
0.00029788642
0.00030133948
0.00030489458
0.00030776449
0.00031312073
0.00012546425
0.0001254454
0.00012541393
0.00012535644
0.00012526346
0.0001251309
0.00012496012
0.00012475585
0.00012452361
0.00012426838
0.00012399412
0.00012370349
0.0001233975
0.00012307534
0.00012273413
0.00012236894
0.00012197277
0.00012153662
0.00012104977
0.00012050015
0.00011987461
0.00011915933
0.0001183401
0.00011740271
0.00011633315
0.0001151176
0.00011374266
0.00011219539
0.00011046298
0.00010853205
0.00010638942
0.00010402102
0.00010140994
9.8538656e-05
9.5386837e-05
9.1927924e-05
8.8132203e-05
8.3973452e-05
7.9401995e-05
7.4373293e-05
6.8873797e-05
6.2819376e-05
5.6203594e-05
4.9112333e-05
4.1734327e-05
3.4256256e-05
2.7102445e-05
2.0601272e-05
1.5338523e-05
1.1582949e-05
9.4082475e-06
9.1222584e-06
1.0581253e-05
1.3907448e-05
1.9119487e-05
2.6049424e-05
3.4253585e-05
4.3233161e-05
5.2615945e-05
6.2183278e-05
7.1807765e-05
8.1406904e-05
9.0926016e-05
0.00010032868
0.00010958997
0.0001186927
0.00012762498
0.00013637864
0.00014494821
0.00015333013
0.00016152234
0.00016952383
0.00017733447
0.00018495476
0.00019238571
0.00019962873
0.00020668559
0.00021355829
0.00022024909
0.00022676046
0.00023309502
0.0002392556
0.00024524522
0.00025106706
0.00025672451
0.00026222109
0.00026756057
0.00027274702
0.00027778485
0.00028267925
0.00028743565
0.0002920614
0.00029656218
0.00030095032
0.00030522621
0.00030942173
0.00031348273
0.00031765378
0.0003210454
0.00032731385
0.00012776474
0.00012770363
0.00012763002
0.00012753461
0.00012740967
0.00012725102
0.00012705891
0.00012683661
0.00012658841
0.00012631856
0.00012603081
0.00012572831
0.00012541336
0.00012508729
0.00012475033
0.00012440152
0.00012403853
0.00012365759
0.00012325349
0.00012281959
0.00012234789
0.0001218292
0.00012125326
0.00012060895
0.00011988451
0.00011906769
0.00011814588
0.00011710629
0.00011593597
0.00011462165
0.00011314977
0.00011150641
0.00010967652
0.00010764385
0.00010539074
0.0001028967
0.00010013743
9.7087664e-05
9.3714697e-05
8.9977213e-05
8.5843644e-05
8.1253493e-05
7.6143801e-05
7.0498912e-05
6.4218704e-05
5.7296443e-05
4.9843002e-05
4.2020452e-05
3.4165935e-05
2.6701012e-05
2.007629e-05
1.4979679e-05
1.1540814e-05
1.0139007e-05
1.0676296e-05
1.3319962e-05
1.7991766e-05
2.4647901e-05
3.2876941e-05
4.2125033e-05
5.1930775e-05
6.2008538e-05
7.2194967e-05
8.2387694e-05
9.2519396e-05
0.00010254545
0.00011243546
0.00012216842
0.00013172975
0.00014110934
0.00015030025
0.00015929784
0.00016809918
0.00017670265
0.00018510757
0.00019331403
0.00020132273
0.00020913483
0.00021675189
0.00022417578
0.0002314087
0.00023845309
0.00024531165
0.00025198735
0.00025848338
0.00026480317
0.00027095041
0.00027692915
0.00028274381
0.00028839965
0.00029390225
0.00029925915
0.00030447647
0.00030956684
0.00031453159
0.00031940373
0.00032412663
0.00032896777
0.00033293114
0.00034019061
0.00013020959
0.00013011333
0.00013000467
0.00012987748
0.0001297255
0.0001295447
0.00012933459
0.00012909731
0.00012883611
0.00012855442
0.00012825549
0.00012794225
0.00012761715
0.00012728208
0.00012693837
0.00012658666
0.00012622688
0.00012585807
0.00012547836
0.00012508488
0.00012467372
0.00012423986
0.00012377724
0.00012327875
0.00012273633
0.00012214105
0.00012148319
0.00012075236
0.00011993759
0.00011902735
0.00011800958
0.00011687169
0.00011560037
0.00011418143
0.00011259962
0.00011083818
0.000108878
0.00010669797
0.00010427384
0.00010157533
9.8571272e-05
9.5222259e-05
9.1475991e-05
8.7292262e-05
8.2599063e-05
7.7320676e-05
7.1439644e-05
6.48207e-05
5.7495136e-05
4.9590216e-05
4.1305137e-05
3.312289e-05
2.5423812e-05
1.9026249e-05
1.4332353e-05
1.1622447e-05
1.1261439e-05
1.3151572e-05
1.7278948e-05
2.3643988e-05
3.1868645e-05
4.136092e-05
5.1576769e-05
6.2160164e-05
7.2907711e-05
8.3695345e-05
9.444225e-05
0.00010509509
0.00011561775
0.00012598528
0.00013618031
0.00014619071
0.00015600804
0.00016562657
0.0001750425
0.00018425352
0.00019325844
0.00020205693
0.00021064936
0.00021903665
0.00022722021
0.00023520184
0.00024298374
0.00025056843
0.00025795879
0.00026515798
0.0002721695
0.00027899725
0.00028564559
0.00029211972
0.00029842529
0.00030456991
0.0003105601
0.00031640862
0.00032211779
0.00032772159
0.00033316098
0.000338727
0.00034331312
0.00035164371
0.00013279261
0.00013266682
0.00013252876
0.00013237472
0.00013219969
0.00013199992
0.00013177443
0.00013152451
0.00013125258
0.00013096136
0.00013065356
0.00013033173
0.00012999813
0.00012965469
0.00012930293
0.00012894402
0.00012857871
0.00012820728
0.00012782946
0.00012744443
0.00012705068
0.00012664599
0.00012622735
0.00012579095
0.0001253321
0.00012484527
0.00012432409
0.00012376135
0.00012314908
0.00012247856
0.00012174034
0.00012092427
0.00012001947
0.00011901428
0.00011789611
0.00011665133
0.00011526489
0.00011372005
0.00011199811
0.00011007711
0.00010793222
0.00010553494
0.00010284881
9.983572e-05
9.6448064e-05
9.2622634e-05
8.8312412e-05
8.3424093e-05
7.7881772e-05
7.1637948e-05
6.4561188e-05
5.6738556e-05
4.8276174e-05
3.9590366e-05
3.1116926e-05
2.3510752e-05
1.7582127e-05
1.3661524e-05
1.2347514e-05
1.3429482e-05
1.7007032e-05
2.3060458e-05
3.1258117e-05
4.09779e-05
5.1596823e-05
6.2685519e-05
7.3996832e-05
8.538332e-05
9.6750113e-05
0.00010803486
0.00011919551
0.00013020311
0.00014103747
0.00015168444
0.00016213407
0.00017237947
0.00018241598
0.00019224062
0.00020185166
0.0002112484
0.00022043091
0.00022939994
0.00023815683
0.00024670341
0.00025504198
0.00026317526
0.00027110637
0.00027883894
0.00028637711
0.0002937259
0.00030089093
0.00030787974
0.00031469914
0.00032136195