/*--------------------------------*- C++ -*----------------------------------*\
| =========                 |                                                 |
| \\      /  F ield         | OpenFOAM: The Open Source CFD Toolbox           |
|  \\    /   O peration     | Version:  2206                                  |
|   \\  /    A nd           | Website:  www.openfoam.com                      |
|    \\/     M anipulation  |                                                 |
\*---------------------------------------------------------------------------*/
FoamFile
{
    version     2.0;
    format      ascii;
    arch        "LSB;label=32;scalar=64";
    class       volScalarField;
    location    "600";
    object      p;
}
// * * * * * * * * * * * * * * * * * * * * * * * * * * * * * * * * * * * * * //

dimensions      [0 2 -2 0 0 0 0];

internalField   nonuniform List<scalar> 
7480
(
0.062657763
0.05173344
0.036316499
0.026983442
0.021745132
0.018613994
0.016646195
0.015143304
0.013825998
0.012725632
0.011851282
0.011170088
0.010654534
0.010276758
0.010009719
0.009831138
0.0097201226
0.009662191
0.0096354251
0.0096348152
0.009660287
0.0096849625
0.0097020979
0.0097151791
0.0097221285
0.009721647
0.0097144964
0.0097008889
0.0096794603
0.0096507826
0.0096160824
0.0095757785
0.0095304037
0.0094807009
0.0094265908
0.0093683639
0.0093060831
0.0092395754
0.0091694265
0.0090959953
0.0090192978
0.0089392327
0.0088563465
0.0087707418
0.0086823589
0.0085916128
0.0084983535
0.0084026573
0.00830474
0.0082043455
0.0081018275
0.0079971729
0.0078903752
0.0077816255
0.0076706827
0.0075577783
0.0074428357
0.0073258452
0.0072068267
0.0070856883
0.0069625764
0.0068373518
0.0067101056
0.0065807391
0.0064492702
0.0063156547
0.0061798489
0.0060418263
0.0059015438
0.0057589973
0.0056141229
0.0054669163
0.0053173133
0.0051653202
0.0050108655
0.0048539555
0.0046945254
0.0045326007
0.0043681273
0.0042011514
0.0040316366
0.0038596618
0.0036852284
0.0035084554
0.0033294407
0.0031483151
0.0029653714
0.0027808051
0.0025952607
0.002408922
0.0022235531
0.0020383
0.0018596818
0.0016791541
0.0015263108
0.0013493403
0.0012853578
0.001082163
0.0018188098
-0.0017569468
0.058965217
0.050720469
0.038376498
0.029125448
0.022866462
0.019113327
0.01689172
0.01529588
0.013941622
0.012825283
0.01193994
0.011249354
0.010725415
0.010339718
0.010065137
0.0098797042
0.009762823
0.0096992594
0.0096734104
0.0096739267
0.0096901567
0.0097077211
0.0097226069
0.009733689
0.009738833
0.009736803
0.0097283057
0.0097134926
0.0096909959
0.0096613914
0.0096258787
0.0095848439
0.0095388128
0.0094885175
0.0094338692
0.0093751561
0.0093124371
0.0092455339
0.0091750227
0.0091012599
0.0090242569
0.0089439105
0.0088607657
0.0087749203
0.0086863138
0.0085953599
0.0085019062
0.0084060295
0.0083079435
0.0082073908
0.0081047247
0.0079999304
0.0078930014
0.0077841276
0.0076730675
0.0075600525
0.007445005
0.0073279155
0.0072088032
0.0070875758
0.0069643794
0.0068390744
0.0067117517
0.0065823124
0.0064507742
0.0063170928
0.0061812243
0.0060431419
0.0059028025
0.0057602016
0.0056152754
0.0054680193
0.0053183691
0.005166331
0.0050118332
0.0048548821
0.0046954128
0.0045334507
0.0043689416
0.0042019315
0.0040323841
0.0038603782
0.003685915
0.0035091136
0.0033300718
0.0031489203
0.0029659521
0.0027813623
0.0025957957
0.0024094359
0.0022240474
0.0020387755
0.0018601413
0.0016795977
0.0015267451
0.0013497644
0.0012857869
0.0010826738
0.001819215
-0.0017563999
0.055197024
0.048397458
0.037603012
0.028885302
0.023124929
0.019625318
0.017391735
0.015700217
0.014261718
0.013093577
0.012171008
0.011450389
0.01090213
0.010495986
0.010204063
0.010004115
0.0098744046
0.0097992796
0.0097649556
0.0097557727
0.0097604644
0.0097704257
0.0097791005
0.0097844263
0.0097845421
0.009778242
0.0097660335
0.0097478214
0.0097222839
0.0096900396
0.0096522254
0.0096091221
0.0095612354
0.0095092627
0.0094530985
0.0093929912
0.0093290143
0.009261001
0.0091894572
0.0091147515
0.0090368849
0.0089557465
0.0088718786
0.008785365
0.0086961416
0.0086046179
0.0085106328
0.0084142653
0.0083157239
0.0082147464
0.0081116862
0.0080065233
0.0078992498
0.0077900533
0.0076786897
0.0075653906
0.0074500756
0.0073327342
0.0072133848
0.0070919341
0.0069685272
0.0068430228
0.0067155119
0.0065858944
0.0064541878
0.0063203465
0.0061843266
0.0060461008
0.0059056254
0.0057628954
0.0056178464
0.0054704737
0.0053207127
0.0051685692
0.0050139712
0.0048569249
0.0046973649
0.0045353166
0.0043707254
0.0042036372
0.0040340154
0.0038619386
0.0036874081
0.0035105425
0.0033314397
0.0031502301
0.0029672068
0.0027825648
0.0025969489
0.0024105423
0.0022251107
0.0020397973
0.001861129
0.0016805486
0.0015276803
0.0013506687
0.0012867209
0.0010836174
0.0018202805
-0.0017556795
0.052302596
0.046667743
0.037337483
0.029190954
0.023698373
0.0201786
0.017851726
0.016109441
0.014639529
0.013440103
0.012483255
0.011729007
0.011150891
0.0107187
0.010403623
0.010182917
0.010033991
0.0099415895
0.0098920258
0.0098694458
0.0098629268
0.0098633314
0.0098634095
0.0098610792
0.0098543154
0.0098419438
0.0098243636
0.0098012288
0.0097712579
0.0097351322
0.009693871
0.0096476295
0.009596913
0.0095423729
0.0094838822
0.0094215519
0.0093555655
0.0092858032
0.0092125866
0.0091363602
0.0090571003
0.0089746804
0.0088896413
0.0088020441
0.0087118212
0.008619373
0.0085245224
0.0084273557
0.0083280731
0.0082264039
0.0081227031
0.0080169418
0.00790911
0.0077993913
0.007687537
0.0075737796
0.0074580331
0.0073402858
0.0072205547
0.0070987455
0.0069750014
0.0068491785
0.0067213672
0.0065914661
0.0064594915
0.0063253966
0.0061891367
0.0060506839
0.0059099934
0.0057670595
0.0056218171
0.0054742609
0.0053243258
0.0051720171
0.0050172621
0.0048600666
0.004700365
0.004538182
0.0043734628
0.0042062529
0.0040365154
0.0038643286
0.0036896934
0.0035127284
0.003333531
0.0031522316
0.0029691231
0.0027844003
0.0025987083
0.0024122296
0.0022267316
0.0020413544
0.0018626327
0.001681996
0.0015290995
0.0013520412
0.0012881282
0.0010849816
0.0018219337
-0.0017547032
0.049632406
0.044852843
0.036859873
0.029534425
0.02433487
0.020764695
0.018314987
0.016477111
0.014936639
0.013716485
0.012755974
0.011997074
0.011401331
0.010946339
0.010611843
0.010373474
0.010208241
0.010100644
0.010035516
0.0099983539
0.0099788846
0.0099677204
0.0099585389
0.0099486012
0.009935052
0.0099165397
0.0098934362
0.0098652404
0.0098306264
0.0097903324
0.0097452441
0.0096954289
0.0096414228
0.0095838668
0.0095226218
0.0094576387
0.0093892355
0.0093173309
0.0092420618
0.0091639551
0.0090829615
0.0089989374
0.0089124259
0.0088234594
0.0087319708
0.0086383492
0.0085423917
0.0084441984
0.0083439605
0.0082413982
0.0081368696
0.0080303332
0.0079217782
0.0078113832
0.0076988938
0.0075845437
0.007468238
0.0073499642
0.0072297381
0.0071074644
0.0069832842
0.0068570492
0.0067288496
0.0065985822
0.0064662618
0.0063318397
0.00619527
0.0060565245
0.005915557
0.0057723608
0.0056268694
0.0054790774
0.0053289188
0.005176398
0.0050214416
0.004864055
0.0047041718
0.0045418165
0.0043769335
0.004209568
0.0040396825
0.0038673552
0.0036925864
0.0035154945
0.0033361765
0.0031547627
0.0029715457
0.0027867201
0.0026009311
0.0024143606
0.0022287776
0.0020433193
0.0018645277
0.0016838204
0.0015308808
0.0013537646
0.0012898756
0.0010866757
0.001824002
-0.0017534775
0.047208706
0.043016728
0.036191831
0.029669013
0.024761221
0.021255163
0.018766332
0.016872429
0.015297505
0.014034761
0.013032362
0.012236551
0.011613361
0.011139133
0.010795265
0.010544929
0.010362968
0.010244311
0.010170146
0.010124968
0.010097771
0.010077805
0.010059683
0.010041083
0.010019521
0.0099942388
0.0099657179
0.009932912
0.0098940915
0.0098500059
0.0098013701
0.0097481326
0.0096908787
0.0096302796
0.0095661858
0.0094984858
0.0094275735
0.0093533562
0.0092758931
0.0091957543
0.0091128636
0.0090270612
0.0089389052
0.0088483948
0.0087554642
0.0086605027
0.0085632801
0.0084639093
0.0083625728
0.0082589771
0.0081534861
0.008046045
0.0079366434
0.0078254565
0.0077122235
0.007597178
0.0074802145
0.007361321
0.0072405129
0.0071176923
0.0069929979
0.0068662764
0.0067376184
0.0066069184
0.0064741902
0.0063393818
0.0062024465
0.0060633556
0.0059220614
0.0057785557
0.0056327708
0.0054847008
0.0053342789
0.0051815084
0.0050263148
0.0048687032
0.0047086065
0.0045460484
0.0043809729
0.0042134246
0.0040433654
0.0038708732
0.0036959477
0.0035187069
0.0033392476
0.0031576995
0.0029743553
0.0027894093
0.0026035066
0.0024168287
0.0022311455
0.0020455924
0.0018667169
0.0016859275
0.0015329291
0.0013557465
0.0012918626
0.0010886088
0.0018263564
-0.0017520408
0.045089398
0.04134419
0.035451628
0.029642163
0.025057305
0.021663395
0.01916714
0.017240798
0.015652004
0.014365179
0.013334379
0.012508126
0.011854121
0.011349254
0.01097669
0.010699515
0.010494845
0.010362542
0.010279715
0.01022637
0.010192404
0.010168964
0.010149139
0.010128834
0.010104304
0.010074319
0.010040237
0.010001872
0.0099580021
0.0099099478
0.0098581032
0.0098019285
0.0097419149
0.0096787035
0.0096120648
0.0095418805
0.0094686276
0.0093921771
0.0093125604
0.0092304079
0.0091456062
0.0090579815
0.0089681239
0.0088759968
0.0087815354
0.0086851434
0.0085865666
0.0084859315
0.0083834105
0.008278691
0.0081721487
0.0080637146
0.0079533787
0.0078413145
0.0077272518
0.0076114282
0.0074937292
0.0073741439
0.007252685
0.0071292502
0.0070039769
0.0068767066
0.0067475307
0.0066163419
0.0064831527
0.0063479068
0.0062105573
0.006071075
0.0059294104
0.0057855538
0.0056394363
0.0054910512
0.0053403304
0.0051872764
0.0050318137
0.0048739467
0.0047136076
0.0045508195
0.0043855254
0.0042177697
0.0040475134
0.0038748341
0.0036997307
0.0035223212
0.0033427015
0.0031610013
0.0029775129
0.0027924301
0.0026063984
0.0024195985
0.0022338013
0.0020481407
0.0018691676
0.0016882855
0.0015352124
0.0013579547
0.0012940537
0.0010907403
0.0018289427
-0.0017503966
0.043205503
0.039872417
0.034743503
0.029542177
0.025267242
0.021996719
0.019518089
0.01757794
0.015980287
0.014675688
0.013623869
0.012776743
0.012101423
0.011571516
0.011174439
0.010873954
0.010645188
0.010490683
0.010386835
0.010315132
0.010267381
0.010236626
0.010213229
0.010190404
0.010166098
0.010137884
0.010105179
0.010067224
0.010021733
0.0099704921
0.0099148702
0.009855
0.0097919446
0.0097263541
0.0096576078
0.0095854004
0.0095102474
0.0094319244
0.0093504296
0.0092664782
0.0091799206
0.0090905811
0.0089990979
0.0089054
0.0088094309
0.0087116138
0.0086116694
0.0085097466
0.0084060092
0.0083001251
0.008192489
0.008083015
0.0079716938
0.0078586989
0.0077437483
0.0076270883
0.0075085983
0.0073882678
0.0072661055
0.0071420041
0.0070161007
0.0068882319
0.0067584906
0.006626766
0.0064930695
0.0063573427
0.0062195377
0.0060796242
0.0059375507
0.0057933067
0.0056468218
0.0054980882
0.0053470364
0.0051936683
0.0050379071
0.004879757
0.0047191488
0.0045561053
0.0043905686
0.0042225824
0.0040521072
0.0038792198
0.0037039189
0.0035263217
0.0033465237
0.0031646542
0.0029810052
0.0027957704
0.0026095948
0.0024226591
0.0022367343
0.0020509537
0.0018718697
0.0016908843
0.0015377198
0.0013603783
0.0012964356
0.0010930528
0.0018317313
-0.0017485276
0.041500313
0.038539819
0.034078698
0.029421137
0.025433942
0.022284251
0.019835509
0.017891766
0.016289377
0.014972938
0.013904389
0.013038752
0.012343267
0.011792583
0.011372202
0.011050427
0.010802677
0.010628171
0.010505724
0.010417483
0.010354597
0.010309543
0.010273538
0.010240321
0.010209641
0.010179734
0.010147043
0.01010986
0.010067403
0.010019321
0.0099659196
0.0099063042
0.0098415797
0.0097733691
0.00970189
0.0096273349
0.0095504232
0.0094706051
0.0093876541
0.0093023196
0.0092143633
0.0091235987
0.0090307255
0.0089356366
0.0088382971
0.0087391601
0.0086379204
0.0085347623
0.0084298437
0.0083228133
0.0082140917
0.0081035749
0.0079912584
0.0078773167
0.0077614557
0.0076439337
0.0075246223
0.0074035135
0.0072806131
0.0071558098
0.0070292407
0.0069007378
0.0067703955
0.0066380985
0.0065038582
0.0063676157
0.0062293219
0.0060889441
0.0059464296
0.0058017668
0.0056548842
0.0055057728
0.0053543619
0.0052006524
0.0050445666
0.0048861082
0.0047252069
0.0045618849
0.0043960834
0.0042278455
0.0040571309
0.0038840162
0.003708499
0.0035306963
0.0033507031
0.0031686481
0.0029848231
0.0027994213
0.0026130878
0.0024260028
0.0022399372
0.0020540245
0.0018748163
0.0016937175
0.001540444
0.00136301
0.0012989989
0.0010955339
0.0018346956
-0.0017464099
0.039946876
0.037308127
0.033425292
0.029266032
0.025562477
0.022541345
0.020133849
0.018193827
0.016588663
0.015262611
0.014178993
0.013296066
0.012581837
0.012011735
0.011569338
0.011227134
0.010961287
0.0107675
0.010627205
0.010524098
0.010447772
0.010389728
0.010342705
0.010300131
0.010260923
0.01022309
0.010183056
0.01014007
0.010095937
0.010048571
0.0099966641
0.0099402668
0.0098792334
0.009813817
0.0097435248
0.0096682539
0.0095895685
0.0095077687
0.0094230722
0.0093364603
0.0092474292
0.0091556184
0.0090617355
0.0089655874
0.0088671532
0.0087669225
0.0086645636
0.0085603115
0.0084543235
0.0083462312
0.008236491
0.0081249806
0.0080117052
0.007896842
0.0077800849
0.0076617078
0.0075415734
0.0074196788
0.0072960283
0.0071705076
0.007043255
0.006914097
0.0067831316
0.0066502388
0.0065154306
0.0063786473
0.0062398391
0.0060989715
0.0059559906
0.0058108838
0.0056635785
0.0055140651
0.005362271
0.0052081967
0.0050517637
0.0048929749
0.0047317591
0.0045681378
0.0044020514
0.0042335425
0.00406257
0.0038892099
0.0037134591
0.0035354345
0.0033552301
0.0031729743
0.0029889586
0.0028033758
0.0026168707
0.0024296236
0.0022434043
0.0020573479
0.0018780021
0.0016967798
0.0015433794
0.001365844
0.0013017356
0.0010981738
0.00183781
-0.0017440155
0.038526833
0.036164695
0.032774722
0.029065237
0.025641328
0.022760827
0.020409688
0.018484392
0.016881115
0.01554811
0.01445096
0.013551624
0.012819397
0.012230338
0.011767063
0.011404857
0.011121058
0.010908622
0.010751039
0.010632458
0.01054233
0.010472144
0.010414837
0.010363787
0.010316918
0.010272008
0.010225664
0.010177409
0.010128252
0.01007583
0.010019299
0.0099609086
0.0099006234
0.0098370776
0.0097696587
0.0096980336
0.0096222864
0.0095420827
0.0094572045
0.0093693628
0.0092788661
0.0091857884
0.0090910044
0.0089940859
0.0088948972
0.0087939103
0.0086907264
0.0085856303
0.0084787782
0.0083697875
0.0082591638
0.0081467678
0.0080326212
0.0079169076
0.0077993092
0.0076801202
0.0075591942
0.0074365357
0.0073121493
0.0071859185
0.0070579845
0.0069281686
0.0067965736
0.0066630758
0.0065276882
0.00639035
0.0062510116
0.0061096376
0.0059661726
0.0058206036
0.0056728569
0.0055229223
0.005370726
0.005216268
0.0050594688
0.004900331
0.0047387822
0.0045748437
0.0044084547
0.0042396576
0.0040684104
0.0038947887
0.0037187886
0.0035405268
0.0033600963
0.0031776254
0.0029934053
0.0028076282
0.0026209385
0.0024335168
0.0022471315
0.00206092
0.0018814233
0.0017000677
0.0015465217
0.001368876
0.0013046395
0.001100964
0.0018410492
-0.001741312
0.037224649
0.035102051
0.032130644
0.028822137
0.025668133
0.022936637
0.02065575
0.018757358
0.01716305
0.015827701
0.014720064
0.013806099
0.013056909
0.012449475
0.011966069
0.011584153
0.011282372
0.011051677
0.010877003
0.010742993
0.010639087
0.010556722
0.010488848
0.010428948
0.010374343
0.010322765
0.010270976
0.010218066
0.010164342
0.01010769
0.010047647
0.009985874
0.0099220385
0.0098549004
0.0097853806
0.0097143799
0.0096405322
0.0095629963
0.0094816105
0.0093966177
0.0093077026
0.0092146247
0.0091189337
0.0090209214
0.0089208436
0.0088192303
0.0087154857
0.0086098533
0.0085024319
0.0083927979
0.0082815099
0.0081684076
0.0080535386
0.0079370982
0.0078187585
0.0076988415
0.0075771916
0.0074538243
0.0073287455
0.0072018379
0.007073248
0.0069427917
0.0068105791
0.0066764831
0.0065405188
0.0064026246
0.0062627519
0.0061208647
0.005976907
0.0058308655
0.0056826656
0.0055322972
0.0053796853
0.0052248295
0.0050676496
0.0049081479
0.0047462513
0.0045819806
0.0044152742
0.0042461741
0.0040746375
0.0039007398
0.0037244763
0.0035459634
0.0033652936
0.0031825944
0.0029981569
0.002812173
0.0026252866
0.0024376785
0.0022511151
0.0020647375
0.0018850768
0.0017035782
0.0015498673
0.0013721022
0.001307705
0.0011038968
0.0018443872
-0.001738262
0.036026874
0.034113142
0.031497595
0.028544378
0.025646865
0.023068583
0.020868699
0.01900808
0.017430195
0.016097894
0.01498374
0.014057793
0.013293391
0.012668728
0.012166199
0.011765132
0.011445503
0.011196866
0.011005201
0.010855822
0.010738116
0.010643524
0.010564939
0.010495941
0.010433445
0.010375052
0.010317562
0.01025973
0.010201578
0.01014132
0.010078314
0.010013617
0.0099468255
0.0098770244
0.0098050657
0.0097314581
0.0096548039
0.0095754561
0.0094947263
0.0094115949
0.0093252276
0.0092354077
0.0091423301
0.009045626
0.0089455095
0.0088431692
0.0087386035
0.008632391
0.0085245577
0.0084145231
0.0083028428
0.0081892876
0.0080739173
0.007956938
0.0078380119
0.007717498
0.0075952329
0.007471248
0.0073455527
0.0072180309
0.0070888367
0.0069577812
0.0068249838
0.006690315
0.0065537932
0.0064153566
0.0062749584
0.0061325633
0.0059881145
0.0058415994
0.0056929428
0.0055421352
0.0053891006
0.0052338387
0.0050762687
0.004916393
0.0047541377
0.0045895235
0.0044224879
0.0042530728
0.0040812348
0.003907049
0.0037305098
0.0035517338
0.0033708125
0.0031878733
0.0030032066
0.0028170045
0.0026299098
0.0024421043
0.0022553515
0.0020687971
0.0018889594
0.0017073084
0.0015534129
0.0013755193
0.0013109265
0.0011069646
0.001847796
-0.001734823
0.034921856
0.033191273
0.030878995
0.028239473
0.025583142
0.023159178
0.021048164
0.019234401
0.017679912
0.016356018
0.015239557
0.01430469
0.013527286
0.012886972
0.01236664
0.011947276
0.011610187
0.011344036
0.01113561
0.010970938
0.010839422
0.010732529
0.010643125
0.010564908
0.010494403
0.010429001
0.010365579
0.010302658
0.010239998
0.010175968
0.010109765
0.010042132
0.0099727795
0.0099008892
0.0098269421
0.009751168
0.00967246
0.0095913055
0.0095085793
0.0094231987
0.0093354765
0.0092464361
0.0091551875
0.0090609917
0.0089638443
0.008863763
0.0087600945
0.0086537203
0.0085452994
0.0084346818
0.0083226345
0.0082088003
0.0080931611
0.007975881
0.0078565832
0.0077356609
0.0076129388
0.0074884701
0.0073622709
0.0072342297
0.0071045116
0.0069729238
0.0068395981
0.0067044028
0.0065673616
0.0064284133
0.0062875137
0.0061446289
0.0059997027
0.0058527235
0.0057036163
0.0055523725
0.0053989156
0.0052432461
0.0050852825
0.0049250279
0.0047624077
0.0045974427
0.0044300699
0.0042603312
0.0040881825
0.003913699
0.0037368743
0.0035578251
0.0033766421
0.0031934525
0.0030085465
0.0028221156
0.0026348024
0.0024467891
0.002259836
0.0020730949
0.0018930675
0.001711255
0.0015571543
0.0013791232
0.0013142979
0.0011101593
0.001851245
-0.0017309473
0.03389948
0.032330253
0.030277233
0.027914044
0.025482607
0.023211674
0.021195044
0.019435578
0.017910807
0.016600424
0.015485833
0.014545249
0.013757259
0.01310311
0.012566483
0.012129882
0.011775927
0.011492813
0.011267985
0.011088193
0.010942935
0.010823728
0.010723443
0.010635872
0.010557212
0.01048466
0.010415158
0.010347021
0.01027973
0.010211753
0.010142196
0.010071544
0.009999535
0.0099253896
0.0098493831
0.0097717159
0.0096914877
0.0096089355
0.0095245985
0.0094376387
0.0093485064
0.0092578121
0.0091647073
0.009069774
0.0089735825
0.0088753016
0.0087741281
0.0086703362
0.0085636583
0.0084535583
0.0083412365
0.0082269288
0.0081109443
0.007993454
0.0078739639
0.007752847
0.0076298736
0.0075051043
0.0073785582
0.0072501303
0.0071200015
0.0069879771
0.0068542052
0.006718553
0.0065810515
0.0064416409
0.006300281
0.0061569404
0.0060115641
0.0058641425
0.0057146016
0.0055629343
0.0054090643
0.0052529932
0.0050946394
0.0049340071
0.0047710212
0.0046057032
0.0044379894
0.0042679224
0.0040954571
0.0039206693
0.003743552
0.0035642218
0.0033827691
0.0031993206
0.0030141664
0.002827498
0.0026399569
0.0024517266
0.0022645632
0.002077626
0.0018973964
0.0017154137
0.0015610869
0.0013829096
0.0013178123
0.0011134716
0.0018546996
-0.0017265806
0.032950956
0.031524432
0.029693856
0.027573772
0.025350562
0.02322946
0.021310751
0.019611551
0.018122137
0.016830052
0.015721384
0.014778314
0.013982252
0.013316223
0.012764922
0.012312283
0.011942221
0.011642794
0.011402021
0.011207365
0.011048502
0.010917023
0.010805834
0.010708803
0.010621875
0.010542065
0.010466349
0.010392859
0.01032082
0.010248766
0.010175736
0.010101974
0.010027201
0.0099506727
0.0098725238
0.0097929053
0.0097110337
0.0096270079
0.0095412833
0.0094532071
0.0093630191
0.0092710712
0.009176756
0.0090806852
0.0089829982
0.0088831646
0.0087819902
0.0086793273
0.0085743711
0.0084667998
0.0083566468
0.0082434497
0.0081276219
0.0080098375
0.0078900135
0.0077687111
0.0076456169
0.0075207293
0.0073940254
0.0072653844
0.0071349977
0.0070026664
0.0068685597
0.0067325458
0.0065946659
0.0064548633
0.0063131032
0.0061693575
0.0060235739
0.0058757456
0.0057258002
0.0055737332
0.0054194692
0.0052630114
0.0051042789
0.0049432771
0.0047799311
0.0046142633
0.00444621
0.0042758141
0.0041030306
0.0039279355
0.0037505212
0.0035709053
0.003389177
0.0032054633
0.0030200542
0.0028331409
0.0026453642
0.0024569088
0.0022695261
0.0020823842
0.0019019405
0.0017197793
0.0015652049
0.0013868726
0.0013214617
0.001116891
0.0018581212
-0.0017216624
0.032068611
0.030768701
0.02912975
0.027223446
0.025191889
0.02321589
0.021396949
0.019762641
0.018313511
0.017044169
0.015945314
0.015002964
0.014201397
0.013525528
0.012961251
0.012493879
0.012108591
0.011793583
0.011537404
0.011328217
0.011155944
0.011012284
0.010890202
0.010783644
0.010688361
0.0106012
0.010519146
0.010440177
0.010363289
0.010287052
0.010210437
0.010133473
0.010055844
0.0099768401
0.0098964741
0.009814832
0.0097312184
0.0096456447
0.0095584866
0.0094691925
0.0093779022
0.0092849223
0.0091897793
0.0090928411
0.0089941315
0.0088933378
0.008791207
0.0086871207
0.0085810876
0.0084740237
0.0083652636
0.0082539871
0.008140387
0.0080241889
0.007904934
0.0077835328
0.0076601756
0.0075351203
0.0074083361
0.0072796284
0.0071491536
0.0070166782
0.0068823829
0.006746133
0.006607983
0.0064678813
0.0063258012
0.0061817199
0.0060355885
0.0058874046
0.0057370979
0.0055846678
0.0054300401
0.0052732207
0.0051141297
0.004952775
0.0047890817
0.0046230739
0.004454688
0.0042839682
0.004110869
0.0039354677
0.0037577561
0.0035778526
0.0033958461
0.0032118634
0.0030261946
0.0028390311
0.0026510125
0.0024623255
0.0022747156
0.0020873616
0.0019066922
0.0017243451
0.0015695011
0.0013910056
0.0013252366
0.0011204054
0.0018614659
-0.0017161243
0.031245732
0.030058469
0.028585287
0.026867047
0.025011025
0.023174231
0.021455446
0.019889425
0.018484778
0.017242244
0.016156898
0.015218423
0.014413938
0.013730334
0.013154836
0.012674114
0.012274587
0.011944799
0.011673825
0.011450507
0.011265074
0.01110937
0.010976444
0.010860325
0.010756619
0.010662028
0.010573528
0.010488967
0.010407137
0.010326612
0.010246307
0.010166054
0.010085492
0.010003935
0.0099212826
0.0098375543
0.0097521285
0.0096649429
0.0095762936
0.0094857061
0.0093932541
0.0092991982
0.0092031315
0.009105333
0.0090058507
0.0089044211
0.0088015034
0.0086965711
0.0085897724
0.0084817334
0.008371742
0.0082602299
0.0081474392
0.0080326442
0.007915492
0.007795904
0.0076734606
0.0075485546
0.0074216023
0.0072927396
0.0071622071
0.0070297018
0.0068953683
0.0067590335
0.006620751
0.0064804705
0.0063381742
0.0061938469
0.0060474454
0.0058989733
0.0057483637
0.0055956208
0.0054406723
0.0052835278
0.0051241091
0.004962427
0.0047984075
0.004632077
0.0044633722
0.0042923391
0.0041189325
0.0039432307
0.0037652255
0.0035850365
0.0034027522
0.0032184997
0.0030325692
0.0028451524
0.0026568879
0.0024679643
0.0022801207
0.0020925482
0.0019116426
0.0017291028
0.0015739667
0.0013953002
0.0013291259
0.0011240005
0.0018646843
-0.0017098898
0.030476418
0.029389627
0.028060462
0.026507838
0.024811958
0.023107615
0.02148814
0.019992682
0.01863598
0.017423901
0.016355535
0.015424003
0.01461919
0.013929996
0.013345083
0.012852461
0.012439771
0.01209607
0.011810975
0.011573988
0.011375699
0.011208132
0.011064448
0.010938766
0.010826595
0.010724509
0.010629469
0.010539213
0.01045235
0.010367441
0.010283344
0.010199718
0.010116149
0.01003196
0.009946957
0.0098610893
0.009773794
0.0096849443
0.0095947578
0.0095028241
0.0094091577
0.0093139756
0.0092169268
0.0091182252
0.0090179197
0.0089157644
0.0088121373
0.0087066347
0.0085993074
0.0084905682
0.0083798766
0.0082677104
0.0081538462
0.0080382028
0.007921446
0.0078030362
0.0076822609
0.0075591786
0.0074334033
0.0073049241
0.0071743313
0.0070416961
0.0069073194
0.0067709857
0.0066327007
0.0064923789
0.006349995
0.0062055354
0.0060589624
0.0059102877
0.0057594498
0.005606459
0.0054512462
0.0052938257
0.0051341213
0.0049721477
0.0048078325
0.0046412049
0.0044722025
0.0043008737
0.0041271736
0.0039511826
0.0037728924
0.0035924244
0.0034098665
0.0032253468
0.0030391557
0.0028514851
0.0026629728
0.0024738098
0.0022857277
0.0020979319
0.0019167802
0.0017340421
0.001578591
0.0013997463
0.0013331168
0.0011276595
0.0018677199
-0.0017028729
0.02975547
0.028758506
0.027555
0.026148453
0.024598232
0.023019023
0.021496979
0.020073357
0.018767329
0.017588907
0.016540731
0.015619091
0.014816512
0.014123902
0.013531417
0.013028405
0.012603707
0.012247024
0.011948541
0.011698409
0.01148762
0.011308414
0.011154096
0.011018881
0.010898225
0.010788598
0.01068694
0.010590895
0.010498915
0.010409527
0.010321542
0.010234461
0.010147811
0.010060916
0.0099734966
0.0098854366
0.0097962156
0.009705652
0.0096138892
0.0095205666
0.0094256483
0.0093293051
0.0092312336
0.0091315858
0.0090304094
0.0089274819
0.0088231202
0.0087169817
0.0086090737
0.008499772
0.0083886406
0.0082759408
0.0081614684
0.0080452665
0.0079277433
0.0078083896
0.0076875351
0.0075652506
0.0074407892
0.0073140852
0.0071848403
0.007052771
0.0069184328
0.0067820071
0.0066436901
0.0065033881
0.006361027
0.0062165596
0.0060699344
0.0059211639
0.0057701907
0.0056170332
0.0054616271
0.0053039927
0.0051440569
0.0049818391
0.0048172689
0.0046503791
0.004481109
0.0043095096
0.0041355372
0.0039592743
0.0037807133
0.0035999774
0.0034171549
0.0032323744
0.0030459271
0.0028580056
0.0026692463
0.0024798433
0.0022915199
0.0021034977
0.0019220914
0.0017391502
0.0015833612
0.0014043318
0.0013371939
0.0011313629
0.0018705086
-0.0016949776
0.029078295
0.028161832
0.027068432
0.025790991
0.024372963
0.022911258
0.021483928
0.020132525
0.018879199
0.017737164
0.016712098
0.015803146
0.015005309
0.01431146
0.013713275
0.013201432
0.012765955
0.012397281
0.012086202
0.011823505
0.011600624
0.011410053
0.011245259
0.011100579
0.010971443
0.010854246
0.010745907
0.010643994
0.010546816
0.010452864
0.010360897
0.010270281
0.010180475
0.010090801
0.010000901
0.0099105943
0.0098193913
0.0097270636
0.0096336847
0.0095389313
0.0094427252
0.0093451919
0.009246066
0.0091454447
0.0090433696
0.0089396388
0.008834507
0.0087276858
0.0086191628
0.0085092701
0.0083976255
0.0082844272
0.0081695423
0.0080529509
0.0079349074
0.0078150246
0.0076936302
0.0075704782
0.0074456236
0.007319397
0.0071912097
0.0070607529
0.0069278147
0.0067920871
0.0066539085
0.0065135538
0.0063711713
0.0062267369
0.0060801534
0.0059313996
0.0057804013
0.005627177
0.0054716649
0.0053138932
0.0051537931
0.0049913902
0.0048266167
0.00465951
0.0044900111
0.0043181748
0.0041439588
0.0039674485
0.003788637
0.0036076503
0.0034245769
0.0032395468
0.0030528518
0.0028646855
0.0026756832
0.0024860426
0.0022974774
0.0021092275
0.0019275594
0.001744412
0.0015882619
0.0014090422
0.0013413399
0.001135088
0.0018729779
-0.0016860962
0.028440826
0.02759668
0.026600162
0.025437096
0.024138862
0.022786925
0.021450936
0.020171363
0.018972102
0.017868705
0.016869354
0.015975704
0.015185037
0.014492107
0.013890108
0.013371032
0.012926067
0.012546453
0.012223623
0.011949001
0.011714489
0.011512868
0.011337802
0.011183755
0.011046174
0.010921401
0.010806335
0.010698484
0.010596039
0.010497442
0.010401405
0.010307175
0.010214143
0.010121615
0.010029169
0.0099365619
0.0098433209
0.0097491782
0.0096541418
0.0095579152
0.0094603843
0.0093616306
0.0092614189
0.0091597993
0.0090568034
0.0089522461
0.0088463249
0.0087387978
0.0086296327
0.0085191161
0.0084069188
0.0082932024
0.0081778529
0.0080608308
0.0079423766
0.0078221622
0.0077003503
0.0075767337
0.0074514636
0.0073245022
0.0071957147
0.0070654979
0.0069334644
0.00679912
0.0066623233
0.006522755
0.0063805934
0.006236145
0.0060895524
0.0059408413
0.005789898
0.0056367086
0.0054811924
0.0053233762
0.0051631937
0.0050006775
0.0048357639
0.004668496
0.0044988174
0.004326787
0.0041523645
0.0039756389
0.0037966043
0.0036153902
0.0034320855
0.0032468218
0.0030598922
0.0028714915
0.0026822539
0.0024923809
0.0023035762
0.0021150998
0.0019331645
0.0017498093
0.001593275
0.0014138605
0.0013455344
0.0011388086
0.0018750515
-0.0016761077
0.027839453
0.027060438
0.026149514
0.025088031
0.023898261
0.022648426
0.021399912
0.020191119
0.019046672
0.017983691
0.017012324
0.016136383
0.015355201
0.014665309
0.01406138
0.013536697
0.013083587
0.012694138
0.012360457
0.012074606
0.011828974
0.01161667
0.011431571
0.011268297
0.011122333
0.010989999
0.010868181
0.010754339
0.010646564
0.01054325
0.010443063
0.010345143
0.010248813
0.010153361
0.010058305
0.0099633414
0.0098680062
0.0097719969
0.0096752605
0.0095775176
0.0094786238
0.0093786181
0.009277288
0.0091746437
0.0090707035
0.0089652966
0.0088585701
0.0087503196
0.0086404951
0.0085293394
0.0084165705
0.0083023092
0.0081864604
0.0080689835
0.0079500912
0.0078294883
0.0077072989
0.0075833771
0.0074577629
0.0073303964
0.007201235
0.007070442
0.0069377747
0.0068034619
0.0066673964
0.0065290185
0.0063881932
0.0062445808
0.0060982691
0.0059495761
0.0057986361
0.0056454976
0.0054900468
0.0053322786
0.0051721072
0.005009564
0.0048445866
0.0046772246
0.0045074254
0.0043352534
0.0041606705
0.00398377
0.0038045475
0.0036231362
0.003439626
0.0032541507
0.0030670048
0.0028783846
0.0026889233
0.002498827
0.0023097881
0.0021210891
0.0019388832
0.0017553206
0.0015983792
0.0014187666
0.001349754
0.0011424939
0.0018766522
-0.0016648766
0.027270974
0.026550763
0.025715766
0.024744748
0.023653151
0.022497952