/*--------------------------------*- C++ -*----------------------------------*\
| =========                 |                                                 |
| \\      /  F ield         | OpenFOAM: The Open Source CFD Toolbox           |
|  \\    /   O peration     | Version:  2206                                  |
|   \\  /    A nd           | Website:  www.openfoam.com                      |
|    \\/     M anipulation  |                                                 |
\*---------------------------------------------------------------------------*/
FoamFile
{
    version     2.0;
    format      ascii;
    arch        "LSB;label=32;scalar=64";
    class       surfaceScalarField;
    location    "600";
    object      phi;
}
// * * * * * * * * * * * * * * * * * * * * * * * * * * * * * * * * * * * * * //

dimensions      [0 3 -1 0 0 0 0];

oriented        oriented;

internalField   nonuniform List<scalar> 
14782
(
0.00064614137
7.5157975e-05
-0.00072129935
0.0005526249
9.3516467e-05
0.00046304213
8.9582779e-05
0.00039105091
7.1991214e-05
0.00033974788
5.1303031e-05
0.00030361473
3.6133147e-05
0.00027683741
2.6777328e-05
0.00025569358
2.1143831e-05
0.00023820035
1.7493229e-05
0.00022346186
1.4738487e-05
0.00021098973
1.2472128e-05
0.00020041814
1.0571592e-05
0.00019144479
8.9733493e-06
0.00018380913
7.6356594e-06
0.0001772878
6.5213287e-06
0.00017170099
5.586811e-06
0.00016690062
4.8003695e-06
0.0001627638
4.1368198e-06
0.00015917338
3.590426e-06
0.00015603038
3.1429996e-06
0.00015325604
2.7743412e-06
0.0001507699
2.4861373e-06
0.00014851764
2.2522569e-06
0.00014646018
2.0574633e-06
0.00014456527
1.8949099e-06
0.00014280765
1.7576189e-06
0.0001411679
1.6397546e-06
0.00013962824
1.5396542e-06
0.00013817181
1.456433e-06
0.00013678712
1.384686e-06
0.00013546735
1.3197754e-06
0.00013420592
1.2614268e-06
0.0001329967
1.2092196e-06
0.00013183442
1.1622762e-06
0.00013071451
1.1199187e-06
0.00012963146
1.0830475e-06
0.00012858051
1.0509462e-06
0.00012755941
1.0211021e-06
0.00012656524
9.9416833e-07
0.00012559533
9.6990607e-07
0.00012464755
9.4778679e-07
0.00012371973
9.2781393e-07
0.00012281074
9.0899405e-07
0.00012191938
8.9136036e-07
0.00012104433
8.7505299e-07
0.0001201848
8.595281e-07
0.00011933944
8.4536184e-07
0.00011850718
8.3226026e-07
0.00011768745
8.1972295e-07
0.00011687934
8.0811474e-07
0.00011608246
7.9687494e-07
0.00011529636
7.8610301e-07
0.00011452056
7.7579774e-07
0.00011375484
7.6571942e-07
0.00011299863
7.562106e-07
0.00011225173
7.4690707e-07
0.00011151374
7.3798935e-07
0.00011078425
7.2948523e-07
0.00011006298
7.2126992e-07
0.00010934969
7.1329335e-07
0.00010864436
7.0532345e-07
0.00010794678
6.9758458e-07
0.0001072568
6.899788e-07
0.00010657425
6.825564e-07
0.000105899
6.7524907e-07
0.00010523088
6.6811899e-07
0.00010456969
6.6118514e-07
0.00010391531
6.5437864e-07
0.00010326764
6.4767728e-07
0.00010262657
6.4106729e-07
0.00010199198
6.3459022e-07
0.00010136377
6.2820671e-07
0.00010074185
6.2191842e-07
0.00010012615
6.1570433e-07
9.9516526e-05
6.0962325e-07
9.8912886e-05
6.0363958e-07
9.8315114e-05
5.9777187e-07
9.7723133e-05
5.9198101e-07
9.7136835e-05
5.8629857e-07
9.6556145e-05
5.8068944e-07
9.5980958e-05
5.7518757e-07
9.54112e-05
5.6975742e-07
9.4846761e-05
5.6443953e-07
9.4287552e-05
5.5920878e-07
9.3733463e-05
5.5408908e-07
9.3184353e-05
5.4910992e-07
9.2640099e-05
5.4425421e-07
9.2100516e-05
5.3958293e-07
9.156545e-05
5.3506586e-07
9.1034595e-05
5.3085461e-07
9.0507703e-05
5.2689252e-07
8.9984002e-05
5.2370079e-07
8.9463076e-05
5.2092636e-07
8.894212e-05
5.2095519e-07
8.8421732e-05
5.2038799e-07
8.7887663e-05
5.3406905e-07
8.7352517e-05
5.3514685e-07
8.6724491e-05
6.2802566e-07
8.6473312e-05
2.5117933e-07
1.1635601e-06
0.00078815221
8.1257849e-05
-0.00079425209
0.00076954578
0.0001121229
0.00073463665
0.00012449191
0.0006872645
0.00011936336
0.00063505166
0.00010351587
0.00058532467
8.5860137e-05
0.00054156421
7.0537786e-05
0.00050437889
5.8329151e-05
0.00047305816
4.8813956e-05
0.00044663383
4.1162821e-05
0.00042420211
3.4903847e-05
0.00040503556
2.9738145e-05
0.00038858298
2.5425926e-05
0.00037441105
2.1807589e-05
0.00036217002
1.8762364e-05
0.00035157203
1.6184801e-05
0.00034236238
1.4010018e-05
0.00033431536
1.2183842e-05
0.00032723974
1.0666036e-05
0.00032097672
9.4060262e-06
0.00031538871
8.3623478e-06
0.00031035733
7.5175236e-06
0.00030578907
6.8205113e-06
0.00030161116
6.2353718e-06
0.00029776346
5.7426154e-06
0.00029419792
5.3231524e-06
0.00029087607
4.9616047e-06
0.0002877635
4.6522238e-06
0.00028483059
4.3893443e-06
0.00028205492
4.1603541e-06
0.00027942008
3.9546238e-06
0.00027691122
3.7702853e-06
0.00027451516
3.6052816e-06
0.00027222034
3.457088e-06
0.00027001726
3.3230003e-06
0.00026789488
3.2054315e-06
0.00026584384
3.1019799e-06
0.00026385898
3.0059666e-06
0.00026193363
2.9195152e-06
0.00026006214
2.8413959e-06
0.00025823994
2.7699868e-06
0.00025646273
2.7050231e-06
0.00025472737
2.6443542e-06
0.00025303095
2.5877852e-06
0.00025137065
2.5353495e-06
0.00024974426
2.4859225e-06
0.00024814904
2.4405805e-06
0.00024658273
2.3985696e-06
0.0002450437
2.3587504e-06
0.00024353013
2.3216849e-06
0.0002420408
2.2862056e-06
0.00024057451
2.2523956e-06
0.00023913015
2.2201606e-06
0.00023770687
2.1889932e-06
0.00023630359
2.1594966e-06
0.00023491956
2.1309315e-06
0.00023355392
2.1036337e-06
0.00023220576
2.0776468e-06
0.00023087437
2.0526602e-06
0.00022955919
2.0284693e-06
0.00022825993
2.0045795e-06
0.00022697609
1.9814297e-06
0.00022570723
1.9588374e-06
0.00022445293
1.9368586e-06
0.00022321283
1.9153432e-06
0.00022198653
1.8944248e-06
0.00022077358
1.8741374e-06
0.00021957365
1.854305e-06
0.00021838647
1.8348554e-06
0.00021721178
1.8157579e-06
0.00021604928
1.7970902e-06
0.00021489872
1.778764e-06
0.00021375988
1.7607613e-06
0.00021263254
1.743045e-06
0.00021151643
1.7257382e-06
0.0002104113
1.7087665e-06
0.00020931692
1.6921534e-06
0.00020823308
1.6758171e-06
0.00020715957
1.6598129e-06
0.00020609619
1.6440702e-06
0.00020504272
1.6286512e-06
0.00020399899
1.6134851e-06
0.00020296478
1.5986546e-06
0.00020193988
1.58411e-06
0.00020092406
1.5699085e-06
0.00019991705
1.5561182e-06
0.00019891857
1.5427315e-06
0.0001979283
1.529855e-06
0.00019694584
1.5175301e-06
0.00019597075
1.5059402e-06
0.00019500219
1.4954529e-06
0.00019403952
1.4863722e-06
0.00019308014
1.4803087e-06
0.00019212295
1.478138e-06
0.00019116021
1.4831292e-06
0.00019018482
1.5094628e-06
0.00018918077
1.5391955e-06
0.00018810136
1.7074381e-06
0.00018723538
1.1171552e-06
2.6669204e-06
0.0008295101
7.7865919e-05
-0.00082611817
0.0008338097
0.00010782331
0.00083485927
0.00012344233
0.00082802133
0.00012620131
0.00080977639
0.00012176081
0.00078210188
0.00011353465
0.00074932712
0.00010331254
0.00071504994
9.2606329e-05
0.00068148085
8.2383049e-05
0.00064994187
7.27018e-05
0.00062107589
6.3769832e-05
0.00059509688
5.5717153e-05
0.00057195371
4.8569093e-05
0.00055143538
4.2325925e-05
0.00053326668
3.6931061e-05
0.00051716973
3.2281752e-05
0.00050287812
2.8301622e-05
0.00049015035
2.4911617e-05
0.00047877713
2.2039251e-05
0.00046857521
1.9607953e-05
0.00045938135
1.7556205e-05
0.00045105368
1.5845193e-05
0.00044347082
1.4403372e-05
0.00043653055
1.3175647e-05
0.0004301448
1.212836e-05
0.00042423741
1.1230547e-05
0.0004187462
1.0452808e-05
0.00041362069
9.7777378e-06
0.00040881715
9.1928785e-06
0.00040429892
8.6785867e-06
0.00040003488
8.2186627e-06
0.00039599782
7.8073511e-06
0.00039216415
7.4389474e-06
0.00038851378
7.1074636e-06
0.00038502954
6.8072364e-06
0.00038169323
6.5417414e-06
0.0003784901
6.3051075e-06
0.00037540949
6.086574e-06
0.00037243944
5.889574e-06
0.0003695704
5.7104263e-06
0.0003667942
5.5461902e-06
0.00036410312
5.3960997e-06
0.00036149078
5.2567015e-06
0.00035895136
5.1272027e-06
0.00035647953
5.0071783e-06
0.0003540707
4.8947527e-06
0.00035172014
4.7911449e-06
0.00034942375
4.6949545e-06
0.00034717819
4.6043115e-06
0.00034498012
4.5197592e-06
0.00034282682
4.4394969e-06
0.00034071578
4.363438e-06
0.00033864468
4.2912613e-06
0.00033661158
4.2220937e-06
0.00033461445
4.1566278e-06
0.00033265162
4.0937608e-06
0.00033072136
4.0338907e-06
0.00032882204
3.9769721e-06
0.00032695226
3.9224382e-06
0.00032511084
3.8698922e-06
0.00032329683
3.8185865e-06
0.00032150917
3.7690906e-06
0.0003197469
3.7211081e-06
0.00031800911
3.6746443e-06
0.00031629501
3.6294504e-06
0.00031460374
3.585696e-06
0.00031293448
3.5433934e-06
0.00031128655
3.5022369e-06
0.00030965932
3.4620861e-06
0.0003080522
3.4228739e-06
0.00030646461
3.3846816e-06
0.00030489601
3.3473605e-06
0.00030334592
3.3108579e-06
0.00030181384
3.2751172e-06
0.00030029928
3.2403023e-06
0.00029880175
3.2062928e-06
0.0002973208
3.173102e-06
0.00029585602
3.140603e-06
0.00029440697
3.1088581e-06
0.00029297328
3.0777608e-06
0.00029155455
3.0473883e-06
0.0002901504
3.0176352e-06
0.00028876043
2.9886189e-06
0.00028738428
2.9602662e-06
0.00028602151
2.9326691e-06
0.0002846717
2.9059374e-06
0.00028333432
2.8801022e-06
0.00028200888
2.8552981e-06
0.00028069467
2.8317439e-06
0.00027939108
2.8095268e-06
0.00027809663
2.7899053e-06
0.00027681081
2.772196e-06
0.00027552891
2.7621997e-06
0.00027425178
2.7552767e-06
0.00027296368
2.7712247e-06
0.00027166621
2.8069279e-06
0.00027031493
2.8904789e-06
0.00026891476
3.1076145e-06
0.00026752158
2.5103307e-06
4.2902944e-06
0.00085957294
7.4316353e-05
-0.00085602337
0.00086574558
0.00010165067
0.00087176552
0.00011742239
0.00087598523
0.0001219816
0.00087740168
0.00012034435
0.00087457066
0.00011636567
0.00086624146
0.00011164175
0.00085210299
0.0001067448
0.00083303595
0.00010145008
0.00081072368
9.5014076e-05
0.00078656242
8.7931089e-05
0.00076167845
8.0601124e-05
0.00073699094
7.3256604e-05
0.00071318755
6.6129317e-05
0.0006907298
5.9388806e-05
0.00066987593
5.3135623e-05
0.0006507101
4.7467453e-05
0.00063319677
4.242495e-05
0.00061723311
3.8002908e-05
0.00060268604
3.415502e-05
0.00058941781
3.0824436e-05
0.00057729597
2.7967036e-05
0.00056619603
2.5503314e-05
0.0005560035
2.3368172e-05
0.00054661331
2.1518555e-05
0.00053792951
1.9914347e-05
0.00052986942
1.8512894e-05
0.00052236458
1.7282578e-05
0.00051535434
1.6203124e-05
0.00050878523
1.5247698e-05
0.00050261044
1.4393448e-05
0.00049678876
1.3629029e-05
0.00049128381
1.2943902e-05
0.00048606467
1.2326599e-05
0.00048110448
1.1767426e-05
0.00047637918
1.1267045e-05
0.00047186739
1.0816898e-05
0.00046754992
1.0404047e-05
0.00046340973
1.0029758e-05
0.00045943186
9.6882966e-06
0.00045560313
9.3749186e-06
0.00045191136
9.087875e-06
0.00044834594
8.8221204e-06
0.0004448973
8.575843e-06
0.00044155668
8.3477928e-06
0.00043831649
8.1349424e-06
0.00043516943
7.9382105e-06
0.00043210899
7.7553944e-06
0.0004291296
7.5837014e-06
0.00042622591
7.4234499e-06
0.00042339326
7.2721414e-06
0.00042062735
7.1293563e-06
0.00041792422
6.9943872e-06
0.0004152805
6.8658118e-06
0.0004126929
6.7442334e-06
0.00041015848
6.6281765e-06
0.00040767441
6.5179657e-06
0.00040523808
6.4132945e-06
0.00040284726
6.3132607e-06
0.00040049987
6.2172844e-06
0.00039819409
6.1243694e-06
0.00039592807
6.0351059e-06
0.00039370016
5.9490168e-06
0.00039150881
5.8659963e-06
0.00038935259
5.7856657e-06
0.00038723012
5.7081746e-06
0.00038514006
5.6334528e-06
0.00038308125
5.5610443e-06
0.00038105261
5.4907273e-06
0.00037905312
5.4223654e-06
0.0003770818
5.3560008e-06
0.00037513775
5.2914064e-06
0.00037322012
5.2284858e-06
0.00037132809
5.1671484e-06
0.00036946083
5.1075626e-06
0.00036761758
5.0495462e-06
0.00036579759
4.9930877e-06
0.00036400019
4.9380081e-06
0.00036222469
4.8843595e-06
0.00036047045
4.8319921e-06
0.00035873686
4.7809841e-06
0.0003570233
4.7311916e-06
0.00035532917
4.6827562e-06
0.00035365385
4.6355788e-06
0.00035199674
4.5897822e-06
0.00035035716
4.5455172e-06
0.00034873439
4.5028724e-06
0.00034712769
4.4620018e-06
0.00034553606
4.4233701e-06
0.00034395869
4.3868972e-06
0.00034239357
4.3550227e-06
0.00034084015
4.3256203e-06
0.0003392923
4.3100428e-06
0.00033775183
4.2957508e-06
0.00033619803
4.3250292e-06
0.00033463742
4.3675296e-06
0.00033300753
4.5203685e-06
0.00033134497
4.7701747e-06
0.00032953735
4.3179595e-06
6.0256706e-06
0.00088944283
7.1351511e-05
-0.00088647799
0.00089523238
9.5861119e-05
0.00090155188
0.00011110289
0.00090688288
0.0001166506
0.00091062878
0.00011659846
0.0009131446
0.00011384984
0.00091423146
0.00011055489
0.00091348841
0.00010748786
0.00091062595
0.00010431254
0.00090463049
0.00010100954
0.00089507461
9.748697e-05
0.00088210848
9.3567252e-05
0.00086635532
8.9009761e-05
0.00084852517
8.3959475e-05
0.00082926305
7.8650926e-05
0.00080920968
7.318899e-05
0.00078897521
6.770192e-05
0.00076908466
6.2315503e-05
0.00074994138
5.7146191e-05
0.00073180782
5.2288579e-05
0.00071481407
4.7818184e-05
0.00069898482
4.3796287e-05
0.00068428162
4.020651e-05
0.00067063759
3.7012202e-05
0.00065797468
3.4181463e-05
0.00064621177
3.1677261e-05
0.00063526887
2.9455796e-05
0.00062506997
2.7481479e-05
0.00061554315
2.5729936e-05
0.00060662341
2.4167444e-05
0.00059825272
2.2764132e-05
0.00059037827
2.1503485e-05
0.0005829522
2.0369974e-05
0.00057593275
1.9346043e-05
0.00056928233
1.841785e-05
0.00056296909
1.7580283e-05
0.0005569643
1.6821688e-05
0.00055124013
1.6128215e-05
0.00054577305
1.549684e-05
0.00054054203
1.4919316e-05
0.00053552808
1.4388866e-05
0.00053071355
1.3902404e-05
0.0005260829
1.3452775e-05
0.00052162205
1.3036695e-05
0.00051731796
1.2651883e-05
0.00051315938
1.229352e-05
0.00050913609
1.1961497e-05
0.00050523883
1.1652656e-05
0.0005014594
1.1363136e-05
0.00049778989
1.1092958e-05
0.00049422325
1.0838781e-05
0.000490753
1.0599606e-05
0.00048737322
1.0374169e-05
0.00048407871
1.0160318e-05
0.00048086452
9.958423e-06
0.00047772615
9.7665446e-06
0.00047465941
9.5847103e-06
0.00047166056
9.4121432e-06
0.00046872626
9.2475553e-06
0.00046585332
9.0902322e-06
0.0004630388
8.9388848e-06
0.00046027992
8.7939833e-06
0.00045757415
8.6547875e-06
0.00045491913
8.5210202e-06
0.00045231267
8.3921205e-06
0.00044975271
8.2681414e-06
0.0004472373
8.1488565e-06
0.00044476471
8.0336422e-06
0.00044233326
7.9221764e-06
0.00043994142
7.8142073e-06
0.00043758773
7.709688e-06
0.00043527084
7.6082936e-06
0.00043298945
7.5098777e-06
0.00043074231
7.4142863e-06
0.00042852823
7.3216458e-06
0.00042634608
7.2316925e-06
0.0004241948
7.1443742e-06
0.00042207336
7.059447e-06
0.00041998078
6.9769339e-06
0.00041791614
6.8966299e-06
0.00041587853
6.8185984e-06
0.00041386707
6.742648e-06
0.0004118809
6.6689326e-06
0.00040991915
6.5973208e-06
0.00040798098
6.5279584e-06
0.00040606546
6.4610339e-06
0.00040417163
6.3967029e-06
0.0004022985
6.3351361e-06
0.00040044478
6.2770849e-06
0.00039860941
6.22227e-06
0.00039678995
6.1744816e-06
0.00039498566
6.1299151e-06
0.00039318945
6.1062476e-06
0.00039140342
6.0817821e-06
0.00038960385
6.1246016e-06
0.00038779953
6.171844e-06
0.00038591696
6.4029428e-06
0.00038401129
6.6758397e-06
0.00038184796
6.4812979e-06
7.8992963e-06
0.00092034926
6.8808411e-05
-0.00091780616
0.0009254836
9.072678e-05
0.00093127104
0.00010531545
0.00093638553
0.00011153611
0.00094047359
0.00011251039
0.00094345364
0.00011086979
0.00094556425
0.00010844428
0.00094704654
0.00010600556
0.00094796552
0.00010339356
0.00094823998
0.00010073508
0.00094760342
9.8123529e-05
0.00094565918
9.551149e-05
0.00094180491
9.2864032e-05
0.00093559733
9.0167059e-05
0.00092683987
8.7408381e-05
0.00091564672
8.4382143e-05
0.0009023454
8.1003235e-05
0.00088726497
7.7395935e-05
0.00087080267
7.3608495e-05
0.00085344093
6.9650316e-05
0.00083569589
6.556322e-05
0.0008180376
6.1454581e-05
0.00080084228
5.7401834e-05
0.00078436229
5.3492186e-05
0.00076872916
4.9814601e-05
0.00075398446
4.6421957e-05
0.00074011831
4.3321947e-05
0.00072709538
4.0504404e-05
0.00071486757
3.7957748e-05
0.00070338257
3.565245e-05
0.00069258634
3.3560364e-05
0.00068242439
3.1665433e-05
0.00067284472
2.9949641e-05
0.00066379964
2.8391126e-05
0.00065524396
2.6973531e-05
0.0006471371
2.5687141e-05
0.00063944314
2.4515644e-05
0.00063212766
2.3443694e-05
0.00062515963
2.2464879e-05
0.00061851168
2.156726e-05
0.00061215887
2.0741679e-05
0.00060607789
1.9983381e-05
0.00060024794
1.928273e-05
0.00059465008
1.8634553e-05
0.00058926673
1.8035229e-05
0.00058408238
1.7477874e-05
0.00057908301
1.6960864e-05
0.00057425598
1.647969e-05
0.00056958993
1.6029186e-05
0.00056507403
1.5608853e-05
0.00056069857
1.5214244e-05
0.0005564546
1.4843575e-05
0.00055233386
1.449491e-05
0.00054832897
1.4165208e-05
0.00054443286
1.3854531e-05
0.00054063918
1.3560234e-05
0.00053694219
1.3281696e-05
0.00053333677
1.3017567e-05
0.00052981817
1.2766155e-05
0.00052638183
1.2526572e-05
0.00052302359
1.2297125e-05
0.00051973953
1.2078039e-05
0.0005165261
1.1868213e-05
0.00051337996
1.1667161e-05
0.00051029799
1.1474095e-05
0.00050727729
1.1288844e-05
0.0005043152
1.111094e-05
0.00050140926
1.0939587e-05
0.00049855711
1.0774324e-05
0.0004957566
1.061472e-05
0.0004930057
1.0460588e-05
0.0004903025
1.0311487e-05
0.00048764517
1.0167215e-05
0.00048503195
1.0027503e-05
0.00048246121
9.8923809e-06
0.00047993142
9.7614841e-06
0.0004774411
9.6347009e-06
0.00047498884
9.5117037e-06
0.00047257331
9.3924648e-06
0.00047019323
9.2767072e-06
0.00046784737
9.1644616e-06
0.00046553454
9.0554762e-06
0.00046325357
8.9499026e-06
0.00046100332
8.8475671e-06
0.00045878265
8.7486285e-06
0.00045659038
8.6533062e-06
0.00045442526
8.5618264e-06
0.00045228602
8.4743748e-06
0.00045017109
8.3920154e-06
0.0004480791
8.3142576e-06
0.00044600724
8.2463439e-06
0.00044395448
8.1826756e-06
0.00044191302
8.1477029e-06
0.00043988489
8.1099171e-06
0.0004378444
8.1650855e-06
0.00043580126
8.2149909e-06
0.00043367464
8.5295602e-06
0.00043153196
8.8185194e-06
0.00042903936
8.973899e-06
9.9297631e-06
0.00095234999
6.6594306e-05
-0.00095013589
0.00095690141
8.6175361e-05
0.00096221401
0.00010000285
0.0009670088
0.00010674132
0.00097089858
0.0001086206
0.00097388061
0.00010788777
0.00097618665
0.00010613824
0.00097804566
0.00010414654
0.0009794784
0.00010196082
0.00098053275
9.9680728e-05
0.00098127227
9.7384011e-05
0.00098170307
9.5080695e-05
0.00098174349
9.282361e-05
0.00098121507
9.0695484e-05
0.00097994605
8.8677391e-05
0.0009775642
8.6763995e-05
0.00097360316
8.496428e-05
0.000967774
8.3225091e-05
0.00095989499
8.148751e-05
0.00094997106
7.957424e-05
0.0009381384
7.7395887e-05
0.00092460198
7.4991e-05
0.00090969031
7.2313496e-05
0.00089384927
6.9333227e-05
0.00087756683
6.6097042e-05
0.00086128781
6.2700981e-05
0.00084535838
5.9251377e-05
0.00083000025
5.586253e-05
0.00081532386
5.2634139e-05
0.0008013682
4.9608108e-05
0.00078813371
4.6794859e-05
0.00077560083
4.4198312e-05
0.0007637394
4.1811069e-05
0.00075251329
3.9617238e-05
0.00074188202
3.76048e-05
0.00073180466
3.5764508e-05
0.0007222429
3.4077396e-05
0.00071315941
3.2527187e-05
0.0007045184
3.1105887e-05
0.00069628733
2.9798335e-05
0.00068843613
2.8592876e-05
0.00068093659
2.7482921e-05
0.00067376301
2.6456307e-05
0.00066689174
2.5505822e-05
0.0006603008
2.4626171e-05
0.00065397026
2.380841e-05
0.00064788177
2.3049358e-05
0.00064201872
2.2342741e-05
0.00063636615
2.168175e-05
0.00063091
2.1065008e-05
0.00062563755
2.048669e-05
0.00062053708
1.9944044e-05
0.00061559774
1.9434254e-05
0.00061080971
1.8953242e-05
0.00060616363
1.8500601e-05
0.00060165106
1.8072806e-05
0.00059726433
1.7668427e-05
0.00059299648
1.7285414e-05
0.00058884111
1.6921533e-05
0.00058479213
1.657555e-05
0.00058084399
1.6245263e-05
0.00057699149
1.5930536e-05
0.00057322988
1.5629822e-05
0.00056955462
1.5342422e-05
0.00056596148
1.5067238e-05
0.00056244664
1.4803685e-05
0.00055900659
1.4550993e-05
0.00055563797
1.4308199e-05
0.00055233766
1.4074641e-05
0.00054910273
1.3849651e-05
0.00054593046
1.3632849e-05
0.00054281832
1.3423633e-05
0.00053976383
1.3221702e-05
0.0005367647
1.3026637e-05
0.00053381875
1.2838327e-05
0.00053092396
1.2656279e-05
0.00052807836
1.2480294e-05
0.00052528013
1.2309935e-05
0.0005225275
1.21451e-05
0.00051981879
1.1985417e-05
0.00051715239
1.1830864e-05
0.00051452675
1.1681113e-05
0.00051194036
1.1536295e-05
0.00050939174
1.1396181e-05
0.00050687944
1.1260929e-05
0.00050440197
1.1130781e-05
0.00050195776
1.1006032e-05
0.00049954526
1.0886881e-05
0.00049716255
1.0774721e-05
0.00049480796
1.0668847e-05
0.00049247829
1.0576018e-05
0.00049017217
1.048879e-05
0.00048788122
1.0438653e-05
0.00048560718
1.0383962e-05
0.00048332299
1.0449275e-05
0.00048103852
1.0499456e-05
0.00047866768
1.0900398e-05
0.00047628728
1.1198921e-05
0.00047347517
1.1786011e-05
1.2131002e-05
0.00098553194
6.4624584e-05
-0.00098356222
0.00098957009
8.2137215e-05
0.00099444243
9.5130511e-05
0.00099899046
0.00010219329
0.001002754
0.00010485705
0.0010056956
0.00010494618
0.0010079976
0.00010383625
0.0010098632
0.0001022809
0.0010113789
0.00010044512
0.0010126118
9.8447872e-05
0.0010136058
9.6389983e-05
0.0010143662
9.4320358e-05
0.0010149007
9.228904e-05
0.0010152738
9.0322453e-05
0.0010154474
8.8503772e-05
0.001015347
8.6864378e-05
0.0010149309
8.5380362e-05
0.0010140625
8.4093553e-05
0.001012541
8.3009017e-05
0.0010100304
8.2084845e-05
0.0010061639
8.1262291e-05
0.0010006345
8.0520436e-05
0.00099324381
7.9704201e-05
0.00098394304
7.8633991e-05
0.00097278547
7.7254615e-05
0.00095995809
7.5528355e-05
0.00094580907
7.3400403e-05
0.00093080267
7.0868924e-05
0.0009154186
6.8018209e-05
0.00090006955
6.4957158e-05
0.00088504859
6.1815827e-05
0.00087052649
5.8720404e-05
0.00085658535
5.5752213e-05
0.00084325666
5.2945924e-05
0.00083054447
5.031699e-05
0.0008184367
4.7872279e-05
0.00080691206
4.5602036e-05
0.00079594265
4.3496595e-05
0.00078549719
4.1551351e-05
0.00077554447
3.9751058e-05
0.00076605363
3.8083713e-05
0.00075699436
3.6542194e-05
0.00074833816
3.5112503e-05
0.00074005805
3.3785938e-05
0.00073212848
3.2555735e-05
0.00072452589
3.1410998e-05
0.00071722808
3.0347171e-05
0.00071021468
2.9356145e-05
0.00070346711
2.8429317e-05
0.00069696788
2.7564238e-05
0.00069070106
2.6753513e-05
0.00068465188
2.5993227e-05
0.00067880672
2.5279413e-05
0.00067315317
2.4606794e-05
0.00066767949
2.397428e-05
0.00066237494
2.3377357e-05
0.00065722957
2.2813797e-05
0.0006522343
2.228068e-05
0.00064738081
2.1775022e-05
0.00064266132
2.1295037e-05
0.00063806868
2.0837902e-05
0.00063359619
2.040303e-05
0.00062923769
1.9988322e-05
0.00062498735
1.9592764e-05
0.00062083973
1.9214863e-05
0.00061678986
1.8853546e-05
0.0006128332
1.8507661e-05
0.0006089654
1.8175996e-05
0.00060518241
1.7857629e-05
0.00060148045
1.755161e-05
0.00059785598
1.7257318e-05
0.00059430571
1.6973911e-05
0.00059082647
1.6700936e-05
0.00058741533
1.6437785e-05
0.00058406948
1.6184169e-05
0.00058078633
1.5939434e-05
0.00057756337
1.5703256e-05
0.00057439824
1.547506e-05
0.00057128871
1.5254636e-05
0.00056823263
1.5041495e-05
0.00056522795
1.483554e-05
0.00056227272
1.4636341e-05
0.00055936503
1.4443992e-05
0.00055650302
1.4258192e-05
0.00055368486
1.4079082e-05
0.00055090873
1.3906912e-05
0.00054817272
1.3742042e-05
0.00054547492
1.3584682e-05
0.00054281308
1.343656e-05
0.00054018516
1.3296765e-05
0.00053758757
1.317361e-05
0.00053501857
1.3057791e-05
0.00053246922
1.2988e-05
0.00052994088
1.2912311e-05
0.00052740541
1.2984743e-05
0.00052487251
1.3032355e-05
0.00052225187
1.3521035e-05
0.00051962856
1.3822229e-05
0.00051649724
1.4917337e-05
1.4515338e-05
0.0010198736
6.2822855e-05
-0.0010180719
0.0010234825
7.8528388e-05
0.0010279361
9.0676889e-05
0.0010322398
9.7889633e-05
0.0010359152
0.00010118159
0.0010388624
0.00010199905
0.0010411974
0.00010150119
0.0010430856
0.00010039271
0.0010446222
9.8908534e-05
0.0010458781
9.7191975e-05
0.0010469061
9.536198e-05
0.0010477384
9.3488021e-05
0.0010484001
9.1627329e-05
0.0010489065
8.9816064e-05
0.0010492764
8.8133913e-05
0.0010495213
8.6619422e-05
0.0010496558
8.5245872e-05
0.0010496784
8.4070997e-05
0.0010495567
8.3130678e-05
0.0010492463
8.2395249e-05
0.0010486524
8.185621e-05
0.0010476542
8.1518613e-05
0.0010460248
8.1333572e-05
0.0010434189
8.1239894e-05
0.001039491
8.1182582e-05
0.0010339222
8.1097144e-05
0.0010265119
8.081064e-05
0.0010172061
8.0174809e-05
0.0010060707
7.9153571e-05
0.00099335364
7.7674213e-05
0.00097947075
7.5698716e-05
0.00096491095
7.3280205e-05
0.00095012848
7.0534681e-05
0.00093546997
6.7604441e-05
0.00092115401
6.4632945e-05
0.0009072976
6.1728695e-05
0.00089395759
5.8942041e-05
0.00088115749
5.6296693e-05
0.00086890053
5.3808311e-05
0.00085717743
5.1474161e-05
0.0008459703
4.9290845e-05
0.00083525632
4.7256171e-05
0.00082501113
4.5357696e-05
0.00081520925
4.3587813e-05
0.00080582501
4.1939971e-05
0.00079683369
4.0402325e-05
0.00078821108
3.8969775e-05
0.00077993436
3.7632868e-05
0.00077198217
3.6381505e-05
0.0007643341
3.5212315e-05
0.00075697129
3.4116314e-05
0.00074987612
3.3088398e-05
0.00074303221
3.2123326e-05
0.00073642451
3.1214497e-05
0.00073003877
3.0360015e-05
0.00072386189
2.9554242e-05
0.00071788159
2.8794094e-05
0.00071208658
2.8075696e-05
0.00070646643
2.7395172e-05
0.00070101144
2.6750025e-05
0.00069571268
2.6136662e-05
0.00069056174
2.5553963e-05
0.00068555091
2.4999159e-05
0.00068067293
2.4470743e-05
0.00067592104
2.3966745e-05
0.00067128897
2.3485618e-05
0.0006667709
2.3025731e-05
0.00066236141
2.2585485e-05
0.00065805541
2.2163633e-05
0.00065384813
2.1758892e-05
0.0006497351
2.1370345e-05
0.00064571216
2.0996847e-05
0.00064177538
2.063772e-05
0.00063792104
2.0292122e-05
0.00063414566
1.9959546e-05
0.00063044596
1.9639134e-05
0.00062681882
1.9330398e-05
0.0006232613
1.9032584e-05
0.00061977059
1.8745348e-05
0.00061634403
1.846805e-05
0.00061297908
1.8200489e-05
0.00060967331
1.7942113e-05
0.00060642435
1.7692954e-05
0.00060322992
1.7452616e-05
0.0006000878
1.7221207e-05
0.00059699574
1.6998972e-05
0.00059395146
1.6786321e-05
0.00059095267
1.6583474e-05
0.00058799673
1.6392499e-05
0.00058508121
1.6212281e-05
0.00058220211
1.6052715e-05
0.00057935725
1.5902645e-05
0.00057653719
1.5808058e-05
0.00057374279
1.5706715e-05
0.00057094503
1.5782503e-05
0.00056815323
1.5824161e-05
0.00056527344
1.640082e-05
0.0005623987
1.6696969e-05
0.00055894238
1.8373659e-05
1.7094883e-05
0.0010553472
6.1140777e-05
-0.0010536651
0.0010586042
7.5271313e-05
0.0010626785
8.6602589e-05
0.0010667289
9.3839281e-05
0.0010702996
9.7610875e-05
0.0010732507
9.9047972e-05
0.001075637
9.9114842e-05
0.0010775807
9.8449031e-05
0.0010791674
9.7321894e-05
0.0010804633
9.5896008e-05
0.001081522
9.4303273e-05
0.0010823821
9.2627913e-05
0.0010830745
9.0935e-05
0.0010836198
8.9270727e-05
0.0010840452
8.770857e-05
0.001084373
8.6291603e-05
0.0010846069
8.5011909e-05
0.00108476
8.3917943e-05
0.0010848573
8.3033344e-05
0.0010848941
8.2358482e-05
0.0010848581
8.189222e-05
0.0010847484
8.1628342e-05
0.0010845269
8.1554986e-05
0.0010841262
8.1640637e-05
0.0010834443
8.1864451e-05
0.0010823335
8.2207954e-05
0.0010805175
8.2626686e-05
0.0010776306
8.3061655e-05
0.0010733126
8.3471623e-05
0.001067266
8.3720801e-05
0.0010593295
8.3635165e-05
0.0010494807
8.3129065e-05
0.0010378865
8.212888e-05
0.0010249145
8.0576413e-05
0.0010110499
7.8497593e-05
0.00099677098
7.6007574e-05
0.00098245936
7.3253662e-05
0.00096836534
7.0390708e-05
0.0009546306
6.7543055e-05
0.00094133093
6.477383e-05
0.00092850467
6.2117103e-05
0.00091616699
5.9593855e-05
0.00090431832
5.720636e-05
0.00089294883
5.4957306e-05
0.00088204268
5.2846124e-05
0.00087158119
5.0863814e-05
0.00086154339
4.9007577e-05
0.00085190772
4.7268535e-05
0.00084265279
4.5636435e-05
0.00083375717
4.4107935e-05
0.0008252005
4.2672978e-05
0.00081696325
4.1325653e-05
0.00080902693
4.0059645e-05
0.0008013743
3.8867124e-05
0.00079398887
3.7745444e-05
0.00078685532
3.6687795e-05
0.00077995919
3.5690225e-05
0.00077328701
3.4747877e-05
0.00076682626
3.3855925e-05
0.00076056521
3.301107e-05
0.00075449305
3.2208824e-05
0.00074859957
3.1447442e-05
0.00074287535
3.0723385e-05
0.00073731156
3.0034524e-05
0.00073190001
2.9378297e-05
0.00072663299
2.8752637e-05
0.00072150334
2.8155382e-05
0.00071650439
2.7584433e-05
0.00071162989
2.7038135e-05
0.00070687398
2.6514804e-05
0.00070223116
2.6013169e-05
0.00069769628
2.5531721e-05
0.00069326452
2.5069483e-05
0.00068893132
2.4625318e-05
0.0006846924
2.4198467e-05
0.00068054372
2.3787813e-05
0.00067648146
2.3392658e-05
0.00067250202
2.3012031e-05
0.00066860195
2.2645413e-05
0.00066477802
2.2291984e-05
0.0006610271
2.1951406e-05
0.00065734624
2.1622976e-05
0.00065373255
2.1306637e-05
0.00065018329
2.1001878e-05
0.00064669575
2.0708748e-05
0.00064326725
2.0427469e-05
0.00063989508
2.0158492e-05
0.00063657652
1.9902038e-05
0.0006333085
1.9660514e-05
0.00063008817
1.9432609e-05
0.00062691107
1.9229815e-05
0.00062377458
1.9039143e-05
0.0006206687
1.8913931e-05
0.00061759376
1.8781656e-05
0.00061451993
1.8856332e-05
0.00061145605
1.8888039e-05
0.00060830484
1.9552038e-05
0.00060516742
1.9834388e-05
0.00060137595
2.2165131e-05
1.9882181e-05
0.0010919581
5.9553142e-05
-0.0010903704
0.0010949219
7.2307447e-05
0.0010986615
8.2863057e-05
0.0011024649
9.0035819e-05
0.0011059109
9.4164948e-05
0.0011088416
9.6117273e-05
0.0011112673
9.6689109e-05
0.0011132706
9.6445669e-05
0.0011149209
9.5671628e-05
0.0011162756
9.4541358e-05
0.0011173844
9.3194404e-05
0.0011182866
9.1725765e-05
0.0011190141
9.0207426e-05
0.0011195914
8.8693479e-05
0.0011200461
8.725382e-05
0.0011204025
8.5935294e-05
0.0011206718
8.4742612e-05
0.0011208713
8.3718384e-05
0.0011210163
8.2888381e-05
0.0011211168
8.2257982e-05
0.0011211811
8.1827925e-05
0.0011212169
8.159252e-05
0.0011212257
8.1546172e-05
0.001121199
8.1667373e-05
0.0011211219
8.1941556e-05
0.0011209699
8.2359888e-05
0.0011206958
8.2900847e-05
0.0011202151
8.3542319e-05
0.0011194119
8.4274844e-05
0.0011180657
8.5066992e-05
0.0011158344
8.5866496e-05
0.0011123365
8.6626887e-05
0.001107212
8.725343e-05
0.0011002156
8.7572814e-05
0.0010912636
8.7449621e-05
0.0010804665
8.680462e-05
0.0010681588
8.5561391e-05
0.0010548215
8.3727994e-05
0.0010409468
8.1417804e-05
0.0010269337
7.8786844e-05
0.0010130481
7.6002741e-05
0.00099944478
7.3197175e-05
0.00098621147
7.0439677e-05
0.00097339653
6.7772242e-05
0.00096102369
6.5218962e-05
0.00094910055
6.2786952e-05
0.0009376233
6.0484833e-05
0.00092658166
5.8310177e-05
0.00091596137
5.6256721e-05
0.00090574519