/*--------------------------------*- C++ -*----------------------------------*\
| =========                 |                                                 |
| \\      /  F ield         | OpenFOAM: The Open Source CFD Toolbox           |
|  \\    /   O peration     | Version:  2206                                  |
|   \\  /    A nd           | Website:  www.openfoam.com                      |
|    \\/     M anipulation  |                                                 |
\*---------------------------------------------------------------------------*/
FoamFile
{
    version     2.0;
    format      ascii;
    arch        "LSB;label=32;scalar=64";
    class       volVectorField;
    location    "600";
    object      U;
}
// * * * * * * * * * * * * * * * * * * * * * * * * * * * * * * * * * * * * * //

dimensions      [0 1 -1 0 0 0 0];

internalField   nonuniform List<vector> 
7480
(
(0.86071457 0.014740643 5.8409953e-16)
(0.74497867 0.02561918 0)
(0.62907593 0.027273497 0)
(0.52567678 0.019499029 0)
(0.44992425 0.0094070333 0)
(0.39764069 0.0037516518 0)
(0.35988562 0.0017187417 0)
(0.33075446 0.0012082567 0)
(0.30704867 0.0010842585 0)
(0.28716381 0.00096704833 0)
(0.27033117 0.00081837252 0)
(0.25607111 0.00067091926 0)
(0.24397868 0.00054268666 0)
(0.23370149 0.00043779666 0)
(0.22494104 0.00035428133 0)
(0.21744289 0.00028697784 0)
(0.21100943 0.00023265867 0)
(0.20547851 0.00018255441 0)
(0.20067455 0.00028600514 -1.5839091e-17)
(0.19653603 0.00031075189 -1.7734772e-17)
(0.1928622 0.00013736799 0)
(0.18959574 8.9879414e-05 0)
(0.18665732 7.7079042e-05 0)
(0.18398097 6.8632687e-05 0)
(0.18152512 6.128143e-05 0)
(0.17925344 5.4994683e-05 0)
(0.17714104 4.966199e-05 0)
(0.17516354 4.5331792e-05 0)
(0.17329919 4.1922659e-05 0)
(0.17152972 3.8997922e-05 0)
(0.16984486 3.6278329e-05 0)
(0.1682369 3.3837569e-05 0)
(0.16669751 3.1667732e-05 0)
(0.16522012 2.9719496e-05 0)
(0.16379735 2.7970978e-05 0)
(0.16242584 2.6469886e-05 0)
(0.16109492 2.5150622e-05 0)
(0.15980318 2.3886581e-05 0)
(0.15854703 2.2744849e-05 0)
(0.15732248 2.1703419e-05 0)
(0.15612676 2.0740136e-05 0)
(0.15495715 1.9860109e-05 0)
(0.15381159 1.9012175e-05 0)
(0.15268883 1.820806e-05 0)
(0.15158707 1.7457692e-05 0)
(0.1505053 1.6733573e-05 0)
(0.14944204 1.6064807e-05 0)
(0.14839562 1.543508e-05 0)
(0.14736521 1.4824838e-05 0)
(0.14634979 1.425428e-05 0)
(0.14534858 1.3698166e-05 0)
(0.14436112 1.316458e-05 0)
(0.14338674 1.2654223e-05 0)
(0.14242513 1.2157593e-05 0)
(0.1414757 1.1688979e-05 0)
(0.14053799 1.1233316e-05 0)
(0.13961169 1.0798251e-05 0)
(0.13869624 1.0383352e-05 0)
(0.13779118 9.9843515e-06 0)
(0.13689616 9.6012542e-06 0)
(0.13601111 9.2270963e-06 0)
(0.13513588 8.8691741e-06 0)
(0.13427022 8.5231389e-06 0)
(0.13341392 8.1909287e-06 0)
(0.13256681 7.8702801e-06 0)
(0.13172874 7.5624776e-06 0)
(0.13089941 7.2673507e-06 0)
(0.13007865 6.9831495e-06 0)
(0.1292663 6.7094962e-06 0)
(0.12846227 6.4457611e-06 0)
(0.12766641 6.1926234e-06 0)
(0.12687856 5.9488189e-06 0)
(0.12609861 5.7143893e-06 0)
(0.12532647 5.4884704e-06 0)
(0.12456201 5.2719078e-06 0)
(0.12380507 5.0635571e-06 0)
(0.12305551 4.8636735e-06 0)
(0.12231324 4.6711957e-06 0)
(0.12157811 4.4865549e-06 0)
(0.12085004 4.3087764e-06 0)
(0.12012889 4.1382763e-06 0)
(0.11941457 3.974132e-06 0)
(0.11870695 3.8167512e-06 0)
(0.11800591 3.6654375e-06 0)
(0.11731135 3.5202092e-06 0)
(0.11662307 3.3811493e-06 0)
(0.11594095 3.2474317e-06 0)
(0.11526475 3.1199099e-06 0)
(0.11459437 2.9966957e-06 0)
(0.11392926 2.8810942e-06 0)
(0.11326973 2.7666983e-06 0)
(0.1126137 2.6682417e-06 0)
(0.1119639 2.5565009e-06 0)
(0.11131072 2.5007092e-06 0)
(0.11066971 2.3599547e-06 0)
(0.10999839 2.4556584e-06 0)
(0.10936307 2.1476574e-06 -1.1875839e-21)
(0.10860818 6.0245458e-06 6.3622083e-20)
(0.10802356 -1.6858964e-06 -3.2023061e-19)
(0.10689238 1.1981736e-05 -1.0998959e-18)
(0.95752053 0.024789042 0)
(0.94361031 0.0324438 0)
(0.91258938 0.032596741 0)
(0.86098058 0.02880661 0)
(0.79809701 0.022962094 0)
(0.73502371 0.017308817 0)
(0.67808409 0.0129042 0)
(0.62929657 0.0098304717 0)
(0.58826472 0.0077467071 0)
(0.55375126 0.0062552746 0)
(0.5245358 0.0051188387 0)
(0.49963622 0.0042186935 0)
(0.47829867 0.0034882762 0)
(0.45994438 0.0028904426 0)
(0.44410631 0.0023997424 0)
(0.43041125 0.0019952667 0)
(0.41853509 0.0016636931 0)
(0.40819098 0.0013947112 0)
(0.39911713 0.0011767679 0)
(0.39111759 0.00099129256 0)
(0.38400503 0.00084672411 0)
(0.37762851 0.00074310869 0)
(0.37186131 0.00065427244 0)
(0.36660324 0.00057950062 0)
(0.36177697 0.0005175799 0)
(0.35731509 0.00046560633 0)
(0.35317048 0.00042128637 0)
(0.34929673 0.00038370508 0)
(0.34565587 0.00035198828 0)
(0.34221602 0.00032451589 0)
(0.33895505 0.00029999664 0)
(0.33585472 0.00027813141 0)
(0.33289777 0.00025862318 0)
(0.33006995 0.0002411497 0)
(0.32735697 0.00022539858 0)
(0.32475074 0.00021148883 0)
(0.32223237 0.00019911301 0)
(0.31979815 0.00018767285 0)
(0.31743973 0.00017730527 0)
(0.31514917 0.00016785123 0)
(0.31292067 0.00015916132 0)
(0.31074888 0.00015118333 0)
(0.30862925 0.00014373152 0)
(0.30655841 0.00013677354 0)
(0.30453261 0.00013029367 0)
(0.30254923 0.00012419924 0)
(0.30060508 0.00011854051 0)
(0.29869697 0.00011325165 0)
(0.29682273 0.00010825198 0)
(0.29498025 0.00010356339 0)
(0.29316768 9.9107479e-05 0)
(0.29138365 9.4880831e-05 0)
(0.28962666 9.0870482e-05 0)
(0.28789569 8.7043224e-05 0)
(0.28618945 8.3422513e-05 0)
(0.28450688 7.9963957e-05 0)
(0.28284707 7.6676517e-05 0)
(0.28120889 7.3555215e-05 0)
(0.27959132 7.0580492e-05 0)
(0.27799357 6.7738845e-05 0)
(0.27641524 6.500534e-05 0)
(0.27485585 6.2393621e-05 0)
(0.27331479 5.9891718e-05 0)
(0.27179155 5.7498021e-05 0)
(0.27028567 5.5203081e-05 0)
(0.26879672 5.3007544e-05 0)
(0.26732413 5.0908586e-05 0)
(0.26586743 4.8896943e-05 0)
(0.26442629 4.69672e-05 0)
(0.26300039 4.5115343e-05 0)
(0.26158939 4.3340782e-05 0)
(0.26019294 4.1638011e-05 0)
(0.25881077 4.0003908e-05 0)
(0.25744263 3.8434764e-05 0)
(0.2560882 3.6931278e-05 0)
(0.25474719 3.5488939e-05 0)
(0.25341928 3.4106022e-05 0)
(0.25210424 3.2778225e-05 0)
(0.25080178 3.1504759e-05 0)
(0.24951167 3.0281876e-05 0)
(0.24823367 2.9109005e-05 0)
(0.24696753 2.7982643e-05 0)
(0.24571302 2.690264e-05 0)
(0.24446986 2.58661e-05 0)
(0.24323784 2.4872305e-05 0)
(0.2420166 2.3920654e-05 0)
(0.24080587 2.3008945e-05 0)
(0.23960519 2.2137435e-05 0)
(0.23841435 2.1304144e-05 0)
(0.23723236 2.0511256e-05 0)
(0.23605965 1.9758824e-05 0)
(0.23489268 1.905488e-05 0)
(0.23373578 1.8403552e-05 0)
(0.232573 1.7841317e-05 0)
(0.23142951 1.7338254e-05 0)
(0.23023532 1.7185053e-05 0)
(0.22909772 1.688003e-05 2.1128102e-21)
(0.2277598 1.8699029e-05 0)
(0.2266977 9.459618e-06 0)
(0.2246806 3.0082909e-05 0)
(0.96617166 0.026143497 0)
(0.97105717 0.035026562 0)
(0.97608414 0.038635114 0)
(0.97491578 0.037535579 0)
(0.9603134 0.03432657 0)
(0.93213345 0.029986471 0)
(0.89542251 0.025286281 0)
(0.85535867 0.020883291 0)
(0.81522177 0.017148061 0)
(0.77694304 0.014086835 0)
(0.74155954 0.011607937 0)
(0.70952453 0.0096061766 0)
(0.68089403 0.0079822312 0)
(0.65548295 0.0066590135 0)
(0.63298121 0.0055783809 0)
(0.61305818 0.0046918953 0)
(0.59539187 0.0039629768 0)
(0.57968507 0.0033633047 0)
(0.56567076 0.0028670018 0)
(0.55312453 0.0024595272 0)
(0.54184527 0.0021312381 0)
(0.5316526 0.0018630542 0)
(0.52239487 0.0016403193 0)
(0.51394227 0.0014547721 0)
(0.5061846 0.0012994196 0)
(0.49902633 0.0011682556 0)
(0.49238604 0.0010561028 0)
(0.48619965 0.00095985146 0)
(0.48041241 0.00087733116 0)
(0.47497824 0.00080547141 0)
(0.46985753 0.00074180542 0)
(0.46501667 0.00068526986 0)
(0.460426 0.00063493537 0)
(0.45606035 0.00058991351 0)
(0.45189746 0.00054940293 0)
(0.44791997 0.00051351704 0)
(0.44410242 0.00048146612 0)
(0.44043588 0.00045206641 0)
(0.43690462 0.00042545804 0)
(0.4334963 0.00040122176 0)
(0.43020095 0.00037899955 0)
(0.4270093 0.00035862493 0)
(0.423913 0.00033973401 0)
(0.42090518 0.00032220006 0)
(0.41797912 0.00030593133 0)
(0.41512937 0.00029073592 0)
(0.41235031 0.00027665148 0)
(0.40963668 0.00026353113 0)
(0.40698428 0.0002512074 0)
(0.40438921 0.00023967886 0)
(0.40184789 0.00022879666 0)
(0.39935738 0.00021852855 0)
(0.39691474 0.0002088306 0)
(0.39451762 0.00019963038 0)
(0.39216363 0.00019094598 0)
(0.38985066 0.00018269492 0)
(0.38757676 0.0001748792 0)
(0.38533989 0.00016747875 0)
(0.38313827 0.00016044892 0)
(0.38097039 0.00015375531 0)
(0.37883509 0.00014734959 0)
(0.3767312 0.0001412461 0)
(0.37465751 0.00013541976 0)
(0.37261291 0.00012986015 0)
(0.37059645 0.00012454634 0)
(0.36860717 0.00011947476 0)
(0.36664406 0.00011463604 0)
(0.36470623 0.00011000959 0)
(0.36279294 0.00010558189 0)
(0.36090349 0.00010134275 0)
(0.35903719 9.7287563e-05 0)
(0.35719337 9.34041e-05 0)
(0.35537144 8.9683877e-05 0)
(0.35357087 8.6118535e-05 0)
(0.35179104 8.2706812e-05 0)
(0.35003139 7.9438988e-05 0)
(0.34829137 7.630969e-05 0)
(0.34657047 7.3309836e-05 0)
(0.34486819 7.0435964e-05 0)
(0.34318409 6.7680233e-05 0)
(0.34151768 6.5039861e-05 0)
(0.33986853 6.2507608e-05 0)
(0.3382362 6.0081795e-05 0)
(0.33662021 5.7756345e-05 0)
(0.33502013 5.5529007e-05 0)
(0.33343543 5.3397812e-05 0)
(0.33186562 5.1358789e-05 0)
(0.33030997 4.9410731e-05 0)
(0.32876807 4.7552232e-05 0)
(0.32723854 4.5782265e-05 0)
(0.32572171 4.4112872e-05 0)
(0.32421294 4.2535863e-05 0)
(0.32271748 4.1116085e-05 0)
(0.32121502 3.9812404e-05 0)
(0.3197368 3.881726e-05 0)
(0.31819498 3.8230885e-05 0)
(0.31672244 3.804743e-05 1.5637088e-21)
(0.31499807 4.0177746e-05 0)
(0.31360388 2.8727882e-05 0)
(0.31101002 5.5445229e-05 -1.6412765e-20)
(0.96878268 0.024298269 0)
(0.97437096 0.032449109 0)
(0.98239267 0.036275324 0)
(0.98896714 0.036595824 0)
(0.99248419 0.034851788 0)
(0.99212264 0.032372946 0)
(0.98593349 0.029738398 0)
(0.97309618 0.027109044 0)
(0.95377193 0.024435453 0)
(0.92991163 0.021587589 0)
(0.90327026 0.0187679 0)
(0.87524195 0.0161399 0)
(0.84698908 0.013797172 0)
(0.8194172 0.011766221 0)
(0.79317224 0.010025118 0)
(0.7686514 0.0085428638 0)
(0.74603457 0.007292652 0)
(0.72533332 0.0062463874 0)
(0.70645341 0.0053778728 0)
(0.6892529 0.0046588655 0)
(0.67357538 0.0040618379 0)
(0.65926482 0.0035652898 0)
(0.6461771 0.0031488743 0)
(0.63417706 0.0027965166 0)
(0.62313953 0.0024974821 0)
(0.61295224 0.0022426683 0)
(0.60351131 0.0020237486 0)
(0.5947334 0.0018347861 0)
(0.58654652 0.0016713685 0)
(0.57888663 0.0015285905 0)
(0.57169683 0.0014024636 0)
(0.56492776 0.00129081 0)
(0.55853594 0.0011916915 0)
(0.55248278 0.0011032304 0)
(0.54673671 0.0010238323 0)
(0.54126878 0.00095307274 0)
(0.53605362 0.0008897355 0)
(0.53106811 0.00083210099 0)
(0.52629218 0.00077994734 0)
(0.52170745 0.00073255694 0)
(0.51729832 0.00068924243 0)
(0.51305056 0.00064963094 0)
(0.50895115 0.00061311528 0)
(0.50498894 0.00057940079 0)
(0.5011534 0.00054825159 0)
(0.49743551 0.00051931715 0)
(0.49382685 0.00049256335 0)
(0.49031948 0.00046772598 0)
(0.48690671 0.00044451629 0)
(0.48358242 0.00042287467 0)
(0.48034089 0.00040256159 0)
(0.47717715 0.00038348972 0)
(0.47408645 0.00036555905 0)
(0.47106473 0.00034863528 0)
(0.46810823 0.0003327081 0)
(0.46521345 0.00031764783 0)
(0.46237715 0.00030343397 0)
(0.45959619 0.00029001405 0)
(0.45686786 0.00027730651 0)
(0.45418973 0.00026524916 0)
(0.45155964 0.00025376503 0)
(0.44897554 0.00024285809 0)
(0.4464354 0.00023248231 0)
(0.44393742 0.00022261062 0)
(0.44147995 0.00021320511 0)
(0.43906141 0.00020425212 0)
(0.43668022 0.00019572976 0)
(0.43433498 0.00018760183 0)
(0.43202445 0.00017984315 0)
(0.42974742 0.00017243348 0)
(0.42750279 0.00016536009 0)
(0.42528948 0.00015860101 0)
(0.4231065 0.00015213976 0)
(0.42095293 0.000145961 0)
(0.41882782 0.00014005844 0)
(0.41673027 0.00013441497 0)
(0.41465943 0.00012901942 0)
(0.4126145 0.00012385628 0)
(0.41059471 0.00011891741 0)
(0.40859932 0.00011418943 0)
(0.40662761 0.00010966566 0)
(0.40467889 0.00010533392 0)
(0.40275248 0.0001011896 0)
(0.40084768 9.7222384e-05 0)
(0.39896383 9.3427428e-05 0)
(0.39710017 8.9800434e-05 0)
(0.39525598 8.6335305e-05 0)
(0.3934303 8.3028106e-05 0)
(0.39162248 7.9879028e-05 0)
(0.38983079 7.6880703e-05 0)
(0.38805538 7.4063999e-05 0)
(0.38629093 7.1390918e-05 0)
(0.3845429 6.9020677e-05 0)
(0.38278878 6.6771539e-05 0)
(0.38106223 6.5202493e-05 0)
(0.37926707 6.3974968e-05 0)
(0.37754668 6.4109065e-05 1.2023742e-21)
(0.37555017 6.6193872e-05 0)
(0.37390456 5.5179999e-05 0)
(0.37090199 8.2176898e-05 1.2571107e-20)
(0.97061134 0.023184308 0)
(0.97551238 0.030419893 0)
(0.98288189 0.034207098 0)
(0.98995686 0.034739286 0)
(0.99505672 0.033483668 0)
(0.99812384 0.031613528 0)
(1.000546 0.029719694 0)
(1.0004038 0.027963005 0)
(0.99880257 0.026261012 0)
(0.99411527 0.024516095 0)
(0.98562157 0.022717823 0)
(0.97313442 0.020846657 0)
(0.95718737 0.018866136 0)
(0.938617 0.01685943 0)
(0.9181367 0.014924637 0)
(0.89644139 0.013124413 0)
(0.87423852 0.01150296 0)
(0.85215836 0.010059912 0)
(0.83071585 0.0087921427 0)
(0.81027575 0.0076914335 0)
(0.79104717 0.0067452528 0)
(0.77310221 0.0059425331 0)
(0.7564219 0.0052628312 0)
(0.74094137 0.0046842854 0)
(0.72657749 0.0041894013 0)
(0.7132429 0.0037636509 0)
(0.70084797 0.0033945183 0)
(0.68930669 0.0030730403 0)
(0.67853824 0.0027929071 0)
(0.66846716 0.0025471696 0)
(0.65902648 0.0023300713 0)
(0.6501559 0.0021379242 0)
(0.64180049 0.001967416 0)
(0.63391062 0.0018153815 0)
(0.62644435 0.0016792431 0)
(0.61936146 0.0015577055 0)
(0.61263283 0.0014486906 0)
(0.60622439 0.0013499409 0)
(0.60010949 0.0012607433 0)
(0.59426347 0.0011797645 0)
(0.5886648 0.0011059486 0)
(0.58329345 0.001038627 0)
(0.57813112 0.0009768409 0)
(0.57316188 0.00092003249 0)
(0.56837088 0.00086775619 0)
(0.56374465 0.00081940982 0)
(0.55927183 0.00077479166 0)
(0.55494157 0.00073347768 0)
(0.55074448 0.00069502715 0)
(0.54667183 0.00065929223 0)
(0.54271531 0.0006259105 0)
(0.53886764 0.00059470128 0)
(0.53512196 0.00056547882 0)
(0.53147225 0.00053801969 0)
(0.52791303 0.00051226053 0)
(0.5244391 0.00048800662 0)
(0.52104571 0.00046519053 0)
(0.51772847 0.00044370539 0)
(0.51448363 0.00042342064 0)
(0.51130759 0.00040424053 0)
(0.50819701 0.00038604963 0)
(0.50514876 0.00036882714 0)
(0.50215993 0.00035249558 0)
(0.49922785 0.00033700204 0)
(0.49635005 0.00032228406 0)
(0.49352423 0.0003083101 0)
(0.49074814 0.00029503827 0)
(0.48801982 0.00028241182 0)
(0.48533739 0.00027038946 0)
(0.4826991 0.00025893574 0)
(0.48010332 0.00024802469 0)
(0.47754852 0.00023762108 0)
(0.47503325 0.0002276975 0)
(0.47255612 0.00021822819 0)
(0.47011579 0.00020919801 0)
(0.46771099 0.00020057971 0)
(0.46534052 0.00019235386 0)
(0.46300326 0.00018449634 0)
(0.46069809 0.00017699209 0)
(0.45842399 0.00016982029 0)
(0.45617994 0.00016296842 0)
(0.45396498 0.00015641777 0)
(0.45177815 0.0001501592 0)
(0.44961851 0.00014417679 0)
(0.44748515 0.00013846183 0)
(0.44537705 0.00013300654 0)
(0.44329328 0.00012780199 0)
(0.44123261 0.00012284038 0)
(0.43919415 0.00011812375 0)
(0.43717589 0.00011363626 0)
(0.43517771 0.00010943159 0)
(0.43319386 0.00010543354 0)
(0.43122965 0.00010191646 0)
(0.42926156 9.8520182e-05 0)
(0.42732364 9.6258167e-05 0)
(0.42531672 9.4207601e-05 0)
(0.42338641 9.4738775e-05 9.9211722e-22)
(0.42117064 9.63891e-05 5.1021603e-20)
(0.41931289 8.7845976e-05 0)
(0.4159751 0.00011082906 0)
(0.97226179 0.022374695 0)
(0.97656794 0.028810331 0)
(0.98293213 0.0324013 0)
(0.98913963 0.033165949 0)
(0.99411818 0.032342857 0)
(0.99783076 0.030825762 0)
(1.0004247 0.029172293 0)
(1.0022481 0.027617491 0)
(1.0034803 0.026099325 0)
(1.0041994 0.024638556 0)
(1.0040481 0.023253642 0)
(1.0028282 0.021916169 0)
(0.99990184 0.020595566 0)
(0.99462822 0.019277089 0)
(0.98671966 0.017963772 0)
(0.97603548 0.01660475 0)
(0.96297252 0.015194076 0)
(0.94783743 0.013798558 0)
(0.93100756 0.012452237 0)
(0.91295272 0.011185758 0)
(0.89422754 0.010017885 0)
(0.87536776 0.008956331 0)
(0.85683396 0.008001849 0)
(0.8389606 0.0071534553 0)
(0.82194432 0.006408934 0)
(0.80586584 0.0057617971 0)
(0.79073189 0.0051995039 0)
(0.77651337 0.0047084095 0)
(0.76316389 0.0042778385 0)
(0.75062905 0.0038976357 0)
(0.73885199 0.0035600425 0)
(0.72777471 0.0032601683 0)
(0.71734023 0.0029934722 0)
(0.70749549 0.0027553766 0)
(0.69819228 0.002542209 0)
(0.68938323 0.0023514662 0)
(0.68103015 0.002180116 0)
(0.67309488 0.0020253501 0)
(0.66554279 0.0018856089 0)
(0.65834304 0.0017589035 0)
(0.65146836 0.0016436285 0)
(0.64489317 0.0015386878 0)
(0.63859402 0.0014426745 0)
(0.63255007 0.0013546627 0)
(0.62674211 0.0012739062 0)
(0.62115232 0.0011994848 0)
(0.61576545 0.0011309515 0)
(0.61056726 0.0010676516 0)
(0.60554523 0.0010089346 0)
(0.60068768 0.00095451379 0)
(0.5959836 0.000903862 0)
(0.59142328 0.00085667066 0)
(0.58699753 0.00081263851 0)
(0.58269811 0.00077141997 0)
(0.57851752 0.00073287496 0)
(0.57444846 0.00069671391 0)
(0.57048464 0.00066278896 0)
(0.5666203 0.00063092057 0)
(0.56285033 0.00060091686 0)
(0.55916976 0.0005726362 0)
(0.55557398 0.00054591094 0)
(0.55205871 0.0005206804 0)
(0.54862001 0.00049682279 0)
(0.54525425 0.00047425069 0)
(0.54195801 0.00045286886 0)
(0.53872809 0.00043261624 0)
(0.53556157 0.00041342183 0)
(0.53245576 0.00039520349 0)
(0.52940809 0.00037789794 0)
(0.52641618 0.00036144799 0)
(0.52347783 0.00034580874 0)
(0.52059097 0.00033092785 0)
(0.51775361 0.00031676363 0)
(0.51496385 0.00030327515 0)
(0.5122199 0.00029043392 0)
(0.50952009 0.00027819952 0)
(0.50686282 0.00026654144 0)
(0.50424657 0.00025542432 0)
(0.5016699 0.00024482358 0)
(0.49913142 0.00023470871 0)
(0.4966298 0.00022505918 0)
(0.49416377 0.00021584788 0)
(0.49173209 0.00020705928 0)
(0.48933352 0.0001986703 0)
(0.48696689 0.00019066681 0)
(0.48463093 0.00018303624 0)
(0.48232444 0.00017576585 0)
(0.48004594 0.0001688428 0)
(0.47779427 0.00016227073 0)
(0.47556716 0.00015602375 0)
(0.47336419 0.00015018031 0)
(0.47117934 0.00014462122 0)
(0.46901751 0.00013974735 0)
(0.46685485 0.00013499993 0)
(0.46472477 0.00013189528 0)
(0.46252781 0.00012884932 0)
(0.46040788 0.00012977175 0)
(0.45800098 0.00013070122 0)
(0.45595445 0.00012619026 1.1150693e-19)
(0.45232099 0.00014190841 0)
(0.97388342 0.021613722 0)
(0.97759239 0.027369375 0)
(0.98315719 0.030783551 0)
(0.98867258 0.03174332 0)
(0.99320614 0.031217016 0)
(0.9966918 0.029980286 0)
(0.99931871 0.028545342 0)
(1.001389 0.027131557 0)
(1.0030734 0.02573097 0)
(1.0043223 0.024373229 0)
(1.0052304 0.023077712 0)
(1.0058273 0.021841002 0)
(1.0061062 0.020670956 0)
(1.005901 0.019580299 0)
(1.005018 0.018554748 0)
(1.003283 0.017576762 0)
(1.0001084 0.016637515 0)
(0.99514412 0.015720757 0)
(0.98812984 0.014808478 0)
(0.97896116 0.0138599 0)
(0.96776029 0.012872253 0)
(0.95468199 0.011879125 0)
(0.93999328 0.010899287 0)
(0.92410339 0.0099534434 0)
(0.90751712 0.0090557842 0)
(0.89073018 0.0082179548 0)
(0.87415823 0.007449813 0)
(0.85809199 0.0067564731 0)
(0.84269252 0.0061398258 0)
(0.82802523 0.0055942293 0)
(0.81410301 0.0051099129 0)
(0.80091308 0.0046784261 0)
(0.78842855 0.004292549 0)
(0.77661436 0.0039461853 0)
(0.76543108 0.0036350156 0)
(0.75483524 0.0033557008 0)
(0.74478672 0.0031041969 0)
(0.73524688 0.0028770208 0)
(0.72617788 0.0026718301 0)
(0.71754454 0.0024858284 0)
(0.70931508 0.0023167685 0)
(0.70145972 0.0021630275 0)
(0.69395071 0.0020226384 0)
(0.68676292 0.001894213 0)
(0.67987306 0.0017766214 0)
(0.67325958 0.0016685361 0)
(0.66690299 0.0015691781 0)
(0.66078532 0.0014775955 0)
(0.65489056 0.0013928701 0)
(0.64920393 0.0013145277 0)
(0.6437116 0.001241828 0)
(0.63840123 0.001174286 0)
(0.63326117 0.0011114437 0)
(0.6282809 0.0010528022 0)
(0.62345071 0.00099811218 0)
(0.61876131 0.0009469643 0)
(0.61420456 0.00089910383 0)
(0.60977296 0.00085425006 0)
(0.60545976 0.00081212889 0)
(0.60125853 0.0007725363 0)
(0.59716333 0.00073523672 0)
(0.59316864 0.00070011216 0)
(0.58926941 0.0006669838 0)
(0.5854609 0.00063572077 0)
(0.58173857 0.00060618259 0)
(0.57809828 0.00057826377 0)
(0.57453637 0.00055185596 0)
(0.57104931 0.00052684646 0)
(0.56763375 0.00050314261 0)
(0.56428662 0.0004806585 0)
(0.56100502 0.00045932385 0)
(0.55778628 0.00043906331 0)
(0.55462784 0.0004198161 0)
(0.55152724 0.00040152187 0)
(0.54848219 0.0003841341 0)
(0.54549057 0.00036759537 0)
(0.54255032 0.00035186072 0)
(0.53965951 0.00033688046 0)
(0.53681629 0.00032261756 0)
(0.53401891 0.00030902915 0)
(0.53126567 0.00029608426 0)
(0.52855498 0.00028374517 0)
(0.52588526 0.00027198791 0)
(0.52325498 0.00026078037 0)
(0.52066266 0.00025010129 0)
(0.51810677 0.00023993175 0)
(0.51558581 0.00023025397 0)
(0.51309806 0.00022104886 0)
(0.51064207 0.00021232096 0)
(0.5082153 0.00020403307 0)
(0.50581703 0.00019628902 0)
(0.50344098 0.00018892392 0)
(0.50109161 0.00018247093 0)
(0.49874503 0.00017616249 0)
(0.49643351 0.00017204348 0)
(0.4940587 0.00016782857 0)
(0.49176095 0.00016908153 0)
(0.48917886 0.00016905334 0)
(0.48695871 0.00016986721 9.9709795e-20)
(0.48305304 0.00017564181 0)
(0.97554416 0.020937087 0)
(0.9787136 0.026037961 0)
(0.98355113 0.029286569 0)
(0.98851851 0.030426152 0)
(0.99272871 0.030162741 0)
(0.99602449 0.029177351 0)
(0.99856125 0.027931564 0)
(1.0005718 0.026644109 0)
(1.002224 0.025349117 0)
(1.0035719 0.024077856 0)
(1.0046676 0.022850857 0)
(1.0055359 0.02167491 0)
(1.0061706 0.020557984 0)
(1.0065893 0.019507209 0)
(1.0069151 0.018530497 0)
(1.0069256 0.017632405 0)
(1.0067051 0.016808899 0)
(1.0061016 0.016052719 0)
(1.0049731 0.015355741 0)
(1.0030694 0.01470303 0)
(0.99997563 0.014074885 0)
(0.99537944 0.013460212 0)
(0.98898148 0.012821578 0)
(0.98069224 0.01212656 0)
(0.9705076 0.011385653 0)
(0.95853703 0.010615552 0)
(0.9450454 0.0098350742 0)
(0.93046051 0.0090677334 0)
(0.91527467 0.008327469 0)
(0.8999489 0.0076287208 0)
(0.88483804 0.0069824282 0)
(0.87016581 0.0063956218 0)
(0.85604634 0.0058685888 0)
(0.8425271 0.0053954937 0)
(0.82962214 0.004969453 0)
(0.81732538 0.0045850235 0)
(0.80561911 0.0042369822 0)
(0.79447826 0.0039214385 0)
(0.7838726 0.0036356746 0)
(0.7737706 0.0033762322 0)
(0.76414155 0.0031402668 0)
(0.75495498 0.0029256175 0)
(0.74618157 0.0027297229 0)
(0.73779387 0.0025506849 0)
(0.72976585 0.0023869164 0)
(0.72207314 0.0022366341 0)
(0.7146931 0.0020986841 0)
(0.70760455 0.0019717423 0)
(0.70078831 0.0018545555 0)
(0.69422657 0.0017463963 0)
(0.6879027 0.0016462541 0)
(0.68180158 0.0015534252 0)
(0.67590912 0.0014672544 0)
(0.67021248 0.0013870518 0)
(0.66469975 0.0013124278 0)
(0.65935974 0.0012428176 0)
(0.65418222 0.001177828 0)
(0.64915777 0.0011170561 0)
(0.64427782 0.0010601229 0)
(0.63953439 0.0010067373 0)
(0.63492012 0.00095657517 0)
(0.63042811 0.00090944565 0)
(0.62605204 0.00086509627 0)
(0.62178601 0.00082333835 0)
(0.61762436 0.00078397597 0)
(0.61356195 0.00074684795 0)
(0.60959412 0.00071179619 0)
(0.60571646 0.00067866779 0)
(0.60192481 0.00064733293 0)
(0.59821529 0.00061766913 0)
(0.59458428 0.00058957373 0)
(0.59102839 0.00056294193 0)
(0.58754446 0.00053768847 0)
(0.58412943 0.00051372766 0)
(0.58078048 0.00049098974 0)
(0.57749493 0.00046939643 0)
(0.57427025 0.00044888425 0)
(0.57110405 0.00042938553 0)
(0.56799403 0.00041084742 0)
(0.56493804 0.00039321172 0)
(0.56193401 0.00037643417 0)
(0.55897994 0.00036046393 0)
(0.55607393 0.00034526624 0)
(0.5532141 0.00033079781 0)
(0.55039867 0.0003170283 0)
(0.54762579 0.0003039307 0)
(0.54489367 0.00029148064 0)
(0.54220031 0.00027965146 0)
(0.53954397 0.00026844755 0)
(0.53692184 0.00025781928 0)
(0.53433286 0.00024789568 0)
(0.53177054 0.00023846441 0)
(0.52923882 0.0002301938 0)
(0.52671398 0.0002221021 0)
(0.52422688 0.00021677715 0)
(0.52168096 0.00021121002 0)
(0.51921228 0.00021269719 0)
(0.51646409 0.00021147392 -1.8039415e-20)
(0.5140804 0.00021877715 0)
(0.50991699 0.00021220951 -3.9888575e-21)
(0.9771486 0.020335834 0)
(0.9799017 0.024848104 0)
(0.98409446 0.027880016 0)
(0.98854847 0.029140719 0)
(0.99247601 0.029124861 0)
(0.9956445 0.028386688 0)
(0.99813131 0.027328483 0)
(1.0001115 0.026169148 0)
(1.001728 0.024972356 0)
(1.0030527 0.02377671 0)
(1.0041362 0.02260992 0)
(1.0050198 0.021485745 0)
(1.0057295 0.020414745 0)
(1.0062851 0.019401385 0)
(1.0067034 0.018459114 0)
(1.0069911 0.017592337 0)
(1.0071659 0.016788795 0)
(1.0072531 0.016055717 0)
(1.0072061 0.015398104 0)
(1.007015 0.014804534 0)
(1.0066067 0.014264256 0)
(1.0058705 0.013772711 0)
(1.0046835 0.013317309 0)
(1.0027302 0.012880968 0)
(0.99966604 0.012446237 0)
(0.9951708 0.011996848 0)
(0.98895227 0.011498501 0)
(0.98092201 0.010931051 0)
(0.97106544 0.01031411 0)
(0.95952634 0.0096618697 0)
(0.94663984 0.0089965815 0)
(0.93286962 0.008335757 0)
(0.91869165 0.0076970391 0)
(0.90450049 0.0070954317 0)
(0.89056412 0.0065406644 0)
(0.87703254 0.0060364478 0)
(0.86397954 0.0055794051 0)
(0.85143921 0.0051639324 0)
(0.83942242 0.0047857736 0)
(0.82792471 0.0044407048 0)
(0.81693205 0.0041256681 0)
(0.80642413 0.0038383218 0)
(0.79637779 0.0035756857 0)
(0.78676902 0.0033354677 0)
(0.77757304 0.0031156709 0)
(0.76876555 0.0029140576 0)
(0.7603231 0.0027290926 0)
(0.75222296 0.0025590468 0)
(0.74444402 0.0024022893 0)
(0.73696627 0.0022577922 0)
(0.7297708 0.0021242281 0)
(0.72284019 0.0020006304 0)
(0.71615809 0.0018860987 0)
(0.7097095 0.0017797141 0)
(0.70348041 0.0016809082 0)
(0.69745769 0.0015889308 0)
(0.69162918 0.0015032317 0)
(0.68598357 0.0014232575 0)
(0.68051049 0.0013484946 0)
(0.6752003 0.0012785371 0)
(0.67004409 0.0012129514 0)
(0.66503355 0.0011514554 0)
(0.66016094 0.0010937062 0)
(0.65541914 0.0010394421 0)
(0.65080142 0.00098839648 0)
(0.64630151 0.00094033882 0)
(0.64191363 0.00089505061 0)
(0.63763242 0.00085232812 0)
(0.63345284 0.00081199418 0)
(0.62937017 0.00077388167 0)
(0.62537997 0.00073784781 0)
(0.62147813 0.0007037503 0)
(0.61766077 0.00067147164 0)
(0.61392421 0.00064089549 0)
(0.61026501 0.00061192386 0)
(0.60667995 0.00058445225 0)
(0.60316593 0.00055839412 0)
(0.59972007 0.00053365965 0)
(0.59633961 0.00051017636 0)
(0.59302194 0.00048786724 0)
(0.58976457 0.0004666716 0)
(0.58656509 0.00044652257 0)
(0.58342124 0.00042737192 0)
(0.58033077 0.00040916279 0)
(0.57729155 0.0003918535 0)
(0.5743014 0.0003754069 0)
(0.57135824 0.00035979034 0)
(0.56845974 0.00034496801 0)
(0.56560387 0.0003309429 0)
(0.56278752 0.00031765171 0)
(0.56000929 0.00030524804 0)
(0.5572625 0.00029347082 0)
(0.55455053 0.00028312469 0)
(0.55184988 0.00027301095 0)
(0.54918997 0.00026626858 0)
(0.54647627 0.00025915157 0)
(0.54384038 0.00026074961 3.2803589e-22)
(0.54093097 0.00025807674 0)
(0.53839031 0.00027296929 8.6227173e-20)
(0.5339781 0.00025179777 0)
(0.97864384 0.019781326 0)
(0.98107533 0.023787978 0)
(0.98472828 0.026596863 0)
(0.98870565 0.027917233 0)
(0.99234404 0.028096234 0)
(0.99538125 0.027577969 0)
(0.99782762 0.026703798 0)
(0.9998017 0.025679947 0)
(1.0014167 0.024586941 0)
(1.00274 0.023471336 0)
(1.0038205 0.022367289 0)
(1.0047009 0.021294064 0)
(1.0054138 0.020264863 0)
(1.0059828 0.019286766 0)
(1.006427 0.018373575 0)
(1.0067703 0.017529284 0)
(1.0070302 0.016746896 0)
(1.0072069 0.01603261 0)
(1.0073128 0.015386265 0)
(1.0073857 0.014801509 0)
(1.0073793 0.014275059 0)
(1.0073176 0.013803557 0)
(1.0071741 0.013378914 0)
(1.006903 0.012991571 0)
(1.006427 0.012634304 0)
(1.0056323 0.012300482 0)
(1.004356 0.011979151 0)
(1.0022464 0.011657911 0)
(0.99897837 0.011322798 0)
(0.99420433 0.010946761 0)
(0.98772302 0.010501947 0)
(0.97943827 0.0099949248 0)
(0.96940611 0.0094389124 0)
(0.95788426 0.0088533189 0)
(0.94529962 0.0082591558 0)
(0.9321269 0.0076743514 0)
(0.9187799 0.0071154368 0)
(0.90555052 0.0065935606 0)
(0.89261007 0.0061141914 0)
(0.88004968 0.0056756989 0)
(0.86791763 0.0052739637 0)
(0.85623662 0.004905595 0)
(0.84501231 0.0045672091 0)
(0.8342392 0.0042565221 0)
(0.82390453 0.0039714834 0)
(0.81399182 0.0037096071 0)
(0.80448247 0.0034691173 0)
(0.79535638 0.003247955 0)
(0.78659357 0.0030441438 0)
(0.7781741 0.0028563605 0)
(0.77007843 0.0026829411 0)
(0.76228808 0.0025226318 0)
(0.75478532 0.0023742546 0)
(0.74755364 0.0022366295 0)
(0.7405774 0.0021089787 0)
(0.7338418 0.001990336 0)
(0.72733306 0.0018799696 0)
(0.72103819 0.0017771507 0)
(0.71494517 0.0016812054 0)
(0.70904275 0.0015915885 0)
(0.7033205 0.0015077334 0)
(0.69776867 0.0014292476 0)
(0.69237814 0.0013556791 0)
(0.68714048 0.0012866721 0)
(0.68204781 0.0012218736 0)
(0.67709274 0.0011609749 0)
(0.67226838 0.0011036842 0)
(0.66756832 0.0010497319 0)
(0.66298659 0.00099888303 0)
(0.65851757 0.00095091642 0)
(0.65415598 0.00090564053 0)
(0.64989691 0.0008628672 0)
(0.64573572 0.00082243879 0)
(0.64166807 0.0007842014 0)
(0.63768987 0.00074802276 0)
(0.63379725 0.00071376668 0)
(0.62998657 0.00068131825 0)
(0.62625439 0.00065056079 0)
(0.62259745 0.0006213979 0)
(0.61901265 0.00059372985 0)
(0.61549704 0.00056747594 0)
(0.61204781 0.00054255 0)
(0.60866225 0.00051888733 0)
(0.60533774 0.00049641472 0)
(0.60207179 0.00047507664 0)
(0.59886186 0.00045482352 0)
(0.59570552 0.0004356124 0)
(0.59260014 0.00041739655 0)
(0.58954334 0.00040017608 0)
(0.58653174 0.00038387267 0)
(0.58356357 0.00036866351 0)
(0.58063194 0.00035423771 0)
(0.57773966 0.00034153623 0)
(0.57486351 0.00032914221 0)
(0.57203138 0.00032075019 0)
(0.56915093 0.00031186824 0)
(0.56634937 0.00031343053 0)
(0.56328084 0.00030903095 0)
(0.56058721 0.00033257959 0)
(0.55593141 0.00029460139 0)
(0.98002123 0.019260062 0)
(0.98219061 0.022828798 0)
(0.98539513 0.02542623 0)
(0.9889481 0.026771946 0)
(0.99229924 0.02710065 0)
(0.99518524 0.026767152 0)
(0.99757342 0.026060723 0)
(0.99953641 0.025169678 0)
(1.0011578 0.024182443 0)
(1.002494 0.023151145 0)
(1.0035888 0.022114134 0)
(1.0044819 0.021094899 0)
(1.005206 0.020109299 0)
(1.0057859 0.019167365 0)
(1.0062428 0.018282281 0)
(1.0066011 0.017459879 0)
(1.0068787 0.016696356 0)
(1.0070859 0.015996881 0)
(1.0072363 0.015361692 0)
(1.0073446 0.0147869 0)
(1.0074159 0.014268535 0)
(1.0074594 0.013801356 0)
(1.0074798 0.01338074 0)
(1.0074737 0.012999923 0)
(1.0074312 0.012653619 0)
(1.0073346 0.012338167 0)
(1.0071562 0.012048273 0)
(1.0068394 0.011777252 0)
(1.0062897 0.011520792 0)