/*--------------------------------*- C++ -*----------------------------------*\
| =========                 |                                                 |
| \\      /  F ield         | OpenFOAM: The Open Source CFD Toolbox           |
|  \\    /   O peration     | Version:  2206                                  |
|   \\  /    A nd           | Website:  www.openfoam.com                      |
|    \\/     M anipulation  |                                                 |
\*---------------------------------------------------------------------------*/
FoamFile
{
    version     2.0;
    format      ascii;
    arch        "LSB;label=32;scalar=64";
    class       volScalarField;
    location    "500";
    object      k;
}
// * * * * * * * * * * * * * * * * * * * * * * * * * * * * * * * * * * * * * //

dimensions      [0 2 -2 0 0 0 0];

internalField   nonuniform List<scalar> 
7480
(
0.011444455
0.014108588
0.011690155
0.007659183
0.0045413671
0.0027809643
0.0019367629
0.0015257248
0.0012979389
0.0011496252
0.0010350668
0.00093682077
0.00085122873
0.00077717564
0.00071296659
0.00065701397
0.00060815015
0.00056524421
0.00052707465
0.00049286519
0.00046214964
0.00043442057
0.00040921124
0.00038622702
0.00036523455
0.00034598137
0.00032824322
0.00031187752
0.0002967715
0.0002827962
0.00026983931
0.00025782752
0.00024669646
0.0002363742
0.00022680036
0.00021793392
0.00020973754
0.00020217466
0.00019522043
0.00018886242
0.00018309026
0.00017789323
0.00017327102
0.000169225
0.00016576222
0.00016294268
0.0001607551
0.00015927207
0.00015848347
0.00015837213
0.00015891626
0.0001600869
0.00016182252
0.00016401072
0.0001665413
0.00016933825
0.00017223446
0.00017497975
0.00017734148
0.00017912703
0.00018032436
0.00018094431
0.00018104292
0.00018069651
0.00018000182
0.00017904685
0.00017790922
0.000176651
0.00017531674
0.00017393954
0.00017254459
0.00017114672
0.0001697554
0.0001683807
0.00016702507
0.00016568992
0.00016437572
0.00016302819
0.00016165204
0.00016026351
0.00015886916
0.00015747222
0.0001560673
0.00015465241
0.00015322706
0.00015179092
0.00015034627
0.00014889374
0.00014743659
0.00014597592
0.00014451402
0.00014305185
0.00014159265
0.00014012833
0.00013868321
0.00013716841
0.000135848
0.00013394409
0.00013287255
0.00012997083
0.0014156647
0.0025663676
0.0028345956
0.0024739298
0.0020069901
0.0015607406
0.0011994113
0.00093120274
0.0007350126
0.00059084326
0.00048464831
0.00040591826
0.00034681685
0.00030170065
0.00026650509
0.00023839265
0.0002154625
0.00019640646
0.00018029372
0.00016649304
0.00015457922
0.00014423002
0.00013519137
0.00012727273
0.00012019279
0.00011381148
0.00010804297
0.00010283655
9.8158882e-05
9.3980842e-05
9.0279538e-05
8.7041064e-05
8.4255395e-05
8.1913366e-05
8.0009739e-05
7.854468e-05
7.7522483e-05
7.6954743e-05
7.6864638e-05
7.7287908e-05
7.827126e-05
7.9872691e-05
8.2164395e-05
8.5231754e-05
8.9180264e-05
9.4117888e-05
0.0001001324
0.00010728576
0.00011559548
0.00012505453
0.00013563129
0.00014733001
0.0001598882
0.00017300891
0.00018640376
0.00019964208
0.00021208446
0.00022314819
0.00023247382
0.00024000847
0.00024589938
0.00025040746
0.00025379661
0.00025615983
0.00025771777
0.00025866949
0.00025917262
0.00025934378
0.00025926823
0.00025900803
0.00025860623
0.00025808937
0.0002574813
0.00025680043
0.00025605363
0.00025524197
0.00025434577
0.00025315961
0.00025177011
0.00025024767
0.00024861504
0.00024687868
0.00024504066
0.00024310806
0.0002410875
0.00023898904
0.0002368227
0.00023459854
0.00023232754
0.00023001873
0.00022768114
0.00022532274
0.00022295139
0.00022057178
0.00021818787
0.00021579795
0.00021343993
0.00021076702
0.00020885124
0.00020445344
0.00020999399
0.00055716787
0.0008413208
0.00095098544
0.00092892223
0.00084352051
0.00075613905
0.00069794006
0.00065923298
0.00062427518
0.00059307098
0.00056402469
0.0005357492
0.00050883052
0.00048353168
0.00045987684
0.00043792705
0.00041770081
0.00039920162
0.00038243805
0.00036739925
0.000354043
0.00034232192
0.00033216952
0.00032243539
0.00031324699
0.00030471809
0.00029697777
0.00029015326
0.00028436311
0.00027972597
0.00027635933
0.00027437251
0.00027387107
0.00027496541
0.00027777107
0.00028241538
0.0002890662
0.00029794908
0.00030935001
0.00032361407
0.00034115096
0.00036244282
0.0003880428
0.0004186147
0.00045474705
0.00049694064
0.00054541982
0.00060018141
0.00066107209
0.00072755957
0.00079921686
0.0008748338
0.00095268492
0.0010310884
0.0011074984
0.0011784439
0.0012409952
0.0012935945
0.0013362697
0.001369996
0.001396338
0.0014161125
0.0014304253
0.0014405596
0.0014475586
0.0014522245
0.0014551419
0.0014567364
0.0014573165
0.0014570927
0.0014561943
0.0014547457
0.0014528389
0.0014505075
0.0014477527
0.0014444582
0.0014394412
0.0014332688
0.0014263249
0.0014187224
0.0014104917
0.0014016505
0.0013922415
0.001382304
0.001371896
0.0013610728
0.0013498917
0.0013384125
0.0013266865
0.001314763
0.0013026882
0.001290504
0.0012782483
0.0012659147
0.0012536014
0.0012412049
0.0012276569
0.0012174169
0.0011948715
3.6610964e-05
0.00011640665
0.00022887309
0.00032888374
0.00038967523
0.00041112367
0.00040815925
0.00039501537
0.00038060912
0.0003697481
0.00036652368
0.00037466012
0.00038615389
0.00039597225
0.00040415527
0.000410441
0.00041543711
0.0004196434
0.00042337881
0.00042690373
0.00043043475
0.00043415989
0.00043823491
0.00044276736
0.00044759609
0.00045253579
0.0004576338
0.00046310321
0.00046922118
0.00047628872
0.00048462414
0.00049455961
0.00050643546
0.00052060217
0.00053742459
0.00055727959
0.00058058364
0.0006078677
0.00063979092
0.00067712991
0.00072077
0.00077170827
0.00083105985
0.00090005069
0.00098007956
0.0010721174
0.0011767353
0.0012938941
0.0014230572
0.0015633423
0.0017133168
0.0018699171
0.0020312753
0.002193828
0.0023542655
0.0025072242
0.0026462718
0.0027669994
0.0028679389
0.0029501192
0.0030160307
0.0030681238
0.0031080143
0.0031384604
0.003161738
0.0031796146
0.0031934207
0.0032041158
0.0032123911
0.003218744
0.0032235069
0.0032268832
0.0032290895
0.0032302758
0.0032304905
0.0032297182
0.0032277653
0.0032222943
0.0032146346
0.003205447
0.0031948936
0.0031830276
0.003169894
0.0031555782
0.0031401636
0.003123762
0.0031064787
0.0030884218
0.0030697013
0.0030504148
0.0030306512
0.0030105007
0.0029900392
0.0029693484
0.0029483928
0.0029274558
0.0029060048
0.0028832557
0.0028646826
0.0028272335
1.2523453e-05
2.7572299e-05
5.8623924e-05
9.9470722e-05
0.00013897466
0.00016942074
0.00018920284
0.00020026026
0.00020548126
0.0002073469
0.00020802587
0.0002095875
0.00021294859
0.00021861163
0.00022750941
0.0002406232
0.00025527173
0.00027044156
0.00028571119
0.00030134489
0.00031749139
0.00033433433
0.00035194708
0.00037026121
0.00038899988
0.00040785768
0.00042731445
0.00044781906
0.00046969724
0.00049322721
0.00051868901
0.00054639441
0.00057670107
0.00061001413
0.00064677933
0.00068747857
0.00073271198
0.00078333953
0.00084039635
0.00090502342
0.0009784638
0.001062069
0.0011573025
0.001265734
0.001389096
0.0015277943
0.0016814947
0.0018494917
0.0020307955
0.0022240475
0.0024272505
0.0026371882
0.0028491625
0.0030591732
0.0032641067
0.003455997
0.0036271088
0.0037741173
0.0038972521
0.0039987468
0.0040812336
0.0041475437
0.0042006498
0.0042433292
0.0042779401
0.0043063372
0.0043299257
0.0043497319
0.0043664991
0.0043807637
0.0043928791
0.004403065
0.0044115866
0.0044186043
0.0044241554
0.0044281979
0.004430549
0.0044302395
0.0044274599
0.004422505
0.0044155353
0.0044066441
0.0043959214
0.0043834965
0.004369504
0.0043541022
0.0043374408
0.0043196676
0.00430093
0.0042813611
0.0042610767
0.0042401998
0.0042188273
0.0041970709
0.0041748876
0.0041526662
0.0041295955
0.0041056878
0.0040848162
0.0040463502
9.3804102e-06
1.1752177e-05
1.8505232e-05
3.0345573e-05
4.549069e-05
6.111971e-05
7.5207817e-05
8.6936415e-05
9.628956e-05
0.00010358339
0.00010921556
0.00011369398
0.0001175122
0.00012112085
0.00012502693
0.00012980477
0.00013573067
0.00014308011
0.00015227877
0.00016377523
0.00017689229
0.0001919111
0.00020811228
0.00022551752
0.00024420858
0.00026424305
0.00028584906
0.00030932913
0.00033501869
0.00036329667
0.0003945821
0.00042933356
0.0004680525
0.00051127569
0.0005595877
0.0006137044
0.00067462335
0.000743369
0.00082095825
0.00090848353
0.0010071534
0.0011182974
0.0012433583
0.001383907
0.001541619
0.0017147091
0.00190123
0.0021003783
0.0023114786
0.0025333429
0.0027639317
0.0029999366
0.0032365554
0.0034695241
0.0036956217
0.0039038503
0.0040873512
0.0042458646
0.0043809957
0.0044952818
0.0045917303
0.0046730362
0.0047416365
0.0047998155
0.004849611
0.0048926628
0.0049302615
0.0049633978
0.0049928092
0.0050190378
0.0050424378
0.0050632361
0.0050817648
0.0050981819
0.0051125068
0.0051246756
0.0051345451
0.0051414617
0.0051453848
0.0051464996
0.0051449828
0.0051409758
0.0051346206
0.0051260934
0.0051155802
0.0051032838
0.0050893944
0.0050740952
0.005057567
0.0050399739
0.0050214526
0.005002155
0.0049821944
0.0049617045
0.0049406479
0.0049194644
0.0048972128
0.0048744959
0.0048537931
0.0048171239
8.9897612e-06
9.230908e-06
1.03919e-05
1.3066565e-05
1.7352861e-05
2.2792487e-05
2.8762666e-05
3.4796133e-05
4.0622699e-05
4.6100874e-05
5.1147714e-05
5.5732016e-05
5.9872548e-05
6.3625148e-05
6.7093812e-05
7.0435307e-05
7.3815423e-05
7.7408656e-05
8.1427362e-05
8.6128197e-05
9.1697866e-05
9.8412347e-05
0.00010651159
0.00011620298
0.0001273584
0.00014018461
0.00015492963
0.00017144328
0.00018975276
0.00021022562
0.00023330034
0.00025949721
0.00028942724
0.00032377392
0.00036330385
0.00040892777
0.00046182448
0.00052346548
0.00059539394
0.00067926206
0.00077681736
0.00088988408
0.0010203471
0.0011702072
0.0013415767
0.0015227151
0.0017159882
0.0019249184
0.0021499601
0.0023895626
0.0026406132
0.0028984029
0.003156816
0.0034118452
0.0036610076
0.0038825887
0.0040754478
0.0042465234
0.0043983399
0.0045329509
0.0046523965
0.0047581975
0.0048517325
0.0049346059
0.0050083834
0.0050743467
0.0051336396
0.0051872361
0.0052358886
0.0052801836
0.0053205726
0.0053573836
0.0053909135
0.0054213423
0.0054487022
0.0054729463
0.0054939906
0.0055114226
0.0055251291
0.0055352373
0.0055419499
0.0055454687
0.0055460016
0.0055437834
0.0055390609
0.0055320898
0.0055231072
0.0055123388
0.0055000063
0.0054863112
0.005471431
0.0054555367
0.0054387598
0.005421257
0.0054030116
0.0053844774
0.0053647201
0.0053446195
0.0053258398
0.0052923085
8.9407313e-06
8.861783e-06
8.9452679e-06
9.3733817e-06
1.0288336e-05
1.1705491e-05
1.3541774e-05
1.5693861e-05
1.8077998e-05
2.0628229e-05
2.328287e-05
2.598333e-05
2.8679453e-05
3.1330645e-05
3.3912534e-05
3.6423083e-05
3.8879623e-05
4.131497e-05
4.3781662e-05
4.6355546e-05
4.9123898e-05
5.2195945e-05
5.5699701e-05
5.9780981e-05
6.4572057e-05
7.0250972e-05
7.7058058e-05
8.5139169e-05
9.4559711e-05
0.00010555924
0.00011844611
0.00013359797
0.00015136391
0.00017186261
0.00019572741
0.00022372906
0.00025684174
0.00029631105
0.00034367233
0.00040075705
0.00046973097
0.00055310625
0.0006536996
0.0007745544
0.00091879154
0.0010825675
0.0012631581
0.0014616284
0.0016783515
0.0019124477
0.0021612832
0.0024201732
0.0026829401
0.0029480503
0.003214072
0.0034581945
0.0036786539
0.0038798247
0.004062586
0.0042297566
0.0043831493
0.0045232296
0.0046506573
0.0047667338
0.0048725778
0.00496905
0.0050572074
0.0051380126
0.0052121975
0.0052804175
0.005343242
0.0054010951
0.0054543159
0.0055031336
0.0055476023
0.0055877191
0.0056234767
0.0056546832
0.0056812598
0.005703313
0.0057210653
0.0057347722
0.0057447091
0.0057511749
0.0057544827
0.0057549464
0.0057528562
0.0057484876
0.0057421124
0.0057339769
0.0057242982
0.0057132802
0.0057010827
0.0056878898
0.0056737188
0.0056590177
0.0056429482
0.0056264503
0.0056108176
0.0055810579
8.9327333e-06
8.8090849e-06
8.7105072e-06
8.6773301e-06
8.758357e-06
8.9872629e-06
9.3745284e-06
9.9174933e-06
1.0611167e-05
1.1450437e-05
1.2427232e-05
1.3528366e-05
1.4737152e-05
1.60341e-05
1.7399467e-05
1.8816468e-05
2.0272949e-05
2.1761417e-05
2.3281133e-05
2.4840382e-05
2.645601e-05
2.8154342e-05
2.9972783e-05
3.1960946e-05
3.4177447e-05
3.6694996e-05
3.9608165e-05
4.3021303e-05
4.7043604e-05
5.1819578e-05
5.7543499e-05
6.4405229e-05
7.2620106e-05
8.24314e-05
9.4185014e-05
0.00010832451
0.00012542798
0.00014624706
0.00017147518
0.00020216516
0.00023988481
0.00028664103
0.00034497941
0.00041808183
0.00050986173
0.00062313299
0.00075703176
0.0009118258
0.0010885514
0.0012875541
0.0015078676
0.0017466251
0.0019991068
0.002262932
0.0025354246
0.0028005268
0.003043562
0.0032702794
0.0034830592
0.0036834852
0.0038726278
0.0040491997
0.004213307
0.0043663205
0.0045086239
0.0046404115
0.0047626622
0.0048761361
0.0049813286
0.005078926
0.0051695499
0.0052536453
0.0053315656
0.0054035831
0.0054697281
0.0055300443
0.0055846145
0.0056334288
0.0056764975
0.005713951
0.0057460325
0.005773039
0.0057953079
0.0058132029
0.0058271047
0.0058373917
0.0058444128
0.0058485027
0.0058499941
0.0058491881
0.0058463525
0.0058417349
0.0058355328
0.005827967
0.0058191008
0.0058093711
0.0057980873
0.0057861351
0.0057747046
0.0057492742
8.9300358e-06
8.7998655e-06
8.6731293e-06
8.5570138e-06
8.4631768e-06
8.4038494e-06
8.3885335e-06
8.4241789e-06
8.5169062e-06
8.6726719e-06
8.8966514e-06
9.1921777e-06
9.5606662e-06
1.0001351e-05
1.0511698e-05
1.1088037e-05
1.1725968e-05
1.2420817e-05
1.3168559e-05
1.3966754e-05
1.4815114e-05
1.5716043e-05
1.6675811e-05
1.7705676e-05
1.882199e-05
2.0047032e-05
2.1411125e-05
2.2952727e-05
2.4718269e-05
2.6765877e-05
2.9171023e-05
3.2025321e-05
3.5441124e-05
3.9557203e-05
4.4555637e-05
5.0630841e-05
5.8057567e-05
6.7203911e-05
7.8499729e-05
9.2507919e-05
0.00011001434
0.00013208509
0.00016015392
0.00019613522
0.00024246946
0.00030211825
0.00037783025
0.00047158281
0.00058580987
0.00072278095
0.00088418578
0.0010705424
0.0012806358
0.0015124097
0.0017632146
0.0020238759
0.0022815365
0.0025301602
0.0027635806
0.0029863038
0.0032003368
0.0034056389
0.0036019929
0.0037896678
0.003967743
0.0041351117
0.0042929774
0.0044415417
0.0045807878
0.0047114031
0.0048338331
0.0049483973
0.0050553891
0.005155109
0.0052473911
0.0053322879
0.0054099706
0.0054805322
0.0055440603
0.0056007364
0.0056508231
0.0056946409
0.005732577
0.0057650476
0.0057924928
0.0058153576
0.0058340513
0.0058489734
0.0058605251
0.0058690715
0.0058749428
0.0058784423
0.0058798176
0.0058793362
0.0058771198
0.0058735986
0.0058682577
0.0058618841
0.0058557104
0.0058352925
8.9284416e-06
8.7967927e-06
8.6655635e-06
8.5357487e-06
8.4095629e-06
8.2900275e-06
8.1803804e-06
8.0838635e-06
8.0038905e-06
7.9441563e-06
7.9085098e-06
7.9007029e-06
7.9242146e-06
7.9820418e-06
8.0766296e-06
8.2098622e-06
8.3830076e-06
8.5967514e-06
8.8513667e-06
9.1469522e-06
9.4836554e-06
9.8619439e-06
1.028292e-05
1.0748779e-05
1.1263213e-05
1.1831877e-05
1.2463067e-05
1.3168385e-05
1.3963231e-05
1.4867715e-05
1.5908259e-05
1.7118616e-05
1.8541666e-05
2.0231812e-05
2.225945e-05
2.4711437e-05
2.7701503e-05
3.1382535e-05
3.5952133e-05
4.1647052e-05
4.8804438e-05
5.7886466e-05
6.9530326e-05
8.4617035e-05
0.00010434682
0.00013034582
0.00016464806
0.00020946852
0.00026741924
0.00034145366
0.00043472876
0.00055029568
0.00069059827
0.0008571763
0.0010505425
0.0012680038
0.0015024021
0.0017454622
0.0019878387
0.0022268173
0.002457361
0.0026782858
0.002893087
0.0031023569
0.0033055931
0.0035018447
0.0036910637
0.0038723162
0.0040444182
0.0042081966
0.0043635673
0.0045106313
0.0046494052
0.0047797494
0.0049013813
0.0050143747
0.0051188945
0.005215003
0.0053028045
0.0053825017
0.0054543402
0.0055186297
0.0055757772
0.0056262172
0.0056704184
0.0057088866
0.0057420908
0.0057704913
0.0057945561
0.0058147174
0.0058313766
0.0058449027
0.0058556101
0.0058638223
0.0058697316
0.0058737742
0.0058756238
0.0058759653
0.0058761535
0.0058615825
8.9274397e-06
8.79511e-06
8.662831e-06
8.5306473e-06
8.398893e-06
8.268144e-06
8.1391959e-06
8.0130391e-06
7.8908656e-06
7.7740774e-06
7.6642676e-06
7.563184e-06
7.4726946e-06
7.3947306e-06
7.3312325e-06
7.2841143e-06
7.2552196e-06
7.2462652e-06
7.2588241e-06
7.2943398e-06
7.3541472e-06
7.4395201e-06
7.5517132e-06
7.6920839e-06
7.8622357e-06
8.064178e-06
8.3006211e-06
8.575305e-06
8.8932356e-06
9.2609904e-06
9.6872413e-06
1.0183411e-05
1.0764419e-05
1.144956e-05
1.2263961e-05
1.3239943e-05
1.4419385e-05
1.5857747e-05
1.7628228e-05
1.9825161e-05
2.2576007e-05
2.6056553e-05
3.0509471e-05
3.6266827e-05
4.3804045e-05
5.3793563e-05
6.7162122e-05
8.5116678e-05
0.0001092263
0.0001414981
0.00018443688
0.0002410471
0.000314718
0.000409004
0.00052733923
0.00067212246
0.00084329344
0.0010379862
0.0012502154
0.0014742917
0.0017031333
0.0019314735
0.0021583075
0.0023798898
0.0025942323
0.0028047347
0.0030115118
0.0032141804
0.003411456
0.0036030278
0.0037877144
0.0039647982
0.004134238
0.0042952174
0.0044471601
0.0045900686
0.004723875
0.0048484159
0.0049636878
0.0050698032
0.0051669063
0.0052552301
0.0053351419
0.0054070335
0.0054713589
0.0055286588
0.0055794325
0.0056241878
0.0056634536
0.0056977232
0.0057274738
0.0057531467
0.0057751328
0.0057938243
0.0058094962
0.0058226055
0.0058330218
0.005841343
0.0058490947
0.0058413751
8.9268879e-06
8.7941786e-06
8.6614965e-06
8.5287851e-06
8.3960709e-06
8.2634284e-06
8.1310156e-06
7.9990935e-06
7.8680234e-06
7.7382576e-06
7.6103328e-06
7.4848713e-06
7.3625863e-06
7.2442825e-06
7.1308489e-06
7.0232525e-06
6.9225289e-06
6.8297639e-06
6.7460777e-06
6.6726152e-06
6.6105332e-06
6.560991e-06
6.5251549e-06
6.5042115e-06
6.4993861e-06
6.5119724e-06
6.5434146e-06
6.595419e-06
6.6700399e-06
6.7697616e-06
6.8977175e-06
7.0579317e-06
7.2555712e-06
7.4973793e-06
7.7922053e-06
8.1514017e-06
8.5896728e-06
9.1263429e-06
9.7869545e-06
1.0605011e-05
1.1625195e-05
1.290846e-05
1.4538642e-05
1.6631873e-05
1.9353145e-05
2.2940195e-05
2.7732361e-05
3.420222e-05
4.3013413e-05
5.5084886e-05
7.1676284e-05
9.4485852e-05
0.00012574425
0.00016827342
0.00022548687
0.00030117547
0.00039888526
0.00052108229
0.00066813211
0.00083848666
0.0010282578
0.0012322742
0.0014463031
0.0016648813
0.0018835247
0.0021019582
0.0023175834
0.0025279545
0.0027359109
0.0029414601
0.0031442732
0.0033425666
0.003535857
0.0037231927
0.0039027032
0.0040742431
0.0042372955
0.0043911839
0.0045355688
0.0046703031
0.0047952987
0.0049105709
0.0050163486
0.0051128904
0.005200565
0.0052798968
0.0053513537
0.0054154568
0.0054727743
0.0055238381
0.0055691946
0.0056093527
0.0056447812
0.0056759492
0.0057032208
0.005727088
0.0057476176
0.0057653431
0.0057820003
0.0057823333
8.9265777e-06
8.7936373e-06
8.6607558e-06
8.5278915e-06
8.3950346e-06
8.2621778e-06
8.1293458e-06
7.9966142e-06
7.8641066e-06
7.7319826e-06
7.6004285e-06
7.4696575e-06
7.3399172e-06
7.2114958e-06
7.0847269e-06
6.9599929e-06
6.837728e-06
6.7184186e-06
6.6026015e-06
6.4908635e-06
6.3838383e-06
6.2822021e-06
6.1866716e-06
6.0980042e-06
6.0169973e-06
5.9444891e-06
5.8813738e-06
5.8286235e-06
5.7873108e-06
5.7586408e-06
5.744013e-06
5.7450947e-06
5.7639003e-06
5.8029438e-06
5.865434e-06
5.9554166e-06
6.0780423e-06
6.2399812e-06
6.4499967e-06
6.719685e-06
7.0643432e-06
7.5043946e-06
8.0676157e-06
8.792215e-06
9.7317718e-06
1.0963186e-05
1.259752e-05
1.4794586e-05
1.7785886e-05
2.1906845e-05
2.7641592e-05
3.5684763e-05
4.7032909e-05
6.3089296e-05
8.5784987e-05
0.00011767668
0.00016192785
0.00022206966
0.00030146751
0.0004027752
0.0005272125
0.00067418199
0.00084176454
0.0010264015
0.0012235563
0.0014298648
0.0016411259
0.0018530703
0.0020657726
0.0022772884
0.0024852684
0.0026913099
0.0028956323
0.0030979188
0.0032963656
0.0034900296
0.003678015
0.0038583688
0.004030274
0.004193285
0.0043468047
0.0044903424
0.0046238868
0.0047474022
0.0048610306
0.004965198
0.0050602204
0.0051465661
0.0052247938
0.0052954221
0.0053590416
0.0054162025
0.0054674386
0.0055132925
0.0055542138
0.0055907373
0.0056231231
0.0056518603
0.0056789382
0.0056887403
8.9263978e-06
8.7932706e-06
8.6602312e-06
8.5272675e-06
8.3943783e-06
8.2615524e-06
8.1287934e-06
7.9961348e-06
7.8636382e-06
7.7313831e-06
7.5994575e-06
7.4679548e-06
7.3369767e-06
7.2066372e-06
7.077066e-06
6.9484112e-06
6.8208425e-06
6.6945545e-06
6.5697683e-06
6.4467339e-06
6.3257324e-06
6.2070769e-06
6.091113e-06
5.9782211e-06
5.8688164e-06
5.7633492e-06
5.6623083e-06
5.566225e-06
5.4756779e-06
5.3913004e-06
5.3137972e-06
5.2439644e-06
5.1827113e-06
5.1311002e-06
5.0904061e-06
5.0621831e-06
5.0483443e-06
5.0512832e-06
5.0740573e-06
5.1206664e-06
5.1962963e-06
5.3077278e-06
5.4640369e-06
5.6775596e-06
5.9654729e-06
6.3518926e-06
6.8712444e-06
7.5733827e-06
8.5312648e-06
9.8525124e-06
1.1696899e-05
1.4302049e-05
1.802377e-05
2.3394639e-05
3.1205408e-05
4.2608809e-05
5.9243717e-05
8.3312999e-05
0.00011755935
0.00016511067
0.0002291322
0.00031233257
0.0004165976
0.00054250657
0.00068907614
0.00085436705
0.0010352908
0.0012277474
0.0014289253
0.0016353802
0.0018430874
0.0020520652
0.0022604313
0.0024657366
0.0026701318
0.0028735923
0.0030752322
0.0032731513
0.0034662159
0.0036533654
0.0038326664
0.0040029253
0.0041639591
0.0043150517
0.0044558973
0.0045867449
0.004707513
0.0048185221
0.0049202364
0.0050130587
0.0050975745
0.0051743147
0.0052438431
0.0053067544
0.0053635608
0.005414837
0.0054610217
0.0055025703
0.0055417818
0.0055627023
8.9263273e-06
8.7930349e-06
8.6598413e-06
8.5267615e-06
8.3938093e-06
8.2609843e-06
8.1282924e-06
7.9957593e-06
7.8634299e-06
7.7313613e-06
7.5996151e-06
7.4682532e-06
7.3373387e-06
7.2069369e-06
7.0771172e-06
6.9479536e-06
6.819527e-06
6.6919262e-06
6.5652493e-06
6.4396058e-06
6.3151176e-06
6.1919214e-06
6.0701698e-06
5.9500329e-06
5.8317005e-06
5.7153833e-06
5.6013143e-06
5.4897514e-06
5.3809794e-06
5.2753119e-06
5.1730965e-06
5.0747204e-06
4.9806165e-06
4.8912737e-06
4.8072532e-06
4.7292095e-06
4.6579152e-06
4.5942968e-06
4.5394881e-06
4.4949083e-06
4.4623539e-06
4.444122e-06
4.4432149e-06
4.4636182e-06
4.5107748e-06
4.5921683e-06
4.7182805e-06
4.9041462e-06
5.1718174e-06
5.5539128e-06
6.0989276e-06
6.8800925e-06
8.0092318e-06
9.6586302e-06
1.2094973e-05
1.5729972e-05
2.1194645e-05
2.9432044e-05
4.1790901e-05
6.0096138e-05
8.6667889e-05
0.0001242164
0.00017564832
0.00024373564
0.00033069345
0.00043792038
0.00056567351
0.00071279183
0.00087737364
0.001056641
0.0012467873
0.0014452851
0.0016487957
0.0018535598
0.0020600002
0.0022658164
0.0024694005
0.0026722688
0.0028748686
0.0030752994
0.0032716972
0.0034628809
0.0036477804
0.0038240623
0.0039909561
0.0041485201
0.004295743
0.0044327544
0.0045597743
0.0046768904
0.004784611
0.0048833289
0.0049735752
0.0050559474
0.005130967
0.005199231
0.0052613218
0.0053176576
0.0053709185
0.0054048477
8.926362e-06
8.7929298e-06
8.6595937e-06
8.5263886e-06
8.3933422e-06
8.2604662e-06
8.1277735e-06
7.9952904e-06
7.8630568e-06
7.7311224e-06
7.5995409e-06
7.4683662e-06
7.3376519e-06
7.2074519e-06
7.0778204e-06
6.9488125e-06
6.8204845e-06
6.6928943e-06
6.5661021e-06
6.4401706e-06
6.3151662e-06
6.1911597e-06
6.068227e-06
5.9464503e-06
5.8259193e-06
5.7067321e-06
5.5889966e-06
5.472832e-06
5.3583699e-06
5.2457563e-06
5.1351527e-06
5.0267394e-06
4.9207171e-06
4.8173104e-06
4.7167725e-06
4.6193916e-06
4.5254983e-06
4.4354758e-06
4.3497753e-06
4.2689378e-06
4.193622e-06
4.1246414e-06
4.0630225e-06
4.0100868e-06
3.9675696e-06
3.9378061e-06
3.9240044e-06
3.9306672e-06
3.9643147e-06
4.0345189e-06
4.155418e-06
4.3483893e-06
4.6463868e-06
5.1007572e-06
5.7920574e-06
6.8482627e-06
8.473271e-06
1.0990067e-05
1.4898674e-05
2.0950725e-05
3.0233635e-05
4.4243335e-05
6.4912456e-05
9.458784e-05
0.00013590158
0.00019156407
0.00026406604
0.00035528995
0.00046630996
0.00059715311
0.00074649476
0.00091239474
0.0010920502
0.0012817656
0.0014793415
0.0016810422
0.001884158
0.0020890156
0.0022926474
0.0024946958
0.0026960704
0.002897293
0.0030956407
0.003289462
0.0034775258
0.0036588907
0.0038306251
0.0039929948
0.0041456486
0.0042879967
0.0044204195
0.0045429354
0.0046559555
0.004759982
0.0048554496
0.0049429394
0.0050231101
0.0050963225
0.0051657132
0.0052147653
8.9264933e-06
8.792949e-06
8.6594908e-06
8.5261676e-06
8.393018e-06
8.2600638e-06
8.1273255e-06
7.9948319e-06
7.8626216e-06
7.7307412e-06
7.599241e-06
7.4681721e-06
7.3375861e-06
7.2075343e-06
7.078068e-06
6.9492384e-06
6.8210965e-06
6.693693e-06
6.5670785e-06
6.4413036e-06
6.316419e-06
6.1924756e-06
6.0695252e-06
5.9476202e-06
5.8268148e-06
5.7071651e-06
5.5887299e-06
5.4715711e-06
5.355755e-06
5.2413528e-06
5.1284415e-06
5.0171054e-06
4.907437e-06
4.7995385e-06
4.6935236e-06
4.5895195e-06
4.4876697e-06
4.3881371e-06
4.2911084e-06
4.1968005e-06
4.1054685e-06
4.0174165e-06
3.9330138e-06
3.8527182e-06
3.7771082e-06
3.7069338e-06
3.6431952e-06
3.5872577e-06
3.5410425e-06
3.5073182e-06
3.4901453e-06
3.4956031e-06
3.5330328e-06
3.6170052e-06
3.7704467e-06
4.0301884e-06
4.4563409e-06
5.1464247e-06
6.2578142e-06
8.0414387e-06
1.0889246e-05
1.5394882e-05
2.2424964e-05
3.3192592e-05
4.9315995e-05
7.2821233e-05
0.00010608549
0.00015170053
0.00021225101
0.00029003684
0.00038667961
0.00050296231
0.00063858761
0.00079194019
0.00096097951
0.0011425814
0.0013333676
0.0015313674
0.0017319778
0.0019340865
0.0021374337
0.0023389642
0.0025391118
0.0027392598
0.0029381666
0.00313346
0.0033236777
0.0035076631
0.0036837255
0.0038501004
0.0040071636
0.0041540731
0.0042910485
0.0044183135
0.0045360536
0.0046447707
0.0047450727
0.0048372325
0.0049248832
0.0049913369
8.9267093e-06
8.7930786e-06
8.6595212e-06
8.5260954e-06
8.3928477e-06
8.2598087e-06
8.1270053e-06
7.9944696e-06
7.8622403e-06
7.7303621e-06
7.5988834e-06
7.4678542e-06
7.3373249e-06
7.2073463e-06
7.0779692e-06
6.9492444e-06
6.8212219e-06
6.6939515e-06
6.5674822e-06
6.4418622e-06
6.3171389e-06
6.1933587e-06
6.0705671e-06
5.9488091e-06
5.8281284e-06
5.7085686e-06
5.5901728e-06
5.4729837e-06
5.3570446e-06
5.2423991e-06
5.1290919e-06
5.017169e-06
4.9066789e-06
4.7976726e-06
4.6902045e-06
4.5843337e-06
4.4801246e-06
4.3776485e-06
4.2769846e-06
4.1782226e-06
4.0814645e-06
3.9868286e-06
3.8944534e-06
3.8045043e-06
3.7171828e-06
3.6327398e-06
3.5514975e-06
3.4738805e-06
3.4004668e-06
3.3320656e-06
3.2698405e-06
3.2155049e-06
3.1716502e-06
3.1422864e-06
3.1337276e-06
3.1561143e-06
3.2261465e-06
3.3712452e-06
3.636598e-06
4.0968541e-06
4.8735472e-06
6.1608902e-06
8.263437e-06
1.1647055e-05
1.7003104e-05
2.5318184e-05
3.7940416e-05
5.6628165e-05
8.3520583e-05
0.00012107296
0.00017188651
0.00023846584
0.0003229237
0.00042657237
0.00054983995
0.00069193157
0.00085090844
0.0010245931
0.0012092539
0.0014020105
0.0016006752
0.001800466
0.0020016263
0.0022026008
0.0024022017
0.0026001499
0.0027987097
0.0029945563
0.0031860514
0.0033718043
0.0035508504
0.0037205264
0.0038809731
0.0040318212
0.0041727371
0.0043040574
0.0044261054
0.0045390331
0.0046468966
0.0047330715
8.9269975e-06
8.7933023e-06
8.6596669e-06
8.5261556e-06
8.3928211e-06
8.259701e-06
8.1268279e-06
7.9942371e-06
7.8619682e-06
7.7300652e-06
7.5985751e-06
7.467547e-06
7.3370307e-06
7.2070764e-06
7.0777349e-06
6.9490567e-06
6.8210919e-06
6.6938905e-06
6.5675013e-06
6.4419723e-06
6.3173508e-06
6.1936825e-06
6.0710121e-06
5.949383e-06
5.828837e-06
5.7094148e-06
5.5911555e-06
5.4740969e-06
5.3582758e-06
5.2437275e-06
5.1304865e-06
5.0185863e-06
4.90806e-06
4.7989402e-06
4.6912596e-06
4.5850513e-06
4.4803491e-06
4.3771882e-06
4.2756058e-06
4.1756417e-06
4.0773392e-06
3.9807463e-06
3.8859167e-06
3.7929125e-06
3.7018058e-06
3.6126831e-06
3.525651e-06
3.4408447e-06
3.3584414e-06
3.2786814e-06
3.2019004e-06
3.1285814e-06
3.0594404e-06
2.9955677e-06
2.9386648e-06
2.8914482e-06
2.8583669e-06
2.8467862e-06
2.8689733e-06
2.9455836e-06
3.1111151e-06
3.4225013e-06
3.9731766e-06
4.9131707e-06
6.4794585e-06
9.0381294e-06
1.3140893e-05
1.9594322e-05
2.9528819e-05
4.446275e-05
6.6336906e-05
9.7444148e-05
0.00014035919
0.0001977035
0.0002718896
0.00036475732
0.00047720733
0.00060921143
0.00075926276
0.0009250677
0.0011040954
0.0012922214
0.0014871664
0.0016852887
0.0018845197
0.0020844699
0.0022829009
0.002480028
0.0026766888
0.0028722402
0.0030642086
0.0032510703
0.0034317312
0.0036043535
0.0037676091
0.0039216727
0.0040661333
0.0042010103
0.0043305148
0.0044385325
8.9273463e-06
8.7936043e-06
8.6599089e-06
8.5263284e-06
8.3929197e-06
8.2597261e-06
8.1267856e-06
7.9941364e-06
7.8618195e-06
7.7298788e-06
7.5983608e-06
7.4673136e-06
7.3367866e-06
7.2068296e-06
7.0774932e-06
6.9488275e-06
6.820883e-06
6.6937092e-06
6.5673553e-06
6.4418694e-06
6.3172989e-06
6.1936896e-06
6.0710863e-06
5.9495325e-06
5.8290698e-06
5.7097386e-06
5.5915776e-06
5.4746237e-06
5.3589124e-06
5.2444772e-06
5.1313502e-06
5.0195615e-06
4.9091401e-06
4.8001133e-06
4.6925068e-06
4.5863454e-06
4.4816527e-06
4.3784515e-06
4.2767639e-06
4.1766117e-06
4.0780168e-06
3.9810015e-06
3.8855888e-06
3.7918035e-06
3.6996725e-06
3.6092262e-06
3.5205001e-06
3.4335371e-06
3.3483911e-06
3.2651329e-06
3.1838583e-06
3.1047022e-06
3.0278602e-06
2.9536249e-06
2.882447e-06
2.8150389e-06
2.752557e-06
2.6969138e-06
2.6513059e-06
2.6211541e-06
2.6156758e-06
2.6504393e-06
2.7517469e-06
2.9632395e-06
3.3565526e-06
4.0480642e-06
5.2225502e-06
7.169411e-06
1.0331729e-05
1.5370968e-05
2.3243055e-05
3.5266467e-05
5.3183204e-05
7.9157546e-05
0.00011568555
0.00016546589
0.00023110179
0.00031483698
0.00041806054
0.00054108629
0.00068320537
0.0008421302
0.0010153024
0.0011992102
0.001390616
0.0015872619
0.001784442
0.001982628
0.0021799096
0.0023759864
0.0025707825
0.0027655007
0.0029573612
0.0031448897
0.0033267101
0.0035015462
0.0036672913
0.0038240428
0.0039755973
0.0041069329
8.9277455e-06
8.7939708e-06
8.6602303e-06
8.5265943e-06
8.3931233e-06
8.2598651e-06
8.126862e-06
7.9941556e-06
7.8617882e-06
7.7298044e-06
7.5982504e-06
7.4671739e-06
7.3366239e-06
7.20665e-06
7.0773022e-06
6.9486307e-06
6.8206856e-06
6.6935165e-06
6.5671724e-06
6.4417016e-06
6.3171513e-06
6.1935677e-06
6.0709955e-06
5.9494784e-06
5.8290582e-06
5.7097755e-06
5.591669e-06
5.4747758e-06
5.3591312e-06
5.2447687e-06
5.1317201e-06
5.0200152e-06
4.9096819e-06
4.8007465e-06
4.6932331e-06
4.5871645e-06
4.4825614e-06
4.3794431e-06
4.2778271e-06
4.1777297e-06
4.0791657e-06
3.9821488e-06
3.8866919e-06
3.792807e-06
3.7005055e-06
3.6097991e-06
3.5206995e-06
3.4332197e-06
3.347375e-06
3.2631844e-06
3.1806729e-06
3.0998751e-06