/*--------------------------------*- C++ -*----------------------------------*\
| =========                 |                                                 |
| \\      /  F ield         | OpenFOAM: The Open Source CFD Toolbox           |
|  \\    /   O peration     | Version:  2206                                  |
|   \\  /    A nd           | Website:  www.openfoam.com                      |
|    \\/     M anipulation  |                                                 |
\*---------------------------------------------------------------------------*/
FoamFile
{
    version     2.0;
    format      ascii;
    arch        "LSB;label=32;scalar=64";
    class       volScalarField;
    location    "500";
    object      nut;
}
// * * * * * * * * * * * * * * * * * * * * * * * * * * * * * * * * * * * * * //

dimensions      [0 2 -1 0 0 0 0];

internalField   nonuniform List<scalar> 
7480
(
1.5119969e-06
1.8586415e-06
1.544049e-06
1.0160563e-06
6.0450329e-07
3.7089052e-07
2.585413e-07
2.0376342e-07
1.7338569e-07
1.5359825e-07
1.3830989e-07
1.2519542e-07
1.1376776e-07
1.0387896e-07
9.530339e-08
8.7829538e-08
8.1301814e-08
7.5569422e-08
7.0469373e-08
6.5898089e-08
6.1793391e-08
5.8087553e-08
5.4718268e-08
5.1646212e-08
4.8840234e-08
4.6266626e-08
4.3895438e-08
4.1707633e-08
3.9688155e-08
3.781978e-08
3.6087505e-08
3.4481542e-08
3.2993292e-08
3.161315e-08
3.0333047e-08
2.9147504e-08
2.8051536e-08
2.7040258e-08
2.6110351e-08
2.5260157e-08
2.4488293e-08
2.3793327e-08
2.3175223e-08
2.2634163e-08
2.2171094e-08
2.1794042e-08
2.1501499e-08
2.1303174e-08
2.1197715e-08
2.1182825e-08
2.1255592e-08
2.1412141e-08
2.1644245e-08
2.193687e-08
2.2275279e-08
2.2649308e-08
2.3036607e-08
2.3403723e-08
2.3719545e-08
2.3958316e-08
2.4118427e-08
2.420133e-08
2.4214516e-08
2.4168192e-08
2.4075296e-08
2.3947594e-08
2.3795465e-08
2.362721e-08
2.3448786e-08
2.326462e-08
2.307808e-08
2.2891148e-08
2.2705092e-08
2.2521257e-08
2.2339973e-08
2.2161425e-08
2.198568e-08
2.1805477e-08
2.1621446e-08
2.1435759e-08
2.1249293e-08
2.1062479e-08
2.08746e-08
2.0685385e-08
2.049477e-08
2.0302713e-08
2.0109517e-08
1.9915265e-08
1.9720397e-08
1.9525056e-08
1.932955e-08
1.9134007e-08
1.8938863e-08
1.8743031e-08
1.8549767e-08
1.8347183e-08
1.8170596e-08
1.7915973e-08
1.7772667e-08
1.7384597e-08
1.4110777e-06
1.6300541e-06
1.5384568e-06
1.2879954e-06
1.0361334e-06
8.1126752e-07
6.4375992e-07
5.1796945e-07
4.2141088e-07
3.4674238e-07
2.8962922e-07
2.4635723e-07
2.134965e-07
1.8820408e-07
1.6832744e-07
1.5234055e-07
1.392037e-07
1.2818585e-07
1.1878283e-07
1.1066068e-07
1.0359251e-07
9.7402271e-08
9.1956112e-08
8.7155719e-08
8.2830103e-08
7.8898723e-08
7.5317827e-08
7.2065535e-08
6.9128514e-08
6.6494912e-08
6.415714e-08
6.2112787e-08
6.0360662e-08
5.8899649e-08
5.7731271e-08
5.6860263e-08
5.6293608e-08
5.60434e-08
5.613003e-08
5.6582705e-08
5.7438326e-08
5.8742047e-08
6.0549459e-08
6.2925526e-08
6.5950429e-08
6.9705192e-08
7.4256422e-08
7.9650173e-08
8.589858e-08
9.2995569e-08
1.0091385e-07
1.0965026e-07
1.1901338e-07
1.2878124e-07
1.3873932e-07
1.4856829e-07
1.5779534e-07
1.6599372e-07
1.7290404e-07
1.7849534e-07
1.828821e-07
1.8625995e-07
1.8881948e-07
1.9063112e-07
1.9185905e-07
1.9264783e-07
1.9311143e-07
1.9333341e-07
1.9337476e-07
1.9327983e-07
1.9307926e-07
1.9279173e-07
1.9243442e-07
1.9202056e-07
1.9155481e-07
1.9103797e-07
1.9045484e-07
1.8965278e-07
1.8869705e-07
1.8764004e-07
1.864987e-07
1.8527777e-07
1.8397879e-07
1.8260734e-07
1.8116836e-07
1.7966947e-07
1.7811813e-07
1.7652184e-07
1.748888e-07
1.7322567e-07
1.7153921e-07
1.6983534e-07
1.6811989e-07
1.6639657e-07
1.6466775e-07
1.6293437e-07
1.6122036e-07
1.5926899e-07
1.5790205e-07
1.5464866e-07
1.1013689e-06
1.4047509e-06
1.4358111e-06
1.3409388e-06
1.2075876e-06
1.0740643e-06
9.668662e-07
8.8439443e-07
8.2030009e-07
7.6803941e-07
7.2387315e-07
6.7964507e-07
6.3733869e-07
6.0221493e-07
5.7248922e-07
5.4695288e-07
5.2492256e-07
5.0590848e-07
4.895515e-07
4.7561375e-07
4.6393184e-07
4.5436828e-07
4.468253e-07
4.4119464e-07
4.3359608e-07
4.2646285e-07
4.1996439e-07
4.1430891e-07
4.0970202e-07
4.0634167e-07
4.0443935e-07
4.0421515e-07
4.0588206e-07
4.0965393e-07
4.1575985e-07
4.2444082e-07
4.3595856e-07
4.5064761e-07
4.6894076e-07
4.9137211e-07
5.1857516e-07
5.5129531e-07
5.9040516e-07
6.3689789e-07
6.9196215e-07
7.5667371e-07
8.3194631e-07
9.182726e-07
1.0157213e-06
1.1240778e-06
1.242355e-06
1.3697455e-06
1.5043299e-06
1.6431504e-06
1.7832828e-06
1.9203865e-06
2.04855e-06
2.1627284e-06
2.2601287e-06
2.3406755e-06
2.4059827e-06
2.4587486e-06
2.4999582e-06
2.5316843e-06
2.5562097e-06
2.5753232e-06
2.5903862e-06
2.6023708e-06
2.6119768e-06
2.6197071e-06
2.6258995e-06
2.6307543e-06
2.6344708e-06
2.6371969e-06
2.638978e-06
2.6398131e-06
2.6394795e-06
2.6356962e-06
2.629564e-06
2.621838e-06
2.6127499e-06
2.6023649e-06
2.5907188e-06
2.577902e-06
2.5639915e-06
2.5491017e-06
2.5333371e-06
2.5168056e-06
2.4996199e-06
2.4818735e-06
2.4636605e-06
2.4450656e-06
2.4261663e-06
2.4070404e-06
2.3876573e-06
2.368278e-06
2.3485554e-06
2.3266094e-06
2.3112353e-06
2.2731197e-06
5.0846969e-07
9.5914794e-07
1.1797835e-06
1.2284463e-06
1.2003926e-06
1.1428719e-06
1.0803734e-06
1.0213186e-06
9.6984828e-07
9.3004525e-07
9.0609331e-07
9.0231899e-07
9.0576717e-07
8.5767263e-07
8.219732e-07
7.9456065e-07
7.7455786e-07
7.6006368e-07
7.5005157e-07
7.4388543e-07
7.4116397e-07
7.4160206e-07
7.4503158e-07
7.5129388e-07
7.5986099e-07
7.7021958e-07
7.822348e-07
7.9612407e-07
8.1227772e-07
8.3117399e-07
8.5336202e-07
8.7945744e-07
9.1013314e-07
9.4612117e-07
9.882197e-07
1.0372849e-06
1.0942861e-06
1.1604959e-06
1.237505e-06
1.3272106e-06
1.4318122e-06
1.553831e-06
1.6961383e-06
1.8619572e-06
2.0548878e-06
2.2783185e-06
2.5344895e-06
2.8250445e-06
3.1504471e-06
3.5100714e-06
3.9019946e-06
4.320303e-06
4.7616904e-06
5.2184418e-06
5.682108e-06
6.1410384e-06
6.580105e-06
6.9853785e-06
7.347836e-06
7.6645936e-06
7.9382272e-06
8.172631e-06
8.370429e-06
8.5386007e-06
8.6835674e-06
8.8106199e-06
8.9239068e-06
9.0264783e-06
9.1205165e-06
9.2075621e-06
9.2886463e-06
9.3643672e-06
9.4352389e-06
9.5016569e-06
9.5637234e-06
9.6213691e-06
9.6741139e-06
9.7002074e-06
9.7153459e-06
9.7242245e-06
9.7275618e-06
9.7256204e-06
9.7185662e-06
9.7067256e-06
9.6903992e-06
9.6699922e-06
9.6458813e-06
9.6184459e-06
9.5880783e-06
9.5551109e-06
9.5198642e-06
9.482646e-06
9.4437215e-06
9.4034e-06
9.3615252e-06
9.3192766e-06
9.2746637e-06
9.2242066e-06
9.189926e-06
9.0977409e-06
2.2507548e-07
4.2726544e-07
6.9864304e-07
8.9331132e-07
9.8968321e-07
1.0235077e-06
1.0250284e-06
1.0107389e-06
9.8910763e-07
9.6534194e-07
9.4375461e-07
9.2874898e-07
9.2200343e-07
9.2305462e-07
9.3202355e-07
9.4901147e-07
9.6932828e-07
9.5335284e-07
9.2973215e-07
9.1688641e-07
9.1370102e-07
9.1852804e-07
9.3044917e-07
9.488381e-07
9.7333603e-07
1.0037754e-06
1.0384926e-06
1.0775469e-06
1.1214802e-06
1.1708252e-06
1.2261844e-06
1.2882922e-06
1.3580589e-06
1.436606e-06
1.5252993e-06
1.6257525e-06
1.7396051e-06
1.8684901e-06
2.0151649e-06
2.1829595e-06
2.3756754e-06
2.5975864e-06
2.8534748e-06
3.1486677e-06
3.4889433e-06
3.8792579e-06
4.3214898e-06
4.8170209e-06
5.3664378e-06
5.9695463e-06
6.624685e-06
7.3268583e-06
8.0667139e-06
8.8346037e-06
9.6198502e-06
1.0408642e-05
1.1177168e-05
1.190219e-05
1.2569003e-05
1.3171529e-05
1.3708553e-05
1.4182775e-05
1.4600494e-05
1.4970114e-05
1.5300239e-05
1.5598531e-05
1.5871443e-05
1.6124048e-05
1.6360135e-05
1.6582469e-05
1.6792878e-05
1.6992326e-05
1.7181979e-05
1.7362603e-05
1.7534361e-05
1.7697056e-05
1.784982e-05
1.7986849e-05
1.8108112e-05
1.8215122e-05
1.8308947e-05
1.8390186e-05
1.8459189e-05
1.8516532e-05
1.8562851e-05
1.8598953e-05
1.8625664e-05
1.86438e-05
1.8654223e-05
1.8657697e-05
1.8654881e-05
1.8646503e-05
1.8633208e-05
1.8615648e-05
1.8593866e-05
1.8569447e-05
1.8540921e-05
1.8499847e-05
1.8478936e-05
1.8401855e-05
1.7530535e-07
2.1588713e-07
3.1857285e-07
4.6495443e-07
6.0525656e-07
7.1033803e-07
7.7987511e-07
8.2291965e-07
8.4803142e-07
8.612922e-07
8.6698864e-07
8.6870459e-07
8.6924236e-07
8.7063323e-07
8.7463773e-07
8.8293433e-07
8.9636439e-07
9.1557046e-07
9.4165792e-07
9.7588826e-07
1.0156879e-06
1.0618829e-06
1.0571115e-06
1.0563128e-06
1.0671438e-06
1.0882951e-06
1.1197435e-06
1.1617968e-06
1.2149395e-06
1.2798788e-06
1.3575845e-06
1.4493865e-06
1.5572111e-06
1.6840857e-06
1.8350831e-06
2.0182343e-06
2.2360393e-06
2.4752614e-06
2.7408785e-06
3.0385672e-06
3.3741188e-06
3.753645e-06
4.18389e-06
4.6727423e-06
5.2302008e-06
5.855545e-06
6.5395391e-06
7.2800413e-06
8.0787373e-06
8.9367603e-06
9.8531527e-06
1.0823366e-05
1.1837593e-05
1.2882452e-05
1.3946678e-05
1.4998148e-05
1.600601e-05
1.6955001e-05
1.7838644e-05
1.8656261e-05
1.9410116e-05
2.0103336e-05
2.074057e-05
2.1328049e-05
2.1872417e-05
2.2380131e-05
2.2857297e-05
2.3309077e-05
2.3739506e-05
2.415172e-05
2.4546792e-05
2.4924307e-05
2.5289073e-05
2.5641796e-05
2.5982275e-05
2.630981e-05
2.6622709e-05
2.6919157e-05
2.7195937e-05
2.7451654e-05
2.7686224e-05
2.7899891e-05
2.8092876e-05
2.8265746e-05
2.8419279e-05
2.8554545e-05
2.8672732e-05
2.8775069e-05
2.8862903e-05
2.8937492e-05
2.8999306e-05
2.9050078e-05
2.9091068e-05
2.9123323e-05
2.9147302e-05
2.91646e-05
2.9175579e-05
2.9165225e-05
2.9175194e-05
2.9133533e-05
1.6890581e-07
1.7480138e-07
1.962274e-07
2.4159408e-07
3.0836804e-07
3.8394433e-07
4.5673819e-07
5.2097341e-07
5.7523138e-07
6.199799e-07
6.5626902e-07
6.8543446e-07
7.08948e-07
7.282602e-07
7.4482622e-07
7.6012386e-07
7.754903e-07
7.9216336e-07
8.1147615e-07
8.3492947e-07
8.6348073e-07
8.984894e-07
9.4054094e-07
9.8989663e-07
1.0450615e-06
1.1061844e-06
1.1742173e-06
1.2083783e-06
1.2333208e-06
1.2729604e-06
1.3285839e-06
1.4020818e-06
1.4959201e-06
1.6131126e-06
1.7575919e-06
1.9348548e-06
2.1514585e-06
2.4125377e-06
2.7239203e-06
3.092805e-06
3.5278042e-06
4.0393354e-06
4.6408087e-06
5.3516516e-06
6.2045128e-06
6.9697736e-06
7.8052243e-06
8.762809e-06
9.8401622e-06
1.1031013e-05
1.2322538e-05
1.3691385e-05
1.5104243e-05
1.6564452e-05
1.8074052e-05
1.9178403e-05
2.0096026e-05
2.1003936e-05
2.1905157e-05
2.2798516e-05
2.3678993e-05
2.4541644e-05
2.5382798e-05
2.6199896e-05
2.6991408e-05
2.7757857e-05
2.850104e-05
2.9222575e-05
2.9924051e-05
3.0607224e-05
3.1273334e-05
3.1922652e-05
3.2555662e-05
3.3172442e-05
3.3772177e-05
3.4353557e-05
3.4914131e-05
3.5452178e-05
3.5964627e-05
3.6448552e-05
3.6902297e-05
3.7325173e-05
3.7716933e-05
3.8077922e-05
3.8408909e-05
3.8711103e-05
3.8985963e-05
3.9235093e-05
3.946034e-05
3.9663508e-05
3.9846305e-05
4.0010477e-05
4.0157669e-05
4.0289373e-05
4.0406715e-05
4.0511003e-05
4.0605379e-05
4.0668747e-05
4.0745349e-05
4.0789854e-05
1.6818096e-07
1.6866176e-07
1.7195807e-07
1.8126117e-07
1.9895654e-07
2.249045e-07
2.5728796e-07
2.9358926e-07
3.3182927e-07
3.7054932e-07
4.0858634e-07
4.4502819e-07
4.7927239e-07
5.1100057e-07
5.4019083e-07
5.6710504e-07
5.9219993e-07
6.1605795e-07
6.39405e-07
6.6313037e-07
6.8816087e-07
7.1555782e-07
7.4640015e-07
7.8175647e-07
8.2238709e-07
8.6923474e-07
9.236093e-07
9.8588541e-07
1.0558979e-06
1.1348392e-06
1.2244143e-06
1.3267677e-06
1.4276374e-06
1.4948718e-06
1.5856933e-06
1.7047949e-06
1.8584515e-06
2.0547251e-06
2.303391e-06
2.6161096e-06
3.00693e-06
3.4927079e-06
4.0933975e-06
4.8324522e-06
5.738499e-06
6.7100814e-06
7.7079209e-06
8.8174463e-06
1.0050135e-05
1.1406132e-05
1.287018e-05
1.4407389e-05
1.5972233e-05
1.7627349e-05
1.9393287e-05
2.06701e-05
2.1768844e-05
2.2850195e-05
2.3924702e-05
2.5000762e-05
2.6080775e-05
2.7165695e-05
2.8250649e-05
2.9330243e-05
3.0401038e-05
3.1461847e-05
3.2511148e-05
3.3546773e-05
3.4568163e-05
3.5575619e-05
3.6568711e-05
3.7546664e-05
3.8508549e-05
3.9453076e-05
4.0377963e-05
4.1280758e-05
4.215801e-05
4.3006623e-05
4.3823496e-05
4.4605143e-05
4.5348565e-05
4.605177e-05
4.6713612e-05
4.7333802e-05
4.7912764e-05
4.8451541e-05
4.8951559e-05
4.9414549e-05
4.9842693e-05
5.0238211e-05
5.0603513e-05
5.094078e-05
5.1252093e-05
5.1539353e-05
5.1804476e-05
5.2048298e-05
5.2276944e-05
5.2465331e-05
5.2652685e-05
5.2845383e-05
1.6814553e-07
1.6787292e-07
1.680324e-07
1.69347e-07
1.7271414e-07
1.7877394e-07
1.8775815e-07
1.9961263e-07
2.1419976e-07
2.3140239e-07
2.5108601e-07
2.7275713e-07
2.9594674e-07
3.2018182e-07
3.45026e-07
3.7012956e-07
3.952449e-07
4.2022569e-07
4.4505146e-07
4.698488e-07
4.9487281e-07
5.2051111e-07
5.4728439e-07
5.7583875e-07
6.0687893e-07
6.4121142e-07
6.7982297e-07
7.2368914e-07
7.7370114e-07
8.3101918e-07
8.9719259e-07
9.7365442e-07
1.0619177e-06
1.1633446e-06
1.2801452e-06
1.4151926e-06
1.5722804e-06
1.7565518e-06
1.9284585e-06
2.1213616e-06
2.3730848e-06
2.7009624e-06
3.1275354e-06
3.6821447e-06
4.401807e-06
5.3211701e-06
6.2976445e-06
7.365624e-06
8.5760106e-06
9.9380859e-06
1.14535e-05
1.3111499e-05
1.4888236e-05
1.6777246e-05
1.8775211e-05
2.0624634e-05
2.1909477e-05
2.3189933e-05
2.443844e-05
2.5675533e-05
2.693382e-05
2.8217724e-05
2.9509254e-05
3.0810551e-05
3.2127683e-05
3.3456171e-05
3.4790404e-05
3.6127072e-05
3.7465501e-05
3.8803534e-05
4.0137346e-05
4.1464855e-05
4.2784216e-05
4.4092028e-05
4.53832e-05
4.6653334e-05
4.7897143e-05
4.9109391e-05
5.0285999e-05
5.1422829e-05
5.25157e-05
5.3561294e-05
5.455726e-05
5.5502184e-05
5.6395739e-05
5.7238392e-05
5.8031074e-05
5.8775263e-05
5.9473157e-05
6.0127113e-05
6.0739826e-05
6.1313895e-05
6.1851765e-05
6.2355651e-05
6.282825e-05
6.3269839e-05
6.3689199e-05
6.405976e-05
6.4409538e-05
6.48205e-05
1.6818983e-07
1.6781414e-07
1.6749277e-07
1.6735572e-07
1.6761842e-07
1.6851655e-07
1.7024692e-07
1.7296372e-07
1.7680648e-07
1.8191544e-07
1.884218e-07
1.9640433e-07
2.0589492e-07
2.1687614e-07
2.2936194e-07
2.433035e-07
2.5853058e-07
2.7488412e-07
2.9223614e-07
3.1049767e-07
3.29628e-07
3.4964717e-07
3.7064805e-07
3.9280977e-07
4.1639587e-07
4.4176369e-07
4.6939279e-07
4.998743e-07
5.3389145e-07
5.7226518e-07
6.1602356e-07
6.6635919e-07
7.2465556e-07
7.9248513e-07
8.7180389e-07
9.6457702e-07
1.0735379e-06
1.2022759e-06
1.3545704e-06
1.5353265e-06
1.7515429e-06
2.0125831e-06
2.3306593e-06
2.7214169e-06
3.1865081e-06
3.7660886e-06
4.519473e-06
5.3773308e-06
6.3845381e-06
7.5555847e-06
8.9028427e-06
1.0432555e-05
1.2141126e-05
1.4023242e-05
1.6074498e-05
1.8246018e-05
2.0452701e-05
2.2483588e-05
2.3873486e-05
2.525558e-05
2.6660276e-05
2.8074657e-05
2.9489095e-05
3.0935608e-05
3.2434845e-05
3.3955749e-05
3.5498196e-05
3.7071663e-05
3.8672523e-05
4.0293436e-05
4.1929959e-05
4.3581985e-05
4.5244875e-05
4.6912099e-05
4.8574873e-05
5.0226036e-05
5.1857047e-05
5.3460336e-05
5.5030142e-05
5.6560561e-05
5.8045874e-05
5.9481451e-05
6.0863298e-05
6.2188284e-05
6.3454832e-05
6.4662262e-05
6.5810386e-05
6.6899894e-05
6.7932447e-05
6.8910075e-05
6.9835312e-05
7.0710843e-05
7.1539276e-05
7.2322953e-05
7.3065203e-05
7.376569e-05
7.4435245e-05
7.5047911e-05
7.5616769e-05
7.6319998e-05
1.6824337e-07
1.6785078e-07
1.6745959e-07
1.6708843e-07
1.6677827e-07
1.6658709e-07
1.6657967e-07
1.6682338e-07
1.6739134e-07
1.6836553e-07
1.6983544e-07
1.7189191e-07
1.746229e-07
1.7810875e-07
1.8242567e-07
1.8764074e-07
1.9380163e-07
2.0093906e-07
2.0907169e-07
2.1821227e-07
2.2840076e-07
2.3972153e-07
2.5219312e-07
2.6582226e-07
2.8066041e-07
2.9681407e-07
3.1445358e-07
3.3382699e-07
3.5526693e-07
3.7919721e-07
4.0615912e-07
4.368285e-07
4.7204199e-07
5.1282491e-07
5.6045437e-07
6.1643623e-07
6.8265551e-07
7.6153617e-07
8.5602213e-07
9.6946339e-07
1.1064505e-06
1.2730268e-06
1.4771538e-06
1.729276e-06
2.0426186e-06
2.433671e-06
2.9206302e-06
3.5194441e-06
4.2474496e-06
5.12319e-06
6.1658339e-06
7.3934202e-06
8.8200081e-06
1.0455714e-05
1.2307905e-05
1.4363709e-05
1.6578962e-05
1.8899861e-05
2.1256465e-05
2.3634047e-05
2.5606015e-05
2.7113829e-05
2.8631149e-05
3.0183744e-05
3.1769859e-05
3.3372551e-05
3.5019076e-05
3.6742165e-05
3.8508626e-05
4.0313343e-05
4.2167993e-05
4.4074022e-05
4.6017327e-05
4.7988115e-05
4.9978621e-05
5.197791e-05
5.3973473e-05
5.5956912e-05
5.7919822e-05
5.9852645e-05
6.1747859e-05
6.3598972e-05
6.5399245e-05
6.7143222e-05
6.8827329e-05
7.0448803e-05
7.2005645e-05
7.349699e-05
7.4923086e-05
7.6284919e-05
7.7584272e-05
7.8823342e-05
8.0004561e-05
8.1130043e-05
8.2203479e-05
8.3223824e-05
8.4203266e-05
8.5117824e-05
8.596445e-05
8.7033848e-05
1.6834507e-07
1.6795292e-07
1.6755447e-07
1.6715109e-07
1.6674925e-07
1.6636042e-07
1.6600045e-07
1.6568896e-07
1.6544982e-07
1.653119e-07
1.6530953e-07
1.6548212e-07
1.6587369e-07
1.6653189e-07
1.6750751e-07
1.688538e-07
1.7062485e-07
1.7287392e-07
1.7565276e-07
1.7901168e-07
1.8300211e-07
1.8768025e-07
1.9310088e-07
1.9931769e-07
2.0638838e-07
2.1438014e-07
2.2338218e-07
2.3355567e-07
2.4510384e-07
2.5818874e-07
2.7300826e-07
2.8984905e-07
3.0910288e-07
3.3128574e-07
3.5707101e-07
3.8730305e-07
4.230429e-07
4.6565294e-07
5.1687186e-07
5.7885975e-07
6.5441829e-07
7.472421e-07
8.6219792e-07
1.0056289e-06
1.1860485e-06
1.4146146e-06
1.7052265e-06
2.073555e-06
2.5371369e-06
3.1152715e-06
3.8288437e-06
4.6998391e-06
5.7502822e-06
7.0014582e-06
8.473761e-06
1.0180197e-05
1.2116135e-05
1.4259294e-05
1.6565593e-05
1.8999987e-05
2.1510366e-05
2.4053993e-05
2.6628431e-05
2.8806685e-05
3.046122e-05
3.2134503e-05
3.3856171e-05
3.5628606e-05
3.7435977e-05
3.9303002e-05
4.1271372e-05
4.3314165e-05
4.5416386e-05
4.7585092e-05
4.9809118e-05
5.2070932e-05
5.4360325e-05
5.6669615e-05
5.8984196e-05
6.1290622e-05
6.3580443e-05
6.5843052e-05
6.8067663e-05
7.0246415e-05
7.2372575e-05
7.4439912e-05
7.6443758e-05
7.8380659e-05
8.0248386e-05
8.2046e-05
8.3773709e-05
8.5432422e-05
8.702376e-05
8.8549095e-05
9.0012053e-05
9.1410641e-05
9.2757709e-05
9.4031813e-05
9.5214825e-05
9.6720999e-05
1.6852019e-07
1.6817111e-07
1.678085e-07
1.6743191e-07
1.6704274e-07
1.6664368e-07
1.6623881e-07
1.6583353e-07
1.6543467e-07
1.6505072e-07
1.6469223e-07
1.6437208e-07
1.6410582e-07
1.6391183e-07
1.6381138e-07
1.6382874e-07
1.6399113e-07
1.6432844e-07
1.64873e-07
1.6565947e-07
1.6672479e-07
1.6810849e-07
1.6985256e-07
1.7200141e-07
1.7460214e-07
1.777054e-07
1.8136792e-07
1.8565954e-07
1.9066604e-07
1.9648443e-07
2.0322836e-07
2.1103794e-07
2.2009171e-07
2.3066331e-07
2.4313161e-07
2.5784758e-07
2.7524151e-07
2.9591665e-07
3.2069093e-07
3.5064768e-07
3.8720907e-07
4.3225659e-07
4.8830327e-07
5.587239e-07
6.4813406e-07
7.6287674e-07
9.1148313e-07
1.1049216e-06
1.3570607e-06
1.6847817e-06
2.1079345e-06
2.6489609e-06
3.332126e-06
4.182558e-06
5.2257167e-06
6.4855049e-06
7.9795368e-06
9.7151282e-06
1.1683907e-05
1.3869566e-05
1.6241038e-05
1.8759978e-05
2.140085e-05
2.4120605e-05
2.6880037e-05
2.9682718e-05
3.2159537e-05
3.3990185e-05
3.5843925e-05
3.7759426e-05
3.9741233e-05
4.1770458e-05
4.3879472e-05
4.6121904e-05
4.8442872e-05
5.0833123e-05
5.3305867e-05
5.5841812e-05
5.8418133e-05
6.1025647e-05
6.3653728e-05
6.6283353e-05
6.8901465e-05
7.1497955e-05
7.4060606e-05
7.6578914e-05
7.9044675e-05
8.145042e-05
8.3790394e-05
8.6060734e-05
8.8258892e-05
9.0383406e-05
9.2434096e-05
9.4410791e-05
9.631632e-05
9.8147214e-05
9.9916222e-05
0.00010160426
0.00010318114
0.00010518928
1.6867635e-07
1.6839176e-07
1.6809268e-07
1.6777764e-07
1.6744653e-07
1.6710003e-07
1.6673945e-07
1.6636657e-07
1.6598347e-07
1.655925e-07
1.6519648e-07
1.6479891e-07
1.6440422e-07
1.6401803e-07
1.6364731e-07
1.6330057e-07
1.6298804e-07
1.6272181e-07
1.6251588e-07
1.6238635e-07
1.6235143e-07
1.6243157e-07
1.6264956e-07
1.6303065e-07
1.6360262e-07
1.6439595e-07
1.6544435e-07
1.667859e-07
1.6846425e-07
1.7052934e-07
1.7303911e-07
1.7606191e-07
1.7967975e-07
1.8399765e-07
1.8915343e-07
1.9531306e-07
2.0267929e-07
2.1151063e-07
2.2216046e-07
2.3518416e-07
2.5119253e-07
2.7089689e-07
2.9531917e-07
3.2590079e-07
3.6467169e-07
4.1448676e-07
4.7935386e-07
5.6485354e-07
6.7871759e-07
8.3148927e-07
1.0371987e-06
1.3139312e-06
1.6842238e-06
2.1746014e-06
2.81438e-06
3.633541e-06
4.6594387e-06
5.9132509e-06
7.406922e-06
9.1447919e-06
1.1121804e-05
1.3323724e-05
1.573439e-05
1.8326527e-05
2.1065315e-05
2.3930565e-05
2.6887997e-05
2.9894876e-05
3.2959581e-05
3.5739078e-05
3.7771185e-05
3.9819747e-05
4.1937628e-05
4.4134627e-05
4.6391322e-05
4.875901e-05
5.1282349e-05
5.3892646e-05
5.6588693e-05
5.938038e-05
6.2238091e-05
6.5137952e-05
6.8072918e-05
7.1026067e-05
7.3977386e-05
7.6914082e-05
7.9822468e-05
8.2689805e-05
8.5506253e-05
8.8263713e-05
9.0955343e-05
9.3575979e-05
9.6122327e-05
9.8591448e-05
0.00010098422
0.00010329482
0.00010553487
0.00010768684
0.00010971296
0.00011228089
1.6876852e-07
1.6852889e-07
1.6827894e-07
1.6801688e-07
1.6774179e-07
1.6745328e-07
1.6715153e-07
1.6683707e-07
1.6651057e-07
1.6617266e-07
1.6582395e-07
1.6546511e-07
1.65097e-07
1.6472081e-07
1.6433817e-07
1.6395124e-07
1.6356288e-07
1.6317673e-07
1.6279735e-07
1.6243034e-07
1.6208249e-07
1.6176188e-07
1.6147804e-07
1.6124209e-07
1.6106685e-07
1.6096703e-07
1.6095938e-07
1.61063e-07
1.6129972e-07
1.6169447e-07
1.6227591e-07
1.6307729e-07
1.6413732e-07
1.6550225e-07
1.6722869e-07
1.6938598e-07
1.7205899e-07
1.7535323e-07
1.7940401e-07
1.8439654e-07
1.9056776e-07
1.9821621e-07
2.0773731e-07
2.1968901e-07
2.3496233e-07
2.5459758e-07
2.8001192e-07
3.1334146e-07
3.5774081e-07
4.1780979e-07
5.0018145e-07
6.1435039e-07
7.7377009e-07
9.970422e-07
1.3088542e-06
1.7400003e-06
2.3257538e-06
3.101229e-06
4.0952061e-06
5.3264629e-06
6.8034609e-06
8.526819e-06
1.0494592e-05
1.2700297e-05
1.5130549e-05
1.7771798e-05
2.0601666e-05
2.358603e-05
2.6707774e-05
2.9937571e-05
3.3229108e-05
3.6593722e-05
3.9601459e-05
4.1822072e-05
4.407753e-05
4.6419645e-05
4.8850827e-05
5.13497e-05
5.4010654e-05
5.6837334e-05
5.9754317e-05
6.277742e-05
6.5905264e-05
6.9099165e-05
7.2339164e-05
7.5614424e-05
7.8900071e-05
8.2180077e-05
8.5440316e-05
8.8666279e-05
9.1845638e-05
9.496807e-05
9.8025743e-05
0.00010101127
0.00010392212
0.00010674882
0.00010950044
0.00011215975
0.00011468608
0.00011786165
1.688148e-07
1.6859852e-07
1.6837561e-07
1.6814466e-07
1.6790468e-07
1.6765501e-07
1.6739535e-07
1.6712576e-07
1.6684643e-07
1.6655754e-07
1.6625917e-07
1.6595132e-07
1.6563393e-07
1.6530699e-07
1.6497057e-07
1.6462488e-07
1.6427028e-07
1.6390742e-07
1.6353721e-07
1.6316097e-07
1.6278045e-07
1.6239796e-07
1.6201644e-07
1.6163955e-07
1.6127182e-07
1.6091873e-07
1.6058688e-07
1.6028408e-07
1.6001959e-07
1.5980427e-07
1.5965086e-07
1.5957429e-07
1.5959206e-07
1.5972476e-07
1.5999691e-07
1.6043796e-07
1.6108345e-07
1.6197662e-07
1.6317096e-07
1.6473472e-07
1.6675508e-07
1.6934326e-07
1.7264376e-07
1.7684995e-07
1.8223732e-07
1.8917561e-07
1.9817037e-07
2.0994612e-07
2.2567922e-07
2.470471e-07
2.7629493e-07
3.1693795e-07
3.7438241e-07
4.5683091e-07
5.7654844e-07
7.5151105e-07
1.007127e-06
1.3768913e-06
1.9003411e-06
2.6174466e-06
3.5611106e-06
4.7510294e-06
6.1946237e-06
7.8918658e-06
9.8398353e-06
1.2037032e-05
1.4479923e-05
1.7156899e-05
2.0056223e-05
2.3158097e-05
2.6427317e-05
2.9848056e-05
3.33874e-05
3.6999297e-05
4.0697391e-05
4.3790184e-05
4.6219286e-05
4.870055e-05
5.1288926e-05
5.3969528e-05
5.6738518e-05
5.9725687e-05
6.2874583e-05
6.6131672e-05
6.9508858e-05
7.2988343e-05
7.6529595e-05
8.0122842e-05
8.3746779e-05
8.737775e-05
9.099889e-05
9.4592711e-05
9.8145996e-05
0.00010164484
0.00010508203
0.00010844284
0.00011173186
0.00011493088
0.00011799835
0.00012181522
1.6883651e-07
1.68631e-07
1.6842092e-07
1.6820533e-07
1.6798346e-07
1.6775472e-07
1.6751876e-07
1.6727548e-07
1.6702498e-07
1.6676732e-07
1.6650253e-07
1.6623051e-07
1.6595111e-07
1.6566415e-07
1.6536939e-07
1.6506663e-07
1.6475567e-07
1.6443636e-07
1.6410861e-07
1.6377241e-07
1.634279e-07
1.6307536e-07
1.6271527e-07
1.6234837e-07
1.6197572e-07
1.6159874e-07
1.6121931e-07
1.6083984e-07
1.6046336e-07
1.6009364e-07
1.5973531e-07
1.5939401e-07
1.5907654e-07
1.5879111e-07
1.5854759e-07
1.5835787e-07
1.5823632e-07
1.5820033e-07
1.582711e-07
1.5847485e-07
1.5884431e-07
1.5942064e-07
1.6025623e-07
1.6141907e-07
1.6300007e-07
1.6512183e-07
1.679516e-07
1.7172334e-07
1.7678565e-07
1.8365291e-07
1.930679e-07
2.0615614e-07
2.2478841e-07
2.5180245e-07
2.9138191e-07
3.503293e-07
4.3944025e-07
5.7529798e-07
7.8221168e-07
1.0934617e-06
1.5502863e-06
2.1970207e-06
3.072441e-06
4.202218e-06
5.5965699e-06
7.2558754e-06
9.1781952e-06
1.1362289e-05
1.3809689e-05
1.651985e-05
1.9481533e-05
2.2683034e-05
2.6101908e-05
2.9700797e-05
3.3464678e-05
3.7346024e-05
4.1311963e-05
4.5376619e-05
4.8389321e-05
5.103664e-05
5.3764689e-05
5.661613e-05
5.9556699e-05
6.2670045e-05
6.6003862e-05
6.9489694e-05
7.3110112e-05
7.6863353e-05
8.0714174e-05
8.463121e-05
8.8597088e-05
9.2583496e-05
9.6572868e-05
0.00010054258
0.00010448044
0.0001083643
0.00011219238
0.00011594456
0.00011957366
0.00012404484
1.6884602e-07
1.6864513e-07
1.6844067e-07
1.6823201e-07
1.6801864e-07
1.6780007e-07
1.6757602e-07
1.673464e-07
1.6711126e-07
1.6687068e-07
1.666247e-07
1.6637329e-07
1.6611637e-07
1.658538e-07
1.655854e-07
1.6531099e-07
1.6503034e-07
1.6474324e-07
1.6444945e-07
1.6414874e-07
1.6384089e-07
1.6352571e-07
1.6320305e-07
1.6287281e-07
1.6253496e-07
1.6218959e-07
1.6183692e-07
1.6147733e-07
1.6111143e-07
1.607401e-07
1.6036451e-07
1.5998627e-07
1.5960743e-07
1.5923063e-07
1.5885917e-07
1.584972e-07
1.5814984e-07
1.5782344e-07
1.5752581e-07
1.5726661e-07
1.5705786e-07
1.5691453e-07
1.5685542e-07
1.5690451e-07
1.5709278e-07
1.5746104e-07
1.5806398e-07
1.5897644e-07
1.6030469e-07
1.62203e-07
1.6489686e-07
1.6872406e-07
1.7421747e-07
1.8221375e-07
1.9401684e-07
2.1173883e-07
2.3911042e-07
2.8173164e-07
3.487026e-07
4.545411e-07
6.2121633e-07
8.7989646e-07
1.2710728e-06
1.8414304e-06
2.6364393e-06
3.6905375e-06
5.0215707e-06
6.6332877e-06
8.5239998e-06
1.0694243e-05
1.3146422e-05
1.5885001e-05
1.8909506e-05
2.2206446e-05
2.576254e-05
2.9545914e-05
3.3520171e-05
3.7671403e-05
4.1926117e-05
4.6278784e-05
5.0561051e-05
5.3455252e-05
5.6334851e-05
5.9334109e-05
6.2457369e-05
6.5687163e-05
6.9197275e-05
7.2903236e-05
7.678155e-05
8.0806752e-05
8.4960483e-05
8.9202015e-05
9.3512044e-05
9.785889e-05
0.00010222542
0.00010657972
0.00011091238
0.00011520061
0.00011937762
0.00012448616
1.6884958e-07
1.6865045e-07
1.6844821e-07
1.6824246e-07
1.6803281e-07
1.6781891e-07
1.6760053e-07
1.6737761e-07
1.6715017e-07
1.6691831e-07
1.666821e-07
1.6644155e-07
1.6619665e-07
1.6594734e-07
1.6569353e-07
1.6543512e-07
1.6517197e-07
1.6490394e-07
1.6463086e-07
1.6435256e-07
1.6406885e-07
1.6377952e-07
1.6348437e-07
1.6318319e-07
1.6287576e-07
1.6256191e-07
1.6224144e-07
1.6191421e-07
1.6158013e-07
1.6123917e-07
1.608914e-07
1.6053698e-07
1.6017625e-07
1.5980974e-07
1.594382e-07
1.5906269e-07
1.5868463e-07
1.5830591e-07
1.5792893e-07
1.575568e-07
1.5719348e-07
1.5684397e-07
1.5651462e-07
1.5621352e-07
1.55951e-07
1.557405e-07
1.555997e-07
1.5555237e-07
1.5563123e-07
1.5588261e-07
1.5637341e-07
1.5720248e-07
1.585211e-07
1.605657e-07
1.6370979e-07
1.685578e-07
1.7613867e-07
1.8813483e-07
2.0734285e-07
2.38652e-07
2.8974904e-07
3.7284609e-07
5.0702241e-07
7.2027473e-07
1.0508239e-06
1.5457338e-06
2.2554515e-06
3.2243284e-06
4.4809267e-06
6.036692e-06
7.8922772e-06
1.0047612e-05
1.2507325e-05
1.5276941e-05
1.8362376e-05
2.1758628e-05
2.5448365e-05
2.9415719e-05
3.3612082e-05
3.8006599e-05
4.2576957e-05
4.723553e-05
5.2005801e-05
5.5897786e-05
5.900931e-05
6.2160016e-05
6.5465879e-05
6.8875817e-05
7.2531874e-05
7.6444667e-05
8.0562457e-05
8.4861362e-05
8.9310512e-05
9.3881901e-05
9.85469e-05
0.00010326538
0.00010801965
0.00011278114
0.00011745169
0.00012313209
1.6885029e-07
1.6865163e-07
1.6845007e-07
1.6824533e-07
1.6803715e-07
1.6782526e-07
1.6760947e-07
1.6738973e-07
1.6716607e-07
1.6693855e-07
1.6670726e-07
1.6647225e-07
1.6623353e-07
1.659911e-07
1.6574493e-07
1.6549497e-07
1.6524117e-07
1.6498346e-07
1.6472175e-07
1.6445594e-07
1.6418594e-07
1.6391161e-07
1.6363283e-07
1.6334945e-07
1.630613e-07
1.6276823e-07
1.6247005e-07
1.6216658e-07
1.6185764e-07
1.6154303e-07
1.6122259e-07
1.6089617e-07
1.6056362e-07
1.6022488e-07
1.5987991e-07
1.5952878e-07
1.5917166e-07
1.5880884e-07
1.5844083e-07
1.5806834e-07
1.5769235e-07
1.5731425e-07
1.5693583e-07
1.5655948e-07
1.5618832e-07
1.5582646e-07
1.5547929e-07
1.5515403e-07
1.5486049e-07
1.5461234e-07
1.5442901e-07
1.5433882e-07
1.5438425e-07
1.5463078e-07
1.5518144e-07
1.5620227e-07
1.5797053e-07
1.6095013e-07
1.6592334e-07
1.7424724e-07
1.8820601e-07
2.1161455e-07
2.5107065e-07
3.1680072e-07
4.2497524e-07
6.0016619e-07
8.7733964e-07
1.302346e-06
1.9286038e-06
2.8089183e-06
3.9847434e-06
5.4778994e-06
7.2950476e-06
9.4364614e-06
1.1906264e-05
1.4712826e-05
1.7863168e-05
2.1362337e-05
2.519483e-05
2.9338118e-05
3.3767975e-05
3.8421742e-05
4.3278021e-05
4.8271245e-05
5.336945e-05
5.8444801e-05
6.1812536e-05
6.5159485e-05
6.8617781e-05
7.2219981e-05
7.6016863e-05
8.0138343e-05
8.4474837e-05
8.9060152e-05
9.3823735e-05
9.8737835e-05
0.0001037684
0.00010888083
0.00011395395
0.00012006477
1.688497e-07
1.6865094e-07
1.6844936e-07
1.6824479e-07
1.6803704e-07
1.6782589e-07
1.676112e-07
1.6739292e-07
1.6717106e-07
1.6694568e-07
1.6671686e-07
1.6648465e-07
1.6624907e-07
1.6601016e-07
1.6576792e-07
1.6552234e-07
1.6527341e-07
1.650211e-07
1.6476538e-07
1.6450621e-07
1.6424354e-07
1.6397733e-07
1.637075e-07
1.6343398e-07
1.6315669e-07
1.6287553e-07
1.625904e-07
1.6230118e-07
1.6200775e-07
1.6170996e-07
1.6140767e-07
1.6110072e-07
1.6078895e-07
1.604722e-07
1.6015032e-07
1.5982314e-07
1.5949053e-07
1.591524e-07
1.5880867e-07
1.5845936e-07
1.5810452e-07
1.5774433e-07
1.5737912e-07
1.5700936e-07
1.5663576e-07
1.5625933e-07
1.5588146e-07
1.5550405e-07
1.5512975e-07
1.5476227e-07
1.544069e-07
1.5407134e-07
1.5376706e-07
1.5351158e-07
1.5333237e-07
1.5327344e-07
1.5340753e-07
1.5385683e-07
1.548288e-07
1.5668317e-07
1.6004184e-07
1.659733e-07
1.7634037e-07
1.9426469e-07
2.249518e-07
2.7727121e-07
3.6476343e-07
5.0868679e-07
7.4050239e-07
1.1036456e-06
1.6526532e-06
2.4468548e-06
3.5395273e-06
4.9664947e-06
6.74275e-06
8.8719252e-06
1.1356609e-05
1.420676e-05
1.7431901e-05
2.1037136e-05
2.5020841e-05
2.9353979e-05
3.4009758e-05
3.8936566e-05
4.4087196e-05
4.943672e-05
5.4878267e-05
6.0443411e-05
6.4710479e-05
6.8294796e-05
7.1934989e-05
7.5736197e-05
7.9677994e-05
8.4012889e-05
8.860252e-05
9.3478093e-05