/*--------------------------------*- C++ -*----------------------------------*\
| =========                 |                                                 |
| \\      /  F ield         | OpenFOAM: The Open Source CFD Toolbox           |
|  \\    /   O peration     | Version:  2206                                  |
|   \\  /    A nd           | Website:  www.openfoam.com                      |
|    \\/     M anipulation  |                                                 |
\*---------------------------------------------------------------------------*/
FoamFile
{
    version     2.0;
    format      ascii;
    arch        "LSB;label=32;scalar=64";
    class       volScalarField;
    location    "500";
    object      omega;
}
// * * * * * * * * * * * * * * * * * * * * * * * * * * * * * * * * * * * * * //

dimensions      [0 0 -1 0 0 0 0];

internalField   nonuniform List<scalar> 
7480
(
7569.0992
7590.8065
7571.1033
7538.1483
7512.5597
7498.0732
7491.1163
7487.7269
7485.8478
7484.6241
7483.6788
7482.868
7482.1615
7481.5503
7481.0203
7480.5582
7480.1548
7479.8006
7479.4855
7479.203
7478.9494
7478.7204
7478.5122
7478.3224
7478.149
7477.99
7477.8435
7477.7084
7477.5836
7477.4682
7477.3612
7477.262
7477.17
7477.0848
7477.0057
7476.9325
7476.8648
7476.8023
7476.7449
7476.6923
7476.6447
7476.6017
7476.5636
7476.5301
7476.5016
7476.4782
7476.4601
7476.4479
7476.4414
7476.4405
7476.445
7476.4547
7476.469
7476.4871
7476.508
7476.5311
7476.555
7476.5777
7476.5972
7476.6119
7476.6218
7476.6269
7476.6278
7476.6249
7476.6192
7476.6113
7476.6019
7476.5915
7476.5805
7476.5691
7476.5576
7476.546
7476.5345
7476.5232
7476.512
7476.5009
7476.4901
7476.479
7476.4676
7476.4561
7476.4446
7476.4331
7476.4215
7476.4098
7476.398
7476.3861
7476.3742
7476.3622
7476.3502
7476.3381
7476.326
7476.3139
7476.3019
7476.2898
7476.2779
7476.2653
7476.2544
7476.2387
7476.2299
7476.2059
1003.2507
1574.4064
1842.4928
1920.7598
1936.9996
1923.8297
1863.1344
1797.7947
1744.1709
1703.9834
1673.3405
1647.6815
1624.4615
1603.0506
1583.254
1564.8667
1547.8217
1532.2007
1517.8433
1504.5365
1492.1853
1480.7665
1470.1728
1460.2913
1451.0762
1442.501
1434.494
1426.9866
1419.9478
1413.3539
1407.1628
1401.3389
1395.866
1390.7276
1385.8995
1381.3633
1377.1099
1373.1277
1369.4031
1365.9281
1362.7009
1359.7192
1356.9798
1354.4862
1352.2317
1350.2278
1348.4678
1346.962
1345.7205
1344.7364
1344.0305
1343.6358
1343.4473
1343.4325
1343.5539
1343.7732
1344.0477
1344.3171
1344.5251
1344.6204
1344.5787
1344.3977
1344.123
1343.7461
1343.2662
1342.7065
1342.0885
1341.4328
1340.7553
1340.0676
1339.3786
1338.6952
1338.021
1337.3591
1336.7121
1336.0798
1335.4649
1334.8584
1334.2557
1333.6581
1333.0658
1332.4787
1331.8962
1331.3159
1330.7374
1330.1594
1329.5822
1329.0057
1328.43
1327.856
1327.2833
1326.7129
1326.1452
1325.5789
1325.0188
1324.4471
1323.9019
1323.3399
1322.6633
1322.0512
190.66635
396.63109
585.95508
709.19376
769.23798
785.35384
782.05138
789.17283
803.64855
812.8166
819.30236
823.52116
825.02073
824.12397
821.39567
817.3749
811.91185
805.2569
797.66841
789.36535
780.5596
771.45537
762.19637
752.88657
743.63078
734.52352
725.58078
716.80276
708.20559
699.81281
691.63886
683.69365
675.99072
668.54253
661.35633
654.44004
647.80328
641.44622
635.36614
629.56363
624.04469
618.81709
613.88831
609.27004
604.96763
600.98171
597.32297
593.96286
590.89184
588.10174
585.62934
583.47837
581.54386
579.79167
578.19679
576.70601
575.25759
573.81003
572.35435
570.89061
569.41223
567.90597
566.45448
565.00935
563.553
562.08811
560.62086
559.1601
557.71413
556.28986
554.89277
553.52729
552.19657
550.90268
549.64745
548.43002
547.25116
546.13321
545.05949
544.01719
542.99969
542.0038
541.02766
540.06767
539.1219
538.18803
537.26479
536.35121
535.44642
534.55041
533.66241
532.7825
531.91079
531.04563
530.19109
529.33034
528.49717
527.65923
526.73861
525.65271
72.002254
121.36464
193.99583
267.72334
324.62314
359.72856
377.79462
386.76997
392.44192
397.55926
404.50986
415.21914
426.20225
437.92798
452.27762
470.54839
485.13629
496.52536
505.2932
511.85026
516.52054
519.59563
521.33466
522.00708
521.92868
521.34567
519.98705
517.80103
514.87565
511.33513
507.29862
502.86995
498.13993
493.18898
488.0917
482.92244
477.72876
472.49368
467.21684
461.91535
456.61539
451.34462
446.12851
440.99164
435.96386
431.0277
426.18003
421.38096
416.61512
411.89296
407.23727
402.74696
398.32293
393.97701
389.74462
385.58079
381.4503
377.39728
373.50779
369.85247
366.44956
363.31534
360.48466
357.88256
355.45958
353.18031
351.01778
348.95321
346.97374
345.07064
343.23781
341.47172
339.77023
338.13101
336.55247
335.03203
333.56885
332.18819
330.88216
329.63523
328.43725
327.28273
326.1689
325.09193
324.04894
323.03666
322.05235
321.09364
320.15814
319.24432
318.35025
317.47476
316.61662
315.77391
314.94791
314.12908
313.32724
312.57493
311.71988
310.76215
55.641126
64.532015
83.911126
111.35057
140.42337
165.52952
184.58302
198.13253
207.74409
214.79115
220.42369
225.66647
230.9629
236.83498
244.10264
253.55142
263.3491
273.15272
282.74832
292.00556
300.83108
309.30526
317.72167
326.71373
337.34626
349.83328
359.69
366.91934
372.19936
375.98017
378.56798
380.18388
381.00625
381.20272
380.9642
380.50212
379.79458
378.44936
376.4626
373.91913
370.91416
367.53027
363.83546
359.8911
355.77089
351.46942
346.93492
342.13797
337.104
331.87945
326.51363
321.06681
315.61228
310.15961
304.74487
299.32246
293.91796
288.65413
283.64987
278.98564
274.72436
270.87979
267.41155
264.26315
261.38097
258.71853
256.23631
253.90326
251.69574
249.59599
247.59119
245.67334
243.83518
242.07089
240.37645
238.74805
237.18461
235.68902
234.26409
232.90576
231.60828
230.36722
229.17992
228.04307
226.95377
225.90864
224.90443
223.93808
223.00642
222.10693
221.23721
220.39502
219.57814
218.78432
218.01301
217.25917
216.51944
215.85099
215.10091
214.28462
53.508978
54.436674
58.087913
65.265693
75.159351
86.043134
96.435719
105.64387
113.5448
120.26509
125.97116
130.87761
135.18922
139.11811
142.94711
147.0152
151.42354
156.27428
161.71347
167.8217
174.16008
180.72718
187.52865
194.61666
202.10332
210.07204
218.05363
225.69045
232.80838
239.34644
245.31823
250.80326
255.97246
261.15583
266.96338
274.11556
281.52877
286.09926
288.74575
290.07544
290.44243
290.06395
289.0928
287.67511
285.99093
284.18928
281.82485
278.80232
275.22297
271.19495
266.81849
262.19177
257.41515
252.52006
247.55884
242.60379
237.70957
232.95955
228.43343
224.18357
220.23086
216.58181
213.21934
210.11533
207.2399
204.56272
202.05472
199.6918
197.45382
195.32425
193.29054
191.34446
189.4786
187.68701
185.96547
184.31008
182.71993
181.18991
179.72152
178.31633
176.97343
175.69085
174.46695
173.29929
172.18544
171.1224
170.1071
169.13641
168.20699
167.31593
166.46045
165.63793
164.84578
164.08155
163.34382
162.62946
161.93136
161.3027
160.63074
159.89138
53.223517
52.807981
52.958456
54.084789
56.273214
59.364042
62.974077
66.790613
70.619756
74.35866
77.937115
81.309038
84.452665
87.365954
90.079821
92.662934
95.185488
97.718047
100.34474
103.15626
106.19561
109.53089
113.24504
117.389
121.86689
126.72806
131.94289
137.42745
143.08497
148.83153
154.59465
160.31718
165.96795
171.55693
177.13969
182.82224
188.52565
193.80056
198.43475
202.38325
205.68253
208.42009
210.74775
212.9447
215.47535
218.47411
219.85124
219.6691
218.48827
216.62223
214.29135
211.69538
209.00194
205.97392
202.55599
199.05199
195.61505
192.29185
189.04166
185.87413
182.81627
179.88165
177.0713
174.38745
171.83045
169.39309
167.06579
164.84171
162.71155
160.66634
158.69904
156.80485
154.97987
153.22139
151.527
149.89379
148.32144
146.80579
145.34558
143.94247
142.59762
141.31108
140.08241
138.91017
137.79253
136.72718
135.71157
134.74292
133.81809
132.93421
132.08835
131.27789
130.50033
129.75324
129.03488
128.34278
127.67034
127.05802
126.4357
125.73521
53.161376
52.541744
52.020051
51.712022
51.711474
52.046497
52.632754
53.45516
54.479816
55.66932
56.983965
58.385806
59.839569
61.312348
62.778804
64.226343
65.652867
67.063447
68.472505
69.904122
71.384323
72.944412
74.62445
76.470081
78.517839
80.819334
83.431444
86.358078
89.553838
93.016909
96.736949
100.69432
104.86599
109.23242
113.7846
118.52315
123.42813
128.407
133.35568
138.17787
142.7928
147.13851
151.17178
154.8767
158.27548
161.33448
163.87793
165.7655
166.9979
167.66838
167.92952
167.98139
167.97527
167.24298
165.73116
163.88293
162.05596
160.27572
158.32006
156.29134
154.25197
152.20127
150.13487
148.07473
146.03768
144.02748
142.05045
140.11879
138.23093
136.38742
134.58989
132.83964
131.13733
129.48594
127.88613
126.33635
124.83797
123.38932
121.98846
120.63628
119.33434
118.08384
116.88536
115.7385
114.6421
113.59482
112.59502
111.64057
110.72877
109.85724
109.02339
108.22483
107.45945
106.72503
106.01992
105.3419
104.68619
104.08073
103.48852
102.80802
53.125011
52.474723
51.838259
51.239942
50.710133
50.271661
49.928743
49.683696
49.53865
49.482795
49.493925
49.59858
49.796638
50.078109
50.429435
50.837518
51.292121
51.78507
52.311104
52.868885
53.460221
54.089801
54.766376
55.503292
56.316747
57.227608
58.26247
59.447214
60.803328
62.356658
64.137288
66.147935
68.38581
70.857252
73.573693
76.544008
79.774562
83.258042
86.971819
90.885146
94.962148
99.162394
103.44188
107.75455
112.06037
116.25999
120.20872
123.79478
126.92981
129.55755
131.65126
133.21323
134.27425
134.88102
135.04107
134.79251
134.37393
133.84498
132.99513
132.01224
130.99177
129.84627
128.5467
127.16444
125.72516
124.22825
122.69599
121.14714
119.58846
118.02939
116.47926
114.94558
113.43358
111.95563
110.51392
109.10658
107.73825
106.40851
105.11529
103.85984
102.64378
101.46864
100.33562
99.245227
98.196801
97.190369
96.225489
95.300914
94.414406
93.564495
92.749329
91.966999
91.216167
90.494899
89.801914
89.135352
88.492357
87.891074
87.3174
86.64849
53.09498
52.438163
51.782113
51.130692
50.490733
49.86958
49.272749
48.704889
48.170782
47.674193
47.216679
46.802316
46.434688
46.115498
45.830176
45.572866
45.356213
45.185649
45.061363
44.98183
44.944951
44.948292
44.990957
45.074428
45.202152
45.379538
45.614517
45.916997
46.298306
46.771808
47.353746
48.060149
48.907544
49.915388
51.107408
52.4902
54.080592
55.897243
57.951753
60.252931
62.809963
65.629634
68.716141
72.070994
75.694139
79.565035
83.600512
87.698308
91.754463
95.661815
99.314996
102.61556
105.47916
107.85022
109.69018
110.92151
111.55184
111.75853
111.74138
111.56105
111.32296
110.96008
110.41929
109.77182
109.01542
108.09376
107.07037
105.96991
104.79779
103.57553
102.3196
101.04542
99.763345
98.505705
97.267191
96.045313
94.843504
93.663621
92.505868
91.371821
90.26336
89.182298
88.130565
87.10958
86.118841
85.159999
84.235221
83.344041
82.484881
81.657005
80.859507
80.09114
79.35181
78.639735
77.954261
77.294073
76.657895
76.056986
75.492168
74.827937
53.06861
52.408412
51.747191
51.085216
50.423613
49.763924
49.107915
48.457617
47.815439
47.183983
46.56572
45.963203
45.379011
44.815552
44.273536
43.753091
43.25561
42.782879
42.336514
41.917681
41.521996
41.139167
40.773991
40.435964
40.131107
39.862926
39.634043
39.446737
39.303492
39.208397
39.167553
39.188413
39.279697
39.451695
39.716793
40.08758
40.579037
41.209514
41.99907
42.95887
44.109011
45.471522
47.070472
48.932058
51.084828
53.559342
56.374153
59.517503
62.959957
66.648642
70.506078
74.430461
78.299052
81.98161
85.355107
88.2783
90.621001
92.353175
93.516899
94.220736
94.585403
94.754828
94.784137
94.709405
94.545777
94.223449
93.783723
93.226341
92.521109
91.716044
90.831394
89.8959
88.919413
87.936589
86.940963
85.933633
84.920403
83.905261
82.891327
81.882458
80.881987
79.893075
78.919177
77.963117
77.026596
76.112
75.221852
74.357378
73.518898
72.706713
71.920867
71.161092
70.427359
69.718976
69.035911
68.377197
67.742899
67.13955
66.577031
65.912946
53.030599
52.366519
51.70158
51.035546
50.3684
49.700188
49.031169
48.361936
47.693408
47.026726
46.363132
45.703935
45.050512
44.404292
43.766591
43.138587
42.52147
41.916473
41.324851
40.747843
40.186133
39.639334
39.107607
38.592079
38.094371
37.616255
37.158832
36.716322
36.283543
35.869072
35.483326
35.133498
34.824713
34.560979
34.346001
34.184969
34.084925
34.054863
34.105607
34.248643
34.497824
34.870296
35.385693
36.063826
36.932759
38.027009
39.386042
41.048672
43.051006
45.420792
48.170385
51.288373
54.73088
58.416974
62.232016
66.02254
69.60086
72.793661
75.470611
77.594353
79.177331
80.297417
81.052749
81.521457
81.793887
81.935792
81.958748
81.884921
81.677922
81.359568
80.924829
80.396291
79.793746
79.124948
78.39773
77.625563
76.818856
75.983785
75.126832
74.254814
73.373112
72.486791
71.601111
70.720286
69.847751
68.987132
68.141628
67.313641
66.504893
65.716661
64.949886
64.205163
63.482992
62.783467
62.106973
61.452907
60.822372
60.219015
59.658315
58.995517
52.972215
52.293042
51.615364
50.938826
50.26301
49.58741
48.911658
48.235683
47.559702
46.884118
46.209423
45.536147
44.864869
44.196215
43.530852
42.869478
42.212826
41.561668
40.916812
40.279105
39.649372
39.028315
38.416583
37.814874
37.223976
36.644764
36.078126
35.524267
34.982841
34.454442
33.940723
33.4439
32.966127
32.503563
32.04933
31.613257
31.207767
30.840924
30.518339
30.244063
30.023043
29.862957
29.773796
29.767606
29.859787
30.070644
30.425534
30.954432
31.696013
32.695563
34.003089
35.669024
37.736943
40.232179
43.149463
46.438245
49.988523
53.636173
57.183965
60.455147
63.312322
65.686337
67.581575
69.023197
70.071506
70.814208
71.308147
71.625241
71.816042
71.887979
71.860992
71.723947
71.495435
71.185333
70.774151
70.287176
69.737706
69.130596
68.474247
67.778525
67.051124
66.29896
65.529501
64.748708
63.961937
63.174664
62.391204
61.615273
60.850027
60.097846
59.360734
58.64023
57.937567
57.253637
56.589396
55.944771
55.321719
54.72214
54.16486
53.505459
52.921337
52.221303
51.523694
50.828535
50.135614
49.444503
48.754784
48.066232
47.378854
46.69283
46.008416
45.325893
44.645553
43.967703
43.292658
42.620751
41.952329
41.287758
40.627423
39.971731
39.321109
38.675992
38.036816
37.404035
36.778123
36.159584
35.548956
34.946739
34.353347
33.769208
33.194882
32.631104
32.078742
31.538141
31.00887
30.491645
29.988473
29.501974
29.033054
28.572013
28.123221
27.702033
27.318293
26.978195
26.686392
26.450028
26.28021
26.191898
26.205135
26.346515
26.650237
27.158776
27.925569
29.011889
30.480954
32.386226
34.752652
37.554581
40.700781
44.044217
47.403506
50.600117
53.49839
56.00633
58.083931
59.750564
61.035631
61.98622
62.675937
63.149316
63.469561
63.659577
63.739309
63.738807
63.647483
63.472281
63.225446
62.891103
62.478343
62.002709
61.471702
60.89151
60.272764
59.623069
58.949505
58.260052
57.560291
56.855545
56.1507
55.449421
54.755045
54.070211
53.397071
52.737444
52.092977
51.464277
50.854078
50.263328
49.712852
49.060322
52.891368
52.176636
51.463547
50.752444
50.043452
49.336461
48.631283
47.927807
47.226062
46.526205
45.828468
45.133108
44.440398
43.750617
43.064044
42.380962
41.701654
41.026405
40.355499
39.689222
39.027858
38.37169
37.720998
37.076059
36.437145
35.804532
35.178493
34.559302
33.947225
33.342516
32.745446
32.156313
31.575459
31.003206
30.439789
29.88549
29.340775
28.806332
28.282853
27.769861
27.267448
26.777465
26.302626
25.843621
25.38906
24.948755
24.539114
24.169743
23.847614
23.581334
23.385311
23.279955
23.293444
23.464041
23.841776
24.487817
25.47291
26.864511
28.706578
30.998183
33.67877
36.629435
39.696408
42.716053
45.542044
48.074318
50.252768
52.054009
53.502224
54.62635
55.466049
56.076974
56.499647
56.776765
56.950154
57.033029
57.042737
56.973401
56.825027
56.609042
56.314654
55.943309
55.513664
55.031096
54.50305
53.94138
53.351746
52.741471
52.117702
51.485437
50.849752
50.214578
49.583225
48.958675
48.343394
47.73884
47.148531
46.573018
46.034465
45.393734
52.876449
52.15369
51.431685
50.710868
49.991514
49.27371
48.557457
47.842771
47.129747
46.418561
45.709448
45.002675
44.298525
43.597291
42.89927
42.204761
41.514064
40.827476
40.145293
39.467807
38.795307
38.128073
37.466382
36.810502
36.160692
35.517203
34.880274
34.250136
33.627005
33.011083
32.40256
31.801616
31.208423
30.623141
30.045913
29.476873
28.916162
28.36395
27.820441
27.285738
26.759927
26.243277
25.736319
25.239579
24.752201
24.274632
23.809213
23.35907
22.916676
22.48119
22.073976
21.708011
21.393184
21.142681
20.978242
20.931125
21.044659
21.375721
21.991263
22.959834
24.337321
26.145156
28.354962
30.884412
33.60762
36.381094
39.066059
41.545494
43.745706
45.627284
47.177974
48.421415
49.383771
50.097163
50.617501
50.982488
51.219711
51.362383
51.434218
51.436623
51.366589
51.223224
51.019388
50.738343
50.388443
49.98899
49.539584
49.051131
48.533499
47.992211
47.434702
46.866239
46.291585
45.715234
45.140601
44.570258
44.008573
43.456134
42.936346
42.313892
52.869855
52.143021
51.416377
50.69036
49.965289
49.241334
48.518588
47.797144
47.077131
46.358737
45.642196
44.927771
44.215744
43.506407
42.800063
42.097015
41.39757
40.702034
40.010711
39.323903
38.641909
37.965023
37.293532
36.627718
35.967856
35.314211
34.667041
34.026594
33.393105
32.766799
32.147886
31.536564
30.933016
30.337406
29.749885
29.170584
28.599617
28.037082
27.483067
26.937636
26.400832
25.872694
25.353289
24.842708
24.340907
23.847883
23.3639
22.889534
22.424414
21.968174
21.523091
21.092698
20.670046
20.25698
19.877889
19.548073
19.281964
19.10326
19.046858
19.159999
19.501969
20.137878
21.127324
22.509027
24.283013
26.401235
28.771021
31.269222
33.766869
36.147611
38.31807
40.223664
41.837944
43.155934
44.206058
45.012615
45.608049
46.037268
46.339386
46.529506
46.634988
46.683051
46.666069
46.580984
46.430675
46.228453
45.946896
45.609393
45.226932
44.802095
44.346251
43.86512
43.365283
42.853123
42.333022
41.80908
41.286608
40.766648
40.274202
39.678154
52.867656
52.138767
51.409739
50.681006
49.952899
49.225627
48.499334
47.774148
47.05022
46.327739
45.606931
44.888048
44.171362
43.457156
42.745725
42.037365
41.332377
40.631063
39.933722
39.240653
38.552153
37.868514
37.190023
36.516962
35.849609
35.188233
34.533096
33.884453
33.242551
32.607625
31.979903
31.359599
30.74692
30.142056
29.545185
28.956471
28.376062
27.80409
27.240669
26.685896
26.139847
25.602579
25.074133
24.554541
24.043806
23.541912
23.048864
22.564713
22.08945
21.623017
21.165627
20.71787
20.27944
19.850341
19.433605
19.033771
18.637167
18.267117
17.945992
17.691335
17.528912
17.496243
17.642549
18.02544
18.705531
19.731877
21.125957
22.869585
24.9004
27.120838
29.413297
31.662718
33.770719
35.662627
37.301428
38.671385
39.778066
40.650661
41.310236
41.792078
42.132331
42.367469
42.50263
42.574926
42.591073
42.547923
42.44124
42.279797
42.062218
41.77919
41.451733
41.081593
40.678052
40.249445
39.800666
39.337973
38.867515
38.391347
37.936595
37.376959
52.86782
52.137889
51.407617
50.677431
49.947673
49.218582
48.490331
47.763077
47.036986
46.312246
45.589079
44.867728
44.148452
43.431527
42.717233
42.00586
41.297697
40.593036
39.89217
39.195387
38.502976
37.815221
37.132401
36.454792
35.782662
35.116275
34.455888
33.80175
33.154105
32.513185
31.879218
31.25242
30.632999
30.021153
29.417069
28.820924
28.232882
27.653097
27.081705
26.518834
25.964592
25.419075
24.882361
24.354514
23.835581
23.325595
22.824577
22.332547
21.849515
21.37548
20.910463
20.454544
20.007748
19.570097
19.141968
18.724226
18.315947
17.919304
17.539057
17.166645
16.819891
16.52395
16.297972
16.170295
16.180736
16.379395
16.82165
17.562779
18.639132
20.056177
21.779077
23.733583
25.818767
27.92263
29.943835
31.800331
33.436664
34.831483
35.976763
36.888607
37.594872
38.116773
38.48852
38.748645
38.916385
38.995362
39.034123
39.017332
38.944644
38.817083
38.64467
38.408364
38.124339
37.801687
37.443877
37.060449
36.657458
36.238864
35.834006
35.32316
52.869304
52.138851
51.407916
50.676924
49.946224
49.216078
48.486686
47.758229
47.030886
46.304853
45.580348
44.857608
44.136887
43.418451
42.702574
41.989534
41.279616
40.573101
39.870274
39.171417
38.476807
37.786721
37.101431
36.421201
35.746293
35.076961
34.413453
33.756011
33.104869
32.460252
31.822379
31.19146
30.567696
29.95128
29.342395
28.741217
28.147907
27.562622
26.985505
26.416687
25.85629
25.304423
24.761183
24.226656
23.700913
23.184017
22.676018
22.176961
21.686883
21.205819
20.733801
20.270865
19.817049
19.37239
18.93696
18.510923
18.094304
17.68738
17.290957
16.904622
16.53037
16.17328
15.824935
15.508711
15.246673
15.059378
14.978114
15.045404
15.310983
15.829136
16.647723
17.788597
19.240339
20.951021
22.835845
24.791793
26.714597
28.518015
30.135658
31.531256
32.696524
33.632557
34.363088
34.912891
35.310832
35.581346
35.766777
35.869497
35.91245
35.912783
35.863209
35.762454
35.61746
35.423738
35.177167
34.893954
34.576359
34.232003
33.891226
33.444538
52.871556
52.140856
51.409568
50.678112
49.946843
49.216041
48.485933
47.756718
47.028593
46.30176
45.576439
44.852867
44.131293
43.411978
42.695191
41.981206
41.270299
40.562748
39.858831
39.158823
38.462996
37.771621
37.084961
36.403276
35.72682
35.05584
34.390576
33.731262
33.078124
32.431381
31.791242
31.157909
30.531576
29.912428
29.30064
28.69638
28.099804
27.511062
26.930291
26.357621
25.793171
25.237049
24.689354
24.150175
23.61959
23.097668
22.58447
22.080049
21.584455
21.097732
20.619923
20.151069
19.691215
19.240404
18.798686
18.366123
17.942776
17.528723
17.124113
16.729009
16.3437
15.96907
15.604747
15.253619
14.921208
14.599656
14.317637
14.093959
13.952323
13.927449
14.064085
14.412979
15.02551
15.938313
17.157027
18.650505
20.349541
22.161069
23.982498
25.72053
27.305452
28.688792
29.853267
30.799075
31.5424
32.106942
32.51637
32.801392
32.992322
33.108392
33.155489
33.16587
33.131916
33.052169
32.929707
32.768674
32.55419
32.303111
32.042489
31.678465
52.874272
52.143476
51.412005
50.680274
49.948644
49.217407
48.486811
47.757076
47.028414
46.301037
45.57517
44.851049
44.128925
43.409054
42.691703
41.977141
41.265643
40.557481
39.852929
39.15226
38.455741
37.763637
37.076209
36.393712
35.716393
35.044497
34.378257
33.717903
33.063655
32.415725
31.774317
31.139627
30.511841
29.891139
29.277688
28.67165
28.073174
27.482403
26.899468
26.324492
25.757588
25.19886
24.648402
24.106298
23.572624
23.047446
22.530823
22.022807
21.523444
21.032776
20.550842
20.077681
19.61333
19.157826
18.711212
18.27353
17.844827
17.425152
17.014555
16.613079
16.220789
15.83783
15.464268
15.100528
14.747704
14.405645
14.078285
13.76659
13.477026
13.232761
13.052765
12.965212
13.009001
13.231046
13.682919
14.410213
15.432598
16.736266
18.267885
19.942682
21.662753
23.331343
24.871459
26.230298
27.38227
28.325751
29.068455
29.636223
30.050579
30.341567
30.533108
30.654775
30.709699
30.722528
30.69984
30.636066
30.532895
30.394142
30.229776
29.96878
52.877279
52.146471
51.414916
50.68302
49.951147
49.219602
48.488651
47.758531
47.029467
46.301685
45.575414
44.850894
44.128375
43.408114
42.690375
41.975426
41.263539
40.554984
39.850033
39.148954
38.452014
37.759475
37.071593
36.388621
35.710805
35.038385
34.371591
33.71065
33.055777
32.407181
31.765063
31.129614
30.501017
29.879444
29.265061
28.658023
28.058474
27.466552
26.882383
26.306085
25.737765
25.177521
24.625443
24.081609
23.546091
23.01895
22.500239
21.990005
21.488287
20.995121
20.510538
20.034566
19.567231
19.108561
18.658581
18.217318
17.784804
17.361067
16.946134
16.540027
16.142768
15.75438
15.374883
15.004338
14.642934
14.290801
13.948578
13.616936
13.297373
12.994507
12.706264
12.451715
12.248658
12.119463
12.097399
12.225588
12.55393
13.131719
13.991649
15.132552
16.515578
18.065398
19.687108
21.283743
22.773074
24.099195
25.228559
26.156558
26.890108
27.451728
27.863921
28.153201
28.343802
28.464813
28.525529
28.539489
28.525961
28.474778
28.406212
28.266314
52.880475
52.149703
51.41812
50.686126
49.954084
49.22231
48.491084
47.760659
47.031275
46.303166
45.57657
44.851732
44.128901
43.408337
42.690302
41.975064
41.262893
40.554057
39.848827
39.147469
38.450247
37.757423
37.069251
36.385981
35.707857
35.035118
34.367992
33.706702
33.051463
32.402481
31.759954
31.12407
30.49501
29.872944
29.258033
28.65043
28.050276
27.457705
26.872839
26.295793
25.726669
25.165563
24.61256
24.067734
23.531152
23.002871
22.48294
21.971401
21.468287
20.973627
20.487444
20.009759
19.540586
19.079941
18.627837
18.184285
17.749299
17.322891
16.90507
16.495842
16.095209
15.703167
15.319707
14.944822
14.578523
14.22083
13.871837
13.53171
13.20079
12.879999
12.569822
12.273458
11.994739
11.736825
11.520264
11.363857
11.295797
11.355038
11.589335
12.049317
12.775971
13.779522
15.032854
16.469966
17.999393
19.525027
20.960503
22.245449
23.344143
24.248053
24.964799
25.512665
25.917194
26.198539
26.385844
26.503237
26.567746
26.586468
26.593553
26.548624
52.883795
52.153087
51.42151
50.689459
49.957296
49.225345
48.493897
47.763219
47.033564
46.305177
45.578304
44.853192
44.130097
43.409277
42.690995
41.97552
41.263119
40.554061
39.848614
39.147044
38.449614
37.756582
37.068204
36.384728
35.706396
35.033445
34.366102
33.70459
33.049121
32.3999
31.757123
31.120978
30.491642
29.869284
29.254065
28.646133
28.045629
27.452684
26.867419
26.289944
25.720362
25.158764
24.605232
24.059839
23.522649
22.993715
22.473083
21.96079
21.456868
20.961339
20.474222
19.995529
19.52527
19.063449
18.610069
18.165132
17.728637
17.300582
16.880962
16.469769
16.066989
15.672605
15.286592
14.908921
14.539562
14.178486
13.825678
13.481138
13.144909
12.817147
12.498045
12.188208
11.888685
11.600827
11.328841
11.073746
10.851366
10.67867
10.579685
10.589428
10.752927
11.121035
11.739413
12.628821
13.771187
15.108954
16.554157
18.010301
19.389615
20.628426
21.690473
22.563758
23.257506
23.785269
24.175247
24.445998
24.628549
24.743368
24.8233
24.850597
52.8872
52.156569
51.425019
50.692937
49.960685
49.228592
48.496959
47.766065
47.036174
46.307541
45.58042
44.855063
44.13173
43.410681
42.69218
41.976495
41.263893
40.554643
39.849012
39.147265
38.449664
37.756468
37.067928
36.384293
35.705804
35.032697
34.3652
33.703531
33.047904
32.398522
31.75558
31.119265
30.489753
29.867213
29.251802
28.643669
28.042953
27.449784
26.86428
26.286553
25.716701
25.154815
24.600975
24.055253
23.51771
22.988398
22.467361
21.954634
21.450244
20.954213
20.466554
19.987277
19.516385
19.053878
18.599753
18.154001
17.716614
17.287581
16.866885
16.454507
16.050424
15.654607
15.267019
14.88762
14.516364
14.153204
13.798092
13.450981
13.111836
12.780639
12.457401
12.142205
11.835263
11.536937
11.248126
10.969735
10.704899
10.456874
10.233471
10.051726
9.9323867
9.9069122
10.017561
10.314842
10.84709
11.643061
12.692346
13.943705
15.31248
16.702202
18.024874
19.214588
20.235555
21.072875
21.736645
22.240137
22.612794
22.872408
23.062875
23.179108
52.89066
52.160115
51.428603
50.696508
49.96419
49.23198
48.500189
47.769105
47.039003
46.310148
45.582799
44.857217
44.133663
43.4124
42.693696
41.977816
41.265029
40.555604
39.849806
39.147901
38.450149
37.756807
37.068129
36.38436
35.705742
35.03251
34.364889
33.703099
33.047352
32.397851
31.75479
31.118354
30.48872
29.866055
29.250515
28.64225
28.041397
27.448084
26.862431
26.284546
25.714528
25.152466
24.598441
24.052521
23.514767
22.98523
22.463954
21.950971
21.446307
20.949982
20.462007
19.982389
19.51113
19.048224
18.593664
18.147437
17.70953
17.279924
16.858597
16.445521
16.040667
15.643997
15.255467
14.875028
14.502626
14.138203
13.781697
13.433047
13.092189
12.759063
12.433618
12.115815
11.805647
11.503153
11.208485
10.921894
10.644035
10.375927
10.119598
9.8793749
9.6585599
9.4729337
9.3409999
9.2911414
9.363222
9.6067248
10.071777
10.792629
11.764959
12.942356
14.242951
15.57041
16.837145
17.975812
18.950974
19.747889
20.37876
20.856397
21.225192
21.47487
52.894158
52.1637
51.432234
50.700137
49.967768
49.235461
48.503532
47.77228
47.041986
46.312926
45.585366
44.859571
44.135809
43.414344
42.695444
41.979379
41.266416
40.556823
39.850868
39.148813
38.450919
37.757444
37.068639
36.384749
35.706017
35.032673
34.364946
33.703054
33.047208
32.39761
31.754453
31.117924
30.488196
29.865437
29.249804
28.641444
28.040495
27.447084
26.861329
26.283339
25.713212
25.151037
24.596892
24.050847
23.512962
22.983287
22.461864
21.948725
21.443896
20.947395
20.459232
19.979412
19.507935
19.044795
18.58998
18.143476
17.705264
17.275324
16.853627
16.440144
16.034837
15.637665
15.248579
14.867524
14.494441
14.129264
13.771926
13.422355
13.080477
12.74622
12.419508
12.10027
11.788441
11.483968
11.186822
10.89701
10.614624
10.339881
10.073246
9.8157385
9.568703
9.3357045
9.120262
8.9347744
8.7960909
8.730226
8.7749063
8.978499
9.3922008
10.053982
10.964155
12.079584
13.320443
14.590182
15.801522
16.887078
17.814787
18.569496
19.182601
19.638484
52.897678
52.167307
51.43589
50.703799
49.97139
49.239
48.506951
47.775547
47.045078
46.315828
45.588069
44.862073
44.138111
43.416451
42.697363
41.981117
41.267983
40.558228
39.852119
39.149919
38.451889
37.758285
37.069358
36.385354
35.706513
35.033067
34.365243
33.703258
33.047322
32.397639
31.7544
31.11779
30.487985
29.865151
29.249443
28.641009
28.039985
27.4465
26.860671
26.282605
25.712402
25.150147
24.595922
24.049793
23.511821
22.982056
22.460538
21.9473
21.442368
20.945757
20.457479
19.977537
19.505929
19.042647
18.587681
18.141013
17.702621
17.272484
16.85057
16.436846
16.031274
15.633806
15.244393
14.862974
14.489488
14.123865
13.766032
13.415913
13.073429
12.7385
12.411041
12.090971
11.778206
11.472665
11.174273
10.882963
10.598689
10.321438
10.051258
9.788331
9.532995
9.2860514
9.0486933
8.8238329
8.6153806
8.4324926
8.2912405
8.2155063
8.2414693
8.4162773
8.7920107
9.4087434
10.27057
11.335536
12.524641
13.740304
14.898667
15.930958
16.83009
17.551834
52.90121
52.170923
51.439556
50.707476
49.975036
49.242575
48.510418
47.778876
47.048247
46.318819
45.590873
44.864685
44.140531
43.418682
42.699411
41.982988
41.269685
40.55977
39.853509
39.151167
38.453002
37.759271
37.070226
36.38611
35.707163
35.033618
34.365699
33.703626
33.047607
32.397844
31.754529
31.117847
30.487973
29.865071
29.249299
28.640802
28.039717
27.446171
26.860283
26.282158
25.711895
25.149582