/*--------------------------------*- C++ -*----------------------------------*\
| =========                 |                                                 |
| \\      /  F ield         | OpenFOAM: The Open Source CFD Toolbox           |
|  \\    /   O peration     | Version:  2206                                  |
|   \\  /    A nd           | Website:  www.openfoam.com                      |
|    \\/     M anipulation  |                                                 |
\*---------------------------------------------------------------------------*/
FoamFile
{
    version     2.0;
    format      ascii;
    arch        "LSB;label=32;scalar=64";
    class       volScalarField;
    location    "500";
    object      p;
}
// * * * * * * * * * * * * * * * * * * * * * * * * * * * * * * * * * * * * * //

dimensions      [0 2 -2 0 0 0 0];

internalField   nonuniform List<scalar> 
7480
(
0.054756387
0.042498722
0.028373484
0.016562114
0.0059515359
0.00050270481
-0.0007541827
0.00026058205
0.0018124468
0.0028417472
0.0033163668
0.0035186774
0.0036092701
0.003637867
0.0036398771
0.0036446459
0.0036521231
0.0036455549
0.0036291197
0.0036114363
0.0035912236
0.003564292
0.0035334746
0.0035021237
0.003468964
0.0034315917
0.0033914261
0.0033500283
0.0033065128
0.0032600759
0.0032118328
0.0031625556
0.0031116306
0.0030588649
0.0030051132
0.0029509803
0.0028965121
0.0028423621
0.0027897568
0.0027397175
0.0026930906
0.0026514252
0.0026172206
0.002592953
0.0025827338
0.0025907369
0.0026207151
0.0026726863
0.0027460337
0.0028409412
0.0029555851
0.0030870864
0.0032309566
0.0033808863
0.0035346711
0.0036859022
0.0038165044
0.003913646
0.0039692567
0.0039863401
0.0039675051
0.0039190441
0.0038498624
0.0037669515
0.0036754248
0.0035792925
0.003481921
0.0033846116
0.003288289
0.0031935123
0.0031004079
0.0030084787
0.0029177506
0.0028282045
0.0027390502
0.0026508775
0.0025627711
0.0024726129
0.0023808229
0.0022875275
0.0021935431
0.002098462
0.0020011392
0.001902638
0.0018020441
0.0017000141
0.0015963734
0.0014911876
0.001385079
0.0012776469
0.0011701904
0.0010623902
0.00095607842
0.0008506355
0.00075289712
0.0006493372
0.00059720142
0.00031462364
0.00084098456
-0.00087616621
0.049778623
0.039262368
0.027307517
0.016413234
0.0065524873
0.0013038309
-4.7516752e-05
0.00072998747
0.0020391994
0.0029655376
0.0033940058
0.0035778143
0.0036600577
0.0036818516
0.0036797162
0.0036824693
0.0036840112
0.0036724902
0.0036531312
0.0036331095
0.0036107375
0.0035818345
0.0035493909
0.0035166394
0.0034821948
0.003443657
0.0034024849
0.0033601882
0.0033158362
0.0032686348
0.0032197102
0.0031698087
0.0031182982
0.0030649909
0.0030107416
0.0029561427
0.0029012324
0.0028466649
0.0027936626
0.0027432398
0.002696239
0.0026542095
0.002619648
0.0025950235
0.0025845232
0.002592297
0.0026217739
0.0026733691
0.0027464053
0.0028410091
0.0029553741
0.0030866334
0.003230303
0.0033800845
0.0035337814
0.0036849779
0.0038156012
0.0039128435
0.0039686128
0.0039858693
0.0039672323
0.0039189491
0.0038499078
0.0037671072
0.0036756609
0.0035795835
0.0034822465
0.0033849557
0.0032886403
0.003193863
0.0031007527
0.0030088142
0.0029180749
0.0028285162
0.0027393492
0.0026511641
0.0025630515
0.0024728926
0.0023810993
0.0022877978
0.0021938067
0.0020987193
0.0020013909
0.0019028845
0.0018022856
0.0017002506
0.0015966049
0.0014914138
0.0013852998
0.0012778622
0.0011704001
0.0010625941
0.00095627665
0.00085082798
0.00075308519
0.00064951755
0.00059744552
0.00031560214
0.00084319842
-0.00087570124
0.045718476
0.037581421
0.026944175
0.016687627
0.0079273823
0.0028323803
0.0011252144
0.0013917202
0.0023754681
0.0031497449
0.0035148536
0.0036785995
0.00374813
0.0037548925
0.0037436039
0.0037392374
0.0037322811
0.0037135189
0.0036894194
0.0036657296
0.0036397725
0.0036074968
0.0035725044
0.0035376139
0.0035011162
0.0034607293
0.003418074
0.0033745037
0.0033289446
0.0032806444
0.0032307859
0.0031800475
0.0031277442
0.0030737115
0.0030188165
0.0029636217
0.0029081481
0.0028530608
0.0027995786
0.0027486991
0.0027012563
0.0026588042
0.0026238372
0.0025988126
0.002587994
0.0025956262
0.0026245855
0.0026755936
0.0027482828
0.0028425119
0.002956511
0.0030874208
0.0032307603
0.0033802498
0.0035337276
0.0036847555
0.003815235
0.0039124376
0.0039683029
0.0039856644
0.0039672467
0.0039191597
0.003850282
0.0037676184
0.003676274
0.0035802655
0.0034829701
0.0033856973
0.0032893833
0.0031945954
0.0031014662
0.0030095033
0.0029187371
0.0028291494
0.0027399527
0.0026517384
0.0025635968
0.0024734156
0.0023816061
0.002288287
0.0021942786
0.0020991747
0.0020018315
0.0019033121
0.001802701
0.0017006546
0.0015969976
0.0014917955
0.0013856705
0.0012782219
0.0011707491
0.0010629322
0.00095660448
0.00085114496
0.00075339485
0.00064981058
0.00059784351
0.0003171758
0.00084712154
-0.00087507709
0.042997851
0.036280077
0.026589536
0.016987422
0.0092140365
0.0042952009
0.0022069011
0.0020854375
0.0027672272
0.0033870313
0.00369662
0.0038360029
0.0038824214
0.0038595437
0.0038277159
0.0038115272
0.0037940309
0.0037648336
0.0037341646
0.0037061871
0.0036757887
0.0036389799
0.0036007797
0.0035633041
0.0035241746
0.0034813463
0.0034368823
0.003391846
0.0033448584
0.0032952676
0.0032444019
0.0031928029
0.0031396702
0.0030848966
0.0030293876
0.0029736461
0.0029176631
0.002862142
0.0028083018
0.0027571044
0.0027093664
0.0026666582
0.0026314708
0.0026062446
0.0025952136
0.0026030996
0.002631898
0.0026822751
0.002754723
0.0028486172
0.0029622053
0.0030926488
0.0032354609
0.0033843924
0.0035373439
0.0036878352
0.003817773
0.0039144533
0.0039701209
0.0039872733
0.0039688018
0.0039207335
0.0038518907
0.0037692755
0.0036779692
0.0035819799
0.0034846841
0.0033873878
0.0032910339
0.0031961938
0.0031030035
0.0030109732
0.0029201378
0.0028304795
0.0027412112
0.0026529269
0.0025646843
0.0024744042
0.002382538
0.0022891716
0.0021951196
0.0020999747
0.0020025941
0.0019040424
0.0018034012
0.0017013279
0.0015976455
0.0014924196
0.001386272
0.0012788013
0.0011713079
0.0010634706
0.00095712388
0.00085164474
0.0007538809
0.00065026956
0.00059845513
0.00031966592
0.00085353919
-0.00087395867
0.040528983
0.03468672
0.025965051
0.017339947
0.010282099
0.0055018249
0.0032458586
0.002853969
0.0032433148
0.0036857564
0.0039182938
0.0040070626
0.0040214871
0.0039807201
0.0039379546
0.003912136
0.0038818123
0.0038369657
0.0037953732
0.0037605767
0.0037237346
0.0036805831
0.0036381366
0.0035975348
0.0035551496
0.0035091174
0.0034623119
0.0034153891
0.0033664927
0.0033151653
0.003263009
0.0032103443
0.0031561831
0.0031005247
0.0030443476
0.0029880511
0.0029315627
0.0028756611
0.0028215852
0.0027702284
0.0027223705
0.0026796085
0.0026444264
0.0026192255
0.0026082681
0.0026166372
0.0026454205
0.0026953506
0.0027675515
0.0028610394
0.0029740803
0.0031038438
0.0032458253
0.0033938275
0.003545889
0.0036955287
0.0038244774
0.00392003
0.0039751308
0.0039916531
0.0039727008
0.0039243971
0.003855392
0.003772676
0.00368129
0.0035852237
0.0034878465
0.003390453
0.0032939909
0.0031990335
0.0031057179
0.0030135575
0.0029225939
0.0028328073
0.0027434101
0.0026549996
0.0025665921
0.0024761506
0.0023841758
0.0022907141
0.002196575
0.0021013486
0.002003893
0.0019052756
0.0018045737
0.0017024463
0.0015987135
0.001493441
0.0013872501
0.0012797381
0.0011722064
0.0010643321
0.00095795144
0.00085243817
0.00075464803
0.00065099648
0.00059939276
0.00032336376
0.00086302198
-0.00087180574
0.038215631
0.033094623
0.025376932
0.017651908
0.011167048
0.0065990036
0.0042450347
0.0036013311
0.0037409767
0.0040081905
0.0041526691
0.0041892843
0.0041728068
0.0041177725
0.004061698
0.0040174048
0.0039716774
0.003917058
0.0038686885
0.0038279879
0.0037835845
0.0037325378
0.0036841747
0.0036393505
0.0035928753
0.0035429369
0.0034934209
0.0034444033
0.0033933306
0.0033399889
0.0032863783
0.0032325217
0.0031771928
0.0031205862
0.003063826
0.0030071574
0.0029502818
0.0028940453
0.002839811
0.0027884095
0.0027405723
0.0026979347
0.0026629725
0.00263802
0.0026273916
0.0026361191
0.0026647609
0.0027143715
0.0027860605
0.0028788621
0.0029910912
0.0031198933
0.0032607107
0.0034074107
0.0035582395
0.0037066501
0.0038341093
0.0039280758
0.0039824004
0.003998023
0.003978312
0.0039296784
0.0038604313
0.0037775456
0.0036860148
0.0035898109
0.0034922979
0.0033947549
0.0032981349
0.0032030118
0.0031095202
0.0030171812
0.0029260473
0.0028360904
0.0027465209
0.0026579396
0.0025693464
0.0024787312
0.0023866093
0.0022930041
0.0021987315
0.0021033793
0.0020058065
0.0019070852
0.0018062865
0.0017040724
0.0016002591
0.0014949126
0.0013886533
0.0012810762
0.0011734845
0.0010655533
0.00095912026
0.00085355586
0.00075572259
0.00065201904
0.00060069304
0.00032839433
0.0008756918
-0.00086814023
0.03611461
0.031616166
0.024824367
0.017881435
0.011925091
0.0075973066
0.005181123
0.004309571
0.0042251692
0.004338933
0.0043982891
0.0043848545
0.0043363517
0.0042632771
0.0041897807
0.0041267699
0.0040672178
0.0040045539
0.003948119
0.0038977374
0.0038449316
0.0037886469
0.0037361855
0.0036874289
0.0036363301
0.0035819718
0.0035291672
0.003477448
0.0034236788
0.0033679734
0.003312751
0.0032576104
0.0032009937
0.0031433647
0.0030860436
0.0030290498
0.0029718266
0.0029153532
0.0028611356
0.0028099082
0.0027623397
0.0027201333
0.0026857824
0.0026616391
0.0026511705
0.0026593429
0.0026877826
0.0027372862
0.0028085449
0.0029006614
0.0030119487
0.0031394946
0.003278789
0.0034239316
0.00357243
0.0037178729
0.0038431604
0.0039356286
0.0039895541
0.0040044831
0.0039841668
0.0039354335
0.0038661182
0.0037831874
0.0036915913
0.0035952986
0.003497678
0.003399995
0.0033032163
0.0032079198
0.0031142394
0.0030217044
0.0029303808
0.0028402307
0.002750462
0.0026616808
0.0025728789
0.0024820706
0.0023897735
0.0022959893
0.0022015461
0.0021060303
0.0020083031
0.0019094428
0.0018085137
0.0017061817
0.0016022586
0.001496811
0.0013904583
0.0012827929
0.00117512
0.001067112
0.00096060804
0.0008549756
0.0007570811
0.00065331596
0.00060233175
0.00033470092
0.00089120262
-0.00086285593
0.034216087
0.03023444
0.024257733
0.018025032
0.012571834
0.0084885557
0.0060438979
0.0049869327
0.0047072835
0.0046796948
0.0046540441
0.0045893353
0.0045066612
0.0044121721
0.0043208565
0.0042411929
0.004168295
0.0040962134
0.0040300524
0.0039697142
0.0039096802
0.0038487371
0.0037914949
0.0037371559
0.0036812462
0.0036237144
0.0035683307
0.0035139206
0.0034571709
0.0033988206
0.0033417279
0.0032850557
0.0032267352
0.003167612
0.0031093633
0.0030516878
0.0029938323
0.0029370029
0.0028827918
0.0028317909
0.0027845886
0.0027429848
0.0027095111
0.002686531
0.0026762774
0.0026836346
0.0027117504
0.0027612176
0.0028321624
0.0029236451
0.0030338886
0.0031598839
0.0032974251
0.003441078
0.0035862918
0.0037272809
0.0038500182
0.0039413669
0.0039953577
0.0040099809
0.0039894292
0.003940941
0.0038718292
0.0037890687
0.0036975712
0.0036013118
0.00350367
0.0034059019
0.0033090015
0.0032135569
0.0031197048
0.0030269803
0.0029354636
0.0028451107
0.0027551276
0.0026661287
0.0025770961
0.002486073
0.0023935813
0.0022995941
0.0022049534
0.0021092449
0.0020113329
0.0019123045
0.0018112162
0.0017087393
0.0016046803
0.0014991072
0.0013926384
0.0012848635
0.0011770901
0.0010689868
0.00096239431
0.00085667784
0.00075870398
0.00065486939
0.00060427577
0.00034215864
0.00090902688
-0.00085615096
0.032495551
0.028943112
0.023683384
0.018104396
0.01312197
0.009279535
0.0068379242
0.005635911
0.0051858789
0.0050266885
0.004917417
0.0048006021
0.0046828491
0.0045652991
0.0044554047
0.0043592514
0.0042725417
0.0041899491
0.004114234
0.0040449025
0.0039777286
0.0039113151
0.0038485319
0.0037885871
0.0037284207
0.0036678097
0.003609295
0.003551534
0.0034919473
0.0034315969
0.0033728959
0.0033145565
0.0032543118
0.0031935076
0.0031341405
0.003075582
0.003016871
0.0029593498
0.0029046841
0.0028534375
0.0028061552
0.0027647389
0.002731765
0.0027094828
0.0026997565
0.0027070756
0.0027348355
0.0027838749
0.0028541999
0.002944864
0.003054
0.0031785044
0.0033144356
0.0034566772
0.0035991057
0.0037358983
0.0038557213
0.0039459086
0.0039998603
0.0040143729
0.0039938962
0.0039458957
0.003877178
0.0037947804
0.0037035604
0.0036074707
0.0035099131
0.0034121422
0.0033151864
0.0032196437
0.0031256559
0.0030327689
0.0029410795
0.0028505354
0.0027603408
0.0026711228
0.002581851
0.0024906028
0.0023979086
0.0023037067
0.0022088545
0.002112936
0.0020148195
0.0019156034
0.0018143352
0.0017116933
0.0016074784
0.0015017604
0.0013951569
0.0012872548
0.0011793646
0.00107115
0.00096445351
0.00085863897
0.00076056871
0.00065665876
0.00060648226
0.00035061941
0.00092858093
-0.00084809552
0.030932393
0.027743514
0.023112736
0.018129631
0.013583419
0.0099771389
0.0075652922
0.0062529177
0.0056556811
0.0053760581
0.0051867005
0.0050182337
0.0048648884
0.0047229019
0.0045937734
0.0044807737
0.0043800562
0.0042863624
0.0042006377
0.0041224369
0.0040478925
0.0039754934
0.003907258
0.0038421519
0.0037776929
0.0037135048
0.0036515668
0.0035905915
0.0035284117
0.003466026
0.0034052603
0.0033448456
0.0032828836
0.0032208387
0.0031604747
0.0031009211
0.0030411982
0.0029827804
0.0029274604
0.0028757337
0.0028280451
0.0027863825
0.0027533665
0.0027310733
0.0027213772
0.002728562
0.0027558614
0.0028042039
0.0028736727
0.0029633697
0.0030714047
0.0031946261
0.0033291374
0.003469906
0.0036104552
0.0037445083
0.0038618316
0.0039499662
0.0040028706
0.0040173762
0.0039972008
0.0039498089
0.0038816639
0.0037998623
0.00370912
0.0036133263
0.0035159733
0.0034183193
0.0033213994
0.0032258287
0.003131768
0.0030387752
0.0029469604
0.0028562599
0.0027658785
0.0026764597
0.0025869581
0.0024954916
0.0024026017
0.0023081874
0.0022131239
0.0021169922
0.0020186647
0.001919253
0.0018177949
0.0017149773
0.0016105946
0.0015047192
0.0013979686
0.0012899264
0.001181907
0.0010735688
0.00096675583
0.00086083182
0.00076264991
0.0006586609
0.00060890289
0.000359938
0.00094929344
-0.00083861506
0.029509177
0.026633372
0.022550723
0.018105562
0.013963433
0.010588248
0.0082274439
0.0068351993
0.006113608
0.0057256816
0.0054606814
0.0052414872
0.0050522547
0.0048847636
0.0047357743
0.0046056654
0.0044906345
0.0043854203
0.0042895515
0.0042023414
0.0041203284
0.0040416947
0.0039676352
0.0038973205
0.0038285149
0.003760511
0.0036951635
0.0036311643
0.0035663272
0.0035015904
0.0034386328
0.0033763196
0.0033128032
0.0032494733
0.0031877712
0.0031270102
0.0030663734
0.0030072178
0.0029513344
0.0028990909
0.0028508901
0.0028087898
0.0027754707
0.0027528164
0.0027426454
0.0027492245
0.0027757547
0.0028230871
0.0028913192
0.0029796609
0.0030862592
0.0032079496
0.003340853
0.0034800332
0.0036190649
0.0037515521
0.0038673218
0.0039535685
0.0040055523
0.0040200456
0.0039994614
0.0039522488
0.0038849032
0.0038039326
0.0037137934
0.003618431
0.0035214603
0.0034240779
0.0033272815
0.0032317656
0.0031377304
0.0030447108
0.0029528305
0.0028620253
0.0027715006
0.0026819161
0.0025922118
0.0025005532
0.0024074918
0.0023128829
0.0022176243
0.0021212918
0.0020227604
0.0019231585
0.0018215124
0.001718519
0.0016139658
0.0015079287
0.0014010252
0.0012928359
0.0011846798
0.0010762095
0.00096927116
0.00086322916
0.00076492231
0.00066085289
0.00061148813
0.00036998088
0.00097062907
-0.00082757151
0.028210669
0.025607793
0.022001074
0.018038603
0.014270544
0.011120102
0.0088266987
0.0073813107
0.0065572511
0.0060732853
0.0057376055
0.0054691283
0.0052441521
0.0050505121
0.0048811792
0.0047337881
0.0046042043
0.0044871428
0.0043809795
0.004284619
0.004194921
0.0041098241
0.0040298345
0.0039542249
0.0038809546
0.0038091532
0.0037401426
0.0036728649
0.00360541
0.0035382396
0.0034730789
0.0034089366
0.0033438153
0.0032790039
0.0032159006
0.0031540832
0.0030926257
0.0030327048
0.0029760744
0.0029232177
0.0028745698
0.0028320495
0.0027983718
0.0027752714
0.0027645199
0.0027703072
0.0027958222
0.0028418503
0.0029084638
0.0029950147
0.0030997111
0.0032193925
0.0033502357
0.0034874656
0.0036247464
0.0037555588
0.0038698415
0.0039552106
0.0040071769
0.0040218729
0.0040012135
0.0039543535
0.0038877782
0.0038070695
0.0037172163
0.0036224948
0.0035261105
0.0034290767
0.0033324942
0.0032371649
0.0031432809
0.0030503016
0.0029584169
0.0028675794
0.0027769645
0.0026872606
0.0025974016
0.002505597
0.0024124039
0.002317635
0.0022222151
0.0021257087
0.002026995
0.001927222
0.0018254019
0.0017222437
0.0016175271
0.0015113326
0.0014042778
0.0012959403
0.0011876452
0.0010790389
0.00097196971
0.00086580426
0.00076736131
0.00066321255
0.00061418874
0.00038062357
0.00099207696
-0.00081479737
0.027023512
0.024660978
0.021467134
0.017935523
0.014512578
0.011579204
0.009365605
0.0078902134
0.0069841732
0.006416423
0.0060156159
0.0056999379
0.0054398409
0.0052197997
0.0050297954
0.0048649978
0.0047206851
0.0045914915
0.0044748615
0.004369228
0.004271652
0.0041799022
0.0040938959
0.0040128879
0.003935012
0.0038592822
0.0037865148
0.0037158929
0.0036457293
0.0035761988
0.0035087068
0.0034424617
0.0033757293
0.0033094477
0.0032449441
0.0031820603
0.0031197474
0.0030589718
0.0030015689
0.0029481946
0.0028991431
0.0028561547
0.002822025
0.0027984558
0.0027871537
0.0027921332
0.0028165532
0.0028611329
0.002925936
0.0030104474
0.003112934
0.0032302306
0.0033585847
0.0034934095
0.003628475
0.0037571767
0.0038696883
0.0039542108
0.0040059915
0.004021137
0.0040014493
0.0039557768
0.0038900516
0.003809649
0.0037203516
0.0036263388
0.0035300597
0.0034330276
0.0033368209
0.0032418445
0.0031481455
0.0030552562
0.0029634722
0.0028727
0.0027820421
0.0026922808
0.0026023411
0.0025104439
0.0024171694
0.0023222922
0.0022267581
0.0021301156
0.0020312543
0.0019313425
0.0018293739
0.0017260723
0.0016212095
0.0015148702
0.0014076734
0.0012991936
0.001190763
0.0010820217
0.00097482031
0.00086852937
0.00076994163
0.00066571733
0.00061695548
0.00039174351
0.0010131178
-0.00080011116
0.025935942
0.023786805
0.020951315
0.017802487
0.014696555
0.011971625
0.0098470395
0.0083613777
0.0073922461
0.0067528641
0.0062929869
0.0059327347
0.0056385462
0.005392192
0.0051813564
0.0049990945
0.004839947
0.004698399
0.0045711502
0.0044561418
0.0043505268
0.0042519457
0.004159814
0.0040733037
0.0039906916
0.0039108951
0.0038343227
0.0037602977
0.0036873184
0.0036153449
0.00354545
0.0034770493
0.0034086603
0.0033409221
0.0032750112
0.0032108665
0.0031476014
0.0030860296
0.003027853
0.0029739299
0.0029244485
0.0028809491
0.0028463781
0.0028223848
0.0028105149
0.0028146306
0.0028378801
0.0028809715
0.0029439537
0.0030263679
0.0031265183
0.0032412416
0.0033668656
0.0034989822
0.0036314701
0.0037576703
0.0038680248
0.003951362
0.0040026025
0.0040180569
0.0039994313
0.0039550731
0.0038904836
0.0038112098
0.0037230526
0.0036297658
0.0035335701
0.0034367577
0.0033410089
0.0032459566
0.0031520892
0.0030594068
0.0029678532
0.0028771644
0.0027865214
0.0026968134
0.0026068764
0.0025149293
0.0024216409
0.0023267221
0.0022311201
0.0021343874
0.0020354255
0.001935416
0.0018333325
0.0017299196
0.0016249363
0.0015184738
0.0014111527
0.001302544
0.0011939881
0.0010851183
0.00097778833
0.000871374
0.00077263579
0.00066834302
0.00061973862
0.00040321315
0.00103318
-0.00078333724
0.024937566
0.022979134
0.02045509
0.017645076
0.014829078
0.012303229
0.010274154
0.0087947727
0.0077797087
0.0070805708
0.0065680352
0.0061662852
0.0058394112
0.0055671662
0.0053355379
0.0051358461
0.004961835
0.0048077812
0.0046697897
0.0045453205
0.0044315297
0.0043259536
0.0042275879
0.0041354818
0.0040480145
0.0039640261
0.0038835865
0.0038060849
0.0037301839
0.0036556706
0.0035833387
0.0035127522
0.0034426322
0.0033733798
0.0033060191
0.0032405678
0.0031763192
0.0031139528
0.0030550146
0.0030004019
0.0029504049
0.0029064257
0.0028714
0.0028469982
0.002834516
0.0028377001
0.0028597688
0.0029013886
0.0029625407
0.0030428012
0.0031405211
0.0032525954
0.0033754268
0.0035047299
0.0036344699
0.003757955
0.0038658878
0.0039477361
0.0039980872
0.0040135646
0.0039959585
0.0039526837
0.0038892555
0.0038112301
0.0037241892
0.0036317697
0.0035362953
0.0034402085
0.0033448984
0.0032497064
0.0031558606
0.0030634358
0.0029717072
0.0028808093
0.0027903111
0.0027007556
0.0026108265
0.0025188953
0.0024257026
0.0023308024
0.00223517
0.0021384136
0.0020394041
0.0019393366
0.0018371797
0.0017336952
0.0016286233
0.0015220675
0.0014146486
0.0013059321
0.0011972682
0.0010882831
0.00098083384
0.00087430313
0.00077541252
0.00067106241
0.00062248788
0.0004148948
0.0010515946
-0.00076432317
0.024019183
0.02223203
0.019979184
0.01746829
0.014916353
0.012579588
0.010650205
0.009190768
0.0081451396
0.0073976753
0.0068391218
0.0063993359
0.0060415384
0.0057441456
0.0054919743
0.0052749919
0.005086168
0.0049195291
0.0047707049
0.0046367083
0.0045146307
0.004401917
0.0042972156
0.0041994273
0.0041069947
0.0040186961
0.0039343194
0.0038532703
0.0037743501
0.003697211
0.0036224025
0.0035495826
0.0034776508
0.0034068241
0.0033379798
0.0032712009
0.003205927
0.003142722
0.0030829927
0.0030276551
0.0029771102
0.0029326967
0.0028970949
0.002872172
0.0028591372
0.0028613927
0.0028822506
0.0029223578
0.0029816288
0.00305968
0.0031549308
0.0032643369
0.0033843458
0.0035107625
0.0036376412
0.0037583275
0.0038637604
0.0039439951
0.0039933017
0.0040086439
0.0039917993
0.0039493738
0.0038869512
0.003810036
0.0037240397
0.0036325499
0.0035379018
0.0034424814
0.0033476547
0.0032528306
0.003159448
0.0030672402
0.0029752794
0.0028843609
0.0027939703
0.0027041689
0.0026140667
0.0025222915
0.0024292437
0.0023343701
0.0022387873
0.0021421031
0.0020430871
0.0019430015
0.0018408243
0.0017373078
0.0016321831
0.001525572
0.001418088
0.0013092911
0.001200544
0.0010914631
0.00098391018
0.00087727553
0.00077823527
0.0006738439
0.00062515259
0.00042663728
0.0010675592
-0.00074295695
0.023172629
0.02153989
0.019523739
0.017276498
0.014964136
0.012805963
0.010978498
0.0095500943
0.0084874716
0.0077025141
0.0071046913
0.0066306467
0.0062440067
0.0059225048
0.0056502516
0.005416235
0.0052127331
0.0050335054
0.0048738014
0.0047302352
0.0045997883
0.0044798184
0.0043686879
0.0042651377
0.0041676393
0.0040749203
0.0039865351
0.0039018716
0.0038198412
0.0037399924
0.0036626598
0.0035875571
0.0035137399
0.0034412834
0.0033709217
0.0033027834
0.0032364323
0.0031723425
0.0031117925
0.0030557114
0.0030045886
0.0029597032
0.002923533
0.0028979785
0.0028843374
0.002885723
0.0029053083
0.0029438297
0.0030011823
0.0030769912
0.0031697153
0.0032764147
0.0033935873
0.0035170617
0.0036410193
0.0037588831
0.0038617864
0.003940338
0.003988533
0.0040036579
0.0039874607
0.0039457864
0.0038842726
0.0038082457
0.003723159
0.0036324986
0.0035386027
0.0034437765
0.0033494666
0.0032550901
0.003162099
0.0030701335
0.0029783842
0.0028877973
0.0027974325
0.0027073682
0.0026172896
0.0025255099
0.0024322091
0.0023373331
0.0022419416
0.0021453272
0.0020463379
0.0019463159
0.0018441791
0.0017406635
0.0016355367
0.0015289122
0.0014213972
0.0013125513
0.0012037507
0.0010945986
0.00098696361
0.00088024287
0.0007810611
0.0006766502
0.00062768244
0.00043827465
0.0010801392
-0.00071918532
0.022390645
0.020897517
0.019088463
0.017073439
0.014977717
0.012987316
0.01126235
0.0098737913
0.008805982
0.0079936429
0.0073632882
0.0068590019
0.0064458765
0.0061015729
0.0058099089
0.0055592422
0.0053412878
0.005149546
0.0049789652
0.0048258173
0.0046869478
0.0045596286
0.0044419872
0.0043326036
0.0042299501
0.0041327099
0.0040402453
0.0039519029
0.0038666767
0.0037840358
0.0037041288
0.0036266957
0.0035509245
0.0034767816
0.003404865
0.0033353319
0.0032678542
0.0032028366
0.0031414374
0.0030845867
0.003032847
0.0029874454
0.0029506834
0.0029244619
0.0029101658
0.0029106568
0.0029289244
0.0029658039
0.0030212069
0.0030947354
0.0031848935
0.0032888469
0.0034031311
0.0035236061
0.0036445852
0.0037595817
0.0038599399
0.003936761
0.0039838385
0.0039987297
0.0039831314
0.0039421657
0.0038815022
0.0038063183
0.0037221139
0.0036320971
0.0035388415
0.0034445175
0.0033506393
0.0032566197
0.0031639616
0.0030722699
0.0029807866
0.0028904323
0.0028001673
0.0027102563
0.0026204251
0.0025285216
0.0024350321
0.002340316
0.0022448415
0.0021479563
0.0020490855
0.00194921
0.0018471152
0.0017436654
0.0016386158
0.0015320143
0.0014245044
0.0013156467
0.0012068228
0.0010976275
0.00098993533
0.00088315119
0.0007838412
0.00067943811
0.00063002878
0.00044962749
0.0010883416
-0.00069303049
0.021666778
0.02030014
0.01867276
0.016862259
0.014961906
0.013128318
0.011505052
0.010163146
0.0091002695
0.0082698455
0.007613572
0.0070832251
0.0066462023
0.0062806451
0.0059704445
0.0057036469
0.0054715602
0.0052674597
0.0050860611
0.0049233544
0.0047760405
0.0046413064
0.0045170872
0.0044018092
0.0042939229
0.0041920713
0.0040954582
0.0040033749
0.0039148733
0.0038293612
0.0037468279
0.0036670178
0.0035892267
0.0035133396
0.0034398287
0.0033688653
0.0033002138
0.003234225
0.003171945
0.0031142954
0.0030618993
0.00301594
0.0029785572
0.0029516417
0.002936639
0.0029361901
0.0029531068
0.0029883089
0.0030417253
0.003112931
0.0032004778
0.0033016295
0.0034129651
0.0035303869
0.0036483394
0.0037604399
0.0038582529
0.0039332327
0.0039792072
0.0039938645
0.0039787877
0.0039385176
0.0038786756
0.0038044299
0.0037210988
0.0036316786
0.0035389111
0.0034451196
0.0033516096
0.0032577874
0.0031653544
0.0030738657
0.0029825796
0.0028924047
0.0028022763
0.0027125383
0.0026228266
0.0025309724
0.0024377048
0.0023432178
0.0022475417
0.0021505377
0.0020517552
0.0019517198
0.0018495597
0.0017462925
0.0016413149
0.0015347741
0.0014273347
0.0013185103
0.001209694
0.0011004907
0.00099276572
0.00088594646
0.00078652391
0.00068216054
0.00063214716
0.00046050822
0.0010913036
-0.00066459987
0.020995277
0.019743423
0.01827583
0.016645565
0.014921036
0.013233335
0.011709832
0.010419638
0.0093702289
0.0085301399
0.007854333
0.0073021946
0.0068440464
0.0064589933
0.006131321
0.0058490492
0.0056032493
0.0053870281
0.0051949317
0.0050227289
0.0048669827
0.0047247975
0.004593952
0.0044727309
0.0043595469
0.0042530045
0.0041521778
0.0040562952
0.0039644444
0.003875986
0.003790774
0.0037085403
0.0036286665
0.0035509778
0.003475832
0.0034034026
0.0033335308
0.003266526
0.0032033316
0.0031448527
0.0030917613
0.0030452022
0.0030071682
0.0029795257
0.0029637641
0.0029623311
0.0029778672
0.0030113538
0.0030627407
0.0031315807
0.0032164709
0.0033147686
0.0034231034
0.0035374237
0.0036523015
0.0037614668
0.0038567138
0.0039297766
0.0039746376
0.0039890437
0.003974445
0.0039348595
0.0038758325
0.0038025218
0.0037200115
0.0036313838
0.0035389618
0.0034457656
0.0033525642
0.0032588958
0.0031666194
0.003075222
0.0029840258
0.0028939502
0.0028039006
0.0027142783
0.0026246484
0.0025329023
0.0024398282
0.0023454599
0.0022498593
0.0021530886
0.0020543193
0.0019541216
0.0018520514
0.0017487369
0.0016435318
0.0015371388
0.0014298138
0.0013210402
0.0012122902
0.0011031263
0.00099539563
0.00088858026
0.00078905893
0.00068477097
0.00063400313
0.00047073021
0.0010884997
-0.00063408312
0.02037102
0.019223442
0.017896755
0.016425493
0.014858968
0.013306429
0.011879835
0.010644895
0.0096160212
0.0087737779
0.0080845047
0.0075148576
0.0070384909
0.0066358762
0.0062919716
0.005995019
0.0057360261
0.005508006
0.0053053965
0.0051238054
0.0049596753
0.0048100343
0.0046725351
0.0045453365
0.0044268037
0.0043155036
0.0042104037
0.0041106675
0.0040154003
0.0039239252
0.003835982
0.0037512786
0.0036692628
0.0035897157
0.0035128935
0.0034389615
0.0033678236
0.0032997576
0.0032356138
0.003176274
0.0031224481
0.0030752459
0.0030365276
0.0030081231
0.0029915513
0.0029890907
0.0030032138
0.0030349446
0.0030842587
0.0031506912
0.0032328802
0.0033282736
0.0034335563
0.0035447258
0.0036564788
0.0037626747
0.0038552816
0.003926431
0.0039701496
0.0039842684
0.0039700987
0.0039311844
0.0038729816
0.0038006038
0.0037189032
0.0036310725
0.0035390731
0.0034464134
0.0033535132
0.0032600738
0.0031679259
0.0030765604
0.0029854157
0.0028953582
0.0028052792
0.0027156811
0.0026260695
0.0025343865
0.0024414548
0.0023471935
0.0022517345
0.0021551089
0.0020563993
0.0019563524
0.0018545019
0.0017510315
0.0016457459
0.0015394298
0.0014319451
0.0013231816
0.0012145708
0.0011054397
0.00099775952
0.00089099765
0.00079139398
0.00068722436
0.00063558031
0.0004801217
0.0010798356
-0.00060175116
0.019789442
0.018736668
0.017534555
0.016203766
0.014779109
0.013351344
0.012018095
0.010840651
0.0098380406
0.0090002383
0.0083031731
0.0077202424
0.0072286499
0.0068105498
0.0064518071
0.0061410987
0.0058695351
0.0056301227
0.0054172523
0.0052264295
0.0050540027
0.0048969348
0.0047527786
0.004619585
0.0044956673
0.0043795557
0.0042701305
0.0041664915
0.0040677475
0.0039731904
0.0038824644
0.0037952465
0.0037110324
0.0036295713
0.0035510305
0.0034755589
0.0034031098
0.0033339373
0.0032688076
0.0032085741
0.0031539736
0.0031060845
0.0030666465
0.0030374437
0.0030200111
0.0030164773
0.003029153
0.003059088
0.0031062864
0.0031702698
0.0032497136
0.0033421527
0.003444332
0.0035523013
0.0036608815
0.0037640743
0.0038539713
0.0039232093
0.0039657489
0.0039795416
0.0039657516
0.0039274931
0.0038701124
0.0037986661
0.0037177952
0.0036306701
0.0035393017
0.003447075
0.0033544679
0.0032612813
0.0031692617
0.0030779754
0.0029868983
0.0028967994
0.0028066371
0.002717006
0.0026273192
0.0025356057
0.0024427408
0.0023485436
0.0022531957
0.0021566734
0.0020580561
0.0019581568
0.0018564181
0.0017530171
0.001647958
0.0015416368
0.0014340356
0.0013253294
0.0012166293
0.001107383
0.00099984303
0.00089310574
0.0007934569
0.00068946173
0.00063686231
0.0004885464
0.0010656088
-0.00056798237
0.019246473
0.018279937
0.017188235
0.015981767
0.014684443
0.013371513
0.012127517
0.011008708
0.010036881
0.0092092154
0.008509582
0.0079174695
0.0074136807
0.0069822782
0.0066102242
0.0062868082
0.0060033967
0.0057530825
0.0055302729
0.0053304275
0.0051498329
0.004985402
0.0048346122
0.0046954251
0.0045661028
0.0044451403
0.0043313468
0.0042237621
0.0041214881
0.0040237895
0.0039302314
0.0038404554
0.00375399
0.0036705614
0.0035902592
0.0035132106
0.0034394062
0.0033690816
0.0033029285
0.0032417669
0.0031863515
0.0031377308
0.0030975357
0.0030674969
0.0030491528
0.003044499
0.0030556913
0.0030837908
0.0031288308
0.0031903234
0.0032669781
0.0033564138
0.0034554394
0.0035601599