/*--------------------------------*- C++ -*----------------------------------*\
| =========                 |                                                 |
| \\      /  F ield         | OpenFOAM: The Open Source CFD Toolbox           |
|  \\    /   O peration     | Version:  2206                                  |
|   \\  /    A nd           | Website:  www.openfoam.com                      |
|    \\/     M anipulation  |                                                 |
\*---------------------------------------------------------------------------*/
FoamFile
{
    version     2.0;
    format      ascii;
    arch        "LSB;label=32;scalar=64";
    class       surfaceScalarField;
    location    "500";
    object      phi;
}
// * * * * * * * * * * * * * * * * * * * * * * * * * * * * * * * * * * * * * //

dimensions      [0 3 -1 0 0 0 0];

oriented        oriented;

internalField   nonuniform List<scalar> 
14782
(
0.00061767863
8.7779848e-05
-0.00070545848
0.00051028616
0.00010739247
0.00040011785
0.00011016831
0.00030665961
9.3458239e-05
0.00023998978
6.6669827e-05
0.00019925516
4.0734623e-05
0.00017534057
2.3914587e-05
0.00016116862
1.4171946e-05
0.00015175942
9.4092066e-06
0.00014419049
7.5689241e-06
0.00013731923
6.8712598e-06
0.0001309564
6.3628307e-06
0.00012514629
5.8101169e-06
0.00011985202
5.2942691e-06
0.00011501667
4.8353463e-06
0.00011061422
4.4024499e-06
0.00010660725
4.006974e-06
0.00010291506
3.6921826e-06
9.9487105e-05
3.4279582e-06
9.6303162e-05
3.1839429e-06
9.3341269e-05
2.9618931e-06
9.0566637e-05
2.7746324e-06
8.7957913e-05
2.6087243e-06
8.5505693e-05
2.4522196e-06
8.3197157e-05
2.3085362e-06
8.1013694e-05
2.1834631e-06
7.8944314e-05
2.0693794e-06
7.6984247e-05
1.9600668e-06
7.5126173e-05
1.8580738e-06
7.336063e-05
1.7655431e-06
7.168248e-05
1.6781505e-06
7.008937e-05
1.5931098e-06
6.8577116e-05
1.512254e-06
6.714102e-05
1.4360961e-06
6.577887e-05
1.3621501e-06
6.4489756e-05
1.2891138e-06
6.327197e-05
1.2177859e-06
6.2124507e-05
1.147463e-06
6.1048273e-05
1.076234e-06
6.0045001e-05
1.0032724e-06
5.9115923e-05
9.2907809e-07
5.8262699e-05
8.5322337e-07
5.7488496e-05
7.7420341e-07
5.679583e-05
6.9266557e-07
5.6192306e-05
6.0352404e-07
5.5683912e-05
5.0839375e-07
5.5279168e-05
4.0474414e-07
5.4984528e-05
2.9463975e-07
5.4799408e-05
1.8512087e-07
5.4722082e-05
7.732584e-08
5.4748246e-05
-2.6164316e-08
5.4871094e-05
-1.2284762e-07
5.5078413e-05
-2.0731906e-07
5.5350377e-05
-2.7196467e-07
5.5673835e-05
-3.234577e-07
5.6035997e-05
-3.6216224e-07
5.6403508e-05
-3.6751027e-07
5.6739623e-05
-3.3611571e-07
5.7008297e-05
-2.6867333e-07
5.7194187e-05
-1.8589048e-07
5.7294468e-05
-1.002812e-07
5.7312645e-05
-1.817622e-08
5.7258773e-05
5.3871536e-08
5.7146137e-05
1.1263592e-07
5.6988152e-05
1.5798474e-07
5.6796737e-05
1.9141531e-07
5.6582629e-05
2.1410805e-07
5.635364e-05
2.2898929e-07
5.611562e-05
2.3801991e-07
5.5873029e-05
2.4259126e-07
5.562911e-05
2.4391876e-07
5.5385567e-05
2.4354315e-07
5.5143913e-05
2.4165327e-07
5.4905416e-05
2.3849749e-07
5.466998e-05
2.3543588e-07
5.4438216e-05
2.3176408e-07
5.4206813e-05
2.3140326e-07
5.3971318e-05
2.354943e-07
5.3733044e-05
2.3827468e-07
5.3493316e-05
2.3972721e-07
5.3253039e-05
2.4027703e-07
5.3012109e-05
2.409303e-07
5.2769269e-05
2.4284009e-07
5.2524703e-05
2.445663e-07
5.2277813e-05
2.4688997e-07
5.2028858e-05
2.489549e-07
5.1777911e-05
2.5094705e-07
5.1525081e-05
2.5282968e-07
5.1270889e-05
2.5419239e-07
5.1015189e-05
2.5570007e-07
5.0758562e-05
2.5662698e-07
5.0500863e-05
2.5769857e-07
5.0242254e-05
2.5860927e-07
4.9982434e-05
2.5981957e-07
4.9720529e-05
2.6190557e-07
4.9456519e-05
2.6400959e-07
4.921104e-05
2.4547897e-07
4.880781e-05
4.0322997e-07
4.8817301e-05
-9.4907969e-09
8.4142245e-07
0.00079174787
9.1057009e-05
-0.00079502503
0.00077877492
0.00012036542
0.00075193633
0.0001370069
0.00070878687
0.0001366077
0.00065524899
0.00012020771
0.00060116498
9.4818638e-05
0.00055307696
7.2002603e-05
0.0005131436
5.4105307e-05
0.00048027984
4.2272973e-05
0.0004527809
3.5067864e-05
0.00042915015
3.0502009e-05
0.000408486
2.7026978e-05
0.00039017537
2.4120742e-05
0.00037373321
2.1736432e-05
0.00035881604
1.9752519e-05
0.00034521995
1.7998544e-05
0.00033277239
1.6454527e-05
0.00032129681
1.516777e-05
0.00031065823
1.4066529e-05
0.00030076631
1.3075866e-05
0.00029154309
1.2185117e-05
0.00028290691
1.1410806e-05
0.00027479542
1.0720215e-05
0.00026716273
1.0084915e-05
0.00025996536
9.5059074e-06
0.00025315964
8.989177e-06
0.00024671278
8.5162415e-06
0.00024060209
8.0707627e-06
0.0002348051
7.6550618e-06
0.00022929856
7.2720845e-06
0.00022406563
6.911074e-06
0.00021909492
6.5638193e-06
0.00021437467
6.2325078e-06
0.00020989342
5.917345e-06
0.00020564378
5.6117941e-06
0.00020162153
5.3113624e-06
0.00019782298
5.0163334e-06
0.0001942465
4.7239453e-06
0.00019089429
4.4284451e-06
0.00018777125
4.1263122e-06
0.00018488293
3.8173893e-06
0.00018223658
3.4995803e-06
0.00017984252
3.168263e-06
0.00017771044
2.8247424e-06
0.00017586618
2.4477822e-06
0.00017432023
2.0543486e-06
0.00017309296
1.6320162e-06
0.00017220476
1.1828301e-06
0.00017165133
7.3855176e-07
0.00017142425
3.0440928e-07
0.00017150734
-1.0925044e-07
0.00017187651
-4.9201925e-07
0.00017249292
-8.2372707e-07
0.00017330153
-1.0805767e-06
0.0001742543
-1.2762335e-06
0.00017529635
-1.4042086e-06
0.00017633375
-1.4049115e-06
0.00017726571
-1.268078e-06
0.00017799842
-1.0013832e-06
0.0001784913
-6.7876402e-07
0.00017873742
-3.4640544e-07
0.00017874778
-2.8534492e-08
0.0001785505
2.5114886e-07
0.00017818279
4.8034869e-07
0.00017768302
6.5775769e-07
0.0001770858
7.8863257e-07
0.00017642125
8.7865849e-07
0.00017571233
9.3790431e-07
0.00017497642
9.7393023e-07
0.0001742266
9.9241904e-07
0.00017347226
9.9825313e-07
0.0001727191
9.9670406e-07
0.00017197169
9.8906399e-07
0.00017123349
9.7670123e-07
0.00017050511
9.6381119e-07
0.00016978729
9.4958355e-07
0.0001690691
9.4959791e-07
0.00016833874
9.6584802e-07
0.00016760054
9.7648108e-07
0.00016685872
9.8154291e-07
0.00016611507
9.8392904e-07
0.00016536889
9.871104e-07
0.00016461745
9.9427679e-07
0.00016386042
1.0016025e-06
0.00016309664
1.0106617e-06
0.00016232656
1.0190397e-06
0.00016155048
1.0270264e-06
0.00016076895
1.0343619e-06
0.00015998318
1.0399558e-06
0.00015919338
1.0455062e-06
0.00015840076
1.0492414e-06
0.00015760562
1.0528471e-06
0.00015680795
1.0562756e-06
0.00015600848
1.0592887e-06
0.00015520113
1.0692592e-06
0.00015439882
1.0663206e-06
0.00015358857
1.0557201e-06
0.00015257235
1.4194512e-06
0.00015201827
5.4458933e-07
2.5321423e-06
0.0008315542
8.6586321e-05
-0.00082708352
0.00083707035
0.00011484927
0.00084159871
0.00013247854
0.00084050237
0.00013770404
0.00083138688
0.00012932319
0.00081410534
0.00011210018
0.00079126374
9.4844201e-05
0.00076527295
8.0096099e-05
0.00073803303
6.9512893e-05
0.00071105627
6.2044623e-05
0.0006851826
5.6375677e-05
0.00066070911
5.1500463e-05
0.00063764391
4.7185944e-05
0.00061588445
4.34959e-05
0.00059536543
4.0271535e-05
0.00057605727
3.7306704e-05
0.00055790158
3.4610215e-05
0.0005408041
3.2265254e-05
0.0005246805
3.0190125e-05
0.00050946566
2.829071e-05
0.00049509421
2.6556567e-05
0.00048149242
2.5012591e-05
0.00046860003
2.3612605e-05
0.0004563696
2.2315343e-05
0.00044475497
2.112054e-05
0.00043370768
2.0036465e-05
0.00042318878
1.9035144e-05
0.00041316841
1.8091133e-05
0.00040361783
1.7205636e-05
0.0003945089
1.638102e-05
0.00038582016
1.5599817e-05
0.00037753581
1.4848166e-05
0.00036964087
1.4127451e-05
0.00036212179
1.343642e-05
0.00035496978
1.2763807e-05
0.0003481802
1.210094e-05
0.00034175034
1.1446196e-05
0.00033568053
1.0793753e-05
0.00032997575
1.0133224e-05
0.00032464479
9.457273e-06
0.00031969851
8.7636727e-06
0.00031515073
8.0473575e-06
0.0003110193
7.2996878e-06
0.00030732355
6.5204982e-06
0.00030409677
5.6745614e-06
0.00030136249
4.7886255e-06
0.00029914179
3.8527182e-06
0.00029745069
2.8739286e-06
0.00029628226
1.9069823e-06
0.00029561809
9.685817e-07
0.00029542719
8.1642968e-08
0.00029566675
-7.3157813e-07
0.00029627517
-1.4321491e-06
0.00029717168
-1.9770819e-06
0.00029827814
-2.3826961e-06
0.00029949949
-2.6255579e-06
0.00030069751
-2.6029288e-06
0.00030173262
-2.3031879e-06
0.0003024869
-1.7556634e-06
0.00030290646
-1.0983209e-06
0.00030298331
-4.2326087e-07
0.00030273515
2.19624e-07
0.0003022016
7.8470648e-07
0.00030143468
1.247263e-06
0.00030048718
1.6052587e-06
0.00029940672
1.8690924e-06
0.0002982346
2.0507792e-06
0.00029700322
2.1692875e-06
0.00029573743
2.239719e-06
0.00029445602
2.2738281e-06
0.00029317248
2.2817925e-06
0.00029189546
2.2737261e-06
0.00029063181
2.2527156e-06
0.00028938644
2.22207e-06
0.00028816066
2.1895912e-06
0.00028695461
2.1556332e-06
0.00028575098
2.1532299e-06
0.00028453486
2.1819614e-06
0.00028331403
2.1973143e-06
0.00028209304
2.2025351e-06
0.00028087253
2.2044314e-06
0.00027965065
2.2089952e-06
0.00027842363
2.2212975e-06
0.00027719012
2.2351112e-06
0.00027594845
2.252335e-06
0.00027469874
2.2687434e-06
0.0002734413
2.2844699e-06
0.00027217684
2.2988213e-06
0.00027090682
2.3099735e-06
0.00026963176
2.3205635e-06
0.0002683531
2.3279021e-06
0.00026707157
2.3343802e-06
0.00026578689
2.3409516e-06
0.00026450094
2.3452478e-06
0.00026320279
2.3674016e-06
0.00026191799
2.3511197e-06
0.00026058809
2.385624e-06
0.00025910262
2.9049246e-06
0.00025783126
1.815943e-06
4.6164751e-06
0.00086134531
8.2257109e-05
-0.0008570161
0.00086788009
0.00010831449
0.00087516986
0.00012518877
0.0008821949
0.000130679
0.00088610212
0.00012541596
0.00088508525
0.00011311706
0.0008809988
9.8930652e-05
0.00087427715
8.6817747e-05
0.00086519181
7.8598234e-05
0.00085398816
7.3248269e-05
0.00084099618
6.9367656e-05
0.00082641679
6.607985e-05
0.00081061503
6.2987705e-05
0.00079418048
5.9930458e-05
0.00077745234
5.699967e-05
0.00076065627
5.410278e-05
0.00074393134
5.1335139e-05
0.00072736513
4.883146e-05
0.00071104247
4.6512785e-05
0.00069504228
4.4290905e-05
0.00067941971
4.2179139e-05
0.00066420177
4.0230527e-05
0.00064941011
3.8404269e-05
0.00063506302
3.6662429e-05
0.00062116935
3.5014208e-05
0.00060772575
3.3480067e-05
0.00059472908
3.2031812e-05
0.00058217724
3.0642979e-05
0.00057006382
2.9319053e-05
0.00055837928
2.8065562e-05
0.0005471172
2.6861894e-05
0.00053627375
2.569162e-05
0.00052584419
2.4557007e-05
0.00051582439
2.3456224e-05
0.00050621426
2.2373937e-05
0.00049701769
2.1297502e-05
0.00048823965
2.0224235e-05
0.00047988653
1.9146877e-05
0.00047196836
1.805139e-05
0.00046449884
1.6926793e-05
0.00045749412
1.5768397e-05
0.00045097366
1.4567813e-05
0.00044496083
1.3312515e-05
0.00043948225
1.1999082e-05
0.00043457165
1.0585164e-05
0.00043025524
9.1050347e-06
0.00042654356
7.5643995e-06
0.00042343679
5.9806923e-06
0.00042092292
4.4208596e-06
0.00041897818
2.9133185e-06
0.00041756814
1.4916807e-06
0.00041664346
1.9309825e-07
0.00041613359
-9.2227768e-07
0.00041595523
-1.7987145e-06
0.00041602219
-2.4496591e-06
0.00041621675
-2.8201161e-06
0.00041638692
-2.7731007e-06
0.00041640083
-2.3170941e-06
0.00041616247
-1.5173096e-06
0.00041563145
-5.6729598e-07
0.00041480394
4.0424474e-07
0.00041369943
1.32414e-06
0.00041235536
2.1287724e-06
0.00041081665
2.7859758e-06
0.00040912862
3.2932815e-06
0.00040733315
3.664562e-06
0.00040546758
3.9163567e-06
0.00040356215
4.0747123e-06
0.00040164074
4.1611267e-06
0.00039972169
4.1928823e-06
0.0003978182
4.1852847e-06
0.00039593915
4.1527752e-06
0.00039409177
4.1000926e-06
0.00039228094
4.0329064e-06
0.00039050772
3.9628024e-06
0.00038877087
3.8924911e-06
0.00038706502
3.8590712e-06
0.00038538276
3.8642299e-06
0.00038371935
3.8607181e-06
0.00038207084
3.8510471e-06
0.0003804343
3.8409702e-06
0.00037880622
3.8370743e-06
0.00037718179
3.8457346e-06
0.00037555835
3.8585461e-06
0.00037393331
3.8773732e-06
0.00037230589
3.8961667e-06
0.0003706757
3.9146568e-06
0.00036904295
3.9315696e-06
0.00036740863
3.9442974e-06
0.00036577297
3.9562208e-06
0.00036413702
3.9638582e-06
0.00036250144
3.9699559e-06
0.0003608654
3.9769903e-06
0.00035923129
3.9793577e-06
0.00035758488
4.0138177e-06
0.00035595834
3.9776518e-06
0.00035426891
4.0750561e-06
0.00035247255
4.7012866e-06
0.00035066625
3.6222462e-06
6.8469823e-06
0.00089163372
7.8533136e-05
-0.00088790975
0.00089766543
0.00010228278
0.00090487131
0.0001179829
0.00091177581
0.0001237745
0.00091694216
0.00012024961
0.00091986864
0.00011019058
0.00092050785
9.8291442e-05
0.0009193653
8.7960296e-05
0.00091747829
8.0485237e-05
0.00091492686
7.5799699e-05
0.00091163695
7.2657573e-05
0.00090738854
7.0328257e-05
0.00090193661
6.8439633e-05
0.00089522035
6.6646723e-05
0.00088731266
6.4907354e-05
0.00087823547
6.3179972e-05
0.00086813962
6.1430993e-05
0.00085731314
5.9657939e-05
0.00084591886
5.7907057e-05
0.00083407788
5.6131885e-05
0.00082188858
5.4368439e-05
0.00080942933
5.2689784e-05
0.00079677791
5.1055686e-05
0.00078401316
4.9427181e-05
0.0007712042
4.7823171e-05
0.00075840702
4.6277243e-05
0.0007456744
4.4764429e-05
0.00073305378
4.3263605e-05
0.00072058295
4.1789885e-05
0.00070829218
4.0356326e-05
0.00069621042
3.8943654e-05
0.00068436481
3.7537232e-05
0.00067277833
3.6143487e-05
0.00066147212
3.4762437e-05
0.00065046985
3.3376202e-05
0.00063979756
3.1969795e-05
0.00062947585
3.0545948e-05
0.00061952084
2.9101878e-05
0.0006099519
2.7620335e-05
0.00060079197
2.608672e-05
0.00059206605
2.449432e-05
0.00058380173
2.2832134e-05
0.00057602943
2.1084811e-05
0.00056878653
1.9241982e-05
0.00056210273
1.7268969e-05
0.00055598912
1.5218643e-05
0.0005504423
1.3111213e-05
0.00054545556
1.0967437e-05
0.00054102318
8.8532419e-06
0.00053713173
6.8047636e-06
0.00053375777
4.8656399e-06
0.00053086066
3.0902121e-06
0.00052837735
1.5610297e-06
0.00052624386
3.3477747e-07
0.00052436876
-5.7455505e-07
0.00052260565
-1.0570065e-06
0.00052081991
-9.873615e-07
0.00051893756
-4.3474509e-07
0.00051691996
5.0028536e-07
0.00051475626
1.5964046e-06
0.00051245043
2.7100735e-06
0.00051001547
3.7590995e-06
0.00050747173
4.6725116e-06
0.00050484302
5.4146917e-06
0.0005021543
5.9819998e-06
0.00049943006
6.388805e-06
0.00049669368
6.6527313e-06
0.00049396506
6.8033381e-06
0.00049126062
6.8655672e-06
0.00048859334
6.8601592e-06
0.00048597259
6.80603e-06
0.00048340516
6.7202084e-06
0.00048089682
6.6084323e-06
0.00047845079
6.4789407e-06
0.00047606678
6.3468051e-06
0.00047374198
6.2172974e-06
0.00047147759
6.1234596e-06
0.000469272
6.0698242e-06
0.00046711469
6.0180261e-06
0.00046499563
5.9701055e-06
0.00046290834
5.928263e-06
0.0004608474
5.8980145e-06
0.00045880679
5.8863412e-06
0.00045678251
5.8828268e-06
0.00045477076
5.8891173e-06
0.00045276949
5.897438e-06
0.00045077718
5.906969e-06
0.00044879299
5.9157617e-06
0.00044681691
5.9203766e-06
0.0004448484
5.9247352e-06
0.00044288766
5.9245897e-06
0.00044093486
5.9227608e-06
0.00043898826
5.9235886e-06
0.00043705017
5.9174503e-06
0.00043510402
5.9599609e-06
0.00043318446
5.8972143e-06
0.00043119798
6.0615395e-06
0.00042914487
6.7543964e-06
0.00042690791
5.85921e-06
9.1730277e-06
0.00092302506
7.5203245e-05
-0.00091969517
0.00092854332
9.6764517e-05
0.00093511549
0.00011141073
0.00094153366
0.00011735633
0.00094668323
0.00011510005
0.00094992558
0.00010694822
0.00095151227
9.6704752e-05
0.00095188726
8.7585311e-05
0.00095154831
8.082419e-05
0.00095103638
7.6311622e-05
0.00095038829
7.3305667e-05
0.00094953827
7.1178276e-05
0.00094838718
6.9590721e-05
0.00094680824
6.822567e-05
0.0009447243
6.6991293e-05
0.00094199972
6.5904547e-05
0.00093849391
6.4936803e-05
0.0009341652
6.3986654e-05
0.00092901941
6.3052845e-05
0.000923036
6.2115293e-05
0.00091626852
6.1135915e-05
0.00090884445
6.0113861e-05
0.00090083972
5.9060414e-05
0.00089231316
5.7953738e-05
0.00088331711
5.6819219e-05
0.00087390411
5.5690244e-05
0.00086413069
5.4537856e-05
0.00085405106
5.3343237e-05
0.00084371781
5.2123129e-05
0.0008331825
5.0891641e-05
0.00082249762
4.9628524e-05
0.00081171426
4.8320601e-05
0.00080087868
4.6979063e-05
0.0007900338
4.5607319e-05
0.00077922242
4.4187576e-05
0.00076848746
4.2704762e-05
0.00075787086
4.1162548e-05
0.00074741427
3.9558467e-05
0.00073715929
3.787531e-05
0.00072714735
3.6098657e-05
0.00071741945
3.4222227e-05
0.00070801792
3.2233664e-05
0.00069898749
3.0115239e-05
0.00069038643
2.7843039e-05
0.00068222089
2.5434511e-05
0.00067446916
2.2970369e-05
0.00066715437
2.0426003e-05
0.0006603073
1.7814509e-05
0.00065394622
1.521432e-05
0.00064807094
1.2680048e-05
0.0006426638
1.0272778e-05
0.00063768599
8.0680223e-06
0.000633087
6.1600163e-06
0.00062883883
4.5829471e-06
0.00062481207
3.4522134e-06
0.00062081643
2.9386315e-06
0.00061680004
3.0290251e-06
0.00061278847
3.5768243e-06
0.00060879685
4.4919087e-06
0.0006048296
5.5636557e-06
0.00060088901
6.6506566e-06
0.0005969775
7.6706119e-06
0.00059309736
8.5526514e-06
0.00058925275
9.2593079e-06
0.00058544977
9.784977e-06
0.00058169577
1.0142801e-05
0.0005779993
1.0349202e-05
0.00057436835
1.0434293e-05
0.00057081022
1.0423691e-05
0.00056733123
1.0339152e-05
0.0005639365
1.0200759e-05
0.00056062919
1.0027516e-05
0.00055741136
9.8262606e-06
0.0005542836
9.6067021e-06
0.00055124378
9.3866241e-06
0.00054828791
9.1731729e-06
0.00054541428
8.9970918e-06
0.00054262144
8.8626639e-06
0.0005399025
8.7369623e-06
0.00053724749
8.6251114e-06
0.00053464829
8.5274723e-06
0.00053209799
8.4483132e-06
0.00052958949
8.3948374e-06
0.00052711757
8.3547465e-06
0.00052467725
8.3294349e-06
0.00052226513
8.3095631e-06
0.00051987836
8.2937336e-06
0.00051751484
8.2792895e-06
0.00051517327
8.2619385e-06
0.00051285222
8.24579e-06
0.00051055089
8.2259151e-06
0.00050826836
8.2052933e-06
0.00050600177
8.1901806e-06
0.00050375281
8.1664049e-06
0.00050150337
8.2094072e-06
0.0004992878
8.1127779e-06
0.00049700827
8.341077e-06
0.00049469649
9.0661735e-06
0.00049206642
8.4892834e-06
1.1626659e-05
0.00095540212
7.2204238e-05
-0.00095240311
0.00096048581
9.1680824e-05
0.00096655469
0.00010534185
0.00097252352
0.0001113875
0.00097740594
0.00011021763
0.00098065158
0.00010370258
0.00098240292
9.4953409e-05
0.00098316303
8.6825208e-05
0.00098337357
8.0613645e-05
0.00098335879
7.6326403e-05
0.00098326924
7.3395217e-05
0.00098315372
7.1293796e-05
0.00098300871
6.9735728e-05
0.00098277005
6.846433e-05
0.00098239191
6.7369431e-05
0.00098183686
6.6459604e-05
0.00098105524
6.571842e-05
0.00097998381
6.5058081e-05
0.00097857195
6.4464706e-05
0.0009767331
6.395415e-05
0.00097437443
6.3494578e-05
0.00097145452
6.303378e-05
0.00096795201
6.2562921e-05
0.00096383505
6.2070693e-05
0.00095911831
6.1535959e-05
0.00095385247
6.0956083e-05
0.00094806574
6.0324593e-05
0.00094178297
5.9626e-05
0.0009350272
5.8878901e-05
0.00092782446
5.809438e-05
0.00092020795
5.7245033e-05
0.00091221366
5.6314896e-05
0.00090387311
5.5319609e-05
0.00089521839
5.4262042e-05
0.00088628783
5.3118134e-05
0.00087712091
5.1871686e-05
0.00086775965
5.0523805e-05
0.00085825122
4.9066899e-05
0.00084864514
4.7481392e-05
0.00083899202
4.5751778e-05
0.00082934337
4.3870867e-05
0.00081975282
4.1824216e-05
0.00081027757
3.9590488e-05
0.00080097835
3.7142259e-05
0.00079190344
3.4509425e-05
0.00078307727
3.1796539e-05
0.00077451728
2.898599e-05
0.00076625434
2.6077451e-05
0.00075831926
2.3149403e-05
0.0007507315
2.0267809e-05
0.00074349547
1.7508808e-05
0.00073659646
1.496703e-05
0.00073001988
1.2736592e-05
0.00072377255
1.0830286e-05
0.000717773
9.4517622e-06
0.00071188233
8.8292959e-06
0.00070606158
8.8497755e-06
0.00070033027
9.3081337e-06
0.00069470077
1.0121406e-05
0.00068917834
1.1086095e-05
0.00068376988
1.2059117e-05
0.00067847923
1.2961256e-05
0.00067330489
1.3726995e-05
0.00066824678
1.4317419e-05
0.00066330549
1.472626e-05
0.00065848071
1.4967582e-05
0.00065377292
1.5056997e-05
0.00064918306
1.5024154e-05
0.00064471227
1.4894479e-05
0.00064036164
1.4689778e-05
0.00063613271
1.4429688e-05
0.00063202563
1.41346e-05
0.00062803935
1.3812536e-05
0.00062417205
1.3474008e-05
0.00062041972
1.3138958e-05
0.00061677734
1.2815546e-05
0.00061324067
1.2533759e-05
0.00060980662
1.229672e-05
0.00060647042
1.2073163e-05
0.00060322383
1.1871695e-05
0.00060005885
1.1692455e-05
0.00059696798
1.1539185e-05
0.00059394336
1.1419454e-05
0.0005909788
1.1319313e-05
0.00058806824
1.1239995e-05
0.00058520699
1.1170806e-05
0.00058239089
1.1109839e-05
0.00057961642
1.1053756e-05
0.00057688093
1.0997425e-05
0.0005741818
1.0944926e-05
0.00057151704
1.0890674e-05
0.00056888448
1.0837848e-05
0.00056628006
1.0794608e-05
0.00056370454
1.0741926e-05
0.00056113855
1.0775394e-05
0.00055861502
1.063631e-05
0.00055603373
1.0922361e-05
0.0005534516
1.1648307e-05
0.00055044389
1.1496989e-05
1.4238877e-05
0.00098880554
6.9475004e-05
-0.0009860763
0.0009934829
8.700346e-05
0.00099911291
9.9711838e-05
0.0010046939
0.00010580653
0.0010093506
0.00010556095
0.0010125736
0.00010047956
0.0010144213
9.3105664e-05
0.0010153202
8.5926337e-05
0.0010157062
8.02276e-05
0.0010158785
7.6154164e-05
0.0010159766
7.3297126e-05
0.0010160462
7.1224193e-05
0.0010161146
6.9667343e-05
0.0010161678
6.8411094e-05
0.0010161779
6.7359361e-05
0.0010161412
6.649631e-05
0.0010160538
6.5805795e-05
0.0010158893
6.5222568e-05
0.0010156265
6.4727467e-05
0.0010152413
6.4339398e-05
0.0010146982
6.4037661e-05
0.0010139563
6.377573e-05
0.0010129753
6.3543884e-05
0.0010116941
6.3351885e-05
0.0010100499
6.3180196e-05
0.0010080051
6.3000804e-05
0.0010055282
6.2801557e-05
0.0010025882
6.2566013e-05
0.00099918469
6.2282375e-05
0.00099533162
6.1947454e-05
0.00099103122
6.1545431e-05
0.00098628508
6.1061031e-05
0.00098109795
6.0506747e-05
0.00097547874
5.988125e-05
0.00096943946
5.9157407e-05
0.00096299425
5.8316902e-05
0.00095615862
5.735943e-05
0.00094894917
5.6276355e-05
0.00094138456
5.5045996e-05
0.00093349025
5.3646089e-05
0.0009252976
5.2063516e-05
0.00091684224
5.0279581e-05
0.00090816666
4.8266068e-05
0.0008993096
4.5999319e-05
0.00089035012
4.3468904e-05
0.00088138428
4.0762379e-05
0.000872446
3.792427e-05
0.00086355599
3.4967459e-05
0.00085474802
3.1957371e-05
0.00084606134
2.8954488e-05
0.00083753652
2.6033636e-05
0.00082921046
2.3293088e-05
0.0008211117
2.0835354e-05
0.00081324794
1.8694039e-05
0.00080566273
1.7036976e-05
0.00079833809
1.6153935e-05
0.00079119351
1.5994358e-05
0.00078419264
1.6309005e-05
0.00077730429
1.7009753e-05
0.00077052853
1.7861857e-05
0.0007638792
1.870844e-05
0.00075736397
1.9476493e-05
0.00075098758
2.0103386e-05
0.00074476024
2.0544757e-05
0.00073868818
2.079832e-05
0.00073277185
2.0883913e-05
0.00072701235
2.0816498e-05
0.00072141071
2.0625792e-05
0.00071596631
2.0338884e-05
0.0007106778
1.9978284e-05
0.0007055448
1.9562688e-05
0.00070056622
1.9113177e-05
0.00069573988
1.8638882e-05
0.00069106243
1.8151456e-05
0.0006865284
1.7672987e-05
0.00068213193
1.7212014e-05
0.00067786738
1.6798305e-05
0.00067373011
1.6433996e-05
0.00066971578
1.6087488e-05
0.00066581756
1.5769919e-05
0.00066202826
1.5481759e-05
0.00065834045
1.522699e-05
0.00065474589
1.5014016e-05
0.00065123762
1.4827586e-05
0.00064780862
1.466899e-05
0.00064445301
1.4526417e-05
0.00064116527
1.4397583e-05
0.00063794047
1.4278551e-05
0.0006347745
1.4163393e-05
0.00063166328
1.4056156e-05
0.0006286034
1.3950548e-05
0.00062559146
1.3849793e-05
0.0006226221
1.3763965e-05
0.00061969498
1.3669048e-05
0.00061678956
1.368081e-05
0.00061393685
1.3489025e-05
0.00061103443
1.3824779e-05
0.0006081614
1.4521337e-05
0.00060477109
1.4887297e-05
1.7040702e-05
0.0010232723
6.695987e-05
-0.0010207571
0.0010275688
8.2706902e-05
0.001032785
9.4495699e-05
0.0010380058
0.00010058575
0.0010424563
0.00010111037
0.0010456591
9.7276822e-05
0.0010476077
9.1157012e-05
0.0010486425
8.4891561e-05
0.0010491524
7.9717724e-05
0.0010494213
7.5885205e-05
0.0010495983
7.3120142e-05
0.0010497443
7.1078173e-05
0.0010498843
6.9527434e-05
0.0010500093
6.8286032e-05
0.0010501115
6.7257157e-05
0.0010501933
6.6414506e-05
0.0010502651
6.5734005e-05
0.0010503174
6.5170271e-05
0.001050333
6.4711846e-05
0.0010503143
6.4358088e-05
0.001050258
6.4093978e-05
0.0010501475
6.3886253e-05
0.0010499674
6.3724018e-05
0.001049699
6.3620282e-05
0.0010493169
6.3562289e-05
0.0010487922
6.3525501e-05
0.0010480928
6.3500931e-05
0.0010471732
6.3485614e-05
0.0010459883
6.3467241e-05
0.0010445073
6.342846e-05
0.001042696
6.3356812e-05
0.0010405239
6.3233111e-05
0.0010379841
6.3046551e-05
0.0010350731
6.2792265e-05
0.00103178
6.2450455e-05
0.001028093
6.2003897e-05
0.0010240009
6.1451589e-05
0.0010194962
6.0781005e-05
0.0010145752
5.9967041e-05
0.0010092336
5.8987649e-05
0.0010034668
5.7830342e-05
0.00099727072
5.6475635e-05
0.00099064486
5.4891928e-05
0.00098358545
5.3058729e-05
0.00097610131
5.0953043e-05
0.0009682544
4.8609287e-05
0.00096011413
4.6064541e-05
0.00095172468
4.3356905e-05
0.00094312804
4.0554018e-05
0.00093437045
3.771208e-05
0.00092550789
3.4896196e-05
0.00091660743
3.2193547e-05
0.00090773211
2.9710669e-05
0.0008989081
2.7518054e-05
0.0008902356
2.5709479e-05
0.00088185395
2.4535575e-05
0.00087375967
2.4088646e-05
0.00086582403
2.4244644e-05
0.00085797122
2.4862558e-05
0.00085022001
2.5613067e-05
0.000842571
2.635745e-05
0.00083502282
2.7024682e-05
0.00082759406
2.7532139e-05
0.00082030894
2.7829876e-05
0.00081317786
2.7929403e-05
0.00080620654
2.785523e-05
0.00079940568
2.7617358e-05
0.00079278218
2.7249296e-05
0.00078633713
2.6783933e-05
0.00078007134
2.6244073e-05
0.00077398662
2.5647404e-05
0.0007680827
2.5017104e-05
0.00076235762
2.4363956e-05
0.00075680831
2.3700767e-05
0.00075142917
2.3052124e-05
0.00074621447
2.242672e-05
0.00074115865
2.1854126e-05
0.00073625657
2.1336075e-05
0.00073150385
2.0840201e-05
0.0007268945
2.0379274e-05
0.00072242231
1.9953951e-05
0.00071808034
1.9568956e-05
0.00071386032
1.9234041e-05
0.00070975482
1.893308e-05
0.00070575606
1.8667753e-05
0.00070185707
1.8425403e-05
0.00069805111
1.8203549e-05
0.00069433186
1.7997792e-05
0.00069069376
1.7801499e-05
0.00068713118
1.7618739e-05
0.00068363922
1.7442503e-05
0.00068021308
1.727593e-05
0.0006768461
1.7130946e-05
0.00067353665
1.6978504e-05
0.000670263
1.6954457e-05
0.00066705411
1.6697909e-05
0.00066380493
1.7073968e-05
0.00066061506
1.7711205e-05
0.00065682439
1.8677969e-05
2.0062919e-05
0.0010588316
6.4619136e-05
-0.0010564908
0.001062777
7.8761518e-05
0.001067604
8.9668686e-05
0.0010724863
9.5703377e-05
0.0010767329
9.6863771e-05
0.0010799011
9.410871e-05
0.0010819376
8.9120436e-05
0.0010831067
8.3722485e-05
0.001083746
7.907847e-05
0.0010841154
7.5515772e-05
0.001084363
7.2872522e-05
0.0010845583
7.0882911e-05
0.0010847334
6.9352305e-05
0.0010848912
6.8128196e-05
0.00108503
6.7118391e-05
0.0010851537
6.6290798e-05
0.001085266
6.5621749e-05
0.0010853628
6.5073484e-05
0.0010854444
6.4630235e-05
0.0010855139
6.4288543e-05
0.0010855764
6.4031463e-05
0.0010856273
6.383537e-05
0.0010856522
6.3699099e-05
0.00108565
6.3622495e-05
0.0010856197
6.3592617e-05
0.0010855499
6.3595325e-05
0.0010854296
6.3621158e-05
0.001085244
6.3671269e-05
0.0010849729
6.3738275e-05
0.0010845953
6.3806117e-05
0.0010840846
6.3867505e-05
0.0010834057
6.3912028e-05
0.0010825246
6.3927581e-05
0.0010814159
6.3901007e-05
0.0010800461
6.3820244e-05
0.001078388
6.366198e-05
0.0010764293
6.3410364e-05
0.0010741527
6.3057588e-05
0.0010715399
6.2579864e-05
0.0010685702
6.195734e-05
0.0010652207
6.1179757e-05
0.0010614671
6.0229252e-05
0.0010572833
5.9075717e-05
0.0010526401
5.7702013e-05
0.0010474989
5.609424e-05
0.0010418403
5.426787e-05
0.0010356734
5.2231425e-05
0.0010290145
5.0015797e-05
0.0010218817
4.7686813e-05
0.0010142989
4.529488e-05
0.0010063015
4.289357e-05
0.00099794141
4.0553666e-05
0.00098928672
3.8365358e-05
0.00098039909
3.6405687e-05
0.00097137081
3.4737755e-05
0.00096239537
3.3511015e-05
0.00095361096
3.2873063e-05
0.00094501757
3.2838034e-05
0.00093659541
3.3284718e-05
0.00092828218
3.3926293e-05
0.00091999277
3.4646858e-05
0.00091172439
3.5293063e-05
0.00090352918
3.5727349e-05
0.00089542689
3.593217e-05
0.00088742338
3.5932908e-05
0.00087954259
3.5736018e-05
0.00087181142
3.5348532e-05
0.00086424177
3.481895e-05
0.00085684041
3.4185291e-05
0.00084961814
3.3466342e-05
0.00084258363
3.2681915e-05
0.00083573959
3.1861145e-05
0.00082908742
3.1016123e-05
0.0008226277
3.0160493e-05
0.00081635732
2.9322502e-05
0.00081027295
2.8511084e-05
0.0008043715
2.7755585e-05
0.00079864899
2.7058586e-05
0.00079310162
2.6387568e-05
0.00078772442
2.5756476e-05
0.00078251238
2.5165989e-05
0.00077745939
2.4621943e-05
0.00077255762
2.4135814e-05
0.00076779965
2.3691053e-05
0.00076317719
2.3290204e-05
0.00075868255
2.2920051e-05
0.00075430794
2.2578156e-05
0.00075004586
2.2259875e-05
0.00074588935
2.1958008e-05
0.00074183133
2.1676755e-05
0.0007378654
2.1408433e-05
0.00073398529
2.1156041e-05
0.00073018296
2.0933276e-05
0.00072645541
2.0706055e-05
0.00072277967
2.0630196e-05
0.00071918268
2.0294899e-05
0.00071555613
2.0700514e-05
0.0007120191
2.1248237e-05
0.0007078011
2.2895972e-05
2.3336723e-05
0.0010955174
6.242463e-05
-0.0010933229
0.0010991438
7.5135054e-05
0.0011036077
8.5204847e-05
0.0011081721
9.1138966e-05
0.0011122169
9.2818932e-05
0.0011153348
9.0990824e-05
0.0011174396
8.7015589e-05
0.0011187292
8.2432967e-05
0.0011194922
7.8315431e-05
0.0011199647
7.504332e-05
0.0011202897
7.2547429e-05
0.0011205406
7.0632025e-05
0.0011207543
6.9138682e-05
0.0011209412
6.7941281e-05
0.0011211039
6.6955621e-05
0.0011212484
6.6146379e-05
0.0011213795
6.5490578e-05
0.0011214975
6.4955557e-05
0.0011216039
6.4523768e-05
0.0011217025
6.4189963e-05
0.0011217943
6.3939626e-05
0.0011218769
6.3752824e-05
0.0011219504
6.3625635e-05
0.0011220165
6.3556345e-05
0.001122075
6.3534168e-05
0.0011221285
6.3541784e-05
0.0011221666
6.3583019e-05
0.0011221801
6.3657808e-05
0.0011221716
6.3746808e-05
0.001122133
6.3844683e-05
0.0011220561
6.3944444e-05
0.0011219288
6.4039312e-05
0.0011217346
6.4121776e-05
0.0011214572
6.4178352e-05
0.0011210741
6.4203349e-05
0.0011205569
6.4179208e-05
0.0011198796
6.408768e-05
0.0011190184
6.3918819e-05
0.001117942
6.36562e-05
0.0011166249
6.3274459e-05
0.0011150498
6.2754891e-05
0.0011131901
6.2088949e-05
0.0011110152
6.1250551e-05
0.0011084913
6.0225922e-05
0.001105577
5.9008543e-05
0.0011022273
5.7617625e-05
0.0010983994
5.6059255e-05
0.0010940579
5.4357322e-05
0.001089172
5.2572737e-05
0.0010837158
5.0751091e-05
0.0010776718
4.8937538e-05