/*--------------------------------*- C++ -*----------------------------------*\
| =========                 |                                                 |
| \\      /  F ield         | OpenFOAM: The Open Source CFD Toolbox           |
|  \\    /   O peration     | Version:  2206                                  |
|   \\  /    A nd           | Website:  www.openfoam.com                      |
|    \\/     M anipulation  |                                                 |
\*---------------------------------------------------------------------------*/
FoamFile
{
    version     2.0;
    format      ascii;
    arch        "LSB;label=32;scalar=64";
    class       volVectorField;
    location    "500";
    object      U;
}
// * * * * * * * * * * * * * * * * * * * * * * * * * * * * * * * * * * * * * //

dimensions      [0 1 -1 0 0 0 0];

internalField   nonuniform List<vector> 
7480
(
(0.827532 0.011169878 0)
(0.70298497 0.020216613 0)
(0.5665385 0.021428686 0)
(0.43052683 0.01456011 0)
(0.33054396 0.0062893433 0)
(0.26657901 0.0019074636 0)
(0.23007231 0.0022227327 0)
(0.2085324 -0.00029201945 0)
(0.19447297 -0.00043040571 0)
(0.18414254 -0.00017539811 0)
(0.17531712 1.0981521e-06 0)
(0.16712719 5.432388e-05 0)
(0.15955479 6.5026712e-05 0)
(0.15265198 6.6981781e-05 0)
(0.14636241 0.00024248424 0)
(0.14062558 0.00020395555 0)
(0.13539286 8.6541737e-05 0)
(0.13060625 5.2307012e-05 0)
(0.12617956 4.6786022e-05 0)
(0.12206429 4.1795553e-05 0)
(0.11823961 3.7842519e-05 0)
(0.11466965 3.554086e-05 0)
(0.11131764 3.3093991e-05 0)
(0.1081656 3.0291461e-05 0)
(0.10520088 2.7904597e-05 0)
(0.10240328 2.6167471e-05 0)
(0.099753525 2.4372688e-05 0)
(0.097242421 2.2436401e-05 0)
(0.094863364 2.0752558e-05 0)
(0.092605377 1.9355155e-05 0)
(0.090458838 1.7924527e-05 0)
(0.088419572 1.6460422e-05 0)
(0.086483921 1.5154649e-05 0)
(0.084646008 1.3981058e-05 0)
(0.082901265 1.2808495e-05 0)
(0.08124805 1.1651331e-05 0)
(0.079684831 1.058601e-05 0)
(0.078209679 9.5675907e-06 0)
(0.076822456 8.5430572e-06 0)
(0.075525073 7.5307006e-06 0)
(0.074319494 6.5732901e-06 0)
(0.073207232 5.6536427e-06 0)
(0.072191587 4.726199e-06 0)
(0.071275721 3.8545531e-06 0)
(0.070463181 1.4543122e-05 0)
(0.069774491 8.0173573e-06 0)
(0.069199785 3.7453421e-06 0)
(0.068763501 1.1667444e-06 0)
(0.068465919 -3.6003537e-07 0)
(0.068304384 -1.3967533e-06 0)
(0.068275234 -2.3691461e-06 0)
(0.068372063 -3.0150416e-06 0)
(0.068584057 -3.4208886e-06 0)
(0.068889056 -3.517892e-06 0)
(0.069265355 -3.5832442e-06 0)
(0.069701127 -3.6556387e-06 0)
(0.070167151 -3.318192e-06 0)
(0.070616047 -2.7853729e-06 0)
(0.071002819 -2.3534253e-06 0)
(0.071285043 -4.7886446e-06 0)
(0.071462462 -9.6065497e-07 0)
(0.071533633 -5.737487e-07 0)
(0.071507281 -2.7371e-07 0)
(0.071398733 -8.809821e-08 0)
(0.071225667 5.3578856e-08 0)
(0.071004003 1.5976152e-07 0)
(0.070748049 2.1720118e-07 0)
(0.070469412 2.5045136e-07 0)
(0.070176424 2.6436829e-07 0)
(0.069875344 2.6473746e-07 0)
(0.069571049 2.5596765e-07 0)
(0.06926642 2.4952581e-07 0)
(0.068963231 2.3977631e-07 0)
(0.068663502 2.2567541e-07 0)
(0.068367731 2.2182321e-07 0)
(0.068076268 2.1193509e-07 0)
(0.067789565 2.2243358e-07 0)
(0.06749812 2.5214386e-07 0)
(0.067201796 2.5871065e-07 0)
(0.066903269 2.6416254e-07 0)
(0.066603685 2.6287384e-07 0)
(0.066303682 2.600633e-07 0)
(0.06600195 2.6594337e-07 0)
(0.065697887 2.6313253e-07 0)
(0.065391252 2.6565773e-07 0)
(0.06508178 2.6368366e-07 0)
(0.064769822 2.6205552e-07 0)
(0.064455338 2.6083219e-07 0)
(0.064138918 2.5613288e-07 0)
(0.063820652 2.5528077e-07 0)
(0.063500935 2.4975651e-07 0)
(0.063179854 2.4873339e-07 0)
(0.06285807 2.4271983e-07 0)
(0.062533474 2.4929665e-07 0)
(0.062212068 2.2516614e-07 0)
(0.061871466 3.0422505e-07 0)
(0.061577652 9.012266e-07 0)
(0.061139198 1.1254531e-05 0)
(0.060898465 1.8972703e-05 0)
(0.060225925 9.0502397e-06 0)
(0.95865044 0.028033216 0)
(0.94941693 0.03858433 0)
(0.93029268 0.041832411 0)
(0.88512106 0.039309942 0)
(0.82440884 0.032445963 0)
(0.75683446 0.023965236 0)
(0.69438043 0.015507099 0)
(0.64140193 0.009403148 0)
(0.59777343 0.0060304065 0)
(0.56171741 0.0043640076 0)
(0.53122683 0.0035605945 0)
(0.50476885 0.0030823682 0)
(0.48142854 0.0027040605 0)
(0.46058557 0.0023898176 0)
(0.44175245 0.0021293961 0)
(0.4246067 0.0018739738 0)
(0.40894161 0.0016552696 0)
(0.39455051 0.0014826788 0)
(0.3812409 0.0013359041 0)
(0.36887683 0.0012047399 0)
(0.35736432 0.0010885522 0)
(0.3466071 0.00098961596 0)
(0.3365162 0.00090264113 0)
(0.3270287 0.00082376172 0)
(0.31809065 0.00075321406 0)
(0.30965027 0.00069141005 0)
(0.30166029 0.00063571072 0)
(0.29408789 0.00058422672 0)
(0.2869075 0.00053730689 0)
(0.28009109 0.00049509462 0)
(0.27361352 0.00045625017 0)
(0.26745838 0.00041994568 0)
(0.26161258 0.00038641481 0)
(0.25606174 0.00035556273 0)
(0.25079394 0.0003266966 0)
(0.24580256 0.00029943724 0)
(0.2410831 0.00027382239 0)
(0.23663202 0.00024958956 0)
(0.23244942 0.00022629923 0)
(0.22854003 0.0002037551 0)
(0.22491049 0.00018200379 0)
(0.22156802 0.00016092124 0)
(0.21852371 0.00014024618 0)
(0.21578905 0.00012001977 0)
(0.21338232 0.00010179747 0)
(0.21134817 0.00010381231 0)
(0.20965846 5.4412523e-05 0)
(0.20838095 3.6430055e-05 0)
(0.20751616 1.7650529e-05 0)
(0.20705201 2.4147066e-07 0)
(0.20697391 -1.5322951e-05 0)
(0.20725876 -2.8876578e-05 0)
(0.2078711 -3.9716462e-05 0)
(0.20874921 -4.7094434e-05 0)
(0.20982898 -5.2008973e-05 0)
(0.21105752 -5.4541946e-05 0)
(0.21234328 -5.2542977e-05 0)
(0.21355967 -4.6002339e-05 0)
(0.21458728 -3.7213858e-05 0)
(0.21532802 -2.5709979e-05 0)
(0.21576889 -1.4626091e-05 0)
(0.21591589 -5.0033842e-06 0)
(0.21579149 2.8492977e-06 0)
(0.21543706 8.8325029e-06 0)
(0.21490117 1.3060367e-05 0)
(0.21422838 1.5846112e-05 0)
(0.21345815 1.7459983e-05 0)
(0.21262255 1.826963e-05 0)
(0.21174552 1.8516369e-05 0)
(0.21084497 1.836811e-05 0)
(0.20993458 1.7959269e-05 0)
(0.20902291 1.742727e-05 0)
(0.2081156 1.6799574e-05 0)
(0.20721812 1.610814e-05 0)
(0.20633246 1.5447711e-05 0)
(0.20545956 1.4783257e-05 0)
(0.20459927 1.4455401e-05 0)
(0.20372401 1.4441357e-05 0)
(0.20283519 1.4258356e-05 0)
(0.20194085 1.3964923e-05 0)
(0.20104383 1.3621196e-05 0)
(0.20014492 1.3291958e-05 0)
(0.19924103 1.3031873e-05 0)
(0.19833041 1.2765732e-05 0)
(0.19741217 1.2528495e-05 0)
(0.19648581 1.2278946e-05 0)
(0.19555209 1.2026828e-05 0)
(0.1946112 1.1770067e-05 0)
(0.19366466 1.1493687e-05 0)
(0.19271301 1.122576e-05 0)
(0.19175738 1.0939006e-05 0)
(0.19079824 1.0661728e-05 0)
(0.18983737 1.0386388e-05 0)
(0.18887032 1.012187e-05 0)
(0.18791016 9.9154695e-06 0)
(0.18690783 9.6459088e-06 0)
(0.18600768 1.1751132e-05 0)
(0.18477662 3.9598049e-05 0)
(0.18403511 6.4618272e-05 0)
(0.18205748 3.5619926e-05 0)
(0.9680055 0.02970585 0)
(0.9730931 0.037720086 0)
(0.98238181 0.041542458 0)
(0.98424137 0.041012549 0)
(0.97936851 0.037119828 0)
(0.96361226 0.030589814 0)
(0.93925484 0.024142574 0)
(0.91010806 0.019116218 0)
(0.87834759 0.015500889 0)
(0.8461483 0.012897888 0)
(0.81514752 0.010957964 0)
(0.78574425 0.009405042 0)
(0.7580075 0.0081191482 0)
(0.73185507 0.007081478 0)
(0.70718342 0.0062344145 0)
(0.68393679 0.0055142709 0)
(0.66207815 0.0048997969 0)
(0.64151559 0.0043854914 0)
(0.62213681 0.0039460157 0)
(0.60385304 0.0035587608 0)
(0.58659328 0.0032175172 0)
(0.5702748 0.0029223718 0)
(0.55481717 0.0026630237 0)
(0.54015768 0.0024304621 0)
(0.52624419 0.0022226045 0)
(0.51302066 0.0020388743 0)
(0.50043468 0.0018738628 0)
(0.48844664 0.0017231046 0)
(0.47702377 0.0015858431 0)
(0.46613234 0.0014615283 0)
(0.45574258 0.0013474493 0)
(0.44583335 0.0012415765 0)
(0.4363874 0.0011436656 0)
(0.42738775 0.0010531943 0)
(0.41882082 0.00096870839 0)
(0.41067905 0.00088917549 0)
(0.40295849 0.00081429064 0)
(0.39565749 0.00074334745 0)
(0.38877889 0.00067533835 0)
(0.38233111 0.00060966305 0)
(0.37632593 0.00054618851 0)
(0.37077733 0.00048455807 0)
(0.36570438 0.00042417444 0)
(0.36112784 0.00036518682 0)
(0.35707645 0.00030429594 0)
(0.3536024 0.00029039112 0)
(0.3506974 0.00018833077 0)
(0.34841423 0.00012914917 0)
(0.3467526 7.4501121e-05 0)
(0.34569362 2.4119729e-05 0)
(0.34520932 -2.0768012e-05 0)
(0.34525602 -5.9505521e-05 0)
(0.34577689 -9.0651506e-05 0)
(0.34668182 -0.00011264184 0)
(0.34787817 -0.00012710931 0)
(0.34927497 -0.00013395635 0)
(0.3507307 -0.00012962237 0)
(0.35207119 -0.00011323579 0)
(0.35314256 -8.6723908e-05 0)
(0.3538307 -5.8703395e-05 0)
(0.35411359 -3.0389845e-05 0)
(0.35400255 -5.0838052e-06 0)
(0.35352955 1.5930946e-05 0)
(0.35275187 3.2037515e-05 0)
(0.35173394 4.3554263e-05 0)
(0.35053503 5.1201301e-05 0)
(0.3492075 5.568234e-05 0)
(0.34779445 5.7879011e-05 0)
(0.3463289 5.8450507e-05 0)
(0.3448358 5.788111e-05 0)
(0.34333407 5.6557532e-05 0)
(0.34183587 5.4834644e-05 0)
(0.34034964 5.2828352e-05 0)
(0.33888299 5.064583e-05 0)
(0.33743901 4.8508651e-05 0)
(0.33601885 4.6398048e-05 0)
(0.33462086 4.5182601e-05 0)
(0.33320488 4.4777344e-05 0)
(0.33177852 4.3990284e-05 0)
(0.33035144 4.2927134e-05 0)
(0.32892514 4.1780128e-05 0)
(0.32749907 4.070002e-05 0)
(0.32606886 3.9796607e-05 0)
(0.32463162 3.892412e-05 0)
(0.32318551 3.8126694e-05 0)
(0.32172963 3.7318498e-05 0)
(0.32026457 3.6508067e-05 0)
(0.31879055 3.5686787e-05 0)
(0.31730939 3.4824792e-05 0)
(0.31582192 3.3974843e-05 0)
(0.31432958 3.3089914e-05 0)
(0.31283308 3.2217347e-05 0)
(0.31133481 3.1364197e-05 0)
(0.30982934 3.0509912e-05 0)
(0.30833255 2.9894466e-05 0)
(0.30678413 2.8852032e-05 0)
(0.30536121 3.1872799e-05 0)
(0.30352131 7.2174891e-05 0)
(0.3023179 0.0001124913 0)
(0.29932016 5.5553561e-05 0)
(0.97004331 0.027082989 0)
(0.97639324 0.034264309 0)
(0.98545051 0.038377923 0)
(0.99341584 0.039211586 0)
(1.0016191 0.03617495 0)
(1.0025042 0.031199513 0)
(0.99954569 0.026292729 0)
(0.99330692 0.0222482 0)
(0.98417939 0.019369341 0)
(0.97248915 0.017347413 0)
(0.95866491 0.015777041 0)
(0.94310451 0.014350587 0)
(0.92568429 0.01301532 0)
(0.90733895 0.01178095 0)
(0.88852219 0.01066987 0)
(0.86951955 0.0096639506 0)
(0.85053306 0.0087604704 0)
(0.83168728 0.0079709688 0)
(0.81307222 0.0072750572 0)
(0.79477999 0.0066467874 0)
(0.77689093 0.0060789185 0)
(0.75945019 0.0055730028 0)
(0.74248181 0.0051178325 0)
(0.72600609 0.0047030563 0)
(0.71004132 0.0043266249 0)
(0.69458945 0.0039881368 0)
(0.67964479 0.0036807811 0)
(0.66520432 0.0033984599 0)
(0.65126417 0.0031397347 0)
(0.63781457 0.0029034298 0)
(0.62484552 0.0026854658 0)
(0.61235154 0.0024826442 0)
(0.60032825 0.0022941798 0)
(0.58877015 0.0021189826 0)
(0.57767419 0.0019547165 0)
(0.56704271 0.001799596 0)
(0.55688162 0.0016529588 0)
(0.54719688 0.0015136547 0)
(0.53799729 0.0013800152 0)
(0.52929642 0.0012509465 0)
(0.52111139 0.0011260488 0)
(0.51346197 0.0010046521 0)
(0.50637304 0.00088579203 0)
(0.4998712 0.0007695813 0)
(0.49399189 0.00064959789 0)
(0.48878253 0.00059391235 0)
(0.48424106 0.00042868757 0)
(0.48039226 0.00031277857 0)
(0.47722515 0.00020964003 0)
(0.47471717 0.00011548644 0)
(0.47283659 3.126465e-05 0)
(0.4715374 -4.1466581e-05 0)
(0.4707535 -0.00010014046 0)
(0.47038889 -0.00014252109 0)
(0.47035649 -0.00017133035 0)
(0.47054712 -0.00018596581 0)
(0.47079495 -0.00017846263 0)
(0.47092841 -0.00015152713 0)
(0.47082054 -0.00010475587 0)
(0.47038616 -6.0986146e-05 0)
(0.46961146 -1.4993634e-05 0)
(0.46850827 2.6179056e-05 0)
(0.46711013 6.01165e-05 0)
(0.46546552 8.5947216e-05 0)
(0.46362754 0.00010416744 0)
(0.46164594 0.00011593491 0)
(0.45956591 0.00012241183 0)
(0.45742587 0.0001250073 0)
(0.45525618 0.00012481961 0)
(0.45308034 0.00012268133 0)
(0.45091627 0.00011926879 0)
(0.44877555 0.00011516423 0)
(0.44666701 0.00011058064 0)
(0.44459818 0.00010573038 0)
(0.44257191 0.00010097973 0)
(0.44058875 9.6378501e-05 0)
(0.43864453 9.2946876e-05 0)
(0.4367307 9.0726819e-05 0)
(0.43484026 8.834986e-05 0)
(0.43296884 8.5793009e-05 0)
(0.43111235 8.3232857e-05 0)
(0.42926787 8.0858585e-05 0)
(0.42742993 7.8818361e-05 0)
(0.42559432 7.6896029e-05 0)
(0.42375805 7.5131552e-05 0)
(0.42191915 7.3388059e-05 0)
(0.42007731 7.1664616e-05 0)
(0.41823212 6.9940053e-05 0)
(0.41638473 6.8167551e-05 0)
(0.41453559 6.6420676e-05 0)
(0.41268566 6.4634936e-05 0)
(0.41083537 6.2869095e-05 0)
(0.40898692 6.1158165e-05 0)
(0.40713426 5.9424902e-05 0)
(0.40529379 5.8202123e-05 0)
(0.40340156 5.6008832e-05 0)
(0.40164058 5.9901524e-05 0)
(0.39945698 0.00010708359 0)
(0.39792226 0.00015662171 0)
(0.39438445 7.7412413e-05 0)
(0.97239851 0.025563055 0)
(0.9777577 0.032399559 0)
(0.9858469 0.036407161 0)
(0.99415356 0.037068322 0)
(1.0012335 0.034667995 0)
(1.0055854 0.030634634 0)
(1.0079217 0.026371474 0)
(1.0070717 0.02275797 0)
(1.0052634 0.020143048 0)
(1.0027552 0.018354948 0)
(0.99954834 0.017018643 0)
(0.99554311 0.015925128 0)
(0.99025008 0.014973042 0)
(0.98357866 0.014080279 0)
(0.97554348 0.013227184 0)
(0.96626826 0.012374406 0)
(0.95565279 0.01153841 0)
(0.94414903 0.010747859 0)
(0.93195331 0.01001044 0)
(0.91920821 0.0093180396 0)
(0.90603008 0.0086717552 0)
(0.89252183 0.0080778791 0)
(0.87876066 0.0075281098 0)
(0.86483265 0.0070126676 0)
(0.85082215 0.0065310451 0)
(0.8367973 0.0060854855 0)
(0.82281623 0.0056705564 0)
(0.80893358 0.0052812402 0)
(0.79519676 0.0049176268 0)
(0.78164226 0.0045797149 0)
(0.76830136 0.0042635468 0)
(0.75520473 0.0039659023 0)
(0.74238013 0.0036862255 0)
(0.72985102 0.0034233441 0)
(0.71764079 0.0031743567 0)
(0.70577725 0.0029369845 0)
(0.69428909 0.0027108721 0)
(0.68319326 0.0024950823 0)
(0.67250828 0.0022874801 0)
(0.66225761 0.0020864235 0)
(0.65246785 0.0018911763 0)
(0.64316745 0.0017007485 0)
(0.63438884 0.0015138526 0)
(0.6261651 0.0013300025 0)
(0.61854554 0.0011481249 0)
(0.61154911 0.00096630545 0)
(0.60517501 0.00078905422 0)
(0.59941817 0.00062393995 0)
(0.59427168 0.0004670255 0)
(0.58972678 0.00032313246 0)
(0.58576402 0.0001945613 0)
(0.58235136 8.3254265e-05 0)
(0.57943127 -7.3048989e-06 0)
(0.57692116 -7.4741862e-05 0)
(0.57476861 -0.00012100649 0)
(0.57282348 -0.00014224348 0)
(0.57090823 -0.00013438017 0)
(0.56891211 -0.00010120939 0)
(0.56678571 -4.1826544e-05 0)
(0.56449513 9.2739996e-06 0)
(0.56204493 6.4696901e-05 0)
(0.55944545 0.00011398376 0)
(0.55671481 0.00015400315 0)
(0.55387735 0.0001838004 0)
(0.55096079 0.00020403341 0)
(0.54799238 0.0002161119 0)
(0.5449987 0.00022146469 0)
(0.54200372 0.00022184881 0)
(0.5390273 0.00021865989 0)
(0.53608547 0.00021298361 0)
(0.5331906 0.00020572168 0)
(0.53035053 0.000197617 0)
(0.52757254 0.00018895128 0)
(0.524862 0.00018004288 0)
(0.52222004 0.00017139047 0)
(0.51964571 0.00016312309 0)
(0.51713312 0.0001563982 0)
(0.5146906 0.0001511866 0)
(0.51230699 0.00014601099 0)
(0.50996979 0.00014095663 0)
(0.50767002 0.00013614522 0)
(0.50540219 0.00013173382 0)
(0.50315959 0.00012787665 0)
(0.50093674 0.00012428793 0)
(0.49872936 0.00012099397 0)
(0.49653418 0.00011780522 0)
(0.49434957 0.00011470428 0)
(0.49217395 0.00011165169 0)
(0.49000729 0.00010858064 0)
(0.48784911 0.00010557819 0)
(0.48569937 0.00010256197 0)
(0.48355783 9.9594445e-05 0)
(0.48142592 9.6744145e-05 0)
(0.47929689 9.3860995e-05 0)
(0.47718651 9.1811298e-05 0)
(0.47503035 8.8206055e-05 0)
(0.47300593 9.2760352e-05 0)
(0.47058476 0.00014267331 0)
(0.46878788 0.00019683355 0)
(0.46490017 0.00014050572 0)
(0.97458659 0.024511344 0)
(0.97927958 0.030793788 0)
(0.98635172 0.0344684 0)
(0.99376326 0.035112285 0)
(1.0001586 0.033233381 0)
(1.0047842 0.029794436 0)
(1.0072758 0.025981239 0)
(1.0082604 0.022699646 0)
(1.0079364 0.020249264 0)
(1.0073832 0.018530507 0)
(1.0067525 0.017264562 0)
(1.005995 0.01626603 0)
(1.0049635 0.015425901 0)
(1.0035436 0.014656043 0)
(1.0016213 0.01393165 0)
(0.99913095 0.01326137 0)
(0.99583668 0.012640845 0)
(0.99168507 0.012046926 0)
(0.986661 0.011472171 0)
(0.9807786 0.010900218 0)
(0.97397183 0.010332094 0)
(0.96643061 0.0097854658 0)
(0.95824213 0.009260589 0)
(0.94947113 0.0087552748 0)
(0.94017491 0.0082717742 0)
(0.9304097 0.00781319 0)
(0.92023481 0.0073752899 0)
(0.90970664 0.0069541497 0)
(0.89888229 0.0065510217 0)
(0.88781794 0.0061671379 0)
(0.87656801 0.0057994815 0)
(0.86518746 0.0054459269 0)
(0.85372872 0.0051073185 0)
(0.84223852 0.0047834802 0)
(0.83076142 0.0044719587 0)
(0.81934273 0.0041707949 0)
(0.80802751 0.003879715 0)
(0.79686043 0.0035980828 0)
(0.78588513 0.0033242866 0)
(0.77514554 0.0030569564 0)
(0.76468529 0.0027955087 0)
(0.75454793 0.002538887 0)
(0.74477998 0.0022857223 0)
(0.73542859 0.002034526 0)
(0.72657086 0.0017867934 0)
(0.7181444 0.0015463491 0)
(0.71016024 0.0013125803 0)
(0.70265951 0.0010872215 0)
(0.69566802 0.00087533961 0)
(0.68919561 0.0006804361 0)
(0.68323299 0.00050527228 0)
(0.67775174 0.00035304583 0)
(0.67269745 0.000227802 0)
(0.66801602 0.00013019335 0)
(0.66370727 6.447216e-05 0)
(0.65949205 3.4816053e-05 0)
(0.6552426 3.9090801e-05 0)
(0.6509837 6.92394e-05 0)
(0.64674747 0.00012853491 0)
(0.6425309 0.00017465 0)
(0.63834259 0.00022735189 0)
(0.63418527 0.00027384956 0)
(0.63005981 0.0003106469 0)
(0.62596883 0.00033670698 0)
(0.62191836 0.00035265821 0)
(0.61791564 0.00035992473 0)
(0.61396924 0.00035997355 0)
(0.61008814 0.00035468898 0)
(0.60628062 0.00034557878 0)
(0.60255386 0.00033383699 0)
(0.59891405 0.0003204711 0)
(0.59536563 0.00030634723 0)
(0.59191108 0.00029179661 0)
(0.58855231 0.00027718985 0)
(0.58528819 0.00026312453 0)
(0.58211603 0.0002497945 0)
(0.57902949 0.00023820393 0)
(0.57603109 0.00022835286 0)
(0.573116 0.000219024 0)
(0.57027381 0.00021030914 0)
(0.56749419 0.00020220692 0)
(0.56476999 0.00019481155 0)
(0.5620935 0.00018826513 0)
(0.55945821 0.00018221087 0)
(0.55685873 0.00017665441 0)
(0.55429054 0.00017135269 0)
(0.55175061 0.00016626598 0)
(0.54923606 0.00016133147 0)
(0.54674547 0.00015645824 0)
(0.54427717 0.00015173581 0)
(0.5418303 0.00014706421 0)
(0.53940343 0.00014250778 0)
(0.53699675 0.00013816851 0)
(0.53460273 0.00013380779 0)
(0.53223583 0.00013065326 0)
(0.52983274 0.00012535193 0)
(0.52756082 0.00013012848 0)
(0.52492457 0.0001800564 0)
(0.522894 0.00023644385 0)
(0.51869769 0.00018755315 0)
(0.97655844 0.023525836 0)
(0.9807197 0.029152299 0)
(0.98697701 0.032517272 0)
(0.99359358 0.033275503 0)
(0.99940198 0.031815023 0)
(1.0037147 0.028880415 0)
(1.0062603 0.025504223 0)
(1.0074138 0.022522918 0)
(1.0077297 0.02023771 0)
(1.0077081 0.018573087 0)
(1.0076095 0.017320207 0)
(1.0075041 0.01632014 0)
(1.007383 0.015486278 0)
(1.0072014 0.014746602 0)
(1.0068972 0.014073091 0)
(1.0064306 0.013465141 0)
(1.0057563 0.012911775 0)
(1.004819 0.012388911 0)
(1.0035591 0.011891868 0)
(1.0019227 0.011425278 0)
(0.99978005 0.010984696 0)
(0.99707744 0.010557397 0)
(0.9937898 0.010138387 0)
(0.98989215 0.0097199315 0)
(0.98534064 0.0093037813 0)
(0.9802149 0.0088980546 0)
(0.97454238 0.0085012584 0)
(0.96834848 0.0081118856 0)
(0.96165767 0.0077324634 0)
(0.95449516 0.0073643715 0)
(0.94689058 0.0070044441 0)
(0.93887999 0.0066506782 0)
(0.93050061 0.0063049596 0)
(0.92178129 0.0059677478 0)
(0.91275935 0.0056366013 0)
(0.90347507 0.0053100079 0)
(0.8939686 0.0049888367 0)
(0.88428713 0.0046731387 0)
(0.87448023 0.004361305 0)
(0.86459917 0.0040522013 0)
(0.85469631 0.0037457352 0)
(0.84482534 0.0034412682 0)
(0.83504272 0.0031377323 0)
(0.82540859 0.0028338103 0)
(0.81598694 0.0025298282 0)
(0.80681624 0.0022349679 0)
(0.79790242 0.001952005 0)
(0.78927716 0.0016789183 0)
(0.78097395 0.0014200234 0)
(0.77302023 0.0011791277 0)
(0.76542917 0.00096016008 0)
(0.75819631 0.00076767308 0)
(0.75129543 0.00060616566 0)
(0.74472205 0.00047488925 0)
(0.73849816 0.00038030774 0)
(0.73243106 0.00033252757 0)
(0.72642525 0.00032647139 0)
(0.72050085 0.00034673782 0)
(0.71468254 0.00039484987 0)
(0.70896513 0.00042968559 0)
(0.70336289 0.00047098864 0)
(0.69788264 0.00050616578 0)
(0.69252252 0.00053211082 0)
(0.6872806 0.0005477209 0)
(0.68215839 0.00055354294 0)
(0.67715587 0.00055099283 0)
(0.6722726 0.00054148588 0)
(0.66750952 0.00052689403 0)
(0.66286798 0.00050871705 0)
(0.65834893 0.00048817015 0)
(0.65395368 0.00046627727 0)
(0.6496839 0.00044393197 0)
(0.64553843 0.00042148465 0)
(0.64151631 0.00039935396 0)
(0.63761435 0.00037820504 0)
(0.63382816 0.00035825586 0)
(0.63015135 0.00034041464 0)
(0.62658135 0.00032464972 0)
(0.62311517 0.0003098604 0)
(0.61974546 0.00029619862 0)
(0.61646301 0.00028359725 0)
(0.61326036 0.00027209574 0)
(0.61012938 0.00026181696 0)
(0.60706282 0.00025233307 0)
(0.60405448 0.00024362495 0)
(0.60109874 0.00023539602 0)
(0.59819131 0.00022758005 0)
(0.59532799 0.00022008637 0)
(0.59250597 0.00021279546 0)
(0.58972227 0.00020579224 0)
(0.58697499 0.00019895438 0)
(0.58426143 0.00019234232 0)
(0.58158046 0.0001860915 0)
(0.57892372 0.00017986443 0)
(0.5763041 0.00017526059 0)
(0.57365987 0.00016794844 0)
(0.57114738 0.00017249866 0)
(0.56830133 0.0002207737 0)
(0.56605431 0.00027876632 0)
(0.561567 0.00023276994 0)
(0.97835805 0.022612862 0)
(0.98206096 0.027631856 0)
(0.98760605 0.030750862 0)
(0.9935453 0.031603946 0)
(0.99885163 0.030476366 0)
(1.0028874 0.027993639 0)
(1.0054105 0.025027971 0)
(1.0066559 0.022315942 0)
(1.0071378 0.020162869 0)
(1.0073064 0.018544871 0)
(1.0073974 0.01730755 0)
(1.0074776 0.016313438 0)
(1.0075411 0.015480864 0)
(1.0076102 0.014746718 0)
(1.0076488 0.014084199 0)
(1.0076343 0.013487753 0)
(1.0075757 0.012948361 0)
(1.0074561 0.012448326 0)
(1.0072501 0.011982402 0)
(1.0069352 0.011552225 0)
(1.0064823 0.011150734 0)
(1.0058535 0.010766201 0)
(1.0050096 0.010396297 0)
(1.0039053 0.010043599 0)
(1.002462 0.0097053124 0)
(1.0006374 0.009374965 0)
(0.99840248 0.0090481239 0)
(0.99571901 0.0087205575 0)
(0.99256326 0.0083942717 0)
(0.98896181 0.0080724165 0)
(0.98491645 0.00775326 0)
(0.98042695 0.0074354255 0)
(0.97549623 0.0071203071 0)
(0.97013303 0.0068085198 0)
(0.96434651 0.0064979191 0)
(0.95814989 0.0061869057 0)
(0.95155774 0.0058760953 0)
(0.94458768 0.0055653877 0)
(0.93725483 0.0052532982 0)
(0.92958043 0.0049386616 0)
(0.92159377 0.004621431 0)
(0.91332838 0.0043010879 0)
(0.90482159 0.0039764838 0)
(0.89612018 0.0036463674 0)
(0.88725249 0.0033128868 0)
(0.87835278 0.0029858468 0)
(0.86947244 0.0026666566 0)
(0.86062665 0.0023560342 0)
(0.8518434 0.0020589756 0)
(0.84316034 0.0017795517 0)
(0.83461835 0.0015222525 0)
(0.82625685 0.0012925267 0)
(0.81810954 0.0010958564 0)
(0.81019857 0.00093149939 0)
(0.80251778 0.00080653515 0)
(0.79516215 0.00073656434 0)
(0.78799394 0.00071274232 0)
(0.78099309 0.00071510423 0)
(0.77411398 0.00074390364 0)
(0.76733298 0.00076320085 0)
(0.76067429 0.00078762622 0)
(0.75414828 0.00080623928 0)
(0.74775572 0.00081635523 0)
(0.74150535 0.00081665774 0)
(0.73540823 0.00080775135 0)
(0.7294658 0.00079122279 0)
(0.72367771 0.00076839091 0)
(0.718046 0.00074105982 0)
(0.71257101 0.00071073472 0)
(0.70725109 0.00067861596 0)
(0.70208527 0.00064566073 0)
(0.69707359 0.00061277153 0)
(0.69221408 0.00058032349 0)
(0.68750435 0.00054874256 0)
(0.6829398 0.00051873475 0)
(0.67851476 0.00049050701 0)
(0.67422284 0.00046491948 0)
(0.67005898 0.00044187726 0)
(0.66601975 0.00042027048 0)
(0.6620995 0.00040031291 0)
(0.65829061 0.00038191037 0)
(0.65458621 0.0003650687 0)
(0.65097821 0.00034989785 0)
(0.64745901 0.00033590283 0)
(0.64402172 0.00032303914 0)
(0.64065985 0.00031095782 0)
(0.63736792 0.00029956374 0)
(0.63414054 0.00028873489 0)
(0.63097351 0.00027831924 0)
(0.62786252 0.00026838866 0)
(0.62480424 0.00025879522 0)
(0.62179479 0.00024959302 0)
(0.61883183 0.00024094612 0)
(0.61590608 0.00023241035 0)
(0.61302874 0.00022595728 0)
(0.61013968 0.00021628316 0)
(0.6073849 0.00022020952 0)
(0.60432364 0.00026588245 0)
(0.6018658 0.000325784 0)
(0.59708647 0.00027968186 0)
(0.98000228 0.021775931 0)
(0.98331395 0.026247269 0)
(0.98822497 0.029131257 0)
(0.99355006 0.030040278 0)
(0.99839706 0.029192382 0)
(1.0021888 0.027112853 0)
(1.0046807 0.024524091 0)
(1.0060254 0.02206658 0)
(1.006635 0.020048729 0)
(1.0069086 0.018488358 0)
(1.0070775 0.017271969 0)
(1.0072233 0.016284975 0)
(1.0073597 0.015454005 0)
(1.0074894 0.014724379 0)
(1.0076001 0.014068744 0)
(1.0076891 0.013477074 0)
(1.0077571 0.012940649 0)
(1.0078238 0.01244544 0)
(1.0078581 0.011987291 0)
(1.0078546 0.011565509 0)
(1.0078207 0.011173693 0)
(1.0077443 0.010803911 0)
(1.0076091 0.010453416 0)
(1.0073982 0.01012298 0)
(1.0070915 0.0098089345 0)
(1.0066621 0.0095057489 0)
(1.0060837 0.0092119261 0)
(1.0053175 0.0089276747 0)
(1.0043139 0.0086510056 0)
(1.0030391 0.0083786117 0)
(1.0014686 0.0081067392 0)
(0.999558 0.0078325315 0)
(0.99729346 0.0075580826 0)
(0.99467833 0.0072844839 0)
(0.99170233 0.0070097999 0)
(0.98835304 0.0067326101 0)
(0.98461999 0.00645318 0)
(0.98049368 0.0061709068 0)
(0.9759694 0.0058841107 0)
(0.97104357 0.0055918231 0)
(0.96571179 0.0052939207 0)
(0.95996998 0.0049896503 0)
(0.95381476 0.004677404 0)
(0.94724816 0.0043566374 0)
(0.94025935 0.0040281972 0)
(0.9328805 0.0036973007 0)
(0.92519632 0.0033673573 0)
(0.91725436 0.0030424895 0)
(0.90909325 0.0027288021 0)
(0.90075386 0.002430261 0)
(0.89228468 0.0021511939 0)
(0.8837446 0.001897063 0)
(0.87520381 0.001673179 0)
(0.86671266 0.0014804454 0)
(0.85826997 0.0013256216 0)
(0.85007388 0.0012208354 0)
(0.84218944 0.0011643531 0)
(0.83454116 0.0011445345 0)
(0.82696385 0.0011534031 0)
(0.81947092 0.0011567234 0)
(0.81208595 0.0011633784 0)
(0.80479346 0.0011644331 0)
(0.79760192 0.0011568877 0)
(0.79053936 0.001139469 0)
(0.78362338 0.001113298 0)
(0.77685644 0.0010801995 0)
(0.7702474 0.0010413071 0)
(0.76380741 0.0009984858 0)
(0.7575388 0.00095342177 0)
(0.75144127 0.000907277 0)
(0.74551672 0.00086090681 0)
(0.73976656 0.00081525076 0)
(0.73418902 0.00077071136 0)
(0.72878214 0.00072771277 0)
(0.72354159 0.00068699904 0)
(0.71846156 0.00064874855 0)
(0.71353639 0.00061377946 0)
(0.70876085 0.00058193414 0)
(0.704131 0.0005520476 0)
(0.69964189 0.00052436701 0)
(0.69528726 0.00049877512 0)
(0.69106124 0.00047526208 0)
(0.68695616 0.00045393716 0)
(0.6829644 0.00043424511 0)
(0.67907871 0.0004161191 0)
(0.67529187 0.00039915974 0)
(0.67159749 0.00038324193 0)
(0.66798905 0.00036821007 0)
(0.66446112 0.00035387628 0)
(0.66100812 0.00034029527 0)
(0.65762528 0.00032728851 0)
(0.65430751 0.00031489644 0)
(0.65105121 0.00030330731 0)
(0.64784624 0.00029196535 0)
(0.64470204 0.00028321011 0)
(0.64155988 0.00027077811 0)
(0.63855658 0.00027369259 0)
(0.63527035 0.00031619436 0)
(0.63260037 0.00037881597 0)
(0.62751884 0.00032944145 0)
(0.98150428 0.021001003 0)
(0.98447913 0.024976282 0)
(0.9888296 0.027627058 0)
(0.9935974 0.028569258 0)
(0.9980184 0.027961913 0)
(1.0015727 0.026237407 0)
(1.0040174 0.023991359 0)
(1.0054426 0.021779266 0)
(1.006174 0.019903039 0)
(1.006553 0.018410677 0)
(1.0067949 0.017222796 0)
(1.0069872 0.016246823 0)
(1.0071563 0.015419358 0)
(1.0073102 0.014693451 0)
(1.0074485 0.014042203 0)
(1.0075703 0.013454196 0)
(1.0076785 0.012920418 0)
(1.0077762 0.012429351 0)
(1.0078585 0.011975768 0)
(1.0079288 0.011556747 0)
(1.0079865 0.011167083 0)
(1.0080436 0.010800154 0)
(1.0080818 0.010454455 0)
(1.0080899 0.010129897 0)
(1.0080766 0.0098225959 0)
(1.0080323 0.0095292043 0)
(1.0079475 0.009248059 0)
(1.0078085 0.0089779389 0)
(1.0076005 0.008716935 0)
(1.0073036 0.0084623932 0)
(1.0068987 0.0082134361 0)
(1.0063532 0.0079693057 0)
(1.005634 0.0077282595 0)
(1.0047139 0.007488406 0)
(1.0035725 0.0072467283 0)
(1.0021661 0.0070011085 0)
(1.0004884 0.0067525483 0)
(0.99852404 0.0065010775 0)
(0.99625637 0.0062453676 0)
(0.99366692 0.0059839872 0)
(0.99073571 0.0057164457 0)
(0.98744103 0.0054420837 0)
(0.98375924 0.0051591562 0)
(0.97966518 0.0048672089 0)
(0.97512839 0.0045659732 0)
(0.97011122 0.0042589672 0)
(0.9646132 0.0039489773 0)
(0.95865159 0.0036393064 0)
(0.95224069 0.0033359014 0)
(0.94539892 0.0030429208 0)
(0.93815276 0.002764439 0)
(0.93054152 0.0025053175 0)
(0.92262265 0.0022709783 0)
(0.91446543 0.0020649326 0)
(0.90611419 0.0018909706 0)
(0.89769868 0.0017592353 0)
(0.88944869 0.0016725714 0)
(0.88138522 0.001621497 0)
(0.87349538 0.0016028944 0)
(0.86574547 0.0015892678 0)
(0.85805356 0.00158132 0)
(0.85035169 0.0015675691 0)
(0.84269925 0.0015431308 0)
(0.83513427 0.0015082882 0)
(0.82765394 0.0014649135 0)
(0.8202726 0.0014144519 0)
(0.81302086 0.0013581223 0)
(0.80591729 0.0012982992 0)
(0.7989656 0.0012368836 0)
(0.79217469 0.0011749039 0)
(0.78555577 0.0011132101 0)
(0.77911346 0.0010529269 0)
(0.77284836 0.00099446487 0)
(0.76676248 0.00093822291 0)
(0.76085449 0.0008850267 0)
(0.75512054 0.0008350246 0)
(0.74955785 0.00078898288 0)
(0.74416318 0.00074671228 0)
(0.7389331 0.00070699958 0)
(0.73386348 0.00067009795 0)
(0.72894954 0.00063585803 0)
(0.72418652 0.00060426726 0)
(0.7195676 0.00057544405 0)
(0.71508565 0.00054878123 0)
(0.71073338 0.00052419702 0)
(0.70650318 0.00050124424 0)
(0.70238806 0.00047976797 0)
(0.69838067 0.00045957847 0)
(0.69447453 0.00044044966 0)
(0.69066292 0.00042241616 0)
(0.68693981 0.00040526437 0)
(0.68329889 0.00038901418 0)
(0.67973535 0.00037387276 0)
(0.67623817 0.00035916862 0)
(0.67281509 0.00034760367 0)
(0.6694085 0.00033196658 0)
(0.66614736 0.00033346165 0)
(0.66262403 0.00037237256 0)
(0.65973588 0.00043874774 0)
(0.65433677 0.00038296 0)
(0.9828774 0.020276924 0)
(0.98555969 0.023807359 0)
(0.98941736 0.026234258 0)
(0.9936829 0.027194238 0)
(0.99771005 0.026791009 0)
(1.0010321 0.025375311 0)
(1.003412 0.023438835 0)
(1.0048925 0.021460226 0)
(1.0057269 0.019726533 0)
(1.0062038 0.018308178 0)
(1.0065192 0.017155385 0)
(1.0067625 0.016195949 0)
(1.0069663 0.015376387 0)
(1.007144 0.014656456 0)
(1.0073004 0.014010672 0)
(1.0074377 0.013426872 0)
(1.0075602 0.012896147 0)
(1.0076714 0.01240831 0)
(1.007772 0.0119575 0)
(1.0078636 0.011540428 0)
(1.0079484 0.01115228 0)
(1.0080274 0.010787623 0)
(1.0080973 0.010444651 0)
(1.0081598 0.010121984 0)
(1.0082155 0.0098165806 0)
(1.0082638 0.0095248531 0)
(1.0083129 0.0092461607 0)
(1.0083322 0.0089802716 0)
(1.0083357 0.0087242388 0)
(1.0083163 0.0084764808 0)
(1.008267 0.0082362203 0)
(1.0081776 0.008001647 0)
(1.0080363 0.0077712102 0)
(1.0078276 0.0075434796 0)
(1.0075374 0.0073182295 0)