0 	1.9452049e-06 	1e-15 	1.5843774e-17 	0.0003474581 	0 	0 	0
0.0001001001 	1.5392299e-06 	1.9532644e-08 	7.4457074e-13 	0.00034748762 	0.0063825153 	1.0009458e-07 	2.302083e-23
0.0002002002 	1.1550607e-06 	1.3246138e-08 	4.5637044e-13 	0.00034751726 	0.012765379 	3.9920242e-07 	1.3428254e-22
0.0003003003 	8.5293731e-07 	8.951691e-09 	2.8231381e-13 	0.00034754688 	0.019144657 	8.9937828e-07 	0
0.0004004004 	6.2096679e-07 	5.9981878e-09 	1.7411655e-13 	0.00034757638 	0.025526495 	1.5934639e-06 	-1.4452297e-22
0.0005005005 	4.4899983e-07 	4.0231369e-09 	1.0836591e-13 	0.00034760591 	0.03190317 	2.4941439e-06 	7.9722612e-22
0.0006006006 	3.2075982e-07 	2.6820263e-09 	6.7414429e-14 	0.00034763517 	0.038289614 	3.5820675e-06 	0
0.0007007007 	2.2915023e-07 	1.8094513e-09 	4.2957048e-14 	0.00034766455 	0.044665666 	4.8818629e-06 	1.8688578e-22
0.0008008008 	1.6280341e-07 	1.2283371e-09 	2.7855456e-14 	0.00034769382 	0.051043371 	6.372969e-06 	4.1595953e-22
0.0009009009 	1.1580753e-07 	8.493539e-10 	1.8714746e-14 	0.00034772296 	0.057422914 	8.0597251e-06 	2.0434736e-22
0.001001001 	8.2736095e-08 	6.0283007e-10 	1.3195277e-14 	0.00034775198 	0.063804506 	9.9380745e-06 	0
0.0011011011 	5.9247267e-08 	4.4073931e-10 	9.8626534e-15 	0.00034778086 	0.070188417 	1.1991668e-05 	4.8049373e-22
0.0012012012 	4.3604464e-08 	3.4275795e-10 	8.1248168e-15 	0.00034780985 	0.076561226 	1.4258734e-05 	2.2499523e-21
0.0013013013 	3.3529916e-08 	2.8771128e-10 	7.523215e-15 	0.00034783872 	0.082933208 	1.6767625e-05 	-1.749191e-21
0.0014014014 	2.5649839e-08 	2.5013069e-10 	7.4970528e-15 	0.00034786719 	0.089321839 	1.9375583e-05 	-4.148765e-21
0.0015015015 	2.1054537e-08 	2.3757145e-10 	8.3545173e-15 	0.00034789611 	0.095678713 	2.2286e-05 	-6.8334084e-21
0.0016016016 	1.7570575e-08 	2.3668549e-10 	1.007111e-14 	0.00034792428 	0.10206933 	2.5297971e-05 	-6.3023264e-21
0.0017017017 	1.550305e-08 	2.4811525e-10 	1.2575151e-14 	0.00034795296 	0.10842436 	2.8578903e-05 	-3.6388867e-21
0.0018018018 	1.4109896e-08 	2.7129705e-10 	1.6520956e-14 	0.00034798082 	0.11481707 	3.1956023e-05 	-3.7238948e-21
0.0019019019 	1.3598885e-08 	3.0572511e-10 	2.1760942e-14 	0.0003480092 	0.12116946 	3.56532e-05 	-2.9375638e-21
0.002002002 	1.3298214e-08 	3.481273e-10 	2.824842e-14 	0.00034803678 	0.12756482 	3.9314158e-05 	-2.1344781e-21
0.0021021021 	1.3910845e-08 	4.1236699e-10 	3.8159079e-14 	0.00034806476 	0.13391344 	4.3478383e-05 	-1.2476343e-21
0.0022022022 	1.4551324e-08 	4.7865812e-10 	4.8412389e-14 	0.00034809248 	0.14028003 	4.7588799e-05 	-3.6079042e-22
0.0023023023 	1.5836728e-08 	5.7404505e-10 	6.3833508e-14 	0.00034811968 	0.14665633 	5.1970936e-05 	-4.789716e-22
0.0024024024 	1.7502881e-08 	6.8485155e-10 	8.2041359e-14 	0.00034814716 	0.15299956 	5.66584e-05 	-1.2864428e-21
0.0025025025 	1.9255009e-08 	8.0149273e-10 	1.0129998e-13 	0.00034817422 	0.15937381 	6.1239504e-05 	-2.0939141e-21
0.0026026026 	2.1857736e-08 	9.7134999e-10 	1.3125469e-13 	0.00034820091 	0.16573536 	6.6247172e-05 	4.1804521e-22
0.0027027027 	2.4794228e-08 	1.1617916e-09 	1.6542624e-13 	0.00034822769 	0.17207088 	7.1519647e-05 	4.4512009e-21
0.0028028028 	2.7803859e-08 	1.3574317e-09 	2.0062735e-13 	0.00034825431 	0.17842291 	7.6727262e-05 	7.3853635e-21
0.0029029029 	3.1661874e-08 	1.6191485e-09 	2.5068065e-13 	0.00034828029 	0.18479844 	8.2086798e-05 	3.4756389e-21
0.003003003 	3.640515e-08 	1.9524127e-09 	3.1754063e-13 	0.00034830614 	0.19112291 	8.8011643e-05 	-4.9195146e-21
0.0031031031 	4.1148427e-08 	2.2856768e-09 	3.8440061e-13 	0.00034833198 	0.19744738 	9.3936487e-05 	-1.3314668e-20
0.0032032032 	4.6202777e-08 	2.6433285e-09 	4.5667743e-13 	0.00034835764 	0.20381703 	9.9657976e-05 	-1.4875133e-20
0.0033033033 	5.3036182e-08 	3.1711359e-09 	5.742143e-13 	0.00034838252 	0.21015323 	0.00010598135 	-1.6232078e-20
0.0034034034 	6.0581857e-08 	3.7685548e-09 	7.1056382e-13 	0.00034840709 	0.21646189 	0.00011263123 	-1.9392022e-20
0.0035035035 	6.8127533e-08 	4.3659736e-09 	8.4691333e-13 	0.00034843166 	0.22277056 	0.00011928111 	-2.2551966e-20
0.0036036036 	7.6093196e-08 	5.0006251e-09 	9.9267083e-13 	0.00034845639 	0.22911839 	0.00012572893 	-2.3597876e-20
0.0037037037 	8.6281843e-08 	5.8811905e-09 	1.2132902e-12 	0.00034848025 	0.23545182 	0.00013259252 	-1.9719933e-20
0.0038038038 	9.8360744e-08 	6.9785922e-09 	1.5015332e-12 	0.00034850307 	0.2417379 	0.00014004473 	-1.2646731e-20
0.0039039039 	1.1043964e-07 	8.0759938e-09 	1.7897763e-12 	0.0003485259 	0.24802398 	0.00014749694 	-5.5735297e-21
0.004004004 	1.2251854e-07 	9.1733954e-09 	2.0780193e-12 	0.00034854872 	0.25431006 	0.00015494914 	1.4996719e-21
0.0041041041 	1.3571725e-07 	1.038464e-08 	2.3993236e-12 	0.00034857264 	0.26066236 	0.00016200945 	3.787927e-22
0.0042042042 	1.5377726e-07 	1.2244479e-08 	2.9548125e-12 	0.00034859389 	0.2669406 	0.00017003498 	4.1940039e-21
0.0043043043 	1.7333939e-07 	1.4305367e-08 	3.583037e-12 	0.00034861429 	0.27319447 	0.00017836974 	9.7012089e-21
0.0044044044 	1.9290153e-07 	1.6366256e-08 	4.2112616e-12 	0.00034863468 	0.27944834 	0.0001867045 	1.5208414e-20
0.0045045045 	2.1246366e-07 	1.8427144e-08 	4.8394861e-12 	0.00034865507 	0.28570221 	0.00019503926 	2.0715619e-20
0.0046046046 	2.3340256e-07 	2.0650087e-08 	5.5222402e-12 	0.00034867728 	0.29200689 	0.00020302827 	2.6222824e-20
0.0047047047 	2.5916427e-07 	2.3610794e-08 	6.5119737e-12 	0.00034869768 	0.29828192 	0.00021148569 	2.2134289e-20
0.0048048048 	2.911838e-07 	2.7552153e-08 	7.9159608e-12 	0.00034871459 	0.30448995 	0.00022078167 	4.276396e-21
0.0049049049 	3.2320334e-07 	3.1493513e-08 	9.3199479e-12 	0.0003487315 	0.31069799 	0.00023007765 	-1.3581496e-20
0.005005005 	3.5522288e-07 	3.5434872e-08 	1.0723935e-11 	0.00034874841 	0.31690602 	0.00023937363 	-3.1439389e-20
0.0051051051 	3.8724241e-07 	3.9376232e-08 	1.2127922e-11 	0.00034876532 	0.32311406 	0.00024866961 	-4.9297281e-20
0.0052052052 	4.217802e-07 	4.3663505e-08 	1.3667738e-11 	0.00034878608 	0.32937922 	0.00025751801 	-5.2802708e-20
0.0053053053 	4.6319341e-07 	4.9204938e-08 	1.5825595e-11 	0.00034880398 	0.3356048 	0.00026686676 	-5.5330545e-20
0.0054054054 	5.1592898e-07 	5.6839238e-08 	1.9023212e-11 	0.000348816 	0.34174782 	0.00027719261 	-5.9645385e-20
0.0055055055 	5.6866454e-07 	6.4473539e-08 	2.2220829e-11 	0.00034882802 	0.34789085 	0.00028751846 	-6.3960226e-20
0.0056056056 	6.2140011e-07 	7.2107839e-08 	2.5418446e-11 	0.00034884004 	0.35403387 	0.00029784431 	-6.8275067e-20
0.0057057057 	6.7413567e-07 	7.974214e-08 	2.8616063e-11 	0.00034885205 	0.36017689 	0.00030817016 	-7.2589908e-20
0.0058058058 	7.2796232e-07 	8.7552667e-08 	3.1894989e-11 	0.00034886584 	0.36633494 	0.00031836089 	-7.6904748e-20
0.0059059059 	7.8517052e-07 	9.590937e-08 	3.5425917e-11 	0.00034888513 	0.37253955 	0.00032813286 	-8.1219588e-20
0.006006006 	8.5822452e-07 	1.0775575e-07 	4.1012448e-11 	0.00034889695 	0.37866193 	0.00033879285 	-6.6968309e-20
0.0061061061 	9.4499487e-07 	1.2262285e-07 	4.8378338e-11 	0.00034890232 	0.38471313 	0.00035022155 	-3.6645933e-20
0.0062062062 	1.0317652e-06 	1.3748994e-07 	5.5744229e-11 	0.00034890769 	0.39076433 	0.00036165024 	-6.3235576e-21
0.0063063063 	1.1185356e-06 	1.5235704e-07 	6.3110119e-11 	0.00034891306 	0.39681553 	0.00037307893 	2.3998818e-20
0.0064064064 	1.2053059e-06 	1.6722414e-07 	7.047601e-11 	0.00034891843 	0.40286673 	0.00038450762 	5.4321194e-20
0.0065065065 	1.2920763e-06 	1.8209123e-07 	7.78419e-11 	0.0003489238 	0.40891793 	0.00039593631 	8.464357e-20
0.0066066066 	1.3840051e-06 	1.9794609e-07 	8.5747257e-11 	0.00034893761 	0.41501187 	0.00040690744 	9.0565379e-20
0.0067067067 	1.4776545e-06 	2.1413041e-07 	9.383255e-11 	0.00034895423 	0.42112007 	0.00041772595 	8.8348559e-20
0.0068068068 	1.6102857e-06 	2.4068223e-07 	1.0923104e-10 	0.00034895421 	0.42707575 	0.00042998607 	9.0819471e-20
0.0069069069 	1.7514537e-06 	2.6950451e-07 	1.262311e-10 	0.00034895055 	0.43299801 	0.0004425619 	9.4316988e-20
0.007007007 	1.8926218e-06 	2.9832679e-07 	1.4323116e-10 	0.00034894688 	0.43892028 	0.00045513773 	9.7814505e-20
0.0071071071 	2.0337899e-06 	3.2714907e-07 	1.6023122e-10 	0.00034894322 	0.44484255 	0.00046771356 	1.0131202e-19
0.0072072072 	2.174958e-06 	3.5597136e-07 	1.7723129e-10 	0.00034893955 	0.45076482 	0.00048028939 	1.0480954e-19
0.0073073073 	2.316126e-06 	3.8479364e-07 	1.9423135e-10 	0.00034893588 	0.45668709 	0.00049286522 	1.0830706e-19
0.0074074074 	2.460206e-06 	4.1428374e-07 	2.1166706e-10 	0.00034893698 	0.4626238 	0.00050524924 	1.1180457e-19
0.0075075075 	2.6116475e-06 	4.4546212e-07 	2.3020411e-10 	0.0003489501 	0.46859705 	0.00051714838 	1.1530209e-19
0.0076076076 	2.7705836e-06 	4.7909678e-07 	2.5084501e-10 	0.00034896019 	0.47454643 	0.00052923403 	1.1873001e-19
0.0077077077 	2.9944047e-06 	5.3399707e-07 	2.897002e-10 	0.00034894409 	0.48028914 	0.00054293442 	1.2155539e-19
0.0078078078 	3.2182258e-06 	5.8889736e-07 	3.285554e-10 	0.00034892799 	0.48603185 	0.0005566348 	1.2438078e-19
0.0079079079 	3.442047e-06 	6.4379766e-07 	3.674106e-10 	0.00034891189 	0.49177457 	0.00057033518 	1.2720616e-19
0.008008008 	3.6658681e-06 	6.9869795e-07 	4.062658e-10 	0.00034889579 	0.49751728 	0.00058403557 	1.3003154e-19
0.0081081081 	3.8896892e-06 	7.5359824e-07 	4.45121e-10 	0.00034887969 	0.50325999 	0.00059773595 	1.3285693e-19
0.0082082082 	4.1135103e-06 	8.0849853e-07 	4.839762e-10 	0.00034886359 	0.50900271 	0.00061143633 	1.3568231e-19
0.0083083083 	4.3373315e-06 	8.6339882e-07 	5.2283139e-10 	0.00034884749 	0.51474542 	0.00062513672 	1.3850769e-19
0.0084084084 	4.5715967e-06 	9.2121083e-07 	5.6398555e-10 	0.0003488491 	0.52051907 	0.00063831038 	1.3870203e-19
0.0085085085 	4.8099545e-06 	9.8016383e-07 	6.0604059e-10 	0.00034885766 	0.52630485 	0.00065127763 	1.3786535e-19
0.0086086086 	5.0740206e-06 	1.0498699e-06 	6.5953195e-10 	0.00034885553 	0.53201641 	0.00066469702 	1.3740533e-19
0.0087087087 	5.4129137e-06 	1.1508743e-06 	7.4631007e-10 	0.00034882228 	0.53751199 	0.0006794324 	1.380416e-19
0.0088088088 	5.7518069e-06 	1.2518786e-06 	8.3308818e-10 	0.00034878903 	0.54300758 	0.00069416779 	1.3867786e-19
0.0089089089 	6.0907e-06 	1.3528829e-06 	9.198663e-10 	0.00034875578 	0.54850316 	0.00070890318 	1.3931413e-19
0.009009009 	6.4295931e-06 	1.4538872e-06 	1.0066444e-09 	0.00034872253 	0.55399874 	0.00072363856 	1.399504e-19
0.0091091091 	6.7684862e-06 	1.5548915e-06 	1.0934225e-09 	0.00034868928 	0.55949432 	0.00073837395 	1.4058666e-19
0.0092092092 	7.1073794e-06 	1.6558959e-06 	1.1802007e-09 	0.00034865603 	0.5649899 	0.00075310934 	1.4122293e-19
0.0093093093 	7.4462725e-06 	1.7569002e-06 	1.2669788e-09 	0.00034862278 	0.57048548 	0.00076784472 	1.418592e-19
0.0094094094 	7.7851656e-06 	1.8579045e-06 	1.3537569e-09 	0.00034858952 	0.57598106 	0.00078258011 	1.4249546e-19
0.0095095095 	8.1411727e-06 	1.9648617e-06 	1.4463561e-09 	0.0003485891 	0.58150653 	0.00079659464 	1.4313173e-19
0.0096096096 	8.498823e-06 	2.0723905e-06 	1.5395142e-09 	0.00034859182 	0.58703486 	0.00081053996 	1.4376799e-19
0.0097097097 	8.8719049e-06 	2.1887841e-06 	1.6448667e-09 	0.00034858684 	0.59251542 	0.00082469636 	1.4272928e-19
0.0098098098 	9.3481699e-06 	2.364453e-06 	1.831758e-09 	0.00034853032 	0.59767653 	0.00084026413 	1.3049081e-19
0.0099099099 	9.8244349e-06 	2.5401219e-06 	2.0186492e-09 	0.00034847379 	0.60283764 	0.0008558319 	1.1825234e-19
0.01001001 	1.03007e-05 	2.7157909e-06 	2.2055405e-09 	0.00034841727 	0.60799874 	0.00087139967 	1.0601386e-19
0.01011011 	1.0776965e-05 	2.8914598e-06 	2.3924318e-09 	0.00034836075 	0.61315985 	0.00088696744 	9.3775394e-20
0.01021021 	1.125323e-05 	3.0671287e-06 	2.579323e-09 	0.00034830423 	0.61832096 	0.00090253521 	8.1536922e-20
0.01031031 	1.1729495e-05 	3.2427976e-06 	2.7662143e-09 	0.00034824771 	0.62348206 	0.00091810298 	6.9298451e-20
0.01041041 	1.220576e-05 	3.4184665e-06 	2.9531056e-09 	0.00034819119 	0.62864317 	0.00093367075 	5.705998e-20
0.010510511 	1.2682025e-05 	3.5941354e-06 	3.1399968e-09 	0.00034813467 	0.63380428 	0.00094923852 	4.4821508e-20
0.010610611 	1.315829e-05 	3.7698043e-06 	3.3268881e-09 	0.00034807815 	0.63896538 	0.00096480629 	3.2583037e-20
0.010710711 	1.3649108e-05 	3.9521486e-06 	3.5222371e-09 	0.00034805819 	0.64414034 	0.00097977353 	3.0890348e-20
0.010810811 	1.414604e-05 	4.1372968e-06 	3.7211387e-09 	0.00034805359 	0.64932111 	0.00099448853 	3.3627276e-20
0.010910911 	1.4642971e-05 	4.3224449e-06 	3.9200403e-09 	0.00034804899 	0.65450189 	0.0010092035 	3.6364204e-20
0.011011011 	1.5195691e-05 	4.5616317e-06 	4.223069e-09 	0.00034799808 	0.65942377 	0.0010246512 	3.6082146e-20
0.011111111 	1.5792084e-05 	4.8431227e-06 	4.6076138e-09 	0.00034791093 	0.664143 	0.0010406725 	3.3436671e-20
0.011211211 	1.6388478e-05 	5.1246136e-06 	4.9921586e-09 	0.00034782378 	0.66886222 	0.0010566937 	3.0791195e-20
0.011311311 	1.6984872e-05 	5.4061046e-06 	5.3767034e-09 	0.00034773663 	0.67358144 	0.001072715 	2.814572e-20
0.011411411 	1.7581266e-05 	5.6875956e-06 	5.7612482e-09 	0.00034764948 	0.67830066 	0.0010887362 	2.5500244e-20
0.011511512 	1.817766e-05 	5.9690865e-06 	6.145793e-09 	0.00034756233 	0.68301989 	0.0011047575 	2.2854769e-20
0.011611612 	1.8774053e-05 	6.2505775e-06 	6.5303377e-09 	0.00034747518 	0.68773911 	0.0011207787 	2.0209293e-20
0.011711712 	1.9370447e-05 	6.5320684e-06 	6.9148825e-09 	0.00034738803 	0.69245833 	0.0011368 	1.7563818e-20
0.011811812 	1.9966841e-05 	6.8135594e-06 	7.2994273e-09 	0.00034730088 	0.69717755 	0.0011528213 	1.4918342e-20
0.011911912 	2.0563235e-05 	7.0950504e-06 	7.6839721e-09 	0.00034721373 	0.70189677 	0.0011688425 	1.2272867e-20
0.012012012 	2.1159628e-05 	7.3765413e-06 	8.0685169e-09 	0.00034712658 	0.706616 	0.0011848638 	9.6273915e-21
0.012112112 	2.1771425e-05 	7.6688285e-06 	8.4724872e-09 	0.00034710655 	0.71133867 	0.0012000546 	6.981916e-21
0.012212212 	2.2384709e-05 	7.9621578e-06 	8.8783326e-09 	0.00034709299 	0.71606167 	0.0012151654 	4.3364405e-21
0.012312312 	2.2997992e-05 	8.2554871e-06 	9.284178e-09 	0.00034707944 	0.72078468 	0.0012302761 	1.690965e-21
0.012412412 	2.3616553e-05 	8.5885652e-06 	9.8153203e-09 	0.00034702539 	0.72530287 	0.0012456626 	2.1269442e-21
0.012512513 	2.4244464e-05 	8.9920606e-06 	1.0568433e-08 	0.0003468996 	0.7294582 	0.0012615379 	8.0218808e-21
0.012612613 	2.4872375e-05 	9.3955559e-06 	1.1321545e-08 	0.00034677381 	0.73361354 	0.0012774132 	1.3916817e-20
0.012712713 	2.5500286e-05 	9.7990513e-06 	1.2074657e-08 	0.00034664802 	0.73776887 	0.0012932885 	1.9811754e-20
0.012812813 	2.6128196e-05 	1.0202547e-05 	1.282777e-08 	0.00034652223 	0.74192421 	0.0013091638 	2.5706691e-20
0.012912913 	2.6756107e-05 	1.0606042e-05 	1.3580882e-08 	0.00034639644 	0.74607954 	0.001325039 	3.1601627e-20
0.013013013 	2.7384018e-05 	1.1009537e-05 	1.4333994e-08 	0.00034627065 	0.75023488 	0.0013409143 	3.7496564e-20
0.013113113 	2.8011929e-05 	1.1413033e-05 	1.5087107e-08 	0.00034614486 	0.75439022 	0.0013567896 	4.3391501e-20
0.013213213 	2.8639839e-05 	1.1816528e-05 	1.5840219e-08 	0.00034601907 	0.75854555 	0.0013726649 	4.9286437e-20
0.013313313 	2.926775e-05 	1.2220023e-05 	1.6593332e-08 	0.00034589328 	0.76270089 	0.0013885402 	5.5181374e-20
0.013413413 	2.9895661e-05 	1.2623519e-05 	1.7346444e-08 	0.00034576749 	0.76685622 	0.0014044154 	6.1076311e-20
0.013513514 	3.0523572e-05 	1.3027014e-05 	1.8099556e-08 	0.0003456417 	0.77101156 	0.0014202907 	6.6971247e-20
0.013613614 	3.1153465e-05 	1.3434435e-05 	1.8864539e-08 	0.00034554949 	0.77516225 	0.0014358528 	7.0515892e-20
0.013713714 	3.1787383e-05 	1.384982e-05 	1.9653607e-08 	0.00034552541 	0.7793035 	0.0014507793 	6.9291929e-20
0.013813814 	3.24213e-05 	1.4265206e-05 	2.0442674e-08 	0.00034550133 	0.78344476 	0.0014657059 	6.8067965e-20
0.013913914 	3.3055218e-05 	1.4680591e-05 	2.1231742e-08 	0.00034547725 	0.78758602 	0.0014806325 	6.6844002e-20
0.014014014 	3.3653484e-05 	1.5123404e-05 	2.2209831e-08 	0.00034540621 	0.79151383 	0.0014955505 	6.5361807e-20
0.014114114 	3.4175365e-05 	1.562498e-05 	2.3592908e-08 	0.00034523458 	0.79498431 	0.0015104501 	6.3326334e-20
0.014214214 	3.4697245e-05 	1.6126555e-05 	2.4975986e-08 	0.00034506295 	0.79845478 	0.0015253498 	6.1290862e-20
0.014314314 	3.5219126e-05 	1.6628131e-05 	2.6359064e-08 	0.00034489132 	0.80192526 	0.0015402494 	5.9255389e-20
0.014414414 	3.5741007e-05 	1.7129707e-05 	2.7742142e-08 	0.00034471969 	0.80539574 	0.0015551491 	5.7219916e-20
0.014514515 	3.6262888e-05 	1.7631283e-05 	2.912522e-08 	0.00034454806 	0.80886622 	0.0015700487 	5.5184444e-20
0.014614615 	3.6784768e-05 	1.8132859e-05 	3.0508298e-08 	0.00034437643 	0.81233669 	0.0015849484 	5.3148971e-20
0.014714715 	3.7306649e-05 	1.8634435e-05 	3.1891376e-08 	0.0003442048 	0.81580717 	0.001599848 	5.1113499e-20
0.014814815 	3.782853e-05 	1.9136011e-05 	3.3274454e-08 	0.00034403317 	0.81927765 	0.0016147477 	4.9078026e-20
0.014914915 	3.8350411e-05 	1.9637587e-05 	3.4657531e-08 	0.00034386154 	0.82274813 	0.0016296473 	4.7042553e-20
0.015015015 	3.8872292e-05 	2.0139163e-05 	3.6040609e-08 	0.00034368991 	0.8262186 	0.001644547 	4.5007081e-20
0.015115115 	3.9394172e-05 	2.0640739e-05 	3.7423687e-08 	0.00034351828 	0.82968908 	0.0016594466 	4.2971608e-20
0.015215215 	3.9916053e-05 	2.1142315e-05 	3.8806765e-08 	0.00034334665 	0.83315956 	0.0016743463 	4.0936135e-20
0.015315315 	4.0437934e-05 	2.1643891e-05 	4.0189843e-08 	0.00034317502 	0.83663004 	0.0016892459 	3.8900663e-20
0.015415415 	4.0955739e-05 	2.2152005e-05 	4.1614392e-08 	0.00034310207 	0.84007744 	0.0017034594 	3.6865188e-20
0.015515516 	4.147201e-05 	2.2662581e-05 	4.3054551e-08 	0.00034306626 	0.84351615 	0.0017174147 	3.4829713e-20
0.015615616 	4.1988281e-05 	2.3173156e-05 	4.4494709e-08 	0.00034303045 	0.84695487 	0.0017313699 	3.2794238e-20
0.015715716 	4.2504552e-05 	2.3683732e-05 	4.5934868e-08 	0.00034299464 	0.85039359 	0.0017453251 	3.0758763e-20
0.015815816 	4.2985318e-05 	2.4199493e-05 	4.7549667e-08 	0.00034292286 	0.8536879 	0.0017590849 	3.0245558e-20
0.015915916 	4.3318609e-05 	2.4736788e-05 	4.9889854e-08 	0.00034270169 	0.85638246 	0.0017720329 	3.6055253e-20
0.016016016 	4.36519e-05 	2.5274084e-05 	5.2230041e-08 	0.00034248053 	0.85907701 	0.0017849809 	4.1864948e-20
0.016116116 	4.3985191e-05 	2.581138e-05 	5.4570228e-08 	0.00034225936 	0.86177156 	0.0017979289 	4.7674643e-20
0.016216216 	4.4318482e-05 	2.6348676e-05 	5.6910414e-08 	0.0003420382 	0.86446612 	0.0018108769 	5.3484338e-20
0.016316316 	4.4651774e-05 	2.6885972e-05 	5.9250601e-08 	0.00034181703 	0.86716067 	0.0018238249 	5.9294033e-20
0.016416416 	4.4985065e-05 	2.7423268e-05 	6.1590788e-08 	0.00034159586 	0.86985523 	0.0018367729 	6.5103728e-20
0.016516517 	4.5318356e-05 	2.7960564e-05 	6.3930974e-08 	0.0003413747 	0.87254978 	0.0018497209 	7.0913423e-20
0.016616617 	4.5651647e-05 	2.8497859e-05 	6.6271161e-08 	0.00034115353 	0.87524433 	0.0018626689 	7.6723118e-20
0.016716717 	4.5984938e-05 	2.9035155e-05 	6.8611348e-08 	0.00034093236 	0.87793889 	0.0018756169 	8.2532813e-20
0.016816817 	4.6318229e-05 	2.9572451e-05 	7.0951535e-08 	0.0003407112 	0.88063344 	0.0018885649 	8.8342508e-20
0.016916917 	4.6651521e-05 	3.0109747e-05 	7.3291721e-08 	0.00034049003 	0.88332799 	0.0019015129 	9.4152203e-20
0.017017017 	4.6984812e-05 	3.0647043e-05 	7.5631908e-08 	0.00034026887 	0.88602255 	0.0019144609 	9.9961897e-20
0.017117117 	4.7318103e-05 	3.1184339e-05 	7.7972095e-08 	0.0003400477 	0.8887171 	0.0019274089 	1.0577159e-19
0.017217217 	4.7651394e-05 	3.1721635e-05 	8.0312281e-08 	0.00033982653 	0.89141165 	0.0019403569 	1.1158129e-19
0.017317317 	4.7984685e-05 	3.225893e-05 	8.2652468e-08 	0.00033960537 	0.89410621 	0.0019533049 	1.1739098e-19
0.017417417 	4.8309494e-05 	3.2802129e-05 	8.5077309e-08 	0.00033952956 	0.89676247 	0.0019655255 	1.1913188e-19
0.017517518 	4.8632673e-05 	3.3346463e-05 	8.7518418e-08 	0.00033948169 	0.89941137 	0.0019776062 	1.2009084e-19
0.017617618 	4.8955852e-05 	3.3890796e-05 	8.9959528e-08 	0.00033943382 	0.90206028 	0.001989687 	1.210498e-19
0.017717718 	4.9279031e-05 	3.4435129e-05 	9.2400637e-08 	0.00033938595 	0.90470918 	0.0020017677 	1.2200876e-19
0.017817818 	4.960221e-05 	3.4979462e-05 	9.4841747e-08 	0.00033933808 	0.90735809 	0.0020138485 	1.2296772e-19
0.017917918 	4.9793011e-05 	3.5520903e-05 	9.8545128e-08 	0.00033913265 	0.9094655 	0.0020245157 	1.2394498e-19
0.018018018 	4.993187e-05 	3.6061209e-05 	1.0274379e-07 	0.00033886539 	0.91136046 	0.0020346283 	1.2492942e-19
0.018118118 	5.0070729e-05 	3.6601515e-05 	1.0694246e-07 	0.00033859814 	0.91325541 	0.0020447408 	1.2591385e-19
0.018218218 	5.0209588e-05 	3.714182e-05 	1.1114112e-07 	0.00033833089 	0.91515036 	0.0020548534 	1.2689829e-19
0.018318318 	5.0348447e-05 	3.7682126e-05 	1.1533979e-07 	0.00033806363 	0.91704531 	0.0020649659 	1.2788272e-19
0.018418418 	5.0487306e-05 	3.8222432e-05 	1.1953845e-07 	0.00033779638 	0.91894027 	0.0020750785 	1.2886716e-19
0.018518519 	5.0626165e-05 	3.8762738e-05 	1.2373712e-07 	0.00033752912 	0.92083522 	0.002085191 	1.2985159e-19
0.018618619 	5.0765024e-05 	3.9303044e-05 	1.2793578e-07 	0.00033726187 	0.92273017 	0.0020953036 	1.3083603e-19
0.018718719 	5.0903883e-05 	3.984335e-05 	1.3213445e-07 	0.00033699462 	0.92462512 	0.0021054161 	1.3182047e-19
0.018818819 	5.1042742e-05 	4.0383655e-05 	1.3633311e-07 	0.00033672736 	0.92652008 	0.0021155287 	1.328049e-19
0.018918919 	5.1181602e-05 	4.0923961e-05 	1.4053178e-07 	0.00033646011 	0.92841503 	0.0021256413 	1.3378934e-19
0.019019019 	5.1320461e-05 	4.1464267e-05 	1.4473044e-07 	0.00033619285 	0.93030998 	0.0021357538 	1.3477377e-19
0.019119119 	5.145932e-05 	4.2004573e-05 	1.4892911e-07 	0.0003359256 	0.93220494 	0.0021458664 	1.3575821e-19
0.019219219 	5.1598179e-05 	4.2544879e-05 	1.5312777e-07 	0.00033565835 	0.93409989 	0.0021559789 	1.3674264e-19
0.019319319 	5.1737038e-05 	4.3085185e-05 	1.5732644e-07 	0.00033539109 	0.93599484 	0.0021660915 	1.3772708e-19
0.019419419 	5.1875897e-05 	4.362549e-05 	1.615251e-07 	0.00033512384 	0.93788979 	0.002176204 	1.3871151e-19
0.01951952 	5.2014756e-05 	4.4165796e-05 	1.6572377e-07 	0.00033485659 	0.93978475 	0.0021863166 	1.3969595e-19
0.01961962 	5.2149515e-05 	4.4709991e-05 	1.7002176e-07 	0.00033466645 	0.94166056 	0.0021961668 	1.4068038e-19
0.01971972 	5.2277311e-05 	4.5260791e-05 	1.7448847e-07 	0.0003346073 	0.94350388 	0.0022055713 	1.4166481e-19
0.01981982 	5.2405106e-05 	4.5811591e-05 	1.7895518e-07 	0.00033454816 	0.9453472 	0.0022149759 	1.4264924e-19
0.01991992 	5.2532902e-05 	4.6362391e-05 	1.8342188e-07 	0.00033448901 	0.94719052 	0.0022243804 	1.4363367e-19
0.02002002 	5.2660697e-05 	4.6913192e-05 	1.8788859e-07 	0.00033442987 	0.94903384 	0.002233785 	1.446181e-19
0.02012012 	5.2788492e-05 	4.7463992e-05 	1.923553e-07 	0.00033437072 	0.95087715 	0.0022431896 	1.4560253e-19
0.02022022 	5.2819833e-05 	4.8026918e-05 	1.9988189e-07 	0.00033416924 	0.95232481 	0.0022510938 	1.4254798e-19
0.02032032 	5.2782904e-05 	4.8598427e-05 	2.0957425e-07 	0.00033386701 	0.95349241 	0.0022579361 	1.3663466e-19
0.02042042 	5.2745975e-05 	4.9169936e-05 	2.192666e-07 	0.00033356477 	0.95466002 	0.0022647784 	1.3072134e-19
0.020520521 	5.2709046e-05 	4.9741445e-05 	2.2895896e-07 	0.00033326254 	0.95582762 	0.0022716208 	1.2480802e-19
0.020620621 	5.2672116e-05 	5.0312954e-05 	2.3865131e-07 	0.00033296031 	0.95699523 	0.0022784631 	1.1889471e-19
0.020720721 	5.2635187e-05 	5.0884463e-05 	2.4834367e-07 	0.00033265808 	0.95816283 	0.0022853054 	1.1298139e-19
0.020820821 	5.2598258e-05 	5.1455972e-05 	2.5803603e-07 	0.00033235584 	0.95933043 	0.0022921477 	1.0706807e-19
0.020920921 	5.2561329e-05 	5.2027482e-05 	2.6772838e-07 	0.00033205361 	0.96049804 	0.00229899 	1.0115475e-19
0.021021021 	5.25244e-05 	5.2598991e-05 	2.7742074e-07 	0.00033175138 	0.96166564 	0.0023058324 	9.5241432e-20
0.021121121 	5.248747e-05 	5.31705e-05 	2.8711309e-07 	0.00033144915 	0.96283325 	0.0023126747 	8.9328113e-20
0.021221221 	5.2450541e-05 	5.3742009e-05 	2.9680545e-07 	0.00033114691 	0.96400085 	0.002319517 	8.3414794e-20
0.021321321 	5.2413612e-05 	5.4313518e-05 	3.0649781e-07 	0.00033084468 	0.96516846 	0.0023263593 	7.7501476e-20
0.021421421 	5.2376683e-05 	5.4885027e-05 	3.1619016e-07 	0.00033054245 	0.96633606 	0.0023332016 	7.1588157e-20
0.021521522 	5.2339754e-05 	5.5456536e-05 	3.2588252e-07 	0.00033024022 	0.96750367 	0.002340044 	6.5674839e-20
0.021621622 	5.2302824e-05 	5.6028045e-05 	3.3557488e-07 	0.00032993798 	0.96867127 	0.0023468863 	5.976152e-20
0.021721722 	5.2265895e-05 	5.6599554e-05 	3.4526723e-07 	0.00032963575 	0.96983887 	0.0023537286 	5.3848202e-20
0.021821822 	5.2228966e-05 	5.7171063e-05 	3.5495959e-07 	0.00032933352 	0.97100648 	0.0023605709 	4.7934883e-20
0.021921922 	5.2192037e-05 	5.7742572e-05 	3.6465194e-07 	0.00032903129 	0.97217408 	0.0023674132 	4.2021565e-20
0.022022022 	5.2155108e-05 	5.8314081e-05 	3.743443e-07 	0.00032872905 	0.97334169 	0.0023742556 	3.6108246e-20
0.022122122 	5.2118178e-05 	5.888559e-05 	3.8403666e-07 	0.00032842682 	0.97450929 	0.0023810979 	3.0194928e-20
0.022222222 	5.2067525e-05 	5.9471528e-05 	3.9462617e-07 	0.00032835436 	0.97563006 	0.0023874181 	2.8847317e-20
0.022322322 	5.2016691e-05 	6.0057656e-05 	4.0522749e-07 	0.00032828492 	0.97675021 	0.0023937314 	2.7559792e-20
0.022422422 	5.1965857e-05 	6.0643783e-05 	4.1582881e-07 	0.00032821548 	0.97787037 	0.0024000447 	2.6272267e-20
0.022522523 	5.1915023e-05 	6.1229911e-05 	4.2643013e-07 	0.00032814603 	0.97899052 	0.002406358 	2.4984742e-20
0.022622623 	5.1864189e-05 	6.1816038e-05 	4.3703145e-07 	0.00032807659 	0.98011067 	0.0024126714 	2.3697216e-20
0.022722723 	5.1813355e-05 	6.2402166e-05 	4.4763277e-07 	0.00032800715 	0.98123082 	0.0024189847 	2.2409691e-20
0.022822823 	5.168908e-05 	6.299853e-05 	4.6788433e-07 	0.00032781786 	0.9821176 	0.0024240547 	2.191916e-20
0.022922923 	5.147554e-05 	6.3607336e-05 	4.9986555e-07 	0.0003274829 	0.9827207 	0.0024276136 	2.239736e-20
0.023023023 	5.1261999e-05 	6.4216143e-05 	5.3184678e-07 	0.00032714794 	0.98332381 	0.0024311725 	2.2875559e-20
0.023123123 	5.1048459e-05 	6.4824949e-05 	5.63828e-07 	0.00032681298 	0.98392691 	0.0024347313 	2.3353759e-20
0.023223223 	5.0834918e-05 	6.5433755e-05 	5.9580923e-07 	0.00032647802 	0.98453001 	0.0024382902 	2.3831959e-20
0.023323323 	5.0621378e-05 	6.6042561e-05 	6.2779046e-07 	0.00032614306 	0.98513312 	0.002441849 	2.4310159e-20
0.023423423 	5.0407837e-05 	6.6651368e-05 	6.5977168e-07 	0.0003258081 	0.98573622 	0.0024454079 	2.4788359e-20
0.023523524 	5.0194297e-05 	6.7260174e-05 	6.9175291e-07 	0.00032547314 	0.98633933 	0.0024489668 	2.5266558e-20
0.023623624 	4.9980756e-05 	6.786898e-05 	7.2373413e-07 	0.00032513817 	0.98694243 	0.0024525256 	2.5744758e-20
0.023723724 	4.9767216e-05 	6.8477786e-05 	7.5571536e-07 	0.00032480321 	0.98754553 	0.0024560845 	2.6222958e-20
0.023823824 	4.9553675e-05 	6.9086593e-05 	7.8769659e-07 	0.00032446825 	0.98814864 	0.0024596434 	2.6701158e-20
0.023923924 	4.9340135e-05 	6.9695399e-05 	8.1967781e-07 	0.00032413329 	0.98875174 	0.0024632022 	2.7179357e-20
0.024024024 	4.9126594e-05 	7.0304205e-05 	8.5165904e-07 	0.00032379833 	0.98935485 	0.0024667611 	2.7657557e-20
0.024124124 	4.8913054e-05 	7.0913012e-05 	8.8364026e-07 	0.00032346337 	0.98995795 	0.0024703199 	2.8135757e-20
0.024224224 	4.8699513e-05 	7.1521818e-05 	9.1562149e-07 	0.00032312841 	0.99056105 	0.0024738788 	2.8613957e-20
0.024324324 	4.8485973e-05 	7.2130624e-05 	9.4760272e-07 	0.00032279344 	0.99116416 	0.0024774377 	2.9092157e-20
0.024424424 	4.8272432e-05 	7.273943e-05 	9.7958394e-07 	0.00032245848 	0.99176726 	0.0024809965 	2.9570356e-20
0.024524525 	4.8058892e-05 	7.3348237e-05 	1.0115652e-06 	0.00032212352 	0.99237037 	0.0024845554 	3.0048556e-20
0.024624625 	4.7845351e-05 	7.3957043e-05 	1.0435464e-06 	0.00032178856 	0.99297347 	0.0024881142 	3.0526756e-20
0.024724725 	4.7631811e-05 	7.4565849e-05 	1.0755276e-06 	0.0003214536 	0.99357657 	0.0024916731 	3.1004956e-20
0.024824825 	4.741827e-05 	7.5174655e-05 	1.1075088e-06 	0.00032111864 	0.99417968 	0.002495232 	3.1483155e-20
0.024924925 	4.720473e-05 	7.5783462e-05 	1.1394901e-06 	0.00032078368 	0.99478278 	0.0024987908 	3.1961355e-20
0.025025025 	4.6984732e-05 	7.6394876e-05 	1.1727545e-06 	0.00032052892 	0.99537501 	0.0025023211 	3.2439554e-20
0.025125125 	4.6750353e-05 	7.7012099e-05 	1.2088769e-06 	0.0003204528 	0.995943 	0.0025057877 	3.291775e-20
0.025225225 	4.6515974e-05 	7.7629321e-05 	1.2449994e-06 	0.00032037668 	0.99651099 	0.0025092543 	3.3395947e-20
0.025325325 	4.6281595e-05 	7.8246544e-05 	1.2811218e-06 	0.00032030056 	0.99707898 	0.0025127209 	3.3874143e-20
0.025425425 	4.6047216e-05 	7.8863767e-05 	1.3172443e-06 	0.00032022444 	0.99764697 	0.0025161875 	3.435234e-20
0.025525526 	4.5812837e-05 	7.9480989e-05 	1.3533667e-06 	0.00032014832 	0.99821496 	0.0025196541 	3.4830536e-20
0.025625626 	4.5578458e-05 	8.0098212e-05 	1.3894892e-06 	0.00032007221 	0.99878295 	0.0025231207 	3.5308732e-20
0.025725726 	4.5344079e-05 	8.0715435e-05 	1.4256116e-06 	0.00031999609 	0.99935094 	0.0025265873 	3.5786929e-20
0.025825826 	4.4983044e-05 	8.1259167e-05 	1.566578e-06 	0.00031965808 	0.99961917 	0.0025280158 	3.4184284e-20
0.025925926 	4.4611916e-05 	8.1797044e-05 	1.715899e-06 	0.00031929921 	0.99986351 	0.0025292819 	3.2415825e-20
0.026026026 	4.4240789e-05 	8.233492e-05 	1.8652199e-06 	0.00031894034 	1.0001079 	0.002530548 	3.0647365e-20
0.026126126 	4.3869661e-05 	8.2872796e-05 	2.0145409e-06 	0.00031858147 	1.0003522 	0.0025318141 	2.8878906e-20
0.026226226 	4.3498534e-05 	8.3410672e-05 	2.1638619e-06 	0.0003182226 	1.0005965 	0.0025330803 	2.7110446e-20
0.026326326 	4.3127406e-05 	8.3948548e-05 	2.3131828e-06 	0.00031786373 	1.0008409 	0.0025343464 	2.5341987e-20
0.026426426 	4.2756279e-05 	8.4486425e-05 	2.4625038e-06 	0.00031750486 	1.0010852 	0.0025356125 	2.3573527e-20