0 	0.0065764744 	9.6015041e-05 	4.264151e-09 	0.015094806 	0.99924409 	0 	0
0.0021021021 	0.0065751912 	9.5955005e-05 	4.2595952e-09 	0.015203044 	0.9992192 	0 	0
0.0042042042 	0.0065739081 	9.5894968e-05 	4.2550395e-09 	0.015311282 	0.99919431 	0 	0
0.0063063063 	0.0065726249 	9.5834932e-05 	4.2504837e-09 	0.01541952 	0.99916942 	0 	0
0.0084084084 	0.0065713417 	9.5774896e-05 	4.2459279e-09 	0.015527758 	0.99914453 	0 	0
0.010510511 	0.0065701293 	9.5717745e-05 	4.2415908e-09 	0.015652449 	0.99911496 	0 	0
0.012612613 	0.0065689608 	9.5662385e-05 	4.2373894e-09 	0.015787358 	0.99908247 	0 	0
0.014714715 	0.0065677923 	9.5607026e-05 	4.233188e-09 	0.015922268 	0.99904999 	0 	0
0.016816817 	0.0065666238 	9.5551666e-05 	4.2289867e-09 	0.016057177 	0.9990175 	0 	0
0.018918919 	0.0065654553 	9.5496307e-05 	4.2247853e-09 	0.016192087 	0.99898502 	0 	0
0.021021021 	0.0065643005 	9.5441441e-05 	4.2206201e-09 	0.016331289 	0.99895123 	0 	0
0.023123123 	0.0065632381 	9.5389891e-05 	4.2166981e-09 	0.016499353 	0.99890865 	0 	0
0.025225225 	0.0065621757 	9.5338341e-05 	4.2127762e-09 	0.016667416 	0.99886607 	0 	0
0.027327327 	0.0065611134 	9.5286791e-05 	4.2088542e-09 	0.01683548 	0.99882349 	0 	0
0.029429429 	0.006560051 	9.5235241e-05 	4.2049323e-09 	0.017003543 	0.99878092 	0 	0
0.031531532 	0.0065590158 	9.5184501e-05 	4.2010666e-09 	0.017182221 	0.9987349 	0 	0
0.033633634 	0.0065580603 	9.5136127e-05 	4.197365e-09 	0.0173919 	0.99867883 	0 	0
0.035735736 	0.0065571048 	9.5087752e-05 	4.1936634e-09 	0.01760158 	0.99862275 	0 	0
0.037837838 	0.0065561493 	9.5039377e-05 	4.1899618e-09 	0.017811259 	0.99856668 	0 	0
0.03993994 	0.0065551938 	9.4991003e-05 	4.1862602e-09 	0.018020939 	0.99851061 	0 	0
0.042042042 	0.0065543471 	9.4945102e-05 	4.1827134e-09 	0.018278833 	0.99843773 	0 	0
0.044144144 	0.0065535105 	9.4899432e-05 	4.1791812e-09 	0.018541245 	0.99836328 	0 	0
0.046246246 	0.006552674 	9.4853763e-05 	4.175649e-09 	0.018803657 	0.99828883 	0 	0
0.048348348 	0.0065518428 	9.4808181e-05 	4.1721212e-09 	0.019068567 	0.99821346 	0 	0
0.05045045 	0.0065511528 	9.4764887e-05 	4.1687102e-09 	0.019399058 	0.998114 	0 	0
0.052552553 	0.0065504628 	9.4721592e-05 	4.1652993e-09 	0.019729549 	0.99801454 	0 	0
0.054654655 	0.0065497728 	9.4678298e-05 	4.1618883e-09 	0.02006004 	0.99791508 	0 	0
0.056756757 	0.0065491956 	9.463618e-05 	4.1585116e-09 	0.020440057 	0.99779544 	0 	0
0.058858859 	0.0065487074 	9.4594989e-05 	4.1551619e-09 	0.020859119 	0.9976599 	0 	0
0.060960961 	0.0065482192 	9.4553798e-05 	4.1518122e-09 	0.021278181 	0.99752435 	0 	0
0.063063063 	0.0065478568 	9.4513499e-05 	4.1484626e-09 	0.021748751 	0.99736796 	0 	0
0.065165165 	0.0065476643 	9.4474403e-05 	4.1451131e-09 	0.022288958 	0.99718338 	0 	0
0.067267267 	0.0065474718 	9.4435308e-05 	4.1417636e-09 	0.022829165 	0.9969988 	0 	0
0.069369369 	0.0065475772 	9.4397115e-05 	4.138306e-09 	0.023463474 	0.99676558 	0 	0
0.071471471 	0.0065478951 	9.4359566e-05 	4.1347714e-09 	0.024164875 	0.99649769 	0 	0
0.073573574 	0.0065482129 	9.4322018e-05 	4.1312368e-09 	0.024866276 	0.9962298 	0 	0
0.075675676 	0.0065493395 	9.4288324e-05 	4.1275327e-09 	0.025820063 	0.99586359 	0 	0
0.077777778 	0.0065504752 	9.4254675e-05 	4.1238266e-09 	0.026776714 	0.99549625 	0 	0
0.07987988 	0.0065526972 	9.4217194e-05 	4.1190969e-09 	0.027923664 	0.99497402 	0 	0
0.081981982 	0.0065556495 	9.4177138e-05 	4.1136789e-09 	0.029198553 	0.99434766 	0 	0
0.084084084 	0.0065604076 	9.4156253e-05 	4.1088144e-09 	0.030752882 	0.99364312 	0 	0
0.086186186 	0.0065682077 	9.4167661e-05 	4.1048822e-09 	0.032777923 	0.99280691 	0 	0
0.088288288 	0.0065753113 	9.4105362e-05 	4.0949452e-09 	0.034956419 	0.99164098 	0 	-3.2757984e-22
0.09039039 	0.0065805896 	9.3849905e-05 	4.0692722e-09 	0.037537049 	0.98961099 	0 	-1.5136003e-21
0.092492492 	0.0066926269 	9.3976671e-05 	4.0181522e-09 	0.042642358 	0.98786984 	0 	5.4719187e-19
0.094594595 	0.0070861727 	9.5111304e-05 	3.8999322e-09 	0.054404891 	0.98689031 	0 	2.5458838e-18
0.096696697 	0.0093728182 	8.7661482e-05 	3.4689606e-09 	0.063097637 	0.89943765 	0 	3.8729154e-18
0.098798799 	0.015396245 	6.3266837e-05 	2.4206499e-09 	0.065730942 	0.64129605 	0 	3.8741593e-18
0.1009009 	0.01812488 	3.8250266e-05 	1.412558e-09 	0.058133497 	0.38290291 	0 	3.0047376e-18
0.103003 	0.016460458 	1.2404458e-05 	4.5809105e-10 	0.036895053 	0.12417438 	0 	9.7442829e-19
0.10510511 	0.01233427 	6.9101513e-15 	2.7803899e-15 	0.019787614 	0 	0 	0
0.10720721 	0.0059362189 	2.9019033e-15 	1.5633419e-15 	0.0064925073 	0 	0 	0
0.10930931 	0.0031361908 	1.2830501e-15 	9.5826631e-16 	0.0011765725 	0 	0 	0
0.11141141 	0.0027738802 	1.2830502e-15 	7.6781184e-16 	0.0012666538 	0 	0 	0
0.11351351 	0.0021277296 	1.1881308e-15 	6.4940543e-16 	0.0015658508 	0 	0 	0
0.11561562 	0.0013328323 	1.0434688e-15 	5.6875588e-16 	0.001974635 	0 	0 	0
0.11771772 	0.001062103 	1e-15 	5.1265808e-16 	0.0022631624 	0 	0 	0
0.11981982 	0.001016536 	1e-15 	4.6710677e-16 	0.0025000321 	0 	0 	0
0.12192192 	0.00085937527 	1e-15 	4.3250887e-16 	0.0026906779 	0 	0 	0
0.12402402 	0.00066000995 	1e-15 	4.0205354e-16 	0.0028638419 	0 	0 	0
0.12612613 	0.00059500584 	1e-15 	3.7777264e-16 	0.0029936312 	0 	0 	0
0.12822823 	0.00057876973 	1e-15 	3.5573283e-16 	0.0031076771 	0 	0 	0
0.13033033 	0.000512024 	1e-15 	3.3744797e-16 	0.0031984067 	0 	0 	0
0.13243243 	0.00042594289 	1e-15 	3.2060052e-16 	0.0032802107 	0 	0 	0
0.13453453 	0.00046923487 	1e-15 	3.0618037e-16 	0.0033456084 	0 	0 	0
0.13663664 	0.0005697591 	1e-15 	2.92834e-16 	0.0034037483 	0 	0 	0
0.13873874 	0.00057575935 	1e-15 	2.8108529e-16 	0.0034504156 	0 	0 	0
0.14084084 	0.00052936222 	1e-15 	2.7022221e-16 	0.0034907232 	0 	0 	0
0.14294294 	0.00049515598 	1e-15 	2.6040664e-16 	0.0035240745 	0 	0 	0
0.14504505 	0.00047004849 	1e-15 	2.5137288e-16 	0.0035522339 	0 	0 	0
0.14714715 	0.00044318123 	1e-15 	2.4300816e-16 	0.0035764152 	0 	0 	0
0.14924925 	0.00041440981 	1e-15 	2.3536737e-16 	0.0035962921 	0 	0 	0
0.15135135 	0.00038901397 	1e-15 	2.2812364e-16 	0.003613989 	0 	0 	0
0.15345345 	0.00036947563 	1e-15 	2.2156893e-16 	0.003627903 	0 	0 	0
0.15555556 	0.00035021876 	1e-15 	2.1521504e-16 	0.0036408058 	0 	0 	0
0.15765766 	0.00033191657 	1e-15 	2.0954229e-16 	0.0036502784 	0 	0 	0
0.15975976 	0.00031387916 	1e-15 	2.0391651e-16 	0.0036595333 	0 	0 	0
0.16186186 	0.00029960439 	1e-15 	1.9895798e-16 	0.0036656956 	0 	0 	0
0.16396396 	0.00028532962 	1e-15 	1.9399945e-16 	0.003671858 	0 	0 	0
0.16606607 	0.00027267928 	1e-15 	1.8954196e-16 	0.0036758519 	0 	0 	0
0.16816817 	0.00026025285 	1e-15 	1.8515353e-16 	0.0036795469 	0 	0 	0
0.17027027 	0.00024918629 	1e-15 	1.8109233e-16 	0.0036819719 	0 	0 	0
0.17237237 	0.00023880128 	1e-15 	1.7719513e-16 	0.0036837605 	0 	0 	0
0.17447447 	0.00022903068 	1e-15 	1.7347322e-16 	0.0036849105 	0 	0 	0
0.17657658 	0.00022008582 	1e-15 	1.6998688e-16 	0.0036852023 	0 	0 	0
0.17867868 	0.00021134077 	1e-15 	1.6655565e-16 	0.0036853097 	0 	0 	0
0.18078078 	0.00020364982 	1e-15 	1.6341515e-16 	0.0036844445 	0 	0 	0
0.18288288 	0.00019595886 	1e-15 	1.6027464e-16 	0.0036835793 	0 	0 	0
0.18498498 	0.00018914164 	1e-15 	1.5739811e-16 	0.0036819296 	0 	0 	0
0.18708709 	0.0001824628 	1e-15 	1.5456338e-16 	0.0036801557 	0 	0 	0
0.18918919 	0.00017624137 	1e-15 	1.518709e-16 	0.0036779859 	0 	0 	0
0.19129129 	0.00017041373 	1e-15 	1.4930088e-16 	0.0036754754 	0 	0 	0
0.19339339 	0.00016471492 	1e-15 	1.4677216e-16 	0.0036728577 	0 	0 	0
0.1954955 	0.00015960088 	1e-15 	1.4443094e-16 	0.0036697529 	0 	0 	0
0.1975976 	0.00015448685 	1e-15 	1.4208972e-16 	0.0036666481 	0 	0 	0
0.1996997 	0.00014985164 	1e-15 	1.399096e-16 	0.0036631657 	0 	0 	0
0.2018018 	0.00014534245 	1e-15 	1.3777188e-16 	0.0036595839 	0 	0 	0
0.2039039 	0.00014102378 	1e-15 	1.3569518e-16 	0.0036558603 	0 	0 	0
0.20600601 	0.00013703025 	1e-15 	1.3372263e-16 	0.0036518947 	0 	0 	0
0.20810811 	0.00013303671 	1e-15 	1.3175008e-16 	0.003647929 	0 	0 	0
0.21021021 	0.00012944713 	1e-15 	1.299138e-16 	0.0036436797 	0 	0 	0
0.21231231 	0.00012589614 	1e-15 	1.2809054e-16 	0.0036394032 	0 	0 	0
0.21441441 	0.00012250571 	1e-15 	1.2633638e-16 	0.0036350178 	0 	0 	0
0.21651652 	0.00011933665 	1e-15 	1.2467749e-16 	0.0036304822 	0 	0 	0
0.21861862 	0.00011616758 	1e-15 	1.230186e-16 	0.0036259466 	0 	0 	0
0.22072072 	0.00011329364 	1e-15 	1.2147148e-16 	0.0036212197 	0 	0 	0
0.22282282 	0.00011045585 	1e-15 	1.1993806e-16 	0.0036164695 	0 	0 	0
0.22492492 	0.00010771129 	1e-15 	1.1843549e-16 	0.0036116628 	0 	0 	0
0.22702703 	0.00010516224 	1e-15 	1.1699766e-16 	0.0036067378 	0 	0 	0
0.22912913 	0.0001026132 	1e-15 	1.1555982e-16 	0.0036018128 	0 	0 	0
0.23123123 	0.00010024488 	1e-15 	1.1420092e-16 	0.0035967861 	0 	0 	0
0.23333333 	9.7948644e-05 	1e-15 	1.128735e-16 	0.003591719 	0 	0 	0
0.23543544 	9.5666963e-05 	1e-15 	1.1155252e-16 	0.0035866445 	0 	0 	0
0.23753754 	9.3593007e-05 	1e-15 	1.103234e-16 	0.0035814651 	0 	0 	0
0.23963964 	9.1519051e-05 	1e-15 	1.0909427e-16 	0.0035762857 	0 	0 	0
0.24174174 	8.9518307e-05 	1e-15 	1.0789479e-16 	0.0035710726 	0 	0 	0
0.24384384 	8.7640608e-05 	1e-15 	1.0674515e-16 	0.0035658027 	0 	0 	0
0.24594595 	8.5762908e-05 	1e-15 	1.0559551e-16 	0.0035605329 	0 	0 	0
0.24804805 	8.3995781e-05 	1e-15 	1.0449385e-16 	0.0035552141 	0 	0 	0
0.25015015 	8.2291963e-05 	1e-15 	1.0341967e-16 	0.0035498673 	0 	0 	0
0.25225225 	8.0588145e-05 	1e-15 	1.023455e-16 	0.0035445206 	0 	0 	0
0.25435435 	7.901605e-05 	1e-15 	1.0133305e-16 	0.0035391203 	0 	0 	0
0.25645646 	7.746677e-05 	1e-15 	1.0033131e-16 	0.0035337107 	0 	0 	0
0.25855856 	7.5920329e-05 	1e-15 	9.9330697e-17 	0.0035283001 	0 	0 	0
0.26066066 	7.4508843e-05 	1e-15 	9.838428e-17 	0.0035228419 	0 	0 	0
0.26276276 	7.3097358e-05 	1e-15 	9.7437864e-17 	0.0035173838 	0 	0 	0
0.26486486 	7.1702969e-05 	1e-15 	9.6499465e-17 	0.0035119205 	0 	0 	0
0.26696697 	7.0414721e-05 	1e-15 	9.5610844e-17 	0.0035064249 	0 	0 	0
0.26906907 	6.9126474e-05 	1e-15 	9.4722222e-17 	0.0035009293 	0 	0 	0
0.27117117 	6.7860858e-05 	1e-15 	9.3845665e-17 	0.0034954281 	0 	0 	0
0.27327327 	6.6683127e-05 	1e-15 	9.3015952e-17 	0.003489905 	0 	0 	0
0.27537538 	6.5505396e-05 	1e-15 	9.2186239e-17 	0.0034843819 	0 	0 	0
0.27747748 	6.4349199e-05 	1e-15 	9.1367147e-17 	0.003478855 	0 	0 	0
0.27957958 	6.3270849e-05 	1e-15 	9.0586451e-17 	0.0034733145 	0 	0 	0
0.28168168 	6.2192499e-05 	1e-15 	8.9805755e-17 	0.0034677741 	0 	0 	0
0.28378378 	6.1129584e-05 	1e-15 	8.9033335e-17 	0.0034622317 	0 	0 	0
0.28588589 	6.0140845e-05 	1e-15 	8.8300686e-17 	0.0034566802 	0 	0 	0
0.28798799 	5.9152106e-05 	1e-15 	8.7568038e-17 	0.0034511286 	0 	0 	0
0.29009009 	5.8168972e-05 	1e-15 	8.6838609e-17 	0.0034455764 	0 	0 	0
0.29219219 	5.7261206e-05 	1e-15 	8.6152479e-17 	0.0034400159 	0 	0 	0
0.29429429 	5.6353441e-05 	1e-15 	8.5466349e-17 	0.0034344553 	0 	0 	0
0.2963964 	5.5445675e-05 	1e-15 	8.4780218e-17 	0.0034288948 	0 	0 	0
0.2984985 	5.4604266e-05 	1e-15 	8.4136243e-17 	0.00342333 	0 	0 	0
0.3006006 	5.3769809e-05 	1e-15 	8.3496683e-17 	0.0034177648 	0 	0 	0
0.3027027 	5.2935352e-05 	1e-15 	8.2857124e-17 	0.0034121996 	0 	0 	0
0.3048048 	5.2145964e-05 	1e-15 	8.2236378e-17 	0.0034066347 	0 	0 	0
0.30690691 	5.1378019e-05 	1e-15 	8.1624582e-17 	0.00340107 	0 	0 	0
0.30900901 	5.0610075e-05 	1e-15 	8.1012787e-17 	0.0033955052 	0 	0 	0
0.31111111 	4.9865343e-05 	1e-15 	8.041277e-17 	0.0033899421 	0 	0 	0
0.31321321 	4.915787e-05 	1e-15 	7.9831656e-17 	0.0033843818 	0 	0 	0
0.31531532 	4.8450396e-05 	1e-15 	7.9250542e-17 	0.0033788214 	0 	0 	0
0.31741742 	4.7744089e-05 	1e-15 	7.8670188e-17 	0.0033732612 	0 	0 	0
0.31951952 	4.7091691e-05 	1e-15 	7.8124913e-17 	0.0033677087 	0 	0 	0
0.32162162 	4.6439293e-05 	1e-15 	7.7579638e-17 	0.0033621562 	0 	0 	0
0.32372372 	4.5786895e-05 	1e-15 	7.7034363e-17 	0.0033566037 	0 	0 	0
0.32582583 	4.5163971e-05 	1e-15 	7.6502293e-17 	0.0033510578 	0 	0 	0
0.32792793 	4.4561816e-05 	1e-15 	7.5979529e-17 	0.0033455167 	0 	0 	0
0.33003003 	4.3959662e-05 	1e-15 	7.5456765e-17 	0.0033399755 	0 	0 	0
0.33213213 	4.3361046e-05 	1e-15 	7.4936043e-17 	0.0033344356 	0 	0 	0
0.33423423 	4.2804814e-05 	1e-15 	7.4439789e-17 	0.00332891 	0 	0 	0
0.33633634 	4.2248583e-05 	1e-15 	7.3943535e-17 	0.0033233845 	0 	0 	0
0.33843844 	4.1692351e-05 	1e-15 	7.3447281e-17 	0.0033178589 	0 	0 	0
0.34054054 	4.1156691e-05 	1e-15 	7.296716e-17 	0.0033123414 	0 	0 	0
0.34264264 	4.064251e-05 	1e-15 	7.2503882e-17 	0.0033068322 	0 	0 	0
0.34474474 	4.0128328e-05 	1e-15 	7.2040604e-17 	0.0033013231 	0 	0 	0
0.34684685 	3.9614146e-05 	1e-15 	7.1577326e-17 	0.0032958139 	0 	0 	0
0.34894895 	3.9131563e-05 	1e-15 	7.1134514e-17 	0.0032903172 	0 	0 	0
0.35105105 	3.8655928e-05 	1e-15 	7.0696201e-17 	0.0032848233 	0 	0 	0
0.35315315 	3.8180293e-05 	1e-15 	7.0257889e-17 	0.0032793293 	0 	0 	0
0.35525526 	3.7706954e-05 	1e-15 	6.9821452e-17 	0.0032738365 	0 	0 	0
0.35735736 	3.7266694e-05 	1e-15 	6.9412038e-17 	0.0032683593 	0 	0 	0
0.35945946 	3.6826434e-05 	1e-15 	6.9002623e-17 	0.0032628821 	0 	0 	0
0.36156156 	3.6386174e-05 	1e-15 	6.8593209e-17 	0.003257405 	0 	0 	0
0.36366366 	3.5953097e-05 	1e-15 	6.8189786e-17 	0.003251932 	0 	0 	0
0.36576577 	3.554535e-05 	1e-15 	6.7807493e-17 	0.0032464738 	0 	0 	0
0.36786787 	3.5137603e-05 	1e-15 	6.7425201e-17 	0.0032410157 	0 	0 	0
0.36996997 	3.4729856e-05 	1e-15 	6.7042908e-17 	0.0032355575 	0 	0 	0
0.37207207 	3.4330598e-05 	1e-15 	6.6664548e-17 	0.0032301051 	0 	0 	0
0.37417417 	3.3952773e-05 	1e-15 	6.6296117e-17 	0.0032246671 	0 	0 	0
0.37627628 	3.3574948e-05 	1e-15 	6.5927686e-17 	0.0032192291 	0 	0 	0
0.37837838 	3.3197123e-05 	1e-15 	6.5559256e-17 	0.0032137911 	0 	0 	0
0.38048048 	3.282616e-05 	1e-15 	6.5194719e-17 	0.0032083586 	0 	0 	0
0.38258258 	3.2475904e-05 	1e-15 	6.4841936e-17 	0.0032029423 	0 	0 	0
0.38468468 	3.2125648e-05 	1e-15 	6.4489153e-17 	0.003197526 	0 	0 	0
0.38678679 	3.1775391e-05 	1e-15 	6.413637e-17 	0.0031921098 	0 	0 	0
0.38888889 	3.1427982e-05 	1e-15 	6.3785431e-17 	0.0031866961 	0 	0 	0
0.39099099 	3.1103155e-05 	1e-15 	6.3449125e-17 	0.0031813027 	0 	0 	0
0.39309309 	3.0778328e-05 	1e-15 	6.3112819e-17 	0.0031759092 	0 	0 	0
0.3951952 	3.04535e-05 	1e-15 	6.2776513e-17 	0.0031705158 	0 	0 	0
0.3972973 	3.0128673e-05 	1e-15 	6.2440207e-17 	0.0031651224 	0 	0 	0
0.3993994 	2.9824226e-05 	1e-15 	6.2118843e-17 	0.0031597505 	0 	0 	0
0.4015015 	2.9522878e-05 	1e-15 	6.179975e-17 	0.0031543819 	0 	0 	0
0.4036036 	2.9221529e-05 	1e-15 	6.1480657e-17 	0.0031490132 	0 	0 	0
0.40570571 	2.8920181e-05 	1e-15 	6.1161564e-17 	0.0031436446 	0 	0 	0
0.40780781 	2.8629948e-05 	1e-15 	6.0851613e-17 	0.0031382896 	0 	0 	0
0.40990991 	2.835031e-05 	1e-15 	6.0550376e-17 	0.0031329475 	0 	0 	0
0.41201201 	2.8070672e-05 	1e-15 	6.0249138e-17 	0.0031276054 	0 	0 	0
0.41411411 	2.7791033e-05 	1e-15 	5.9947901e-17 	0.0031222633 	0 	0 	0
0.41621622 	2.7512166e-05 	1e-15 	5.964732e-17 	0.0031169221 	0 	0 	0
0.41831832 	2.7252618e-05 	1e-15 	5.93632e-17 	0.0031116043 	0 	0 	0
0.42042042 	2.699307e-05 	1e-15 	5.907908e-17 	0.0031062864 	0 	0 	0
0.42252252 	2.6733522e-05 	1e-15 	5.8794959e-17 	0.0031009686 	0 	0 	0
0.42462462 	2.6473974e-05 	1e-15 	5.8510839e-17 	0.0030956507 	0 	0 	0
0.42672673 	2.6222632e-05 	1e-15 	5.8233479e-17 	0.0030903433 	0 	0 	0
0.42882883 	2.598168e-05 	1e-15 	5.7964679e-17 	0.003085049 	0 	0 	0
0.43093093 	2.5740728e-05 	1e-15 	5.7695878e-17 	0.0030797547 	0 	0 	0
0.43303303 	2.5499776e-05 	1e-15 	5.7427078e-17 	0.0030744604 	0 	0 	0
0.43513514 	2.5258824e-05 	1e-15 	5.7158277e-17 	0.0030691661 	0 	0 	0
0.43723724 	2.5030185e-05 	1e-15 	5.6895855e-17 	0.0030638899 	0 	0 	0
0.43933934 	2.4806464e-05 	1e-15 	5.663598e-17 	0.003058621 	0 	0 	0
0.44144144 	2.4582744e-05 	1e-15 	5.6376105e-17 	0.0030533521 	0 	0 	0
0.44354354 	2.4359023e-05 	1e-15 	5.6116231e-17 	0.0030480833 	0 	0 	0
0.44564565 	2.4135303e-05 	1e-15 	5.5856356e-17 	0.0030428144 	0 	0 	0
0.44774775 	2.3925193e-05 	1e-15 	5.5610886e-17 	0.0030375676 	0 	0 	0
0.44984985 	2.3717456e-05 	1e-15 	5.5367927e-17 	0.0030323246 	0 	0 	0
0.45195195 	2.3509718e-05 	1e-15 	5.5124967e-17 	0.0030270816 	0 	0 	0
0.45405405 	2.3301981e-05 	1e-15 	5.4882008e-17 	0.0030218387 	0 	0 	0
0.45615616 	2.3094243e-05 	1e-15 	5.4639049e-17 	0.0030165957 	0 	0 	0
0.45825826 	2.2899043e-05 	1e-15 	5.4409594e-17 	0.0030113752 	0 	0 	0
0.46036036 	2.2706139e-05 	1e-15 	5.4182613e-17 	0.0030061587 	0 	0 	0
0.46246246 	2.2513235e-05 	1e-15 	5.3955632e-17 	0.0030009422 	0 	0 	0
0.46456456 	2.232033e-05 	1e-15 	5.3728651e-17 	0.0029957258 	0 	0 	0
0.46666667 	2.2127426e-05 	1e-15 	5.350167e-17 	0.0029905093 	0 	0 	0
0.46876877 	2.1943998e-05 	1e-15 	5.3280236e-17 	0.0029853116 	0 	0 	0
0.47087087 	2.1764869e-05 	1e-15 	5.3061317e-17 	0.0029801223 	0 	0 	0
0.47297297 	2.158574e-05 	1e-15 	5.2842399e-17 	0.0029749331 	0 	0 	0
0.47507508 	2.1406611e-05 	1e-15 	5.2623481e-17 	0.0029697438 	0 	0 	0
0.47717718 	2.1227482e-05 	1e-15 	5.2404562e-17 	0.0029645546 	0 	0 	0
0.47927928 	2.105311e-05 	1e-15 	5.2187328e-17 	0.0029593757 	0 	0 	0
0.48138138 	2.0886781e-05 	1e-15 	5.197294e-17 	0.0029542145 	0 	0 	0
0.48348348 	2.0720452e-05 	1e-15 	5.1758552e-17 	0.0029490533 	0 	0 	0
0.48558559 	2.0554122e-05 	1e-15 	5.1544164e-17 	0.0029438921 	0 	0 	0
0.48768769 	2.0387793e-05 	1e-15 	5.1329776e-17 	0.0029387308 	0 	0 	0
0.48978979 	2.0221464e-05 	1e-15 	5.1115388e-17 	0.0029335696 	0 	0 	0
0.49189189 	2.0065703e-05 	1e-15 	5.0917178e-17 	0.0029284344 	0 	0 	0
0.49399399 	1.9911277e-05 	1e-15 	5.0721013e-17 	0.0029233026 	0 	0 	0
0.4960961 	1.9756851e-05 	1e-15 	5.0524848e-17 	0.0029181707 	0 	0 	0
0.4981982 	1.9602425e-05 	1e-15 	5.0328683e-17 	0.0029130388 	0 	0 	0
0.5003003 	1.9447999e-05 	1e-15 	5.0132518e-17 	0.0029079069 	0 	0 	0
0.5024024 	1.9296087e-05 	1e-15 	4.9939486e-17 	0.0029027817 	0 	0 	0
0.5045045 	1.9152739e-05 	1e-15 	4.9757123e-17 	0.0028976789 	0 	0 	0
0.50660661 	1.9009392e-05 	1e-15 	4.9574761e-17 	0.0028925762 	0 	0 	0
0.50870871 	1.8866044e-05 	1e-15 	4.9392398e-17 	0.0028874735 	0 	0 	0
0.51081081 	1.8722697e-05 	1e-15 	4.9210036e-17 	0.0028823707 	0 	0 	0
0.51291291 	1.8579349e-05 	1e-15 	4.9027673e-17 	0.002877268 	0 	0 	0
0.51501502 	1.8439912e-05 	1e-15 	4.8846456e-17 	0.0028721758 	0 	0 	0
0.51711712 	1.8306876e-05 	1e-15 	4.8667114e-17 	0.0028671008 	0 	0 	0
0.51921922 	1.817384e-05 	1e-15 	4.8487772e-17 	0.0028620259 	0 	0 	0
0.52132132 	1.8040805e-05 	1e-15 	4.830843e-17 	0.0028569509 	0 	0 	0
0.52342342 	1.7907769e-05 	1e-15 	4.8129088e-17 	0.002851876 	0 	0 	0
0.52552553 	1.7774733e-05 	1e-15 	4.7949746e-17 	0.002846801 	0 	0 	0
0.52762763 	1.7644901e-05 	1e-15 	4.7773626e-17 	0.0028417355 	0 	0 	0
0.52972973 	1.7521465e-05 	1e-15 	4.760394e-17 	0.0028366887 	0 	0 	0
0.53183183 	1.7398029e-05 	1e-15 	4.7434253e-17 	0.0028316419 	0 	0 	0
0.53393393 	1.7274593e-05 	1e-15 	4.7264567e-17 	0.0028265951 	0 	0 	0
0.53603604 	1.7151157e-05 	1e-15 	4.709488e-17 	0.0028215483 	0 	0 	0
0.53813814 	1.7027721e-05 	1e-15 	4.6925194e-17 	0.0028165015 	0 	0 	0
0.54024024 	1.6904992e-05 	1e-15 	4.6756391e-17 	0.0028114571 	0 	0 	0
0.54234234 	1.6790497e-05 	1e-15 	4.6597875e-17 	0.0028064394 	0 	0 	0
0.54444444 	1.6676003e-05 	1e-15 	4.643936e-17 	0.0028014217 	0 	0 	0
0.54654655 	1.6561509e-05 	1e-15 	4.6280844e-17 	0.0027964041 	0 	0 	0
0.54864865 	1.6447015e-05 	1e-15 	4.6122329e-17 	0.0027913864 	0 	0 	0
0.55075075 	1.6332521e-05 	1e-15 	4.5963813e-17 	0.0027863688 	0 	0 	0
0.55285285 	1.6218026e-05 	1e-15 	4.5805298e-17 	0.0027813511 	0 	0 	0
0.55495495 	1.6108554e-05 	1e-15 	4.564762e-17 	0.0027763512 	0 	0 	0
0.55705706 	1.6002393e-05 	1e-15 	4.5490494e-17 	0.002771363 	0 	0 	0
0.55915916 	1.5896231e-05 	1e-15 	4.5333368e-17 	0.0027663748 	0 	0 	0
0.56126126 	1.579007e-05 	1e-15 	4.5176241e-17 	0.0027613866 	0 	0 	0
0.56336336 	1.5683909e-05 	1e-15 	4.5019115e-17 	0.0027563983 	0 	0 	0
0.56546547 	1.5577747e-05 	1e-15 	4.4861989e-17 	0.0027514101 	0 	0 	0
0.56756757 	1.5471586e-05 	1e-15 	4.4704863e-17 	0.0027464219 	0 	0 	0
0.56966967 	1.5372346e-05 	1e-15 	4.455558e-17 	0.0027414606 	0 	0 	0
0.57177177 	1.5273952e-05 	1e-15 	4.4407254e-17 	0.0027365025 	0 	0 	0
0.57387387 	1.5175557e-05 	1e-15 	4.4258929e-17 	0.0027315445 	0 	0 	0
0.57597598 	1.5077163e-05 	1e-15 	4.4110603e-17 	0.0027265864 	0 	0 	0
0.57807808 	1.4978768e-05 	1e-15 	4.3962277e-17 	0.0027216284 	0 	0 	0
0.58018018 	1.4880374e-05 	1e-15 	4.3813952e-17 	0.0027166703 	0 	0 	0
0.58228228 	1.4781979e-05 	1e-15 	4.3665626e-17 	0.0027117123 	0 	0 	0
0.58438438 	1.4690319e-05 	1e-15 	4.3530434e-17 	0.0027067826 	0 	0 	0
0.58648649 	1.4599166e-05 	1e-15 	4.3396231e-17 	0.0027018552 	0 	0 	0
0.58858859 	1.4508013e-05 	1e-15 	4.3262028e-17 	0.0026969277 	0 	0 	0
0.59069069 	1.441686e-05 	1e-15 	4.3127826e-17 	0.0026920002 	0 	0 	0
0.59279279 	1.4325707e-05 	1e-15 	4.2993623e-17 	0.0026870727 	0 	0 	0
0.59489489 	1.4234554e-05 	1e-15 	4.285942e-17 	0.0026821452 	0 	0 	0
0.596997 	1.4143401e-05 	1e-15 	4.2725218e-17 	0.0026772177 	0 	0 	0
0.5990991 	1.4056996e-05 	1e-15 	4.2595677e-17 	0.0026723125 	0 	0 	0
0.6012012 	1.3972595e-05 	1e-15 	4.2468105e-17 	0.0026674166 	0 	0 	0
0.6033033 	1.3888195e-05 	1e-15 	4.2340533e-17 	0.0026625208 	0 	0 	0
0.60540541 	1.3803794e-05 	1e-15 	4.2212961e-17 	0.0026576249 	0 	0 	0
0.60750751 	1.3719394e-05 	1e-15 	4.2085389e-17 	0.0026527291 	0 	0 	0
0.60960961 	1.3634993e-05 	1e-15 	4.1957817e-17 	0.0026478332 	0 	0 	0
0.61171171 	1.3550593e-05 	1e-15 	4.1830244e-17 	0.0026429374 	0 	0 	0
0.61381381 	1.3467413e-05 	1e-15 	4.1704025e-17 	0.0026380479 	0 	0 	0
0.61591592 	1.3389313e-05 	1e-15 	4.1583434e-17 	0.0026331848 	0 	0 	0
0.61801802 	1.3311212e-05 	1e-15 	4.1462843e-17 	0.0026283218 	0 	0 	0
0.62012012 	1.3233112e-05 	1e-15 	4.1342252e-17 	0.0026234587 	0 	0 	0
0.62222222 	1.3155011e-05 	1e-15 	4.1221661e-17 	0.0026185957 	0 	0 	0
0.62432432 	1.3076911e-05 	1e-15 	4.110107e-17 	0.0026137326 	0 	0 	0
0.62642643 	1.2998811e-05 	1e-15 	4.0980479e-17 	0.0026088696 	0 	0 	0
0.62852853 	1.292071e-05 	1e-15 	4.0859888e-17 	0.0026040065 	0 	0 	0
0.63063063 	1.2844862e-05 	1e-15 	4.0741044e-17 	0.0025991556 	0 	0 	0
0.63273273 	1.277264e-05 	1e-15 	4.0625013e-17 	0.0025943243 	0 	0 	0
0.63483483 	1.2700418e-05 	1e-15 	4.0508982e-17 	0.002589493 	0 	0 	0
0.63693694 	1.2628196e-05 	1e-15 	4.0392951e-17 	0.0025846617 	0 	0 	0
0.63903904 	1.2555974e-05 	1e-15 	4.027692e-17 	0.0025798303 	0 	0 	0
0.64114114 	1.2483753e-05 	1e-15 	4.0160889e-17 	0.002574999 	0 	0 	0
0.64324324 	1.2411531e-05 	1e-15 	4.0044858e-17 	0.0025701677 	0 	0 	0
0.64534535 	1.2339309e-05 	1e-15 	3.9928827e-17 	0.0025653364 	0 	0 	0
0.64744745 	1.2268462e-05 	1e-15 	3.9814252e-17 	0.002560513 	0 	0 	0
0.64954955 	1.2201722e-05 	1e-15 	3.9704025e-17 	0.0025557135 	0 	0 	0
0.65165165 	1.2134983e-05 	1e-15 	3.9593798e-17 	0.0025509139 	0 	0 	0
0.65375375 	1.2068244e-05 	1e-15 	3.9483572e-17 	0.0025461143 	0 	0 	0
0.65585586 	1.2001504e-05 	1e-15 	3.9373345e-17 	0.0025413148 	0 	0 	0
0.65795796 	1.1934765e-05 	1e-15 	3.9263118e-17 	0.0025365152 	0 	0 	0
0.66006006 	1.1868025e-05 	1e-15 	3.9152892e-17 	0.0025317156 	0 	0 	0
0.66216216 	1.1801286e-05 	1e-15 	3.9042665e-17 	0.002526916 	0 	0 	0
0.66426426 	1.1734546e-05 	1e-15 	3.8932438e-17 	0.0025221165 	0 	0 	0
0.66636637 	1.1671769e-05 	1e-15 	3.8826209e-17 	0.0025173425 	0 	0 	0
0.66846847 	1.1610143e-05 	1e-15 	3.8721143e-17 	0.002512576 	0 	0 	0
0.67057057 	1.1548518e-05 	1e-15 	3.8616076e-17 	0.0025078095 	0 	0 	0
0.67267267 	1.1486892e-05 	1e-15 	3.8511009e-17 	0.002503043 	0 	0 	0
0.67477477 	1.1425266e-05 	1e-15 	3.8405943e-17 	0.0024982765 	0 	0 	0
0.67687688 	1.136364e-05 	1e-15 	3.8300876e-17 	0.00249351 	0 	0 	0
0.67897898 	1.1302015e-05 	1e-15 	3.8195809e-17 	0.0024887435 	0 	0 	0
0.68108108 	1.1240389e-05 	1e-15 	3.8090742e-17 	0.002483977 	0 	0 	0
0.68318318 	1.1178763e-05 	1e-15 	3.7985676e-17 	0.0024792105 	0 	0 	0
0.68528529 	1.1121578e-05 	1e-15 	3.7886748e-17 	0.0024744754 	0 	0 	0
0.68738739 	1.1064723e-05 	1e-15 	3.7788276e-17 	0.0024697426 	0 	0 	0
0.68948949 	1.1007868e-05 	1e-15 	3.7689804e-17 	0.0024650098 	0 	0 	0
0.69159159 	1.0951013e-05 	1e-15 	3.7591331e-17 	0.0024602771 	0 	0 	0
0.69369369 	1.0894157e-05 	1e-15 	3.7492859e-17 	0.0024555443 	0 	0 	0
0.6957958 	1.0837302e-05 	1e-15 	3.7394387e-17 	0.0024508115 	0 	0 	0
0.6978979 	1.0780447e-05 	1e-15 	3.7295915e-17 	0.0024460787 	0 	0 	0
0.7 	1.0723592e-05 	1e-15 	3.7197442e-17 	0.0024413459 	0 	0 	0
0.7021021 	1.0666736e-05 	1e-15 	3.709897e-17 	0.0024366132 	0 	0 	0
0.7042042 	1.0612963e-05 	1e-15 	3.7007799e-17 	0.0024319044 	0 	0 	0
0.70630631 	1.0560558e-05 	1e-15 	3.6919868e-17 	0.0024272063 	0 	0 	0
0.70840841 	1.0508152e-05 	1e-15 	3.6831937e-17 	0.0024225082 	0 	0 	0
0.71051051 	1.0455746e-05 	1e-15 	3.6744005e-17 	0.0024178101 	0 	0 	0
0.71261261 	1.0403341e-05 	1e-15 	3.6656074e-17 	0.002413112 	0 	0 	0
0.71471471 	1.0350935e-05 	1e-15 	3.6568143e-17 	0.0024084139 	0 	0 	0
0.71681682 	1.029853e-05 	1e-15 	3.6480211e-17 	0.0024037159 	0 	0 	0
0.71891892 	1.0246124e-05 	1e-15 	3.639228e-17 	0.0023990178 	0 	0 	0
0.72102102 	1.0193718e-05 	1e-15 	3.6304349e-17 	0.0023943197 	0 	0 	0
0.72312312 	1.0141441e-05 	1e-15 	3.621655e-17 	0.0023896227 	0 	0 	0
0.72522523 	1.0093185e-05 	1e-15 	3.6132913e-17 	0.0023849601 	0 	0 	0
0.72732733 	1.0044929e-05 	1e-15 	3.6049276e-17 	0.0023802975 	0 	0 	0
0.72942943 	9.9966726e-06 	1e-15 	3.5965639e-17 	0.0023756349 	0 	0 	0
0.73153153 	9.9484165e-06 	1e-15 	3.5882001e-17 	0.0023709723 	0 	0 	0
0.73363363 	9.9001604e-06 	1e-15 	3.5798364e-17 	0.0023663096 	0 	0 	0
0.73573574 	9.8519043e-06 	1e-15 	3.5714727e-17 	0.002361647 	0 	0 	0
0.73783784 	9.8036482e-06 	1e-15 	3.563109e-17 	0.0023569844 	0 	0 	0
0.73993994 	9.7553921e-06 	1e-15 	3.5547453e-17 	0.0023523218 	0 	0 	0
0.74204204 	9.7071361e-06 	1e-15 	3.5463816e-17 	0.0023476592 	0 	0 	0
0.74414414 	9.65888e-06 	1e-15 	3.5380179e-17 	0.0023429966 	0 	0 	0
0.74624625 	9.6141582e-06 	1e-15 	3.5297305e-17 	0.0023383677 	0 	0 	0
0.74834835 	9.5697709e-06 	1e-15 	3.5214504e-17 	0.002333742 	0 	0 	0
0.75045045 	9.5253836e-06 	1e-15 	3.5131703e-17 	0.0023291163 	0 	0 	0
0.75255255 	9.4809963e-06 	1e-15 	3.5048902e-17 	0.0023244906 	0 	0 	0
0.75465465 	9.436609e-06 	1e-15 	3.4966101e-17 	0.0023198649 	0 	0 	0
0.75675676 	9.3922217e-06 	1e-15 	3.48833e-17 	0.0023152392 	0 	0 	0
0.75885886 	9.3478344e-06 	1e-15 	3.4800499e-17 	0.0023106135 	0 	0 	0
0.76096096 	9.3034471e-06 	1e-15 	3.4717698e-17 	0.0023059878 	0 	0 	0
0.76306306 	9.2590598e-06 	1e-15 	3.4634897e-17 	0.002301362 	0 	0 	0
0.76516517 	9.2146725e-06 	1e-15 	3.4552096e-17 	0.0022967363 	0 	0 	0
0.76726727 	9.1713865e-06 	1e-15 	3.4470544e-17 	0.0022921224 	0 	0 	0
0.76936937 	9.1306065e-06 	1e-15 	3.4391834e-17 	0.0022875352 	0 	0 	0
0.77147147 	9.0898265e-06 	1e-15 	3.4313125e-17 	0.002282948 	0 	0 	0
0.77357357 	9.0490464e-06 	1e-15 	3.4234416e-17 	0.0022783608 	0 	0 	0
0.77567568 	9.0082664e-06 	1e-15 	3.4155706e-17 	0.0022737736 	0 	0 	0
0.77777778 	8.9674863e-06 	1e-15 	3.4076997e-17 	0.0022691864 	0 	0 	0
0.77987988 	8.9267063e-06 	1e-15 	3.3998288e-17 	0.0022645992 	0 	0 	0
0.78198198 	8.8859262e-06 	1e-15 	3.3919578e-17 	0.002260012 	0 	0 	0
0.78408408 	8.8451462e-06 	1e-15 	3.3840869e-17 	0.0022554249 	0 	0 	0
0.78618619 	8.8043662e-06 	1e-15 	3.3762159e-17 	0.0022508377 	0 	0 	0
0.78828829 	8.7635861e-06 	1e-15 	3.368345e-17 	0.0022462505 	0 	0 	0
0.79039039 	8.7233681e-06 	1e-15 	3.3605856e-17 	0.0022416697 	0 	0 	0
0.79249249 	8.6859501e-06 	1e-15 	3.353382e-17 	0.0022371212 	0 	0 	0
0.79459459 	8.6485322e-06 	1e-15 	3.3461784e-17 	0.0022325727 	0 	0 	0
0.7966967 	8.6111142e-06 	1e-15 	3.3389748e-17 	0.0022280242 	0 	0 	0
0.7987988 	8.5736963e-06 	1e-15 	3.3317712e-17 	0.0022234757 	0 	0 	0
0.8009009 	8.5362784e-06 	1e-15 	3.3245676e-17 	0.0022189272 	0 	0 	0
0.803003 	8.4988604e-06 	1e-15 	3.317364e-17 	0.0022143787 	0 	0 	0
0.80510511 	8.4614425e-06 	1e-15 	3.3101604e-17 	0.0022098302 	0 	0 	0
0.80720721 	8.4240246e-06 	1e-15 	3.3029568e-17 	0.0022052816 	0 	0 	0
0.80930931 	8.3866066e-06 	1e-15 	3.2957532e-17 	0.0022007331 	0 	0 	0
0.81141141 	8.3491887e-06 	1e-15 	3.2885496e-17 	0.0021961846 	0 	0 	0
0.81351351 	8.3117707e-06 	1e-15 	3.281346e-17 	0.0021916361 	0 	0 	0
0.81561562 	8.2757797e-06 	1e-15 	3.2741983e-17 	0.0021871057 	0 	0 	0
0.81771772 	8.2414927e-06 	1e-15 	3.2671173e-17 	0.0021825969 	0 	0 	0
0.81981982 	8.2072058e-06 	1e-15 	3.2600363e-17 	0.0021780881 	0 	0 	0
0.82192192 	8.1729189e-06 	1e-15 	3.2529553e-17 	0.0021735794 	0 	0 	0
0.82402402 	8.138632e-06 	1e-15 	3.2458743e-17 	0.0021690706 	0 	0 	0
0.82612613 	8.1043451e-06 	1e-15 	3.2387933e-17 	0.0021645618 	0 	0 	0
0.82822823 	8.0700582e-06 	1e-15 	3.2317123e-17 	0.002160053 	0 	0 	0
0.83033033 	8.0357713e-06 	1e-15 	3.2246313e-17 	0.0021555443 	0 	0 	0
0.83243243 	8.0014844e-06 	1e-15 	3.2175503e-17 	0.0021510355 	0 	0 	0
0.83453453 	7.9671975e-06 	1e-15 	3.2104693e-17 	0.0021465267 	0 	0 	0
0.83663664 	7.9329105e-06 	1e-15 	3.2033883e-17 	0.0021420179 	0 	0 	0
0.83873874 	7.8986236e-06 	1e-15 	3.1963074e-17 	0.0021375092 	0 	0 	0
0.84084084 	7.8646949e-06 	1e-15 	3.1892467e-17 	0.0021330055 	0 	0 	0
0.84294294 	7.8333227e-06 	1e-15 	3.1823313e-17 	0.0021285386 	0 	0 	0
0.84504505 	7.8019506e-06 	1e-15 	3.1754159e-17 	0.0021240717 	0 	0 	0
0.84714715 	7.7705785e-06 	1e-15 	3.1685005e-17 	0.0021196047 	0 	0 	0
0.84924925 	7.7392064e-06 	1e-15 	3.1615852e-17 	0.0021151378 	0 	0 	0
0.85135135 	7.7078343e-06 	1e-15 	3.1546698e-17 	0.0021106708 	0 	0 	0
0.85345345 	7.6764621e-06 	1e-15 	3.1477544e-17 	0.0021062039 	0 	0 	0
0.85555556 	7.64509e-06 	1e-15 	3.140839e-17 	0.002101737 	0 	0 	0
0.85765766 	7.6137179e-06 	1e-15 	3.1339236e-17 	0.00209727 	0 	0 	0
0.85975976 	7.5823458e-06 	1e-15 	3.1270082e-17 	0.0020928031 	0 	0 	0
0.86186186 	7.5509736e-06 	1e-15 	3.1200928e-17 	0.0020883361 	0 	0 	0
0.86396396 	7.5196015e-06 	1e-15 	3.1131775e-17 	0.0020838692 	0 	0 	0