/*--------------------------------*- C++ -*----------------------------------*\
| =========                 |                                                 |
| \\      /  F ield         | OpenFOAM: The Open Source CFD Toolbox           |
|  \\    /   O peration     | Version:  2206                                  |
|   \\  /    A nd           | Website:  www.openfoam.com                      |
|    \\/     M anipulation  |                                                 |
\*---------------------------------------------------------------------------*/
FoamFile
{
    version     2.0;
    format      ascii;
    arch        "LSB;label=32;scalar=64";
    class       volScalarField;
    location    "1100";
    object      epsilon;
}
// * * * * * * * * * * * * * * * * * * * * * * * * * * * * * * * * * * * * * //

dimensions      [0 2 -3 0 0 0 0];

internalField   nonuniform List<scalar> 
13056
(
0.0083150646
0.0082278088
0.0081796431
0.0081550249
0.008140058
0.0081296523
0.0081219352
0.0081160287
0.0081114248
0.0081077974
0.0081049287
0.0081026716
0.0081009299
0.0080996474
0.0080988074
0.0080984328
0.0080986292
0.0080995469
0.0081018002
0.0081056497
0.0081153093
0.0081333165
0.0081552223
0.010548505
0.030244078
0.0017851167
0.0050103125
0.00035823953
0.0018643513
0.00017604567
0.0010630857
0.00010989342
0.00070997659
0.00054658607
0.00051373587
0.00043252539
0.00039118968
0.00034545211
0.00031159669
0.00028125516
0.00025581675
0.00023368075
0.00021444085
0.00019755582
0.00018265029
0.00016941112
0.00015758917
0.00014698043
0.0001374173
0.00012876106
0.00012089551
0.00011372273
0.00010715996
0.00010113662
9.5592444e-05
9.0475694e-05
8.574139e-05
8.1350404e-05
7.7268697e-05
7.3466431e-05
6.991733e-05
6.6598292e-05
6.3488941e-05
6.0571032e-05
5.7828286e-05
5.5246205e-05
5.2811818e-05
5.0513451e-05
4.8340576e-05
4.6283761e-05
4.4334502e-05
4.2484984e-05
4.0728105e-05
3.9057447e-05
3.7467133e-05
3.5951808e-05
3.4506549e-05
3.3126848e-05
3.180866e-05
3.0548184e-05
2.9341867e-05
2.8186491e-05
2.7079077e-05
2.6016861e-05
2.4997288e-05
2.4017979e-05
2.3076753e-05
2.2171605e-05
2.1300616e-05
2.0461995e-05
1.9654101e-05
1.8875388e-05
1.8124419e-05
1.7399841e-05
1.6700392e-05
1.6024932e-05
1.5372351e-05
1.4741591e-05
1.4131687e-05
1.3541723e-05
1.2970841e-05
1.2418229e-05
1.1883128e-05
1.1364844e-05
1.0862695e-05
1.037604e-05
9.9042842e-06
9.4468616e-06
9.0032321e-06
8.5728996e-06
8.1553993e-06
7.7501772e-06
7.3571568e-06
6.9853758e-06
6.6445677e-06
6.3335314e-06
6.0477351e-06
5.7851421e-06
5.5435616e-06
5.3206273e-06
5.1142957e-06
4.9227883e-06
4.7445541e-06
4.5782399e-06
4.42265e-06
4.2767115e-06
4.1394595e-06
4.0099979e-06
3.8875127e-06
3.7711085e-06
3.6601181e-06
3.5530021e-06
3.4503199e-06
3.3447354e-06
3.2541138e-06
3.1254671e-06
0.0083136414
0.0082262847
0.0081780581
0.0081534062
0.0081384177
0.0081279966
0.0081202675
0.0081143514
0.0081097393
0.0081061048
0.0081032294
0.0081009657
0.0080992169
0.0080979264
0.0080970767
0.0080966894
0.0080968684
0.0080977619
0.0080999751
0.0081037693
0.0081132921
0.0081311484
0.0081521344
0.010545512
0.029670174
0.0017691088
0.0049233964
0.0003570458
0.0018408676
0.0001793777
0.0010540265
0.00012158726
0.00070664743
0.00054669725
0.00051314796
0.00043352876
0.00039234565
0.00034730559
0.00031375709
0.00028376431
0.00025857179
0.00023664779
0.000217579
0.00020083476
0.00018604543
0.0001729021
0.00016115919
0.00015061554
0.0001411058
0.00013249312
0.00012466278
0.00011751811
0.00011097739
0.0001049709
9.943909e-05
9.4330823e-05
8.9601634e-05
8.5212835e-05
8.1130758e-05
7.7325883e-05
7.3772224e-05
7.044691e-05
6.7329762e-05
6.4402714e-05
6.1649635e-05
5.9056137e-05
5.6609387e-05
5.4297816e-05
5.2110986e-05
5.0039544e-05
4.8075053e-05
4.6209762e-05
4.4436622e-05
4.274926e-05
4.1141844e-05
3.9609054e-05
3.8145998e-05
3.6748199e-05
3.5411635e-05
3.4132527e-05
3.2907345e-05
3.1732885e-05
3.0606183e-05
2.9524489e-05
2.8485258e-05
2.7486123e-05
2.6524907e-05
2.5599614e-05
2.4708332e-05
2.3849274e-05
2.3020802e-05
2.2221374e-05
2.1449554e-05
2.070399e-05
1.9983422e-05
1.928671e-05
1.8612745e-05
1.7960466e-05
1.7328906e-05
1.6717145e-05
1.6124321e-05
1.554962e-05
1.4992276e-05
1.445159e-05
1.3926866e-05
1.3417463e-05
1.2922782e-05
1.2442249e-05
1.1975317e-05
1.1521482e-05
1.1080274e-05
1.0651143e-05
1.023398e-05
9.8383088e-06
9.4745849e-06
9.1419155e-06
8.8361277e-06
8.5549957e-06
8.2959147e-06
8.056419e-06
7.8343795e-06
7.6279436e-06
7.4354936e-06
7.2556173e-06
7.0870664e-06
6.9287191e-06
6.7795648e-06
6.6386671e-06
6.505171e-06
6.3781255e-06
6.2568281e-06
6.1396036e-06
6.0271257e-06
5.9112763e-06
5.8120252e-06
5.6698476e-06
0.0083091225
0.0082214539
0.0081730398
0.0081482847
0.0081332305
0.0081227623
0.0081149975
0.0081090532
0.0081044181
0.0081007642
0.008097872
0.008095593
0.0080938296
0.0080925241
0.0080916581
0.0080912518
0.0080914064
0.0080922675
0.0080944294
0.0080981541
0.0081075056
0.0081251865
0.0081449445
0.010536348
0.029100473
0.0017530474
0.0048357416
0.00035577845
0.0018168709
0.00018267162
0.0010445764
0.00013328734
0.00070300284
0.000546458
0.00051231001
0.00043426548
0.00039327956
0.0003489384
0.00031571607
0.00028608074
0.00026114518
0.00023944201
0.00022055257
0.00020395665
0.00018929038
0.00017624922
0.00016459119
0.00015411803
0.00014466672
0.00013610228
0.00012831154
0.0001211991
0.00011468431
0.00010869832
0.00010318232
9.8085805e-05
9.3364832e-05
8.8981167e-05
8.4901526e-05
8.1096719e-05
7.7541058e-05
7.4211914e-05
7.1089314e-05
6.8155376e-05
6.5394124e-05
6.2791286e-05
6.0334173e-05
5.8011327e-05
5.5812404e-05
5.3728132e-05
5.1750149e-05
4.9870768e-05
4.8082998e-05
4.6380514e-05
4.475753e-05
4.3208766e-05
4.1729364e-05
4.0314877e-05
3.8961309e-05
3.7664909e-05
3.6422165e-05
3.5229894e-05
3.4085148e-05
3.2985189e-05
3.1927488e-05
3.0909686e-05
2.9929617e-05
2.8985291e-05
2.8074806e-05
2.7196381e-05
2.6348379e-05
2.5529264e-05
2.4737603e-05
2.3972046e-05
2.3231332e-05
2.2514327e-05
2.181992e-05
2.1147051e-05
2.0494748e-05
1.9862089e-05
1.9248211e-05
1.8652293e-05
1.8073568e-05
1.7511329e-05
1.6964867e-05
1.6433544e-05
1.5916753e-05
1.5413916e-05
1.4924478e-05
1.4447929e-05
1.3983789e-05
1.3531518e-05
1.3090971e-05
1.2672163e-05
1.2286273e-05
1.1932767e-05
1.1607729e-05
1.1308599e-05
1.1032522e-05
1.0776935e-05
1.0539627e-05
1.0318675e-05
1.0112398e-05
9.9193252e-06
9.7381588e-06
9.5677296e-06
9.4069835e-06
9.2549446e-06
9.110719e-06
8.9733014e-06
8.8419554e-06
8.7148733e-06
8.5928417e-06
8.4669769e-06
8.3593077e-06
8.2039171e-06
0.0083013661
0.008213164
0.0081644297
0.0081394983
0.0081243321
0.008113784
0.0081059585
0.0080999665
0.008095293
0.0080916073
0.0080886879
0.008086385
0.0080845998
0.0080832733
0.0080823858
0.0080819558
0.0080820819
0.0080829069
0.0080850134
0.008088665
0.0080978362
0.008115348
0.0081337294
0.010520967
0.028527311
0.0017367099
0.0047460494
0.00035436872
0.0017919136
0.00018587767
0.001034491
0.00014492508
0.00069888408
0.00054575442
0.00051110776
0.00043464293
0.00039390511
0.00035027557
0.00031740524
0.00028814283
0.00026348051
0.00024201163
0.00022331374
0.00020687712
0.00019234377
0.00017941373
0.00016784874
0.00015745355
0.00014806755
0.00013955769
0.00013181243
0.00012473769
0.00011825392
0.00011229319
0.00010679747
0.00010171689
9.7008084e-05
9.2633278e-05
8.8559595e-05
8.4758192e-05
8.1203698e-05
7.7873734e-05
7.474855e-05
7.1810458e-05
6.9043645e-05
6.6433967e-05
6.3968884e-05
6.163706e-05
5.9428249e-05
5.7333267e-05
5.5343831e-05
5.3452327e-05
5.1651822e-05
4.9936048e-05
4.8299266e-05
4.6736238e-05
4.5242148e-05
4.3812579e-05
4.2443565e-05
4.1131384e-05
3.9872548e-05
3.8663893e-05
3.750249e-05
3.638562e-05
3.5310765e-05
3.4275581e-05
3.3277912e-05
3.2315776e-05
3.1387283e-05
3.0490657e-05
2.9624267e-05
2.8786582e-05
2.7976172e-05
2.7191692e-05
2.6431883e-05
2.5695613e-05
2.4981773e-05
2.4289303e-05
2.3617229e-05
2.2964627e-05
2.2330631e-05
2.1714419e-05
2.1115219e-05
2.0532318e-05
1.9964996e-05
1.9412616e-05
1.8874565e-05
1.8350261e-05
1.7839142e-05
1.734069e-05
1.6854419e-05
1.6379795e-05
1.5916642e-05
1.5475467e-05
1.5068181e-05
1.4694627e-05
1.4351002e-05
1.4034417e-05
1.3741846e-05
1.3470636e-05
1.3218498e-05
1.2983439e-05
1.2763717e-05
1.2557809e-05
1.2364366e-05
1.2182176e-05
1.2010141e-05
1.1847249e-05
1.1692568e-05
1.154504e-05
1.1403895e-05
1.1267198e-05
1.1135846e-05
1.1000205e-05
1.088432e-05
1.0716021e-05
0.0082901497
0.0082011767
0.0081519794
0.0081267934
0.0081114654
0.0081008019
0.008092889
0.0080868285
0.0080820999
0.0080783689
0.0080754114
0.0080730754
0.0080712606
0.0080699065
0.0080689917
0.0080685331
0.008068626
0.0080694106
0.0080714573
0.0080750316
0.0080840122
0.0081013609
0.0081182024
0.010498964
0.027943742
0.0017198877
0.0046530681
0.00035274537
0.0017655505
0.00018894035
0.001023521
0.00015641826
0.00069412606
0.00054446371
0.00050942027
0.00043456071
0.000394129
0.00035123481
0.0003187491
0.00028988181
0.00026551437
0.00024429797
0.00022580785
0.00020954501
0.00019515754
0.0001823503
0.00017088894
0.00016058136
0.00015126947
0.00014282229
0.00013512995
0.0001280998
0.00012165343
0.00011572391
0.00011025401
0.00010519457
0.00010050278
9.6141407e-05
9.2077984e-05
8.8284047e-05
8.4734559e-05
8.1407413e-05
7.8283094e-05
7.5344126e-05
7.2574874e-05
6.9961331e-05
6.749112e-05
6.5153032e-05
6.2936933e-05
6.0833733e-05
5.8835235e-05
5.6933904e-05
5.5122873e-05
5.3395935e-05
5.1747403e-05
5.017209e-05
4.8665219e-05
4.7222414e-05
4.5839739e-05
4.4513504e-05
4.3240249e-05
4.2016835e-05
4.0840351e-05
3.9708099e-05
3.8617579e-05
3.756646e-05
3.6552598e-05
3.5574024e-05
3.4628858e-05
3.3715334e-05
3.2831827e-05
3.1976814e-05
3.1148868e-05
3.034665e-05
2.9568904e-05
2.8814503e-05
2.8082341e-05
2.7371356e-05
2.6680575e-05
2.6009074e-05
2.5355984e-05
2.4720482e-05
2.4101792e-05
2.3499196e-05
2.2911964e-05
2.233946e-05
2.1781067e-05
2.1236197e-05
2.0704283e-05
2.0184799e-05
1.9677255e-05
1.918112e-05
1.869619e-05
1.8233466e-05
1.7805595e-05
1.7412781e-05
1.7051223e-05
1.6717752e-05
1.6409214e-05
1.6122871e-05
1.5856357e-05
1.5607617e-05
1.5374849e-05
1.5156479e-05
1.4951111e-05
1.4757491e-05
1.457448e-05
1.440103e-05
1.4236174e-05
1.4078803e-05
1.3928116e-05
1.3782051e-05
1.3641615e-05
1.3496442e-05
1.3372546e-05
1.3191647e-05
0.0082751726
0.0081851695
0.0081353532
0.0081098267
0.0080942825
0.0080834647
0.0080754352
0.0080692833
0.0080644814
0.0080606904
0.0080576826
0.0080553035
0.0080534506
0.0080520616
0.0080511132
0.0080506204
0.0080506752
0.0080514148
0.0080533967
0.0080568889
0.0080656676
0.0080828593
0.0080979812
0.010469795
0.027343468
0.0017023854
0.0045555841
0.00035083337
0.0017373348
0.00019179647
0.0010114098
0.00016766651
0.0006885547
0.00054245194
0.00050711764
0.0004339086
0.00039384881
0.00035172456
0.00031966317
0.00029122004
0.00026717459
0.0002462337
0.00022797176
0.00021190085
0.00019767541
0.0001850055
0.00017366089
0.00016345281
0.00015422589
0.00014585131
0.00013822103
0.00013124388
0.0001248427
0.0001189516
0.00011351425
0.0001084822
0.0001038133
9.9470848e-05
9.5422849e-05
9.1641238e-05
8.810134e-05
8.4781344e-05
8.1661994e-05
7.8726041e-05
7.5958046e-05
7.3344154e-05
7.0872166e-05
6.8531011e-05
6.6310678e-05
6.4202181e-05
6.2197421e-05
6.0288946e-05
5.8469965e-05
5.6734339e-05
5.5076441e-05
5.3491136e-05
5.1973697e-05
5.0519789e-05
4.9125515e-05
4.7787219e-05
4.6501474e-05
4.5265167e-05
4.4075412e-05
4.2929533e-05
4.182505e-05
4.0759649e-05
3.9731203e-05
3.8737754e-05
3.7777438e-05
3.6848497e-05
3.5949319e-05
3.5078384e-05
3.4234278e-05
3.3415663e-05
3.2621289e-05
3.1850038e-05
3.1100805e-05
3.0372531e-05
2.9664241e-05
2.8975014e-05
2.8303979e-05
2.7650313e-05
2.7013237e-05
2.6392031e-05
2.578595e-05
2.5194365e-05
2.4616654e-05
2.4052222e-05
2.3500499e-05
2.2960953e-05
2.2433087e-05
2.1916377e-05
2.1410588e-05
2.0927221e-05
2.0479645e-05
2.0068396e-05
1.9689599e-05
1.9339868e-05
1.9015943e-05
1.8715003e-05
1.8434614e-05
1.8172658e-05
1.7927279e-05
1.7696853e-05
1.7479944e-05
1.7275254e-05
1.7081607e-05
1.6897922e-05
1.6723195e-05
1.6556271e-05
1.6396319e-05
1.6241153e-05
1.609189e-05
1.5937449e-05
1.5805761e-05
1.5612595e-05
0.0082560583
0.0081647381
0.0081141299
0.0080881678
0.0080723468
0.0080613319
0.0080531531
0.0080468845
0.0080419892
0.0080381218
0.0080350502
0.0080326169
0.0080307164
0.0080292845
0.0080282956
0.0080277624
0.0080277734
0.0080284629
0.0080303744
0.0080337795
0.0080423436
0.0080593853
0.0080725897
0.010432784
0.026720827
0.0016840205
0.0044524186
0.00034855308
0.0017068156
0.00019437387
0.00099789107
0.00017854822
0.0006819855
0.00053957298
0.00050405971
0.00043256534
0.00039295192
0.00035164289
0.00032005288
0.00029206989
0.00026837923
0.00024774185
0.00022973284
0.00021387577
0.0001998319
0.00018731683
0.00017610475
0.00016601049
0.00015688154
0.00014859147
0.00014103415
0.00013412005
0.00012777333
0.00012192926
0.00011653243
0.00011153521
0.00010689616
0.00010257913
9.8552666e-05
9.4789123e-05
9.1264226e-05
8.7956488e-05
8.4846937e-05
8.1918575e-05
7.9156179e-05
7.6546065e-05
7.4076228e-05
7.1735752e-05
6.9514759e-05
6.7404382e-05
6.5396627e-05
6.3484141e-05
6.1660215e-05
5.9918785e-05
5.8254294e-05
5.6661666e-05
5.5136229e-05
5.3673698e-05
5.2270216e-05
5.092217e-05
4.9626169e-05
4.837913e-05
4.7178198e-05
4.6020721e-05
4.4904243e-05
4.3826472e-05
4.2785297e-05
4.1778777e-05
4.0805065e-05
3.9862417e-05
3.894923e-05
3.8063997e-05
3.7205309e-05
3.6371841e-05
3.5562347e-05
3.4775716e-05
3.401085e-05
3.3266693e-05
3.2542272e-05
3.1836664e-05
3.1149004e-05
3.0478466e-05
2.982427e-05
2.9185694e-05
2.8561983e-05
2.7952511e-05
2.7356653e-05
2.6773813e-05
2.6203411e-05
2.5644913e-05
2.5097815e-05
2.4561601e-05
2.4036006e-05
2.3533024e-05
2.3066733e-05
2.2637951e-05
2.2242699e-05
2.1877424e-05
2.1538773e-05
2.122385e-05
2.0930155e-05
2.0655515e-05
2.0398022e-05
2.0156008e-05
1.9927994e-05
1.9712645e-05
1.9508751e-05
1.9315197e-05
1.9130949e-05
1.8954803e-05
1.8785901e-05
1.8621941e-05
1.8464141e-05
1.8300733e-05
1.8161503e-05
1.7956452e-05
0.0082323563
0.0081393991
0.0080878054
0.0080613011
0.0080451358
0.0080338754
0.008025511
0.0080190974
0.0080140861
0.0080101239
0.0080069736
0.0080044734
0.0080025149
0.008001031
0.0079999937
0.0079994133
0.0079993744
0.0080000078
0.0080018428
0.008005155
0.008013491
0.008030391
0.0080414592
0.01038713
0.026070795
0.0016646252
0.0043424319
0.00034581995
0.0016735384
0.00019659076
0.00098268944
0.00018891906
0.00067422332
0.00053566838
0.00050009574
0.00043039848
0.00039131507
0.0003508772
0.00031981329
0.00029233347
0.00026903625
0.00024873552
0.00023100866
0.00021539132
0.00020155203
0.00018921243
0.00017815147
0.00016818785
0.00015917218
0.00015098058
0.00014350904
0.00013666976
0.0001303884
0.00012460142
0.00011925447
0.0001143008
0.00010969972
0.00010541574
0.00010141793
9.7679167e-05
9.4175589e-05
9.088607e-05
8.7791953e-05
8.4876518e-05
8.2124782e-05
7.9523256e-05
7.7060146e-05
7.4724708e-05
7.2507215e-05
7.0398933e-05
6.8391987e-05
6.647913e-05
6.4653752e-05
6.2909871e-05
6.1242009e-05
5.9645158e-05
5.8114709e-05
5.6646433e-05
5.5236521e-05
5.3881408e-05
5.2577744e-05
5.1322483e-05
5.0112803e-05
4.8946083e-05
4.7819894e-05
4.6731969e-05
4.5680218e-05
4.4662721e-05
4.367765e-05
4.2723276e-05
4.1798011e-05
4.090036e-05
4.0028928e-05
3.9182397e-05
3.8359532e-05
3.755923e-05
3.6780402e-05
3.6021995e-05
3.5283039e-05
3.4562618e-05
3.3859865e-05
3.3173956e-05
3.2504115e-05
3.1849613e-05
3.1209689e-05
3.0583722e-05
2.9971085e-05
2.9371177e-05
2.8783416e-05
2.8207262e-05
2.7642207e-05
2.708774e-05
2.6543571e-05
2.6022174e-05
2.5538301e-05
2.5093014e-05
2.4682223e-05
2.4302244e-05
2.3949644e-05
2.3621459e-05
2.331513e-05
2.3028431e-05
2.2759409e-05
2.2506355e-05
2.2267752e-05
2.2042231e-05
2.1828548e-05
2.1625559e-05
2.14322e-05
2.1247226e-05
2.1069748e-05
2.0897355e-05
2.0731365e-05
2.0559345e-05
2.0412872e-05
2.0196389e-05
0.0082035447
0.0081085915
0.0080557947
0.0080286284
0.0080120425
0.0080004825
0.0079918915
0.0079853009
0.0079801481
0.0079760706
0.0079728245
0.0079702433
0.0079682148
0.0079666688
0.0079655744
0.007964939
0.0079648431
0.0079654142
0.0079671659
0.007970379
0.0079784718
0.0079952397
0.0080039298
0.010331917
0.025389038
0.0016440488
0.0042245336
0.00034254476
0.0016370482
0.00019835594
0.0009655215
0.00019861209
0.00066506344
0.0005305685
0.00049506516
0.00042726511
0.00038880509
0.00034930486
0.00031882958
0.00029190311
0.00026904395
0.0002491183
0.00023170742
0.00021635974
0.00020275168
0.00019061142
0.00017972309
0.00016990957
0.00016102488
0.00015294791
0.00014557696
0.00013882614
0.00013262269
0.00012690445
0.0001216182
0.00011671815
0.00011216443
0.00010792228
0.00010396139
0.00010025516
9.6780197e-05
9.3515787e-05
9.0443614e-05
8.7547271e-05
8.4812045e-05
8.2224665e-05
7.9773569e-05
7.7448209e-05
7.5239025e-05
7.3137432e-05
7.1135691e-05
6.9226675e-05
6.7403883e-05
6.566143e-05
6.3993923e-05
6.2396437e-05
6.0864431e-05
5.9393742e-05
5.7980616e-05
5.6621541e-05
5.5313219e-05
5.4052642e-05
5.283703e-05
5.1663796e-05
5.0530545e-05
4.9435038e-05
4.837521e-05
4.7349166e-05
4.63551e-05
4.5391303e-05
4.4456204e-05
4.3548325e-05
4.2666283e-05
4.1808774e-05
4.0974574e-05
4.0162594e-05
3.937175e-05
3.8600999e-05
3.7849376e-05
3.7115969e-05
3.6399914e-05
3.5700394e-05
3.5016629e-05
3.4347895e-05
3.3693421e-05
3.3052592e-05
3.2424781e-05
3.1809383e-05
3.1205815e-05
3.0613533e-05
3.0032023e-05
2.9460783e-05
2.8899496e-05
2.8361096e-05
2.7860967e-05
2.7400375e-05
2.6975129e-05
2.6581447e-05
2.6215824e-05
2.5875237e-05
2.5557075e-05
2.5259066e-05
2.4979217e-05
2.471578e-05
2.4467207e-05
2.4232097e-05
2.4009176e-05
2.3797275e-05
2.3595302e-05
2.3401971e-05
2.321637e-05
2.3035981e-05
2.2862219e-05
2.2682021e-05
2.2528663e-05
2.23013e-05
0.0081690321
0.0080716794
0.0080174338
0.00798947
0.0079723776
0.0079604566
0.0079515927
0.007944789
0.0079394659
0.0079352498
0.0079318889
0.0079292107
0.0079270987
0.0079254791
0.0079243177
0.0079236186
0.007923458
0.0079239594
0.0079256203
0.0079287275
0.0079365607
0.0079532083
0.0079592516
0.01026612
0.024671988
0.0016221621
0.0040977007
0.0003386345
0.0015968954
0.00019956968
0.00094609942
0.00020743961
0.0006542939
0.00052409465
0.00048879935
0.00042301356
0.00038528034
0.00034679462
0.00031697842
0.00029066264
0.00026829222
0.00024878541
0.00023172902
0.0002166851
0.00020333862
0.00019142491
0.0001807337
0.00017109246
0.00016235893
0.00015441502
0.00014716154
0.00014051472
0.00013440355
0.00012876734
0.00012355413
0.00011871919
0.00011422357
0.00011003331
0.00010611876
0.00010245391
9.901592e-05
9.5784496e-05
9.2741717e-05
8.9871524e-05
8.7159502e-05
8.4592632e-05
8.215961e-05
7.9850102e-05
7.7654739e-05
7.5565106e-05
7.3573612e-05
7.1673271e-05
6.9857701e-05
6.8121129e-05
6.6458262e-05
6.4864263e-05
6.3334675e-05
6.1865405e-05
6.0452767e-05
5.9093309e-05
5.7783788e-05
5.6521247e-05
5.5302951e-05
5.4126354e-05
5.2989098e-05
5.188898e-05
5.0823965e-05
4.9792184e-05
4.8791861e-05
4.7821309e-05
4.6878977e-05
4.5963407e-05
4.5073233e-05
4.4207168e-05
4.3364001e-05
4.2542658e-05
4.1742065e-05
4.096119e-05
4.0199076e-05
3.9454815e-05
3.8727553e-05
3.8016475e-05
3.7320806e-05
3.6639821e-05
3.5972747e-05
3.5318974e-05
3.4677875e-05
3.4048845e-05
3.3431299e-05
3.2824691e-05
3.2228503e-05
3.1642238e-05
3.1065561e-05
3.0511828e-05
2.9997001e-05
2.9522522e-05
2.9084114e-05
2.8677924e-05
2.8300387e-05
2.7948429e-05
2.7619394e-05
2.7310974e-05
2.7021141e-05
2.6748114e-05
2.6490318e-05
2.6246323e-05
2.6014831e-05
2.5794651e-05
2.5584665e-05
2.5383552e-05
2.5190378e-05
2.5002525e-05
2.4821502e-05
2.4633654e-05
2.4473851e-05
2.4236284e-05
0.0081281595
0.008027953
0.0079719813
0.007943067
0.0079253706
0.0079130193
0.0079038302
0.0078967725
0.0078912466
0.0078868655
0.007883368
0.0078805749
0.0078783643
0.0078766581
0.0078754184
0.0078746459
0.0078744116
0.0078748354
0.0078763971
0.0078793908
0.0078869467
0.0079034875
0.0079065859
0.010188616
0.023916936
0.0015988627
0.003961004
0.00033399374
0.0015526447
0.00020012547
0.00092413618
0.00021519656
0.00064169928
0.00051606251
0.00048112464
0.00041748623
0.00038059324
0.00034320896
0.00031413016
0.00028848948
0.00026666452
0.0002476256
0.0002309669
0.000216265
0.00020321417
0.00019155756
0.00018109101
0.000171647
0.00016308732
0.00015529721
0.00014818024
0.00014165493
0.00013565221
0.00013011301
0.00012498676
0.00012022992
0.00011580452
0.00011167749
0.00010781993
0.0001042065
0.00010081491
9.7625389e-05
9.462044e-05
9.178439e-05
8.910316e-05
8.6564018e-05
8.4155942e-05
8.1868841e-05
7.969356e-05
7.7621873e-05
7.5646361e-05
7.3760191e-05
7.1957121e-05
7.0231503e-05
6.8578156e-05
6.6992345e-05
6.5469707e-05
6.4006232e-05
6.2598309e-05
6.1242556e-05
5.9935795e-05
5.8675125e-05
5.7457863e-05
5.6281513e-05
5.514376e-05
5.404244e-05
5.2975554e-05
5.1941267e-05
5.0937835e-05
4.9963596e-05
4.9017027e-05
4.8096691e-05
4.7201245e-05
4.632942e-05
4.5480021e-05
4.4651993e-05
4.3844277e-05
4.3055851e-05
4.2285768e-05
4.1533132e-05
4.0797094e-05
4.0076848e-05
3.9371625e-05
3.8680702e-05
3.8003302e-05
3.7338826e-05
3.6686647e-05
3.6046163e-05
3.5416786e-05
3.4797968e-05
3.4189193e-05
3.3589968e-05
3.2999938e-05
3.2432841e-05
3.190515e-05
3.1418457e-05
3.0968427e-05
3.0551152e-05
3.0163022e-05
2.9800923e-05
2.9462167e-05
2.9144413e-05
2.8845607e-05
2.8563942e-05
2.8297821e-05
2.8045791e-05
2.7806534e-05
2.7578838e-05
2.7361567e-05
2.7153368e-05
2.6953287e-05
2.6758618e-05
2.6570954e-05
2.63761e-05
2.6210388e-05
2.5963445e-05
0.0080802024
0.0079766313
0.0079186203
0.0078885824
0.0078701721
0.0078573121
0.0078477384
0.0078403806
0.0078346151
0.0078300391
0.0078263805
0.007823452
0.0078211255
0.0078193182
0.0078179876
0.0078171305
0.0078168126
0.0078171496
0.0078186028
0.0078214748
0.007828734
0.0078451841
0.0078450064
0.010098198
0.023122152
0.0015740824
0.003813643
0.00032852674
0.0015038876
0.00019991245
0.00089935292
0.00022166552
0.00062706596
0.0005062867
0.00047186633
0.00041052326
0.00037459371
0.00033840737
0.00031015188
0.00028525751
0.00026404054
0.00024552376
0.00022931053
0.00021499299
0.00020227555
0.00019090989
0.00018069855
0.00017147945
0.00016311883
0.00015550557
0.00014854625
0.00014216194
0.00013628567
0.00013086019
0.00012583643
0.00012117214
0.0001168305
0.00011277937
0.00010899071
0.00010543988
0.00010210527
9.8967625e-05
9.6009952e-05
9.3217001e-05
9.0575073e-05
8.8071754e-05
8.569634e-05
8.3439009e-05
8.1290848e-05
7.9243841e-05
7.7290763e-05
7.5424955e-05
7.3640332e-05
7.1931386e-05
7.0293065e-05
6.872075e-05
6.7210184e-05
6.5757451e-05
6.4359026e-05
6.3011608e-05
6.171209e-05
6.045764e-05
5.9245633e-05
5.8073628e-05
5.6939362e-05
5.5840718e-05
5.4775738e-05
5.3742624e-05
5.273967e-05
5.1765248e-05
5.0817862e-05
4.9896105e-05
4.8998656e-05
4.8124271e-05
4.7271777e-05
4.6440137e-05
4.562831e-05
4.4835289e-05
4.4060142e-05
4.3301982e-05
4.2559974e-05
4.1833319e-05
4.1121256e-05
4.042307e-05
3.9737981e-05
3.9065401e-05
3.8404707e-05
3.7755298e-05
3.7116589e-05
3.6488033e-05
3.586911e-05
3.5259338e-05
3.4658345e-05
3.4080189e-05
3.3541781e-05
3.3044843e-05
3.2585006e-05
3.2158328e-05
3.1761169e-05
3.139039e-05
3.1043276e-05
3.071747e-05
3.0410895e-05
3.0121728e-05
2.9848354e-05
2.9589306e-05
2.9343246e-05
2.9108952e-05
2.8885271e-05
2.8670821e-05
2.8464636e-05
2.8263932e-05
2.8070374e-05
2.7869295e-05
2.7698323e-05
2.7443006e-05
0.0080243739
0.0079168647
0.0078564611
0.007825104
0.0078058555
0.0077923982
0.007782373
0.0077746628
0.007768616
0.0077638114
0.007759964
0.007756877
0.0077544152
0.0077524901
0.0077510543
0.0077501002
0.0077496874
0.0077499276
0.0077512618
0.007754003
0.0077609441
0.0077773224
0.0077735015
0.0099935837
0.022287003
0.0015477951
0.0036549899
0.00032214007
0.0014502583
0.00019881871
0.00087148852
0.0002266233
0.00061018888
0.0004945867
0.00046085407
0.00040196754
0.00036713369
0.0003322505
0.00030491128
0.00028084079
0.00026029984
0.00024236431
0.00022664864
0.00021276168
0.00020041887
0.0001893812
0.00017945848
0.00017049462
0.00016236069
0.00015494955
0.0001481711
0.00014194919
0.00013621918
0.00013092577
0.00012602158
0.0001214658
0.00011722282
0.00011326157
0.00010955495
0.00010607911
0.00010281314
9.973842e-05
9.6838478e-05
9.4098548e-05
9.1505353e-05
8.9046838e-05
8.671265e-05
8.4493269e-05
8.2380048e-05
8.0365212e-05
7.8441749e-05
7.6603198e-05
7.484365e-05
7.3157756e-05
7.1540608e-05
6.9987718e-05
6.8494948e-05
6.7058492e-05
6.5674919e-05
6.4341021e-05
6.3053776e-05
6.1810424e-05
6.060841e-05
5.9445357e-05
5.8319061e-05
5.7227456e-05
5.6168635e-05
5.5140843e-05
5.4142417e-05
5.3171767e-05
5.2227431e-05
5.1308036e-05
5.0412289e-05
4.9538973e-05
4.868694e-05
4.7855177e-05
4.7042665e-05
4.6248415e-05
4.5471509e-05
4.4711079e-05
4.3966302e-05
4.323639e-05
4.2520595e-05
4.1818208e-05
4.1128453e-05
4.0450753e-05
3.9784492e-05
3.9129073e-05
3.8483913e-05
3.7848469e-05
3.7222223e-05
3.6604698e-05
3.5995513e-05
3.5408975e-05
3.486234e-05
3.4357452e-05
3.3889927e-05
3.3455813e-05
3.305146e-05
3.2673712e-05
3.2319847e-05
3.1987495e-05
3.1674571e-05
3.1379242e-05
3.1099883e-05
3.0835017e-05
3.0583298e-05
3.0343493e-05
3.0114439e-05
2.9894735e-05
2.9683401e-05
2.9477592e-05
2.9279036e-05
2.9072662e-05
2.8897208e-05
2.863472e-05
0.0079598281
0.0078477387
0.0077845446
0.0077516478
0.0077314208
0.007717266
0.0077067138
0.0076985921
0.0076922171
0.0076871458
0.0076830782
0.0076798066
0.0076771876
0.007675126
0.0076735689
0.0076725036
0.0076719835
0.0076721153
0.0076733189
0.0076759194
0.007682519
0.0076988472
0.0076909775
0.0098734332
0.021412072
0.0015200278
0.0034846436
0.00031474605
0.001391454
0.00019673526
0.00084031157
0.00022984891
0.00059088015
0.00048079421
0.00044792852
0.00039167071
0.0003580727
0.00032460544
0.00029828166
0.0002751182
0.00025532615
0.00023803533
0.00022287325
0.00020946658
0.00019754282
0.00018687306
0.00017727505
0.00016859918
0.00016072181
0.00015354015
0.00014696773
0.00014093142
0.00013536914
0.00013022775
0.00012546171
0.00012103177
0.00011690368
0.00011304755
0.00010943728
0.00010604992
0.00010286534
9.9865606e-05
9.7034827e-05
9.4358773e-05
9.1824635e-05
8.9420766e-05
8.7137194e-05
8.4964736e-05
8.2895044e-05
8.092061e-05
7.9034661e-05
7.7230957e-05
7.5503784e-05
7.3847973e-05
7.2258778e-05
7.0731857e-05
6.9263208e-05
6.7849147e-05
6.6486353e-05
6.5171718e-05
6.3902317e-05
6.2675474e-05
6.1488714e-05
6.0339731e-05
5.9226387e-05
5.8146679e-05
5.7098754e-05
5.6080909e-05
5.5091528e-05
5.4129067e-05
5.3192104e-05
5.2279301e-05
5.1389403e-05
5.0521223e-05
4.9673642e-05
4.8845676e-05
4.8036328e-05
4.7244634e-05
4.6469695e-05
4.5710663e-05
4.4966729e-05
4.4237123e-05
4.3521111e-05
4.2817993e-05
4.2127e-05
4.1447568e-05
4.0779091e-05
4.0120979e-05
3.9472654e-05
3.8833576e-05
3.8203233e-05
3.7581156e-05
3.6966954e-05
3.6375104e-05
3.5823107e-05
3.531291e-05
3.4840145e-05
3.4400873e-05
3.3991446e-05
3.3608716e-05
3.3249962e-05
3.2912819e-05
3.2595199e-05
3.2295271e-05
3.2011408e-05
3.174213e-05
3.1486088e-05
3.1242047e-05
3.100884e-05
3.078505e-05
3.0569694e-05
3.0359876e-05
3.0157377e-05
2.9946808e-05
2.9767793e-05
2.9499557e-05
0.0078856656
0.0077682793
0.0077018476
0.0076671628
0.0076457992
0.0076308345
0.00761967
0.0076110704
0.007604314
0.0075989331
0.0075946101
0.0075911245
0.0075883235
0.0075861043
0.0075844077
0.0075832154
0.0075825736
0.0075825843
0.0075836445
0.0075860932
0.0075923259
0.0076086291
0.0075962643
0.0097363712
0.020499254
0.0014908724
0.0033024912
0.00030626674
0.0013272592
0.00019356088
0.00080563501
0.00023113306
0.00056897941
0.00046476194
0.00043294943
0.00037950053
0.00034728464
0.00031535196
0.00029014771
0.00026797895
0.0002490127
0.00023243366
0.00021788441
0.00020501073
0.00019355314
0.00018329368
0.00017405873
0.00016570571
0.00015811673
0.00015119373
0.00014485419
0.00013902828
0.0001336567
0.00012868868
0.00012408068
0.00011979517
0.00011579939
0.00011206474
0.00010856622
0.00010528187
0.00010219241
9.9280648e-05
9.6531362e-05
9.3930902e-05
9.1466977e-05
8.9128393e-05
8.6905599e-05
8.4789783e-05
8.2772929e-05
8.0847824e-05
7.9007964e-05
7.724735e-05
7.556049e-05
7.3942412e-05
7.2388553e-05
7.0894736e-05
6.9457106e-05
6.807212e-05
6.6736576e-05
6.5447485e-05
6.4202025e-05
6.2997619e-05
6.1831878e-05
6.070258e-05
5.960766e-05
5.8545186e-05
5.7513367e-05
5.651056e-05
5.5535203e-05
5.4585803e-05
5.3660983e-05
5.275945e-05
5.1879987e-05
5.1021444e-05
5.0182737e-05
4.9362913e-05
4.8561005e-05
4.7776074e-05
4.7007248e-05
4.6253697e-05
4.5514636e-05
4.4789313e-05
4.407701e-05
4.3377042e-05
4.2688651e-05
4.2011288e-05
4.1344359e-05
4.0687282e-05
4.003949e-05
3.9400448e-05
3.876965e-05
3.8146639e-05
3.7531017e-05
3.6937336e-05
3.6383229e-05
3.5870729e-05
3.5395515e-05
3.4953682e-05
3.4541609e-05
3.4156172e-05
3.3794668e-05
3.3454746e-05
3.3134332e-05
3.2831604e-05
3.2544943e-05
3.2272877e-05
3.2014058e-05
3.1767257e-05
3.1531308e-05
3.130479e-05
3.1086718e-05
3.0874166e-05
3.0668953e-05
3.0455471e-05
3.027397e-05
3.0001647e-05
0.0078009412
0.0076774614
0.007607291
0.0075705391
0.0075478614
0.00753196
0.0075200874
0.0075109353
0.007503738
0.0074979992
0.0074933809
0.0074896483
0.0074866374
0.0074842369
0.0074823804
0.0074810432
0.007480264
0.0074801393
0.0074810416
0.0074833265
0.0074891645
0.0075054712
0.0074881238
0.0095810096
0.019551819
0.001460499
0.0031087782
0.00029663876
0.0012575735
0.00018920764
0.00076733337
0.00023028899
0.00054436614
0.00044637404
0.00041580522
0.00036534954
0.00033466575
0.00030438998
0.00028041253
0.00025932917
0.00024126834
0.00022547069
0.00021159589
0.00019931004
0.00018836774
0.00017856286
0.00016973107
0.00016173739
0.00015447016
0.00014783644
0.00014175798
0.00013616853
0.00013101183
0.00012623967
0.00012181071
0.00011768926
0.00011384419
0.00011024832
0.00010687786
0.0001037119
0.00010073213
9.7922141e-05
9.526745e-05
9.2755046e-05
9.0373209e-05
8.8111246e-05
8.5960066e-05
8.3911265e-05
8.1957192e-05
8.0090961e-05
7.8306364e-05
7.6597669e-05
7.495963e-05
7.3387494e-05
7.1876899e-05
7.0423849e-05
6.902466e-05
6.7675937e-05
6.6374619e-05
6.5117842e-05
6.3902905e-05
6.2727337e-05
6.158885e-05
6.0485311e-05
5.9414743e-05
5.8375289e-05
5.7365231e-05
5.6382991e-05
5.5427069e-05