/*--------------------------------*- C++ -*----------------------------------*\
| =========                 |                                                 |
| \\      /  F ield         | OpenFOAM: The Open Source CFD Toolbox           |
|  \\    /   O peration     | Version:  2206                                  |
|   \\  /    A nd           | Website:  www.openfoam.com                      |
|    \\/     M anipulation  |                                                 |
\*---------------------------------------------------------------------------*/
FoamFile
{
    version     2.0;
    format      ascii;
    arch        "LSB;label=32;scalar=64";
    class       volScalarField;
    location    "1100";
    object      k;
}
// * * * * * * * * * * * * * * * * * * * * * * * * * * * * * * * * * * * * * //

dimensions      [0 2 -2 0 0 0 0];

internalField   nonuniform List<scalar> 
13056
(
0.00013360487
0.00012657445
0.00012408071
0.00012284103
0.0001220651
0.00012152253
0.00012112143
0.0001208148
0.00012057484
0.00012038367
0.00012022921
0.00012010296
0.00011999878
0.00011991215
0.00011983962
0.00011977859
0.00011972689
0.00011968345
0.00011964531
0.00011961907
0.00011957212
0.00011967132
0.0001189987
0.00012233619
1.7885148e-05
2.7112968e-06
5.3947636e-06
9.2933465e-07
2.7908335e-06
5.7871246e-07
1.9190239e-06
4.2268483e-07
1.4661706e-06
1.2314765e-06
1.1816999e-06
1.0535746e-06
9.853502e-07
9.0693875e-07
8.4666721e-07
7.9075832e-07
7.4231983e-07
6.988455e-07
6.5993109e-07
6.2480984e-07
5.929653e-07
5.6394671e-07
5.3738903e-07
5.1298579e-07
4.9047971e-07
4.6965355e-07
4.5032131e-07
4.3232301e-07
4.15521e-07
3.9979563e-07
3.8504302e-07
3.7117263e-07
3.5810423e-07
3.4576684e-07
3.3409784e-07
3.2304148e-07
3.1254791e-07
3.0257273e-07
2.9307635e-07
2.8402267e-07
2.7537901e-07
2.6711596e-07
2.5920686e-07
2.5162741e-07
2.4435539e-07
2.3737077e-07
2.3065529e-07
2.2419186e-07
2.1796476e-07
2.1195969e-07
2.0616338e-07
2.0056363e-07
1.9514904e-07
1.8990911e-07
1.8483444e-07
1.7991599e-07
1.7514514e-07
1.705141e-07
1.6601556e-07
1.6164266e-07
1.5738901e-07
1.5324857e-07
1.492158e-07
1.4528559e-07
1.4145291e-07
1.37713e-07
1.3406152e-07
1.304943e-07
1.2700743e-07
1.2359718e-07
1.2026002e-07
1.1699283e-07
1.1379245e-07
1.1065577e-07
1.0758e-07
1.0456243e-07
1.0160047e-07
9.8691651e-08
9.5833624e-08
9.3024253e-08
9.0261341e-08
8.7542782e-08
8.4866602e-08
8.2230878e-08
7.9633705e-08
7.7073324e-08
7.4548043e-08
7.2055503e-08
6.9596197e-08
6.722924e-08
6.502245e-08
6.297558e-08
6.1065774e-08
5.928333e-08
5.7619559e-08
5.6062645e-08
5.46022e-08
5.3229018e-08
5.1934934e-08
5.0712709e-08
4.9555837e-08
4.8458339e-08
4.7414726e-08
4.6419731e-08
4.5468454e-08
4.4555106e-08
4.3675448e-08
4.2818028e-08
4.1987973e-08
4.1125821e-08
4.0378567e-08
3.9305833e-08
0.00013359257
0.00012655407
0.00012405725
0.00012281596
0.00012203898
0.00012149568
0.00012109402
0.00012078696
0.00012054666
0.00012035522
0.00012020054
0.0001200741
0.00011996978
0.00011988301
0.00011981037
0.00011974924
0.00011969746
0.00011965395
0.00011961574
0.00011958945
0.00011954243
0.00011964173
0.00011896835
0.00012231014
1.786936e-05
2.6787825e-06
5.2747831e-06
9.1372475e-07
2.7344535e-06
5.712753e-07
1.8841151e-06
4.2817877e-07
1.4420956e-06
1.2142815e-06
1.1639103e-06
1.039378e-06
9.72037e-07
8.9552712e-07
8.3637579e-07
7.8164806e-07
7.3416046e-07
6.9154628e-07
6.5338625e-07
6.1893611e-07
5.8769183e-07
5.592125e-07
5.331415e-07
5.0917932e-07
4.8707446e-07
4.6661451e-07
4.4761759e-07
4.2992722e-07
4.1340877e-07
3.9794515e-07
3.8343472e-07
3.6978887e-07
3.5692908e-07
3.4478585e-07
3.3329788e-07
3.2241059e-07
3.1207514e-07
3.0224808e-07
2.928906e-07
2.8396733e-07
2.7544625e-07
2.6729848e-07
2.5949794e-07
2.5202082e-07
2.4484534e-07
2.3795184e-07
2.3132242e-07
2.2494034e-07
2.1879017e-07
2.1285787e-07
2.0713044e-07
2.0159589e-07
1.9624306e-07
1.9106162e-07
1.8604235e-07
1.8117637e-07
1.7645524e-07
1.7187128e-07
1.6741733e-07
1.6308664e-07
1.5887294e-07
1.5477029e-07
1.5077323e-07
1.4687675e-07
1.4307591e-07
1.3936603e-07
1.3574282e-07
1.3220219e-07
1.2874029e-07
1.2535345e-07
1.2203819e-07
1.1879144e-07
1.1561007e-07
1.1249104e-07
1.0943158e-07
1.0642902e-07
1.0348079e-07
1.0058447e-07
9.7737718e-08
9.4938424e-08
9.2184401e-08
8.9473575e-08
8.6803988e-08
8.4173733e-08
8.158092e-08
7.9023798e-08
7.6500689e-08
7.4009283e-08
7.154998e-08
6.9180899e-08
6.6969522e-08
6.4916666e-08
6.3002152e-08
6.1217076e-08
5.9550381e-08
5.7990292e-08
5.6526459e-08
5.5149711e-08
5.3851913e-08
5.2625852e-08
5.1465044e-08
5.0363536e-08
4.9315853e-08
4.8316753e-08
4.7361348e-08
4.6443856e-08
4.5560045e-08
4.4698423e-08
4.386421e-08
4.2997612e-08
4.2247005e-08
4.1166906e-08
0.0001335531
0.00012648987
0.00012398369
0.00012273748
0.00012195733
0.00012141178
0.00012100844
0.00012070008
0.00012045875
0.00012026649
0.00012011113
0.00011998413
0.00011987934
0.00011979217
0.00011971919
0.00011965777
0.00011960573
0.000119562
0.00011952359
0.00011949715
0.00011944991
0.00011954949
0.00011887388
0.00012222784
1.7856798e-05
2.6462198e-06
5.1546339e-06
8.9794781e-07
2.6775692e-06
5.6365704e-07
1.8486598e-06
4.3358278e-07
1.4174816e-06
1.1964275e-06
1.1456242e-06
1.024623e-06
9.5823144e-07
8.8360659e-07
8.2559836e-07
7.7205547e-07
7.2552947e-07
6.8378318e-07
6.4638549e-07
6.1261414e-07
5.8197739e-07
5.5404433e-07
5.2846676e-07
5.0495214e-07
4.8325476e-07
4.6316708e-07
4.4451133e-07
4.2713457e-07
4.1090517e-07
3.9570864e-07
3.8144559e-07
3.6802934e-07
3.5538307e-07
3.4343882e-07
3.3213658e-07
3.2142292e-07
3.1125011e-07
3.0157556e-07
2.9236128e-07
2.8357265e-07
2.751783e-07
2.671499e-07
2.5946194e-07
2.5209111e-07
2.4501605e-07
2.3821751e-07
2.3167795e-07
2.2538096e-07
2.1931141e-07
2.1345555e-07
2.0780061e-07
2.0233485e-07
1.9704732e-07
1.9192789e-07
1.8696751e-07
1.8215747e-07
1.7748949e-07
1.7295603e-07
1.6855006e-07
1.6426496e-07
1.6009457e-07
1.5603305e-07
1.5207504e-07
1.4821563e-07
1.4444994e-07
1.407734e-07
1.3718177e-07
1.3367104e-07
1.3023741e-07
1.2687728e-07
1.2358723e-07
1.2036422e-07
1.1720518e-07
1.1410712e-07
1.110673e-07
1.0808308e-07
1.0515195e-07
1.0227149e-07
9.9439401e-08
9.6653589e-08
9.3911882e-08
9.1212238e-08
8.8552718e-08
8.5931434e-08
8.3346512e-08
8.0796214e-08
7.8278874e-08
7.5792239e-08
7.3336615e-08
7.0969129e-08
6.8756963e-08
6.6702298e-08
6.4787391e-08
6.3002647e-08
6.1335846e-08
5.9775264e-08
5.8310601e-08
5.6932732e-08
5.563356e-08
5.4405908e-08
5.3243324e-08
5.2139881e-08
5.1090131e-08
5.008886e-08
4.9131203e-08
4.8211389e-08
4.7325203e-08
4.6461133e-08
4.562448e-08
4.4755235e-08
4.4002837e-08
4.2917718e-08
0.00013348525
0.00012637983
0.0001238577
0.0001226031
0.00012181757
0.00012126818
0.00012086197
0.0001205514
0.00012030832
0.00012011465
0.00011995813
0.00011983018
0.00011972459
0.00011963675
0.00011956319
0.00011950127
0.0001194488
0.00011940469
0.00011936595
0.00011933924
0.00011929162
0.00011939167
0.00011871228
0.0001220867
1.7847816e-05
2.6132708e-06
5.0327631e-06
8.8181326e-07
2.6193957e-06
5.5571599e-07
1.8121381e-06
4.3876509e-07
1.3919472e-06
1.1776154e-06
1.1265418e-06
1.0090532e-06
9.4369059e-07
8.7095883e-07
8.1413164e-07
7.6179315e-07
7.1625229e-07
6.7539331e-07
6.3877618e-07
6.0570051e-07
5.7568686e-07
5.4831457e-07
5.2324395e-07
5.0018958e-07
4.7891163e-07
4.5920747e-07
4.4090355e-07
4.238505e-07
4.0791976e-07
3.9299948e-07
3.7899255e-07
3.6581428e-07
3.5338959e-07
3.4165203e-07
3.3054294e-07
3.200101e-07
3.1000683e-07
3.0049149e-07
2.914269e-07
2.827792e-07
2.7451768e-07
2.6661458e-07
2.5904499e-07
2.5178607e-07
2.4481694e-07
2.3811873e-07
2.3167428e-07
2.2546751e-07
2.1948362e-07
2.1370912e-07
2.0813152e-07
2.0273932e-07
1.9752177e-07
1.9246895e-07
1.87572e-07
1.8282237e-07
1.7821194e-07
1.7373334e-07
1.6937965e-07
1.651444e-07
1.6102152e-07
1.5700529e-07
1.5309047e-07
1.492722e-07
1.4554574e-07
1.4190655e-07
1.3835051e-07
1.3487365e-07
1.3147226e-07
1.2814277e-07
1.2488185e-07
1.2168649e-07
1.1855368e-07
1.1548048e-07
1.1246419e-07
1.0950219e-07
1.0659203e-07
1.0373131e-07
1.0091776e-07
9.8149324e-08
9.542383e-08
9.2739276e-08
9.0093746e-08
8.7485372e-08
8.4912301e-08
8.2372807e-08
7.9865242e-08
7.7387408e-08
7.4939527e-08
7.2577756e-08
7.0369018e-08
6.8317012e-08
6.6405742e-08
6.4624542e-08
6.2960676e-08
6.1402491e-08
5.9939748e-08
5.8563381e-08
5.7265341e-08
5.6038496e-08
5.4876433e-08
5.3773264e-08
5.2723573e-08
5.1722183e-08
5.0764257e-08
4.9844045e-08
4.8957358e-08
4.8092684e-08
4.7255395e-08
4.6385392e-08
4.5632838e-08
4.4545149e-08
0.00013338714
0.00012622081
0.00012367565
0.00012240896
0.00012161564
0.00012106072
0.00012065037
0.00012033661
0.000120091
0.0001198953
0.00011973712
0.00011960779
0.00011950104
0.00011941223
0.00011933783
0.0001192752
0.0001192221
0.00011917745
0.00011913821
0.00011911114
0.00011906296
0.00011916368
0.00011847888
0.00012188267
1.7842708e-05
2.579629e-06
4.907723e-06
8.6513867e-07
2.5591843e-06
5.4731064e-07
1.7740465e-06
4.4357673e-07
1.3651181e-06
1.1575459e-06
1.1063662e-06
9.9241124e-07
9.2817126e-07
8.5736348e-07
8.0177001e-07
7.506705e-07
7.0615063e-07
6.6620959e-07
6.3040118e-07
5.9804692e-07
5.6867992e-07
5.4189014e-07
5.173466e-07
4.9477117e-07
4.7393008e-07
4.5462578e-07
4.3668901e-07
4.1997411e-07
4.0435566e-07
3.8972453e-07
3.7598598e-07
3.6305733e-07
3.508653e-07
3.3934503e-07
3.2843924e-07
3.1809694e-07
3.0827254e-07
2.9892538e-07
2.9001912e-07
2.8152069e-07
2.7340006e-07
2.6563006e-07
2.5818637e-07
2.5104668e-07
2.4419058e-07
2.3759961e-07
2.3125699e-07
2.25147e-07
2.1925516e-07
2.1356827e-07
2.0807411e-07
2.0276141e-07
1.9761968e-07
1.9263921e-07
1.8781129e-07
1.8312758e-07
1.7858013e-07
1.7416171e-07
1.6986554e-07
1.6568529e-07
1.6161501e-07
1.5764911e-07
1.5378242e-07
1.500102e-07
1.4632779e-07
1.4273076e-07
1.3921504e-07
1.3577675e-07
1.3241224e-07
1.2911803e-07
1.2589082e-07
1.2272767e-07
1.1962563e-07
1.1658179e-07
1.1359351e-07
1.1065821e-07
1.0777347e-07
1.0493693e-07
1.0214637e-07
9.9399735e-08
9.6694881e-08
9.4029847e-08
9.140274e-08
8.8811715e-08
8.6254942e-08
8.3730713e-08
8.1237399e-08
7.8772859e-08
7.6337237e-08
7.3985753e-08
7.1785091e-08
6.9740437e-08
6.7836848e-08
6.6062705e-08
6.4405098e-08
6.285246e-08
6.139463e-08
6.0022612e-08
5.8728421e-08
5.7504977e-08
5.6345921e-08
5.524541e-08
5.4198068e-08
5.3198764e-08
5.2242698e-08
5.1324154e-08
5.0438972e-08
4.9575668e-08
4.873967e-08
4.7870922e-08
4.7119954e-08
4.6032302e-08
0.00013325626
0.00012600857
0.00012343265
0.00012214982
0.00012134609
0.00012078379
0.00012036792
0.00012004989
0.00011980092
0.0001196025
0.0001194421
0.00011931093
0.00011920265
0.00011911253
0.00011903702
0.00011897342
0.00011891949
0.00011887412
0.00011883422
0.00011880665
0.00011875773
0.00011885935
0.00011816734
0.00012161031
1.7842014e-05
2.5450209e-06
4.7781657e-06
8.4774988e-07
2.496219e-06
5.3829881e-07
1.7338955e-06
4.4784677e-07
1.3366258e-06
1.1359181e-06
1.0848023e-06
9.7443808e-07
9.1142887e-07
8.4259724e-07
7.883045e-07
7.3849288e-07
6.9504173e-07
6.5606003e-07
6.2109803e-07
5.8949951e-07
5.6081045e-07
5.3463192e-07
5.1064197e-07
4.8857003e-07
4.6818861e-07
4.4930543e-07
4.3175572e-07
4.1539764e-07
4.0010905e-07
3.8578366e-07
3.7232916e-07
3.5966499e-07
3.4771975e-07
3.3643021e-07
3.2574054e-07
3.1560101e-07
3.0596722e-07
2.9679947e-07
2.8806235e-07
2.7972357e-07
2.7175383e-07
2.6412658e-07
2.5681811e-07
2.4980668e-07
2.4307234e-07
2.3659707e-07
2.303645e-07
2.2435927e-07
2.1856724e-07
2.1297552e-07
2.0757216e-07
2.0234617e-07
1.9728729e-07
1.9238602e-07
1.8763386e-07
1.8302266e-07
1.7854464e-07
1.7419272e-07
1.699603e-07
1.6584115e-07
1.6182949e-07
1.5791982e-07
1.5410709e-07
1.5038666e-07
1.4675397e-07
1.4320468e-07
1.3973481e-07
1.3634056e-07
1.3301834e-07
1.2976475e-07
1.2657655e-07
1.2345087e-07
1.203848e-07
1.1737551e-07
1.1442037e-07
1.1151689e-07
1.0866265e-07
1.0585537e-07
1.0309283e-07
1.0037303e-07
9.7693827e-08
9.5053317e-08
9.2449632e-08
8.9880953e-08
8.7345475e-08
8.4841512e-08
8.2367458e-08
7.992123e-08
7.75029e-08
7.5166777e-08
7.2979284e-08
7.0946917e-08
6.9055271e-08
6.7292058e-08
6.5644368e-08
6.4100738e-08
6.2651103e-08
6.1286555e-08
5.9999184e-08
5.8781978e-08
5.762864e-08
5.6533383e-08
5.5490883e-08
5.4496063e-08
5.3544171e-08
5.2629534e-08
5.1748031e-08
5.0888232e-08
5.0055607e-08
4.9190289e-08
4.8442786e-08
4.7357977e-08
0.00013308948
0.00012573779
0.00012312256
0.00012181911
0.00012100211
0.00012043037
0.00012000745
0.00011968397
0.00011943069
0.0001192288
0.00011906557
0.00011893206
0.0001188218
0.00011873002
0.00011865308
0.00011858826
0.00011853326
0.00011848697
0.00011844624
0.00011841802
0.00011836817
0.00011847091
0.00011776974
0.00012126279
1.7846543e-05
2.50921e-06
4.6428446e-06
8.2948162e-07
2.4298176e-06
5.2853753e-07
1.6912098e-06
4.5137901e-07
1.3061076e-06
1.1124308e-06
1.061557e-06
9.5487326e-07
8.9321774e-07
8.2643426e-07
7.7352316e-07
7.2506193e-07
6.8273868e-07
6.4476805e-07
6.1069936e-07
5.7989915e-07
5.5192681e-07
5.2639506e-07
5.029914e-07
4.8145316e-07
4.6155945e-07
4.4312348e-07
4.2598519e-07
4.1000675e-07
3.9506945e-07
3.8106998e-07
3.6791858e-07
3.5553693e-07
3.4385557e-07
3.32813e-07
3.2235492e-07
3.1243293e-07
3.0300384e-07
2.9402902e-07
2.8547397e-07
2.7730726e-07
2.6950036e-07
2.6202736e-07
2.5486522e-07
2.4799276e-07
2.4139053e-07
2.35041e-07
2.2892819e-07
2.2303715e-07
2.1735408e-07
2.1186643e-07
2.0656255e-07
2.0143172e-07
1.9646392e-07
1.9164989e-07
1.8698134e-07
1.8245032e-07
1.7804925e-07
1.737712e-07
1.6960974e-07
1.6555879e-07
1.616127e-07
1.577661e-07
1.5401406e-07
1.5035204e-07
1.467756e-07
1.4328048e-07
1.3986281e-07
1.3651885e-07
1.3324512e-07
1.3003827e-07
1.2689514e-07
1.2381291e-07
1.2078876e-07
1.178199e-07
1.1490376e-07
1.1203788e-07
1.0921992e-07
1.0644761e-07
1.0371879e-07
1.0103149e-07
9.8383595e-08
9.5773241e-08
9.3198594e-08
9.0657867e-08
8.8149282e-08
8.567118e-08
8.3221979e-08
8.0799659e-08
7.8404228e-08
7.6089089e-08
7.3920327e-08
7.1905486e-08
7.0030402e-08
6.82824e-08
6.6648664e-08
6.5117859e-08
6.3680036e-08
6.232639e-08
6.1049106e-08
5.9841251e-08
5.8696605e-08
5.7609447e-08
5.6574518e-08
5.5586805e-08
5.4641614e-08
5.373333e-08
5.2857877e-08
5.2003908e-08
5.1176925e-08
5.0317403e-08
4.9575404e-08
4.8496489e-08
0.00013288308
0.00012540215
0.00012273809
0.000121409
0.00012057551
0.00011999206
0.00011956037
0.00011923013
0.0001189715
0.00011876531
0.00011859856
0.00011846213
0.00011834944
0.00011825559
0.00011817689
0.00011811055
0.00011805422
0.00011800678
0.00011796501
0.000117936
0.00011788498
0.00011798911
0.00011727662
0.00012083198
1.7857402e-05
2.4720015e-06
4.5006235e-06
8.1017898e-07
2.3593359e-06
5.1788385e-07
1.6455316e-06
4.5395054e-07
1.2732095e-06
1.0867846e-06
1.0363411e-06
9.3345715e-07
8.7329298e-07
8.0864798e-07
7.5721278e-07
7.1017729e-07
6.69052e-07
6.3215403e-07
5.9903435e-07
5.6908294e-07
5.4187325e-07
5.1703034e-07
4.9425163e-07
4.732828e-07
4.5390987e-07
4.3595187e-07
4.1925367e-07
4.0368172e-07
3.8912089e-07
3.7547103e-07
3.6264508e-07
3.5056706e-07
3.3916959e-07
3.28393e-07
3.1818457e-07
3.0849733e-07
2.9928938e-07
2.9052319e-07
2.8216527e-07
2.7418508e-07
2.6655489e-07
2.5924949e-07
2.5224654e-07
2.4552544e-07
2.3906732e-07
2.3285511e-07
2.2687328e-07
2.211073e-07
2.1554375e-07
2.1017042e-07
2.0497598e-07
1.9994999e-07
1.9508273e-07
1.9036516e-07
1.8578922e-07
1.8134718e-07
1.7703165e-07
1.7283589e-07
1.6875364e-07
1.6477897e-07
1.6090637e-07
1.5713063e-07
1.5344693e-07
1.4985085e-07
1.4633806e-07
1.4290441e-07
1.3954612e-07
1.3625956e-07
1.3304131e-07
1.2988812e-07
1.267969e-07
1.237649e-07
1.2078936e-07
1.1786756e-07
1.1499698e-07
1.1217523e-07
1.0940002e-07
1.0666911e-07
1.0398041e-07
1.0133196e-07
9.8721688e-08
9.6147784e-08
9.3608448e-08
9.1101926e-08
8.8626474e-08
8.6180463e-08
8.3762339e-08
8.1370147e-08
7.9003839e-08
7.6715893e-08
7.4571917e-08
7.2580224e-08
7.0726763e-08
6.89987e-08
6.7383373e-08
6.5869601e-08
6.4447572e-08
6.3108608e-08
6.1845002e-08
6.0649921e-08
5.9517231e-08
5.8441296e-08
5.741693e-08
5.6439199e-08
5.5503476e-08
5.4604218e-08
5.3737407e-08
5.2891812e-08
5.2072945e-08
5.1221801e-08
5.0487528e-08
4.9417831e-08
0.00013263281
0.00012499432
0.00012227074
0.00012091044
0.00012005685
0.00011945913
0.00011901678
0.0001186783
0.00011841316
0.00011820173
0.00011803069
0.00011789072
0.00011777505
0.00011767868
0.00011759783
0.00011752964
0.0001174717
0.00011742286
0.00011737983
0.00011734985
0.00011729741
0.00011740324
0.00011667701
0.00012030848
1.7876036e-05
2.4332499e-06
4.3504937e-06
7.8969942e-07
2.2841768e-06
5.0619662e-07
1.596427e-06
4.5531249e-07
1.2375906e-06
1.0586868e-06
1.0088732e-06
9.0993469e-07
8.5141385e-07
7.8901441e-07
7.3916195e-07
6.9363953e-07
6.5379251e-07
6.1803805e-07
5.8593134e-07
5.5688671e-07
5.304924e-07
5.0638658e-07
4.8427717e-07
4.6391864e-07
4.4510436e-07
4.2765954e-07
4.1143427e-07
3.9629948e-07
3.8214392e-07
3.6887072e-07
3.5639573e-07
3.4464545e-07
3.3355469e-07
3.2306572e-07
3.1312752e-07
3.0369464e-07
2.9472653e-07
2.8618685e-07
2.7804316e-07
2.702659e-07
2.6282817e-07
2.5570551e-07
2.4887633e-07
2.4232066e-07
2.3602021e-07
2.2995844e-07
2.2412029e-07
2.1849166e-07
2.1305956e-07
2.0781213e-07
2.0273838e-07
1.9782819e-07
1.9307211e-07
1.884614e-07
1.8398821e-07
1.7964504e-07
1.7542472e-07
1.7132072e-07
1.6732694e-07
1.6343762e-07
1.5964743e-07
1.5595128e-07
1.5234451e-07
1.488228e-07
1.4538196e-07
1.4201796e-07
1.3872711e-07
1.3550587e-07
1.3235094e-07
1.2925913e-07
1.2622745e-07
1.2325322e-07
1.2033376e-07
1.1746641e-07
1.1464873e-07
1.1187837e-07
1.0915309e-07
1.0647074e-07
1.0382925e-07
1.012267e-07
9.866108e-08
9.613061e-08
9.3633538e-08
9.116815e-08
8.8732739e-08
8.6325711e-08
8.3945544e-08
8.1590353e-08
7.9260037e-08
7.7006105e-08
7.4893491e-08
7.2931017e-08
7.110473e-08
6.940181e-08
6.7809791e-08
6.6317675e-08
6.4915815e-08
6.3595679e-08
6.2349692e-08
6.1171135e-08
6.0053979e-08
5.8992686e-08
5.7982157e-08
5.7017551e-08
5.6094321e-08
5.5207011e-08
5.4351674e-08
5.3517226e-08
5.2709173e-08
5.1869221e-08
5.1145091e-08
5.0088239e-08
0.00013233392
0.00012450607
0.00012171097
0.00012031316
0.00011943544
0.00011882059
0.00011836544
0.00011801707
0.00011774411
0.00011752639
0.00011735021
0.00011720597
0.00011708673
0.00011698735
0.00011690392
0.0001168335
0.00011677363
0.00011672311
0.00011667856
0.00011664742
0.00011659328
0.00011670113
0.00011595851
0.00011968167
1.790427e-05
2.3928684e-06
4.1915989e-06
7.6791565e-07
2.2038032e-06
4.9333923e-07
1.5434947e-06
4.5519323e-07
1.1989303e-06
1.027858e-06
9.7888578e-07
8.8406093e-07
8.2734884e-07
7.6731698e-07
7.1916567e-07
6.7525452e-07
6.3677547e-07
6.0224387e-07
5.7122176e-07
5.4314876e-07
5.1762885e-07
4.9431412e-07
4.729236e-07
4.5322114e-07
4.3500789e-07
4.181156e-07
4.0239995e-07
3.8773665e-07
3.7401851e-07
3.6115223e-07
3.4905669e-07
3.3766105e-07
3.2690247e-07
3.1672528e-07
3.0708029e-07
2.9792363e-07
2.8921622e-07
2.8092298e-07
2.7301259e-07
2.6545652e-07
2.582288e-07
2.5130576e-07
2.4466657e-07
2.3829198e-07
2.3216431e-07
2.2626756e-07
2.205872e-07
2.151096e-07
2.0982219e-07
2.0471352e-07
1.9977295e-07
1.9499071e-07
1.9035766e-07
1.8586533e-07
1.8150613e-07
1.7727281e-07
1.7315843e-07
1.6915667e-07
1.6526162e-07
1.6146772e-07
1.5776979e-07
1.5416291e-07
1.5064255e-07
1.4720456e-07
1.4384484e-07
1.4055952e-07
1.3734499e-07
1.3419785e-07
1.3111487e-07
1.2809298e-07
1.2512927e-07
1.2222115e-07
1.19366e-07
1.1656126e-07
1.1380454e-07
1.1109356e-07
1.0842616e-07
1.0580022e-07
1.0321375e-07
1.0066487e-07
9.8151608e-08
9.5672245e-08
9.3225077e-08
9.0808431e-08
8.8420644e-08
8.6060162e-08
8.3725499e-08
8.1414842e-08
7.912805e-08
7.691557e-08
7.4841433e-08
7.2914746e-08
7.1121698e-08
6.9449609e-08
6.788625e-08
6.6420842e-08
6.5043927e-08
6.3747146e-08
6.2523076e-08
6.1365132e-08
6.026741e-08
5.9224483e-08
5.8231358e-08
5.7283297e-08
5.6375851e-08
5.5503666e-08
5.4662878e-08
5.3842593e-08
5.3048282e-08
5.2222578e-08
5.151121e-08
5.0471139e-08
0.00013198124
0.00012392824
0.00012104812
0.00011960576
0.00011869939
0.00011806419
0.00011759383
0.00011723372
0.00011695149
0.0001167263
0.00011654402
0.00011639473
0.00011627125
0.00011616828
0.00011608179
0.00011600873
0.00011594657
0.00011589405
0.00011584771
0.00011581519
0.00011575904
0.00011586927
0.0001151073
0.00011893979
1.7944361e-05
2.3508417e-06
4.0232683e-06
7.447193e-07
2.117756e-06
4.7918346e-07
1.4863788e-06
4.5330433e-07
1.156938e-06
9.9404071e-07
9.4613264e-07
8.5560845e-07
8.0088253e-07
7.4335306e-07
6.9703144e-07
6.5483928e-07
6.178262e-07
5.8460431e-07
5.5474518e-07
5.2771485e-07
5.0313397e-07
4.8066944e-07
4.6005215e-07
4.4105589e-07
4.234901e-07
4.0719347e-07
3.9202766e-07
3.7787343e-07
3.6462795e-07
3.5220171e-07
3.4051684e-07
3.2950533e-07
3.1910684e-07
3.0926791e-07
2.9994126e-07
2.9108478e-07
2.8266091e-07
2.7463593e-07
2.6697972e-07
2.5966486e-07
2.5266634e-07
2.4596137e-07
2.3952996e-07
2.3335357e-07
2.2741519e-07
2.2169943e-07
2.1619229e-07
2.1088067e-07
2.0575245e-07
2.007966e-07
1.9600289e-07
1.9136188e-07
1.8686478e-07
1.8250343e-07
1.7827051e-07
1.7415904e-07
1.7016232e-07
1.6627425e-07
1.6248915e-07
1.5880164e-07
1.5520673e-07
1.5169968e-07
1.4827611e-07
1.44932e-07
1.4166343e-07
1.3846663e-07
1.3533814e-07
1.3227465e-07
1.2927306e-07
1.2633039e-07
1.2344384e-07
1.2061089e-07
1.1782903e-07
1.1509577e-07
1.124088e-07
1.0976592e-07
1.0716502e-07
1.0460407e-07
1.0208112e-07
9.9594362e-08
9.7141848e-08
9.472194e-08
9.2332983e-08
8.9973351e-08
8.7641431e-08
8.5335712e-08
8.3054753e-08
8.0796815e-08
7.8561723e-08
7.6398745e-08
7.4370738e-08
7.2486915e-08
7.0733683e-08
6.9098593e-08
6.75697e-08
6.6136472e-08
6.4789675e-08
6.3521149e-08
6.2323647e-08
6.1190742e-08
6.0116671e-08
5.9096138e-08
5.8124271e-08
5.7196453e-08
5.6308345e-08
5.5454717e-08
5.4631798e-08
5.3828926e-08
5.3051517e-08
5.2243355e-08
5.1547568e-08
5.0528526e-08
0.00013156919
0.00012325085
0.00012027057
0.00011877574
0.00011783564
0.00011717651
0.00011668826
0.00011631435
0.00011602121
0.00011578723
0.00011559777
0.00011544253
0.00011531408
0.0001152069
0.0001151168
0.00011504064
0.00011497578
0.00011492092
0.00011487246
0.00011483832
0.00011477981
0.00011489283
0.00011410822
0.00011806996
1.7999045e-05
2.3072419e-06
3.8450573e-06
7.2002538e-07
2.0256761e-06
4.6361447e-07
1.4247843e-06
4.4934934e-07
1.1113652e-06
9.5701015e-07
9.103992e-07
8.2437672e-07
7.7182424e-07
7.1694213e-07
6.7258701e-07
6.3222933e-07
5.9678704e-07
5.6496798e-07
5.3635587e-07
5.1044437e-07
4.8687187e-07
4.6532104e-07
4.4553533e-07
4.2729911e-07
4.1043065e-07
3.9477606e-07
3.8020329e-07
3.6659855e-07
3.5386365e-07
3.4191307e-07
3.3067245e-07
3.2007679e-07
3.1006842e-07
3.0059623e-07
2.9161501e-07
2.8308447e-07
2.7496872e-07
2.6723548e-07
2.5985594e-07
2.5280382e-07
2.4605519e-07
2.3958816e-07
2.3338364e-07
2.2742389e-07
2.2169259e-07
2.1617501e-07
2.1085773e-07
2.0572818e-07
2.0077475e-07
1.9598686e-07
1.9135471e-07
1.8686924e-07
1.8252201e-07
1.7830521e-07
1.7421179e-07
1.7023507e-07
1.6636862e-07
1.6260659e-07
1.5894349e-07
1.553742e-07
1.518939e-07
1.4849804e-07
1.4518241e-07
1.4194316e-07
1.3877652e-07
1.3567884e-07
1.3264682e-07
1.2967728e-07
1.2676722e-07
1.2391379e-07
1.2111427e-07
1.1836627e-07
1.1566736e-07
1.1301513e-07
1.1040737e-07
1.0784195e-07
1.0531685e-07
1.0283009e-07
1.003798e-07
9.7964239e-08
9.5581502e-08
9.3230024e-08
9.0908208e-08
8.8614483e-08
8.6347289e-08
8.4105166e-08
8.1886723e-08
7.9690298e-08
7.7515692e-08
7.541084e-08
7.3437132e-08
7.1603746e-08
6.989739e-08
6.8305922e-08
6.6817721e-08
6.5422544e-08
6.4111413e-08
6.2876397e-08
6.171045e-08
6.0607325e-08
5.9561423e-08
5.8567599e-08
5.7621116e-08
5.6717499e-08
5.5852533e-08
5.5021131e-08
5.4219633e-08
5.3437651e-08
5.2680518e-08
5.1893417e-08
5.1216216e-08
5.0222747e-08
0.00013109189
0.00012246313
0.00011936572
0.00011780958
0.00011683009
0.00011614301
0.00011563388
0.00011524385
0.00011493798
0.00011469375
0.00011449591
0.00011433374
0.00011419948
0.00011408738
0.00011399308
0.00011391331
0.00011384529
0.0001137877
0.00011373678
0.00011370075
0.00011363949
0.00011375574
0.00011294487
0.0001170583
1.8071584e-05
2.2622485e-06
3.656796e-06
6.9377759e-07
1.9273319e-06
4.4653682e-07
1.3584966e-06
4.4303568e-07
1.0620204e-06
9.1658784e-07
8.7151459e-07
7.9020348e-07
7.4001861e-07
6.8793579e-07
6.4568983e-07
6.0728769e-07
5.7352597e-07
5.4320742e-07
5.1593058e-07
4.9121795e-07
4.6872677e-07
4.4815642e-07
4.2926373e-07
4.1184427e-07
3.957257e-07
3.8076201e-07
3.6682788e-07
3.5381527e-07
3.4163094e-07
3.3019366e-07
3.1943275e-07
3.0928645e-07
2.9969992e-07
2.9062457e-07
2.8201739e-07
2.7384005e-07
2.6605842e-07
2.5864177e-07
2.5156265e-07
2.4479606e-07
2.3831919e-07
2.3211115e-07
2.2615377e-07
2.2043016e-07
2.1492479e-07
2.0962358e-07
2.0451375e-07
1.9958332e-07
1.9482121e-07
1.9021732e-07
1.8576231e-07
1.8144753e-07
1.7726494e-07
1.7320705e-07
1.6926717e-07
1.6543888e-07
1.6171607e-07
1.5809314e-07
1.5456486e-07
1.5112631e-07
1.477729e-07
1.4450028e-07
1.4130444e-07
1.3818167e-07
1.3512837e-07
1.3214108e-07
1.2921661e-07
1.2635192e-07
1.2354416e-07
1.2079058e-07
1.1808859e-07
1.1543589e-07
1.1283017e-07
1.1026911e-07
1.0775059e-07
1.0527258e-07
1.0283312e-07
1.0043033e-07
9.8062406e-08
9.5727675e-08
9.342429e-08
9.1150767e-08
8.8905568e-08
8.6687186e-08
8.4494121e-08
8.2324968e-08
8.0178391e-08
7.8052815e-08
7.5948018e-08
7.3910425e-08
7.199965e-08
7.0224721e-08
6.857273e-08
6.7031907e-08
6.5591001e-08
6.4240099e-08
6.2970515e-08
6.1774575e-08
6.0645466e-08
5.9577145e-08
5.8564197e-08
5.7601648e-08
5.6684919e-08
5.580969e-08
5.4971889e-08
5.4166596e-08
5.3390273e-08
5.2632857e-08
5.1899565e-08
5.1137244e-08
5.0481799e-08
4.9518711e-08
0.00013054326
0.00012155364
0.00011832014
0.00011669284
0.00011566763
0.00011494815
0.00011441481
0.0001140061
0.00011368547
0.00011342937
0.00011322182
0.00011305162
0.00011291062
0.00011279282
0.00011269366
0.00011260969
0.00011253802
0.00011247727
0.0001124235
0.00011238528
0.00011232084
0.00011244082
0.00011159971
0.00011588999
1.8165805e-05
2.2161737e-06
3.4586429e-06
6.6595447e-07
1.8226507e-06
4.2788165e-07
1.2874042e-06
4.3408967e-07
1.0087871e-06
8.7265703e-07
8.2936622e-07
7.5297822e-07
7.0535818e-07
6.5622958e-07
6.1623816e-07
5.7991543e-07
5.4794666e-07
5.192288e-07
4.9337785e-07
4.6994635e-07
4.4861151e-07
4.2909043e-07
4.1115405e-07
3.9460986e-07
3.7929544e-07
3.6507312e-07
3.5182473e-07
3.3944835e-07
3.2785597e-07
3.1697091e-07
3.0672643e-07
2.970642e-07
2.8793239e-07
2.7928508e-07
2.7108161e-07
2.6328575e-07
2.5586521e-07
2.4879092e-07
2.4203693e-07
2.3557953e-07
2.2939714e-07
2.2346993e-07
2.1778074e-07
2.1231357e-07
2.070537e-07
2.0198779e-07
1.9710373e-07
1.9239015e-07
1.8783656e-07
1.8343338e-07
1.7917173e-07
1.7504343e-07
1.7104083e-07
1.6715684e-07
1.6338509e-07
1.597195e-07
1.5615427e-07
1.5268406e-07
1.4930393e-07
1.4600919e-07
1.4279549e-07
1.3965869e-07
1.3659496e-07
1.3360081e-07
1.3067279e-07
1.2780762e-07
1.2500226e-07
1.2225382e-07
1.1955959e-07
1.1691695e-07
1.1432344e-07
1.1177687e-07
1.0927504e-07
1.0681574e-07
1.0439695e-07
1.0201672e-07
9.9673201e-08
9.7364593e-08
9.5089178e-08
9.2845348e-08
9.0631329e-08
8.8445717e-08
8.6287047e-08
8.4153877e-08
8.2044773e-08
7.9958397e-08
7.7893469e-08
7.5848506e-08
7.3823274e-08
7.1862484e-08
7.002365e-08
6.831556e-08
6.6725768e-08
6.5242934e-08
6.3856227e-08
6.2556107e-08
6.1334215e-08
6.018317e-08
5.9096419e-08
5.8068148e-08
5.7093152e-08
5.6166649e-08
5.5284235e-08
5.4441767e-08
5.3635332e-08
5.2860199e-08
5.2112967e-08
5.1383949e-08
5.0678216e-08
4.9944551e-08
4.9314159e-08
4.8386472e-08
0.00012991712
0.0001205104
0.00011711969
0.00011541025
0.00011433235
0.00011357551
0.00011301428
0.00011258405
0.00011224642
0.00011197664
0.00011175792
0.00011157846
0.00011142972
0.00011130536
0.00011120059
0.0001111118
0.00011103593
0.00011097154
0.00011091448
0.00011087374
0.00011080566
0.0001109299
0.00011005421
0.00011454939
1.8286118e-05
2.1694944e-06
3.2511425e-06
6.3657622e-07
1.7117537e-06
4.0761472e-07
1.2115241e-06
4.2227442e-07
9.5164345e-07
8.2518055e-07
7.839163e-07
7.1265748e-07
6.6779765e-07
6.2177643e-07
5.8418382e-07
5.5006378e-07
5.1999998e-07
4.9298291e-07
4.6864852e-07
4.465806e-07
4.264774e-07
4.0807469e-07
3.9115832e-07
3.755483e-07
3.610927e-07
3.4766267e-07
3.3514758e-07
3.2345198e-07
3.1249339e-07
3.0219994e-07
2.9250908e-07
2.8336607e-07
2.7472231e-07
2.6653469e-07
2.5876505e-07
2.5137935e-07
2.4434731e-07
2.376416e-07
2.3123781e-07
2.2511368e-07
2.1924889e-07
2.1362476e-07
2.0822519e-07
2.0303513e-07
1.9804071e-07
1.9322939e-07
1.8858977e-07
1.8411114e-07
1.7978362e-07
1.7559818e-07
1.7154646e-07
1.6762075e-07
1.6381383e-07
1.6011904e-07
1.5653035e-07
1.5304204e-07
1.4964863e-07
1.4634509e-07
1.4312675e-07
1.399892e-07
1.3692832e-07
1.3394021e-07
1.3102124e-07
1.2816812e-07
1.253776e-07
1.2264658e-07
1.1997218e-07
1.1735167e-07
1.1478249e-07
1.1226217e-07
1.0978837e-07
1.0735903e-07
1.0497207e-07
1.0262539e-07
1.0031709e-07
9.8045316e-08
9.5808313e-08
9.3604379e-08
9.1431886e-08
8.9289306e-08
8.7174943e-08
8.5087478e-08
8.3025524e-08
8.0987713e-08
7.8972685e-08
7.6979169e-08
7.5005956e-08
7.3051654e-08
7.1116026e-08
6.9241847e-08
6.7484209e-08
6.5851578e-08
6.4332045e-08
6.2914755e-08
6.158935e-08
6.0346703e-08
5.9178822e-08
5.8078654e-08
5.7039935e-08
5.6057108e-08
5.5125201e-08
5.4239644e-08
5.3396234e-08
5.2591017e-08
5.1820262e-08
5.1079447e-08
5.0365329e-08
4.9668643e-08
4.8994282e-08
4.829325e-08
4.7691287e-08
4.6804157e-08
0.00012920737
0.00011932104
0.00011574967
0.00011394597
0.00011280763
0.00011200798
0.0001114148
0.00011095993
0.00011060284
0.0001103174
0.00011008589
0.00010989584
0.00010973823
0.00010960637
0.00010949519
0.00010940088
0.0001093202
0.00010925164
0.00010919083
0.00010914721
0.00010907497
0.00010920405
0.00010828909
0.00011302024
1.8437501e-05
2.1228916e-06
3.0352819e-06
6.0571204e-07
1.594993e-06
3.8574527e-07
1.1310306e-06
4.0741032e-07
8.9068499e-07
7.7422032e-07
7.3522011e-07
6.6928178e-07
6.2736976e-07
5.8460156e-07
5.495463e-07
5.1774748e-07
4.8969678e-07
4.6447736e-07
4.4174749e-07
4.2112326e-07
4.0232503e-07
3.8510809e-07
3.6927394e-07
3.5465573e-07
3.411125e-07
3.2852472e-07
3.1678963e-07
3.0581859e-07
2.9553496e-07