/*--------------------------------*- C++ -*----------------------------------*\
| =========                 |                                                 |
| \\      /  F ield         | OpenFOAM: The Open Source CFD Toolbox           |
|  \\    /   O peration     | Version:  2206                                  |
|   \\  /    A nd           | Website:  www.openfoam.com                      |
|    \\/     M anipulation  |                                                 |
\*---------------------------------------------------------------------------*/
FoamFile
{
    version     2.0;
    format      ascii;
    arch        "LSB;label=32;scalar=64";
    class       volScalarField;
    location    "1100";
    object      nut;
}
// * * * * * * * * * * * * * * * * * * * * * * * * * * * * * * * * * * * * * //

dimensions      [0 2 -1 0 0 0 0];

internalField   nonuniform List<scalar> 
13056
(
6.5741115e-09
5.9523259e-09
5.7504147e-09
5.6514788e-09
5.5895653e-09
5.5463822e-09
5.514555e-09
5.4902752e-09
5.4712899e-09
5.4561552e-09
5.4438952e-09
5.4338225e-09
5.4254345e-09
5.41835e-09
5.4122624e-09
5.4069177e-09
5.4020435e-09
5.3974408e-09
5.3924222e-09
5.3874192e-09
5.3766147e-09
5.3735687e-09
5.2978961e-09
4.3164933e-09
3.1770764e-11
1.2369296e-11
1.744794e-11
7.2413829e-12
1.2548674e-11
5.7141165e-12
1.0405127e-11
4.8832542e-12
9.0944863e-12
8.3338541e-12
8.1644413e-12
7.7085083e-12
7.4549523e-12
7.1518552e-12
6.9100783e-12
6.6778562e-12
6.4699795e-12
6.2775315e-12
6.1001276e-12
5.9354677e-12
5.7821192e-12
5.6387504e-12
5.5042698e-12
5.377736e-12
5.2583423e-12
5.1453945e-12
5.0382844e-12
4.9364776e-12
4.8395063e-12
4.7469555e-12
4.6584596e-12
4.5736954e-12
4.4923702e-12
4.4142204e-12
4.3390105e-12
4.2665271e-12
4.1965763e-12
4.1289837e-12
4.0635917e-12
4.0002538e-12
3.9388351e-12
3.8792126e-12
3.8212737e-12
3.764914e-12
3.7100365e-12
3.6565532e-12
3.6043835e-12
3.5534494e-12
3.5036784e-12
3.4550037e-12
3.4073625e-12
3.3606964e-12
3.3149495e-12
3.2700699e-12
3.2260115e-12
3.1827282e-12
3.1401748e-12
3.0983103e-12
3.0570955e-12
3.016493e-12
2.9764673e-12
2.9369838e-12
2.8980108e-12
2.8595189e-12
2.8214773e-12
2.7838565e-12
2.746629e-12
2.7097675e-12
2.6732462e-12
2.637039e-12
2.6011211e-12
2.5654701e-12
2.530062e-12
2.4948722e-12
2.459878e-12
2.4250563e-12
2.3903842e-12
2.3558386e-12
2.3213968e-12
2.287037e-12
2.2527355e-12
2.2184682e-12
2.1842114e-12
2.1499402e-12
2.1156287e-12
2.0812509e-12
2.0467803e-12
2.0121789e-12
1.9774471e-12
1.9434369e-12
1.9111893e-12
1.8807981e-12
1.8520243e-12
1.824714e-12
1.7988486e-12
1.7743036e-12
1.7509672e-12
1.7287385e-12
1.7075258e-12
1.6872466e-12
1.6678251e-12
1.6491894e-12
1.6312715e-12
1.6140035e-12
1.59732e-12
1.5811362e-12
1.5653915e-12
1.549891e-12
1.5347362e-12
1.5188352e-12
1.5049162e-12
1.4847122e-12
6.5740252e-09
5.9514973e-09
5.7493367e-09
5.6502734e-09
5.5882788e-09
5.5450386e-09
5.5131692e-09
5.4888571e-09
5.4698467e-09
5.4546923e-09
5.4424169e-09
5.4323321e-09
5.423935e-09
5.4168442e-09
5.4107533e-09
5.4054084e-09
5.4005385e-09
5.3959458e-09
5.3909486e-09
5.3859786e-09
5.3752599e-09
5.372324e-09
5.2971894e-09
4.3158725e-09
3.2328203e-11
1.2183656e-11
1.6974927e-11
7.0235604e-12
1.2200449e-11
5.4647575e-12
1.0116212e-11
4.5290738e-12
8.8397131e-12
8.1010962e-12
7.9295415e-12
7.4848001e-12
7.2334836e-12
6.9357921e-12
6.6966779e-12
6.4671731e-12
6.2610953e-12
6.0700081e-12
5.8934825e-12
5.7292999e-12
5.5760786e-12
5.4325266e-12
5.2975871e-12
5.1703481e-12
5.0500273e-12
4.9359516e-12
4.827531e-12
4.7242466e-12
4.6256439e-12
4.5313198e-12
4.4409187e-12
4.3541264e-12
4.270658e-12
4.1902566e-12
4.1126925e-12
4.0377577e-12
3.9652626e-12
3.8950366e-12
3.8269261e-12
3.7607874e-12
3.6964883e-12
3.6339084e-12
3.5729369e-12
3.5134709e-12
3.4554148e-12
3.3986818e-12
3.3431922e-12
3.2888687e-12
3.2356391e-12
3.1834371e-12
3.1322e-12
3.0818692e-12
3.0323887e-12
2.9837061e-12
2.9357751e-12
2.888549e-12
2.8419817e-12
2.7960312e-12
2.7506575e-12
2.705822e-12
2.6614876e-12
2.6176187e-12
2.574182e-12
2.5311465e-12
2.4884799e-12
2.4461504e-12
2.4041287e-12
2.3623855e-12
2.3208926e-12
2.2796217e-12
2.2385453e-12
2.1976387e-12
2.1568752e-12
2.1162273e-12
2.0756696e-12
2.0351757e-12
1.99472e-12
1.9542761e-12
1.9138178e-12
1.8733207e-12
1.8327582e-12
1.7921022e-12
1.7513257e-12
1.7104005e-12
1.6692972e-12
1.6279867e-12
1.5864397e-12
1.5446123e-12
1.5025112e-12
1.4611511e-12
1.4217962e-12
1.3845808e-12
1.3492481e-12
1.3157348e-12
1.283949e-12
1.2537515e-12
1.2250162e-12
1.1976278e-12
1.171481e-12
1.1464805e-12
1.1225377e-12
1.0995682e-12
1.0774918e-12
1.0562269e-12
1.0356953e-12
1.015795e-12
9.9645259e-13
9.7743217e-13
9.5885494e-13
9.3939862e-13
9.2237356e-13
8.9777502e-13
6.5737078e-09
5.9489093e-09
5.7459903e-09
5.6465403e-09
5.5842987e-09
5.5408845e-09
5.5088861e-09
5.4844752e-09
5.4653874e-09
5.4501714e-09
5.4378463e-09
5.4277215e-09
5.4192921e-09
5.4121757e-09
5.4060653e-09
5.4007072e-09
5.3958311e-09
5.3912406e-09
5.3862606e-09
5.3813244e-09
5.3707022e-09
5.3679107e-09
5.2933901e-09
4.3137886e-09
3.2914824e-11
1.1998175e-11
1.6504238e-11
6.8072664e-12
1.1852614e-11
5.224045e-12
9.8271571e-12
4.236449e-12
8.5848027e-12
7.8680586e-12
7.6948983e-12
7.2614558e-12
7.0127753e-12
6.7207728e-12
6.4847125e-12
6.2583213e-12
6.0544864e-12
5.8652354e-12
5.6900987e-12
5.526939e-12
5.3744248e-12
5.231304e-12
5.0965549e-12
4.9692948e-12
4.8487664e-12
4.7343182e-12
4.6253786e-12
4.5214449e-12
4.4220768e-12
4.3268833e-12
4.2355198e-12
4.1476818e-12
4.0630929e-12
3.981504e-12
3.9026922e-12
3.8264558e-12
3.7526105e-12
3.6809909e-12
3.6114483e-12
3.5438431e-12
3.4780472e-12
3.4139441e-12
3.351426e-12
3.2903935e-12
3.2307537e-12
3.1724227e-12
3.1153236e-12
3.0593817e-12
3.0045271e-12
2.950696e-12
2.8978279e-12
2.8458666e-12
2.7947582e-12
2.7444525e-12
2.6949055e-12
2.6460729e-12
2.5979105e-12
2.5503789e-12
2.5034401e-12
2.4570579e-12
2.411198e-12
2.3658269e-12
2.320914e-12
2.2764314e-12
2.2323494e-12
2.1886394e-12
2.1452751e-12
2.1022306e-12
2.0594814e-12
2.017003e-12
1.9747718e-12
1.9327675e-12
1.8909682e-12
1.8493512e-12
1.8078963e-12
1.7665833e-12
1.7253923e-12
1.6843037e-12
1.6432988e-12
1.6023606e-12
1.5614711e-12
1.5206114e-12
1.4797642e-12
1.4389122e-12
1.3980375e-12
1.3571238e-12
1.3161557e-12
1.2751049e-12
1.2339932e-12
1.1937986e-12
1.155729e-12
1.1199101e-12
1.0861165e-12
1.054269e-12
1.0242278e-12
9.9584175e-13
9.6897444e-13
9.4350152e-13
9.1931012e-13
8.9629804e-13
8.7437128e-13
8.5344112e-13
8.3342403e-13
8.1423696e-13
7.9580098e-13
7.7801742e-13
7.6081474e-13
7.4397915e-13
7.2761436e-13
7.1056124e-13
6.9571799e-13
6.7436362e-13
6.5731552e-09
5.9444814e-09
5.7402703e-09
5.6401612e-09
5.5774988e-09
5.5337881e-09
5.5015697e-09
5.4769901e-09
5.4577699e-09
5.4424481e-09
5.4300375e-09
5.4198428e-09
5.4113563e-09
5.4041933e-09
5.3980457e-09
5.3926589e-09
5.3877635e-09
5.3831641e-09
5.3781916e-09
5.3732823e-09
5.3627496e-09
5.3601166e-09
5.2861765e-09
4.3100766e-09
3.3542433e-11
1.1811317e-11
1.603035e-11
6.5909464e-12
1.1501156e-11
4.9902967e-12
9.5347567e-12
3.9899465e-12
8.3270767e-12
7.6323978e-12
7.4581855e-12
7.0363266e-12
6.790751e-12
6.5048187e-12
6.272269e-12
6.0494448e-12
5.8483383e-12
5.6614276e-12
5.4882066e-12
5.3266195e-12
5.1753837e-12
5.0332879e-12
4.8993451e-12
4.7727022e-12
4.652627e-12
4.5384894e-12
4.4297365e-12
4.3258817e-12
4.2264989e-12
4.1312096e-12
4.0396801e-12
3.9516156e-12
3.8667484e-12
3.7848372e-12
3.7056661e-12
3.6290397e-12
3.5547793e-12
3.482725e-12
3.4127325e-12
3.344667e-12
3.2784042e-12
3.2138315e-12
3.1508448e-12
3.0893478e-12
3.0292507e-12
2.9704728e-12
2.9129397e-12
2.8565796e-12
2.8013251e-12
2.7471149e-12
2.6938909e-12
2.6415993e-12
2.5901886e-12
2.5396107e-12
2.4898241e-12
2.4407866e-12
2.3924564e-12
2.3447962e-12
2.2977706e-12
2.2513454e-12
2.2054888e-12
2.1601697e-12
2.11536e-12
2.0710342e-12
2.0271654e-12
1.9837274e-12
1.940697e-12
1.898051e-12
1.8557678e-12
1.8138261e-12
1.7722056e-12
1.7308892e-12
1.6898585e-12
1.6490945e-12
1.608581e-12
1.5683015e-12
1.5282406e-12
1.488383e-12
1.4487146e-12
1.4092232e-12
1.3698958e-12
1.330719e-12
1.2916811e-12
1.2527706e-12
1.2139761e-12
1.1752877e-12
1.1366967e-12
1.0981833e-12
1.0597736e-12
1.0223649e-12
9.8706266e-13
9.5398533e-13
9.2293587e-13
8.938055e-13
8.6643525e-13
8.4067138e-13
8.1637571e-13
7.9342312e-13
7.7170056e-13
7.5110617e-13
7.315468e-13
7.1293533e-13
6.9519036e-13
6.7823208e-13
6.6198523e-13
6.4635819e-13
6.3128405e-13
6.1657255e-13
6.0231218e-13
5.8749436e-13
5.7463976e-13
5.561722e-13
6.572362e-09
5.9380886e-09
5.7320124e-09
5.6309523e-09
5.5676828e-09
5.5235443e-09
5.4910084e-09
5.4661854e-09
5.4467738e-09
5.4312991e-09
5.4187643e-09
5.408468e-09
5.3998978e-09
5.3926658e-09
5.3864618e-09
5.3810302e-09
5.3761013e-09
5.371481e-09
5.3665059e-09
5.3616164e-09
5.351166e-09
5.3487069e-09
5.2753145e-09
4.3046168e-09
3.4223398e-11
1.1621733e-11
1.5548279e-11
6.3732324e-12
1.1142402e-11
4.762013e-12
9.2360573e-12
3.7782986e-12
8.0640639e-12
7.3919407e-12
7.2172594e-12
6.8074284e-12
6.5654988e-12
6.2861091e-12
6.0575899e-12
5.8388413e-12
5.6409902e-12
5.4569545e-12
5.2861952e-12
5.1267387e-12
4.9773508e-12
4.8368612e-12
4.7043181e-12
4.5788975e-12
4.4598925e-12
4.3466944e-12
4.2387688e-12
4.1356453e-12
4.0369117e-12
3.9422017e-12
3.8511925e-12
3.7635988e-12
3.6791615e-12
3.5976466e-12
3.5188453e-12
3.4425679e-12
3.3686415e-12
3.2969109e-12
3.2272365e-12
3.1594875e-12
3.0935436e-12
3.0292953e-12
2.966642e-12
2.9054902e-12
2.8457533e-12
2.7873526e-12
2.7302166e-12
2.6742755e-12
2.6194644e-12
2.5657237e-12
2.5129976e-12
2.4612341e-12
2.4103835e-12
2.3603997e-12
2.3112426e-12
2.2628719e-12
2.2152475e-12
2.1683337e-12
2.1220967e-12
2.0765041e-12
2.0315255e-12
1.9871317e-12
1.943296e-12
1.8999945e-12
1.8572021e-12
1.8148943e-12
1.7730494e-12
1.7316462e-12
1.6906648e-12
1.6500856e-12
1.6098903e-12
1.5700633e-12
1.5305885e-12
1.4914488e-12
1.4526299e-12
1.4141175e-12
1.3758983e-12
1.3379591e-12
1.300288e-12
1.262875e-12
1.2257094e-12
1.1887803e-12
1.1520784e-12
1.1155948e-12
1.0793206e-12
1.0432485e-12
1.0073725e-12
9.7167671e-13
9.3618626e-13
9.0171524e-13
8.6926949e-13
8.3896446e-13
8.1062152e-13
7.8411025e-13
7.5926781e-13
7.3594343e-13
7.140022e-13
6.9332259e-13
6.7379522e-13
6.5532191e-13
6.3781334e-13
6.2118643e-13
6.0536402e-13
5.9027115e-13
5.7583748e-13
5.6197874e-13
5.4863318e-13
5.3563047e-13
5.2304775e-13
5.0999534e-13
4.9869791e-13
4.8246773e-13
6.5713231e-09
5.9295626e-09
5.7209957e-09
5.6186661e-09
5.5545863e-09
5.509877e-09
5.4769174e-09
5.4517693e-09
5.4321023e-09
5.4164231e-09
5.4037224e-09
5.3932899e-09
5.384607e-09
5.3772816e-09
5.3710004e-09
5.3655061e-09
5.3605286e-09
5.3558744e-09
5.3508857e-09
5.3460083e-09
5.3356326e-09
5.3333641e-09
5.260485e-09
4.2972462e-09
3.4972065e-11
1.1428285e-11
1.5053565e-11
6.1529574e-12
1.0773014e-11
4.5378845e-12
8.9283597e-12
3.5930111e-12
7.7935032e-12
7.1446908e-12
6.9701627e-12
6.5729469e-12
6.3352768e-12
6.0629862e-12
5.8390788e-12
5.6249674e-12
5.4309399e-12
5.2503449e-12
5.0826146e-12
4.9258585e-12
4.7788906e-12
4.6405824e-12
4.5100169e-12
4.3864002e-12
4.2690504e-12
4.1573799e-12
4.0508731e-12
3.9490755e-12
3.8515887e-12
3.7580586e-12
3.6681729e-12
3.5816556e-12
3.4982558e-12
3.4177469e-12
3.3399263e-12
3.2646105e-12
3.1916314e-12
3.1208387e-12
3.0520968e-12
2.9852788e-12
2.9202677e-12
2.8569571e-12
2.7952492e-12
2.7350534e-12
2.6762852e-12
2.6188683e-12
2.5627331e-12
2.5078116e-12
2.4540408e-12
2.4013628e-12
2.3497232e-12
2.2990714e-12
2.2493593e-12
2.200542e-12
2.1525805e-12
2.1054358e-12
2.0590688e-12
2.0134451e-12
1.9685318e-12
1.9242977e-12
1.8807133e-12
1.8377503e-12
1.7953831e-12
1.7535888e-12
1.7123429e-12
1.6716221e-12
1.6314057e-12
1.5916732e-12
1.5524056e-12
1.5135844e-12
1.4751922e-12
1.4372142e-12
1.3996351e-12
1.3624389e-12
1.3256122e-12
1.2891415e-12
1.2530143e-12
1.2172186e-12
1.1817432e-12
1.146579e-12
1.1117159e-12
1.0771441e-12
1.0428552e-12
1.008841e-12
9.7509355e-13
9.4160638e-13
9.0837411e-13
8.7538271e-13
8.4265477e-13
8.1092863e-13
7.8112235e-13
7.5334975e-13
7.2744308e-13
7.0326063e-13
6.8064278e-13
6.5944457e-13
6.3953676e-13
6.2080335e-13
6.0314034e-13
5.8645458e-13
5.7066169e-13
5.5568351e-13
5.4144771e-13
5.2788452e-13
5.1492868e-13
5.0250276e-13
4.9054993e-13
4.7891644e-13
4.6767085e-13
4.5601782e-13
4.4594847e-13
4.3147241e-13
6.5700355e-09
5.9186942e-09
5.7069441e-09
5.6029933e-09
5.5378789e-09
5.4924409e-09
5.4589406e-09
5.4333777e-09
5.4133846e-09
5.3974442e-09
5.3845313e-09
5.3739244e-09
5.365097e-09
5.3576513e-09
5.3512701e-09
5.3456935e-09
5.3406505e-09
5.3359482e-09
5.3309337e-09
5.32606e-09
5.3157504e-09
5.3136908e-09
5.2412874e-09
4.28776e-09
3.5805235e-11
1.1230074e-11
1.4542285e-11
5.9291666e-12
1.0390002e-11
4.3167878e-12
8.6092312e-12
3.4274645e-12
7.5133549e-12
6.8888401e-12
6.7151349e-12
6.3312479e-12
6.0985212e-12
5.8339635e-12
5.6153074e-12
5.4064449e-12
5.2168484e-12
5.04029e-12
4.8761776e-12
4.722705e-12
4.5787342e-12
4.44318e-12
4.3151606e-12
4.1939121e-12
4.0787779e-12
3.9691923e-12
3.8646577e-12
3.764736e-12
3.6690426e-12
3.5772352e-12
3.4890123e-12
3.4041066e-12
3.3222755e-12
3.2432996e-12
3.1669824e-12
3.093146e-12
3.0216275e-12
2.9522807e-12
2.884974e-12
2.8195842e-12
2.7559972e-12
2.6941093e-12
2.6338256e-12
2.5750578e-12
2.5177234e-12
2.4617482e-12
2.407064e-12
2.3536047e-12
2.3013086e-12
2.2501192e-12
2.1999834e-12
2.1508517e-12
2.102677e-12
2.0554154e-12
2.0090287e-12
1.9634788e-12
1.9187275e-12
1.8747411e-12
1.8314873e-12
1.7889356e-12
1.7470573e-12
1.7058246e-12
1.6652124e-12
1.6251982e-12
1.5857582e-12
1.5468697e-12
1.5085123e-12
1.470666e-12
1.4333123e-12
1.3964332e-12
1.3600115e-12
1.324033e-12
1.2884826e-12
1.2533448e-12
1.2186064e-12
1.1842544e-12
1.1502767e-12
1.1166613e-12
1.0833974e-12
1.050476e-12
1.0178871e-12
9.8562136e-13
9.5367034e-13
9.2202618e-13
8.9068095e-13
8.5962822e-13
8.2886255e-13
7.983709e-13
7.6817283e-13
7.3894015e-13
7.115147e-13
6.8600788e-13
6.6225903e-13
6.4012308e-13
6.1944682e-13
6.0009239e-13
5.8193728e-13
5.6487185e-13
5.4879803e-13
5.3362822e-13
5.1928326e-13
5.0569009e-13
4.9278125e-13
4.8049204e-13
4.6876203e-13
4.5752001e-13
4.4671367e-13
4.3620322e-13
4.2605051e-13
4.1553708e-13
4.0646442e-13
3.9340678e-13
6.5685013e-09
5.9052352e-09
5.6895295e-09
5.5835655e-09
5.5171671e-09
5.470825e-09
5.4366538e-09
5.4105762e-09
5.3901785e-09
5.373914e-09
5.3607377e-09
5.3499141e-09
5.3409068e-09
5.333311e-09
5.3268045e-09
5.3211239e-09
5.3159967e-09
5.3112305e-09
5.3061766e-09
5.3012971e-09
5.291044e-09
5.2892132e-09
5.217243e-09
4.2759117e-09
3.6742756e-11
1.1026476e-11
1.4011092e-11
5.7011261e-12
9.9907535e-12
4.0977766e-12
8.2765297e-12
3.2763242e-12
7.2218207e-12
6.622788e-12
6.4506281e-12
6.080892e-12
5.8538597e-12
5.5977367e-12
5.3850246e-12
5.1820678e-12
4.9975457e-12
4.8256477e-12
4.6657619e-12
4.5161685e-12
4.3757778e-12
4.2435491e-12
4.1186367e-12
4.0003072e-12
3.8879301e-12
3.7809612e-12
3.678922e-12
3.5813906e-12
3.4879961e-12
3.3984087e-12
3.3123371e-12
3.2295233e-12
3.1497327e-12
3.0727529e-12
2.9983937e-12
2.9264828e-12
2.8568622e-12
2.7893899e-12
2.7239382e-12
2.6603872e-12
2.5986259e-12
2.5385532e-12
2.4800768e-12
2.4231105e-12
2.3675741e-12
2.3133948e-12
2.2605062e-12
2.2088438e-12
2.1583469e-12
2.1089604e-12
2.0606323e-12
2.013314e-12
1.9669595e-12
1.9215256e-12
1.8769749e-12
1.8332697e-12
1.7903729e-12
1.748251e-12
1.7068726e-12
1.6662075e-12
1.6262274e-12
1.5869052e-12
1.5482159e-12
1.5101375e-12
1.4726465e-12
1.4357205e-12
1.3993394e-12
1.3634835e-12
1.3281346e-12
1.2932749e-12
1.2588874e-12
1.2249579e-12
1.1914717e-12
1.1584135e-12
1.12577e-12
1.0935283e-12
1.0616765e-12
1.0302027e-12
9.9909609e-13
9.6834749e-13
9.3794678e-13
9.0788466e-13
8.7815271e-13
8.487429e-13
8.196472e-13
7.9085893e-13
7.6237237e-13
7.3417512e-13
7.0628379e-13
6.7931199e-13
6.5403463e-13
6.305592e-13
6.0873092e-13
5.8840654e-13
5.6944063e-13
5.51703e-13
5.3507821e-13
5.1946323e-13
5.0476608e-13
4.9090475e-13
4.7780529e-13
4.6539961e-13
4.5362498e-13
4.4242147e-13
4.317332e-13
4.2149456e-13
4.1165735e-13
4.020938e-13
3.9286032e-13
3.8330297e-13
3.7506442e-13
3.6319126e-13
6.5667313e-09
5.8889009e-09
5.6683735e-09
5.5599578e-09
5.4919967e-09
5.4445544e-09
5.4095673e-09
5.3828637e-09
5.3619739e-09
5.3453153e-09
5.3318184e-09
5.3207309e-09
5.3115044e-09
5.3037253e-09
5.2970652e-09
5.2912564e-09
5.2860243e-09
5.2811763e-09
5.276068e-09
5.2711721e-09
5.2609645e-09
5.259384e-09
5.1877994e-09
4.2614136e-09
3.7808289e-11
1.0817183e-11
1.3457278e-11
5.4683304e-12
9.573082e-12
3.8800706e-12
7.9284416e-12
3.1351536e-12
6.9173739e-12
6.3451678e-12
6.1753303e-12
5.8206559e-12
5.6001297e-12
5.3532006e-12
5.1471713e-12
4.9508153e-12
4.7720412e-12
4.6054503e-12
4.4504162e-12
4.3053074e-12
4.1690836e-12
4.0407503e-12
3.9194986e-12
3.8046269e-12
3.6955309e-12
3.5916892e-12
3.4926425e-12
3.3979854e-12
3.3073615e-12
3.2204534e-12
3.1369805e-12
3.0566941e-12
2.9793677e-12
2.9047964e-12
2.8327964e-12
2.7632007e-12
2.6958565e-12
2.6306263e-12
2.567386e-12
2.5060195e-12
2.4464186e-12
2.3884848e-12
2.3321286e-12
2.277266e-12
2.223819e-12
2.1717164e-12
2.1208934e-12
2.0712869e-12
2.0228378e-12
1.9754921e-12
1.9291989e-12
1.8839106e-12
1.8395822e-12
1.7961714e-12
1.7536412e-12
1.7119548e-12
1.6710757e-12
1.6309711e-12
1.5916101e-12
1.5529629e-12
1.5150017e-12
1.4776999e-12
1.4410329e-12
1.4049787e-12
1.3695144e-12
1.3346178e-12
1.3002691e-12
1.266449e-12
1.2331392e-12
1.2003223e-12
1.1679815e-12
1.1361027e-12
1.1046711e-12
1.0736718e-12
1.0430916e-12
1.0129175e-12
9.831376e-13
9.5374014e-13
9.2471423e-13
8.9605057e-13
8.6773883e-13
8.3976978e-13
8.1213487e-13
7.8482591e-13
7.5783474e-13
7.3115441e-13
7.0477891e-13
6.7869633e-13
6.5292065e-13
6.2801411e-13
6.0469172e-13
5.8305572e-13
5.6295732e-13
5.4425818e-13
5.2682121e-13
5.1052402e-13
4.9525835e-13
4.8092775e-13
4.6744627e-13
4.5473735e-13
4.4273212e-13
4.3136726e-13
4.2058455e-13
4.1032852e-13
4.0054753e-13
3.9118106e-13
3.821847e-13
3.7344121e-13
3.6500244e-13
3.5627015e-13
3.4875001e-13
3.37896e-13
6.5647497e-09
5.869373e-09
5.6430502e-09
5.5316914e-09
5.4618556e-09
5.4130944e-09
5.3771292e-09
5.3496753e-09
5.3281959e-09
5.3110649e-09
5.2971838e-09
5.2857799e-09
5.2762903e-09
5.2682908e-09
5.2614455e-09
5.2554816e-09
5.2501213e-09
5.2451719e-09
5.2399921e-09
5.2350678e-09
5.2248932e-09
5.2235865e-09
5.1523347e-09
4.2439364e-09
3.9030268e-11
1.0602263e-11
1.2878858e-11
5.2305091e-12
9.1352912e-12
3.6630496e-12
7.563533e-12
3.0001648e-12
6.5987992e-12
6.0548828e-12
5.8881981e-12
5.5495613e-12
5.3364045e-12
5.0994721e-12
4.9009006e-12
4.7118693e-12
4.5395394e-12
4.3789186e-12
4.2293718e-12
4.0893583e-12
3.9578884e-12
3.8340156e-12
3.7169693e-12
3.6060807e-12
3.5007731e-12
3.4005482e-12
3.3049669e-12
3.2136411e-12
3.1262293e-12
3.0424268e-12
2.9619644e-12
2.884603e-12
2.8101248e-12
2.7383324e-12
2.6690485e-12
2.6021123e-12
2.5373762e-12
2.4747073e-12
2.4139855e-12
2.3550984e-12
2.2979411e-12
2.2424179e-12
2.188442e-12
2.1359322e-12
2.0848122e-12
2.0350132e-12
1.9864718e-12
1.9391266e-12
1.8929201e-12
1.8477997e-12
1.8037155e-12
1.7606213e-12
1.7184729e-12
1.6772291e-12
1.6368536e-12
1.5973104e-12
1.5585639e-12
1.5205818e-12
1.4833339e-12
1.4467911e-12
1.4109261e-12
1.3757127e-12
1.3411267e-12
1.3071466e-12
1.2737499e-12
1.2409147e-12
1.2086216e-12
1.1768516e-12
1.1455867e-12
1.1148096e-12
1.084504e-12
1.0546558e-12
1.0252505e-12
9.9627321e-13
9.6771087e-13
9.3955077e-13
9.1178096e-13
8.8438979e-13
8.573664e-13
8.3070137e-13
8.0438426e-13
7.7840596e-13
7.5275784e-13
7.2743163e-13
7.0241906e-13
6.7771303e-13
6.5330727e-13
6.2919037e-13
6.0537404e-13
5.8237448e-13
5.608521e-13
5.4090284e-13
5.2238458e-13
5.0516567e-13
4.8911748e-13
4.7412543e-13
4.6008835e-13
4.4691626e-13
4.3452906e-13
4.2285552e-13
4.1183163e-13
4.0139863e-13
3.9150255e-13
3.8209217e-13
3.7311975e-13
3.6452952e-13
3.562805e-13
3.4826496e-13
3.4053073e-13
3.3252897e-13
3.2564387e-13
3.1569075e-13
6.5625996e-09
5.8463029e-09
5.6130899e-09
5.498237e-09
5.4261777e-09
5.3758528e-09
5.3387286e-09
5.310386e-09
5.2882082e-09
5.2705178e-09
5.2561815e-09
5.2444027e-09
5.2346011e-09
5.2263401e-09
5.2192746e-09
5.2131255e-09
5.2076111e-09
5.2025383e-09
5.1972681e-09
5.1923019e-09
5.182146e-09
5.1811384e-09
5.1101598e-09
4.2231112e-09
4.0443128e-11
1.0382226e-11
1.2274677e-11
4.9876354e-12
8.6762565e-12
3.4462522e-12
7.1808148e-12
2.8680681e-12
6.2652455e-12
5.7511519e-12
5.5884974e-12
5.2669131e-12
5.0620273e-12
4.8359216e-12
4.6456069e-12
4.4646414e-12
4.299464e-12
4.1454835e-12
4.0020623e-12
3.8677529e-12
3.7416181e-12
3.6227617e-12
3.5104527e-12
3.4040566e-12
3.3030255e-12
3.2068854e-12
3.1152183e-12
3.0276542e-12
2.9438671e-12
2.8635662e-12
2.7864939e-12
2.7124214e-12
2.6411401e-12
2.5724605e-12
2.5062127e-12
2.4422419e-12
2.3804064e-12
2.3205783e-12
2.2626419e-12
2.2064886e-12
2.1520174e-12
2.0991353e-12
2.047759e-12
1.9978098e-12
1.949214e-12
1.9019049e-12
1.855821e-12
1.8109029e-12
1.7670948e-12
1.7243455e-12
1.6826067e-12
1.6418335e-12
1.601983e-12
1.563015e-12
1.5248942e-12
1.4875855e-12
1.4510544e-12
1.4152694e-12
1.3802009e-12
1.3458208e-12
1.3121023e-12
1.2790199e-12
1.2465501e-12
1.2146717e-12
1.1833627e-12
1.1526019e-12
1.1223703e-12
1.0926491e-12
1.063421e-12
1.034669e-12
1.0063771e-12
9.7853139e-13
9.5111766e-13
9.2412144e-13
8.975298e-13
8.7133025e-13
8.4551101e-13
8.2006061e-13
7.9496831e-13
7.7022471e-13
7.4581933e-13
7.2174325e-13
6.9798789e-13
6.7454497e-13
6.5140622e-13
6.2856449e-13
6.0601337e-13
5.8374199e-13
5.6176009e-13
5.40542e-13
5.2069732e-13
5.0231518e-13
4.852609e-13
4.694104e-13
4.5464351e-13
4.4085338e-13
4.2794579e-13
4.1583706e-13
4.044528e-13
3.9372689e-13
3.8360002e-13
3.740178e-13
3.649303e-13
3.5629028e-13
3.4805372e-13
3.4016921e-13
3.3259902e-13
3.2524411e-13
3.1814871e-13
3.1080873e-13
3.0449809e-13
2.9536062e-13
6.5603506e-09
5.8193158e-09
5.5779823e-09
5.4590189e-09
5.3843464e-09
5.3321852e-09
5.2937006e-09
5.2643153e-09
5.2413181e-09
5.2229715e-09
5.2081013e-09
5.1958827e-09
5.1857149e-09
5.1771466e-09
5.1698219e-09
5.1634544e-09
5.1577573e-09
5.1525365e-09
5.1471549e-09
5.1421317e-09
5.1319784e-09
5.1312973e-09
5.0605253e-09
4.1985283e-09
4.2088853e-11
1.0158122e-11
1.1644534e-11
4.7399349e-12
8.1955224e-12
3.2293834e-12
6.7798215e-12
2.7359926e-12
5.9162888e-12
5.4335663e-12
5.2758559e-12
4.9723473e-12
4.776655e-12
4.5622139e-12
4.3809627e-12
4.2088066e-12
4.0514897e-12
3.9048155e-12
3.7681509e-12
3.6401441e-12
3.5199124e-12
3.4066121e-12
3.2995539e-12
3.1981391e-12
3.10185e-12
3.0102384e-12
2.922908e-12
2.8395084e-12
2.75973e-12
2.6832965e-12
2.609963e-12
2.5395116e-12
2.4717433e-12
2.4064776e-12
2.3435521e-12
2.2828189e-12
2.2241426e-12
2.1674007e-12
2.1124823e-12
2.0592833e-12
2.0077066e-12
1.9576629e-12
1.9090721e-12
1.8618587e-12
1.815952e-12
1.7712874e-12
1.727806e-12
1.6854504e-12
1.6441667e-12
1.6039058e-12
1.5646209e-12
1.5262687e-12
1.4888078e-12
1.4521994e-12
1.4164093e-12
1.3814036e-12
1.347149e-12
1.3136149e-12
1.2807729e-12
1.2485955e-12
1.217057e-12
1.1861327e-12
1.1557997e-12
1.1260375e-12
1.0968248e-12
1.0681411e-12
1.0399679e-12
1.0122872e-12
9.8508185e-13
9.5833559e-13
9.320328e-13
9.0616002e-13
8.807034e-13
8.556489e-13
8.3098391e-13
8.0669625e-13
7.8277443e-13
7.5920727e-13
7.3598425e-13
7.1309609e-13
6.9053242e-13
6.6828461e-13
6.463442e-13
6.2470302e-13
6.0335292e-13
5.8228679e-13
5.6149822e-13
5.4097691e-13
5.2073094e-13
5.0119587e-13
4.8293336e-13
4.6602549e-13
4.5034566e-13
4.357778e-13
4.2221014e-13
4.0954342e-13
3.9769025e-13
3.8657309e-13
3.7612308e-13
3.6627907e-13
3.5698624e-13
3.4819441e-13
3.3985753e-13
3.3193212e-13
3.243777e-13
3.1714698e-13
3.1020529e-13
3.0346165e-13
2.9695698e-13
2.902286e-13
2.8444818e-13
2.7606471e-13
6.5581083e-09
5.7880158e-09
5.5371818e-09
5.4134196e-09
5.3357003e-09
5.2814e-09
5.2413315e-09
5.2107326e-09
5.1867823e-09
5.1676724e-09
5.1521813e-09
5.139451e-09
5.1288571e-09
5.119931e-09
5.1123043e-09
5.1056814e-09
5.0997699e-09
5.0943742e-09
5.0888578e-09
5.0837607e-09
5.0735922e-09
5.0732668e-09
5.0026281e-09
4.1697374e-09
4.4018955e-11
9.9316507e-12
1.0989323e-11
4.4878975e-12
7.6934126e-12
3.0123297e-12
6.3607022e-12
2.6014622e-12
5.5520067e-12
5.1021557e-12
4.9503243e-12
4.6658877e-12
4.4803113e-12
4.2783573e-12
4.1069654e-12
3.9443478e-12
3.7955833e-12
3.6568638e-12
3.5275674e-12
3.4064404e-12
3.292657e-12
3.1854283e-12
3.0841089e-12
2.9881374e-12
2.8970281e-12
2.8103595e-12
2.727759e-12
2.6488965e-12
2.57348e-12
2.5012487e-12
2.4319711e-12
2.3654412e-12
2.3014704e-12
2.2398878e-12
2.1805392e-12
2.1232843e-12
2.0679945e-12
2.0145533e-12
1.962855e-12
1.9128006e-12
1.8642976e-12
1.8172603e-12
1.7716128e-12
1.7272829e-12
1.6842031e-12
1.6423117e-12
1.6015523e-12
1.56187e-12
1.5232134e-12
1.4855353e-12
1.4487911e-12
1.4129391e-12
1.3779398e-12
1.343756e-12
1.3103548e-12
1.2777038e-12
1.2457709e-12
1.2145271e-12
1.1839448e-12
1.1539978e-12
1.1246614e-12
1.095912e-12
1.0677274e-12
1.040088e-12
1.0129734e-12
9.863639e-13
9.6024164e-13
9.345893e-13
9.0939059e-13
8.8462974e-13
8.6029177e-13
8.3636368e-13
8.1283218e-13
7.8968375e-13
7.6690622e-13
7.4448785e-13
7.2241755e-13
7.0068451e-13
6.7927858e-13
6.5819069e-13
6.3741069e-13
6.1693033e-13
5.9674139e-13
5.768359e-13
5.5720596e-13
5.3784459e-13
5.1874547e-13
4.9989896e-13
4.8131171e-13
4.6338282e-13
4.4662815e-13
4.3112275e-13
4.1674853e-13
4.0339764e-13
3.909666e-13
3.7936364e-13
3.6850803e-13
3.5832824e-13
3.487608e-13
3.3974936e-13
3.3124348e-13
3.2319699e-13
3.1556762e-13
3.0831548e-13
3.0140345e-13
2.9478817e-13
2.8843787e-13
2.8226922e-13
2.7631998e-13
2.7016648e-13
2.6488379e-13
2.5720969e-13
6.5560264e-09
5.751993e-09
5.490114e-09
5.3607868e-09
5.2795398e-09
5.2227653e-09
5.1808662e-09
5.1488656e-09
5.1238147e-09
5.1038237e-09
5.087616e-09
5.0742951e-09
5.0632093e-09
5.0538699e-09
5.0458939e-09
5.0389753e-09
5.0328145e-09
5.027214e-09
5.0215372e-09
5.0163477e-09
5.0061441e-09
5.0062055e-09
4.93562e-09
4.136248e-09
4.6296969e-11
9.7053242e-12
1.0311168e-11
4.2322918e-12
7.1711484e-12
2.7951817e-12
5.92432e-12
2.4624134e-12
5.1730617e-12
4.7574635e-12
4.6124459e-12
4.3480118e-12
4.1734474e-12
3.9847613e-12
3.8239914e-12
3.6716062e-12
3.5320526e-12
3.4019024e-12
3.280552e-12
3.1668482e-12
3.0600241e-12
2.9593485e-12
2.8642212e-12
2.7741205e-12
2.688594e-12
2.6072486e-12
2.5297367e-12
2.4557495e-12
2.3850139e-12
2.3172857e-12
2.2523476e-12
2.1900064e-12
2.130085e-12
2.0724225e-12
2.0168738e-12
1.9633069e-12
1.9116006e-12
1.8616449e-12
1.8133401e-12
1.7665926e-12
1.7213149e-12
1.6774256e-12
1.6348533e-12
1.5935297e-12
1.5533908e-12
1.5143782e-12
1.4764383e-12
1.4395191e-12
1.4035719e-12
1.3685518e-12
1.3344165e-12
1.3011266e-12
1.2686445e-12
1.2369348e-12
1.2059663e-12
1.1757082e-12
1.14613e-12
1.1172041e-12
1.0889044e-12
1.061206e-12
1.0340853e-12
1.0075198e-12
9.8148871e-13
9.5597307e-13
9.3095354e-13
9.0641147e-13
8.8232983e-13
8.5869217e-13
8.3548296e-13
8.1268721e-13
7.9029066e-13
7.6828093e-13
7.4664534e-13
7.2537105e-13
7.0444641e-13
6.8386025e-13
6.6360195e-13
6.4366121e-13
6.2402833e-13
6.0469455e-13
5.8565008e-13
5.668871e-13
5.4839774e-13
5.3017434e-13
5.122093e-13
4.9449589e-13
4.77028e-13
4.5979665e-13
4.4280732e-13
4.2642439e-13
4.1111947e-13
3.9696073e-13
3.838389e-13
3.7165439e-13
3.6031191e-13
3.4972707e-13
3.3982567e-13
3.3054207e-13
3.2181804e-13
3.1360191e-13
3.0584751e-13
2.9851257e-13
2.915584e-13
2.8494864e-13
2.7864937e-13
2.7262102e-13
2.668346e-13
2.6121408e-13
2.5579419e-13
2.5018847e-13
2.4537947e-13
2.383823e-13
6.5543218e-09
5.7108322e-09
5.4361839e-09
5.3004425e-09
5.215137e-09
5.1555194e-09
5.1115187e-09
5.0779099e-09
5.0515971e-09
5.030596e-09
5.013567e-09
4.9995693e-09
4.9879197e-09
4.9781065e-09
4.9697298e-09
4.9624714e-09
4.9560233e-09
4.9501856e-09
4.9443203e-09
4.939018e-09
4.9287574e-09
4.9292383e-09
4.8586198e-09
4.0975297e-09
4.9001625e-11
9.4826626e-12
9.6135597e-12
3.9741793e-12
6.6309654e-12
2.5782605e-12
5.472355e-12
2.3172441e-12
4.7807883e-12
4.400626e-12
4.2633313e-12
4.0197204e-12
3.8570078e-12
3.6822991e-12
3.5328549e-12
3.3913384e-12
3.2616001e-12
3.1405818e-12
3.0277052e-12
2.9219193e-12
2.8225185e-12
2.7288312e-12
2.6403048e-12
2.5564585e-12
2.476875e-12
2.4011913e-12
2.3290855e-12
2.2602719e-12
2.1944974e-12
2.131535e-12
2.0711832e-12
2.013262e-12
1.9576066e-12
1.9040672e-12
1.8525085e-12
1.8028071e-12
1.7548502e-12
1.7085348e-12
1.6637677e-12
1.6204613e-12
1.5785336e-12
1.5379081e-12
1.4985182e-12
1.4602998e-12
1.4231929e-12
1.3871427e-12
1.3520988e-12
1.3180126e-12
1.2848381e-12
1.2525334e-12
1.2210586e-12
1.1903766e-12
1.1604522e-12
1.1312522e-12
1.102747e-12
1.0749078e-12
1.0477059e-12
1.0211154e-12
9.951116e-13
9.6967115e-13
9.4477194e-13
9.2039279e-13
8.9651399e-13
8.731178e-13
8.5018601e-13
8.2770108e-13
8.0564698e-13
7.8400822e-13
7.6277018e-13
7.4191876e-13
7.2144053e-13
7.0132383e-13
6.8155671e-13
6.6212707e-13
6.4302394e-13
6.2423676e-13
6.0575552e-13
5.8757049e-13
5.696725e-13
5.5205324e-13
5.3470332e-13
5.1761547e-13
5.0078223e-13
4.8419633e-13
4.6785056e-13
4.5173853e-13
4.3585442e-13
4.2018995e-13
4.0474961e-13
3.8986433e-13
3.7596278e-13
3.6310642e-13
3.5119491e-13
3.4013695e-13
3.2984535e-13
3.2024296e-13
3.1126202e-13
3.0284264e-13
2.9493171e-13
2.8748218e-13
2.8045196e-13
2.7380263e-13
2.6749899e-13
2.6150803e-13
2.55799e-13
2.5033592e-13
2.4509253e-13
2.3999984e-13
2.3508961e-13
2.3001128e-13
2.2565777e-13
2.1931348e-13
6.5532935e-09
5.6641246e-09
5.3747879e-09
5.2316945e-09
5.1417473e-09
5.078883e-09
5.032485e-09
4.9970432e-09
4.9692927e-09
4.9471416e-09
4.9291778e-09
4.9144099e-09
4.9021187e-09
4.8917662e-09
4.8829329e-09
4.875287e-09
4.8685105e-09
4.8624004e-09
4.8563163e-09
4.850879e-09
4.8405378e-09
4.8414722e-09
4.7707288e-09
4.0530143e-09
5.2230803e-11
9.2684647e-12
8.9014605e-12
3.7149302e-12
6.0762192e-12
2.3621469e-12
5.0074019e-12
2.1648857e-12
4.3772785e-12
4.0334508e-12
3.9047318e-12
3.6826084e-12
3.5324969e-12
3.3723705e-12
3.2348687e-12
3.1047738e-12
2.9853781e-12
2.8739821e-12
2.7700387e-12
2.6726005e-12
2.5810251e-12
2.4947021e-12
2.4131283e-12
2.3358656e-12
2.262533e-12
2.1927986e-12
2.1263682e-12
2.0629798e-12
2.0024012e-12
1.9444242e-12
1.8888633e-12