/*--------------------------------*- C++ -*----------------------------------*\
| =========                 |                                                 |
| \\      /  F ield         | OpenFOAM: The Open Source CFD Toolbox           |
|  \\    /   O peration     | Version:  2206                                  |
|   \\  /    A nd           | Website:  www.openfoam.com                      |
|    \\/     M anipulation  |                                                 |
\*---------------------------------------------------------------------------*/
FoamFile
{
    version     2.0;
    format      ascii;
    arch        "LSB;label=32;scalar=64";
    class       volScalarField;
    location    "1100";
    object      p;
}
// * * * * * * * * * * * * * * * * * * * * * * * * * * * * * * * * * * * * * //

dimensions      [0 2 -2 0 0 0 0];

internalField   nonuniform List<scalar> 
13056
(
0.011711227
0.011817506
0.012038429
0.012317463
0.012657769
0.013058529
0.013516555
0.014031014
0.01460346
0.015237171
0.015937134
0.016710523
0.017567216
0.018521308
0.019591494
0.020807623
0.022204574
0.023861535
0.02582853
0.028413023
0.031489917
0.036855641
0.041870368
0.082999984
0.052130877
0.0014601137
0.00074257608
0.0018334577
0.0023547566
0.0027774846
0.0030434351
0.0032355521
0.0033758135
0.0034740712
0.0035431973
0.0035927983
0.0036284656
0.003653759
0.00367111
0.0036825281
0.0036893724
0.0036925648
0.003692812
0.0036907154
0.0036867058
0.0036810495
0.0036740307
0.0036658464
0.0036566745
0.0036466397
0.0036358179
0.0036243004
0.0036121559
0.0035994427
0.0035862215
0.0035725185
0.003558347
0.0035437361
0.0035287068
0.0035132727
0.0034974478
0.0034812501
0.0034646742
0.00344771
0.0034303633
0.0034126325
0.0033945155
0.003376007
0.0033571052
0.0033378095
0.003318096
0.0032979448
0.0032773495
0.0032562964
0.003234769
0.0032127553
0.0031902332
0.0031671961
0.0031436202
0.0031194582
0.0030946951
0.0030693066
0.0030432621
0.003016533
0.0029890873
0.002960893
0.0029319199
0.0029021145
0.0028714239
0.0028398088
0.002807219
0.0027735986
0.0027388938
0.0027030378
0.0026659757
0.0026276305
0.0025879006
0.002546712
0.0025039713
0.0024595757
0.0024134188
0.0023653791
0.0023153373
0.0022631459
0.002208633
0.002151641
0.0020919824
0.0020294602
0.0019638547
0.0018949502
0.0018224771
0.0017461555
0.0016660641
0.0015827471
0.0014981052
0.001414425
0.0013323354
0.0012517168
0.0011725807
0.0010949611
0.0010189018
0.0009444751
0.00087180042
0.00080102434
0.0007323231
0.00066594228
0.00060221356
0.00054155061
0.00048458802
0.00043197215
0.00038526306
0.00034489206
0.00031690961
0.00029408132
0.0004345353
-0.00038717324
0.011711227
0.011817506
0.012038429
0.012317463
0.012657769
0.013058529
0.013516555
0.014031014
0.01460346
0.015237172
0.015937135
0.016710523
0.017567216
0.018521309
0.019591495
0.020807624
0.022204575
0.023861537
0.025828534
0.028413029
0.031489925
0.036855657
0.041870417
0.082994739
0.0521427
0.001467754
0.00074457353
0.0018343224
0.0023552837
0.0027778565
0.0030437165
0.0032357753
0.0033759959
0.0034742239
0.0035433276
0.003592911
0.0036285643
0.0036538462
0.0036711877
0.0036825979
0.0036894355
0.0036926221
0.0036928643
0.0036907633
0.0036867498
0.0036810901
0.0036740682
0.0036658813
0.0036567069
0.00364667
0.0036358462
0.0036243269
0.0036121808
0.003599466
0.0035862435
0.0035725392
0.0035583665
0.0035437546
0.0035287243
0.0035132893
0.0034974634
0.0034812649
0.0034646883
0.0034477233
0.003430376
0.0034126446
0.003394527
0.003376018
0.0033571157
0.0033378194
0.0033181054
0.0032979539
0.0032773581
0.0032563047
0.0032347769
0.0032127628
0.0031902403
0.003167203
0.0031436268
0.0031194645
0.0030947011
0.0030693123
0.0030432676
0.0030165382
0.0029890923
0.0029608978
0.0029319244
0.0029021189
0.0028714281
0.0028398128
0.0028072228
0.0027736022
0.0027388973
0.0027030411
0.0026659789
0.0026276335
0.0025879034
0.0025467148
0.0025039739
0.0024595782
0.0024134211
0.0023653814
0.0023153394
0.0022631479
0.0022086349
0.0021516428
0.0020919841
0.0020294619
0.0019638562
0.0018949516
0.0018224785
0.0017461568
0.0016660653
0.0015827482
0.0014981062
0.001414426
0.0013323363
0.0012517177
0.0011725816
0.0010949619
0.0010189025
0.00094447583
0.00087180112
0.00080102501
0.00073232374
0.00066594289
0.00060221415
0.00054155118
0.00048458858
0.00043197269
0.00038526359
0.00034489258
0.00031691013
0.00029408188
0.00043453588
-0.00038717287
0.011711227
0.011817506
0.012038429
0.012317463
0.012657769
0.013058529
0.013516555
0.014031014
0.01460346
0.015237172
0.015937135
0.016710524
0.017567217
0.01852131
0.019591496
0.020807625
0.022204578
0.02386154
0.025828538
0.028413036
0.031489934
0.036855675
0.041870461
0.082989855
0.05215883
0.0014748538
0.00074677316
0.0018353332
0.0023558998
0.0027782914
0.0030440454
0.0032360362
0.0033762092
0.0034744024
0.0035434799
0.0035930428
0.0036286797
0.0036539482
0.0036712786
0.0036826795
0.0036895091
0.003692689
0.0036929253
0.0036908192
0.0036868012
0.0036811375
0.0036741122
0.003665922
0.0036567449
0.0036467054
0.0036358792
0.0036243578
0.0036122098
0.0035994933
0.0035862691
0.0035725634
0.0035583893
0.0035437761
0.0035287447
0.0035133086
0.0034974817
0.0034812823
0.0034647047
0.003447739
0.0034303909
0.0034126588
0.0033945405
0.0033760308
0.0033571279
0.0033378311
0.0033181165
0.0032979645
0.0032773682
0.0032563143
0.0032347861
0.0032127716
0.0031902487
0.003167211
0.0031436344
0.0031194718
0.0030947082
0.003069319
0.003043274
0.0030165444
0.0029890982
0.0029609034
0.0029319298
0.002902124
0.0028714329
0.0028398175
0.0028072273
0.0027736065
0.0027389013
0.002703045
0.0026659826
0.002627637
0.0025879068
0.002546718
0.002503977
0.0024595811
0.0024134239
0.002365384
0.0023153419
0.0022631503
0.0022086371
0.002151645
0.0020919861
0.0020294638
0.001963858
0.0018949533
0.00182248
0.0017461583
0.0016660668
0.0015827496
0.0014981075
0.0014144272
0.0013323374
0.0012517188
0.0011725826
0.0010949628
0.0010189034
0.00094447669
0.00087180193
0.0008010258
0.00073232449
0.00066594361
0.00060221485
0.00054155185
0.00048458923
0.00043197331
0.00038526421
0.00034489318
0.00031691075
0.00029408249
0.00043453655
-0.00038717245
0.011711227
0.011817506
0.012038429
0.012317463
0.012657769
0.013058529
0.013516555
0.014031014
0.014603461
0.015237172
0.015937135
0.016710524
0.017567217
0.018521311
0.019591497
0.020807627
0.02220458
0.023861543
0.025828542
0.028413043
0.031489943
0.036855691
0.041870506
0.082985112
0.052176694
0.001479887
0.00074881731
0.0018363127
0.002356497
0.0027787128
0.0030443641
0.0032362891
0.003376416
0.0034745755
0.0035436275
0.0035931705
0.0036287915
0.003654047
0.0036713667
0.0036827585
0.0036895805
0.0036927538
0.0036929845
0.0036908734
0.0036868511
0.0036811835
0.0036741547
0.0036659615
0.0036567816
0.0036467397
0.0036359113
0.0036243879
0.003612238
0.0035995198
0.003586294
0.0035725868
0.0035584115
0.003543797
0.0035287644
0.0035133273
0.0034974994
0.0034812991
0.0034647207
0.0034477541
0.0034304053
0.0034126725
0.0033945535
0.0033760432
0.0033571397
0.0033378423
0.0033181273
0.0032979747
0.003277378
0.0032563237
0.0032347951
0.0032127802
0.0031902569
0.0031672188
0.0031436419
0.0031194789
0.003094715
0.0030693255
0.0030432802
0.0030165503
0.0029891038
0.0029609088
0.002931935
0.0029021289
0.0028714377
0.002839822
0.0028072316
0.0027736106
0.0027389053
0.0027030487
0.0026659862
0.0026276404
0.0025879101
0.0025467211
0.0025039799
0.0024595839
0.0024134265
0.0023653865
0.0023153443
0.0022631526
0.0022086393
0.002151647
0.002091988
0.0020294656
0.0019638598
0.001894955
0.0018224816
0.0017461597
0.0016660681
0.0015827508
0.0014981087
0.0014144283
0.0013323385
0.0012517198
0.0011725835
0.0010949637
0.0010189043
0.00094447752
0.00087180273
0.00080102655
0.00073232522
0.00066594431
0.00060221552
0.0005415525
0.00048458985
0.00043197392
0.0003852648
0.00034489377
0.00031691134
0.00029408306
0.0004345372
-0.00038717206
0.011711227
0.011817506
0.012038429
0.012317463
0.012657769
0.013058529
0.013516556
0.014031015
0.014603461
0.015237173
0.015937136
0.016710525
0.017567218
0.018521312
0.019591498
0.020807629
0.022204582
0.023861547
0.025828547
0.02841305
0.031489953
0.036855708
0.041870556
0.082979971
0.052195656
0.0014856778
0.00075091113
0.0018373218
0.0023571123
0.0027791471
0.0030446926
0.0032365496
0.003376629
0.0034747538
0.0035437795
0.0035933021
0.0036289067
0.0036541488
0.0036714574
0.00368284
0.0036896541
0.0036928206
0.0036930454
0.0036909292
0.0036869024
0.0036812309
0.0036741986
0.0036660023
0.0036568195
0.003646775
0.0036359443
0.0036244188
0.003612267
0.003599547
0.0035863197
0.003572611
0.0035584342
0.0035438186
0.0035287848
0.0035133466
0.0034975177
0.0034813164
0.0034647372
0.0034477698
0.0034304202
0.0034126866
0.0033945669
0.003376056
0.0033571519
0.003337854
0.0033181384
0.0032979853
0.0032773881
0.0032563333
0.0032348043
0.0032127889
0.0031902653
0.0031672268
0.0031436495
0.0031194862
0.003094722
0.0030693322
0.0030432866
0.0030165564
0.0029891097
0.0029609144
0.0029319403
0.002902134
0.0028714425
0.0028398267
0.0028072361
0.0027736149
0.0027389093
0.0027030526
0.0026659898
0.0026276439
0.0025879134
0.0025467243
0.002503983
0.0024595868
0.0024134293
0.0023653892
0.0023153468
0.0022631549
0.0022086415
0.0021516491
0.00209199
0.0020294675
0.0019638616
0.0018949567
0.0018224832
0.0017461612
0.0016660695
0.0015827522
0.0014981099
0.0014144295
0.0013323396
0.0012517208
0.0011725845
0.0010949647
0.0010189052
0.00094447837
0.00087180354
0.00080102733
0.00073232596
0.00066594503
0.00060221621
0.00054155317
0.0004845905
0.00043197455
0.00038526542
0.00034489437
0.00031691195
0.00029408365
0.00043453787
-0.00038717167
0.011711227
0.011817506
0.012038429
0.012317463
0.012657769
0.013058529
0.013516556
0.014031015
0.014603461
0.015237173
0.015937136
0.016710525
0.017567219
0.018521313
0.0195915
0.020807631
0.022204585
0.023861551
0.025828552
0.028413059
0.031489964
0.036855728
0.041870613
0.082974248
0.052215415
0.0014929991
0.00075314698
0.0018383963
0.0023577677
0.0027796096
0.0030450424
0.0032368271
0.0033768558
0.0034749436
0.0035439415
0.0035934422
0.0036290294
0.0036542573
0.0036715541
0.0036829268
0.0036897325
0.0036928918
0.0036931103
0.0036909887
0.0036869571
0.0036812814
0.0036742453
0.0036660456
0.0036568599
0.0036468126
0.0036359795
0.0036244517
0.0036122978
0.003599576
0.003586347
0.0035726367
0.0035584585
0.0035438415
0.0035288065
0.0035133671
0.0034975372
0.0034813349
0.0034647547
0.0034477864
0.003430436
0.0034127016
0.0033945813
0.0033760697
0.0033571649
0.0033378664
0.0033181502
0.0032979966
0.0032773989
0.0032563436
0.003234814
0.0032127983
0.0031902742
0.0031672354
0.0031436577
0.003119494
0.0030947294
0.0030693393
0.0030432934
0.0030165629
0.0029891159
0.0029609203
0.002931946
0.0029021395
0.0028714477
0.0028398316
0.0028072408
0.0027736194
0.0027389136
0.0027030567
0.0026659938
0.0026276477
0.002587917
0.0025467277
0.0025039862
0.0024595899
0.0024134322
0.0023653919
0.0023153494
0.0022631574
0.0022086439
0.0021516514
0.0020919922
0.0020294695
0.0019638635
0.0018949585
0.0018224849
0.0017461628
0.001666071
0.0015827536
0.0014981112
0.0014144308
0.0013323408
0.0012517219
0.0011725856
0.0010949657
0.0010189062
0.00094447928
0.00087180441
0.00080102817
0.00073232676
0.0006659458
0.00060221695
0.00054155388
0.00048459119
0.00043197522
0.00038526607
0.00034489501
0.0003169126
0.00029408427
0.00043453859
-0.00038717124
0.011711227
0.011817506
0.012038429
0.012317463
0.012657769
0.013058529
0.013516556
0.014031015
0.014603462
0.015237173
0.015937137
0.016710526
0.01756722
0.018521314
0.019591502
0.020807633
0.022204588
0.023861556
0.025828558
0.028413069
0.031489978
0.036855753
0.041870679
0.082967848
0.052236223
0.0015010309
0.00075555427
0.0018395524
0.0023584729
0.0027801073
0.0030454189
0.0032371257
0.0033770999
0.003475148
0.0035441157
0.003593593
0.0036291614
0.0036543739
0.0036716581
0.0036830201
0.0036898168
0.0036929683
0.0036931802
0.0036910527
0.003687016
0.0036813357
0.0036742956
0.0036660923
0.0036569033
0.0036468531
0.0036360173
0.0036244871
0.0036123311
0.0035996073
0.0035863764
0.0035726644
0.0035584847
0.0035438662
0.0035288298
0.0035133892
0.0034975581
0.0034813547
0.0034647735
0.0034478043
0.003430453
0.0034127178
0.0033945967
0.0033760843
0.0033571789
0.0033378797
0.0033181629
0.0032980087
0.0032774104
0.0032563546
0.0032348246
0.0032128084
0.0031902838
0.0031672446
0.0031436665
0.0031195024
0.0030947374
0.003069347
0.0030433007
0.0030165699
0.0029891226
0.0029609267
0.0029319521
0.0029021453
0.0028714533
0.002839837
0.0028072459
0.0027736242
0.0027389183
0.0027030611
0.002665998
0.0026276517
0.0025879208
0.0025467313
0.0025039897
0.0024595932
0.0024134354
0.0023653949
0.0023153523
0.0022631601
0.0022086465
0.0021516538
0.0020919945
0.0020294717
0.0019638655
0.0018949604
0.0018224867
0.0017461645
0.0016660726
0.0015827551
0.0014981126
0.0014144321
0.001332342
0.0012517231
0.0011725867
0.0010949667
0.0010189072
0.00094448026
0.00087180535
0.00080102906
0.00073232762
0.00066594662
0.00060221774
0.00054155464
0.00048459193
0.00043197594
0.00038526678
0.0003448957
0.0003169133
0.00029408495
0.00043453936
-0.00038717079
0.011711227
0.011817507
0.012038429
0.012317463
0.012657769
0.01305853
0.013516556
0.014031015
0.014603462
0.015237174
0.015937138
0.016710527
0.017567222
0.018521316
0.019591504
0.020807636
0.022204592
0.023861561
0.025828566
0.028413082
0.031489996
0.036855784
0.041870756
0.082960626
0.052258355
0.001509637
0.00075816289
0.0018408055
0.0023592375
0.0027806468
0.003045827
0.0032374494
0.0033773646
0.0034753695
0.0035443047
0.0035937565
0.0036293045
0.0036545005
0.0036717708
0.0036831213
0.0036899082
0.0036930513
0.0036932559
0.0036911221
0.0036870798
0.0036813946
0.0036743501
0.0036661428
0.0036569503
0.003646897
0.0036360583
0.0036245255
0.0036123671
0.0035996411
0.0035864082
0.0035726944
0.003558513
0.003543893
0.0035288551
0.0035134131
0.0034975808
0.0034813763
0.003464794
0.0034478237
0.0034304715
0.0034127354
0.0033946134
0.0033761002
0.003357194
0.0033378941
0.0033181767
0.0032980218
0.003277423
0.0032563666
0.003234836
0.0032128193
0.0031902943
0.0031672545
0.003143676
0.0031195115
0.0030947461
0.0030693553
0.0030433087
0.0030165775
0.0029891299
0.0029609337
0.0029319587
0.0029021516
0.0028714594
0.0028398428
0.0028072514
0.0027736295
0.0027389233
0.0027030659
0.0026660026
0.0026276561
0.002587925
0.0025467353
0.0025039935
0.0024595968
0.0024134388
0.0023653982
0.0023153554
0.0022631631
0.0022086493
0.0021516564
0.002091997
0.002029474
0.0019638678
0.0018949625
0.0018224887
0.0017461664
0.0016660744
0.0015827567
0.0014981142
0.0014144335
0.0013323434
0.0012517244
0.001172588
0.0010949679
0.0010189083
0.00094448133
0.00087180636
0.00080103003
0.00073232855
0.00066594752
0.0006022186
0.00054155547
0.00048459273
0.00043197672
0.00038526754
0.00034489645
0.00031691406
0.00029408568
0.00043454019
-0.00038717029
0.011711227
0.011817507
0.012038429
0.012317463
0.01265777
0.01305853
0.013516557
0.014031016
0.014603463
0.015237175
0.015937139
0.016710529
0.017567223
0.018521318
0.019591507
0.02080764
0.022204597
0.023861569
0.025828576
0.028413099
0.031490018
0.036855824
0.041870845
0.0829524
0.052282037
0.0015189785
0.00076101089
0.001842174
0.0023600727
0.0027812362
0.0030462728
0.003237803
0.0033776537
0.0034756115
0.003544511
0.0035939351
0.0036294608
0.0036546386
0.003671894
0.0036832319
0.003690008
0.003693142
0.0036933387
0.0036911979
0.0036871495
0.0036814589
0.0036744096
0.0036661981
0.0036570018
0.003646945
0.0036361031
0.0036245675
0.0036124065
0.0035996781
0.003586443
0.0035727272
0.0035585439
0.0035439222
0.0035288828
0.0035134393
0.0034976056
0.0034813998
0.0034648163
0.0034478449
0.0034304916
0.0034127545
0.0033946316
0.0033761176
0.0033572106
0.0033379099
0.0033181917
0.0032980362
0.0032774367
0.0032563797
0.0032348485
0.0032128312
0.0031903057
0.0031672654
0.0031436864
0.0031195215
0.0030947556
0.0030693644
0.0030433174
0.0030165858
0.0029891378
0.0029609413
0.002931966
0.0029021586
0.002871466
0.0028398491
0.0028072575
0.0027736353
0.0027389288
0.0027030712
0.0026660076
0.0026276609
0.0025879295
0.0025467397
0.0025039976
0.0024596007
0.0024134425
0.0023654018
0.0023153587
0.0022631663
0.0022086523
0.0021516593
0.0020919997
0.0020294766
0.0019638702
0.0018949648
0.0018224908
0.0017461684
0.0016660763
0.0015827585
0.0014981159
0.0014144351
0.0013323449
0.0012517259
0.0011725893
0.0010949692
0.0010189095
0.00094448249
0.00087180747
0.00080103109
0.00073232957
0.00066594849
0.00060221954
0.00054155638
0.00048459361
0.00043197758
0.00038526838
0.00034489727
0.00031691489
0.00029408647
0.0004345411
-0.00038716975
0.011711227
0.011817507
0.01203843
0.012317463
0.01265777
0.01305853
0.013516557
0.014031016
0.014603463
0.015237176
0.01593714
0.01671053
0.017567225
0.018521321
0.019591511
0.020807645
0.022204604
0.023861578
0.025828588
0.028413119
0.031490044
0.036855873
0.041870949
0.082942952
0.052307481
0.0015292173
0.00076414092
0.0018436782
0.0023609911
0.0027818842
0.003046763
0.0032381919
0.0033779716
0.0034758775
0.003544738
0.0035941315
0.0036296327
0.0036547906
0.0036720294
0.0036833535
0.0036901178
0.0036932417
0.0036934296
0.0036912812
0.0036872261
0.0036815296
0.0036744751
0.0036662589
0.0036570583
0.0036469977
0.0036361524
0.0036246136
0.0036124498
0.0035997188
0.0035864813
0.0035727633
0.003558578
0.0035439543
0.0035289132
0.0035134681
0.0034976329
0.0034814256
0.0034648408
0.0034478682
0.0034305138
0.0034127756
0.0033946517
0.0033761367
0.0033572288
0.0033379273
0.0033182083
0.003298052
0.0032774517
0.0032563941
0.0032348622
0.0032128443
0.0031903182
0.0031672774
0.0031436979
0.0031195324
0.0030947661
0.0030693744
0.0030433269
0.003016595
0.0029891465
0.0029609496
0.002931974
0.0029021662
0.0028714733
0.002839856
0.0028072641
0.0027736416
0.0027389349
0.002703077
0.0026660131
0.0026276661
0.0025879346
0.0025467444
0.0025040022
0.002459605
0.0024134467
0.0023654057
0.0023153624
0.0022631698
0.0022086556
0.0021516625
0.0020920027
0.0020294795
0.0019638729
0.0018949673
0.0018224932
0.0017461707
0.0016660784
0.0015827605
0.0014981177
0.0014144369
0.0013323466
0.0012517274
0.0011725908
0.0010949706
0.0010189109
0.00094448376
0.00087180869
0.00080103226
0.00073233069
0.00066594957
0.00060222058
0.00054155738
0.00048459458
0.00043197852
0.0003852693
0.00034489818
0.00031691581
0.00029408735
0.00043454211
-0.00038716916
0.011711227
0.011817507
0.01203843
0.012317464
0.01265777
0.013058531
0.013516558
0.014031017
0.014603464
0.015237177
0.015937142
0.016710532
0.017567228
0.018521325
0.019591515
0.020807651
0.022204612
0.023861589
0.025828603
0.028413143
0.031490077
0.036855935
0.041871071
0.082932024
0.05233489
0.0015405023
0.00076759953
0.0018453407
0.0023620064
0.0027826007
0.0030473049
0.0032386217
0.003378323
0.0034761717
0.0035449888
0.0035943485
0.0036298227
0.0036549586
0.0036721792
0.0036834879
0.0036902392
0.0036933519
0.0036935302
0.0036913733
0.0036873108
0.0036816078
0.0036745474
0.003666326
0.0036571208
0.003647056
0.0036362069
0.0036246647
0.0036124976
0.0035997638
0.0035865236
0.0035728032
0.0035586156
0.0035439899
0.0035289468
0.0035134999
0.003497663
0.0034814543
0.003464868
0.003447894
0.0034305383
0.0034127989
0.0033946739
0.0033761579
0.0033572489
0.0033379465
0.0033182266
0.0032980694
0.0032774684
0.00325641
0.0032348774
0.0032128589
0.0031903321
0.0031672906
0.0031437105
0.0031195445
0.0030947777
0.0030693854
0.0030433375
0.0030166051
0.0029891562
0.0029609588
0.0029319828
0.0029021746
0.0028714813
0.0028398637
0.0028072714
0.0027736487
0.0027389416
0.0027030834
0.0026660192
0.0026276719
0.0025879401
0.0025467497
0.0025040072
0.0024596098
0.0024134512
0.00236541
0.0023153666
0.0022631737
0.0022086593
0.002151666
0.002092006
0.0020294826
0.0019638758
0.0018949701
0.0018224958
0.0017461731
0.0016660807
0.0015827627
0.0014981198
0.0014144388
0.0013323484
0.0012517292
0.0011725924
0.0010949722
0.0010189123
0.00094448518
0.00087181004
0.00080103355
0.00073233193
0.00066595076
0.00060222172
0.00054155849
0.00048459565
0.00043197956
0.00038527031
0.00034489917
0.00031691682
0.00029408832
0.00043454322
-0.0003871685
0.011711227
0.011817507
0.01203843
0.012317464
0.012657771
0.013058531
0.013516558
0.014031018
0.014603465
0.015237178
0.015937143
0.016710535
0.017567231
0.018521329
0.019591521
0.020807658
0.022204622
0.023861603
0.025828622
0.028413173
0.031490118
0.036856011
0.041871214
0.082919306
0.052364453
0.0015529947
0.00077143799
0.0018471862
0.0023631339
0.0027833962
0.0030479067
0.003239099
0.0033787132
0.0034764983
0.0035452674
0.0035945896
0.0036300338
0.0036551451
0.0036723454
0.0036836372
0.003690374
0.0036934744
0.0036936419
0.0036914757
0.0036874049
0.0036816946
0.0036746278
0.0036664007
0.0036571902
0.0036471207
0.0036362674
0.0036247213
0.0036125508
0.0035998137
0.0035865706
0.0035728475
0.0035586574
0.0035440294
0.0035289841
0.0035135353
0.0034976965
0.003481486
0.0034648981
0.0034479227
0.0034305655
0.0034128249
0.0033946985
0.0033761813
0.0033572713
0.0033379678
0.0033182469
0.0032980888
0.0032774869
0.0032564276
0.0032348943
0.003212875
0.0031903475
0.0031673053
0.0031437246
0.0031195579
0.0030947905
0.0030693977
0.0030433492
0.0030166163
0.0029891669
0.0029609691
0.0029319926
0.002902184
0.0028714903
0.0028398723
0.0028072796
0.0027736564
0.002738949
0.0027030905
0.002666026
0.0026276784
0.0025879463
0.0025467556
0.0025040128
0.0024596151
0.0024134563
0.0023654148
0.0023153711
0.002263178
0.0022086634
0.0021516699
0.0020920097
0.0020294861
0.0019638791
0.0018949732
0.0018224988
0.0017461759
0.0016660833
0.0015827651
0.0014981221
0.001414441
0.0013323504
0.0012517311
0.0011725943
0.0010949739
0.001018914
0.00094448675
0.00087181154
0.00080103499
0.0007323333
0.00066595208
0.00060222299
0.00054155971
0.00048459684
0.00043198071
0.00038527145
0.00034490028
0.00031691794
0.00029408941
0.00043454446
-0.00038716777
0.011711227
0.011817507
0.01203843
0.012317464
0.012657771
0.013058532
0.013516559
0.014031019
0.014603467
0.01523718
0.015937146
0.016710537
0.017567235
0.018521334
0.019591527
0.020807667
0.022204633
0.02386162
0.025828644
0.028413209
0.031490166
0.036856103
0.04187138
0.082904425
0.05239633
0.0015668764
0.00077571317
0.0018492422
0.0023643904
0.0027842828
0.0030485774
0.003239631
0.0033791481
0.0034768623
0.0035455779
0.0035948583
0.003630269
0.003655353
0.0036725308
0.0036838035
0.0036905243
0.0036936108
0.0036937664
0.0036915897
0.0036875098
0.0036817914
0.0036747174
0.0036664838
0.0036572676
0.0036471929
0.0036363349
0.0036247845
0.0036126101
0.0035998694
0.003586623
0.0035728969
0.003558704
0.0035440734
0.0035290258
0.0035135747
0.0034977339
0.0034815214
0.0034649318
0.0034479546
0.0034305959
0.0034128537
0.003394726
0.0033762075
0.0033572962
0.0033379916
0.0033182696
0.0032981105
0.0032775076
0.0032564473
0.0032349131
0.0032128929
0.0031903646
0.0031673217
0.0031437403
0.0031195729
0.0030948048
0.0030694114
0.0030433623
0.0030166288
0.0029891789
0.0029609805
0.0029320035
0.0029021944
0.0028715003
0.0028398818
0.0028072887
0.0027736651
0.0027389573
0.0027030984
0.0026660335
0.0026276856
0.0025879531
0.0025467621
0.002504019
0.002459621
0.0024134619
0.0023654201
0.0023153762
0.0022631828
0.002208668
0.0021516742
0.0020920138
0.0020294899
0.0019638828
0.0018949766
0.001822502
0.0017461789
0.0016660862
0.0015827678
0.0014981246
0.0014144434
0.0013323527
0.0012517332
0.0011725963
0.0010949758
0.0010189158
0.0009444885
0.00087181321
0.00080103659
0.00073233484
0.00066595355
0.00060222441
0.00054156108
0.00048459816
0.000431982
0.00038527271
0.00034490152
0.00031691919
0.00029409061
0.00043454583
-0.00038716695
0.011711227
0.011817507
0.012038431
0.012317465
0.012657772
0.013058532
0.01351656
0.01403102
0.014603468
0.015237182
0.015937148
0.016710541
0.017567239
0.01852134
0.019591535
0.020807678
0.022204647
0.023861639
0.02582867
0.028413252
0.031490223
0.036856212
0.041871574
0.082886934
0.052430647
0.0015823527
0.0007804884
0.0018515393
0.0023657949
0.0027852738
0.003049327
0.0032402256
0.0033796343
0.0034772692
0.0035459249
0.0035951586
0.0036305319
0.0036555854
0.0036727379
0.0036839894
0.0036906922
0.0036937633
0.0036939055
0.0036917172
0.0036876271
0.0036818996
0.0036748176
0.0036665768
0.0036573541
0.0036472736
0.0036364103
0.0036248551
0.0036126763
0.0035999316
0.0035866816
0.0035729521
0.0035587561
0.0035441226
0.0035290723
0.0035136187
0.0034977756
0.003481561
0.0034649693
0.0034479903
0.0034306298
0.003412886
0.0033947567
0.0033762368
0.0033573241
0.0033380181
0.0033182949
0.0032981346
0.0032775306
0.0032564694
0.0032349342
0.003212913
0.0031903838
0.0031673401
0.0031437578
0.0031195897
0.0030948208
0.0030694267
0.0030433769
0.0030166428
0.0029891922
0.0029609933
0.0029320157
0.0029022061
0.0028715114
0.0028398924
0.0028072989
0.0027736748
0.0027389666
0.0027031072
0.002666042
0.0026276936
0.0025879608
0.0025467694
0.002504026
0.0024596277
0.0024134682
0.0023654261
0.0023153819
0.0022631882
0.0022086731
0.0021516791
0.0020920184
0.0020294943
0.0019638869
0.0018949805
0.0018225057
0.0017461824
0.0016660894
0.0015827708
0.0014981274
0.001414446
0.0013323552
0.0012517356
0.0011725986
0.001094978
0.0010189179
0.00094449046
0.00087181508
0.00080103838
0.00073233655
0.0006659552
0.000602226
0.00054156262
0.00048459965
0.00043198344
0.00038527412
0.00034490291
0.0003169206
0.00029409196
0.00043454738
-0.00038716604
0.011711227
0.011817508
0.012038431
0.012317465
0.012657772
0.013058533
0.013516561
0.014031022
0.01460347
0.015237185
0.015937152
0.016710545
0.017567245
0.018521347
0.019591544
0.02080769
0.022204664
0.023861663
0.025828701
0.028413302
0.03149029
0.036856341
0.0418718
0.082866296
0.052467473
0.0015996571
0.00078583445
0.0018541116
0.0023673684
0.0027863839
0.0030501669
0.0032408917
0.0033801789
0.003477725
0.0035463136
0.003595495
0.0036308264
0.0036558457
0.0036729699
0.0036841978
0.0036908803
0.0036939341
0.0036940614
0.0036918601
0.0036877585
0.0036820208
0.0036749298
0.0036666809
0.0036574511
0.003647364
0.0036364948
0.0036249342
0.0036127505
0.0036000014
0.0035867472
0.0035730139
0.0035588144
0.0035441777
0.0035291245
0.0035136681
0.0034978224
0.0034816054
0.0034650115
0.0034480303
0.0034306679
0.0034129222
0.0033947912
0.0033762696
0.0033573554
0.0033380479
0.0033183233
0.0032981617
0.0032775565
0.003256494
0.0032349577
0.0032129355
0.0031904053
0.0031673606
0.0031437774
0.0031196084
0.0030948388
0.0030694439
0.0030433933
0.0030166584
0.0029892072
0.0029610076
0.0029320294
0.0029022192
0.0028715239
0.0028399044
0.0028073103
0.0027736857
0.002738977
0.0027031171
0.0026660514
0.0026277027
0.0025879694
0.0025467776
0.0025040338
0.0024596351
0.0024134753
0.0023654328
0.0023153883
0.0022631943
0.0022086789
0.0021516845
0.0020920235
0.0020294991
0.0019638915
0.0018949848
0.0018225097
0.0017461862
0.001666093
0.0015827742
0.0014981306
0.001414449
0.001332358
0.0012517383
0.0011726011
0.0010949804
0.0010189202
0.00094449265
0.00087181718
0.00080104039
0.00073233848
0.00066595705
0.00060222778
0.00054156434
0.00048460131
0.00043198506
0.0003852757
0.00034490446
0.00031692217
0.00029409347
0.0004345491
-0.00038716501
0.011711227
0.011817508
0.012038432
0.012317466
0.012657773
0.013058534
0.013516563
0.014031024
0.014603473
0.015237188
0.015937155
0.01671055
0.017567251
0.018521355
0.019591555
0.020807705
0.022204683
0.02386169
0.025828737
0.02841336
0.031490369
0.036856491
0.041872061
0.082841863
0.052506808
0.0016190572
0.00079183053
0.0018569975
0.0023691346
0.00278763
0.0030511095
0.0032416393
0.0033807901
0.0034782367
0.00354675
0.0035958726
0.0036311569
0.003656138
0.0036732304
0.0036844316
0.0036910915
0.0036941259
0.0036942364
0.0036920204
0.0036879059
0.0036821569
0.0036750558
0.0036667979
0.0036575599
0.0036474655
0.0036365896
0.0036250231
0.0036128338
0.0036000797
0.0035868209
0.0035730834
0.0035588799
0.0035442396
0.003529183
0.0035137235
0.0034978749
0.0034816552
0.0034650587
0.0034480752
0.0034307106
0.0034129628
0.0033948298
0.0033763064
0.0033573904
0.0033380814
0.0033183552
0.0032981921
0.0032775855
0.0032565218
0.0032349842
0.0032129608
0.0031904295
0.0031673837
0.0031437995
0.0031196295
0.0030948589
0.0030694631
0.0030434117
0.003016676
0.002989224
0.0029610237
0.0029320448
0.0029022339
0.0028715379
0.0028399178
0.0028073231
0.002773698
0.0027389887
0.0027031283
0.0026660621
0.0026277128
0.002587979
0.0025467868
0.0025040425
0.0024596434
0.0024134832
0.0023654404
0.0023153954
0.0022632011
0.0022086853
0.0021516906
0.0020920293
0.0020295046
0.0019638966
0.0018949897
0.0018225143
0.0017461905
0.001666097
0.001582778
0.0014981342
0.0014144524
0.0013323612
0.0012517413
0.001172604
0.0010949831
0.0010189228
0.00094449512
0.00087181954
0.00080104264
0.00073234064
0.00066595913
0.00060222978
0.00054156627
0.00048460318
0.00043198688
0.00038527748
0.00034490621
0.00031692394
0.00029409518
0.00043455105
-0.00038716386
0.011711228
0.011817508
0.012038432
0.012317467
0.012657774
0.013058536
0.013516564
0.014031026
0.014603475
0.015237191
0.01593716
0.016710556
0.017567259
0.018521365
0.019591568
0.020807722
0.022204706
0.023861721
0.025828779
0.028413427
0.031490459
0.036856664
0.041872364
0.082812858
0.052548549
0.0016408636
0.0007985656
0.0018602398
0.00237112
0.0027890307
0.0030521692
0.0032424797
0.0033814772
0.0034788118
0.0035472405
0.003596297
0.0036315285
0.0036564664
0.0036735232
0.0036846944
0.0036913289
0.0036943415
0.0036944331
0.0036922006
0.0036880717
0.0036823099
0.0036751974
0.0036669293
0.0036576822
0.0036475796
0.0036366963
0.0036251229
0.0036129275
0.0036001677
0.0035869038
0.0035731614
0.0035589536
0.0035443092
0.0035292488
0.0035137858
0.003497934
0.0034817112
0.0034651119
0.0034481258
0.0034307586
0.0034130085
0.0033948733
0.0033763478
0.0033574299
0.003338119
0.0033183911
0.0032982264
0.0032776182
0.0032565529
0.003235014
0.0032129893
0.0031904566
0.0031674097
0.0031438243
0.0031196532
0.0030948816
0.0030694848
0.0030434325
0.0030166958
0.002989243
0.0029610418
0.0029320621
0.0029022504
0.0028715537
0.0028399329
0.0028073375
0.0027737117
0.0027390018
0.0027031408