/*--------------------------------*- C++ -*----------------------------------*\
| =========                 |                                                 |
| \\      /  F ield         | OpenFOAM: The Open Source CFD Toolbox           |
|  \\    /   O peration     | Version:  2206                                  |
|   \\  /    A nd           | Website:  www.openfoam.com                      |
|    \\/     M anipulation  |                                                 |
\*---------------------------------------------------------------------------*/
FoamFile
{
    version     2.0;
    format      ascii;
    arch        "LSB;label=32;scalar=64";
    class       surfaceScalarField;
    location    "1100";
    object      phi;
}
// * * * * * * * * * * * * * * * * * * * * * * * * * * * * * * * * * * * * * //

dimensions      [0 3 -1 0 0 0 0];

oriented        oriented;

internalField   nonuniform List<scalar> 
25880
(
2.0046342e-06
1.9977425e-11
2.0045886e-06
4.5603452e-11
2.0045331e-06
5.5483218e-11
2.0044703e-06
6.2779597e-11
2.0043977e-06
7.2642663e-11
2.0043139e-06
8.3747041e-11
2.0042176e-06
9.6295023e-11
2.0041066e-06
1.1098777e-10
2.0039782e-06
1.2843038e-10
2.0038289e-06
1.4928717e-10
2.0036545e-06
1.7444267e-10
2.0034492e-06
2.0524164e-10
2.0032058e-06
2.4338374e-10
2.0029137e-06
2.9217432e-10
2.0025592e-06
3.5446243e-10
2.0021174e-06
4.4176428e-10
2.0015644e-06
5.5302265e-10
2.0008161e-06
7.4830855e-10
1.999859e-06
9.5712197e-10
1.9982852e-06
1.5737556e-09
1.9963141e-06
1.9711468e-09
1.9916137e-06
4.7004273e-09
1.9902515e-06
1.362119e-09
9.9964615e-07
9.906054e-07
4.4147536e-09
9.9523139e-07
2.1179091e-09
2.2968445e-09
1.6049096e-09
5.1299943e-10
1.3566159e-09
2.4829369e-10
1.2039604e-09
1.5265557e-10
1.0952393e-09
1.0872112e-10
1.0122334e-09
8.3005866e-11
9.4575229e-10
6.6481114e-11
8.9086338e-10
5.4888918e-11
8.4445289e-10
4.6410492e-11
8.0445617e-10
3.9996719e-11
7.6947436e-10
3.4981813e-11
7.3851431e-10
3.0960051e-11
7.1083932e-10
2.7674992e-11
6.8588773e-10
2.4951587e-11
6.6322501e-10
2.2662721e-11
6.4251076e-10
2.0714255e-11
6.2346742e-10
1.9043342e-11
6.0587138e-10
1.7596039e-11
5.8954207e-10
1.6329312e-11
5.7432551e-10
1.5216562e-11
5.6009332e-10
1.4232183e-11
5.4673684e-10
1.3356488e-11
5.3416343e-10
1.2573407e-11
5.2229375e-10
1.1869684e-11
5.1105923e-10
1.1234514e-11
5.0039999e-10
1.0659244e-11
4.9026356e-10
1.013643e-11
4.8060385e-10
9.6597148e-12
4.7138017e-10
9.2236812e-12
4.6255665e-10
8.8235149e-12
4.5410134e-10
8.4553104e-12
4.4598544e-10
8.1158988e-12
4.3818311e-10
7.8023313e-12
4.3067114e-10
7.5119754e-12
4.234285e-10
7.2426401e-12
4.1643618e-10
6.9923207e-12
4.0967706e-10
6.7591199e-12
4.0313551e-10
6.5415542e-12
3.9679707e-10
6.3384392e-12
3.9064851e-10
6.1485558e-12
3.8467774e-10
5.9707755e-12
3.7887359e-10
5.8041484e-12
3.7322575e-10
5.6478415e-12
3.6772473e-10
5.5010157e-12
3.6236189e-10
5.3628459e-12
3.5712911e-10
5.2327838e-12
3.520187e-10
5.1104041e-12
3.4702355e-10
4.9951504e-12
3.4213704e-10
4.8865159e-12
3.3735296e-10
4.7840817e-12
3.3266548e-10
4.6874768e-12
3.2806911e-10
4.5963716e-12
3.2355882e-10
4.51029e-12
3.1912992e-10
4.4289016e-12
3.1477777e-10
4.352148e-12
3.1049798e-10
4.2797927e-12
3.0628645e-10
4.2115231e-12
3.021393e-10
4.1471511e-12
2.9805281e-10
4.0864973e-12
2.9402341e-10
4.0294021e-12
2.9004773e-10
3.9756757e-12
2.8612266e-10
3.9250753e-12
2.8224513e-10
3.8775219e-12
2.7841212e-10
3.8330186e-12
2.7462069e-10
3.7914214e-12
2.708681e-10
3.7525969e-12
2.6715163e-10
3.7164685e-12
2.6346866e-10
3.6829699e-12
2.5981661e-10
3.6520476e-12
2.5619308e-10
3.6235346e-12
2.5259572e-10
3.5973633e-12
2.4902208e-10
3.5736335e-12
2.4546978e-10
3.552301e-12
2.419365e-10
3.5332874e-12
2.3841991e-10
3.5165896e-12
2.349177e-10
3.5022079e-12
2.3142756e-10
3.4901391e-12
2.2794725e-10
3.4803156e-12
2.2447449e-10
3.4727597e-12
2.2100689e-10
3.4675951e-12
2.1754204e-10
3.4648486e-12
2.140775e-10
3.4645401e-12
2.1061073e-10
3.466771e-12
2.0713913e-10
3.4716034e-12
2.0366006e-10
3.4790664e-12
2.0017035e-10
3.4897094e-12
1.9666792e-10
3.5024316e-12
1.9315098e-10
3.51694e-12
1.8976362e-10
3.3873618e-12
1.8657598e-10
3.1876432e-12
1.8356942e-10
3.006557e-12
1.8072949e-10
2.8399364e-12
1.7804239e-10
2.6870954e-12
1.7549493e-10
2.5474672e-12
1.7307518e-10
2.4197411e-12
1.7077244e-10
2.3027462e-12
1.6857697e-10
2.1954719e-12
1.6647998e-10
2.096983e-12
1.6447349e-10
2.0064963e-12
1.6255001e-10
1.9234752e-12
1.607025e-10
1.8475179e-12
1.5892406e-10
1.7784398e-12
1.5720794e-10
1.7161177e-12
1.5554655e-10
1.6613891e-12
1.5393252e-10
1.6140267e-12
1.5235294e-10
1.579582e-12
1.5080303e-10
1.5499108e-12
1.4923274e-10
1.5702886e-12
1.4772384e-10
1.5089046e-12
1.460016e-10
1.7222438e-12
1.0253278e-12
2.0345077e-06
4.0334349e-11
2.0344612e-06
9.208365e-11
2.0344047e-06
1.1204343e-10
2.0343407e-06
1.2677936e-10
2.0342666e-06
1.4669555e-10
2.0341812e-06
1.6911713e-10
2.0340831e-06
1.9445224e-10
2.03397e-06
2.2411641e-10
2.0338391e-06
2.5933115e-10
2.0336869e-06
3.0143726e-10
2.0335091e-06
3.5222003e-10
2.0333e-06
4.143936e-10
2.033052e-06
4.9138819e-10
2.0327543e-06
5.8987494e-10
2.0323931e-06
7.1560296e-10
2.0319431e-06
8.9181512e-10
2.0313797e-06
1.1163724e-09
2.0306175e-06
1.5105123e-09
2.0296427e-06
1.9319301e-09
2.0280401e-06
3.176343e-09
2.0260329e-06
3.9783703e-09
2.0212472e-06
9.4861624e-09
2.0198563e-06
2.7529677e-09
1.0209641e-06
1.9894976e-06
1.3469919e-08
2.0027256e-06
6.4802679e-09
9.2864955e-09
4.9107989e-09
2.0824685e-09
4.1510532e-09
1.0080393e-09
3.6839231e-09
6.1978573e-10
3.3512327e-09
4.4141144e-10
3.0972336e-09
3.37005e-10
2.8938019e-09
2.6991279e-10
2.7258421e-09
2.2284875e-10
2.583827e-09
1.8842563e-10
2.4614384e-09
1.6238534e-10
2.3543955e-09
1.4202469e-10
2.2596592e-09
1.2569637e-10
2.174975e-09
1.1235911e-10
2.0986245e-09
1.0130217e-10
2.0292777e-09
9.200947e-11
1.9658931e-09
8.4098841e-11
1.9076215e-09
7.731498e-11
1.8537785e-09
7.1439008e-11
1.8038116e-09
6.6296242e-11
1.7572496e-09
6.1778543e-11
1.7136998e-09
5.7782036e-11
1.6728295e-09
5.422678e-11
1.6343554e-09
5.104753e-11
1.5980346e-09
4.8190471e-11
1.5636574e-09
4.5611735e-11
1.5310404e-09
4.3276187e-11
1.5000232e-09
4.1153601e-11
1.4704648e-09
3.9218176e-11
1.4422405e-09
3.7447914e-11
1.4152408e-09
3.5823271e-11
1.3893677e-09
3.4328391e-11
1.3645332e-09
3.2950406e-11
1.3406582e-09
3.1677346e-11
1.3176716e-09
3.0498523e-11
1.2955092e-09
2.9405042e-11
1.2741128e-09
2.8388763e-11
1.2534299e-09
2.7441986e-11
1.2334128e-09
2.6558685e-11
1.2140172e-09
2.5734053e-11
1.1952026e-09
2.4963139e-11
1.176932e-09
2.4241364e-11
1.1591713e-09
2.3564869e-11
1.1418889e-09
2.2930273e-11
1.1250557e-09
2.2334169e-11
1.1086454e-09
2.1773209e-11
1.092633e-09
2.1245166e-11
1.0769951e-09
2.0748311e-11
1.0617098e-09
2.0280388e-11
1.046757e-09
1.9839338e-11
1.0321176e-09
1.9423461e-11
1.0177739e-09
1.9031251e-11
1.0037089e-09
1.8661368e-11
9.8990727e-10
1.8311881e-11
9.7635472e-10
1.7981449e-11
9.6303703e-10
1.7669833e-11
9.4994075e-10
1.7376074e-11
9.3705337e-10
1.7098903e-11
9.2436297e-10
1.6837556e-11
9.1185816e-10
1.6591304e-11
8.9952806e-10
1.63595e-11
8.8736237e-10
1.6141373e-11
8.7535151e-10
1.5935938e-11
8.6348616e-10
1.5742873e-11
8.5175698e-10
1.5562192e-11
8.401551e-10
1.5393309e-11
8.2867201e-10
1.5235683e-11
8.1729948e-10
1.5089003e-11
8.0602945e-10
1.4953001e-11
7.9485404e-10
1.4827457e-11
7.8376588e-10
1.4711696e-11
7.727578e-10
1.4605442e-11
7.6182233e-10
1.4509101e-11
7.5095214e-10
1.4422492e-11
7.4014013e-10
1.4345299e-11
7.2937921e-10
1.4277507e-11
7.186623e-10
1.421912e-11
7.0798232e-10
1.4170122e-11
6.9733239e-10
1.4130241e-11
6.8670559e-10
1.4099567e-11
6.7609458e-10
1.4078601e-11
6.6549198e-10
1.4067454e-11
6.5489031e-10
1.4066205e-11
6.4428182e-10
1.4075266e-11
6.3365853e-10
1.4094891e-11
6.230124e-10
1.4125196e-11
6.123337e-10
1.4168414e-11
6.0161605e-10
1.4220074e-11
5.9085399e-10
1.4278999e-11
5.8048843e-10
1.3752927e-11
5.70734e-10
1.2942069e-11
5.615337e-10
1.2206865e-11
5.5284324e-10
1.1530397e-11
5.4462046e-10
1.0909873e-11
5.3682494e-10
1.034299e-11
5.2942025e-10
9.8244275e-12
5.2237357e-10
9.3494318e-12
5.1565514e-10
8.9139006e-12
5.0923808e-10
8.5140371e-12
5.0309792e-10
8.1466618e-12
4.972118e-10
7.8095956e-12
4.9155811e-10
7.5012081e-12
4.861158e-10
7.220749e-12
4.808642e-10
6.9677185e-12
4.7578007e-10
6.7455165e-12
4.7084088e-10
6.5532175e-12
4.660071e-10
6.4133644e-12
4.6126414e-10
6.2928747e-12
4.5645882e-10
6.3756045e-12
4.5184195e-10
6.1257725e-12
4.4656725e-10
6.9969512e-12
4.1561e-12
2.0947e-06
6.1400752e-11
2.0946519e-06
1.4019813e-10
2.0945933e-06
1.7060647e-10
2.0945271e-06
1.9304744e-10
2.0944504e-06
2.2337089e-10
2.094362e-06
2.5750678e-10
2.0942604e-06
2.9607591e-10
2.0941433e-06
3.4123294e-10
2.0940078e-06
3.9483696e-10
2.0938503e-06
4.5892838e-10
2.0936663e-06
5.3622377e-10
2.0934498e-06
6.3085318e-10
2.0931932e-06
7.480359e-10
2.0928851e-06
8.9792302e-10
2.0925115e-06
1.0892607e-09
2.0920459e-06
1.3574162e-09
2.0914631e-06
1.6991247e-09
2.0906747e-06
2.2988632e-09
2.0896666e-06
2.9400593e-09
2.0880096e-06
4.8333906e-09
2.0859342e-06
6.0537166e-09
2.0809869e-06
1.4433475e-08
2.0795448e-06
4.1950342e-09
1.0578828e-06
3.0111597e-06
2.3290284e-08
3.0373181e-06
1.1230127e-08
2.1346652e-08
8.5105005e-09
4.8020952e-09
7.1938587e-09
2.3246811e-09
6.3842628e-09
1.4293817e-09
5.8076703e-09
1.018004e-09
5.3674595e-09
7.7721578e-10
5.01489e-09
6.2248228e-10
4.723797e-09
5.1394179e-10
4.4776695e-09
4.3455312e-10
4.2655574e-09
3.7449743e-10
4.0800413e-09
3.2754077e-10
3.9158538e-09
2.8988388e-10
3.7690877e-09
2.5912517e-10
3.6367645e-09
2.336254e-10
3.5165795e-09
2.1219443e-10
3.4067275e-09
1.9395091e-10
3.3057366e-09
1.783058e-10
3.2124211e-09
1.6475454e-10
3.125823e-09
1.5289437e-10
3.0451259e-09
1.424756e-10
2.9696491e-09
1.3325883e-10
2.8988162e-09
1.2505968e-10
2.8321361e-09
1.1772768e-10
2.7691879e-09
1.1113871e-10
2.709608e-09
1.0519162e-10
2.6530788e-09
9.980537e-11
2.5993221e-09
9.4910249e-11
2.5480936e-09
9.044676e-11
2.4991773e-09
8.6364167e-11
2.4523832e-09
8.2617405e-11
2.4075417e-09
7.9169902e-11
2.3645001e-09
7.5991981e-11
2.3231214e-09
7.3056037e-11
2.2832825e-09
7.0337424e-11
2.2448719e-09
6.7815625e-11
2.2077888e-09
6.5471869e-11
2.1719424e-09
6.32884e-11
2.1372497e-09
6.1251321e-11
2.1036343e-09
5.9349541e-11
2.0710257e-09
5.7571649e-11
2.03936e-09
5.5907077e-11
2.008578e-09
5.4346932e-11
1.9786248e-09
5.2883415e-11
1.9494503e-09
5.1508669e-11
1.9210086e-09
5.0214972e-11
1.8932565e-09
4.8997187e-11
1.8661535e-09
4.7851331e-11
1.8396617e-09
4.6772195e-11
1.813746e-09
4.5755035e-11
1.7883736e-09
4.4795929e-11
1.7635134e-09
4.3891402e-11
1.7391364e-09
4.3038367e-11
1.7152159e-09
4.2232372e-11
1.691727e-09
4.1470321e-11
1.6686452e-09
4.0751663e-11
1.6459471e-09
4.0074186e-11
1.623611e-09
3.9434964e-11
1.6016164e-09
3.8832237e-11
1.5799433e-09
3.8264323e-11
1.5585731e-09
3.7729728e-11
1.5374878e-09
3.7226676e-11
1.5166709e-09
3.6752894e-11
1.4961061e-09
3.6307643e-11
1.4757773e-09
3.5890948e-11
1.4556692e-09
3.5501464e-11
1.4357669e-09
3.5137942e-11
1.4160563e-09
3.4799663e-11
1.3965232e-09
3.448601e-11
1.3771542e-09
3.4196478e-11
1.3579364e-09
3.3929506e-11
1.3388574e-09
3.3684462e-11
1.3199042e-09
3.3462277e-11
1.3010642e-09
3.3262539e-11
1.282325e-09
3.3084515e-11
1.2636743e-09
3.2928175e-11
1.2450999e-09
3.2793523e-11
1.2265895e-09
3.2680527e-11
1.2081312e-09
3.2588557e-11
1.1897129e-09
3.2517822e-11
1.171322e-09
3.2469479e-11
1.1529457e-09
3.2443779e-11
1.134571e-09
3.244091e-11
1.1161844e-09
3.246182e-11
1.0977722e-09
3.2507093e-11
1.0793204e-09
3.2577004e-11
1.0608121e-09
3.2676698e-11
1.0422364e-09
3.2795866e-11
1.0235835e-09
3.2931811e-11
1.0056179e-09
3.1718585e-11
9.8871141e-10
2.9848543e-11
9.7276529e-10
2.8152989e-11
9.5770278e-10
2.6592909e-11
9.434508e-10
2.5161844e-11
9.2993931e-10
2.3854483e-11
9.1710518e-10
2.2658557e-11
9.0489151e-10
2.1563102e-11
8.9324675e-10
2.055866e-11
8.8212431e-10
1.9636475e-11
8.7148176e-10
1.8789213e-11
8.6127951e-10
1.8011851e-11
8.5148009e-10
1.7300629e-11
8.4204702e-10
1.6653816e-11
8.3294448e-10
1.607026e-11
8.2413219e-10
1.5557802e-11
8.155711e-10
1.5114306e-11
8.0719271e-10
1.4791759e-11
7.9897172e-10
1.4513862e-11
7.9064269e-10
1.4704633e-11
7.8264058e-10
1.4127888e-11
7.7349479e-10
1.6142738e-11
9.5780351e-12
2.1861081e-06
8.3524557e-11
2.1860576e-06
1.9074668e-10
2.185996e-06
2.3215086e-10
2.1859264e-06
2.6269187e-10
2.1858458e-06
3.0394993e-10
2.1857529e-06
3.5039177e-10
2.1856461e-06
4.0286096e-10
2.1855231e-06
4.642882e-10
2.1853807e-06
5.3720185e-10
2.1852152e-06
6.2437631e-10
2.185022e-06
7.295052e-10
2.1847946e-06
8.5820392e-10
2.1845251e-06
1.0175683e-09
2.1842016e-06
1.2214e-09
2.1838093e-06
1.4815872e-09
2.1833205e-06
1.8462164e-09
2.1827088e-06
2.3108314e-09
2.1818814e-06
3.1262476e-09
2.1808235e-06
3.9979487e-09
2.1790851e-06
6.5718085e-09
2.1769079e-06
8.2308617e-09
2.1717191e-06
1.9622328e-08
2.1702011e-06
5.7130407e-09
1.1112593e-06
4.0701014e-06
3.4456959e-08
4.1141204e-06
1.6651593e-08
3.9152018e-08
1.2619326e-08
8.8343619e-09
1.0667036e-08
4.2769716e-09
9.4664761e-09
2.6299411e-09
8.6114452e-09
1.8730349e-09
7.9586536e-09
1.4300074e-09
7.4358281e-09
1.1453078e-09
7.0041655e-09
9.4560438e-10
6.6391827e-09
7.9953596e-10
6.3246418e-09
6.8903832e-10
6.0495402e-09
6.0264232e-10
5.8060666e-09
5.3335747e-10
5.5884271e-09
4.7676469e-10
5.3922046e-09
4.2984787e-10
5.2139818e-09
3.9041726e-10
5.0510813e-09
3.5685139e-10
4.9013211e-09
3.2806602e-10
4.7629425e-09
3.0313321e-10
4.6345247e-09
2.8131208e-10
4.5148576e-09
2.6214272e-10
4.4029315e-09
2.4518494e-10
4.2978917e-09
2.3009946e-10
4.19901e-09
2.1660943e-10
4.1056622e-09
2.0448652e-10
4.0173092e-09
1.9354456e-10
3.9334801e-09
1.8363448e-10
3.8537623e-09
1.7462802e-10
3.7777934e-09
1.6641571e-10
3.7052534e-09
1.589042e-10
3.6358602e-09
1.5201058e-10
3.5693625e-09
1.4566756e-10
3.505534e-09
1.3982054e-10
3.4441713e-09
1.3441873e-10
3.3850919e-09
1.2941677e-10
3.3281306e-09
1.2477693e-10
3.2731378e-09
1.2046467e-10
3.2199789e-09
1.1644732e-10
3.1685309e-09
1.1269931e-10
3.1186802e-09
1.0920023e-10
3.0703228e-09
1.0592909e-10
3.0233634e-09
1.0286645e-10
2.9777144e-09
9.999594e-11
2.9332946e-09
9.7303213e-11
2.8900294e-09
9.4773815e-11
2.8478509e-09
9.239354e-11
2.8066951e-09
9.0152934e-11
2.7665018e-09
8.8044666e-11
2.7272148e-09
8.6059157e-11
2.6887822e-09
8.4187678e-11
2.6511551e-09
8.242301e-11
2.6142877e-09
8.0758762e-11
2.5781369e-09
7.9189254e-11
2.5426629e-09
7.7706294e-11
2.5078291e-09
7.6304189e-11
2.4735988e-09
7.498192e-11
2.4399376e-09
7.373542e-11
2.4068132e-09
7.2559307e-11
2.3741951e-09
7.1450338e-11
2.342054e-09
7.0405423e-11
2.310362e-09
6.9421813e-11
2.2790924e-09
6.8496236e-11
2.2482208e-09
6.7624516e-11
2.2177231e-09
6.6805292e-11
2.1875755e-09
6.6038606e-11
2.1577549e-09
6.5321988e-11
2.1282397e-09
6.4653136e-11
2.0990087e-09
6.4030732e-11
2.070041e-09
6.3453636e-11
2.0413166e-09
6.2920922e-11
2.0128164e-09
6.2429717e-11
1.984522e-09
6.1978858e-11
1.9564142e-09
6.157006e-11
1.9284742e-09
6.1202564e-11
1.9006837e-09
6.087502e-11
1.8730245e-09
6.0587376e-11
1.8454784e-09
6.0339636e-11
1.8180272e-09
6.0131744e-11
1.7906532e-09
5.9962541e-11
1.7633386e-09
5.9832411e-11
1.7360646e-09
5.9743482e-11
1.7088121e-09
5.969622e-11
1.6815621e-09
5.9690968e-11
1.6542944e-09
5.9729474e-11
1.6269887e-09
5.9812811e-11
1.5996242e-09
5.9941489e-11
1.5721759e-09
6.0124978e-11
1.5446275e-09
6.0344307e-11
1.5169648e-09
6.0594549e-11
1.490321e-09
5.8362352e-11
1.4652479e-09
5.4921605e-11
1.441599e-09
5.1801936e-11
1.4192604e-09
4.8931548e-11
1.3981237e-09
4.6298528e-11
1.378085e-09
4.3893102e-11
1.3590509e-09
4.1692697e-11
1.3409369e-09
3.9677144e-11
1.3236665e-09
3.7829042e-11
1.3071707e-09
3.6132281e-11
1.2913865e-09
3.4573374e-11
1.2762553e-09
3.3143075e-11
1.2617215e-09
3.1834468e-11
1.2477309e-09
3.0644372e-11
1.2342305e-09
2.9570667e-11
1.2211605e-09
2.8627778e-11
1.208463e-09
2.7811777e-11
1.1960365e-09
2.7218309e-11
1.1838434e-09
2.6707007e-11
1.17149e-09
2.7057979e-11
1.1596214e-09
2.5996473e-11
1.1460545e-09
2.9709682e-11
1.7616995e-11
2.3100941e-06
1.0707979e-10
2.3100403e-06
2.4459056e-10
2.3099747e-06
2.9773185e-10
2.3099005e-06
3.3690778e-10
2.3098146e-06
3.8981448e-10
2.3097156e-06
4.4936333e-10
2.3096019e-06
5.1663437e-10
2.3094708e-06
5.9538433e-10
2.3093191e-06
6.8885368e-10
2.3091429e-06
8.0059747e-10
2.3089371e-06
9.3534821e-10
2.308695e-06
1.1003007e-09
2.308408e-06
1.3045458e-09
2.3080636e-06
1.5657666e-09
2.307646e-06
1.89919e-09
2.3071258e-06
2.3664263e-09
2.3064749e-06
2.9617403e-09
2.3055947e-06
4.00648e-09
2.3044694e-06
5.1232091e-09
2.3026208e-06
8.4203916e-09
2.3003059e-06
1.0545832e-08
2.29479e-06
2.5138172e-08
2.2931692e-06
7.3338326e-09
1.1822334e-06
5.1810373e-06
4.7626575e-08
5.2487273e-06
2.3068919e-08
6.3709674e-08
1.7483046e-08
1.4420234e-08
1.4778324e-08
6.9816938e-09
1.3114891e-08
4.2933742e-09
1.1930211e-08
3.0577147e-09
1.1025738e-08
2.3344809e-09
1.0301341e-08
1.8697046e-09
9.7032526e-09
1.5436926e-09
9.197552e-09
1.3052366e-09
8.7617413e-09
1.1248491e-09
8.3805754e-09
9.8380821e-10
8.043231e-09
8.7070182e-10
7.7416805e-09
7.7831526e-10
7.4698038e-09
7.0172457e-10
7.222866e-09
6.3735504e-10
6.9971575e-09
5.8255983e-10
6.7896553e-09
5.3556824e-10
6.5979225e-09
4.9486601e-10
6.4199907e-09
4.5924392e-10
6.254183e-09
4.2795042e-10
6.0991006e-09
4.002673e-10
5.9535594e-09
3.7564067e-10
5.8165503e-09
3.5361855e-10
5.6872086e-09
3.3382821e-10
5.5647874e-09
3.1596576e-10
5.4486341e-09
2.9978779e-10
5.3381772e-09
2.8508495e-10
5.2329143e-09
2.7167854e-10
5.1324024e-09
2.5941615e-10
5.0362505e-09
2.4816247e-10
4.9441104e-09
2.3780762e-10
4.8556685e-09
2.2826246e-10
4.7706432e-09
2.1944408e-10
4.6887815e-09
2.1127847e-10
4.6098544e-09
2.03704e-10
4.5336548e-09
1.9666429e-10
4.4599961e-09
1.9010601e-10
4.388708e-09
1.8398743e-10
4.319633e-09
1.7827522e-10
4.252627e-09
1.7293511e-10
4.1875581e-09
1.6793536e-10
4.1243047e-09
1.6324927e-10
4.0627545e-09
1.5885341e-10
4.0028042e-09
1.5472417e-10
3.9443593e-09
1.5083838e-10
3.8873317e-09
1.4718059e-10
3.8316375e-09
1.4373885e-10
3.7771992e-09
1.404975e-10
3.7239445e-09
1.374423e-10
3.6718061e-09
1.3456147e-10
3.6207202e-09
1.3184458e-10
3.5706272e-09
1.2928235e-10
3.521472e-09
1.268614e-10
3.4732038e-09
1.2457245e-10
3.4257719e-09
1.2241384e-10
3.3791284e-09
1.2037891e-10
3.3332288e-09
1.1845889e-10
3.2880307e-09
1.1664848e-10
3.2434934e-09
1.1494264e-10
3.1995784e-09
1.1333688e-10
3.1562487e-09
1.1182586e-10
3.1134705e-09
1.1040277e-10
3.0712104e-09
1.0906537e-10
3.0294353e-09
1.0781374e-10
2.9881134e-09
1.0664385e-10
2.9472146e-09
1.0555194e-10
2.9067095e-09
1.0453586e-10
2.8665694e-09
1.0359374e-10
2.8267662e-09
1.0272408e-10
2.7872738e-09
1.0192218e-10
2.7480665e-09
1.0118615e-10
2.7091177e-09
1.0051879e-10
2.6704014e-09
9.9918859e-11
2.6318923e-09
9.9384151e-11
2.5935651e-09
9.8914584e-11
2.5553946e-09
9.8510165e-11
2.5173555e-09
9.8170803e-11
2.4794234e-09
9.7894605e-11
2.4415736e-09
9.7682201e-11
2.4037801e-09
9.7537065e-11
2.3660163e-09
9.7459958e-11
2.3282559e-09
9.7451442e-11
2.290471e-09
9.7514374e-11
2.2526333e-09
9.7650506e-11
2.2147141e-09
9.7860675e-11
2.1766787e-09
9.8160353e-11
2.1385044e-09
9.8518564e-11
2.1001717e-09
9.8927317e-11
2.0632507e-09
9.5283293e-11
2.0285061e-09
8.9666186e-11
1.9957348e-09
8.457331e-11
1.9647789e-09
7.9887423e-11
1.9354884e-09
7.5589025e-11
1.9077194e-09
7.1662152e-11
1.8813421e-09
6.8069957e-11
1.8562397e-09
6.4779524e-11
1.8323063e-09
6.1762446e-11
1.8094462e-09
5.8992429e-11
1.7875721e-09
5.6447457e-11
1.7666027e-09
5.4112443e-11
1.7464611e-09
5.1976094e-11
1.7270722e-09
5.0033222e-11
1.7083625e-09
4.828037e-11
1.6902492e-09
4.6741086e-11
1.672652e-09
4.5408967e-11
1.6554302e-09
4.4440133e-11
1.6385317e-09
4.3605488e-11
1.6214113e-09
4.4178452e-11
1.6049621e-09
4.2445599e-11
1.5861578e-09
4.8514019e-11
2.8756366e-11
2.4685058e-06
1.3247581e-10
2.4684477e-06
3.0267447e-10
2.4683769e-06
3.6850885e-10
2.4682968e-06
4.1700853e-10
2.4682041e-06
4.8248275e-10
2.4680973e-06
5.5616929e-10
2.4679746e-06
6.3940227e-10
2.4678331e-06
7.3682867e-10
2.4676695e-06
8.5245617e-10
2.4674794e-06
9.9068036e-10
2.4672574e-06
1.1573521e-09
2.4669964e-06
1.3613666e-09
2.466687e-06
1.6139616e-09
2.4663157e-06
1.9369984e-09
2.4658656e-06
2.3492944e-09
2.465305e-06
2.9270182e-09
2.4646037e-06
3.6630411e-09
2.4636556e-06
4.9546309e-09
2.4624437e-06
6.335038e-09
2.4604537e-06
1.0410486e-08
2.4579616e-06
1.3037837e-08
2.4520259e-06
3.1073882e-08
2.4502727e-06
9.0871012e-09
1.2722635e-06
6.3590464e-06
6.356957e-08
6.4574212e-06
3.0865894e-08
9.641335e-08
2.3392579e-08
2.189355e-08
1.9773627e-08
1.0600646e-08
1.7547686e-08
6.519315e-09
1.5962402e-08
4.6429985e-09
1.4752069e-08
3.5448138e-09
1.3782711e-08
2.8390632e-09
1.2982371e-08
2.3440327e-09
1.2305659e-08
1.981948e-09
1.1722472e-08
1.7080363e-09
1.1212408e-08
1.4938722e-09
1.0760983e-08
1.3221263e-09
1.0357456e-08
1.1818426e-09
9.9936365e-09
1.0655441e-09
9.6631887e-09
9.6780286e-10
9.3611485e-09
8.8460001e-10
9.0834709e-09
8.1324589e-10
8.826895e-09
7.5144191e-10
8.5887864e-09
6.9735245e-10
8.3669017e-09
6.4983516e-10
8.159369e-09
6.0780002e-10
7.9646037e-09
5.7040597e-10
7.7812555e-09
5.3696672e-10
7.6081674e-09
5.0691627e-10
7.44434e-09
4.7979319e-10
7.2888999e-09
4.5522788e-10
7.1410824e-09
4.3290244e-10
7.0002154e-09
4.1254553e-10
6.8657058e-09
3.9392575e-10
6.7370307e-09
3.7683761e-10
6.613724e-09
3.611143e-10
6.495366e-09
3.4662045e-10
6.3815799e-09
3.3323017e-10
6.2720273e-09
3.2083107e-10
6.1664018e-09
3.0932957e-10
6.064426e-09
2.9864007e-10
5.9658504e-09
2.8868161e-10
5.870447e-09
2.793908e-10
5.7780052e-09
2.7071703e-10
5.688332e-09
2.6260827e-10
5.6012511e-09
2.5501634e-10
5.5165997e-09
2.4790068e-10
5.4342274e-09
2.412257e-10
5.3539959e-09
2.3495559e-10
5.2757792e-09
2.2905513e-10
5.1994589e-09
2.2350089e-10
5.1249231e-09
2.1827469e-10
5.0520678e-09
2.1335279e-10
4.9807965e-09
2.0871354e-10
4.9110189e-09
2.0433907e-10
4.84265e-09
2.0021353e-10
4.7756095e-09
1.9632282e-10
4.7098242e-09
1.9264666e-10
4.6452258e-09
1.8917094e-10
4.5817465e-09
1.8589311e-10
4.5193223e-09
1.828031e-10
4.4578936e-09
1.7988758e-10
4.3974036e-09
1.771385e-10
4.337798e-09
1.745482e-10
4.279025e-09
1.7210987e-10
4.2210355e-09
1.698154e-10
4.1637838e-09
1.6765444e-10
4.1072256e-09
1.6562362e-10
4.0513163e-09
1.6372303e-10
3.9960136e-09
1.6194656e-10
3.941277e-09
1.602885e-10
3.8870673e-09
1.5874559e-10
3.833346e-09
1.57315e-10
3.7800757e-09
1.5599443e-10
3.7272211e-09
1.5477676e-10
3.6747481e-09
1.5365912e-10
3.6226212e-09
1.5264576e-10
3.5708053e-09
1.5173478e-10
3.5192665e-09
1.5092286e-10
3.4679713e-09
1.5020986e-10
3.4168856e-09
1.4959579e-10
3.3659759e-09
1.4908052e-10
3.3152094e-09
1.4866117e-10
3.2645529e-09
1.4833871e-10
3.2139715e-09
1.481184e-10
3.1634301e-09
1.4800141e-10
3.1128929e-09
1.4798859e-10
3.062323e-09
1.4808428e-10
3.0116824e-09
1.4829115e-10
2.9609326e-09
1.4861048e-10
2.9100271e-09
1.4906579e-10
2.8589357e-09
1.4961003e-10
2.8076318e-09
1.5023113e-10
2.7582173e-09
1.4469784e-10
2.7117152e-09
1.3616827e-10
2.6678537e-09
1.2843486e-10
2.6264216e-09
1.2131951e-10
2.5872181e-09
1.1479253e-10
2.5500506e-09
1.0882965e-10
2.5147456e-09
1.0337494e-10
2.4811467e-09
9.837843e-11
2.4491121e-09
9.3796988e-11
2.4185139e-09
8.9590694e-11
2.3892352e-09
8.5726123e-11
2.3611673e-09
8.2180374e-11
2.3342071e-09
7.8936304e-11
2.3082542e-09
7.5986042e-11
2.2832103e-09
7.3324343e-11
2.2589644e-09
7.0986969e-11
2.2354091e-09
6.8964211e-11
2.2123562e-09
6.7493106e-11
2.1897358e-09
6.6225873e-11
2.1668182e-09
6.7096011e-11
2.1447984e-09
6.4465446e-11
2.1196248e-09
7.3687561e-11
4.366633e-11
2.6637037e-06
1.6016809e-10
2.6636403e-06
3.6605196e-10
2.663563e-06
4.4577738e-10
2.6634756e-06
5.0446206e-10
2.6633744e-06
5.8365127e-10
2.6632578e-06
6.7276225e-10
2.6631238e-06
7.7340494e-10
2.6629695e-06
8.911967e-10
2.6627909e-06
1.0309811e-09
2.6625835e-06
1.1980688e-09
2.6623414e-06
1.3995281e-09
2.6620566e-06
1.6461049e-09
2.6617192e-06
1.9513729e-09
2.6613145e-06
2.3417412e-09
2.6608238e-06
2.8399313e-09
2.6602129e-06
3.5379562e-09
2.6594488e-06
4.4271508e-09
2.658416e-06
5.9874065e-09
2.6570964e-06
7.6546968e-09
2.6549301e-06
1.2576755e-08
2.6522177e-06
1.5750219e-08
2.6457596e-06
3.7531963e-08
2.6438405e-06
1.100626e-08
1.3831709e-06
7.619716e-06
8.3214113e-08
7.7573779e-06
4.0508785e-08
1.3911868e-07
3.0701386e-08
3.1700948e-08
2.5951712e-08
1.535032e-08
2.3029932e-08
9.4410954e-09
2.0949091e-08
6.7238397e-09
1.9360396e-08
5.1335086e-09
1.8088009e-08
4.1114504e-09
1.7037471e-08
3.3945699e-09
1.6149209e-08
2.8702105e-09
1.5383707e-08
2.4735384e-09
1.4714186e-08
2.1633927e-09
1.4121636e-08
1.914677e-09
1.3591954e-08
1.7115243e-09
1.3114392e-08
1.5431059e-09
1.2680634e-08
1.4015614e-09
1.2284162e-08
1.2810714e-09
1.1919669e-08
1.1777393e-09
1.1582873e-08
1.0882374e-09
1.1270318e-08
1.009908e-09
1.0979057e-08
9.4109575e-10
1.0706635e-08
8.8022231e-10
1.0450971e-08
8.2606991e-10
1.0210293e-08
7.7764462e-10
9.9830826e-09
7.3412683e-10
9.7680274e-09
6.948483e-10
9.5639815e-09
6.592738e-10
9.369941e-09
6.2694293e-10
9.1850238e-09
5.9746278e-10
9.0084513e-09
5.7049825e-10
8.8395371e-09
5.4575179e-10
8.6776696e-09
5.229818e-10
8.5222978e-09
5.0199223e-10
8.3729272e-09
4.826008e-10
8.2291135e-09
4.6464476e-10
8.0904545e-09
4.4798857e-10
7.9565863e-09
4.3250828e-10
7.8271813e-09
4.1808665e-10
7.7019402e-09
4.0463189e-10
7.5805865e-09
3.9207069e-10
7.4628671e-09
3.8032772e-10
7.3485502e-09
3.6933319e-10
7.2374225e-09
3.5902837e-10
7.1292865e-09
3.4936175e-10
7.0239606e-09
3.4028142e-10
6.9212793e-09
3.3173642e-10
6.8210874e-09
3.2369281e-10
6.7232379e-09
3.1612425e-10
6.6275943e-09
3.0899636e-10
6.53403e-09
3.0227781e-10
6.4424264e-09
2.9594269e-10
6.3526719e-09
2.8996807e-10
6.2646612e-09
2.8433353e-10
6.1782981e-09
2.7900969e-10
6.0934929e-09
2.7397612e-10
6.0101569e-09
2.6922915e-10
5.9282058e-09
2.6475416e-10
5.8475616e-09
2.6053186e-10
5.7681495e-09
2.565506e-10
5.6898984e-09
2.527993e-10
5.6127402e-09
2.4926807e-10
5.5366104e-09
2.4594518e-10
5.4614492e-09
2.4281563e-10
5.3871983e-09
2.3987456e-10
5.3137992e-09
2.371221e-10
5.2411964e-09
2.3454938e-10
5.1693367e-09
2.3214815e-10
5.0981686e-09
2.2991368e-10
5.0276417e-09
2.2784188e-10
4.9577067e-09
2.2592942e-10
4.8883175e-09
2.2416599e-10
4.8194292e-09
2.2254743e-10
4.7509951e-09
2.2107988e-10
4.6829692e-09
2.1976063e-10
4.6153073e-09
2.1858483e-10
4.5479648e-09
2.1755231e-10
4.4808975e-09
2.1666308e-10
4.4140611e-09
2.1591693e-10
4.3474126e-09
2.1530972e-10
4.2809084e-09
2.1484284e-10
4.2145029e-09
2.1452393e-10
4.1481496e-09
2.1435467e-10
4.0818019e-09
2.143363e-10
4.0154111e-09
2.1447512e-10
3.9489272e-09
2.14775e-10
3.8822999e-09
2.152378e-10
3.8154681e-09
2.1589762e-10
3.7483918e-09
2.1668631e-10
3.6810364e-09
2.1758653e-10
3.6161609e-09
2.0957333e-10
3.5551086e-09
1.972206e-10
3.4975224e-09
1.8602109e-10
3.4431252e-09
1.7571674e-10
3.3916533e-09
1.6626442e-10
3.342854e-09
1.5762895e-10
3.2964995e-09
1.4972936e-10
3.2523847e-09
1.4249329e-10
3.2103234e-09
1.3585831e-10
3.1701475e-09
1.2976659e-10
3.1317038e-09
1.2416976e-10
3.0948495e-09
1.1903467e-10
3.0594494e-09
1.1433648e-10
3.0253716e-09
1.1006382e-10
2.9924868e-09
1.062091e-10
2.9606497e-09
1.0282412e-10
2.929719e-09
9.9894844e-11
2.8994476e-09
9.7764515e-11
2.8697439e-09
9.5929634e-11
2.8396498e-09
9.7190085e-11
2.810733e-09
9.3382298e-11
2.7776743e-09
1.0674622e-10
6.3244452e-11
2.8985968e-06
1.9067073e-10
2.8985269e-06
4.3591559e-10
2.8984417e-06
5.3100704e-10
2.8983452e-06
6.0093407e-10
2.8982336e-06
6.9524465e-10
2.898105e-06
8.0135657e-10
2.8979572e-06
9.2118198e-10
2.897787e-06
1.0614066e-09
2.8975902e-06
1.2277937e-09
2.8973616e-06
1.4266604e-09
2.8970947e-06
1.666413e-09
2.896781e-06
1.9598315e-09
2.8964093e-06
2.3230568e-09
2.8959636e-06
2.7874963e-09
2.8954233e-06
3.3801572e-09
2.8947508e-06
4.2104678e-09
2.8939099e-06
5.2680473e-09
2.8927738e-06
7.1235918e-09
2.8913224e-06
9.1060687e-09
2.8889411e-06
1.4958064e-08
2.8859597e-06
1.8731565e-08
2.8788646e-06
4.4627112e-08
2.8767413e-06
1.3129536e-08
1.5171924e-06
8.9792649e-06
1.0769846e-07
9.1668719e-06
5.2574205e-08
1.9424294e-07
3.9846611e-08
4.4428542e-08
3.3682082e-08
2.1514849e-08
2.9889439e-08
1.3233739e-08
2.7188396e-08
9.4248828e-09
2.5126164e-08
7.1957407e-09
2.3474522e-08
5.7630921e-09
2.2110849e-08
4.7582431e-09
2.0957816e-08
4.0232434e-09
1.9964134e-08
3.4672202e-09
1.9095042e-08
3.0324853e-09
1.8325859e-08
2.6838595e-09
1.7638283e-08
2.3991001e-09
1.7018361e-08
2.163028e-09
1.6455297e-08
1.9646253e-09
1.5940634e-08
1.7957352e-09
1.5467479e-08
1.6508943e-09
1.5030277e-08
1.5254392e-09
1.4624539e-08
1.4156458e-09
1.4246443e-08
1.3191917e-09
1.38928e-08
1.2338653e-09
1.356091e-08
1.1579598e-09
1.3248473e-08
1.0900819e-09
1.2953517e-08
1.0290828e-09
1.2674339e-08
9.7402588e-10
1.2409452e-08
9.2416081e-10
1.2157553e-08
8.7884232e-10
1.1917496e-08
8.3751963e-10
1.1688271e-08
7.9972308e-10
1.1468987e-08
7.6503558e-10
1.1258851e-08
7.3311851e-10
1.1057146e-08
7.0369704e-10
1.0863231e-08
6.7651565e-10
1.067653e-08
6.5134625e-10
1.0496519e-08
6.2799885e-10
1.0322728e-08
6.062997e-10
1.015473e-08
5.8608448e-10
9.9921374e-09
5.6722454e-10
9.8345909e-09
5.496171e-10
9.6817621e-09
5.3315656e-10
9.5333502e-09
5.1774512e-10
9.3890781e-09
5.0330045e-10
9.2486895e-09
4.8975034e-10
9.1119489e-09
4.7702205e-10
8.9786412e-09
4.6504414e-10
8.8485649e-09
4.5376905e-10
8.7215293e-09
4.4315983e-10
8.5973574e-09
4.3316829e-10
8.4758847e-09
4.2375054e-10
8.3569571e-09
4.1487026e-10
8.2404299e-09
4.0649529e-10
8.1261664e-09
3.9859701e-10
8.0140418e-09
3.9113426e-10
7.9039396e-09
3.8407841e-10
7.7957444e-09
3.7742426e-10
7.6893472e-09
3.7115138e-10
7.5846464e-09
3.6523269e-10
7.4815451e-09
3.5965189e-10
7.379951e-09
3.5439342e-10
7.2797756e-09
3.4944344e-10
7.1809353e-09
3.4478549e-10
7.0833524e-09
3.4039857e-10
6.9869511e-09
3.3627586e-10
6.8916556e-09
3.3241754e-10
6.7973939e-09
3.2881116e-10
6.7040968e-09
3.2544518e-10
6.6116975e-09
3.2231297e-10
6.5201306e-09
3.1940878e-10
6.4293321e-09
3.1672796e-10
6.339242e-09
3.1425605e-10
6.2498022e-09
3.1198723e-10
6.160952e-09
3.0993011e-10
6.0726318e-09