/*--------------------------------*- C++ -*----------------------------------*\
| =========                 |                                                 |
| \\      /  F ield         | OpenFOAM: The Open Source CFD Toolbox           |
|  \\    /   O peration     | Version:  2206                                  |
|   \\  /    A nd           | Website:  www.openfoam.com                      |
|    \\/     M anipulation  |                                                 |
\*---------------------------------------------------------------------------*/
FoamFile
{
    version     2.0;
    format      ascii;
    arch        "LSB;label=32;scalar=64";
    class       volVectorField;
    location    "1100";
    object      U;
}
// * * * * * * * * * * * * * * * * * * * * * * * * * * * * * * * * * * * * * //

dimensions      [0 1 -1 0 0 0 0];

internalField   nonuniform List<vector> 
13056
(
(1 2.4893432e-10 4.2348151e-25)
(0.99998126 6.4493294e-10 0)
(0.99995497 8.903925e-10 0)
(0.99992606 1.1430083e-09 0)
(0.99989262 1.4999952e-09 0)
(0.99985391 1.9603888e-09 0)
(0.99980942 2.553895e-09 0)
(0.99975824 3.332587e-09 0)
(0.99969915 4.3618579e-09 0)
(0.99963064 5.7279461e-09 0)
(0.99955084 7.5497423e-09 0)
(0.99945734 9.9999032e-09 0)
(0.99934693 1.3316593e-08 0)
(0.99921553 1.7895912e-08 0)
(0.99905667 2.4209574e-08 0)
(0.9988633 3.3480676e-08 0)
(0.9986179 4.6230144e-08 0)
(0.99831335 6.8497333e-08 0)
(0.99787546 9.5097691e-08 0)
(0.99735901 1.6799123e-07 0)
(0.99631796 2.2337687e-07 0)
(0.99538305 5.5799315e-07 0)
(0.99166567 1.6745541e-07 -4.7704919e-21)
(0.99394773 0.00012376105 7.7988865e-18)
(0.0031632666 0.00012422308 0)
(0.0012325487 6.5432761e-08 -1.0361542e-20)
(0.00087897621 4.6491598e-08 3.4327374e-18)
(0.00072155553 5.3279367e-09 0)
(0.00063151086 3.2485519e-09 0)
(0.00056937334 2.2923762e-09 0)
(0.00052310703 1.7340511e-09 0)
(0.00048660138 1.3757229e-09 0)
(0.00045680859 1.1247933e-09 0)
(0.0004318604 9.4155982e-10 0)
(0.00041052125 8.0312615e-10 0)
(0.00039196851 6.9503582e-10 0)
(0.00037563022 6.0848575e-10 0)
(0.00036108814 5.3789598e-10 0)
(0.00034802594 4.7945643e-10 0)
(0.00033619991 4.3040685e-10 0)
(0.00032542045 3.8870866e-10 0)
(0.00031553773 3.529945e-10 3.7872277e-25)
(0.00030642472 3.2209035e-10 0)
(0.00029798553 2.9507476e-10 0)
(0.00029013596 2.71369e-10 0)
(0.00028280662 2.5041418e-10 0)
(0.00027593888 2.3178707e-10 0)
(0.00026948298 2.1514108e-10 0)
(0.00026339631 2.0019112e-10 0)
(0.00025764233 1.867046e-10 0)
(0.00025218921 1.7449391e-10 0)
(0.00024700904 1.6339835e-10 0)
(0.0002420774 1.5328133e-10 0)
(0.00023737274 1.4402663e-10 0)
(0.00023287603 1.3553215e-10 0)
(0.00022857052 1.2771405e-10 0)
(0.00022444109 1.2050303e-10 0)
(0.00022047413 1.1383582e-10 0)
(0.00021665748 1.0765645e-10 0)
(0.00021298015 1.0191767e-10 0)
(0.00020943216 9.6576803e-11 0)
(0.00020600452 9.1594513e-11 0)
(0.00020268914 8.6938848e-11 0)
(0.00019947851 8.2583141e-11 0)
(0.00019636574 7.8501342e-11 0)
(0.00019334452 7.4669752e-11 0)
(0.00019040908 7.1067939e-11 0)
(0.00018755407 6.7677799e-11 0)
(0.00018477453 6.4481937e-11 0)
(0.00018206598 6.1463938e-11 0)
(0.00017942427 5.8611371e-11 0)
(0.00017684544 5.5913636e-11 0)
(0.0001743258 5.335912e-11 0)
(0.00017186193 5.0937311e-11 0)
(0.00016945064 4.8639098e-11 0)
(0.00016708895 4.6456242e-11 0)
(0.00016477401 4.4381298e-11 0)
(0.00016250318 4.2405738e-11 0)
(0.0001602741 4.0522882e-11 0)
(0.00015808445 3.8728831e-11 0)
(0.00015593192 3.7018144e-11 0)
(0.00015381443 3.5385014e-11 0)
(0.00015172998 3.382497e-11 0)
(0.00014967668 3.2333805e-11 0)
(0.00014765272 3.0907652e-11 0)
(0.00014565636 2.9542578e-11 0)
(0.00014368597 2.8234473e-11 0)
(0.00014174006 2.6980644e-11 0)
(0.00013981708 2.5779015e-11 0)
(0.00013791554 2.4626564e-11 0)
(0.00013603403 2.3520511e-11 0)
(0.00013417118 2.2458561e-11 0)
(0.00013232568 2.1438569e-11 0)
(0.00013049621 2.0458553e-11 0)
(0.00012868151 1.951598e-11 0)
(0.00012688045 1.8609022e-11 0)
(0.00012509181 1.7736778e-11 0)
(0.00012331437 1.689758e-11 0)
(0.00012154696 1.6089692e-11 0)
(0.00011978843 1.5311806e-11 0)
(0.00011803762 1.4562662e-11 0)
(0.00011629337 1.3841028e-11 0)
(0.00011455452 1.3145467e-11 0)
(0.00011281999 1.2474966e-11 0)
(0.00011108859 1.1828881e-11 0)
(0.00010935912 1.1206207e-11 0)
(0.00010763036 1.0605956e-11 0)
(0.00010590107 1.0027409e-11 0)
(0.00010416996 9.4697334e-12 0)
(0.00010243571 8.9320246e-12 0)
(0.000100697 8.4147026e-12 0)
(9.8951941e-05 7.9141392e-12 0)
(9.7200381e-05 7.4291229e-12 0)
(9.5480121e-05 6.9745766e-12 0)
(9.3842932e-05 6.5638126e-12 0)
(9.229988e-05 6.1914356e-12 0)
(9.0843356e-05 5.8487873e-12 0)
(8.9466537e-05 5.5344517e-12 0)
(8.8162499e-05 5.2472704e-12 0)
(8.6924985e-05 4.9845493e-12 0)
(8.5748377e-05 4.7438891e-12 0)
(8.4627585e-05 4.5232179e-12 0)
(8.3558002e-05 4.3206135e-12 0)
(8.2535471e-05 4.1344707e-12 0)
(8.1556165e-05 3.9636935e-12 0)
(8.0616462e-05 3.8074595e-12 0)
(7.9712936e-05 3.6653963e-12 0)
(7.8842151e-05 3.5372607e-12 0)
(7.8000803e-05 3.4247818e-12 0)
(7.7184619e-05 3.3275196e-12 0)
(7.6390525e-05 3.2568862e-12 0)
(7.56087e-05 3.1962389e-12 0)
(7.4844222e-05 3.2386445e-12 0)
(7.4042023e-05 1.2997423e-11 0)
(7.3339261e-05 3.5266942e-12 2.5684428e-24)
(7.2320971e-05 8.8521207e-12 0)
(1 7.5209075e-10 0)
(0.99998118 1.9488615e-09 0)
(0.99995478 2.6908499e-09 0)
(0.99992574 3.4543215e-09 0)
(0.99989215 4.5331298e-09 0)
(0.99985327 5.924382e-09 0)
(0.99980858 7.7178149e-09 0)
(0.99975718 1.0070747e-08 0)
(0.99969784 1.3180729e-08 0)
(0.99962904 1.7308273e-08 0)
(0.9995489 2.2812512e-08 0)
(0.99945501 3.0214978e-08 0)
(0.99934416 4.023504e-08 0)
(0.99921223 5.4069094e-08 0)
(0.99905275 7.3141785e-08 0)
(0.99885863 1.0114724e-07 0)
(0.99861231 1.3965805e-07 0)
(0.99830664 2.069144e-07 0)
(0.99786719 2.8725409e-07 0)
(0.99734894 5.0739675e-07 0)
(0.99630443 6.746734e-07 0)
(0.99536638 1.6852159e-06 0)
(0.99163718 5.0429891e-07 1.7055207e-20)
(0.99392337 0.00037197027 -6.6401271e-21)
(0.0095007557 0.00037385501 0)
(0.0037158599 1.2148778e-06 0)
(0.0026500084 2.6548637e-07 2.2698363e-22)
(0.002175453 1.2686751e-07 0)
(0.001903952 7.7316388e-08 0)
(0.0017166033 5.4568589e-08 0)
(0.0015771049 4.127551e-08 0)
(0.0014670383 3.2743435e-08 0)
(0.0013772109 2.6769468e-08 0)
(0.0013019908 2.240704e-08 0)
(0.0012376523 1.9111294e-08 0)
(0.0011817153 1.6538201e-08 0)
(0.0011324549 1.4478026e-08 0)
(0.0010886102 1.2797852e-08 0)
(0.0010492274 1.1406922e-08 0)
(0.0010135717 1.0239541e-08 0)
(0.00098107147 9.2472328e-09 0)
(0.00095127484 8.3971953e-09 -5.9450226e-25)
(0.00092379902 7.6617409e-09 -7.53407e-25)
(0.00089835467 7.0189649e-09 0)
(0.00087468803 6.4548197e-09 0)
(0.00085258989 5.9562001e-09 0)
(0.00083188348 5.5129785e-09 0)
(0.00081241875 5.1169061e-09 0)
(0.00079406726 4.7611995e-09 0)
(0.00077671883 4.4403228e-09 0)
(0.00076027747 4.1498067e-09 0)
(0.00074465905 3.885829e-09 0)
(0.00072978998 3.6451381e-09 0)
(0.0007156052 3.4249674e-09 0)
(0.00070204743 3.2228886e-09 0)
(0.00068906611 3.0369057e-09 0)
(0.00067661567 2.8653678e-09 0)
(0.00066465509 2.7067701e-09 0)
(0.00065314768 2.559781e-09 0)
(0.00064206031 2.4232752e-09 0)
(0.0006313629 2.2962375e-09 0)
(0.00062102835 2.1777327e-09 0)
(0.00061103227 2.0669994e-09 0)
(0.00060135203 1.9634024e-09 0)
(0.0005919668 1.8663227e-09 0)
(0.00058285761 1.775196e-09 0)
(0.00057400704 1.6895362e-09 0)
(0.00056539897 1.6089122e-09 0)
(0.00055701847 1.5329106e-09 0)
(0.00054885196 1.4611411e-09 0)
(0.00054088699 1.393307e-09 0)
(0.00053311162 1.3291559e-09 0)
(0.00052551468 1.2684121e-09 0)
(0.00051808592 1.2108254e-09 0)
(0.00051081567 1.1561786e-09 0)
(0.00050369495 1.1042761e-09 0)
(0.00049671521 1.0549403e-09 0)
(0.00048986846 1.0079691e-09 0)
(0.00048314759 9.6320325e-10 0)
(0.00047654557 9.2054907e-10 0)
(0.00047005549 8.7987783e-10 0)
(0.00046367105 8.4105135e-10 0)
(0.00045738624 8.0396315e-10 0)
(0.00045119534 7.6851311e-10 0)
(0.0004450929 7.3460919e-10 0)
(0.00043907366 7.0215804e-10 0)
(0.00043313274 6.7106201e-10 0)
(0.00042726562 6.4125648e-10 0)
(0.00042146765 6.1269207e-10 0)
(0.00041573429 5.8529725e-10 0)
(0.00041006134 5.5900572e-10 0)
(0.00040444466 5.3376285e-10 0)
(0.00039888026 5.0951765e-10 0)
(0.00039336422 4.8622288e-10 0)
(0.00038789271 4.6381857e-10 0)
(0.00038246231 4.422611e-10 0)
(0.00037706938 4.2152866e-10 0)
(0.00037171019 4.015819e-10 0)
(0.00036638127 3.823795e-10 0)
(0.0003610791 3.6389028e-10 0)
(0.0003558002 3.4608431e-10 0)
(0.00035054108 3.2893226e-10 0)
(0.00034529827 3.1240003e-10 0)
(0.00034006846 2.9646341e-10 0)
(0.0003348481 2.8110705e-10 0)
(0.00032963353 2.6630712e-10 0)
(0.00032442112 2.5204002e-10 0)
(0.00031920712 2.3828871e-10 0)
(0.0003139876 2.2503327e-10 0)
(0.00030875864 2.1225224e-10 0)
(0.00030351619 1.9995499e-10 0)
(0.00029825464 1.8805588e-10 0)
(0.00029297346 1.765272e-10 0)
(0.00028778665 1.6572007e-10 0)
(0.00028285029 1.5594943e-10 0)
(0.00027819776 1.4709039e-10 0)
(0.00027380612 1.3893903e-10 0)
(0.00026965479 1.3146181e-10 0)
(0.00026572289 1.2463096e-10 0)
(0.00026199157 1.1838236e-10 0)
(0.00025844387 1.1265874e-10 0)
(0.00025506447 1.0741067e-10 0)
(0.00025183946 1.0259239e-10 0)
(0.00024875632 9.8165591e-11 0)
(0.0002458035 9.4104027e-11 0)
(0.00024297009 9.038804e-11 0)
(0.00024024576 8.7008601e-11 0)
(0.00023762015 8.3959691e-11 0)
(0.00023508329 8.1282281e-11 0)
(0.0002326223 7.8965236e-11 0)
(0.00023022792 7.7280222e-11 0)
(0.00022787055 7.5828605e-11 0)
(0.00022556546 7.6826006e-11 0)
(0.00022314673 7.4133623e-11 0)
(0.00022102763 8.4285923e-11 -3.9736161e-24)
(0.0002179572 5.0334984e-11 2.7620934e-25)
(1 1.2687983e-09 0)
(0.99998108 3.2881034e-09 0)
(0.99995454 4.540448e-09 0)
(0.99992533 5.8287822e-09 0)
(0.99989155 7.6490564e-09 0)
(0.99985245 9.9964303e-09 0)
(0.99980751 1.3022256e-08 0)
(0.99975582 1.6991896e-08 0)
(0.99969616 2.223856e-08 0)
(0.99962699 2.9201633e-08 0)
(0.99954642 3.8486814e-08 0)
(0.99945204 5.0973662e-08 0)
(0.99934062 6.7875336e-08 0)
(0.99920802 9.1209421e-08 0)
(0.99904775 1.2337819e-07 0)
(0.99885268 1.7061109e-07 0)
(0.99860518 2.3555868e-07 0)
(0.99829808 3.4897863e-07 0)
(0.99785664 4.844539e-07 0)
(0.9973361 8.5565128e-07 0)
(0.9962872 1.1377232e-06 0)
(0.99534516 2.8416211e-06 0)
(0.99160101 8.5168069e-07 -9.0360709e-21)
(0.99389237 0.00062393636 5.3909419e-55)
(0.015942249 0.00062831932 -5.3902462e-55)
(0.0062543714 3.448133e-06 0)
(0.0044604976 7.7256124e-07 -1.1791167e-22)
(0.0036617871 3.7150355e-07 0)
(0.0032047555 2.2641734e-07 0)
(0.0028893902 1.5980085e-07 0)
(0.0026545687 1.2087232e-07 0)
(0.0024692927 9.5886185e-08 0)
(0.0023180855 7.8391977e-08 0)
(0.0021914668 6.5616768e-08 0)
(0.0020831657 5.5965328e-08 0)
(0.0019890068 4.84302e-08 0)
(0.0019060869 4.2397171e-08 0)
(0.0018322832 3.7476959e-08 0)
(0.0017659902 3.340377e-08 0)
(0.001705971 2.9985233e-08 0)
(0.0016512633 2.7079398e-08 0)
(0.0016011065 2.4590153e-08 0)
(0.0015548565 2.2436465e-08 0)
(0.0015120258 2.0554204e-08 0)
(0.0014721876 1.8902176e-08 0)
(0.0014349896 1.7442036e-08 0)
(0.0014001342 1.6144123e-08 0)
(0.001367369 1.4984279e-08 0)
(0.0013364776 1.3942642e-08 0)
(0.0013072747 1.3002999e-08 0)
(0.0012795986 1.2152263e-08 0)
(0.0012533078 1.137924e-08 0)
(0.0012282783 1.0674409e-08 0)
(0.0012044007 1.0029668e-08 0)
(0.0011815786 9.4379076e-09 0)
(0.0011597267 8.8932811e-09 0)
(0.0011387685 8.3909545e-09 0)
(0.0011186348 7.9265215e-09 0)
(0.001099264 7.4960825e-09 0)
(0.0010806002 7.0963421e-09 0)
(0.0010625928 6.7243278e-09 0)
(0.0010451962 6.377301e-09 0)
(0.0010283694 6.0530318e-09 0)
(0.0010120742 5.7496602e-09 0)
(0.00099627561 5.4653734e-09 0)
(0.00098094168 5.1985192e-09 0)
(0.00096604307 4.9476739e-09 0)
(0.00095155266 4.7115753e-09 0)
(0.00093744531 4.4890126e-09 0)
(0.00092369819 4.2788435e-09 0)
(0.0009102903 4.0801983e-09 0)
(0.00089720158 3.8923383e-09 0)
(0.0008844132 3.7144561e-09 0)
(0.00087190792 3.5458188e-09 0)
(0.00085966947 3.3857909e-09 0)
(0.00084768271 3.2337992e-09 0)
(0.00083593328 3.0893238e-09 0)
(0.00082440769 2.9517728e-09 0)
(0.000813094 2.8206801e-09 0)
(0.00080198039 2.6957709e-09 0)
(0.00079105519 2.5766686e-09 0)
(0.00078030781 2.4629684e-09 0)
(0.00076972816 2.3543585e-09 0)
(0.00075930659 2.2505459e-09 0)
(0.00074903391 2.1512608e-09 0)
(0.00073890129 2.05623e-09 0)
(0.0007289005 1.9651676e-09 0)
(0.00071902394 1.8778843e-09 0)
(0.00070926378 1.7942354e-09 0)
(0.00069961238 1.7140115e-09 0)
(0.00069006267 1.6370186e-09 0)
(0.00068060768 1.5630965e-09 0)
(0.0006712407 1.492096e-09 0)
(0.00066195512 1.4238787e-09 0)
(0.0006527445 1.3582691e-09 0)
(0.00064360307 1.2951394e-09 0)
(0.00063452473 1.2344257e-09 0)
(0.00062550318 1.1760129e-09 0)
(0.00061653257 1.1197798e-09 0)
(0.00060760699 1.0656352e-09 0)
(0.0005987206 1.0134915e-09 0)
(0.00058986749 9.6326267e-10 0)
(0.00058104182 9.14849e-10 0)
(0.00057223804 8.6817958e-10 0)
(0.00056345018 8.2320936e-10 0)
(0.00055467205 7.7986862e-10 0)
(0.00054589754 7.3808827e-10 0)
(0.00053712037 6.9781836e-10 0)
(0.0005283339 6.5900061e-10 0)
(0.00051953152 6.2157215e-10 0)
(0.00051070644 5.8556046e-10 0)
(0.00050184917 5.5071469e-10 0)
(0.00049295887 5.1695412e-10 0)
(0.00048422739 4.8530667e-10 0)
(0.00047591751 4.5669419e-10 0)
(0.00046808541 4.3075144e-10 0)
(0.00046069245 4.0688128e-10 0)
(0.00045370401 3.8498527e-10 0)
(0.00044708494 3.6498196e-10 0)
(0.00044080349 3.4668367e-10 0)
(0.00043483116 3.2992267e-10 0)
(0.00042914211 3.1455422e-10 0)
(0.00042371296 3.0044434e-10 0)
(0.00041852262 2.8748086e-10 0)
(0.00041355166 2.7558689e-10 0)
(0.0004087817 2.647049e-10 0)
(0.00040419535 2.5480843e-10 0)
(0.00039977518 2.4587985e-10 0)
(0.00039550442 2.3803913e-10 0)
(0.00039136138 2.3125361e-10 0)
(0.00038733046 2.2631883e-10 0)
(0.00038336184 2.2206724e-10 0)
(0.00037948123 2.2498721e-10 0)
(0.00037540938 2.1575474e-10 0)
(0.00037184168 2.4695049e-10 0)
(0.00036667256 1.4632606e-10 0)
(1 1.8075757e-09 8.738277e-25)
(0.99998097 4.6850745e-09 0)
(0.99995424 6.4703091e-09 0)
(0.99992483 8.306371e-09 0)
(0.99989081 1.0900208e-08 0)
(0.99985144 1.4244996e-08 0)
(0.99980619 1.8556303e-08 0)
(0.99975415 2.4212118e-08 0)
(0.99969408 3.1687051e-08 0)
(0.99962445 4.1606907e-08 0)
(0.99954335 5.4834321e-08 0)
(0.99944837 7.2621914e-08 0)
(0.99933623 9.6697291e-08 0)
(0.99920281 1.2993356e-07 0)
(0.99904155 1.7575122e-07 0)
(0.99884531 2.430207e-07 0)
(0.99859636 3.355139e-07 0)
(0.99828749 4.9702687e-07 0)
(0.9978436 6.8993237e-07 0)
(0.99732024 1.2184457e-06 0)
(0.99626593 1.6200843e-06 0)
(0.99531898 4.0460031e-06 0)
(0.99155643 1.2147091e-06 0)
(0.99385412 0.00088338275 -2.8125231e-55)
(0.022580602 0.00089148217 2.8121627e-55)
(0.0088858777 7.1172634e-06 0)
(0.0063373998 1.5956297e-06 0)
(0.0052026857 7.6612706e-07 0)
(0.0045532787 4.6695091e-07 0)
(0.0041051797 3.2956334e-07 0)
(0.0037715198 2.4927924e-07 0)
(0.0035082622 1.9774854e-07 0)
(0.0032934122 1.6166978e-07 0)
(0.0031135 1.3532287e-07 0)
(0.0029596154 1.1541823e-07 0)
(0.0028258257 9.9878265e-08 0)
(0.0027080053 8.7436209e-08 0)
(0.002603138 7.7289172e-08 0)
(0.0025089425 6.8888979e-08 0)
(0.0024236613 6.1838894e-08 0)
(0.002345927 5.5846199e-08 0)
(0.002274659 5.0712581e-08 0)
(0.0022089422 4.6271012e-08 0)
(0.0021480837 4.2389261e-08 0)
(0.0020914771 3.898227e-08 0)
(0.0020386219 3.5971022e-08 0)
(0.0019890954 3.3294334e-08 0)
(0.0019425386 3.0902387e-08 0)
(0.0018986444 2.8754217e-08 0)
(0.0018571493 2.681639e-08 0)
(0.0018178236 2.5061914e-08 0)
(0.0017804662 2.3467706e-08 0)
(0.001744901 2.201413e-08 0)
(0.0017109724 2.0684477e-08 0)
(0.0016785435 1.9464086e-08 0)
(0.0016474933 1.8340899e-08 0)
(0.0016177129 1.7304946e-08 0)
(0.0015891041 1.6347141e-08 0)
(0.0015615791 1.5459442e-08 0)
(0.0015350588 1.4635052e-08 0)
(0.0015094712 1.3867841e-08 0)
(0.0014847514 1.3152163e-08 0)
(0.0014608412 1.2483417e-08 0)
(0.0014376864 1.1857768e-08 0)
(0.0014152372 1.1271478e-08 0)
(0.0013934482 1.0721139e-08 0)
(0.0013722778 1.0203815e-08 0)
(0.0013516874 9.7169032e-09 0)
(0.0013316413 9.2579063e-09 0)
(0.001312107 8.8244691e-09 0)
(0.0012930548 8.4147977e-09 0)
(0.0012744561 8.0273683e-09 0)
(0.0012562841 7.6605162e-09 0)
(0.0012385144 7.31273e-09 0)
(0.0012211238 6.982699e-09 0)
(0.0012040908 6.669241e-09 0)
(0.0011873951 6.371284e-09 0)
(0.0011710174 6.0876073e-09 0)
(0.0011549408 5.8172497e-09 0)
(0.0011391485 5.5596444e-09 0)
(0.001123624 5.3140145e-09 0)
(0.0011083521 5.0795256e-09 0)
(0.0010933185 4.8555346e-09 0)
(0.0010785095 4.6414369e-09 0)
(0.0010639121 4.4366765e-09 0)
(0.0010495137 4.2406898e-09 0)
(0.0010353027 4.0528873e-09 0)
(0.0010212681 3.8728785e-09 0)
(0.001007399 3.7003651e-09 0)
(0.00099368438 3.5349152e-09 0)
(0.00098011426 3.3761284e-09 0)
(0.00096667873 3.2236748e-09 0)
(0.00095336827 3.0772466e-09 0)
(0.00094017346 2.9365582e-09 0)
(0.00092708517 2.8012478e-09 0)
(0.00091409519 2.6710519e-09 0)
(0.00090119484 2.5458385e-09 0)
(0.0008883752 2.4253702e-09 0)
(0.00087562793 2.3093974e-09 0)
(0.00086294465 2.1977317e-09 0)
(0.00085031704 2.0901926e-09 0)
(0.00083773672 1.9866027e-09 0)
(0.0008251954 1.8867563e-09 0)
(0.00081268516 1.7905071e-09 0)
(0.00080019754 1.6977623e-09 0)
(0.00078772374 1.6083781e-09 0)
(0.00077525508 1.522212e-09 0)
(0.00076278262 1.4391609e-09 0)
(0.00075029694 1.3591048e-09 0)
(0.00073778864 1.2819139e-09 0)
(0.00072524806 1.207645e-09 0)
(0.00071266173 1.1357807e-09 0)
(0.00070002843 1.0661551e-09 0)
(0.00068762078 1.0008878e-09 0)
(0.00067581218 9.418793e-10 0)
(0.00066468247 8.8837703e-10 0)
(0.00065417674 8.3914972e-10 0)
(0.00064424578 7.9399321e-10 0)
(0.00063483966 7.5274014e-10 0)
(0.00062591327 7.1500322e-10 0)
(0.00061742612 6.8043661e-10 0)
(0.00060934149 6.4874182e-10 0)
(0.00060162616 6.1964255e-10 0)
(0.00059425016 5.9290748e-10 0)
(0.00058718588 5.6837808e-10 0)
(0.00058040723 5.4593566e-10 0)
(0.00057388948 5.2552571e-10 0)
(0.00056760785 5.0711184e-10 0)
(0.00056153851 4.9094145e-10 0)
(0.00055565067 4.7694717e-10 0)
(0.00054992212 4.6676946e-10 0)
(0.00054428212 4.580007e-10 0)
(0.00053876714 4.6402083e-10 0)
(0.0005329805 4.4567683e-10 0)
(0.00052790985 5.094459e-10 0)
(0.00052056365 3.0208482e-10 0)
(1 2.3773562e-09 0)
(0.99998082 6.1630615e-09 0)
(0.99995387 8.5127776e-09 0)
(0.99992421 1.0928642e-08 0)
(0.99988991 1.4341079e-08 0)
(0.9998502 1.8741232e-08 0)
(0.99980458 2.4412534e-08 0)
(0.99975211 3.1852039e-08 0)
(0.99969155 4.1683829e-08 0)
(0.99962137 5.4730727e-08 0)
(0.99953963 7.2126885e-08 0)
(0.9994439 9.551911e-08 0)
(0.99933091 1.2717851e-07 0)
(0.99919648 1.7088195e-07 0)
(0.99903404 2.3112529e-07 0)
(0.99883638 3.1956853e-07 0)
(0.99858567 4.4116605e-07 0)
(0.99827467 6.5348468e-07 0)
(0.9978278 9.0704754e-07 0)
(0.99730103 1.6016839e-06 0)
(0.99624019 2.1295972e-06 0)
(0.9952873 5.3178718e-06 0)
(0.99150257 1.5995787e-06 0)
(0.99380783 0.0011539791 0)
(0.029509754 0.0011670982 0)
(0.011649551 1.2372408e-05 0)
(0.0083086582 2.7677362e-06 0)
(0.00682109 1.3285395e-06 0)
(0.0059695892 8.0978876e-07 0)
(0.0053820565 5.7152824e-07 0)
(0.0049445658 4.3230013e-07 0)
(0.0045993885 3.4293439e-07 0)
(0.0043176814 2.8036703e-07 0)
(0.0040817836 2.3467612e-07 0)
(0.0038800131 2.0015735e-07 0)
(0.0037045905 1.7320797e-07 0)
(0.0035501065 1.5163109e-07 0)
(0.0034126061 1.3403426e-07 0)
(0.0032890981 1.1946678e-07 0)
(0.0031772782 1.0724066e-07 0)
(0.0030753536 9.6848294e-08 0)
(0.0029819071 8.7945636e-08 0)
(0.0028957393 8.0243147e-08 0)
(0.0028159415 7.3511556e-08 0)
(0.0027417185 6.7603214e-08 0)
(0.0026724143 6.2381171e-08 0)
(0.0026074744 5.7739312e-08 0)
(0.0025464284 5.3591245e-08 0)
(0.0024888734 4.9865928e-08 0)
(0.0024344639 4.6505383e-08 0)
(0.002382899 4.3462799e-08 0)
(0.0023339148 4.0698146e-08 0)
(0.0022872805 3.8177372e-08 0)
(0.0022427921 3.5871502e-08 0)
(0.00220027 3.375511e-08 0)
(0.0021595556 3.1807288e-08 0)
(0.0021205061 3.0010745e-08 0)
(0.0020829928 2.8349723e-08 0)
(0.0020469006 2.6810276e-08 0)
(0.0020121257 2.5380619e-08 0)
(0.0019785737 2.4050121e-08 0)
(0.0019461596 2.2808988e-08 0)
(0.001914807 2.1649246e-08 0)
(0.0018844449 2.0564241e-08 0)
(0.0018550079 1.954749e-08 0)
(0.0018264367 1.8593085e-08 0)
(0.0017986764 1.7695934e-08 0)
(0.0017716767 1.6851524e-08 0)
(0.0017453907 1.6055523e-08 0)
(0.0017197758 1.5303847e-08 0)
(0.0016947929 1.4593386e-08 0)
(0.0016704046 1.3921496e-08 0)
(0.0016465759 1.3285292e-08 0)
(0.0016232746 1.2682151e-08 0)
(0.0016004705 1.2109801e-08 0)
(0.0015781353 1.1566192e-08 0)
(0.0015562423 1.1049464e-08 0)
(0.0015347663 1.0557502e-08 0)
(0.0015136851 1.0088637e-08 0)
(0.0014929766 9.6418879e-09 0)
(0.0014726192 9.215906e-09 0)
(0.0014525931 8.809245e-09 0)
(0.0014328795 8.4207895e-09 0)
(0.0014134604 8.0494911e-09 0)
(0.0013943188 7.6943856e-09 0)
(0.001375438 7.3544955e-09 0)
(0.001356803 7.0287986e-09 0)
(0.0013383993 6.7166177e-09 0)
(0.0013202125 6.4174353e-09 0)
(0.0013022284 6.1305027e-09 0)
(0.0012844337 5.8551255e-09 0)
(0.0012668155 5.5907315e-09 0)
(0.0012493613 5.3367868e-09 0)
(0.0012320587 5.0927964e-09 0)
(0.0012148958 4.8581327e-09 0)
(0.0011978618 4.6323387e-09 0)
(0.0011809453 4.4151856e-09 0)
(0.0011641346 4.2062616e-09 0)
(0.0011474189 4.005134e-09 0)
(0.001130787 3.8114762e-09 0)
(0.0011142281 3.6249746e-09 0)
(0.0010977313 3.4453221e-09 0)
(0.0010812855 3.2721618e-09 0)
(0.0010648805 3.1052401e-09 0)
(0.0010485052 2.9443959e-09 0)
(0.0010321479 2.7893798e-09 0)
(0.0010157974 2.6399448e-09 0)
(0.00099944189 2.4959123e-09 0)
(0.00098306901 2.3570738e-09 0)
(0.00096666645 2.2232046e-09 0)
(0.00095022154 2.094403e-09 0)
(0.00093371659 1.9697719e-09 0)
(0.00091715001 1.8490243e-09 0)
(0.00090087926 1.735836e-09 0)
(0.000885394 1.6335023e-09 0)
(0.00087079891 1.5407185e-09 0)
(0.00085702196 1.455349e-09 0)
(0.00084399865 1.377039e-09 0)
(0.00083166352 1.3054979e-09 0)
(0.00081995741 1.2400542e-09 0)
(0.00080882723 1.1801082e-09 0)
(0.00079822485 1.1251425e-09 0)
(0.00078810672 1.0746778e-09 0)
(0.00077843353 1.0283131e-09 0)
(0.00076916909 9.857735e-10 0)
(0.00076027916 9.4685317e-10 0)
(0.00075173134 9.1145761e-10 0)
(0.00074349313 8.7952381e-10 0)
(0.00073553328 8.5148073e-10 0)
(0.00072781141 8.2721168e-10 0)
(0.0007202984 8.0956115e-10 0)
(0.00071290149 7.943547e-10 0)
(0.00070566845 8.0479359e-10 0)
(0.00069807925 7.7323787e-10 0)
(0.00069142838 8.8371629e-10 -5.1189043e-24)
(0.00068179368 5.2392893e-10 3.5584252e-25)
(1 2.9878975e-09 0)
(0.99998065 7.7475787e-09 0)
(0.99995343 1.0703356e-08 0)
(0.99992348 1.3741217e-08 0)
(0.99988883 1.8031488e-08 0)
(0.99984873 2.3563217e-08 0)
(0.99980265 3.06925e-08 0)
(0.99974967 4.0043922e-08 0)
(0.99968853 5.2401638e-08 0)
(0.99961768 6.8799423e-08 0)
(0.99953517 9.0662105e-08 0)
(0.99943856 1.2005843e-07 0)
(0.99932455 1.5984118e-07 0)
(0.99918892 2.147544e-07 0)
(0.99902505 2.904443e-07 0)
(0.99882569 4.0155565e-07 0)
(0.99857287 5.5430556e-07 0)
(0.99825933 8.2099375e-07 0)
(0.99780892 1.1394534e-06 0)
(0.99727808 2.0117803e-06 0)
(0.99620944 2.6747805e-06 0)
(0.99524947 6.6783823e-06 0)
(0.99143833 2.0132323e-06 0)
(0.99375255 0.0014394428 0)
(0.036825831 0.0014591718 0)
(0.014586522 1.9393083e-05 0)
(0.010403619 4.3572525e-06 0)
(0.0085410965 2.0916717e-06 0)
(0.007474763 1.2750317e-06 0)
(0.0067390132 8.9988123e-07 0)
(0.0061911465 6.8066596e-07 0)
(0.0057588868 5.3995613e-07 0)
(0.0054061083 4.4144339e-07 0)
(0.0051106955 3.6950214e-07 0)
(0.0048580199 3.1515143e-07 0)
(0.0046383395 2.7271914e-07 0)
(0.0044448799 2.3874613e-07 0)
(0.0042726884 2.1103979e-07 0)
(0.0041180191 1.8810321e-07 0)
(0.0039779866 1.6885313e-07 0)
(0.0038503454 1.5249037e-07 0)
(0.0037333211 1.3847304e-07 1.7787063e-24)
(0.0036254118 1.2634542e-07 0)
(0.0035254792 1.1574658e-07 -6.7172853e-35)
(0.0034325278 1.0644386e-07 0)
(0.003345736 9.8221714e-08 0)
(0.0032644095 9.0913073e-08 0)
(0.0031879592 8.4381904e-08 0)
(0.0031158806 7.8516356e-08 0)
(0.0030477411 7.322514e-08 0)
(0.0029831637 6.8434548e-08 0)
(0.002921818 6.4081558e-08 0)
(0.002863415 6.0112553e-08 0)
(0.0028076994 5.6481913e-08 0)
(0.0027544462 5.3149608e-08 0)
(0.0027034567 5.0082716e-08 0)
(0.002654552 4.725401e-08 0)
(0.0026075712 4.4638682e-08 0)
(0.0025623699 4.2214774e-08 0)
(0.0025188183 3.996373e-08 0)
(0.0024767982 3.7868811e-08 0)
(0.002436203 3.59146e-08 0)
(0.0023969372 3.4088538e-08 0)
(0.0023589117 3.238015e-08 0)
(0.0023220448 3.0779228e-08 0)
(0.002286262 2.9276471e-08 0)
(0.0022514949 2.7863861e-08 0)
(0.0022176802 2.6534291e-08 0)
(0.0021847592 2.5280942e-08 0)
(0.0021526787 2.4097385e-08 0)
(0.0021213896 2.297872e-08 0)
(0.0020908452 2.1920787e-08 0)
(0.0020610016 2.091904e-08 0)
(0.0020318185 1.9969353e-08 0)
(0.002003258 1.9068147e-08 0)
(0.0019752847 1.8212194e-08 0)
(0.0019478651 1.7398567e-08 0)
(0.0019209678 1.6623934e-08 0)
(0.0018945649 1.5885669e-08 0)
(0.0018686289 1.5182225e-08 0)
(0.0018431325 1.451148e-08 0)
(0.0018180509 1.3871157e-08 0)
(0.0017933608 1.3259498e-08 0)
(0.0017690394 1.2674855e-08 0)
(0.0017450655 1.2115708e-08 0)
(0.0017214183 1.1580518e-08 0)
(0.0016980788 1.1067677e-08 0)
(0.0016750291 1.0576117e-08 0)
(0.001652251 1.0105024e-08 0)
(0.0016297267 9.653219e-09 0)
(0.0016074397 9.2196087e-09 0)
(0.0015853736 8.8032923e-09 0)
(0.001563513 8.4034292e-09 0)
(0.0015418422 8.0192397e-09 0)
(0.0015203464 7.6497359e-09 0)
(0.0014990119 7.2941982e-09 0)
(0.0014778247 6.9522664e-09 0)
(0.00145677 6.623292e-09 0)
(0.0014358341 6.3065938e-09 0)
(0.0014150033 6.0016574e-09 0)
(0.0013942638 5.7079894e-09 0)
(0.0013736021 5.4251059e-09 0)
(0.0013530043 5.152445e-09 0)
(0.0013324575 4.8896076e-09 0)
(0.0013119479 4.6363398e-09 0)
(0.0012914609 4.3922492e-09 0)
(0.0012709823 4.1569467e-09 0)
(0.0012504975 3.9301511e-09 0)
(0.0012299908 3.7115343e-09 0)
(0.0012094469 3.5007424e-09 0)
(0.00118885 3.2979309e-09 0)
(0.0011681778 3.1016863e-09 0)
(0.0011474283 2.9115586e-09 0)
(0.0011270493 2.733336e-09 0)
(0.0011076539 2.572206e-09 0)
(0.0010893734 2.4261148e-09 0)
(0.0010721174 2.2916985e-09 0)
(0.0010558052 2.1683975e-09 0)
(0.0010403548 2.0557535e-09 0)
(0.0010256921 1.9527094e-09 0)
(0.0010117507 1.8583215e-09 0)
(0.00099847034 1.7717748e-09 0)
(0.00098579639 1.692315e-09 0)
(0.00097367968 1.6193107e-09 0)
(0.00096207487 1.5523292e-09 0)
(0.00095093908 1.4910466e-09 0)
(0.00094023175 1.4353141e-09 0)
(0.00092991215 1.3850326e-09 0)
(0.00091994116 1.3408775e-09 0)
(0.00091026817 1.3026654e-09 0)
(0.00090085674 1.2748744e-09 0)
(0.00089159068 1.2509335e-09 0)
(0.00088252976 1.2673703e-09 0)
(0.00087302283 1.2176829e-09 0)
(0.00086469032 1.391809e-09 0)
(0.00085262088 8.2488702e-10 -2.0309345e-25)
(1 3.649974e-09 0)
(0.99998045 9.4668792e-09 0)
(0.99995291 1.3081431e-08 0)
(0.9999226 1.679472e-08 0)
(0.99988755 2.2037797e-08 0)
(0.99984698 2.8797548e-08 0)
(0.99980037 3.7508793e-08 0)
(0.99974678 4.8934344e-08 0)
(0.99968495 6.4031826e-08 0)
(0.9996133 8.4063571e-08 0)
(0.99952989 1.1076928e-07 0)
(0.99943223 1.466747e-07 0)
(0.999317 1.9526245e-07 0)
(0.99917994 2.6232381e-07 0)
(0.99901439 3.5475e-07 0)
(0.99881302 4.9041693e-07 0)
(0.99855771 6.7690548e-07 0)
(0.99824115 1.0024623e-06 0)
(0.99778655 1.3911693e-06 0)
(0.99725089 2.45578e-06 0)
(0.99617304 3.2649894e-06 0)
(0.9952047 8.1507244e-06 0)
(0.9913624 2.4634081e-06 0)
(0.9936872 0.0017435982 0)
(0.044628202 0.001771865 0)
(0.017740489 2.864492e-05 0)
(0.01265347 6.4602558e-06 0)
(0.010388316 3.1014476e-06 0)
(0.0090911981 1.8907124e-06 0)
(0.0081962323 1.3344061e-06 0)
(0.0075297938 1.0093426e-06 0)
(0.0070039862 8.0068564e-07 0)
(0.0065748587 6.5460525e-07 0)
(0.0062155107 5.4792572e-07 0)
(0.0059081492 4.6733028e-07 0)
(0.0056409236 4.044087e-07 0)
(0.0054055931 3.5403139e-07 0)
(0.005196133 3.1294677e-07 0)
(0.005007987 2.7893505e-07 0)
(0.0048376451 2.503899e-07 0)
(0.004682376 2.2612632e-07 0)
(0.004540021 2.0534054e-07 0)
(0.0044087538 1.8735694e-07 0)
(0.0042871892 1.7164044e-07 7.2459579e-35)
(0.0041741166 1.5784579e-07 0)
(0.0040685365 1.4565348e-07 0)
(0.0039696044 1.3481575e-07 0)
(0.0038766037 1.251309e-07 0)
(0.0037889208 1.1643307e-07 0)
(0.0037060293 1.0858688e-07 0)
(0.0036274709 1.0148304e-07 0)
(0.0035528436 9.5028101e-08 0)
(0.0034817958 8.914255e-08 0)
(0.003414017 8.3758745e-08 0)
(0.0033492334 7.8817326e-08 0)
(0.0032872035 7.4269476e-08 0)
(0.0032277096 7.007482e-08 0)
(0.0031705559 6.6196572e-08 0)
(0.0031155669 6.2602174e-08 0)
(0.0030625847 5.9264106e-08 0)
(0.0030114653 5.615755e-08 0)
(0.0029620794 5.3259645e-08 0)
(0.0029143104 5.0551769e-08 0)
(0.0028680503 4.8018384e-08 0)
(0.0028231995 4.5644359e-08 0)
(0.0027796675 4.3415898e-08 0)
(0.002737371 4.1321113e-08 0)
(0.0026962331 3.9349466e-08 0)
(0.0026561823 3.7490845e-08 0)
(0.0026171539 3.5735716e-08 0)
(0.0025790883 3.4076817e-08 0)
(0.0025419285 3.2507973e-08 0)
(0.0025056212 3.1022447e-08 0)
(0.0024701174 2.9614119e-08 0)
(0.0024353709 2.8277684e-08 0)
(0.0024013388 2.7008354e-08 0)
(0.0023679803 2.5801788e-08 0)
(0.0023352572 2.4653045e-08 0)
(0.0023031354 2.3558234e-08 0)
(0.0022715815 2.2515058e-08 0)
(0.0022405625 2.1520371e-08 0)
(0.0022100481 2.0570797e-08 0)
(0.0021800098 1.9663731e-08 0)
(0.0021504202 1.8796725e-08 0)
(0.0021212532 1.7967528e-08 0)
(0.0020924838 1.7173857e-08 0)
(0.0020640886 1.6413327e-08 0)
(0.0020360459 1.5684357e-08 0)
(0.0020083337 1.4985737e-08 0)
(0.0019809301 1.431572e-08 0)
(0.0019538152 1.3672685e-08 0)
(0.0019269692 1.3055295e-08 0)
(0.001900373 1.2462305e-08 0)
(0.0018740078 1.1892558e-08 0)
(0.0018478553 1.1344588e-08 0)
(0.0018218993 1.0817331e-08 0)
(0.0017961222 1.0310249e-08 0)
(0.0017705064 9.8223839e-09 0)
(0.0017450352 9.3527234e-09 0)
(0.0017196917 8.9005054e-09 0)
(0.0016944594 8.4649981e-09 0)
(0.0016693216 8.0454839e-09 0)
(0.0016442616 7.6411298e-09 0)
(0.0016192636 7.2513438e-09 0)
(0.0015943108 6.8757496e-09 0)
(0.0015693855 6.513765e-09 0)
(0.0015444704 6.1648134e-09 0)
(0.0015195475 5.8284776e-09 0)
(0.0014945982 5.5042712e-09 0)
(0.0014696035 5.1916697e-09 0)
(0.0014445442 4.890904e-09 0)
(0.0014193932 4.5998775e-09 0)
(0.0013941481 4.3179251e-09 0)
(0.0013693536 4.053632e-09 0)
(0.0013457557 3.8146892e-09 0)
(0.0013235139 3.5980514e-09 0)
(0.0013025184 3.3987281e-09 0)
(0.001282671 3.2158864e-09 0)
(0.001263872 3.0488466e-09 0)
(0.0012460312 2.8960417e-09 0)