/*--------------------------------*- C++ -*----------------------------------*\
| =========                 |                                                 |
| \\      /  F ield         | OpenFOAM: The Open Source CFD Toolbox           |
|  \\    /   O peration     | Version:  2206                                  |
|   \\  /    A nd           | Website:  www.openfoam.com                      |
|    \\/     M anipulation  |                                                 |
\*---------------------------------------------------------------------------*/
FoamFile
{
    version     2.0;
    format      ascii;
    arch        "LSB;label=32;scalar=64";
    class       volScalarField;
    location    "1500";
    object      epsilon;
}
// * * * * * * * * * * * * * * * * * * * * * * * * * * * * * * * * * * * * * //

dimensions      [0 2 -3 0 0 0 0];

internalField   nonuniform List<scalar> 
13056
(
0.0077025098
0.0075736365
0.0075005372
0.0074622574
0.0074386121
0.0074220243
0.0074096414
0.0074001038
0.0073926167
0.0073866661
0.007381905
0.0073780952
0.007375076
0.0073727456
0.0073710571
0.0073700162
0.007369727
0.0073703515
0.0073725594
0.0073766813
0.0073869605
0.0074084878
0.0074210224
0.0093707487
0.029920696
0.0017712585
0.0049755481
0.00035453
0.0018431327
0.00017353727
0.0010450553
0.00010788543
0.00069403216
0.0005227288
0.00050098362
0.00041616476
0.00037893871
0.00033208854
0.00029963339
0.0002693708
0.00024450413
0.00022269719
0.00020383324
0.00018727692
0.00017268238
0.00015973395
0.00014818559
0.00013783493
0.00012851595
0.00012009129
0.00011244587
0.00010548282
9.9120272e-05
9.3288454e-05
8.7927814e-05
8.2987221e-05
7.8422248e-05
7.4194283e-05
7.0269744e-05
6.6619197e-05
6.3216734e-05
6.0039612e-05
5.7067748e-05
5.4283174e-05
5.1669884e-05
4.9213628e-05
4.6901641e-05
4.4722447e-05
4.2665707e-05
4.0722176e-05
3.8883495e-05
3.7141991e-05
3.5490713e-05
3.3923367e-05
3.24342e-05
3.1017968e-05
2.9669853e-05
2.8385455e-05
2.7160817e-05
2.5992216e-05
2.4876186e-05
2.3809591e-05
2.278952e-05
2.1813282e-05
2.0878385e-05
1.9982511e-05
1.9123548e-05
1.8299536e-05
1.7508604e-05
1.6749019e-05
1.6019185e-05
1.5317602e-05
1.4642878e-05
1.3993699e-05
1.3368847e-05
1.2767215e-05
1.2187726e-05
1.1629362e-05
1.109119e-05
1.0572326e-05
1.0071943e-05
9.5892597e-06
9.1235463e-06
8.674135e-06
8.2403725e-06
7.8216414e-06
7.4173709e-06
7.0270194e-06
6.6500695e-06
6.2860431e-06
5.9344929e-06
5.5948625e-06
5.2671132e-06
4.9590171e-06
4.6784117e-06
4.42369e-06
4.1914613e-06
3.9792141e-06
3.7845842e-06
3.6055677e-06
3.4404294e-06
3.2876599e-06
3.1459451e-06
3.0141397e-06
2.8912309e-06
2.7763103e-06
2.6685636e-06
2.5672335e-06
2.4716389e-06
2.3810258e-06
2.2948578e-06
2.2118351e-06
2.1325331e-06
2.0506865e-06
1.9814962e-06
1.8801042e-06
0.0077012252
0.007572257
0.0074990991
0.0074607866
0.0074371204
0.0074205176
0.0074081232
0.0073985763
0.0073910814
0.0073851241
0.0073803567
0.007376541
0.0073735155
0.0073711783
0.0073694818
0.0073684308
0.0073681281
0.0073687342
0.0073709127
0.0073749949
0.0073851796
0.0074066048
0.0074185257
0.0093681457
0.029344329
0.0017556162
0.0048844771
0.00035099728
0.001813621
0.00017197559
0.0010297368
0.0001072905
0.00068456866
0.00051625093
0.00049456488
0.00041113201
0.00037436951
0.00032824006
0.00029622406
0.00026639507
0.00024186662
0.00022035704
0.00020174427
0.00018540613
0.00017100087
0.00015821814
0.00014681555
0.00013659383
0.00012738944
0.00011906706
0.00011151329
0.00010463267
9.8344535e-05
9.258009e-05
8.728063e-05
8.2395745e-05
7.7881628e-05
7.3700203e-05
6.9818345e-05
6.6207024e-05
6.2840683e-05
5.9696882e-05
5.6755807e-05
5.399973e-05
5.1412853e-05
4.8981113e-05
4.669191e-05
4.4533917e-05
4.2496928e-05
4.0571814e-05
3.8750323e-05
3.7024881e-05
3.538862e-05
3.3835327e-05
3.2359318e-05
3.0955416e-05
2.9618859e-05
2.8345303e-05
2.7130837e-05
2.5971784e-05
2.486472e-05
2.3806544e-05
2.2794381e-05
2.1825571e-05
2.0897651e-05
2.0008332e-05
1.9155523e-05
1.8337288e-05
1.7551778e-05
1.6797279e-05
1.6072213e-05
1.5375098e-05
1.4704554e-05
1.4059285e-05
1.3438085e-05
1.2839859e-05
1.2263544e-05
1.1708128e-05
1.1172692e-05
1.0656359e-05
1.0158313e-05
9.6777774e-06
9.2140322e-06
8.7664156e-06
8.3342802e-06
7.917015e-06
7.5140547e-06
7.1248627e-06
6.7489261e-06
6.3857716e-06
6.0349556e-06
5.6959273e-06
5.3686475e-06
5.0608717e-06
4.7804477e-06
4.5258104e-06
4.2935904e-06
4.081288e-06
3.8865503e-06
3.7073818e-06
3.5420547e-06
3.3890659e-06
3.2471062e-06
3.115035e-06
2.9918428e-06
2.8766245e-06
2.7685684e-06
2.6669193e-06
2.5709979e-06
2.4800513e-06
2.3935434e-06
2.3101731e-06
2.2305184e-06
2.1482907e-06
2.0787561e-06
1.9768642e-06
0.0076971482
0.0075678841
0.007494545
0.0074561322
0.007432402
0.0074157534
0.007403324
0.0073937496
0.0073862323
0.0073802562
0.0073754727
0.0073716425
0.0073686034
0.0073662527
0.0073645418
0.0073634747
0.007363152
0.0073637324
0.0073658715
0.007369902
0.0073799634
0.0074012665
0.0074123399
0.0093601805
0.028772229
0.0017399781
0.0047929681
0.00034742448
0.0017838728
0.00017039113
0.0010142682
0.0001066827
0.00067499983
0.00050967877
0.00048807013
0.00040602985
0.00036974114
0.00032433696
0.00029276637
0.00026337492
0.00023918877
0.00021797976
0.00019962114
0.00018350372
0.00016929
0.00015667499
0.00014541999
0.00013532884
0.0001262405
0.00011802173
0.00011056083
0.00010376376
9.7551042e-05
9.1854902e-05
8.6617484e-05
8.1789104e-05
7.7326582e-05
7.3192381e-05
6.9353844e-05
6.5782344e-05
6.2452682e-05
5.9342725e-05
5.6432931e-05
5.3705812e-05
5.1145783e-05
4.8738968e-05
4.6472937e-05
4.4336512e-05
4.2319621e-05
4.0413255e-05
3.8609269e-05
3.6900186e-05
3.5279227e-05
3.3740258e-05
3.2277668e-05
3.0886343e-05
2.9561583e-05
2.8299096e-05
2.7095021e-05
2.5945727e-05
2.4847829e-05
2.3798267e-05
2.2794199e-05
2.1832998e-05
2.091223e-05
2.0029632e-05
1.9183139e-05
1.8370838e-05
1.7590902e-05
1.6841636e-05
1.6121481e-05
1.542897e-05
1.4762742e-05
1.4121513e-05
1.3504091e-05
1.2909395e-05
1.2336371e-05
1.1784021e-05
1.1251434e-05
1.0737743e-05
1.024214e-05
9.7638586e-06
9.302184e-06
8.856462e-06
8.4260515e-06
8.0103476e-06
7.6087907e-06
7.2208493e-06
6.8460153e-06
6.4838198e-06
6.1338232e-06
5.7954805e-06
5.4687518e-06
5.1613744e-06
4.8812038e-06
4.6267171e-06
4.3945668e-06
4.1822653e-06
3.9874715e-06
3.8081991e-06
3.6427279e-06
3.4895614e-06
3.3473958e-06
3.2150951e-06
3.0916538e-06
2.97617e-06
2.8678348e-06
2.7658955e-06
2.6696745e-06
2.5784204e-06
2.4915974e-06
2.4079035e-06
2.327919e-06
2.245335e-06
2.1754764e-06
2.0731147e-06
0.0076901506
0.0075603802
0.0074867312
0.007448147
0.0074243076
0.0074075809
0.0073950923
0.0073854712
0.0073779163
0.0073719092
0.0073670993
0.0073632461
0.0073601862
0.0073578158
0.0073560853
0.0073549972
0.0073546499
0.0073552005
0.0073572952
0.0073612691
0.0073711957
0.0073923771
0.0074024712
0.0093468043
0.028196726
0.0017241346
0.0046997821
0.00034376152
0.001753478
0.00016875953
0.00099843269
0.00010604687
0.00066518932
0.00050291538
0.00048140549
0.00040078274
0.00036498534
0.00032032071
0.00028920817
0.00026026421
0.00023642923
0.00021552822
0.00019743029
0.00018153922
0.00016752204
0.00015507914
0.00014397562
0.00013401852
0.00012504937
0.00011693701
0.00010957152
0.00010286031
9.6725117e-05
9.1099205e-05
8.592559e-05
8.1155334e-05
7.67459e-05
7.2660302e-05
6.8866362e-05
6.5335869e-05
6.2043988e-05
5.8968902e-05
5.6091348e-05
5.3394084e-05
5.0861744e-05
4.8480644e-05
4.6238526e-05
4.4124368e-05
4.2128234e-05
4.0241238e-05
3.8455345e-05
3.6763178e-05
3.5158049e-05
3.3633905e-05
3.2185208e-05
3.0806913e-05
2.949438e-05
2.8243373e-05
2.7050081e-05
2.5910918e-05
2.4822545e-05
2.3781938e-05
2.2786292e-05
2.1833013e-05
2.0919697e-05
2.0044109e-05
1.920421e-05
1.839811e-05
1.7624003e-05
1.6880217e-05
1.616521e-05
1.5477533e-05
1.481584e-05
1.4178865e-05
1.3565427e-05
1.2974458e-05
1.2404918e-05
1.1855819e-05
1.132626e-05
1.0815385e-05
1.0322394e-05
9.8465287e-06
9.3870826e-06
8.9434084e-06
8.5148709e-06
8.1008724e-06
7.7008585e-06
7.3143032e-06
6.9407034e-06
6.5795947e-06
6.2305416e-06
5.893005e-06
5.5669445e-06
5.2600763e-06
4.9802609e-06
4.7260175e-06
4.4940215e-06
4.2817987e-06
4.0870203e-06
3.9077099e-06
3.7421556e-06
3.588868e-06
3.4465492e-06
3.314068e-06
3.1904234e-06
3.0747171e-06
2.9661432e-06
2.8639517e-06
2.7674672e-06
2.6759396e-06
2.5888342e-06
2.504848e-06
2.4245637e-06
2.3416551e-06
2.2714985e-06
2.1687059e-06
0.0076800315
0.0075495293
0.0074754325
0.0074366006
0.0074126035
0.0073957641
0.0073831899
0.0073735018
0.007365893
0.0073598415
0.0073549943
0.007351109
0.0073480206
0.0073456239
0.0073438679
0.0073427535
0.0073423769
0.0073428928
0.007344938
0.0073488498
0.0073586288
0.0073796884
0.0073886593
0.0093276626
0.02761086
0.0017078903
0.004603734
0.00033995917
0.0017220386
0.00016705645
0.00098201828
0.00010536749
0.00065500298
0.00049586471
0.00047447828
0.00039531579
0.00036003444
0.00031613311
0.00028549754
0.00025701694
0.00023354677
0.00021296531
0.00019513813
0.00017948212
0.00016566911
0.00015340506
0.000142459
0.00013264126
0.00012379605
0.0001157944
0.00010852819
0.00010190633
9.5851855e-05
9.0299076e-05
8.5191923e-05
8.0482231e-05
7.6128127e-05
7.2093201e-05
6.8345772e-05
6.485806e-05
6.1605606e-05
5.8566923e-05
5.5723037e-05
5.3056962e-05
5.0553559e-05
4.8199342e-05
4.5982235e-05
4.3891375e-05
4.1916969e-05
4.0050257e-05
3.828332e-05
3.6608885e-05
3.5020358e-05
3.3511769e-05
3.207766e-05
3.0713052e-05
2.9413372e-05
2.8174439e-05
2.6992496e-05
2.5864005e-05
2.4785671e-05
2.3754511e-05
2.2767757e-05
2.1822849e-05
2.0917414e-05
2.0049248e-05
1.9216337e-05
1.8416816e-05
1.7648902e-05
1.6910944e-05
1.6201419e-05
1.5518898e-05
1.4862051e-05
1.4229626e-05
1.362046e-05
1.3033495e-05
1.2467706e-05
1.1922115e-05
1.1395832e-05
1.0888013e-05
1.0397864e-05
9.9246384e-06
9.4676367e-06
9.0262186e-06
8.5997561e-06
8.1876578e-06
7.7893757e-06
7.4043891e-06
7.0322001e-06
6.6723492e-06
6.3244051e-06
5.987835e-06
5.6625976e-06
5.356385e-06
5.0770587e-06
4.82318e-06
4.5914493e-06
4.3794066e-06
4.1847367e-06
4.0054739e-06
3.8399156e-06
3.6865801e-06
3.5441759e-06
3.4115776e-06
3.2877887e-06
3.171915e-06
3.0631541e-06
2.9607592e-06
2.864057e-06
2.7722995e-06
2.6849529e-06
2.6007144e-06
2.5201682e-06
2.4369749e-06
2.3665531e-06
2.2633785e-06
0.0076665195
0.0075350397
0.0074603442
0.0074211812
0.0073969733
0.0073799833
0.007367295
0.0073575173
0.0073498367
0.0073437264
0.0073388301
0.0073349026
0.0073317773
0.0073293469
0.007327559
0.0073264127
0.0073260014
0.0073264775
0.0073284673
0.0073323111
0.0073419283
0.0073628659
0.0073705558
0.0093022793
0.02700832
0.0016910631
0.0045036841
0.00033596857
0.0016891652
0.00016525735
0.00096481576
0.00010462839
0.00064430766
0.00048843069
0.00046719615
0.00038955398
0.00035482069
0.00031171573
0.00028158232
0.00025358679
0.00023049977
0.00021025351
0.00019271066
0.00017730146
0.00016370294
0.0001516268
0.00014084624
0.00013117503
0.00012246017
0.00011457497
0.00010741322
0.00010088542
9.4915921e-05
8.9440166e-05
8.4403033e-05
7.9757166e-05
7.5461393e-05
7.1479905e-05
6.7781541e-05
6.4338975e-05
6.1128143e-05
5.8127905e-05
5.5319588e-05
5.2686477e-05
5.0213669e-05
4.788789e-05
4.569725e-05
4.3631056e-05
4.1679665e-05
3.983445e-05
3.8087613e-05
3.6431989e-05
3.4861084e-05
3.3369018e-05
3.195041e-05
3.0600359e-05
2.9314356e-05
2.8088282e-05
2.6918433e-05
2.5801323e-05
2.4733705e-05
2.3712637e-05
2.2735392e-05
2.1799443e-05
2.0902453e-05
2.0042247e-05
1.9216839e-05
1.842439e-05
1.7663143e-05
1.6931467e-05
1.6227861e-05
1.5550915e-05
1.4899316e-05
1.4271829e-05
1.3667305e-05
1.3084704e-05
1.2523009e-05
1.1981259e-05
1.1458573e-05
1.0954117e-05
1.0467109e-05
9.9968103e-06
9.5425302e-06
9.103636e-06
8.6795068e-06
8.2695585e-06
7.8732494e-06
7.4900647e-06
7.1195119e-06
6.7611365e-06
6.414512e-06
6.0791119e-06
5.7548945e-06
5.4495228e-06
5.1708545e-06
4.9174942e-06
4.6861686e-06
4.4744338e-06
4.2799897e-06
4.1008823e-06
3.9354194e-06
3.7821278e-06
3.6397237e-06
3.5070875e-06
3.3832282e-06
3.2672563e-06
3.1583732e-06
3.0558356e-06
2.9589732e-06
2.8670401e-06
2.779504e-06
2.6950629e-06
2.6143022e-06
2.5308737e-06
2.4602279e-06
2.356732e-06
0.0076492743
0.0075165453
0.0074410842
0.0074014977
0.0073770202
0.0073598377
0.0073470034
0.0073371115
0.0073293394
0.0073231542
0.0073181954
0.0073142147
0.007311043
0.007308571
0.0073067441
0.0073055596
0.0073051076
0.0073055381
0.007307466
0.0073112354
0.0073206752
0.0073414908
0.0073477258
0.0092700623
0.026383417
0.0016734832
0.0043985352
0.00033174092
0.0016544757
0.00016333723
0.00094661768
0.00010381254
0.0006329704
0.00048051662
0.00045946641
0.0003834217
0.00034927581
0.00030700948
0.00027740969
0.00024992675
0.00022724593
0.00020735464
0.00019011319
0.00017496561
0.00016159455
0.00014971775
0.0001391128
0.00012959712
0.00012102066
0.00011325914
0.00010620838
9.9780543e-05
9.3901388e-05
8.8507546e-05
8.3544901e-05
7.8966957e-05
7.473328e-05
7.08087e-05
6.7162607e-05
6.3768154e-05
6.0601698e-05
5.7642463e-05
5.4872099e-05
5.2274175e-05
4.9834041e-05
4.7538645e-05
4.5376298e-05
4.3336484e-05
4.1409718e-05
3.9587517e-05
3.7862209e-05
3.6226748e-05
3.4674741e-05
3.3200404e-05
3.1798443e-05
3.0464033e-05
2.9192736e-05
2.7980499e-05
2.6823675e-05
2.5718833e-05
2.4662774e-05
2.3652603e-05
2.2685633e-05
2.1759378e-05
2.0871533e-05
2.0019958e-05
1.9202695e-05
1.8417934e-05
1.7663942e-05
1.6939113e-05
1.6241968e-05
1.5571116e-05
1.4925265e-05
1.4303197e-05
1.3703779e-05
1.3125984e-05
1.2568812e-05
1.2031314e-05
1.1512622e-05
1.1011913e-05
1.0528414e-05
1.0061398e-05
9.6101825e-06
9.1741434e-06
8.7526671e-06
8.3451775e-06
7.9511394e-06
7.5700444e-06
7.201406e-06
6.844775e-06
6.4997299e-06
6.1657509e-06
5.842796e-06
5.5384937e-06
5.2606918e-06
5.0080388e-06
4.7772907e-06
4.5660213e-06
4.3719473e-06
4.1931281e-06
4.027883e-06
3.8747487e-06
3.7324495e-06
3.5998731e-06
3.4760346e-06
3.3600495e-06
3.251124e-06
3.1485188e-06
3.0515669e-06
2.9595252e-06
2.8718633e-06
2.7872808e-06
2.7063641e-06
2.622761e-06
2.5519418e-06
2.4481995e-06
0.0076278891
0.0074936085
0.0074171952
0.007377082
0.0073522693
0.0073348472
0.0073218316
0.0073117977
0.0073039118
0.0072976338
0.0072925977
0.0072885515
0.007285323
0.0072828003
0.0072809265
0.0072796966
0.0072791975
0.0072795761
0.0072814349
0.0072851225
0.0072943681
0.0073150619
0.0073196495
0.0092303097
0.025731101
0.0016549945
0.0042872348
0.00032722728
0.0016175944
0.00016127059
0.00092721792
0.00010290192
0.0006208581
0.00047202489
0.00045119577
0.0003768424
0.00034333069
0.00030195434
0.00027292594
0.00024598889
0.00022374205
0.0002042296
0.00018731016
0.00017244208
0.00015931416
0.00014765049
0.00013723335
0.00012788407
0.00011945572
0.00011182663
0.00010489472
9.8573974e-05
9.2791636e-05
8.7485608e-05
8.2602846e-05
7.8097769e-05
7.3930734e-05
7.006725e-05
6.6477296e-05
6.3134538e-05
6.001578e-05
5.7100638e-05
5.4371103e-05
5.1811051e-05
4.9406099e-05
4.7143434e-05
4.5011581e-05
4.3000214e-05
4.1100018e-05
3.9302661e-05
3.7600609e-05
3.5986938e-05
3.4455369e-05
3.3000218e-05
3.1616284e-05
3.0298823e-05
2.9043475e-05
2.7846255e-05
2.6703578e-05
2.5612072e-05
2.4568591e-05
2.3570287e-05
2.2614519e-05
2.1698841e-05
2.0820987e-05
1.9978851e-05
1.9170508e-05
1.8394175e-05
1.7648149e-05
1.6930848e-05
1.6240817e-05
1.5576688e-05
1.4937188e-05
1.4321117e-05
1.3727361e-05
1.315491e-05
1.2602777e-05
1.2070028e-05
1.1555808e-05
1.1059306e-05
1.0579762e-05
1.0116457e-05
9.6687206e-06
9.235936e-06
8.8174983e-06
8.4128396e-06
8.0214323e-06
7.6427746e-06
7.2763863e-06
6.9218243e-06
6.5786723e-06
6.2464177e-06
5.9250185e-06
5.6220615e-06
5.3453779e-06
5.0936611e-06
4.863699e-06
4.6530856e-06
4.4595564e-06
4.2811863e-06
4.1163074e-06
3.9634677e-06
3.8214009e-06
3.6890029e-06
3.5652956e-06
3.4494009e-06
3.3405299e-06
3.2379484e-06
3.1409929e-06
3.0489242e-06
2.961214e-06
2.8765649e-06
2.7955633e-06
2.7118598e-06
2.6409289e-06
2.5370313e-06
0.0076018922
0.0074657217
0.0073881468
0.0073473908
0.0073221688
0.0073044546
0.0072912176
0.0072810106
0.0072729861
0.007266595
0.007261465
0.0072573394
0.0072540422
0.0072514587
0.0072495292
0.007248246
0.0072476923
0.0072480119
0.0072497937
0.0072533917
0.0072624245
0.0072829974
0.0072857237
0.0091822161
0.025047001
0.0016354557
0.0041687826
0.00032237855
0.0015781544
0.00015903127
0.00090641217
0.00010187743
0.00060783761
0.000462857
0.00044229032
0.00036973866
0.00033691535
0.00029648936
0.00026807639
0.00024172433
0.000219944
0.00020083838
0.00018426509
0.00016969749
0.00015683106
0.00014539669
0.0001351817
0.00012601157
0.00011774274
0.00011025631
0.00010345251
9.7247217e-05
9.15693e-05
8.6358016e-05
8.1561472e-05
7.7135071e-05
7.3040017e-05
6.9242552e-05
6.5713283e-05
6.2426429e-05
5.9359275e-05
5.6491856e-05
5.3806532e-05
5.1287506e-05
4.8920686e-05
4.6693514e-05
4.4594744e-05
4.2614254e-05
4.0742915e-05
3.8972556e-05
3.7295789e-05
3.5705826e-05
3.4196507e-05
3.2762257e-05
3.1397973e-05
3.0099003e-05
2.8861066e-05
2.7680252e-05
2.6553045e-05
2.5476132e-05
2.4446428e-05
2.3461135e-05
2.251766e-05
2.1613602e-05
2.0746736e-05
1.9914993e-05
1.9116481e-05
1.834945e-05
1.7612228e-05
1.6903259e-05
1.6221114e-05
1.5564447e-05
1.4932009e-05
1.432262e-05
1.3735185e-05
1.3168709e-05
1.2622225e-05
1.2094813e-05
1.1585631e-05
1.1093882e-05
1.0618818e-05
1.0159732e-05
9.7159639e-06
9.2869067e-06
8.8719643e-06
8.470578e-06
8.0822278e-06
7.7064195e-06
7.3426799e-06
6.9905721e-06
6.6496858e-06
6.3195163e-06
6.0000213e-06
5.6987383e-06
5.4234729e-06
5.1729647e-06
4.9440373e-06
4.7343075e-06
4.541532e-06
4.363803e-06
4.1994679e-06
4.0470871e-06
3.9054054e-06
3.7733279e-06
3.6498845e-06
3.5342042e-06
3.4255044e-06
3.3230561e-06
3.2262007e-06
3.134203e-06
3.0465379e-06
2.9619122e-06
2.8809116e-06
2.7971967e-06
2.726229e-06
2.6222861e-06
0.007570749
0.007432309
0.0073533365
0.0073118068
0.0072860924
0.0072680265
0.0072545232
0.0072441079
0.0072359168
0.0072293898
0.0072241472
0.0072199264
0.0072165473
0.0072138916
0.0072118964
0.007210551
0.0072099344
0.0072101871
0.0072118832
0.0072153827
0.0072241822
0.0072446357
0.0072452634
0.0091248805
0.024327502
0.0016147438
0.0040422447
0.0003171456
0.0015357998
0.00015659256
0.00088399926
0.0001007189
0.00059377643
0.00045291406
0.00043265589
0.0003620324
0.00032995917
0.00029055278
0.00026280559
0.00023708334
0.00021580675
0.00019714007
0.00018094063
0.00016669757
0.00015411372
0.00014292722
0.00013293083
0.0001239545
0.0001158583
0.00010852631
0.00010186124
9.578103e-05
9.0216279e-05
8.5107712e-05
8.0404678e-05
7.6063641e-05
7.2046717e-05
6.8320936e-05
6.485759e-05
6.1631489e-05
5.8620439e-05
5.5804927e-05
5.3167713e-05
5.0693352e-05
4.8368065e-05
4.617957e-05
4.4116871e-05
4.2170065e-05
4.0330222e-05
3.8589346e-05
3.6940209e-05
3.5376167e-05
3.389119e-05
3.2479822e-05
3.1137065e-05
2.9858365e-05
2.863953e-05
2.7476731e-05
2.6366521e-05
2.5305658e-05
2.4291117e-05
2.3320159e-05
2.2390241e-05
2.149901e-05
2.0644286e-05
1.9824039e-05
1.9036416e-05
1.8279701e-05
1.7552254e-05
1.6852549e-05
1.6179184e-05
1.553084e-05
1.490629e-05
1.4304378e-05
1.3724027e-05
1.3164264e-05
1.2624137e-05
1.2102743e-05
1.1599258e-05
1.1112897e-05
1.0642926e-05
1.0188651e-05
9.749422e-06
9.3246439e-06
8.9137299e-06
8.5161311e-06
8.1313363e-06
7.7588593e-06
7.3982345e-06
7.0490321e-06
6.7108482e-06
6.3831865e-06
6.0660048e-06
5.7667817e-06
5.4932873e-06
5.2443086e-06
5.0167088e-06
4.8081306e-06
4.616355e-06
4.4394942e-06
4.2759125e-06
4.1241851e-06
3.9830692e-06
3.8514804e-06
3.7284583e-06
3.6131398e-06
3.5047494e-06
3.4025647e-06
3.3059324e-06
3.2141227e-06
3.1266139e-06
3.0421189e-06
2.961222e-06
2.8776018e-06
2.8066865e-06
2.7028298e-06
0.0075338634
0.0073927281
0.0073120922
0.0072696411
0.0072433401
0.0072248555
0.0072110351
0.0072003717
0.0071919823
0.0071852938
0.0071799173
0.0071755837
0.0071721077
0.0071693669
0.0071672947
0.0071658771
0.0071651883
0.0071653653
0.0071669658
0.0071703573
0.007178901
0.0071992377
0.0071975023
0.0090573137
0.023569843
0.001592758
0.0039067742
0.00031147955
0.0014901923
0.00015392726
0.0008597836
9.9405179e-05
0.00057854405
0.00044209768
0.00042219886
0.00035364552
0.00032239143
0.00028408252
0.00025705763
0.00023201566
0.00021128473
0.00019309316
0.00017729878
0.00016340739
0.00015112992
0.00014021225
0.00013045303
0.00012168705
0.0001137783
0.00010661407
0.00010009974
9.4155502e-05
8.8713815e-05
8.3716992e-05
7.9115725e-05
7.4867625e-05
7.0935798e-05
6.7288126e-05
6.3896639e-05
6.073679e-05
5.7786949e-05
5.5028093e-05
5.2443412e-05
5.0017845e-05
4.7737954e-05
4.5591754e-05
4.3568518e-05
4.1658585e-05
3.9853237e-05
3.8144671e-05
3.6525829e-05
3.4990226e-05
3.3531974e-05
3.2145742e-05
3.082665e-05
2.9570247e-05
2.837244e-05
2.7229485e-05
2.6138016e-05
2.5094863e-05
2.4097068e-05
2.3141954e-05
2.2227035e-05
2.1350009e-05
2.0508744e-05
1.9701255e-05
1.892573e-05
1.8180489e-05
1.7463927e-05
1.6774552e-05
1.6110992e-05
1.5471955e-05
1.4856239e-05
1.4262713e-05
1.3690324e-05
1.3138117e-05
1.260516e-05
1.209057e-05
1.1593537e-05
1.1113294e-05
1.0649121e-05
1.0200336e-05
9.7663041e-06
9.3464404e-06
8.9401692e-06
8.5469522e-06
8.1662877e-06
7.7976986e-06
7.4407274e-06
7.0949522e-06
6.7599762e-06
6.4353122e-06
6.1209183e-06
5.8242032e-06
5.5528898e-06
5.3058137e-06
5.0798826e-06
4.8727684e-06
4.6822801e-06
4.5065525e-06
4.3439693e-06
4.1931226e-06
4.0527838e-06
3.9218811e-06
3.7994647e-06
3.6846809e-06
3.5767624e-06
3.4749945e-06
3.3787302e-06
3.2872462e-06
3.2000248e-06
3.115787e-06
3.0351147e-06
2.9517147e-06
2.8809576e-06
2.7773423e-06
0.0074905797
0.0073462723
0.007263673
0.0072201339
0.0071931403
0.0071741612
0.0071599663
0.0071490102
0.0071403867
0.0071335076
0.0071279733
0.0071235069
0.0071199171
0.0071170767
0.0071149149
0.0071134138
0.0071126423
0.0071127337
0.0071142276
0.0071175007
0.007125764
0.0071459871
0.007141595
0.0089784473
0.022772236
0.0015694248
0.0037616404
0.00030533225
0.0014410181
0.00015100795
0.00083357882
9.7914329e-05
0.00056201404
0.0004303114
0.00041082749
0.00034450096
0.00031414216
0.00027701691
0.00025077683
0.00022647106
0.00020633226
0.00018865594
0.00017330127
0.00015979172
0.00014784705
0.00013722152
0.00012772016
0.00011918296
0.00011147816
0.00010449653
9.8146351e-05
9.2350228e-05
8.704265e-05
8.2167649e-05
7.7677372e-05
7.3530672e-05
6.9691726e-05
6.6129345e-05
6.2816357e-05
5.9728913e-05
5.6845994e-05
5.4149109e-05
5.1621916e-05
4.9249771e-05
4.7019603e-05
4.4919753e-05
4.2939787e-05
4.1070302e-05
3.9302815e-05
3.762973e-05
3.6044177e-05
3.4539841e-05
3.3110988e-05
3.1752425e-05
3.04594e-05
2.9227576e-05
2.8052963e-05
2.6931913e-05
2.5861146e-05
2.4837571e-05
2.3858305e-05
2.2920736e-05
2.202244e-05
2.1161173e-05
2.0334855e-05
1.9541548e-05
1.8779485e-05
1.8047026e-05
1.7342605e-05
1.6664766e-05
1.6012168e-05
1.538355e-05
1.477774e-05
1.4193632e-05
1.3630197e-05
1.3086502e-05
1.2561639e-05
1.2054741e-05
1.156502e-05
1.1091723e-05
1.0634148e-05
1.0191628e-05
9.763541e-06
9.3493153e-06
8.9483871e-06
8.5602295e-06
8.1843517e-06
7.820286e-06
7.4675845e-06
7.1258335e-06
6.7946441e-06
6.4735393e-06
6.1624776e-06
5.8687851e-06
5.6001239e-06
5.3553799e-06
5.1315102e-06
4.9262205e-06
4.737351e-06
4.5630624e-06
4.4017611e-06
4.2520581e-06
4.1127415e-06
3.9827534e-06
3.8611566e-06
3.7471082e-06
3.6398506e-06
3.5386777e-06
3.44295e-06
3.3519519e-06
3.2651708e-06
3.181338e-06
3.1010317e-06
3.0179981e-06
2.9475228e-06
2.8443306e-06
0.0074401855
0.0072921724
0.0072072724
0.0071624573
0.0071346515
0.0071150925
0.0071004586
0.0070891592
0.0070802613
0.0070731589
0.0070674398
0.0070628181
0.0070590954
0.007056139
0.0070538732
0.0070522759
0.0070514102
0.0070514049
0.0070527802
0.007055923
0.0070638789
0.0070839933
0.0070766187
0.0088871446
0.021933987
0.0015447051
0.0036062651
0.00029865708
0.0013879992
0.00014780733
0.00080521295
9.6223909e-05
0.00054406707
0.00041746281
0.00039845377
0.00033452419
0.00030514351
0.00026929579
0.0002439087
0.00022040022
0.00020090432
0.00018378719
0.00016891016
0.0001558155
0.00014423264
0.00013392485
0.00012470405
0.00011641588
0.00010893318
0.00010215048
9.5979201e-05
9.034457e-05
8.5183275e-05
8.0441205e-05
7.607209e-05
7.2036127e-05
6.829866e-05
6.48295e-05
6.1602348e-05
5.859411e-05
5.5784429e-05
5.3155395e-05
5.0691173e-05
4.8377571e-05
4.6201918e-05
4.4152911e-05
4.2220431e-05
4.0395359e-05
3.8669466e-05
3.703538e-05
3.5486438e-05
3.4016508e-05
3.2620024e-05
3.1291946e-05
3.0027657e-05
2.8822946e-05
2.7673937e-05
2.6577085e-05
2.5529202e-05
2.4527286e-05
2.3568534e-05
2.2650406e-05
2.1770547e-05
2.0926771e-05
2.0117058e-05
1.9339523e-05
1.8592444e-05
1.7874229e-05
1.7183352e-05
1.6518396e-05
1.5878056e-05
1.5261104e-05
1.4666399e-05
1.4092863e-05
1.3539495e-05
1.3005386e-05
1.248965e-05
1.1991444e-05
1.1509998e-05
1.104458e-05
1.0594504e-05
1.0159119e-05
9.73782e-06
9.3300478e-06
8.9352521e-06
8.5529189e-06
8.1825688e-06
7.8237451e-06
7.47601e-06
7.1389591e-06
6.8122123e-06
6.4953035e-06
6.188192e-06
5.898107e-06
5.6326344e-06
5.3907116e-06
5.1693511e-06
4.9662968e-06
4.7794246e-06
4.6069249e-06
4.4472295e-06
4.2989715e-06
4.1609576e-06
4.0321465e-06
3.9116149e-06
3.7985326e-06
3.6921529e-06
3.59178e-06
3.4967832e-06
3.4064557e-06
3.3202913e-06
3.2370338e-06
3.1572568e-06
3.0747587e-06
3.0047082e-06
2.9021491e-06
0.0073819143
0.0072296007
0.007142021
0.0070957186
0.0070669659
0.0070467309
0.0070315851
0.0070198856
0.0070106679
0.0070033053
0.0069973711
0.0069925686
0.0069886915
0.0069856008
0.006983215
0.0069815073
0.0069805341
0.0069804197
0.006981663
0.0069846628
0.0069922819
0.0070122935
0.0070015767
0.0087822135
0.021055624
0.0015186021
0.0034402679
0.00029140986
0.0013309069
0.00014429872
0.00077453513
9.4311376e-05
0.00052459485
0.00040346628
0.00038499604
0.00032364527
0.00029533152
0.00026086209
0.00023640128
0.00021375585
0.0001949576
0.00017844708
0.00016408869
0.00015144465
0.000140255
0.00013029267
0.00012137705
0.0001133599
0.00010611899
9.9552967e-05
9.357663e-05
8.8118047e-05
8.3116283e-05
7.8519247e-05
7.4282378e-05
7.0367335e-05
6.6740723e-05
6.3373442e-05
6.0240135e-05
5.7318532e-05
5.4588995e-05
5.203424e-05
4.9638987e-05
4.7389533e-05
4.5273643e-05
4.3280399e-05
4.1400025e-05
3.9623711e-05
3.7943504e-05
3.6352279e-05
3.4843592e-05
3.3411515e-05
3.2050665e-05
3.0756164e-05
2.9523546e-05
2.8348735e-05
2.722798e-05
2.6157849e-05
2.5135255e-05
2.415729e-05
2.322124e-05
2.2324643e-05
2.1465217e-05
2.0640846e-05
1.9849569e-05
1.9089561e-05
1.835915e-05
1.7656794e-05
1.6981013e-05
1.6330431e-05
1.5703783e-05
1.5099877e-05
1.4517605e-05
1.3955923e-05
1.3413855e-05
1.2890523e-05
1.2385064e-05
1.189666e-05
1.1424562e-05
1.0968059e-05
1.0526485e-05
1.0099206e-05
9.6856335e-06
9.2852245e-06
8.8974427e-06
8.5217884e-06
8.1577947e-06
7.8050169e-06
7.4630283e-06
7.1314352e-06
6.8098668e-06
6.4978689e-06
6.1954023e-06
5.9095827e-06
5.6479028e-06
5.4093526e-06
5.1910066e-06
4.9906519e-06
4.8062049e-06
4.6358897e-06
4.4781672e-06
4.3316954e-06
4.1953027e-06
4.067966e-06
3.9487786e-06
3.8369246e-06
3.7316699e-06
3.6323305e-06
3.5382859e-06
3.4488396e-06
3.3634931e-06
3.2810055e-06
3.2019444e-06
3.120175e-06
3.0507132e-06
2.9490274e-06
0.0073149503
0.0071576754
0.0070669915
0.0070189643
0.0069891136
0.0069680947
0.0069523553
0.0069401917
0.0069306032
0.006922939
0.0069167555
0.0069117438
0.0069076882
0.0069044424
0.0069019187
0.0069000844
0.0068989891
0.006898752
0.0068998484
0.0069026911
0.0069099412
0.0069298579
0.0069154038
0.0086624227
0.020138997
0.0014911712
0.0032635196
0.00028355019
0.0012695788
0.00014045673
0.0007414242
9.2154626e-05
0.00050350537
0.00038824662
0.00037038237
0.00031180154
0.00028464851
0.00025166383
0.00022820694
0.00020649433
0.0001884519
0.00017259843
0.00015880235
0.00014664708
0.00013588415
0.00012629691
0.00011771282
0.00010999021
0.00010301223
9.6681915e-05
9.0917742e-05
8.5650841e-05
8.0822855e-05
7.6383873e-05
7.2291184e-05
6.850803e-05
6.5002379e-05
6.1746313e-05
5.8715497e-05
5.588855e-05
5.3246614e-05
5.0773087e-05
4.8453287e-05
4.6274046e-05
4.4223598e-05
4.2291444e-05
4.0468182e-05
3.8745338e-05
3.7115255e-05
3.5571077e-05
3.4106602e-05
3.2716122e-05
3.1394449e-05
3.0136887e-05
2.8939131e-05
2.7797254e-05
2.6707637e-05
2.5666974e-05
2.4672287e-05
2.3720772e-05
2.2809808e-05
2.1937023e-05
2.1100212e-05
2.0297332e-05
1.9526492e-05
1.8785928e-05
1.8074026e-05
1.7389296e-05
1.6730308e-05
1.6095733e-05
1.5484348e-05
1.4895002e-05
1.4326621e-05
1.3778197e-05
1.3248787e-05
1.2737539e-05
1.2243621e-05
1.1766239e-05
1.130467e-05
1.0858224e-05
1.0426255e-05
1.0008152e-05
9.6033431e-06
9.2113018e-06
8.8315081e-06
8.4634775e-06
8.1067572e-06
7.7609157e-06
7.4255387e-06
7.1002437e-06
6.7846707e-06
6.4783785e-06
6.1813295e-06
5.9005082e-06
5.6432941e-06
5.4087318e-06
5.1939646e-06
4.9968283e-06
4.8152851e-06
4.6475975e-06
4.4922591e-06
4.3479563e-06
4.2135418e-06
4.088014e-06
3.9704843e-06
3.8601535e-06
3.7563021e-06
3.6582592e-06
3.5654161e-06
3.4770888e-06
3.3927873e-06
3.3112895e-06
3.2331553e-06
3.1523331e-06
3.0836454e-06
2.9831049e-06
0.0072384352
0.0070754684
0.0069812061
0.0069311882
0.00690007
0.0068781462
0.0068617216
0.0068490224
0.0068390059
0.0068309936
0.0068245226
0.0068192697
0.0068150086
0.0068115845
0.0068089027
0.0068069241
0.0068056903
0.0068053151
0.0068062482
0.0068089186
0.006815765
0.0068355964
0.0068169741
0.0085265217
0.019187354
0.0014625309
0.0030762023
0.00027504302
0.0012039394
0.0001362581
0.00070579923
8.9732669e-05
0.00048072934
0.00037174363
0.00035455478
0.00029894107
0.00027304614
0.00024165672
0.00021928464
0.00019857765
0.00018135188
0.00016620833
0.00015302039
0.00014139395
0.00013109301
0.00012191208
0.00011368731
0.00010628409
9.9591361e-05
9.3516895e-05
8.7983124e-05
8.2924483e-05
7.8285389e-05
7.4018284e-05
7.0082457e-05
6.6442854e-05
6.306892e-05
5.9934012e-05
5.7014898e-05
5.4291159e-05
5.1744782e-05
4.9359901e-05
4.7122483e-05
4.5019934e-05
4.3041002e-05
4.1175639e-05
3.9414849e-05
3.7750518e-05
3.6175315e-05
3.4682676e-05
3.3266657e-05
3.1921789e-05
3.0643101e-05
2.9426089e-05
2.8266626e-05
2.7160943e-05
2.610557e-05
2.5097332e-05
2.4133372e-05
2.3210998e-05
2.2327693e-05
2.1481178e-05
2.0669335e-05
1.9890202e-05
1.9141959e-05
1.8422912e-05
1.773151e-05
1.7066318e-05