/*--------------------------------*- C++ -*----------------------------------*\
| =========                 |                                                 |
| \\      /  F ield         | OpenFOAM: The Open Source CFD Toolbox           |
|  \\    /   O peration     | Version:  2206                                  |
|   \\  /    A nd           | Website:  www.openfoam.com                      |
|    \\/     M anipulation  |                                                 |
\*---------------------------------------------------------------------------*/
FoamFile
{
    version     2.0;
    format      ascii;
    arch        "LSB;label=32;scalar=64";
    class       volScalarField;
    location    "1500";
    object      k;
}
// * * * * * * * * * * * * * * * * * * * * * * * * * * * * * * * * * * * * * //

dimensions      [0 2 -2 0 0 0 0];

internalField   nonuniform List<scalar> 
13056
(
0.00012826638
0.00011804729
0.00011436974
0.00011251186
0.00011133824
0.00011051333
0.00010990117
0.00010943159
0.00010906285
0.00010876801
0.00010852878
0.00010833232
0.00010816931
0.00010803285
0.00010791769
0.0001078199
0.00010773611
0.00010766473
0.00010760116
0.00010755515
0.00010747889
0.00010760823
0.00010667889
0.00011120171
1.7757485e-05
2.6972696e-06
5.3698835e-06
9.2293793e-07
2.7697639e-06
5.7323453e-07
1.8974238e-06
4.1755363e-07
1.4443004e-06
1.1955941e-06
1.1622167e-06
1.0270204e-06
9.6482855e-07
8.8356525e-07
8.2501793e-07
7.6848654e-07
7.2043253e-07
6.769324e-07
6.3814383e-07
6.0310245e-07
5.7134702e-07
5.4241595e-07
5.1594644e-07
4.9163164e-07
4.6921438e-07
4.4847746e-07
4.2923481e-07
4.1132651e-07
3.9461492e-07
3.7898039e-07
3.643191e-07
3.5054048e-07
3.3756428e-07
3.2531957e-07
3.1374373e-07
3.0278102e-07
2.9238157e-07
2.8250108e-07
2.7309992e-07
2.6414199e-07
2.5559469e-07
2.4742863e-07
2.3961716e-07
2.3213598e-07
2.2496289e-07
2.1807794e-07
2.1146286e-07
2.0510056e-07
1.9897538e-07
1.9307304e-07
1.8738029e-07
1.8188496e-07
1.7657569e-07
1.7144204e-07
1.6647463e-07
1.6166441e-07
1.5700283e-07
1.5248213e-07
1.4809503e-07
1.4383471e-07
1.3969482e-07
1.3566935e-07
1.3175284e-07
1.2794019e-07
1.242264e-07
1.2060678e-07
1.1707702e-07
1.1363299e-07
1.1027086e-07
1.0698691e-07
1.0377771e-07
1.0064017e-07
9.7571164e-08
9.4567671e-08
9.1626952e-08
8.8746356e-08
8.5923378e-08
8.3155601e-08
8.0440759e-08
7.7776795e-08
7.5161596e-08
7.2593126e-08
7.0069494e-08
6.7588859e-08
6.5149404e-08
6.2749434e-08
6.0387331e-08
5.8060595e-08
5.5770174e-08
5.357337e-08
5.1532659e-08
4.9644571e-08
4.7891378e-08
4.6260497e-08
4.473931e-08
4.3316965e-08
4.1983868e-08
4.0731498e-08
3.9552293e-08
3.8439549e-08
3.7387206e-08
3.6389684e-08
3.5441857e-08
3.4538765e-08
3.3675834e-08
3.2847541e-08
3.2050077e-08
3.1272226e-08
3.0520093e-08
2.9733986e-08
2.906124e-08
2.806106e-08
0.00012825588
0.0001180292
0.0001143488
0.00011248943
0.00011131486
0.00011048927
0.0001098766
0.00010940664
0.00010903759
0.0001087425
0.00010850307
0.00010830644
0.00010814329
0.00010800671
0.00010789145
0.00010779357
0.00010770971
0.00010763826
0.00010757463
0.00010752857
0.00010745224
0.00010758167
0.00010665168
0.00011117795
1.7725971e-05
2.6729841e-06
5.2576721e-06
9.1210186e-07
2.715573e-06
5.6585222e-07
1.8623216e-06
4.1262517e-07
1.4189166e-06
1.1759401e-06
1.1427082e-06
1.0104196e-06
9.4928552e-07
8.6968042e-07
8.1220824e-07
7.5676471e-07
7.095979e-07
6.6690237e-07
6.2881786e-07
5.9440698e-07
5.6321556e-07
5.3479272e-07
5.0878306e-07
4.8488617e-07
4.6285019e-07
4.4246237e-07
4.2354045e-07
4.0592772e-07
3.8948932e-07
3.7410797e-07
3.5968191e-07
3.4612236e-07
3.3335064e-07
3.2129718e-07
3.0990059e-07
2.9910618e-07
2.8886505e-07
2.7913372e-07
2.6987333e-07
2.6104845e-07
2.5262708e-07
2.445804e-07
2.3688221e-07
2.2950869e-07
2.2243805e-07
2.1565068e-07
2.0912866e-07
2.0285519e-07
1.9681491e-07
1.9099378e-07
1.853788e-07
1.79958e-07
1.7472024e-07
1.6965524e-07
1.647538e-07
1.6000703e-07
1.5540651e-07
1.5094462e-07
1.4661421e-07
1.4240859e-07
1.3832149e-07
1.3434701e-07
1.3047979e-07
1.2671481e-07
1.2304715e-07
1.1947221e-07
1.1598574e-07
1.1258368e-07
1.0926225e-07
1.0601782e-07
1.0284698e-07
9.9746717e-08
9.6713944e-08
9.3745687e-08
9.0839251e-08
8.7992025e-08
8.5201543e-08
8.2465426e-08
7.9781441e-08
7.7147562e-08
7.4561708e-08
7.2021871e-08
6.9526189e-08
6.7072849e-08
6.4660057e-08
6.2286144e-08
5.9949515e-08
5.764771e-08
5.5381661e-08
5.3207984e-08
5.1188527e-08
4.9320002e-08
4.7584906e-08
4.5970793e-08
4.4465189e-08
4.3057361e-08
4.173782e-08
4.049814e-08
3.9330842e-08
3.8229295e-08
3.7187507e-08
3.6199959e-08
3.526158e-08
3.4367468e-08
3.3513098e-08
3.2693009e-08
3.190343e-08
3.1133268e-08
3.038856e-08
2.9610221e-08
2.8944076e-08
2.7954047e-08
0.00012822209
0.00011797215
0.00011428307
0.00011241918
0.00011124171
0.00011041407
0.00010979987
0.00010932872
0.00010895874
0.00010866289
0.00010842285
0.00010822572
0.00010806214
0.0001079252
0.00010780963
0.00010771148
0.00010762739
0.00010755574
0.00010749192
0.00010744572
0.00010736918
0.00010749884
0.00010656697
0.00011110286
1.7697586e-05
2.6487016e-06
5.1454644e-06
9.0118197e-07
2.6612094e-06
5.5839894e-07
1.8270452e-06
4.0763704e-07
1.3933739e-06
1.1561161e-06
1.1230615e-06
9.9367889e-07
9.3361782e-07
8.5567276e-07
7.9928419e-07
7.4493245e-07
6.9865826e-07
6.567715e-07
6.1939525e-07
5.8561856e-07
5.5499464e-07
5.2708327e-07
5.0153644e-07
4.7806024e-07
4.5640813e-07
4.3637185e-07
4.1777293e-07
4.0045791e-07
3.8429472e-07
3.6916845e-07
3.5497942e-07
3.4164064e-07
3.2907499e-07
3.1721431e-07
3.0599841e-07
2.9537369e-07
2.8529219e-07
2.7571129e-07
2.6659287e-07
2.579022e-07
2.4960787e-07
2.416816e-07
2.3409773e-07
2.2683285e-07
2.1986559e-07
2.1317671e-07
2.0674862e-07
2.0056484e-07
1.9461027e-07
1.8887115e-07
1.8333471e-07
1.779892e-07
1.7282367e-07
1.6782803e-07
1.6299324e-07
1.5831058e-07
1.5377178e-07
1.4936935e-07
1.4509627e-07
1.4094594e-07
1.3691223e-07
1.3298933e-07
1.2917198e-07
1.2545524e-07
1.2183427e-07
1.1830455e-07
1.148619e-07
1.1150234e-07
1.0822214e-07
1.0501774e-07
1.0188578e-07
9.8823295e-08
9.5827252e-08
9.2894725e-08
9.0023061e-08
8.7209692e-08
8.4452189e-08
8.1748212e-08
7.9095561e-08
7.6492243e-08
7.3936205e-08
7.1425473e-08
6.8958211e-08
6.6532634e-08
6.4146973e-08
6.1799586e-08
5.94889e-08
5.7212495e-08
5.4971286e-08
5.2821196e-08
5.082343e-08
4.8974878e-08
4.7258262e-08
4.5661277e-08
4.4171595e-08
4.2778603e-08
4.1472921e-08
4.0246217e-08
3.9091097e-08
3.8001007e-08
3.697002e-08
3.5992682e-08
3.5063978e-08
3.4179063e-08
3.3333462e-08
3.2521778e-08
3.1740278e-08
3.0977997e-08
3.0240897e-08
2.947053e-08
2.8811151e-08
2.7831526e-08
0.00012816398
0.00011787437
0.00011417048
0.00011229889
0.00011111649
0.00011028535
0.00010966854
0.00010919538
0.0001088238
0.00010852668
0.00010828559
0.00010808758
0.00010792328
0.00010778572
0.00010766963
0.00010757103
0.00010748654
0.00010741454
0.00010735041
0.00010730397
0.00010722707
0.00010735711
0.00010642207
0.00011097407
1.7672275e-05
2.6241117e-06
5.0317765e-06
8.900408e-07
2.6059524e-06
5.5077909e-07
1.7911239e-06
4.0251829e-07
1.3673294e-06
1.1358527e-06
1.1030116e-06
9.7657099e-07
9.1761334e-07
8.4135179e-07
7.8607002e-07
7.328285e-07
6.8746433e-07
6.464013e-07
6.0974703e-07
5.7661672e-07
5.4657139e-07
5.1918154e-07
4.9410674e-07
4.7105965e-07
4.4979916e-07
4.3012155e-07
4.1185224e-07
3.9484107e-07
3.7895878e-07
3.6409291e-07
3.5014587e-07
3.3703251e-07
3.2467731e-07
3.1301352e-07
3.0198218e-07
2.915308e-07
2.8161238e-07
2.7218517e-07
2.6321182e-07
2.5465829e-07
2.464938e-07
2.3869063e-07
2.3122361e-07
2.240698e-07
2.1720825e-07
2.1062008e-07
2.0428805e-07
1.98196e-07
1.9232912e-07
1.866739e-07
1.8121781e-07
1.7594934e-07
1.7085772e-07
1.6593308e-07
1.6116653e-07
1.5654952e-07
1.5207391e-07
1.4773237e-07
1.43518e-07
1.3942432e-07
1.3544531e-07
1.3157528e-07
1.2780903e-07
1.2414174e-07
1.2056865e-07
1.170853e-07
1.1368761e-07
1.1037165e-07
1.0713377e-07
1.0397044e-07
1.008784e-07
9.7854712e-08
9.4896399e-08
9.2000583e-08
8.9164656e-08
8.6386092e-08
8.3662502e-08
8.0991585e-08
7.8371177e-08
7.5799314e-08
7.3273979e-08
7.0793226e-08
6.835525e-08
6.5958292e-08
6.3600611e-08
6.128059e-08
5.8996681e-08
5.6746505e-08
5.4530959e-08
5.2405254e-08
5.0429928e-08
4.8602044e-08
4.6904559e-08
4.5325311e-08
4.385212e-08
4.24745e-08
4.1183182e-08
3.9969931e-08
3.8827442e-08
3.7749235e-08
3.6729456e-08
3.5762714e-08
3.4844054e-08
3.3968689e-08
3.3132196e-08
3.2329243e-08
3.1556138e-08
3.0802047e-08
3.0072854e-08
2.9310779e-08
2.8658433e-08
2.7689615e-08
0.00012807996
0.00011773305
0.00011400779
0.0001121251
0.00011093558
0.00011009939
0.00010947881
0.00010900274
0.00010862887
0.0001083299
0.0001080873
0.00010788804
0.00010772269
0.00010758424
0.00010746739
0.00010736813
0.00010728308
0.00010721058
0.000107146
0.0001070992
0.0001070218
0.00010715238
0.00010621277
0.0001107879
1.7649918e-05
2.5989273e-06
4.9152193e-06
8.7854575e-07
2.5491175e-06
5.4289958e-07
1.7541072e-06
3.9719899e-07
1.340453e-06
1.1148885e-06
1.082303e-06
9.5887529e-07
9.0106642e-07
8.265324e-07
7.7239482e-07
7.2029577e-07
6.7587057e-07
6.3565665e-07
5.997472e-07
5.6728364e-07
5.3783533e-07
5.1098368e-07
4.863961e-07
4.6379199e-07
4.4293583e-07
4.236286e-07
4.0569969e-07
3.8900236e-07
3.7341024e-07
3.588134e-07
3.4511641e-07
3.3223599e-07
3.2009829e-07
3.08638e-07
2.9779744e-07
2.8752525e-07
2.7777545e-07
2.6850716e-07
2.5968384e-07
2.5127214e-07
2.4324194e-07
2.355661e-07
2.2821996e-07
2.2118107e-07
2.1442889e-07
2.0794495e-07
2.0171234e-07
1.9571523e-07
1.8993911e-07
1.8437075e-07
1.7899786e-07
1.7380916e-07
1.687941e-07
1.6394299e-07
1.5924713e-07
1.5469813e-07
1.5028801e-07
1.4600957e-07
1.4185605e-07
1.3782111e-07
1.3389882e-07
1.300836e-07
1.2637037e-07
1.2275437e-07
1.1923095e-07
1.1579574e-07
1.1244471e-07
1.0917402e-07
1.0598008e-07
1.0285943e-07
9.9808859e-08
9.6825487e-08
9.3906394e-08
9.1048749e-08
8.8249992e-08
8.5507639e-08
8.2819345e-08
8.0182845e-08
7.7596014e-08
7.5056922e-08
7.2563582e-08
7.0114085e-08
6.7706653e-08
6.5339556e-08
6.3011081e-08
6.0719638e-08
5.8463705e-08
5.6240944e-08
5.4052235e-08
5.1952049e-08
5.0000224e-08
4.8193995e-08
4.6516559e-08
4.4955905e-08
4.3500008e-08
4.2138514e-08
4.0862267e-08
3.9663138e-08
3.8533909e-08
3.7468184e-08
3.6460179e-08
3.5504572e-08
3.4596469e-08
3.3731145e-08
3.2904231e-08
3.2110461e-08
3.1346187e-08
3.0600714e-08
2.9879841e-08
2.9126498e-08
2.8481555e-08
2.75241e-08
0.00012796788
0.00011754443
0.00011379064
0.00011189312
0.00011069409
0.00010985116
0.00010922555
0.0001087456
0.00010836867
0.00010806723
0.00010782262
0.00010762169
0.00010745494
0.00010731531
0.00010719744
0.00010709731
0.00010701149
0.00010693833
0.00010687314
0.00010682588
0.00010674779
0.00010687909
0.00010593343
0.00011053939
1.7630628e-05
2.572884e-06
4.7944902e-06
8.6656835e-07
2.490052e-06
5.3466925e-07
1.7155617e-06
3.9160967e-07
1.3124253e-06
1.092969e-06
1.0606867e-06
9.403765e-07
8.8377634e-07
8.110335e-07
7.5809124e-07
7.0718027e-07
6.6373412e-07
6.2440472e-07
5.8927181e-07
5.575033e-07
5.2867756e-07
5.0238722e-07
4.7830785e-07
4.5616591e-07
4.3573164e-07
4.1681093e-07
3.9923732e-07
3.8286759e-07
3.6757842e-07
3.5326247e-07
3.3982659e-07
3.2718944e-07
3.152789e-07
3.0403118e-07
2.9338993e-07
2.8330496e-07
2.7373134e-07
2.6462912e-07
2.5596258e-07
2.4769912e-07
2.398093e-07
2.3226656e-07
2.250468e-07
2.1812806e-07
2.1149026e-07
2.0511531e-07
1.9898667e-07
1.9308887e-07
1.874077e-07
1.8193021e-07
1.7664438e-07
1.7153915e-07
1.6660422e-07
1.6183007e-07
1.5720821e-07
1.5273041e-07
1.4838886e-07
1.4417651e-07
1.4008673e-07
1.3611332e-07
1.3225046e-07
1.2849268e-07
1.2483501e-07
1.212728e-07
1.1780146e-07
1.1441673e-07
1.1111465e-07
1.0789145e-07
1.0474362e-07
1.0166777e-07
9.8660743e-08
9.5719714e-08
9.2841822e-08
9.0024288e-08
8.7264599e-08
8.4560319e-08
8.1909146e-08
7.9308856e-08
7.6757363e-08
7.4252773e-08
7.1793132e-08
6.9376566e-08
6.7001329e-08
6.466572e-08
6.2368057e-08
6.0106777e-08
5.7880383e-08
5.5686584e-08
5.352624e-08
5.1453048e-08
4.95261e-08
4.7742803e-08
4.6086605e-08
4.4545654e-08
4.3108089e-08
4.1763692e-08
4.0503431e-08
3.9319283e-08
3.8204127e-08
3.7151653e-08
3.6156151e-08
3.5212372e-08
3.4315488e-08
3.3460834e-08
3.2644102e-08
3.1860096e-08
3.1105214e-08
3.0368906e-08
2.9656883e-08
2.8912833e-08
2.8275766e-08
2.7330386e-08
0.00012782507
0.0001173038
0.00011351354
0.00011159708
0.0001103859
0.00010953438
0.00010890235
0.00010841744
0.00010803659
0.00010773201
0.00010748482
0.00010728176
0.00010711322
0.00010697208
0.00010685292
0.00010675167
0.00010666488
0.00010659087
0.00010652491
0.00010647705
0.00010639808
0.00010653029
0.00010557695
0.00011022234
1.7614765e-05
2.5457411e-06
4.6683713e-06
8.5398385e-07
2.4281335e-06
5.2599861e-07
1.6750698e-06
3.8568094e-07
1.2829364e-06
1.0698454e-06
1.0379203e-06
9.208638e-07
8.6554651e-07
7.9467727e-07
7.4299483e-07
6.9333038e-07
6.509142e-07
6.1251447e-07
5.781984e-07
5.4716097e-07
5.1899028e-07
4.9329062e-07
4.6974616e-07
4.4809072e-07
4.2810065e-07
4.0958695e-07
3.9238751e-07
3.7636285e-07
3.6139281e-07
3.4737281e-07
3.3421205e-07
3.2183126e-07
3.1016014e-07
2.9913647e-07
2.8870532e-07
2.7881772e-07
2.6942985e-07
2.6050274e-07
2.5200152e-07
2.4389441e-07
2.3615264e-07
2.287503e-07
2.2166386e-07
2.1487188e-07
2.0835475e-07
2.020948e-07
1.960759e-07
1.9028291e-07
1.8470196e-07
1.7932039e-07
1.7412647e-07
1.6910938e-07
1.6425905e-07
1.595662e-07
1.550225e-07
1.5061992e-07
1.4635082e-07
1.422083e-07
1.3818589e-07
1.3427751e-07
1.3047748e-07
1.2678045e-07
1.2318154e-07
1.1967621e-07
1.1625998e-07
1.1292865e-07
1.0967838e-07
1.0650547e-07
1.0340646e-07
1.0037806e-07
9.7417154e-08
9.4520994e-08
9.1686771e-08
8.8911764e-08
8.6193509e-08
8.352962e-08
8.0917839e-08
7.8355988e-08
7.5842022e-08
7.3374083e-08
7.0950254e-08
6.8568697e-08
6.6227701e-08
6.3925595e-08
6.166073e-08
5.9431571e-08
5.7236651e-08
5.5073723e-08
5.2943632e-08
5.089925e-08
4.8998873e-08
4.724008e-08
4.5606584e-08
4.4086699e-08
4.2668741e-08
4.1342637e-08
4.0099484e-08
3.8931375e-08
3.7831291e-08
3.679301e-08
3.5810907e-08
3.4879806e-08
3.3994948e-08
3.3151738e-08
3.2345928e-08
3.1572398e-08
3.0827593e-08
3.010112e-08
2.9398595e-08
2.8664523e-08
2.8035912e-08
2.7103477e-08
0.00012764836
0.00011700555
0.00011316998
0.00011122998
0.00011000373
0.00010914152
0.00010850152
0.00010801046
0.00010762476
0.00010731626
0.00010706588
0.00010686018
0.00010668942
0.0001065464
0.00010642564
0.000106323
0.000106235
0.00010615994
0.00010609302
0.00010604442
0.00010596437
0.00010609769
0.00010513485
0.00010982934
1.7602959e-05
2.517285e-06
4.5357347e-06
8.4067132e-07
2.3627719e-06
5.1679967e-07
1.6322307e-06
3.793434e-07
1.251686e-06
1.0452748e-06
1.0137673e-06
9.0013083e-07
8.4618444e-07
7.7728912e-07
7.269439e-07
6.7859676e-07
6.3727194e-07
5.9985647e-07
5.664059e-07
5.3614307e-07
5.0866664e-07
4.8359312e-07
4.6061581e-07
4.3947628e-07
4.1995734e-07
4.0187539e-07
3.8507294e-07
3.6941442e-07
3.5478305e-07
3.4107716e-07
3.2820844e-07
3.1609982e-07
3.0468289e-07
2.9389713e-07
2.8368909e-07
2.7401112e-07
2.6482055e-07
2.5607945e-07
2.4775388e-07
2.3981287e-07
2.3222842e-07
2.2497527e-07
2.1803052e-07
2.1137327e-07
2.0498441e-07
1.9884672e-07
1.9294447e-07
1.8726292e-07
1.8178854e-07
1.7650898e-07
1.7141281e-07
1.6648947e-07
1.6172916e-07
1.5712279e-07
1.5266226e-07
1.4833973e-07
1.4414774e-07
1.4007957e-07
1.3612888e-07
1.3228975e-07
1.2855663e-07
1.249243e-07
1.21388e-07
1.1794328e-07
1.1458578e-07
1.1131139e-07
1.0811636e-07
1.0499706e-07
1.0195014e-07
9.8972354e-08
9.6060678e-08
9.3212414e-08
9.0424819e-08
8.7695231e-08
8.5021242e-08
8.2400517e-08
7.9830848e-08
7.7310103e-08
7.483628e-08
7.2407561e-08
7.002207e-08
6.7678006e-08
6.5373693e-08
6.3107498e-08
6.0877801e-08
5.8683101e-08
5.652196e-08
5.439218e-08
5.229459e-08
5.0281182e-08
4.8409395e-08
4.6676977e-08
4.5067924e-08
4.3570729e-08
4.2173895e-08
4.0867504e-08
3.9642795e-08
3.8491982e-08
3.7408156e-08
3.6385191e-08
3.5417549e-08
3.4500136e-08
3.3628267e-08
3.2797418e-08
3.2003408e-08
3.1241198e-08
3.0507285e-08
2.9791443e-08
2.9099186e-08
2.8375902e-08
2.7756437e-08
2.6837976e-08
0.00012743414
0.00011664319
0.00011275239
0.00011078372
0.0001095391
0.00010866389
0.00010801418
0.00010751564
0.00010712402
0.00010681076
0.00010655649
0.00010634757
0.00010617412
0.00010602882
0.0001059061
0.00010580178
0.0001057123
0.00010563596
0.00010556788
0.00010551837
0.00010543701
0.00010557168
0.00010459732
0.00010935185
1.7596145e-05
2.4873348e-06
4.3955557e-06
8.2651411e-07
2.2934138e-06
5.0698626e-07
1.5866628e-06
3.7252776e-07
1.2183856e-06
1.0190213e-06
9.879988e-07
8.7797651e-07
8.2550244e-07
7.5869829e-07
7.0978008e-07
6.6283288e-07
6.2267087e-07
5.8630331e-07
5.5377496e-07
5.2433748e-07
4.9760105e-07
4.7319506e-07
4.5082249e-07
4.3023319e-07
4.112168e-07
3.9359549e-07
3.7721665e-07
3.619489e-07
3.4767903e-07
3.3430846e-07
3.2175155e-07
3.0993354e-07
2.9878808e-07
2.8825643e-07
2.7828671e-07
2.6883267e-07
2.598529e-07
2.5131055e-07
2.4317267e-07
2.3540917e-07
2.2799286e-07
2.2089919e-07
2.141059e-07
2.0759268e-07
2.0134096e-07
1.9533399e-07
1.895565e-07
1.8399412e-07
1.7863372e-07
1.7346329e-07
1.6847169e-07
1.6364867e-07
1.5898466e-07
1.5447086e-07
1.5009935e-07
1.458625e-07
1.4175307e-07
1.377645e-07
1.3389062e-07
1.3012566e-07
1.2646422e-07
1.2290121e-07
1.1943199e-07
1.1605224e-07
1.1275769e-07
1.0954436e-07
1.0640855e-07
1.0334678e-07
1.0035573e-07
9.7432264e-08
9.4573427e-08
9.1776585e-08
8.9039065e-08
8.6358268e-08
8.3731845e-08
8.1157515e-08
7.8633123e-08
7.6156588e-08
7.3725955e-08
7.1339448e-08
6.8995234e-08
6.6691553e-08
6.4426768e-08
6.2199281e-08
6.000751e-08
5.7849988e-08
5.5725308e-08
5.3631324e-08
5.1568848e-08
4.958893e-08
4.7748079e-08
4.6044211e-08
4.4461624e-08
4.2989005e-08
4.1615057e-08
4.0330033e-08
3.9125318e-08
3.7993262e-08
3.692707e-08
3.5920724e-08
3.4968779e-08
3.4066226e-08
3.3208462e-08
3.239104e-08
3.160985e-08
3.085994e-08
3.0137865e-08
2.9433578e-08
2.8752483e-08
2.8040926e-08
2.7431407e-08
2.6528114e-08
0.00012717839
0.00011620941
0.00011225223
0.00011024912
0.00010898246
0.00010809163
0.00010743027
0.00010692274
0.00010652403
0.00010620507
0.00010594613
0.00010573335
0.00010555666
0.00010540862
0.00010528355
0.00010517721
0.00010508597
0.0001050081
0.00010493862
0.00010488802
0.00010480509
0.00010494137
0.00010395327
0.0001087802
1.7595606e-05
2.4557508e-06
4.2469329e-06
8.1140081e-07
2.2195514e-06
4.9647447e-07
1.5380084e-06
3.6516523e-07
1.1827613e-06
9.9085856e-07
9.6039504e-07
8.5420698e-07
8.0331932e-07
7.3873933e-07
6.9134963e-07
6.4589611e-07
6.0697791e-07
5.7173052e-07
5.4018879e-07
5.1163432e-07
4.8568987e-07
4.6199843e-07
4.4027339e-07
4.2027336e-07
4.017953e-07
3.846675e-07
3.6874259e-07
3.5389366e-07
3.4001129e-07
3.2700021e-07
3.1477765e-07
3.0327129e-07
2.9241698e-07
2.821579e-07
2.7244385e-07
2.6323007e-07
2.5447648e-07
2.4614742e-07
2.3821097e-07
2.3063801e-07
2.2340219e-07
2.1647972e-07
2.0984905e-07
2.0349048e-07
1.9738602e-07
1.9151945e-07
1.8587594e-07
1.8044158e-07
1.7520362e-07
1.7015043e-07
1.6527119e-07
1.6055597e-07
1.5599547e-07
1.5158115e-07
1.4730533e-07
1.4316062e-07
1.3913996e-07
1.3523699e-07
1.3144572e-07
1.2776055e-07
1.2417622e-07
1.2068781e-07
1.1729079e-07
1.1398097e-07
1.107542e-07
1.076066e-07
1.045346e-07
1.0153478e-07
9.8603942e-08
9.573902e-08
9.2937142e-08
9.0195748e-08
8.7512236e-08
8.4884077e-08
8.2308983e-08
7.9784735e-08
7.7309232e-08
7.488045e-08
7.2496483e-08
7.0155602e-08
6.7856017e-08
6.5596016e-08
6.3374003e-08
6.1188418e-08
5.903772e-08
5.6920476e-08
5.4835316e-08
5.278015e-08
5.0755769e-08
4.8812211e-08
4.700497e-08
4.5332134e-08
4.3778322e-08
4.2332431e-08
4.098338e-08
3.9721605e-08
3.8538655e-08
3.742702e-08
3.6380037e-08
3.5391795e-08
3.4456955e-08
3.3570601e-08
3.2728215e-08
3.1925436e-08
3.115823e-08
3.0421739e-08
2.971258e-08
2.9020901e-08
2.8351988e-08
2.7653229e-08
2.7054567e-08
2.6167803e-08
0.0001268767
0.00011569609
0.00011166002
0.000109616
0.00010832316
0.0001074138
0.00010673861
0.00010622042
0.00010581329
0.00010548755
0.00010522309
0.00010500572
0.00010482519
0.0001046739
0.00010454606
0.00010443732
0.00010434399
0.00010426429
0.00010419315
0.00010414127
0.00010405648
0.00010419466
0.00010319034
0.00010810369
1.7603019e-05
2.4224456e-06
4.0891174e-06
7.9522681e-07
2.1407349e-06
4.8518357e-07
1.4859416e-06
3.5718827e-07
1.144559e-06
9.6057352e-07
9.3074949e-07
8.2863852e-07
7.7946305e-07
7.1725447e-07
6.7150556e-07
6.2764967e-07
5.9006515e-07
5.560182e-07
5.2553461e-07
4.9792728e-07
4.7283263e-07
4.4990813e-07
4.2887826e-07
4.0951102e-07
3.9161116e-07
3.7501356e-07
3.5957642e-07
3.451776e-07
3.3171178e-07
3.190872e-07
3.0722415e-07
2.9605297e-07
2.8551182e-07
2.7554595e-07
2.6610697e-07
2.5715172e-07
2.4864155e-07
2.4054204e-07
2.3282241e-07
2.2545457e-07
2.1841305e-07
2.1167492e-07
2.0521935e-07
1.9902734e-07
1.9308149e-07
1.8736613e-07
1.8186695e-07
1.7657051e-07
1.7146449e-07
1.6653762e-07
1.6177948e-07
1.5718043e-07
1.5273152e-07
1.4842445e-07
1.4425181e-07
1.4020644e-07
1.3628151e-07
1.3247087e-07
1.2876872e-07
1.2516964e-07
1.2166853e-07
1.1826063e-07
1.1494154e-07
1.1170722e-07
1.0855364e-07
1.0547704e-07
1.0247396e-07
9.9541081e-08
9.6675309e-08
9.3873668e-08
9.1133374e-08
8.8451943e-08
8.5826853e-08
8.3255648e-08
8.0736106e-08
7.8266076e-08
7.5843517e-08
7.3466463e-08
7.1133064e-08
6.8841638e-08
6.6590448e-08
6.4377829e-08
6.2202229e-08
6.0062132e-08
5.7956038e-08
5.5882555e-08
5.3840351e-08
5.1827393e-08
4.9844457e-08
4.7940482e-08
4.6169858e-08
4.4530841e-08
4.3008397e-08
4.1591651e-08
4.0269757e-08
3.903335e-08
3.7874152e-08
3.6784813e-08
3.5758804e-08
3.4790339e-08
3.3874187e-08
3.3005535e-08
3.217996e-08
3.139319e-08
3.0641275e-08
2.9919461e-08
2.9224431e-08
2.8546544e-08
2.7890959e-08
2.7206199e-08
2.6619423e-08
2.5750713e-08
0.00012652436
0.00011509441
0.00011096538
0.00010887318
0.00010754953
0.00010661837
0.00010592692
0.0001053962
0.00010497917
0.00010464548
0.00010437451
0.00010415176
0.00010396672
0.00010381161
0.0001036805
0.00010356895
0.00010347316
0.00010339132
0.00010331824
0.00010326485
0.00010317787
0.00010331827
0.00010229502
0.00010731062
1.7620509e-05
2.3874e-06
3.9215492e-06
7.7789649e-07
2.0565885e-06
4.7303733e-07
1.4301783e-06
3.4853161e-07
1.1035512e-06
9.2797179e-07
8.9887369e-07
8.0110187e-07
7.5377464e-07
6.9409702e-07
6.5011071e-07
6.0796545e-07
5.7181234e-07
5.3905327e-07
5.0970582e-07
4.8311559e-07
4.5893391e-07
4.3683358e-07
4.1655099e-07
3.9786415e-07
3.8058618e-07
3.6455896e-07
3.4964669e-07
3.3573233e-07
3.2271492e-07
3.1050651e-07
2.9903062e-07
2.8822045e-07
2.7801667e-07
2.6836672e-07
2.5922416e-07
2.5054753e-07
2.4229972e-07
2.3444767e-07
2.2696181e-07
2.1981513e-07
2.1298316e-07
2.0644384e-07
2.0017714e-07
1.9416479e-07
1.8839004e-07
1.8283784e-07
1.774944e-07
1.723468e-07
1.6738317e-07
1.6259267e-07
1.5796525e-07
1.5349164e-07
1.491632e-07
1.4497195e-07
1.4091075e-07
1.3697269e-07
1.3315119e-07
1.2944032e-07
1.2583447e-07
1.2232843e-07
1.1891728e-07
1.1559641e-07
1.123616e-07
1.0920893e-07
1.0613451e-07
1.0313473e-07
1.0020622e-07
9.7345797e-08
9.4550461e-08
9.1817339e-08
8.914374e-08
8.6527266e-08
8.3965477e-08
8.1455998e-08
7.8996682e-08
7.6585445e-08
7.4220315e-08
7.1899387e-08
6.9620872e-08
6.7383142e-08
6.5184513e-08
6.3023373e-08
6.0898218e-08
5.8807579e-08
5.6750002e-08
5.4724138e-08
5.2728694e-08
5.0761702e-08
4.8823922e-08
4.6963102e-08
4.5232428e-08
4.3630322e-08
4.2142122e-08
4.0757203e-08
3.9464973e-08
3.8256281e-08
3.7123043e-08
3.6058076e-08
3.5055002e-08
3.4108167e-08
3.3212461e-08
3.2363181e-08
3.1556005e-08
3.0786761e-08
3.005159e-08
2.9345849e-08
2.8666293e-08
2.8003512e-08
2.7362528e-08
2.6693101e-08
2.611935e-08
2.5270385e-08
0.00012611642
0.00011439484
0.00011015708
0.00010800859
0.00010664897
0.00010569237
0.00010498194
0.0001044366
0.00010400803
0.00010366505
0.0001033865
0.00010315747
0.00010296718
0.00010280761
0.0001026727
0.00010255786
0.0001024592
0.00010237487
0.00010229952
0.00010224438
0.00010215487
0.00010229784
0.0001012527
0.00010638833
1.7650697e-05
2.3506823e-06
3.7439027e-06
7.5932617e-07
1.9668318e-06
4.5996583e-07
1.3704889e-06
3.3913381e-07
1.0595463e-06
8.9288462e-07
8.6460394e-07
7.7144792e-07
7.261133e-07
6.69136e-07
6.2704193e-07
5.8672773e-07
5.521104e-07
5.2073271e-07
4.9260489e-07
4.6710674e-07
4.4390578e-07
4.2269109e-07
4.0321178e-07
3.8525658e-07
3.6864752e-07
3.53234e-07
3.388866e-07
3.2549375e-07
3.1295917e-07
3.0119895e-07
2.9014012e-07
2.7971891e-07
2.6987868e-07
2.6056923e-07
2.5174619e-07
2.4336996e-07
2.3540505e-07
2.2781988e-07
2.2058616e-07
2.1367806e-07
2.0707216e-07
2.0074735e-07
1.9468447e-07
1.8886601e-07
1.8327596e-07
1.7789987e-07
1.7272457e-07
1.6773768e-07
1.629278e-07
1.5828458e-07
1.5379835e-07
1.4946025e-07
1.4526198e-07
1.4119588e-07
1.3725511e-07
1.3343302e-07
1.2972333e-07
1.261203e-07
1.2261859e-07
1.1921316e-07
1.1589931e-07
1.1267259e-07
1.0952896e-07
1.0646464e-07
1.0347591e-07
1.0055927e-07
9.7711506e-08
9.4929543e-08
9.2210499e-08
8.9551608e-08
8.6950281e-08
8.440421e-08
8.1911047e-08
7.9468504e-08
7.7074512e-08
7.4727065e-08
7.242426e-08
7.0164264e-08
6.7945349e-08
6.5765946e-08
6.3624431e-08
6.1519247e-08
5.9448945e-08
5.7412106e-08
5.5407324e-08
5.3433297e-08
5.1488778e-08
4.9571865e-08
4.7683301e-08
4.5869548e-08
4.4182473e-08
4.2620664e-08
4.116986e-08
3.9819706e-08
3.8559885e-08
3.7381483e-08
3.6276623e-08
3.5238307e-08
3.4260317e-08
3.3337146e-08
3.2463813e-08
3.1635735e-08
3.0848702e-08
3.0098648e-08
2.9381813e-08
2.8693675e-08
2.803107e-08
2.7384838e-08
2.675985e-08
2.6107219e-08
2.5547743e-08
2.4720378e-08
0.00012564775
0.00011358726
0.00010922316
0.00010700932
0.00010560797
0.00010462187
0.00010388946
0.00010332718
0.00010288524
0.00010253152
0.00010224419
0.00010200789
0.00010181151
0.00010164679
0.00010150746
0.00010138882
0.00010128686
0.00010119964
0.00010112167
0.00010106449
0.00010097206
0.000101118
0.00010004772
0.00010532337
1.7696749e-05
2.3124748e-06
3.5561387e-06
7.3944788e-07
1.871305e-06
4.4590777e-07
1.3067149e-06
3.2893913e-07
1.0124004e-06
8.5517783e-07
8.2780986e-07
7.3955492e-07
6.9636308e-07
6.4226205e-07
6.0219545e-07
5.6383813e-07
5.3086588e-07
5.0096764e-07
4.7414714e-07
4.4981997e-07
4.2767109e-07
4.0740688e-07
3.8879001e-07
3.7162061e-07
3.5573023e-07
3.4097628e-07
3.2723617e-07
3.1440416e-07
3.0238897e-07
2.9111099e-07
2.8050101e-07
2.7049851e-07
2.6104971e-07
2.5210695e-07
2.4362807e-07
2.3557546e-07
2.2791539e-07
2.2061782e-07
2.1365587e-07
2.0700495e-07
2.006428e-07
1.945493e-07
1.8870621e-07
1.8309688e-07
1.7770605e-07
1.7251997e-07
1.6752609e-07
1.6271261e-07
1.5806869e-07
1.5358443e-07
1.4925063e-07
1.4505883e-07
1.4100112e-07
1.3707017e-07
1.3325947e-07
1.2956268e-07
1.2597377e-07
1.2248729e-07
1.1909812e-07
1.1580144e-07
1.1259277e-07
1.0946785e-07
1.0642282e-07
1.0345406e-07
1.0055802e-07
9.7731346e-08
9.4970963e-08
9.2273926e-08
8.9637476e-08
8.7058966e-08
8.4535916e-08
8.2066116e-08
7.9647316e-08
7.7277323e-08
7.4954152e-08
7.2675879e-08
7.0440681e-08
6.8246796e-08
6.6092569e-08
6.3976492e-08
6.1897005e-08
5.9852613e-08
5.7841923e-08
5.5863572e-08
5.3916207e-08
5.1998577e-08
5.0109483e-08
4.8247097e-08
4.6412141e-08
4.4649686e-08
4.3010161e-08
4.1492314e-08
4.0082317e-08
3.877011e-08
3.7545673e-08
3.6400351e-08
3.532649e-08
3.4317292e-08
3.3366717e-08
3.2469414e-08
3.1620543e-08
3.0815653e-08
3.0050652e-08
2.9321593e-08
2.8624821e-08
2.7955948e-08
2.7311895e-08
2.6683775e-08
2.6076298e-08
2.5442047e-08
2.4898205e-08
2.4094446e-08
0.0001251132
0.00011266109
0.00010815102
0.00010586176
0.00010441231
0.00010339223
0.0001026345
0.00010205271
0.00010159539
0.0001012293
0.00010093186
0.00010068721
0.00010048382
0.00010031317
0.00010016878
0.00010004577
9.993999e-05
9.9849455e-05
9.9768477e-05
9.9708962e-05
9.9613184e-05
9.9762512e-05
9.8663584e-05
0.00010410156
1.7762399e-05
2.2731053e-06
3.3585621e-06
7.1821408e-07
1.7699979e-06
4.3081346e-07
1.238788e-06
3.1790003e-07
9.6203067e-07
8.1476261e-07
7.8840478e-07
7.0533744e-07
6.6444108e-07
6.1339472e-07
5.7549355e-07
5.3922163e-07
5.0800651e-07
4.7968846e-07
4.5426551e-07
4.3119066e-07
4.1016758e-07
3.9092091e-07
3.7322776e-07
3.5690036e-07
3.4178037e-07
3.2773372e-07
3.1464509e-07
3.0241492e-07
2.9095726e-07
2.8019711e-07
2.7006923e-07
2.6051656e-07
2.514884e-07
2.4293977e-07
2.3483091e-07
2.271263e-07
2.1979409e-07
2.1280591e-07
2.0613636e-07
1.997622e-07
1.9366238e-07
1.8781788e-07
1.8221143e-07
1.7682728e-07
1.71651e-07
1.6666957e-07
1.6187112e-07
1.5724448e-07
1.5277937e-07
1.4846643e-07
1.4429693e-07
1.4026285e-07
1.3635667e-07
1.3257147e-07
1.2890105e-07
1.253394e-07
1.218808e-07
1.1852006e-07
1.1525233e-07
1.1207303e-07
1.089779e-07
1.059629e-07
1.0302433e-07
1.0015878e-07
9.7362865e-08
9.4633388e-08
9.1967428e-08
8.9362181e-08
8.6815021e-08
8.4323427e-08
8.1885035e-08
7.9497742e-08
7.7159406e-08
7.4867932e-08
7.2621429e-08
7.0418063e-08
6.8256093e-08
6.6133837e-08
6.4049715e-08
6.2002291e-08
5.9990068e-08
5.8011623e-08
5.6065622e-08
5.415076e-08
5.2265745e-08
5.040938e-08
4.8580516e-08
4.6777405e-08
4.500075e-08
4.3294118e-08
4.1706366e-08
4.0236402e-08
3.8870864e-08
3.7600007e-08
3.641414e-08
3.5304883e-08
3.4264828e-08
3.3287392e-08
3.2366729e-08
3.1497655e-08
3.0675486e-08
2.989591e-08
2.9154967e-08
2.8448836e-08
2.7773981e-08
2.7126152e-08
2.6502369e-08
2.5894039e-08
2.5305697e-08
2.4691524e-08
2.4164772e-08
2.338677e-08
0.00012450768
0.00011160543
0.00010692757
0.00010455175
0.00010304716
0.00010198815
0.00010120143
0.00010059733
0.00010012241
9.9742166e-05
9.943318e-05
9.9178964e-05
9.8967569e-05
9.8790146e-05
9.8639962e-05
9.8511955e-05
9.8401822e-05
9.8307498e-05
9.8223082e-05
9.8160902e-05
9.8061319e-05
9.8214491e-05
9.7083126e-05
0.00010270816
1.7851954e-05
2.2330889e-06
3.1518816e-06
6.9560337e-07
1.6630828e-06
4.1464844e-07
1.1667518e-06
3.0598009e-07
9.0843164e-07
7.7160826e-07
7.4635801e-07
6.6875693e-07
6.3030713e-07
5.8249123e-07
5.4689257e-07
5.1283393e-07
4.8348793e-07
4.5685102e-07
4.3291631e-07
4.111757e-07
3.9135281e-07
3.7319155e-07
3.5648424e-07
3.410559e-07
3.267589e-07
3.1346819e-07
3.0107612e-07
2.8948971e-07
2.7862863e-07
2.6842276e-07
2.5881107e-07