/*--------------------------------*- C++ -*----------------------------------*\
| =========                 |                                                 |
| \\      /  F ield         | OpenFOAM: The Open Source CFD Toolbox           |
|  \\    /   O peration     | Version:  2206                                  |
|   \\  /    A nd           | Website:  www.openfoam.com                      |
|    \\/     M anipulation  |                                                 |
\*---------------------------------------------------------------------------*/
FoamFile
{
    version     2.0;
    format      ascii;
    arch        "LSB;label=32;scalar=64";
    class       volScalarField;
    location    "1500";
    object      nut;
}
// * * * * * * * * * * * * * * * * * * * * * * * * * * * * * * * * * * * * * //

dimensions      [0 2 -1 0 0 0 0];

internalField   nonuniform List<scalar> 
13056
(
6.5404778e-09
5.6191066e-09
5.321257e-09
5.1739805e-09
5.0813389e-09
5.0165647e-09
4.9687415e-09
4.9321966e-09
4.9035661e-09
4.8806926e-09
4.862118e-09
4.8468162e-09
4.834039e-09
4.8232219e-09
4.8139168e-09
4.8057604e-09
4.7983796e-09
4.7915213e-09
4.784331e-09
4.7774739e-09
4.7638734e-09
4.7614366e-09
4.6704046e-09
4.0111818e-09
3.165731e-11
1.2337416e-11
1.7408161e-11
7.2167678e-12
1.2502203e-11
5.6874901e-12
1.034771e-11
4.8541071e-12
9.0279384e-12
8.2137819e-12
8.0984627e-12
7.6127943e-12
7.378741e-12
7.0611249e-12
6.8231793e-12
6.5852447e-12
6.3760258e-12
6.1805232e-12
6.0008294e-12
5.8337368e-12
5.6780683e-12
5.5324333e-12
5.3957473e-12
5.2670633e-12
5.1455714e-12
5.0305745e-12
4.9214612e-12
4.8176946e-12
4.7188045e-12
4.6243736e-12
4.5340344e-12
4.4474618e-12
4.3643611e-12
4.2844671e-12
4.2075427e-12
4.133373e-12
4.0617626e-12
3.992536e-12
3.9255347e-12
3.8606106e-12
3.797628e-12
3.7364632e-12
3.6770023e-12
3.6191398e-12
3.5627781e-12
3.5078287e-12
3.4542099e-12
3.4018429e-12
3.3506545e-12
3.3005773e-12
3.251548e-12
3.2035073e-12
3.1563988e-12
3.1101701e-12
3.0647747e-12
3.0201658e-12
2.9762975e-12
2.9331284e-12
2.8906188e-12
2.8487308e-12
2.8074281e-12
2.7666759e-12
2.7264423e-12
2.6866971e-12
2.6474088e-12
2.6085475e-12
2.5700852e-12
2.5319942e-12
2.4942478e-12
2.4568196e-12
2.419684e-12
2.3828184e-12
2.3461978e-12
2.3097969e-12
2.2735923e-12
2.2375602e-12
2.2016768e-12
2.1659182e-12
2.1302605e-12
2.0946812e-12
2.0591554e-12
2.0236575e-12
1.9881623e-12
1.9526433e-12
1.9170723e-12
1.8814211e-12
1.8456602e-12
1.8097442e-12
1.7736787e-12
1.7383847e-12
1.7049442e-12
1.6734098e-12
1.6435867e-12
1.6153501e-12
1.5885604e-12
1.5630962e-12
1.5388474e-12
1.5157136e-12
1.4936038e-12
1.4724359e-12
1.4521331e-12
1.4326224e-12
1.4138342e-12
1.3956976e-12
1.3781446e-12
1.3610832e-12
1.3444524e-12
1.3280299e-12
1.3119549e-12
1.2949409e-12
1.2802006e-12
1.2579667e-12
6.5404982e-09
5.6183965e-09
5.3203136e-09
5.1729211e-09
5.0802065e-09
5.0153813e-09
4.9675206e-09
4.9309472e-09
4.9022946e-09
4.8794037e-09
4.8608154e-09
4.8455029e-09
4.8327174e-09
4.8218944e-09
4.8125859e-09
4.8044285e-09
4.7970499e-09
4.790198e-09
4.7830218e-09
4.776187e-09
4.7626428e-09
4.7602798e-09
4.6695824e-09
4.0105752e-09
3.2164687e-11
1.2224201e-11
1.6999356e-11
7.1192384e-12
1.2213319e-11
5.5922663e-12
1.0116672e-11
4.7664789e-12
8.8338411e-12
8.0456543e-12
7.9304734e-12
7.4588735e-12
7.2300948e-12
6.9211481e-12
6.6890509e-12
6.4572158e-12
6.2531403e-12
6.0624312e-12
5.8870472e-12
5.7239057e-12
5.5718516e-12
5.4295408e-12
5.2959203e-12
5.1700716e-12
5.0512091e-12
4.9386564e-12
4.83182e-12
4.7301789e-12
4.6332766e-12
4.5407077e-12
4.4521157e-12
4.3671844e-12
4.2856278e-12
4.2071881e-12
4.1316348e-12
4.0587593e-12
3.9883714e-12
3.9203006e-12
3.8543926e-12
3.7905035e-12
3.7285011e-12
3.6682651e-12
3.6096847e-12
3.5526572e-12
3.4970873e-12
3.442889e-12
3.3899826e-12
3.3382913e-12
3.2877436e-12
3.238274e-12
3.1898204e-12
3.1423249e-12
3.0957326e-12
3.0499922e-12
3.0050581e-12
2.9608846e-12
2.9174265e-12
2.8746433e-12
2.8324961e-12
2.7909475e-12
2.7499619e-12
2.7095049e-12
2.6695449e-12
2.6300523e-12
2.5909957e-12
2.5523456e-12
2.514074e-12
2.4761533e-12
2.4385569e-12
2.4012584e-12
2.364232e-12
2.3274549e-12
2.2909019e-12
2.2545473e-12
2.2183673e-12
2.1823374e-12
2.1464335e-12
2.1106305e-12
2.0749041e-12
2.0392304e-12
2.0035837e-12
1.967937e-12
1.9322633e-12
1.8965346e-12
1.8607207e-12
1.8247912e-12
1.7887139e-12
1.7524404e-12
1.7159735e-12
1.6802417e-12
1.6463423e-12
1.6143333e-12
1.5840219e-12
1.5552853e-12
1.5279856e-12
1.5020028e-12
1.4772278e-12
1.4535612e-12
1.4309127e-12
1.4092004e-12
1.3883483e-12
1.3682833e-12
1.3489359e-12
1.3302345e-12
1.3121106e-12
1.2944703e-12
1.2772514e-12
1.2602243e-12
1.243533e-12
1.2258382e-12
1.210483e-12
1.1872861e-12
6.5405149e-09
5.6161742e-09
5.3173827e-09
5.169638e-09
5.0767013e-09
5.011721e-09
4.9637461e-09
4.9270855e-09
4.8983647e-09
4.8754198e-09
4.856788e-09
4.8414403e-09
4.8286264e-09
4.8177807e-09
4.8084546e-09
4.8002846e-09
4.7928991e-09
4.7860466e-09
4.7788807e-09
4.7720679e-09
4.7585876e-09
4.756326e-09
4.6660092e-09
4.0085436e-09
3.2699318e-11
1.2110984e-11
1.659234e-11
7.0212599e-12
1.19248e-11
5.496556e-12
9.8855311e-12
4.6784357e-12
8.6394139e-12
7.8769481e-12
7.7620471e-12
7.3044079e-12
7.080942e-12
6.7806156e-12
6.5543724e-12
6.3286189e-12
6.1296845e-12
5.9437632e-12
5.7726875e-12
5.6134961e-12
5.465057e-12
5.3260719e-12
5.1955191e-12
5.0725089e-12
4.9562795e-12
4.8461752e-12
4.7416205e-12
4.64211e-12
4.547201e-12
4.4565002e-12
4.3696614e-12
4.2863782e-12
4.2063725e-12
4.1293943e-12
4.0552199e-12
3.9836463e-12
3.9144891e-12
3.8475824e-12
3.7827766e-12
3.7199315e-12
3.6589188e-12
3.5996215e-12
3.5419318e-12
3.4857498e-12
3.4309827e-12
3.3775469e-12
3.3253647e-12
3.2743614e-12
3.2244672e-12
3.1756183e-12
3.1277542e-12
3.0808186e-12
3.0347575e-12
2.989521e-12
2.9450646e-12
2.9013435e-12
2.8583135e-12
2.815935e-12
2.7741698e-12
2.7329811e-12
2.692334e-12
2.6521946e-12
2.6125321e-12
2.5733168e-12
2.5345182e-12
2.4961067e-12
2.4580547e-12
2.420335e-12
2.3829209e-12
2.3457862e-12
2.3089051e-12
2.2722547e-12
2.2358098e-12
2.1995445e-12
2.1634347e-12
2.1274558e-12
2.0915831e-12
2.0557912e-12
2.0200551e-12
1.9843505e-12
1.9486508e-12
1.9129282e-12
1.8771547e-12
1.8413012e-12
1.8053363e-12
1.7692279e-12
1.7329425e-12
1.6964295e-12
1.6596902e-12
1.6236578e-12
1.5894408e-12
1.5571021e-12
1.5264504e-12
1.4973653e-12
1.4697104e-12
1.4433668e-12
1.4182266e-12
1.3941914e-12
1.3711713e-12
1.3490854e-12
1.3278577e-12
1.3074156e-12
1.2876896e-12
1.2686081e-12
1.250102e-12
1.2320766e-12
1.214469e-12
1.1970449e-12
1.1799519e-12
1.1618165e-12
1.146066e-12
1.1222599e-12
6.5405347e-09
5.6123709e-09
5.3123721e-09
5.1640274e-09
5.0707125e-09
5.0054679e-09
4.957298e-09
4.9204887e-09
4.8916516e-09
4.8686139e-09
4.8499072e-09
4.8344985e-09
4.8216345e-09
4.8107479e-09
4.8013888e-09
4.7931931e-09
4.7857894e-09
4.7789269e-09
4.7717634e-09
4.7649676e-09
4.751547e-09
4.7494015e-09
4.6594428e-09
4.0049365e-09
3.3271404e-11
1.1996387e-11
1.6181823e-11
6.9217023e-12
1.1632931e-11
5.3992685e-12
9.6513127e-12
4.5890274e-12
8.442156e-12
7.7054934e-12
7.5910244e-12
7.1474194e-12
6.9293798e-12
6.6377395e-12
6.4174367e-12
6.1978298e-12
6.0041053e-12
5.8230325e-12
5.6563241e-12
5.5011371e-12
5.3563647e-12
5.2207539e-12
5.0933151e-12
4.9731871e-12
4.8596325e-12
4.7520164e-12
4.6497815e-12
4.5524383e-12
4.4595578e-12
4.3707589e-12
4.2857061e-12
4.2041025e-12
4.1256785e-12
4.0501916e-12
3.9774249e-12
3.9071816e-12
3.8392827e-12
3.7735673e-12
3.7098901e-12
3.6481153e-12
3.5881181e-12
3.529785e-12
3.4730112e-12
3.4176997e-12
3.3637603e-12
3.3111117e-12
3.2596785e-12
3.2093879e-12
3.1601721e-12
3.111969e-12
3.0647195e-12
3.0183689e-12
2.9728646e-12
2.9281579e-12
2.8842055e-12
2.8409635e-12
2.7983889e-12
2.7564428e-12
2.7150878e-12
2.6742881e-12
2.6340093e-12
2.5942182e-12
2.5548845e-12
2.5159791e-12
2.4774718e-12
2.4393336e-12
2.4015373e-12
2.3640558e-12
2.3268628e-12
2.2899321e-12
2.2532385e-12
2.2167588e-12
2.1804679e-12
2.1443401e-12
2.1083513e-12
2.0724766e-12
2.0366913e-12
2.0009698e-12
1.9652868e-12
1.9296178e-12
1.8939357e-12
1.8582123e-12
1.8224192e-12
1.7865265e-12
1.7505022e-12
1.7143135e-12
1.6779261e-12
1.6412882e-12
1.6044004e-12
1.5681982e-12
1.533797e-12
1.5012637e-12
1.4704091e-12
1.4411145e-12
1.4132452e-12
1.3866834e-12
1.3613224e-12
1.3370645e-12
1.3138206e-12
1.2915103e-12
1.2700582e-12
1.2493919e-12
1.2294422e-12
1.2101375e-12
1.1914088e-12
1.1731609e-12
1.1553305e-12
1.1376811e-12
1.1203621e-12
1.1019821e-12
1.0860133e-12
1.061881e-12
6.540569e-09
5.6068797e-09
5.3051383e-09
5.1559278e-09
5.0620672e-09
4.9964414e-09
4.9479903e-09
4.9109663e-09
4.8819611e-09
4.8587893e-09
4.8399741e-09
4.8244766e-09
4.8115395e-09
4.8005926e-09
4.7911839e-09
4.7829485e-09
4.7755146e-09
4.768632e-09
4.7614627e-09
4.7546784e-09
4.7413135e-09
4.7392997e-09
4.6496775e-09
3.9996397e-09
3.3891528e-11
1.1879144e-11
1.5762951e-11
6.819495e-12
1.1334255e-11
5.2993666e-12
9.4112279e-12
4.4973512e-12
8.2397113e-12
7.5292337e-12
7.4153618e-12
6.9860312e-12
6.7736027e-12
6.49082e-12
6.2766199e-12
6.0633021e-12
5.8749229e-12
5.6988217e-12
5.5365961e-12
5.3855202e-12
5.2445141e-12
5.112371e-12
4.9881337e-12
4.8709705e-12
4.7601686e-12
4.6551144e-12
4.5552693e-12
4.4601598e-12
4.3693711e-12
4.2825347e-12
4.1993259e-12
4.1194574e-12
4.0426685e-12
3.9687244e-12
3.897415e-12
3.82855e-12
3.7619559e-12
3.6974769e-12
3.6349722e-12
3.5743103e-12
3.5153703e-12
3.458042e-12
3.402224e-12
3.3478221e-12
3.294749e-12
3.2429255e-12
3.1922787e-12
3.1427378e-12
3.094237e-12
3.0467159e-12
3.0001172e-12
2.9543877e-12
2.9094763e-12
2.8653354e-12
2.8219231e-12
2.7791965e-12
2.7371137e-12
2.6956368e-12
2.6547292e-12
2.614356e-12
2.5744836e-12
2.5350796e-12
2.496114e-12
2.4575587e-12
2.4193838e-12
2.381561e-12
2.3440633e-12
2.3068642e-12
2.2699377e-12
2.2332581e-12
2.1968002e-12
2.1605413e-12
2.1244565e-12
2.0885202e-12
2.0527084e-12
2.0169965e-12
1.9813596e-12
1.9457724e-12
1.9102096e-12
1.8746465e-12
1.8390561e-12
1.8034101e-12
1.7676799e-12
1.7318356e-12
1.6958449e-12
1.6596749e-12
1.623291e-12
1.5866412e-12
1.5497259e-12
1.5134805e-12
1.479023e-12
1.4464238e-12
1.4154955e-12
1.3861215e-12
1.3581683e-12
1.3315195e-12
1.3060693e-12
1.2817208e-12
1.2583857e-12
1.2359842e-12
1.2144414e-12
1.1936853e-12
1.1736471e-12
1.1542553e-12
1.135441e-12
1.1171093e-12
1.0991969e-12
1.0814667e-12
1.0640688e-12
1.0456062e-12
1.0295649e-12
1.005337e-12
6.5406355e-09
5.599557e-09
5.2954879e-09
5.1451216e-09
5.0505328e-09
4.9843982e-09
4.9355719e-09
4.8982614e-09
4.8690318e-09
4.845681e-09
4.8267207e-09
4.8111043e-09
4.7980689e-09
4.7870405e-09
4.7775645e-09
4.769274e-09
4.7617968e-09
4.7548833e-09
4.747699e-09
4.7409204e-09
4.7276068e-09
4.7257415e-09
4.6364335e-09
3.9924981e-09
3.4572007e-11
1.1758104e-11
1.5331277e-11
6.7136246e-12
1.1025554e-11
5.1958635e-12
9.1626597e-12
4.4025502e-12
8.029855e-12
7.3462149e-12
7.233121e-12
6.8184568e-12
6.6118918e-12
6.3382366e-12
6.1303727e-12
5.9235585e-12
5.740723e-12
5.5697753e-12
5.4122014e-12
5.2653925e-12
5.1282983e-12
4.9997584e-12
4.8788497e-12
4.7647706e-12
4.6568337e-12
4.5544476e-12
4.4570926e-12
4.3643121e-12
4.2757058e-12
4.1909181e-12
4.1096357e-12
4.0315811e-12
3.9565027e-12
3.8841737e-12
3.8143914e-12
3.7469717e-12
3.6817471e-12
3.618567e-12
3.5572955e-12
3.4978053e-12
3.4399796e-12
3.3837119e-12
3.3289039e-12
3.2754646e-12
3.2233095e-12
3.172362e-12
3.1225514e-12
3.0738092e-12
3.0260718e-12
2.9792805e-12
2.9333799e-12
2.8883182e-12
2.844046e-12
2.8005171e-12
2.7576908e-12
2.7155255e-12
2.6739803e-12
2.6330185e-12
2.5926044e-12
2.5527041e-12
2.5132847e-12
2.4743146e-12
2.4357648e-12
2.3976075e-12
2.3598139e-12
2.3223559e-12
2.2852073e-12
2.248342e-12
2.2117346e-12
2.1753598e-12
2.1391929e-12
2.1032114e-12
2.0673909e-12
2.0317061e-12
1.9961334e-12
1.9606483e-12
1.9252265e-12
1.8898427e-12
1.8544719e-12
1.8190897e-12
1.7836694e-12
1.7481828e-12
1.7126016e-12
1.676896e-12
1.6410342e-12
1.6049834e-12
1.5687094e-12
1.5321606e-12
1.4953379e-12
1.4591735e-12
1.4247841e-12
1.3922431e-12
1.361365e-12
1.3320349e-12
1.3041207e-12
1.2775073e-12
1.2520899e-12
1.2277724e-12
1.2044673e-12
1.1820953e-12
1.1605822e-12
1.1398564e-12
1.1198495e-12
1.1004904e-12
1.0817107e-12
1.0634157e-12
1.0455426e-12
1.0278554e-12
1.0105034e-12
9.9209532e-13
9.7610372e-13
9.5197132e-13
6.54076e-09
5.5902244e-09
5.2831798e-09
5.1313372e-09
5.0358186e-09
4.9690347e-09
4.9197295e-09
4.8820533e-09
4.8525374e-09
4.828958e-09
4.8098123e-09
4.7940437e-09
4.7808825e-09
4.7697493e-09
4.7601861e-09
4.7518238e-09
4.744289e-09
4.7373325e-09
4.7301234e-09
4.7233441e-09
4.7100769e-09
4.7083783e-09
4.6193602e-09
3.9833168e-09
3.5327283e-11
1.1632247e-11
1.488276e-11
6.6031353e-12
1.0703851e-11
5.0878222e-12
8.9031596e-12
4.3038134e-12
7.8104908e-12
7.1545824e-12
7.0424653e-12
6.6429977e-12
6.4426127e-12
6.1784448e-12
5.9772175e-12
5.7771888e-12
5.6001543e-12
5.434597e-12
5.2818945e-12
5.1395554e-12
5.0065616e-12
4.881801e-12
4.7643855e-12
4.6535449e-12
4.5486185e-12
4.4490374e-12
4.3543022e-12
4.2639735e-12
4.1776664e-12
4.0950384e-12
4.0157881e-12
3.9396486e-12
3.8663775e-12
3.7957565e-12
3.7275903e-12
3.6617017e-12
3.5979292e-12
3.5361279e-12
3.4761666e-12
3.4179228e-12
3.3612837e-12
3.3061468e-12
3.2524173e-12
3.2000073e-12
3.1488352e-12
3.0988272e-12
3.0499151e-12
3.0020328e-12
2.9551186e-12
2.9091162e-12
2.8639718e-12
2.8196354e-12
2.7760593e-12
2.7331987e-12
2.6910142e-12
2.6494657e-12
2.6085134e-12
2.5681218e-12
2.5282563e-12
2.4888838e-12
2.4499727e-12
2.411492e-12
2.3734137e-12
2.3357108e-12
2.2983551e-12
2.2613192e-12
2.2245778e-12
2.1881052e-12
2.1518767e-12
2.1158676e-12
2.0800537e-12
2.044413e-12
2.0089217e-12
1.973555e-12
1.9382897e-12
1.9031018e-12
1.8679674e-12
1.8328618e-12
1.7977604e-12
1.7626392e-12
1.7274721e-12
1.6922312e-12
1.6568891e-12
1.6214163e-12
1.5857816e-12
1.5499531e-12
1.5138972e-12
1.4775633e-12
1.4409533e-12
1.4049932e-12
1.3707946e-12
1.3384329e-12
1.307725e-12
1.2785573e-12
1.2507994e-12
1.2243373e-12
1.1990673e-12
1.1748942e-12
1.1517313e-12
1.1294999e-12
1.1081263e-12
1.0875397e-12
1.0676721e-12
1.048453e-12
1.0298144e-12
1.0116626e-12
9.9393516e-13
9.7639855e-13
9.5920063e-13
9.4096443e-13
9.2512644e-13
9.012508e-13
6.5409793e-09
5.5786705e-09
5.2679271e-09
5.114251e-09
5.0175784e-09
4.9499887e-09
4.9000896e-09
4.8619598e-09
4.8320888e-09
4.8082257e-09
4.78885e-09
4.7728925e-09
4.7595747e-09
4.7483109e-09
4.7386387e-09
4.7301858e-09
4.7225776e-09
4.7155647e-09
4.7083198e-09
4.7015325e-09
4.6883062e-09
4.6867942e-09
4.5980388e-09
3.9718619e-09
3.6174427e-11
1.1500708e-11
1.441379e-11
6.4871321e-12
1.036642e-11
4.9743585e-12
8.6304587e-12
4.2003777e-12
7.5796586e-12
6.9525873e-12
6.841665e-12
6.4580476e-12
6.2642189e-12
6.0099803e-12
5.8157519e-12
5.6228528e-12
5.4519315e-12
5.2920533e-12
5.1444887e-12
5.0068661e-12
4.8782024e-12
4.7574349e-12
4.6437129e-12
4.5362986e-12
4.4345594e-12
4.3379501e-12
4.2459923e-12
4.1582649e-12
4.0743986e-12
3.9940653e-12
3.9169759e-12
3.8428742e-12
3.7715279e-12
3.7027275e-12
3.6362855e-12
3.5720318e-12
3.5098115e-12
3.4494853e-12
3.3909274e-12
3.3340201e-12
3.2786551e-12
3.2247337e-12
3.1721649e-12
3.1208643e-12
3.0707534e-12
3.0217611e-12
2.973822e-12
2.9268725e-12
2.8808532e-12
2.8357098e-12
2.7913908e-12
2.7478478e-12
2.705035e-12
2.6629091e-12
2.6214322e-12
2.5805657e-12
2.5402711e-12
2.500514e-12
2.4612612e-12
2.4224806e-12
2.3841416e-12
2.3462144e-12
2.3086717e-12
2.2714875e-12
2.2346344e-12
2.198086e-12
2.1618175e-12
2.1258041e-12
2.0900219e-12
2.0544466e-12
2.019055e-12
1.9838257e-12
1.9487353e-12
1.9137599e-12
1.8788768e-12
1.8440627e-12
1.8092943e-12
1.7745475e-12
1.7397984e-12
1.7050238e-12
1.670198e-12
1.6352943e-12
1.6002856e-12
1.5651436e-12
1.529838e-12
1.4943377e-12
1.4586106e-12
1.4226073e-12
1.3863309e-12
1.3506985e-12
1.3168124e-12
1.2847492e-12
1.2543286e-12
1.2254384e-12
1.1979497e-12
1.1717499e-12
1.1467362e-12
1.1228144e-12
1.0998987e-12
1.0779112e-12
1.0567789e-12
1.0364314e-12
1.0168015e-12
9.9781945e-13
9.7941791e-13
9.6150434e-13
9.4401705e-13
9.2672606e-13
9.0977672e-13
8.9181455e-13
8.7621993e-13
8.5273892e-13
6.5413446e-09
5.5646533e-09
5.2493993e-09
5.0934898e-09
4.9954125e-09
4.9268427e-09
4.8762211e-09
4.8375399e-09
4.807237e-09
4.783029e-09
4.7633735e-09
4.7471862e-09
4.7336776e-09
4.7222545e-09
4.7124489e-09
4.7038848e-09
4.6961854e-09
4.6891013e-09
4.6818082e-09
4.6750048e-09
4.6618131e-09
4.6605095e-09
4.5719861e-09
3.957861e-09
3.7133791e-11
1.1362814e-11
1.3921237e-11
6.3647891e-12
1.0010822e-11
4.8546451e-12
8.3424907e-12
4.0915316e-12
7.335553e-12
6.7386019e-12
6.629112e-12
6.2621059e-12
6.0752641e-12
5.8314695e-12
5.644659e-12
5.4592898e-12
5.2948444e-12
5.1409809e-12
4.9988648e-12
4.8662459e-12
4.7421795e-12
4.6256547e-12
4.5158595e-12
4.4120909e-12
4.3137451e-12
4.2203024e-12
4.1313061e-12
4.0463544e-12
3.9650948e-12
3.8872139e-12
3.8124356e-12
3.7405155e-12
3.6712313e-12
3.604383e-12
3.5397914e-12
3.4772942e-12
3.4167429e-12
3.3580045e-12
3.3009588e-12
3.2454932e-12
3.1915041e-12
3.138897e-12
3.087585e-12
3.0374871e-12
2.9885281e-12
2.9406402e-12
2.8937606e-12
2.8478285e-12
2.802787e-12
2.7585841e-12
2.7151703e-12
2.6724995e-12
2.6305274e-12
2.5892127e-12
2.5485191e-12
2.5084092e-12
2.4688464e-12
2.4297975e-12
2.3912306e-12
2.3531147e-12
2.3154205e-12
2.2781192e-12
2.2411846e-12
2.2045917e-12
2.1683141e-12
2.1323262e-12
2.0966042e-12
2.0611241e-12
2.0258628e-12
1.9907971e-12
1.9559042e-12
1.9211637e-12
1.8865529e-12
1.8520487e-12
1.8176292e-12
1.7832718e-12
1.7489541e-12
1.7146528e-12
1.6803448e-12
1.6460076e-12
1.6116168e-12
1.5771462e-12
1.5425701e-12
1.5078611e-12
1.4729901e-12
1.4379275e-12
1.4026423e-12
1.3670874e-12
1.3312668e-12
1.2960858e-12
1.2626333e-12
1.2309869e-12
1.2009689e-12
1.1724684e-12
1.1453584e-12
1.1195275e-12
1.0948742e-12
1.0713054e-12
1.0487361e-12
1.0270894e-12
1.0062929e-12
9.8627714e-13
9.6697563e-13
9.4831939e-13
9.3024209e-13
9.1265263e-13
8.9549022e-13
8.785295e-13
8.6191251e-13
8.4431418e-13
8.2904135e-13
8.0607421e-13
6.5419265e-09
5.5479028e-09
5.2272246e-09
5.0686332e-09
4.9688708e-09
4.8991256e-09
4.8476382e-09
4.8082962e-09
4.7774759e-09
4.7528549e-09
4.7328641e-09
4.7164013e-09
4.702664e-09
4.6910496e-09
4.6810835e-09
4.672385e-09
4.6645747e-09
4.6574028e-09
4.6500478e-09
4.6432192e-09
4.6300548e-09
4.6289834e-09
4.5406582e-09
3.9410037e-09
3.8229827e-11
1.1218142e-11
1.3402538e-11
6.2353613e-12
9.6349555e-12
4.7279207e-12
8.0374316e-12
3.9766223e-12
7.0765543e-12
6.5111445e-12
6.4033444e-12
6.053799e-12
5.8744227e-12
5.6416491e-12
5.4627246e-12
5.2853347e-12
5.1277724e-12
4.9803016e-12
4.8439834e-12
4.7166922e-12
4.5975248e-12
4.4855242e-12
4.3799199e-12
4.2800448e-12
4.185326e-12
4.0952704e-12
4.0094443e-12
3.9274663e-12
3.8490015e-12
3.7737522e-12
3.7014559e-12
3.6318803e-12
3.5648144e-12
3.5000679e-12
3.4374705e-12
3.3768676e-12
3.3181183e-12
3.261096e-12
3.2056863e-12
3.151782e-12
3.0992846e-12
3.0481043e-12
2.9981579e-12
2.9493687e-12
2.9016649e-12
2.8549819e-12
2.80926e-12
2.7644413e-12
2.7204716e-12
2.6773012e-12
2.6348832e-12
2.5931733e-12
2.5521295e-12
2.5117123e-12
2.4718871e-12
2.4326182e-12
2.3938705e-12
2.3556123e-12
2.3178131e-12
2.2804435e-12
2.2434751e-12
2.2068806e-12
2.1706349e-12
2.1347139e-12
2.0990924e-12
2.0637458e-12
2.0286515e-12
1.9937863e-12
1.9591281e-12
1.9246545e-12
1.8903439e-12
1.8561765e-12
1.8221307e-12
1.7881842e-12
1.754316e-12
1.7205046e-12
1.6867283e-12
1.6529649e-12
1.6191922e-12
1.5853889e-12
1.5515314e-12
1.5175949e-12
1.4835547e-12
1.449385e-12
1.4150578e-12
1.3805452e-12
1.345818e-12
1.310831e-12
1.2755898e-12
1.2409845e-12
1.2080867e-12
1.1769741e-12
1.147472e-12
1.1194711e-12
1.0928462e-12
1.0674874e-12
1.0432945e-12
1.0201757e-12
9.9804701e-13
9.7683238e-13
9.5646048e-13
9.3686273e-13
9.1797351e-13
8.997249e-13
8.8205164e-13
8.6486441e-13
8.4810353e-13
8.3154919e-13
8.1533937e-13
7.9818454e-13
7.8330261e-13
7.6095346e-13
6.5428204e-09
5.5281241e-09
5.2009933e-09
5.0392167e-09
4.9374551e-09
4.8663167e-09
4.8138035e-09
4.7736789e-09
4.742246e-09
4.7171358e-09
4.6967482e-09
4.6799591e-09
4.6659508e-09
4.6541096e-09
4.6439527e-09
4.6350942e-09
4.6271511e-09
4.6198729e-09
4.6124406e-09
4.6055766e-09
4.5924312e-09
4.5916179e-09
4.5034543e-09
3.920942e-09
3.949214e-11
1.1066596e-11
1.2855796e-11
6.0982014e-12
9.2371254e-12
4.5935021e-12
7.7137527e-12
3.8550648e-12
6.8012716e-12
6.2689164e-12
6.1630815e-12
5.8319124e-12
5.6605193e-12
5.4393926e-12
5.268863e-12
5.0999425e-12
4.9497079e-12
4.8090433e-12
4.6789058e-12
4.5572974e-12
4.4433604e-12
4.3361939e-12
4.2350711e-12
4.139363e-12
4.048529e-12
3.9621041e-12
3.8796791e-12
3.8008939e-12
3.7254323e-12
3.653013e-12
3.5833882e-12
3.5163384e-12
3.4516642e-12
3.3891857e-12
3.328742e-12
3.2701871e-12
3.2133876e-12
3.158224e-12
3.104588e-12
3.0523783e-12
3.0015016e-12
2.9518729e-12
2.9034137e-12
2.8560511e-12
2.8097172e-12
2.7643511e-12
2.7198961e-12
2.6762974e-12
2.6335039e-12
2.5914685e-12
2.5501466e-12
2.5094964e-12
2.4694779e-12
2.4300538e-12
2.3911912e-12
2.3528564e-12
2.3150159e-12
2.2776397e-12
2.2406987e-12
2.2041649e-12
2.1680116e-12
2.1322127e-12
2.0967442e-12
2.0615834e-12
2.0267062e-12
1.9920893e-12
1.9577109e-12
1.9235493e-12
1.8895831e-12
1.8557913e-12
1.822153e-12
1.7886496e-12
1.7552605e-12
1.7219644e-12
1.6887413e-12
1.6555708e-12
1.6224323e-12
1.5893046e-12
1.5561666e-12
1.5229983e-12
1.4897773e-12
1.4564801e-12
1.4230834e-12
1.3895627e-12
1.3558918e-12
1.3220444e-12
1.2879932e-12
1.2536954e-12
1.2191581e-12
1.1852531e-12
1.1530305e-12
1.1225677e-12
1.0936933e-12
1.0662995e-12
1.0402633e-12
1.0154764e-12
9.9184012e-13
9.6926402e-13
9.4766543e-13
9.2696935e-13
9.0710552e-13
8.8800644e-13
8.6960757e-13
8.5184223e-13
8.346464e-13
8.1793287e-13
8.016432e-13
7.8556405e-13
7.6982863e-13
7.5318843e-13
7.3875878e-13
7.1711913e-13
6.5441545e-09
5.5050015e-09
5.1702605e-09
5.0047351e-09
4.9006236e-09
4.827849e-09
4.7741317e-09
4.7330891e-09
4.7009379e-09
4.6752541e-09
4.6544012e-09
4.6372295e-09
4.6229033e-09
4.6107958e-09
4.6004149e-09
4.5913678e-09
4.5832675e-09
4.5758626e-09
4.5683361e-09
4.5614252e-09
4.5482895e-09
4.5477624e-09
4.459722e-09
3.8972904e-09
4.0956814e-11
1.090851e-11
1.2279917e-11
5.9527826e-12
8.8161341e-12
4.4508005e-12
7.3702907e-12
3.7263552e-12
6.5085999e-12
6.0108493e-12
5.9072705e-12
5.5954325e-12
5.4325685e-12
5.2237477e-12
5.0621515e-12
4.9022198e-12
4.759786e-12
4.6263683e-12
4.5028203e-12
4.387275e-12
4.2789234e-12
4.1769237e-12
4.080595e-12
3.9893482e-12
3.9026771e-12
3.820146e-12
3.7413718e-12
3.6660166e-12
3.593784e-12
3.5244102e-12
3.4576626e-12
3.3933353e-12
3.3312413e-12
3.2712119e-12
3.2130958e-12
3.1567563e-12
3.1020679e-12
3.0489184e-12
2.9972064e-12
2.9468368e-12
2.8977216e-12
2.8497811e-12
2.8029415e-12
2.7571343e-12
2.7122959e-12
2.6683687e-12
2.6252999e-12
2.5830379e-12
2.5415346e-12
2.5007458e-12
2.4606296e-12
2.4211467e-12
2.3822594e-12
2.3439326e-12
2.3061354e-12
2.268836e-12
2.2320028e-12
2.1956076e-12
2.1596229e-12
2.1240225e-12
2.0887809e-12
2.0538736e-12
2.0192779e-12
1.9849726e-12
1.9509349e-12
1.9171426e-12
1.8835752e-12
1.8502122e-12
1.8170335e-12
1.784019e-12
1.7511492e-12
1.7184065e-12
1.6857715e-12
1.6532239e-12
1.6207451e-12
1.5883157e-12
1.5559162e-12
1.5235267e-12
1.4911275e-12
1.4586997e-12
1.4262223e-12
1.3936733e-12
1.3610307e-12
1.3282719e-12
1.2953722e-12
1.2623073e-12
1.2290518e-12
1.1955656e-12
1.1618572e-12
1.1287769e-12
1.0973492e-12
1.0676508e-12
1.0395137e-12
1.0128322e-12
9.8748524e-13
9.6336667e-13
9.4037955e-13
9.1843492e-13
8.9745158e-13
8.7735583e-13
8.5807865e-13
8.3955381e-13
8.2171804e-13
8.0450609e-13
7.8785538e-13
7.7168109e-13
7.5592625e-13
7.403847e-13
7.2518439e-13
7.0912258e-13
6.9519996e-13
6.743507e-13
6.5460992e-09
5.4782032e-09
5.1345514e-09
4.9646468e-09
4.8577948e-09
4.783114e-09
4.7279951e-09
4.6858843e-09
4.6528976e-09
4.6265471e-09
4.6051532e-09
4.5875368e-09
4.5728411e-09
4.5604239e-09
4.5497819e-09
4.5405149e-09
4.5322306e-09
4.5246764e-09
4.5170367e-09
4.5100663e-09
4.4969298e-09
4.4967192e-09
4.4087627e-09
3.8696267e-09
4.2668104e-11
1.0744783e-11
1.1674762e-11
5.7987287e-12
8.3713879e-12
4.2993428e-12
7.0063325e-12
3.5900885e-12
6.1977901e-12
5.7361656e-12
5.6351456e-12
5.3436003e-12
5.1898251e-12
4.9939828e-12
4.8418741e-12
4.6914667e-12
4.5573233e-12
4.4316103e-12
4.3150773e-12
4.2059916e-12
4.1035969e-12
4.0071126e-12
3.9159061e-12
3.8294304e-12
3.7472153e-12
3.668856e-12
3.5939965e-12
3.5223226e-12
3.4535587e-12
3.3874591e-12
3.3238075e-12
3.2624124e-12
3.2030996e-12
3.1457122e-12
3.0901095e-12
3.036164e-12
2.9837591e-12
2.9327903e-12
2.8831632e-12
2.8347892e-12
2.7875865e-12
2.7414806e-12
2.6964028e-12
2.6522893e-12
2.6090807e-12
2.5667236e-12
2.5251689e-12
2.4843687e-12
2.444278e-12
2.4048558e-12
2.3660629e-12
2.3278628e-12
2.2902202e-12
2.2531025e-12
2.2164807e-12
2.1803253e-12
2.1446067e-12
2.1092985e-12
2.0743751e-12
2.0398119e-12
2.0055852e-12
1.971672e-12
1.9380512e-12
1.9047028e-12
1.8716056e-12
1.8387387e-12
1.8060831e-12
1.7736193e-12
1.7413289e-12
1.7091928e-12
1.6771928e-12
1.6453126e-12
1.6135338e-12
1.5818377e-12
1.5502067e-12
1.5186228e-12
1.4870677e-12
1.4555229e-12
1.4239701e-12
1.3923915e-12
1.3607679e-12
1.3290787e-12
1.2973036e-12
1.2654214e-12
1.2334097e-12
1.2012458e-12
1.1689065e-12
1.1363545e-12
1.1035997e-12
1.0714674e-12
1.040953e-12
1.0121314e-12
9.8483914e-13
9.5897204e-13
9.3441184e-13
9.1105456e-13
8.8880524e-13
8.6757675e-13
8.4728955e-13
8.2787143e-13
8.0925483e-13
7.9137499e-13
7.7417009e-13
7.5757654e-13
7.4153342e-13
7.2595857e-13
7.1079667e-13
6.9584948e-13
6.8123918e-13
6.658131e-13
6.524465e-13
6.324593e-13
6.5488797e-09
5.4473881e-09
5.0933665e-09
4.9183803e-09
4.808354e-09
4.7314683e-09
4.6747296e-09
4.6313851e-09
4.5974341e-09
4.5703142e-09
4.5482963e-09
4.530167e-09
4.5150449e-09
4.5022702e-09
4.4913269e-09
4.4818055e-09
4.4733078e-09
4.4655794e-09
4.4578059e-09
4.4507619e-09
4.437613e-09
4.4377512e-09
4.3498373e-09
3.8374955e-09
4.4680571e-11
1.0577064e-11
1.1041317e-11
5.6358515e-12
7.9030201e-12
4.1387986e-12
6.6217158e-12
3.4459803e-12
5.8685336e-12
5.4444502e-12
5.3462986e-12
5.0759756e-12
4.931845e-12
4.7496439e-12
4.6075752e-12
4.4672267e-12
4.3418661e-12
4.2243192e-12
4.1152317e-12
4.0130082e-12
3.9169483e-12
3.8263354e-12
3.7405872e-12
3.6592005e-12
3.5817428e-12
3.5078418e-12
3.4371698e-12
3.3694374e-12
3.3043906e-12
3.2418029e-12
3.181475e-12
3.1232303e-12
3.0669085e-12
3.0123647e-12
2.9594694e-12
2.9081052e-12
2.8581645e-12
2.809551e-12
2.7621778e-12
2.7159631e-12
2.6708314e-12
2.626714e-12
2.5835475e-12
2.5412732e-12
2.4998361e-12
2.4591873e-12
2.4192817e-12
2.3800751e-12
2.3415261e-12
2.3035969e-12
2.2662514e-12
2.2294558e-12
2.1931777e-12
2.1573868e-12
2.1220565e-12
2.0871595e-12
2.0526685e-12
2.018559e-12
1.9848073e-12
1.9513908e-12
1.9182875e-12
1.8854761e-12
1.852937e-12
1.8206519e-12
1.788601e-12
1.7567651e-12
1.7251265e-12
1.6936672e-12
1.66237e-12
1.6312175e-12
1.6001927e-12
1.5692804e-12
1.5384639e-12
1.5077257e-12
1.4770494e-12
1.4464185e-12
1.4158161e-12
1.3852252e-12
1.3546287e-12
1.3240106e-12
1.2933529e-12
1.2626367e-12
1.2318436e-12
1.2009541e-12
1.1699475e-12
1.1388034e-12
1.1075006e-12
1.0760045e-12
1.0443266e-12
1.013264e-12
9.8377886e-13
9.5594419e-13
9.2960093e-13
9.0464718e-13
8.8096761e-13
8.5846073e-13
8.3703389e-13
8.1660202e-13
7.9708748e-13
7.7841981e-13
7.6053313e-13
7.4336436e-13
7.2685334e-13
7.1093837e-13
6.9556039e-13
6.806402e-13
6.661243e-13
6.5182306e-13
6.3785241e-13
6.2311361e-13
6.1034692e-13
5.9128536e-13
6.552791e-09
5.4122141e-09
5.0461897e-09
4.8653414e-09
4.7516617e-09
4.6722419e-09
4.6136437e-09
4.5688843e-09
4.5338279e-09
4.5058264e-09
4.4830939e-09
4.4643771e-09
4.4487667e-09
4.4355826e-09
4.4242939e-09
4.4144806e-09
4.4057374e-09
4.397808e-09
4.3898781e-09
4.3827451e-09
4.3695713e-09
4.3700924e-09
4.2821781e-09
3.8004079e-09
4.7061781e-11
1.0407982e-11
1.0381866e-11
5.4641965e-12
7.4120237e-12
3.9690124e-12
6.2169394e-12
3.2938937e-12
5.521057e-12
5.1357338e-12
5.0407606e-12
4.7925115e-12
4.658557e-12
4.4906213e-12
4.3591225e-12
4.2293468e-12
4.1132462e-12
4.0043148e-12
3.9030938e-12
3.808128e-12
3.7187758e-12
3.6343866e-12
3.5544306e-12
3.47845e-12
3.4060512e-12
3.3368959e-12
3.2706859e-12
3.2071574e-12
3.1460789e-12
3.087244e-12
3.0304708e-12
2.9755987e-12
2.9224815e-12
2.8709872e-12
2.8209978e-12
2.7724065e-12
2.7251151e-12
2.6790361e-12
2.6340903e-12
2.5902032e-12
2.5473058e-12
2.5053355e-12
2.4642346e-12
2.4239494e-12
2.3844302e-12
2.3456324e-12
2.3075152e-12
2.2700385e-12
2.2331648e-12
2.1968595e-12
2.1610897e-12
2.1258248e-12
2.0910351e-12
2.0566929e-12
2.0227743e-12
1.9892543e-12
1.9561077e-12
1.9233124e-12
1.8908468e-12
1.8586901e-12
1.8268223e-12
1.7952239e-12
1.763877e-12
1.7327649e-12
1.7018695e-12
1.6711732e-12
1.6406599e-12
1.6103132e-12
1.5801172e-12
1.5500561e-12
1.5201143e-12
1.490278e-12
1.460532e-12
1.43086e-12
1.4012474e-12
1.3716788e-12
1.3421391e-12
1.3126125e-12
1.2830835e-12
1.2535376e-12
1.2239586e-12
1.1943291e-12
1.1646325e-12
1.1348511e-12
1.1049663e-12
1.0749596e-12
1.0448119e-12
1.0144918e-12
9.840115e-13
9.5413734e-13
9.2579429e-13
8.9905297e-13
8.7375931e-13
8.4981388e-13
8.2710466e-13
8.0553305e-13
7.8500897e-13
7.6544971e-13
7.4677981e-13
7.2893081e-13
7.1183872e-13
6.9544238e-13
6.7968355e-13
6.6450261e-13
6.4984258e-13
6.3562751e-13
6.218059e-13
6.0819732e-13
5.9491111e-13
5.8090581e-13
5.6877825e-13
5.5069856e-13
6.5582178e-09
5.372349e-09
4.9924988e-09
4.8049247e-09
4.6870643e-09
4.6047499e-09
4.5440305e-09
4.4976586e-09
4.4613435e-09
4.4323388e-09
4.4087932e-09
4.3894084e-09
4.3732429e-09
4.3595932e-09
4.3479114e-09
4.3377658e-09
4.3287426e-09
4.320583e-09
4.3124723e-09
4.3052337e-09
4.2920212e-09
4.2929608e-09
4.2050023e-09
3.7578443e-09
4.9895696e-11
1.0241455e-11
9.7001596e-12
5.2840988e-12
6.9003868e-12
3.7900416e-12
5.7932814e-12
3.1338711e-12
5.1562256e-12
4.8105837e-12
4.7190927e-12
4.4936388e-12
4.3703417e-12
4.2172244e-12
4.0967784e-12
3.9780443e-12
3.8716452e-12
3.7717476e-12
3.6787874e-12
3.5914518e-12
3.5091608e-12
3.4313311e-12
3.3574871e-12
3.2872175e-12
3.2201691e-12
3.1560384e-12
3.0945577e-12
3.0354896e-12