/*--------------------------------*- C++ -*----------------------------------*\
| =========                 |                                                 |
| \\      /  F ield         | OpenFOAM: The Open Source CFD Toolbox           |
|  \\    /   O peration     | Version:  2206                                  |
|   \\  /    A nd           | Website:  www.openfoam.com                      |
|    \\/     M anipulation  |                                                 |
\*---------------------------------------------------------------------------*/
FoamFile
{
    version     2.0;
    format      ascii;
    arch        "LSB;label=32;scalar=64";
    class       volScalarField;
    location    "1500";
    object      p;
}
// * * * * * * * * * * * * * * * * * * * * * * * * * * * * * * * * * * * * * //

dimensions      [0 2 -2 0 0 0 0];

internalField   nonuniform List<scalar> 
13056
(
0.011722814
0.011829285
0.012050613
0.012329982
0.012670825
0.013072366
0.013531371
0.014047009
0.014620869
0.015256252
0.015958163
0.0167338
0.017593058
0.018550071
0.019623528
0.020843404
0.02224438
0.023906356
0.025877647
0.028470343
0.031546657
0.036935498
0.041900756
0.08283512
0.052073803
0.0015193427
0.00079032226
0.0018791215
0.0023948104
0.0028170078
0.0030826362
0.0032734424
0.0034128481
0.0035103181
0.0035785506
0.0036272046
0.0036619071
0.0036862011
0.0037025434
0.0037129548
0.0037188052
0.0037209775
0.0037202172
0.0037171454
0.0037121616
0.003705549
0.0036975902
0.0036884836
0.0036784074
0.0036674833
0.0036557901
0.0036434194
0.0036304382
0.0036169061
0.0036028826
0.0035883914
0.0035734478
0.0035580799
0.0035423081
0.0035261455
0.0035096062
0.0034927074
0.0034754421
0.0034578011
0.0034397896
0.0034214053
0.0034026461
0.0033835061
0.0033639838
0.0033440775
0.0033237625
0.0033030199
0.0032818425
0.0032602165
0.0032381253
0.0032155563
0.0031924878
0.0031689128
0.0031448064
0.0031201225
0.0030948459
0.003068952
0.0030424102
0.003015192
0.0029872651
0.002958598
0.0029291601
0.0028988975
0.002867759
0.0028357048
0.0028026845
0.0027686432
0.0027335269
0.0026972693
0.0026598157
0.0026210898
0.0025809919
0.002539448
0.0024963653
0.0024516426
0.0024051749
0.0023568405
0.0023065236
0.0022540805
0.00219934
0.0021421481
0.0020823215
0.0020196683
0.001953972
0.0018850272
0.001812576
0.0017363442
0.0016564449
0.0015734048
0.0014890562
0.0014056758
0.0013239038
0.0012436246
0.0011648575
0.0010876382
0.0010120144
0.00093806317
0.00086590138
0.00079567862
0.00072757257
0.00066182547
0.00059877011
0.00053881849
0.0004826031
0.00043075813
0.00038484715
0.00034525157
0.00031797818
0.00029602127
0.00043880809
-0.00039324111
0.011722814
0.011829285
0.012050613
0.012329982
0.012670825
0.013072366
0.013531371
0.01404701
0.014620869
0.015256252
0.015958164
0.0167338
0.017593059
0.018550072
0.019623529
0.020843405
0.022244382
0.023906358
0.02587765
0.028470348
0.031546663
0.036935511
0.0419008
0.082829891
0.052085574
0.0015269585
0.00079231687
0.001879986
0.0023953382
0.0028173807
0.0030829184
0.0032736665
0.0034130315
0.0035104717
0.0035786817
0.0036273181
0.0036620065
0.003686289
0.0037026218
0.0037130252
0.0037188689
0.0037210353
0.00372027
0.0037171938
0.0037122061
0.0037055901
0.0036976282
0.0036885189
0.0036784403
0.003667514
0.0036558188
0.0036434462
0.0036304635
0.0036169298
0.0036029049
0.0035884125
0.0035734676
0.0035580986
0.0035423259
0.0035261623
0.0035096222
0.0034927226
0.0034754565
0.0034578147
0.0034398025
0.0034214177
0.0034026579
0.0033835173
0.0033639944
0.0033440877
0.0033237722
0.0033030291
0.0032818513
0.0032602249
0.0032381333
0.003215564
0.0031924952
0.0031689198
0.0031448132
0.0031201289
0.0030948521
0.0030689579
0.0030424158
0.0030151974
0.0029872703
0.0029586029
0.0029291648
0.002898902
0.0028677633
0.0028357089
0.0028026885
0.0027686469
0.0027335305
0.0026972727
0.002659819
0.0026210929
0.0025809949
0.0025394508
0.002496368
0.0024516451
0.0024051773
0.0023568428
0.0023065258
0.0022540826
0.0021993419
0.0021421499
0.0020823232
0.00201967
0.0019539736
0.0018850287
0.0018125774
0.0017363456
0.0016564462
0.001573406
0.0014890573
0.0014056769
0.0013239048
0.0012436256
0.0011648583
0.001087639
0.0010120152
0.00093806394
0.00086590211
0.00079567932
0.00072757324
0.00066182611
0.00059877073
0.00053881909
0.00048260368
0.0004307587
0.00038484771
0.00034525212
0.00031797874
0.00029602186
0.0004388087
-0.00039324071
0.011722814
0.011829285
0.012050614
0.012329982
0.012670825
0.013072366
0.013531371
0.01404701
0.014620869
0.015256252
0.015958164
0.016733801
0.017593059
0.018550073
0.01962353
0.020843407
0.022244384
0.023906361
0.025877653
0.028470354
0.031546671
0.036935526
0.041900839
0.082825023
0.052101627
0.0015340392
0.0007945134
0.0018809965
0.0023959551
0.0028178166
0.0030832484
0.0032739285
0.0034132458
0.0035106513
0.0035788349
0.0036274508
0.0036621227
0.0036863918
0.0037027135
0.0037131076
0.0037189433
0.0037211029
0.0037203317
0.0037172504
0.0037122581
0.0037056381
0.0036976727
0.0036885602
0.0036784788
0.0036675499
0.0036558524
0.0036434777
0.003630493
0.0036169576
0.003602931
0.0035884371
0.0035734908
0.0035581206
0.0035423467
0.003526182
0.0035096408
0.0034927403
0.0034754733
0.0034578307
0.0034398177
0.0034214321
0.0034026716
0.0033835304
0.0033640069
0.0033440996
0.0033237835
0.00330304
0.0032818616
0.0032602348
0.0032381427
0.003215573
0.0031925038
0.0031689281
0.003144821
0.0031201364
0.0030948593
0.0030689648
0.0030424224
0.0030152037
0.0029872763
0.0029586086
0.0029291702
0.0028989072
0.0028677683
0.0028357136
0.002802693
0.0027686513
0.0027335347
0.0026972767
0.0026598228
0.0026210965
0.0025809983
0.0025394541
0.0024963711
0.0024516481
0.0024051802
0.0023568455
0.0023065283
0.002254085
0.0021993442
0.0021421521
0.0020823253
0.002019672
0.0019539754
0.0018850305
0.001812579
0.0017363471
0.0016564476
0.0015734074
0.0014890586
0.0014056781
0.0013239059
0.0012436266
0.0011648594
0.00108764
0.0010120162
0.00093806483
0.00086590296
0.00079568013
0.00072757402
0.00066182687
0.00059877146
0.00053881979
0.00048260436
0.00043075936
0.00038484836
0.00034525276
0.00031797939
0.00029602252
0.00043880942
-0.00039324027
0.011722814
0.011829285
0.012050614
0.012329982
0.012670825
0.013072366
0.013531371
0.01404701
0.014620869
0.015256252
0.015958164
0.016733801
0.01759306
0.018550074
0.019623531
0.020843408
0.022244386
0.023906364
0.025877657
0.028470359
0.031546678
0.036935539
0.041900877
0.082820297
0.052119407
0.0015390625
0.00079655463
0.0018819758
0.0023965531
0.0028182391
0.0030835682
0.0032741824
0.0034134536
0.0035108253
0.0035789835
0.0036275794
0.0036622354
0.0036864915
0.0037028023
0.0037131874
0.0037190154
0.0037211684
0.0037203915
0.0037173052
0.0037123086
0.0037056847
0.0036977158
0.0036886003
0.0036785161
0.0036675847
0.0036558849
0.0036435081
0.0036305215
0.0036169844
0.0036029563
0.0035884609
0.0035735134
0.0035581419
0.0035423668
0.0035262011
0.0035096589
0.0034927574
0.0034754896
0.0034578461
0.0034398324
0.0034214461
0.003402685
0.0033835431
0.003364019
0.0033441111
0.0033237945
0.0033030505
0.0032818717
0.0032602444
0.0032381519
0.0032155817
0.0031925121
0.003168936
0.0031448286
0.0031201437
0.0030948662
0.0030689714
0.0030424287
0.0030152097
0.0029872821
0.0029586142
0.0029291756
0.0028989123
0.0028677731
0.0028357183
0.0028026975
0.0027686555
0.0027335387
0.0026972806
0.0026598265
0.0026211
0.0025810017
0.0025394573
0.0024963742
0.002451651
0.0024051829
0.0023568481
0.0023065308
0.0022540873
0.0021993465
0.0021421542
0.0020823273
0.0020196739
0.0019539772
0.0018850321
0.0018125806
0.0017363486
0.001656449
0.0015734087
0.0014890598
0.0014056793
0.001323907
0.0012436277
0.0011648604
0.0010876409
0.0010120171
0.00093806569
0.00086590378
0.00079568093
0.00072757478
0.0006618276
0.00059877216
0.00053882047
0.00048260502
0.00043076
0.00038484899
0.00034525337
0.00031798001
0.00029602312
0.00043881011
-0.00039323987
0.011722814
0.011829285
0.012050614
0.012329982
0.012670826
0.013072367
0.013531371
0.01404701
0.01462087
0.015256253
0.015958165
0.016733801
0.017593061
0.018550075
0.019623532
0.02084341
0.022244388
0.023906367
0.025877661
0.028470365
0.031546686
0.036935553
0.04190092
0.082815173
0.052138289
0.0015448434
0.00079864544
0.0018829847
0.0023971692
0.0028186744
0.0030838978
0.003274444
0.0034136676
0.0035110046
0.0035791365
0.0036277119
0.0036623514
0.0036865941
0.0037028939
0.0037132696
0.0037190897
0.0037212359
0.0037204531
0.0037173616
0.0037123605
0.0037057327
0.0036977602
0.0036886415
0.0036785545
0.0036676205
0.0036559184
0.0036435395
0.003630551
0.0036170121
0.0036029824
0.0035884855
0.0035735365
0.0035581638
0.0035423875
0.0035262207
0.0035096775
0.0034927751
0.0034755063
0.0034578621
0.0034398476
0.0034214605
0.0034026987
0.0033835562
0.0033640315
0.003344123
0.0033238059
0.0033030613
0.003281882
0.0032602542
0.0032381613
0.0032155907
0.0031925207
0.0031689443
0.0031448365
0.0031201512
0.0030948734
0.0030689783
0.0030424353
0.003015216
0.0029872881
0.0029586199
0.002929181
0.0028989176
0.0028677781
0.0028357231
0.002802702
0.0027686599
0.0027335429
0.0026972845
0.0026598302
0.0026211036
0.0025810051
0.0025394606
0.0024963773
0.002451654
0.0024051857
0.0023568508
0.0023065334
0.0022540898
0.0021993488
0.0021421564
0.0020823294
0.0020196758
0.0019539791
0.0018850339
0.0018125823
0.0017363501
0.0016564505
0.0015734101
0.0014890611
0.0014056805
0.0013239082
0.0012436288
0.0011648614
0.0010876419
0.001012018
0.00093806658
0.00086590463
0.00079568174
0.00072757556
0.00066182835
0.00059877289
0.00053882118
0.0004826057
0.00043076067
0.00038484963
0.00034525401
0.00031798066
0.00029602375
0.00043881082
-0.00039323945
0.011722814
0.011829285
0.012050614
0.012329982
0.012670826
0.013072367
0.013531371
0.01404701
0.01462087
0.015256253
0.015958165
0.016733802
0.017593062
0.018550076
0.019623534
0.020843412
0.02224439
0.02390637
0.025877665
0.028470373
0.031546696
0.036935569
0.041900969
0.082809471
0.052157963
0.0015521485
0.00080087805
0.0018840589
0.0023978255
0.002819138
0.0030842487
0.0032747226
0.0034138956
0.0035111955
0.0035792994
0.003627853
0.003662475
0.0036867034
0.0037029914
0.0037133571
0.0037191688
0.0037213078
0.0037205187
0.0037174218
0.0037124159
0.0037057837
0.0036978076
0.0036886855
0.0036785954
0.0036676587
0.0036559541
0.0036435729
0.0036305824
0.0036170416
0.0036030101
0.0035885116
0.0035735612
0.0035581871
0.0035424096
0.0035262416
0.0035096973
0.0034927939
0.0034755242
0.003457879
0.0034398637
0.0034214759
0.0034027133
0.0033835701
0.0033640447
0.0033441357
0.0033238179
0.0033030728
0.003281893
0.0032602647
0.0032381713
0.0032156003
0.0031925298
0.003168953
0.0031448448
0.0031201592
0.0030948811
0.0030689856
0.0030424423
0.0030152227
0.0029872944
0.002958626
0.0029291869
0.0028989231
0.0028677835
0.0028357281
0.0028027069
0.0027686645
0.0027335473
0.0026972888
0.0026598343
0.0026211074
0.0025810088
0.0025394641
0.0024963806
0.0024516572
0.0024051888
0.0023568537
0.0023065361
0.0022540924
0.0021993512
0.0021421587
0.0020823316
0.0020196779
0.001953981
0.0018850357
0.001812584
0.0017363518
0.001656452
0.0015734115
0.0014890625
0.0014056818
0.0013239094
0.0012436299
0.0011648625
0.001087643
0.001012019
0.00093806753
0.00086590554
0.00079568261
0.0007275764
0.00066182915
0.00059877366
0.00053882192
0.00048260643
0.00043076137
0.00038485032
0.00034525469
0.00031798135
0.00029602441
0.00043881157
-0.000393239
0.011722814
0.011829285
0.012050614
0.012329983
0.012670826
0.013072367
0.013531372
0.014047011
0.01462087
0.015256254
0.015958166
0.016733803
0.017593063
0.018550077
0.019623535
0.020843414
0.022244393
0.023906374
0.025877671
0.028470381
0.031546708
0.036935589
0.041901026
0.082803093
0.052178683
0.0015601587
0.00080328181
0.0018852147
0.0023985316
0.0028196369
0.0030846263
0.0032750224
0.0034141409
0.0035114009
0.0035794747
0.0036280048
0.003662608
0.003686821
0.0037030962
0.0037134513
0.0037192539
0.0037213852
0.0037205893
0.0037174865
0.0037124754
0.0037058387
0.0036978585
0.0036887327
0.0036786394
0.0036676997
0.0036559925
0.0036436089
0.0036306161
0.0036170733
0.00360304
0.0035885398
0.0035735878
0.0035582122
0.0035424334
0.0035262641
0.0035097186
0.0034928141
0.0034755434
0.0034578973
0.0034398811
0.0034214924
0.003402729
0.0033835851
0.003364059
0.0033441493
0.0033238309
0.0033030852
0.0032819048
0.003260276
0.0032381821
0.0032156106
0.0031925397
0.0031689624
0.0031448538
0.0031201678
0.0030948893
0.0030689934
0.0030424498
0.0030152299
0.0029873013
0.0029586326
0.0029291932
0.0028989291
0.0028677892
0.0028357336
0.0028027121
0.0027686695
0.0027335521
0.0026972933
0.0026598386
0.0026211116
0.0025810127
0.0025394678
0.0024963842
0.0024516606
0.002405192
0.0023568568
0.002306539
0.0022540951
0.0021993539
0.0021421612
0.0020823339
0.0020196801
0.0019539831
0.0018850377
0.0018125859
0.0017363535
0.0016564537
0.0015734131
0.001489064
0.0014056831
0.0013239107
0.0012436312
0.0011648637
0.0010876441
0.0010120201
0.00093806855
0.00086590652
0.00079568354
0.00072757729
0.00066183001
0.00059877449
0.00053882273
0.0004826072
0.00043076213
0.00038485107
0.00034525542
0.00031798209
0.00029602512
0.00043881239
-0.00039323853
0.011722814
0.011829285
0.012050614
0.012329983
0.012670826
0.013072367
0.013531372
0.014047011
0.014620871
0.015256254
0.015958167
0.016733804
0.017593064
0.018550079
0.019623537
0.020843417
0.022244397
0.023906379
0.025877677
0.028470392
0.031546722
0.036935614
0.041901093
0.082795898
0.052200721
0.0015687415
0.00080588654
0.0018864674
0.0023992972
0.0028201776
0.0030850357
0.0032753474
0.0034144067
0.0035116236
0.0035796648
0.0036281693
0.0036627521
0.0036869485
0.0037032099
0.0037135535
0.0037193462
0.003721469
0.0037206659
0.0037175566
0.0037125399
0.0037058983
0.0036979136
0.003688784
0.0036786871
0.0036677442
0.0036560341
0.0036436479
0.0036306527
0.0036171077
0.0036030723
0.0035885703
0.0035736166
0.0035582394
0.0035424591
0.0035262885
0.0035097417
0.003492836
0.0034755642
0.0034579171
0.0034398999
0.0034215103
0.0034027461
0.0033836013
0.0033640745
0.003344164
0.003323845
0.0033030986
0.0032819176
0.0032602882
0.0032381938
0.0032156217
0.0031925504
0.0031689726
0.0031448636
0.0031201771
0.0030948982
0.003069002
0.0030424579
0.0030152377
0.0029873088
0.0029586397
0.0029292
0.0028989356
0.0028677954
0.0028357396
0.0028027178
0.002768675
0.0027335572
0.0026972982
0.0026598433
0.0026211161
0.002581017
0.0025394719
0.0024963881
0.0024516643
0.0024051955
0.0023568601
0.0023065422
0.0022540981
0.0021993567
0.0021421639
0.0020823365
0.0020196825
0.0019539854
0.0018850399
0.0018125879
0.0017363555
0.0016564555
0.0015734148
0.0014890655
0.0014056846
0.0013239121
0.0012436325
0.0011648649
0.0010876453
0.0010120212
0.00093806965
0.00086590757
0.00079568456
0.00072757826
0.00066183095
0.00059877539
0.0005388236
0.00048260805
0.00043076295
0.00038485187
0.00034525621
0.00031798289
0.0002960259
0.00043881327
-0.000393238
0.011722814
0.011829286
0.012050614
0.012329983
0.012670826
0.013072367
0.013531372
0.014047011
0.014620871
0.015256255
0.015958168
0.016733805
0.017593065
0.018550081
0.01962354
0.02084342
0.022244401
0.023906386
0.025877686
0.028470406
0.03154674
0.036935646
0.041901171
0.082787705
0.052224303
0.0015780578
0.00080873021
0.0018878354
0.0024001333
0.0028207683
0.0030854828
0.0032757023
0.0034146972
0.0035118669
0.0035798724
0.0036283491
0.0036629096
0.0036870878
0.0037033341
0.003713665
0.003719447
0.0037215606
0.0037207494
0.0037176333
0.0037126104
0.0037059634
0.0036979739
0.0036888399
0.0036787391
0.0036677928
0.0036560795
0.0036436904
0.0036306926
0.0036171453
0.0036031077
0.0035886036
0.0035736481
0.0035582692
0.0035424872
0.0035263151
0.003509767
0.00349286
0.0034755869
0.0034579387
0.0034399204
0.0034215298
0.0034027647
0.003383619
0.0033640914
0.0033441802
0.0033238604
0.0033031133
0.0032819316
0.0032603016
0.0032382066
0.0032156339
0.003192562
0.0031689837
0.0031448742
0.0031201873
0.0030949079
0.0030690113
0.0030424668
0.0030152462
0.0029873169
0.0029586475
0.0029292074
0.0028989427
0.0028678022
0.002835746
0.002802724
0.0027686809
0.0027335629
0.0026973036
0.0026598485
0.002621121
0.0025810217
0.0025394764
0.0024963923
0.0024516683
0.0024051994
0.0023568638
0.0023065457
0.0022541014
0.0021993598
0.0021421669
0.0020823393
0.0020196852
0.0019539879
0.0018850423
0.0018125901
0.0017363575
0.0016564575
0.0015734166
0.0014890673
0.0014056863
0.0013239137
0.001243634
0.0011648663
0.0010876466
0.0010120225
0.00093807086
0.00086590873
0.00079568566
0.00072757933
0.00066183197
0.00059877637
0.00053882455
0.00048260897
0.00043076385
0.00038485275
0.00034525708
0.00031798377
0.00029602675
0.00043881424
-0.00039323744
0.011722814
0.011829286
0.012050614
0.012329983
0.012670826
0.013072368
0.013531373
0.014047012
0.014620872
0.015256256
0.015958169
0.016733807
0.017593067
0.018550083
0.019623543
0.020843424
0.022244407
0.023906394
0.025877696
0.028470422
0.031546762
0.036935685
0.041901264
0.082778297
0.052249642
0.0015882688
0.00081185534
0.001889339
0.0024010527
0.0028214177
0.0030859744
0.0032760925
0.0034150164
0.0035121343
0.0035801006
0.0036285467
0.0036630826
0.0036872408
0.0037034706
0.0037137876
0.0037195578
0.0037216612
0.0037208413
0.0037177175
0.0037126879
0.0037060349
0.0036980401
0.0036889014
0.0036787964
0.0036678463
0.0036561295
0.0036437372
0.0036307366
0.0036171866
0.0036031466
0.0035886403
0.0035736826
0.0035583018
0.0035425181
0.0035263444
0.0035097947
0.0034928863
0.0034756119
0.0034579624
0.003439943
0.0034215513
0.0034027851
0.0033836385
0.00336411
0.0033441979
0.0033238773
0.0033031294
0.003281947
0.0032603163
0.0032382206
0.0032156474
0.0031925748
0.003168996
0.0031448859
0.0031201985
0.0030949186
0.0030690215
0.0030424766
0.0030152555
0.0029873258
0.002958656
0.0029292156
0.0028989505
0.0028678096
0.0028357532
0.0028027308
0.0027686874
0.0027335691
0.0026973096
0.0026598541
0.0026211264
0.0025810268
0.0025394813
0.002496397
0.0024516727
0.0024052036
0.0023568678
0.0023065495
0.0022541051
0.0021993633
0.0021421702
0.0020823424
0.0020196881
0.0019539907
0.0018850448
0.0018125926
0.0017363598
0.0016564596
0.0015734186
0.0014890692
0.0014056881
0.0013239154
0.0012436356
0.0011648679
0.0010876481
0.0010120239
0.00093807219
0.00086591
0.00079568688
0.00072758049
0.00066183309
0.00059877746
0.00053882559
0.00048260998
0.00043076483
0.00038485372
0.00034525803
0.00031798473
0.00029602768
0.0004388153
-0.00039323681
0.011722814
0.011829286
0.012050614
0.012329983
0.012670827
0.013072368
0.013531373
0.014047013
0.014620873
0.015256257
0.01595817
0.016733808
0.01759307
0.018550086
0.019623547
0.02084343
0.022244414
0.023906404
0.025877709
0.028470443
0.031546789
0.036935734
0.041901373
0.082767417
0.052276939
0.0015995228
0.00081530839
0.0018910007
0.0024020689
0.0028221355
0.0030865178
0.0032765239
0.0034153693
0.0035124298
0.0035803528
0.0036287651
0.0036632739
0.00368741
0.0037036215
0.0037139231
0.0037196802
0.0037217725
0.0037209429
0.0037178106
0.0037127736
0.003706114
0.0036981134
0.0036889694
0.0036788597
0.0036679053
0.0036561847
0.003643789
0.0036307851
0.0036172322
0.0036031895
0.0035886808
0.0035737209
0.003558338
0.0035425523
0.0035263768
0.0035098254
0.0034929154
0.0034756396
0.0034579887
0.003439968
0.0034215751
0.0034028078
0.0033836601
0.0033641305
0.0033442174
0.0033238959
0.0033031472
0.003281964
0.0032603326
0.0032382361
0.0032156622
0.003192589
0.0031690095
0.0031448989
0.0031202108
0.0030949304
0.0030690328
0.0030424874
0.0030152658
0.0029873357
0.0029586654
0.0029292246
0.0028989592
0.0028678179
0.0028357611
0.0028027383
0.0027686946
0.002733576
0.0026973161
0.0026598604
0.0026211323
0.0025810325
0.0025394867
0.0024964021
0.0024516776
0.0024052082
0.0023568722
0.0023065537
0.0022541091
0.0021993671
0.0021421738
0.0020823458
0.0020196913
0.0019539937
0.0018850477
0.0018125953
0.0017363624
0.001656462
0.0015734209
0.0014890713
0.0014056901
0.0013239172
0.0012436374
0.0011648696
0.0010876497
0.0010120254
0.00093807366
0.0008659114
0.00079568822
0.00072758178
0.00066183433
0.00059877865
0.00053882675
0.0004826111
0.00043076592
0.00038485479
0.00034525908
0.0003179858
0.00029602871
0.00043881647
-0.00039323612
0.011722814
0.011829286
0.012050615
0.012329984
0.012670827
0.013072369
0.013531374
0.014047013
0.014620874
0.015256258
0.015958172
0.016733811
0.017593072
0.01855009
0.019623552
0.020843436
0.022244423
0.023906415
0.025877725
0.028470467
0.031546822
0.036935794
0.041901502
0.082754757
0.052306383
0.0016119805
0.00081914046
0.0018928451
0.0024031973
0.0028229325
0.0030871211
0.0032770028
0.0034157611
0.003512758
0.0035806328
0.0036290075
0.0036634863
0.0036875979
0.003703789
0.0037140736
0.0037198162
0.003721896
0.0037210556
0.0037179139
0.0037128686
0.0037062018
0.0036981947
0.0036890449
0.00367893
0.0036679709
0.003656246
0.0036438464
0.003630839
0.0036172828
0.0036032372
0.0035887257
0.0035737633
0.0035583781
0.0035425903
0.0035264127
0.0035098595
0.0034929477
0.0034756703
0.0034580178
0.0034399957
0.0034216014
0.0034028329
0.003383684
0.0033641533
0.0033442392
0.0033239167
0.003303167
0.0032819829
0.0032603506
0.0032382533
0.0032156786
0.0031926047
0.0031690246
0.0031449132
0.0031202246
0.0030949436
0.0030690454
0.0030424994
0.0030152773
0.0029873467
0.0029586759
0.0029292346
0.0028989688
0.002867827
0.0028357698
0.0028027467
0.0027687025
0.0027335836
0.0026973234
0.0026598673
0.002621139
0.0025810388
0.0025394927
0.0024964079
0.0024516831
0.0024052134
0.0023568771
0.0023065584
0.0022541135
0.0021993713
0.0021421777
0.0020823495
0.0020196949
0.0019539971
0.0018850509
0.0018125983
0.0017363652
0.0016564646
0.0015734234
0.0014890737
0.0014056923
0.0013239193
0.0012436394
0.0011648715
0.0010876515
0.0010120271
0.00093807529
0.00086591296
0.00079568972
0.00072758322
0.00066183571
0.00059877998
0.00053882803
0.00048261235
0.00043076713
0.00038485597
0.00034526024
0.00031798698
0.00029602985
0.00043881777
-0.00039323535
0.011722814
0.011829286
0.012050615
0.012329984
0.012670828
0.013072369
0.013531375
0.014047014
0.014620875
0.01525626
0.015958174
0.016733813
0.017593076
0.018550094
0.019623558
0.020843444
0.022244433
0.02390643
0.025877743
0.028470497
0.031546862
0.036935866
0.041901654
0.082739948
0.052338133
0.0016258231
0.00082340829
0.0018948998
0.0024044547
0.0028238205
0.0030877934
0.0032775364
0.0034161977
0.0035131236
0.0035809448
0.0036292777
0.0036637229
0.0036878071
0.0037039757
0.0037142412
0.0037199676
0.0037220336
0.0037211812
0.003718029
0.0037129746
0.0037062996
0.0036982852
0.003689129
0.0036790083
0.0036680439
0.0036563143
0.0036439104
0.003630899
0.0036173393
0.0036032903
0.0035887758
0.0035738106
0.0035584227
0.0035426325
0.0035264527
0.0035098974
0.0034929837
0.0034757044
0.0034580503
0.0034400266
0.0034216308
0.0034028609
0.0033837107
0.0033641787
0.0033442634
0.0033239398
0.003303189
0.0032820039
0.0032603707
0.0032382725
0.003215697
0.0031926222
0.0031690413
0.0031449292
0.0031202399
0.0030949582
0.0030690593
0.0030425128
0.0030152901
0.0029873589
0.0029586876
0.0029292458
0.0028989794
0.0028678372
0.0028357795
0.002802756
0.0027687114
0.0027335921
0.0026973315
0.002659875
0.0026211463
0.0025810458
0.0025394994
0.0024964142
0.0024516892
0.0024052192
0.0023568826
0.0023065636
0.0022541184
0.002199376
0.0021421822
0.0020823538
0.0020196989
0.0019540009
0.0018850544
0.0018126016
0.0017363684
0.0016564676
0.0015734261
0.0014890763
0.0014056948
0.0013239217
0.0012436416
0.0011648736
0.0010876535
0.001012029
0.0009380771
0.00086591469
0.00079569138
0.00072758481
0.00066183724
0.00059878146
0.00053882946
0.00048261373
0.00043076848
0.00038485729
0.00034526154
0.0003179883
0.00029603112
0.00043881922
-0.0003932345
0.011722814
0.011829286
0.012050615
0.012329984
0.012670828
0.01307237
0.013531376
0.014047016
0.014620877
0.015256262
0.015958176
0.016733816
0.01759308
0.0185501
0.019623565
0.020843453
0.022244445
0.023906447
0.025877766
0.028470532
0.031546909
0.036935952
0.041901832
0.082722545
0.052372316
0.0016412554
0.00082817503
0.0018971952
0.00240586
0.002824813
0.0030885446
0.0032781326
0.0034166855
0.0035135322
0.0035812935
0.0036295795
0.0036639873
0.003688041
0.0037041842
0.0037144285
0.0037201369
0.0037221873
0.0037213216
0.0037181577
0.0037130929
0.0037064088
0.0036983864
0.003689223
0.0036790957
0.0036681256
0.0036563906
0.0036439819
0.0036309661
0.0036174024
0.0036033497
0.0035888318
0.0035738634
0.0035584727
0.0035426798
0.0035264974
0.0035099398
0.0034930239
0.0034757426
0.0034580866
0.0034400611
0.0034216637
0.0034028921
0.0033837404
0.0033642071
0.0033442905
0.0033239656
0.0033032137
0.0032820275
0.0032603931
0.003238294
0.0032157175
0.0031926418
0.00316906
0.0031449471
0.003120257
0.0030949745
0.003069075
0.0030425277
0.0030153044
0.0029873726
0.0029587007
0.0029292583
0.0028989914
0.0028678486
0.0028357904
0.0028027664
0.0027687214
0.0027336016
0.0026973405
0.0026598837
0.0026211546
0.0025810537
0.0025395069
0.0024964214
0.0024516959
0.0024052257
0.0023568888
0.0023065694
0.002254124
0.0021993812
0.0021421872
0.0020823585
0.0020197033
0.0019540051
0.0018850584
0.0018126054
0.0017363719
0.0016564709
0.0015734292
0.0014890792
0.0014056975
0.0013239243
0.0012436441
0.0011648759
0.0010876557
0.0010120312
0.00093807913
0.00086591663
0.00079569324
0.0007275866
0.00066183896
0.00059878311
0.00053883106
0.00048261528
0.00043076999
0.00038485877
0.00034526299
0.00031798977
0.00029603254
0.00043882084
-0.00039323354
0.011722814
0.011829287
0.012050616
0.012329985
0.012670829
0.013072371
0.013531377
0.014047017
0.014620879
0.015256264
0.015958179
0.01673382
0.017593085
0.018550106
0.019623573
0.020843464
0.022244459
0.023906467
0.025877792
0.028470573
0.031546964
0.036936052
0.041902041
0.082702013
0.052409002
0.0016585097
0.00083351122
0.0018997653
0.0024074341
0.0028259246
0.0030893861
0.0032788005
0.0034172319
0.0035139898
0.003581684
0.0036299176
0.0036642834
0.0036883029
0.0037044177
0.0037146382
0.0037203264
0.0037223595
0.0037214788
0.0037183018
0.0037132255
0.0037065312
0.0036984998
0.0036893282
0.0036791937
0.003668217
0.0036564761
0.0036440619
0.0036310413
0.003617473
0.0036034162
0.0035888945
0.0035739226
0.0035585286
0.0035427327
0.0035265475
0.0035099873
0.003493069
0.0034757854
0.0034581273
0.0034400997
0.0034217004
0.0034029271
0.0033837738
0.0033642389
0.0033443208
0.0033239945
0.0033032413
0.0032820538
0.0032604183
0.003238318
0.0032157404
0.0031926637
0.003169081
0.0031449672
0.0031202761
0.0030949928
0.0030690925
0.0030425444
0.0030153204
0.0029873879
0.0029587153
0.0029292722
0.0028990047
0.0028678614
0.0028358026
0.002802778
0.0027687325
0.0027336122
0.0026973507
0.0026598934
0.0026211638
0.0025810625
0.0025395152
0.0024964293
0.0024517035
0.0024052329
0.0023568956
0.0023065759
0.0022541302
0.0021993871
0.0021421927
0.0020823637
0.0020197083
0.0019540098
0.0018850628
0.0018126095
0.0017363758
0.0016564746
0.0015734327
0.0014890825
0.0014057006
0.0013239272
0.0012436468
0.0011648785
0.0010876582
0.0010120335
0.0009380814
0.00086591881
0.00079569532
0.00072758859
0.00066184088
0.00059878496
0.00053883285
0.00048261702
0.00043077168
0.00038486043
0.00034526462
0.00031799142
0.00029603414
0.00043882266
-0.00039323247
0.011722814
0.011829287
0.012050616
0.012329986
0.01267083
0.013072372
0.013531378
0.014047019
0.014620881
0.015256267
0.015958183
0.016733825
0.017593091
0.018550114
0.019623583
0.020843477
0.022244476
0.02390649
0.025877822
0.02847062
0.031547028
0.036936168
0.041902285
0.08267771
0.05244819
0.001677853
0.00083949585
0.0019026486
0.0024092007
0.002827172
0.0030903303
0.0032795499
0.003417845
0.0035145032
0.0035821221
0.0036302969
0.0036646157
0.0036885967
0.0037046798
0.0037148736
0.0037205391
0.0037225528
0.0037216551
0.0037184634
0.0037133743
0.0037066685
0.0036986269
0.0036894463
0.0036793036
0.0036683195
0.003656572
0.0036441518
0.0036311256
0.0036175522
0.0036034908
0.0035889648
0.003573989
0.0035585913
0.003542792
0.0035266037
0.0035100406
0.0034931196
0.0034758334
0.0034581729
0.0034401431
0.0034217417
0.0034029664
0.0033838112
0.0033642745
0.0033443548
0.0033240269
0.0033032722
0.0032820833
0.0032604465
0.0032383449
0.0032157661
0.0031926883
0.0031691045
0.0031449896
0.0031202976
0.0030950134
0.0030691121
0.0030425632
0.0030153383
0.002987405
0.0029587317
0.0029292879
0.0028990197
0.0028678757
0.0028358163
0.0028027911
0.002768745
0.0027336241
0.0026973621
0.0026599042
0.0026211741
0.0025810723
0.0025395246
0.0024964383
0.0024517121
0.002405241
0.0023569033
0.0023065832
0.0022541371
0.0021993937
0.002142199
0.0020823696
0.0020197139
0.001954015
0.0018850678
0.0018126142
0.0017363802
0.0016564787
0.0015734366
0.0014890861
0.0014057041
0.0013239305
0.0012436499
0.0011648815
0.001087661
0.0010120362
0.00093808395
0.00086592125
0.00079569765
0.00072759083
0.00066184304
0.00059878704
0.00053883486
0.00048261896
0.00043077357
0.00038486228
0.00034526644
0.00031799327
0.00029603592
0.00043882469
-0.00039323127
0.011722814
0.011829287
0.012050617
0.012329986
0.012670831
0.013072373
0.013531379
0.014047021
0.014620883
0.01525627
0.015958187
0.01673383
0.017593098
0.018550122
0.019623595
0.020843492
0.022244496
0.023906517
0.025877857
0.028470674
0.031547101
0.036936299
0.041902571
0.082648862
0.052489781
0.0016995945
0.00084621762
0.0019058876
0.0024111864
0.002828574
0.0030913916
0.0032803921
0.003418534
0.0035150802
0.0035826145
0.0036307232
0.0036649891
0.0036889269
0.0037049743
0.003715138
0.003720778
0.0037227699
0.0037218533
0.0037186451
0.0037135414
0.0037068228
0.0036987698
0.003689579
0.0036794272
0.0036684348
0.0036566797
0.0036442527
0.0036312203
0.0036176413
0.0036035746
0.0035890438
0.0035740636
0.0035586618
0.0035428587
0.0035266669
0.0035101005
0.0034931764
0.0034758873
0.0034582241
0.0034401918
0.0034217881
0.0034030106
0.0033838533
0.0033643146
0.003344393
0.0033240634
0.003303307
0.0032821165
0.0032604782
0.0032383752
0.0032157951
0.003192716
0.0031691309
0.0031450149
0.0031203217
0.0030950365
0.0030691342
0.0030425843
0.0030153585
0.0029874243
0.0029587501
0.0029293055
0.0028990365
0.0028678918
0.0028358317
0.0028028058
0.002768759
0.0027336375