/*--------------------------------*- C++ -*----------------------------------*\
| =========                 |                                                 |
| \\      /  F ield         | OpenFOAM: The Open Source CFD Toolbox           |
|  \\    /   O peration     | Version:  2206                                  |
|   \\  /    A nd           | Website:  www.openfoam.com                      |
|    \\/     M anipulation  |                                                 |
\*---------------------------------------------------------------------------*/
FoamFile
{
    version     2.0;
    format      ascii;
    arch        "LSB;label=32;scalar=64";
    class       surfaceScalarField;
    location    "1500";
    object      phi;
}
// * * * * * * * * * * * * * * * * * * * * * * * * * * * * * * * * * * * * * //

dimensions      [0 3 -1 0 0 0 0];

oriented        oriented;

internalField   nonuniform List<scalar> 
25880
(
2.0046248e-06
2.9325105e-11
2.0045563e-06
6.8473365e-11
2.0044715e-06
8.4807675e-11
2.0043754e-06
9.6178529e-11
2.0042643e-06
1.1107444e-10
2.0041366e-06
1.277014e-10
2.0039903e-06
1.4631165e-10
2.0038224e-06
1.6792347e-10
2.003629e-06
1.9340183e-10
2.0034053e-06
2.2367279e-10
2.0031453e-06
2.599583e-10
2.0028412e-06
3.0411704e-10
2.0024827e-06
3.5846893e-10
2.0020552e-06
4.275742e-10
2.00154e-06
5.1520296e-10
2.0009027e-06
6.3727007e-10
2.0001112e-06
7.9147048e-10
1.9990506e-06
1.0606568e-09
1.9977061e-06
1.3444396e-09
1.9955271e-06
2.1790085e-09
1.9928084e-06
2.7186726e-09
1.9863903e-06
6.4181589e-09
1.9840371e-06
2.3531788e-09
9.96692e-07
9.873451e-07
4.4002412e-09
9.9229176e-07
2.1121518e-09
2.2880893e-09
1.5998801e-09
5.1227175e-10
1.3516423e-09
2.4823778e-10
1.1987783e-09
1.52864e-10
1.0897898e-09
1.0898855e-10
1.0065117e-09
8.3278107e-11
9.3975637e-10
6.6755294e-11
8.8459698e-10
5.5159394e-11
8.3792613e-10
4.6670849e-11
7.9767882e-10
4.024731e-11
7.6245544e-10
3.5223386e-11
7.3126253e-10
3.1192908e-11
7.0336283e-10
2.7899698e-11
6.7819404e-10
2.5168787e-11
6.5532156e-10
2.2872482e-11
6.34403e-10
2.0918556e-11
6.1516158e-10
1.924142e-11
5.9737479e-10
1.7786796e-11
5.808595e-10
1.6515286e-11
5.6546149e-10
1.5398011e-11
5.5105255e-10
1.4408943e-11
5.3752365e-10
1.3528897e-11
5.2478193e-10
1.274172e-11
5.1274779e-10
1.2034138e-11
5.0135244e-10
1.1395349e-11
4.9053577e-10
1.0816675e-11
4.8024513e-10
1.0290641e-11
4.7043424e-10
9.8108861e-12
4.6106228e-10
9.3719654e-12
4.5209322e-10
8.9690562e-12
4.4349496e-10
8.598263e-12
4.3523856e-10
8.256398e-12
4.2729806e-10
7.940495e-12
4.1965014e-10
7.6479214e-12
4.1227366e-10
7.3764798e-12
4.0514952e-10
7.1241416e-12
3.9826051e-10
6.8890076e-12
3.915909e-10
6.6696106e-12
3.8512615e-10
6.4647515e-12
3.7885295e-10
6.2731989e-12
3.7275913e-10
6.093824e-12
3.6683345e-10
5.9256761e-12
3.6106553e-10
5.7679211e-12
3.5544584e-10
5.6196946e-12
3.4996566e-10
5.4801738e-12
3.4461683e-10
5.3488363e-12
3.3939159e-10
5.2252402e-12
3.3428277e-10
5.1088163e-12
3.2928371e-10
4.9990635e-12
3.2438814e-10
4.8955623e-12
3.195902e-10
4.7979411e-12
3.1488435e-10
4.7058564e-12
3.1026552e-10
4.618827e-12
3.0572898e-10
4.5365423e-12
3.0127003e-10
4.458944e-12
2.9688425e-10
4.3857803e-12
2.9256751e-10
4.3167415e-12
2.8831587e-10
4.2516411e-12
2.8412557e-10
4.1903005e-12
2.7999301e-10
4.1325626e-12
2.7591479e-10
4.078216e-12
2.7188777e-10
4.0270249e-12
2.6790883e-10
3.9789398e-12
2.6397488e-10
3.9339471e-12
2.6008298e-10
3.8918935e-12
2.5623033e-10
3.8526557e-12
2.5241417e-10
3.8161575e-12
2.4863184e-10
3.782335e-12
2.4488071e-10
3.7511301e-12
2.4115833e-10
3.7223735e-12
2.3746232e-10
3.6960116e-12
2.3379017e-10
3.6721486e-12
2.3013944e-10
3.6507359e-12
2.2650774e-10
3.631701e-12
2.2289269e-10
3.6150435e-12
2.1929192e-10
3.6007692e-12
2.1570304e-10
3.5888834e-12
2.1212372e-10
3.5793182e-12
2.0855162e-10
3.5721051e-12
2.0498423e-10
3.5673829e-12
2.0141904e-10
3.5651901e-12
1.9785348e-10
3.56556e-12
1.9428487e-10
3.5686122e-12
1.9071042e-10
3.5744456e-12
1.871273e-10
3.5831211e-12
1.8353195e-10
3.5953526e-12
1.7992208e-10
3.6098661e-12
1.7629568e-10
3.6264087e-12
1.728006e-10
3.4950805e-12
1.6950847e-10
3.2921276e-12
1.663997e-10
3.1087659e-12
1.6345952e-10
2.9401817e-12
1.6067408e-10
2.7854441e-12
1.5803011e-10
2.6439656e-12
1.5551568e-10
2.5144335e-12
1.5311997e-10
2.3957049e-12
1.5083318e-10
2.28679e-12
1.4864642e-10
2.1867642e-12
1.4655155e-10
2.0948679e-12
1.4454095e-10
2.0105993e-12
1.4260736e-10
1.9335871e-12
1.4074366e-10
1.8636979e-12
1.3894282e-10
1.8008464e-12
1.3719685e-10
1.7459676e-12
1.3549799e-10
1.6988591e-12
1.338326e-10
1.6653926e-12
1.3219547e-10
1.6371265e-12
1.3053434e-10
1.6611282e-12
1.2893032e-10
1.6040235e-12
1.2710564e-10
1.8246777e-12
1.079662e-12
2.0344982e-06
5.9160229e-11
2.0344286e-06
1.3814977e-10
2.0343422e-06
1.7111717e-10
2.0342444e-06
1.9406209e-10
2.0341313e-06
2.2411657e-10
2.0340014e-06
2.5766279e-10
2.0338525e-06
2.9520928e-10
2.0336816e-06
3.3881021e-10
2.0334848e-06
3.9021044e-10
2.0332572e-06
4.5127794e-10
2.0329926e-06
5.2447737e-10
2.0326832e-06
6.1355766e-10
2.0323185e-06
7.2319792e-10
2.0318834e-06
8.6259608e-10
2.0313593e-06
1.0393552e-09
2.030711e-06
1.2855756e-09
2.0299059e-06
1.5966022e-09
2.028827e-06
2.1395462e-09
2.0274595e-06
2.7119066e-09
2.0252434e-06
4.395094e-09
2.0224785e-06
5.4835561e-09
2.0159518e-06
1.2944877e-08
2.0135543e-06
4.7507415e-09
1.0179442e-06
1.9829551e-06
1.3425737e-08
1.9968102e-06
6.4626691e-09
9.2511568e-09
4.895436e-09
2.0795049e-09
4.1358672e-09
1.0078066e-09
3.6681054e-09
6.2062579e-10
3.3346019e-09
4.4249206e-10
3.0797741e-09
3.3810585e-10
2.8755075e-09
2.7102192e-10
2.7067236e-09
2.2394326e-10
2.5639151e-09
1.8947942e-10
2.4407626e-09
1.6339975e-10
2.3329833e-09
1.4300272e-10
2.237537e-09
1.2663921e-10
2.1521677e-09
1.1326903e-10
2.0751547e-09
1.0218175e-10
2.0051682e-09
9.2858975e-11
1.9411605e-09
8.4926282e-11
1.8822846e-09
7.811727e-11
1.8278598e-09
7.2211666e-11
1.7773255e-09
6.7049546e-11
1.73021e-09
6.2513551e-11
1.6861208e-09
5.8498072e-11
1.6447245e-09
5.4925211e-11
1.6057368e-09
5.1729387e-11
1.5689143e-09
4.8856713e-11
1.5340463e-09
4.6263326e-11
1.500949e-09
4.3914001e-11
1.4694612e-09
4.1778384e-11
1.4394415e-09
3.9830653e-11
1.4107647e-09
3.8048703e-11
1.3833208e-09
3.6412957e-11
1.3570115e-09
3.4907597e-11
1.3317482e-09
3.351968e-11
1.3074515e-09
3.2237165e-11
1.2840501e-09
3.1049363e-11
1.2614792e-09
2.9947354e-11
1.2396805e-09
2.8922901e-11
1.2186012e-09
2.7968296e-11
1.1981932e-09
2.7077581e-11
1.1784121e-09
2.6245887e-11
1.159217e-09
2.5468215e-11
1.1405709e-09
2.4739982e-11
1.1224392e-09
2.4057329e-11
1.1047903e-09
2.341687e-11
1.0875949e-09
2.2815094e-11
1.0708264e-09
2.2248664e-11
1.0544598e-09
2.1715456e-11
1.0384713e-09
2.1213676e-11
1.0228391e-09
2.0741014e-11
1.0075428e-09
2.0295436e-11
9.9256309e-10
1.9875238e-11
9.7788212e-10
1.9478912e-11
9.6348291e-10
1.9105063e-11
9.4935e-10
1.8751739e-11
9.3546887e-10
1.8417677e-11
9.2182517e-10
1.8102641e-11
9.0840534e-10
1.7805608e-11
8.9519676e-10
1.7525323e-11
8.8218738e-10
1.7261026e-11
8.6936568e-10
1.7011993e-11
8.5672066e-10
1.6777587e-11
8.4424193e-10
1.6556948e-11
8.3191983e-10
1.6349122e-11
8.1974487e-10
1.6153904e-11
8.0770757e-10
1.5971242e-11
7.9579895e-10
1.5800511e-11
7.840104e-10
1.5641212e-11
7.7233352e-10
1.5493036e-11
7.6076013e-10
1.5355722e-11
7.4928223e-10
1.5229035e-11
7.3789231e-10
1.5112289e-11
7.2658306e-10
1.5005265e-11
7.1534682e-10
1.4908385e-11
7.041761e-10
1.4821453e-11
6.9306363e-10
1.4744175e-11
6.8200213e-10
1.4676548e-11
6.709843e-10
1.4618597e-11
6.6000284e-10
1.4570343e-11
6.4905064e-10
1.4531511e-11
6.3812052e-10
1.4502227e-11
6.2720485e-10
1.4483056e-11
6.1629588e-10
1.4474155e-11
6.0538579e-10
1.4475657e-11
5.9446635e-10
1.4488049e-11
5.8352906e-10
1.4511732e-11
5.7256523e-10
1.4546954e-11
5.6156397e-10
1.4596612e-11
5.505183e-10
1.4655535e-11
5.39422e-10
1.4722707e-11
5.2872754e-10
1.4189542e-11
5.186541e-10
1.3365574e-11
5.0914171e-10
1.2621147e-11
5.0014517e-10
1.1936722e-11
4.9162211e-10
1.1308512e-11
4.8353194e-10
1.0734131e-11
4.7583812e-10
1.0208251e-11
4.685076e-10
9.7262307e-12
4.6151034e-10
9.2840517e-12
4.5481914e-10
8.8779608e-12
4.4840913e-10
8.5048739e-12
4.4225698e-10
8.162754e-12
4.3634047e-10
7.8500923e-12
4.3063782e-10
7.5663481e-12
4.2512749e-10
7.3111736e-12
4.197851e-10
7.088365e-12
4.1458686e-10
6.8970972e-12
4.0949104e-10
6.7612099e-12
4.0448175e-10
6.6464192e-12
3.9939905e-10
6.7438245e-12
3.9449174e-10
6.5113333e-12
3.8890419e-10
7.4122349e-12
4.3762483e-12
2.0946903e-06
8.9973732e-11
2.0946183e-06
2.1012762e-10
2.0945291e-06
2.6029359e-10
2.094428e-06
2.9519953e-10
2.0943112e-06
3.4091456e-10
2.0941769e-06
3.919392e-10
2.0940231e-06
4.4904615e-10
2.0938465e-06
5.1535931e-10
2.0936432e-06
5.9353218e-10
2.0934081e-06
6.8640514e-10
2.0931348e-06
7.9772564e-10
2.0928152e-06
9.3319394e-10
2.0924385e-06
1.0999242e-09
2.0919892e-06
1.3119017e-09
2.0914478e-06
1.5806846e-09
2.0907783e-06
1.9550813e-09
2.0899469e-06
2.4280024e-09
2.0888329e-06
3.2535369e-09
2.0874211e-06
4.1237485e-09
2.0851334e-06
6.6827793e-09
2.0822793e-06
8.3376633e-09
2.0755426e-06
1.9681616e-08
2.0730629e-06
7.2304335e-09
1.0547512e-06
3.0012668e-06
2.321404e-08
3.0283474e-06
1.1199672e-08
2.1265526e-08
8.4839411e-09
4.7952353e-09
7.1676203e-09
2.3241274e-09
6.3569441e-09
1.4313019e-09
5.7789546e-09
1.0204816e-09
5.3373186e-09
7.7974186e-10
4.9833118e-09
6.2502875e-10
4.6907993e-09
5.164557e-10
4.4433046e-09
4.3697415e-10
4.2298759e-09
3.7682843e-10
4.0430901e-09
3.2978851e-10
3.8776783e-09
2.9205103e-10
3.7297305e-09
2.6121685e-10
3.5962647e-09
2.3564755e-10
3.4749761e-09
2.1414755e-10
3.3640489e-09
1.9585346e-10
3.2620156e-09
1.8015064e-10
3.1676959e-09
1.6653131e-10
3.0801188e-09
1.5462671e-10
2.9984664e-09
1.4416594e-10
2.9220588e-09
1.3490561e-10
2.850318e-09
1.2666603e-10
2.7827515e-09
1.1929595e-10
2.718937e-09
1.1267112e-10
2.65851e-09
1.0669037e-10
2.6011515e-09
1.0127247e-10
2.5465825e-09
9.634741e-11
2.4945575e-09
9.1855646e-11
2.44486e-09
8.7746198e-11
2.3972991e-09
8.3973919e-11
2.3517043e-09
8.0502333e-11
2.3079224e-09
7.7301588e-11
2.2658157e-09
7.4343914e-11
2.2252604e-09
7.1604665e-11
2.1861444e-09
6.9063266e-11
2.1483666e-09
6.6700724e-11
2.1118357e-09
6.4499263e-11
2.0764681e-09
6.2445142e-11
2.0421869e-09
6.052713e-11
2.0089214e-09
5.8733702e-11
1.9766071e-09
5.7054289e-11
1.9451844e-09
5.5479989e-11
1.9145983e-09
5.4002993e-11
1.8847982e-09
5.2615209e-11
1.8557379e-09
5.1308937e-11
1.8273741e-09
5.0079281e-11
1.7996656e-09
4.8922101e-11
1.7725746e-09
4.7832073e-11
1.7460655e-09
4.6804504e-11
1.7201053e-09
4.5835465e-11
1.6946627e-09
4.4921478e-11
1.6697085e-09
4.4059326e-11
1.6452157e-09
4.3244507e-11
1.6211592e-09
4.2474114e-11
1.5975143e-09
4.1747593e-11
1.5742573e-09
4.1062592e-11
1.5513664e-09
4.0416211e-11
1.5288207e-09
3.9806703e-11
1.5066003e-09
3.9232396e-11
1.4846861e-09
3.8691821e-11
1.4630601e-09
3.8182996e-11
1.4417055e-09
3.7703718e-11
1.4206059e-09
3.7253519e-11
1.3997448e-09
3.6832271e-11
1.3791068e-09
3.6438542e-11
1.3586768e-09
3.6071175e-11
1.3384404e-09
3.5729458e-11
1.3183833e-09
3.5412793e-11
1.2984917e-09
3.5120635e-11
1.2787526e-09
3.48514e-11
1.2591533e-09
3.4604588e-11
1.2396805e-09
3.438117e-11
1.2203213e-09
3.4180693e-11
1.201063e-09
3.4002479e-11
1.181893e-09
3.3846524e-11
1.1627987e-09
3.3712881e-11
1.1437675e-09
3.3601601e-11
1.1247869e-09
3.3512049e-11
1.1058446e-09
3.3444519e-11
1.0869274e-09
3.340031e-11
1.0680217e-09
3.3379782e-11
1.0491142e-09
3.3383249e-11
1.0301904e-09
3.341183e-11
1.0112357e-09
3.3466449e-11
9.9223493e-10
3.3547679e-11
9.7316934e-10
3.36622e-11
9.5402679e-10
3.3798087e-11
9.3479648e-10
3.3953019e-11
9.1626255e-10
3.2723471e-11
8.9880487e-10
3.0823256e-11
8.8231954e-10
2.9106477e-11
8.6672817e-10
2.7528086e-11
8.5195735e-10
2.6079337e-11
8.3793675e-10
2.4754726e-11
8.2460304e-10
2.3541963e-11
8.1189892e-10
2.2430348e-11
7.9977236e-10
2.1410612e-11
7.8817622e-10
2.04741e-11
7.770674e-10
1.96137e-11
7.6640544e-10
1.8824713e-11
7.5615187e-10
1.8103659e-11
7.4626893e-10
1.7449291e-11
7.367193e-10
1.6860807e-11
7.274607e-10
1.6346958e-11
7.1845196e-10
1.5905841e-11
7.0962074e-10
1.5592425e-11
7.0093951e-10
1.5327653e-11
6.9213117e-10
1.5552164e-11
6.8362718e-10
1.5015327e-11
6.7394073e-10
1.7098685e-11
1.0084649e-11
2.1860979e-06
1.2225513e-10
2.1860225e-06
2.855562e-10
2.185929e-06
3.5376644e-10
2.185823e-06
4.0121301e-10
2.1857006e-06
4.6334113e-10
2.1855599e-06
5.3268259e-10
2.1853986e-06
6.1028616e-10
2.1852136e-06
7.0039631e-10
2.1850005e-06
8.0661829e-10
2.1847541e-06
9.3281069e-10
2.1844677e-06
1.0840641e-09
2.1841328e-06
1.2681217e-09
2.1837381e-06
1.4946469e-09
2.1832674e-06
1.7826372e-09
2.1827003e-06
2.1477897e-09
2.1819989e-06
2.6564062e-09
2.1811281e-06
3.2988378e-09
2.1799614e-06
4.4202371e-09
2.1784829e-06
5.6022435e-09
2.1760876e-06
9.0780553e-09
2.1730994e-06
1.1325863e-08
2.166047e-06
2.6734048e-08
2.1634447e-06
9.8327602e-09
1.1079676e-06
4.0567439e-06
3.4344405e-08
4.1019706e-06
1.6606527e-08
3.9003403e-08
1.2580083e-08
8.8216797e-09
1.06283e-08
4.2759107e-09
9.4261692e-09
2.6334325e-09
8.5690932e-09
1.8775576e-09
7.9142115e-09
1.4346236e-09
7.3892755e-09
1.1499648e-09
6.9555268e-09
9.5020439e-10
6.5885334e-09
8.0396752e-10
6.2720557e-09
6.9330619e-10
5.9950856e-09
6.0675862e-10
5.7498097e-09
5.3732686e-10
5.5304302e-09
4.805964e-10
5.3325251e-09
4.3355266e-10
5.1526767e-09
3.9399592e-10
4.9881924e-09
3.6033779e-10
4.8368961e-09
3.3144694e-10
4.6970379e-09
3.0638952e-10
4.5671774e-09
2.8448721e-10
4.4461023e-09
2.6524105e-10
4.3328043e-09
2.4820358e-10
4.2264262e-09
2.3304413e-10
4.1262377e-09
2.1948444e-10
4.0316129e-09
2.0729588e-10
3.942011e-09
1.9629233e-10
3.8569591e-09
1.8632431e-10
3.7760435e-09
1.7726304e-10
3.6989002e-09
1.6899897e-10
3.6252081e-09
1.6143829e-10
3.5546841e-09
1.5449795e-10
3.4870756e-09
1.4811083e-10
3.4221551e-09
1.4222202e-10
3.3597186e-09
1.3678041e-10
3.2995826e-09
1.3174066e-10
3.241581e-09
1.2706493e-10
3.1855634e-09
1.2271826e-10
3.1313947e-09
1.1866796e-10
3.0789511e-09
1.1488873e-10
3.0281184e-09
1.1135992e-10
2.9787917e-09
1.0806033e-10
2.9308755e-09
1.049705e-10
2.8842814e-09
1.0207406e-10
2.8389278e-09
9.9356643e-11
2.7947396e-09
9.6803362e-11
2.7516485e-09
9.440005e-11
2.7095901e-09
9.2137698e-11
2.6685035e-09
9.0008689e-11
2.6283324e-09
8.8003225e-11
2.5890242e-09
8.6112677e-11
2.5505299e-09
8.4329814e-11
2.5128031e-09
8.2648238e-11
2.4758004e-09
8.1062026e-11
2.439482e-09
7.9562903e-11
2.4038106e-09
7.8145515e-11
2.3687493e-09
7.6808844e-11
2.3342634e-09
7.554856e-11
2.3003203e-09
7.4359332e-11
2.266889e-09
7.3237944e-11
2.2339401e-09
7.218132e-11
2.2014452e-09
7.1186756e-11
2.1693775e-09
7.0250607e-11
2.1377124e-09
6.936882e-11
2.1064254e-09
6.8540533e-11
2.0754922e-09
6.7765512e-11
2.0448896e-09
6.7041119e-11
2.0145956e-09
6.6365229e-11
1.9845885e-09
6.5736531e-11
1.9548474e-09
6.5153923e-11
1.9253516e-09
6.4616404e-11
1.8960819e-09
6.4121062e-11
1.8670195e-09
6.3666973e-11
1.8381448e-09
6.3255925e-11
1.8094384e-09
6.2887084e-11
1.7808817e-09
6.2559203e-11
1.7524559e-09
6.2272275e-11
1.7241424e-09
6.2026398e-11
1.6959223e-09
6.1821667e-11
1.6677775e-09
6.165691e-11
1.6396893e-09
6.1532672e-11
1.6116383e-09
6.1451339e-11
1.5836045e-09
6.1413578e-11
1.5555678e-09
6.1419962e-11
1.5275071e-09
6.1472552e-11
1.4994005e-09
6.1573048e-11
1.4712256e-09
6.1722507e-11
1.4429546e-09
6.1933213e-11
1.4145695e-09
6.2183234e-11
1.3860542e-09
6.2468326e-11
1.3585715e-09
6.0206182e-11
1.3326846e-09
5.6710073e-11
1.3082397e-09
5.3551462e-11
1.2851203e-09
5.0647484e-11
1.2632176e-09
4.798203e-11
1.2424273e-09
4.5544967e-11
1.2226556e-09
4.3313686e-11
1.2038174e-09
4.1268497e-11
1.1858357e-09
3.9392349e-11
1.1686405e-09
3.7669317e-11
1.1521679e-09
3.6086317e-11
1.1363579e-09
3.4634702e-11
1.1211535e-09
3.3308071e-11
1.1064986e-09
3.2104128e-11
1.0923381e-09
3.1021393e-11
1.078609e-09
3.0075967e-11
1.0652505e-09
2.9264344e-11
1.0521553e-09
2.8687639e-11
1.0392825e-09
2.8200441e-11
1.0262215e-09
2.8613226e-11
1.0136119e-09
2.7624948e-11
9.9924653e-10
3.1464012e-11
1.854656e-11
2.3100834e-06
1.5652505e-10
2.3100033e-06
3.6565953e-10
2.309904e-06
4.5306e-10
2.3097914e-06
5.1383251e-10
2.3096613e-06
5.9339321e-10
2.3095118e-06
6.8218735e-10
2.3093406e-06
7.8155585e-10
2.309144e-06
8.969326e-10
2.3089177e-06
1.032933e-09
2.308656e-06
1.194496e-09
2.308352e-06
1.3881368e-09
2.3079963e-06
1.6237662e-09
2.3075772e-06
1.9137508e-09
2.3070774e-06
2.2824056e-09
2.3064754e-06
2.7498151e-09
2.305731e-06
3.4008389e-09
2.3048067e-06
4.2230991e-09
2.3035686e-06
5.6583469e-09
2.3019998e-06
7.1710393e-09
2.2994588e-06
1.1619093e-08
2.2962889e-06
1.4495731e-08
2.2888088e-06
3.4214148e-08
2.2860404e-06
1.2601139e-08
1.1787295e-06
5.1640548e-06
4.747138e-08
5.2332287e-06
2.3006658e-08
6.3468125e-08
1.7428934e-08
1.4399404e-08
1.4724972e-08
6.9798725e-09
1.3059418e-08
4.2989864e-09
1.1871953e-08
3.0650226e-09
1.0964626e-08
2.3419501e-09
1.0237344e-08
1.8772476e-09
9.6363993e-09
1.5511486e-09
9.127944e-09
1.3124228e-09
8.6894781e-09
1.1317721e-09
8.3057495e-09
9.9048725e-10
7.9659324e-09
8.7714393e-10
7.6619937e-09
7.845351e-10
7.387807e-09
7.0773935e-10
7.1386372e-09
6.4316576e-10
6.9107533e-09
5.8822164e-10
6.701141e-09
5.4105926e-10
6.5073756e-09
5.0015494e-10
6.3274612e-09
4.6440157e-10
6.1597186e-09
4.3298368e-10
6.0027507e-09
4.0517144e-10
5.8553699e-09
3.8042493e-10
5.7165645e-09
3.582899e-10
5.5854672e-09
3.3839313e-10
5.4613287e-09
3.204308e-10
5.3434942e-09
3.0415889e-10
5.23139e-09
2.8936717e-10
5.1245122e-09
2.758768e-10
5.0224158e-09
2.6353466e-10
4.9247086e-09
2.5220517e-10
4.8310407e-09
2.4177878e-10
4.7410969e-09
2.3216581e-10
4.6545944e-09
2.2328287e-10
4.5712791e-09
2.1505594e-10
4.4909208e-09
2.0742322e-10
4.4133114e-09
2.0032767e-10
4.3382635e-09
1.9371592e-10
4.2656055e-09
1.8754668e-10
4.1951792e-09
1.8178622e-10
4.1268396e-09
1.7639992e-10
4.0604541e-09
1.7135605e-10
3.9959003e-09
1.6662788e-10
3.933065e-09
1.6219194e-10
3.8718444e-09
1.5802393e-10
3.8121437e-09
1.5410075e-10
3.7538737e-09
1.5040766e-10
3.6969502e-09
1.4693225e-10
3.6412949e-09
1.4365851e-10
3.5868352e-09
1.4057236e-10
3.533503e-09
1.3766199e-10
3.4812343e-09
1.3491697e-10
3.4299687e-09
1.3232762e-10
3.3796512e-09
1.2988044e-10
3.33023e-09
1.2756668e-10
3.2816542e-09
1.2538469e-10
3.2338753e-09
1.2332739e-10
3.1868486e-09
1.2138608e-10
3.140531e-09
1.1955552e-10
3.0948817e-09
1.1783067e-10
3.0498613e-09
1.1620714e-10
3.0054329e-09
1.1467896e-10
2.9615622e-09
1.1323952e-10
2.9182153e-09
1.1188742e-10
2.8753586e-09
1.1062227e-10
2.8329599e-09
1.0943977e-10
2.7909887e-09
1.0833644e-10
2.7494151e-09
1.0731015e-10
2.7082099e-09
1.063591e-10
2.6673447e-09
1.0548165e-10
2.6267927e-09
1.0467305e-10
2.5865279e-09
1.039318e-10
2.546523e-09
1.032608e-10
2.5067514e-09
1.0265871e-10
2.4671871e-09
1.0212348e-10
2.4278043e-09
1.016551e-10
2.3885769e-09
1.0125373e-10
2.3494791e-09
1.0091954e-10
2.3104854e-09
1.0065059e-10
2.2715702e-09
1.004478e-10
2.2327065e-09
1.0031504e-10
2.1938667e-09
1.0025341e-10
2.1550228e-09
1.0026384e-10
2.1161457e-09
1.0034971e-10
2.077205e-09
1.0051377e-10
2.0381697e-09
1.0075777e-10
1.9990011e-09
1.0110175e-10
1.9596745e-09
1.0150992e-10
1.9201674e-09
1.0197538e-10
1.8820909e-09
9.8282648e-11
1.8462255e-09
9.2575484e-11
1.8123577e-09
8.7419269e-11
1.7803264e-09
8.267876e-11
1.7499808e-09
7.832763e-11
1.7211765e-09
7.4349324e-11
1.6937832e-09
7.0706938e-11
1.6676834e-09
6.736833e-11
1.6427701e-09
6.4305664e-11
1.6189465e-09
6.1492946e-11
1.596124e-09
5.8908815e-11
1.5742195e-09
5.6539157e-11
1.5531541e-09
5.437352e-11
1.53285e-09
5.2408153e-11
1.5132308e-09
5.0640644e-11
1.4942095e-09
4.9097263e-11
1.4757015e-09
4.7772292e-11
1.4575584e-09
4.6830745e-11
1.4397235e-09
4.6035354e-11
1.4216281e-09
4.6708666e-11
1.4041581e-09
4.5094942e-11
1.3842538e-09
5.1368345e-11
3.0268599e-11
2.4684943e-06
1.9334623e-10
2.4684082e-06
4.5176308e-10
2.4683015e-06
5.5982706e-10
2.4681804e-06
6.3493424e-10
2.4680405e-06
7.3323634e-10
2.4678798e-06
8.4294117e-10
2.4676956e-06
9.6570244e-10
2.4674843e-06
1.1082317e-09
2.467241e-06
1.2762296e-09
2.4669597e-06
1.4757948e-09
2.4666329e-06
1.7149722e-09
2.4662507e-06
2.0059989e-09
2.4658003e-06
2.3641436e-09
2.4652633e-06
2.8194287e-09
2.4646164e-06
3.3966456e-09
2.4638167e-06
4.2005756e-09
2.4628239e-06
5.2158938e-09
2.4614942e-06
6.9880455e-09
2.4598096e-06
8.8556393e-09
2.4570817e-06
1.4347014e-08
2.4536789e-06
1.7898509e-08
2.4456506e-06
4.2242422e-08
2.4426689e-06
1.5582898e-08
1.2684913e-06
6.3382324e-06
6.336299e-08
6.438357e-06
3.078288e-08
9.6048235e-08
2.3320601e-08
2.1861683e-08
1.9702762e-08
1.0597711e-08
1.7474077e-08
6.5276721e-09
1.5885147e-08
4.6539528e-09
1.4671067e-08
3.5560291e-09
1.3697911e-08
2.8504042e-09
1.2893806e-08
2.3552534e-09
1.221346e-08
1.9927685e-09
1.1626767e-08
1.718465e-09
1.1113318e-08
1.5039369e-09
1.0658625e-08
1.3318366e-09
1.025194e-08
1.1912201e-09
9.8850651e-09
1.0746143e-09
9.5516642e-09
9.7656672e-10
9.2467448e-09
8.93141e-10
8.9662739e-09
8.2153015e-10
8.707007e-09
7.5942184e-10
8.4662731e-09
7.0513545e-10
8.2418257e-09
6.5743109e-10
8.0317954e-09
6.1520175e-10
7.834593e-09
5.7762734e-10
7.6488647e-09
5.4401816e-10
7.4734504e-09
5.138075e-10
7.3073471e-09
4.8653406e-10
7.1496787e-09
4.618273e-10
6.9996779e-09
4.3936801e-10
6.85667e-09
4.1888465e-10
6.7200599e-09
4.0014473e-10
6.5893227e-09
3.829424e-10
6.4639902e-09
3.6711131e-10
6.3436407e-09
3.5251529e-10
6.2278959e-09
3.3902772e-10
6.1164156e-09
3.2653621e-10
6.0088919e-09
3.1494693e-10
5.9050463e-09
3.0417328e-10
5.804628e-09
2.9413421e-10
5.7074076e-09
2.8476704e-10
5.6131733e-09
2.7602053e-10
5.5217311e-09
2.6784216e-10
5.4329034e-09
2.6018371e-10
5.3465267e-09
2.530046e-10
5.2624494e-09
2.4626921e-10
5.1805327e-09
2.3994065e-10
5.1006496e-09
2.3398381e-10
5.022681e-09
2.2837636e-10
4.9465138e-09
2.230994e-10
4.8720437e-09
2.1812866e-10
4.7991733e-09
2.1344274e-10
4.7278115e-09
2.0902374e-10
4.6578727e-09
2.0485579e-10
4.5892761e-09
2.009242e-10
4.5219481e-09
1.9720848e-10
4.4558194e-09
1.9369536e-10
4.3908218e-09
1.9038229e-10
4.3268906e-09
1.8725855e-10
4.2639658e-09
1.8431093e-10
4.2019898e-09
1.8153146e-10
4.140908e-09
1.7891252e-10
4.0806678e-09
1.7644739e-10
4.0212197e-09
1.7412706e-10
3.9625177e-09
1.7194147e-10
3.9045166e-09
1.6988849e-10
3.8471714e-09
1.6796753e-10
3.7904391e-09
1.6617206e-10
3.7342787e-09
1.644968e-10
3.6786504e-09
1.6293852e-10
3.623515e-09
1.6149448e-10
3.5688344e-09
1.6016219e-10
3.514573e-09
1.5893445e-10
3.4606958e-09
1.5780897e-10
3.4071665e-09
1.5679016e-10
3.3539492e-09
1.5587597e-10
3.3010094e-09
1.550633e-10
3.2483124e-09
1.5435215e-10
3.1958233e-09
1.5374274e-10
3.1435076e-09
1.5323532e-10
3.0913312e-09
1.5282698e-10
3.0392599e-09
1.5251908e-10
2.9872574e-09
1.5231753e-10
2.9352868e-09
1.5222397e-10
2.8833108e-09
1.5223984e-10
2.8312903e-09
1.5237024e-10
2.7791847e-09
1.5261939e-10
2.7269526e-09
1.5298991e-10
2.6745421e-09
1.5351223e-10
2.62192e-09
1.5413204e-10
2.5690564e-09
1.5483892e-10
2.5181071e-09
1.4923201e-10
2.4701163e-09
1.4056629e-10
2.4247984e-09
1.3273715e-10
2.3819379e-09
1.2553926e-10
2.3413329e-09
1.1893261e-10
2.3027902e-09
1.1289205e-10
2.2661356e-09
1.0736153e-10
2.2312116e-09
1.0229226e-10
2.1978753e-09
9.7641962e-11
2.1659971e-09
9.3371179e-11
2.1354585e-09
8.9447473e-11
2.1061482e-09
8.5849412e-11
2.0779606e-09
8.2561126e-11
2.0507918e-09
7.9576917e-11
2.0245394e-09
7.6893117e-11
1.999087e-09
7.4549606e-11
1.9743216e-09
7.2537706e-11
1.9500445e-09
7.1107882e-11
1.9261797e-09
6.9900076e-11
1.9019669e-09
7.0921518e-11
1.8785908e-09
6.8471066e-11
1.8519556e-09
7.8003483e-11
4.5952697e-11
2.6636914e-06
2.3333607e-10
2.6635978e-06
5.4532396e-10
2.6634818e-06
6.7588756e-10
2.6633501e-06
7.6658464e-10
2.6631981e-06
8.8525523e-10
2.6630234e-06
1.0176831e-09
2.6628232e-06
1.16586e-09
2.6625935e-06
1.3378851e-09
2.6623291e-06
1.5406368e-09
2.6620235e-06
1.7814728e-09
2.6616683e-06
2.0700973e-09
2.6612531e-06
2.4212715e-09
2.6607638e-06
2.8534114e-09
2.6601805e-06
3.402732e-09
2.659478e-06
4.0991262e-09
2.6586096e-06
5.0689895e-09
2.6575317e-06
6.2937769e-09
2.6560883e-06
8.4314285e-09
2.65426e-06
1.068395e-08
2.6513003e-06
1.7306762e-08
2.6476086e-06
2.1590182e-08
2.6389006e-06
5.0950402e-08
2.6356531e-06
1.8830448e-08
1.3790687e-06
7.5948167e-06
8.2944522e-08
7.7344812e-06
4.040029e-08
1.3859247e-07
3.0607587e-08
3.1654385e-08
2.5859526e-08
1.5345773e-08
2.2934289e-08
9.452909e-09
2.0848788e-08
6.7394537e-09
1.9255289e-08
5.1495285e-09
1.7978017e-08
4.1276765e-09
1.6922628e-08
3.410642e-09
1.6029677e-08
2.88572e-09
1.5259648e-08
2.488494e-09
1.4585752e-08
2.1778325e-09
1.3988975e-08
1.9286134e-09
1.3455209e-08
1.7249869e-09
1.2973692e-08
1.5561306e-09
1.253611e-08
1.4141486e-09
1.213591e-08
1.2933415e-09
1.1767798e-08
1.1896421e-09
1.1427516e-08
1.0997039e-09
1.1111558e-08
1.0210937e-09
1.0816975e-08
9.5201368e-10
1.0541314e-08
8.9086229e-10
1.028249e-08
8.364516e-10
1.0038725e-08
7.877829e-10
9.8084973e-09
7.4403557e-10
9.5904898e-09
7.0454157e-10
9.3835528e-09
6.6876432e-10
9.1866792e-09
6.3624158e-10
8.9989838e-09
6.0658012e-10
8.8196852e-09
5.7944331e-10
8.6480945e-09
5.5453306e-10
8.4835974e-09
5.3160847e-10
8.3256403e-09
5.1047235e-10
8.1737267e-09
4.9094133e-10
8.0274102e-09
4.728527e-10
7.8862866e-09
4.5607056e-10
7.7499903e-09
4.404695e-10
7.6181924e-09
4.2593219e-10
7.4905916e-09
4.1236784e-10
7.3669098e-09
3.9970225e-10
7.2468926e-09
3.8785935e-10
7.130307e-09
3.7676935e-10
7.0169381e-09
3.6637347e-10
6.9065872e-09
3.5662012e-10
6.799072e-09
3.4745588e-10
6.6942259e-09
3.3882995e-10
6.5918923e-09
3.3070994e-10
6.4919232e-09
3.2306851e-10
6.3941813e-09
3.158705e-10
6.2985391e-09
3.0908495e-10
6.2048769e-09
3.0268591e-10
6.1130823e-09
2.966504e-10
6.0230494e-09
2.9095716e-10
5.9346813e-09
2.8557653e-10
5.8478874e-09
2.8048927e-10
5.762578e-09
2.756917e-10
5.6786682e-09
2.7116829e-10
5.5960792e-09
2.6689993e-10
5.5147357e-09
2.6287505e-10
5.4345655e-09
2.5908263e-10
5.3555e-09
2.5551294e-10
5.2774741e-09
2.5215293e-10
5.2004276e-09
2.4898804e-10
5.1243009e-09
2.4601519e-10
5.0490349e-09
2.4323349e-10
4.9745734e-09
2.4063352e-10
4.9008626e-09
2.3820764e-10
4.82785e-09
2.3595114e-10
4.7554844e-09
2.3386007e-10
4.6837158e-09
2.3193083e-10
4.6124972e-09
2.3015298e-10
4.541783e-09
2.2852322e-10
4.4715252e-09
2.2704792e-10
4.4016771e-09
2.2572412e-10
4.3321931e-09
2.2454734e-10
4.2630276e-09
2.2351755e-10
4.1941353e-09
2.226351e-10
4.1254703e-09
2.2190035e-10
4.0569882e-09
2.2130908e-10
3.988644e-09
2.2086325e-10
3.9203901e-09
2.2057142e-10
3.8521781e-09
2.2043599e-10
3.7839589e-09
2.2045902e-10
3.7156813e-09
2.2064789e-10
3.6472919e-09
2.2100874e-10
3.5787365e-09
2.2154535e-10
3.5099469e-09
2.2230178e-10
3.4408795e-09
2.2319941e-10
3.3714952e-09
2.2422326e-10
3.3046232e-09
2.1610404e-10
3.2416342e-09
2.0355521e-10
3.1821536e-09
1.9221784e-10
3.1258981e-09
1.8179467e-10
3.0726031e-09
1.722277e-10
3.0220147e-09
1.6348044e-10
2.9739044e-09
1.5547177e-10
2.9280657e-09
1.4813102e-10
2.8843107e-09
1.4139698e-10
2.8424693e-09
1.3521249e-10
2.8023862e-09
1.295306e-10
2.7639154e-09
1.2432026e-10
2.726918e-09
1.1955849e-10
2.6912579e-09
1.1523704e-10
2.6568004e-09
1.1135058e-10
2.6233932e-09
1.0795686e-10
2.5908875e-09
1.0504332e-10
2.5590229e-09
1.029725e-10
2.5276996e-09
1.0122336e-10
2.4959201e-09
1.0270104e-10
2.4652385e-09
9.9152718e-11
2.4302777e-09
1.1296429e-10
6.6538196e-11
2.8985834e-06
2.77181e-10
2.8984808e-06
6.4796606e-10
2.8983534e-06
8.0327339e-10
2.8982089e-06
9.1109143e-10
2.898042e-06
1.0521127e-09
2.8978502e-06
1.2094708e-09
2.8976306e-06
1.3855265e-09
2.8973786e-06
1.5898994e-09
2.8970884e-06
1.8307594e-09
2.8967531e-06
2.1168428e-09
2.8963635e-06
2.4596711e-09
2.895908e-06
2.8767694e-09
2.8953714e-06
3.3899994e-09
2.8947318e-06
4.042357e-09
2.8939616e-06
4.8693159e-09
2.8930096e-06
6.0209407e-09
2.8918283e-06
7.4751315e-09
2.8902467e-06
1.001301e-08
2.8882438e-06
1.2686907e-08
2.8850024e-06
2.0548088e-08
2.8809599e-06
2.5632706e-08
2.8714268e-06
6.0483484e-08
2.8678546e-06
2.2402698e-08
1.5126924e-06
8.9499789e-06
1.0735074e-07
9.1398229e-06
5.2434082e-08
1.9350913e-07
3.9725879e-08
4.4362588e-08
3.3563672e-08
2.1507979e-08
2.9766762e-08
1.3249819e-08
2.7059862e-08
9.4463543e-09
2.4991563e-08
7.2178273e-09
2.3333732e-08
5.7855078e-09
2.1963897e-08
4.7804769e-09
2.08049e-08
4.0447164e-09
1.9805455e-08
3.4879395e-09
1.8930787e-08
3.0525003e-09
1.8156215e-08
2.703185e-09
1.7463427e-08
2.4177753e-09
1.6838456e-08
2.1811012e-09
1.627051e-08
1.9820953e-09
1.5751081e-08
1.8127704e-09
1.5273301e-08
1.6674221e-09
1.4831642e-08
1.5413628e-09
1.4421553e-08
1.4311829e-09
1.4039208e-08
1.3343587e-09
1.3681422e-08
1.2486481e-09
1.3345488e-08
1.1723854e-09
1.30291e-08
1.1041708e-09
1.2730282e-08
1.042854e-09
1.2447325e-08
9.8749883e-10
1.2178736e-08
9.3735307e-10
1.1923209e-08
8.9176887e-10
1.1679594e-08
8.5019507e-10
1.1446877e-08
8.1215984e-10
1.1224165e-08
7.7724541e-10
1.1010659e-08
7.4511411e-10
1.0805642e-08
7.1548952e-10
1.0608469e-08
6.8811467e-10
1.041856e-08
6.6276147e-10
1.0235391e-08
6.3923947e-10
1.0058488e-08
6.1737287e-10
9.8874226e-09
5.9699725e-10
9.7218051e-09
5.7798534e-10
9.5612742e-09
5.6023314e-10
9.4054996e-09
5.4363401e-10
9.2541787e-09
5.2809016e-10
9.107033e-09
5.1351919e-10
8.9638043e-09
4.9984879e-10
8.8242561e-09
4.8700412e-10
8.6881721e-09
4.7491393e-10
8.5553492e-09
4.6353286e-10
8.4255952e-09
4.5282256e-10
8.2987319e-09
4.4273376e-10
8.1745938e-09
4.3322307e-10
8.0530256e-09
4.2425411e-10
7.9338813e-09
4.1579467e-10
7.8170235e-09
4.0781498e-10
7.7023266e-09
4.0027343e-10
7.5896728e-09
3.931431e-10
7.4789457e-09
3.8641878e-10
7.3700352e-09
3.8007873e-10
7.262839e-09
3.7409615e-10
7.1572592e-09
3.6845484e-10
7.0532025e-09
3.6313935e-10
6.9505794e-09
3.5813605e-10
6.8493057e-09
3.5342662e-10
6.7493031e-09
3.489907e-10
6.6504943e-09
3.4482393e-10
6.5528027e-09
3.409251e-10
6.4561553e-09
3.3728096e-10
6.3604821e-09
3.3388083e-10
6.2657151e-09
3.3071811e-10
6.1717879e-09
3.2778726e-10
6.0786355e-09
3.2508323e-10
5.9861971e-09
3.2259141e-10
5.8944131e-09
3.2030715e-10
5.8032217e-09
3.1823939e-10
5.7125618e-09
3.1638396e-10