/*--------------------------------*- C++ -*----------------------------------*\
| =========                 |                                                 |
| \\      /  F ield         | OpenFOAM: The Open Source CFD Toolbox           |
|  \\    /   O peration     | Version:  2206                                  |
|   \\  /    A nd           | Website:  www.openfoam.com                      |
|    \\/     M anipulation  |                                                 |
\*---------------------------------------------------------------------------*/
FoamFile
{
    version     2.0;
    format      ascii;
    arch        "LSB;label=32;scalar=64";
    class       volVectorField;
    location    "1500";
    object      U;
}
// * * * * * * * * * * * * * * * * * * * * * * * * * * * * * * * * * * * * * //

dimensions      [0 1 -1 0 0 0 0];

internalField   nonuniform List<vector> 
13056
(
(1 3.6562362e-10 4.2424732e-25)
(0.99997249 9.6895289e-10 0)
(0.99993247 1.3618409e-09 0)
(0.99988814 1.7521897e-09 0)
(0.99983694 2.295001e-09 0)
(0.99977781 2.991139e-09 0)
(0.99971005 3.8827849e-09 0)
(0.99963243 5.0452147e-09 0)
(0.9995432 6.5723789e-09 0)
(0.99944025 8.587053e-09 0)
(0.99932095 1.1257289e-08 0)
(0.99918195 1.4825791e-08 0)
(0.99901877 1.9624378e-08 0)
(0.99882574 2.6203662e-08 0)
(0.99859392 3.5207067e-08 0)
(0.99831368 4.832337e-08 0)
(0.99796084 6.6197675e-08 0)
(0.99752646 9.7137776e-08 0)
(0.99690828 1.3364716e-07 0)
(0.9961857 2.3271109e-07 0)
(0.9947513 3.082368e-07 0)
(0.99346046 7.6225808e-07 0)
(0.98839835 2.8896525e-07 -4.7620645e-21)
(0.99101235 0.00012335342 7.7740157e-18)
(0.0031519897 0.00012385631 0)
(0.0012293818 6.5113667e-08 -1.0329378e-20)
(0.0008764018 4.6423438e-08 3.4278333e-18)
(0.00071911265 5.3251714e-09 0)
(0.00062899126 3.2518521e-09 0)
(0.00056672235 2.2972772e-09 0)
(0.00052032056 1.7392052e-09 0)
(0.00048367873 1.3808538e-09 0)
(0.00045374857 1.1298375e-09 0)
(0.00042866791 9.4636543e-10 0)
(0.00040720148 8.0769697e-10 0)
(0.00038852602 6.9938458e-10 0)
(0.00037206944 6.1263603e-10 0)
(0.00035741334 5.4186953e-10 0)
(0.00034424098 4.8326424e-10 0)
(0.00033230841 4.3404896e-10 0)
(0.00032142622 3.9222535e-10 0)
(0.0003114424 3.5636405e-10 1.8354654e-25)
(0.00030223289 3.2529685e-10 0)
(0.00029369989 2.9817036e-10 0)
(0.00028575858 2.7435184e-10 0)
(0.00027833995 2.5328442e-10 0)
(0.00027138516 2.3455119e-10 0)
(0.0002648443 2.1780424e-10 0)
(0.00025867467 2.0275815e-10 0)
(0.00025283959 1.8918037e-10 0)
(0.00024730711 1.7688281e-10 0)
(0.00024204923 1.6570421e-10 0)
(0.00023704144 1.5550787e-10 0)
(0.0002322621 1.4617708e-10 0)
(0.00022769213 1.3760957e-10 0)
(0.00022331468 1.2972163e-10 0)
(0.00021911456 1.2244359e-10 0)
(0.00021507812 1.1571189e-10 0)
(0.00021119311 1.0947051e-10 0)
(0.0002074485 1.0367206e-10 0)
(0.00020383425 9.8273491e-11 0)
(0.00020034135 9.3235418e-11 0)
(0.00019696164 8.8526066e-11 0)
(0.00019368758 8.4118522e-11 0)
(0.00019051222 7.9986546e-11 0)
(0.00018742923 7.6106403e-11 0)
(0.00018443279 7.2457614e-11 0)
(0.00018151752 6.9022028e-11 0)
(0.00017867844 6.5781928e-11 0)
(0.00017591102 6.272091e-11 0)
(0.00017321111 5.9826799e-11 0)
(0.00017057469 5.7088773e-11 0)
(0.00016799806 5.449506e-11 0)
(0.00016547777 5.2035187e-11 0)
(0.00016301061 4.9700007e-11 0)
(0.00016059356 4.7481252e-11 0)
(0.00015822376 4.5371319e-11 0)
(0.00015589856 4.3361624e-11 0)
(0.00015361556 4.1445651e-11 0)
(0.00015137242 3.9619463e-11 0)
(0.00014916682 3.7877465e-11 0)
(0.00014699665 3.6213861e-11 0)
(0.00014485989 3.4624174e-11 0)
(0.00014275464 3.3104178e-11 0)
(0.00014067906 3.1650008e-11 0)
(0.00013863138 3.0257554e-11 0)
(0.00013660999 2.8922748e-11 0)
(0.00013461336 2.7643076e-11 0)
(0.0001326399 2.6416322e-11 0)
(0.00013068812 2.5239388e-11 0)
(0.00012875659 2.4109539e-11 0)
(0.00012684392 2.3024461e-11 0)
(0.00012494876 2.1982002e-11 0)
(0.00012306979 2.0980132e-11 0)
(0.00012120572 2.0016293e-11 0)
(0.0001193554 1.9088709e-11 0)
(0.00011751758 1.8196466e-11 0)
(0.00011569101 1.7337854e-11 0)
(0.0001138745 1.6511144e-11 0)
(0.00011206685 1.5715008e-11 0)
(0.0001102669 1.4948184e-11 0)
(0.00010847342 1.4209448e-11 0)
(0.00010668525 1.3497328e-11 0)
(0.00010490123 1.2810808e-11 0)
(0.00010312016 1.2149266e-11 0)
(0.00010134076 1.1511692e-11 0)
(9.9561767e-05 1.0897095e-11 0)
(9.7781875e-05 1.0304761e-11 0)
(9.5999702e-05 9.7339013e-12 0)
(9.4213842e-05 9.1836241e-12 0)
(9.242285e-05 8.6546452e-12 0)
(9.0624584e-05 8.1428352e-12 0)
(8.8818956e-05 7.6469881e-12 0)
(8.7044678e-05 7.1835336e-12 0)
(8.535473e-05 6.7664933e-12 0)
(8.3760194e-05 6.3897117e-12 0)
(8.2253183e-05 6.0432773e-12 0)
(8.0826838e-05 5.7252959e-12 0)
(7.9474205e-05 5.4345636e-12 0)
(7.8189011e-05 5.1683804e-12 0)
(7.6965609e-05 4.9243987e-12 0)
(7.5798868e-05 4.7005847e-12 0)
(7.4684128e-05 4.4950387e-12 0)
(7.3617181e-05 4.3062005e-12 0)
(7.2594124e-05 4.1330404e-12 0)
(7.1611249e-05 3.9747967e-12 0)
(7.0665026e-05 3.831197e-12 0)
(6.9751878e-05 3.7020696e-12 0)
(6.8868361e-05 3.5893337e-12 0)
(6.8009963e-05 3.4925954e-12 0)
(6.7173446e-05 3.4238757e-12 0)
(6.6348433e-05 3.3660077e-12 0)
(6.554013e-05 3.4151812e-12 0)
(6.4691128e-05 1.3803758e-11 0)
(6.3940275e-05 3.7256561e-12 2.598553e-24)
(6.2867842e-05 9.3130915e-12 0)
(1 1.1037298e-09 0)
(0.99997242 2.9254223e-09 0)
(0.99993229 4.1119096e-09 0)
(0.99988784 5.2905713e-09 0)
(0.9998365 6.9294923e-09 0)
(0.9997772 9.0313185e-09 0)
(0.99970926 1.1723375e-08 0)
(0.99963142 1.5232902e-08 0)
(0.99954195 1.9843509e-08 0)
(0.99943874 2.5925807e-08 0)
(0.99931912 3.3987064e-08 0)
(0.99917976 4.4759871e-08 0)
(0.99901616 5.9245776e-08 0)
(0.99882265 7.9106709e-08 0)
(0.99859026 1.0628458e-07 0)
(0.99830935 1.4587656e-07 0)
(0.99795567 1.9982886e-07 0)
(0.99752029 2.9321602e-07 0)
(0.99690074 4.0340839e-07 0)
(0.9961766 7.023882e-07 0)
(0.99473926 9.3033486e-07 0)
(0.99344575 2.3006058e-06 0)
(0.98837364 8.7092346e-07 1.702513e-20)
(0.99098913 0.00037074632 -6.5827707e-21)
(0.0094669671 0.00037275062 0)
(0.003706317 1.2103157e-06 0)
(0.0026422586 2.6510896e-07 2.1826241e-22)
(0.0021681024 1.2683845e-07 0)
(0.0018963732 7.7421361e-08 0)
(0.0017086311 5.470224e-08 0)
(0.0015687266 4.1410339e-08 0)
(0.0014582515 3.2878015e-08 0)
(0.0013680118 2.6900978e-08 0)
(0.0012923939 2.2532389e-08 0)
(0.0012276732 1.9230723e-08 0)
(0.0011713676 1.6652136e-08 0)
(0.0011217519 1.4586672e-08 0)
(0.0010775646 1.2901536e-08 0)
(0.0010378508 1.1506006e-08 0)
(0.001001875 1.0334118e-08 0)
(0.000969066 9.3382527e-09 0)
(0.0009389655 8.4843636e-09 -2.7152706e-25)
(0.00091119965 7.7446361e-09 -3.52277e-25)
(0.00088547332 7.0987499e-09 0)
(0.00086153094 6.5316433e-09 0)
(0.00083916439 6.0300357e-09 0)
(0.00081819627 5.5840095e-09 0)
(0.00079847615 5.1852778e-09 0)
(0.00077987522 4.8270465e-09 0)
(0.00076228296 4.503777e-09 0)
(0.00074560301 4.210988e-09 0)
(0.00072975095 3.9448423e-09 0)
(0.00071465292 3.7020837e-09 0)
(0.00070024362 3.4799333e-09 0)
(0.00068646555 3.2759578e-09 0)
(0.00067326792 3.0881624e-09 0)
(0.00066060493 2.9148877e-09 0)
(0.00064843539 2.7546208e-09 0)
(0.00063672243 2.6060283e-09 0)
(0.00062543275 2.4679813e-09 0)
(0.0006145361 2.339455e-09 0)
(0.00060400529 2.2195125e-09 0)
(0.00059381576 2.1073964e-09 0)
(0.00058394474 2.0024653e-09 0)
(0.00057437129 1.9040953e-09 0)
(0.00056507634 1.811721e-09 0)
(0.00055604232 1.724855e-09 0)
(0.00054725304 1.6430648e-09 0)
(0.00053869344 1.5659289e-09 0)
(0.00053034991 1.4930572e-09 0)
(0.00052220989 1.4241589e-09 0)
(0.00051426132 1.3589765e-09 0)
(0.00050649298 1.2972299e-09 0)
(0.00049889453 1.2386699e-09 0)
(0.00049145623 1.1830784e-09 0)
(0.00048416901 1.1302589e-09 0)
(0.00047702427 1.08003e-09 0)
(0.00047001396 1.0321878e-09 0)
(0.00046313092 9.8657721e-10 0)
(0.00045636803 9.4310363e-10 0)
(0.00044971831 9.0163453e-10 0)
(0.00044317541 8.6203184e-10 0)
(0.00043673328 8.2418884e-10 0)
(0.00043038611 7.8800505e-10 0)
(0.00042412839 7.5338833e-10 0)
(0.00041795481 7.2024089e-10 0)
(0.00041186047 6.8846609e-10 0)
(0.00040584077 6.5800376e-10 0)
(0.00039989097 6.288011e-10 0)
(0.00039400649 6.0078456e-10 0)
(0.00038818308 5.7388896e-10 0)
(0.00038241652 5.4805919e-10 0)
(0.00037670277 5.2324403e-10 0)
(0.00037103781 4.9939509e-10 0)
(0.00036541779 4.7645161e-10 0)
(0.0003598392 4.5437127e-10 0)
(0.00035429832 4.3313212e-10 0)
(0.00034879134 4.1269365e-10 0)
(0.0003433147 3.930146e-10 0)
(0.00033786479 3.7406339e-10 0)
(0.00033243806 3.5580998e-10 0)
(0.00032703087 3.3822514e-10 0)
(0.00032163965 3.2127394e-10 0)
(0.00031626099 3.0493221e-10 0)
(0.00031089119 2.8918497e-10 0)
(0.00030552642 2.7400833e-10 0)
(0.00030016289 2.593786e-10 0)
(0.00029479665 2.4527883e-10 0)
(0.00028942353 2.3169017e-10 0)
(0.00028403929 2.1859147e-10 0)
(0.00027863958 2.0599964e-10 0)
(0.00027321794 1.9381623e-10 0)
(0.00026777411 1.8201408e-10 0)
(0.00026242478 1.7098258e-10 0)
(0.0002573297 1.6105393e-10 0)
(0.00025252229 1.5208373e-10 0)
(0.00024797876 1.4383646e-10 0)
(0.00024367843 1.362666e-10 0)
(0.00023960034 1.2934537e-10 0)
(0.00023572556 1.2300856e-10 0)
(0.00023203709 1.1720027e-10 0)
(0.00022851944 1.1187207e-10 0)
(0.00022515858 1.0697873e-10 0)
(0.0002219418 1.0248309e-10 0)
(0.00021885736 9.8360606e-11 0)
(0.00021589406 9.4593099e-11 0)
(0.00021304126 9.117406e-11 0)
(0.00021028819 8.8099306e-11 0)
(0.00020762445 8.5414579e-11 0)
(0.00020503645 8.3109959e-11 0)
(0.00020251443 8.1472738e-11 0)
(0.00020002711 8.0089806e-11 0)
(0.00019759017 8.1264089e-11 0)
(0.00019503062 7.8800406e-11 0)
(0.00019276683 8.9290933e-11 -4.0193662e-24)
(0.00018953349 5.3000215e-11 2.6561616e-25)
(1 1.860375e-09 0)
(0.99997233 4.9312956e-09 0)
(0.99993207 6.9318554e-09 0)
(0.99988746 8.9189375e-09 0)
(0.99983593 1.1681777e-08 0)
(0.99977643 1.52249e-08 0)
(0.99970825 1.976289e-08 0)
(0.99963014 2.5678744e-08 0)
(0.99954036 3.3450458e-08 0)
(0.9994368 4.3702642e-08 0)
(0.99931678 5.7290193e-08 0)
(0.99917696 7.5447715e-08 0)
(0.99901283 9.9863017e-08 0)
(0.9988187 1.3333675e-07 0)
(0.99858558 1.7914115e-07 0)
(0.99830381 2.4586559e-07 0)
(0.99794908 3.367883e-07 0)
(0.99751243 4.9416237e-07 0)
(0.99689112 6.7984805e-07 0)
(0.99616499 1.183635e-06 0)
(0.99472391 1.5677404e-06 0)
(0.99342702 3.8766817e-06 0)
(0.98834225 1.4691198e-06 -9.0201431e-21)
(0.99095961 0.00062188528 5.3821076e-55)
(0.015885669 0.0006264633 -5.3813033e-55)
(0.0062383224 3.4350109e-06 0)
(0.0044474806 7.7145879e-07 -1.1329698e-22)
(0.0036494485 3.7141574e-07 0)
(0.0031920403 2.2672224e-07 0)
(0.0028760191 1.6019036e-07 0)
(0.0026405195 1.2126565e-07 0)
(0.0024545607 9.6278874e-08 0)
(0.0023026638 7.8775817e-08 0)
(0.0021753796 6.5982687e-08 0)
(0.0020664386 5.6313992e-08 0)
(0.0019716626 4.8762843e-08 0)
(0.0018881476 4.2714396e-08 0)
(0.0018137701 3.7779723e-08 0)
(0.0017469226 3.3693127e-08 0)
(0.001686367 3.0261443e-08 0)
(0.001631142 2.7345237e-08 0)
(0.001580476 2.4844761e-08 0)
(0.0015337399 2.26786e-08 0)
(0.0014904366 2.078726e-08 0)
(0.0014501362 1.9126592e-08 0)
(0.0014124883 1.7657731e-08 0)
(0.0013771942 1.6351632e-08 0)
(0.0013440008 1.5184025e-08 0)
(0.0013126913 1.4135016e-08 0)
(0.0012830795 1.3188387e-08 0)
(0.0012550034 1.2331014e-08 0)
(0.0012283209 1.1551661e-08 0)
(0.0012029075 1.0840792e-08 0)
(0.0011786534 1.019027e-08 0)
(0.0011554618 9.59297e-09 0)
(0.0011332472 9.0430505e-09 0)
(0.0011119325 8.5356513e-09 0)
(0.0010914484 8.0663429e-09 0)
(0.0010717329 7.6312207e-09 0)
(0.0010527298 7.2269784e-09 0)
(0.0010343882 6.8506159e-09 0)
(0.0010166625 6.4993893e-09 0)
(0.00099951122 6.1710806e-09 0)
(0.00098289605 5.8638118e-09 0)
(0.00096678175 5.5757557e-09 0)
(0.00095113622 5.3052568e-09 0)
(0.00093592992 5.0508876e-09 0)
(0.00092113554 4.811382e-09 0)
(0.00090672778 4.5855054e-09 0)
(0.00089268371 4.3721158e-09 0)
(0.00087898219 4.1703617e-09 0)
(0.00086560293 3.9794883e-09 0)
(0.00085252703 3.7986763e-09 0)
(0.00083973708 3.6271953e-09 0)
(0.00082721671 3.4644072e-09 0)
(0.00081495065 3.3097362e-09 0)
(0.0008029244 3.162651e-09 0)
(0.00079112442 3.0225551e-09 0)
(0.00077953867 2.8889938e-09 0)
(0.00076815517 2.7616904e-09 0)
(0.00075696216 2.6402566e-09 0)
(0.00074594894 2.5242882e-09 0)
(0.00073510533 2.4134727e-09 0)
(0.00072442157 2.3075158e-09 0)
(0.00071388838 2.2061478e-09 0)
(0.0007034968 2.1090822e-09 0)
(0.00069323861 2.0160362e-09 0)
(0.00068310605 1.9268335e-09 0)
(0.00067309115 1.8413194e-09 0)
(0.00066318621 1.7592786e-09 0)
(0.00065338404 1.6805203e-09 0)
(0.00064367757 1.604883e-09 0)
(0.00063405999 1.5322168e-09 0)
(0.00062452454 1.4623799e-09 0)
(0.00061506473 1.3951946e-09 0)
(0.00060567465 1.3305367e-09 0)
(0.00059634805 1.2683421e-09 0)
(0.00058707852 1.2084921e-09 0)
(0.00057786004 1.150866e-09 0)
(0.00056868656 1.0953711e-09 0)
(0.00055955209 1.0419197e-09 0)
(0.00055045052 9.9042596e-10 0)
(0.00054137583 9.4078774e-10 0)
(0.00053232227 8.9293424e-10 0)
(0.00052328363 8.4682157e-10 0)
(0.00051425346 8.0237977e-10 0)
(0.00050522537 7.5953952e-10 0)
(0.00049619272 7.1825111e-10 0)
(0.00048714848 6.784594e-10 0)
(0.00047808554 6.4010245e-10 0)
(0.00046899655 6.0322974e-10 0)
(0.00045987065 5.6755301e-10 0)
(0.00045070738 5.3299314e-10 0)
(0.00044170318 5.0068984e-10 0)
(0.00043312694 4.7161548e-10 0)
(0.00042503491 4.453478e-10 0)
(0.00041738706 4.2119731e-10 0)
(0.00041014858 3.9903057e-10 0)
(0.00040328416 3.7876317e-10 0)
(0.00039676198 3.6020711e-10 0)
(0.00039055338 3.4319869e-10 0)
(0.00038463233 3.275961e-10 0)
(0.00037897517 3.1326688e-10 0)
(0.00037356055 3.0010224e-10 0)
(0.00036836868 2.8803028e-10 0)
(0.00036338072 2.7699777e-10 0)
(0.00035857876 2.6698562e-10 0)
(0.00035394467 2.5798157e-10 0)
(0.00034946096 2.5011954e-10 0)
(0.00034510474 2.4337042e-10 0)
(0.00034085958 2.3857541e-10 0)
(0.00033667285 2.345247e-10 0)
(0.00033257092 2.3796126e-10 0)
(0.00032826276 2.2931307e-10 0)
(0.00032445219 2.6158366e-10 0)
(0.00031900966 1.5406695e-10 0)
(1 2.6475661e-09 8.7538939e-25)
(0.99997223 7.0187416e-09 0)
(0.99993179 9.8670869e-09 0)
(0.99988698 1.2695747e-08 0)
(0.99983523 1.6628393e-08 0)
(0.99977547 2.1671589e-08 0)
(0.999707 2.8130667e-08 0)
(0.99962855 3.6550656e-08 0)
(0.9995384 4.7611764e-08 0)
(0.9994344 6.2202794e-08 0)
(0.99931388 8.1540197e-08 0)
(0.99917349 1.0738067e-07 0)
(0.99900871 1.4212566e-07 0)
(0.99881382 1.8975996e-07 0)
(0.9985798 2.5493884e-07 0)
(0.99829696 3.4988296e-07 0)
(0.99794092 4.7925377e-07 0)
(0.9975027 7.031659e-07 0)
(0.99687923 9.6734514e-07 0)
(0.99615065 1.6840528e-06 0)
(0.99470497 2.2305119e-06 0)
(0.99340391 5.515295e-06 0)
(0.98830358 2.0924682e-06 0)
(0.99092321 0.00088048174 -2.8079134e-55)
(0.022500638 0.00088884936 2.8074963e-55)
(0.0088631048 7.0901959e-06 0)
(0.0063189623 1.5933452e-06 0)
(0.0051852256 7.6594101e-07 0)
(0.0045352987 4.6757477e-07 0)
(0.0040862806 3.3036249e-07 0)
(0.0037516685 2.5008686e-07 0)
(0.0034874508 1.9855521e-07 0)
(0.0032716298 1.6245855e-07 0)
(0.0030907801 1.3607498e-07 0)
(0.0029359938 1.1613499e-07 0)
(0.0028013339 1.0056218e-07 0)
(0.0026826742 8.8088498e-08 0)
(0.0025769975 7.7911784e-08 0)
(0.0024820196 6.9484065e-08 0)
(0.0023959814 6.240698e-08 0)
(0.002317517 5.6392988e-08 0)
(0.0022455301 5.1236307e-08 0)
(0.002179127 4.6769099e-08 0)
(0.0021176012 4.2868685e-08 0)
(0.002060342 3.9443941e-08 0)
(0.0020068514 3.6414768e-08 0)
(0.0019567052 3.3721251e-08 0)
(0.0019095437 3.1313344e-08 0)
(0.0018650588 2.9150019e-08 0)
(0.0018229861 2.7197828e-08 0)
(0.0017830953 2.5429706e-08 0)
(0.0017451844 2.382248e-08 0)
(0.0017090767 2.2356486e-08 0)
(0.0016746162 2.1014945e-08 0)
(0.0016416653 1.978316e-08 0)
(0.0016101026 1.8649086e-08 0)
(0.0015798184 1.76027e-08 0)
(0.0015507144 1.6634867e-08 0)
(0.0015227022 1.5737534e-08 0)
(0.0014957024 1.4903884e-08 0)
(0.0014696425 1.4127729e-08 0)
(0.0014444575 1.3403411e-08 0)
(0.0014200887 1.2726355e-08 0)
(0.0013964816 1.2092689e-08 0)
(0.0013735862 1.1498644e-08 0)
(0.0013513567 1.0940806e-08 0)
(0.0013297514 1.0416232e-08 0)
(0.0013087313 9.9223107e-09 0)
(0.0012882605 9.4564957e-09 0)
(0.0012683065 9.0164322e-09 0)
(0.0012488391 8.600364e-09 0)
(0.0012298296 8.2067343e-09 0)
(0.0012112511 7.8338539e-09 0)
(0.0011930789 7.4802163e-09 0)
(0.0011752898 7.1445055e-09 0)
(0.0011578619 6.8255343e-09 0)
(0.0011407748 6.522207e-09 0)
(0.0011240091 6.2332934e-09 0)
(0.0011075479 5.9578561e-09 0)
(0.001091374 5.6953236e-09 0)
(0.0010754707 5.4448959e-09 0)
(0.0010598229 5.2057393e-09 0)
(0.0010444161 4.9772093e-09 0)
(0.0010292364 4.7586989e-09 0)
(0.0010142706 4.5496519e-09 0)
(0.000999506 4.3494776e-09 0)
(0.00098493094 4.1575929e-09 0)
(0.00097053437 3.9736339e-09 0)
(0.00095630497 3.7972817e-09 0)
(0.00094223181 3.6280924e-09 0)
(0.00092830466 3.4656723e-09 0)
(0.00091451348 3.3096886e-09 0)
(0.0009008486 3.1598321e-09 0)
(0.00088730042 3.0158103e-09 0)
(0.00087385969 2.8772567e-09 0)
(0.00086051804 2.7439156e-09 0)
(0.00084726658 2.6156541e-09 0)
(0.0008340962 2.4922279e-09 0)
(0.00082099836 2.3733877e-09 0)
(0.00080796446 2.2589429e-09 0)
(0.00079498596 2.1487121e-09 0)
(0.00078205422 2.0425186e-09 0)
(0.00076916067 1.9401517e-09 0)
(0.00075629714 1.8414653e-09 0)
(0.00074345481 1.7463689e-09 0)
(0.00073062451 1.6547183e-09 0)
(0.00071779716 1.5663705e-09 0)
(0.00070496332 1.481223e-09 0)
(0.00069211304 1.3991621e-09 0)
(0.00067923616 1.32006e-09 0)
(0.00066632227 1.2440188e-09 0)
(0.00065335594 1.1704441e-09 0)
(0.00064033651 1.0991732e-09 0)
(0.00062754307 1.0325557e-09 0)
(0.00061535769 9.725964e-10 0)
(0.00060386029 9.1842527e-10 0)
(0.00059299399 8.6862097e-10 0)
(0.00058270931 8.2290729e-10 0)
(0.00057295612 7.8111071e-10 0)
(0.00056368918 7.4284334e-10 0)
(0.00055486779 7.0776757e-10 0)
(0.00054645494 6.7559095e-10 0)
(0.00053841704 6.4604032e-10 0)
(0.00053072375 6.1889132e-10 0)
(0.00052334693 5.9399568e-10 0)
(0.00051625984 5.7124356e-10 0)
(0.00050943704 5.5059564e-10 0)
(0.00050285274 5.3202657e-10 0)
(0.00049648211 5.1581247e-10 0)
(0.00049029264 5.0189326e-10 0)
(0.00048426097 4.9200338e-10 0)
(0.00047831236 4.8364841e-10 0)
(0.0004724842 4.9073101e-10 0)
(0.00046636328 4.7363579e-10 0)
(0.00046094898 5.39574e-10 0)
(0.00045321596 3.180451e-10 0)
(1 3.4778409e-09 0)
(0.9999721 9.2211537e-09 0)
(0.99993145 1.2964754e-08 0)
(0.99988641 1.6681705e-08 0)
(0.99983438 2.184882e-08 0)
(0.9997743 2.8474913e-08 0)
(0.99970547 3.6961e-08 0)
(0.99962662 4.8022985e-08 0)
(0.99953601 6.2554323e-08 0)
(0.99943148 8.172239e-08 0)
(0.99931037 1.0712484e-07 0)
(0.99916929 1.4106879e-07 0)
(0.99900371 1.8670796e-07 0)
(0.99880789 2.4927533e-07 0)
(0.99857279 3.3488375e-07 0)
(0.99828866 4.5958124e-07 0)
(0.99793104 6.294851e-07 0)
(0.99749091 9.2353531e-07 0)
(0.99686483 1.2704429e-06 0)
(0.99613328 2.2115253e-06 0)
(0.99468205 2.9290795e-06 0)
(0.99337595 7.2421879e-06 0)
(0.98825685 2.7511434e-06 0)
(0.99087919 0.0011501939 0)
(0.029405502 0.0011636517 0)
(0.011619746 1.2325567e-05 0)
(0.0082845842 2.7637528e-06 0)
(0.0067983212 1.3282029e-06 0)
(0.0059461649 8.1085702e-07 0)
(0.0053574493 5.7290248e-07 0)
(0.0049187297 4.3369055e-07 0)
(0.0045723111 3.4432432e-07 0)
(0.0042893466 2.8172692e-07 0)
(0.0040522336 2.3597328e-07 0)
(0.0038492935 2.0139388e-07 0)
(0.0036727418 1.743881e-07 0)
(0.0035171682 1.5275686e-07 0)
(0.0033786166 1.3510897e-07 0)
(0.0032540923 1.2049412e-07 0)
(0.0031412889 1.0822148e-07 0)
(0.0030384155 9.7792459e-08 0)
(0.0029440344 8.8850054e-08 0)
(0.0028569746 8.110333e-08 0)
(0.002776309 7.4339575e-08 0)
(0.0027012373 6.8400623e-08 0)
(0.0026311067 6.3147662e-08 0)
(0.0025653609 5.8476773e-08 0)
(0.0025035282 5.4301168e-08 0)
(0.0024452047 5.0549701e-08 0)
(0.0023900438 4.7164367e-08 0)
(0.0023377435 4.409823e-08 0)
(0.0022880391 4.1311107e-08 0)
(0.0022406989 3.8768898e-08 0)
(0.0021955182 3.6442504e-08 0)
(0.0021523167 3.4306442e-08 0)
(0.0021109352 3.2339823e-08 0)
(0.00207123 3.0525265e-08 0)
(0.002033072 2.8846926e-08 0)
(0.0019963456 2.7290844e-08 0)
(0.0019609465 2.5845194e-08 0)
(0.0019267796 2.4499247e-08 0)
(0.0018937598 2.3243193e-08 0)
(0.0018618101 2.2069098e-08 0)
(0.0018308591 2.0970244e-08 0)
(0.0018008411 1.9940098e-08 0)
(0.0017716963 1.897274e-08 0)
(0.0017433697 1.8063065e-08 0)
(0.0017158104 1.7206545e-08 0)
(0.0016889713 1.6398765e-08 0)
(0.0016628097 1.5635642e-08 0)
(0.0016372862 1.4914129e-08 0)
(0.0016123629 1.4231527e-08 0)
(0.0015880048 1.3584907e-08 0)
(0.0015641793 1.2971655e-08 0)
(0.001540856 1.2389492e-08 0)
(0.0015180064 1.1836356e-08 0)
(0.0014956036 1.1310349e-08 0)
(0.0014736222 1.0809337e-08 0)
(0.0014520399 1.0331695e-08 0)
(0.0014308344 9.8764306e-09 0)
(0.0014099836 9.4421576e-09 0)
(0.0013894678 9.0274301e-09 0)
(0.001369268 8.6311303e-09 0)
(0.0013493659 8.2522058e-09 0)
(0.0013297443 7.8896918e-09 0)
(0.0013103864 7.5425643e-09 0)
(0.0012912771 7.2098119e-09 0)
(0.0012724017 6.8908037e-09 0)
(0.0012537456 6.5849866e-09 0)
(0.0012352942 6.2915907e-09 0)
(0.0012170344 6.0099335e-09 0)
(0.0011989527 5.7394378e-09 0)
(0.0011810367 5.4795673e-09 0)
(0.0011632737 5.2298149e-09 0)
(0.0011456515 4.9895451e-09 0)
(0.0011281592 4.7583144e-09 0)
(0.0011107852 4.5358924e-09 0)
(0.0010935175 4.3218553e-09 0)
(0.0010763449 4.115771e-09 0)
(0.0010592561 3.9173088e-09 0)
(0.0010422399 3.7261541e-09 0)
(0.0010252851 3.5420007e-09 0)
(0.0010083803 3.3644831e-09 0)
(0.00099151489 3.193348e-09 0)
(0.00097467725 3.0284384e-09 0)
(0.00095785539 2.8695042e-09 0)
(0.00094103739 2.7162975e-09 0)
(0.00092421088 2.5686405e-09 0)
(0.0009073628 2.4263361e-09 0)
(0.00089047986 2.2891627e-09 0)
(0.00087354838 2.1572972e-09 0)
(0.00085654813 2.029709e-09 0)
(0.00083947826 1.9061168e-09 0)
(0.00082270466 1.7905942e-09 0)
(0.00080672829 1.6866163e-09 0)
(0.00079165394 1.5926761e-09 0)
(0.00077740701 1.5063092e-09 0)
(0.00076392265 1.4270361e-09 0)
(0.0007511351 1.3545557e-09 0)
(0.00073898508 1.2881953e-09 0)
(0.00072741921 1.2273695e-09 0)
(0.00071638897 1.1715711e-09 0)
(0.00070585034 1.1203265e-09 0)
(0.00069576351 1.0732465e-09 0)
(0.00068609161 1.0300741e-09 0)
(0.00067679957 9.906187e-10 0)
(0.00066785405 9.5481213e-10 0)
(0.00065922123 9.2261041e-10 0)
(0.00065086855 8.9449222e-10 0)
(0.00064275341 8.7035338e-10 0)
(0.00063484517 8.5320082e-10 0)
(0.00062704589 8.3871054e-10 0)
(0.0006194045 8.5098361e-10 0)
(0.00061137957 8.2160387e-10 0)
(0.00060428062 9.358208e-10 -5.1778408e-24)
(0.00059414159 5.5153654e-10 3.4219747e-25)
(1 4.3647025e-09 0)
(0.99997195 1.1574583e-08 0)
(0.99993104 1.6275834e-08 0)
(0.99988572 2.0942456e-08 0)
(0.99983336 2.7428995e-08 0)
(0.99977291 3.5746797e-08 0)
(0.99970365 4.6399038e-08 0)
(0.99962431 6.0284118e-08 0)
(0.99953315 7.8523222e-08 0)
(0.99942799 1.0258119e-07 0)
(0.99930616 1.3446267e-07 0)
(0.99916426 1.7706239e-07 0)
(0.99899773 2.3433707e-07 0)
(0.9988008 3.1285202e-07 0)
(0.99856439 4.2027537e-07 0)
(0.99827873 5.7674007e-07 0)
(0.99791921 7.8991445e-07 0)
(0.99747681 1.158829e-06 0)
(0.9968476 1.5940243e-06 0)
(0.99611252 2.7745157e-06 0)
(0.99465465 3.6746396e-06 0)
(0.99334254 9.0849586e-06 0)
(0.98820109 3.4562861e-06 0)
(0.99082667 0.0014347275 0)
(0.036696075 0.0014548634 0)
(0.014549284 1.9319519e-05 0)
(0.010373629 4.3509389e-06 0)
(0.0085127777 2.0911124e-06 0)
(0.007445664 1.2766853e-06 0)
(0.0067084676 9.0202073e-07 0)
(0.0061590928 6.828339e-07 0)
(0.0057253057 5.4212579e-07 0)
(0.005370977 4.4356783e-07 0)
(0.0050740644 3.7152957e-07 0)
(0.0048199442 3.1708481e-07 0)
(0.0045988682 2.7456489e-07 0)
(0.0044040613 2.4050729e-07 0)
(0.0042305693 2.1272143e-07 0)
(0.0040746422 1.8971101e-07 0)
(0.003933392 1.7038834e-07 0)
(0.003804576 1.5396846e-07 0)
(0.0036863937 1.3988905e-07 7.3570839e-25)
(0.0035773794 1.2769225e-07 0)
(0.0034763716 1.1704321e-07 -6.7638574e-35)
(0.0033823684 1.0769265e-07 0)
(0.0032945522 9.9422182e-08 0)
(0.0032122266 9.2068154e-08 0)
(0.0031348009 8.5493923e-08 0)
(0.0030617693 7.9587474e-08 0)
(0.0029926979 7.4257481e-08 0)
(0.0029272085 6.9430043e-08 0)
(0.0028649695 6.5041894e-08 0)
(0.0028056909 6.1039347e-08 0)
(0.0027491164 5.7376586e-08 0)
(0.0026950202 5.4013493e-08 0)
(0.0026432029 5.0917178e-08 0)
(0.0025934847 4.8060271e-08 0)
(0.0025457039 4.5417832e-08 0)
(0.0024997156 4.2967879e-08 0)
(0.0024553892 4.0691794e-08 0)
(0.0024126059 3.8572685e-08 0)
(0.002371259 3.6595107e-08 0)
(0.0023312519 3.4746567e-08 0)
(0.0022924954 3.301649e-08 0)
(0.0022549072 3.1394589e-08 0)
(0.0022184124 2.9871544e-08 0)
(0.0021829421 2.8439316e-08 0)
(0.0021484326 2.7090777e-08 0)
(0.002114825 2.5818976e-08 0)
(0.0020820656 2.4617485e-08 0)
(0.0020501053 2.3481506e-08 0)
(0.0020188966 2.240679e-08 0)
(0.0019883955 2.1388725e-08 0)
(0.0019585614 2.0423197e-08 0)
(0.0019293561 1.9506614e-08 0)
(0.001900744 1.8635734e-08 0)
(0.0018726912 1.7807566e-08 0)
(0.0018451663 1.7018751e-08 0)
(0.001818141 1.6266731e-08 0)
(0.0017915875 1.5549944e-08 0)
(0.0017654783 1.4866205e-08 0)
(0.0017397885 1.421324e-08 0)
(0.0017144943 1.3589288e-08 0)
(0.0016895729 1.2992692e-08 0)
(0.0016650027 1.2421933e-08 0)
(0.0016407629 1.18754e-08 0)
(0.0016168342 1.1351499e-08 0)
(0.0015931985 1.0849238e-08 0)
(0.0015698373 1.0367746e-08 0)
(0.0015467325 9.9058092e-09 0)
(0.0015238675 9.4623547e-09 0)
(0.0015012256 9.0364733e-09 0)
(0.0014787912 8.6273206e-09 0)
(0.0014565483 8.2340984e-09 0)
(0.0014344818 7.855806e-09 0)
(0.0014125779 7.4917452e-09 0)
(0.0013908221 7.1415529e-09 0)
(0.0013691994 6.8045622e-09 0)
(0.0013476958 6.4800928e-09 0)
(0.0013262972 6.1676239e-09 0)
(0.0013049895 5.8666603e-09 0)
(0.0012837586 5.5767199e-09 0)
(0.0012625904 5.2972271e-09 0)
(0.0012414714 5.0277834e-09 0)
(0.0012203872 4.7681412e-09 0)
(0.0011993228 4.517907e-09 0)
(0.0011782632 4.2766905e-09 0)
(0.0011571929 4.0442117e-09 0)
(0.0011360957 3.8201602e-09 0)
(0.0011149547 3.6041875e-09 0)
(0.001093753 3.3965713e-09 0)
(0.0010724652 3.1956901e-09 0)
(0.0010510901 3.0011019e-09 0)
(0.0010300861 2.8192182e-09 0)
(0.0010100803 2.6555096e-09 0)
(0.00099120398 2.5076049e-09 0)
(0.00097336379 2.3716248e-09 0)
(0.00095647847 2.2468143e-09 0)
(0.00094046569 2.132698e-09 0)
(0.00092525121 2.0282174e-09 0)
(0.0009107682 1.9324505e-09 0)
(0.0008969559 1.844599e-09 0)
(0.00088375919 1.7639169e-09 0)
(0.00087112821 1.6897919e-09 0)
(0.00085901682 1.6218189e-09 0)
(0.00084738109 1.5596981e-09 0)
(0.00083617926 1.5033219e-09 0)
(0.000825369 1.4526211e-09 0)
(0.00081490955 1.4083492e-09 0)
(0.00080474755 1.3703422e-09 0)
(0.00079484465 1.3433327e-09 0)
(0.00078507824 1.3205164e-09 0)
(0.00077550952 1.3398236e-09 0)
(0.00076546095 1.2935485e-09 0)
(0.00075657123 1.4735464e-09 0)
(0.00074387474 8.6819038e-10 -1.953061e-25)
(1 5.322862e-09 0)
(0.99997176 1.4118395e-08 0)
(0.99993057 1.9856079e-08 0)
(0.9998849 2.5549811e-08 0)
(0.99983216 3.3462908e-08 0)
(0.99977126 4.3609634e-08 0)
(0.99970149 5.6603472e-08 0)
(0.99962158 7.3539955e-08 0)
(0.99952975 9.5786252e-08 0)
(0.99942385 1.2512845e-07 0)
(0.99930117 1.6401067e-07 0)
(0.99915829 2.159621e-07 0)
(0.99899063 2.8580629e-07 0)
(0.9987924 3.8154679e-07 0)
(0.99855444 5.1253002e-07 0)
(0.99826695 7.0329798e-07 0)
(0.99790519 9.6318955e-07 0)
(0.99746011 1.412918e-06 0)
(0.99682721 1.9433978e-06 0)
(0.99608793 3.3822143e-06 0)
(0.99462223 4.4793498e-06 0)
(0.99330302 1.1073535e-05 0)
(0.9881352 4.220127e-06 0)
(0.99076461 0.0017378952 0)
(0.044471412 0.0017666344 0)
(0.017695318 2.8536479e-05 0)
(0.012617217 6.4508174e-06 0)
(0.010354151 3.1005642e-06 0)
(0.0090561435 1.8931124e-06 0)
(0.0081594683 1.337534e-06 0)
(0.00749124 1.0125181e-06 0)
(0.0069636143 8.038683e-07 0)
(0.0065326367 6.5772474e-07 0)
(0.0061714963 5.5090457e-07 0)
(0.0058624067 4.7017226e-07 0)
(0.0055935103 4.0712291e-07 0)
(0.0053565657 3.5662202e-07 0)
(0.0051455468 3.1542107e-07 0)
(0.0049558925 2.8130122e-07 0)
(0.0047840898 2.5264962e-07 0)
(0.0046274109 2.2830246e-07 0)
(0.0044836657 2.0742552e-07 0)
(0.004351072 1.8934022e-07 0)
(0.0042282161 1.7355012e-07 7.2961954e-35)
(0.00411388 1.5968518e-07 0)
(0.0040070691 1.4742185e-07 0)
(0.0039069365 1.3651742e-07 0)
(0.0038127635 1.2676926e-07 0)
(0.0037239351 1.1801127e-07 0)
(0.0036399235 1.1010806e-07 0)
(0.0035602685 1.0295001e-07 0)
(0.003484567 9.6443345e-08 0)
(0.0034124663 9.0508437e-08 0)
(0.0033436545 8.5077358e-08 0)
(0.003277857 8.0090623e-08 0)
(0.0032148313 7.5499462e-08 0)
(0.0031543588 7.1263289e-08 0)
(0.0030962426 6.7345126e-08 0)
(0.0030403067 6.3712376e-08 0)
(0.0029863922 6.0337434e-08 0)
(0.0029343545 5.7195253e-08 0)
(0.0028840638 5.4262933e-08 0)
(0.0028354029 5.1521948e-08 0)
(0.0027882629 4.8956616e-08 0)
(0.002742544 4.6551685e-08 0)
(0.0026981549 4.4293336e-08 0)
(0.0026550119 4.2169649e-08 0)
(0.0026130376 4.0170053e-08 0)
(0.0025721601 3.8284244e-08 0)
(0.0025323145 3.6502689e-08 0)
(0.0024934406 3.4818275e-08 0)
(0.002455481 3.3224698e-08 0)
(0.0024183821 3.1715123e-08 0)
(0.0023820944 3.0283449e-08 0)
(0.0023465715 2.892435e-08 0)
(0.0023117701 2.7633018e-08 0)
(0.002277649 2.6405018e-08 0)
(0.0022441699 2.5235372e-08 0)
(0.0022112985 2.4120284e-08 0)
(0.0021790009 2.3057438e-08 0)
(0.0021472438 2.2043596e-08 0)
(0.0021159967 2.1075384e-08 0)
(0.0020852308 2.0150192e-08 0)
(0.0020549185 1.9265564e-08 0)
(0.0020250332 1.8419247e-08 0)
(0.0019955497 1.7608851e-08 0)
(0.0019664447 1.6832014e-08 0)
(0.0019376961 1.6087264e-08 0)
(0.0019092812 1.5373309e-08 0)
(0.0018811784 1.4688352e-08 0)
(0.0018533671 1.4030799e-08 0)
(0.0018258272 1.3399304e-08 0)
(0.0017985396 1.2792613e-08 0)
(0.001771485 1.2209544e-08 0)
(0.0017446449 1.1648613e-08 0)
(0.0017180027 1.1108785e-08 0)
(0.0016915405 1.058952e-08 0)
(0.0016652403 1.0089831e-08 0)
(0.0016390848 9.608708e-09 0)
(0.0016130571 9.1453793e-09 0)
(0.0015871399 8.6991105e-09 0)
(0.0015613162 8.2691868e-09 0)
(0.0015355686 7.854755e-09 0)
(0.001509881 7.4552238e-09 0)
(0.0014842357 7.0702262e-09 0)
(0.0014586144 6.6991788e-09 0)
(0.0014329989 6.3415027e-09 0)
(0.0014073705 5.9967829e-09 0)
(0.0013817092 5.6645591e-09 0)
(0.0013559948 5.3443145e-09 0)
(0.0013302065 5.0364609e-09 0)
(0.0013043134 4.7385943e-09 0)
(0.0012783142 4.4500612e-09 0)
(0.0012527661 4.180366e-09 0)
(0.0012284323 3.9376179e-09 0)
(0.0012054724 3.7183044e-09 0)
(0.0011837727 3.5166745e-09 0)
(0.0011632344 3.3316069e-09 0)
(0.0011437573 3.1623964e-09 0)