/*--------------------------------*- C++ -*----------------------------------*\
| =========                 |                                                 |
| \\      /  F ield         | OpenFOAM: The Open Source CFD Toolbox           |
|  \\    /   O peration     | Version:  2206                                  |
|   \\  /    A nd           | Website:  www.openfoam.com                      |
|    \\/     M anipulation  |                                                 |
\*---------------------------------------------------------------------------*/
FoamFile
{
    version     2.0;
    format      ascii;
    arch        "LSB;label=32;scalar=64";
    class       volScalarField;
    location    "200";
    object      epsilon;
}
// * * * * * * * * * * * * * * * * * * * * * * * * * * * * * * * * * * * * * //

dimensions      [0 2 -3 0 0 0 0];

internalField   nonuniform List<scalar> 
13056
(
0.0098746584
0.0098735514
0.0098732829
0.0098732467
0.0098732476
0.0098732559
0.0098732691
0.0098732866
0.0098733083
0.0098733339
0.0098733632
0.0098733963
0.0098734331
0.0098734739
0.0098735188
0.0098735682
0.0098736234
0.0098736859
0.0098737649
0.009873864
0.0098740808
0.0098743255
0.0098750503
0.013934716
1.6644201
0.13554361
1.0281383
1.0255329
1.0242584
1.0232641
1.022384
1.0217467
1.0213014
1.0209658
1.0206994
1.0204843
1.0203076
1.0201593
1.0200321
1.0199211
1.0198226
1.0197339
1.019653
1.0195781
1.0195081
1.0194421
1.0193792
1.0193188
1.0192605
1.0192039
1.0191486
1.0190943
1.019041
1.0189883
1.0189362
1.0188845
1.0188331
1.018782
1.0187311
1.0186804
1.0186298
1.0185792
1.0185287
1.0184783
1.0184278
1.0183774
1.0183271
1.0182767
1.0182264
1.0181761
1.0181258
1.0180756
1.0180254
1.0179754
1.0179254
1.0178755
1.0178258
1.0177761
1.0177267
1.0176774
1.0176283
1.0175795
1.0175308
1.0174825
1.0174344
1.0173866
1.0173392
1.017292
1.0172453
1.017199
1.017153
1.0171075
1.0170625
1.0170179
1.0169739
1.0169303
1.0168874
1.0168449
1.0168031
1.0167619
1.0167213
1.0166814
1.0166422
1.0166036
1.0165658
1.0165287
1.0164924
1.0164569
1.0164222
1.0163883
1.0163553
1.0163233
1.0162918
1.0162749
1.0162694
1.0162666
1.0162648
1.0162635
1.0162625
1.0162618
1.0162612
1.0162607
1.0162603
1.01626
1.0162597
1.0162595
1.0162593
1.0162591
1.016259
1.0162588
1.0162587
1.0162585
1.0162584
1.0162579
1.016258
1.0162573
0.009873607
0.0098724733
0.0098721965
0.0098721583
0.0098721586
0.0098721667
0.0098721798
0.0098721975
0.0098722193
0.0098722451
0.0098722747
0.0098723081
0.0098723453
0.0098723864
0.0098724315
0.0098724809
0.0098725357
0.0098725971
0.0098726729
0.0098727664
0.0098729625
0.0098731851
0.009873726
0.013930271
2.1414837
0.74791766
1.5228049
1.5213888
1.5205548
1.5198087
1.5191127
1.5186067
1.5182566
1.5179927
1.5177817
1.51761
1.517468
1.5173478
1.5172437
1.5171517
1.5170691
1.5169937
1.5169241
1.5168589
1.5167972
1.5167383
1.5166816
1.5166266
1.5165731
1.5165206
1.5164691
1.5164181
1.5163677
1.5163177
1.516268
1.5162185
1.5161692
1.51612
1.5160708
1.5160216
1.5159725
1.5159234
1.5158742
1.5158251
1.5157759
1.5157266
1.5156774
1.5156282
1.5155789
1.5155297
1.5154805
1.5154313
1.5153822
1.5153332
1.5152842
1.5152354
1.5151866
1.5151381
1.5150896
1.5150414
1.5149933
1.5149455
1.514898
1.5148507
1.5148036
1.5147569
1.5147106
1.5146645
1.5146189
1.5145737
1.5145288
1.5144844
1.5144405
1.5143971
1.5143541
1.5143117
1.5142699
1.5142286
1.5141879
1.5141478
1.5141083
1.5140695
1.5140314
1.513994
1.5139573
1.5139213
1.5138861
1.5138516
1.513818
1.5137852
1.5137532
1.5137222
1.5136917
1.5136761
1.5136715
1.5136693
1.5136679
1.5136669
1.5136662
1.5136656
1.5136652
1.5136648
1.5136646
1.5136643
1.5136641
1.5136639
1.5136638
1.5136637
1.5136636
1.5136635
1.5136634
1.5136632
1.5136632
1.5136628
1.5136628
1.5136622
0.0098701569
0.0098689412
0.0098686385
0.0098685944
0.0098685929
0.0098686003
0.0098686132
0.0098686311
0.0098686535
0.0098686801
0.0098687107
0.0098687452
0.0098687837
0.0098688262
0.0098688727
0.0098689234
0.0098689792
0.0098690409
0.0098691151
0.0098692044
0.0098693814
0.0098695845
0.0098699072
0.013916208
2.5538578
1.3134031
1.957628
1.9571645
1.9566808
1.9561347
1.9555904
1.9551925
1.9549199
1.954714
1.9545477
1.9544111
1.9542971
1.9541995
1.9541138
1.9540371
1.9539673
1.9539027
1.9538423
1.953785
1.9537301
1.9536771
1.9536256
1.9535753
1.9535258
1.953477
1.9534287
1.9533808
1.9533331
1.9532856
1.9532383
1.9531909
1.9531436
1.9530963
1.9530489
1.9530015
1.952954
1.9529065
1.9528589
1.9528112
1.9527635
1.9527157
1.9526679
1.9526201
1.9525722
1.9525243
1.9524765
1.9524287
1.9523809
1.9523332
1.9522856
1.9522381
1.9521907
1.9521435
1.9520964
1.9520495
1.9520028
1.9519564
1.9519102
1.9518642
1.9518186
1.9517733
1.9517283
1.9516836
1.9516393
1.9515955
1.951552
1.951509
1.9514664
1.9514243
1.9513828
1.9513417
1.9513012
1.9512613
1.9512219
1.9511832
1.9511451
1.9511076
1.9510708
1.9510346
1.9509992
1.9509645
1.9509305
1.9508973
1.9508649
1.9508332
1.9508024
1.9507726
1.9507433
1.9507287
1.950725
1.9507232
1.9507221
1.9507214
1.9507208
1.9507204
1.9507201
1.9507198
1.9507196
1.9507194
1.9507193
1.9507191
1.950719
1.9507189
1.9507189
1.9507188
1.9507187
1.9507186
1.9507186
1.9507182
1.9507183
1.9507178
0.0098641654
0.0098628069
0.0098624591
0.0098624042
0.0098623994
0.0098624055
0.009862418
0.0098624363
0.0098624596
0.0098624875
0.0098625199
0.0098625565
0.0098625973
0.0098626424
0.0098626916
0.0098627452
0.0098628035
0.0098628674
0.0098629422
0.0098630302
0.0098631934
0.0098633838
0.0098634811
0.013892092
2.8903987
1.8031242
2.3207714
2.3210495
2.320838
2.3204511
2.3200306
2.3197209
2.3195109
2.3193516
2.3192213
2.3191129
2.3190213
2.3189418
2.318871
2.3188067
2.3187472
2.3186915
2.3186385
2.3185878
2.3185386
2.3184906
2.3184436
2.3183973
2.3183514
2.3183059
2.3182606
2.3182155
2.3181704
2.3181254
2.3180803
2.3180352
2.31799
2.3179446
2.3178992
2.3178537
2.3178081
2.3177623
2.3177165
2.3176706
2.3176246
2.3175785
2.3175324
2.3174862
2.31744
2.3173938
2.3173476
2.3173015
2.3172554
2.3172093
2.3171634
2.3171175
2.3170718
2.3170262
2.3169808
2.3169355
2.3168905
2.3168457
2.3168011
2.3167568
2.3167128
2.3166691
2.3166258
2.3165828
2.3165401
2.3164979
2.3164561
2.3164147
2.3163737
2.3163332
2.3162933
2.3162538
2.3162149
2.3161765
2.3161387
2.3161015
2.3160649
2.3160289
2.3159935
2.3159589
2.3159249
2.3158916
2.315859
2.3158272
2.3157961
2.3157658
2.3157363
2.3157077
2.3156797
2.3156662
2.315663
2.3156616
2.3156608
2.3156602
2.3156598
2.3156595
2.3156593
2.3156591
2.3156589
2.3156588
2.3156587
2.3156586
2.3156585
2.3156585
2.3156584
2.3156583
2.3156583
2.3156582
2.3156582
2.3156579
2.315658
2.3156575
0.0098554015
0.0098538304
0.0098534145
0.0098533432
0.0098533332
0.0098533371
0.009853349
0.0098533677
0.0098533922
0.0098534221
0.009853457
0.0098534966
0.0098535409
0.0098535898
0.0098536432
0.0098537011
0.0098537638
0.0098538317
0.0098539094
0.0098539986
0.0098541527
0.0098543366
0.0098541896
0.013857254
3.1417327
2.1970141
2.6022063
2.6030392
2.6030325
2.6027699
2.6024497
2.6022113
2.6020514
2.6019294
2.6018278
2.6017419
2.6016683
2.6016033
2.6015445
2.6014902
2.6014392
2.6013907
2.601344
2.6012987
2.6012544
2.6012108
2.6011678
2.601125
2.6010824
2.60104
2.6009976
2.6009552
2.6009127
2.6008701
2.6008273
2.6007845
2.6007415
2.6006983
2.600655
2.6006116
2.600568
2.6005243
2.6004805
2.6004365
2.6003925
2.6003484
2.6003042
2.60026
2.6002157
2.6001715
2.6001272
2.600083
2.6000389
2.5999947
2.5999507
2.5999068
2.599863
2.5998193
2.5997758
2.5997325
2.5996894
2.5996466
2.5996039
2.5995615
2.5995195
2.5994777
2.5994362
2.5993951
2.5993543
2.599314
2.599274
2.5992344
2.5991953
2.5991567
2.5991185
2.5990809
2.5990437
2.5990071
2.598971
2.5989355
2.5989006
2.5988663
2.5988326
2.5987996
2.5987672
2.5987355
2.5987045
2.5986742
2.5986446
2.5986158
2.5985877
2.5985605
2.5985338
2.5985213
2.5985187
2.5985176
2.5985169
2.5985165
2.5985162
2.5985159
2.5985157
2.5985156
2.5985155
2.5985154
2.5985153
2.5985153
2.5985152
2.5985152
2.5985151
2.5985151
2.598515
2.598515
2.598515
2.5985147
2.5985148
2.5985144
0.0098435433
0.0098416768
0.0098411652
0.00984107
0.0098410524
0.009841053
0.0098410637
0.0098410826
0.0098411087
0.0098411411
0.0098411793
0.009841223
0.0098412719
0.009841326
0.0098413851
0.009841449
0.0098415178
0.0098415919
0.0098416747
0.0098417678
0.009841917
0.0098421004
0.0098416772
0.013810848
3.3007286
2.483082
2.7941378
2.7953609
2.7955009
2.7953334
2.7950933
2.7949122
2.794792
2.7946993
2.7946205
2.7945526
2.7944932
2.79444
2.7943908
2.7943447
2.7943006
2.7942582
2.7942168
2.7941763
2.7941362
2.7940965
2.794057
2.7940175
2.7939781
2.7939386
2.7938989
2.7938592
2.7938193
2.7937792
2.7937389
2.7936984
2.7936578
2.793617
2.793576
2.7935348
2.7934935
2.793452
2.7934104
2.7933687
2.7933269
2.793285
2.793243
2.793201
2.793159
2.7931169
2.7930749
2.7930329
2.7929909
2.792949
2.7929072
2.7928654
2.7928239
2.7927824
2.7927411
2.7927
2.7926591
2.7926184
2.7925779
2.7925377
2.7924977
2.7924581
2.7924188
2.7923798
2.7923411
2.7923029
2.792265
2.7922275
2.7921904
2.7921538
2.7921177
2.792082
2.7920468
2.7920121
2.791978
2.7919444
2.7919114
2.7918789
2.791847
2.7918158
2.7917852
2.7917552
2.7917259
2.7916972
2.7916693
2.791642
2.7916155
2.7915897
2.7915645
2.791553
2.7915508
2.7915499
2.7915494
2.7915491
2.7915488
2.7915487
2.7915485
2.7915484
2.7915483
2.7915483
2.7915482
2.7915482
2.7915481
2.7915481
2.7915481
2.791548
2.791548
2.791548
2.7915479
2.7915478
2.7915478
2.7915474
0.0098281751
0.0098259129
0.0098252708
0.0098251424
0.0098251137
0.0098251091
0.0098251177
0.0098251368
0.0098251646
0.0098252
0.0098252423
0.0098252911
0.009825346
0.0098254068
0.0098254732
0.009825545
0.0098256221
0.0098257044
0.0098257948
0.0098258945
0.0098260425
0.0098262317
0.0098254864
0.013751863
3.3631343
2.6561522
2.8916045
2.8930738
2.8933112
2.8932141
2.8930371
2.8929013
2.892812
2.8927424
2.8926815
2.8926277
2.8925798
2.8925359
2.8924946
2.8924551
2.8924169
2.8923796
2.8923428
2.8923063
2.8922701
2.8922339
2.8921977
2.8921613
2.8921249
2.8920882
2.8920514
2.8920144
2.8919771
2.8919396
2.8919019
2.8918639
2.8918258
2.8917874
2.8917489
2.8917102
2.8916713
2.8916323
2.8915931
2.8915539
2.8915145
2.8914751
2.8914355
2.891396
2.8913564
2.8913168
2.8912772
2.8912376
2.8911981
2.8911587
2.8911193
2.89108
2.8910409
2.8910018
2.890963
2.8909243
2.8908858
2.8908475
2.8908094
2.8907716
2.890734
2.8906967
2.8906597
2.8906231
2.8905867
2.8905508
2.8905152
2.8904799
2.8904451
2.8904107
2.8903767
2.8903432
2.8903102
2.8902776
2.8902456
2.890214
2.890183
2.8901526
2.8901227
2.8900933
2.8900646
2.8900365
2.890009
2.8899821
2.8899559
2.8899303
2.8899055
2.8898813
2.8898577
2.8898471
2.8898452
2.8898445
2.8898441
2.8898439
2.8898437
2.8898435
2.8898434
2.8898434
2.8898433
2.8898433
2.8898432
2.8898432
2.8898432
2.8898431
2.8898431
2.8898431
2.8898431
2.889843
2.889843
2.8898429
2.8898429
2.8898426
0.0098087831
0.0098060018
0.0098051856
0.0098050114
0.0098049667
0.0098049546
0.0098049598
0.0098049784
0.009805008
0.0098050469
0.0098050942
0.0098051491
0.0098052114
0.0098052805
0.0098053562
0.0098054379
0.0098055255
0.0098056185
0.0098057192
0.0098058284
0.0098059789
0.0098061804
0.0098050505
0.013679146
3.3282845
2.716762
2.8931649
2.8947566
2.8950492
2.8950018
2.8948735
2.894773
2.8947076
2.8946555
2.8946085
2.8945659
2.894527
2.8944906
2.8944557
2.8944218
2.8943885
2.8943556
2.8943228
2.8942901
2.8942573
2.8942244
2.8941913
2.894158
2.8941244
2.8940906
2.8940566
2.8940223
2.8939877
2.8939529
2.8939178
2.8938826
2.8938471
2.8938114
2.8937755
2.8937394
2.8937031
2.8936668
2.8936302
2.8935936
2.8935569
2.8935201
2.8934832
2.8934463
2.8934094
2.8933724
2.8933355
2.8932986
2.8932617
2.8932249
2.8931882
2.8931516
2.893115
2.8930787
2.8930424
2.8930063
2.8929704
2.8929347
2.8928992
2.892864
2.892829
2.8927943
2.8927598
2.8927256
2.8926918
2.8926583
2.8926251
2.8925923
2.8925599
2.8925279
2.8924962
2.892465
2.8924343
2.892404
2.8923741
2.8923448
2.8923159
2.8922876
2.8922598
2.8922325
2.8922058
2.8921796
2.892154
2.8921291
2.8921047
2.8920809
2.8920578
2.8920354
2.8920134
2.8920036
2.892002
2.8920015
2.8920012
2.892001
2.8920008
2.8920007
2.8920007
2.8920006
2.8920006
2.8920005
2.8920005
2.8920005
2.8920005
2.8920004
2.8920004
2.8920004
2.8920004
2.8920004
2.8920004
2.8920002
2.8920003
2.892
0.0097847504
0.0097812975
0.0097802515
0.009780015
0.0097799478
0.0097799246
0.0097799245
0.0097799416
0.0097799727
0.0097800154
0.0097800684
0.0097801309
0.009780202
0.0097802813
0.0097803682
0.0097804622
0.0097805627
0.0097806692
0.009780783
0.0097809049
0.0097810615
0.009781283
0.0097796862
0.013591431
3.1997829
2.6704913
2.8015586
2.8031681
2.8034807
2.803466
2.8033743
2.8033006
2.8032531
2.8032144
2.803178
2.8031441
2.8031124
2.803082
2.8030524
2.8030231
2.802994
2.8029649
2.8029357
2.8029064
2.8028768
2.802847
2.8028169
2.8027865
2.8027558
2.8027249
2.8026936
2.8026621
2.8026303
2.8025983
2.802566
2.8025334
2.8025007
2.8024678
2.8024346
2.8024013
2.8023679
2.8023343
2.8023005
2.8022667
2.8022328
2.8021988
2.8021647
2.8021306
2.8020965
2.8020624
2.8020283
2.8019942
2.8019601
2.8019261
2.8018922
2.8018584
2.8018247
2.8017911
2.8017576
2.8017243
2.8016912
2.8016582
2.8016255
2.8015929
2.8015606
2.8015286
2.8014968
2.8014653
2.801434
2.8014031
2.8013725
2.8013423
2.8013124
2.8012828
2.8012537
2.8012249
2.8011965
2.8011686
2.8011411
2.801114
2.8010874
2.8010613
2.8010357
2.8010105
2.8009859
2.8009618
2.8009382
2.8009152
2.8008928
2.8008709
2.8008496
2.8008289
2.8008087
2.8007997
2.8007984
2.8007979
2.8007976
2.8007975
2.8007974
2.8007973
2.8007972
2.8007972
2.8007972
2.8007972
2.8007971
2.8007971
2.8007971
2.8007971
2.8007971
2.8007971
2.8007971
2.800797
2.800797
2.8007969
2.800797
2.8007967
0.009755352
0.0097510381
0.0097496916
0.0097493707
0.0097492721
0.0097492329
0.0097492245
0.0097492386
0.0097492706
0.0097493173
0.0097493768
0.0097494478
0.0097495294
0.0097496208
0.0097497214
0.0097498302
0.0097499465
0.0097500694
0.0097501995
0.0097503376
0.0097505041
0.0097507544
0.0097485851
0.013487366
2.9859726
2.5276488
2.6242138
2.6257533
2.6260575
2.6260614
2.6259963
2.6259425
2.625908
2.6258791
2.6258508
2.6258235
2.6257974
2.625772
2.6257467
2.6257213
2.6256958
2.6256702
2.6256442
2.625618
2.6255914
2.6255645
2.6255373
2.6255098
2.625482
2.6254538
2.6254254
2.6253967
2.6253677
2.6253385
2.625309
2.6252793
2.6252494
2.6252193
2.6251891
2.6251586
2.625128
2.6250973
2.6250665
2.6250356
2.6250045
2.6249735
2.6249423
2.6249111
2.62488
2.6248488
2.6248176
2.6247864
2.6247553
2.6247243
2.6246933
2.6246623
2.6246315
2.6246008
2.6245703
2.6245398
2.6245095
2.6244794
2.6244495
2.6244198
2.6243903
2.624361
2.624332
2.6243032
2.6242746
2.6242464
2.6242185
2.6241908
2.6241635
2.6241365
2.6241099
2.6240837
2.6240578
2.6240322
2.6240071
2.6239824
2.6239582
2.6239343
2.6239109
2.623888
2.6238655
2.6238435
2.623822
2.623801
2.6237805
2.6237605
2.6237411
2.6237222
2.6237038
2.6236956
2.6236944
2.623694
2.6236938
2.6236937
2.6236936
2.6236935
2.6236935
2.6236935
2.6236934
2.6236934
2.6236934
2.6236934
2.6236934
2.6236934
2.6236934
2.6236934
2.6236934
2.6236933
2.6236933
2.6236933
2.6236933
2.6236931
0.0097197493
0.0097143396
0.0097126022
0.0097121681
0.0097120258
0.0097119639
0.0097119432
0.0097119518
0.0097119835
0.009712034
0.0097121005
0.0097121812
0.0097122749
0.0097123806
0.0097124972
0.0097126237
0.0097127588
0.0097129016
0.0097130516
0.0097132099
0.00971339
0.0097136797
0.0097108042
0.013365554
2.7001297
2.3030797
2.3734554
2.3748547
2.3751281
2.3751393
2.3750924
2.3750528
2.3750274
2.3750054
2.374983
2.3749609
2.3749393
2.3749177
2.374896
2.374874
2.3748517
2.3748291
2.3748061
2.3747828
2.3747591
2.374735
2.3747106
2.3746859
2.3746608
2.3746355
2.3746098
2.3745839
2.3745578
2.3745313
2.3745047
2.3744779
2.3744508
2.3744236
2.3743962
2.3743687
2.374341
2.3743133
2.3742854
2.3742574
2.3742293
2.3742012
2.3741731
2.3741449
2.3741166
2.3740884
2.3740602
2.3740321
2.3740039
2.3739758
2.3739478
2.3739198
2.373892
2.3738642
2.3738366
2.3738091
2.3737817
2.3737545
2.3737274
2.3737005
2.3736739
2.3736474
2.3736211
2.3735951
2.3735693
2.3735438
2.3735185
2.3734936
2.3734689
2.3734445
2.3734204
2.3733967
2.3733733
2.3733502
2.3733275
2.3733052
2.3732833
2.3732617
2.3732406
2.3732198
2.3731995
2.3731796
2.3731602
2.3731412
2.3731227
2.3731047
2.3730871
2.3730701
2.3730534
2.373046
2.3730449
2.3730445
2.3730444
2.3730443
2.3730442
2.3730441
2.3730441
2.3730441
2.3730441
2.3730441
2.3730441
2.373044
2.373044
2.373044
2.373044
2.373044
2.373044
2.373044
2.373044
2.373044
2.373044
2.3730438
0.0096769851
0.0096701892
0.0096679464
0.0096673613
0.0096671589
0.0096670649
0.0096670258
0.0096670255
0.009667055
0.0096671084
0.0096671822
0.0096672737
0.0096673812
0.0096675032
0.0096676385
0.0096677857
0.0096679432
0.0096681095
0.0096682835
0.0096684662
0.0096686641
0.009669006
0.0096652569
0.013224595
2.3601641
2.015809
2.0662877
2.0674942
2.0677196
2.0677292
2.0676938
2.0676637
2.0676443
2.067627
2.0676089
2.0675907
2.0675725
2.0675541
2.0675354
2.0675163
2.0674968
2.067477
2.0674567
2.067436
2.067415
2.0673936
2.0673719
2.0673498
2.0673275
2.0673049
2.067282
2.0672588
2.0672354
2.0672118
2.067188
2.067164
2.0671398
2.0671154
2.0670909
2.0670663
2.0670415
2.0670166
2.0669917
2.0669666
2.0669415
2.0669164
2.0668911
2.0668659
2.0668407
2.0668154
2.0667902
2.066765
2.0667398
2.0667147
2.0666896
2.0666646
2.0666396
2.0666148
2.0665901
2.0665654
2.066541
2.0665166
2.0664924
2.0664683
2.0664445
2.0664208
2.0663973
2.066374
2.066351
2.0663281
2.0663055
2.0662832
2.0662611
2.0662393
2.0662177
2.0661965
2.0661755
2.0661549
2.0661346
2.0661146
2.066095
2.0660757
2.0660568
2.0660383
2.0660201
2.0660023
2.0659849
2.0659679
2.0659514
2.0659353
2.0659196
2.0659043
2.0658894
2.0658827
2.0658817
2.0658813
2.0658812
2.0658811
2.065881
2.065881
2.065881
2.065881
2.0658809
2.0658809
2.0658809
2.0658809
2.0658809
2.0658809
2.0658809
2.0658809
2.0658809
2.0658809
2.0658809
2.0658809
2.0658809
2.0658807
0.0096259809
0.0096174405
0.0096145477
0.0096137619
0.0096134775
0.0096133385
0.0096132731
0.0096132586
0.0096132828
0.0096133378
0.0096134185
0.0096135214
0.0096136442
0.0096137849
0.0096139417
0.0096141129
0.0096142964
0.0096144903
0.0096146926
0.0096149046
0.0096151244
0.0096155343
0.0096107044
0.013063133
1.9877547
1.6882918
1.723635
1.7246128
1.7247782
1.7247794
1.7247501
1.7247258
1.7247099
1.7246955
1.7246804
1.7246651
1.7246496
1.7246338
1.7246177
1.7246011
1.7245841
1.7245667
1.7245489
1.7245308
1.7245122
1.7244934
1.7244742
1.7244547
1.724435
1.724415
1.7243947
1.7243742
1.7243535
1.7243326
1.7243115
1.7242902
1.7242688
1.7242472
1.7242255
1.7242037
1.7241818
1.7241597
1.7241376
1.7241154
1.7240932
1.7240709
1.7240486
1.7240262
1.7240038
1.7239815
1.7239591
1.7239368
1.7239145
1.7238923
1.7238701
1.7238479
1.7238259
1.7238039
1.723782
1.7237602
1.7237385
1.7237169
1.7236955
1.7236742
1.723653
1.723632
1.7236112
1.7235906
1.7235702
1.72355
1.72353
1.7235102
1.7234906
1.7234713
1.7234522
1.7234334
1.7234148
1.7233966
1.7233786
1.7233609
1.7233435
1.7233264
1.7233097
1.7232933
1.7232772
1.7232614
1.723246
1.723231
1.7232163
1.723202
1.7231881
1.7231746
1.7231614
1.7231554
1.7231544
1.723154
1.7231539
1.7231538
1.7231538
1.7231538
1.7231537
1.7231537
1.7231537
1.7231537
1.7231537
1.7231537
1.7231537
1.7231537
1.7231537
1.7231537
1.7231537
1.7231537
1.7231537
1.7231536
1.7231537
1.7231535
0.0095655345
0.0095548101
0.0095510851
0.0095500345
0.0095496387
0.0095494377
0.0095493348
0.0095492988
0.0095493132
0.0095493672
0.0095494538
0.0095495684
0.0095497076
0.009549869
0.0095500501
0.0095502487
0.0095504623
0.0095506882
0.0095509235
0.0095511702
0.0095514163
0.0095519135
0.0095457488
0.012879907
1.6068296
1.3451137
1.3689675
1.3696971
1.369795
1.3697831
1.3697556
1.3697342
1.3697199
1.3697072
1.3696941
1.3696809
1.3696675
1.3696539
1.3696399
1.3696255
1.3696107
1.3695956
1.3695801
1.3695642
1.369548
1.3695315
1.3695147
1.3694977
1.3694804
1.3694629
1.3694451
1.3694272
1.369409
1.3693907
1.3693722
1.3693535
1.3693347
1.3693158
1.3692968
1.3692776
1.3692584
1.3692391
1.3692197
1.3692002
1.3691807
1.3691612
1.3691416
1.369122
1.3691024
1.3690828
1.3690632
1.3690437
1.3690241
1.3690046
1.3689852
1.3689657
1.3689464
1.3689271
1.3689079
1.3688888
1.3688698
1.3688509
1.3688321
1.3688134
1.3687949
1.3687765
1.3687583
1.3687402
1.3687223
1.3687046
1.368687
1.3686697
1.3686525
1.3686356
1.3686188
1.3686023
1.3685861
1.3685701
1.3685543
1.3685388
1.3685235
1.3685086
1.3684939
1.3684795
1.3684653
1.3684515
1.368438
1.3684248
1.368412
1.3683995
1.3683873
1.3683754
1.3683638
1.3683584
1.3683574
1.3683571
1.368357
1.3683569
1.3683569
1.3683568
1.3683568
1.3683568
1.3683568
1.3683568
1.3683568
1.3683568
1.3683568
1.3683568
1.3683568
1.3683568
1.3683568
1.3683568
1.3683568
1.3683568
1.3683568
1.3683567
0.0094943227
0.0094808777
0.0094760924
0.0094746942
0.0094741485
0.0094738623
0.0094737068
0.0094736393
0.0094736372
0.009473686
0.0094737765
0.0094739023
0.0094740588
0.0094742426
0.0094744507
0.0094746802
0.0094749278
0.0094751905
0.0094754638
0.0094757511
0.0094760279
0.0094766362
0.0094688283
0.0126738
1.2414007
1.0110987
1.0263122
1.0267893
1.0268168
1.0267886
1.0267598
1.0267392
1.0267252
1.0267132
1.0267014
1.0266897
1.026678
1.0266661
1.026654
1.0266415
1.0266287
1.0266156
1.0266022
1.0265885
1.0265744
1.0265601
1.0265456
1.0265308
1.0265158
1.0265006
1.0264852
1.0264696
1.0264539
1.026438
1.0264219
1.0264057
1.0263894
1.026373
1.0263565
1.0263399
1.0263232
1.0263064
1.0262896
1.0262727
1.0262558
1.0262388
1.0262218
1.0262048
1.0261878
1.0261708
1.0261539
1.0261369
1.02612
1.0261031
1.0260862
1.0260693
1.0260526
1.0260359
1.0260192
1.0260026
1.0259861
1.0259698
1.0259535
1.0259373
1.0259212
1.0259052
1.0258894
1.0258737
1.0258582
1.0258428
1.0258276
1.0258126
1.0257977
1.025783
1.0257685
1.0257542
1.02574
1.0257261
1.0257125
1.025699
1.0256858
1.0256728
1.0256601
1.0256476
1.0256353
1.0256233
1.0256116
1.0256002
1.025589
1.0255782
1.0255676
1.0255573
1.0255472
1.0255424
1.0255415
1.0255411
1.025541
1.0255409
1.0255409
1.0255409
1.0255408
1.0255408
1.0255408
1.0255408
1.0255408
1.0255408
1.0255408
1.0255408
1.0255408
1.0255408
1.0255408
1.0255408
1.0255408
1.0255408
1.0255408
1.0255407
0.0094109068
0.0093940897
0.00938796
0.0093861082
0.0093853621
0.0093849605
0.0093847319
0.009384619
0.009384591
0.0093846288
0.0093847195
0.0093848548
0.0093850285
0.0093852361
0.0093854736
0.0093857372
0.009386023
0.0093863272
0.0093866437
0.009386978
0.0093872898
0.0093880385
0.0093782173
0.012443875
0.91290494
0.70890013
0.71775417
0.71798881
0.71794705
0.7179014
0.71786928
0.71784794
0.71783337
0.71782142
0.71781036
0.71779978
0.71778945
0.7177791
0.71776859
0.71775785
0.71774686
0.7177356
0.71772409
0.71771232
0.7177003
0.71768806
0.7176756
0.71766293
0.71765008
0.71763705
0.71762386
0.7176105
0.717597
0.71758337
0.71756961
0.71755573
0.71754175
0.71752768
0.71751352
0.71749928
0.71748496
0.71747059
0.71745616
0.71744169
0.7174272
0.71741267
0.71739813
0.71738357
0.71736901
0.71735446
0.71733993
0.71732541
0.71731091
0.71729643
0.71728198
0.71726757
0.71725321
0.7172389
0.71722465
0.71721046
0.71719634
0.7171823
0.71716835
0.71715449
0.71714072
0.71712706
0.71711352
0.7171001
0.71708681
0.71707364
0.71706061
0.71704772
0.71703498
0.7170224
0.71700998
0.71699772
0.71698564
0.71697374
0.71696203
0.71695051
0.71693919
0.71692808
0.71691717
0.71690647
0.716896
0.71688574
0.71687572
0.71686593
0.71685638
0.71684709
0.71683804
0.71682926
0.71682063
0.71681638
0.71681542
0.71681509
0.71681495
0.71681488
0.71681484
0.71681481
0.71681479
0.71681478
0.71681478
0.71681477
0.71681477
0.71681477
0.71681476
0.71681476
0.71681476
0.71681476
0.71681476
0.71681476
0.71681476
0.71681475
0.71681475
0.7168147
0.0093137442
0.0092927691
0.0092849438
0.0092825034
0.0092814914
0.0092809342
0.0092806058
0.0092804287
0.0092803619
0.0092803797
0.0092804651
0.0092806066
0.0092807964
0.0092810281
0.0092812967
0.0092815975
0.0092819252
0.0092822757
0.0092826409
0.0092830288
0.0092833797
0.0092843047
0.0092720311
0.012189399
0.63738968
0.45632481
0.4606875
0.46070264
0.46059744
0.46053511
0.4604987
0.46047581
0.46046022
0.46044802
0.46043743
0.46042773
0.46041853
0.4604095
0.46040045
0.46039129
0.46038196
0.46037244
0.46036271
0.46035279
0.46034266
0.46033235
0.46032186
0.4603112
0.46030038
0.46028941
0.4602783
0.46026705
0.46025568
0.4602442
0.46023261
0.46022092
0.46020915
0.46019729
0.46018537
0.46017337
0.46016132
0.46014921
0.46013706
0.46012489
0.46011269
0.46010047
0.46008823
0.46007599
0.46006374
0.46005151
0.46003929
0.46002709
0.4600149
0.46000273
0.45999059
0.45997848
0.45996641
0.45995439
0.45994241
0.45993048
0.45991862
0.45990682
0.4598951
0.45988345
0.45987189
0.45986041
0.45984903
0.45983776
0.4598266
0.45981554
0.45980459
0.45979377
0.45978307
0.4597725
0.45976207
0.45975178
0.45974163
0.45973164
0.45972181
0.45971214
0.45970264
0.45969331
0.45968416
0.45967518
0.45966639
0.45965779
0.45964937
0.45964116
0.45963316
0.45962536
0.45961777
0.45961041
0.45960316
0.45959947
0.45959855
0.45959822
0.45959807
0.459598
0.45959796
0.45959793
0.45959792
0.45959791
0.4595979
0.45959789
0.45959789
0.45959789
0.45959789
0.45959789
0.45959789
0.45959788
0.45959788
0.45959788
0.45959788
0.45959788
0.45959788
0.45959784
0.0092012074
0.0091751331
0.0091651801
0.0091619804
0.0091606182
0.0091598535
0.0091593897
0.0091591235
0.0091590002
0.0091589856
0.0091590572
0.0091591997
0.0091594026
0.0091596576
0.0091599582
0.0091602982
0.0091606713
0.0091610725
0.0091614915
0.00916194
0.0091623336
0.0091634783
0.0091482396
0.01190983
0.42312975
0.26384628
0.26526557
0.26509603
0.26493854
0.26486272
0.2648223
0.2647977
0.2647811
0.26476861
0.26475838
0.26474946
0.2647413
0.2647335
0.26472583
0.26471816
0.26471041
0.26470255
0.26469455
0.2646864
0.2646781
0.26466966
0.26466107
0.26465234
0.26464349
0.26463451
0.26462542
0.26461622
0.26460691
0.26459752
0.26458803
0.26457847
0.26456883
0.26455913
0.26454937
0.26453956
0.2645297
0.26451979
0.26450986
0.2644999
0.26448993
0.26447995
0.26446996
0.26445996
0.26444996
0.26443998
0.26443001
0.26442006
0.26441011
0.26440019
0.26439029
0.26438041
0.26437057
0.26436077
0.264351
0.26434129
0.26433162
0.26432201
0.26431245
0.26430296
0.26429354
0.26428419
0.26427493
0.26426576
0.26425667
0.26424767
0.26423876
0.26422995
0.26422124
0.26421264
0.26420416
0.26419579
0.26418754
0.26417941
0.26417142
0.26416355
0.26415583
0.26414825
0.26414082
0.26413353
0.26412639
0.2641194
0.26411257
0.2641059
0.2640994
0.26409307
0.26408692
0.26408094
0.26407505
0.26407195
0.26407109
0.26407078
0.26407064
0.26407057
0.26407052
0.2640705
0.26407048
0.26407047
0.26407047
0.26407046
0.26407046
0.26407046
0.26407045
0.26407045
0.26407045
0.26407045
0.26407045
0.26407045
0.26407045
0.26407045
0.26407045
0.26407042
0.0090716116
0.009039319
0.0090267105
0.0090225378
0.0090207176
0.0090196782
0.0090190328
0.0090186446
0.0090184411
0.009018377
0.0090184227
0.009018558
0.0090187687
0.0090190444
0.0090193762
0.0090197565
0.0090201776
0.0090206333
0.0090211108
0.0090216268
0.0090220657
0.0090234829
0.0090046902
0.011604796
0.26950976
0.13295353
0.13269843
0.13239047
0.13219869
0.13211535
0.13207253
0.13204687
0.13202968
0.13201717
0.13200742
0.1319993
0.13199219
0.1319856
0.13197929
0.13197308
0.1319669
0.13196067
0.13195437
0.13194798
0.13194149
0.13193489
0.13192818
0.13192138
0.13191447
0.13190748
0.13190039
0.13189322
0.13188597
0.13187864
0.13187125
0.1318638
0.13185629
0.13184874
0.13184114
0.1318335
0.13182582
0.13181811
0.13181038
0.13180264
0.13179489
0.13178714
0.13177938
0.13177162
0.13176386
0.13175611
0.13174839
0.13174067
0.13173296
0.13172528
0.13171761
0.13170996
0.13170235
0.13169476
0.1316872
0.13167969
0.13167221
0.13166478
0.1316574
0.13165006
0.13164279
0.13163557
0.13162841
0.13162134
0.13161432
0.13160738
0.13160051
0.13159372
0.13158701
0.13158038
0.13157384
0.13156739
0.13156104
0.13155478
0.13154863
0.13154258
0.13153664
0.13153081
0.13152509
0.13151949
0.131514
0.13150863
0.13150339
0.13149827
0.13149328
0.13148842
0.1314837
0.13147911
0.13147459
0.13147213
0.13147138
0.1314711
0.13147097
0.13147091
0.13147087
0.13147084
0.13147083
0.13147082
0.13147081
0.13147081
0.13147081
0.1314708
0.1314708
0.1314708
0.1314708
0.1314708
0.1314708
0.1314708
0.1314708
0.1314708
0.1314708
0.13147078
0.0089232524
0.0088834225
0.0088675187
0.0088621066
0.0088596917
0.0088582918
0.0088574054
0.0088568522
0.008856537
0.0088564004
0.0088564033
0.0088565193
0.0088567297
0.0088570206
0.008857381
0.0088578011
0.0088582711
0.0088587842
0.0088593241
0.0088599143
0.0088603995
0.008862152
0.0088391444
0.011274044
0.16801162
0.056113844
0.055172424
0.054784896
0.05458492
0.054502714
0.054460454
0.054435156
0.054418296
0.054406317
0.054397342
0.05439021
0.054384222
0.054378897
0.054373957
0.054369223
0.054364589
0.054359986
0.05435537
0.054350715
0.054346007
0.054341239
0.054336404
0.054331503
0.054326537
0.054321507
0.054316415
0.054311265
0.05430606
0.054300804
0.054295502
0.054290157
0.054284777
0.054279363
0.054273919
0.054268447
0.054262952
0.054257435
0.054251905
0.054246376
0.054240843
0.054235312
0.054229782
0.054224254
0.05421873
0.05421322
0.054207725
0.054202241
0.054196769
0.054191312
0.054185871
0.054180451
0.054175052
0.054169677
0.054164328
0.054159009
0.054153722
0.054148469
0.054143253
0.054138075
0.054132938
0.054127845
0.054122802
0.054117814
0.054112875
0.054107986
0.05410315
0.054098371
0.054093651
0.054088992
0.054084397
0.054079869
0.054075409
0.054071019
0.054066702
0.054062462
0.054058302
0.05405422
0.054050218
0.054046297
0.054042458
0.054038704
0.054035037
0.054031458
0.054027974
0.054024582
0.054021284
0.054018087
0.05401493
0.054013154
0.054012574
0.054012348
0.054012241
0.054012185
0.054012153
0.054012133
0.054012121
0.054012112
0.054012107
0.054012103
0.0540121
0.054012098
0.054012097
0.054012096
0.054012095
0.054012095
0.054012094
0.054012094
0.054012094
0.054012093
0.054012094
0.054012081
0.0087544561
0.0087055487
0.00868558
0.0086785994
0.0086754185
0.0086735491
0.0086723455
0.0086715721
0.0086711043