/*--------------------------------*- C++ -*----------------------------------*\
| =========                 |                                                 |
| \\      /  F ield         | OpenFOAM: The Open Source CFD Toolbox           |
|  \\    /   O peration     | Version:  2206                                  |
|   \\  /    A nd           | Website:  www.openfoam.com                      |
|    \\/     M anipulation  |                                                 |
\*---------------------------------------------------------------------------*/
FoamFile
{
    version     2.0;
    format      ascii;
    arch        "LSB;label=32;scalar=64";
    class       volScalarField;
    location    "200";
    object      k;
}
// * * * * * * * * * * * * * * * * * * * * * * * * * * * * * * * * * * * * * //

dimensions      [0 2 -2 0 0 0 0];

internalField   nonuniform List<scalar> 
13056
(
0.00014860409
0.00014850966
0.00014849771
0.00014849567
0.00014849499
0.00014849469
0.00014849466
0.00014849482
0.00014849513
0.00014849557
0.00014849612
0.00014849676
0.00014849748
0.00014849828
0.00014849915
0.00014850008
0.00014850106
0.00014850208
0.00014850311
0.00014850413
0.00014850508
0.0001485064
0.00014850308
0.00014844311
0.00025574385
4.7133482e-05
0.00018458428
0.00018424831
0.00018408546
0.00018395988
0.00018384944
0.00018376943
0.00018371341
0.00018367114
0.00018363761
0.00018361052
0.00018358828
0.00018356962
0.00018355364
0.0001835397
0.00018352735
0.00018351624
0.00018350611
0.00018349676
0.00018348804
0.00018347982
0.000183472
0.0001834645
0.00018345727
0.00018345026
0.00018344342
0.00018343672
0.00018343013
0.00018342363
0.00018341721
0.00018341084
0.00018340452
0.00018339824
0.00018339198
0.00018338575
0.00018337953
0.00018337332
0.00018336712
0.00018336093
0.00018335474
0.00018334856
0.00018334238
0.0001833362
0.00018333003
0.00018332386
0.0001833177
0.00018331154
0.0001833054
0.00018329926
0.00018329313
0.00018328702
0.00018328092
0.00018327483
0.00018326877
0.00018326273
0.00018325671
0.00018325072
0.00018324476
0.00018323883
0.00018323294
0.00018322708
0.00018322126
0.00018321548
0.00018320975
0.00018320407
0.00018319844
0.00018319285
0.00018318733
0.00018318186
0.00018317646
0.00018317112
0.00018316584
0.00018316064
0.00018315551
0.00018315045
0.00018314547
0.00018314057
0.00018313575
0.00018313102
0.00018312638
0.00018312183
0.00018311737
0.00018311301
0.00018310874
0.00018310458
0.00018310053
0.0001830966
0.00018309273
0.00018309064
0.00018308995
0.00018308959
0.00018308936
0.0001830892
0.00018308908
0.00018308898
0.0001830889
0.00018308884
0.00018308879
0.00018308875
0.00018308872
0.00018308869
0.00018308866
0.00018308864
0.00018308862
0.0001830886
0.00018308858
0.00018308856
0.00018308855
0.00018308848
0.00018308849
0.00018308841
0.00014859243
0.00014849575
0.00014848337
0.00014848123
0.0001484805
0.00014848018
0.00014848013
0.00014848029
0.0001484806
0.00014848104
0.00014848159
0.00014848224
0.00014848297
0.00014848379
0.00014848467
0.00014848562
0.00014848661
0.00014848764
0.00014848869
0.00014848974
0.0001484907
0.00014849205
0.00014848861
0.00014843
0.00026754542
7.9025038e-05
0.00020228864
0.00020207301
0.0002019584
0.0002018626
0.00020177531
0.00020171197
0.00020166797
0.0002016348
0.00020160839
0.00020158697
0.00020156932
0.00020155443
0.0002015416
0.00020153032
0.00020152025
0.00020151111
0.00020150272
0.0002014949
0.00020148754
0.00020148054
0.00020147385
0.00020146738
0.0002014611
0.00020145497
0.00020144896
0.00020144304
0.0002014372
0.00020143141
0.00020142567
0.00020141996
0.00020141428
0.00020140862
0.00020140296
0.00020139732
0.00020139169
0.00020138605
0.00020138042
0.00020137479
0.00020136915
0.00020136352
0.00020135789
0.00020135225
0.00020134662
0.00020134099
0.00020133536
0.00020132974
0.00020132412
0.00020131851
0.00020131291
0.00020130732
0.00020130175
0.00020129619
0.00020129065
0.00020128513
0.00020127964
0.00020127417
0.00020126872
0.00020126331
0.00020125792
0.00020125258
0.00020124727
0.00020124199
0.00020123677
0.00020123158
0.00020122645
0.00020122136
0.00020121632
0.00020121134
0.00020120642
0.00020120155
0.00020119675
0.00020119202
0.00020118735
0.00020118274
0.00020117822
0.00020117376
0.00020116938
0.00020116509
0.00020116087
0.00020115674
0.00020115269
0.00020114873
0.00020114486
0.00020114109
0.00020113741
0.00020113385
0.00020113034
0.00020112851
0.00020112795
0.00020112766
0.00020112749
0.00020112737
0.00020112727
0.0002011272
0.00020112714
0.0002011271
0.00020112706
0.00020112703
0.000201127
0.00020112698
0.00020112696
0.00020112695
0.00020112693
0.00020112692
0.00020112691
0.00020112689
0.00020112688
0.00020112683
0.00020112683
0.00020112677
0.00014855422
0.00014845056
0.00014843688
0.00014843441
0.00014843354
0.00014843315
0.00014843305
0.00014843319
0.00014843349
0.00014843394
0.00014843451
0.00014843518
0.00014843595
0.0001484368
0.00014843773
0.00014843872
0.00014843976
0.00014844085
0.00014844195
0.00014844305
0.00014844406
0.00014844552
0.00014844172
0.00014838627
0.0002738434
0.00011179412
0.0002146206
0.00021450217
0.00021442667
0.00021435561
0.00021428801
0.00021423882
0.00021420493
0.0002141794
0.00021415894
0.00021414227
0.00021412845
0.00021411672
0.00021410652
0.00021409748
0.00021408933
0.00021408187
0.00021407495
0.00021406844
0.00021406226
0.00021405634
0.00021405062
0.00021404507
0.00021403964
0.0002140343
0.00021402905
0.00021402385
0.00021401869
0.00021401357
0.00021400847
0.00021400339
0.00021399832
0.00021399325
0.00021398819
0.00021398313
0.00021397806
0.00021397299
0.00021396792
0.00021396284
0.00021395776
0.00021395267
0.00021394759
0.0002139425
0.0002139374
0.00021393231
0.00021392722
0.00021392214
0.00021391706
0.00021391198
0.00021390692
0.00021390186
0.00021389682
0.0002138918
0.00021388679
0.00021388179
0.00021387682
0.00021387188
0.00021386695
0.00021386206
0.0002138572
0.00021385236
0.00021384757
0.0002138428
0.00021383808
0.0002138334
0.00021382877
0.00021382418
0.00021381963
0.00021381514
0.0002138107
0.00021380632
0.00021380199
0.00021379772
0.00021379351
0.00021378937
0.00021378529
0.00021378128
0.00021377734
0.00021377347
0.00021376968
0.00021376597
0.00021376233
0.00021375877
0.00021375529
0.00021375191
0.0002137486
0.0002137454
0.00021374226
0.00021374065
0.0002137402
0.00021373999
0.00021373985
0.00021373976
0.00021373969
0.00021373964
0.00021373959
0.00021373956
0.00021373953
0.00021373951
0.00021373949
0.00021373948
0.00021373946
0.00021373945
0.00021373944
0.00021373943
0.00021373942
0.00021373941
0.0002137394
0.00021373936
0.00021373937
0.00021373931
0.00014848789
0.00014837212
0.00014835614
0.00014835309
0.00014835197
0.00014835143
0.00014835126
0.00014835135
0.00014835165
0.00014835211
0.0001483527
0.00014835342
0.00014835424
0.00014835515
0.00014835615
0.00014835722
0.00014835836
0.00014835953
0.00014836072
0.00014836192
0.00014836302
0.00014836465
0.00014836021
0.00014831003
0.00027438691
0.00014030862
0.00022116025
0.00022111679
0.00022107174
0.00022102058
0.00022096926
0.00022093178
0.00022090617
0.00022088686
0.00022087127
0.00022085846
0.00022084778
0.00022083862
0.00022083059
0.00022082339
0.00022081684
0.00022081077
0.00022080508
0.00022079967
0.0002207945
0.0002207895
0.00022078463
0.00022077987
0.00022077519
0.00022077056
0.00022076598
0.00022076143
0.00022075691
0.0002207524
0.00022074789
0.00022074339
0.00022073889
0.00022073439
0.00022072988
0.00022072537
0.00022072084
0.00022071632
0.00022071178
0.00022070724
0.00022070269
0.00022069813
0.00022069358
0.00022068901
0.00022068445
0.00022067988
0.00022067532
0.00022067076
0.0002206662
0.00022066165
0.00022065711
0.00022065257
0.00022064805
0.00022064354
0.00022063905
0.00022063458
0.00022063012
0.00022062569
0.00022062127
0.00022061689
0.00022061253
0.0002206082
0.0002206039
0.00022059964
0.00022059541
0.00022059122
0.00022058707
0.00022058297
0.0002205789
0.00022057488
0.00022057091
0.00022056699
0.00022056312
0.00022055931
0.00022055555
0.00022055185
0.00022054821
0.00022054463
0.00022054111
0.00022053766
0.00022053428
0.00022053096
0.00022052772
0.00022052455
0.00022052145
0.00022051843
0.00022051549
0.00022051263
0.00022050983
0.00022050844
0.00022050808
0.00022050792
0.00022050782
0.00022050775
0.00022050769
0.00022050766
0.00022050763
0.0002205076
0.00022050758
0.00022050757
0.00022050755
0.00022050754
0.00022050753
0.00022050752
0.00022050752
0.00022050751
0.0002205075
0.00022050749
0.00022050749
0.00022050746
0.00022050746
0.00022050741
0.00014839098
0.00014825717
0.00014823774
0.0001482338
0.00014823228
0.00014823152
0.00014823123
0.00014823125
0.00014823153
0.000148232
0.00014823263
0.0001482334
0.0001482343
0.00014823531
0.00014823641
0.0001482376
0.00014823886
0.00014824016
0.00014824149
0.00014824283
0.00014824405
0.00014824594
0.00014824053
0.00014819822
0.00026914423
0.00016111297
0.00022169469
0.00022170541
0.00022168276
0.00022164698
0.00022160867
0.00022158054
0.00022156149
0.00022154709
0.00022153534
0.0002215256
0.0002215174
0.0002215103
0.00022150399
0.00022149827
0.00022149299
0.00022148806
0.00022148337
0.00022147889
0.00022147455
0.00022147032
0.00022146617
0.00022146209
0.00022145805
0.00022145405
0.00022145006
0.00022144609
0.00022144213
0.00022143816
0.0002214342
0.00022143023
0.00022142625
0.00022142226
0.00022141827
0.00022141426
0.00022141025
0.00022140622
0.00022140219
0.00022139815
0.0002213941
0.00022139004
0.00022138598
0.00022138192
0.00022137785
0.00022137378
0.00022136971
0.00022136565
0.00022136159
0.00022135753
0.00022135348
0.00022134944
0.00022134541
0.00022134139
0.00022133739
0.0002213334
0.00022132943
0.00022132548
0.00022132155
0.00022131765
0.00022131377
0.00022130991
0.00022130609
0.00022130229
0.00022129853
0.00022129481
0.00022129112
0.00022128746
0.00022128385
0.00022128028
0.00022127675
0.00022127326
0.00022126983
0.00022126644
0.0002212631
0.00022125981
0.00022125658
0.0002212534
0.00022125028
0.00022124722
0.00022124422
0.00022124128
0.0002212384
0.00022123559
0.00022123285
0.00022123017
0.00022122756
0.00022122504
0.00022122256
0.00022122135
0.00022122106
0.00022122094
0.00022122086
0.00022122081
0.00022122077
0.00022122075
0.00022122072
0.00022122071
0.00022122069
0.00022122068
0.00022122067
0.00022122066
0.00022122066
0.00022122065
0.00022122065
0.00022122064
0.00022122064
0.00022122063
0.00022122063
0.0002212206
0.00022122061
0.00022122057
0.00014826003
0.00014810119
0.00014807687
0.00014807163
0.00014806954
0.00014806847
0.00014806798
0.00014806791
0.00014806814
0.00014806862
0.0001480693
0.00014807015
0.00014807115
0.00014807227
0.00014807352
0.00014807486
0.00014807629
0.00014807777
0.00014807929
0.00014808082
0.00014808221
0.00014808446
0.00014807768
0.00014804655
0.00025829788
0.00017263208
0.00021629452
0.00021634228
0.00021633549
0.00021631143
0.00021628346
0.00021626279
0.0002162489
0.00021623836
0.00021622965
0.00021622234
0.0002162161
0.00021621063
0.0002162057
0.00021620117
0.00021619694
0.00021619293
0.00021618908
0.00021618535
0.00021618172
0.00021617815
0.00021617462
0.00021617113
0.00021616766
0.0002161642
0.00021616075
0.00021615729
0.00021615383
0.00021615037
0.0002161469
0.00021614341
0.00021613992
0.00021613641
0.00021613289
0.00021612936
0.00021612582
0.00021612226
0.0002161187
0.00021611513
0.00021611155
0.00021610797
0.00021610438
0.00021610078
0.00021609718
0.00021609358
0.00021608999
0.00021608639
0.0002160828
0.00021607921
0.00021607563
0.00021607205
0.00021606849
0.00021606494
0.0002160614
0.00021605787
0.00021605436
0.00021605087
0.0002160474
0.00021604394
0.00021604052
0.00021603711
0.00021603373
0.00021603038
0.00021602706
0.00021602377
0.00021602051
0.00021601729
0.0002160141
0.00021601095
0.00021600783
0.00021600476
0.00021600173
0.00021599874
0.0002159958
0.0002159929
0.00021599005
0.00021598725
0.0002159845
0.0002159818
0.00021597916
0.00021597657
0.00021597404
0.00021597156
0.00021596915
0.00021596679
0.0002159645
0.00021596228
0.00021596009
0.00021595905
0.00021595883
0.00021595873
0.00021595867
0.00021595864
0.00021595861
0.00021595859
0.00021595858
0.00021595856
0.00021595855
0.00021595855
0.00021595854
0.00021595853
0.00021595853
0.00021595853
0.00021595852
0.00021595852
0.00021595852
0.00021595851
0.00021595851
0.00021595849
0.00021595849
0.00021595846
0.00014809061
0.00014789827
0.00014786727
0.00014786022
0.00014785732
0.00014785579
0.00014785502
0.0001478548
0.00014785497
0.00014785545
0.00014785618
0.00014785712
0.00014785824
0.00014785952
0.00014786095
0.00014786249
0.00014786413
0.00014786585
0.0001478676
0.00014786939
0.00014787099
0.00014787373
0.00014786507
0.00014784944
0.00024226154
0.00017480152
0.00020530113
0.0002053711
0.00020537458
0.00020535906
0.00020533905
0.00020532413
0.00020531419
0.00020530659
0.00020530021
0.00020529476
0.00020529004
0.00020528584
0.000205282
0.00020527841
0.00020527501
0.00020527174
0.00020526857
0.00020526547
0.00020526242
0.00020525941
0.00020525641
0.00020525342
0.00020525044
0.00020524746
0.00020524447
0.00020524147
0.00020523847
0.00020523545
0.00020523241
0.00020522937
0.00020522631
0.00020522324
0.00020522015
0.00020521706
0.00020521395
0.00020521083
0.0002052077
0.00020520456
0.00020520141
0.00020519826
0.00020519511
0.00020519194
0.00020518878
0.00020518562
0.00020518245
0.00020517929
0.00020517613
0.00020517297
0.00020516983
0.00020516668
0.00020516355
0.00020516043
0.00020515731
0.00020515422
0.00020515113
0.00020514806
0.00020514501
0.00020514198
0.00020513897
0.00020513598
0.00020513301
0.00020513007
0.00020512715
0.00020512426
0.0002051214
0.00020511857
0.00020511577
0.00020511301
0.00020511028
0.00020510758
0.00020510492
0.0002051023
0.00020509972
0.00020509719
0.00020509469
0.00020509223
0.00020508982
0.00020508746
0.00020508515
0.00020508288
0.00020508066
0.00020507849
0.00020507638
0.00020507431
0.00020507231
0.00020507036
0.00020506845
0.00020506756
0.00020506737
0.0002050673
0.00020506726
0.00020506723
0.00020506721
0.0002050672
0.00020506719
0.00020506718
0.00020506717
0.00020506717
0.00020506716
0.00020506716
0.00020506716
0.00020506715
0.00020506715
0.00020506715
0.00020506715
0.00020506714
0.00020506714
0.00020506713
0.00020506713
0.00020506711
0.00014787729
0.00014764107
0.00014760111
0.00014759157
0.00014758755
0.00014758535
0.0001475842
0.00014758375
0.00014758381
0.00014758428
0.00014758506
0.0001475861
0.00014758737
0.00014758885
0.00014759049
0.00014759229
0.0001475942
0.00014759621
0.00014759827
0.00014760037
0.00014760225
0.00014760562
0.00014759443
0.00014759997
0.00022170628
0.00016855966
0.00018932307
0.00018940318
0.00018941244
0.00018940284
0.00018938879
0.0001893782
0.0001893712
0.0001893658
0.00018936116
0.00018935712
0.00018935357
0.00018935034
0.00018934733
0.00018934448
0.00018934173
0.00018933906
0.00018933645
0.00018933386
0.0001893313
0.00018932875
0.0001893262
0.00018932365
0.00018932109
0.00018931852
0.00018931594
0.00018931334
0.00018931073
0.00018930811
0.00018930547
0.00018930282
0.00018930016
0.00018929748
0.00018929479
0.00018929208
0.00018928936
0.00018928664
0.0001892839
0.00018928116
0.00018927841
0.00018927565
0.00018927289
0.00018927012
0.00018926736
0.00018926459
0.00018926182
0.00018925906
0.00018925629
0.00018925353
0.00018925078
0.00018924803
0.00018924529
0.00018924256
0.00018923984
0.00018923713
0.00018923443
0.00018923175
0.00018922909
0.00018922644
0.0001892238
0.00018922119
0.0001892186
0.00018921603
0.00018921348
0.00018921096
0.00018920846
0.00018920599
0.00018920355
0.00018920113
0.00018919875
0.0001891964
0.00018919408
0.00018919179
0.00018918954
0.00018918732
0.00018918515
0.00018918301
0.00018918091
0.00018917884
0.00018917683
0.00018917485
0.00018917291
0.00018917103
0.00018916918
0.00018916739
0.00018916564
0.00018916394
0.00018916228
0.00018916151
0.00018916136
0.0001891613
0.00018916127
0.00018916125
0.00018916124
0.00018916123
0.00018916122
0.00018916122
0.00018916121
0.00018916121
0.0001891612
0.0001891612
0.0001891612
0.0001891612
0.0001891612
0.00018916119
0.00018916119
0.00018916119
0.00018916119
0.00018916118
0.00018916118
0.00018916116
0.0001476136
0.00014732071
0.00014726887
0.00014725594
0.00014725035
0.00014724726
0.00014724554
0.00014724477
0.00014724466
0.00014724508
0.0001472459
0.00014724706
0.00014724851
0.0001472502
0.00014725212
0.00014725422
0.00014725647
0.00014725884
0.00014726127
0.00014726377
0.00014726598
0.00014727019
0.00014725563
0.00014728972
0.00019756023
0.00015542541
0.0001692492
0.00016933001
0.00016934156
0.00016933582
0.00016932609
0.00016931868
0.00016931381
0.00016930999
0.00016930663
0.00016930364
0.00016930095
0.00016929846
0.00016929609
0.00016929381
0.00016929159
0.0001692894
0.00016928723
0.00016928507
0.00016928291
0.00016928074
0.00016927857
0.00016927639
0.0001692742
0.00016927199
0.00016926976
0.00016926752
0.00016926527
0.00016926299
0.00016926071
0.00016925841
0.00016925609
0.00016925376
0.00016925142
0.00016924907
0.00016924671
0.00016924434
0.00016924196
0.00016923957
0.00016923718
0.00016923478
0.00016923237
0.00016922996
0.00016922756
0.00016922515
0.00016922274
0.00016922033
0.00016921793
0.00016921552
0.00016921313
0.00016921074
0.00016920835
0.00016920598
0.00016920361
0.00016920125
0.00016919891
0.00016919657
0.00016919425
0.00016919195
0.00016918966
0.00016918739
0.00016918514
0.0001691829
0.00016918069
0.00016917849
0.00016917632
0.00016917418
0.00016917205
0.00016916995
0.00016916788
0.00016916584
0.00016916382
0.00016916184
0.00016915988
0.00016915796
0.00016915607
0.00016915421
0.00016915238
0.00016915059
0.00016914884
0.00016914712
0.00016914545
0.00016914381
0.00016914221
0.00016914065
0.00016913913
0.00016913766
0.00016913622
0.00016913555
0.00016913543
0.00016913538
0.00016913536
0.00016913535
0.00016913534
0.00016913533
0.00016913532
0.00016913532
0.00016913532
0.00016913531
0.00016913531
0.00016913531
0.00016913531
0.00016913531
0.00016913531
0.00016913531
0.0001691353
0.0001691353
0.0001691353
0.00016913529
0.0001691353
0.00016913528
0.00014729205
0.00014692662
0.00014685919
0.00014684169
0.00014683397
0.00014682961
0.00014682712
0.00014682587
0.00014682551
0.00014682583
0.00014682667
0.00014682795
0.00014682959
0.00014683155
0.00014683378
0.00014683625
0.00014683891
0.00014684172
0.00014684461
0.0001468476
0.00014685021
0.00014685549
0.00014683648
0.00014690875
0.00017098102
0.00013721251
0.00014622357
0.00014629814
0.00014630941
0.00014630592
0.0001462992
0.00014629405
0.00014629066
0.00014628795
0.00014628551
0.00014628328
0.00014628123
0.00014627929
0.00014627741
0.00014627558
0.00014627376
0.00014627195
0.00014627014
0.00014626833
0.00014626651
0.00014626467
0.00014626282
0.00014626096
0.00014625908
0.00014625718
0.00014625527
0.00014625334
0.00014625139
0.00014624943
0.00014624745
0.00014624546
0.00014624346
0.00014624145
0.00014623942
0.00014623739
0.00014623534
0.00014623328
0.00014623122
0.00014622915
0.00014622708
0.000146225
0.00014622292
0.00014622083
0.00014621874
0.00014621666
0.00014621457
0.00014621248
0.0001462104
0.00014620832
0.00014620624
0.00014620417
0.00014620211
0.00014620005
0.000146198
0.00014619596
0.00014619393
0.00014619191
0.0001461899
0.00014618791
0.00014618593
0.00014618396
0.00014618201
0.00014618007
0.00014617816
0.00014617626
0.00014617438
0.00014617252
0.00014617068
0.00014616887
0.00014616708
0.00014616531
0.00014616356
0.00014616185
0.00014616016
0.00014615849
0.00014615685
0.00014615525
0.00014615367
0.00014615212
0.00014615061
0.00014614912
0.00014614767
0.00014614625
0.00014614487
0.00014614352
0.00014614221
0.00014614094
0.00014613969
0.00014613912
0.00014613901
0.00014613898
0.00014613896
0.00014613895
0.00014613894
0.00014613893
0.00014613893
0.00014613893
0.00014613893
0.00014613892
0.00014613892
0.00014613892
0.00014613892
0.00014613892
0.00014613892
0.00014613892
0.00014613892
0.00014613892
0.00014613892
0.00014613891
0.00014613891
0.0001461389
0.00014690405
0.00014644653
0.00014635877
0.00014633513
0.00014632449
0.00014631842
0.00014631484
0.00014631292
0.00014631217
0.0001463123
0.00014631313
0.00014631451
0.00014631637
0.00014631863
0.00014632123
0.00014632413
0.00014632727
0.00014633061
0.00014633405
0.00014633763
0.00014634074
0.00014634738
0.00014632254
0.00014644541
0.00014329531
0.00011584616
0.00012158797
0.00012165156
0.00012166075
0.00012165834
0.00012165362
0.00012164999
0.0001216476
0.00012164565
0.00012164385
0.00012164216
0.00012164057
0.00012163904
0.00012163754
0.00012163605
0.00012163455
0.00012163305
0.00012163154
0.00012163001
0.00012162847
0.00012162691
0.00012162534
0.00012162375
0.00012162214
0.00012162051
0.00012161887
0.00012161722
0.00012161554
0.00012161386
0.00012161216
0.00012161044
0.00012160872
0.00012160698
0.00012160524
0.00012160348
0.00012160172
0.00012159995
0.00012159817
0.00012159638
0.0001215946
0.0001215928
0.00012159101
0.00012158921
0.00012158741
0.00012158561
0.00012158381
0.00012158201
0.00012158022
0.00012157843
0.00012157664
0.00012157485
0.00012157307
0.0001215713
0.00012156953
0.00012156778
0.00012156603
0.00012156429
0.00012156256
0.00012156084
0.00012155913
0.00012155743
0.00012155575
0.00012155409
0.00012155244
0.0001215508
0.00012154918
0.00012154758
0.000121546
0.00012154444
0.00012154289
0.00012154137
0.00012153987
0.00012153839
0.00012153693
0.0001215355
0.00012153409
0.00012153271
0.00012153135
0.00012153002
0.00012152871
0.00012152743
0.00012152618
0.00012152496
0.00012152377
0.00012152261
0.00012152149
0.00012152039
0.00012151932
0.00012151882
0.00012151873
0.00012151869
0.00012151868
0.00012151867
0.00012151867
0.00012151866
0.00012151866
0.00012151866
0.00012151866
0.00012151866
0.00012151865
0.00012151865
0.00012151865
0.00012151865
0.00012151865
0.00012151865
0.00012151865
0.00012151865
0.00012151865
0.00012151865
0.00012151865
0.00012151864
0.00014643999
0.00014586627
0.00014575215
0.00014572033
0.00014570576
0.00014569734
0.00014569226
0.00014568939
0.00014568807
0.00014568791
0.00014568865
0.00014569012
0.00014569219
0.00014569477
0.0001456978
0.0001457012
0.00014570491
0.00014570887
0.00014571297
0.00014571727
0.00014572094
0.00014572933
0.00014569689
0.00014588616
0.000115904
9.3230555e-05
9.6788823e-05
9.683868e-05
9.6844709e-05
9.6842547e-05
9.6839056e-05
9.6836415e-05
9.6834655e-05
9.6833201e-05
9.6831831e-05
9.6830528e-05
9.6829279e-05
9.6828056e-05
9.6826836e-05
9.6825611e-05
9.6824375e-05
9.6823124e-05
9.6821858e-05
9.6820573e-05
9.6819272e-05
9.6817952e-05
9.6816614e-05
9.681526e-05
9.6813889e-05
9.6812503e-05
9.6811101e-05
9.6809684e-05
9.6808254e-05
9.6806811e-05
9.6805356e-05
9.6803889e-05
9.6802412e-05
9.6800925e-05
9.6799429e-05
9.6797925e-05
9.6796414e-05
9.6794895e-05
9.6793371e-05
9.6791842e-05
9.679031e-05
9.6788773e-05
9.6787235e-05
9.6785694e-05
9.6784152e-05
9.6782611e-05
9.6781071e-05
9.6779531e-05
9.6777994e-05
9.6776458e-05
9.6774926e-05
9.6773398e-05
9.6771874e-05
9.6770356e-05
9.6768843e-05
9.6767337e-05
9.6765839e-05
9.6764349e-05
9.6762867e-05
9.6761395e-05
9.6759933e-05
9.6758482e-05
9.6757043e-05
9.6755617e-05
9.6754203e-05
9.6752803e-05
9.6751417e-05
9.6750047e-05
9.6748692e-05
9.6747353e-05
9.6746032e-05
9.6744728e-05
9.6743442e-05
9.6742175e-05
9.6740928e-05
9.6739701e-05
9.6738495e-05
9.6737311e-05
9.6736148e-05
9.6735008e-05
9.6733891e-05
9.6732797e-05
9.6731728e-05
9.6730684e-05
9.6729666e-05
9.6728673e-05
9.6727708e-05
9.6726771e-05
9.6725851e-05
9.6725418e-05
9.6725334e-05
9.6725306e-05
9.6725294e-05
9.6725287e-05
9.6725283e-05
9.672528e-05
9.6725278e-05
9.6725277e-05
9.6725276e-05
9.6725275e-05
9.6725274e-05
9.6725274e-05
9.6725274e-05
9.6725273e-05
9.6725273e-05
9.6725273e-05
9.6725273e-05
9.6725272e-05
9.6725272e-05
9.6725269e-05
9.6725271e-05
9.6725262e-05
0.00014588925
0.00014516976
0.00014502167
0.000144979
0.00014495916
0.00014494755
0.00014494043
0.00014493623
0.00014493408
0.00014493346
0.00014493401
0.0001449355
0.00014493778
0.00014494071
0.00014494421
0.00014494818
0.00014495255
0.00014495723
0.0001449621
0.00014496724
0.00014497157
0.00014498217
0.00014493989
0.00014521549
9.0157992e-05
7.1128629e-05
7.3252088e-05
7.3287167e-05
7.3289534e-05
7.3287103e-05
7.3284302e-05
7.3282261e-05
7.3280881e-05
7.3279736e-05
7.3278656e-05
7.3277621e-05
7.3276619e-05
7.3275626e-05
7.3274629e-05
7.3273619e-05
7.3272595e-05
7.3271553e-05
7.3270494e-05
7.3269416e-05
7.3268321e-05
7.3267209e-05
7.326608e-05
7.3264935e-05
7.3263775e-05
7.3262601e-05
7.3261413e-05
7.3260212e-05
7.3258998e-05
7.3257774e-05
7.3256538e-05
7.3255293e-05
7.3254038e-05
7.3252776e-05
7.3251505e-05
7.3250228e-05
7.3248944e-05
7.3247654e-05
7.324636e-05
7.3245061e-05
7.324376e-05
7.3242455e-05
7.3241148e-05
7.323984e-05
7.3238531e-05
7.3237223e-05
7.3235916e-05
7.3234609e-05
7.3233304e-05
7.3232001e-05
7.3230701e-05
7.3229404e-05
7.3228111e-05
7.3226822e-05
7.3225538e-05
7.3224261e-05
7.3222989e-05
7.3221724e-05
7.3220466e-05
7.3219217e-05
7.3217976e-05
7.3216745e-05
7.3215524e-05
7.3214313e-05
7.3213114e-05
7.3211926e-05
7.321075e-05
7.3209587e-05
7.3208437e-05
7.3207301e-05
7.3206179e-05
7.3205073e-05
7.3203982e-05
7.3202907e-05
7.3201849e-05
7.3200808e-05
7.3199785e-05
7.319878e-05
7.3197793e-05
7.3196826e-05
7.3195878e-05
7.319495e-05
7.3194043e-05
7.3193157e-05
7.3192294e-05
7.3191452e-05
7.3190633e-05
7.3189838e-05
7.3189057e-05
7.3188683e-05
7.3188606e-05
7.318858e-05
7.3188569e-05
7.3188563e-05
7.3188559e-05
7.3188557e-05
7.3188555e-05
7.3188554e-05
7.3188554e-05
7.3188553e-05
7.3188553e-05
7.3188553e-05
7.3188552e-05
7.3188552e-05
7.3188552e-05
7.3188552e-05
7.3188552e-05
7.3188551e-05
7.3188551e-05
7.318855e-05
7.318855e-05
7.3188544e-05
0.0001452403
0.00014433892
0.00014414731
0.00014409037
0.00014406348
0.0001440476
0.00014403769
0.00014403166
0.00014402833
0.000144027
0.00014402721
0.00014402865
0.00014403109
0.00014403437
0.00014403837
0.00014404298
0.00014404809
0.0001440536
0.00014405937
0.00014406551
0.00014407059
0.00014408395
0.00014402901
0.00014441591
6.7218135e-05
5.1038163e-05
5.2237117e-05
5.2257834e-05
5.2256546e-05
5.225359e-05
5.2251126e-05
5.2249423e-05
5.2248259e-05
5.2247302e-05
5.2246417e-05
5.2245574e-05
5.2244756e-05
5.2243945e-05
5.2243126e-05
5.2242296e-05
5.224145e-05
5.2240588e-05
5.2239709e-05
5.2238814e-05
5.2237902e-05
5.2236975e-05
5.2236033e-05
5.2235077e-05
5.2234107e-05
5.2233125e-05
5.2232132e-05
5.2231127e-05
5.2230111e-05
5.2229085e-05
5.2228051e-05
5.2227008e-05
5.2225957e-05
5.2224899e-05
5.2223835e-05
5.2222765e-05
5.2221689e-05
5.2220608e-05
5.2219524e-05
5.2218436e-05
5.2217346e-05
5.2216253e-05
5.2215159e-05
5.2214064e-05
5.2212968e-05
5.2211873e-05
5.2210779e-05
5.2209686e-05
5.2208593e-05
5.2207503e-05
5.2206415e-05
5.2205329e-05
5.2204247e-05
5.2203169e-05
5.2202095e-05
5.2201025e-05
5.2199961e-05
5.2198902e-05
5.219785e-05
5.2196805e-05
5.2195766e-05
5.2194736e-05
5.2193714e-05
5.2192701e-05
5.2191697e-05
5.2190703e-05
5.2189719e-05
5.2188746e-05
5.2187784e-05
5.2186833e-05
5.2185895e-05
5.2184969e-05
5.2184056e-05
5.2183157e-05
5.2182271e-05
5.21814e-05
5.2180544e-05
5.2179704e-05
5.2178879e-05
5.217807e-05
5.2177277e-05
5.2176501e-05
5.2175742e-05
5.2175001e-05
5.2174279e-05
5.2173575e-05
5.217289e-05
5.2172226e-05
5.2171572e-05
5.2171251e-05
5.217118e-05
5.2171156e-05
5.2171145e-05
5.217114e-05
5.2171137e-05
5.2171135e-05
5.2171134e-05
5.2171133e-05
5.2171132e-05
5.2171132e-05
5.2171132e-05
5.2171131e-05
5.2171131e-05
5.2171131e-05
5.2171131e-05
5.2171131e-05
5.2171131e-05
5.2171131e-05
5.217113e-05
5.2171129e-05
5.217113e-05
5.2171125e-05
0.0001444808
0.00014335376
0.00014310669
0.00014303108
0.00014299486
0.00014297327
0.00014295961
0.00014295106
0.00014294609
0.00014294373
0.00014294337
0.0001429446
0.00014294712
0.00014295073
0.00014295526
0.00014296056
0.00014296649
0.00014297295
0.00014297973
0.00014298703
0.00014299294
0.00014300977
0.00014293862
0.00014346772
4.7921363e-05
3.4069394e-05
3.4689447e-05
3.4697416e-05
3.4692906e-05
3.4689394e-05
3.4687071e-05
3.4685552e-05
3.4684509e-05
3.4683673e-05
3.4682925e-05
3.4682226e-05
3.4681555e-05
3.4680892e-05
3.4680225e-05
3.4679549e-05
3.467886e-05
3.4678158e-05
3.4677441e-05
3.4676711e-05
3.4675966e-05
3.4675209e-05
3.4674438e-05
3.4673656e-05
3.4672863e-05
3.4672059e-05
3.4671245e-05
3.4670421e-05
3.4669589e-05
3.4668748e-05
3.46679e-05
3.4667045e-05
3.4666183e-05
3.4665316e-05
3.4664444e-05
3.4663566e-05
3.4662684e-05
3.4661798e-05
3.4660909e-05
3.4660017e-05
3.4659124e-05
3.4658229e-05
3.4657333e-05
3.4656435e-05
3.4655537e-05
3.4654641e-05
3.4653745e-05
3.465285e-05
3.4651956e-05
3.4651063e-05
3.4650172e-05
3.4649283e-05
3.4648398e-05
3.4647515e-05
3.4646635e-05
3.464576e-05
3.4644889e-05
3.4644022e-05
3.4643161e-05
3.4642305e-05
3.4641455e-05
3.4640611e-05
3.4639775e-05
3.4638946e-05
3.4638125e-05
3.4637311e-05
3.4636506e-05
3.463571e-05
3.4634922e-05
3.4634144e-05
3.4633376e-05
3.4632619e-05
3.4631872e-05
3.4631136e-05
3.4630412e-05
3.4629699e-05
3.4628999e-05
3.4628311e-05
3.4627637e-05
3.4626975e-05
3.4626326e-05
3.4625692e-05
3.4625071e-05
3.4624465e-05
3.4623875e-05
3.46233e-05
3.462274e-05
3.4622196e-05
3.4621662e-05
3.4621392e-05
3.4621327e-05
3.4621305e-05
3.4621295e-05
3.462129e-05
3.4621288e-05
3.4621286e-05
3.4621285e-05
3.4621284e-05
3.4621283e-05
3.4621283e-05
3.4621283e-05
3.4621283e-05
3.4621283e-05
3.4621282e-05
3.4621282e-05
3.4621282e-05
3.4621282e-05
3.4621282e-05
3.4621282e-05
3.4621282e-05
3.4621282e-05
3.4621279e-05
0.00014359789
0.0001421924
0.0001418751
0.00014177524
0.00014172674
0.00014169758
0.0001416789
0.00014166696
0.00014165969
0.00014165584
0.00014165459
0.00014165541
0.00014165789
0.00014166176
0.00014166679
0.00014167281
0.00014167965
0.00014168715
0.00014169507
0.00014170369
0.00014171052
0.00014173165
0.0001416399
0.00014234906
3.2681399e-05
2.084593e-05
2.1120249e-05
2.1117999e-05
2.1111055e-05
2.1107142e-05
2.1104899e-05
2.1103495e-05
2.1102535e-05
2.1101788e-05
2.1101148e-05
2.1100567e-05
2.1100021e-05
2.1099487e-05
2.1098954e-05
2.1098416e-05
2.109787e-05
2.1097314e-05
2.1096747e-05
2.1096168e-05
2.1095579e-05
2.1094979e-05
2.1094369e-05
2.109375e-05
2.1093121e-05
2.1092484e-05
2.1091839e-05
2.1091186e-05
2.1090526e-05