/*--------------------------------*- C++ -*----------------------------------*\
| =========                 |                                                 |
| \\      /  F ield         | OpenFOAM: The Open Source CFD Toolbox           |
|  \\    /   O peration     | Version:  2206                                  |
|   \\  /    A nd           | Website:  www.openfoam.com                      |
|    \\/     M anipulation  |                                                 |
\*---------------------------------------------------------------------------*/
FoamFile
{
    version     2.0;
    format      ascii;
    arch        "LSB;label=32;scalar=64";
    class       volScalarField;
    location    "200";
    object      nut;
}
// * * * * * * * * * * * * * * * * * * * * * * * * * * * * * * * * * * * * * //

dimensions      [0 2 -1 0 0 0 0];

internalField   nonuniform List<scalar> 
13056
(
6.8540506e-09
6.8459512e-09
6.845017e-09
6.8448514e-09
6.844786e-09
6.8447528e-09
6.8447403e-09
6.8447429e-09
6.8447571e-09
6.8447802e-09
6.8448107e-09
6.8448474e-09
6.8448895e-09
6.844936e-09
6.8449862e-09
6.8450388e-09
6.845092e-09
6.845143e-09
6.8451838e-09
6.8452104e-09
6.8451459e-09
6.8450975e-09
6.8442726e-09
4.8180382e-09
1.1807105e-10
4.9236345e-11
9.9565676e-11
9.945555e-11
9.9403332e-11
9.9364205e-11
9.9330356e-11
9.9305824e-11
9.9288548e-11
9.9275488e-11
9.9265131e-11
9.9256771e-11
9.9249911e-11
9.9244164e-11
9.9239252e-11
9.9234978e-11
9.9231202e-11
9.9227818e-11
9.9224745e-11
9.9221919e-11
9.9219292e-11
9.9216825e-11
9.9214489e-11
9.9212259e-11
9.9210116e-11
9.9208042e-11
9.9206026e-11
9.9204057e-11
9.9202127e-11
9.9200227e-11
9.9198353e-11
9.9196499e-11
9.9194662e-11
9.9192838e-11
9.9191024e-11
9.9189219e-11
9.918742e-11
9.9185627e-11
9.9183837e-11
9.9182051e-11
9.9180267e-11
9.9178486e-11
9.9176706e-11
9.9174928e-11
9.9173152e-11
9.9171377e-11
9.9169605e-11
9.9167835e-11
9.9166067e-11
9.9164302e-11
9.9162541e-11
9.9160784e-11
9.9159031e-11
9.9157283e-11
9.9155541e-11
9.9153805e-11
9.9152075e-11
9.9150354e-11
9.914864e-11
9.9146936e-11
9.9145241e-11
9.9143557e-11
9.9141884e-11
9.9140222e-11
9.9138574e-11
9.9136939e-11
9.9135318e-11
9.9133713e-11
9.9132123e-11
9.9130549e-11
9.9128994e-11
9.9127456e-11
9.9125937e-11
9.9124438e-11
9.912296e-11
9.9121502e-11
9.9120067e-11
9.9118655e-11
9.9117267e-11
9.9115903e-11
9.9114564e-11
9.9113251e-11
9.9111965e-11
9.9110706e-11
9.9109476e-11
9.9108275e-11
9.9107104e-11
9.9105969e-11
9.9104851e-11
9.9104239e-11
9.9104027e-11
9.9103915e-11
9.9103843e-11
9.9103791e-11
9.9103752e-11
9.9103721e-11
9.9103696e-11
9.9103676e-11
9.910366e-11
9.9103646e-11
9.9103635e-11
9.9103625e-11
9.9103616e-11
9.9103609e-11
9.9103602e-11
9.9103596e-11
9.9103591e-11
9.9103584e-11
9.910358e-11
9.910356e-11
9.910356e-11
9.9103538e-11
6.8536986e-09
6.8454051e-09
6.844437e-09
6.8442629e-09
6.8441937e-09
6.8441583e-09
6.8441445e-09
6.8441464e-09
6.8441603e-09
6.8441835e-09
6.8442144e-09
6.8442516e-09
6.8442944e-09
6.8443419e-09
6.8443932e-09
6.8444473e-09
6.8445022e-09
6.8445557e-09
6.8446004e-09
6.8446327e-09
6.8445843e-09
6.8445545e-09
6.8438487e-09
4.8187343e-09
1.0042761e-10
2.5081285e-11
8.0732017e-11
8.0634955e-11
8.0587677e-11
8.0550764e-11
8.051798e-11
8.0494238e-11
8.0477671e-11
8.0465191e-11
8.045529e-11
8.0447293e-11
8.0440727e-11
8.0435218e-11
8.0430494e-11
8.0426369e-11
8.0422709e-11
8.0419412e-11
8.04164e-11
8.0413616e-11
8.0411011e-11
8.0408552e-11
8.0406209e-11
8.040396e-11
8.0401786e-11
8.0399673e-11
8.0397609e-11
8.0395585e-11
8.0393592e-11
8.0391624e-11
8.0389676e-11
8.0387744e-11
8.0385823e-11
8.0383913e-11
8.0382009e-11
8.038011e-11
8.0378215e-11
8.0376323e-11
8.0374433e-11
8.0372543e-11
8.0370655e-11
8.0368767e-11
8.036688e-11
8.0364993e-11
8.0363107e-11
8.0361222e-11
8.0359338e-11
8.0357456e-11
8.0355576e-11
8.0353698e-11
8.0351824e-11
8.0349954e-11
8.0348088e-11
8.0346228e-11
8.0344373e-11
8.0342524e-11
8.0340683e-11
8.0338851e-11
8.0337027e-11
8.0335212e-11
8.0333408e-11
8.0331615e-11
8.0329835e-11
8.0328066e-11
8.0326313e-11
8.0324574e-11
8.032285e-11
8.0321142e-11
8.0319451e-11
8.0317779e-11
8.0316125e-11
8.0314491e-11
8.0312877e-11
8.0311285e-11
8.0309714e-11
8.0308167e-11
8.0306644e-11
8.0305145e-11
8.0303672e-11
8.0302224e-11
8.0300804e-11
8.0299412e-11
8.0298049e-11
8.0296715e-11
8.0295412e-11
8.029414e-11
8.02929e-11
8.0291698e-11
8.0290515e-11
8.028988e-11
8.0289673e-11
8.0289568e-11
8.0289501e-11
8.0289454e-11
8.0289418e-11
8.028939e-11
8.0289368e-11
8.0289351e-11
8.0289336e-11
8.0289324e-11
8.0289314e-11
8.0289306e-11
8.0289298e-11
8.0289292e-11
8.0289286e-11
8.0289281e-11
8.0289276e-11
8.028927e-11
8.0289266e-11
8.0289247e-11
8.0289248e-11
8.0289226e-11
6.8525454e-09
6.843654e-09
6.8425814e-09
6.8423807e-09
6.8422996e-09
6.8422573e-09
6.8422395e-09
6.8422393e-09
6.8422523e-09
6.8422756e-09
6.8423073e-09
6.8423461e-09
6.8423909e-09
6.842441e-09
6.8424953e-09
6.8425528e-09
6.8426117e-09
6.84267e-09
6.8427209e-09
6.8427614e-09
6.8427312e-09
6.8427246e-09
6.842139e-09
4.8207908e-09
8.8219532e-11
2.8583713e-11
7.0688137e-11
7.0626859e-11
7.059459e-11
7.0567496e-11
7.0542617e-11
7.0524582e-11
7.05121e-11
7.0502714e-11
7.0495243e-11
7.048919e-11
7.0484204e-11
7.0480001e-11
7.0476377e-11
7.0473192e-11
7.0470345e-11
7.0467761e-11
7.0465382e-11
7.0463165e-11
7.0461076e-11
7.0459088e-11
7.0457181e-11
7.0455338e-11
7.0453547e-11
7.0451795e-11
7.0450076e-11
7.0448382e-11
7.0446708e-11
7.0445049e-11
7.0443401e-11
7.0441762e-11
7.0440129e-11
7.04385e-11
7.0436875e-11
7.0435251e-11
7.0433627e-11
7.0432004e-11
7.0430381e-11
7.0428757e-11
7.0427133e-11
7.0425508e-11
7.0423882e-11
7.0422256e-11
7.042063e-11
7.0419004e-11
7.0417379e-11
7.0415755e-11
7.0414133e-11
7.0412513e-11
7.0410895e-11
7.040928e-11
7.040767e-11
7.0406064e-11
7.0404463e-11
7.0402867e-11
7.0401278e-11
7.0399697e-11
7.0398123e-11
7.0396557e-11
7.0395001e-11
7.0393455e-11
7.0391919e-11
7.0390395e-11
7.0388883e-11
7.0387384e-11
7.0385898e-11
7.0384427e-11
7.0382971e-11
7.0381531e-11
7.0380107e-11
7.03787e-11
7.0377311e-11
7.0375941e-11
7.0374591e-11
7.037326e-11
7.0371951e-11
7.0370662e-11
7.0369397e-11
7.0368153e-11
7.0366934e-11
7.0365739e-11
7.0364568e-11
7.0363424e-11
7.0362306e-11
7.0361215e-11
7.0360152e-11
7.0359121e-11
7.0358108e-11
7.0357576e-11
7.0357416e-11
7.0357336e-11
7.0357287e-11
7.0357253e-11
7.0357227e-11
7.0357207e-11
7.0357191e-11
7.0357179e-11
7.0357169e-11
7.035716e-11
7.0357153e-11
7.0357147e-11
7.0357142e-11
7.0357137e-11
7.0357133e-11
7.035713e-11
7.0357126e-11
7.0357122e-11
7.0357119e-11
7.0357105e-11
7.0357106e-11
7.0357088e-11
6.8505473e-09
6.8406155e-09
6.8393592e-09
6.8391112e-09
6.8390087e-09
6.8389542e-09
6.838929e-09
6.8389248e-09
6.8389362e-09
6.8389595e-09
6.8389926e-09
6.8390339e-09
6.8390821e-09
6.8391362e-09
6.8391954e-09
6.8392584e-09
6.8393236e-09
6.8393888e-09
6.8394481e-09
6.8394987e-09
6.8394862e-09
6.8395049e-09
6.8390186e-09
4.8242471e-09
7.8255138e-11
3.2796486e-11
6.3314914e-11
6.3282446e-11
6.3262424e-11
6.3243688e-11
6.3225774e-11
6.3212761e-11
6.3203829e-11
6.3197115e-11
6.3191745e-11
6.3187372e-11
6.3183751e-11
6.318068e-11
6.3178012e-11
6.3175647e-11
6.3173513e-11
6.3171559e-11
6.3169744e-11
6.3168037e-11
6.3166415e-11
6.3164859e-11
6.3163356e-11
6.3161893e-11
6.3160462e-11
6.3159056e-11
6.3157669e-11
6.3156296e-11
6.3154934e-11
6.3153579e-11
6.315223e-11
6.3150885e-11
6.3149541e-11
6.3148199e-11
6.3146857e-11
6.3145514e-11
6.314417e-11
6.3142824e-11
6.3141478e-11
6.3140129e-11
6.313878e-11
6.3137429e-11
6.3136077e-11
6.3134724e-11
6.313337e-11
6.3132017e-11
6.3130664e-11
6.3129311e-11
6.312796e-11
6.312661e-11
6.3125263e-11
6.3123918e-11
6.3122576e-11
6.3121239e-11
6.3119905e-11
6.3118577e-11
6.3117253e-11
6.3115936e-11
6.3114626e-11
6.3113323e-11
6.3112028e-11
6.3110741e-11
6.3109464e-11
6.3108196e-11
6.3106938e-11
6.3105692e-11
6.3104457e-11
6.3103234e-11
6.3102024e-11
6.3100827e-11
6.3099645e-11
6.3098476e-11
6.3097323e-11
6.3096186e-11
6.3095065e-11
6.3093962e-11
6.3092875e-11
6.3091807e-11
6.3090757e-11
6.3089727e-11
6.3088716e-11
6.3087726e-11
6.3086757e-11
6.3085809e-11
6.3084883e-11
6.308398e-11
6.30831e-11
6.3082248e-11
6.3081409e-11
6.3080981e-11
6.308086e-11
6.3080803e-11
6.3080768e-11
6.3080744e-11
6.3080726e-11
6.3080713e-11
6.3080702e-11
6.3080693e-11
6.3080687e-11
6.3080681e-11
6.3080676e-11
6.3080672e-11
6.3080669e-11
6.3080666e-11
6.3080663e-11
6.3080661e-11
6.3080658e-11
6.3080655e-11
6.3080654e-11
6.3080643e-11
6.3080644e-11
6.3080629e-11
6.8476345e-09
6.8361549e-09
6.8346212e-09
6.8343007e-09
6.8341651e-09
6.8340914e-09
6.8340549e-09
6.8340442e-09
6.8340527e-09
6.8340758e-09
6.8341107e-09
6.8341553e-09
6.8342083e-09
6.8342683e-09
6.8343344e-09
6.8344052e-09
6.8344791e-09
6.8345539e-09
6.8346239e-09
6.834687e-09
6.8346926e-09
6.8347402e-09
6.8343358e-09
4.829155e-09
6.9268051e-11
3.5490815e-11
5.6739369e-11
5.6726697e-11
5.6715254e-11
5.6702662e-11
5.6690033e-11
5.6680833e-11
5.6674569e-11
5.6669857e-11
5.6666062e-11
5.666295e-11
5.6660356e-11
5.6658137e-11
5.6656191e-11
5.6654448e-11
5.6652859e-11
5.6651389e-11
5.6650009e-11
5.66487e-11
5.6647444e-11
5.664623e-11
5.6645048e-11
5.6643891e-11
5.6642752e-11
5.6641627e-11
5.6640512e-11
5.6639405e-11
5.6638302e-11
5.6637202e-11
5.6636103e-11
5.6635005e-11
5.6633907e-11
5.6632807e-11
5.6631706e-11
5.6630603e-11
5.6629498e-11
5.6628391e-11
5.6627282e-11
5.6626171e-11
5.6625059e-11
5.6623944e-11
5.6622829e-11
5.6621712e-11
5.6620595e-11
5.6619478e-11
5.661836e-11
5.6617243e-11
5.6616127e-11
5.6615013e-11
5.66139e-11
5.6612789e-11
5.6611681e-11
5.6610577e-11
5.6609475e-11
5.6608379e-11
5.6607286e-11
5.6606199e-11
5.6605118e-11
5.6604042e-11
5.6602974e-11
5.6601912e-11
5.6600859e-11
5.6599813e-11
5.6598776e-11
5.6597749e-11
5.6596731e-11
5.6595723e-11
5.6594726e-11
5.659374e-11
5.6592766e-11
5.6591804e-11
5.6590855e-11
5.6589919e-11
5.6588997e-11
5.6588088e-11
5.6587195e-11
5.6586316e-11
5.6585453e-11
5.6584606e-11
5.6583776e-11
5.6582962e-11
5.6582166e-11
5.6581387e-11
5.6580627e-11
5.6579885e-11
5.6579163e-11
5.6578463e-11
5.6577776e-11
5.6577431e-11
5.6577342e-11
5.6577301e-11
5.6577277e-11
5.657726e-11
5.6577248e-11
5.6577239e-11
5.6577232e-11
5.6577226e-11
5.6577221e-11
5.6577217e-11
5.6577214e-11
5.6577212e-11
5.657721e-11
5.6577208e-11
5.6577206e-11
5.6577204e-11
5.6577203e-11
5.6577201e-11
5.6577199e-11
5.6577192e-11
5.6577193e-11
5.6577181e-11
6.8437113e-09
6.8300828e-09
6.8281567e-09
6.8277315e-09
6.8275477e-09
6.827446e-09
6.8273925e-09
6.8273721e-09
6.827376e-09
6.8273982e-09
6.827435e-09
6.8274839e-09
6.827543e-09
6.8276108e-09
6.827686e-09
6.8277673e-09
6.8278526e-09
6.8279399e-09
6.8280236e-09
6.8281021e-09
6.828127e-09
6.8282088e-09
6.8278708e-09
4.835559e-09
6.0722933e-11
3.6052921e-11
5.0297963e-11
5.0298163e-11
5.0292486e-11
5.0284311e-11
5.0275625e-11
5.026927e-11
5.0264978e-11
5.0261742e-11
5.0259111e-11
5.0256933e-11
5.02551e-11
5.0253515e-11
5.0252108e-11
5.0250832e-11
5.0249655e-11
5.0248554e-11
5.0247508e-11
5.0246506e-11
5.0245536e-11
5.0244591e-11
5.0243663e-11
5.0242749e-11
5.0241845e-11
5.0240947e-11
5.0240054e-11
5.0239163e-11
5.0238273e-11
5.0237383e-11
5.0236492e-11
5.02356e-11
5.0234706e-11
5.0233809e-11
5.0232911e-11
5.023201e-11
5.0231107e-11
5.0230201e-11
5.0229293e-11
5.0228383e-11
5.0227471e-11
5.0226557e-11
5.0225643e-11
5.0224727e-11
5.022381e-11
5.0222893e-11
5.0221977e-11
5.022106e-11
5.0220145e-11
5.021923e-11
5.0218317e-11
5.0217406e-11
5.0216497e-11
5.0215591e-11
5.0214688e-11
5.0213788e-11
5.0212892e-11
5.0212001e-11
5.0211114e-11
5.0210233e-11
5.0209357e-11
5.0208487e-11
5.0207624e-11
5.0206767e-11
5.0205918e-11
5.0205076e-11
5.0204243e-11
5.0203418e-11
5.0202602e-11
5.0201795e-11
5.0200998e-11
5.0200211e-11
5.0199435e-11
5.0198669e-11
5.0197915e-11
5.0197172e-11
5.0196442e-11
5.0195724e-11
5.0195019e-11
5.0194327e-11
5.0193648e-11
5.0192984e-11
5.0192334e-11
5.0191698e-11
5.0191078e-11
5.0190473e-11
5.0189884e-11
5.0189313e-11
5.0188752e-11
5.0188477e-11
5.018841e-11
5.0188381e-11
5.0188365e-11
5.0188353e-11
5.0188345e-11
5.0188339e-11
5.0188334e-11
5.018833e-11
5.0188327e-11
5.0188325e-11
5.0188323e-11
5.0188321e-11
5.018832e-11
5.0188318e-11
5.0188317e-11
5.0188316e-11
5.0188315e-11
5.0188314e-11
5.0188313e-11
5.0188308e-11
5.0188309e-11
5.01883e-11
6.8386569e-09
6.8221515e-09
6.8196887e-09
6.8191168e-09
6.8188647e-09
6.8187231e-09
6.8186452e-09
6.8186105e-09
6.818607e-09
6.8186271e-09
6.8186658e-09
6.8187197e-09
6.8187864e-09
6.818864e-09
6.8189509e-09
6.8190453e-09
6.8191453e-09
6.8192485e-09
6.8193495e-09
6.8194468e-09
6.8194929e-09
6.8196163e-09
6.8193294e-09
4.8434895e-09
5.2424551e-11
3.4556046e-11
4.3786725e-11
4.3794324e-11
4.3792214e-11
4.3787063e-11
4.3781208e-11
4.37769e-11
4.3774012e-11
4.3771826e-11
4.3770026e-11
4.3768517e-11
4.3767231e-11
4.3766104e-11
4.3765089e-11
4.3764156e-11
4.3763283e-11
4.3762455e-11
4.376166e-11
4.376089e-11
4.3760139e-11
4.37594e-11
4.375867e-11
4.3757946e-11
4.3757226e-11
4.3756509e-11
4.3755792e-11
4.3755074e-11
4.3754356e-11
4.3753636e-11
4.3752914e-11
4.3752189e-11
4.3751462e-11
4.3750732e-11
4.375e-11
4.3749265e-11
4.3748527e-11
4.3747787e-11
4.3747045e-11
4.3746301e-11
4.3745556e-11
4.3744808e-11
4.374406e-11
4.3743311e-11
4.374256e-11
4.374181e-11
4.374106e-11
4.374031e-11
4.3739561e-11
4.3738812e-11
4.3738065e-11
4.373732e-11
4.3736576e-11
4.3735835e-11
4.3735096e-11
4.373436e-11
4.3733627e-11
4.3732898e-11
4.3732173e-11
4.3731453e-11
4.3730737e-11
4.3730026e-11
4.372932e-11
4.372862e-11
4.3727926e-11
4.3727239e-11
4.3726558e-11
4.3725884e-11
4.3725218e-11
4.3724559e-11
4.3723908e-11
4.3723266e-11
4.3722633e-11
4.3722008e-11
4.3721393e-11
4.3720787e-11
4.3720191e-11
4.3719606e-11
4.3719031e-11
4.3718467e-11
4.3717914e-11
4.3717373e-11
4.3716843e-11
4.3716325e-11
4.371582e-11
4.3715327e-11
4.3714848e-11
4.3714383e-11
4.3713926e-11
4.3713706e-11
4.3713656e-11
4.3713635e-11
4.3713624e-11
4.3713616e-11
4.3713611e-11
4.3713607e-11
4.3713604e-11
4.3713601e-11
4.3713599e-11
4.3713598e-11
4.3713596e-11
4.3713595e-11
4.3713594e-11
4.3713594e-11
4.3713593e-11
4.3713592e-11
4.3713592e-11
4.3713591e-11
4.371359e-11
4.3713586e-11
4.3713587e-11
4.3713581e-11
6.8323261e-09
6.8120508e-09
6.8088676e-09
6.8080937e-09
6.8077465e-09
6.807549e-09
6.8074365e-09
6.807381e-09
6.8073663e-09
6.8073823e-09
6.8074222e-09
6.8074816e-09
6.8075572e-09
6.8076467e-09
6.807748e-09
6.8078589e-09
6.8079772e-09
6.8081003e-09
6.8082225e-09
6.8083432e-09
6.8084131e-09
6.8085878e-09
6.8083351e-09
4.8529521e-09
4.4364437e-11
3.1415076e-11
3.7215509e-11
3.7226528e-11
3.7226405e-11
3.7223243e-11
3.7219368e-11
3.7216501e-11
3.721459e-11
3.7213133e-11
3.7211914e-11
3.7210877e-11
3.7209978e-11
3.7209177e-11
3.7208444e-11
3.7207758e-11
3.7207107e-11
3.7206482e-11
3.7205875e-11
3.720528e-11
3.7204694e-11
3.7204114e-11
3.7203537e-11
3.7202962e-11
3.7202387e-11
3.7201812e-11
3.7201236e-11
3.7200657e-11
3.7200076e-11
3.7199493e-11
3.7198907e-11
3.7198318e-11
3.7197727e-11
3.7197133e-11
3.7196536e-11
3.7195937e-11
3.7195335e-11
3.7194732e-11
3.7194126e-11
3.7193518e-11
3.7192909e-11
3.7192299e-11
3.7191687e-11
3.7191075e-11
3.7190462e-11
3.7189849e-11
3.7189236e-11
3.7188623e-11
3.7188011e-11
3.7187399e-11
3.7186789e-11
3.718618e-11
3.7185573e-11
3.7184967e-11
3.7184364e-11
3.7183763e-11
3.7183164e-11
3.7182569e-11
3.7181977e-11
3.7181389e-11
3.7180805e-11
3.7180224e-11
3.7179649e-11
3.7179077e-11
3.7178511e-11
3.7177951e-11
3.7177395e-11
3.7176846e-11
3.7176302e-11
3.7175765e-11
3.7175235e-11
3.7174711e-11
3.7174195e-11
3.7173686e-11
3.7173185e-11
3.7172691e-11
3.7172206e-11
3.7171729e-11
3.7171261e-11
3.7170802e-11
3.7170352e-11
3.7169911e-11
3.716948e-11
3.7169058e-11
3.7168647e-11
3.7168246e-11
3.7167856e-11
3.7167478e-11
3.7167107e-11
3.7166929e-11
3.7166892e-11
3.7166877e-11
3.7166869e-11
3.7166864e-11
3.716686e-11
3.7166857e-11
3.7166855e-11
3.7166854e-11
3.7166853e-11
3.7166852e-11
3.7166851e-11
3.716685e-11
3.716685e-11
3.7166849e-11
3.7166849e-11
3.7166848e-11
3.7166848e-11
3.7166847e-11
3.7166847e-11
3.7166844e-11
3.7166845e-11
3.716684e-11
6.8245509e-09
6.7994029e-09
6.7952644e-09
6.7942155e-09
6.7937373e-09
6.7934621e-09
6.7933011e-09
6.7932157e-09
6.7931842e-09
6.7931928e-09
6.7932326e-09
6.7932976e-09
6.7933834e-09
6.793487e-09
6.7936056e-09
6.7937366e-09
6.7938773e-09
6.7940248e-09
6.7941731e-09
6.7943222e-09
6.7944193e-09
6.7946581e-09
6.7944191e-09
4.8639158e-09
3.6641043e-11
2.7172512e-11
3.0713906e-11
3.0725593e-11
3.0726359e-11
3.0724438e-11
3.0721911e-11
3.072003e-11
3.0718782e-11
3.071782e-11
3.0716999e-11
3.0716287e-11
3.0715658e-11
3.0715086e-11
3.0714553e-11
3.0714046e-11
3.0713557e-11
3.0713081e-11
3.0712613e-11
3.0712151e-11
3.0711692e-11
3.0711233e-11
3.0710775e-11
3.0710316e-11
3.0709856e-11
3.0709394e-11
3.0708929e-11
3.0708461e-11
3.0707991e-11
3.0707518e-11
3.0707042e-11
3.0706564e-11
3.0706083e-11
3.0705599e-11
3.0705113e-11
3.0704624e-11
3.0704134e-11
3.0703641e-11
3.0703147e-11
3.0702651e-11
3.0702154e-11
3.0701656e-11
3.0701157e-11
3.0700657e-11
3.0700156e-11
3.0699656e-11
3.0699156e-11
3.0698656e-11
3.0698156e-11
3.0697657e-11
3.0697159e-11
3.0696662e-11
3.0696166e-11
3.0695672e-11
3.069518e-11
3.069469e-11
3.0694202e-11
3.0693717e-11
3.0693234e-11
3.0692754e-11
3.0692278e-11
3.0691805e-11
3.0691335e-11
3.069087e-11
3.0690408e-11
3.0689951e-11
3.0689499e-11
3.0689051e-11
3.0688608e-11
3.0688171e-11
3.0687739e-11
3.0687312e-11
3.0686892e-11
3.0686477e-11
3.0686069e-11
3.0685667e-11
3.0685272e-11
3.0684884e-11
3.0684503e-11
3.0684129e-11
3.0683763e-11
3.0683404e-11
3.0683053e-11
3.0682711e-11
3.0682376e-11
3.068205e-11
3.0681733e-11
3.0681426e-11
3.0681123e-11
3.068098e-11
3.0680951e-11
3.068094e-11
3.0680934e-11
3.0680931e-11
3.0680928e-11
3.0680927e-11
3.0680925e-11
3.0680924e-11
3.0680924e-11
3.0680923e-11
3.0680922e-11
3.0680922e-11
3.0680922e-11
3.0680921e-11
3.0680921e-11
3.0680921e-11
3.0680921e-11
3.068092e-11
3.068092e-11
3.0680918e-11
3.0680919e-11
3.0680915e-11
6.8151429e-09
6.7837568e-09
6.7783626e-09
6.7769424e-09
6.7762852e-09
6.7759031e-09
6.7756745e-09
6.7755467e-09
6.7754903e-09
6.7754867e-09
6.7755238e-09
6.7755937e-09
6.7756906e-09
6.7758104e-09
6.7759494e-09
6.7761045e-09
6.7762722e-09
6.7764494e-09
6.7766292e-09
6.7768128e-09
6.7769412e-09
6.7772604e-09
6.7770087e-09
4.8762974e-09
2.9409647e-11
2.2373879e-11
2.4474224e-11
2.4484829e-11
2.4485762e-11
2.4484561e-11
2.4482918e-11
2.4481693e-11
2.448088e-11
2.4480245e-11
2.4479691e-11
2.4479199e-11
2.4478756e-11
2.4478344e-11
2.4477952e-11
2.4477573e-11
2.4477202e-11
2.4476837e-11
2.4476474e-11
2.4476111e-11
2.4475749e-11
2.4475385e-11
2.447502e-11
2.4474652e-11
2.4474282e-11
2.4473909e-11
2.4473534e-11
2.4473156e-11
2.4472775e-11
2.4472391e-11
2.4472005e-11
2.4471616e-11
2.4471224e-11
2.4470831e-11
2.4470435e-11
2.4470037e-11
2.4469637e-11
2.4469236e-11
2.4468833e-11
2.4468429e-11
2.4468024e-11
2.4467617e-11
2.4467211e-11
2.4466803e-11
2.4466395e-11
2.4465987e-11
2.446558e-11
2.4465172e-11
2.4464765e-11
2.4464358e-11
2.4463953e-11
2.4463548e-11
2.4463144e-11
2.4462741e-11
2.446234e-11
2.4461941e-11
2.4461544e-11
2.4461148e-11
2.4460755e-11
2.4460365e-11
2.4459977e-11
2.4459591e-11
2.4459209e-11
2.445883e-11
2.4458455e-11
2.4458083e-11
2.4457714e-11
2.445735e-11
2.4456989e-11
2.4456633e-11
2.4456282e-11
2.4455935e-11
2.4455593e-11
2.4455255e-11
2.4454923e-11
2.4454597e-11
2.4454275e-11
2.445396e-11
2.445365e-11
2.4453346e-11
2.4453048e-11
2.4452757e-11
2.4452471e-11
2.4452193e-11
2.4451921e-11
2.4451656e-11
2.4451398e-11
2.4451148e-11
2.4450903e-11
2.4450786e-11
2.4450763e-11
2.4450754e-11
2.445075e-11
2.4450748e-11
2.4450746e-11
2.4450745e-11
2.4450744e-11
2.4450743e-11
2.4450743e-11
2.4450743e-11
2.4450742e-11
2.4450742e-11
2.4450742e-11
2.4450742e-11
2.4450741e-11
2.4450741e-11
2.4450741e-11
2.4450741e-11
2.4450741e-11
2.445074e-11
2.445074e-11
2.4450737e-11
6.803897e-09
6.7645838e-09
6.7575505e-09
6.755632e-09
6.7547317e-09
6.7542036e-09
6.7538816e-09
6.7536942e-09
6.7536014e-09
6.7535783e-09
6.7536087e-09
6.7536819e-09
6.7537901e-09
6.7539279e-09
6.7540904e-09
6.7542738e-09
6.7544737e-09
6.7546863e-09
6.754904e-09
6.7551292e-09
6.7552935e-09
6.7557139e-09
6.7554145e-09
4.8899438e-09
2.2842864e-11
1.7503243e-11
1.8709662e-11
1.8718202e-11
1.8718877e-11
1.8718047e-11
1.8716962e-11
1.8716158e-11
1.8715621e-11
1.8715196e-11
1.8714816e-11
1.8714472e-11
1.8714155e-11
1.8713854e-11
1.8713562e-11
1.8713276e-11
1.8712991e-11
1.8712708e-11
1.8712424e-11
1.8712138e-11
1.8711851e-11
1.8711561e-11
1.8711269e-11
1.8710974e-11
1.8710677e-11
1.8710376e-11
1.8710073e-11
1.8709768e-11
1.8709459e-11
1.8709148e-11
1.8708835e-11
1.8708519e-11
1.8708202e-11
1.8707882e-11
1.8707561e-11
1.8707237e-11
1.8706913e-11
1.8706586e-11
1.8706259e-11
1.8705931e-11
1.8705601e-11
1.8705271e-11
1.870494e-11
1.8704609e-11
1.8704278e-11
1.8703947e-11
1.8703615e-11
1.8703284e-11
1.8702954e-11
1.8702623e-11
1.8702294e-11
1.8701965e-11
1.8701637e-11
1.870131e-11
1.8700985e-11
1.870066e-11
1.8700338e-11
1.8700017e-11
1.8699697e-11
1.869938e-11
1.8699065e-11
1.8698752e-11
1.8698442e-11
1.8698135e-11
1.869783e-11
1.8697528e-11
1.8697229e-11
1.8696933e-11
1.8696641e-11
1.8696352e-11
1.8696066e-11
1.8695785e-11
1.8695507e-11
1.8695234e-11
1.8694964e-11
1.8694699e-11
1.8694439e-11
1.8694183e-11
1.8693931e-11
1.8693685e-11
1.8693443e-11
1.8693207e-11
1.8692976e-11
1.869275e-11
1.869253e-11
1.8692315e-11
1.8692106e-11
1.8691903e-11
1.8691704e-11
1.8691609e-11
1.8691589e-11
1.8691583e-11
1.8691579e-11
1.8691578e-11
1.8691576e-11
1.8691576e-11
1.8691575e-11
1.8691575e-11
1.8691574e-11
1.8691574e-11
1.8691574e-11
1.8691574e-11
1.8691574e-11
1.8691574e-11
1.8691574e-11
1.8691573e-11
1.8691573e-11
1.8691573e-11
1.8691573e-11
1.8691572e-11
1.8691573e-11
1.8691571e-11
6.7905971e-09
6.7412722e-09
6.7321122e-09
6.7295296e-09
6.7283015e-09
6.727575e-09
6.7271249e-09
6.7268544e-09
6.7267092e-09
6.7266562e-09
6.7266735e-09
6.7267467e-09
6.7268656e-09
6.7270226e-09
6.7272116e-09
6.7274275e-09
6.7276651e-09
6.7279195e-09
6.7281822e-09
6.7284572e-09
6.7286625e-09
6.7292099e-09
6.7288159e-09
4.9046002e-09
1.7096939e-11
1.2951659e-11
1.361817e-11
1.3624248e-11
1.362446e-11
1.3623788e-11
1.3623039e-11
1.3622494e-11
1.3622127e-11
1.3621832e-11
1.3621565e-11
1.3621319e-11
1.3621088e-11
1.3620864e-11
1.3620644e-11
1.3620425e-11
1.3620206e-11
1.3619985e-11
1.3619762e-11
1.3619537e-11
1.3619309e-11
1.3619079e-11
1.3618846e-11
1.361861e-11
1.3618372e-11
1.361813e-11
1.3617887e-11
1.3617641e-11
1.3617393e-11
1.3617142e-11
1.361689e-11
1.3616635e-11
1.3616379e-11
1.3616121e-11
1.3615862e-11
1.3615601e-11
1.3615339e-11
1.3615076e-11
1.3614811e-11
1.3614546e-11
1.361428e-11
1.3614014e-11
1.3613747e-11
1.361348e-11
1.3613212e-11
1.3612945e-11
1.3612678e-11
1.3612411e-11
1.3612144e-11
1.3611878e-11
1.3611612e-11
1.3611347e-11
1.3611082e-11
1.3610819e-11
1.3610556e-11
1.3610295e-11
1.3610035e-11
1.3609776e-11
1.3609518e-11
1.3609263e-11
1.3609009e-11
1.3608756e-11
1.3608506e-11
1.3608258e-11
1.3608013e-11
1.3607769e-11
1.3607528e-11
1.360729e-11
1.3607054e-11
1.3606821e-11
1.3606591e-11
1.3606364e-11
1.3606141e-11
1.360592e-11
1.3605703e-11
1.360549e-11
1.360528e-11
1.3605073e-11
1.3604871e-11
1.3604672e-11
1.3604478e-11
1.3604287e-11
1.3604101e-11
1.3603919e-11
1.3603742e-11
1.3603569e-11
1.3603401e-11
1.3603237e-11
1.3603077e-11
1.3602999e-11
1.3602983e-11
1.3602977e-11
1.3602974e-11
1.3602973e-11
1.3602972e-11
1.3602972e-11
1.3602971e-11
1.3602971e-11
1.3602971e-11
1.3602971e-11
1.3602971e-11
1.360297e-11
1.360297e-11
1.360297e-11
1.360297e-11
1.360297e-11
1.360297e-11
1.360297e-11
1.360297e-11
1.360297e-11
1.360297e-11
1.3602968e-11
6.7750237e-09
6.7131242e-09
6.7012215e-09
6.6977592e-09
6.6960918e-09
6.6950975e-09
6.6944731e-09
6.6940874e-09
6.6938681e-09
6.6937702e-09
6.6937649e-09
6.6938327e-09
6.6939598e-09
6.6941364e-09
6.6943544e-09
6.694607e-09
6.6948878e-09
6.695191e-09
6.6955062e-09
6.6958402e-09
6.696092e-09
6.6967988e-09
6.6962465e-09
4.9198943e-09
1.228296e-11
9.0010761e-12
9.3507887e-12
9.3544399e-12
9.3541474e-12
9.3535199e-12
9.3529641e-12
9.3525746e-12
9.352309e-12
9.3520945e-12
9.3519005e-12
9.3517198e-12
9.3515479e-12
9.35138e-12
9.3512129e-12
9.3510451e-12
9.3508757e-12
9.3507042e-12
9.3505303e-12
9.3503539e-12
9.3501748e-12
9.3499931e-12
9.3498089e-12
9.3496223e-12
9.3494333e-12
9.3492421e-12
9.3490487e-12
9.3488533e-12
9.3486559e-12
9.3484567e-12
9.3482557e-12
9.3480532e-12
9.3478492e-12
9.3476439e-12
9.3474374e-12
9.3472297e-12
9.3470209e-12
9.3468112e-12
9.3466007e-12
9.3463896e-12
9.346178e-12
9.3459659e-12
9.3457535e-12
9.3455407e-12
9.3453278e-12
9.3451152e-12
9.3449027e-12
9.3446903e-12
9.3444781e-12
9.3442662e-12
9.3440547e-12
9.3438437e-12
9.3436334e-12
9.3434237e-12
9.3432149e-12
9.3430069e-12
9.3427999e-12
9.3425941e-12
9.3423894e-12
9.342186e-12
9.3419839e-12
9.3417834e-12
9.3415845e-12
9.3413874e-12
9.341192e-12
9.3409984e-12
9.3408068e-12
9.3406173e-12
9.3404299e-12
9.3402447e-12
9.3400619e-12
9.3398815e-12
9.3397036e-12
9.3395284e-12
9.3393558e-12
9.339186e-12
9.3390191e-12
9.3388552e-12
9.3386943e-12
9.3385365e-12
9.3383819e-12
9.3382306e-12
9.3380825e-12
9.337938e-12
9.337797e-12
9.3376598e-12
9.3375261e-12
9.3373964e-12
9.3372688e-12
9.3372058e-12
9.3371916e-12
9.3371869e-12
9.3371847e-12
9.3371836e-12
9.337183e-12
9.3371826e-12
9.3371823e-12
9.3371821e-12
9.337182e-12
9.3371819e-12
9.3371818e-12
9.3371817e-12
9.3371817e-12
9.3371817e-12
9.3371816e-12
9.3371816e-12
9.3371816e-12
9.3371815e-12
9.3371815e-12
9.3371813e-12
9.3371814e-12
9.3371804e-12
6.7569651e-09
6.6793556e-09
6.6639357e-09
6.6593157e-09
6.6570632e-09
6.6557101e-09
6.6548499e-09
6.6543066e-09
6.6539832e-09
6.6538199e-09
6.6537781e-09
6.6538317e-09
6.6539625e-09
6.6541574e-09
6.6544057e-09
6.6546987e-09
6.6550282e-09
6.6553872e-09
6.6557632e-09
6.6561663e-09
6.65647e-09
6.6573758e-09
6.6565802e-09
4.9353056e-09
8.446085e-12
5.8167445e-12
5.9870705e-12
5.9886289e-12
5.9879056e-12
5.9872803e-12
5.9868359e-12
5.9865389e-12
5.9863347e-12
5.9861711e-12
5.9860253e-12
5.9858901e-12
5.9857612e-12
5.9856347e-12
5.9855083e-12
5.9853808e-12
5.9852516e-12
5.9851203e-12
5.9849867e-12
5.9848509e-12
5.9847127e-12
5.9845723e-12
5.9844298e-12
5.9842852e-12
5.9841387e-12
5.9839903e-12
5.9838402e-12
5.9836884e-12
5.983535e-12
5.9833801e-12
5.9832239e-12
5.9830664e-12
5.9829077e-12
5.982748e-12
5.9825874e-12
5.9824258e-12
5.9822634e-12
5.9821002e-12
5.9819365e-12
5.9817723e-12
5.9816077e-12
5.9814428e-12
5.9812777e-12
5.9811123e-12
5.9809468e-12
5.9807816e-12
5.9806165e-12
5.9804514e-12
5.9802866e-12
5.980122e-12
5.9799577e-12
5.9797938e-12
5.9796304e-12
5.9794676e-12
5.9793053e-12
5.9791438e-12
5.978983e-12
5.9788231e-12
5.9786641e-12
5.9785062e-12
5.9783493e-12
5.9781935e-12
5.9780391e-12
5.977886e-12
5.9777343e-12
5.9775841e-12
5.9774353e-12
5.9772882e-12
5.9771427e-12
5.9769989e-12
5.976857e-12
5.9767169e-12
5.9765789e-12
5.9764428e-12
5.9763089e-12
5.9761771e-12
5.9760476e-12
5.9759205e-12
5.9757956e-12
5.9756732e-12
5.9755532e-12
5.9754358e-12
5.975321e-12
5.9752088e-12
5.9750996e-12
5.9749931e-12
5.9748894e-12
5.9747889e-12
5.9746898e-12
5.9746399e-12
5.9746279e-12
5.9746238e-12
5.974622e-12
5.9746211e-12
5.9746205e-12
5.9746202e-12
5.97462e-12
5.9746199e-12
5.9746198e-12
5.9746197e-12
5.9746196e-12
5.9746196e-12
5.9746196e-12
5.9746195e-12
5.9746195e-12
5.9746195e-12
5.9746195e-12
5.9746195e-12
5.9746195e-12
5.9746193e-12
5.9746194e-12
5.9746188e-12
6.7362325e-09
6.6390971e-09
6.6191938e-09
6.6130602e-09
6.6100341e-09
6.6082033e-09
6.6070267e-09
6.6062694e-09
6.6058018e-09
6.6055446e-09
6.6054465e-09
6.6054729e-09
6.6055997e-09
6.6058091e-09
6.6060875e-09
6.6064236e-09
6.6068067e-09
6.6072284e-09
6.6076734e-09
6.6081564e-09
6.608517e-09
6.6096702e-09
6.6085178e-09
4.9501349e-09
5.5564177e-12
3.4481096e-12
3.5217712e-12
3.5217523e-12
3.5207426e-12
3.5201264e-12
3.5197538e-12
3.5195161e-12
3.5193525e-12
3.519224e-12
3.5191126e-12
3.519011e-12
3.5189149e-12
3.5188209e-12
3.5187272e-12
3.5186327e-12
3.5185368e-12
3.5184392e-12
3.5183399e-12
3.5182387e-12
3.5181357e-12
3.5180309e-12
3.5179244e-12
3.5178163e-12
3.5177067e-12
3.5175957e-12
3.5174833e-12
3.5173696e-12
3.5172547e-12
3.5171387e-12
3.5170216e-12
3.5169035e-12
3.5167846e-12
3.5166649e-12
3.5165445e-12
3.5164234e-12
3.5163016e-12
3.5161793e-12
3.5160566e-12
3.5159336e-12
3.5158103e-12
3.5156868e-12
3.5155631e-12
3.5154393e-12
3.5153154e-12
3.5151917e-12
3.5150681e-12
3.5149446e-12
3.5148212e-12
3.5146981e-12
3.5145751e-12
3.5144525e-12
3.5143303e-12
3.5142084e-12
3.5140871e-12
3.5139662e-12
3.513846e-12
3.5137263e-12
3.5136074e-12
3.5134893e-12
3.5133719e-12
3.5132554e-12
3.5131399e-12
3.5130255e-12
3.5129121e-12
3.5127998e-12
3.5126886e-12
3.5125786e-12
3.5124698e-12
3.5123624e-12
3.5122563e-12
3.5121516e-12
3.5120484e-12
3.5119468e-12
3.5118467e-12
3.5117483e-12
3.5116515e-12
3.5115566e-12
3.5114633e-12
3.5113719e-12
3.5112823e-12
3.5111946e-12
3.5111089e-12
3.5110252e-12
3.5109436e-12
3.5108641e-12
3.5107867e-12
3.5107117e-12
3.5106377e-12
3.5105995e-12
3.5105897e-12
3.5105863e-12
3.5105848e-12
3.5105841e-12
3.5105836e-12
3.5105834e-12
3.5105832e-12
3.5105831e-12
3.510583e-12
3.5105829e-12
3.5105829e-12
3.5105829e-12
3.5105829e-12
3.5105828e-12
3.5105828e-12
3.5105828e-12
3.5105828e-12
3.5105828e-12
3.5105828e-12
3.5105827e-12
3.5105828e-12
3.5105824e-12
6.7126803e-09
6.5914026e-09
6.5658189e-09
6.5577199e-09
6.5536782e-09
6.551216e-09
6.5496183e-09
6.5485726e-09
6.5479076e-09
6.5475182e-09
6.5473365e-09
6.5473167e-09
6.547427e-09
6.547644e-09
6.5479497e-09
6.5483295e-09
6.5487699e-09
6.5492604e-09
6.5497823e-09
6.5503565e-09
6.5507778e-09
6.5522367e-09
6.550578e-09
4.9634758e-09
3.5141605e-12
1.8412009e-12
1.8666637e-12
1.8656561e-12
1.8645378e-12
1.8639652e-12
1.8636523e-12
1.8634597e-12
1.863328e-12
1.8632272e-12
1.8631428e-12
1.8630678e-12
1.8629981e-12
1.8629306e-12
1.8628638e-12
1.8627967e-12
1.8627288e-12
1.8626598e-12
1.8625896e-12
1.862518e-12
1.8624451e-12
1.862371e-12
1.8622956e-12
1.8622191e-12
1.8621414e-12
1.8620627e-12
1.8619831e-12
1.8619024e-12
1.8618209e-12
1.8617386e-12