/*--------------------------------*- C++ -*----------------------------------*\
| =========                 |                                                 |
| \\      /  F ield         | OpenFOAM: The Open Source CFD Toolbox           |
|  \\    /   O peration     | Version:  2206                                  |
|   \\  /    A nd           | Website:  www.openfoam.com                      |
|    \\/     M anipulation  |                                                 |
\*---------------------------------------------------------------------------*/
FoamFile
{
    version     2.0;
    format      ascii;
    arch        "LSB;label=32;scalar=64";
    class       volScalarField;
    location    "200";
    object      p;
}
// * * * * * * * * * * * * * * * * * * * * * * * * * * * * * * * * * * * * * //

dimensions      [0 2 -2 0 0 0 0];

internalField   nonuniform List<scalar> 
13056
(
0.0036481616
0.0036924338
0.0037859078
0.0039064556
0.0040547173
0.0042312269
0.0044358838
0.0046693912
0.0049335222
0.0052310145
0.0055656056
0.0059423193
0.0063678168
0.0068513686
0.0074051726
0.0080485459
0.0088042562
0.0097240169
0.010841518
0.012361258
0.014208067
0.017557464
0.020551034
0.053387365
0.025150823
-0.017888902
-0.011048791
-0.0073662999
-0.0054085186
-0.004461459
-0.0037008782
-0.0031107668
-0.0026676608
-0.0023149155
-0.0020226692
-0.0017764864
-0.0015660989
-0.0013836715
-0.0012235621
-0.0010816936
-0.00095499663
-0.00084109609
-0.00073810578
-0.00064449884
-0.00055901365
-0.00048063562
-0.00040853929
-0.00034202919
-0.00028051026
-0.00022347372
-0.00017048523
-0.00012117045
-7.5204414e-05
-3.2303742e-05
7.7800061e-06
4.5265435e-05
8.0345706e-05
0.0001131924
0.00014395874
0.00017278214
0.00019978597
0.00022508144
0.00024876901
0.00027093978
0.00029167652
0.00031105464
0.00032914294
0.00034600437
0.00036169651
0.00037627231
0.0003897806
0.00040226621
0.00041377049
0.00042433158
0.0004339848
0.0004427628
0.00045069582
0.00045781191
0.00046413702
0.0004696952
0.00047450809
0.00047859603
0.00048197904
0.00048467471
0.00048669967
0.00048806189
0.00048880453
0.00048891086
0.00048837501
0.00048724398
0.00048551301
0.00048318882
0.00048027883
0.0004767887
0.00047272177
0.00046808
0.00046286429
0.00045707349
0.00045070384
0.00044374998
0.00043620498
0.00042805825
0.00041929524
0.00040989735
0.00039983875
0.00038908641
0.00037759822
0.00036531607
0.0003521532
0.00033798887
0.00032257952
0.00030562495
0.00028535692
0.00026375325
0.00024571252
0.00023101929
0.00021754158
0.00020452686
0.00019183154
0.00017936707
0.00016705139
0.0001548441
0.00014273671
0.00013073633
0.00011886027
0.00010713529
9.5601935e-05
8.4310051e-05
7.3345403e-05
6.2777428e-05
5.2899413e-05
4.3582993e-05
3.6754967e-05
2.9067902e-05
4.4605655e-05
-3.1233059e-05
0.0036481616
0.0036924338
0.0037859078
0.0039064556
0.0040547173
0.004231227
0.0044358838
0.0046693912
0.0049335223
0.0052310145
0.0055656057
0.0059423194
0.006367817
0.0068513688
0.0074051728
0.0080485463
0.0088042568
0.0097240178
0.010841519
0.012361261
0.014208071
0.01755747
0.020551041
0.053377936
0.025160736
-0.017885026
-0.011048487
-0.0073662633
-0.005408499
-0.0044614439
-0.0037008664
-0.0031107584
-0.0026676548
-0.0023149109
-0.0020226656
-0.0017764835
-0.0015660965
-0.0013836695
-0.0012235604
-0.0010816922
-0.00095499536
-0.00084109496
-0.00073810476
-0.00064449792
-0.00055901281
-0.00048063484
-0.00040853855
-0.00034202851
-0.00028050961
-0.0002234731
-0.00017048464
-0.00012116988
-7.5203866e-05
-3.2303211e-05
7.78052e-06
4.5265934e-05
8.0346192e-05
0.00011319287
0.0001439592
0.00017278259
0.00019978642
0.00022508187
0.00024876943
0.0002709402
0.00029167692
0.00031105503
0.00032914332
0.00034600474
0.00036169688
0.00037627267
0.00038978095
0.00040226656
0.00041377082
0.0004243319
0.00043398512
0.00044276311
0.00045069612
0.0004578122
0.0004641373
0.00046969547
0.00047450835
0.00047859629
0.00048197929
0.00048467494
0.0004866999
0.00048806211
0.00048880474
0.00048891107
0.0004883752
0.00048724416
0.00048551319
0.00048318899
0.00048027899
0.00047678886
0.00047272191
0.00046808014
0.00046286442
0.00045707362
0.00045070395
0.0004437501
0.00043620508
0.00042805835
0.00041929533
0.00040989743
0.00039983883
0.00038908649
0.00037759828
0.00036531613
0.00035215326
0.00033798893
0.00032257957
0.00030562499
0.00028535696
0.00026375327
0.00024571253
0.00023101929
0.00021754159
0.00020452686
0.00019183155
0.00017936707
0.00016705139
0.0001548441
0.00014273671
0.00013073633
0.00011886027
0.00010713529
9.5601935e-05
8.4310051e-05
7.3345403e-05
6.2777428e-05
5.2899413e-05
4.3582993e-05
3.6754968e-05
2.9067902e-05
4.4605655e-05
-3.1233059e-05
0.0036481616
0.0036924338
0.0037859078
0.0039064556
0.0040547173
0.004231227
0.0044358839
0.0046693913
0.0049335223
0.0052310146
0.0055656058
0.0059423195
0.0063678171
0.006851369
0.0074051731
0.0080485467
0.0088042574
0.0097240188
0.010841521
0.012361264
0.014208075
0.017557477
0.020551045
0.053369212
0.025162834
-0.017880828
-0.011048137
-0.007366222
-0.0054084766
-0.0044614268
-0.003700853
-0.0031107489
-0.0026676479
-0.0023149057
-0.0020226615
-0.0017764802
-0.0015660938
-0.0013836673
-0.0012235585
-0.0010816905
-0.0009549939
-0.00084109367
-0.00073810361
-0.00064449686
-0.00055901184
-0.00048063394
-0.00040853772
-0.00034202772
-0.00028050886
-0.00022347239
-0.00017048396
-0.00012116923
-7.5203235e-05
-3.2302601e-05
7.7811123e-06
4.526651e-05
8.0346753e-05
0.00011319342
0.00014395974
0.00017278311
0.00019978693
0.00022508237
0.00024876992
0.00027094067
0.00029167739
0.00031105549
0.00032914377
0.00034600518
0.0003616973
0.00037627308
0.00038978135
0.00040226695
0.00041377121
0.00042433228
0.00043398548
0.00044276346
0.00045069647
0.00045781253
0.00046413762
0.00046969579
0.00047450866
0.00047859658
0.00048197957
0.00048467522
0.00048670016
0.00048806237
0.00048880498
0.0004889113
0.00048837543
0.00048724438
0.0004855134
0.00048318919
0.00048027918
0.00047678903
0.00047272208
0.0004680803
0.00046286457
0.00045707376
0.00045070409
0.00044375022
0.0004362052
0.00042805846
0.00041929544
0.00040989753
0.00039983892
0.00038908657
0.00037759836
0.0003653162
0.00035215333
0.00033798899
0.00032257963
0.00030562504
0.00028535699
0.00026375329
0.00024571254
0.0002310193
0.00021754159
0.00020452686
0.00019183155
0.00017936707
0.00016705139
0.0001548441
0.00014273671
0.00013073633
0.00011886027
0.00010713529
9.5601936e-05
8.4310051e-05
7.3345404e-05
6.2777428e-05
5.2899413e-05
4.3582993e-05
3.6754968e-05
2.9067902e-05
4.4605656e-05
-3.1233058e-05
0.0036481616
0.0036924338
0.0037859078
0.0039064556
0.0040547173
0.004231227
0.0044358839
0.0046693913
0.0049335223
0.0052310146
0.0055656058
0.0059423196
0.0063678172
0.0068513692
0.0074051734
0.0080485472
0.008804258
0.0097240198
0.010841522
0.012361267
0.014208078
0.017557483
0.020551047
0.053360824
0.02515673
-0.017876967
-0.011047792
-0.0073661793
-0.0054084538
-0.0044614095
-0.0037008395
-0.0031107393
-0.002667641
-0.0023149004
-0.0020226573
-0.0017764768
-0.0015660911
-0.001383665
-0.0012235565
-0.0010816889
-0.00095499244
-0.00084109238
-0.00073810245
-0.00064449581
-0.00055901088
-0.00048063305
-0.00040853688
-0.00034202694
-0.00028050812
-0.00022347168
-0.00017048329
-0.00012116858
-7.520261e-05
-3.2301997e-05
7.7816974e-06
4.5267078e-05
8.0347306e-05
0.00011319395
0.00014396026
0.00017278363
0.00019978743
0.00022508286
0.0002487704
0.00027094114
0.00029167785
0.00031105594
0.00032914421
0.00034600561
0.00036169772
0.00037627349
0.00038978175
0.00040226734
0.00041377159
0.00042433265
0.00043398584
0.00044276381
0.00045069681
0.00045781286
0.00046413794
0.0004696961
0.00047450896
0.00047859687
0.00048197985
0.00048467549
0.00048670042
0.00048806262
0.00048880522
0.00048891153
0.00048837565
0.00048724459
0.0004855136
0.00048318938
0.00048027936
0.00047678921
0.00047272225
0.00046808046
0.00046286473
0.00045707391
0.00045070423
0.00044375035
0.00043620532
0.00042805857
0.00041929554
0.00040989763
0.00039983901
0.00038908666
0.00037759844
0.00036531628
0.00035215339
0.00033798905
0.00032257968
0.0003056251
0.00028535703
0.00026375331
0.00024571254
0.0002310193
0.00021754159
0.00020452686
0.00019183155
0.00017936707
0.00016705139
0.0001548441
0.00014273671
0.00013073633
0.00011886027
0.00010713529
9.5601936e-05
8.4310052e-05
7.3345404e-05
6.2777429e-05
5.2899414e-05
4.3582993e-05
3.6754969e-05
2.9067903e-05
4.4605656e-05
-3.1233058e-05
0.0036481616
0.0036924338
0.0037859078
0.0039064556
0.0040547173
0.004231227
0.0044358839
0.0046693913
0.0049335224
0.0052310147
0.0055656059
0.0059423197
0.0063678174
0.0068513695
0.0074051737
0.0080485476
0.0088042587
0.0097240209
0.010841524
0.01236127
0.014208082
0.017557489
0.020551051
0.053351695
0.025150326
-0.017873069
-0.011047433
-0.0073661336
-0.0054084293
-0.0044613911
-0.0037008252
-0.0031107292
-0.0026676337
-0.0023148948
-0.0020226529
-0.0017764733
-0.0015660882
-0.0013836626
-0.0012235545
-0.0010816871
-0.00095499091
-0.00084109102
-0.00073810123
-0.0006444947
-0.00055900986
-0.00048063211
-0.00040853601
-0.00034202611
-0.00028050734
-0.00022347094
-0.00017048258
-0.0001211679
-7.5201959e-05
-3.2301368e-05
7.7823072e-06
4.526767e-05
8.0347882e-05
0.00011319452
0.00014396081
0.00017278416
0.00019978795
0.00022508337
0.00024877089
0.00027094163
0.00029167832
0.0003110564
0.00032914466
0.00034600605
0.00036169816
0.00037627391
0.00038978216
0.00040226774
0.00041377198
0.00042433303
0.00043398621
0.00044276417
0.00045069716
0.0004578132
0.00046413827
0.00046969642
0.00047450927
0.00047859717
0.00048198014
0.00048467577
0.00048670069
0.00048806288
0.00048880547
0.00048891177
0.00048837588
0.00048724481
0.00048551381
0.00048318958
0.00048027955
0.00047678939
0.00047272243
0.00046808063
0.00046286488
0.00045707405
0.00045070436
0.00044375048
0.00043620545
0.00042805869
0.00041929565
0.00040989773
0.00039983911
0.00038908675
0.00037759852
0.00036531635
0.00035215346
0.00033798911
0.00032257974
0.00030562515
0.00028535707
0.00026375332
0.00024571255
0.0002310193
0.00021754159
0.00020452687
0.00019183155
0.00017936708
0.00016705139
0.0001548441
0.00014273671
0.00013073633
0.00011886027
0.00010713529
9.5601936e-05
8.4310052e-05
7.3345404e-05
6.2777429e-05
5.2899414e-05
4.3582994e-05
3.6754969e-05
2.9067903e-05
4.4605656e-05
-3.1233057e-05
0.0036481616
0.0036924338
0.0037859078
0.0039064556
0.0040547173
0.004231227
0.0044358839
0.0046693914
0.0049335224
0.0052310148
0.005565606
0.0059423198
0.0063678176
0.0068513697
0.0074051741
0.0080485482
0.0088042595
0.0097240222
0.010841526
0.012361273
0.014208087
0.017557496
0.020551057
0.053341492
0.025144442
-0.017868956
-0.011047047
-0.0073660824
-0.0054084021
-0.0044613709
-0.0037008096
-0.003110718
-0.0026676257
-0.0023148887
-0.0020226481
-0.0017764694
-0.001566085
-0.0013836599
-0.0012235523
-0.0010816852
-0.00095498923
-0.00084108953
-0.00073809989
-0.00064449349
-0.00055900876
-0.00048063109
-0.00040853506
-0.00034202522
-0.0002805065
-0.00022347014
-0.00017048182
-0.00012116717
-7.5201253e-05
-3.2300686e-05
7.7829665e-06
4.526831e-05
8.0348503e-05
0.00011319512
0.0001439614
0.00017278474
0.00019978851
0.00022508392
0.00024877143
0.00027094215
0.00029167884
0.00031105691
0.00032914515
0.00034600653
0.00036169862
0.00037627437
0.00038978261
0.00040226818
0.0004137724
0.00042433344
0.00043398661
0.00044276456
0.00045069754
0.00045781357
0.00046413863
0.00046969676
0.0004745096
0.0004785975
0.00048198045
0.00048467607
0.00048670098
0.00048806316
0.00048880574
0.00048891203
0.00048837613
0.00048724505
0.00048551404
0.0004831898
0.00048027976
0.00047678959
0.00047272261
0.00046808081
0.00046286505
0.00045707421
0.00045070452
0.00044375062
0.00043620558
0.00042805881
0.00041929577
0.00040989784
0.00039983921
0.00038908684
0.00037759861
0.00036531643
0.00035215354
0.00033798918
0.0003225798
0.00030562521
0.00028535711
0.00026375334
0.00024571256
0.00023101931
0.0002175416
0.00020452687
0.00019183155
0.00017936708
0.00016705139
0.0001548441
0.00014273671
0.00013073633
0.00011886027
0.00010713529
9.5601937e-05
8.4310053e-05
7.3345405e-05
6.2777429e-05
5.2899414e-05
4.3582994e-05
3.675497e-05
2.9067904e-05
4.4605657e-05
-3.1233057e-05
0.0036481616
0.0036924338
0.0037859079
0.0039064556
0.0040547174
0.004231227
0.004435884
0.0046693914
0.0049335225
0.0052310148
0.0055656061
0.00594232
0.0063678178
0.00685137
0.0074051745
0.0080485489
0.0088042605
0.0097240237
0.010841528
0.012361278
0.014208093
0.017557505
0.020551063
0.053330082
0.025139754
-0.017864557
-0.011046621
-0.0073660235
-0.005408371
-0.004461348
-0.003700792
-0.0031107055
-0.0026676166
-0.0023148818
-0.0020226426
-0.0017764651
-0.0015660814
-0.001383657
-0.0012235497
-0.001081683
-0.00095498733
-0.00084108785
-0.00073809839
-0.00064449214
-0.00055900752
-0.00048062994
-0.00040853399
-0.00034202423
-0.00028050556
-0.00022346925
-0.00017048097
-0.00012116636
-7.5200473e-05
-3.2299934e-05
7.7836944e-06
4.5269016e-05
8.0349188e-05
0.00011319579
0.00014396205
0.00017278537
0.00019978913
0.00022508452
0.00024877202
0.00027094273
0.0002916794
0.00031105745
0.00032914569
0.00034600705
0.00036169913
0.00037627487
0.0003897831
0.00040226865
0.00041377286
0.00042433389
0.00043398705
0.00044276499
0.00045069795
0.00045781397
0.00046413902
0.00046969714
0.00047450997
0.00047859785
0.00048198079
0.0004846764
0.0004867013
0.00048806346
0.00048880604
0.00048891231
0.0004883764
0.00048724531
0.00048551428
0.00048319003
0.00048027999
0.00047678981
0.00047272282
0.000468081
0.00046286523
0.00045707439
0.00045070468
0.00044375078
0.00043620573
0.00042805895
0.0004192959
0.00040989796
0.00039983932
0.00038908694
0.00037759871
0.00036531652
0.00035215362
0.00033798926
0.00032257987
0.00030562527
0.00028535716
0.00026375337
0.00024571257
0.00023101932
0.0002175416
0.00020452687
0.00019183155
0.00017936708
0.00016705139
0.00015484411
0.00014273671
0.00013073633
0.00011886027
0.00010713529
9.5601937e-05
8.4310053e-05
7.3345405e-05
6.277743e-05
5.2899415e-05
4.3582994e-05
3.675497e-05
2.9067904e-05
4.4605658e-05
-3.1233056e-05
0.0036481616
0.0036924338
0.0037859079
0.0039064556
0.0040547174
0.0042312271
0.004435884
0.0046693914
0.0049335226
0.0052310149
0.0055656063
0.0059423202
0.0063678181
0.0068513704
0.0074051751
0.0080485497
0.0088042618
0.0097240257
0.010841531
0.012361283
0.0142081
0.017557517
0.020551072
0.053317286
0.02513829
-0.017859801
-0.011046145
-0.0073659534
-0.0054083342
-0.0044613214
-0.0037007717
-0.0031106909
-0.002667606
-0.0023148737
-0.0020226363
-0.00177646
-0.0015660773
-0.0013836535
-0.0012235468
-0.0010816805
-0.00095498513
-0.00084108592
-0.00073809666
-0.00064449057
-0.00055900609
-0.00048062863
-0.00040853278
-0.00034202309
-0.00028050449
-0.00022346824
-0.00017048001
-0.00012116544
-7.5199592e-05
-3.2299086e-05
7.784513e-06
4.5269808e-05
8.0349957e-05
0.00011319653
0.00014396278
0.00017278608
0.00019978982
0.00022508519
0.00024877268
0.00027094337
0.00029168003
0.00031105807
0.00032914628
0.00034600764
0.0003616997
0.00037627542
0.00038978364
0.00040226918
0.00041377338
0.00042433439
0.00043398754
0.00044276546
0.00045069841
0.00045781442
0.00046413945
0.00046969756
0.00047451037
0.00047859824
0.00048198117
0.00048467676
0.00048670165
0.0004880638
0.00048880636
0.00048891263
0.0004883767
0.00048724559
0.00048551456
0.0004831903
0.00048028024
0.00047679004
0.00047272304
0.00046808121
0.00046286544
0.00045707458
0.00045070486
0.00044375095
0.00043620589
0.0004280591
0.00041929604
0.00040989809
0.00039983944
0.00038908706
0.00037759881
0.00036531662
0.00035215371
0.00033798934
0.00032257995
0.00030562534
0.00028535721
0.00026375339
0.00024571258
0.00023101932
0.00021754161
0.00020452687
0.00019183156
0.00017936708
0.00016705139
0.00015484411
0.00014273671
0.00013073634
0.00011886028
0.00010713529
9.5601938e-05
8.4310054e-05
7.3345406e-05
6.277743e-05
5.2899415e-05
4.3582995e-05
3.6754971e-05
2.9067905e-05
4.4605658e-05
-3.1233055e-05
0.0036481616
0.0036924338
0.0037859079
0.0039064557
0.0040547174
0.0042312271
0.004435884
0.0046693915
0.0049335227
0.0052310151
0.0055656065
0.0059423205
0.0063678184
0.006851371
0.0074051759
0.0080485508
0.0088042634
0.0097240283
0.010841535
0.012361291
0.01420811
0.017557532
0.020551083
0.05330289
0.025140238
-0.017854596
-0.011045602
-0.0073658681
-0.0054082899
-0.0044612897
-0.0037007476
-0.0031106737
-0.0026675935
-0.0023148642
-0.0020226287
-0.0017764539
-0.0015660723
-0.0013836494
-0.0012235433
-0.0010816775
-0.00095498253
-0.00084108362
-0.00073809462
-0.00064448874
-0.00055900442
-0.0004806271
-0.00040853136
-0.00034202177
-0.00028050325
-0.00022346707
-0.0001704789
-0.00012116438
-7.5198579e-05
-3.2298113e-05
7.7854506e-06
4.5270714e-05
8.0350834e-05
0.00011319738
0.0001439636
0.00017278688
0.0001997906
0.00022508595
0.00024877342
0.00027094409
0.00029168073
0.00031105876
0.00032914696
0.00034600829
0.00036170034
0.00037627605
0.00038978425
0.00040226977
0.00041377396
0.00042433496
0.00043398809
0.00044276599
0.00045069893
0.00045781492
0.00046413994
0.00046969803
0.00047451083
0.00047859868
0.0004819816
0.00048467717
0.00048670205
0.00048806418
0.00048880673
0.00048891298
0.00048837704
0.00048724592
0.00048551487
0.00048319059
0.00048028052
0.00047679031
0.0004727233
0.00046808146
0.00046286567
0.0004570748
0.00045070507
0.00044375114
0.00043620607
0.00042805927
0.0004192962
0.00040989824
0.00039983958
0.00038908719
0.00037759894
0.00036531673
0.00035215381
0.00033798944
0.00032258003
0.00030562542
0.00028535727
0.00026375342
0.00024571259
0.00023101933
0.00021754161
0.00020452688
0.00019183156
0.00017936708
0.0001670514
0.00015484411
0.00014273671
0.00013073634
0.00011886028
0.00010713529
9.5601939e-05
8.4310054e-05
7.3345406e-05
6.2777431e-05
5.2899416e-05
4.3582995e-05
3.6754972e-05
2.9067906e-05
4.4605659e-05
-3.1233055e-05
0.0036481616
0.0036924338
0.0037859079
0.0039064557
0.0040547174
0.0042312272
0.0044358841
0.0046693916
0.0049335228
0.0052310152
0.0055656067
0.0059423208
0.0063678189
0.0068513716
0.0074051768
0.0080485522
0.0088042654
0.0097240315
0.010841539
0.0123613
0.014208122
0.017557552
0.020551097
0.053286659
0.025143459
-0.017848835
-0.011044975
-0.0073657623
-0.0054082355
-0.0044612512
-0.0037007186
-0.0031106528
-0.0026675783
-0.0023148525
-0.0020226195
-0.0017764465
-0.0015660663
-0.0013836444
-0.0012235391
-0.0010816739
-0.00095497938
-0.00084108086
-0.00073809216
-0.00064448653
-0.00055900242
-0.00048062527
-0.00040852967
-0.0003420202
-0.00028050178
-0.00022346569
-0.00017047759
-0.00012116314
-7.5197393e-05
-3.2296977e-05
7.7865423e-06
4.5271766e-05
8.0351851e-05
0.00011319837
0.00014396456
0.00017278781
0.0001997915
0.00022508683
0.00024877427
0.00027094493
0.00029168155
0.00031105955
0.00032914773
0.00034600905
0.00036170108
0.00037627677
0.00038978494
0.00040227045
0.00041377462
0.0004243356
0.00043398871
0.0004427666
0.00045069952
0.00045781549
0.00046414049
0.00046969857
0.00047451135
0.00047859919
0.00048198208
0.00048467764
0.0004867025
0.00048806462
0.00048880715
0.00048891338
0.00048837742
0.00048724629
0.00048551522
0.00048319093
0.00048028084
0.00047679062
0.00047272359
0.00046808174
0.00046286593
0.00045707505
0.0004507053
0.00044375137
0.00043620628
0.00042805947
0.00041929638
0.00040989842
0.00039983974
0.00038908734
0.00037759907
0.00036531686
0.00035215393
0.00033798954
0.00032258013
0.00030562551
0.00028535734
0.00026375346
0.00024571261
0.00023101934
0.00021754162
0.00020452688
0.00019183156
0.00017936709
0.0001670514
0.00015484411
0.00014273671
0.00013073634
0.00011886028
0.0001071353
9.560194e-05
8.4310055e-05
7.3345407e-05
6.2777431e-05
5.2899416e-05
4.3582996e-05
3.6754973e-05
2.9067907e-05
4.460566e-05
-3.1233054e-05
0.0036481616
0.0036924339
0.0037859079
0.0039064557
0.0040547175
0.0042312272
0.0044358842
0.0046693917
0.0049335229
0.0052310155
0.005565607
0.0059423212
0.0063678195
0.0068513725
0.007405178
0.0080485539
0.0088042679
0.0097240355
0.010841545
0.012361311
0.014208137
0.017557578
0.020551115
0.053268333
0.025146683
-0.017842399
-0.011044241
-0.0073656295
-0.0054081678
-0.0044612039
-0.0037006831
-0.0031106272
-0.0026675596
-0.0023148382
-0.0020226082
-0.0017764374
-0.0015660589
-0.0013836382
-0.0012235339
-0.0010816694
-0.00095497551
-0.00084107747
-0.00073808915
-0.00064448384
-0.00055899998
-0.00048062305
-0.00040852763
-0.00034201831
-0.00028050002
-0.00022346404
-0.00017047603
-0.00012116166
-7.5195987e-05
-3.2295633e-05
7.7878313e-06
4.5273006e-05
8.0353046e-05
0.00011319952
0.00014396568
0.00017278889
0.00019979255
0.00022508786
0.00024877527
0.0002709459
0.00029168249
0.00031106047
0.00032914863
0.00034600992
0.00036170193
0.00037627759
0.00038978575
0.00040227124
0.00041377538
0.00042433634
0.00043398944
0.0004427673
0.0004507002
0.00045781615
0.00046414114
0.00046969919
0.00047451195
0.00047859977
0.00048198265
0.00048467819
0.00048670302
0.00048806512
0.00048880763
0.00048891385
0.00048837787
0.00048724672
0.00048551563
0.00048319132
0.00048028122
0.00047679098
0.00047272393
0.00046808206
0.00046286624
0.00045707534
0.00045070558
0.00044375162
0.00043620652
0.0004280597
0.0004192966
0.00040989861
0.00039983993
0.00038908751
0.00037759923
0.00036531701
0.00035215407
0.00033798967
0.00032258025
0.00030562561
0.00028535742
0.0002637535
0.00024571263
0.00023101935
0.00021754163
0.00020452689
0.00019183157
0.00017936709
0.0001670514
0.00015484411
0.00014273672
0.00013073634
0.00011886028
0.0001071353
9.5601941e-05
8.4310056e-05
7.3345408e-05
6.2777432e-05
5.2899417e-05
4.3582997e-05
3.6754974e-05
2.9067908e-05
4.4605661e-05
-3.1233052e-05
0.0036481616
0.0036924339
0.003785908
0.0039064558
0.0040547175
0.0042312273
0.0044358843
0.0046693919
0.0049335231
0.0052310157
0.0055656074
0.0059423217
0.0063678202
0.0068513735
0.0074051795
0.0080485561
0.0088042711
0.0097240406
0.010841553
0.012361325
0.014208155
0.017557611
0.020551137
0.053247618
0.025150114
-0.017835152
-0.011043374
-0.0073654616
-0.0054080827
-0.0044611452
-0.0037006393
-0.0031105955
-0.0026675363
-0.0023148203
-0.0020225941
-0.0017764261
-0.0015660496
-0.0013836305
-0.0012235274
-0.0010816639
-0.00095497071
-0.00084107326
-0.00073808544
-0.00064448052
-0.00055899699
-0.00048062033
-0.00040852514
-0.00034201601
-0.00028049788
-0.00022346204
-0.00017047415
-0.00012115988
-7.5194298e-05
-3.2294024e-05
7.7893704e-06
4.5274482e-05
8.0354466e-05
0.00011320089
0.000143967
0.00017279017
0.0001997938
0.00022508906
0.00024877644
0.00027094703
0.0002916836
0.00031106155
0.00032914967
0.00034601094
0.00036170292
0.00037627856
0.00038978669
0.00040227216
0.00041377628
0.00042433721
0.00043399028
0.00044276812
0.000450701
0.00045781692
0.00046414188
0.00046969991
0.00047451265
0.00047860045
0.0004819833
0.00048467882
0.00048670363
0.00048806571
0.0004888082
0.00048891439
0.00048837839
0.00048724721
0.00048551611
0.00048319178
0.00048028165
0.00047679139
0.00047272432
0.00046808243
0.00046286659
0.00045707567
0.00045070589
0.00044375192
0.0004362068
0.00042805996
0.00041929684
0.00040989885
0.00039984015
0.00038908771
0.00037759942
0.00036531718
0.00035215423
0.00033798982
0.00032258038
0.00030562574
0.00028535751
0.00026375355
0.00024571265
0.00023101937
0.00021754164
0.0002045269
0.00019183158
0.0001793671
0.00016705141
0.00015484412
0.00014273672
0.00013073634
0.00011886028
0.0001071353
9.5601943e-05
8.4310058e-05
7.334541e-05
6.2777434e-05
5.2899419e-05
4.3582998e-05
3.6754976e-05
2.9067909e-05
4.4605663e-05
-3.1233051e-05
0.0036481616
0.0036924339
0.003785908
0.0039064558
0.0040547176
0.0042312274
0.0044358844
0.004669392
0.0049335234
0.0052310161
0.0055656078
0.0059423224
0.0063678212
0.0068513748
0.0074051814
0.0080485588
0.0088042751
0.0097240468
0.010841562
0.012361343
0.014208178
0.017557652
0.020551166
0.053224173
0.025154136
-0.017826941
-0.011042345
-0.0073652487
-0.0054079756
-0.004461072
-0.0037005849
-0.0031105561
-0.0026675072
-0.002314798
-0.0020225765
-0.0017764119
-0.001566038
-0.0013836209
-0.0012235193
-0.0010816569
-0.00095496471
-0.00084106802
-0.0007380808
-0.00064447639
-0.00055899328
-0.00048061696
-0.00040852206
-0.00034201317
-0.00028049526
-0.00022345959
-0.00017047186
-0.00012115772
-7.5192253e-05
-3.229208e-05
7.7912242e-06
4.5276256e-05
8.0356169e-05
0.00011320253
0.00014396858
0.0001727917
0.00019979527
0.00022509049
0.00024877783
0.00027094838
0.00029168491
0.00031106282
0.00032915091
0.00034601215
0.00036170409
0.0003762797
0.0003897878
0.00040227323
0.00041377732
0.00042433823
0.00043399127
0.00044276908
0.00045070193
0.00045781783
0.00046414276
0.00046970076
0.00047451347
0.00047860124
0.00048198407
0.00048467956
0.00048670434
0.00048806639
0.00048880886
0.00048891502
0.000488379
0.0004872478
0.00048551667
0.00048319231
0.00048028216
0.00047679188
0.00047272479
0.00046808287
0.00046286701
0.00045707607
0.00045070627
0.00044375228
0.00043620713
0.00042806027
0.00041929714
0.00040989912
0.0003998404
0.00038908795
0.00037759964
0.00036531739
0.00035215442
0.00033798999
0.00032258054
0.00030562588
0.00028535762
0.00026375361
0.00024571268
0.00023101939
0.00021754165
0.00020452691
0.00019183159
0.0001793671
0.00016705141
0.00015484412
0.00014273672
0.00013073635
0.00011886028
0.0001071353
9.5601945e-05
8.431006e-05
7.3345411e-05
6.2777435e-05
5.289942e-05
4.3582999e-05
3.6754978e-05
2.9067911e-05
4.4605665e-05
-3.1233049e-05
0.0036481616
0.003692434
0.0037859081
0.0039064559
0.0040547177
0.0042312275
0.0044358846
0.0046693923
0.0049335237
0.0052310165
0.0055656084
0.0059423232
0.0063678223
0.0068513764
0.0074051836
0.0080485622
0.0088042799
0.0097240545
0.010841573
0.012361364
0.014208206
0.017557703
0.020551201
0.0531976
0.025158947
-0.017817588
-0.011041116
-0.0073649784
-0.0054078403
-0.0044609804
-0.003700517
-0.0031105068
-0.0026674708
-0.00231477
-0.0020225543
-0.001776394
-0.0015660234
-0.0013836087
-0.001223509
-0.0010816482
-0.00095495717
-0.00084106144
-0.00073807501
-0.00064447123
-0.00055898865
-0.00048061277
-0.00040851824
-0.00034200967
-0.00028049202
-0.00022345658
-0.00017046904
-0.00012115508
-7.518976e-05
-3.2289717e-05
7.793472e-06
4.5278402e-05
8.0358223e-05
0.0001132045
0.00014397048
0.00017279353
0.00019979704
0.0002250922
0.00024877948
0.00027094999
0.00029168646
0.00031106433
0.00032915238
0.00034601357
0.00036170548
0.00037628105
0.00038978911
0.00040227451
0.00041377856
0.00042433943
0.00043399244
0.00044277022
0.00045070303
0.0004578189
0.00046414379
0.00046970176
0.00047451444
0.00047860218
0.00048198497
0.00048468043
0.00048670519
0.0004880672
0.00048880964
0.00048891577
0.00048837972
0.00048724849
0.00048551733
0.00048319294
0.00048028276
0.00047679245
0.00047272533
0.00046808339
0.0004628675
0.00045707653
0.00045070671
0.00044375269
0.00043620753
0.00042806064
0.00041929748
0.00040989945
0.00039984071
0.00038908823
0.0003775999
0.00036531763
0.00035215464
0.0003379902
0.00032258073
0.00030562606
0.00028535776
0.00026375368
0.00024571272
0.00023101941
0.00021754167
0.00020452692
0.0001918316
0.00017936711
0.00016705142
0.00015484413
0.00014273673
0.00013073635
0.00011886029
0.00010713531
9.5601949e-05
8.4310063e-05
7.3345414e-05
6.2777438e-05
5.2899422e-05
4.3583001e-05
3.6754981e-05
2.9067914e-05
4.4605667e-05
-3.1233047e-05
0.0036481616
0.003692434
0.0037859081
0.003906456
0.0040547178
0.0042312277
0.0044358848
0.0046693925
0.0049335241
0.005231017
0.0055656091
0.0059423242
0.0063678237
0.0068513784
0.0074051864
0.0080485662
0.0088042858
0.0097240638
0.010841586
0.01236139
0.01420824
0.017557766
0.020551247
0.053167431
0.025164636
-0.017806889
-0.011039648
-0.0073646359
-0.0054076697
-0.0044608656
-0.0037004324
-0.0031104452
-0.0026674251
-0.0023147348
-0.0020225264
-0.0017763716
-0.001566005
-0.0013835934
-0.0012234961
-0.0010816372
-0.00095494768
-0.00084105317
-0.00073806773
-0.00064446477
-0.00055898286
-0.00048060755
-0.00040851349
-0.00034200532
-0.00028048801
-0.00022345287
-0.00017046558
-0.00012115184
-7.5186707e-05
-3.2286831e-05
7.7962107e-06
4.528101e-05
8.0360714e-05
0.00011320689
0.00014397277
0.00017279573
0.00019979917
0.00022509425
0.00024878147
0.00027095191
0.00029168833
0.00031106614
0.00032915413
0.00034601528
0.00036170714
0.00037628266
0.00038979067
0.00040227602
0.00041378003
0.00042434086
0.00043399382
0.00044277156
0.00045070433
0.00045782016
0.00046414502
0.00046970295
0.00047451559
0.00047860329
0.00048198604
0.00048468146
0.00048670618
0.00048806816
0.00048881056
0.00048891666
0.00048838057
0.0004872493
0.00048551811
0.00048319369
0.00048028348
0.00047679313
0.00047272598
0.00046808401
0.00046286809
0.00045707709
0.00045070723
0.00044375319
0.00043620799
0.00042806108
0.00041929789
0.00040989983
0.00039984107
0.00038908857
0.00037760021
0.00036531792
0.00035215491
0.00033799044
0.00032258095
0.00030562626
0.00028535792
0.00026375378
0.00024571277
0.00023101945
0.0002175417
0.00020452694
0.00019183161
0.00017936713
0.00016705143
0.00015484414
0.00014273674
0.00013073636
0.00011886029
0.00010713531
9.5601953e-05
8.4310067e-05
7.3345417e-05
6.2777441e-05
5.2899425e-05
4.3583004e-05
3.6754985e-05
2.9067917e-05
4.460567e-05
-3.1233044e-05
0.0036481616
0.0036924341
0.0037859082
0.0039064561
0.0040547179
0.0042312278
0.004435885
0.0046693929
0.0049335245
0.0052310176
0.00556561
0.0059423254
0.0063678254
0.0068513808
0.0074051898
0.0080485712
0.0088042929
0.009724075
0.010841603
0.01236142
0.014208281
0.017557842
0.020551304
0.053133115
0.02517127
-0.017794606
-0.01103789
-0.0073642028
-0.0054074548
-0.0044607221
-0.0037003269
-0.0031103682
-0.0026673678
-0.0023146906
-0.0020224914
-0.0017763433
-0.0015659818
-0.0013835742
-0.0012234799
-0.0010816233
-0.00095493574
-0.00084104277
-0.00073805859
-0.00064445666
-0.00055897561
-0.00048060102
-0.00040850757
-0.00034199991
-0.00028048304
-0.00022344827
-0.0001704613
-0.00012114784
-7.5182956e-05
-3.2283294e-05
7.7995591e-06
4.5284191e-05
8.0363746e-05
0.00011320979
0.00014397554
0.0001727984
0.00019980173
0.00022509673
0.00024878386
0.00027095422
0.00029169056
0.0003110683
0.00032915623
0.00034601731
0.00036170911
0.00037628457
0.00038979253
0.00040227783
0.00041378179
0.00042434256
0.00043399547
0.00044277316