/*--------------------------------*- C++ -*----------------------------------*\
| =========                 |                                                 |
| \\      /  F ield         | OpenFOAM: The Open Source CFD Toolbox           |
|  \\    /   O peration     | Version:  2206                                  |
|   \\  /    A nd           | Website:  www.openfoam.com                      |
|    \\/     M anipulation  |                                                 |
\*---------------------------------------------------------------------------*/
FoamFile
{
    version     2.0;
    format      ascii;
    arch        "LSB;label=32;scalar=64";
    class       surfaceScalarField;
    location    "200";
    object      phi;
}
// * * * * * * * * * * * * * * * * * * * * * * * * * * * * * * * * * * * * * //

dimensions      [0 3 -1 0 0 0 0];

oriented        oriented;

internalField   nonuniform List<scalar> 
25880
(
2.0046539e-06
2.4518733e-13
2.0046534e-06
4.5917683e-13
2.004653e-06
4.6412788e-13
2.0046525e-06
5.1773242e-13
2.0046518e-06
6.2264329e-13
2.0046511e-06
7.5559062e-13
2.0046502e-06
9.2274573e-13
2.004649e-06
1.1368016e-12
2.0046476e-06
1.4117292e-12
2.0046458e-06
1.7655381e-12
2.0046436e-06
2.2234071e-12
2.0046408e-06
2.8235767e-12
2.0046372e-06
3.6186849e-12
2.0046325e-06
4.7056678e-12
2.0046263e-06
6.1916799e-12
2.0046179e-06
8.4205508e-12
2.0046064e-06
1.1489426e-11
2.0045891e-06
1.7254339e-11
2.004565e-06
2.4098096e-11
2.0045199e-06
4.5115857e-11
2.0044647e-06
5.5206093e-11
2.0043248e-06
1.399299e-10
2.0042788e-06
4.592523e-11
1.0081266e-06
9.9615224e-07
1.055519e-08
9.9757141e-07
9.5463769e-09
1.0088131e-09
9.4601518e-09
8.6225119e-11
9.4499076e-09
1.0244201e-11
9.444342e-09
5.5656399e-12
9.4400019e-09
4.3400569e-12
9.4365644e-09
3.4374882e-12
9.4340996e-09
2.4647893e-12
9.4323063e-09
1.7933706e-12
9.4309225e-09
1.3837365e-12
9.4298184e-09
1.104108e-12
9.428922e-09
8.9639897e-13
9.428181e-09
7.410716e-13
9.427556e-09
6.2499604e-13
9.427019e-09
5.3691339e-13
9.4265503e-09
4.6875477e-13
9.426135e-09
4.152846e-13
9.425762e-09
3.7297266e-13
9.4254228e-09
3.3924951e-13
9.4251106e-09
3.1218259e-13
9.4248203e-09
2.9030956e-13
9.4245478e-09
2.7253539e-13
9.4242897e-09
2.5804099e-13
9.4240435e-09
2.4619502e-13
9.423807e-09
2.3649079e-13
9.4235785e-09
2.2851894e-13
9.4233565e-09
2.2196198e-13
9.42314e-09
2.1657211e-13
9.4229278e-09
2.1214815e-13
9.4227193e-09
2.0852176e-13
9.4225138e-09
2.0555043e-13
9.4223106e-09
2.0311986e-13
9.4221095e-09
2.0113844e-13
9.42191e-09
1.9952896e-13
9.4217117e-09
1.9822654e-13
9.4215146e-09
1.9717503e-13
9.4213182e-09
1.9632681e-13
9.4211226e-09
1.956426e-13
9.4209275e-09
1.9508907e-13
9.4207329e-09
1.9463756e-13
9.4205386e-09
1.9426346e-13
9.4203447e-09
1.9394548e-13
9.420151e-09
1.9366488e-13
9.4199576e-09
1.9340559e-13
9.4197644e-09
1.9315418e-13
9.4195715e-09
1.9289859e-13
9.4193789e-09
1.9262836e-13
9.4191866e-09
1.923344e-13
9.4189946e-09
1.9200861e-13
9.4188029e-09
1.9164394e-13
9.4186117e-09
1.912342e-13
9.4184209e-09
1.9077341e-13
9.4182307e-09
1.902572e-13
9.418041e-09
1.8968301e-13
9.4178519e-09
1.8904543e-13
9.4176636e-09
1.8834105e-13
9.417476e-09
1.8756732e-13
9.4172893e-09
1.867217e-13
9.4171035e-09
1.8580227e-13
9.4169187e-09
1.8480515e-13
9.416735e-09
1.8372965e-13
9.4165524e-09
1.8255364e-13
9.416371e-09
1.8138379e-13
9.416191e-09
1.8005946e-13
9.4160124e-09
1.7859597e-13
9.4158352e-09
1.7715041e-13
9.4156596e-09
1.755825e-13
9.4154857e-09
1.7393215e-13
9.4153135e-09
1.7219671e-13
9.4151431e-09
1.7037547e-13
9.4149747e-09
1.6846845e-13
9.4148082e-09
1.6647559e-13
9.4146438e-09
1.6439685e-13
9.4144816e-09
1.6223223e-13
9.4143216e-09
1.5998183e-13
9.4141639e-09
1.5764582e-13
9.4140087e-09
1.5522438e-13
9.413856e-09
1.5271766e-13
9.4137059e-09
1.5012575e-13
9.4135584e-09
1.4744875e-13
9.4134137e-09
1.4468662e-13
9.4132719e-09
1.4183891e-13
9.413133e-09
1.3890372e-13
9.4129971e-09
1.3587879e-13
9.4128644e-09
1.3275031e-13
9.4127348e-09
1.2952e-13
9.4126089e-09
1.2594403e-13
9.4124858e-09
1.2306052e-13
9.412389e-09
9.6804047e-14
9.4123422e-09
4.6839779e-14
9.4123232e-09
1.8965936e-14
9.4123123e-09
1.0953084e-14
9.4123049e-09
7.4172626e-15
9.4122994e-09
5.4783195e-15
9.4122951e-09
4.2355428e-15
9.4122918e-09
3.3534798e-15
9.4122891e-09
2.7019964e-15
9.4122869e-09
2.2122264e-15
9.412285e-09
1.8367479e-15
9.4122835e-09
1.5433472e-15
9.4122822e-09
1.311348e-15
9.4122811e-09
1.1266979e-15
9.4122801e-09
9.8016714e-16
9.4122792e-09
8.6390051e-16
9.4122784e-09
7.7963353e-16
9.4122777e-09
7.1130149e-16
9.412277e-09
7.2740689e-16
9.4122763e-09
6.6964651e-16
9.4122749e-09
1.4081922e-15
9.4122737e-09
1.2107719e-15
9.4122727e-09
9.780327e-16
1.6572715e-15
2.0345278e-06
5.0951841e-13
2.0345273e-06
9.5542817e-13
2.0345268e-06
9.6696814e-13
2.0345262e-06
1.0785834e-12
2.0345256e-06
1.2967173e-12
2.0345247e-06
1.5730324e-12
2.0345237e-06
1.9202717e-12
2.0345225e-06
2.3647443e-12
2.034521e-06
2.935377e-12
2.0345191e-06
3.6694305e-12
2.0345167e-06
4.6189819e-12
2.0345137e-06
5.8631254e-12
2.0345098e-06
7.5106629e-12
2.0345047e-06
9.7620561e-12
2.0344981e-06
1.2838458e-11
2.034489e-06
1.7450929e-11
2.0344767e-06
2.3797684e-11
2.0344583e-06
3.5716734e-11
2.0344325e-06
4.9851166e-11
2.0343844e-06
9.3263306e-11
2.0343254e-06
1.1413112e-10
2.0341766e-06
2.8874158e-10
2.0341284e-06
9.4169495e-11
1.0347955e-06
1.9954851e-06
3.216581e-08
2.0002011e-06
2.9107782e-08
4.0668412e-09
2.8841884e-08
3.5212318e-10
2.8809638e-08
4.2489902e-11
2.8792165e-08
2.3038941e-11
2.8778637e-08
1.7867622e-11
2.8767946e-08
1.412898e-11
2.8760274e-08
1.0136526e-11
2.875469e-08
7.3775821e-12
2.8750382e-08
5.6918818e-12
2.8746945e-08
4.541163e-12
2.8744155e-08
3.6866153e-12
2.8741848e-08
3.0474709e-12
2.8739904e-08
2.5696644e-12
2.8738234e-08
2.2069576e-12
2.8736776e-08
1.9262082e-12
2.8735485e-08
1.7058911e-12
2.8734327e-08
1.5314834e-12
2.8733274e-08
1.3924177e-12
2.8732305e-08
1.2807479e-12
2.8731405e-08
1.1904632e-12
2.8730561e-08
1.11706e-12
2.8729761e-08
1.0571667e-12
2.8728999e-08
1.0081846e-12
2.8728268e-08
9.6802931e-13
2.8727561e-08
9.3501645e-13
2.8726876e-08
9.0783916e-13
2.8726207e-08
8.8547696e-13
2.8725552e-08
8.6710135e-13
2.8724908e-08
8.5201917e-13
2.8724274e-08
8.3964363e-13
2.8723648e-08
8.2950395e-13
2.8723028e-08
8.2122247e-13
2.8722413e-08
8.1448103e-13
2.8721802e-08
8.090121e-13
2.8721194e-08
8.0458436e-13
2.872059e-08
8.0100151e-13
2.8719987e-08
7.9810155e-13
2.8719387e-08
7.9574701e-13
2.8718787e-08
7.9381959e-13
2.871819e-08
7.9221784e-13
2.8717593e-08
7.9085385e-13
2.8716997e-08
7.8965029e-13
2.8716401e-08
7.8854088e-13
2.8715807e-08
7.8747008e-13
2.8715214e-08
7.863881e-13
2.8714621e-08
7.8525177e-13
2.8714029e-08
7.8402348e-13
2.8713439e-08
7.8266976e-13
2.8712849e-08
7.811615e-13
2.8712261e-08
7.7947306e-13
2.8711674e-08
7.7757976e-13
2.8711089e-08
7.7546351e-13
2.8710506e-08
7.731135e-13
2.8709924e-08
7.7050756e-13
2.8709345e-08
7.6763151e-13
2.8708768e-08
7.6447477e-13
2.8708194e-08
7.6102674e-13
2.8707622e-08
7.5727953e-13
2.8707054e-08
7.5321716e-13
2.8706489e-08
7.4883657e-13
2.8705927e-08
7.4404846e-13
2.8705369e-08
7.3928345e-13
2.8704815e-08
7.3389214e-13
2.8704266e-08
7.279364e-13
2.8703721e-08
7.2205081e-13
2.8703181e-08
7.1566873e-13
2.8702646e-08
7.0895108e-13
2.8702116e-08
7.0188705e-13
2.8701592e-08
6.9447377e-13
2.8701074e-08
6.8671114e-13
2.8700562e-08
6.7859889e-13
2.8700056e-08
6.7013683e-13
2.8699557e-08
6.6132484e-13
2.8699065e-08
6.5216327e-13
2.869858e-08
6.4265274e-13
2.8698102e-08
6.3279396e-13
2.8697632e-08
6.2258754e-13
2.869717e-08
6.1203373e-13
2.8696717e-08
6.0113289e-13
2.8696272e-08
5.8988484e-13
2.8695835e-08
5.7828771e-13
2.8695408e-08
5.6633373e-13
2.869499e-08
5.5401373e-13
2.8694581e-08
5.4127144e-13
2.8694182e-08
5.2811458e-13
2.8693795e-08
5.1354865e-13
2.8693416e-08
5.0181585e-13
2.8693118e-08
3.9498431e-13
2.8692973e-08
1.9153774e-13
2.8692914e-08
7.7866482e-14
2.869288e-08
4.5068061e-14
2.8692857e-08
3.0561688e-14
2.869284e-08
2.2591752e-14
2.8692827e-08
1.7478013e-14
2.8692816e-08
1.3846578e-14
2.8692808e-08
1.1162821e-14
2.8692801e-08
9.1438022e-15
2.8692795e-08
7.594858e-15
2.869279e-08
6.3837159e-15
2.8692786e-08
5.4253564e-15
2.8692783e-08
4.6619416e-15
2.8692779e-08
4.0554447e-15
2.8692777e-08
3.5734271e-15
2.8692774e-08
3.2228014e-15
2.8692772e-08
2.9370417e-15
2.869277e-08
2.9968362e-15
2.8692768e-08
2.7484792e-15
2.8692763e-08
5.7628557e-15
2.869276e-08
4.8585735e-15
2.8692756e-08
4.4043824e-15
6.1881827e-15
2.0947208e-06
8.0186309e-13
2.0947202e-06
1.5059826e-12
2.0947197e-06
1.5265373e-12
2.0947191e-06
1.7026037e-12
2.0947183e-06
2.046152e-12
2.0947174e-06
2.4811455e-12
2.0947163e-06
3.0274794e-12
2.0947149e-06
3.7264378e-12
2.0947132e-06
4.6233601e-12
2.0947111e-06
5.7765971e-12
2.0947085e-06
7.2676709e-12
2.0947051e-06
9.2203991e-12
2.0947008e-06
1.1804972e-11
2.0946953e-06
1.5335149e-11
2.0946879e-06
2.0156224e-11
2.094678e-06
2.7381276e-11
2.0946645e-06
3.7315254e-11
2.0946442e-06
5.5966071e-11
2.094616e-06
7.8052696e-11
2.0945634e-06
1.4591136e-10
2.094499e-06
1.7855202e-10
2.0943369e-06
4.5082689e-10
2.0942859e-06
1.4518574e-10
1.0775395e-06
3.0122315e-06
5.5465829e-08
3.0222748e-06
5.0195581e-08
9.3370889e-09
4.9729971e-08
8.1773352e-10
4.9672136e-08
1.0032412e-10
4.9640909e-08
5.4265868e-11
4.9616897e-08
4.1879597e-11
4.9597968e-08
3.3058775e-11
4.9584374e-08
2.3730201e-11
4.9574472e-08
1.7279484e-11
4.9566833e-08
1.3331242e-11
4.9560739e-08
1.0635173e-11
4.9555792e-08
8.63341e-12
4.9551703e-08
7.1359449e-12
4.9548257e-08
6.0159687e-12
4.9545299e-08
5.1653942e-12
4.9542718e-08
4.5067526e-12
4.9540434e-08
3.9896762e-12
4.9538386e-08
3.5801574e-12
4.9536525e-08
3.2534537e-12
4.9534814e-08
2.9909638e-12
4.9533226e-08
2.7786196e-12
4.9531738e-08
2.6058732e-12
4.953033e-08
2.4648231e-12
4.9528989e-08
2.3493799e-12
4.9527702e-08
2.2546599e-12
4.952646e-08
2.1767164e-12
4.9525256e-08
2.1124855e-12
4.9524082e-08
2.0595737e-12
4.9522933e-08
2.0160377e-12
4.9521804e-08
1.9802519e-12
4.9520693e-08
1.9508401e-12
4.9519596e-08
1.9266976e-12
4.951851e-08
1.9069377e-12
4.9517434e-08
1.8908133e-12
4.9516365e-08
1.8776962e-12
4.9515303e-08
1.8670433e-12
4.9514245e-08
1.8583937e-12
4.9513192e-08
1.8513667e-12
4.9512142e-08
1.8456391e-12
4.9511095e-08
1.8409329e-12
4.951005e-08
1.8370095e-12
4.9509008e-08
1.8336623e-12
4.9507967e-08
1.8307094e-12
4.9506927e-08
1.8279949e-12
4.9505889e-08
1.825388e-12
4.9504853e-08
1.8227715e-12
4.9503818e-08
1.8200438e-12
4.9502785e-08
1.8171162e-12
4.9501754e-08
1.8139101e-12
4.9500724e-08
1.8103566e-12
4.9499698e-08
1.8063955e-12
4.9498673e-08
1.8019686e-12
4.9497652e-08
1.7970331e-12
4.9496633e-08
1.791563e-12
4.9495618e-08
1.7855066e-12
4.9494607e-08
1.7788303e-12
4.94936e-08
1.7715089e-12
4.9492597e-08
1.7635174e-12
4.94916e-08
1.754837e-12
4.9490608e-08
1.7454305e-12
4.9489621e-08
1.7352899e-12
4.9488641e-08
1.7242101e-12
4.9487667e-08
1.7131812e-12
4.94867e-08
1.7007076e-12
4.9485741e-08
1.686932e-12
4.948479e-08
1.673314e-12
4.9483847e-08
1.6585502e-12
4.9482913e-08
1.6430099e-12
4.9481988e-08
1.6266683e-12
4.9481073e-08
1.6095183e-12
4.9480168e-08
1.5915596e-12
4.9479274e-08
1.5727913e-12
4.9478391e-08
1.5532127e-12
4.947752e-08
1.5328236e-12
4.947666e-08
1.5116243e-12
4.9475813e-08
1.4896163e-12
4.9474979e-08
1.466801e-12
4.9474159e-08
1.4431797e-12
4.9473352e-08
1.4187528e-12
4.947256e-08
1.3935211e-12
4.9471782e-08
1.3674839e-12
4.947102e-08
1.3406368e-12
4.9470273e-08
1.3129616e-12
4.9469543e-08
1.2844372e-12
4.9468829e-08
1.254933e-12
4.9468133e-08
1.224468e-12
4.9467455e-08
1.1907347e-12
4.9466794e-08
1.1635868e-12
4.9466272e-08
9.1656925e-13
4.9466018e-08
4.4571924e-13
4.9465914e-08
1.8211651e-13
4.9465853e-08
1.0568517e-13
4.9465812e-08
7.178433e-14
4.9465781e-08
5.3118867e-14
4.9465758e-08
4.1127385e-14
4.9465739e-08
3.2606101e-14
4.9465724e-08
2.6304188e-14
4.9465711e-08
2.1559303e-14
4.9465701e-08
1.7916235e-14
4.9465692e-08
1.5065545e-14
4.9465685e-08
1.2808059e-14
4.9465678e-08
1.1008149e-14
4.9465673e-08
9.5765145e-15
4.9465668e-08
8.4369485e-15
4.9465664e-08
7.6048608e-15
4.946566e-08
6.9245022e-15
4.9465656e-08
7.0478078e-15
4.9465652e-08
6.4496772e-15
4.9465644e-08
1.3438294e-14
4.9465638e-08
1.1224572e-14
4.9465632e-08
1.0761267e-14
1.3691889e-14
2.1861299e-06
1.1331355e-12
2.1861293e-06
2.1321017e-12
2.1861286e-06
2.1651527e-12
2.1861279e-06
2.4146437e-12
2.1861271e-06
2.9005752e-12
2.186126e-06
3.5155685e-12
2.1861248e-06
4.2874713e-12
2.1861232e-06
5.2744301e-12
2.1861213e-06
6.5402255e-12
2.1861189e-06
8.16686e-12
2.1861159e-06
1.0268845e-11
2.1861121e-06
1.3020108e-11
2.1861073e-06
1.66595e-11
2.186101e-06
2.162768e-11
2.1860927e-06
2.8408207e-11
2.1860815e-06
3.8564579e-11
2.1860663e-06
5.2516446e-11
2.1860436e-06
7.8702986e-11
2.186012e-06
1.0966323e-10
2.1859531e-06
2.0482415e-10
2.185881e-06
2.5062873e-10
2.1857004e-06
6.3140348e-10
2.1856454e-06
2.0021302e-10
1.137485e-06
4.0603919e-06
8.1684663e-08
4.0780751e-06
7.3895942e-08
1.712581e-08
7.3195163e-08
1.5185124e-09
7.3105412e-08
1.9007593e-10
7.3057183e-08
1.024949e-10
7.3020383e-08
7.8679455e-11
7.2991463e-08
6.1978294e-11
7.2970675e-08
4.4517909e-11
7.2955517e-08
3.2438291e-11
7.294382e-08
2.5028164e-11
7.293449e-08
1.9965059e-11
7.2926917e-08
1.6206516e-11
7.2920659e-08
1.3394135e-11
7.2915385e-08
1.1289413e-11
7.2910861e-08
9.6899603e-12
7.2906917e-08
8.4507514e-12
7.2903429e-08
7.477362e-12
7.2900303e-08
6.7059757e-12
7.2897466e-08
6.0901645e-12
7.2894862e-08
5.5950324e-12
7.2892447e-08
5.1941874e-12
7.2890185e-08
4.8678286e-12
7.2888048e-08
4.6011134e-12
7.2886015e-08
4.3826019e-12
7.2884067e-08
4.2031207e-12
7.2882188e-08
4.0552554e-12
7.2880367e-08
3.933246e-12
7.2878594e-08
3.8325909e-12
7.2876861e-08
3.7496343e-12
7.287516e-08
3.6813184e-12
7.2873486e-08
3.6250555e-12
7.2871834e-08
3.578766e-12
7.28702e-08
3.5407797e-12
7.2868581e-08
3.5096893e-12
7.2866974e-08
3.4843113e-12
7.2865378e-08
3.4636227e-12
7.2863789e-08
3.4467554e-12
7.2862208e-08
3.432991e-12
7.2860632e-08
3.4217203e-12
7.285906e-08
3.4124186e-12
7.2857492e-08
3.4046358e-12
7.2855928e-08
3.3979818e-12
7.2854367e-08
3.3921133e-12
7.2852808e-08
3.386736e-12
7.2851252e-08
3.3816026e-12
7.2849698e-08
3.3764917e-12
7.2848147e-08
3.3712111e-12
7.2846598e-08
3.3655931e-12
7.2845053e-08
3.3594887e-12
7.284351e-08
3.3527679e-12
7.2841971e-08
3.3453164e-12
7.2840436e-08
3.3370244e-12
7.2838906e-08
3.3278104e-12
7.283738e-08
3.3176242e-12
7.2835859e-08
3.3063685e-12
7.2834344e-08
3.2939799e-12
7.2832835e-08
3.28041e-12
7.2831333e-08
3.2656111e-12
7.2829838e-08
3.2495474e-12
7.2828351e-08
3.2321491e-12
7.2826873e-08
3.2133998e-12
7.2825404e-08
3.192922e-12
7.2823945e-08
3.1725388e-12
7.2822496e-08
3.149492e-12
7.2821059e-08
3.1240428e-12
7.2819634e-08
3.0988818e-12
7.281822e-08
3.0716078e-12
7.2816821e-08
3.0428988e-12
7.2815435e-08
3.0127088e-12
7.2814063e-08
2.9810244e-12
7.2812707e-08
2.9478442e-12
7.2811366e-08
2.9131662e-12
7.2810043e-08
2.8769887e-12
7.2808736e-08
2.8393106e-12
7.2807448e-08
2.8001324e-12
7.2806178e-08
2.7594562e-12
7.2804927e-08
2.7172842e-12
7.2803697e-08
2.6736186e-12
7.2802487e-08
2.6284597e-12
7.2801299e-08
2.5818084e-12
7.2800133e-08
2.5336633e-12
7.2798989e-08
2.4840157e-12
7.2797869e-08
2.4328319e-12
7.2796774e-08
2.3800722e-12
7.2795703e-08
2.3254942e-12
7.2794659e-08
2.2691354e-12
7.2793643e-08
2.2067128e-12
7.279265e-08
2.1565249e-12
7.2791866e-08
1.7004802e-12
7.2791481e-08
8.3010593e-13
7.2791322e-08
3.4149156e-13
7.2791229e-08
1.9886453e-13
7.2791165e-08
1.3539471e-13
7.2791118e-08
1.0029958e-13
7.2791081e-08
7.7736699e-14
7.2791052e-08
6.1689542e-14
7.2791029e-08
4.9811121e-14
7.2791009e-08
4.0858154e-14
7.2790993e-08
3.3977154e-14
7.279098e-08
2.8587686e-14
7.2790968e-08
2.431552e-14
7.2790958e-08
2.0905525e-14
7.279095e-08
1.8189412e-14
7.2790942e-08
1.6023651e-14
7.2790935e-08
1.4435231e-14
7.2790929e-08
1.3133035e-14
7.2790923e-08
1.3326729e-14
7.2790917e-08
1.2177385e-14
7.2790906e-08
2.5130334e-14
7.2790896e-08
2.0909399e-14
7.2790886e-08
2.0643579e-14
2.4756376e-14
2.3101173e-06
1.5171139e-12
2.3101166e-06
2.8607598e-12
2.3101158e-06
2.9112585e-12
2.310115e-06
3.2463707e-12
2.310114e-06
3.897702e-12
2.3101128e-06
4.7216163e-12
2.3101113e-06
5.7549818e-12
2.3101095e-06
7.0753568e-12
2.3101073e-06
8.7677057e-12
2.3101045e-06
1.0941141e-11
2.310101e-06
1.3747946e-11
2.3100966e-06
1.7419429e-11
2.310091e-06
2.227291e-11
2.3100838e-06
2.8894296e-11
2.3100742e-06
3.7924438e-11
2.3100614e-06
5.1442548e-11
2.3100439e-06
6.9993542e-11
2.3100178e-06
1.0480038e-10
2.3099816e-06
1.458764e-10
2.3099142e-06
2.7218798e-10
2.3098318e-06
3.3303856e-10
2.3096263e-06
8.3690011e-10
2.3095658e-06
2.6071161e-10
1.2160608e-06
5.153897e-06
1.1217571e-07
5.1819601e-06
1.0140036e-07
2.7901167e-08
1.0041023e-07
2.5086404e-09
1.0027868e-07
3.2162158e-10
1.002084e-07
1.7277893e-10
1.0015523e-07
1.3184501e-10
1.001136e-07
1.0360731e-10
1.0008364e-07
7.4476777e-11
1.0006177e-07
5.4316348e-11
1.0004488e-07
4.1914803e-11
1.0003141e-07
3.3433614e-11
1.0002048e-07
2.7138718e-11
1.0001145e-07
2.2426911e-11
1.0000384e-07
1.8897912e-11
9.9997314e-08
1.6213928e-11
9.9991631e-08
1.4133002e-11
9.9986611e-08
1.2497314e-11
9.9982117e-08
1.1200068e-11
9.9978044e-08
1.0163571e-11
9.997431e-08
9.3294377e-12
9.997085e-08
8.6535077e-12
9.9967615e-08
8.102626e-12
9.9964565e-08
7.6519207e-12
9.9961665e-08
7.282218e-12
9.995889e-08
6.9781454e-12
9.9956218e-08
6.7272744e-12
9.9953631e-08
6.5199422e-12
9.9951115e-08
6.3485923e-12
9.9948658e-08
6.2070868e-12
9.9946249e-08
6.0902925e-12
9.994388e-08
5.9938663e-12
9.9941544e-08
5.9143141e-12
9.9939236e-08
5.8488266e-12
9.9936951e-08
5.7950373e-12
9.9934684e-08
5.7509548e-12
9.9932433e-08
5.7148595e-12
9.9930195e-08
5.6852903e-12
9.9927967e-08
5.6610379e-12
9.9925747e-08
5.6410752e-12
9.9923535e-08
5.6245187e-12
9.9921329e-08
5.6106092e-12
9.9919128e-08
5.598689e-12
9.9916932e-08
5.5881797e-12
9.9914741e-08
5.5785845e-12
9.9912553e-08
5.5694856e-12
9.9910369e-08
5.560509e-12
9.9908189e-08
5.55133e-12
9.9906012e-08
5.5416652e-12
9.9903841e-08
5.5312625e-12
9.9901674e-08
5.519902e-12
9.9899511e-08
5.5073901e-12
9.9897355e-08
5.4935414e-12
9.9895205e-08
5.4782172e-12
9.9893061e-08
5.4613303e-12
9.9890924e-08
5.4427176e-12
9.9888796e-08
5.4222715e-12
9.9886677e-08
5.3999093e-12
9.9884567e-08
5.3755496e-12
9.9882467e-08
5.3491309e-12
9.9880379e-08
5.3205367e-12
9.9878302e-08
5.2897362e-12
9.9876239e-08
5.256109e-12
9.9874189e-08
5.2226506e-12
9.9872154e-08
5.1848244e-12
9.9870135e-08
5.1430537e-12
9.9868132e-08
5.1017622e-12
9.9866147e-08
5.0570061e-12
9.986418e-08
5.0098944e-12
9.9862232e-08
4.9603512e-12
9.9860305e-08
4.908353e-12
9.9858399e-08
4.8538965e-12
9.9856515e-08
4.7969773e-12
9.9854654e-08
4.7375918e-12
9.9852818e-08
4.6757369e-12
9.9851006e-08
4.6114128e-12
9.9849221e-08
4.5446217e-12
9.9847463e-08
4.4753668e-12
9.9845733e-08
4.4036505e-12
9.9844032e-08
4.3294726e-12
9.9842361e-08
4.252834e-12
9.9840721e-08
4.1737312e-12
9.9839113e-08
4.0921494e-12
9.9837538e-08
4.0080321e-12
9.9835996e-08
3.9213135e-12
9.983449e-08
3.8315925e-12
9.9833021e-08
3.7389345e-12
9.9831591e-08
3.6362646e-12
9.9830194e-08
3.5538117e-12
9.9829088e-08
2.8060648e-12
9.9828542e-08
1.376648e-12
9.9828312e-08
5.7131159e-13
9.9828176e-08
3.3416871e-13
9.9828084e-08
2.2805283e-13
9.9828015e-08
1.6927817e-13
9.9827961e-08
1.3137053e-13
9.9827918e-08
1.0437863e-13
9.9827884e-08
8.437587e-14
9.9827855e-08
6.9279783e-14
9.9827832e-08
5.7662618e-14
9.9827812e-08
4.8552928e-14
9.9827795e-08
4.1323078e-14
9.982778e-08
3.5544616e-14
9.9827767e-08
3.0934286e-14
9.9827756e-08
2.7250791e-14
9.9827746e-08
2.4535523e-14
9.9827737e-08
2.2304063e-14
9.9827728e-08
2.2554197e-14
9.9827719e-08
2.0584634e-14
9.9827702e-08
4.1952084e-14
9.9827689e-08
3.4878258e-14
9.9827674e-08
3.4990862e-14
4.0279266e-14
2.4685307e-06
1.9715251e-12
2.4685298e-06
3.7268383e-12
2.468529e-06
3.8018102e-12
2.468528e-06
4.2389228e-12
2.4685268e-06
5.0864748e-12
2.4685253e-06
6.1580283e-12
2.4685236e-06
7.500872e-12
2.4685215e-06
9.2153704e-12
2.4685188e-06
1.141132e-11
2.4685155e-06
1.422954e-11
2.4685114e-06
1.786644e-11
2.4685062e-06
2.2620361e-11
2.4684996e-06
2.8900099e-11
2.468491e-06
3.7461176e-11
2.4684798e-06
4.9126901e-11
2.4684647e-06
6.6578887e-11
2.4684442e-06
9.0500842e-11
2.4684136e-06
1.3536739e-10
2.4683713e-06
1.8820515e-10
2.4682927e-06
3.5076644e-10
2.4681966e-06
4.2916678e-10
2.4679581e-06
1.0753975e-09
2.4678904e-06
3.2841712e-10
1.3150416e-06
6.3067457e-06
1.4847369e-07
6.3485281e-06
1.3405145e-07
4.2323412e-08
1.3269411e-07
3.865979e-09
1.3250609e-07
5.0963514e-10
1.3240628e-07
2.7259798e-10
1.3233147e-07
2.0664876e-10
1.3227313e-07
1.6194634e-10
1.3223109e-07
1.1651889e-10
1.3220034e-07
8.5071933e-11
1.3217659e-07
6.5663832e-11
1.3215764e-07
5.2375258e-11
1.3214227e-07
4.2513565e-11
1.3212957e-07
3.5128896e-11
1.3211887e-07
2.9592664e-11
1.3210971e-07
2.5377897e-11
1.3210173e-07
2.2107333e-11
1.320947e-07
1.9534363e-11
1.3208841e-07
1.7491855e-11
1.3208271e-07
1.5858231e-11
1.320775e-07
1.454266e-11
1.3207268e-07
1.3474398e-11
1.3206818e-07
1.2603148e-11
1.3206394e-07
1.1889401e-11
1.3205992e-07
1.1303079e-11
1.3205608e-07
1.0820079e-11
1.3205238e-07
1.0420908e-11
1.3204881e-07
1.0090399e-11
1.3204534e-07
9.8166789e-12
1.3204196e-07
9.5901026e-12
1.3203865e-07
9.4026053e-12
1.320354e-07
9.2473646e-12
1.3203219e-07
9.1188845e-12
1.3202903e-07
9.0127416e-12
1.320259e-07
8.9252088e-12
1.3202279e-07
8.8531499e-12
1.3201972e-07
8.7938571e-12
1.3201666e-07
8.7450289e-12
1.3201361e-07
8.7047573e-12
1.3201058e-07
8.6714221e-12
1.3200756e-07
8.6436281e-12
1.3200455e-07
8.6201769e-12
1.3200155e-07
8.6000293e-12
1.3199856e-07
8.582272e-12
1.3199557e-07
8.5661198e-12
1.3199259e-07
8.5509107e-12
1.3198961e-07
8.5360533e-12
1.3198664e-07
8.5210333e-12
1.3198368e-07
8.5054011e-12
1.3198072e-07
8.4887575e-12
1.3197777e-07
8.4707538e-12
1.3197483e-07
8.4510822e-12
1.3197189e-07
8.4294498e-12
1.3196896e-07
8.4056347e-12
1.3196605e-07
8.3794943e-12
1.3196314e-07
8.3507731e-12
1.3196024e-07
8.3192998e-12
1.3195736e-07
8.2849411e-12
1.3195448e-07
8.2475672e-12
1.3195163e-07
8.2070787e-12
1.3194878e-07
8.1632935e-12
1.3194596e-07
8.1161578e-12
1.3194315e-07
8.0647148e-12
1.3194036e-07
8.0135723e-12
1.3193759e-07
7.9557513e-12
1.3193484e-07
7.8918859e-12
1.3193211e-07
7.8287818e-12
1.3192941e-07
7.7603829e-12
1.3192673e-07
7.6883827e-12
1.3192408e-07
7.6126642e-12
1.3192145e-07
7.533189e-12
1.3191886e-07
7.4499497e-12
1.3191629e-07
7.3629376e-12
1.3191375e-07
7.2721451e-12
1.3191125e-07
7.177566e-12
1.3190879e-07
7.0791983e-12
1.3190635e-07
6.9770439e-12
1.3190396e-07
6.8711061e-12
1.319016e-07
6.7613869e-12
1.3189928e-07
6.6478844e-12
1.31897e-07
6.5305984e-12
1.3189477e-07
6.4095219e-12
1.3189257e-07
6.2846305e-12
1.3189043e-07
6.155836e-12
1.3188833e-07
6.0230358e-12
1.3188627e-07
5.8856105e-12
1.3188427e-07
5.7436665e-12
1.3188232e-07
5.5862968e-12
1.3188041e-07
5.4600853e-12
1.318789e-07
4.3185268e-12
1.3187814e-07
2.1318425e-12
1.3187782e-07
8.9430967e-13
1.3187763e-07
5.259136e-13
1.318775e-07
3.6006398e-13
1.318774e-07
2.678197e-13
1.3187732e-07
2.081795e-13
1.3187726e-07
1.656507e-13
1.3187721e-07
1.3409026e-13
1.3187717e-07
1.1023418e-13
1.3187713e-07
9.1847786e-14
1.3187711e-07
7.7409676e-14
1.3187708e-07
6.5934544e-14
1.3187706e-07
5.6748721e-14
1.3187704e-07
4.9405678e-14
1.3187703e-07
4.3525598e-14
1.3187701e-07
3.9166619e-14
1.31877e-07
3.5575603e-14
1.3187698e-07
3.5833791e-14
1.3187697e-07
3.2671881e-14
1.3187695e-07
6.5577634e-14
1.3187693e-07
5.4592081e-14
1.3187691e-07
5.5204274e-14
6.1564254e-14
2.6637308e-06
2.5194709e-12
2.6637298e-06
4.7760284e-12
2.6637287e-06
4.8854451e-12
2.6637275e-06
5.4464356e-12
2.663726e-06
6.5312325e-12
2.6637243e-06
7.901939e-12
2.6637222e-06
9.6180837e-12
2.6637196e-06
1.1807321e-11
2.6637164e-06
1.4609099e-11
2.6637124e-06
1.8202e-11
2.6637075e-06
2.2834928e-11
2.6637012e-06
2.8885966e-11
2.6636932e-06
3.6872501e-11
2.6636829e-06
4.7751735e-11
2.6636695e-06
6.2562431e-11
2.6636514e-06
8.4702723e-11
2.6636269e-06
1.1501205e-10
2.6635904e-06
1.7183261e-10
2.66354e-06
2.3859351e-10
2.6634467e-06
4.4410083e-10
2.6633325e-06
5.4335338e-10
2.6630507e-06
1.3571961e-09
2.6629737e-06
4.0543886e-10
1.4365987e-06
7.5331206e-06
1.9235738e-07
7.5927694e-06
1.7339287e-07
6.1287916e-08
1.7155965e-07
5.6991989e-09
1.7129385e-07
7.7543195e-10
1.7115368e-07
4.1277662e-10
1.7104965e-07
3.1067662e-10
1.7096886e-07
2.427364e-10
1.7091055e-07
1.7483011e-10
1.708678e-07
1.2781446e-10
1.7083478e-07
9.8687696e-11
1.7080844e-07
7.8715582e-11
1.7078706e-07
6.3895361e-11
1.707694e-07
5.2792048e-11
1.7075453e-07
4.4458501e-11
1.707418e-07
3.8106686e-11
1.7073074e-07
3.317282e-11
1.7072098e-07
2.9287447e-11
1.7071227e-07
2.6199725e-11
1.7070441e-07
2.3727177e-11
1.7069722e-07
2.1732587e-11
1.7069058e-07
2.0112465e-11
1.7068439e-07
1.8788534e-11
1.7067858e-07
1.7702295e-11
1.7067307e-07
1.6808492e-11
1.7066782e-07
1.6070867e-11
1.7066278e-07
1.5460085e-11
1.7065792e-07
1.4953294e-11
1.706532e-07
1.4532592e-11
1.7064861e-07
1.4183432e-11
1.7064412e-07
1.3893651e-11
1.7063971e-07
1.3652963e-11
1.7063538e-07
1.3453069e-11
1.7063111e-07
1.3287282e-11
1.7062688e-07
1.3149964e-11
1.706227e-07
1.3036374e-11
1.7061855e-07
1.2942416e-11
1.7061443e-07
1.2864611e-11
1.7061033e-07
1.2800065e-11
1.7060626e-07
1.2746325e-11
1.706022e-07
1.2701274e-11
1.7059816e-07
1.2663094e-11
1.7059413e-07
1.2630208e-11
1.7059011e-07
1.2601231e-11
1.705861e-07
1.257497e-11
1.705821e-07
1.2550418e-11
1.7057811e-07
1.2526674e-11
1.7057413e-07
1.2502957e-11
1.7057016e-07
1.2478581e-11
1.7056619e-07
1.2452938e-11
1.7056224e-07
1.2425497e-11
1.7055829e-07
1.2395787e-11
1.7055436e-07
1.2363363e-11
1.7055044e-07
1.2327884e-11
1.7054653e-07
1.2289125e-11
1.7054263e-07
1.2246702e-11
1.7053875e-07
1.2200352e-11
1.7053488e-07
1.2149869e-11
1.7053104e-07
1.2095054e-11
1.7052721e-07
1.2035751e-11
1.705234e-07
1.1971687e-11
1.7051961e-07
1.1902773e-11
1.7051585e-07
1.1827588e-11
1.7051211e-07
1.1752939e-11
1.705084e-07
1.1668526e-11
1.7050472e-07
1.1575248e-11
1.7050106e-07
1.1483154e-11
1.7049744e-07
1.1383326e-11
1.7049385e-07
1.1278241e-11
1.7049029e-07
1.1167725e-11
1.7048677e-07
1.1051718e-11
1.7048329e-07
1.0930205e-11
1.7047985e-07
1.080317e-11
1.7047646e-07
1.0670599e-11
1.704731e-07
1.0532478e-11
1.7046979e-07
1.0388801e-11
1.7046653e-07
1.0239569e-11
1.7046331e-07
1.0084783e-11
1.7046015e-07
9.9244425e-12
1.7045704e-07
9.758543e-12
1.7045398e-07
9.5870805e-12
1.7045098e-07
9.410042e-12
1.7044804e-07
9.2273889e-12
1.7044516e-07
9.0389885e-12
1.7044234e-07
8.8446876e-12
1.7043958e-07
8.6435696e-12
1.7043689e-07
8.4358009e-12
1.7043427e-07
8.2052875e-12
1.7043171e-07
8.0207052e-12
1.7042967e-07
6.3567878e-12
1.7042864e-07
3.1616056e-12
1.7042819e-07
1.343423e-12
1.7042792e-07
7.950515e-13
1.7042773e-07
5.4638079e-13
1.7042759e-07
4.0739741e-13
1.7042749e-07
3.1727516e-13
1.704274e-07
2.5289819e-13
1.7042733e-07
2.0504585e-13
1.7042727e-07
1.6880854e-13
1.7042722e-07
1.4082996e-13
1.7042718e-07
1.1882355e-13
1.7042714e-07
1.0130432e-13
1.7042711e-07
8.725517e-14
1.7042709e-07
7.599995e-14
1.7042706e-07
6.696452e-14
1.7042704e-07
6.0225201e-14
1.7042702e-07
5.4659487e-14
1.70427e-07
5.4820292e-14
1.7042699e-07
4.9939508e-14
1.7042695e-07
9.8461166e-14
1.7042693e-07
8.2208433e-14
1.704269e-07
8.3324222e-14
9.0463796e-14
2.8986266e-06
3.1913156e-12
2.8986253e-06
6.0686961e-12
2.898624e-06
6.2267251e-12
2.8986225e-06
6.9407631e-12
2.8986207e-06
8.3172856e-12
2.8986185e-06
1.005552e-11
2.8986159e-06
1.2229582e-11
2.8986127e-06
1.5000323e-11
2.8986088e-06
1.8543181e-11
2.8986039e-06
2.3082459e-11
2.8985978e-06
2.8930526e-11
2.8985901e-06
3.6561884e-11
2.8985804e-06
4.6624914e-11
2.8985678e-06
6.0320549e-11
2.8985514e-06
7.8946035e-11
2.8985294e-06
1.0676569e-10
2.8984996e-06
1.4479555e-10
2.8984554e-06
2.1605285e-10
2.8983944e-06
2.9956244e-10
2.8982817e-06
5.5677097e-10
2.8981439e-06
6.8121435e-10
2.8978055e-06
1.6955515e-09
2.8977165e-06
4.9442935e-10
1.5833588e-06
8.8474784e-06
2.4592034e-07
8.9302079e-06
2.2122467e-07
8.598359e-08
2.1876615e-07
8.1577221e-09
2.1839196e-07
1.1496209e-09
2.1819593e-07
6.0880345e-10
2.1805189e-07
4.5471587e-10
2.1794051e-07
3.5411816e-10
2.1785998e-07
2.5535683e-10
2.1780083e-07
1.8697197e-10
2.1775509e-07
1.4442596e-10
2.177186e-07
1.1520168e-10
2.1768898e-07
9.3517034e-11
2.1766451e-07
7.7261266e-11
2.1764392e-07
6.5044657e-11
2.1762631e-07
5.5720674e-11
2.1761101e-07
4.84697e-11
2.1759755e-07
4.2753104e-11
2.1758554e-07
3.8204426e-11
2.1757471e-07
3.4557047e-11
2.1756484e-07
3.1610586e-11
2.1755573e-07
2.9213677e-11
2.1754727e-07
2.7251939e-11
2.1753933e-07
2.5639652e-11
2.1753183e-07
2.4310529e-11
2.1752469e-07
2.3211454e-11
2.1751785e-07
2.2299434e-11
2.1751126e-07
2.1540933e-11
2.1750489e-07
2.0909657e-11
2.1749869e-07
2.0384227e-11
2.1749263e-07
1.9946778e-11
2.174867e-07
1.95822e-11
2.1748088e-07
1.9278284e-11
2.1747514e-07
1.9025175e-11
2.1746948e-07
1.8814568e-11
2.1746387e-07
1.8639471e-11
2.1745832e-07
1.8493852e-11
2.1745281e-07
1.8372579e-11
2.1744734e-07
1.8271382e-11
2.174419e-07
1.818663e-11
2.1743649e-07
1.8115197e-11
2.174311e-07
1.8054394e-11
2.1742572e-07
1.8001888e-11
2.1742037e-07
1.7955629e-11
2.1741503e-07
1.791385e-11
2.1740971e-07
1.7875056e-11
2.174044e-07
1.7837912e-11
2.173991e-07
1.7801257e-11
2.1739381e-07
1.7764072e-11
2.1738854e-07
1.7725454e-11
2.1738328e-07
1.7684611e-11
2.1737803e-07
1.7640843e-11
2.173728e-07
1.7593491e-11
2.1736759e-07
1.7542041e-11
2.1736239e-07
1.7486147e-11
2.1735722e-07
1.7425246e-11
2.1735206e-07
1.7358945e-11
2.1734692e-07
1.7286932e-11
2.1734181e-07
1.7208908e-11
2.1733672e-07
1.7124636e-11
2.1733165e-07
1.7033719e-11
2.1732662e-07
1.6936009e-11
2.1732162e-07
1.6829448e-11
2.1731665e-07
1.6723835e-11
2.1731171e-07
1.6604372e-11
2.1730682e-07
1.6472273e-11
2.1730196e-07
1.6342001e-11
2.1729714e-07
1.6200772e-11
2.1729237e-07
1.6052104e-11
2.1728764e-07
1.5895749e-11
2.1728296e-07
1.5731613e-11
2.1727833e-07
1.5559669e-11
2.1727375e-07
1.5379887e-11
2.1726923e-07
1.519224e-11
2.1726477e-07
1.4996705e-11