/*--------------------------------*- C++ -*----------------------------------*\
| =========                 |                                                 |
| \\      /  F ield         | OpenFOAM: The Open Source CFD Toolbox           |
|  \\    /   O peration     | Version:  2206                                  |
|   \\  /    A nd           | Website:  www.openfoam.com                      |
|    \\/     M anipulation  |                                                 |
\*---------------------------------------------------------------------------*/
FoamFile
{
    version     2.0;
    format      ascii;
    arch        "LSB;label=32;scalar=64";
    class       volVectorField;
    location    "200";
    object      U;
}
// * * * * * * * * * * * * * * * * * * * * * * * * * * * * * * * * * * * * * //

dimensions      [0 1 -1 0 0 0 0];

internalField   nonuniform List<vector> 
13056
(
(1 2.9910733e-12 1.7670426e-25)
(0.99999977 6.351438e-12 0)
(0.99999954 7.2790287e-12 0)
(0.99999931 9.2125123e-12 0)
(0.99999903 1.2568291e-11 0)
(0.99999869 1.7294293e-11 0)
(0.99999828 2.3935326e-11 0)
(0.99999777 3.3394129e-11 0)
(0.99999715 4.6920065e-11 0)
(0.99999638 6.6310703e-11 0)
(0.9999954 9.4223048e-11 0)
(0.99999417 1.3474706e-10 0)
(0.9999926 1.9398818e-10 0)
(0.99999058 2.8248315e-10 0)
(0.99998794 4.1459834e-10 0)
(0.99998444 6.2588397e-10 0)
(0.99997959 9.4230696e-10 0)
(0.99997304 1.550134e-09 0)
(0.99996251 2.3510516e-09 0)
(0.99994905 4.7307776e-09 0)
(0.99991794 6.1458528e-09 0)
(0.99989363 1.6332561e-08 0)
(0.99977953 5.7452175e-09 -4.3607265e-21)
(0.9998463 0.00012465626 1.3994915e-17)
(0.0057247338 0.00012509693 0)
(0.0048014496 9.4050576e-08 -3.3459582e-18)
(0.0047225659 2.2381022e-09 0)
(0.0047155815 3.3065425e-10 0)
(0.0047123667 1.7009529e-10 0)
(0.0047100318 1.27036e-10 0)
(0.0047080442 9.7842219e-11 0)
(0.0047066046 6.9923156e-11 0)
(0.0047055867 5.1014712e-11 0)
(0.0047048167 3.9146147e-11 0)
(0.0047042071 3.092404e-11 0)
(0.0047037157 2.4844841e-11 0)
(0.0047033132 2.0303138e-11 0)
(0.0047029767 1.688842e-11 0)
(0.0047026899 1.4278227e-11 0)
(0.0047024412 1.2245982e-11 0)
(0.0047022224 1.0641261e-11 0)
(0.004702027 9.3607361e-12 0)
(0.0047018504 8.3293294e-12 0)
(0.0047016886 7.4908146e-12 0)
(0.004701539 6.802656e-12 0)
(0.004701399 6.2330045e-12 0)
(0.0047012671 5.7580262e-12 0)
(0.0047011416 5.3592628e-12 0)
(0.0047010215 5.0219679e-12 0)
(0.0047009057 4.7343033e-12 0)
(0.0047007935 4.4870546e-12 0)
(0.0047006843 4.2729948e-12 0)
(0.0047005774 4.0862777e-12 0)
(0.0047004726 3.9220778e-12 0)
(0.0047003694 3.7763734e-12 0)
(0.0047002675 3.6459236e-12 0)
(0.0047001667 3.5281202e-12 0)
(0.0047000668 3.4207952e-12 0)
(0.0046999677 3.322146e-12 0)
(0.0046998691 3.2306519e-12 0)
(0.0046997709 3.1450428e-12 0)
(0.0046996732 3.0642754e-12 0)
(0.0046995757 2.9874832e-12 0)
(0.0046994785 2.9139399e-12 0)
(0.0046993815 2.8430399e-12 0)
(0.0046992847 2.7742767e-12 0)
(0.004699188 2.7072257e-12 0)
(0.0046990915 2.641537e-12 0)
(0.004698995 2.5769293e-12 0)
(0.0046988987 2.5131692e-12 0)
(0.0046988026 2.4500676e-12 0)
(0.0046987065 2.3874747e-12 0)
(0.0046986106 2.3252723e-12 0)
(0.0046985149 2.2633707e-12 0)
(0.0046984194 2.2017042e-12 0)
(0.0046983241 2.1402236e-12 0)
(0.0046982291 2.0789053e-12 0)
(0.0046981343 2.0177518e-12 0)
(0.0046980398 1.9567507e-12 0)
(0.0046979457 1.8959131e-12 0)
(0.0046978519 1.8352647e-12 0)
(0.0046977585 1.7748366e-12 0)
(0.0046976656 1.7146669e-12 0)
(0.0046975731 1.6547824e-12 0)
(0.0046974812 1.5952391e-12 0)
(0.0046973898 1.5358314e-12 0)
(0.004697299 1.4778631e-12 0)
(0.0046972088 1.4196264e-12 0)
(0.0046971194 1.3613429e-12 0)
(0.0046970306 1.3047269e-12 0)
(0.0046969426 1.2484282e-12 0)
(0.0046968554 1.1928952e-12 0)
(0.004696769 1.138171e-12 0)
(0.0046966836 1.0843117e-12 0)
(0.004696599 1.0313782e-12 0)
(0.0046965155 9.7942828e-13 0)
(0.0046964329 9.285173e-13 0)
(0.0046963514 8.7869862e-13 0)
(0.004696271 8.3002411e-13 0)
(0.0046961918 7.8254282e-13 0)
(0.0046961137 7.3630062e-13 0)
(0.0046960369 6.9134071e-13 0)
(0.0046959614 6.4770281e-13 0)
(0.0046958871 6.0542323e-13 0)
(0.0046958142 5.6453504e-13 0)
(0.0046957427 5.250663e-13 0)
(0.0046956727 4.8703614e-13 0)
(0.0046956041 4.5046077e-13 0)
(0.0046955371 4.1531567e-13 0)
(0.0046954717 3.8163361e-13 0)
(0.0046954079 3.4870865e-13 0)
(0.004695346 3.1949317e-13 0)
(0.0046952851 2.395313e-13 0)
(0.0046952511 1.2109464e-13 0)
(0.0046952388 5.4904514e-14 0)
(0.0046952321 3.3324033e-14 0)
(0.0046952278 2.3190805e-14 0)
(0.0046952247 1.7436348e-14 0)
(0.0046952224 1.3668592e-14 0)
(0.0046952205 1.0958488e-14 0)
(0.004695219 8.9333214e-15 0)
(0.0046952178 7.3913066e-15 0)
(0.0046952168 6.1944154e-15 0)
(0.004695216 5.248689e-15 0)
(0.0046952153 4.492752e-15 0)
(0.0046952147 3.8845044e-15 0)
(0.0046952142 3.3957517e-15 0)
(0.0046952137 3.0032996e-15 0)
(0.0046952133 2.7096203e-15 0)
(0.0046952129 2.4743425e-15 0)
(0.0046952126 2.4747374e-15 0)
(0.0046952122 2.3236194e-15 0)
(0.0046952119 4.2410788e-15 0)
(0.0046952108 1.2048915e-14 0)
(0.0046952108 4.7998878e-16 2.2843124e-25)
(0.0046952095 1.7124387e-14 0)
(1 9.3157707e-12 0)
(0.99999976 1.9822128e-11 0)
(0.99999951 2.2746471e-11 0)
(0.99999926 2.8786531e-11 0)
(0.99999896 3.9259129e-11 0)
(0.9999986 5.4001452e-11 0)
(0.99999816 7.4707382e-11 0)
(0.99999763 1.0418494e-10 0)
(0.99999697 1.4631806e-10 0)
(0.99999614 2.0669185e-10 0)
(0.99999511 2.935578e-10 0)
(0.9999938 4.1961306e-10 0)
(0.99999214 6.0380041e-10 0)
(0.99999 8.788074e-10 0)
(0.9999872 1.2891475e-09 0)
(0.9999835 1.9450589e-09 0)
(0.99997838 2.9266869e-09 0)
(0.99997147 4.8115126e-09 0)
(0.99996037 7.2924074e-09 0)
(0.99994621 1.4663267e-08 0)
(0.9999135 1.9049245e-08 0)
(0.99988793 5.0537968e-08 0)
(0.99976842 1.7059947e-08 1.5613176e-20)
(0.99983956 0.00037372949 -2.9398606e-21)
(0.017181593 0.00037439055 0)
(0.014426011 5.2637461e-07 0)
(0.014186985 4.4662406e-08 0)
(0.014165313 5.3080847e-09 0)
(0.014155342 2.8542838e-09 0)
(0.014148148 2.1999777e-09 0)
(0.014142058 1.7251482e-09 0)
(0.014137645 1.2255724e-09 0)
(0.014134522 8.8327651e-10 0)
(0.014132159 6.7471838e-10 0)
(0.014130289 5.3280567e-10 0)
(0.014128782 4.2798695e-10 0)
(0.014127547 3.4996855e-10 0)
(0.014126516 2.918359e-10 0)
(0.014125637 2.4780571e-10 0)
(0.014124875 2.1377437e-10 0)
(0.014124204 1.8707585e-10 0)
(0.014123606 1.659092e-10 0)
(0.014123066 1.4896885e-10 0)
(0.014122571 1.3527903e-10 0)
(0.014122114 1.241064e-10 0)
(0.014121686 1.149035e-10 0)
(0.014121284 1.0726157e-10 0)
(0.014120901 1.008667e-10 0)
(0.014120535 9.5469327e-11 0)
(0.014120182 9.0869948e-11 0)
(0.01411984 8.691432e-11 0)
(0.014119508 8.3482323e-11 0)
(0.014119183 8.0477243e-11 0)
(0.014118864 7.7819311e-11 0)
(0.01411855 7.5442179e-11 0)
(0.01411824 7.3293073e-11 0)
(0.014117934 7.132998e-11 0)
(0.014117631 6.9518128e-11 0)
(0.01411733 6.7828825e-11 0)
(0.01411703 6.6237909e-11 0)
(0.014116733 6.4725411e-11 0)
(0.014116436 6.3275235e-11 0)
(0.01411614 6.1874157e-11 0)
(0.014115845 6.0511233e-11 0)
(0.014115551 5.9177488e-11 0)
(0.014115258 5.7865547e-11 0)
(0.014114964 5.6569324e-11 0)
(0.014114672 5.5283976e-11 0)
(0.014114379 5.4005796e-11 0)
(0.014114087 5.2731796e-11 0)
(0.014113796 5.1459725e-11 0)
(0.014113505 5.0187938e-11 0)
(0.014113214 4.8915273e-11 0)
(0.014112924 4.7641028e-11 0)
(0.014112635 4.6364874e-11 0)
(0.014112346 4.5086675e-11 0)
(0.014112058 4.3806804e-11 0)
(0.01411177 4.2526125e-11 0)
(0.014111484 4.1244938e-11 0)
(0.014111199 3.9964065e-11 0)
(0.014110914 3.8684576e-11 0)
(0.014110632 3.7407572e-11 0)
(0.01411035 3.6134311e-11 0)
(0.01411007 3.4865693e-11 0)
(0.014109791 3.3603263e-11 0)
(0.014109514 3.234469e-11 0)
(0.014109239 3.1110444e-11 -3.4730994e-26)
(0.014108966 2.9873798e-11 -3.128095e-26)
(0.014108694 2.8639983e-11 0)
(0.014108425 2.7436041e-11 0)
(0.014108159 2.6240692e-11 0)
(0.014107894 2.5061822e-11 0)
(0.014107633 2.390046e-11 0)
(0.014107374 2.2757898e-11 0)
(0.014107117 2.1635475e-11 0)
(0.014106864 2.0534465e-11 0)
(0.014106614 1.9456086e-11 0)
(0.014106367 1.8401496e-11 0)
(0.014106123 1.73718e-11 0)
(0.014105883 1.6368046e-11 0)
(0.014105646 1.5391211e-11 0)
(0.014105414 1.4442199e-11 0)
(0.014105184 1.3521833e-11 0)
(0.014104959 1.2630866e-11 0)
(0.014104738 1.1769967e-11 0)
(0.014104522 1.09397e-11 0)
(0.014104309 1.0140454e-11 0)
(0.014104101 9.3725505e-12 0)
(0.014103898 8.6355137e-12 0)
(0.0141037 7.9299573e-12 0)
(0.014103506 7.2422224e-12 0)
(0.014103319 6.6313238e-12 0)
(0.014103134 4.8789865e-12 0)
(0.014103031 2.3054205e-12 0)
(0.014102993 9.3671731e-13 0)
(0.014102973 5.4190353e-13 0)
(0.014102959 3.6734033e-13 0)
(0.01410295 2.714846e-13 0)
(0.014102943 2.1000459e-13 0)
(0.014102937 1.6634826e-13 0)
(0.014102932 1.3408996e-13 0)
(0.014102929 1.0982698e-13 0)
(0.014102925 9.1216962e-14 0)
(0.014102923 7.6668558e-14 0)
(0.014102921 6.515955e-14 0)
(0.014102919 5.59948e-14 0)
(0.014102917 4.871764e-14 0)
(0.014102916 4.2938747e-14 0)
(0.014102915 3.8743958e-14 0)
(0.014102913 3.5334337e-14 0)
(0.014102912 3.6103204e-14 0)
(0.014102911 3.3181239e-14 0)
(0.01410291 6.9637803e-14 0)
(0.014102907 5.9598266e-14 0)
(0.014102907 5.0566765e-14 -3.6468773e-25)
(0.014102903 7.8410783e-14 7.7985234e-26)
(1 1.6221001e-11 0)
(0.99999974 3.4551174e-11 0)
(0.99999947 3.9705505e-11 0)
(0.9999992 5.024519e-11 0)
(0.99999888 6.8499723e-11 0)
(0.99999849 9.4185692e-11 0)
(0.99999802 1.3024389e-10 0)
(0.99999744 1.815521e-10 0)
(0.99999673 2.5485328e-10 0)
(0.99999584 3.5983828e-10 0)
(0.99999473 5.1081737e-10 0)
(0.99999333 7.2980246e-10 0)
(0.99999154 1.0496127e-09 0)
(0.99998925 1.5268732e-09 0)
(0.99998626 2.2385977e-09 0)
(0.99998231 3.3756678e-09 0)
(0.99997684 5.0761846e-09 0)
(0.99996947 8.3398703e-09 0)
(0.99995765 1.2630876e-08 0)
(0.9999426 2.5378681e-08 0)
(0.99990787 3.2970135e-08 0)
(0.99988072 8.7309149e-08 0)
(0.99975439 2.9241778e-08 -8.2706731e-21)
(0.999831 0.00062516465 3.1656139e-55)
(0.028772972 0.00062642556 -3.1653005e-55)
(0.024164901 1.5212845e-06 0)
(0.023759413 1.3158711e-07 0)
(0.023721643 1.5902777e-08 0)
(0.023704286 8.5325929e-09 0)
(0.023691848 6.5404713e-09 0)
(0.023681377 5.1193544e-09 0)
(0.023673786 3.6389393e-09 0)
(0.023668408 2.6235628e-09 0)
(0.023664338 2.0039143e-09 0)
(0.023661118 1.5822528e-09 0)
(0.023658523 1.2708885e-09 0)
(0.023656397 1.0391005e-09 0)
(0.023654621 8.6633042e-10 0)
(0.023653108 7.3542942e-10 0)
(0.023651797 6.342276e-10 0)
(0.023650645 5.5481127e-10 0)
(0.023649617 4.9183158e-10 0)
(0.023648689 4.4141144e-10 0)
(0.023647841 4.0065422e-10 0)
(0.023647056 3.6738255e-10 0)
(0.023646325 3.399709e-10 0)
(0.023645635 3.1720403e-10 0)
(0.023644981 2.9814903e-10 0)
(0.023644355 2.8206443e-10 0)
(0.023643752 2.6835733e-10 0)
(0.023643169 2.5656911e-10 0)
(0.023642602 2.4634248e-10 0)
(0.023642048 2.3738972e-10 0)
(0.023641505 2.2947351e-10 0)
(0.023640971 2.2239645e-10 0)
(0.023640444 2.1600146e-10 0)
(0.023639923 2.1016336e-10 0)
(0.023639407 2.0477855e-10 0)
(0.023638896 1.9976151e-10 0)
(0.023638387 1.9504024e-10 0)
(0.023637881 1.9055517e-10 0)
(0.023637377 1.8625826e-10 0)
(0.023636875 1.8210999e-10 0)
(0.023636375 1.7807766e-10 0)
(0.023635876 1.7413441e-10 0)
(0.023635377 1.7025816e-10 0)
(0.02363488 1.6643066e-10 0)
(0.023634383 1.6263735e-10 0)
(0.023633887 1.5886708e-10 0)
(0.023633392 1.5511081e-10 0)
(0.023632898 1.5136172e-10 0)
(0.023632404 1.4761478e-10 0)
(0.023631911 1.4386643e-10 0)
(0.023631419 1.4011444e-10 0)
(0.023630928 1.3635773e-10 0)
(0.023630439 1.3259578e-10 0)
(0.02362995 1.2882958e-10 0)
(0.023629463 1.2506158e-10 0)
(0.023628978 1.2129259e-10 0)
(0.023628494 1.1752496e-10 0)
(0.023628012 1.1376177e-10 0)
(0.023627532 1.1000618e-10 0)
(0.023627055 1.0626187e-10 0)
(0.02362658 1.0253143e-10 0)
(0.023626107 9.8819341e-11 0)
(0.023625638 9.5118948e-11 0)
(0.023625171 9.1489593e-11 0)
(0.023624708 8.7853683e-11 0)
(0.023624248 8.422653e-11 0)
(0.023623792 8.0686612e-11 0)
(0.02362334 7.7172229e-11 0)
(0.023622892 7.3706286e-11 0)
(0.023622448 7.0291807e-11 0)
(0.023622009 6.6932583e-11 0)
(0.023621574 6.3632539e-11 0)
(0.023621145 6.0395415e-11 0)
(0.02362072 5.7224782e-11 0)
(0.023620301 5.4124041e-11 0)
(0.023619888 5.1096441e-11 0)
(0.023619481 4.8145055e-11 0)
(0.023619079 4.5272757e-11 0)
(0.023618684 4.2482205e-11 0)
(0.023618296 3.977582e-11 0)
(0.023617914 3.7155818e-11 0)
(0.023617539 3.4624166e-11 0)
(0.023617171 3.2182524e-11 0)
(0.023616811 2.9832044e-11 0)
(0.023616458 2.7573675e-11 0)
(0.023616113 2.5406026e-11 0)
(0.023615777 2.3330936e-11 0)
(0.023615448 2.1308224e-11 0)
(0.02361513 1.9511798e-11 0)
(0.023614816 1.4365194e-11 0)
(0.02361464 6.8041955e-12 0)
(0.023614576 2.7766577e-12 0)
(0.023614541 1.6101398e-12 0)
(0.023614518 1.0930832e-12 0)
(0.023614502 8.0861416e-13 0)
(0.023614489 6.2592956e-13 0)
(0.023614479 4.9613454e-13 0)
(0.023614471 4.0016582e-13 0)
(0.023614465 3.2792774e-13 0)
(0.023614459 2.7247875e-13 0)
(0.023614455 2.2910098e-13 0)
(0.023614451 1.9475938e-13 0)
(0.023614448 1.6738804e-13 0)
(0.023614445 1.4562777e-13 0)
(0.023614442 1.2831861e-13 0)
(0.02361444 1.1570291e-13 0)
(0.023614438 1.0540431e-13 0)
(0.023614436 1.074146e-13 0)
(0.023614434 9.8415771e-14 0)
(0.023614433 2.0552426e-13 0)
(0.023614427 1.7232457e-13 0)
(0.023614427 1.604771e-13 0)
(0.02361442 2.1409557e-13 0)
(1 2.3963589e-11 3.6973634e-25)
(0.99999972 5.1128104e-11 0)
(0.99999943 5.8855828e-11 0)
(0.99999913 7.4472186e-11 0)
(0.99999878 1.0148592e-10 0)
(0.99999835 1.3947898e-10 0)
(0.99999784 1.9278293e-10 0)
(0.99999721 2.685875e-10 0)
(0.99999643 3.7682552e-10 0)
(0.99999547 5.3176284e-10 0)
(0.99999426 7.5445338e-10 0)
(0.99999274 1.0772679e-09 0)
(0.9999908 1.5484357e-09 0)
(0.99998832 2.251158e-09 0)
(0.99998508 3.298424e-09 0)
(0.99998082 4.9705651e-09 0)
(0.99997492 7.4692074e-09 0)
(0.99996698 1.2262283e-08 0)
(0.99995428 1.8555534e-08 0)
(0.99993813 3.7251703e-08 0)
(0.9999009 4.8392245e-08 0)
(0.99987179 1.2787549e-07 0)
(0.99973705 4.2254626e-08 0)
(0.99982039 0.00088266575 -1.6510832e-55)
(0.040609707 0.00088557435 1.6509232e-55)
(0.034092559 3.1263286e-06 0)
(0.033509584 2.7300732e-07 0)
(0.033453381 3.350365e-08 0)
(0.033427608 1.7937843e-08 0)
(0.033409288 1.3687348e-08 0)
(0.033393964 1.0695073e-08 0)
(0.033382849 7.6061144e-09 0)
(0.033374961 5.4860402e-09 0)
(0.03336899 4.1901997e-09 0)
(0.033364265 3.3082195e-09 0)
(0.033360458 2.6570787e-09 0)
(0.03335734 2.1722792e-09 0)
(0.033354736 1.8107869e-09 0)
(0.033352518 1.5368032e-09 0)
(0.033350598 1.3249217e-09 0)
(0.033348911 1.1586064e-09 0)
(0.033347408 1.0266744e-09 0)
(0.033346052 9.2102015e-10 0)
(0.033344813 8.3559006e-10 0)
(0.03334367 7.6583137e-10 0)
(0.033342604 7.0834687e-10 0)
(0.033341601 6.6059291e-10 0)
(0.033340649 6.2061763e-10 0)
(0.033339741 5.8686988e-10 0)
(0.033338867 5.5810912e-10 0)
(0.033338022 5.3337528e-10 0)
(0.033337201 5.1192009e-10 0)
(0.0333364 4.9314091e-10 0)
(0.033335615 4.7654064e-10 0)
(0.033334844 4.6170586e-10 0)
(0.033334084 4.4830723e-10 0)
(0.033333332 4.3608228e-10 0)
(0.033332589 4.2481367e-10 0)
(0.033331851 4.1432194e-10 0)
(0.033331119 4.0445597e-10 0)
(0.033330391 3.9509071e-10 0)
(0.033329666 3.8612517e-10 0)
(0.033328943 3.7747628e-10 0)
(0.033328224 3.6907519e-10 0)
(0.033327506 3.6086533e-10 0)
(0.033326789 3.5280014e-10 0)
(0.033326074 3.4484111e-10 0)
(0.033325361 3.3695749e-10 0)
(0.033324648 3.2912557e-10 0)
(0.033323937 3.2132618e-10 0)
(0.033323227 3.1354476e-10 0)
(0.033322518 3.0577051e-10 0)
(0.03332181 2.9799572e-10 0)
(0.033321103 2.9021549e-10 0)
(0.033320399 2.8242728e-10 0)
(0.033319695 2.7462983e-10 0)
(0.033318994 2.6682496e-10 0)
(0.033318295 2.5901754e-10 0)
(0.033317598 2.5120909e-10 0)
(0.033316903 2.4340435e-10 0)
(0.033316211 2.3560953e-10 0)
(0.033315523 2.278311e-10 0)
(0.033314837 2.2007652e-10 0)
(0.033314155 2.1235114e-10 0)
(0.033313477 2.0466409e-10 0)
(0.033312803 1.9700189e-10 0)
(0.033312133 1.8948602e-10 2.0041899e-26)
(0.033311467 1.8195741e-10 1.8050379e-26)
(0.033310807 1.7444767e-10 0)
(0.033310152 1.6711758e-10 0)
(0.033309503 1.5984082e-10 0)
(0.033308859 1.5266433e-10 0)
(0.033308222 1.4559438e-10 0)
(0.033307591 1.3863879e-10 0)
(0.033306967 1.3180567e-10 0)
(0.03330635 1.2510274e-10 0)
(0.033305741 1.1853739e-10 0)
(0.033305139 1.1211666e-10 0)
(0.033304545 1.0584725e-10 0)
(0.03330396 9.9735534e-11 0)
(0.033303383 9.3787455e-11 0)
(0.033302816 8.8008518e-11 0)
(0.033302258 8.2403737e-11 0)
(0.033301709 7.6977705e-11 0)
(0.03330117 7.1734497e-11 0)
(0.033300642 6.6677559e-11 0)
(0.033300124 6.1809283e-11 0)
(0.033299617 5.713165e-11 0)
(0.033299122 5.2641787e-11 0)
(0.033298638 4.8343558e-11 0)
(0.033298166 4.4153703e-11 0)
(0.033297708 4.0433016e-11 0)
(0.033297257 2.9788075e-11 0)
(0.033297003 1.4144402e-11 0)
(0.033296909 5.7977215e-12 0)
(0.033296857 3.3699306e-12 0)
(0.033296823 2.2911215e-12 0)
(0.033296799 1.6964553e-12 0)
(0.03329678 1.3140961e-12 0)
(0.033296765 1.0422833e-12 0)
(0.033296754 8.4118213e-13 0)
(0.033296744 6.8969565e-13 0)
(0.033296736 5.7333242e-13 0)
(0.033296729 4.8223968e-13 0)
(0.033296724 4.1007083e-13 0)
(0.033296719 3.5250187e-13 0)
(0.033296715 3.0668385e-13 0)
(0.033296711 2.7018567e-13 0)
(0.033296708 2.4348591e-13 0)
(0.033296705 2.2162924e-13 0)
(0.033296702 2.2529662e-13 0)
(0.033296699 2.060405e-13 0)
(0.033296697 4.2755125e-13 0)
(0.033296688 3.5632961e-13 0)
(0.033296688 3.4645584e-13 0)
(0.033296679 4.2813587e-13 0)
(1 3.2837104e-11 0)
(0.99999969 7.0201539e-11 0)
(0.99999937 8.0972234e-11 0)
(0.99999904 1.0244621e-10 0)
(0.99999865 1.3954025e-10 0)
(0.99999818 1.9168364e-10 0)
(0.99999762 2.6479244e-10 0)
(0.99999692 3.6869494e-10 0)
(0.99999607 5.1696014e-10 0)
(0.999995 7.2906177e-10 0)
(0.99999368 1.0337207e-09 0)
(0.99999201 1.4750738e-09 0)
(0.99998989 2.1188268e-09 0)
(0.99998718 3.0783121e-09 0)
(0.99998364 4.5071739e-09 0)
(0.99997899 6.787053e-09 0)
(0.99997257 1.019059e-08 0)
(0.99996394 1.6715811e-08 0)
(0.99995014 2.5270062e-08 0)
(0.99993265 5.0683742e-08 0)
(0.99989238 6.5837182e-08 0)
(0.99986088 1.7355725e-07 0)
(0.99971592 5.6395383e-08 0)
(0.99980742 0.0011497668 0)
(0.052800189 0.0011548277 0)
(0.044280819 5.4068828e-06 0)
(0.043504253 4.7809954e-07 0)
(0.043426227 5.9915772e-08 0)
(0.043390551 3.1975699e-08 0)
(0.043365421 2.4265719e-08 0)
(0.043344551 1.8919418e-08 0)
(0.043329404 1.3464194e-08 0)
(0.043318633 9.7182994e-09 0)
(0.043310476 7.423407e-09 0)
(0.043304022 5.8604599e-09 0)
(0.043298821 4.706788e-09 0)
(0.043294561 3.8476181e-09 0)
(0.043291004 3.2065908e-09 0)
(0.043287977 2.7204552e-09 0)
(0.043285358 2.3443299e-09 0)
(0.043283059 2.0489607e-09 0)
(0.043281013 1.8145445e-09 0)
(0.043279169 1.6267285e-09 0)
(0.043277487 1.4747941e-09 0)
(0.043275937 1.3506803e-09 0)
(0.043274493 1.2483674e-09 0)
(0.043273137 1.1633459e-09 0)
(0.043271852 1.0921542e-09 0)
(0.043270626 1.032042e-09 0)
(0.04326945 9.8080875e-10 0)
(0.043268313 9.3675041e-10 0)
(0.04326721 8.9853808e-10 0)
(0.043266135 8.6510111e-10 0)
(0.043265083 8.3555644e-10 0)
(0.043264049 8.091695e-10 0)
(0.043263032 7.853546e-10 0)
(0.043262027 7.6364446e-10 0)
(0.043261034 7.4365208e-10 0)
(0.043260049 7.2505773e-10 0)
(0.043259071 7.0759214e-10 0)
(0.043258099 6.9103233e-10 0)
(0.043257133 6.7519791e-10 0)
(0.04325617 6.5994036e-10 0)
(0.043255211 6.4513652e-10 0)
(0.043254255 6.30685e-10 0)
(0.043253301 6.1650224e-10 0)
(0.04325235 6.0251904e-10 0)
(0.0432514 5.8867997e-10 0)
(0.043250452 5.7494213e-10 0)
(0.043249505 5.6127071e-10 0)
(0.043248561 5.4763908e-10 0)
(0.043247618 5.3402739e-10 0)
(0.043246677 5.2042121e-10 0)
(0.043245737 5.0681121e-10 0)
(0.0432448 4.9319222e-10 0)
(0.043243865 4.7956139e-10 0)
(0.043242933 4.6592134e-10 0)
(0.043242003 4.5227997e-10 0)
(0.043241077 4.386396e-10 0)
(0.043240154 4.2500806e-10 0)
(0.043239234 4.1139583e-10 0)
(0.043238318 3.9781387e-10 0)
(0.043237407 3.8427495e-10 0)
(0.0432365 3.7078816e-10 0)
(0.043235599 3.5736912e-10 0)
(0.043234703 3.4399448e-10 0)
(0.043233812 3.3087515e-10 0)
(0.043232927 3.1773452e-10 0)
(0.04323205 3.0462737e-10 0)
(0.043231179 2.9183314e-10 0)
(0.043230316 2.7913246e-10 0)
(0.04322946 2.6660671e-10 0)
(0.043228613 2.542668e-10 0)
(0.043227774 2.4212633e-10 0)
(0.043226944 2.3019938e-10 0)
(0.043226123 2.1849942e-10 0)
(0.043225313 2.0703928e-10 0)
(0.043224512 1.9583123e-10 0)
(0.043223722 1.8488697e-10 0)
(0.043222944 1.7421759e-10 0)
(0.043222177 1.6383347e-10 0)
(0.043221422 1.5374421e-10 0)
(0.043220679 1.4395858e-10 0)
(0.043219949 1.3448461e-10 0)
(0.043219232 1.2532941e-10 0)
(0.043218529 1.1649902e-10 0)
(0.043217839 1.0799765e-10 0)
(0.043217165 9.9828768e-11 0)
(0.043216505 9.1987374e-11 0)
(0.043215861 8.4480336e-11 0)
(0.043215232 7.7161942e-11 0)
(0.043214623 7.0663998e-11 0)
(0.043214022 5.2117623e-11 0)
(0.043213682 2.4848488e-11 0)
(0.043213553 1.0259093e-11 0)
(0.043213483 5.9850778e-12 0)
(0.043213436 4.0781183e-12 0)
(0.043213402 3.0240034e-12 0)
(0.043213376 2.3449894e-12 0)
(0.043213356 1.8618347e-12 0)
(0.043213339 1.5040292e-12 0)
(0.043213326 1.234202e-12 0)
(0.043213315 1.0267131e-12 0)
(0.043213305 8.641224e-13 0)
(0.043213297 7.351756e-13 0)
(0.043213291 6.3219607e-13 0)
(0.043213285 5.5011584e-13 0)
(0.04321328 4.8461407e-13 0)
(0.043213275 4.3647569e-13 0)
(0.043213271 3.9697032e-13 0)
(0.043213267 4.0226585e-13 0)
(0.043213263 3.6738259e-13 0)
(0.04321326 7.5442884e-13 0)
(0.043213248 6.2730305e-13 0)
(0.043213248 6.2430364e-13 -4.6979964e-25)
(0.043213235 7.3408735e-13 1.0046251e-25)
(1 4.322997e-11 0)
(0.99999965 9.2634776e-11 0)
(0.9999993 1.0709012e-10 0)
(0.99999893 1.3547499e-10 0)
(0.9999985 1.8442823e-10 0)
(0.99999798 2.5320311e-10 0)
(0.99999734 3.4955952e-10 0)
(0.99999657 4.8640211e-10 0)
(0.99999562 6.8153419e-10 0)
(0.99999444 9.6048494e-10 0)
(0.99999297 1.3608778e-09 0)
(0.99999112 1.9404983e-09 0)
(0.99998878 2.7852907e-09 0)
(0.99998579 4.0434691e-09 0)
(0.99998189 5.9155772e-09 0)
(0.99997677 8.9004009e-09 0)
(0.9999697 1.3351543e-08 0)
(0.99996023 2.1879719e-08 0)
(0.99994512 3.3040233e-08 0)
(0.99992601 6.6197018e-08 0)
(0.99988207 8.5984158e-08 0)
(0.99984766 2.2605828e-07 0)
(0.99969039 7.2075421e-08 0)
(0.99979173 0.0014299521 0)
(0.065450307 0.0014378367 0)
(0.054798159 8.4982555e-06 0)
(0.053806279 7.6262226e-07 0)
(0.053701805 9.8044337e-08 0)
(0.053654198 5.2115936e-08 0)
(0.053620991 3.9303964e-08 0)
(0.053593628 3.0565921e-08 0)
(0.053573756 2.1770539e-08 0)
(0.053559591 1.5729002e-08 0)
(0.053548854 1.2016904e-08 0)
(0.05354036 9.4863248e-09 0)
(0.053533515 7.6186931e-09 0)
(0.053527909 6.2273454e-09 0)
(0.053523229 5.1884396e-09 0)
(0.053519248 4.3999502e-09 0)
(0.053515807 3.7895049e-09 0)
(0.053512789 3.309843e-09 0)
(0.053510107 2.928931e-09 0)
(0.053507693 2.6235523e-09 0)
(0.053505494 2.3763607e-09 1.1595906e-35)
(0.05350347 2.1743361e-09 0)
(0.053501589 2.0077116e-09 0)
(0.053499824 1.8691902e-09 0)
(0.053498156 1.7531601e-09 0)
(0.053496567 1.6551634e-09 0)
(0.053495044 1.5716325e-09 0)
(0.053493575 1.499802e-09 0)
(0.053492151 1.4375137e-09 0)
(0.053490765 1.3830282e-09 0)
(0.05348941 1.3349109e-09 0)
(0.053488081 1.2919682e-09 0)
(0.053486774 1.2532472e-09 0)
(0.053485485 1.2179867e-09 0)
(0.05348421 1.185556e-09 0)
(0.053482949 1.1554338e-09 0)
(0.053481697 1.1271811e-09 0)
(0.053480454 1.1004336e-09 0)
(0.053479218 1.0748963e-09 0)
(0.053477988 1.0503261e-09 0)
(0.053476762 1.026521e-09 0)
(0.053475541 1.0033144e-09 0)
(0.053474324 9.8056877e-10 0)
(0.053473109 9.5817012e-10 0)
(0.053471898 9.3602672e-10 0)
(0.053470689 9.1406718e-10 0)
(0.053469482 8.922334e-10 0)
(0.053468278 8.7048062e-10 0)
(0.053467076 8.4877509e-10 0)
(0.053465876 8.2709194e-10 0)
(0.053464679 8.0541464e-10 0)
(0.053463485 7.8373345e-10 0)
(0.053462294 7.6204255e-10 0)
(0.053461106 7.403448e-10 0)
(0.053459922 7.1865162e-10 0)
(0.053458742 6.9696585e-10 0)
(0.053457566 6.7529909e-10 0)
(0.053456394 6.5366718e-10 0)
(0.053455228 6.3208686e-10 0)
(0.053454067 6.105778e-10 0)
(0.053452912 5.8915401e-10 0)
(0.053451763 5.6783962e-10 0)
(0.053450622 5.4659732e-10 0)
(0.053449488 5.2576182e-10 0)
(0.05344836 5.0489344e-10 0)
(0.053447242 4.8407833e-10 0)
(0.053446133 4.6376031e-10 0)
(0.053445033 4.4359132e-10 0)
(0.053443942 4.2369994e-10 0)
(0.053442862 4.0410345e-10 0)
(0.053441793 3.848233e-10 0)
(0.053440735 3.6588176e-10 0)
(0.053439689 3.4730009e-10 0)
(0.053438656 3.2909865e-10 0)
(0.053437636 3.1129684e-10 0)
(0.053436629 2.9391321e-10 0)
(0.053435636 2.7696534e-10 0)
(0.053434658 2.6046973e-10 0)
(0.053433695 2.4444163e-10 0)
(0.053432747 2.2889496e-10 0)
(0.053431816 2.1384249e-10 0)
(0.053430902 1.9929558e-10 0)
(0.053430004 1.8526382e-10 0)
(0.053429125 1.7175394e-10 0)
(0.053428264 1.5877153e-10 0)
(0.053427422 1.4630862e-10 0)
(0.053426599 1.3437638e-10 0)
(0.053425797 1.2274241e-10 0)
(0.053425019 1.1241451e-10 0)
(0.053424252 8.3032992e-11 0)
(0.053423814 3.9804407e-11 0)
(0.053423646 1.6591227e-11 0)
(0.053423553 9.7255523e-12 0)
(0.053423491 6.6457835e-12 0)
(0.053423446 4.9371185e-12 0)
(0.053423411 3.833997e-12 0)
(0.053423383 3.0480606e-12 0)
(0.053423361 2.4653063e-12 0)
(0.053423343 2.0252227e-12 0)
(0.053423328 1.686349e-12 0)
(0.053423315 1.4204679e-12 0)
(0.053423305 1.209331e-12 0)
(0.053423295 1.0404731e-12 0)
(0.053423288 9.0564491e-13 0)
(0.053423281 7.9782295e-13 0)
(0.053423274 7.1816012e-13 0)
(0.053423269 6.5262429e-13 0)
(0.053423264 6.588974e-13 0)
(0.053423258 6.0109337e-13 0)
(0.053423254 1.2176298e-12 0)
(0.053423239 1.0126024e-12 0)
(0.053423238 1.0203251e-12 0)
(0.053423222 1.1569976e-12 -5.7336717e-26)
(1 5.5646454e-11 0)
(0.99999961 1.1955666e-10 0)
(0.99999921 1.3856964e-10 0)
(0.9999988 1.752762e-10 0)
(0.99999831 2.3846637e-10 0)
(0.99999772 3.2718754e-10 0)
(0.99999701 4.5138737e-10 0)
(0.99999614 6.2762853e-10 0)
(0.99999507 8.7874298e-10 0)
(0.99999376 1.2374399e-09 0)
(0.99999211 1.751883e-09 0)
(0.99999005 2.4960002e-09 0)
(0.99998744 3.579629e-09 0)
(0.9999841 5.1921488e-09 0)
(0.99997976 7.589246e-09 0)
(0.99997407 1.140778e-08 0)
(0.99996624 1.7095351e-08 0)
(0.99995576 2.7984459e-08 0)
(0.99993906 4.220687e-08 0)
(0.999918 8.4459465e-08 0)
(0.99986965 1.0970197e-07 0)
(0.99983176 2.8754485e-07 0)
(0.99965976 8.977053e-08 0)
(0.99977288 0.0017267336 0)
(0.078663571 0.0017384473 0)
(0.065709192 1.2593048e-05 0)
(0.064473971 1.1492054e-06 0)
(0.064336942 1.5218039e-07 0)
(0.064274726 8.0523801e-08 0)
(0.064231771 6.0311526e-08 0)
(0.064196667 4.6768267e-08 0)
(0.064171153 3.3343038e-08 0)
(0.064152917 2.4118931e-08 0)
(0.064139081 1.8431829e-08 0)
(0.064128135 1.4549989e-08 0)
(0.064119314 1.1685434e-08 0)
(0.064112089 9.5504888e-09 0)
(0.064106058 7.9548117e-09 0)
(0.064100931 6.7425976e-09 0)
(0.064096504 5.8033745e-09 0)
(0.064092626 5.0648404e-09 0)
(0.064089183 4.4779125e-09 0)
(0.064086089 4.0070159e-09 0)
(0.064083276 3.6255637e-09 -1.2508537e-35)
(0.064080692 3.3136174e-09 0)
(0.064078293 3.0561767e-09 0)
(0.064076048 2.8420476e-09 0)
(0.064073929 2.6626084e-09 0)
(0.064071915 2.5110112e-09 0)
(0.064069987 2.3817735e-09 0)
(0.064068132 2.2706408e-09 0)
(0.064066336 2.1742903e-09 0)
(0.064064591 2.0900423e-09 0)
(0.064062887 2.0156867e-09 0)
(0.064061219 1.9493845e-09 0)
(0.06405958 1.8896651e-09 0)
(0.064057965 1.8353522e-09 0)
(0.06405637 1.7854709e-09 0)
(0.064054792 1.7392143e-09 0)
(0.064053229 1.6959029e-09 0)
(0.064051677 1.6549725e-09 0)
(0.064050136 1.615965e-09 0)
(0.064048602 1.5785019e-09 0)
(0.064047076 1.5422689e-09 0)
(0.064045555 1.5070059e-09 0)
(0.06404404 1.4724979e-09 0)
(0.064042529 1.4385662e-09 0)
(0.064041022 1.4050665e-09 0)
(0.064039519 1.3718856e-09 0)
(0.064038019 1.3389313e-09 0)
(0.064036522 1.3061317e-09 0)
(0.064035029 1.2734322e-09 0)
(0.064033539 1.2407919e-09 0)
(0.064032052 1.2081827e-09 0)
(0.064030569 1.1755873e-09 0)
(0.06402909 1.1429944e-09 0)
(0.064027615 1.1104059e-09 0)
(0.064026145 1.0778368e-09 0)
(0.064024679 1.0452897e-09 0)
(0.064023219 1.0127806e-09 0)
(0.064021765 9.8033156e-10 0)
(0.064020317 9.4796652e-10 0)
(0.064018876 9.157138e-10 0)
(0.064017442 8.8359353e-10 0)
(0.064016016 8.5164071e-10 0)
(0.064014599 8.1979829e-10 0)
(0.06401319 7.8856988e-10 0)
(0.064011791 7.5729295e-10 -5.351633e-26)
(0.064010402 7.2609484e-10 0)
(0.064009025 6.9564379e-10 0)
(0.064007658 6.654164e-10 0)
(0.064006304 6.3560476e-10 0)
(0.064004963 6.0623468e-10 0)
(0.064003634 5.77338e-10 0)
(0.06400232 5.4894789e-10 0)
(0.064001021 5.2109608e-10 0)
(0.063999737 4.9381293e-10 0)
(0.063998469 4.6712743e-10 0)
(0.063997218 4.410673e-10 0)
(0.063995984 4.1565886e-10 0)
(0.063994768 3.9092682e-10 0)
(0.06399357 3.6689404e-10 0)
(0.063992392 3.435814e-10 0)
(0.063991234 3.2100808e-10 0)
(0.063990097 2.9919115e-10 0)
(0.063988981 2.7814508e-10 0)
(0.063987887 2.5788e-10 0)
(0.063986816 2.3840439e-10 0)
(0.063985768 2.1970631e-10 0)
(0.063984745 2.018029e-10 0)
(0.063983747 1.8434385e-10 0)
(0.063982779 1.6884796e-10 0)
(0.063981824 1.2494642e-10 0)
(0.063981273 6.0302826e-11 0)
(0.063981057 2.5430471e-11 0)
(0.063980936 1.499369e-11 0)
(0.063980855 1.0281153e-11 0)
(0.063980796 7.6548615e-12 0)
(0.063980751 5.9548123e-12 0)
(0.063980714 4.7416664e-12 0)
(0.063980685 3.8407958e-12 0)
(0.063980661 3.1593296e-12 0)
(0.063980641 2.6337267e-12 0)
(0.063980624 2.2207156e-12 0)
(0.06398061 1.8922399e-12 0)
(0.063980598 1.6291029e-12 0)
(0.063980587 1.4185654e-12 0)
(0.063980578 1.249799e-12 0)
(0.063980569 1.1243712e-12 0)
(0.063980562 1.0209327e-12 0)
(0.063980555 1.0265174e-12 0)
(0.063980548 9.3557562e-13 0)
(0.063980542 1.8642629e-12 0)
(0.063980523 1.5535467e-12 -4.3271595e-26)
(0.063980522 1.5737939e-12 0)
(0.063980501 1.7332566e-12 0)
(1 7.074613e-11 0)
(0.99999956 1.5245183e-10 0)
(0.99999911 1.7720809e-10 0)
(0.99999864 2.2411935e-10 0)
(0.99999808 3.0471231e-10 0)
(0.99999741 4.177905e-10 0)
(0.99999661 5.7594315e-10 0)
(0.99999562 8.0015994e-10 0)
(0.99999442 1.1193508e-09 0)
(0.99999292 1.5748887e-09 0)
(0.99999107 2.2276369e-09 0)
(0.99998874 3.1709494e-09 0)
(0.99998581 4.5433644e-09 0)
(0.99998206 6.5836889e-09 0)
(0.99997719 9.6135628e-09 0)
(0.99997082 1.4435409e-08 0)
(0.99996206 2.1607756e-08 0)
(0.99995037 3.5328118e-08 0)