/*--------------------------------*- C++ -*----------------------------------*\
  =========                 |
  \\      /  F ield         | OpenFOAM: The Open Source CFD Toolbox
   \\    /   O peration     | Website:  https://openfoam.org
    \\  /    A nd           | Version:  11
     \\/     M anipulation  |
\*---------------------------------------------------------------------------*/
FoamFile
{
    format      ascii;
    class       volTensorField;
    location    "1";
    object      grad(U);
}
// * * * * * * * * * * * * * * * * * * * * * * * * * * * * * * * * * * * * * //

dimensions      [0 0 -1 0 0 0 0];

internalField   nonuniform List<tensor> 
66675
(
(-26.881578 -0.00086572008 0 -92.311561 27.097971 0 0 0 0)
(24.316721 0.0087390404 0 153.03463 -24.612839 0 0 0 0)
(-29.264378 -0.012956493 0 -102.94281 29.475069 0 0 0 0)
(28.970642 0.0149877 0 180.2614 -29.292925 0 0 0 0)
(-33.470342 -0.018748736 0 -119.88651 33.687829 0 0 0 0)
(33.705573 0.02323777 0 207.65988 -34.044829 0 0 0 0)
(-38.653446 -0.028028327 0 -140.31434 38.883545 0 0 0 0)
(38.956242 0.036092487 0 237.49319 -39.312045 0 0 0 0)
(-45.032859 -0.042584839 0 -164.44092 45.282186 0 0 0 0)
(45.004555 0.056712301 0 271.18504 -45.384159 0 0 0 0)
(-53.029181 -0.065762939 0 -193.0914 53.310243 0 0 0 0)
(52.196049 0.090628003 0 310.38567 -52.618198 0 0 0 0)
(-63.293607 -0.10335006 0 -227.56067 63.630371 0 0 0 0)
(60.983728 0.14808986 0 357.24376 -61.486161 0 0 0 0)
(-76.857487 -0.16551028 0 -269.73033 77.292431 0 0 0 0)
(71.971796 0.24883436 0 414.78795 -72.620284 0 0 0 0)
(-95.403929 -0.27069718 0 -322.44062 96.000234 0 0 0 0)
(86.015263 0.43181157 0 487.55643 -86.901418 0 0 0 0)
(-121.71257 -0.45372582 0 -390.15818 122.51844 0 0 0 0)
(104.45168 0.77544151 0 582.77024 -105.62386 0 0 0 0)
(-160.44277 -0.78216597 0 -480.32346 161.30091 0 0 0 0)
(129.58177 1.4415775 0 712.61788 -130.72213 0 0 0 0)
(-219.72177 -1.3881232 0 -605.99539 219.55259 0 0 0 0)
(165.62658 2.7773524 0 898.96995 -164.89516 0 0 0 0)
(-314.76777 -2.5276843 0 -791.84428 309.23971 0 0 0 0)
(220.70276 5.5795959 0 1184.2513 -211.12128 0 0 0 0)
(-477.00517 -4.6983442 0 -1088.7084 451.45065 0 0 0 0)
(311.27286 11.932939 0 1659.5143 -269.97247 0 0 0 0)
(-780.18612 -8.9983944 0 -1614.4472 687.33477 0 0 0 0)
(471.96634 29.146441 0 2548.454 -327.34698 0 0 0 0)
(-1432.5182 -20.509662 0 -2685.1482 1111.3454 0 0 0 0)
(764.77924 105.2464 0 4501.9086 -280.37819 0 0 0 0)
(-3204.9336 -74.019503 0 -5258.4943 2070.5483 0 0 0 0)
(1413.6381 895.13755 0 10016.199 885.44726 0 0 0 0)
(-9102.4412 2787.3146 0 -12562.125 7182.4802 0 0 0 0)
(-26.627882 -0.002400241 0 -270.17699 26.567416 0 0 0 0)
(24.149404 0.026534927 0 440.79083 -24.058802 0 0 0 0)
(-28.990378 -0.039213612 0 -302.87266 28.934317 0 0 0 0)
(28.692843 0.045400366 0 521.05352 -28.596601 0 0 0 0)
(-33.07636 -0.056761527 0 -353.688 33.020487 0 0 0 0)
(33.278581 0.070327563 0 602.61562 -33.184474 0 0 0 0)
(-38.069819 -0.084782536 0 -414.78965 38.016321 0 0 0 0)
(38.30539 0.10909753 0 691.57043 -38.21868 0 0 0 0)
(-44.156933 -0.1285982 0 -486.75617 44.109728 0 0 0 0)
(44.010748 0.17111611 0 791.74531 -43.939302 0 0 0 0)
(-51.698751 -0.19808668 0 -571.87286 51.666742 0 0 0 0)
(50.669001 0.27275875 0 907.53117 -50.628145 0 0 0 0)
(-61.246865 -0.31019271 0 -673.64512 61.248497 0 0 0 0)
(58.614694 0.44419559 0 1044.626 -58.634248 0 0 0 0)
(-73.661417 -0.49432958 0 -797.10403 73.731214 0 0 0 0)
(68.246535 0.74311161 0 1210.8951 -68.378878 0 0 0 0)
(-90.32036 -0.80307383 0 -949.67927 90.510548 0 0 0 0)
(80.048355 1.2822803 0 1417.8764 -80.3624 0 0 0 0)
(-113.43308 -1.3335269 0 -1142.8014 113.77905 0 0 0 0)
(94.649158 2.28564 0 1683.4369 -95.153807 0 0 0 0)
(-146.5306 -2.2680918 0 -1394.9566 146.87028 0 0 0 0)
(112.91256 4.2055979 0 2036.6693 -113.21304 0 0 0 0)
(-195.35248 -3.9427273 0 -1737.4808 194.64964 0 0 0 0)
(135.89835 7.9788852 0 2527.3787 -134.00066 0 0 0 0)
(-269.60877 -6.9265774 0 -2226.5795 263.78797 0 0 0 0)
(164.05308 15.624127 0 3245.8163 -152.66751 0 0 0 0)
(-386.53215 -11.938582 0 -2969.7616 362.0613 0 0 0 0)
(192.65324 31.756191 0 4366.7723 -148.5107 0 0 0 0)
(-577.55747 -18.213571 0 -4187.7439 492.64004 0 0 0 0)
(187.55703 67.397733 0 6254.4222 -43.146765 0 0 0 0)
(-899.32005 -5.7952244 0 -6360.0304 626.9097 0 0 0 0)
(-48.151342 153.23982 0 9733.4689 490.09959 0 0 0 0)
(-1401.1834 310.50961 0 -10453.546 680.81627 0 0 0 0)
(-1412.9052 659.67512 0 17325.546 3072.6602 0 0 0 0)
(331.67866 4177.85 0 -17546.987 474.97936 0 0 0 0)
(-26.135404 -0.0039576115 0 -434.46861 26.014065 0 0 0 0)
(23.804272 0.04503203 0 694.70144 -23.643865 0 0 0 0)
(-28.430536 -0.066199172 0 -490.32962 28.314517 0 0 0 0)
(28.121288 0.076619555 0 824.13574 -27.944851 0 0 0 0)
(-32.264739 -0.095640511 0 -574.37665 32.14459 0 0 0 0)
(32.397762 0.11830406 0 956.97046 -32.214748 0 0 0 0)
(-36.863415 -0.14233561 0 -674.92617 36.73935 0 0 0 0)
(36.960401 0.1827733 0 1101.7865 -36.775445 0 0 0 0)
(-42.345357 -0.21477857 0 -792.67645 42.218908 0 0 0 0)
(41.956482 0.28513209 0 1263.7553 -41.775213 0 0 0 0)
(-48.953533 -0.32851681 0 -930.72344 48.829928 0 0 0 0)
(47.51868 0.45132245 0 1448.6014 -47.351779 0 0 0 0)
(-57.045224 -0.50962998 0 -1093.6625 56.937474 0 0 0 0)
(53.749896 0.72843717 0 1663.4609 -53.61877 0 0 0 0)
(-67.156283 -0.80200853 0 -1287.8257 67.090269 0 0 0 0)
(60.6585 1.2049553 0 1917.6861 -60.600083 0 0 0 0)
(-80.10524 -1.2808405 0 -1522.0412 80.119282 0 0 0 0)
(68.046857 2.0497859 0 2224.1598 -68.098677 0 0 0 0)
(-97.100482 -2.0766988 0 -1809.0922 97.204502 0 0 0 0)
(75.302853 3.5865477 0 2601.385 -75.401291 0 0 0 0)
(-119.80454 -3.4107486 0 -2168.0889 119.77948 0 0 0 0)
(80.918497 6.4323363 0 3076.6222 -80.482362 0 0 0 0)
(-150.30094 -5.6074803 0 -2628.272 148.96049 0 0 0 0)
(81.173267 11.742228 0 3690.38 -77.709664 0 0 0 0)
(-190.79014 -8.8850104 0 -3234.5569 183.62919 0 0 0 0)
(66.325038 21.559683 0 4501.3954 -51.305134 0 0 0 0)
(-242.42341 -11.934888 0 -4053.3803 214.82495 0 0 0 0)
(9.1477078 38.848436 0 5585.9342 42.676792 0 0 0 0)
(-302.39881 -4.4466846 0 -5165.3865 212.00707 0 0 0 0)
(-170.85146 64.982108 0 7003.1035 320.03726 0 0 0 0)
(-367.00808 75.583411 0 -6572.7939 116.00793 0 0 0 0)
(-704.20262 119.93772 0 8661.442 1054.1164 0 0 0 0)
(-437.18513 627.98928 0 -7652.3566 91.578546 0 0 0 0)
(-1859.1003 744.37617 0 10245.054 2509.4746 0 0 0 0)
(489.70585 3672.9874 0 -4490.3008 1083.575 0 0 0 0)
(-25.413521 -0.005956663 0 -585.4883 25.393289 0 0 0 0)
(23.271507 0.064232158 0 919.43624 -23.249327 0 0 0 0)
(-27.577811 -0.093885211 0 -664.65015 27.55699 0 0 0 0)
(27.242945 0.10842036 0 1092.5911 -27.215424 0 0 0 0)
(-31.022459 -0.13500745 0 -780.16242 30.999594 0 0 0 0)
(31.043912 0.16643796 0 1271.1184 -31.014078 0 0 0 0)
(-35.015948 -0.19954849 0 -917.30736 34.992599 0 0 0 0)
(34.895186 0.25528037 0 1464.7781 -34.865221 0 0 0 0)
(-39.57887 -0.29837315 0 -1076.3734 39.557598 0 0 0 0)
(38.812897 0.39455888 0 1678.7203 -38.78756 0 0 0 0)
(-44.787761 -0.45093316 0 -1260.1586 44.775566 0 0 0 0)
(42.729598 0.6171875 0 1918.0197 -42.719898 0 0 0 0)
(-50.737138 -0.68857247 0 -1472.5307 50.750235 0 0 0 0)
(46.434107 0.9814909 0 2188.1888 -46.462976 0 0 0 0)
(-57.545373 -1.0610735 0 -1718.1337 57.61589 0 0 0 0)
(49.434302 1.5940497 0 2495.2902 -49.540112 0 0 0 0)
(-65.359097 -1.6468047 0 -2002.3263 65.535408 0 0 0 0)
(50.719388 2.6508013 0 2845.9123 -50.936678 0 0 0 0)
(-74.289242 -2.5645013 0 -2331.1412 74.590638 0 0 0 0)
(48.337367 4.505898 0 3246.7224 -48.57446 0 0 0 0)
(-84.197786 -3.9643552 0 -2710.6077 84.37931 0 0 0 0)
(38.560189 7.7706812 0 3702.4813 -38.115804 0 0 0 0)
(-94.268744 -5.8834394 0 -3144.1883 92.945785 0 0 0 0)
(14.092541 13.387233 0 4210.0772 -10.086228 0 0 0 0)
(-102.44415 -7.488692 0 -3624.7157 94.337696 0 0 0 0)
(-39.795177 22.37048 0 4742.706 56.711302 0 0 0 0)
(-105.74403 -3.8869946 0 -4111.6029 74.392963 0 0 0 0)
(-152.94128 34.224242 0 5212.5926 207.45196 0 0 0 0)
(-107.71369 25.76436 0 -4472.0068 11.73767 0 0 0 0)
(-381.81548 45.547429 0 5403.0573 519.56337 0 0 0 0)
(-156.29582 163.71785 0 -4344.9094 -53.554532 0 0 0 0)
(-799.12469 117.61633 0 4960.958 1044.408 0 0 0 0)
(-361.43105 765.90457 0 -2822.9005 283.44418 0 0 0 0)
(-1076.8687 890.8868 0 3921.9565 1350.5514 0 0 0 0)
(-189.45734 2581.1133 0 1822.8075 1088.4489 0 0 0 0)
(-24.469398 -0.0083303527 0 -723.83026 24.477055 0 0 0 0)
(22.542314 0.08380391 0 1118.0464 -22.553602 0 0 0 0)
(-26.42887 -0.1216543 0 -825.60497 26.43487 0 0 0 0)
(26.047931 0.13997949 0 1328.5438 -26.057176 0 0 0 0)
(-29.345773 -0.17371602 0 -969.82423 29.350483 0 0 0 0)
(29.206014 0.21308914 0 1545.3837 -29.214712 0 0 0 0)
(-32.529034 -0.25417795 0 -1139.2346 32.534449 0 0 0 0)
(32.103075 0.32340572 0 1778.1085 -32.112626 0 0 0 0)
(-35.878982 -0.37497668 0 -1332.874 35.888105 0 0 0 0)
(34.594029 0.49314387 0 2030.2343 -34.608772 0 0 0 0)
(-39.278467 -0.55673383 0 -1551.7354 39.2994 0 0 0 0)
(36.378488 0.75829878 0 2303.7922 -36.409612 0 0 0 0)
(-42.536541 -0.83040836 0 -1796.5321 42.588164 0 0 0 0)
(36.907028 1.1804672 0 2599.1491 -36.978682 0 0 0 0)
(-45.361042 -1.2400113 0 -2066.4626 45.4811 0 0 0 0)
(35.204188 1.8680463 0 2913.92 -35.357436 0 0 0 0)
(-47.326322 -1.8429755 0 -2357.7668 47.571597 0 0 0 0)
(29.593177 3.0106509 0 3241.1249 -29.864533 0 0 0 0)
(-47.798115 -2.6963942 0 -2661.4214 48.187374 0 0 0 0)
(17.284225 4.925176 0 3565.8642 -17.566759 0 0 0 0)
(-45.836688 -3.7782961 0 -2959.0321 46.054344 0 0 0 0)
(-6.2421387 8.0850981 0 3859.3562 6.7459172 0 0 0 0)
(-40.324246 -4.6477302 0 -3215.3562 38.635747 0 0 0 0)
(-48.092404 13.005329 0 4068.8594 52.620381 0 0 0 0)
(-31.265272 -3.176501 0 -3365.7919 21.332757 0 0 0 0)
(-118.72433 19.629805 0 4104.3244 137.29799 0 0 0 0)
(-25.131081 8.6301887 0 -3299.5813 -10.919228 0 0 0 0)
(-231.20525 26.221283 0 3833.2204 286.85692 0 0 0 0)
(-50.85323 56.339245 0 -2850.5388 -44.394945 0 0 0 0)
(-397.1418 38.580261 0 3129.656 515.38968 0 0 0 0)
(-186.71834 215.81415 0 -1823.2667 46.470399 0 0 0 0)
(-602.54856 175.3317 0 2108.5217 744.09991 0 0 0 0)
(-458.78856 748.17069 0 -20.646961 593.62698 0 0 0 0)
(-519.56398 980.52714 0 1595.6629 449.31211 0 0 0 0)
(-215.19154 1777.4114 0 2273.0997 808.08696 0 0 0 0)
(-23.309759 -0.011047875 0 -849.91638 23.314917 0 0 0 0)
(21.609263 0.10335225 0 1292.4485 -21.615948 0 0 0 0)
(-24.984355 -0.14881355 0 -972.92404 24.987879 0 0 0 0)
(24.530495 0.17036768 0 1533.2639 -24.534656 0 0 0 0)
(-27.240392 -0.21045691 0 -1142.2095 27.242343 0 0 0 0)
(26.883039 0.25642226 0 1779.7454 -26.886311 0 0 0 0)
(-29.424966 -0.30368623 0 -1338.1792 29.427282 0 0 0 0)
(28.600122 0.38362832 0 2039.709 -28.603702 0 0 0 0)
(-31.310166 -0.43973491 0 -1557.5182 31.315951 0 0 0 0)
(29.363722 0.57429395 0 2313.2486 -29.37184 0 0 0 0)
(-32.588921 -0.63686101 0 -1797.5494 32.607046 0 0 0 0)
(28.647679 0.86272862 0 2596.8445 -28.671996 0 0 0 0)
(-32.826119 -0.91888779 0 -2053.0294 32.877859 0 0 0 0)
(25.623321 1.3049719 0 2882.3172 -25.690542 0 0 0 0)
(-31.45237 -1.3115659 0 -2313.7836 31.580567 0 0 0 0)
(19.01698 1.9956056 0 3154.6655 -19.175196 0 0 0 0)
(-27.808101 -1.8294731 0 -2561.9097 28.075172 0 0 0 0)
(6.9548154 3.0924684 0 3389.1699 -7.2512043 0 0 0 0)
(-21.284591 -2.4335684 0 -2768.2929 21.6923 0 0 0 0)
(-13.128296 4.8415415 0 3547.9358 12.806671 0 0 0 0)
(-11.746258 -2.8901335 0 -2888.7009 11.852085 0 0 0 0)
(-44.347004 7.5647542 0 3577.0628 44.926999 0 0 0 0)
(-0.75573019 -2.295674 0 -2861.5631 -1.6634011 0 0 0 0)
(-89.696627 11.497919 0 3408.9423 94.989345 0 0 0 0)
(5.3873243 2.4242245 0 -2613.6984 -17.760487 0 0 0 0)
(-150.64788 16.367184 0 2980.5293 171.65221 0 0 0 0)
(-10.321516 20.685733 0 -2085.1275 -29.636824 0 0 0 0)
(-226.47377 22.443371 0 2283.3093 282.85718 0 0 0 0)
(-82.968816 77.276395 0 -1278.4228 -1.1742363 0 0 0 0)
(-319.90302 50.486928 0 1452.8059 410.05614 0 0 0 0)
(-256.3251 235.07693 0 -295.28672 196.14051 0 0 0 0)
(-424.61518 250.02558 0 890.86259 467.20643 0 0 0 0)
(-437.94627 673.43134 0 766.10117 670.01866 0 0 0 0)
(-299.48142 975.80099 0 1195.2363 68.004663 0 0 0 0)
(-28.231673 1327.2263 0 1638.5813 415.09034 0 0 0 0)
(-21.94214 -0.014087865 0 -964.07211 21.943893 0 0 0 0)
(20.466808 0.12242947 0 1443.892 -20.468464 0 0 0 0)
(-23.249434 -0.17461526 0 -1106.3087 23.249248 0 0 0 0)
(22.68982 0.19857763 0 1707.5205 -22.688142 0 0 0 0)
(-24.722321 -0.24380182 0 -1296.2139 24.720127 0 0 0 0)
(24.085869 0.29448253 0 1974.0005 -24.082656 0 0 0 0)
(-25.748041 -0.34535311 0 -1511.7364 25.745726 0 0 0 0)
(24.429141 0.43232779 0 2247.8596 -24.425491 0 0 0 0)
(-25.981962 -0.48765526 0 -1745.897 25.982831 0 0 0 0)
(23.243148 0.63164856 0 2523.9606 -23.243599 0 0 0 0)
(-24.970594 -0.68267342 0 -1990.2609 24.984676 0 0 0 0)
(19.836036 0.92020742 0 2790.924 -19.854101 0 0 0 0)
(-22.151294 -0.9405021 0 -2230.8038 22.203084 0 0 0 0)
(13.260689 1.3409977 0 3029.509 -13.329072 0 0 0 0)
(-16.941803 -1.2588671 0 -2444.7361 17.080291 0 0 0 0)
(2.3086662 1.9655257 0 3210.3862 -2.4888497 0 0 0 0)
(-8.9853047 -1.5988469 0 -2597.7695 9.2752332 0 0 0 0)
(-14.366141 2.9154972 0 3292.9145 14.009076 0 0 0 0)
(1.3396049 -1.8260835 0 -2643.2596 -0.93099917 0 0 0 0)
(-37.847577 4.390653 0 3227.4206 37.455512 0 0 0 0)
(11.945853 -1.5467738 0 -2526.807 -12.048445 0 0 0 0)
(-68.194358 6.6795678 0 2965.7884 68.994596 0 0 0 0)
(17.437161 0.41053007 0 -2202.5192 -20.857219 0 0 0 0)
(-103.7035 10.081103 0 2486.6607 110.40003 0 0 0 0)
(7.2526261 7.5647335 0 -1664.8944 -22.281321 0 0 0 0)
(-141.89289 14.823987 0 1834.1529 166.09415 0 0 0 0)
(-34.918735 29.736466 0 -983.04241 -6.5346979 0 0 0 0)
(-185.13378 24.418462 0 1146.8064 238.92841 0 0 0 0)
(-128.3642 89.244431 0 -295.99421 63.792325 0 0 0 0)
(-249.01267 72.692912 0 644.68857 304.45184 0 0 0 0)
(-275.98661 237.77521 0 278.1837 283.07969 0 0 0 0)
(-326.85927 309.01347 0 594.34644 300.03603 0 0 0 0)
(-344.73241 599.71125 0 806.06825 576.19584 0 0 0 0)
(-195.65192 907.1195 0 1128.9224 -21.87072 0 0 0 0)
(95.968131 1066.0669 0 1278.3838 103.05544 0 0 0 0)
(-20.375823 -0.017400405 0 -1066.508 20.377064 0 0 0 0)
(19.111748 0.14051723 0 1573.2136 -19.112237 0 0 0 0)
(-21.234375 -0.19822338 0 -1225.3999 21.233168 0 0 0 0)
(20.531182 0.22350636 0 1851.7845 -20.527837 0 0 0 0)
(-21.818878 -0.27218676 0 -1430.6978 21.815326 0 0 0 0)
(20.839617 0.32521574 0 2127.891 -20.834244 0 0 0 0)
(-21.566334 -0.37632801 0 -1657.5375 21.562354 0 0 0 0)
(19.663999 0.46593949 0 2401.2441 -19.65784 0 0 0 0)
(-20.050919 -0.51388718 0 -1893.7888 20.050417 0 0 0 0)
(16.417619 0.65962612 0 2659.8109 -16.416214 0 0 0 0)
(-16.762146 -0.68687871 0 -2123.1626 16.776916 0 0 0 0)
(10.366159 0.92366392 0 2882.6772 -10.386825 0 0 0 0)
(-11.202656 -0.88705415 0 -2320.5237 11.261788 0 0 0 0)
(0.70956156 1.2846175 0 3038.7208 -0.79511577 0 0 0 0)
(-3.1456741 -1.0814235 0 -2449.2229 3.3047842 0 0 0 0)
(-13.201221 1.7937757 0 3086.6512 12.970199 0 0 0 0)
(6.8638324 -1.1865053 0 -2461.8135 -6.5419254 0 0 0 0)
(-31.427559 2.5615568 0 2980.0914 30.977172 0 0 0 0)
(16.734155 -1.0161932 0 -2308.4219 -16.341539 0 0 0 0)
(-52.839173 3.8187722 0 2682.4437 52.427407 0 0 0 0)
(21.969646 -0.12667343 0 -1958.1991 -22.395013 0 0 0 0)
(-74.898141 5.9751166 0 2194.199 76.309536 0 0 0 0)
(15.451394 2.7476293 0 -1432.0428 -20.093466 0 0 0 0)
(-95.204825 9.5451757 0 1582.6168 103.92416 0 0 0 0)
(-11.112049 11.489716 0 -823.88132 -6.3421237 0 0 0 0)
(-115.83039 15.259681 0 983.04342 142.52976 0 0 0 0)
(-64.878726 36.196195 0 -271.42672 25.077262 0 0 0 0)
(-147.95694 29.943868 0 547.3143 193.87918 0 0 0 0)
(-151.21553 96.050764 0 128.15808 109.98452 0 0 0 0)
(-208.3647 97.211787 0 382.28052 230.53 0 0 0 0)
(-256.25645 234.41245 0 407.49491 305.77457 0 0 0 0)
(-267.70954 343.56967 0 561.35313 213.62949 0 0 0 0)
(-249.51075 541.48991 0 740.02583 429.96504 0 0 0 0)
(-116.96234 806.02212 0 1020.9031 -23.689939 0 0 0 0)
(149.94861 888.54657 0 1092.8082 -95.590949 0 0 0 0)
(-18.622415 -0.020890855 0 -1157.3293 18.624024 0 0 0 0)
(17.543822 0.15702137 0 1680.9807 -17.544218 0 0 0 0)
(-18.955324 -0.21870773 0 -1329.7502 18.953901 0 0 0 0)
(18.067249 0.24396796 0 1966.3355 -18.063425 0 0 0 0)
(-18.569967 -0.29393734 0 -1544.4563 18.565903 0 0 0 0)
(17.186045 0.34654483 0 2241.1757 -17.179885 0 0 0 0)
(-16.973258 -0.39376351 0 -1773.2066 16.968726 0 0 0 0)
(14.414176 0.48121782 0 2498.9823 -14.407342 0 0 0 0)
(-13.721818 -0.51417087 0 -1997.1733 13.72158 0 0 0 0)
(9.1426718 0.65416682 0 2719.549 -9.1427503 0 0 0 0)
(-8.3840381 -0.64478211 0 -2190.3911 8.402673 0 0 0 0)
(0.78362007 0.87101158 0 2871.8286 -0.81416246 0 0 0 0)
(-0.78307447 -0.75858 0 -2315.5738 0.85523501 0 0 0 0)
(-10.971418 1.1453862 0 2914.6721 10.853621 0 0 0 0)
(8.5549668 -0.80016939 0 -2324.7102 -8.3673142 0 0 0 0)
(-25.715846 1.5266532 0 2802.8046 25.412683 0 0 0 0)
(17.757153 -0.67228532 0 -2168.6507 -17.402165 0 0 0 0)
(-41.843203 2.1627067 0 2503.5086 41.312183 0 0 0 0)
(23.080753 -0.20327448 0 -1821.1521 -22.744754 0 0 0 0)
(-56.604077 3.3954599 0 2025.4959 56.347587 0 0 0 0)
(19.288049 1.0316342 0 -1313.0675 -20.167499 0 0 0 0)
(-67.767273 5.7894645 0 1445.0322 70.115911 0 0 0 0)
(1.6093965 4.4394011 0 -747.81016 -7.6400472 0 0 0 0)
(-77.079279 9.879146 0 894.97985 87.928055 0 0 0 0)
(-32.104961 14.545229 0 -260.46643 12.880939 0 0 0 0)
(-92.601407 16.773023 0 500.65778 119.90196 0 0 0 0)
(-82.933345 41.267257 0 66.292826 47.607095 0 0 0 0)
(-126.40245 37.179506 0 313.24763 160.60916 0 0 0 0)
(-153.39166 99.990249 0 254.26137 134.88229 0 0 0 0)
(-184.68531 119.99722 0 328.10059 183.03894 0 0 0 0)
(-222.7442 229.79812 0 415.91462 289.50132 0 0 0 0)
(-219.51553 355.05459 0 553.57838 169.80786 0 0 0 0)
(-173.22221 495.82744 0 686.22808 289.55834 0 0 0 0)
(-53.045425 695.7527 0 892.75024 -20.2692 0 0 0 0)
(169.37228 749.04052 0 947.37562 -196.35093 0 0 0 0)
(-16.696499 -0.024414598 0 -1236.5449 16.698448 0 0 0 0)
(15.766446 0.17127862 0 1767.5595 -15.766632 0 0 0 0)
(-16.435135 -0.2350612 0 -1418.8203 16.433398 0 0 0 0)
(15.319539 0.25873372 0 2051.3346 -15.315141 0 0 0 0)
(-15.029315 -0.3073362 0 -1636.2051 15.024689 0 0 0 0)
(13.18655 0.35650139 0 2313.6952 -13.179678 0 0 0 0)
(-12.089325 -0.39503572 0 -1856.3552 12.084419 0 0 0 0)
(8.8290343 0.47560625 0 2540.7044 -8.822298 0 0 0 0)
(-7.2469652 -0.485459 0 -2052.314 7.2479673 0 0 0 0)
(1.7468936 0.6136409 0 2703.3592 -1.751164 0 0 0 0)
(-0.32685246 -0.55578544 0 -2187.346 0.35191456 0 0 0 0)
(-8.2579791 0.76696421 0 2761.5284 8.2103937 0 0 0 0)
(8.2484909 -0.56610118 0 -2213.3508 -8.1582247 0 0 0 0)
(-20.648765 0.94841858 0 2669.6125 20.48543 0 0 0 0)
(16.903044 -0.45913954 0 -2079.1763 -16.682047 0 0 0 0)
(-33.697114 1.2364421 0 2392.9588 33.318619 0 0 0 0)
(22.500311 -0.16593066 0 -1755.022 -22.124164 0 0 0 0)
(-44.592793 1.8639702 0 1938.1978 44.060206 0 0 0 0)
(20.860057 0.43156663 0 -1269.8121 -20.64615 0 0 0 0)
(-51.065245 3.2935146 0 1381.643 51.169377 0 0 0 0)
(8.7690594 1.7922263 0 -728.95567 -10.223102 0 0 0 0)
(-54.367545 6.0925155 0 855.89303 57.730777 0 0 0 0)
(-13.980523 5.7201681 0 -269.30225 6.508496 0 0 0 0)
(-60.756502 10.596339 0 479.35738 73.384927 0 0 0 0)
(-45.979548 17.35075 0 28.264298 25.850008 0 0 0 0)
(-78.796664 18.701463 0 287.4538 104.62411 0 0 0 0)
(-89.080214 45.418419 0 182.87482 60.401431 0 0 0 0)
(-114.97947 45.472328 0 243.8566 136.56581 0 0 0 0)
(-145.48473 102.24824 0 275.71225 145.83081 0 0 0 0)
(-166.10376 138.44242 0 323.29181 152.47795 0 0 0 0)
(-187.86263 225.91478 0 405.0393 252.12742 0 0 0 0)
(-175.50183 348.5905 0 532.6917 144.31335 0 0 0 0)
(-115.27878 455.84769 0 638.00603 176.56596 0 0 0 0)
(-4.9380485 592.39535 0 775.69433 -30.239775 0 0 0 0)
(173.37629 630.59737 0 817.15993 -228.3551 0 0 0 0)
(-14.616142 -0.027772709 0 -1304.0658 14.61837 0 0 0 0)
(13.787539 0.18256964 0 1833.1841 -13.787372 0 0 0 0)
(-13.704198 -0.24622959 0 -1491.9646 13.702038 0 0 0 0)
(12.320121 0.26659029 0 2106.8924 -12.315057 0 0 0 0)
(-11.265779 -0.31072278 0 -1704.5645 11.26058 0 0 0 0)
(8.9250204 0.3533998 0 2345.4333 -8.9176165 0 0 0 0)
(-7.0629547 -0.37804126 0 -1904.6216 7.0580131 0 0 0 0)
(3.1014835 0.44768862 0 2526.6517 -3.095954 0 0 0 0)
(-0.92349117 -0.42667669 0 -2055.9562 0.92696954 0 0 0 0)
(-5.3706794 0.53982521 0 2613.0776 5.3586171 0 0 0 0)
(6.8708697 -0.42492622 0 -2111.3578 -6.8362516 0 0 0 0)
(-16.035419 0.62444257 0 2558.907 15.962527 0 0 0 0)
(15.063821 -0.33318215 0 -2017.0269 -14.950559 0 0 0 0)
(-27.276933 0.7334792 0 2324.3871 27.060141 0 0 0 0)
(21.022009 -0.12030656 0 -1734.2897 -20.767781 0 0 0 0)
(-36.311879 1.0057733 0 1906.0902 35.887248 0 0 0 0)
(21.167725 0.22716255 0 -1279.9265 -20.799401 0 0 0 0)
(-40.631623 1.7668587 0 1371.7526 40.218429 0 0 0 0)
(12.902058 0.8089165 0 -754.13902 -12.881303 0 0 0 0)
(-40.823363 3.5060168 0 854.14107 41.388772 0 0 0 0)
(-3.3339292 2.276038 0 -299.50327 1.1906006 0 0 0 0)
(-41.895678 6.6084956 0 476.74688 46.370875 0 0 0 0)
(-25.060534 6.9750337 0 -5.6453756 16.222536 0 0 0 0)
(-50.674834 11.304627 0 277.08889 64.507037 0 0 0 0)
(-52.1134 20.140875 0 139.38178 32.047083 0 0 0 0)
(-71.86419 21.010233 0 210.76212 94.581709 0 0 0 0)
(-88.715225 48.632218 0 208.49024 68.114496 0 0 0 0)
(-107.32386 54.282061 0 226.83351 117.89185 0 0 0 0)
(-133.8121 103.77362 0 271.48645 146.75915 0 0 0 0)
(-148.25563 150.99718 0 322.24891 132.66869 0 0 0 0)
(-155.43814 222.7837 0 392.18376 206.30681 0 0 0 0)
(-135.60492 330.71885 0 502.1698 123.06022 0 0 0 0)
(-71.719191 416.56159 0 588.38472 95.903949 0 0 0 0)
(28.707296 503.7178 0 675.83118 -48.859396 0 0 0 0)
(170.27735 528.75879 0 702.9905 -223.67116 0 0 0 0)
(-12.403349 -0.030707898 0 -1359.7162 12.405882 0 0 0 0)
(11.62055 0.19013862 0 1878.0025 -11.620001 0 0 0 0)
(-10.801365 -0.25115412 0 -1548.435 10.798778 0 0 0 0)
(9.1134815 0.26641644 0 2133.1177 -9.10784 0 0 0 0)
(-7.3645707 -0.30262827 0 -1748.0815 7.3589446 0 0 0 0)
(4.5107272 0.33605397 0 2336.5878 -4.5032967 0 0 0 0)
(-2.0707892 -0.3415711 0 -1915.7557 2.0664287 0 0 0 0)
(-2.5305229 0.39770334 0 2457.799 2.5330917 0 0 0 0)
(4.9140059 -0.33956771 0 -2005.6679 -4.9062719 0 0 0 0)
(-11.752972 0.43880905 0 2452.5287 11.728416 0 0 0 0)
(12.659419 -0.26409503 0 -1962.6904 -12.611482 0 0 0 0)
(-21.827988 0.46490143 0 2275.8584 21.722076 0 0 0 0)
(18.993827 -0.094756678 0 -1737.7898 -18.854257 0 0 0 0)
(-30.138568 0.54904396 0 1909.5036 29.874809 0 0 0 0)
(20.714115 0.15137441 0 -1327.4364 -20.435993 0 0 0 0)
(-33.865276 0.90055582 0 1402.9978 33.457396 0 0 0 0)
(15.310946 0.45006385 0 -816.1623 -14.986245 0 0 0 0)
(-32.744871 1.8819684 0 884.99136 32.509381 0 0 0 0)
(3.2441204 0.98411628 0 -352.57478 -3.4799503 0 0 0 0)
(-30.747301 3.8813392 0 492.18841 31.806464 0 0 0 0)
(-12.59416 2.7255355 0 -44.632098 9.6621751 0 0 0 0)
(-33.731578 7.0797545 0 275.89187 39.349798 0 0 0 0)
(-30.665106 8.3948865 0 106.15274 20.610291 0 0 0 0)
(-45.702417 11.946108 0 194.76415 60.105548 0 0 0 0)
(-53.635509 22.79733 0 168.04405 34.770938 0 0 0 0)
(-67.920058 23.855881 0 184.92156 86.378025 0 0 0 0)
(-85.577637 50.965794 0 206.55814 73.366734 0 0 0 0)
(-100.48093 62.778327 0 221.40798 103.08507 0 0 0 0)
(-120.84466 105.29598 0 262.7547 139.59665 0 0 0 0)
(-130.23738 157.51044 0 316.72135 118.98888 0 0 0 0)
(-126.4939 219.09307 0 377.8657 161.31574 0 0 0 0)
(-100.64893 307.33612 0 467.10918 99.818464 0 0 0 0)
(-38.92228 376.44055 0 537.05878 42.86861 0 0 0 0)
(50.564536 430.3316 0 591.49117 -67.62372 0 0 0 0)
(163.53297 442.97977 0 605.42068 -206.09541 0 0 0 0)
(-10.084468 -0.032902725 0 -1403.2333 10.087359 0 0 0 0)
(9.2855698 0.19322157 0 1902.1048 -9.2846685 0 0 0 0)
(-7.7748183 -0.24883093 0 -1587.3874 7.7718613 0 0 0 0)
(5.7584476 0.25728252 0 2130.1605 -5.7524564 0 0 0 0)
(-3.4281568 -0.28195255 0 -1765.26 3.4223661 0 0 0 0)
(0.080670693 0.30403812 0 2287.6543 -0.074017838 0 0 0 0)
(2.683779 -0.28575706 0 -1887.7669 -2.6866405 0 0 0 0)
(-7.7859982 0.3280859 0 2336.0462 7.7831987 0 0 0 0)
(9.9069049 -0.22951893 0 -1900.3261 -9.8925745 0 0 0 0)
(-16.912776 0.32158985 0 2227.9943 16.870325 0 0 0 0)
(16.536317 -0.092311481 0 -1745.8989 -16.471417 0 0 0 0)
(-25.036555 0.31659512 0 1930.0944 24.89473 0 0 0 0)
(19.700779 0.10863474 0 -1397.1373 -19.536159 0 0 0 0)
(-29.132292 0.43990634 0 1465.2731 28.850185 0 0 0 0)
(16.697204 0.31123753 0 -909.83155 -16.415205 0 0 0 0)
(-27.934847 0.94124986 0 946.95464 27.609884 0 0 0 0)
(7.5428063 0.51974926 0 -430.82733 -7.2902335 0 0 0 0)
(-24.34609 2.1308816 0 527.74718 24.274939 0 0 0 0)
(-4.7735143 1.0966001 0 -94.820676 4.2173248 0 0 0 0)
(-23.634678 4.2515462 0 284.28932 25.25027 0 0 0 0)
(-17.813913 3.2986011 0 74.494151 14.009762 0 0 0 0)
(-29.594212 7.4147224 0 185.88428 36.235575 0 0 0 0)
(-32.649542 9.965322 0 139.1732 21.668903 0 0 0 0)
(-43.261213 12.660429 0 163.00288 57.587544 0 0 0 0)
(-53.146342 25.120829 0 168.03976 36.630166 0 0 0 0)
(-64.840162 27.239367 0 173.47591 78.41492 0 0 0 0)
(-81.18921 52.687232 0 198.11097 76.45783 0 0 0 0)
(-93.518565 70.120217 0 216.86286 91.679522 0 0 0 0)
(-107.59522 107.06258 0 253.48983 126.69962 0 0 0 0)
(-112.18133 158.95138 0 306.47812 107.49238 0 0 0 0)
(-101.12874 213.36412 0 361.0596 122.37091 0 0 0 0)
(-71.167701 282.3331 0 430.70611 74.504757 0 0 0 0)
(-14.178187 336.42155 0 485.64066 9.0870188 0 0 0 0)
(63.649188 369.52015 0 519.46458 -81.24625 0 0 0 0)
(154.54093 372.39527 0 523.27648 -187.01748 0 0 0 0)
(-7.6905337 -0.033982271 0 -1434.277 7.6938209 0 0 0 0)
(6.8106137 0.19108629 0 1905.5546 -6.8094231 0 0 0 0)
(-4.6829304 -0.23839185 0 -1607.89 4.6797026 0 0 0 0)
(2.3301992 0.23857589 0 2098.2588 -2.3241633 0 0 0 0)
(0.42333662 -0.24818725 0 -1754.6264 -0.42887145 0 0 0 0)
(-4.1991554 0.25798708 0 2199.5089 4.2039168 0 0 0 0)
(6.9742432 -0.21256663 0 -1819.1552 -6.9744231 0 0 0 0)
(-12.349018 0.24396701 0 2164.4562 12.337823 0 0 0 0)
(13.695669 -0.10614725 0 -1740.8523 -13.672025 0 0 0 0)
(-20.384193 0.20394699 0 1948.9109 20.318838 0 0 0 0)
(18.134402 0.065887071 0 -1471.5453 -18.050512 0 0 0 0)
(-25.352051 0.20962179 0 1546.2602 25.183439 0 0 0 0)
(17.369963 0.24210912 0 -1028.0578 -17.188024 0 0 0 0)
(-24.994412 0.43018247 0 1038.9043 24.732998 0 0 0 0)
(10.567192 0.35632506 0 -537.11098 -10.298894 0 0 0 0)
(-20.88668 1.0922503 0 587.33225 20.631707 0 0 0 0)
(0.45484441 0.51383358 0 -161.9055 -0.30024032 0 0 0 0)
(-17.86329 2.4055088 0 305.21445 17.997248 0 0 0 0)
(-9.7871142 1.2661121 0 38.386652 8.8320688 0 0 0 0)
(-19.772979 4.5292259 0 182.69223 21.990663 0 0 0 0)
(-20.01146 4.0271801 0 114.94732 15.294336 0 0 0 0)
(-27.747952 7.6566696 0 148.35924 35.314593 0 0 0 0)
(-32.939258 11.574973 0 141.28327 21.501195 0 0 0 0)
(-41.671903 13.586123 0 147.67812 55.177189 0 0 0 0)
(-51.844111 27.003339 0 160.20609 38.557826 0 0 0 0)
(-61.878477 30.971372 0 165.21442 70.676188 0 0 0 0)
(-76.069878 54.141075 0 188.36711 76.989718 0 0 0 0)
(-86.171765 75.760079 0 210.89508 83.078961 0 0 0 0)
(-94.605456 108.8094 0 243.99407 110.8701 0 0 0 0)
(-94.579833 156.73061 0 292.68476 95.562579 0 0 0 0)
(-79.083441 204.88848 0 341.28676 90.957063 0 0 0 0)
(-47.132017 257.62467 0 394.61862 49.890593 0 0 0 0)
(4.3254075 298.1933 0 435.95995 -12.656912 0 0 0 0)
(70.660627 318.34545 0 456.87277 -88.39022 0 0 0 0)
(144.13161 314.91932 0 454.24208 -169.41543 0 0 0 0)
(-5.2575356 -0.033523464 0 -1452.4381 5.2612284 0 0 0 0)
(4.2330525 0.18308652 0 1888.4191 -4.2316521 0 0 0 0)
(-1.5949723 -0.21921011 0 -1608.9567 1.5916268 0 0 0 0)
(-1.078121 0.210154 0 2037.7904 1.0837221 0 0 0 0)
(4.0523295 -0.2016836 0 -1714.8311 -4.0570703 0 0 0 0)
(-8.1345369 0.19991886 0 2073.5337 8.1359578 0 0 0 0)
(10.558624 -0.12628513 0 -1709.2606 -10.554543 0 0 0 0)
(-15.886951 0.15348371 0 1947.6237 15.863646 0 0 0 0)
(15.958253 0.016737132 0 -1531.2177 -15.92252 0 0 0 0)
(-21.805482 0.10496655 0 1628.8358 21.716427 0 0 0 0)
(17.342088 0.18500658 0 -1158.04 -17.241106 0 0 0 0)
(-22.948263 0.16722871 0 1156.2755 22.77609 0 0 0 0)
(12.829348 0.29070855 0 -672.67171 -12.641842 0 0 0 0)
(-19.233723 0.51047152 0 675.88999 19.010366 0 0 0 0)
(4.2908654 0.32552775 0 -252.34617 -4.0432052 0 0 0 0)
(-14.844286 1.2852515 0 343.50941 14.614299 0 0 0 0)
(-4.4759289 0.52124924 0 -7.6647959 4.4925048 0 0 0 0)
(-13.994584 2.6331066 0 186.87303 14.384447 0 0 0 0)
(-12.204109 1.5357858 0 90.562815 10.761641 0 0 0 0)
(-18.05116 4.7134312 0 137.55504 20.942989 0 0 0 0)
(-20.62383 4.8746309 0 120.56071 15.038949 0 0 0 0)
(-26.813202 7.8805571 0 130.20326 35.10855 0 0 0 0)
(-32.599428 13.10712 0 133.96205 21.265539 0 0 0 0)
(-40.248987 14.799694 0 136.60689 52.175779 0 0 0 0)
(-50.090685 28.466129 0 150.4925 40.513812 0 0 0 0)
(-58.825442 34.745817 0 157.43092 63.655336 0 0 0 0)
(-70.484662 55.588801 0 178.44893 74.839255 0 0 0 0)
(-78.393506 79.545958 0 203.12275 76.293876 0 0 0 0)
(-82.16798 109.9845 0 233.82574 94.539606 0 0 0 0)
(-77.998354 152.1319 0 276.56837 82.266875 0 0 0 0)
(-60.042305 193.90491 0 318.89327 66.297346 0 0 0 0)
(-28.035749 233.91735 0 359.4941 28.462456 0 0 0 0)
(17.811298 263.03352 0 389.31331 -26.983742 0 0 0 0)
(73.618244 274.76101 0 401.76409 -90.210655 0 0 0 0)
(133.05592 267.97647 0 395.6883 -153.24727 0 0 0 0)
(-2.8265467 -0.031073923 0 -1457.2522 2.8306346 0 0 0 0)
(1.6010045 0.16873292 0 1850.7901 -1.59955 0 0 0 0)
(1.4083594 -0.19103355 0 -1589.583 -1.4116126 0 0 0 0)
(-4.3540896 0.17252398 0 1949.327 4.3586211 0 0 0 0)
(7.3054745 -0.14395371 0 -1644.7886 -7.3086768 0 0 0 0)
(-11.507479 0.13354177 0 1911.7844 11.503625 0 0 0 0)
(13.192969 -0.033862281 0 -1558.7479 -13.182615 0 0 0 0)
(-18.083614 0.067650477 0 1692.2219 18.044661 0 0 0 0)
(16.469452 0.12239425 0 -1279.7778 -16.420313 0 0 0 0)
(-21.038796 0.043480211 0 1286.5825 20.934576 0 0 0 0)
(14.437488 0.24639363 0 -832.69446 -14.325871 0 0 0 0)
(-18.603667 0.19537318 0 796.96594 18.452207 0 0 0 0)
(7.4315331 0.26873046 0 -373.37871 -7.2473071 0 0 0 0)
(-13.611737 0.64112983 0 406.25581 13.406833 0 0 0 0)
(-0.61696525 0.2787245 0 -70.253142 0.83398173 0 0 0 0)
(-10.822191 1.4610794 0 201.92455 10.661132 0 0 0 0)
(-7.1625617 0.58769954 0 61.853271 6.9830291 0 0 0 0)
(-12.150558 2.7971555 0 130.80763 12.839643 0 0 0 0)
(-13.0755 1.8993401 0 102.15066 11.085692 0 0 0 0)