/*--------------------------------*- C++ -*----------------------------------*\
  =========                 |
  \\      /  F ield         | OpenFOAM: The Open Source CFD Toolbox
   \\    /   O peration     | Website:  https://openfoam.org
    \\  /    A nd           | Version:  11
     \\/     M anipulation  |
\*---------------------------------------------------------------------------*/
FoamFile
{
    format      ascii;
    class       volScalarField;
    location    "1";
    object      nut;
}
// * * * * * * * * * * * * * * * * * * * * * * * * * * * * * * * * * * * * * //

dimensions      [0 2 -1 0 0 0 0];

internalField   nonuniform List<scalar> 
66675
(
3.9041749e-07
5.1440409e-07
3.3014968e-07
4.6255237e-07
2.9201004e-07
4.067186e-07
2.5987769e-07
3.5507768e-07
2.319941e-07
3.0956953e-07
2.079273e-07
2.7060271e-07
1.8746522e-07
2.3795501e-07
1.7047535e-07
2.1116566e-07
1.5692472e-07
1.8976575e-07
1.4692821e-07
1.7341919e-07
1.4082794e-07
1.6201686e-07
1.3936104e-07
1.5577562e-07
1.4403999e-07
1.5545794e-07
1.5806595e-07
1.6302619e-07
1.888396e-07
1.8370489e-07
2.5630816e-07
2.3322573e-07
4.2359294e-07
3.699457e-07
1.7965542e-07
1.0697879e-06
1.5038564e-06
9.1377352e-07
1.3559954e-06
8.1321542e-07
1.1962235e-06
7.2694741e-07
1.0471536e-06
6.5041377e-07
9.1447973e-07
5.8277787e-07
7.9962272e-07
5.2370956e-07
7.0218146e-07
4.7292496e-07
6.2101091e-07
4.3021184e-07
5.5484913e-07
3.9555051e-07
5.0268702e-07
3.692675e-07
4.6400742e-07
3.5227404e-07
4.3902284e-07
3.465149e-07
4.2908483e-07
3.5586626e-07
4.3757491e-07
3.8794041e-07
4.7211183e-07
4.5695932e-07
5.5083555e-07
5.6812672e-07
7.5080171e-07
4.8739946e-07
1.8048184e-06
2.5069449e-06
1.5528619e-06
2.2683452e-06
1.3868251e-06
2.0089568e-06
1.2424934e-06
1.7641472e-06
1.1127343e-06
1.5433731e-06
9.963638e-07
1.3493919e-06
8.9295498e-07
1.1819509e-06
8.0205212e-07
1.039407e-06
7.2316469e-07
9.1965412e-07
6.5588965e-07
8.2060783e-07
6.00011e-07
7.4037789e-07
5.5556362e-07
6.7719742e-07
5.2283544e-07
6.2905354e-07
5.0206978e-07
5.9275054e-07
4.9185821e-07
5.6237138e-07
4.8119626e-07
5.3199269e-07
4.013305e-07
5.2695693e-07
1.989998e-08
2.5725076e-06
3.5193415e-06
2.2268925e-06
3.1896726e-06
1.9931303e-06
2.8302169e-06
1.7870209e-06
2.4874441e-06
1.5990526e-06
2.1742698e-06
1.4276822e-06
1.8947426e-06
1.2723249e-06
1.648766e-06
1.1322372e-06
1.4341495e-06
1.0064408e-06
1.2477458e-06
8.9378611e-07
1.0859644e-06
7.92911e-07
9.4479055e-07
7.0202163e-07
8.1938121e-07
6.183847e-07
7.0327186e-07
5.3719061e-07
5.8762306e-07
4.4901851e-07
4.6344491e-07
3.3206056e-07
3.3845827e-07
1.2858766e-07
2.5610541e-07
1.644852e-07
3.371066e-06
4.54116e-06
2.9323395e-06
4.1155519e-06
2.6266841e-06
3.651166e-06
2.3529555e-06
3.2040429e-06
2.0993691e-06
2.7902026e-06
1.8639229e-06
2.4148525e-06
1.6457606e-06
2.0780249e-06
1.4437466e-06
1.7770302e-06
1.2563395e-06
1.507824e-06
1.0816446e-06
1.2656535e-06
9.173782e-07
1.0452308e-06
7.6076657e-07
8.4077233e-07
6.0853539e-07
6.465905e-07
4.5720912e-07
4.5997148e-07
3.0348696e-07
2.9036208e-07
1.4234889e-07
1.7485484e-07
6.9851692e-08
1.5048247e-07
1.6770366e-07
4.1987849e-06
5.5713626e-06
3.6657271e-06
5.0409208e-06
3.2818336e-06
4.4626569e-06
2.9321221e-06
3.9007539e-06
2.6026059e-06
3.3740529e-06
2.2907187e-06
2.8889053e-06
1.995306e-06
2.445704e-06
1.7150103e-06
2.0418405e-06
1.4482535e-06
1.6734991e-06
1.1935666e-06
1.3367992e-06
9.5007071e-07
1.0287307e-06
7.1831637e-07
7.4843237e-07
5.0163032e-07
4.9941547e-07
3.0722381e-07
2.9311967e-07
1.4426694e-07
1.5331273e-07
4.4615045e-08
1.0395842e-07
1.0293816e-07
1.3925586e-07
1.294435e-07
5.0536867e-06
6.606422e-06
4.423078e-06
5.9585755e-06
3.9520673e-06
5.2537113e-06
3.5150374e-06
4.5628212e-06
3.0959004e-06
3.9074783e-06
2.6915387e-06
3.2955113e-06
2.3008098e-06
2.7285334e-06
1.9230271e-06
2.2056673e-06
1.5584544e-06
1.726134e-06
1.2094518e-06
1.2912674e-06
8.8196059e-07
9.0615936e-07
5.8687652e-07
5.8054367e-07
3.3958169e-07
3.2763262e-07
1.5460607e-07
1.6085211e-07
4.2658616e-08
8.7580833e-08
6.781046e-08
8.8721726e-08
1.0009532e-07
1.3738847e-07
1.1234479e-07
5.9331146e-06
7.6405855e-06
5.1994471e-06
6.8592015e-06
4.6295025e-06
6.0113947e-06
4.0903819e-06
5.1737818e-06
3.5641322e-06
4.3709384e-06
3.0474374e-06
3.6131508e-06
2.5402314e-06
2.9052056e-06
2.0448309e-06
2.2512951e-06
1.5675775e-06
1.6586793e-06
1.1210994e-06
1.1399878e-06
7.2547265e-07
7.1266669e-07
4.051649e-07
3.9346597e-07
1.7903785e-07
1.8873682e-07
4.9065124e-08
8.9582463e-08
4.9066989e-08
6.861375e-08
7.6707616e-08
9.0509067e-08
9.2941779e-08
1.2645083e-07
1.0783661e-07
6.8333846e-06
8.6660493e-06
5.9885028e-06
7.7314322e-06
5.3044175e-06
6.7208167e-06
4.6445321e-06
5.7155303e-06
3.9895803e-06
4.7440177e-06
3.337107e-06
3.8210538e-06
2.6906135e-06
2.9582321e-06
2.0602037e-06
2.1704268e-06
1.4658046e-06
1.4798156e-06
9.3879464e-07
9.1472147e-07
5.1632953e-07
4.9943214e-07
2.2480927e-07
2.3782653e-07
6.2079038e-08
1.0610517e-07
3.6966554e-08
6.3741955e-08
6.3436676e-08
6.7538709e-08
7.6822605e-08
9.2418933e-08
8.9260891e-08
1.1279028e-07
1.0411938e-07
7.7495118e-06
9.6729713e-06
6.7821563e-06
8.5618256e-06
5.9648315e-06
7.3651353e-06
5.1611782e-06
6.1684858e-06
4.3517828e-06
5.0059912e-06
3.5374116e-06
3.9005471e-06
2.73005e-06
2.8765687e-06
1.9559788e-06
1.9676503e-06
1.2591784e-06
1.2170082e-06
6.9473793e-07
6.634786e-07
3.0417959e-07
3.1547309e-07
8.6715388e-08
1.3752748e-07
2.6671443e-08
7.0131542e-08
5.6563965e-08
5.8423973e-08
6.7329344e-08
7.0990963e-08
7.5911356e-08
9.1362274e-08
8.7842801e-08
1.0088198e-07
9.7874185e-08
8.6749525e-06
1.0649396e-05
7.5701966e-06
9.3348085e-06
6.596112e-06
7.9255984e-06
5.6210463e-06
6.5119034e-06
4.6277019e-06
5.1367239e-06
3.624645e-06
3.837062e-06
2.6410292e-06
2.6592006e-06
1.7319315e-06
1.6644982e-06
9.7472556e-07
9.1532362e-07
4.377771e-07
4.3671164e-07
1.3269283e-07
1.8825662e-07
1.7585437e-08
8.7427288e-08
5.2385983e-08
5.9081971e-08
6.3693466e-08
5.993756e-08
6.8212107e-08
7.4254087e-08
7.5694443e-08
8.8420061e-08
8.6634919e-08
9.1666357e-08
8.9882542e-08
9.6013246e-06
1.1581147e-05
8.3399082e-06
1.0032633e-05
7.180611e-06
8.3816707e-06
6.0017824e-06
6.7244094e-06
4.7923596e-06
5.1180708e-06
3.5768564e-06
3.6230779e-06
2.4154959e-06
2.3196321e-06
1.4071762e-06
1.3014185e-06
6.5959609e-07
6.2799785e-07
2.1697197e-07
2.6862477e-07
2.384034e-08
1.1760704e-07
4.9052717e-08
6.8149718e-08
6.3351592e-08
5.7565236e-08
6.5919307e-08
6.3193613e-08
6.8668337e-08
7.61345e-08
7.6104856e-08
8.4883906e-08
8.4509881e-08
8.4635931e-08
8.1757364e-08
1.05181e-05
1.2451709e-05
9.075674e-06
1.063537e-05
7.6973642e-06
8.7112907e-06
6.2781044e-06
6.784865e-06
4.8202075e-06
4.9360208e-06
3.3776968e-06
3.2622978e-06
2.0615472e-06
1.8902739e-06
1.0237201e-06
9.3339007e-07
3.6926978e-07
3.9885199e-07
6.2015354e-08
1.6630882e-07
4.4038297e-08
8.6019896e-08
6.5084062e-08
6.253891e-08
6.7220216e-08
5.9020654e-08
6.6735205e-08
6.6444603e-08
6.9313791e-08
7.666635e-08
7.6575055e-08
8.1489753e-08
8.134619e-08
7.8922719e-08
7.4488371e-08
1.1412274e-05
1.3242115e-05
9.7585851e-06
1.1120968e-05
8.1219179e-06
8.891316e-06
6.4223967e-06
6.6737287e-06
4.6876221e-06
4.5839609e-06
3.0222393e-06
2.7750429e-06
1.6102817e-06
1.4235307e-06
6.4128124e-07
6.1563204e-07
1.4688356e-07
2.4629228e-07
3.115365e-08
1.1498426e-07
6.8492368e-08
7.4278428e-08
7.0733148e-08
6.1588128e-08
6.862967e-08
6.1293122e-08
6.7197007e-08
6.9034101e-08
7.0202512e-08
7.6260606e-08
7.6538286e-08
7.8416826e-08
7.7534882e-08
7.3836969e-08
6.8266402e-08
1.2268021e-05
1.3930849e-05
1.0366088e-05
1.1465404e-05
8.4263811e-06
8.8982593e-06
6.4060142e-06
6.3752098e-06
4.3770748e-06
4.0675266e-06
2.5248104e-06
2.2035844e-06
1.1183363e-06
9.8401084e-07
3.1940908e-07
3.834874e-07
1.1071471e-08
1.6149476e-07
7.1155906e-08
9.3075551e-08
7.6799027e-08
7.0186799e-08
7.2625457e-08
6.1944641e-08
6.90817e-08
6.3686927e-08
6.7619686e-08
7.0727965e-08
7.1143575e-08
7.5342334e-08
7.5725365e-08
7.5528795e-08
7.3500028e-08
6.9051298e-08
6.2893286e-08
1.3066352e-05
1.4493785e-05
1.0871721e-05
1.1642981e-05
8.5798611e-06
8.7094839e-06
6.2017102e-06
5.8806845e-06
3.8836409e-06
3.4112775e-06
1.9272032e-06
1.613066e-06
6.5867538e-07
6.2888887e-07
9.3904297e-08
2.4062922e-07
6.5926679e-08
1.2121636e-07
8.5319386e-08
8.4121772e-08
7.8738882e-08
6.8305049e-08
7.3129039e-08
6.2668578e-08
6.9008015e-08
6.5842376e-08
6.8093761e-08
7.154745e-08
7.1833051e-08
7.4170909e-08
7.4179661e-08
7.2630686e-08
6.9498434e-08
6.450627e-08
5.8137911e-08
1.3784791e-05
1.4904187e-05
1.1245024e-05
1.1626858e-05
8.5495289e-06
8.3051588e-06
5.7878164e-06
5.1940749e-06
3.2242756e-06
2.6659891e-06
1.3016796e-06
1.0804382e-06
2.9615832e-07
3.8539846e-07
3.587882e-08
1.656265e-07
9.3449136e-08
1.033474e-07
8.7863341e-08
7.941841e-08
7.8500557e-08
6.6847142e-08
7.280391e-08
6.3505467e-08
6.8601154e-08
6.7484397e-08
6.8581416e-08
7.164725e-08
7.2001379e-08
7.2800659e-08
7.2083834e-08
6.9602867e-08
6.5615855e-08
6.0225832e-08
5.3850473e-08
1.439711e-05
1.5132807e-05
1.1451746e-05
1.1389954e-05
8.3027105e-06
7.6714961e-06
5.155086e-06
4.339919e-06
2.4486816e-06
1.9112203e-06
7.3865549e-07
6.6826003e-07
6.041854e-08
2.4355596e-07
9.2839141e-08
1.2991082e-07
9.9371676e-08
9.4115458e-08
8.6103156e-08
7.5511987e-08
7.7311936e-08
6.5396511e-08
7.1737955e-08
6.4280848e-08
6.7989401e-08
6.8428617e-08
6.8940955e-08
7.1200293e-08
7.150584e-08
7.1165037e-08
6.9596718e-08
6.6408142e-08
6.1839345e-08
5.6207729e-08
4.9938488e-08
1.4873162e-05
1.514813e-05
1.1454565e-05
1.090648e-05
7.8106539e-06
6.8061409e-06
4.3172455e-06
3.3737235e-06
1.6456527e-06
1.2422947e-06
3.1409577e-07
3.9773566e-07
6.2182374e-08
1.707063e-07
1.0944216e-07
1.1181902e-07
9.6252623e-08
8.702732e-08
8.2741258e-08
7.1397564e-08
7.5326557e-08
6.3883626e-08
6.9986619e-08
6.4781021e-08
6.7232312e-08
6.8606054e-08
6.8967722e-08
7.0318207e-08
7.0333786e-08
6.9176763e-08
6.681361e-08
6.3061664e-08
5.8133339e-08
5.2414672e-08
4.6331014e-08
1.517891e-05
1.4916893e-05
1.1214651e-05
1.0154584e-05
7.055016e-06
5.7270033e-06
3.3253987e-06
2.3894269e-06
9.3076481e-07
7.3547827e-07
5.5023342e-08
2.4524644e-07
1.0770826e-07
1.3377928e-07
1.0706059e-07
9.9471651e-08
8.9635373e-08
7.9738771e-08
7.8444665e-08
6.6896631e-08
7.2435813e-08
6.2260778e-08
6.7652106e-08
6.4772983e-08
6.6303225e-08
6.8040811e-08
6.845943e-08
6.9018016e-08
6.8549339e-08
6.6778608e-08
6.3778058e-08
5.959822e-08
5.4477576e-08
4.8801718e-08
4.2966773e-08
1.5276749e-05
1.4405032e-05
1.069466e-05
9.1209599e-06
6.0386727e-06
4.4856429e-06
2.2816531e-06
1.5091085e-06
4.0388759e-07
4.1105292e-07
6.6288257e-08
1.6604309e-07
1.1293104e-07
1.111751e-07
9.6719052e-08
8.774217e-08
8.1361936e-08
7.1654534e-08
7.322819e-08
6.2033685e-08
6.8547688e-08
6.0413445e-08
6.4856032e-08
6.4050138e-08
6.509373e-08
6.679236e-08
6.727444e-08
6.723976e-08
6.6227881e-08
6.3960303e-08
6.0502764e-08
5.6042151e-08
5.0862427e-08
4.5329256e-08
3.9791663e-08
1.5126337e-05
1.3579439e-05
9.864137e-06
7.8089426e-06
4.8027291e-06
3.1827923e-06
1.3347791e-06
8.3909797e-07
9.8294544e-08
2.3085387e-07
9.9979854e-08
1.2145224e-07
9.9913617e-08
9.2131885e-08
8.2868598e-08
7.4962449e-08
7.185763e-08
6.2780438e-08
6.6974535e-08
5.6872735e-08
6.3687765e-08
5.8163111e-08
6.1689328e-08
6.2474464e-08
6.3441996e-08
6.4901725e-08
6.5353942e-08
6.4898556e-08
6.3410463e-08
6.074564e-08
5.699472e-08
5.2401436e-08
4.7277707e-08
4.1964196e-08
3.6759759e-08
1.4686251e-05
1.2411188e-05
8.7090546e-06
6.2524601e-06
3.4493234e-06
1.9708202e-06
6.3150281e-07
4.1203896e-07
3.0014723e-08
1.3413151e-07
9.04763e-08
8.8904773e-08
7.8992149e-08
7.2482597e-08
6.6984194e-08
6.0945859e-08
6.1224554e-08
5.3400263e-08
5.962171e-08
5.1499234e-08
5.8032754e-08
5.5325049e-08
5.8184268e-08
6.0002587e-08
6.117478e-08
6.2369953e-08
6.2701502e-08
6.194533e-08
6.0105265e-08
5.7164491e-08
5.3265866e-08
4.8675961e-08
4.3709625e-08
3.8677902e-08
3.383335e-08
1.3917044e-05
1.0881529e-05
7.248364e-06
4.5378704e-06
2.1571672e-06
1.0110995e-06
2.3486657e-07
1.7535855e-07
4.873519e-08
7.3547458e-08
6.2191167e-08
5.85601e-08
5.4541851e-08
5.1585502e-08
4.9877439e-08
4.6453865e-08
4.9770159e-08
4.4137563e-08
5.1354382e-08
4.6047756e-08
5.1912637e-08
5.1782835e-08
5.4319081e-08
5.6681819e-08
5.8158254e-08
5.9173282e-08
5.9348811e-08
5.8392802e-08
5.6334221e-08
5.3254481e-08
4.9342473e-08
4.487431e-08
4.015148e-08
3.5451912e-08
3.0987331e-08
1.2786695e-05
8.9931669e-06
5.5612909e-06
2.8276255e-06
1.1476079e-06
3.8291319e-07
9.236158e-08
4.5698227e-08
2.2896616e-08
2.7876413e-08
2.9191779e-08
3.0272554e-08
3.0842699e-08
3.2302088e-08
3.3767129e-08
3.392937e-08
3.8696397e-08
3.621932e-08
4.2934808e-08
4.0804759e-08
4.5789057e-08
4.7569256e-08
5.0064217e-08
5.2625309e-08
5.4351064e-08
5.5306203e-08
5.5351828e-08
5.4299736e-08
5.2160014e-08
4.9078192e-08
4.5274948e-08
4.1027166e-08
3.6615986e-08
3.2286256e-08
2.821473e-08
1.1280273e-05
6.7913414e-06
3.8243093e-06
1.3507674e-06
5.6603609e-07
3.8016782e-08
9.5606579e-08
5.3485276e-08
4.4995252e-08
3.843906e-08
3.2287793e-08
2.8670493e-08
2.7745808e-08
2.6907885e-08
2.7907426e-08
2.8891399e-08
3.1739963e-08
3.1686603e-08
3.6097401e-08
3.6369905e-08
4.0234091e-08
4.2931508e-08
4.5460612e-08
4.7998406e-08
4.984717e-08
5.0834577e-08
5.0834403e-08
4.9782824e-08
4.7694159e-08
4.4735619e-08
4.1144954e-08
3.7193667e-08
3.314158e-08
2.9204083e-08
2.5529315e-08
9.4170134e-06
4.401001e-06
2.3243629e-06
3.0595275e-07
3.7144446e-07
1.6361824e-07
1.5762706e-07
1.2723383e-07
1.0239552e-07
8.5523904e-08
7.1803775e-08
5.8316409e-08
5.2771532e-08
4.2384259e-08
4.0910358e-08
3.5159333e-08
3.4324859e-08
3.2431826e-08
3.3193162e-08
3.3609463e-08
3.585314e-08
3.8322931e-08
4.0683414e-08
4.3033994e-08
4.4888182e-08
4.5943871e-08
4.6015849e-08
4.5061269e-08
4.3130628e-08
4.0392578e-08
3.7087894e-08
3.3478763e-08
2.9806259e-08
2.6262365e-08
2.2973334e-08
7.2793069e-06
2.079505e-06
1.3501879e-06
2.7531817e-07
3.8588247e-07
2.8277025e-07
2.3221953e-07
1.9270028e-07
1.585505e-07
1.312525e-07
1.1208677e-07
9.0534169e-08
8.1441568e-08
6.3836697e-08
5.9939492e-08
4.7740971e-08
4.3793613e-08
3.7791205e-08
3.4768937e-08
3.3034523e-08
3.3020087e-08
3.4251918e-08
3.6042607e-08
3.8058926e-08
3.9845142e-08
4.0975099e-08
4.121255e-08
4.0451289e-08
3.8754785e-08
3.6292633e-08
3.3303729e-08
3.0041332e-08
2.6733129e-08
2.3555225e-08
2.0618783e-08
5.0544969e-06
2.5841216e-07
9.3928228e-07
5.2023441e-07
4.4980123e-07
3.5996319e-07
2.9421943e-07
2.432859e-07
2.0378936e-07
1.6797201e-07
1.452352e-07
1.1724123e-07
1.057117e-07
8.2899202e-08
7.6726959e-08
6.0438972e-08
5.3675535e-08
4.45777e-08
3.8439399e-08
3.3978548e-08
3.1516014e-08
3.1020192e-08
3.190897e-08
3.34984e-08
3.5190434e-08
3.6415928e-08
3.6855342e-08
3.6344162e-08
3.4916772e-08
3.2737576e-08
3.0044399e-08
2.708622e-08
2.4085136e-08
2.1209932e-08
1.8563448e-08
3.0446138e-06
6.6004348e-07
8.1205633e-07
5.9034951e-07
4.8430348e-07
3.9387106e-07
3.2740337e-07
2.7020461e-07
2.2998941e-07
1.892285e-07
1.6563398e-07
1.3358965e-07
1.2114593e-07
9.5355617e-08
8.7392958e-08
6.9326586e-08
6.0191417e-08
4.9518795e-08
4.1298002e-08
3.4842389e-08
3.0529534e-08
2.8584425e-08
2.8629228e-08
2.9858407e-08
3.147317e-08
3.2813162e-08
3.3439478e-08
3.3158538e-08
3.1973484e-08
3.0033782e-08
2.7572963e-08
2.4837628e-08
2.2050571e-08
1.9380946e-08
1.6929212e-08
1.5343965e-06
7.530038e-07
6.8884423e-07
5.4793525e-07
4.6012242e-07
3.7849631e-07
3.2246212e-07
2.6690641e-07
2.3138879e-07
1.9033193e-07
1.6917128e-07
1.3619814e-07
1.2463275e-07
9.8517519e-08
8.9556589e-08
7.1965399e-08
6.1405812e-08
5.0510339e-08
4.1484004e-08
3.4268393e-08
2.9292135e-08
2.6829848e-08
2.6570875e-08
2.7698193e-08
2.9291387e-08
3.0672821e-08
3.1379612e-08
3.12115e-08
3.0167308e-08
2.8380998e-08
2.6070823e-08
2.3470857e-08
2.0799873e-08
1.8228249e-08
1.5854153e-08
6.2316449e-07
5.109614e-07
4.9983024e-07
4.257292e-07
3.7824319e-07
3.1729282e-07
2.7972615e-07
2.3329171e-07
2.0727657e-07
1.7053509e-07
1.5486762e-07
1.2432498e-07
1.1526621e-07
9.161714e-08
8.2641786e-08
6.7467858e-08
5.6945855e-08
4.7032732e-08
3.866104e-08
3.2162754e-08
2.796487e-08
2.6157738e-08
2.6292835e-08
2.7549308e-08
2.909779e-08
3.0323153e-08
3.0874213e-08
3.0602073e-08
2.9528847e-08
2.7780312e-08
2.5545948e-08
2.3027176e-08
2.0417115e-08
1.7872784e-08
1.5469968e-08
1.9858652e-07
2.4930131e-07
2.969934e-07
2.7304652e-07
2.6441961e-07
2.2819082e-07
2.1115233e-07
1.7798727e-07
1.6387197e-07
1.3467951e-07
1.2622894e-07
1.0104878e-07
9.53005e-08
7.6633954e-08
6.8608554e-08
5.724914e-08
4.8471311e-08
4.0767185e-08
3.4572187e-08
3.027633e-08
2.8034363e-08
2.7584688e-08
2.8360754e-08
2.9655814e-08
3.0907341e-08
3.1693533e-08
3.1806203e-08
3.118989e-08
2.9902811e-08
2.8069365e-08
2.5845985e-08
2.3391598e-08
2.0851999e-08
1.8343762e-08
1.5864525e-08
5.1157902e-08
8.5485828e-08
1.4237952e-07
1.412019e-07
1.5481647e-07
1.3793641e-07
1.3688614e-07
1.1654171e-07
1.1329357e-07
9.2844403e-08
9.1088135e-08
7.3365431e-08
7.0429555e-08
5.8512661e-08
5.2459759e-08
4.5641918e-08
4.0165846e-08
3.584157e-08
3.2868645e-08
3.1340409e-08
3.1060004e-08
3.161663e-08
3.2582998e-08
3.3547285e-08
3.416862e-08
3.4256874e-08
3.3729612e-08
3.2611924e-08
3.098884e-08
2.898308e-08
2.6725705e-08
2.4343477e-08
2.1935285e-08
1.9557038e-08
1.7046085e-08
1.4266719e-08
1.672813e-08
5.5754957e-08
5.7598814e-08
7.5838491e-08
6.9286291e-08
7.6297594e-08
6.5548218e-08
6.9141566e-08
5.7499001e-08
5.9539549e-08
5.0486874e-08
4.9181036e-08
4.4239589e-08
4.1448212e-08
3.8959135e-08
3.7213091e-08
3.6212067e-08
3.5835399e-08
3.6008654e-08
3.6554416e-08
3.7247576e-08
3.7803418e-08
3.8079208e-08
3.7886654e-08
3.7176625e-08
3.5959151e-08
3.4309215e-08
3.2324828e-08
3.0127361e-08
2.7838577e-08
2.5574805e-08
2.3406133e-08
2.1321099e-08
1.8910858e-08
7.2831724e-09
9.116083e-09
2.1484926e-08
2.2307739e-08
3.4406218e-08
3.2752605e-08
4.0183231e-08
3.6888267e-08
4.1719472e-08
3.8711777e-08
4.1242883e-08
3.94836e-08
4.0014754e-08
3.9375947e-08
3.9805838e-08
4.0057303e-08
4.0400618e-08
4.096338e-08
4.1522443e-08
4.2051849e-08
4.2462348e-08
4.2703006e-08
4.2581519e-08
4.2047536e-08
4.1051197e-08
3.9613557e-08
3.7792549e-08
3.568666e-08
3.3400373e-08
3.1060224e-08
2.8798776e-08
2.6748242e-08
2.4973781e-08
2.3393223e-08
2.1267138e-08
5.0655414e-09
1.0839075e-08
1.4960002e-08
1.8575314e-08
2.2778427e-08
2.4820584e-08
2.8780712e-08
3.0571202e-08
3.4220543e-08
3.5465772e-08
3.8817562e-08
3.8821467e-08
4.142056e-08
4.2008262e-08
4.3592098e-08
4.483169e-08
4.5695566e-08
4.6445838e-08
4.6949083e-08
4.7186654e-08
4.7106013e-08
4.670792e-08
4.5918843e-08
4.4686033e-08
4.3039134e-08
4.1044002e-08
3.8779177e-08
3.6351317e-08
3.387084e-08
3.1478979e-08
2.933985e-08
2.7630612e-08
2.6436605e-08
2.5593595e-08
2.394219e-08
3.5716511e-09
1.0688904e-08
1.5310196e-08
2.0267764e-08
2.3056205e-08
2.6430275e-08
2.9674471e-08
3.2395246e-08
3.6713895e-08
3.7616097e-08
4.2236972e-08
4.1862465e-08
4.5234204e-08
4.6433018e-08
4.7993817e-08
4.9360808e-08
5.0204939e-08
5.0679797e-08
5.0800484e-08
5.0554707e-08
4.994292e-08
4.8938902e-08
4.758052e-08
4.583207e-08
4.3734583e-08
4.1373307e-08
3.8833676e-08
3.6223979e-08
3.3662525e-08
3.1315056e-08
2.9398616e-08
2.816821e-08
2.7753389e-08
2.7877699e-08
2.6864699e-08
3.2600083e-09
1.0846681e-08
1.6277169e-08
2.1595367e-08
2.4782059e-08
2.8408454e-08
3.2385727e-08
3.4744682e-08
4.0152657e-08
4.0136303e-08
4.527169e-08
4.5244569e-08
4.8461798e-08
5.0167188e-08
5.156354e-08
5.2736158e-08
5.3365807e-08
5.3448627e-08
5.3099833e-08
5.2333002e-08
5.1223353e-08
4.9727055e-08
4.7906764e-08
4.579169e-08
4.34099e-08
4.0839655e-08
3.8161106e-08
3.5479962e-08
3.2924551e-08
3.0694806e-08
2.9084033e-08
2.8463102e-08
2.9023533e-08
3.0317133e-08
3.0056419e-08
3.8207654e-09
1.1357153e-08
1.7359642e-08
2.2866549e-08
2.6653085e-08
3.0188325e-08
3.5065879e-08
3.6803872e-08
4.295913e-08
4.2443841e-08
4.7547195e-08
4.8391907e-08
5.1157967e-08
5.3118531e-08
5.4421227e-08
5.5292851e-08
5.5559866e-08
5.5195599e-08
5.4331351e-08
5.3049089e-08
5.1444467e-08
4.9556798e-08
4.7385076e-08
4.5009017e-08
4.2455302e-08
3.9783081e-08
3.7057143e-08
3.4376021e-08
3.1879313e-08
2.9810864e-08
2.8566706e-08
2.8676774e-08
3.0396703e-08
3.3013744e-08
3.3561967e-08
4.535249e-09
1.2052159e-08
1.8572132e-08
2.4222539e-08
2.8748108e-08
3.1966841e-08
3.7750219e-08
3.8754024e-08
4.5248032e-08
4.4821885e-08
4.9652946e-08
5.1391086e-08
5.3756209e-08
5.5728507e-08
5.6934657e-08
5.7464761e-08
5.7249468e-08
5.6374427e-08
5.4946639e-08
5.3158832e-08
5.1059381e-08
4.8805223e-08
4.6366257e-08
4.3808441e-08
4.1158427e-08
3.8454778e-08
3.5741054e-08
3.3103934e-08
3.069443e-08
2.8810098e-08
2.7980139e-08
2.894087e-08
3.1987512e-08
3.6027047e-08
3.7394823e-08
5.2586829e-09
1.2850015e-08
1.9964378e-08
2.567405e-08
3.1095475e-08
3.3787062e-08
4.0423967e-08
4.0700984e-08
4.7169699e-08
4.7472855e-08
5.1860075e-08
5.4299141e-08
5.6441736e-08
5.8290671e-08
5.9317553e-08
5.9461971e-08
5.869143e-08
5.7222071e-08
5.5181434e-08
5.2870412e-08
5.0327165e-08
4.7717047e-08
4.5057889e-08
4.2375997e-08
3.9682514e-08
3.699454e-08
3.433262e-08
3.176785e-08
2.9461386e-08
2.7773686e-08
2.7401856e-08
2.9337793e-08
3.3855959e-08
3.936768e-08
4.1538813e-08
6.0279404e-09
1.3718781e-08
2.16281e-08
2.7220679e-08
3.3667024e-08
3.564301e-08
4.2953215e-08
4.2732272e-08
4.8987634e-08
5.0385841e-08
5.4258278e-08
5.7127852e-08
5.922878e-08
6.0896317e-08
6.1644153e-08
6.1327836e-08
5.9961025e-08
5.7800766e-08
5.5090675e-08
5.218596e-08
4.9249772e-08
4.6358786e-08
4.3549604e-08
4.08116e-08
3.8120323e-08
3.5479063e-08
3.2890024e-08
3.0412119e-08
2.8215491e-08
2.6731285e-08
2.6863294e-08
2.9906521e-08
3.6014405e-08
4.3013133e-08
4.5961767e-08
6.9451463e-09
1.4657675e-08
2.3608777e-08
2.8843154e-08
3.6343983e-08
3.7498785e-08
4.5110452e-08
4.4984131e-08
5.0947308e-08
5.346074e-08
5.6898955e-08
5.9946931e-08
6.2119918e-08
6.3585811e-08
6.3949514e-08
6.3105032e-08
6.1075362e-08
5.8153469e-08
5.4674892e-08
5.1096453e-08
4.7713905e-08
4.464177e-08
4.1800756e-08
3.9145728e-08
3.6539688e-08
3.3992585e-08
3.1484843e-08
2.9088164e-08
2.6990661e-08
2.5704249e-08
2.6383533e-08
3.0668551e-08
3.8454433e-08
4.6935606e-08
5.0637186e-08
8.0630739e-09
1.5653798e-08
2.5926071e-08
3.0508736e-08
3.9031497e-08
3.9357959e-08
4.694776e-08
4.7578398e-08
5.3179069e-08
5.6519179e-08
5.9810645e-08
6.2809164e-08
6.5092962e-08
6.6349632e-08
6.6300441e-08
6.4836517e-08
6.2093479e-08
5.8300387e-08
5.3982473e-08
4.9598485e-08
4.5704099e-08
4.2420013e-08
3.9716098e-08
3.7300236e-08
3.5001727e-08
3.2657703e-08
3.0305058e-08
2.7981723e-08
2.5948459e-08
2.4824917e-08
2.6071587e-08
3.170456e-08
4.1207714e-08
5.1150099e-08
5.5584724e-08
9.3507742e-09
1.6665422e-08
2.8602792e-08
3.2188405e-08
4.1678281e-08
4.1252187e-08
4.8742048e-08
5.0391774e-08
5.5712866e-08
5.9441299e-08
6.2927738e-08
6.5781183e-08
6.8089268e-08
6.9103974e-08
6.8705811e-08
6.6575214e-08
6.3053147e-08
5.830437e-08
5.302297e-08
4.7710809e-08
4.3156316e-08
3.9586652e-08
3.7055834e-08
3.5064791e-08
3.3277026e-08
3.1378132e-08
2.9325441e-08
2.7183956e-08
2.522078e-08
2.4214949e-08
2.600824e-08
3.3018297e-08
4.4204611e-08
5.5569023e-08
6.0726821e-08
1.0878553e-08
1.7754165e-08
3.155438e-08
3.3874348e-08
4.3917423e-08
4.3274991e-08
5.0535162e-08
5.3379722e-08
5.8394624e-08
6.2452841e-08
6.6030646e-08
6.9007231e-08
7.10882e-08
7.1920705e-08
7.1141045e-08
6.8522077e-08
6.4031546e-08
5.8358959e-08
5.1882761e-08
4.5556116e-08
3.9996476e-08
3.6009764e-08
3.3462167e-08
3.2067327e-08
3.0966586e-08
2.9759757e-08
2.8190169e-08
2.6377939e-08
2.4605424e-08
2.3751501e-08
2.6070866e-08
3.441156e-08
4.7165777e-08
5.9866184e-08
6.570291e-08
1.2167626e-08
1.8847315e-08
3.4170482e-08
3.5492833e-08
4.5289997e-08
4.569967e-08
5.2422433e-08
5.6555617e-08
6.1109021e-08
6.5670374e-08
6.9146737e-08
7.2278891e-08
7.4132558e-08
7.4788271e-08
7.3761967e-08
7.078503e-08
6.5373498e-08
5.8497901e-08
5.0797345e-08
4.3138251e-08
3.6350957e-08
3.1386947e-08
2.8572913e-08
2.7590421e-08
2.7557264e-08
2.7492808e-08
2.6884813e-08
2.5667864e-08
2.4234282e-08
2.3650308e-08
2.6573729e-08
3.6126701e-08
5.0180168e-08
6.3992874e-08
7.033061e-08
1.4179599e-08
2.000368e-08
3.6909848e-08
3.7150979e-08
4.6714745e-08
4.8462756e-08
5.4799613e-08
5.9549818e-08
6.4015544e-08
6.8740109e-08
7.2567921e-08
7.5472688e-08
7.7212301e-08
7.7630645e-08
7.6565889e-08
7.3468124e-08
6.7598514e-08
5.9157032e-08
4.9865937e-08
4.061982e-08
3.2367276e-08
2.5919743e-08
2.2138975e-08
2.1019557e-08
2.1872279e-08
2.352428e-08
2.4989707e-08
2.5763532e-08
2.5947299e-08
2.6650231e-08
3.0753826e-08
4.1268833e-08
5.5935059e-08
7.0163632e-08
7.636843e-08
1.5310354e-08
2.0786495e-08
3.8932107e-08
3.8793056e-08
4.8257329e-08
5.1327475e-08
5.7466625e-08
6.2544072e-08
6.6956338e-08
7.1590832e-08
7.5883167e-08
7.8629335e-08
8.0331599e-08
8.0532306e-08
7.9317745e-08
7.6536349e-08
7.1492385e-08
6.2123773e-08
5.0107047e-08
3.8548381e-08
2.8349341e-08
2.0131377e-08
1.4290182e-08
1.1561838e-08
1.186301e-08
1.4271342e-08
1.7328991e-08
2.0322798e-08
2.3384747e-08
2.7958792e-08
3.6718999e-08
5.1107074e-08
6.8239411e-08
8.391522e-08
9.0377044e-08
1.9411326e-08
2.1753076e-08
4.1454672e-08
4.0554204e-08
5.0236714e-08
5.4091916e-08
6.0349701e-08
6.5612109e-08
7.0555055e-08
7.4395946e-08
7.8856644e-08
8.1446811e-08
8.3005356e-08
8.3243658e-08
8.1811928e-08
7.8520808e-08
7.7078974e-08
7.4698941e-08
6.4782566e-08
5.0500269e-08
3.7235355e-08
2.6576694e-08
1.8105289e-08
1.2020615e-08
9.8763287e-09
1.2791917e-08
1.8838809e-08
2.5513548e-08
3.1092711e-08
3.4877943e-08
3.7100569e-08
3.9652959e-08
4.6471118e-08
5.9342065e-08
6.8860018e-08
2.1083387e-08
2.2129812e-08
4.1173714e-08
4.3082549e-08
5.177251e-08
5.7479262e-08
6.2939888e-08
6.8767229e-08
7.4027616e-08
7.842665e-08
8.179155e-08
8.5128962e-08
8.5254273e-08
8.5422117e-08
8.6256584e-08
8.442739e-08
8.1091498e-08
8.7118208e-08
9.392929e-08
8.7638353e-08
7.3645145e-08
5.9435975e-08
4.8060109e-08
3.9612441e-08
3.497535e-08
3.5499989e-08
4.0433598e-08
4.5464096e-08
4.648095e-08
4.1318955e-08
3.0823696e-08
1.9185526e-08
1.2317946e-08
1.1580723e-08
1.3108747e-08
1.976896e-08
2.3113463e-08
4.2000852e-08
4.6300466e-08
5.4084855e-08
6.0461717e-08
6.5960495e-08
7.1186651e-08
7.6768215e-08
8.1646661e-08
8.5331305e-08
8.9965785e-08
9.3932576e-08
9.2632144e-08
9.3080885e-08
9.6718592e-08
9.475589e-08
8.9130378e-08
8.6225366e-08
8.1927908e-08
7.4382998e-08
6.4957429e-08
5.6695139e-08
5.0842569e-08
4.7519322e-08
4.4271281e-08
3.8063718e-08
2.6745086e-08
1.0846708e-08
1.7417603e-09
3.8645919e-09
7.5392156e-09
1.1811033e-08
1.5988666e-08
1.8265006e-08
2.4247539e-08
2.4918569e-08
4.4597318e-08
4.8663893e-08
5.7796773e-08
6.2904133e-08
7.0484112e-08
7.4470032e-08
7.9366161e-08
8.3047544e-08
8.6844496e-08
8.8888948e-08
9.7088046e-08
1.0289034e-07
1.0542343e-07
1.0181988e-07
9.3534534e-08
7.9887681e-08
6.8097687e-08
6.039125e-08
5.464839e-08
4.9492908e-08
4.5009174e-08
4.1370182e-08
3.7902906e-08
3.328327e-08
2.6650554e-08
1.7189872e-08
5.3973104e-09
3.53941e-09
7.0709503e-09
1.1713763e-08
1.6678415e-08
2.1210085e-08
2.3370782e-08
2.1655498e-08
2.4517819e-08
4.1687348e-08
5.3617695e-08
5.9172636e-08
6.6986706e-08
7.2680913e-08
7.98002e-08
8.2757265e-08
8.6045181e-08
8.7431419e-08
8.9653024e-08
9.2025375e-08
9.3818254e-08
9.6022968e-08
9.9945188e-08
9.5962602e-08
8.438885e-08
7.3082322e-08
6.4566979e-08
5.832565e-08
5.3569264e-08
4.9971265e-08
4.6814314e-08
4.3322446e-08
3.8846152e-08
3.2440054e-08
2.3169297e-08
1.1704062e-08
7.2812287e-09
1.0099232e-08
1.4655668e-08
1.9663798e-08
2.425441e-08
2.6347479e-08
2.4368446e-08
2.6222361e-08
4.3554664e-08
5.5524543e-08
6.2447298e-08
6.9303717e-08
7.565575e-08
8.2018605e-08
8.7634408e-08
9.0881899e-08
9.3775491e-08
9.2199778e-08
9.5834559e-08
9.7291682e-08
9.2618237e-08
8.9701267e-08
8.8048109e-08
8.2732163e-08
7.4598826e-08
6.6945769e-08
6.1036118e-08
5.6786481e-08
5.3621901e-08
5.0924844e-08
4.7943876e-08
4.3662097e-08
3.6952893e-08
2.6904295e-08
1.4473567e-08
8.930059e-09
1.1549741e-08
1.6351391e-08
2.171381e-08
2.663457e-08
2.8867343e-08
2.8040389e-08
2.7629402e-08
4.6773516e-08
5.6619932e-08
6.7975005e-08
7.2551541e-08
7.9735008e-08
8.4479374e-08
9.1398696e-08
9.5682966e-08
1.0603907e-07
1.0584616e-07
9.7089726e-08
9.1194384e-08
8.5702836e-08
7.8487109e-08
7.3573909e-08
6.9706418e-08
6.48923e-08
5.9909899e-08
5.5778067e-08
5.3147856e-08
5.1563318e-08
5.0341038e-08
4.8587119e-08
4.4965441e-08
3.8269563e-08
2.765744e-08
1.4409634e-08
9.0054418e-09
1.2116934e-08
1.7407324e-08
2.3229694e-08
2.8548913e-08
3.0968506e-08
2.5938391e-08
3.0325969e-08
4.6282117e-08
6.0151391e-08
7.0507609e-08
7.81246e-08
8.242996e-08
8.8439375e-08
9.0721611e-08
9.2833129e-08
9.5736895e-08
1.0336123e-07
1.0160532e-07
9.3000645e-08
8.4372099e-08
7.7252592e-08
7.2137265e-08
6.8097149e-08
6.4508841e-08
6.099977e-08
5.8230187e-08
5.6312572e-08
5.5331882e-08
5.444146e-08
5.2626018e-08
4.8704553e-08
4.1412943e-08
2.9939319e-08
1.5701163e-08
9.8608055e-09
1.315421e-08
1.8786333e-08
2.4984252e-08
3.063756e-08
3.3194773e-08
2.9528757e-08
3.2568032e-08
4.9147215e-08
6.1800743e-08
7.2877433e-08
8.2092019e-08
8.7540929e-08
9.1233372e-08
9.6240328e-08
9.5688168e-08
9.2591992e-08
9.046432e-08
9.7757907e-08
1.0355688e-07
9.8264171e-08
8.8886198e-08
8.0676255e-08
7.4577111e-08
6.9956499e-08
6.6400182e-08
6.3889963e-08
6.2357939e-08
6.1426816e-08
6.0508007e-08
5.8317072e-08
5.3613617e-08
4.536241e-08
3.2783313e-08
1.7367005e-08
1.0898942e-08
1.4297965e-08
2.0217755e-08
2.6749874e-08
3.2728148e-08
3.5436558e-08
3.0842993e-08
3.4475855e-08
5.1067144e-08
6.3208421e-08
7.5246934e-08
8.4013859e-08
9.1542894e-08
9.1997413e-08
9.8253984e-08
1.0521532e-07
1.0810861e-07
1.0604234e-07
1.0030416e-07
9.8035817e-08
9.4146339e-08
8.7124455e-08
7.9340133e-08
7.2928795e-08
6.8385387e-08
6.5542134e-08
6.3976095e-08
6.3460452e-08
6.3308959e-08
6.2697576e-08
6.0567148e-08
5.5728322e-08
4.7060623e-08
3.368932e-08
1.7074389e-08
1.0573317e-08
1.4599483e-08
2.1085863e-08
2.8160589e-08
3.4625415e-08
3.7581804e-08
3.2398424e-08
3.9229003e-08
5.3392008e-08
6.5786101e-08
7.5951404e-08
8.6753129e-08
9.6586495e-08
1.0377752e-07
1.0036961e-07
9.9586257e-08
9.8419485e-08
1.0681865e-07
1.0622448e-07