/*--------------------------------*- C++ -*----------------------------------*\
  =========                 |
  \\      /  F ield         | OpenFOAM: The Open Source CFD Toolbox
   \\    /   O peration     | Website:  https://openfoam.org
    \\  /    A nd           | Version:  11
     \\/     M anipulation  |
\*---------------------------------------------------------------------------*/
FoamFile
{
    format      ascii;
    class       volScalarField;
    location    "1";
    object      p;
}
// * * * * * * * * * * * * * * * * * * * * * * * * * * * * * * * * * * * * * //

dimensions      [0 2 -2 0 0 0 0];

internalField   nonuniform List<scalar> 
66675
(
85001.036
85001.044
85001.051
85001.06
85001.071
85001.085
85001.099
85001.116
85001.133
85001.154
85001.174
85001.198
85001.221
85001.249
85001.275
85001.308
85001.338
85001.376
85001.412
85001.457
85001.501
85001.554
85001.611
85001.673
85001.749
85001.822
85001.928
85002.016
85002.171
85002.282
85002.528
85002.696
85003.153
85003.508
85004.551
85001.036
85001.044
85001.051
85001.06
85001.071
85001.084
85001.099
85001.116
85001.133
85001.154
85001.174
85001.198
85001.221
85001.249
85001.275
85001.308
85001.338
85001.376
85001.412
85001.457
85001.501
85001.554
85001.611
85001.673
85001.749
85001.822
85001.928
85002.015
85002.169
85002.281
85002.523
85002.693
85003.121
85003.458
85004.198
85001.036
85001.044
85001.051
85001.06
85001.071
85001.084
85001.099
85001.116
85001.133
85001.153
85001.174
85001.198
85001.221
85001.249
85001.275
85001.308
85001.338
85001.376
85001.412
85001.457
85001.501
85001.553
85001.611
85001.672
85001.749
85001.821
85001.927
85002.013
85002.167
85002.278
85002.512
85002.686
85003.061
85003.371
85003.777
85001.036
85001.044
85001.051
85001.06
85001.071
85001.084
85001.099
85001.116
85001.133
85001.153
85001.174
85001.198
85001.221
85001.249
85001.275
85001.308
85001.338
85001.376
85001.412
85001.456
85001.501
85001.553
85001.611
85001.672
85001.749
85001.82
85001.926
85002.011
85002.163
85002.275
85002.495
85002.673
85002.982
85003.249
85003.444
85001.037
85001.044
85001.051
85001.06
85001.071
85001.084
85001.099
85001.115
85001.133
85001.153
85001.174
85001.198
85001.221
85001.249
85001.275
85001.308
85001.338
85001.376
85001.412
85001.456
85001.501
85001.553
85001.611
85001.671
85001.748
85001.818
85001.925
85002.009
85002.156
85002.27
85002.471
85002.65
85002.893
85003.114
85003.197
85001.037
85001.044
85001.051
85001.06
85001.071
85001.084
85001.099
85001.115
85001.133
85001.153
85001.174
85001.198
85001.221
85001.249
85001.275
85001.308
85001.338
85001.376
85001.412
85001.456
85001.501
85001.552
85001.611
85001.67
85001.748
85001.816
85001.922
85002.006
85002.147
85002.263
85002.443
85002.616
85002.803
85002.976
85003.002
85001.037
85001.044
85001.051
85001.06
85001.071
85001.084
85001.099
85001.115
85001.133
85001.153
85001.174
85001.198
85001.221
85001.249
85001.275
85001.308
85001.338
85001.376
85001.412
85001.456
85001.501
85001.551
85001.61
85001.668
85001.747
85001.814
85001.918
85002.002
85002.136
85002.253
85002.41
85002.571
85002.714
85002.84
85002.837
85001.037
85001.044
85001.051
85001.06
85001.071
85001.084
85001.099
85001.115
85001.133
85001.153
85001.174
85001.198
85001.221
85001.249
85001.275
85001.308
85001.338
85001.375
85001.412
85001.455
85001.501
85001.551
85001.61
85001.667
85001.745
85001.812
85001.913
85001.998
85002.122
85002.238
85002.375
85002.519
85002.628
85002.712
85002.691
85001.037
85001.044
85001.051
85001.06
85001.071
85001.084
85001.099
85001.115
85001.133
85001.153
85001.174
85001.198
85001.221
85001.249
85001.275
85001.308
85001.338
85001.375
85001.412
85001.455
85001.501
85001.55
85001.61
85001.665
85001.743
85001.809
85001.907
85001.992
85002.106
85002.219
85002.338
85002.46
85002.543
85002.592
85002.562
85001.037
85001.044
85001.051
85001.06
85001.071
85001.084
85001.099
85001.115
85001.133
85001.153
85001.174
85001.198
85001.221
85001.249
85001.275
85001.308
85001.338
85001.375
85001.412
85001.454
85001.501
85001.549
85001.609
85001.663
85001.74
85001.806
85001.899
85001.984
85002.089
85002.196
85002.298
85002.399
85002.461
85002.483
85002.446
85001.037
85001.044
85001.051
85001.06
85001.071
85001.084
85001.099
85001.115
85001.133
85001.153
85001.174
85001.198
85001.221
85001.249
85001.275
85001.307
85001.338
85001.375
85001.412
85001.453
85001.5
85001.547
85001.608
85001.661
85001.737
85001.802
85001.891
85001.975
85002.07
85002.168
85002.257
85002.336
85002.38
85002.384
85002.342
85001.037
85001.044
85001.051
85001.06
85001.071
85001.084
85001.099
85001.115
85001.133
85001.153
85001.174
85001.198
85001.221
85001.249
85001.275
85001.307
85001.338
85001.374
85001.412
85001.453
85001.5
85001.546
85001.606
85001.659
85001.733
85001.798
85001.881
85001.963
85002.049
85002.137
85002.213
85002.273
85002.302
85002.295
85002.25
85001.037
85001.044
85001.051
85001.06
85001.071
85001.084
85001.099
85001.115
85001.133
85001.153
85001.174
85001.198
85001.221
85001.249
85001.275
85001.307
85001.338
85001.374
85001.412
85001.452
85001.499
85001.544
85001.604
85001.657
85001.727
85001.792
85001.87
85001.948
85002.026
85002.104
85002.167
85002.211
85002.228
85002.213
85002.168
85001.038
85001.044
85001.051
85001.06
85001.071
85001.084
85001.099
85001.116
85001.133
85001.153
85001.174
85001.198
85001.221
85001.249
85001.275
85001.307
85001.338
85001.373
85001.411
85001.451
85001.498
85001.543
85001.601
85001.654
85001.721
85001.786
85001.858
85001.932
85002.002
85002.068
85002.12
85002.151
85002.158
85002.138
85002.094
85001.038
85001.044
85001.051
85001.06
85001.071
85001.084
85001.099
85001.116
85001.133
85001.153
85001.174
85001.198
85001.221
85001.248
85001.275
85001.306
85001.338
85001.372
85001.411
85001.449
85001.497
85001.541
85001.598
85001.65
85001.715
85001.778
85001.845
85001.913
85001.976
85002.031
85002.072
85002.093
85002.092
85002.069
85002.027
85001.038
85001.044
85001.051
85001.06
85001.071
85001.084
85001.099
85001.116
85001.133
85001.153
85001.173
85001.198
85001.221
85001.248
85001.275
85001.306
85001.338
85001.372
85001.411
85001.448
85001.496
85001.539
85001.595
85001.646
85001.707
85001.768
85001.83
85001.892
85001.948
85001.994
85002.025
85002.037
85002.03
85002.006
85001.966
85001.038
85001.044
85001.051
85001.06
85001.071
85001.084
85001.099
85001.116
85001.133
85001.153
85001.173
85001.197
85001.221
85001.248
85001.275
85001.305
85001.338
85001.371
85001.41
85001.447
85001.494
85001.537
85001.591
85001.641
85001.699
85001.757
85001.815
85001.87
85001.918
85001.955
85001.978
85001.984
85001.973
85001.947
85001.911
85001.039
85001.044
85001.051
85001.06
85001.071
85001.084
85001.099
85001.116
85001.133
85001.153
85001.173
85001.197
85001.221
85001.248
85001.275
85001.305
85001.337
85001.37
85001.409
85001.446
85001.492
85001.534
85001.586
85001.636
85001.69
85001.745
85001.797
85001.846
85001.887
85001.916
85001.932
85001.932
85001.919
85001.894
85001.86
85001.039
85001.044
85001.051
85001.06
85001.071
85001.084
85001.099
85001.116
85001.133
85001.153
85001.173
85001.197
85001.221
85001.247
85001.275
85001.304
85001.337
85001.369
85001.408
85001.444
85001.489
85001.531
85001.581
85001.629
85001.68
85001.731
85001.779
85001.821
85001.855
85001.877
85001.887
85001.884
85001.868
85001.844
85001.813
85001.039
85001.044
85001.051
85001.06
85001.071
85001.085
85001.099
85001.116
85001.133
85001.153
85001.173
85001.197
85001.221
85001.247
85001.275
85001.304
85001.337
85001.368
85001.407
85001.442
85001.487
85001.528
85001.575
85001.622
85001.67
85001.716
85001.759
85001.795
85001.823
85001.839
85001.844
85001.837
85001.821
85001.798
85001.769
85001.039
85001.044
85001.051
85001.06
85001.071
85001.085
85001.098
85001.115
85001.133
85001.153
85001.173
85001.197
85001.221
85001.247
85001.275
85001.303
85001.336
85001.367
85001.405
85001.44
85001.483
85001.524
85001.569
85001.613
85001.658
85001.7
85001.738
85001.768
85001.79
85001.801
85001.802
85001.794
85001.777
85001.755
85001.729
85001.04
85001.044
85001.051
85001.06
85001.071
85001.084
85001.098
85001.115
85001.133
85001.153
85001.173
85001.197
85001.221
85001.246
85001.274
85001.303
85001.335
85001.366
85001.404
85001.438
85001.479
85001.519
85001.562
85001.604
85001.645
85001.683
85001.715
85001.74
85001.757
85001.764
85001.762
85001.752
85001.736
85001.715
85001.691
85001.04
85001.044
85001.05
85001.06
85001.071
85001.084
85001.098
85001.115
85001.133
85001.153
85001.173
85001.196
85001.22
85001.246
85001.274
85001.302
85001.334
85001.365
85001.402
85001.436
85001.475
85001.514
85001.554
85001.594
85001.631
85001.664
85001.692
85001.712
85001.724
85001.728
85001.724
85001.713
85001.697
85001.677
85001.656
85001.04
85001.044
85001.05
85001.06
85001.071
85001.084
85001.098
85001.115
85001.133
85001.153
85001.173
85001.196
85001.22
85001.245
85001.274
85001.301
85001.333
85001.363
85001.399
85001.433
85001.471
85001.508
85001.546
85001.582
85001.616
85001.645
85001.668
85001.684
85001.692
85001.693
85001.687
85001.676
85001.66
85001.642
85001.623
85001.04
85001.044
85001.05
85001.06
85001.071
85001.084
85001.098
85001.115
85001.133
85001.152
85001.173
85001.196
85001.22
85001.245
85001.273
85001.3
85001.332
85001.362
85001.397
85001.43
85001.466
85001.502
85001.537
85001.57
85001.6
85001.625
85001.644
85001.656
85001.66
85001.659
85001.652
85001.64
85001.626
85001.609
85001.592
85001.041
85001.044
85001.05
85001.06
85001.071
85001.084
85001.098
85001.115
85001.132
85001.152
85001.173
85001.195
85001.22
85001.244
85001.273
85001.299
85001.331
85001.36
85001.394
85001.427
85001.461
85001.494
85001.527
85001.557
85001.583
85001.604
85001.619
85001.627
85001.629
85001.626
85001.618
85001.607
85001.593
85001.578
85001.563
85001.041
85001.044
85001.05
85001.06
85001.071
85001.084
85001.098
85001.115
85001.132
85001.152
85001.173
85001.195
85001.22
85001.244
85001.272
85001.298
85001.329
85001.358
85001.391
85001.423
85001.455
85001.486
85001.516
85001.543
85001.565
85001.582
85001.594
85001.599
85001.599
85001.594
85001.586
85001.575
85001.563
85001.549
85001.535
85001.041
85001.044
85001.05
85001.06
85001.071
85001.084
85001.098
85001.115
85001.132
85001.152
85001.173
85001.195
85001.219
85001.243
85001.271
85001.297
85001.327
85001.356
85001.387
85001.418
85001.448
85001.477
85001.504
85001.528
85001.547
85001.56
85001.569
85001.571
85001.57
85001.564
85001.556
85001.545
85001.534
85001.521
85001.509
85001.041
85001.044
85001.05
85001.06
85001.071
85001.084
85001.098
85001.115
85001.132
85001.151
85001.173
85001.194
85001.219
85001.242
85001.27
85001.296
85001.325
85001.354
85001.383
85001.413
85001.441
85001.468
85001.492
85001.512
85001.528
85001.538
85001.543
85001.544
85001.541
85001.535
85001.526
85001.516
85001.506
85001.495
85001.484
85001.041
85001.044
85001.05
85001.06
85001.071
85001.084
85001.098
85001.114
85001.132
85001.151
85001.172
85001.194
85001.218
85001.242
85001.269
85001.295
85001.323
85001.351
85001.379
85001.407
85001.434
85001.458
85001.479
85001.496
85001.508
85001.516
85001.519
85001.517
85001.513
85001.506
85001.498
85001.489
85001.479
85001.47
85001.461
85001.041
85001.044
85001.05
85001.06
85001.071
85001.084
85001.098
85001.114
85001.132
85001.151
85001.172
85001.193
85001.218
85001.241
85001.267
85001.293
85001.32
85001.348
85001.375
85001.401
85001.425
85001.447
85001.465
85001.479
85001.489
85001.493
85001.494
85001.491
85001.486
85001.479
85001.471
85001.462
85001.454
85001.446
85001.438
85001.041
85001.044
85001.05
85001.06
85001.071
85001.084
85001.098
85001.114
85001.132
85001.151
85001.172
85001.193
85001.217
85001.24
85001.266
85001.291
85001.318
85001.344
85001.37
85001.394
85001.416
85001.436
85001.451
85001.462
85001.469
85001.471
85001.47
85001.466
85001.459
85001.452
85001.444
85001.437
85001.43
85001.423
85001.417
85001.041
85001.044
85001.05
85001.06
85001.071
85001.084
85001.098
85001.114
85001.132
85001.15
85001.171
85001.192
85001.216
85001.239
85001.264
85001.289
85001.315
85001.34
85001.364
85001.387
85001.407
85001.424
85001.436
85001.445
85001.449
85001.449
85001.446
85001.441
85001.434
85001.426
85001.419
85001.412
85001.406
85001.401
85001.397
85001.041
85001.044
85001.05
85001.06
85001.071
85001.083
85001.098
85001.114
85001.132
85001.15
85001.171
85001.191
85001.215
85001.238
85001.263
85001.287
85001.312
85001.336
85001.358
85001.379
85001.397
85001.411
85001.421
85001.427
85001.429
85001.427
85001.423
85001.416
85001.409
85001.401
85001.394
85001.388
85001.383
85001.38
85001.377
85001.041
85001.044
85001.05
85001.06
85001.071
85001.083
85001.098
85001.113
85001.131
85001.149
85001.17
85001.191
85001.214
85001.237
85001.261
85001.285
85001.308
85001.331
85001.352
85001.371
85001.386
85001.398
85001.406
85001.41
85001.409
85001.406
85001.4
85001.393
85001.384
85001.377
85001.37
85001.364
85001.361
85001.359
85001.359
85001.041
85001.044
85001.05
85001.059
85001.071
85001.083
85001.098
85001.113
85001.131
85001.149
85001.17
85001.19
85001.213
85001.235
85001.258
85001.282
85001.304
85001.326
85001.345
85001.362
85001.375
85001.385
85001.39
85001.392
85001.39
85001.385
85001.378
85001.37
85001.361
85001.353
85001.347
85001.342
85001.34
85001.34
85001.341
85001.041
85001.044
85001.05
85001.059
85001.071
85001.083
85001.098
85001.113
85001.131
85001.148
85001.169
85001.189
85001.211
85001.234
85001.256
85001.278
85001.3
85001.32
85001.337
85001.352
85001.364
85001.371
85001.375
85001.374
85001.371
85001.364
85001.356
85001.347
85001.338
85001.331
85001.325
85001.321
85001.32
85001.321
85001.324
85001.041
85001.044
85001.05
85001.059
85001.071
85001.083
85001.097
85001.112
85001.13
85001.148
85001.168
85001.188
85001.21
85001.232
85001.253
85001.275
85001.295
85001.314
85001.33
85001.342
85001.352
85001.357
85001.359
85001.357
85001.352
85001.344
85001.335
85001.326
85001.317
85001.309
85001.304
85001.301
85001.301
85001.303
85001.307
85001.041
85001.044
85001.05
85001.059
85001.07
85001.083
85001.097
85001.112
85001.13
85001.147
85001.167
85001.187
85001.208
85001.229
85001.25
85001.271
85001.29
85001.307
85001.321
85001.332
85001.34
85001.343
85001.343
85001.339
85001.333
85001.325
85001.315
85001.305
85001.296
85001.289
85001.284
85001.282
85001.282
85001.286
85001.292
85001.041
85001.043
85001.05
85001.059
85001.07
85001.082
85001.097
85001.112
85001.129
85001.147
85001.166
85001.186
85001.206
85001.227
85001.247
85001.266
85001.284
85001.3
85001.312
85001.322
85001.327
85001.329
85001.327
85001.322
85001.315
85001.306
85001.296
85001.286
85001.277
85001.27
85001.265
85001.263
85001.265
85001.27
85001.277
85001.041
85001.043
85001.05
85001.059
85001.07
85001.082
85001.097
85001.111
85001.128
85001.146
85001.165
85001.184
85001.204
85001.224
85001.244
85001.262
85001.278
85001.292
85001.303
85001.311
85001.315
85001.315
85001.312
85001.306
85001.297
85001.288
85001.277
85001.267
85001.258
85001.251
85001.247
85001.246
85001.249
85001.254
85001.263
85001.041
85001.043
85001.05
85001.059
85001.07
85001.082
85001.096
85001.111
85001.128
85001.145
85001.164
85001.183
85001.202
85001.221
85001.24
85001.257
85001.272
85001.284
85001.294
85001.3
85001.302
85001.301
85001.297
85001.29
85001.281
85001.27
85001.26
85001.25
85001.241
85001.234
85001.23
85001.23
85001.233
85001.24
85001.249
85001.041
85001.043
85001.05
85001.058
85001.07
85001.082
85001.096
85001.11
85001.127
85001.144
85001.162
85001.181
85001.199
85001.218
85001.235
85001.251
85001.265
85001.276
85001.284
85001.289
85001.29
85001.287
85001.282
85001.274
85001.265
85001.254
85001.243
85001.233
85001.224
85001.218
85001.214
85001.215
85001.218
85001.226
85001.236
85001.041
85001.043
85001.05
85001.058
85001.07
85001.081
85001.095
85001.11
85001.126
85001.143
85001.161
85001.179
85001.197
85001.214
85001.23
85001.245
85001.258
85001.268
85001.274
85001.278
85001.277
85001.274
85001.268
85001.259
85001.249
85001.238
85001.228
85001.217
85001.209
85001.203
85001.2
85001.2
85001.205
85001.213
85001.224
85001.04
85001.043
85001.05
85001.058
85001.069
85001.081
85001.095
85001.109
85001.125
85001.142
85001.159
85001.176
85001.193
85001.21
85001.225
85001.239
85001.25
85001.259
85001.265
85001.267
85001.265
85001.261
85001.254
85001.245
85001.235
85001.224
85001.213
85001.203
85001.195
85001.189
85001.186
85001.187
85001.192
85001.201
85001.212
85001.04
85001.043
85001.049
85001.058
85001.069
85001.081
85001.094
85001.108
85001.124
85001.14
85001.157
85001.173
85001.19
85001.205
85001.219
85001.232
85001.242
85001.25
85001.254
85001.256
85001.254
85001.249
85001.241
85001.232
85001.222
85001.211
85001.2
85001.19
85001.182
85001.176
85001.174
85001.175
85001.18
85001.189
85001.201
85001.04
85001.042
85001.049
85001.058
85001.068
85001.08
85001.093
85001.107
85001.123
85001.138
85001.154
85001.17
85001.186
85001.2
85001.213
85001.225
85001.234
85001.241
85001.244
85001.245
85001.242
85001.237
85001.23
85001.22
85001.21
85001.199
85001.188
85001.178
85001.17
85001.165
85001.162
85001.164
85001.169
85001.179
85001.191
85001.04
85001.042
85001.049
85001.057
85001.068
85001.08
85001.093
85001.106
85001.121
85001.136
85001.152
85001.167
85001.181
85001.195
85001.207
85001.217
85001.226
85001.232
85001.234
85001.235
85001.232
85001.227
85001.219
85001.21
85001.199
85001.188
85001.178
85001.168
85001.16
85001.155
85001.153
85001.154
85001.16
85001.17
85001.182
85001.04
85001.042
85001.049
85001.057
85001.068
85001.079
85001.092
85001.105
85001.12
85001.134
85001.149
85001.163
85001.176
85001.189
85001.2
85001.21
85001.217
85001.222
85001.225
85001.225
85001.222
85001.217
85001.21
85001.201
85001.191
85001.181
85001.17
85001.16
85001.152
85001.147
85001.145
85001.146
85001.152
85001.162
85001.175
85001.04
85001.042
85001.048
85001.057
85001.067
85001.078
85001.091
85001.104
85001.118
85001.132
85001.146
85001.159
85001.171
85001.183
85001.193
85001.201
85001.208
85001.212
85001.215
85001.215
85001.213
85001.209
85001.203
85001.196
85001.187
85001.177
85001.166
85001.156
85001.147
85001.141
85001.138
85001.139
85001.145
85001.154
85001.167
85001.039
85001.041
85001.048
85001.056
85001.066
85001.078
85001.09
85001.103
85001.116
85001.129
85001.142
85001.154
85001.166
85001.176
85001.185
85001.192
85001.198
85001.202
85001.204
85001.205
85001.204
85001.201
85001.197
85001.192
85001.186
85001.179
85001.171
85001.163
85001.154
85001.146
85001.139
85001.136
85001.136
85001.141
85001.15
85001.039
85001.041
85001.048
85001.056
85001.066
85001.077
85001.089
85001.101
85001.114
85001.126
85001.138
85001.15
85001.16
85001.169
85001.177
85001.183
85001.187
85001.19
85001.193
85001.195
85001.195
85001.193
85001.19
85001.187
85001.184
85001.183
85001.183
85001.185
85001.188
85001.19
85001.191
85001.189
85001.184
85001.175
85001.162
85001.039
85001.041
85001.047
85001.055
85001.065
85001.076
85001.087
85001.099
85001.111
85001.123
85001.134
85001.144
85001.154
85001.162
85001.168
85001.174
85001.179
85001.183
85001.185
85001.186
85001.186
85001.185
85001.184
85001.184
85001.186
85001.188
85001.191
85001.194
85001.196
85001.196
85001.193
85001.187
85001.177
85001.162
85001.145
85001.038
85001.041
85001.047
85001.055
85001.064
85001.075
85001.086
85001.097
85001.108
85001.119
85001.129
85001.139
85001.147
85001.155
85001.162
85001.167
85001.172
85001.175
85001.176
85001.177
85001.177
85001.178
85001.179
85001.181
85001.184
85001.187
85001.19
85001.193
85001.195
85001.194
85001.19
85001.183
85001.172
85001.157
85001.14
85001.038
85001.04
85001.046
85001.054
85001.063
85001.073
85001.084
85001.095
85001.105
85001.115
85001.125
85001.134
85001.141
85001.148
85001.154
85001.158
85001.163
85001.166
85001.168
85001.169
85001.17
85001.171
85001.173
85001.176
85001.18
85001.184
85001.187
85001.19
85001.191
85001.191
85001.187
85001.18
85001.168
85001.153
85001.135
85001.037
85001.04
85001.046
85001.053
85001.062
85001.072
85001.082
85001.092
85001.102
85001.111
85001.12
85001.128
85001.135
85001.142
85001.147
85001.152
85001.155
85001.158
85001.159
85001.161
85001.162
85001.164
85001.167
85001.171
85001.175
85001.179
85001.183
85001.185
85001.187
85001.186
85001.182
85001.175
85001.163
85001.148
85001.129
85001.037
85001.039
85001.045
85001.052
85001.061
85001.071
85001.08
85001.089
85001.099
85001.107
85001.115
85001.123
85001.13
85001.136
85001.141
85001.144
85001.147
85001.149
85001.151
85001.153
85001.155
85001.157
85001.161
85001.165
85001.169
85001.173
85001.177
85001.18
85001.182
85001.181
85001.177
85001.169
85001.158
85001.142
85001.123
85001.036
85001.039
85001.044
85001.051
85001.06
85001.069
85001.078
85001.087
85001.095
85001.103
85001.111
85001.118
85001.124
85001.129
85001.133
85001.137
85001.139
85001.141
85001.143
85001.145
85001.147
85001.15
85001.154
85001.158
85001.163
85001.167
85001.171
85001.174
85001.176
85001.175
85001.171
85001.163
85001.152
85001.136
85001.117
85001.036
85001.038
85001.043
85001.05
85001.058
85001.067
85001.075
85001.083
85001.091
85001.099
85001.106
85001.112
85001.117
85001.122
85001.126
85001.13
85001.132
85001.133
85001.135
85001.137
85001.14
85001.143
85001.147
85001.152
85001.156
85001.161
85001.165
85001.168
85001.17
85001.169
85001.165
85001.157
85001.146
85001.13
85001.111
85001.035
85001.038
85001.043
85001.049
85001.057
85001.064
85001.072
85001.08
85001.087
85001.094
85001.101
85001.106
85001.112
85001.116
85001.12
85001.122
85001.124
85001.126
85001.128
85001.13
85001.133
85001.136
85001.14
85001.145
85001.15
85001.155
85001.159
85001.162
85001.164
85001.163
85001.159
85001.151
85001.14
85001.124
85001.104
85001.034
85001.037
85001.042
85001.048
85001.055
85001.062
85001.069
85001.077
85001.084
85001.09
85001.095
85001.1
85001.105
85001.109
85001.112
85001.115
85001.116
85001.118
85001.12
85001.122
85001.126
85001.129
85001.134
85001.138
85001.143
85001.148
85001.153
85001.156
85001.158
85001.157
85001.153
85001.145
85001.134
85001.118
85001.098
85001.033
85001.036
85001.04
85001.046
85001.053
85001.06
85001.066
85001.073
85001.079
85001.085
85001.091
85001.095
85001.1
85001.103
85001.105
85001.107
85001.109
85001.11
85001.113
85001.115
85001.119
85001.122
85001.127
85001.132
85001.137
85001.142
85001.146
85001.15
85001.152
85001.151
85001.147
85001.139
85001.128
85001.112
85001.092
85001.032
85001.035
85001.039
85001.045
85001.051
85001.057
85001.063
85001.069
85001.075
85001.08
85001.085
85001.09
85001.093
85001.096
85001.098
85001.1
85001.101
85001.103
85001.105
85001.108
85001.112
85001.116
85001.12
85001.125
85001.131
85001.136
85001.14
85001.144
85001.146
85001.145
85001.141
85001.134
85001.122
85001.106
85001.086
85001.031
85001.034
85001.038
85001.043
85001.048
85001.054
85001.06
85001.065
85001.071
85001.076
85001.08
85001.084
85001.087
85001.089
85001.091
85001.092
85001.094
85001.096
85001.098
85001.101
85001.105
85001.109
85001.114
85001.119
85001.124
85001.129
85001.134
85001.138
85001.14
85001.139
85001.136
85001.128
85001.116
85001.1
85001.081
85001.03
85001.032
85001.036
85001.041
85001.046
85001.051
85001.057
85001.062
85001.066
85001.07
85001.074
85001.078
85001.081
85001.083
85001.084
85001.085
85001.087
85001.089
85001.091
85001.094
85001.098
85001.103
85001.107
85001.113
85001.118
85001.123
85001.128
85001.132
85001.134
85001.134
85001.13
85001.122
85001.111
85001.095
85001.075
85001.029
85001.031
85001.034
85001.039
85001.043
85001.048
85001.053
85001.058
85001.062
85001.066
85001.069
85001.072
85001.074
85001.076
85001.077
85001.078
85001.08
85001.082
85001.085
85001.088
85001.092
85001.096
85001.101
85001.106
85001.112
85001.117
85001.122
85001.126
85001.128
85001.128
85001.124
85001.117
85001.105
85001.089
85001.07
85001.027
85001.029
85001.032
85001.036
85001.04
85001.045
85001.049
85001.053
85001.057
85001.061
85001.064
85001.066
85001.068
85001.069
85001.07
85001.072
85001.073
85001.075
85001.078
85001.081
85001.085
85001.09
85001.095
85001.1
85001.106
85001.112
85001.117
85001.12
85001.123
85001.122
85001.119
85001.111
85001.1
85001.084
85001.064
85001.026
85001.028
85001.03
85001.034
85001.037
85001.041
85001.045
85001.049
85001.052
85001.055
85001.058
85001.06
85001.062
85001.063
85001.064
85001.065
85001.067
85001.069
85001.072
85001.075
85001.079
85001.084
85001.089
85001.095
85001.1
85001.106
85001.111
85001.115
85001.117
85001.117
85001.113
85001.106
85001.094
85001.078
85001.059
85001.024
85001.026
85001.028
85001.031
85001.034
85001.038
85001.041
85001.045
85001.048
85001.05
85001.053
85001.054
85001.055
85001.056
85001.057
85001.059
85001.06
85001.063
85001.065
85001.069
85001.073
85001.078
85001.083
85001.089
85001.095
85001.1
85001.105
85001.109
85001.112
85001.112
85001.108
85001.101
85001.089
85001.073
85001.054
85001.022
85001.023
85001.026
85001.028
85001.031
85001.034
85001.037
85001.04
85001.042
85001.045
85001.047
85001.048
85001.049
85001.05
85001.051
85001.052
85001.054
85001.056
85001.059
85001.063
85001.067
85001.072
85001.078
85001.083
85001.089
85001.095
85001.1
85001.104
85001.107
85001.106
85001.103
85001.096
85001.084
85001.068
85001.048
85001.02
85001.021
85001.023
85001.025
85001.028
85001.03
85001.033
85001.035
85001.038
85001.039
85001.041
85001.042
85001.043
85001.043
85001.044
85001.046
85001.048
85001.05
85001.053
85001.057
85001.062
85001.067
85001.072
85001.078
85001.084
85001.09
85001.095
85001.099
85001.101
85001.101
85001.098
85001.091
85001.079
85001.063
85001.043
85001.017
85001.018
85001.02
85001.022
85001.024
85001.027
85001.029
85001.031
85001.033
85001.034
85001.035
85001.036
85001.037
85001.037
85001.038
85001.04
85001.042
85001.044
85001.048
85001.052
85001.056
85001.061
85001.067
85001.073
85001.079
85001.084
85001.09
85001.094
85001.096
85001.096
85001.093
85001.086
85001.074
85001.058
85001.039
85001.015
85001.016
85001.017
85001.019
85001.021
85001.022
85001.024
85001.025
85001.027
85001.029
85001.03
85001.03
85001.031
85001.031
85001.032
85001.034
85001.036
85001.039
85001.042
85001.046
85001.051
85001.056
85001.061
85001.067
85001.073
85001.079
85001.085
85001.089
85001.091
85001.091
85001.088
85001.081
85001.069
85001.053
85001.034
85001.012
85001.012
85001.014
85001.015
85001.017
85001.018
85001.02
85001.021
85001.022
85001.023
85001.024
85001.024
85001.025
85001.026
85001.027
85001.028
85001.03
85001.033
85001.037
85001.041
85001.045
85001.051
85001.056
85001.062
85001.068
85001.074
85001.08
85001.084
85001.087
85001.087
85001.083
85001.076
85001.064
85001.048
85001.029
85001.009
85001.009
85001.01
85001.012
85001.013
85001.014
85001.015
85001.016
85001.017
85001.018
85001.018
85001.019
85001.019
85001.02
85001.021
85001.023
85001.025
85001.028
85001.031
85001.035
85001.04
85001.045
85001.051
85001.057
85001.064
85001.07
85001.075
85001.079
85001.082
85001.082
85001.079
85001.071
85001.06
85001.044
85001.024
85001.006
85001.006
85001.007
85001.008
85001.008
85001.009
85001.01
85001.011
85001.012
85001.013
85001.013
85001.013
85001.013
85001.014
85001.015
85001.017
85001.02
85001.023
85001.026
85001.03
85001.035
85001.041
85001.046
85001.052
85001.059
85001.065
85001.07
85001.075
85001.077
85001.077
85001.074
85001.067
85001.055
85001.039
85001.02
85001.002
85001.002
85001.003
85001.004
85001.004
85001.005
85001.006
85001.007
85001.007
85001.007
85001.007
85001.007
85001.008
85001.009
85001.01
85001.012
85001.014
85001.017
85001.021
85001.025
85001.03
85001.036
85001.042
85001.048
85001.054
85001.06
85001.066
85001.07
85001.073
85001.073
85001.069
85001.062
85001.05
85001.035
85001.015
85000.998
85000.999
85000.999
85000.999
85000.999
85001
85001.001
85001.001
85001.002
85001.002
85001.002
85001.002
85001.002
85001.003
85001.005
85001.007
85001.009
85001.012
85001.016
85001.02
85001.025
85001.031
85001.037
85001.043
85001.049
85001.055
85001.061
85001.065
85001.068
85001.068
85001.065
85001.058
85001.046
85001.03
85001.011
85000.994
85000.994
85000.995
85000.995
85000.996
85000.996
85000.996
85000.996
85000.996
85000.996
85000.996
85000.996
85000.997
85000.998
85000.999
85001.001
85001.004
85001.007
85001.011
85001.016
85001.021
85001.026
85001.032
85001.038
85001.045
85001.051
85001.057
85001.061
85001.064
85001.064
85001.061
85001.053
85001.042
85001.026
85001.006
85000.99
85000.99
85000.991
85000.991
85000.991
85000.991
85000.991
85000.991
85000.991
85000.991
85000.991
85000.991
85000.992
85000.993
85000.994
85000.996
85000.999
85001.003
85001.006
85001.011
85001.016
85001.022
85001.028
85001.034
85001.04
85001.046
85001.052
85001.057
85001.059
85001.059
85001.056
85001.049
85001.037
85001.021
85001.002
85000.985
85000.986
85000.986
85000.987
85000.987
85000.987
85000.986
85000.986
85000.985
85000.985
85000.985
85000.986
85000.986
85000.988
85000.989
85000.992
85000.994
85000.998
85001.002
85001.006
85001.011
85001.017
85001.023
85001.029
85001.036
85001.042
85001.048
85001.052
85001.055
85001.055
85001.052
85001.045
85001.033
85001.017
85000.998
85000.981
85000.981
85000.981
85000.982
85000.982
85000.982
85000.981
85000.981
85000.98
85000.98
85000.98
85000.981
85000.981
85000.983
85000.984
85000.987
85000.99
85000.993
85000.997
85001.002
85001.007
85001.013
85001.019
85001.025
85001.032
85001.038
85001.043
85001.048
85001.051
85001.051
85001.048
85001.041
85001.029
85001.013
85000.994
85000.976
85000.976
85000.977
85000.977
85000.977
85000.977
85000.976
85000.976
85000.975
85000.975
85000.975
85000.976
85000.976
85000.978
85000.98
85000.982
85000.985
85000.989
85000.993
85000.997
85001.003
85001.008
85001.014
85001.021
85001.027
85001.034
85001.039
85001.044
85001.047
85001.047
85001.044
85001.036
85001.025
85001.009
85000.989
85000.971
85000.971
85000.972
85000.972
85000.972
85000.972
85000.971
85000.971
85000.97
85000.97
85000.97
85000.971
85000.972
85000.973
85000.975
85000.978
85000.981
85000.984
85000.988
85000.993
85000.998
85001.004
85001.01
85001.017
85001.023
85001.029
85001.035
85001.04
85001.042
85001.043
85001.04
85001.032
85001.021
85001.005
85000.985
85000.966
85000.966
85000.967
85000.967
85000.967
85000.967
85000.966
85000.966
85000.965
85000.965
85000.965
85000.966
85000.967
85000.968
85000.97
85000.973
85000.976
85000.98
85000.984
85000.989
85000.994
85001
85001.006
85001.012
85001.019
85001.025
85001.031