/*--------------------------------*- C++ -*----------------------------------*\
  =========                 |
  \\      /  F ield         | OpenFOAM: The Open Source CFD Toolbox
   \\    /   O peration     | Website:  https://openfoam.org
    \\  /    A nd           | Version:  11
     \\/     M anipulation  |
\*---------------------------------------------------------------------------*/
FoamFile
{
    format      ascii;
    class       surfaceScalarField;
    location    "1";
    object      phi_0;
}
// * * * * * * * * * * * * * * * * * * * * * * * * * * * * * * * * * * * * * //

dimensions      [0 3 -1 0 0 0 0];

internalField   nonuniform List<scalar> 
132610
(
1.0634356e-05
3.4937777e-07
1.0910378e-05
-2.7602212e-07
1.0620288e-05
2.9008944e-07
1.0871085e-05
-2.5079639e-07
1.0618038e-05
2.5304632e-07
1.0840591e-05
-2.2255266e-07
1.0617693e-05
2.2289793e-07
1.0813895e-05
-1.9620214e-07
1.0615808e-05
1.980877e-07
1.0788722e-05
-1.7291402e-07
1.0610766e-05
1.7795561e-07
1.0763787e-05
-1.5302131e-07
1.060171e-05
1.6207715e-07
1.0738175e-05
-1.3646508e-07
1.058795e-05
1.5022512e-07
1.0710938e-05
-1.2298806e-07
1.0568566e-05
1.4237244e-07
1.0680848e-05
-1.1228177e-07
1.0542201e-05
1.3864647e-07
1.0646287e-05
-1.0408605e-07
1.0507003e-05
1.3928406e-07
1.0605197e-05
-9.8194039e-08
1.0460539e-05
1.4465845e-07
1.0554847e-05
-9.4308404e-08
1.0399403e-05
1.5544393e-07
1.049112e-05
-9.1716618e-08
1.0318052e-05
1.7306766e-07
1.0406728e-05
-8.8676076e-08
1.020575e-05
2.0097765e-07
1.0286504e-05
-8.0753049e-08
1.0037579e-05
2.4892408e-07
1.0090126e-05
-5.2546482e-08
9.7220955e-06
3.6803043e-07
9.5706249e-06
1.5147062e-07
1.143379e-06
8.4272459e-06
1.1292693e-05
7.1676695e-07
1.1583692e-05
-5.6702072e-07
1.1278625e-05
5.9515587e-07
1.154231e-05
-5.1448112e-07
1.1276846e-05
5.1851018e-07
1.1510107e-05
-4.5581318e-07
1.127706e-05
4.559445e-07
1.1481859e-05
-4.0100047e-07
1.127567e-05
4.0427578e-07
1.1455169e-05
-3.5241274e-07
1.1271007e-05
3.6211825e-07
1.1428683e-05
-3.106982e-07
1.1262208e-05
3.2855305e-07
1.1401427e-05
-2.7568416e-07
1.1248608e-05
3.0304388e-07
1.1372383e-05
-2.4676344e-07
1.122933e-05
2.8542596e-07
1.1340225e-05
-2.231769e-07
1.1203091e-05
2.7578025e-07
1.1303185e-05
-2.0418028e-07
1.1168191e-05
2.7427846e-07
1.1258972e-05
-1.8897505e-07
1.1122526e-05
2.8110389e-07
1.1204449e-05
-1.7623105e-07
1.1063426e-05
2.9646688e-07
1.1134664e-05
-1.6295438e-07
1.0987063e-05
3.2066893e-07
1.1040297e-05
-1.4191077e-07
1.0887131e-05
3.5414365e-07
1.0900519e-05
-9.4140321e-08
1.0750858e-05
3.9858476e-07
1.0655962e-05
4.2349378e-08
1.0526579e-05
4.9741308e-07
1.0049389e-05
6.2866153e-07
1.1254616e-06
1.0067306e-05
1.199528e-05
1.099566e-06
1.2299783e-05
-8.7152326e-07
1.1982186e-05
9.1275236e-07
1.225653e-05
-7.8882504e-07
1.1981637e-05
7.9340332e-07
1.2222705e-05
-6.9688123e-07
1.198315e-05
6.9549956e-07
1.2192924e-05
-6.1077473e-07
1.198302e-05
6.1418007e-07
1.2164679e-05
-5.3407198e-07
1.1979554e-05
5.4724375e-07
1.2136542e-05
-4.6768633e-07
1.1971925e-05
4.9316991e-07
1.2107475e-05
-4.1123395e-07
1.1959541e-05
4.509772e-07
1.207638e-05
-3.6360205e-07
1.1941636e-05
4.2016951e-07
1.2041798e-05
-3.2333803e-07
1.1917105e-05
4.0047271e-07
1.2001746e-05
-2.8882131e-07
1.1884558e-05
3.914666e-07
1.1953572e-05
-2.5798903e-07
1.1842464e-05
3.9221208e-07
1.1893496e-05
-2.2726323e-07
1.178918e-05
4.0078251e-07
1.181537e-05
-1.8914403e-07
1.172257e-05
4.1346846e-07
1.1707813e-05
-1.2715332e-07
1.1638085e-05
4.2387116e-07
1.1548113e-05
-4.1677128e-09
1.1517631e-05
4.2906694e-07
1.1284809e-05
2.7517102e-07
1.1269727e-05
5.1249473e-07
1.0822786e-05
1.0756025e-06
1.1287449e-06
1.0819503e-05
1.2745141e-05
1.4947129e-06
1.306116e-05
-1.1875417e-06
1.273412e-05
1.2397919e-06
1.3016259e-05
-1.0709635e-06
1.2735677e-05
1.0739852e-06
1.2980893e-05
-9.4209708e-07
1.2739334e-05
9.3705864e-07
1.2949581e-05
-8.210222e-07
1.2741309e-05
8.2245204e-07
1.2919709e-05
-7.1247194e-07
1.2739901e-05
7.2705215e-07
1.2889774e-05
-6.1756002e-07
1.2734323e-05
6.4862082e-07
1.2858674e-05
-5.3558434e-07
1.2724056e-05
5.8559508e-07
1.2825222e-05
-4.6476864e-07
1.2708421e-05
5.3697073e-07
1.2787824e-05
-4.027411e-07
1.2686428e-05
5.0186951e-07
1.2744286e-05
-3.4667986e-07
1.2656832e-05
4.7892065e-07
1.2691634e-05
-2.927906e-07
1.2618257e-05
4.6558832e-07
1.2625633e-05
-2.3463887e-07
1.2569006e-05
4.5740916e-07
1.25397e-05
-1.5983789e-07
1.2505742e-05
4.4742654e-07
1.2423214e-05
-4.4625129e-08
1.2418294e-05
4.2879095e-07
1.2260076e-05
1.5405056e-07
1.2271916e-05
4.1722727e-07
1.2022702e-05
5.2438463e-07
1.1967367e-05
5.6782962e-07
1.1741888e-05
1.3010817e-06
1.2689367e-06
1.1601696e-05
1.3545536e-05
1.8986086e-06
1.3870503e-05
-1.5125081e-06
1.353779e-05
1.5725042e-06
1.3824162e-05
-1.3573349e-06
1.3542404e-05
1.355743e-06
1.3787305e-05
-1.1869986e-06
1.3549087e-05
1.1752775e-06
1.3754421e-05
-1.0263569e-06
1.3553992e-05
1.0228818e-06
1.3722798e-05
-8.8127794e-07
1.3555385e-05
8.9446425e-07
1.3690864e-05
-7.5303851e-07
1.3552478e-05
7.8700628e-07
1.3657465e-05
-6.4057092e-07
1.3544737e-05
6.9832365e-07
1.3621358e-05
-5.4138993e-07
1.3531427e-05
6.2690193e-07
1.3580869e-05
-4.5218366e-07
1.3511416e-05
5.7132305e-07
1.3533718e-05
-3.6898185e-07
1.348316e-05
5.2947811e-07
1.3476872e-05
-2.8650292e-07
1.3444648e-05
4.9781326e-07
1.3406228e-05
-1.9621954e-07
1.3392782e-05
4.7085514e-07
1.3316054e-05
-8.3109691e-08
1.3321136e-05
4.4234468e-07
1.3198862e-05
7.7648262e-08
1.3213754e-05
4.1389952e-07
1.3046131e-05
3.2167334e-07
1.3031924e-05
4.3143408e-07
1.2843187e-05
7.1312152e-07
1.2723794e-05
6.8722275e-07
1.2652451e-05
1.3724254e-06
1.4169516e-06
1.2504436e-05
1.4399953e-05
2.307056e-06
1.4730652e-05
-1.8432067e-06
1.4396759e-05
1.9063976e-06
1.4683051e-05
-1.6436273e-06
1.4405406e-05
1.633388e-06
1.4644707e-05
-1.4262993e-06
1.4415953e-05
1.4040312e-06
1.4610147e-05
-1.220551e-06
1.4424466e-05
1.2085623e-06
1.4576585e-05
-1.033396e-06
1.4429113e-05
1.0419361e-06
1.4542409e-05
-8.663345e-07
1.4428983e-05
9.0043149e-07
1.4506464e-05
-7.1805123e-07
1.4423361e-05
7.8142675e-07
1.4467542e-05
-5.855712e-07
1.4411206e-05
6.83238e-07
1.4424053e-05
-4.6503083e-07
1.4390898e-05
6.0447777e-07
1.4373886e-05
-3.5196922e-07
1.4360161e-05
5.4320292e-07
1.4314334e-05
-2.4067593e-07
1.4315954e-05
4.961932e-07
1.4241872e-05
-1.2213781e-07
1.425391e-05
4.5881774e-07
1.4151813e-05
1.8986455e-08
1.4166414e-05
4.2774396e-07
1.4038565e-05
2.0549702e-07
1.4037814e-05
4.1465082e-07
1.3895668e-05
4.6381967e-07
1.3837978e-05
4.8912364e-07
1.3712294e-05
8.3880568e-07
1.3567202e-05
8.3231439e-07
1.3557548e-05
1.3820793e-06
1.5071266e-06
1.3467374e-05
1.5312103e-05
2.7152158e-06
1.5644606e-05
-2.1757095e-06
1.5314767e-05
2.2362358e-06
1.559588e-05
-1.9247401e-06
1.5328388e-05
1.9008798e-06
1.5555989e-05
-1.6539002e-06
1.5343497e-05
1.6165236e-06
1.5519586e-05
-1.3966399e-06
1.5356009e-05
1.3721387e-06
1.5483852e-05
-1.1612389e-06
1.5363867e-05
1.1619215e-06
1.5447208e-05
-9.4967533e-07
1.5365867e-05
9.8177222e-07
1.5408614e-05
-7.6079786e-07
1.5360884e-05
8.2915679e-07
1.5367079e-05
-5.9176599e-07
1.5347327e-05
7.0298921e-07
1.5321339e-05
-4.3904254e-07
1.5322909e-05
6.0290739e-07
1.52697e-05
-2.9875945e-07
1.5284728e-05
5.2817445e-07
1.5209813e-05
-1.6576056e-07
1.5229565e-05
4.7644115e-07
1.5138119e-05
-3.0691806e-08
1.5153906e-05
4.4303045e-07
1.504936e-05
1.2353236e-07
1.5052085e-05
4.2501908e-07
1.4937831e-05
3.1975099e-07
1.4910953e-05
4.4152878e-07
1.4797894e-05
5.7687853e-07
1.4709705e-05
5.7731296e-07
1.4624669e-05
9.2384186e-07
1.4487336e-05
9.696468e-07
1.4495422e-05
1.3739934e-06
1.5367896e-06
1.4465759e-05
1.628591e-05
3.1175799e-06
1.6615519e-05
-2.5053184e-06
1.629572e-05
2.5560343e-06
1.6565748e-05
-2.1947681e-06
1.6315139e-05
2.1514889e-06
1.6524187e-05
-1.8629481e-06
1.6335248e-05
1.8054628e-06
1.6485721e-05
-1.5471131e-06
1.6351701e-05
1.5061588e-06
1.6447592e-05
-1.2571299e-06
1.6362041e-05
1.2474728e-06
1.6408384e-05
-9.9601915e-07
1.6364566e-05
1.0255909e-06
1.6367378e-05
-7.6360961e-07
1.6357563e-05
8.3897091e-07
1.632404e-05
-5.58243e-07
1.6338863e-05
6.8816616e-07
1.6277616e-05
-3.7779466e-07
1.6305874e-05
5.7464883e-07
1.6226661e-05
-2.1954585e-07
1.6256179e-05
4.9865622e-07
1.6168274e-05
-7.7856111e-08
1.6188373e-05
4.5634208e-07
1.6097224e-05
6.0457952e-08
1.6101657e-05
4.3859742e-07
1.6006852e-05
2.1833696e-07
1.5991634e-05
4.4023744e-07
1.589304e-05
4.1834444e-07
1.584479e-05
4.8977938e-07
1.5752889e-05
6.687789e-07
1.5650921e-05
6.7928146e-07
1.5588135e-05
9.8662733e-07
1.5475659e-05
1.0821235e-06
1.5486282e-05
1.3633698e-06
1.5224381e-06
1.5500634e-05
1.7325508e-05
3.5079652e-06
1.7646709e-05
-2.8265191e-06
1.7343658e-05
2.8590856e-06
1.7595907e-05
-2.4470176e-06
1.7369487e-05
2.3779094e-06
1.7552497e-05
-2.0459585e-06
1.7394642e-05
1.9633182e-06
1.7511742e-05
-1.6642134e-06
1.7414359e-05
1.6035416e-06
1.7471099e-05
-1.3138696e-06
1.7425589e-05
1.2929831e-06
1.7429539e-05
-9.9996994e-07
1.7425979e-05
1.0291509e-06
1.7386924e-05
-7.245544e-07
1.741327e-05
8.1262503e-07
1.7343356e-05
-4.8832886e-07
1.7385193e-05
6.4632921e-07
1.7298352e-05
-2.9095419e-07
1.7340073e-05
5.329285e-07
1.7249698e-05
-1.2917138e-07
1.7277864e-05
4.7049102e-07
1.7192302e-05
7.7054546e-09
1.7200299e-05
4.483454e-07
1.7118719e-05
1.4203755e-07
1.7107853e-05
4.4946389e-07
1.7023331e-05
3.028585e-07
1.6993622e-05
4.69946e-07
1.6906202e-05
5.0576455e-07
1.6843459e-05
5.5252303e-07
1.676591e-05
7.463275e-07
1.6662205e-05
7.8298667e-07
1.6610904e-05
1.0379285e-06
1.6529315e-05
1.1637122e-06
1.653864e-05
1.354045e-06
1.482551e-06
1.6578527e-05
1.8435224e-05
3.879532e-06
1.8741661e-05
-3.1329559e-06
1.8462725e-05
3.1380218e-06
1.8689776e-05
-2.6740693e-06
1.849525e-05
2.5724363e-06
1.8644314e-05
-2.1950227e-06
1.8524957e-05
2.0826753e-06
1.8601116e-05
-1.7403724e-06
1.8546483e-05
1.6581738e-06
1.8558098e-05
-1.3254845e-06
1.8556034e-05
1.2950476e-06
1.8514918e-05
-9.5885451e-07
1.8550649e-05
9.9342015e-07
1.8472238e-05
-6.4614337e-07
1.8528025e-05
7.5683839e-07
1.8430594e-05
-3.9089851e-07
1.8487062e-05
5.8986168e-07
1.8388723e-05
-1.9261533e-07
1.84289e-05
4.9275121e-07
1.8341929e-05
-4.219968e-08
1.8357053e-05
4.5536625e-07
1.8282347e-05
8.2411519e-08
1.8274816e-05
4.5587715e-07
1.8202711e-05
2.1414179e-07
1.8180087e-05
4.7208832e-07
1.8101594e-05
3.8135161e-07
1.8061944e-05
5.09596e-07
1.7982304e-05
5.8540401e-07
1.7910032e-05
6.2479581e-07
1.7842245e-05
8.1411387e-07
1.7745156e-05
8.8007549e-07
1.7699997e-05
1.0830878e-06
1.7647741e-05
1.2159683e-06
1.7657324e-05
1.3444622e-06
1.4318422e-06
1.7708032e-05
1.9619561e-05
4.224834e-06
1.990404e-05
-3.4174351e-06
1.9657135e-05
3.3849273e-06
1.9850969e-05
-2.8679036e-06
1.9696184e-05
2.7272214e-06
1.9803284e-05
-2.3021231e-06
1.9729255e-05
2.1567045e-06
1.9757687e-05
-1.7688046e-06
1.9750224e-05
1.665637e-06
1.9712892e-05
-1.2881524e-06
1.9754547e-05
1.2533929e-06
1.9669544e-05
-8.7385129e-07
1.97391e-05
9.2386393e-07
1.9629028e-05
-5.3607177e-07
1.970278e-05
6.8308693e-07
1.9591321e-05
-2.7943942e-07
1.9647666e-05
5.3351571e-07
1.9552516e-05
-9.746489e-08
1.9579099e-05
4.6616777e-07
1.9504578e-05
3.2322201e-08
1.9502666e-05
4.5727798e-07
1.9439044e-05
1.4603329e-07
1.9419402e-05
4.7551964e-07
1.9352121e-05
2.8142283e-07
1.9322468e-05
5.0174085e-07
1.9246806e-05
4.5701376e-07
1.9199592e-05
5.5681008e-07
1.9126283e-05
6.5871248e-07
1.9048589e-05
7.0249013e-07
1.8986978e-05
8.7572465e-07
1.8901935e-05
9.651185e-07
1.886138e-05
1.1236429e-06
1.8832468e-05
1.244881e-06
1.884551e-05
1.33142e-06
1.3790934e-06
1.8898259e-05
2.0883174e-05
4.5359062e-06
2.113771e-05
-3.6719715e-06
2.0931125e-05
3.5915124e-06
2.108333e-05
-3.0201084e-06
2.0975925e-05
2.8346262e-06
2.1033385e-05
-2.3595832e-06
2.1010334e-05
2.179755e-06
2.0985807e-05
-1.7442774e-06
2.1027398e-05
1.6240459e-06
2.0940506e-05
-1.2012602e-06
2.102214e-05
1.1717587e-06
2.0899232e-05
-7.5094318e-07
2.0992391e-05
8.307055e-07
2.0863301e-05
-4.069822e-07
2.094036e-05
6.0602832e-07
2.0830125e-05
-1.6920502e-07
2.0873197e-05
4.9044367e-07
2.079173e-05
-1.5997263e-08
2.0799337e-05
4.5856065e-07
2.0738606e-05
9.305302e-08
2.072243e-05
4.7345344e-07
2.06652e-05
2.0326415e-07
2.0638718e-05
5.0200078e-07
2.0572077e-05
3.4806394e-07
2.0538029e-05
5.3578884e-07
2.0464326e-05
5.3071686e-07
2.0410491e-05
6.1064504e-07
2.0342572e-05
7.2663182e-07
2.0263453e-05
7.8160908e-07
2.0205546e-05
9.3363199e-07
2.0135033e-05
1.0356313e-06
2.0099838e-05
1.1588382e-06
2.0087342e-05
1.257377e-06
2.0105846e-05
1.3129159e-06
1.3279127e-06
2.0157026e-05
2.2230838e-05
4.8043995e-06
2.2446759e-05
-3.8878932e-06
2.2288907e-05
3.7493643e-06
2.2390991e-05
-3.1221922e-06
2.2337932e-05
2.8876856e-06
2.2339022e-05
-2.3606737e-06
2.2370698e-05
2.1480793e-06
2.2290473e-05
-1.6640519e-06
2.237957e-05
1.5349485e-06
2.2246784e-05
-1.0684744e-06
2.2360018e-05
1.058525e-06
2.2210376e-05
-6.0130158e-07
2.2312884e-05
7.2819765e-07
2.218055e-05
-2.7464773e-07
2.2246244e-05
5.4033433e-07
2.2149912e-05
-7.2873338e-08
2.2172135e-05
4.6822069e-07
2.2107609e-05
4.8528183e-08
2.2097803e-05
4.6836665e-07
2.2046634e-05
1.4422258e-07
2.2021724e-05
4.9836312e-07
2.1965746e-05
2.5924215e-07
2.1936135e-05
5.3161232e-07
2.1868281e-05
4.1591796e-07
2.1830408e-05
5.7366125e-07
2.1759026e-05
6.0209905e-07
2.1699421e-05
6.7024965e-07
2.1635721e-05
7.9033236e-07
2.1558864e-05
8.5846601e-07
2.150371e-05
9.8878579e-07
2.1447613e-05
1.0917287e-06
2.1419261e-05
1.1871904e-06
2.1417645e-05
1.2589929e-06
2.1441599e-05
1.2889618e-06
1.2789747e-06
2.1490537e-05
2.366741e-05
5.0217694e-06
2.3835542e-05
-4.0560256e-06
2.3734615e-05
3.8502909e-06
2.3778452e-05
-3.1660291e-06
2.3785439e-05
2.880699e-06
2.3725162e-05
-2.3003965e-06
2.3812566e-05
2.0606754e-06
2.3677466e-05
-1.5289524e-06
2.3808238e-05
1.4041765e-06
2.363835e-05
-8.9858591e-07
2.3770133e-05
9.2674172e-07
2.3609368e-05
-4.4053708e-07
2.3705126e-05
6.3243981e-07
2.3584833e-05
-1.5435475e-07
2.3628552e-05
4.9661576e-07
2.3552311e-05
3.3678317e-09
2.3553282e-05
4.6724943e-07
2.3502508e-05
9.9302444e-08
2.348072e-05
4.9015425e-07
2.3433348e-05
1.9159439e-07
2.3404414e-05
5.27297e-07
2.3346508e-05
3.1714886e-07
2.3315305e-05
5.6281481e-07
2.3246185e-05
4.8503777e-07
2.3204102e-05
6.1574468e-07
2.3135553e-05
6.7064748e-07
2.3071557e-05
7.3424609e-07
2.3010785e-05
8.5110482e-07
2.293907e-05
9.3018066e-07
2.288706e-05
1.0407956e-06
2.2843687e-05
1.135102e-06
2.2823285e-05
1.2075918e-06
2.2829016e-05
1.2532623e-06
2.2857116e-05
1.2608616e-06
1.2320196e-06
2.2904071e-05
2.519778e-05
5.1795296e-06
2.5308731e-05
-4.1669763e-06
2.5272247e-05
3.8867747e-06
2.5250678e-05
-3.1444602e-06
2.532142e-05
2.8099572e-06
2.5197469e-05
-2.1764453e-06
2.5337938e-05
1.920206e-06
2.5153437e-05
-1.3444514e-06
2.5315174e-05
1.2424398e-06
2.5122305e-05
-7.0571681e-07
2.5255976e-05
7.9307076e-07
2.5101676e-05
-2.8623736e-07
2.5176428e-05
5.5768742e-07
2.5078493e-05
-5.6419561e-08
2.5096693e-05
4.7841558e-07
2.5039312e-05
6.0749431e-08
2.5023895e-05
4.8266606e-07
2.4980781e-05
1.4241658e-07
2.4952561e-05
5.1837433e-07
2.4904631e-05
2.3952457e-07
2.487437e-05
5.5755742e-07
2.4813311e-05
3.7820799e-07
2.4780589e-05
5.9553738e-07
2.4711003e-05
5.5462368e-07
2.4664249e-05
6.6249806e-07
2.4598686e-05
7.3621062e-07
2.4532199e-05
8.0073334e-07
2.4473342e-05
9.0996132e-07
2.4408532e-05
9.9499086e-07
2.4360839e-05
1.0884887e-06
2.4328067e-05
1.1678745e-06
2.43158e-05
1.2198585e-06
2.4326923e-05
1.2421393e-06
2.4357602e-05
1.2301822e-06
1.1868395e-06
2.4402782e-05
2.6826817e-05
5.269579e-06
2.6871393e-05
-4.2115515e-06
2.6905613e-05
3.8525547e-06
2.6813228e-05
-3.0520758e-06
2.6948582e-05
2.6746033e-06
2.6762451e-05
-1.9903144e-06
2.6948757e-05
1.7338998e-06
2.6725845e-05
-1.1215394e-06
2.6902979e-05
1.0653058e-06
2.6705547e-05
-5.082847e-07
2.6823474e-05
6.7514406e-07
2.6690968e-05
-1.5373091e-07
2.673642e-05
5.1223446e-07
2.6663232e-05
1.6768445e-08
2.6659244e-05
4.8240371e-07
2.6614762e-05
1.052314e-07
2.6589292e-05
5.0813685e-07
2.6548332e-05
1.8337641e-07
2.6517438e-05
5.4926801e-07
2.6466582e-05
2.9038094e-07
2.643605e-05
5.880891e-07
2.6371835e-05
4.4242262e-07
2.6336973e-05
6.304001e-07
2.6267929e-05
6.2366747e-07
2.6216411e-05
7.1401554e-07
2.6153535e-05
7.9908717e-07
2.6086653e-05
8.6761517e-07
2.6029366e-05
9.6724808e-07
2.5972111e-05
1.0522462e-06
2.5930079e-05
1.1305203e-06
2.5906057e-05
1.1918967e-06
2.5901259e-05
1.2246564e-06
2.5916664e-05
1.2267341e-06
2.5948701e-05
1.1981456e-06
1.143444e-06
2.5992096e-05
2.8559302e-05
5.2846122e-06
2.8529082e-05
-4.1813314e-06
2.8638288e-05
3.7433491e-06
2.8472402e-05
-2.8861898e-06
2.8669403e-05
2.477602e-06
2.8427552e-05
-1.7484633e-06
2.8647209e-05
1.5142425e-06
2.8402633e-05
-8.7696273e-07
2.8575915e-05
8.9202314e-07
2.8393712e-05
-3.2608165e-07
2.8481511e-05
5.8734521e-07
2.837919e-05
-5.1409349e-08
2.8395184e-05
4.9624038e-07
2.8342034e-05
6.9918419e-08
2.8322744e-05
5.0169303e-07
2.8284393e-05
1.4358274e-07
2.8253828e-05
5.3870214e-07
2.8211562e-05
2.2564244e-07
2.8179972e-05
5.8085781e-07
2.8125208e-05
3.4514524e-07
2.8094503e-05
6.1879391e-07
2.8027761e-05
5.0916396e-07
2.7989919e-05
6.6824271e-07
2.79223e-05
6.9128612e-07
2.7866437e-05
7.6987917e-07
2.780566e-05
8.5986332e-07
2.7740334e-05
9.3294133e-07
2.7684966e-05
1.0226165e-06
2.7635151e-05
1.1020607e-06
2.7599838e-05
1.1658336e-06
2.7583168e-05
1.2085663e-06
2.7584744e-05
1.2230814e-06
2.7603611e-05
1.2078663e-06
2.7636236e-05
1.1655207e-06
1.101911e-06
2.7677769e-05
3.0399856e-05
5.2186225e-06
3.0287964e-05
-4.0694386e-06
3.0473585e-05
3.557728e-06
3.023539e-05
-2.6479954e-06
3.0486244e-05
2.226748e-06
3.0201117e-05
-1.4633364e-06
3.0436251e-05
1.2791088e-06
3.0191467e-05
-6.3217863e-07
3.0340915e-05
7.425753e-07
3.0190222e-05
-1.7538838e-07
3.0241164e-05
5.3640249e-07
3.0168216e-05
2.1538404e-08
3.0161087e-05
5.0337012e-07
3.0120086e-05
1.1091931e-07
3.0092061e-05
5.2971836e-07
3.0054937e-05
1.8070642e-07
3.0022218e-05
5.7142119e-07
2.9976835e-05
2.710255e-07
2.994539e-05
6.1230256e-07
2.9886509e-05
4.0402639e-07
2.9855225e-05
6.5007739e-07
2.9786905e-05
5.7748385e-07
2.9745287e-05
7.0986146e-07
2.9679676e-05
7.5689691e-07
2.962038e-05
8.2917486e-07
2.9561103e-05
9.1914079e-07
2.949886e-05
9.9518378e-07
2.9446273e-05
1.0752039e-06
2.9403466e-05
1.1448673e-06
2.9375333e-05
1.1939664e-06
2.9365063e-05
1.2188369e-06
2.9371838e-05
1.2163057e-06
2.9393417e-05
1.1862881e-06
2.9426173e-05
1.1327647e-06
1.0622658e-06
2.9465818e-05
3.2352863e-05
5.0675049e-06
3.2154949e-05
-3.8715249e-06
3.2414549e-05
3.2981277e-06
3.2110398e-05
-2.3438436e-06
3.2401585e-05
1.9355602e-06
3.2092101e-05
-1.1538521e-06
3.2320462e-05
1.0507479e-06
3.209851e-05
-4.1022648e-07
3.2208245e-05
6.3284002e-07
3.2096561e-05
-6.370428e-08
3.2113308e-05
5.1965552e-07
3.2061976e-05
7.2870581e-08
3.2040153e-05
5.2519253e-07
3.2004265e-05
1.4680721e-07
3.1971868e-05
5.621163e-07
3.193321e-05
2.1936389e-07
3.1899813e-05
6.0481836e-07
3.1850443e-05
3.203958e-07
3.18194e-05
6.433456e-07
3.1756639e-05
4.6678694e-07
3.1724067e-05
6.8264889e-07
3.1655259e-05
6.462925e-07
3.1609309e-05
7.5581169e-07
3.1545893e-05
8.2031207e-07
3.1484475e-05
8.9059294e-07
3.1426338e-05
9.7727798e-07
3.1368148e-05
1.0533741e-06
3.1319427e-05
1.1239249e-06
3.1283217e-05
1.1810774e-06
3.1262104e-05
1.2150789e-06
3.1257552e-05
1.223389e-06
3.1268499e-05
1.2053593e-06
3.1292085e-05
1.1627016e-06
3.1324669e-05
1.1001806e-06
1.0244631e-06
3.1362472e-05
3.4422385e-05
4.8297626e-06
3.4137852e-05
-3.5869923e-06
3.4464012e-05
2.9719678e-06
3.4106665e-05
-1.9864966e-06
3.4418469e-05
1.6237567e-06
3.4109313e-05
-8.4469662e-07
3.4307228e-05
8.5283287e-07
3.4127157e-05
-2.3015529e-07
3.4190637e-05
5.6935989e-07
3.4114517e-05
1.2415697e-08
3.4106253e-05
5.2791991e-07
3.406689e-05
1.1223305e-07
3.4037113e-05
5.5496978e-07
3.4001949e-05
1.8197164e-07
3.3967512e-05
5.9655313e-07
3.3925903e-05
2.6097297e-07
3.3892531e-05
6.3818977e-07
3.3838759e-05
3.7416781e-07
3.3808042e-05
6.7406311e-07
3.3741981e-05
5.3284785e-07
3.3707215e-05
7.1741461e-07
3.363899e-05
7.1451784e-07
3.3588549e-05
8.0625286e-07
3.3527132e-05
8.8172885e-07
3.3465077e-05
9.5264789e-07
3.3408144e-05
1.0342107e-06
3.3354489e-05
1.1070297e-06
3.3310641e-05
1.167773e-06
3.3280769e-05
1.2109495e-06
3.3266098e-05
1.2297497e-06
3.3266659e-05
1.2228277e-06
3.3280957e-05
1.1910613e-06
3.3305949e-05
1.1377091e-06
3.3338132e-05
1.0679984e-06
9.8842096e-07
3.3374174e-05
3.6612088e-05
4.5073164e-06
3.6245526e-05
-3.220431e-06
3.6624724e-05
2.5927703e-06
3.6234274e-05
-1.5960473e-06
3.6541285e-05
1.3167457e-06
3.6260031e-05
-5.6344218e-07
3.6407821e-05
7.050424e-07
3.6278164e-05
-1.004977e-07
3.6300237e-05
5.4728642e-07
3.6248736e-05
6.3917484e-08
3.622562e-05
5.5103546e-07
3.6190839e-05
1.4701448e-07
3.6157068e-05
5.8874012e-07
3.6120359e-05
2.1868125e-07
3.6085e-05
6.3191168e-07
3.6039664e-05
3.0630899e-07
3.6006692e-05
6.7116216e-07
3.5948375e-05
4.3248477e-07
3.5917625e-05
7.0481267e-07
3.5849144e-05
6.0132899e-07
3.5811205e-05
7.5535329e-07
3.5744451e-05
7.8127245e-07
3.5689839e-05
8.6086428e-07
3.5629977e-05
9.4159142e-07
3.5568719e-05
1.013906e-06
3.5513473e-05
1.0894565e-06
3.546456e-05
1.1559422e-06
3.542631e-05
1.2060229e-06
3.5402593e-05
1.234667e-06
3.5393654e-05
1.2386882e-06
3.5398693e-05
1.2177894e-06
3.5415694e-05
1.1740606e-06
3.5441618e-05
1.111785e-06
3.5473222e-05
1.0363944e-06
9.5404986e-07
3.5507593e-05
3.8925174e-05
4.1064035e-06
3.8487938e-05
-2.7831958e-06
3.8899648e-05
2.1810609e-06
3.8503511e-05
-1.1999102e-06
3.8777045e-05
1.0432113e-06
3.8548181e-05
-3.3457764e-07
3.8636898e-05
6.1632461e-07
3.8552486e-05
-1.608556e-08
3.8545578e-05
5.5419422e-07
3.8506816e-05
1.0267955e-07
3.8476082e-05
5.8176964e-07
3.8441771e-05
1.8132615e-07
3.8405933e-05
6.245774e-07
3.8366547e-05
2.5806723e-07
3.8330848e-05
6.6761145e-07
3.8281259e-05
3.5589802e-07
3.8248882e-05
7.0353882e-07
3.8186144e-05
4.9522227e-07
3.8154717e-05
7.3623971e-07
3.8084925e-05
6.71121e-07
3.8042933e-05
7.9734523e-07
3.7978197e-05
8.460085e-07
3.7920211e-05
9.1885074e-07
3.7861442e-05
1.0003602e-06
3.7802165e-05
1.0731825e-06
3.7749383e-05
1.1422394e-06
3.770535e-05
1.1999743e-06
3.7673111e-05
1.2382624e-06
3.7655268e-05
1.2525103e-06
3.7651429e-05
1.2425269e-06
3.7660287e-05
1.2089308e-06
3.7679446e-05
1.1549019e-06
3.7705942e-05
1.0852887e-06
3.7736844e-05
1.0054925e-06
9.2126193e-07
3.7769632e-05
4.1364357e-05
3.6385278e-06
4.0876079e-05
-2.2949174e-06
4.1292537e-05
1.7646028e-06
4.0923483e-05
-8.3085583e-07
4.113701e-05
8.2968442e-07
4.0973587e-05
-1.7115513e-07
4.100883e-05
5.8108149e-07
4.0954918e-05
3.7826675e-08
4.0931816e-05
5.7729642e-07
4.0897597e-05
1.3689824e-07
4.0863085e-05
6.1628167e-07
4.0827302e-05
2.1710883e-07
4.0790266e-05
6.6161332e-07
4.0747542e-05
3.0079205e-07
4.0711912e-05
7.032411e-07
4.0657673e-05
4.1013666e-07
4.0625903e-05
7.3530971e-07
4.055919e-05
5.6193512e-07
4.0526172e-05
7.6925763e-07
4.0456275e-05
7.4101736e-07
4.0409652e-05
8.4396837e-07
4.0347029e-05
9.0863195e-07
4.0286873e-05
9.7900618e-07
4.022893e-05
1.0583033e-06
4.0172469e-05
1.1296435e-06
4.0123052e-05
1.1916567e-06
4.0084077e-05
1.2389499e-06
4.0057959e-05
1.26438e-06
4.0045606e-05
1.2648631e-06
4.0046317e-05
1.2418156e-06
4.0058384e-05
1.1968647e-06
4.0079226e-05
1.1340597e-06
4.0106016e-05
1.0584987e-06
4.0136136e-05
9.7537238e-07
8.8997078e-07
4.0167427e-05
4.3931928e-05
3.1213776e-06
4.3421518e-05
-1.7845075e-06
4.3809009e-05
1.3771118e-06
4.3499769e-05
-5.2161625e-07
4.3637368e-05
6.9208534e-07
4.3534929e-05
-6.8715885e-08
4.3533042e-05
5.8296823e-07
4.3494215e-05
7.6653987e-08
4.3463388e-05
6.0812305e-07
4.3429586e-05
1.7070077e-07
4.3393001e-05
6.5286702e-07
4.3354846e-05
2.5526345e-07
4.3317086e-05
6.9937348e-07
4.3270497e-05
3.4738131e-07
4.3235297e-05
7.3844111e-07
4.3176172e-05
4.6926155e-07
4.3144766e-05
7.6671576e-07
4.3074876e-05
6.3182514e-07
4.3039171e-05
8.0496178e-07
4.2970296e-05
8.0989231e-07
4.2918925e-05
8.9534014e-07
4.285808e-05
9.6947674e-07
4.2797157e-05
1.0399287e-06
4.2740143e-05
1.1153179e-06
4.2687019e-05
1.1827672e-06
4.2641823e-05
1.2368523e-06
4.2608159e-05
1.2726137e-06
4.2587993e-05
1.284546e-06
4.2580714e-05
1.272143e-06
4.2585463e-05
1.2370657e-06
4.2600202e-05
1.1821263e-06
4.2622321e-05
1.1119406e-06
4.2649182e-05
1.0316377e-06
4.2678471e-05
9.4608346e-07
8.6009281e-07
4.2708349e-05
4.6630002e-05
2.5795198e-06
4.6135268e-05
-1.2897736e-06
4.6458351e-05
1.0540288e-06
4.6231925e-05
-2.9519027e-07
4.6295944e-05
6.2806593e-07
4.6235557e-05
-8.3282768e-09
4.6213945e-05
6.0458049e-07
4.6180263e-05
1.1033515e-07
4.6145857e-05
6.4252896e-07
4.6110763e-05
2.0579529e-07
4.607285e-05
6.9077989e-07
4.603182e-05
2.9629393e-07
4.5993748e-05
7.37445e-07
4.5942818e-05
3.9831156e-07
4.5908339e-05
7.7292034e-07
4.5844341e-05
5.3325934e-07
4.5812751e-05
7.9830579e-07
4.5740805e-05
7.0377127e-07
4.5701295e-05
8.4447177e-07
4.5634297e-05
8.7689027e-07
4.5578578e-05
9.5105894e-07
4.5518948e-05
1.0291065e-06
4.5458589e-05
1.1002877e-06
4.5403013e-05
1.1708944e-06
4.5353581e-05
1.232199e-06
4.5313265e-05
1.2771688e-06
4.528527e-05
1.3006081e-06
4.527059e-05
1.2992259e-06
4.5268015e-05
1.2747184e-06
4.5276314e-05
1.2287668e-06
4.529326e-05
1.1651798e-06
4.5316315e-05
1.0888855e-06
4.5343068e-05
1.0048853e-06
4.5371493e-05
9.1765816e-07
8.3155121e-07
4.5400035e-05
4.9461181e-05
2.0444672e-06
4.9025427e-05
-8.5401938e-07
4.9255681e-05
8.2377449e-07
4.9114526e-05
-1.5403503e-07
4.9124843e-05
6.1774853e-07
4.9085111e-05
3.1403551e-08
4.9055163e-05
6.3452857e-07
4.90222e-05
1.4329818e-07
4.898598e-05
6.7874856e-07
4.8948964e-05
2.4281159e-07
4.8910186e-05
7.2955767e-07
4.8865894e-05
3.405865e-07
4.8827964e-05
7.753745e-07
4.8772305e-05
4.539711e-07
4.8738692e-05
8.0653365e-07
4.8670186e-05
6.0176529e-07
4.8637538e-05
8.309532e-07
4.8564866e-05
7.7644329e-07
4.8520632e-05
8.8870604e-07
4.8455902e-05
9.4162046e-07
4.8396734e-05
1.0102261e-06
4.8337804e-05
1.0880374e-06
4.8279056e-05
1.1590349e-06
4.8225723e-05
1.2242271e-06
4.818035e-05
1.2775725e-06
4.8145338e-05
1.3121809e-06
4.8123242e-05
1.3227034e-06
4.8113581e-05
1.3088876e-06
4.8115302e-05
1.2729967e-06
4.8126694e-05
1.2173749e-06
4.8145446e-05
1.1464279e-06
4.8169154e-05
1.0651781e-06
4.8195652e-05
9.7838665e-07
4.8223191e-05
8.9011926e-07
8.0427921e-07
4.8250463e-05
5.2430054e-05
1.553282e-06
5.2093299e-05
-5.1726401e-07
5.2221624e-05
6.9544941e-07
5.2145454e-05
-7.7865076e-08
5.2127877e-05
6.3532585e-07
5.2095302e-05
6.3978058e-08
5.206243e-05
6.6740042e-07
5.2028798e-05
1.7693069e-07
5.199161e-05
7.1593621e-07
5.1952449e-05
2.8197265e-07
5.1913267e-05
7.6873981e-07
5.1865354e-05
3.8849944e-07
5.1828037e-05
8.1269113e-07
5.176742e-05
5.1458835e-07
5.1734571e-05
8.3938302e-07
5.1662328e-05
6.74008e-07
5.1627478e-05
8.6580332e-07
5.1555419e-05
8.4850231e-07
5.1505977e-05
9.3814816e-07
5.1443302e-05
1.0042948e-06
5.1382019e-05
1.0715095e-06
5.1323504e-05
1.1465529e-06
5.1267077e-05
1.2154612e-06
5.1216882e-05
1.2744227e-06
5.1176019e-05
1.3184356e-06
5.1146658e-05
1.3415417e-06
5.1130274e-05
1.339087e-06
5.1125353e-05
1.3138085e-06
5.1130928e-05
1.2674217e-06
5.1144976e-05
1.2033271e-06
5.1165176e-05
1.126228e-06
5.1189295e-05
1.0410594e-06
5.1215419e-05
9.5226249e-07
5.1242053e-05
8.6348508e-07
7.7822118e-07
5.1268111e-05
5.5546252e-05
1.1441547e-06
5.5330314e-05
-3.0132605e-07
5.5374929e-05
6.5083428e-07
5.5333985e-05
-3.692028e-08
5.5307684e-05
6.6162609e-07
5.5277451e-05
9.4211312e-08
5.5243932e-05
7.0091987e-07
5.5209444e-05
2.1141815e-07
5.5171884e-05
7.5349664e-07
5.5130455e-05
3.2340198e-07
5.5091398e-05
8.0779626e-07
5.5039512e-05
4.4038596e-07
5.500323e-05
8.4897289e-07
5.4937649e-05
5.8016908e-07
5.4905134e-05
8.7189841e-07
5.4830291e-05
7.4885083e-07
5.4791964e-05
9.0413054e-07
5.4721617e-05
9.188485e-07
5.4667031e-05
9.9273458e-07
5.4605716e-05
1.0656099e-06
5.4543757e-05
1.1334682e-06
5.4485761e-05
1.204549e-06
5.4432121e-05
1.2691017e-06
5.4385858e-05
1.3206857e-06
5.4349981e-05
1.3543119e-06
5.4326593e-05
1.3649298e-06
5.4315423e-05
1.3502571e-06
5.4315026e-05
1.3142057e-06
5.4324039e-05
1.2584091e-06
5.4340327e-05
1.1870383e-06
5.4361646e-05
1.1049099e-06
5.4385958e-05
1.0167473e-06
5.4411598e-05
9.2662248e-07
5.4437307e-05
8.3777536e-07
7.5333137e-07
5.4462197e-05
5.8829648e-05
8.468292e-07
5.8724884e-05
-1.9656193e-07
5.8725133e-05
6.5058561e-07
5.8698767e-05
-1.0554994e-08
5.8672073e-05
6.8832052e-07
5.8643291e-05
1.2299284e-07
5.8610246e-05
7.3396494e-07
5.8575022e-05
2.4664198e-07
5.8537634e-05
7.9088553e-07
5.8493754e-05
3.6728155e-07
5.8455386e-05
8.4616379e-07
5.8399176e-05
4.9659631e-07
5.8364201e-05
8.8394802e-07
5.8293932e-05
6.5043785e-07
5.8260946e-05
9.0488485e-07
5.8184876e-05
8.2492018e-07
5.814187e-05
9.4713737e-07
5.8073863e-05
9.8685489e-07
5.8014705e-05
1.0518933e-06
5.7953876e-05
1.1264385e-06
5.7892428e-05
1.1949157e-06
5.7835459e-05
1.2615181e-06
5.7784945e-05
1.3196162e-06
5.7743225e-05
1.3624061e-06
5.7712772e-05
1.3847645e-06
5.7695426e-05
1.3822761e-06
5.7689065e-05
1.3566179e-06
5.7692845e-05
1.3104257e-06
5.7704901e-05
1.2463525e-06
5.772305e-05
1.1688893e-06
5.774518e-05
1.08278e-06
5.7769478e-05
9.9245003e-07
5.7794523e-05
9.0157741e-07
5.7819281e-05
8.1301665e-07
7.2956936e-07
5.7843043e-05
6.2316432e-05
6.6698356e-07
6.2286207e-05
-1.6633767e-07
6.2277764e-05
6.5902897e-07
6.2258721e-05
8.4884769e-09
6.2234199e-05
7.128425e-07
6.2206765e-05
1.5042632e-07
6.2174729e-05
7.6600149e-07
6.2138723e-05
2.8264779e-07
6.2101945e-05
8.2766354e-07
6.2055253e-05
4.1397329e-07
6.2018057e-05
8.833594e-07
6.1957176e-05
5.5747737e-07
6.1923482e-05
9.1764232e-07
6.1849117e-05
7.2480256e-07
6.1814467e-05
9.3953519e-07
6.1738571e-05
9.008164e-07
6.1689998e-05
9.9570993e-07
6.1624219e-05
1.052634e-06
6.1561515e-05
1.1145972e-06
6.1500474e-05
1.1874796e-06
6.14402e-05
1.2551893e-06
6.1385023e-05
1.3166955e-06
6.1337929e-05
1.36671e-06
6.130109e-05
1.3992454e-06
6.1276612e-05
1.409242e-06
6.1264669e-05
1.3942194e-06
6.1263008e-05
1.3582791e-06
6.1270574e-05
1.3028597e-06
6.1285272e-05
1.2316544e-06
6.1304922e-05
1.1492397e-06
6.1327578e-05
1.0601236e-06
6.1351664e-05
9.6836376e-07
6.1376007e-05