/*--------------------------------*- C++ -*----------------------------------*\
  =========                 |
  \\      /  F ield         | OpenFOAM: The Open Source CFD Toolbox
   \\    /   O peration     | Website:  https://openfoam.org
    \\  /    A nd           | Version:  11
     \\/     M anipulation  |
\*---------------------------------------------------------------------------*/
FoamFile
{
    format      ascii;
    class       volScalarField;
    location    "1";
    object      pMean;
}
// * * * * * * * * * * * * * * * * * * * * * * * * * * * * * * * * * * * * * //

dimensions      [0 2 -2 0 0 0 0];

internalField   nonuniform List<scalar> 
66675
(
85001.071
85001.078
85001.085
85001.094
85001.105
85001.118
85001.133
85001.149
85001.167
85001.187
85001.207
85001.232
85001.255
85001.283
85001.309
85001.342
85001.372
85001.41
85001.446
85001.491
85001.535
85001.588
85001.645
85001.707
85001.783
85001.856
85001.962
85002.05
85002.204
85002.316
85002.562
85002.73
85003.187
85003.542
85004.585
85001.071
85001.078
85001.085
85001.094
85001.105
85001.118
85001.133
85001.149
85001.167
85001.187
85001.207
85001.232
85001.255
85001.283
85001.309
85001.342
85001.372
85001.41
85001.446
85001.491
85001.535
85001.588
85001.645
85001.707
85001.783
85001.856
85001.962
85002.049
85002.203
85002.315
85002.557
85002.727
85003.155
85003.492
85004.232
85001.071
85001.078
85001.085
85001.094
85001.105
85001.118
85001.133
85001.149
85001.167
85001.187
85001.207
85001.232
85001.255
85001.283
85001.309
85001.342
85001.372
85001.41
85001.446
85001.49
85001.535
85001.587
85001.645
85001.706
85001.783
85001.855
85001.961
85002.047
85002.201
85002.312
85002.546
85002.72
85003.095
85003.405
85003.811
85001.071
85001.078
85001.085
85001.094
85001.105
85001.118
85001.133
85001.149
85001.167
85001.187
85001.207
85001.232
85001.255
85001.283
85001.309
85001.342
85001.372
85001.41
85001.446
85001.49
85001.535
85001.587
85001.645
85001.705
85001.783
85001.854
85001.96
85002.045
85002.197
85002.309
85002.529
85002.707
85003.016
85003.283
85003.478
85001.071
85001.078
85001.085
85001.094
85001.105
85001.118
85001.133
85001.149
85001.167
85001.187
85001.207
85001.231
85001.255
85001.283
85001.309
85001.342
85001.372
85001.41
85001.446
85001.49
85001.535
85001.586
85001.645
85001.705
85001.782
85001.852
85001.959
85002.043
85002.19
85002.304
85002.505
85002.684
85002.927
85003.148
85003.231
85001.071
85001.078
85001.085
85001.094
85001.105
85001.118
85001.133
85001.149
85001.167
85001.187
85001.207
85001.231
85001.255
85001.283
85001.309
85001.341
85001.372
85001.409
85001.446
85001.49
85001.535
85001.586
85001.645
85001.704
85001.782
85001.85
85001.956
85002.04
85002.181
85002.297
85002.477
85002.649
85002.837
85003.01
85003.036
85001.071
85001.078
85001.085
85001.094
85001.105
85001.118
85001.133
85001.149
85001.167
85001.187
85001.207
85001.231
85001.255
85001.283
85001.309
85001.341
85001.372
85001.409
85001.446
85001.489
85001.535
85001.585
85001.644
85001.702
85001.781
85001.848
85001.952
85002.036
85002.169
85002.287
85002.444
85002.605
85002.748
85002.874
85002.871
85001.071
85001.078
85001.085
85001.094
85001.105
85001.118
85001.133
85001.149
85001.167
85001.187
85001.207
85001.231
85001.255
85001.283
85001.309
85001.341
85001.372
85001.409
85001.446
85001.489
85001.535
85001.584
85001.644
85001.701
85001.779
85001.846
85001.947
85002.032
85002.156
85002.272
85002.409
85002.553
85002.662
85002.745
85002.725
85001.071
85001.078
85001.085
85001.094
85001.105
85001.118
85001.133
85001.149
85001.167
85001.187
85001.207
85001.231
85001.255
85001.283
85001.309
85001.341
85001.372
85001.409
85001.446
85001.488
85001.535
85001.583
85001.643
85001.699
85001.777
85001.843
85001.941
85002.026
85002.14
85002.253
85002.372
85002.494
85002.577
85002.626
85002.595
85001.072
85001.078
85001.085
85001.094
85001.105
85001.118
85001.133
85001.149
85001.167
85001.187
85001.207
85001.231
85001.255
85001.283
85001.309
85001.341
85001.372
85001.409
85001.446
85001.488
85001.534
85001.582
85001.643
85001.697
85001.774
85001.84
85001.933
85002.018
85002.122
85002.23
85002.332
85002.433
85002.495
85002.517
85002.479
85001.072
85001.078
85001.085
85001.094
85001.105
85001.118
85001.133
85001.149
85001.167
85001.187
85001.207
85001.231
85001.255
85001.283
85001.309
85001.341
85001.372
85001.408
85001.446
85001.487
85001.534
85001.581
85001.641
85001.695
85001.771
85001.836
85001.925
85002.009
85002.103
85002.202
85002.29
85002.37
85002.414
85002.418
85002.376
85001.072
85001.078
85001.085
85001.094
85001.105
85001.118
85001.133
85001.149
85001.167
85001.187
85001.207
85001.231
85001.255
85001.283
85001.309
85001.341
85001.372
85001.408
85001.446
85001.486
85001.534
85001.58
85001.64
85001.693
85001.766
85001.832
85001.915
85001.997
85002.083
85002.171
85002.246
85002.307
85002.336
85002.329
85002.284
85001.072
85001.078
85001.085
85001.094
85001.105
85001.118
85001.133
85001.149
85001.167
85001.187
85001.207
85001.231
85001.255
85001.282
85001.309
85001.341
85001.372
85001.407
85001.445
85001.485
85001.533
85001.578
85001.638
85001.69
85001.761
85001.826
85001.904
85001.982
85002.06
85002.138
85002.201
85002.245
85002.262
85002.247
85002.202
85001.072
85001.078
85001.085
85001.094
85001.105
85001.118
85001.133
85001.149
85001.167
85001.187
85001.207
85001.231
85001.255
85001.282
85001.309
85001.34
85001.372
85001.407
85001.445
85001.484
85001.532
85001.576
85001.635
85001.687
85001.755
85001.819
85001.892
85001.966
85002.036
85002.102
85002.154
85002.185
85002.192
85002.172
85002.128
85001.072
85001.078
85001.085
85001.094
85001.105
85001.118
85001.133
85001.149
85001.167
85001.187
85001.207
85001.231
85001.254
85001.282
85001.309
85001.34
85001.372
85001.406
85001.445
85001.483
85001.531
85001.575
85001.632
85001.684
85001.749
85001.811
85001.879
85001.947
85002.01
85002.065
85002.106
85002.127
85002.126
85002.103
85002.061
85001.073
85001.078
85001.085
85001.094
85001.105
85001.118
85001.132
85001.149
85001.166
85001.187
85001.207
85001.231
85001.254
85001.282
85001.309
85001.34
85001.371
85001.405
85001.444
85001.482
85001.53
85001.573
85001.629
85001.68
85001.741
85001.802
85001.864
85001.926
85001.982
85002.027
85002.058
85002.071
85002.064
85002.039
85002
85001.073
85001.078
85001.085
85001.094
85001.105
85001.118
85001.132
85001.149
85001.166
85001.187
85001.207
85001.231
85001.254
85001.282
85001.309
85001.339
85001.371
85001.405
85001.444
85001.481
85001.528
85001.57
85001.625
85001.675
85001.733
85001.791
85001.849
85001.904
85001.952
85001.989
85002.012
85002.017
85002.007
85001.981
85001.945
85001.073
85001.078
85001.085
85001.094
85001.105
85001.118
85001.132
85001.149
85001.166
85001.187
85001.207
85001.231
85001.254
85001.281
85001.309
85001.339
85001.371
85001.404
85001.443
85001.479
85001.526
85001.568
85001.62
85001.67
85001.724
85001.779
85001.831
85001.88
85001.921
85001.95
85001.966
85001.966
85001.953
85001.927
85001.894
85001.073
85001.078
85001.085
85001.094
85001.105
85001.118
85001.132
85001.149
85001.166
85001.187
85001.207
85001.231
85001.254
85001.281
85001.309
85001.338
85001.371
85001.403
85001.442
85001.478
85001.523
85001.565
85001.615
85001.663
85001.714
85001.765
85001.813
85001.855
85001.889
85001.911
85001.921
85001.917
85001.902
85001.878
85001.847
85001.074
85001.078
85001.085
85001.094
85001.105
85001.118
85001.132
85001.149
85001.166
85001.187
85001.207
85001.231
85001.254
85001.281
85001.308
85001.337
85001.37
85001.402
85001.441
85001.476
85001.52
85001.562
85001.609
85001.656
85001.703
85001.75
85001.793
85001.829
85001.856
85001.873
85001.878
85001.871
85001.855
85001.832
85001.803
85001.074
85001.078
85001.085
85001.094
85001.105
85001.118
85001.132
85001.149
85001.166
85001.187
85001.207
85001.23
85001.254
85001.28
85001.308
85001.337
85001.37
85001.401
85001.439
85001.474
85001.517
85001.558
85001.602
85001.647
85001.692
85001.734
85001.771
85001.802
85001.824
85001.835
85001.836
85001.827
85001.811
85001.789
85001.763
85001.074
85001.078
85001.085
85001.094
85001.105
85001.118
85001.132
85001.149
85001.166
85001.186
85001.207
85001.23
85001.254
85001.28
85001.308
85001.336
85001.369
85001.4
85001.437
85001.472
85001.513
85001.553
85001.596
85001.638
85001.679
85001.717
85001.749
85001.774
85001.791
85001.798
85001.796
85001.786
85001.77
85001.749
85001.725
85001.074
85001.078
85001.085
85001.094
85001.105
85001.118
85001.132
85001.149
85001.166
85001.186
85001.207
85001.23
85001.254
85001.28
85001.308
85001.335
85001.368
85001.398
85001.435
85001.47
85001.509
85001.548
85001.588
85001.627
85001.665
85001.698
85001.726
85001.746
85001.758
85001.762
85001.758
85001.747
85001.731
85001.711
85001.69
85001.075
85001.078
85001.085
85001.094
85001.105
85001.118
85001.132
85001.149
85001.166
85001.186
85001.207
85001.23
85001.254
85001.279
85001.307
85001.335
85001.367
85001.397
85001.433
85001.467
85001.505
85001.542
85001.58
85001.616
85001.65
85001.679
85001.702
85001.718
85001.726
85001.727
85001.721
85001.709
85001.694
85001.676
85001.657
85001.075
85001.078
85001.085
85001.094
85001.105
85001.118
85001.132
85001.149
85001.166
85001.186
85001.207
85001.229
85001.254
85001.279
85001.307
85001.334
85001.366
85001.396
85001.43
85001.464
85001.5
85001.536
85001.57
85001.604
85001.634
85001.659
85001.677
85001.689
85001.694
85001.693
85001.686
85001.674
85001.66
85001.643
85001.626
85001.075
85001.078
85001.085
85001.094
85001.105
85001.118
85001.132
85001.149
85001.166
85001.186
85001.207
85001.229
85001.254
85001.278
85001.306
85001.333
85001.365
85001.394
85001.428
85001.46
85001.494
85001.528
85001.561
85001.591
85001.617
85001.638
85001.653
85001.661
85001.663
85001.66
85001.652
85001.641
85001.627
85001.612
85001.597
85001.075
85001.078
85001.085
85001.094
85001.105
85001.118
85001.132
85001.148
85001.166
85001.185
85001.207
85001.229
85001.253
85001.277
85001.306
85001.332
85001.363
85001.392
85001.424
85001.456
85001.489
85001.52
85001.55
85001.576
85001.599
85001.616
85001.628
85001.633
85001.633
85001.628
85001.62
85001.609
85001.597
85001.583
85001.569
85001.075
85001.078
85001.085
85001.094
85001.105
85001.118
85001.132
85001.148
85001.166
85001.185
85001.206
85001.228
85001.253
85001.277
85001.305
85001.331
85001.361
85001.39
85001.421
85001.452
85001.482
85001.511
85001.538
85001.562
85001.581
85001.594
85001.602
85001.605
85001.604
85001.598
85001.59
85001.579
85001.568
85001.555
85001.543
85001.076
85001.078
85001.085
85001.094
85001.105
85001.118
85001.132
85001.148
85001.166
85001.185
85001.206
85001.228
85001.252
85001.276
85001.304
85001.33
85001.359
85001.387
85001.417
85001.447
85001.475
85001.502
85001.526
85001.546
85001.562
85001.572
85001.577
85001.578
85001.575
85001.569
85001.56
85001.55
85001.54
85001.529
85001.518
85001.076
85001.078
85001.085
85001.094
85001.105
85001.118
85001.132
85001.148
85001.166
85001.185
85001.206
85001.227
85001.252
85001.275
85001.302
85001.328
85001.357
85001.385
85001.413
85001.441
85001.467
85001.492
85001.513
85001.53
85001.542
85001.55
85001.553
85001.551
85001.547
85001.54
85001.532
85001.523
85001.513
85001.504
85001.495
85001.076
85001.078
85001.085
85001.094
85001.105
85001.118
85001.132
85001.148
85001.166
85001.184
85001.206
85001.227
85001.251
85001.275
85001.301
85001.327
85001.354
85001.381
85001.408
85001.435
85001.459
85001.481
85001.499
85001.513
85001.523
85001.527
85001.528
85001.525
85001.52
85001.513
85001.505
85001.496
85001.488
85001.48
85001.472
85001.076
85001.078
85001.085
85001.094
85001.105
85001.117
85001.132
85001.148
85001.166
85001.184
85001.205
85001.226
85001.251
85001.274
85001.3
85001.325
85001.352
85001.378
85001.403
85001.428
85001.45
85001.469
85001.485
85001.496
85001.503
85001.505
85001.504
85001.5
85001.493
85001.486
85001.478
85001.471
85001.464
85001.457
85001.451
85001.076
85001.078
85001.085
85001.094
85001.105
85001.117
85001.132
85001.147
85001.165
85001.184
85001.205
85001.226
85001.25
85001.273
85001.298
85001.323
85001.349
85001.374
85001.398
85001.421
85001.441
85001.457
85001.47
85001.479
85001.483
85001.483
85001.48
85001.475
85001.468
85001.46
85001.453
85001.446
85001.44
85001.435
85001.431
85001.076
85001.078
85001.085
85001.094
85001.105
85001.117
85001.132
85001.147
85001.165
85001.183
85001.205
85001.225
85001.249
85001.272
85001.296
85001.321
85001.345
85001.369
85001.392
85001.413
85001.431
85001.445
85001.455
85001.461
85001.463
85001.461
85001.457
85001.45
85001.443
85001.435
85001.428
85001.422
85001.417
85001.414
85001.411
85001.076
85001.078
85001.085
85001.093
85001.105
85001.117
85001.132
85001.147
85001.165
85001.183
85001.204
85001.224
85001.247
85001.27
85001.294
85001.318
85001.342
85001.365
85001.386
85001.404
85001.42
85001.432
85001.44
85001.443
85001.443
85001.44
85001.434
85001.427
85001.418
85001.411
85001.404
85001.398
85001.395
85001.393
85001.393
85001.076
85001.078
85001.084
85001.093
85001.105
85001.117
85001.132
85001.147
85001.165
85001.182
85001.203
85001.224
85001.246
85001.269
85001.292
85001.315
85001.338
85001.359
85001.379
85001.395
85001.409
85001.419
85001.424
85001.426
85001.424
85001.419
85001.412
85001.404
85001.395
85001.387
85001.381
85001.376
85001.374
85001.374
85001.375
85001.075
85001.078
85001.084
85001.093
85001.105
85001.117
85001.131
85001.146
85001.164
85001.182
85001.203
85001.223
85001.245
85001.267
85001.29
85001.312
85001.334
85001.353
85001.371
85001.386
85001.397
85001.405
85001.408
85001.408
85001.405
85001.398
85001.39
85001.381
85001.373
85001.365
85001.359
85001.355
85001.354
85001.355
85001.358
85001.075
85001.078
85001.084
85001.093
85001.105
85001.116
85001.131
85001.146
85001.164
85001.181
85001.202
85001.222
85001.243
85001.265
85001.287
85001.308
85001.329
85001.347
85001.363
85001.376
85001.386
85001.391
85001.393
85001.391
85001.386
85001.378
85001.369
85001.36
85001.351
85001.343
85001.338
85001.335
85001.335
85001.337
85001.342
85001.075
85001.078
85001.084
85001.093
85001.104
85001.116
85001.131
85001.146
85001.163
85001.181
85001.201
85001.221
85001.242
85001.263
85001.284
85001.304
85001.324
85001.341
85001.355
85001.366
85001.373
85001.377
85001.377
85001.373
85001.367
85001.359
85001.349
85001.34
85001.33
85001.323
85001.318
85001.316
85001.316
85001.32
85001.326
85001.075
85001.077
85001.084
85001.093
85001.104
85001.116
85001.131
85001.145
85001.163
85001.18
85001.2
85001.219
85001.24
85001.261
85001.281
85001.3
85001.318
85001.333
85001.346
85001.356
85001.361
85001.363
85001.361
85001.356
85001.349
85001.34
85001.33
85001.32
85001.311
85001.304
85001.299
85001.298
85001.299
85001.304
85001.311
85001.075
85001.077
85001.084
85001.093
85001.104
85001.116
85001.13
85001.145
85001.162
85001.179
85001.198
85001.218
85001.238
85001.258
85001.277
85001.295
85001.312
85001.326
85001.337
85001.345
85001.349
85001.349
85001.346
85001.34
85001.331
85001.322
85001.311
85001.301
85001.292
85001.286
85001.281
85001.28
85001.283
85001.288
85001.297
85001.075
85001.077
85001.084
85001.093
85001.104
85001.116
85001.13
85001.144
85001.161
85001.179
85001.197
85001.216
85001.236
85001.255
85001.273
85001.29
85001.305
85001.318
85001.328
85001.334
85001.336
85001.335
85001.331
85001.324
85001.315
85001.304
85001.294
85001.284
85001.275
85001.268
85001.265
85001.264
85001.267
85001.274
85001.283
85001.075
85001.077
85001.084
85001.092
85001.104
85001.115
85001.13
85001.144
85001.16
85001.178
85001.196
85001.214
85001.233
85001.251
85001.269
85001.285
85001.299
85001.31
85001.318
85001.323
85001.324
85001.321
85001.316
85001.308
85001.299
85001.288
85001.277
85001.267
85001.259
85001.252
85001.249
85001.249
85001.253
85001.26
85001.27
85001.075
85001.077
85001.084
85001.092
85001.103
85001.115
85001.129
85001.143
85001.16
85001.176
85001.194
85001.212
85001.23
85001.247
85001.264
85001.279
85001.291
85001.301
85001.308
85001.311
85001.311
85001.308
85001.302
85001.293
85001.283
85001.273
85001.262
85001.252
85001.243
85001.237
85001.234
85001.235
85001.239
85001.247
85001.258
85001.075
85001.077
85001.084
85001.092
85001.103
85001.115
85001.128
85001.143
85001.159
85001.175
85001.192
85001.21
85001.227
85001.243
85001.259
85001.272
85001.284
85001.293
85001.298
85001.3
85001.299
85001.295
85001.288
85001.279
85001.269
85001.258
85001.247
85001.237
85001.229
85001.223
85001.22
85001.221
85001.226
85001.235
85001.246
85001.075
85001.077
85001.084
85001.092
85001.103
85001.114
85001.128
85001.142
85001.157
85001.174
85001.19
85001.207
85001.223
85001.239
85001.253
85001.266
85001.276
85001.284
85001.288
85001.289
85001.287
85001.283
85001.275
85001.266
85001.256
85001.245
85001.234
85001.224
85001.216
85001.21
85001.208
85001.209
85001.214
85001.223
85001.236
85001.075
85001.076
85001.083
85001.092
85001.102
85001.114
85001.127
85001.141
85001.156
85001.172
85001.188
85001.204
85001.219
85001.234
85001.247
85001.259
85001.268
85001.274
85001.278
85001.279
85001.276
85001.271
85001.263
85001.254
85001.244
85001.233
85001.222
85001.213
85001.205
85001.199
85001.197
85001.198
85001.204
85001.213
85001.225
85001.075
85001.076
85001.083
85001.091
85001.102
85001.113
85001.126
85001.14
85001.155
85001.17
85001.185
85001.2
85001.215
85001.228
85001.241
85001.251
85001.259
85001.265
85001.268
85001.268
85001.266
85001.26
85001.253
85001.244
85001.233
85001.223
85001.212
85001.203
85001.195
85001.189
85001.187
85001.189
85001.194
85001.204
85001.216
85001.074
85001.076
85001.083
85001.091
85001.101
85001.113
85001.125
85001.139
85001.153
85001.168
85001.183
85001.197
85001.21
85001.222
85001.234
85001.243
85001.25
85001.256
85001.258
85001.258
85001.256
85001.251
85001.244
85001.235
85001.225
85001.215
85001.204
85001.195
85001.187
85001.181
85001.179
85001.181
85001.187
85001.196
85001.209
85001.074
85001.076
85001.083
85001.091
85001.101
85001.112
85001.125
85001.138
85001.152
85001.166
85001.179
85001.192
85001.205
85001.216
85001.226
85001.235
85001.241
85001.246
85001.248
85001.248
85001.246
85001.243
85001.237
85001.229
85001.221
85001.211
85001.2
85001.19
85001.182
85001.176
85001.173
85001.174
85001.179
85001.188
85001.201
85001.074
85001.076
85001.082
85001.09
85001.1
85001.111
85001.123
85001.136
85001.15
85001.163
85001.176
85001.188
85001.199
85001.21
85001.219
85001.226
85001.231
85001.235
85001.238
85001.238
85001.238
85001.235
85001.231
85001.226
85001.22
85001.213
85001.206
85001.197
85001.189
85001.18
85001.174
85001.171
85001.171
85001.176
85001.184
85001.074
85001.075
85001.082
85001.09
85001.1
85001.111
85001.122
85001.135
85001.147
85001.16
85001.172
85001.183
85001.193
85001.203
85001.21
85001.217
85001.221
85001.223
85001.226
85001.228
85001.228
85001.226
85001.224
85001.221
85001.219
85001.217
85001.218
85001.219
85001.222
85001.224
85001.225
85001.224
85001.218
85001.209
85001.197
85001.073
85001.075
85001.081
85001.089
85001.099
85001.11
85001.121
85001.133
85001.145
85001.156
85001.168
85001.178
85001.187
85001.195
85001.202
85001.207
85001.212
85001.216
85001.218
85001.219
85001.219
85001.219
85001.218
85001.218
85001.22
85001.222
85001.225
85001.228
85001.23
85001.23
85001.228
85001.221
85001.211
85001.197
85001.179
85001.073
85001.075
85001.081
85001.089
85001.098
85001.108
85001.12
85001.131
85001.142
85001.153
85001.163
85001.172
85001.18
85001.188
85001.195
85001.2
85001.205
85001.208
85001.21
85001.211
85001.211
85001.212
85001.213
85001.215
85001.218
85001.221
85001.224
85001.227
85001.229
85001.228
85001.224
85001.217
85001.206
85001.192
85001.174
85001.072
85001.074
85001.08
85001.088
85001.097
85001.107
85001.118
85001.129
85001.139
85001.149
85001.158
85001.167
85001.175
85001.182
85001.187
85001.192
85001.196
85001.199
85001.201
85001.203
85001.204
85001.205
85001.207
85001.21
85001.214
85001.218
85001.221
85001.224
85001.225
85001.224
85001.221
85001.214
85001.203
85001.188
85001.169
85001.072
85001.074
85001.08
85001.087
85001.096
85001.106
85001.116
85001.126
85001.136
85001.145
85001.154
85001.162
85001.168
85001.175
85001.18
85001.185
85001.188
85001.191
85001.193
85001.195
85001.196
85001.198
85001.201
85001.205
85001.209
85001.213
85001.217
85001.219
85001.221
85001.22
85001.216
85001.209
85001.198
85001.182
85001.164
85001.071
85001.073
85001.079
85001.086
85001.095
85001.104
85001.114
85001.123
85001.132
85001.141
85001.149
85001.156
85001.163
85001.169
85001.174
85001.178
85001.181
85001.183
85001.185
85001.187
85001.189
85001.191
85001.195
85001.199
85001.203
85001.207
85001.211
85001.214
85001.215
85001.215
85001.211
85001.203
85001.192
85001.176
85001.157
85001.071
85001.073
85001.078
85001.086
85001.094
85001.102
85001.111
85001.12
85001.128
85001.136
85001.144
85001.151
85001.157
85001.162
85001.167
85001.17
85001.173
85001.175
85001.177
85001.179
85001.181
85001.184
85001.188
85001.192
85001.197
85001.201
85001.205
85001.208
85001.21
85001.209
85001.205
85001.197
85001.186
85001.17
85001.151
85001.07
85001.072
85001.078
85001.084
85001.092
85001.1
85001.109
85001.117
85001.125
85001.132
85001.139
85001.145
85001.15
85001.155
85001.16
85001.163
85001.165
85001.167
85001.169
85001.171
85001.174
85001.177
85001.181
85001.186
85001.19
85001.195
85001.199
85001.202
85001.204
85001.203
85001.199
85001.191
85001.18
85001.164
85001.145
85001.069
85001.072
85001.077
85001.083
85001.091
85001.098
85001.106
85001.113
85001.121
85001.128
85001.134
85001.14
85001.145
85001.149
85001.153
85001.156
85001.158
85001.16
85001.162
85001.164
85001.167
85001.17
85001.174
85001.179
85001.184
85001.188
85001.193
85001.196
85001.198
85001.197
85001.193
85001.185
85001.174
85001.158
85001.139
85001.069
85001.071
85001.076
85001.082
85001.089
85001.096
85001.103
85001.11
85001.117
85001.123
85001.129
85001.134
85001.138
85001.143
85001.146
85001.148
85001.15
85001.152
85001.154
85001.157
85001.16
85001.163
85001.168
85001.172
85001.177
85001.182
85001.186
85001.19
85001.191
85001.191
85001.187
85001.179
85001.168
85001.152
85001.132
85001.068
85001.07
85001.075
85001.08
85001.087
85001.093
85001.1
85001.106
85001.113
85001.118
85001.124
85001.129
85001.133
85001.136
85001.139
85001.141
85001.143
85001.144
85001.147
85001.149
85001.153
85001.156
85001.161
85001.166
85001.171
85001.176
85001.18
85001.184
85001.185
85001.185
85001.181
85001.173
85001.162
85001.146
85001.127
85001.067
85001.069
85001.073
85001.079
85001.084
85001.091
85001.097
85001.103
85001.108
85001.113
85001.118
85001.123
85001.127
85001.13
85001.132
85001.134
85001.135
85001.137
85001.139
85001.142
85001.146
85001.15
85001.154
85001.159
85001.164
85001.169
85001.174
85001.177
85001.179
85001.179
85001.175
85001.167
85001.156
85001.14
85001.121
85001.066
85001.068
85001.072
85001.077
85001.082
85001.088
85001.093
85001.099
85001.104
85001.109
85001.113
85001.117
85001.121
85001.123
85001.125
85001.126
85001.128
85001.13
85001.132
85001.135
85001.139
85001.143
85001.148
85001.153
85001.158
85001.163
85001.168
85001.171
85001.173
85001.173
85001.169
85001.162
85001.15
85001.134
85001.115
85001.065
85001.067
85001.07
85001.075
85001.08
85001.085
85001.09
85001.095
85001.099
85001.103
85001.107
85001.111
85001.114
85001.116
85001.118
85001.119
85001.121
85001.123
85001.125
85001.128
85001.132
85001.136
85001.141
85001.146
85001.152
85001.157
85001.162
85001.166
85001.168
85001.167
85001.164
85001.156
85001.145
85001.129
85001.109
85001.063
85001.065
85001.068
85001.072
85001.077
85001.082
85001.086
85001.091
85001.095
85001.099
85001.102
85001.105
85001.108
85001.11
85001.111
85001.113
85001.114
85001.116
85001.119
85001.122
85001.126
85001.13
85001.135
85001.14
85001.146
85001.151
85001.156
85001.16
85001.162
85001.162
85001.158
85001.151
85001.139
85001.123
85001.104
85001.062
85001.064
85001.067
85001.07
85001.074
85001.078
85001.082
85001.086
85001.09
85001.094
85001.097
85001.1
85001.102
85001.103
85001.104
85001.106
85001.107
85001.109
85001.112
85001.115
85001.119
85001.124
85001.129
85001.134
85001.14
85001.145
85001.15
85001.154
85001.156
85001.156
85001.153
85001.145
85001.133
85001.118
85001.098
85001.06
85001.062
85001.064
85001.068
85001.071
85001.075
85001.079
85001.082
85001.085
85001.088
85001.091
85001.094
85001.096
85001.097
85001.098
85001.099
85001.101
85001.103
85001.106
85001.109
85001.113
85001.118
85001.123
85001.128
85001.134
85001.14
85001.145
85001.149
85001.151
85001.151
85001.147
85001.14
85001.128
85001.112
85001.093
85001.059
85001.06
85001.062
85001.065
85001.068
85001.071
85001.074
85001.078
85001.081
85001.084
85001.086
85001.088
85001.089
85001.09
85001.091
85001.093
85001.094
85001.097
85001.1
85001.103
85001.107
85001.112
85001.117
85001.123
85001.129
85001.134
85001.139
85001.143
85001.145
85001.145
85001.142
85001.135
85001.123
85001.107
85001.088
85001.057
85001.058
85001.06
85001.062
85001.065
85001.067
85001.07
85001.073
85001.075
85001.078
85001.08
85001.082
85001.083
85001.084
85001.085
85001.086
85001.088
85001.09
85001.093
85001.097
85001.101
85001.106
85001.111
85001.117
85001.123
85001.129
85001.134
85001.138
85001.14
85001.14
85001.137
85001.129
85001.118
85001.102
85001.083
85001.055
85001.056
85001.057
85001.059
85001.061
85001.064
85001.066
85001.069
85001.071
85001.073
85001.075
85001.076
85001.077
85001.078
85001.079
85001.08
85001.082
85001.084
85001.087
85001.091
85001.096
85001.101
85001.106
85001.112
85001.118
85001.123
85001.129
85001.133
85001.135
85001.135
85001.132
85001.124
85001.113
85001.097
85001.078
85001.052
85001.053
85001.054
85001.056
85001.058
85001.06
85001.062
85001.064
85001.066
85001.068
85001.069
85001.07
85001.071
85001.072
85001.073
85001.074
85001.076
85001.079
85001.082
85001.086
85001.09
85001.095
85001.101
85001.106
85001.112
85001.118
85001.123
85001.128
85001.13
85001.13
85001.127
85001.119
85001.108
85001.092
85001.073
85001.05
85001.05
85001.051
85001.052
85001.054
85001.055
85001.057
85001.058
85001.06
85001.062
85001.064
85001.064
85001.065
85001.066
85001.067
85001.068
85001.07
85001.073
85001.076
85001.08
85001.085
85001.09
85001.095
85001.101
85001.107
85001.113
85001.118
85001.123
85001.125
85001.125
85001.122
85001.115
85001.103
85001.087
85001.068
85001.047
85001.047
85001.048
85001.049
85001.05
85001.051
85001.053
85001.054
85001.056
85001.057
85001.058
85001.059
85001.059
85001.06
85001.061
85001.062
85001.065
85001.067
85001.071
85001.075
85001.079
85001.084
85001.09
85001.096
85001.102
85001.108
85001.113
85001.118
85001.12
85001.12
85001.117
85001.11
85001.098
85001.082
85001.063
85001.043
85001.044
85001.044
85001.045
85001.046
85001.047
85001.048
85001.049
85001.051
85001.051
85001.052
85001.053
85001.053
85001.054
85001.055
85001.057
85001.059
85001.062
85001.065
85001.069
85001.074
85001.079
85001.085
85001.091
85001.097
85001.103
85001.109
85001.113
85001.115
85001.115
85001.112
85001.105
85001.093
85001.078
85001.058
85001.04
85001.041
85001.041
85001.041
85001.042
85001.042
85001.043
85001.044
85001.045
85001.046
85001.047
85001.047
85001.048
85001.048
85001.05
85001.051
85001.054
85001.057
85001.06
85001.064
85001.069
85001.074
85001.08
85001.086
85001.092
85001.098
85001.104
85001.108
85001.111
85001.111
85001.108
85001.1
85001.089
85001.073
85001.054
85001.037
85001.037
85001.037
85001.037
85001.038
85001.038
85001.039
85001.04
85001.04
85001.041
85001.041
85001.041
85001.042
85001.043
85001.044
85001.046
85001.048
85001.051
85001.055
85001.059
85001.064
85001.069
85001.075
85001.081
85001.088
85001.094
85001.099
85001.103
85001.106
85001.106
85001.103
85001.096
85001.084
85001.068
85001.049
85001.033
85001.033
85001.033
85001.033
85001.033
85001.034
85001.034
85001.035
85001.035
85001.035
85001.035
85001.036
85001.036
85001.037
85001.039
85001.041
85001.043
85001.046
85001.05
85001.054
85001.059
85001.065
85001.07
85001.077
85001.083
85001.089
85001.094
85001.099
85001.101
85001.102
85001.098
85001.091
85001.08
85001.064
85001.045
85001.029
85001.029
85001.029
85001.029
85001.029
85001.03
85001.03
85001.03
85001.03
85001.03
85001.03
85001.03
85001.031
85001.032
85001.033
85001.035
85001.038
85001.041
85001.045
85001.049
85001.054
85001.06
85001.066
85001.072
85001.078
85001.084
85001.09
85001.094
85001.097
85001.097
85001.094
85001.087
85001.075
85001.06
85001.04
85001.024
85001.024
85001.025
85001.025
85001.025
85001.025
85001.025
85001.025
85001.024
85001.024
85001.024
85001.025
85001.026
85001.027
85001.028
85001.03
85001.033
85001.036
85001.04
85001.045
85001.05
85001.055
85001.061
85001.067
85001.074
85001.08
85001.086
85001.09
85001.093
85001.093
85001.09
85001.083
85001.071
85001.055
85001.036
85001.02
85001.02
85001.02
85001.02
85001.02
85001.02
85001.02
85001.02
85001.019
85001.019
85001.019
85001.02
85001.02
85001.022
85001.023
85001.026
85001.028
85001.032
85001.036
85001.04
85001.045
85001.051
85001.057
85001.063
85001.069
85001.076
85001.081
85001.086
85001.088
85001.088
85001.085
85001.078
85001.067
85001.051
85001.032
85001.015
85001.015
85001.016
85001.016
85001.016
85001.016
85001.015
85001.015
85001.014
85001.014
85001.014
85001.015
85001.015
85001.017
85001.018
85001.021
85001.024
85001.027
85001.031
85001.036
85001.041
85001.046
85001.052
85001.059
85001.065
85001.071
85001.077
85001.081
85001.084
85001.084
85001.081
85001.074
85001.063
85001.047
85001.028
85001.011
85001.011
85001.011
85001.011
85001.011
85001.011
85001.01
85001.01
85001.009
85001.009
85001.009
85001.01
85001.01
85001.012
85001.014
85001.016
85001.019
85001.022
85001.026
85001.031
85001.036
85001.042
85001.048
85001.054
85001.061
85001.067
85001.073
85001.077
85001.08
85001.08
85001.077
85001.07
85001.058
85001.043
85001.023
85001.006
85001.006
85001.006
85001.006
85001.006
85001.006
85001.005
85001.005
85001.004
85001.004
85001.004
85001.005
85001.006
85001.007
85001.009
85001.011
85001.014
85001.018
85001.022
85001.027
85001.032
85001.038
85001.044
85001.05
85001.057
85001.063
85001.068
85001.073
85001.076
85001.076
85001.073
85001.066
85001.054
85001.039
85001.019
85001.001
85001.001
85001.001
85001.001
85001.001
85001.001
85001
85001
85000.999
85000.999
85000.999
85001
85001.001
85001.002
85001.004
85001.007
85001.01
85001.014
85001.018
85001.022
85001.028
85001.033