/*--------------------------------*- C++ -*----------------------------------*\
  =========                 |
  \\      /  F ield         | OpenFOAM: The Open Source CFD Toolbox
   \\    /   O peration     | Website:  https://openfoam.org
    \\  /    A nd           | Version:  11
     \\/     M anipulation  |
\*---------------------------------------------------------------------------*/
FoamFile
{
    format      ascii;
    class       volScalarField;
    location    "1";
    object      pPrime2Mean;
}
// * * * * * * * * * * * * * * * * * * * * * * * * * * * * * * * * * * * * * //

dimensions      [0 4 -4 0 0 0 0];

internalField   nonuniform List<scalar> 
66675
(
2.7279434
2.7274075
2.7300692
2.7314482
2.7343378
2.7361727
2.7395792
2.7421436
2.7461557
2.7480698
2.7517815
2.7539415
2.7581282
2.760272
2.7641649
2.7670517
2.7701731
2.7729568
2.7764006
2.7788868
2.782711
2.7858286
2.7881269
2.7905493
2.7935991
2.7964678
2.8002052
2.8026848
2.8060551
2.8095713
2.8133335
2.8179188
2.8228903
2.8295727
2.8423481
2.7278976
2.7271471
2.7297554
2.7314816
2.7340698
2.736331
2.7396984
2.7421694
2.7453022
2.7478151
2.7516518
2.7547855
2.758256
2.7603207
2.7634745
2.7665987
2.7706394
2.7726812
2.7763395
2.7789888
2.7828436
2.7845001
2.7880812
2.7905092
2.7936678
2.7968321
2.8000269
2.8025894
2.8058834
2.8088188
2.8128309
2.817771
2.8227348
2.8296728
2.8403072
2.7276983
2.7268772
2.7300005
2.7309885
2.7346392
2.7358704
2.7396879
2.7419443
2.7456532
2.7483368
2.751914
2.754282
2.7576075
2.7603025
2.764389
2.7666178
2.7706509
2.7732077
2.7765608
2.7787428
2.7825651
2.7850428
2.7879333
2.7908106
2.7939138
2.7970572
2.7999554
2.8026047
2.8060045
2.8093414
2.8129072
2.8180428
2.8229418
2.8287563
2.8372183
2.7285004
2.7271948
2.7301836
2.7312307
2.7346668
2.7364206
2.7394886
2.7418833
2.7461491
2.7481871
2.7520466
2.7538052
2.7577801
2.7606554
2.7636642
2.7669783
2.7703238
2.7730713
2.7767115
2.7787218
2.7824945
2.7849913
2.7882662
2.791235
2.794138
2.7964811
2.7998648
2.8029146
2.8065281
2.809741
2.8122492
2.8176575
2.8227854
2.8277588
2.8339777
2.72752
2.7276163
2.7296419
2.731596
2.7338448
2.7360172
2.7392139
2.7420626
2.7453518
2.7476892
2.7516651
2.7541685
2.7574492
2.7606096
2.7644243
2.7669516
2.7702417
2.7730589
2.7764244
2.7791967
2.7822189
2.7852516
2.7880077
2.7905235
2.7941446
2.7967558
2.799222
2.8024464
2.8059349
2.8092957
2.8131351
2.8170309
2.8214388
2.8264961
2.8313408
2.727314
2.7270613
2.7294722
2.73141
2.7338352
2.7358475
2.7393885
2.7422552
2.7453184
2.7478886
2.7522144
2.7541246
2.7578955
2.7606297
2.7639561
2.7663822
2.769475
2.7723885
2.7761688
2.7790861
2.7819519
2.7850037
2.7882013
2.7906027
2.7939167
2.7965641
2.7998638
2.8031197
2.8059101
2.8089762
2.813406
2.8166647
2.8208742
2.8247938
2.8291979
2.7277155
2.7272129
2.7303066
2.730525
2.7344112
2.736186
2.7389412
2.7425127
2.745327
2.7479315
2.7519617
2.75424
2.7573175
2.7606745
2.7635155
2.7666759
2.7701311
2.7730303
2.7760592
2.7786636
2.7821798
2.7848654
2.7873564
2.7913742
2.7936821
2.7964745
2.7997217
2.8029032
2.8060102
2.8088284
2.8126955
2.8157578
2.8193407
2.8236752
2.8266239
2.7277861
2.7271299
2.7298479
2.7315598
2.7344894
2.7363024
2.7395048
2.7419147
2.7458134
2.7485485
2.7516985
2.7541533
2.7581711
2.7603064
2.7640057
2.7668209
2.7705193
2.7726336
2.7760553
2.7787437
2.7820044
2.7849541
2.788331
2.7908611
2.7934217
2.7964573
2.8002024
2.8024158
2.805707
2.8093166
2.8124523
2.8159866
2.8191204
2.8219595
2.8247957
2.7282076
2.727211
2.7299185
2.7305403
2.7339725
2.735652
2.7397938
2.7416677
2.7455044
2.747818
2.7517357
2.7547083
2.7577419
2.7607861
2.7642431
2.766304
2.7702808
2.7728014
2.7762871
2.7788725
2.7824583
2.7848082
2.7880993
2.790617
2.7935801
2.7965612
2.7996798
2.8028708
2.8053923
2.8085527
2.8118515
2.8145828
2.817791
2.8208303
2.8226271
2.7271976
2.7272911
2.729929
2.7314034
2.7341881
2.7363033
2.7399158
2.742075
2.7453203
2.7483158
2.7516851
2.7543468
2.7575722
2.7603197
2.7636499
2.7665806
2.7701349
2.7725
2.7760592
2.778801
2.7822027
2.784771
2.7879381
2.7908211
2.7936153
2.7966175
2.7998095
2.801816
2.8050213
2.8082361
2.8116474
2.8144865
2.8163137
2.8189754
2.8199005
2.7272758
2.7267151
2.7296829
2.7313404
2.7338591
2.7365503
2.7393875
2.7418652
2.7456532
2.7476654
2.7515497
2.7542238
2.7579165
2.7601776
2.7641344
2.7668142
2.770134
2.7728081
2.7763863
2.7792234
2.782855
2.7848196
2.7873383
2.7908154
2.7938747
2.7965965
2.7997646
2.8016949
2.8054991
2.8083019
2.810689
2.8137512
2.816165
2.8176851
2.8196144
2.7274923
2.7272291
2.7299891
2.7315083
2.7341223
2.7362499
2.7400961
2.7413616
2.7453222
2.7478447
2.7509689
2.754055
2.7579451
2.7605286
2.7638884
2.7667217
2.7708035
2.7729597
2.7760677
2.7791328
2.7822599
2.7847519
2.7881718
2.7904844
2.7934456
2.7961092
2.7993135
2.8019409
2.8048668
2.8072205
2.8100052
2.8128061
2.8153706
2.8161793
2.8176384
2.7281847
2.7271786
2.7302837
2.7312212
2.734664
2.7359791
2.7402315
2.7419634
2.7453032
2.7481546
2.7518826
2.7538347
2.7580166
2.7604656
2.7637939
2.7666616
2.7701139
2.7733231
2.7757502
2.7788353
2.7824678
2.784276
2.7878723
2.7904768
2.7939682
2.7959213
2.7992725
2.8026524
2.8043756
2.8069906
2.8094387
2.8116627
2.8136597
2.8144722
2.8158541
2.7282095
2.7270632
2.730382
2.7310171
2.7343264
2.7358265
2.7396564
2.7416983
2.7455339
2.7482605
2.7518377
2.7544842
2.7577658
2.7602425
2.7637005
2.7668571
2.7700758
2.7727346
2.7757931
2.7786255
2.7824354
2.7851839
2.7877245
2.7908993
2.7929192
2.7964897
2.7991371
2.8019886
2.8041525
2.8066311
2.8088703
2.8111563
2.8125811
2.8143139
2.8145103
2.7282801
2.7274714
2.7298441
2.7310715
2.7343311
2.7362204
2.7396593
2.7419519
2.7462587
2.748538
2.7523136
2.7542448
2.7581778
2.7611618
2.7637262
2.7665634
2.7695656
2.7727528
2.776227
2.778801
2.7822933
2.7845535
2.7877769
2.7907133
2.7934198
2.7959623
2.7995882
2.8009129
2.8041391
2.8063736
2.8084965
2.8095512
2.8113575
2.8122177
2.813508
2.7279816
2.7274752
2.7299967
2.7314463
2.734252
2.7354918
2.7394018
2.7416067
2.7459669
2.7481461
2.7516794
2.7541075
2.7578621
2.7598133
2.7644701
2.7666531
2.7697916
2.7725859
2.7759848
2.7791834
2.7816181
2.7845335
2.7880163
2.7900515
2.7928686
2.7959089
2.7981787
2.8009396
2.8034935
2.8049459
2.807065
2.8090096
2.8104935
2.8112803
2.8121681
2.7281008
2.7276735
2.7298288
2.730916
2.7346783
2.7354412
2.7396545
2.7418261
2.7452869
2.7476015
2.7517357
2.7543726
2.7578173
2.760355
2.764286
2.7663879
2.7700949
2.7726822
2.775671
2.7785301
2.781992
2.784461
2.7876482
2.7907372
2.792697
2.7959757
2.7979364
2.800395
2.8028984
2.8048353
2.8064222
2.8081799
2.8088045
2.810833
2.8106384
2.7274389
2.7272959
2.7297754
2.7312031
2.7334709
2.7359095
2.7393341
2.7413492
2.7453146
2.7478495
2.7517147
2.7548323
2.7577839
2.7607775
2.764164
2.7665195
2.7699623
2.7728977
2.7761154
2.7786093
2.7818794
2.7847996
2.7873287
2.7903013
2.7929134
2.795722
2.7978449
2.8000193
2.8022127
2.8044376
2.8061333
2.8068075
2.8083687
2.8086233
2.8099604
2.7276535
2.7272692
2.730237
2.7311592
2.7345552
2.7364159
2.7396221
2.7424212
2.7460022
2.7479858
2.7518787
2.7540741
2.7575054
2.7599087
2.7644749
2.7666626
2.7703629
2.7723246
2.7757921
2.7796173
2.7812176
2.7845182
2.7874346
2.7896271
2.7924213
2.7949266
2.7977133
2.7995672
2.802042
2.8038988
2.8052034
2.8061848
2.8072386
2.8082132
2.8079233
2.7280893
2.7273054
2.7300835
2.7304974
2.7344112
2.7368431
2.7395821
2.7417898
2.745183
2.7476854
2.751605
2.7543526
2.7578573
2.7606926
2.7642078
2.7669888
2.7704153
2.7724762
2.7763233
2.7787838
2.7821388
2.7842264
2.7868624
2.7902536
2.7923088
2.7947407
2.7968512
2.7993269
2.8008633
2.8027363
2.8039751
2.8052053
2.805541
2.8066845
2.8068514
2.7275486
2.7273436
2.7305403
2.7310791
2.7344866
2.7360554
2.7393951
2.7425385
2.7459269
2.748333
2.7513943
2.7536602
2.7575302
2.7604256
2.7643824
2.7668695
2.7698765
2.7725487
2.7758684
2.7784433
2.7815933
2.7840309
2.7869711
2.7894926
2.7915068
2.7944632
2.7968493
2.7988758
2.8004465
2.8009319
2.802599
2.8044405
2.8050394
2.8056259
2.8063374
2.727788
2.7271852
2.7298231
2.7307034
2.7337732
2.7362728
2.7397165
2.7417488
2.7458048
2.748044
2.7513256
2.7538738
2.7577257
2.7601776
2.7641163
2.766345
2.7699089
2.7726431
2.7755823
2.7784014
2.7812014
2.7839737
2.7869701
2.7894993
2.7915449
2.7943258
2.7959538
2.798172
2.8001041
2.8014069
2.8025103
2.803359
2.8042583
2.8038712
2.8050785
2.7272444
2.727416
2.7295122
2.7313814
2.7342138
2.7355499
2.7398796
2.7419214
2.7448206
2.7476034
2.7514496
2.7540607
2.7575788
2.7608891
2.7634926
2.7665911
2.7699184
2.7724571
2.776083
2.7785416
2.7817039
2.7842131
2.7860241
2.789465
2.7911062
2.7933693
2.7961292
2.7974081
2.7986813
2.8002119
2.8011675
2.8019791
2.80268
2.8034344
2.8032598
2.7278357
2.7267952
2.7301817
2.7309542
2.7335558
2.7357264
2.7399492
2.7417049
2.7452841
2.7479553
2.7511473
2.7544918
2.7574635
2.7597876
2.7641926
2.7664986
2.7702427
2.7722311
2.775403
2.7781458
2.7813969
2.7836905
2.7865295
2.7892399
2.7914505
2.7932987
2.7955599
2.7972317
2.7981167
2.7994022
2.8005257
2.8010616
2.8019619
2.8024197
2.8029509
2.7276134
2.7279291
2.729496
2.7314539
2.734581
2.7362385
2.7393312
2.7413263
2.7449341
2.7480993
2.7518692
2.7543507
2.7571554
2.7599144
2.7638283
2.7665329
2.7690525
2.7723808
2.775609
2.7785788
2.7809277
2.7834291
2.7864933
2.7888432
2.7908678
2.792985
2.7941904
2.7963285
2.7981596
2.798852
2.7988758
2.8001919
2.8009663
2.80126
2.8009596
2.7280083
2.7274609
2.7302122
2.7313204
2.7337675
2.736043
2.7399054
2.7419357
2.7446222
2.7485209
2.751255
2.7537899
2.7578278
2.7603579
2.7640076
2.7663393
2.7691193
2.7722578
2.7747202
2.7782745
2.7803974
2.7828932
2.7862682
2.7882833
2.7904673
2.7922077
2.7937784
2.7948265
2.7966661
2.7974157
2.7982454
2.799469
2.7995739
2.7999325
2.8005905
2.7270555
2.726841
2.7297316
2.7310715
2.7340059
2.7363234
2.7397985
2.741745
2.7453461
2.7476196
2.7513399
2.7544308
2.7572947
2.7599049
2.763567
2.7666874
2.7697639
2.7716379
2.7752275
2.7778158
2.7805929
2.7835112
2.7857466
2.7876348
2.7901115
2.7916708
2.7936554
2.7945728
2.7957277
2.7966146
2.7978888
2.7987108
2.7987022
2.7989502
2.7988071
2.7272739
2.7270689
2.7291517
2.7305851
2.7341595
2.7357121
2.7394247
2.7418346
2.7458344
2.7481089
2.7512102
2.7538147
2.7564669
2.7602186
2.7630272
2.7663221
2.7696438
2.7722197
2.7757893
2.7777786
2.7806149
2.7832766
2.7856617
2.7879915
2.7894526
2.7911644
2.7926378
2.7945576
2.795332
2.795557
2.7967319
2.7969923
2.797472
2.7977304
2.7980299
2.7276611
2.7271595
2.7305403
2.7315569
2.7342453
2.7361116
2.7395191
2.7422199
2.7457447
2.7481098
2.7515364
2.7542009
2.7576218
2.7603683
2.7639275
2.7665873
2.7693558
2.7723465
2.775033
2.7780466
2.7800493
2.7825632
2.7849436
2.7870531
2.7886906
2.7900276
2.7923775
2.79352
2.7944279
2.7946873
2.7951736
2.796319
2.7961493
2.7967291
2.7969198
2.7280006
2.7277889
2.7294645
2.7312136
2.7340794
2.7357531
2.7391567
2.7420626
2.7453728
2.7481251
2.7514935
2.7539091
2.7572193
2.7600689
2.7631969
2.7660732
2.769475
2.7715378
2.774478
2.777154
2.779623
2.7825403
2.784132
2.7863369
2.7882338
2.7898378
2.7917318
2.7921772
2.7931623
2.7942314
2.7942944
2.7947302
2.7955503
2.7956553
2.7961216
2.7277889
2.727416
2.7296124
2.7304459
2.7346888
2.7362404
2.7396812
2.742341
2.7452965
2.7477674
2.7510614
2.7542601
2.7578011
2.7601538
2.7632694
2.7662621
2.7688589
2.7720461
2.775177
2.7773333
2.7786684
2.782341
2.7836132
2.7859554
2.7878914
2.7893143
2.7906599
2.7913895
2.7916565
2.7932777
2.7940645
2.7940178
2.7936716
2.7949333
2.7944794
2.7277565
2.727047
2.7296791
2.7308493
2.7341175
2.7363997
2.7393274
2.741848
2.7451019
2.7476101
2.7518196
2.7544832
2.7575874
2.7600527
2.7634544
2.7658167
2.7689209
2.7715883
2.7744532
2.7771673
2.7798862
2.7814322
2.783947
2.7854595
2.7871857
2.7891626
2.7900438
2.7908421
2.7921543
2.7922421
2.7922821
2.7929678
2.7930079
2.7931299
2.7934065
2.727644
2.7273149
2.729497
2.7310801
2.733963
2.7356796
2.7398405
2.741744
2.7450142
2.7477036
2.7507076
2.7543325
2.7572813
2.7601032
2.7630386
2.7656517
2.7690563
2.7715387
2.7738552
2.7768822
2.7790928
2.7811689
2.7829361
2.7852478
2.7863779
2.7879114
2.7887592
2.7896061
2.7906637
2.7915726
2.7921114
2.7922144
2.7915726
2.792511
2.7920189
2.7273235
2.7279387
2.7295256
2.7311497
2.733943
2.7363949
2.7395277
2.7422152
2.7451363
2.7482519
2.751338
2.7540197
2.7566442
2.759799
2.7636156
2.7663145
2.7676153
2.7714939
2.7740154
2.7766161
2.7784405
2.7804308
2.7820435
2.7843266
2.7854252
2.7867413
2.7876186
2.7885885
2.789628
2.7903776
2.7906656
2.7909956
2.7911167
2.7916422
2.7916136
2.7272348
2.727375
2.7300634
2.7309246
2.7338228
2.7360411
2.7397184
2.741354
2.7443514
2.7483168
2.751236
2.7535343
2.7568846
2.7595177
2.7627602
2.7650928
2.7680244
2.7709188
2.7735195
2.7762156
2.7780828
2.779891
2.7818966
2.783453
2.7849197
2.7856512
2.7872849
2.7879143
2.7887688
2.7896452
2.7898388
2.790246
2.78971
2.7901802
2.7899828
2.7272682
2.7270355
2.7299137
2.7306871
2.7340298
2.7361603
2.7400789
2.7421303
2.7454166
2.7477884
2.7512255
2.7537556
2.7570248
2.7597256
2.762516
2.7658787
2.7681694
2.7702618
2.7731323
2.7749023
2.7775602
2.7797384
2.7810469
2.7822809
2.7839327
2.784976
2.7858725
2.7874002
2.7876472
2.7883883
2.7887125
2.7889423
2.7891712
2.7889166
2.7891493
2.7278366
2.7274847
2.7301979
2.7308693
2.7340126
2.736084
2.7393923
2.7419081
2.7445698
2.7476301
2.7502766
2.7536173
2.7571907
2.7595377
2.7620735
2.7648525
2.7676077
2.7702169
2.7723684
2.7751226
2.776967
2.7785454
2.7803745
2.7819099
2.7827234
2.7851086
2.7853889
2.7865496
2.7868834
2.7872906
2.7874727
2.7879448
2.7877645
2.7880192
2.7880573
2.7275143
2.7276917
2.7299643
2.7308321
2.7336226
2.7360706
2.7397165
2.7415237
2.7449522
2.7474022
2.7509928
2.7538614
2.7565279
2.7597942
2.7626038
2.765111
2.768014
2.769763
2.7724009
2.7742338
2.7764893
2.778532
2.7800055
2.7810316
2.7822075
2.7831669
2.7847166
2.7855253
2.7862368
2.7867479
2.7867832
2.7877541
2.7865095
2.7864809
2.7868776
2.7272339
2.7268476
2.7292366
2.7312078
2.7342005
2.7361593
2.7392092
2.7418327
2.7448349
2.7480125
2.7509022
2.7536478
2.7562895
2.759696
2.7620564
2.7649155
2.7674284
2.769865
2.7721519
2.7738705
2.7757826
2.7775955
2.7790413
2.7808104
2.7819767
2.7821455
2.7835302
2.7844496
2.7851067
2.7859507
2.7853813
2.7862234
2.7863894
2.7856045
2.7845926
2.727458
2.7275667
2.7300911
2.7310019
2.7343626
2.7362976
2.7395878
2.7415476
2.7448702
2.7473202
2.7505007
2.753787
2.7566347
2.7591696
2.7615232
2.7643661
2.7669458
2.7691422
2.7713537
2.7733536
2.7758732
2.7765207
2.7786236
2.7800722
2.7807922
2.7822714
2.7823219
2.7831802
2.7840853
2.7845917
2.7843809
2.785202
2.7843609
2.7844801
2.7843075
2.7275648
2.7272091
2.7301741
2.7309494
2.7337446
2.7356148
2.7395554
2.7416477
2.7447433
2.7474146
2.7505341
2.7533998
2.7559986
2.7591133
2.761364
2.763833
2.7661819
2.768837
2.771019
2.7724867
2.7747526
2.7757015
2.7776108
2.7785435
2.7802191
2.7806873
2.7817717
2.7825756
2.7826576
2.7836199
2.7833099
2.7839794
2.7836227
2.7838678
2.7832508
2.7283115
2.727519
2.7300797
2.7311554
2.7339497
2.736434
2.7396412
2.741539
2.744813
2.7476215
2.7505369
2.7529631
2.7560711
2.7585125
2.7611551
2.7639542
2.766243
2.7688913
2.769515
2.7722502
2.7736969
2.7753239
2.77666
2.7778559
2.7782764
2.7802477
2.7799711
2.7813559
2.7820234
2.7822723
2.7828588
2.78269
2.7831211
2.782589
2.7823572
2.7269936
2.7269583
2.7296066
2.7308626
2.7337408
2.7363701
2.7390814
2.7412462
2.7447119
2.7469435
2.750289
2.7530231
2.755825
2.7579136
2.7611141
2.7635431
2.765955
2.7674665
2.769927
2.7713137
2.7725506
2.7738285
2.7763281
2.7769289
2.7782793
2.7786427
2.7792683
2.7809
2.7803793
2.7818642
2.7808676
2.7821608
2.7815771
2.7813654
2.7805796
2.7273111
2.7268343
2.729908
2.7308073
2.733263
2.7362185
2.7393723
2.7412291
2.7442846
2.7467012
2.7499266
2.7528191
2.755703
2.7584839
2.7606745
2.7632313
2.7655716
2.7675972
2.7686653
2.7699089
2.7716646
2.7732067
2.7743549
2.7757893
2.776804
2.7782068
2.7786283
2.779315
2.77985
2.7803659
2.7803154
2.7808371
2.7798414
2.7803335
2.7801819
2.7276812
2.7270927
2.7296314
2.7307739
2.7338591
2.7359085
2.7388821
2.7418709
2.7443533
2.7471304
2.7495937
2.7524672
2.7553587
2.7577896
2.7599354
2.7620811
2.7643127
2.7661409
2.768239
2.7702112
2.7710018
2.7726927
2.7738304
2.774601
2.776022
2.776413
2.7776499
2.7784138
2.7786026
2.7789497
2.7787628
2.7794704
2.7784328
2.7786798
2.7779942
2.7275257
2.7272987
2.7290468
2.7307529
2.7341137
2.7363844
2.738884
2.7411585
2.7441196
2.7472258
2.7496204
2.7521839
2.7547359
2.7576933
2.7598877
2.7621803
2.7644253
2.765666
2.7672558
2.7688322
2.7694216
2.7711182
2.7718086
2.7740993
2.7742052
2.7754049
2.7766991
2.7764254
2.777874
2.777813
2.7784176
2.7778158
2.7774801
2.7770929
2.7770901
2.7272139
2.7269354
2.7293406
2.730505
2.7338886
2.7361298
2.7391043
2.7415447
2.7441645
2.7464752
2.7495975
2.7525558
2.7555857
2.7575998
2.7587919
2.761385
2.7636166
2.7647591
2.7662058
2.7678118
2.7691154
2.7700024
2.7716837
2.7728825
2.7736826
2.7734871
2.7755661
2.7756481
2.7764664
2.776556
2.7769728
2.7763691
2.7763128
2.776536
2.7754402
2.7272081
2.7270355
2.7293568
2.7307472
2.7335901
2.7362061
2.7388287
2.7411766
2.7441406
2.7470026
2.7488995
2.75175
2.7545681
2.7569628
2.7585983
2.7609177
2.7626171
2.7640705
2.7656298
2.766695
2.7682543
2.769659
2.7700176
2.7705269
2.7718878
2.7730045
2.7736454
2.774332
2.774579
2.7753201
2.7753401
2.775507
2.7757301
2.7746773
2.7741566
2.7271595
2.7263489
2.7290144
2.7309036
2.7336292
2.7357368
2.7383146
2.7411623
2.743906
2.7463675
2.7484035
2.7519026
2.7541676
2.7559547
2.7584162
2.7609911
2.7618637
2.7633219
2.7645235
2.76579
2.7671032
2.7678652
2.7691965
2.7692356
2.7705126
2.7715139
2.7721062
2.7731476
2.7738638
2.7743483
2.7742052
2.7739182
2.7734213
2.7731953
2.7724991
2.726656
2.7260256
2.7294035
2.7303991
2.7329502
2.7357988
2.7377033
2.7407675
2.7432346
2.7461596
2.7485828
2.7513437
2.7538223
2.7561607
2.7576456
2.7595415
2.7607412
2.7621307
2.7630939
2.7647915
2.7655325
2.7661142
2.7667923
2.7678957
2.7693052
2.7697906
2.7707806
2.7719097
2.7720699
2.7721462
2.7726564
2.7724085
2.7725525
2.7717695
2.7713327
2.7270365
2.7267466
2.7292852
2.7305527
2.7329206
2.735631
2.7384577
2.7407827
2.7431355
2.7459564
2.7490435
2.7509251
2.7535181
2.7549763
2.7574005
2.7586956
2.7605371
2.7616529
2.7624598
2.7642374
2.7640553
2.7651052
2.7653093
2.7666874
2.7673149
2.7680902
2.7685976
2.7694197
2.7699842
2.7704563
2.7710342
2.7718725
2.7714109
2.7708387
2.7710686
2.7273083
2.727025
2.7292747
2.7306519
2.7328606
2.7351513
2.7383165
2.7406368
2.743432
2.7459326
2.7482643
2.7506027
2.7529783
2.7549076
2.7563572
2.7577305
2.7589645
2.7604437
2.7611427
2.7613583
2.7622557
2.7641144
2.7644024
2.7649765
2.766016
2.7656689
2.7665443
2.7665091
2.7665024
2.7666798
2.766984
2.7665844
2.7669334
2.7676382
2.7676334
2.7266445
2.7267351
2.728775
2.7309141
2.7330112
2.7354097
2.7381783
2.7403088
2.7427502
2.7450981
2.7473917
2.7499132
2.7522612
2.7543974
2.7560406
2.7572737
2.7578487
2.7586679
2.7604685
2.7603121
2.7614079
2.762475
2.7624216
2.7635965
2.7640343
2.7643309
2.7640829
2.7641573
2.7642374
2.7642803
2.7647324
2.7649393
2.7652416
2.7664146
2.7670507
2.7269907
2.727025
2.728653
2.7307892
2.7328777
2.7349949
2.7371731
2.7402115
2.7425117
2.7455826
2.7471571
2.7493219
2.7515688
2.7536669
2.7550268
2.7561226
2.7570162
2.7583542
2.7589779
2.7593441
2.76019
2.7610407
2.7615108
2.7619581
2.7627583
2.76264
2.7623606
2.7625246
2.7622023
2.7624216
2.7630253
2.7633314
2.7639036
2.7639332
2.7657166
2.726511
2.726779
2.7289925
2.7306662
2.7323713
2.7349882
2.7372389
2.7396936
2.7422934
2.7447882
2.7470875
2.7491989
2.7514009
2.7524672
2.7540312
2.7548418
2.7555237
2.7570677
2.7578716
2.7584381
2.7588511
2.7592945
2.7606087
2.7598057
2.7600117
2.7607393
2.7605619
2.7603989
2.7609892
2.7610865
2.7610741
2.760952
2.7618217
2.7625561
2.7628822
2.7268658
2.7261753
2.7286959
2.72999
2.7328806
2.7347584
2.7366953
2.7400656
2.741991
2.7442875
2.7467566
2.7485161
2.7501078
2.751606
2.7521229
2.7540636
2.7546206
2.755125
2.756114
2.7574139
2.7577639
2.7584867
2.7582989
2.758194
2.7584696
2.7584877
2.758954
2.7587423
2.7588844
2.7587366
2.7586927
2.7595377
2.7604733
2.7606287
2.7615623
2.7260351
2.7271147
2.7278881
2.7305746
2.7316303
2.7339315
2.7369967
2.7389441
2.7415314
2.7435408
2.7456713
2.7473812
2.750102
2.7505417
2.7517052
2.7530079
2.7536802
2.7542753
2.7556906
2.7565203
2.7566996
2.7564554
2.7573967
2.7568045
2.7573738
2.7573195
2.7572832
2.7574625
2.7575912
2.7576494
2.7574129
2.7578697
2.7582951
2.7594805
2.7603292
2.7256107
2.7265148
2.7278566
2.7296171
2.7319384
2.7342453
2.7363482
2.7396994
2.7410269
2.7437725
2.745491
2.7472515
2.7487211
2.749671
2.7510748
2.7519665
2.7528257
2.753623
2.7539997
2.7546167
2.7546816
2.7549152
2.755518
2.7560978
2.7551537
2.7553997
2.7552299
2.7547092
2.7553225
2.7554541
2.7558699
2.7564907
2.7566757
2.7580061
2.7578058
2.7253599
2.7263441
2.728178
2.7296114
2.7315578
2.7340937
2.7365656
2.7384529
2.7402744
2.7424145
2.7446671
2.7464781
2.7475834
2.7493505
2.7499228
2.7504511
2.7510881
2.7520523
2.7527351
2.7533484
2.7530613
2.7537775
2.7535839
2.7540617
2.7543421
2.7542105
2.7531376
2.7533255
2.7540779
2.7537546
2.7542849
2.7543716
2.7552547
2.7559528
2.7567701
2.7261314
2.725563
2.7277536
2.7292528
2.7314682
2.7333527
2.7358017
2.7378712
2.74055
2.7425623
2.7439547
2.7454739
2.7465363
2.7474632
2.7483683
2.7491922
2.749959
2.7512465
2.7513084
2.7513628
2.7519913
2.7524204
2.7522011
2.7524672
2.7522945
2.7521925
2.7519741
2.7521515
2.7526321
2.7523804
2.7526474
2.7522335
2.7532797
2.754447
2.7549171
2.725956
2.7264214
2.7275686
2.7290258
2.7313242
2.7334213
2.7356749
2.7380018
2.7398643
2.7418947
2.7431173
2.7436504
2.745101
2.7465973
2.746912
2.7474289
2.7489576
2.7490997
2.7493172
2.7511673
2.7505016
2.7505054
2.7505493
2.7504854
2.7509012
2.7506361
2.750453
2.7503099
2.7501488
2.7502642
2.7509365
2.7508631
2.7514734
2.7524805
2.7533779
2.725132
2.7258291
2.7277975
2.7295589
2.7307377
2.7331495
2.7353029
2.7371798
2.7384014
2.7411613
2.74224
2.7430782
2.7445412
2.7445955
2.7465515
2.7469578
2.7480803
2.7473907
2.7485008
2.7494383
2.7490559
2.7489433
2.749505
2.7490883
2.7484798
2.7479362
2.7489557
2.7485256
2.7484035
2.7491159
2.7486782
2.7494888
2.7492542
2.7508059
2.7512112
2.7251625
2.7254543
2.7269049
2.7290297
2.7296515
2.7323704
2.7343082
2.7364998
2.7380342
2.7397776
2.7409573
2.7418337
2.7434969
2.7438984
2.7444839
2.7453022
2.7465172
2.7463293
2.7468386
2.7473698
2.7472696
2.7473469
2.7467432
2.7475491
2.7466421
2.7466135
2.746809
2.7467861
2.7468414
2.7462683
2.747056
2.7467957
2.7479429
2.7492018
2.7493153
2.7251158
2.7253599
2.7263489
2.7286549
2.7293882
2.7322989
2.7336903
2.7357235
2.7376595
2.7387657
2.7402849
2.7413406
2.7414732
2.743001
2.7440929
2.7443495
2.7443924
2.7451334
2.7451344
2.7461767
2.7455444
2.745223
2.7458363
2.7457933
2.7451925
2.7453699
2.7445955
2.7452564
2.7449293
2.7454004
2.7456408
2.7459087
2.7465334
2.7467785
2.748064
2.7248192
2.7248373
2.7259474
2.7277794
2.729764
2.7314262
2.7333984
2.7351885
2.7364902
2.7373657
2.7389755
2.7397404
2.740941
2.7413168
2.7425985
2.7428684
2.7430639
2.7430706
2.7434673
2.7433777
2.7445602
2.7436333
2.7434292
2.743968
2.7435131
2.7441206
2.7436438
2.7434435
2.7428093
2.742466
2.7428493
2.7436991
2.7447071
2.7455912
2.7458134
2.7241697
2.7247171
2.7264681
2.7276545
2.7295265
2.730896
2.7325459
2.7340946
2.7351055
2.7370987
2.7375479
2.7392778
2.739646
2.7394972
2.7405481
2.741065
2.7415791
2.7411337
2.7424726
2.7414713
2.7422438
2.7422504
2.7418575
2.7416315
2.7411041
2.7420778
2.7413874
2.7411289
2.7410507
2.7412939
2.7415895
2.7416363
2.7428188
2.7434711
2.7442188
2.7238693
2.7239666
2.7255468
2.7270918
2.7284231
2.7307291
2.7320242
2.7331371
2.7341833
2.7356005
2.7362919
2.7367563
2.7373466
2.7384462
2.7394447
2.739748
2.7401495
2.7402811
2.7409019
2.7401285
2.7403193
2.7405157
2.7398586
2.7393761
2.7395334
2.7394819
2.739213
2.7391081
2.7387457
2.7390804
2.7396564
2.7399473
2.7408962
2.7413921
2.7426176
2.7230215
2.723773
2.7246675
2.7266817
2.7273664
2.7295723
2.7307034
2.7319469
2.7334528
2.7343922
2.7357035
2.7357721
2.736351
2.7365656
2.7378407
2.7382984
2.7381439
2.7380333
2.7384844
2.7385206
2.7381763
2.7384586
2.7376699
2.7384415
2.7380743
2.7376413
2.7375507
2.7369871
2.7374287
2.7370558
2.7379866
2.737339
2.7383318
2.73913
2.7401505
2.7229481
2.7231321
2.7245216
2.7259445
2.7272806
2.7290506
2.7304087
2.7310591
2.7319145
2.7335186
2.7337513
2.7340469
2.7359009
2.7357597
2.735898
2.7352495
2.7364264
2.7369776
2.736702
2.7362967
2.736701
2.7365475
2.7365141
2.7359734
2.735528
2.7356987
2.7351894
2.7347383
2.7348509
2.7355318
2.7358065
2.7355661
2.7362146
2.7374029
2.7383986
2.7219572
2.7233143
2.7232056
2.7247915
2.7265682
2.727951
2.7281885
2.7301807
2.7311201
2.731514
2.7322903
2.7332315
2.7335758
2.7341013
2.7346106
2.7342901
2.734458
2.7351427
2.7343864
2.7351694
2.734724
2.7347193
2.7337408
2.734581
2.7342777
2.7334118
2.7335434
2.7334576
2.7331991
2.7330256
2.7332296
2.7338142
2.7335873
2.7351322
2.7360458
2.7217569
2.7218113
2.7225962
2.7246981
2.7252827
2.7269125
2.7279081
2.7288389
2.7295628
2.7301092
2.7314491
2.7317305
2.7317705
2.7314596
2.732213
2.7331028
2.7323837
2.7322931
2.7325497
2.7326498
2.7328091
2.7323694
2.7319345
2.7325144
2.7315674
2.7314367
2.7308645
2.7306643
2.7309132
2.7299795
2.7315454
2.7315025
2.7316036
2.7333164
2.7337151
2.7210588
2.7210941
2.7223167
2.7231646
2.7245932
2.7257051
2.7263498
2.7275248
2.7282639
2.728488
2.7295294
2.7302942
2.7299776
2.7308569
2.7305126
2.731019
2.730772
2.7306213
2.7303562
2.7308817
2.7302599
2.7304382
2.7300787
2.7297325
2.7297916
2.7287874
2.7292042
2.7290783
2.727706
2.7287731
2.7290525
2.7293921
2.7299891
2.7305059
2.7315903
2.7200155
2.7204056
2.7210541
2.7219629
2.723484
2.7245893
2.7252502
2.7257786
2.7267265
2.7275009
2.7277012
2.7280235
2.7287025
2.7291946
2.7292519
2.7284956
2.7290564
2.7282448
2.7285671
2.7284336
2.7280197
2.7273865
2.7277546
2.7282515
2.727396
2.7267618
2.726511
2.7265053
2.7266998
2.7270765
2.7263422
2.7265396
2.7278423
2.7280416
2.7296286
2.719141
2.7199154
2.7203455
2.7217569
2.7222328
2.7237082
2.7234888
2.724719
2.7250881
2.7245922
2.7257442
2.7264585
2.7265501
2.7264614
2.7272587
2.7273045
2.7269802
2.7269535
2.726512
2.7265263
2.7267027
2.7255011
2.7252007
2.7252178
2.7244797
2.725111
2.7249794
2.7240324
2.7246866
2.724452
2.7245913
2.7246542
2.7255058
2.7265015
2.7276821
2.718811
2.7191391
2.7198124
2.7205553
2.721221
2.7218943
2.7222757
2.7228889
2.7237148
2.7232132
2.7246494
2.7242575
2.7246666
2.7244368
2.7254314
2.7248259
2.7247353
2.7244215
2.724782
2.7237139
2.7237148
2.7233744
2.7239056
2.7228661
2.7225075
2.7228708
2.7219515
2.7219296
2.7219305
2.7216616
2.7215948
2.7224092
2.7230339
2.7237682
2.7244682
2.7176743
2.7181692
2.7186947
2.7190266
2.7198544
2.7206783
2.7208586
2.7214069
2.7217741
2.7217274
2.722517
2.722805
2.7225485
2.7225599
2.7226877
2.7227736
2.7227068
2.7228327
2.7219791
2.7226887
2.721817
2.7210665
2.7210627
2.7212534
2.720274
2.7202091
2.7197447
2.7200394
2.7191401
2.7204866
2.7197905
2.7198038
2.7205086
2.721097
2.7230759
2.716342
2.7165699
2.7179184
2.7179623
2.7182341
2.7191095
2.7193928
2.7197266
2.7200661
2.7202959
2.7204905
2.7197905
2.7210064
2.7205896
2.7206736
2.7204552
2.7201328
2.7204742
2.7197418
2.7193956
2.7197227
2.7187967
2.718606
2.7185946
2.718194
2.7178402
2.7175484
2.7171926
2.7165565
2.7164812
2.7171612
2.7175102
2.7179832
2.7190828
2.7198925
2.7158003
2.7156038
2.7155838
2.7163839
2.7173042
2.7174845
2.7175636
2.7173138
2.7183151
2.7182064
2.7185678
2.7178831
2.7187967
2.7186575
2.7189379
2.7181358
2.7179222
2.7176285
2.7178564
2.7167797
2.7171183
2.7163095
2.7164345
2.7158909
2.7152309
2.7150555
2.7145166
2.7152033
2.7144518
2.7148952
2.7149668
2.7147455
2.7156315
2.7165413
2.7174921
2.714138
2.7140636
2.7151852
2.7143927
2.7148905
2.7155857
2.7156239
2.7157183
2.7162552
2.7165184
2.7164297
2.7162924
2.7156992
2.7161665
2.7158766
2.7160425
2.7154198
2.7158279
2.7153988
2.7146053
2.7145395
2.7144041
2.7135248
2.7128315
2.7131901
2.7129354
2.7120113
2.7122707
2.7116385
2.7116766
2.7121592
2.7120619
2.7130404
2.7134905
2.7155781
2.71243
2.7126188
2.7128325
2.7138186
2.7132149
2.7131996
2.7135763
2.7139931
2.7142801
2.7135601
2.7141581
2.7141018
2.7137632
2.7136917
2.7136898
2.7135172
2.7132282
2.7132463
2.712244
2.7124882
2.7123652
2.7116861
2.7110701
2.7109251
2.7101212
2.7100687
2.7093906
2.7097368
2.7091236
2.7094755
2.7098036
2.7096338
2.7111921
2.7113628
2.7122173
2.711194
2.7110987
2.711606
2.711586
2.7111416
2.7118807
2.7120285
2.7122746
2.7115927
2.7128258
2.7117348
2.7118101
2.7119694
2.7114763
2.7110891
2.7107897
2.7107277
2.7108231
2.7094936
2.7096796
2.7091846
2.7087564
2.7085934
2.7087135
2.7083912
2.7070618
2.7074194
2.7069073
2.7068243
2.7072439
2.706728
2.7071924
2.7077503
2.708581
2.7096672
2.709569
2.7097425
2.7092447
2.709712
2.7103367
2.7091446
2.7097197
2.7097435
2.7091217
2.709734
2.7099237
2.7092505
2.709259
2.7088671
2.708477
2.7083244
2.7081118
2.7077265
2.7071877
2.7069883
2.7067051
2.7066336
2.7061195
2.7048359
2.704567
2.7044725
2.7038956
2.7041359
2.7032309
2.7038918
2.7039061
2.7035227
2.7050228
2.7056599
2.7066317
2.7076254
2.7082977
2.7079973
2.7083941
2.7077799
2.7073059
2.7070589
2.7080851
2.7069998
2.7068577
2.7069702
2.7067194
2.7060986
2.7068748
2.7060976
2.7054243
2.7047625
2.7048798
2.7040434
2.7043009
2.7034664
2.7037849
2.7026224
2.7025776
2.7026634
2.7016029
2.7016039
2.7009344
2.7013607
2.7014666
2.701436
2.7012987
2.7017679
2.7035065
2.7039232
2.7060795
2.7058125
2.7063217
2.705761
2.7054338
2.7047195
2.7049131
2.7046709
2.7046108
2.7047739
2.7045679
2.7044077
2.7042685
2.7033701
2.7031145
2.7026262
2.7026167
2.7017651
2.7017384
2.7014656
2.7008553
2.70117
2.7004414
2.7000675
2.7000227
2.6988058
2.6989603
2.6984701
2.6985865
2.6983042
2.6981363
2.6994219
2.6992283
2.7006512
2.7017412
2.7040424
2.7043619
2.7035112
2.7036448
2.7036228
2.7029285
2.7029505
2.7026815
2.7020407
2.7019281
2.7020531
2.7016706
2.7010918
2.7008934
2.7006721
2.7001047
2.6999359
2.6993103
2.6994467
2.6986227
2.6984234
2.697957
2.6973925