/*--------------------------------*- C++ -*----------------------------------*\
  =========                 |
  \\      /  F ield         | OpenFOAM: The Open Source CFD Toolbox
   \\    /   O peration     | Website:  https://openfoam.org
    \\  /    A nd           | Version:  11
     \\/     M anipulation  |
\*---------------------------------------------------------------------------*/
FoamFile
{
    format      ascii;
    class       volVectorField;
    location    "1";
    object      U;
}
// * * * * * * * * * * * * * * * * * * * * * * * * * * * * * * * * * * * * * //

dimensions      [0 1 -1 0 0 0 0];

internalField   nonuniform List<vector> 
66675
(
(6.917193 0.00027770823 0)
(3.7532338 -0.00025289219 0)
(6.7705938 0.00030184745 0)
(3.868294 -0.00030090361 0)
(6.6339246 0.00034498814 0)
(3.9855788 -0.00034963025 0)
(6.503406 0.00039830286 0)
(4.099251 -0.00040373222 0)
(6.379535 0.00046409692 0)
(4.2057049 -0.00046628408 0)
(6.2633608 0.00054684863 0)
(4.3025389 -0.00054110083 0)
(6.1557941 0.00065353644 0)
(4.3881705 -0.00063327671 0)
(6.0573663 0.00079524967 0)
(4.4615003 -0.00074974334 0)
(5.9681626 0.00099005401 0)
(4.5215966 -0.00090036776 0)
(5.8878774 0.0012674484 0)
(4.567438 -0.0011000585 0)
(5.8159683 0.0016754633 0)
(4.5976768 -0.0013720754 0)
(5.7518682 0.0022931655 0)
(4.6102738 -0.001751878 0)
(5.6952147 0.0032556882 0)
(4.6017234 -0.0022898481 0)
(5.6460901 0.0048131403 0)
(4.5652878 -0.0030520158 0)
(5.6053388 0.0075031414 0)
(4.486551 -0.0041426031 0)
(5.5748186 0.012895182 0)
(4.3296423 -0.0062045555 0)
(5.5545189 0.029388624 0)
(3.9818277 -0.01331227 0)
(5.54905 0.146665 0)
(6.9133221 0.00084149023 0)
(3.759651 -0.00076362537 0)
(6.7662771 0.00091554345 0)
(3.8758529 -0.00090890753 0)
(6.6288974 0.0010463999 0)
(3.9942866 -0.001056442 0)
(6.4975222 0.0012076741 0)
(4.1092098 -0.0012198787 0)
(6.3726395 0.0014061428 0)
(4.2170765 -0.001408097 0)
(6.2552639 0.0016549359 0)
(4.3155543 -0.0016320181 0)
(6.1462518 0.0019744324 0)
(4.4031508 -0.0019060265 0)
(6.0460557 0.0023968839 0)
(4.4788936 -0.0022492753 0)
(5.9546417 0.0029745582 0)
(4.5420413 -0.0026882265 0)
(5.8715169 0.0037920703 0)
(4.5918753 -0.0032613273 0)
(5.7958269 0.0049851959 0)
(4.627559 -0.0040250059 0)
(5.726457 0.0067721246 0)
(4.6479703 -0.0050547935 0)
(5.6620103 0.0095111818 0)
(4.6513826 -0.0064220963 0)
(5.6004373 0.013821156 0)
(4.6348762 -0.0080808029 0)
(5.5376402 0.020856839 0)
(4.5934153 -0.0093289448 0)
(5.4622223 0.032912806 0)
(4.5184208 -0.0051704811 0)
(5.3340145 0.055625991 0)
(4.4018369 0.051261457 0)
(5.0222825 0.14548665 0)
(6.9054044 0.0014256436 0)
(3.7724605 -0.0012924229 0)
(6.7573772 0.0015520721 0)
(3.8910233 -0.0015364453 0)
(6.6184897 0.0017717078 0)
(4.0118681 -0.0017833173 0)
(6.4853039 0.0020407648 0)
(4.1294231 -0.002054785 0)
(6.3582916 0.0023696378 0)
(4.2402493 -0.0023642528 0)
(6.2384024 0.0027785665 0)
(4.3421363 -0.0027276427 0)
(6.1263943 0.003298683 0)
(4.4337497 -0.0031650144 0)
(6.0225796 0.0039787787 0)
(4.5143324 -0.0037012997 0)
(5.9267201 0.0048969409 0)
(4.5834546 -0.0043676176 0)
(5.8380129 0.0061768763 0)
(4.6408716 -0.0052027559 0)
(5.7551119 0.0080096059 0)
(4.6864993 -0.0062484066 0)
(5.6760888 0.010682214 0)
(4.7204591 -0.0075135478 0)
(5.5981429 0.014613043 0)
(4.7431534 -0.0088314069 0)
(5.516702 0.020375651 0)
(4.7553901 -0.0093533273 0)
(5.4230896 0.028610784 0)
(4.7583869 -0.0057439252 0)
(5.2986345 0.039569507 0)
(4.7513043 0.015548608 0)
(5.1027562 0.058079611 0)
(4.7272133 0.11949127 0)
(4.8003808 0.16788132 0)
(6.8932783 0.0020348464 0)
(3.7916912 -0.0018483835 0)
(6.743654 0.0022143852 0)
(3.9138643 -0.0021908339 0)
(6.6023954 0.0025207697 0)
(4.0384268 -0.0025340307 0)
(6.4663801 0.002892538 0)
(4.1600314 -0.0029063365 0)
(6.3360641 0.00334192 0)
(4.2753699 -0.0033233588 0)
(6.2123197 0.0038932643 0)
(4.3823729 -0.0038022193 0)
(6.0957922 0.0045835393 0)
(4.4798755 -0.0043623226 0)
(5.9866435 0.0054699086 0)
(4.567334 -0.0050235953 0)
(5.8844351 0.0066423187 0)
(4.6445966 -0.0058029012 0)
(5.7880891 0.0082387392 0)
(4.7117899 -0.0067049605 0)
(5.6958783 0.010459288 0)
(4.7693192 -0.0076913883 0)
(5.6053563 0.013570664 0)
(4.8179001 -0.0085756562 0)
(5.5130901 0.017874647 0)
(4.8584506 -0.0086982249 0)
(5.414046 0.023569366 0)
(4.8914255 -0.0059856997 0)
(5.3005972 0.030398028 0)
(4.9141971 0.0055740554 0)
(5.1616901 0.037985002 0)
(4.9133876 0.043367264 0)
(4.9866332 0.059802561 0)
(4.8659438 0.16564837 0)
(4.8237519 0.19531332 0)
(6.8767794 0.002662014 0)
(3.8174009 -0.0024245175 0)
(6.7248793 0.0028937167 0)
(3.9444279 -0.0028614428 0)
(6.580343 0.0032807128 0)
(4.0739998 -0.0032929472 0)
(6.4404514 0.0037437588 0)
(4.2010206 -0.0037514026 0)
(6.3056628 0.0042942196 0)
(4.3223016 -0.0042510161 0)
(6.1767912 0.0049561441 0)
(4.4358783 -0.0048045659 0)
(6.0544075 0.0057655088 0)
(4.5406824 -0.0054221559 0)
(5.9386003 0.0067773262 0)
(4.6362478 -0.0061051129 0)
(5.8288749 0.0080771242 0)
(4.7224581 -0.0068345336 0)
(5.7241427 0.0097918373 0)
(4.7993802 -0.0075470477 0)
(5.6227786 0.012091746 0)
(4.8671387 -0.0080716747 0)
(5.5227125 0.015167083 0)
(4.9256623 -0.0079541332 0)
(5.4215422 0.019144761 0)
(4.973977 -0.0059946203 0)
(5.31676 0.023910999 0)
(5.0085091 0.00084636878 0)
(5.206289 0.029089564 0)
(5.0198431 0.019623637 0)
(5.0890998 0.036980452 0)
(4.9901958 0.066229536 0)
(4.9682927 0.072192819 0)
(4.9154201 0.184401 0)
(4.8903849 0.22079542 0)
(6.8557465 0.0032997587 0)
(3.8496499 -0.0030140043 0)
(6.7008423 0.0035803493 0)
(3.9827342 -0.0035372209 0)
(6.5521051 0.0040370416 0)
(4.1185361 -0.0040431353 0)
(6.4073065 0.0045727522 0)
(4.252201 -0.0045644654 0)
(6.2669536 0.0051945098 0)
(4.3806006 -0.0051093348 0)
(6.1318694 0.0059207142 0)
(4.5017672 -0.0056795003 0)
(6.0026658 0.0067787999 0)
(4.6145495 -0.0062663697 0)
(5.8795519 0.0078115085 0)
(4.718272 -0.0068399673 0)
(5.7622929 0.0090874043 0)
(4.812409 -0.0073298191 0)
(5.6502921 0.010709334 0)
(4.8962973 -0.0075886291 0)
(5.5427956 0.012811401 0)
(4.9688267 -0.0073087158 0)
(5.4392107 0.015529917 0)
(5.0279525 -0.0058116166 0)
(5.3394813 0.018932518 0)
(5.0699136 -0.0015528673 0)
(5.2443166 0.022966823 0)
(5.0883549 0.0088702354 0)
(5.1545983 0.028114336 0)
(5.0743623 0.032156124 0)
(5.0690615 0.040521652 0)
(5.0209478 0.08158669 0)
(4.986663 0.090653353 0)
(4.9478746 0.18842186 0)
(4.9407033 0.23677907 0)
(6.8300249 0.003940842 0)
(3.8884831 -0.0036102666 0)
(6.6713556 0.0042641145 0)
(4.0287515 -0.0042068862 0)
(6.5175075 0.004774274 0)
(4.1718745 -0.0047667584 0)
(6.366839 0.0053563701 0)
(4.3131831 -0.0053184341 0)
(6.2199928 0.0060092157 0)
(4.4494902 -0.0058586872 0)
(6.0779337 0.0067401735 0)
(4.5786325 -0.0063716485 0)
(5.9415265 0.0075618484 0)
(4.6990844 -0.006822575 0)
(5.8114276 0.0084990375 0)
(4.8095446 -0.0071439238 0)
(5.6881384 0.0096021314 0)
(4.9085244 -0.0072139789 0)
(5.572186 0.010961705 0)
(4.9939933 -0.0068204677 0)
(5.4643923 0.012717484 0)
(5.0631047 -0.0055787275 0)
(5.3660771 0.015050701 0)
(5.1120866 -0.0027158827 0)
(5.278831 0.018153749 0)
(5.1365724 0.0034361506 0)
(5.2033391 0.022293634 0)
(5.1326783 0.016343487 0)
(5.1371969 0.029083231 0)
(5.0986197 0.042034264 0)
(5.0736398 0.047851112 0)
(5.0386667 0.091697194 0)
(5.0104727 0.10893528 0)
(4.9809938 0.18799802 0)
(4.9799229 0.24327814 0)
(6.7994708 0.004577263 0)
(3.933915 -0.0042057195 0)
(6.636262 0.0049335673 0)
(4.0823788 -0.0048576319 0)
(6.4764422 0.0054752432 0)
(4.2337229 -0.0054439166 0)
(6.3190703 0.0060696497 0)
(4.383353 -0.0059839536 0)
(6.1650639 0.006703723 0)
(4.5278361 -0.0064581751 0)
(6.0157435 0.0073697296 0)
(4.6645336 -0.0068284396 0)
(5.8725471 0.0080631179 0)
(4.7911625 -0.0070320751 0)
(5.737024 0.0087942598 0)
(4.9053256 -0.0069706208 0)
(5.6109519 0.0096123694 0)
(5.0041174 -0.0064961862 0)
(5.4964643 0.010637919 0)
(5.0839777 -0.0053880076 0)
(5.3959751 0.012094087 0)
(5.1410155 -0.0032744774 0)
(5.3115281 0.014307663 0)
(5.1720107 0.00062350373 0)
(5.243296 0.017643241 0)
(5.1758871 0.0081081972 0)
(5.1878418 0.022616091 0)
(5.1544521 0.022749534 0)
(5.1379055 0.031883222 0)
(5.1115601 0.049819778 0)
(5.085475 0.05705958 0)
(5.0555269 0.098971017 0)
(5.0335737 0.12410846 0)
(5.0135884 0.18713537 0)
(5.0150115 0.24256383 0)
(6.7639576 0.0051999046 0)
(3.9859172 -0.004791268 0)
(6.5954446 0.0055756867 0)
(4.1434291 -0.0054746727 0)
(6.4288844 0.0061209956 0)
(4.303637 -0.0060524401 0)
(6.2641764 0.0066862165 0)
(4.4618489 -0.0065298821 0)
(6.1027192 0.0072438904 0)
(4.6141262 -0.0068676727 0)
(5.9464935 0.0077702883 0)
(4.7570024 -0.0070052799 0)
(5.7979302 0.0082484861 0)
(4.8870157 -0.0068603325 0)
(5.6599657 0.008691411 0)
(5.0003016 -0.0063282455 0)
(5.5360457 0.0091847056 0)
(5.0925039 -0.005284579 0)
(5.4297759 0.0099405002 0)
(5.1593546 -0.0035684501 0)
(5.3438456 0.011329053 0)
(5.1981027 -0.00085882801 0)
(5.2781986 0.013816272 0)
(5.2092274 0.0036996431 0)
(5.2285285 0.017781119 0)
(5.1967826 0.012229232 0)
(5.1870004 0.023871486 0)
(5.1662077 0.028301338 0)
(5.1453184 0.035918085 0)
(5.1221785 0.056242247 0)
(5.0988731 0.066765412 0)
(5.0733931 0.10485993 0)
(5.0561983 0.13539464 0)
(5.0440299 0.18654182 0)
(5.0473866 0.23723189 0)
(6.7233821 0.0057985508 0)
(4.0444053 -0.0053562592 0)
(6.5488383 0.0061759668 0)
(4.2116118 -0.0060413487 0)
(6.374912 0.0066911769 0)
(4.3809988 -0.0065684 0)
(6.2025204 0.0071793562 0)
(4.5475371 -0.0069247716 0)
(6.0338249 0.0075985145 0)
(4.7064582 -0.0070513256 0)
(5.8718615 0.0079133757 0)
(4.8530746 -0.0068726158 0)
(5.7205289 0.0081095469 0)
(4.9823928 -0.0063085702 0)
(5.5845382 0.008234673 0)
(5.0890438 -0.0052913999 0)
(5.4688886 0.0084617153 0)
(5.1679986 -0.0037766607 0)
(5.3773979 0.0091425318 0)
(5.2163298 -0.0016890045 0)
(5.3103763 0.010777175 0)
(5.2352344 0.001319035 0)
(5.2630026 0.01382119 0)
(5.2302506 0.0063810622 0)
(5.2265888 0.018505948 0)
(5.2084622 0.015963956 0)
(5.1923773 0.025758674 0)
(5.1749146 0.033270405 0)
(5.1546459 0.040757476 0)
(5.1330972 0.061804065 0)
(5.1127802 0.076042227 0)
(5.0918678 0.11009328 0)
(5.0785933 0.14299765 0)
(5.0720947 0.18580102 0)
(5.0770933 0.22961204 0)
(6.677673 0.0063619794 0)
(4.1092253 -0.0058885114 0)
(6.4964441 0.0067186305 0)
(4.2865151 -0.0065393956 0)
(6.3147294 0.0071646484 0)
(4.4649951 -0.0069669611 0)
(6.1346879 0.0075235038 0)
(4.6389934 -0.0071390012 0)
(5.9596067 0.007742453 0)
(4.8025401 -0.0069820963 0)
(5.7940391 0.0077867446 0)
(4.9493625 -0.006423948 0)
(5.6437792 0.0076712863 0)
(5.0728191 -0.0054234678 0)
(5.5153268 0.0075217754 0)
(5.16665 -0.0039998362 0)
(5.4141716 0.0076407246 0)
(5.2270165 -0.002213938 0)
(5.3418295 0.0085072566 0)
(5.2550473 -1.0252901e-05 0)
(5.293568 0.010629024 0)
(5.2572688 0.0031520978 0)
(5.2597986 0.014283275 0)
(5.2423504 0.0088035192 0)
(5.2306773 0.0195925 0)
(5.2167024 0.019511202 0)
(5.1997996 0.028092062 0)
(5.1831803 0.037800694 0)
(5.16454 0.046090647 0)
(5.1447183 0.066847584 0)
(5.1270983 0.084296758 0)
(5.1105024 0.11489928 0)
(5.1006277 0.14760379 0)
(5.0979961 0.18441624 0)
(5.1042289 0.22130535 0)
(6.6268001 0.0068780769 0)
(4.1801402 -0.0063743659 0)
(6.4383462 0.0071869282 0)
(4.367588 -0.006949341 0)
(6.248695 0.0075203096 0)
(4.5545968 -0.0072235635 0)
(6.061526 0.0076961303 0)
(4.7344883 -0.0071475553 0)
(5.8816889 0.0076603053 0)
(4.899712 -0.0066471517 0)
(5.7157247 0.0074001103 0)
(5.0421868 -0.0056835706 0)
(5.571516 0.0069969937 0)
(5.1539907 -0.004300533 0)
(5.4566115 0.0066956392 0)
(5.2295483 -0.0026355844 0)
(5.3747012 0.0069269275 0)
(5.2689202 -0.00080741732 0)
(5.3221072 0.0081998301 0)
(5.2790488 0.0013622983 0)
(5.288583 0.010877046 0)
(5.2702155 0.0047405745 0)
(5.2627696 0.015029227 0)
(5.2506254 0.011148657 0)
(5.2369608 0.020881688 0)
(5.2240192 0.022954598 0)
(5.2078115 0.030806716 0)
(5.191695 0.041977226 0)
(5.1747295 0.05161514 0)
(5.1569436 0.071605582 0)
(5.141791 0.091258758 0)
(5.128996 0.11917706 0)
(5.1220835 0.15002387 0)
(5.122012 0.1821622 0)
(5.1290047 0.2130752 0)
(6.5707855 0.0073340094 0)
(4.2568153 -0.0067988149 0)
(6.3747315 0.0075635666 0)
(4.454122 -0.0072511043 0)
(6.1773513 0.0077381896 0)
(4.6485404 -0.0073155401 0)
(5.9841815 0.007680077 0)
(4.8319835 -0.0069335118 0)
(5.802118 0.0073505252 0)
(4.9950005 -0.0060537279 0)
(5.6400523 0.0067901067 0)
(5.1277955 -0.0047119177 0)
(5.5076174 0.0061872335 0)
(5.2223264 -0.0030753239 0)
(5.4115341 0.0059190881 0)
(5.2762991 -0.0013766704 0)
(5.3505631 0.0064720808 0)
(5.2960444 0.00032991724 0)
(5.3145157 0.0082446103 0)
(5.2933943 0.0024788183 0)
(5.2902636 0.011395557 0)
(5.2787951 0.0062382344 0)
(5.2682049 0.015905003 0)
(5.2576 0.013522494 0)
(5.2438875 0.022326572 0)
(5.2312146 0.026288361 0)
(5.2160197 0.033861299 0)
(5.200571 0.045884543 0)
(5.1851731 0.057045791 0)
(5.1695927 0.076182469 0)
(5.1567682 0.096920763 0)
(5.1471593 0.12271258 0)
(5.1427621 0.15092344 0)
(5.1443772 0.17908333 0)
(5.1516903 0.20513613 0)
(6.5097165 0.0077164706 0)
(4.3388029 -0.00714575 0)
(6.3059124 0.0078313115 0)
(4.5452328 -0.0074248751 0)
(6.1014585 0.0078008624 0)
(4.7453135 -0.0072242577 0)
(5.9041361 0.0074663458 0)
(4.929143 -0.006492186 0)
(5.7233573 0.0068296432 0)
(5.0852213 -0.0052345913 0)
(5.5704178 0.0060228356 0)
(5.2027036 -0.0036050322 0)
(5.4554415 0.0053687689 0)
(5.2756446 -0.0018978482 0)
(5.3812359 0.0053334485 0)
(5.3080096 -0.00034151255 0)
(5.339181 0.0063287302 0)
(5.3125816 0.001207681 0)
(5.3144299 0.0085593261 0)
(5.3025849 0.0034624558 0)
(5.2948783 0.012048507 0)
(5.285654 0.0077608617 0)
(5.2743894 0.016836582 0)
(5.2641973 0.015949051 0)
(5.2509683 0.023939119 0)
(5.2384771 0.029484881 0)
(5.2243231 0.037186083 0)
(5.2097762 0.049611574 0)
(5.1958603 0.062163789 0)
(5.1824901 0.080556969 0)
(5.1718825 0.10142134 0)
(5.1648737 0.12535905 0)
(5.162525 0.15074902 0)
(5.165255 0.17537302 0)
(5.1725554 0.19749992 0)
(6.4437603 0.0080120255 0)
(4.4255262 -0.0073983741 0)
(6.2323525 0.0079738019 0)
(4.639843 -0.0074523346 0)
(6.0220276 0.0076952234 0)
(4.8431453 -0.0069378236 0)
(5.8232294 0.0070572698 0)
(5.0233683 -0.0058356535 0)
(5.6482269 0.0061359055 0)
(5.1671579 -0.0042513791 0)
(5.5101562 0.0051914032 0)
(5.2641798 -0.0024837053 0)
(5.417086 0.004670329 0)
(5.3137765 -0.00089253204 0)
(5.3644229 0.0050160376 0)
(5.3279028 0.00044090563 0)
(5.3365005 0.0064535303 0)
(5.3228573 0.0019169599 0)
(5.3180213 0.00903059 0)
(5.3094873 0.0044234842 0)
(5.300461 0.012749976 0)
(5.291901 0.0093646637 0)
(5.2807071 0.017808242 0)
(5.2706599 0.018404448 0)
(5.25806 0.025743201 0)
(5.2458326 0.032536191 0)
(5.2326848 0.040676935 0)
(5.2192348 0.053230662 0)
(5.2067638 0.066840415 0)
(5.1954872 0.084627047 0)
(5.186958 0.10493762 0)
(5.1820521 0.12709893 0)
(5.1812985 0.14978005 0)
(5.1847519 0.17125187 0)
(5.1918259 0.19015807 0)
(6.3731808 0.008207562 0)
(4.5162631 -0.0075398212 0)
(6.1546938 0.007976608 0)
(4.7366666 -0.0073182791 0)
(5.9403527 0.0074146399 0)
(4.9400089 -0.0064543287 0)
(5.7436604 0.0064698479 0)
(5.1118723 -0.0049970006 0)
(5.5797606 0.0053310498 0)
(5.2378484 -0.0031929684 0)
(5.4620294 0.0044050809 0)
(5.3108464 -0.0014693378 0)
(5.3926882 0.0041880371 0)
(5.3387232 -0.00011953516 0)
(5.3578439 0.0049616085 0)
(5.3400366 0.0010249834 0)
(5.3386041 0.0067559232 0)
(5.3300383 0.0025564308 0)
(5.3229753 0.0095720419 0)
(5.3154753 0.0054305754 0)
(5.3062049 0.013461094 0)
(5.2978731 0.011060638 0)
(5.286968 0.01883527 0)
(5.277023 0.020848509 0)
(5.2650994 0.027749796 0)
(5.2532636 0.035458874 0)
(5.2410822 0.044215622 0)
(5.2288562 0.056774025 0)
(5.2178234 0.07102732 0)
(5.2084618 0.08826984 0)
(5.2018233 0.10762245 0)
(5.1986152 0.1280071 0)
(5.1990548 0.14819664 0)
(5.2029455 0.16689433 0)
(5.2096717 0.18311756 0)
(6.298357 0.0082908651 0)
(4.6101288 -0.0075540363 0)
(6.0737866 0.0078285697 0)
(4.8341966 -0.007012691 0)
(5.858036 0.0069614505 0)
(5.0336385 -0.0057854663 0)
(5.6679498 0.0057387766 0)
(5.1918137 -0.0040329993 0)
(5.520931 0.0044980906 0)
(5.2950161 -0.0021652851 0)
(5.4275508 0.003767675 0)
(5.3432036 -0.00064999114 0)
(5.3802194 0.0039552832 0)
(5.3539878 0.00043757491 0)
(5.3576087 0.0051050904 0)
(5.3479057 0.0015004934 0)
(5.3427271 0.0071524962 0)
(5.3358571 0.0031970038 0)
(5.3282134 0.010136431 0)
(5.3210427 0.0065152776 0)
(5.3118343 0.014171955 0)
(5.3036247 0.012835607 0)
(5.2930979 0.019945565 0)
(5.283275 0.023243027 0)
(5.2720389 0.029946644 0)
(5.2607314 0.038283821 0)
(5.249492 0.047695066 0)
(5.2385471 0.060226592 0)
(5.2289465 0.074725815 0)
(5.2213044 0.091394514 0)
(5.2163302 0.10958281 0)
(5.2144851 0.12819569 0)
(5.2157872 0.14612853 0)
(5.2199001 0.16241499 0)
(5.2262159 0.17638617 0)
(6.2198033 0.0082513288 0)
(4.7060602 -0.0074269733 0)
(5.9907178 0.007523439 0)
(4.9306985 -0.0065332698 0)
(5.7769992 0.0063497027 0)
(5.1215745 -0.0049601146 0)
(5.5988358 0.0049182525 0)
(5.2605261 -0.0030229499 0)
(5.4742 0.0037322112 0)
(5.3376294 -0.0012700249 0)
(5.4063498 0.0033480783 0)
(5.3636684 -5.2146541e-05 0)
(5.3761769 0.0039396813 0)
(5.3632902 0.00084710965 0)
(5.3604652 0.0053674081 0)
(5.3537254 0.0019387609 0)
(5.3474071 0.0075920753 0)
(5.3410445 0.0038782554 0)
(5.3333179 0.010701216 0)
(5.3262991 0.0076871706 0)
(5.3172509 0.014888227 0)
(5.3091343 0.014664603 0)
(5.2990412 0.021168217 0)
(5.2893912 0.025564215 0)
(5.2788353 0.032296986 0)
(5.2681804 0.041043555 0)
(5.2578804 0.051035489 0)
(5.2482166 0.063536521 0)
(5.2400192 0.077956983 0)
(5.2339064 0.093962004 0)
(5.2303538 0.11089578 0)
(5.2295897 0.12778149 0)
(5.2314944 0.14368319 0)
(5.2356707 0.15788775 0)
(5.2415481 0.1699632 0)
(6.1381911 0.0080808186 0)
(4.8027996 -0.0071481652 0)
(5.9068377 0.0070618326 0)
(5.0242131 -0.005888359 0)
(5.699468 0.005607865 0)
(5.2012522 -0.0040269989 0)
(5.5390633 0.0040808843 0)
(5.3158858 -0.0020606319 0)
(5.4408879 0.0031222973 0)
(5.3664217 -0.00057502791 0)
(5.3960419 0.0031568652 0)
(5.3757982 0.00036129969 0)
(5.3769163 0.004072805 0)
(5.3694522 0.0011834478 0)
(5.364394 0.0056905094 0)
(5.3585728 0.002384462 0)
(5.3520046 0.0080475164 0)
(5.3458155 0.0046187219 0)
(5.3381363 0.011257512 0)
(5.331227 0.0089445254 0)
(5.3223954 0.015624821 0)
(5.3143643 0.016516191 0)
(5.3047409 0.02252566 0)
(5.2953363 0.027806754 0)
(5.2854473 0.034746073 0)
(5.2755426 0.043759101 0)
(5.2661963 0.054187999 0)
(5.257775 0.066634821 0)
(5.2509186 0.080742632 0)
(5.2461556 0.095975207 0)
(5.2437882 0.11162978 0)
(5.2438646 0.12687307 0)
(5.2461718 0.14095593 0)
(5.2502989 0.15336594 0)
(5.2557314 0.16384154 0)
(6.0543708 0.0077746935 0)
(4.8988818 -0.0067127107 0)
(5.8237778 0.0064534588 0)
(5.1125759 -0.0051000614 0)
(5.6279113 0.0047809278 0)
(5.2701664 -0.0030547539 0)
(5.4910149 0.003311196 0)
(5.3568377 -0.0012366119 0)
(5.4205192 0.0027247941 0)
(5.3839468 -9.0286913e-05 0)
(5.3930099 0.0031498562 0)
(5.383015 0.00066022719 0)
(5.3796863 0.0042886903 0)
(5.3740703 0.0014986657 0)
(5.3684123 0.0060431325 0)
(5.362844 0.0028603566 0)
(5.3562692 0.0085054631 0)
(5.3501817 0.0054273969 0)
(5.3425928 0.011803979 0)
(5.3357764 0.010277823 0)
(5.3272093 0.016403713 0)
(5.3192717 0.018356237 0)
(5.3101365 0.024027634 0)
(5.3010625 0.029979349 0)
(5.291831 0.037232741 0)
(5.2827424 0.046430892 0)
(5.2743679 0.057127205 0)
(5.2671297 0.069457305 0)
(5.261521 0.083096718 0)
(5.2579374 0.0974628 0)
(5.2565394 0.11185065 0)
(5.2572526 0.12556313 0)
(5.2598089 0.13802662 0)
(5.2638103 0.14888912 0)
(5.2688055 0.15800971 0)
(5.9693926 0.0073329917 0)
(4.9926252 -0.006123686 0)
(5.7434541 0.0057195003 0)
(5.1934643 -0.0042070358 0)
(5.5649003 0.0039307322 0)
(5.3261549 -0.0021268234 0)
(5.4561372 0.0026909729 0)
(5.3839717 -0.00061170266 0)
(5.4106111 0.0025418682 0)
(5.3937781 0.00023002674 0)
(5.3937625 0.0032599784 0)
(5.3876809 0.00090728402 0)
(5.3829381 0.0045464185 0)
(5.3778406 0.0018217385 0)
(5.3720986 0.0064095139 0)
(5.3666169 0.0033776214 0)
(5.360089 0.0089586932 0)
(5.3540909 0.0063087479 0)
(5.3466228 0.012345023 0)
(5.3398875 0.011670278 0)
(5.3316265 0.017251174 0)
(5.3238079 0.02015523 0)
(5.3151655 0.025666388 0)
(5.3065086 0.032098316 0)
(5.2979363 0.039701646 0)
(5.2896985 0.049037847 0)
(5.2823047 0.059839762 0)
(5.2761805 0.071959201 0)
(5.2717053 0.08502719 0)
(5.2691373 0.09846582 0)
(5.2685195 0.11162334 0)
(5.2697007 0.12392889 0)
(5.2723889 0.1349586 0)
(5.2762144 0.14448565 0)
(5.2807892 0.15245376 0)
(5.8845256 0.00676177 0)
(5.0821308 -0.0053949187 0)
(5.6680413 0.0048948585 0)
(5.2644954 -0.0032658863 0)
(5.5128402 0.0031324986 0)
(5.367857 -0.001328208 0)
(5.4342322 0.00227596 0)
(5.3997398 -0.00019246284 0)
(5.407432 0.0025249268 0)
(5.3991902 0.00045482954 0)
(5.3958559 0.0034310482 0)
(5.3910072 0.0011415039 0)
(5.385953 0.0048257702 0)
(5.3809741 0.0021661092 0)
(5.3752723 0.0067817827 0)
(5.3698523 0.0039434378 0)
(5.3633855 0.009402779 0)
(5.3574727 0.0072630793 0)
(5.3501575 0.012890472 0)
(5.3434963 0.013098821 0)
(5.3355733 0.018192091 0)
(5.3279163 0.021897795 0)
(5.3197631 0.027416579 0)
(5.3116011 0.034181314 0)
(5.3037016 0.0421093 0)
(5.2963253 0.051544582 0)
(5.2899028 0.062313739 0)
(5.2848179 0.07411889 0)
(5.281353 0.086542015 0)
(5.2796441 0.09902806 0)
(5.2796438 0.11101032 0)
(5.2811558 0.12203526 0)
(5.2838875 0.13180081 0)
(5.2875056 0.14017463 0)
(5.2916818 0.14715855 0)
(5.8012688 0.0060745651 0)
(5.1652959 -0.0045539047 0)
(5.5998964 0.0040295978 0)
(5.3234092 -0.0023492033 0)
(5.4735023 0.0024648005 0)
(5.3953351 -0.00072254763 0)
(5.4230052 0.002071981 0)
(5.4077572 6.905838e-05 0)
(5.4074589 0.0026075718 0)
(5.4022925 0.00063973446 0)
(5.3980088 0.0036322131 0)
(5.3934608 0.0013822753 0)
(5.3884171 0.0051172098 0)
(5.3834724 0.0025384537 0)
(5.377829 0.0071548913 0)
(5.3724753 0.004563753 0)
(5.3660816 0.0098359255 0)
(5.3602491 0.0082855938 0)
(5.3531206 0.013455889 0)
(5.3465345 0.014535586 0)
(5.3389698 0.019244194 0)
(5.331531 0.023584279 0)
(5.3238623 0.029239802 0)
(5.3162577 0.0362399 0)
(5.3090518 0.044424237 0)
(5.3025306 0.053911128 0)
(5.2970501 0.064534003 0)
(5.2929242 0.075931629 0)
(5.2903456 0.087656303 0)
(5.2893512 0.099193505 0)
(5.2898298 0.11006989 0)
(5.2915631 0.11993769 0)
(5.2942725 0.12859167 0)
(5.2976653 0.13596863 0)
(5.3014669 0.14210891 0)
(5.7213513 0.0052938963 0)
(5.2398548 -0.0036442974 0)
(5.5413929 0.0031882292 0)
(5.3684013 -0.0015374699 0)
(5.4473178 0.0019906251 0)
(5.4105755 -0.00032524872 0)
(5.4185999 0.0020318012 0)
(5.4113656 0.00024255005 0)
(5.408354 0.0027385978 0)
(5.4040718 0.00081576263 0)
(5.3996447 0.0038494332 0)
(5.3951431 0.0016377274 0)
(5.3901759 0.0054160369 0)
(5.3852655 0.0029437109 0)
(5.3796804 0.0075243565 0)
(5.3744006 0.0052431414 0)
(5.3680967 0.010260022 0)
(5.362339 0.0093654347 0)
(5.3554302 0.014062628 0)
(5.3489318 0.015951487 0)
(5.3417347 0.020412898 0)
(5.3345774 0.025224731 0)
(5.3273944 0.031093336 0)
(5.3203912 0.03827251 0)
(5.3139001 0.04662428 0)
(5.3082167 0.056100499 0)
(5.3036319 0.066484351 0)
(5.3003791 0.077400418 0)
(5.298567 0.088393863 0)
(5.2981571 0.099006757 0)
(5.2989982 0.10885578 0)
(5.3008662 0.11768427 0)
(5.3035053 0.12536249 0)
(5.3066638 0.13187655 0)
(5.310115 0.137291 0)
(5.6467097 0.004452646 0)
(5.3034696 -0.0027267406 0)
(5.4946016 0.0024445748 0)
(5.3986715 -0.00090188705 0)
(5.432619 0.0017316534 0)
(5.4171578 -9.3470744e-05 0)
(5.4171958 0.0020864403 0)
(5.4126362 0.00038186483 0)
(5.4089513 0.0028919816 0)
(5.4048548 0.00099668022 0)
(5.4005031 0.004076604 0)
(5.3960124 0.0019118009 0)
(5.3911254 0.0057190229 0)
(5.3862671 0.003386811 0)
(5.3807421 0.0078860731 0)
(5.3755424 0.0059833862 0)
(5.369351 0.010681178 0)
(5.363664 0.010485758 0)
(5.3570036 0.014734316 0)
(5.3506191 0.017325631 0)
(5.3437917 0.021688371 0)
(5.3369777 0.026833445 0)
(5.3302911 0.03294028 0)
(5.3239167 0.040262506 0)
(5.3181543 0.048692774 0)
(5.3132833 0.058082523 0)
(5.3095362 0.068152648 0)
(5.3070674 0.078531226 0)
(5.3059086 0.088781259 0)
(5.3059692 0.098509554 0)
(5.3070759 0.10741444 0)
(5.3090106 0.11531452 0)
(5.3115451 0.12213747 0)
(5.3144664 0.12790352 0)
(5.3175901 0.13269132 0)
(5.5794267 0.0035949768 0)
(5.3539164 -0.0018758872 0)
(5.4607238 0.0018692753 0)
(5.4151463 -0.00047808981 0)
(5.4256077 0.0016518121 0)
(5.4187529 4.635719e-05 0)
(5.416308 0.0021835323 0)
(5.4124609 0.00051381924 0)
(5.4087528 0.0030568218 0)
(5.4046862 0.0011872991 0)
(5.4004513 0.0043105094 0)
(5.3959945 0.0022073307 0)
(5.3911841 0.0060226435 0)
(5.3863992 0.0038724509 0)
(5.3809425 0.0082373032 0)
(5.3758277 0.0067820672 0)
(5.369776 0.011109896 0)
(5.3641603 0.011624681 0)
(5.35777 0.015491355 0)
(5.3515382 0.018652722 0)
(5.3450794 0.023047906 0)
(5.3386631 0.028424191 0)
(5.3324921 0.034753403 0)
(5.3267604 0.042182688 0)
(5.3217286 0.050613184 0)
(5.3176378 0.05983502 0)
(5.3146632 0.069532198 0)
(5.312888 0.079334897 0)
(5.3122791 0.088847146 0)
(5.312712 0.097741339 0)
(5.3140047 0.10578659 0)
(5.3159531 0.11286146 0)
(5.318358 0.1189359 0)
(5.3210427 0.12405278 0)
(5.3238595 0.12829775 0)
(5.5215998 0.002775865 0)
(5.3894469 -0.0011703576 0)
(5.4392308 0.0015073931 0)
(5.4208557 -0.00024128176 0)
(5.4218902 0.0016774184 0)
(5.4177172 0.00015120075 0)
(5.4148045 0.002296875 0)
(5.4111355 0.00064758359 0)
(5.4075742 0.003227624 0)
(5.4035476 0.0013887551 0)
(5.3994315 0.0045481616 0)
(5.3950441 0.0025266865 0)
(5.3903094 0.0063225054 0)
(5.3856184 0.0044039689 0)
(5.3802438 0.0085779239 0)
(5.3752168 0.0076314921 0)
(5.3693335 0.011561993 0)
(5.3637967 0.012756304 0)
(5.3576894 0.016346138 0)
(5.3516573 0.019939757 0)
(5.3455678 0.02446038 0)
(5.339592 0.030005196 0)
(5.3339591 0.036512252 0)
(5.3288749 0.044003909 0)
(5.3245619 0.052364741 0)
(5.3212117 0.061344036 0)
(5.3189413 0.070618886 0)
(5.3177706 0.079826245 0)
(5.3176191 0.088621581 0)
(5.3183407 0.09673966 0)
(5.3197548 0.10400884 0)
(5.3216754 0.11035389 0)
(5.3239324 0.11577453 0)
(5.3263821 0.12032761 0)
(5.3289089 0.12410087 0)
(5.4750891 0.002057216 0)
(5.4094477 -0.00067225713 0)
(5.4271193 0.0013502019 0)
(5.4199942 -0.00012142188 0)
(5.4185161 0.0017436979 0)
(5.4151313 0.00024590321 0)
(5.4123404 0.0024153459 0)
(5.408784 0.00078513084 0)
(5.4054031 0.0034013937 0)
(5.4014655 0.0016017495 0)
(5.3974643 0.0047866392 0)
(5.3931813 0.0028725038 0)
(5.3885244 0.0066143966 0)
(5.3839432 0.004982515 0)
(5.3786685 0.0089115631 0)
(5.3737294 0.0085185884 0)
(5.3680405 0.012057888 0)
(5.3625982 0.013857009 0)
(5.3567782 0.017297537 0)
(5.3509934 0.021199396 0)
(5.3452787 0.025893913 0)
(5.3397731 0.031574872 0)
(5.3346973 0.038200273 0)
(5.3302576 0.045700948 0)
(5.3266396 0.053925126 0)
(5.3239827 0.062601421 0)
(5.322347 0.071413143 0)
(5.3216975 0.080021156 0)
(5.3219216 0.088132529 0)
(5.322862 0.095537575 0)
(5.3243449 0.10211237 0)
(5.326205 0.10781584 0)
(5.3282996 0.1126673 0)
(5.3305148 0.11673098 0)
(5.3327631 0.12009328 0)
(5.4410615 0.0014973145 0)
(5.4154713 -0.00039709213 0)
(5.4196852 0.001324716 0)
(5.4161785 -5.0302206e-05 0)
(5.414493 0.0018180654 0)
(5.4114874 0.00033675404 0)
(5.4089594 0.0025336292 0)
(5.405564 0.00092596272 0)
(5.40236 0.0035756326 0)
(5.3985593 0.0018270767 0)
(5.394666 0.0050226277 0)
(5.3905151 0.0032477525 0)
(5.3859393 0.0068951196 0)
(5.3814757 0.0056066591 0)
(5.37632 0.0092450261 0)
(5.3714665 0.0094270337 0)
(5.36599 0.012616926 0)
(5.3606653 0.014918153 0)
(5.3551302 0.018331274 0)
(5.3496342 0.022447717 0)
(5.3443051 0.027324327 0)
(5.3392866 0.033121947 0)
(5.3347783 0.039803643 0)
(5.3309714 0.04725451 0)
(5.328015 0.0552772 0)
(5.3259977 0.063603209 0)
(5.324927 0.07192383 0)
(5.3247237 0.079939868 0)
(5.3252534 0.0874078 0)
(5.3263548 0.094165084 0)
(5.3278646 0.10012431 0)
(5.3296376 0.10526801 0)
(5.3315566 0.10962664 0)
(5.3335345 0.11326656 0)
(5.3355091 0.11627043 0)
(5.4192737 0.0011296131 0)
(5.4123747 -0.00030388623 0)
(5.413464 0.0013431816 0)
(5.4112689 1.5003051e-06 0)
(5.4098963 0.0018879417 0)
(5.407217 0.00042325508 0)
(5.4049448 0.0026487777 0)
(5.4017549 0.0010694421 0)
(5.3987021 0.0037479068 0)
(5.3950679 0.0020660275 0)
(5.3912672 0.0052524392 0)
(5.3872613 0.0036553572 0)
(5.3827672 0.0071635806 0)
(5.3784174 0.006272074 0)
(5.3733972 0.0095890866 0)
(5.3686243 0.010337419 0)
(5.3633677 0.013254196 0)
(5.358187 0.015946181 0)
(5.3529309 0.019426474 0)
(5.3477542 0.023699435 0)
(5.3428244 0.028738244 0)
(5.3382988 0.034628423 0)
(5.3343563 0.041310867 0)
(5.331161 0.048650164 0)
(5.3288248 0.056414931 0)
(5.3273901 0.064350605 0)
(5.3268161 0.072165169 0)
(5.3269925 0.079605117 0)
(5.3277699 0.086473498 0)
(5.3289868 0.092647111 0)
(5.3304909 0.098065026 0)
(5.3321554 0.10272426 0)
(5.3338855 0.10665916 0)
(5.3356181 0.10993401 0)
(5.3373146 0.11262565 0)
(5.4075196 0.00093643026 0)
(5.4070011 -0.00029767192 0)
(5.4078592 0.0013597098 0)
(5.4063088 3.9335399e-05 0)
(5.4052273 0.0019501266 0)
(5.4028408 0.00050561099 0)
(5.4007432 0.0027598601 0)
(5.3977613 0.0012164426 0)
(5.3948092 0.0039165682 0)
(5.3913418 0.0023212565 0)
(5.3876068 0.005473092 0)
(5.3837376 0.0040979016 0)
(5.3793207 0.0074224831 0)
(5.3750668 0.0069710489 0)
(5.3701911 0.0099607339 0)
(5.3654927 0.011228703 0)
(5.3604508 0.013977074 0)
(5.3554393 0.016952897 0)
(5.3504553 0.020561172 0)
(5.3456163 0.02496048 0)
(5.3410964 0.030129577 0)
(5.337061 0.03607494 0)
(5.33367 0.042711623 0)
(5.3310555 0.049878523 0)
(5.3292918 0.057342861 0)
(5.3283799 0.064856346 0)
(5.3282392 0.072159561 0)
(5.3287382 0.079044674 0)
(5.3297175 0.085356721 0)
(5.3310166 0.091005185 0)
(5.3324917 0.095947584 0)
(5.3340311 0.10018838 0)
(5.3355584 0.10376003 0)
(5.337032 0.10672131 0)
(5.3384362 0.10914162 0)
(5.4024085 0.00085755108 0)
(5.4028074 -0.0003118553 0)
(5.4034486 0.0013699244 0)
(5.4021296 7.034936e-05 0)
(5.4011104 0.0020074978 0)
(5.398918 0.00058693994 0)
(5.3968679 0.0028682707 0)
(5.3940476 0.0013701566 0)
(5.3911248 0.0040813322 0)
(5.3877928 0.0025973217 0)
(5.3840866 0.0056834316 0)
(5.3803238 0.0045770267 0)
(5.3759732 0.0076781471 0)
(5.3717856 0.0076934162 0)
(5.3670523 0.010379863 0)
(5.3624236 0.012089452 0)
(5.3575803 0.014779865 0)
(5.3527573 0.017954165 0)
(5.3480404 0.021717807 0)
(5.3435464 0.026230902 0)
(5.3394401 0.031492669 0)