/*--------------------------------*- C++ -*----------------------------------*\
  =========                 |
  \\      /  F ield         | OpenFOAM: The Open Source CFD Toolbox
   \\    /   O peration     | Website:  https://openfoam.org
    \\  /    A nd           | Version:  11
     \\/     M anipulation  |
\*---------------------------------------------------------------------------*/
FoamFile
{
    format      ascii;
    class       volVectorField;
    location    "1";
    object      UMean;
}
// * * * * * * * * * * * * * * * * * * * * * * * * * * * * * * * * * * * * * //

dimensions      [0 1 -1 0 0 0 0];

internalField   nonuniform List<vector> 
66675
(
(6.9027626 0.0002786098 0)
(3.7647222 -0.00025402417 0)
(6.7606436 0.00030262453 0)
(3.8763207 -0.00030193749 0)
(6.6270898 0.00034576048 0)
(3.9911594 -0.0003506262 0)
(6.4987599 0.00039905276 0)
(4.1031199 -0.00040467676 0)
(6.3764134 0.00046482017 0)
(4.208382 -0.00046718508 0)
(6.2612988 0.00054753926 0)
(4.3043925 -0.00054195209 0)
(6.1544632 0.00065417138 0)
(4.3894629 -0.00063406582 0)
(6.0565352 0.00079581748 0)
(4.4624142 -0.00075046652 0)
(5.9676712 0.00099054645 0)
(4.5222578 -0.00090103546 0)
(5.8876174 0.001267853 0)
(4.5679331 -0.001100695 0)
(5.8158676 0.0016757623 0)
(4.5980655 -0.001372715 0)
(5.7518797 0.0022933411 0)
(4.6105971 -0.0017525604 0)
(5.6953075 0.0032557361 0)
(4.6020086 -0.0022906157 0)
(5.6462434 0.004813079 0)
(4.5655525 -0.0030529178 0)
(5.6055384 0.007503058 0)
(4.4868054 -0.0041437958 0)
(5.575055 0.012895153 0)
(4.3298918 -0.0062062646 0)
(5.5547849 0.029389212 0)
(3.9820749 -0.01331487 0)
(5.5493395 0.14666576 0)
(6.8989315 0.00084433186 0)
(3.7710951 -0.00076714747 0)
(6.7563599 0.0009180141 0)
(3.883839 -0.00091213429 0)
(6.6220907 0.0010488496 0)
(3.9998309 -0.0010595483 0)
(6.4929002 0.0012100452 0)
(4.1130466 -0.0012228208 0)
(6.3695385 0.001408424 0)
(4.2197256 -0.0014109001 0)
(6.2532193 0.0016571068 0)
(4.3173837 -0.0016346627 0)
(6.1449355 0.0019764251 0)
(4.4044224 -0.0019084753 0)
(6.0452367 0.0023986654 0)
(4.4797897 -0.0022515173 0)
(5.9541601 0.0029761043 0)
(4.5426874 -0.0026902943 0)
(5.8712645 0.003793343 0)
(4.5923578 -0.0032632947 0)
(5.7957319 0.0049861387 0)
(4.6279373 -0.0040269757 0)
(5.7264722 0.0067726794 0)
(4.6482854 -0.0050568806 0)
(5.6621047 0.0095113243 0)
(4.6516622 -0.0064244121 0)
(5.6005897 0.013820912 0)
(4.6351384 -0.0080834412 0)
(5.5378355 0.020856343 0)
(4.593672 -0.0093319775 0)
(5.4624487 0.032911911 0)
(4.5186808 -0.0051739349 0)
(5.3342599 0.055623871 0)
(4.4021082 0.051260324 0)
(5.0225364 0.1454823 0)
(6.8910946 0.0014306329 0)
(3.7838157 -0.0012985307 0)
(6.7475271 0.0015564327 0)
(3.8989275 -0.0015420571 0)
(6.6117405 0.0017760221 0)
(4.0173392 -0.0017887214 0)
(6.4807314 0.0020449328 0)
(4.133195 -0.002059904 0)
(6.3552331 0.0023736421 0)
(4.2428415 -0.0023691297 0)
(6.236394 0.0027823691 0)
(4.3439164 -0.0027322423 0)
(6.1251084 0.0033021714 0)
(4.4349788 -0.0031692726 0)
(6.0217856 0.0039818985 0)
(4.5151922 -0.0037051975 0)
(5.9262588 0.0048996506 0)
(4.5840699 -0.0043712092 0)
(5.8377764 0.0061791077 0)
(4.6413282 -0.0052061633 0)
(5.7550286 0.0080112551 0)
(4.6868563 -0.0062517948 0)
(5.6761118 0.010683166 0)
(4.7207572 -0.0075170908 0)
(5.5982411 0.014613222 0)
(4.7434204 -0.0088352386 0)
(5.5168541 0.020375014 0)
(4.7556442 -0.0093574576 0)
(5.42328 0.028609213 0)
(4.7586399 -0.0057474538 0)
(5.2988518 0.039567128 0)
(4.7515631 0.015544124 0)
(5.1029924 0.05807564 0)
(4.7274787 0.11948779 0)
(4.8006377 0.1678789 0)
(6.8790911 0.0020421158 0)
(3.8029124 -0.0018572225 0)
(6.7339065 0.0022207406 0)
(3.9216449 -0.0021989744 0)
(6.5957345 0.0025270515 0)
(4.0437869 -0.0025418806 0)
(6.4618837 0.0028986087 0)
(4.1637047 -0.0029137838 0)
(6.3330711 0.0033477534 0)
(4.2778756 -0.0033304629 0)
(6.2103671 0.0038988038 0)
(4.384078 -0.0038089257 0)
(6.094553 0.0045886239 0)
(4.4810403 -0.0043685366 0)
(5.9858879 0.0054744588 0)
(4.568139 -0.0050292858 0)
(5.8840045 0.0066462704 0)
(4.6451656 -0.00580814 0)
(5.7878764 0.0082419856 0)
(4.7122077 -0.0067099113 0)
(5.6958123 0.010461664 0)
(4.7696444 -0.0076962671 0)
(5.6053906 0.013571978 0)
(4.8181728 -0.0085806766 0)
(5.5131941 0.017874745 0)
(4.8586976 -0.00870352 0)
(5.4141989 0.02356813 0)
(4.8916639 -0.0059912481 0)
(5.300785 0.030395275 0)
(4.9144368 0.0055691468 0)
(5.1619037 0.037981153 0)
(4.9136321 0.043361238 0)
(4.9868685 0.059797903 0)
(4.8661937 0.16564175 0)
(4.8240069 0.19531004 0)
(6.862758 0.0026717546 0)
(3.8284422 -0.0024362849 0)
(6.7152711 0.0029022361 0)
(3.9520429 -0.0028723141 0)
(6.5738024 0.0032891292 0)
(4.0792113 -0.0033034503 0)
(6.4360589 0.0037518994 0)
(4.204562 -0.0037613874 0)
(6.302759 0.0043020465 0)
(4.3246917 -0.004260556 0)
(6.1749143 0.0049635775 0)
(4.4374836 -0.0048135819 0)
(6.0532314 0.0057723353 0)
(4.5417619 -0.005430517 0)
(5.9378962 0.0067834369 0)
(4.6369807 -0.0061127699 0)
(5.8284849 0.0080824251 0)
(4.7229668 -0.0068415682 0)
(5.7239606 0.0097961714 0)
(4.7997484 -0.0075536565 0)
(5.6227342 0.012094873 0)
(4.8674236 -0.0080781109 0)
(5.5227603 0.015168716 0)
(4.9259025 -0.0079606448 0)
(5.4216527 0.019144675 0)
(4.9741978 -0.0060013647 0)
(5.3169141 0.023909066 0)
(5.0087256 0.00083925922 0)
(5.2064748 0.029085892 0)
(5.020063 0.019616 0)
(5.0893097 0.036975239 0)
(4.9904228 0.066221207 0)
(4.9685215 0.072186972 0)
(4.9156571 0.18439171 0)
(4.8906282 0.220789 0)
(6.8419351 0.0033122106 0)
(3.8604652 -0.0030289325 0)
(6.6914112 0.003591253 0)
(3.9901414 -0.0035510668 0)
(6.5457177 0.0040478082 0)
(4.1235613 -0.0040565428 0)
(6.4030462 0.0045831764 0)
(4.2555777 -0.0045772416 0)
(6.264163 0.0052045378 0)
(4.382847 -0.0051215626 0)
(6.1300881 0.0059302362 0)
(4.5032492 -0.0056910678 0)
(6.0015686 0.0067875449 0)
(4.6155247 -0.0062771006 0)
(5.8789108 0.0078193308 0)
(4.7189179 -0.0068497839 0)
(5.7619515 0.0090941698 0)
(4.8128461 -0.007338802 0)
(5.6501452 0.010714821 0)
(4.8966076 -0.0075969934 0)
(5.5427745 0.012815276 0)
(4.9690653 -0.0073167416 0)
(5.4392715 0.0155318 0)
(5.028156 -0.0058196052 0)
(5.3395965 0.018932129 0)
(5.0701048 -0.0015610458 0)
(5.2444694 0.022964081 0)
(5.0885468 0.0088615713 0)
(5.1547782 0.028109487 0)
(5.0745617 0.032146563 0)
(5.0692615 0.040515 0)
(5.0211582 0.081576315 0)
(4.9868784 0.090645399 0)
(4.9480977 0.18841057 0)
(4.9409319 0.23676919 0)
(6.8164687 0.0039562831 0)
(3.8990259 -0.003628618 0)
(6.6621405 0.004277662 0)
(4.035909 -0.0042239868 0)
(6.5113067 0.0047876438 0)
(4.1766766 -0.0047833605 0)
(6.3627395 0.0053693273 0)
(4.3163633 -0.0053342949 0)
(6.2173393 0.0060216848 0)
(4.4515665 -0.0058738912 0)
(6.0762669 0.0067520039 0)
(4.57997 -0.006386038 0)
(5.9405222 0.0075727029 0)
(4.6999391 -0.0068359137 0)
(5.8108592 0.0085087226 0)
(4.8100918 -0.0071560896 0)
(5.6878507 0.0096104572 0)
(4.9088824 -0.007225033 0)
(5.5720758 0.010968368 0)
(4.9942413 -0.006830629 0)
(5.464393 0.012722045 0)
(5.0632949 -0.0055883044 0)
(5.3661472 0.015052698 0)
(5.1122524 -0.0027252647 0)
(5.278946 0.018152865 0)
(5.1367337 0.0034266353 0)
(5.2034845 0.022289865 0)
(5.1328461 0.016333404 0)
(5.1373642 0.02907687 0)
(5.0987991 0.042023156 0)
(5.0738238 0.047842527 0)
(5.0388592 0.091685045 0)
(5.0106708 0.10892472 0)
(4.9811995 0.18798481 0)
(4.9801346 0.24326488 0)
(6.7862162 0.0045960093 0)
(3.9441389 -0.0042277898 0)
(6.6273026 0.0049500584 0)
(4.0892454 -0.0048783067 0)
(6.4704622 0.005491507 0)
(4.2382663 -0.0054640444 0)
(6.31516 0.0060854244 0)
(4.3863072 -0.0060032313 0)
(6.1625702 0.0067189012 0)
(4.5297187 -0.0064766755 0)
(6.0142084 0.0073841046 0)
(4.665709 -0.0068459389 0)
(5.8716474 0.0080762722 0)
(4.7918846 -0.0070482547 0)
(5.7365345 0.0088059352 0)
(4.905767 -0.0069852908 0)
(5.6107194 0.0096223002 0)
(5.0043931 -0.0065093658 0)
(5.4963882 0.010645703 0)
(5.084163 -0.005399911 0)
(5.395992 0.012099176 0)
(5.1411585 -0.003285486 0)
(5.3116006 0.014309527 0)
(5.1721406 0.00061293914 0)
(5.2434032 0.017641565 0)
(5.1760203 0.0080975453 0)
(5.1879726 0.022610983 0)
(5.1545965 0.022738204 0)
(5.1380542 0.031875019 0)
(5.1117184 0.049807216 0)
(5.085639 0.057048739 0)
(5.0556989 0.098957135 0)
(5.0337517 0.1240951 0)
(5.0137734 0.18712001 0)
(5.0152029 0.24254733 0)
(6.7510517 0.0052223141 0)
(3.9957758 -0.0048173911 0)
(6.586781 0.005595466 0)
(4.1499643 -0.0054992844 0)
(6.423159 0.0061404849 0)
(4.3078879 -0.0060764671 0)
(6.2604829 0.0067051275 0)
(4.4645499 -0.0065529456 0)
(6.1004064 0.0072620685 0)
(4.6157948 -0.0068898122 0)
(5.9451045 0.007787448 0)
(4.758002 -0.0070261756 0)
(5.797143 0.0082641086 0)
(4.8875978 -0.0068795523 0)
(5.6595569 0.0087051502 0)
(5.0006349 -0.0063455007 0)
(5.5358651 0.0091961989 0)
(5.0926988 -0.0052998268 0)
(5.4297268 0.0099492373 0)
(5.1594808 -0.0035819122 0)
(5.3438699 0.011334409 0)
(5.1982025 -0.00087110871 0)
(5.2782643 0.013817631 0)
(5.2093244 0.0036881949 0)
(5.2286197 0.017778305 0)
(5.1968889 0.01221767 0)
(5.1871102 0.023864737 0)
(5.1663278 0.028288869 0)
(5.1454443 0.035907854 0)
(5.1223131 0.056228205 0)
(5.0990139 0.066752149 0)
(5.0735414 0.10484419 0)
(5.0563531 0.13537841 0)
(5.0441913 0.18652396 0)
(5.0475543 0.23721226 0)
(6.7108728 0.0058250261 0)
(4.0538528 -0.0053868116 0)
(6.540511 0.0061994266 0)
(4.2177769 -0.0060703057 0)
(6.3694745 0.0067142641 0)
(4.3849259 -0.0065967412 0)
(6.1990696 0.0072017524 0)
(4.5499615 -0.0069520191 0)
(6.0317116 0.0076199949 0)
(4.7078972 -0.0070774531 0)
(5.8706294 0.0079335442 0)
(4.8538902 -0.0068971661 0)
(5.7198574 0.008127755 0)
(4.982833 -0.0063309562 0)
(5.5842067 0.0082504599 0)
(5.0892722 -0.0053112018 0)
(5.4687515 0.008474607 0)
(5.1681186 -0.0037937709 0)
(5.377365 0.0091519268 0)
(5.2164033 -0.0017037038 0)
(5.3103969 0.010782406 0)
(5.2352958 0.0013059726 0)
(5.263052 0.013821688 0)
(5.2303172 0.0063690356 0)
(5.2266572 0.018501697 0)
(5.2085413 0.015951622 0)
(5.1924618 0.025750107 0)
(5.1750083 0.03325679 0)
(5.1547458 0.040745116 0)
(5.1332053 0.061788453 0)
(5.1128949 0.076026459 0)
(5.0919896 0.11007546 0)
(5.0787218 0.14297859 0)
(5.0722294 0.18578035 0)
(5.0772342 0.22958935 0)
(6.6656083 0.0063929686 0)
(4.1182171 -0.0059239146 0)
(6.4884934 0.0067462118 0)
(4.2922735 -0.0065731518 0)
(6.309612 0.007191744 0)
(4.4685704 -0.0070000678 0)
(6.1315036 0.0075497553 0)
(4.641122 -0.0071708472 0)
(5.9577077 0.0077675329 0)
(4.803739 -0.0070125424 0)
(5.7929699 0.0078101031 0)
(4.9499918 -0.0064523449 0)
(5.6432211 0.00769211 0)
(5.0731217 -0.0054490266 0)
(5.5150636 0.0075394668 0)
(5.1667817 -0.004021984 0)
(5.4140653 0.0076547098 0)
(5.2270706 -0.0022325532 0)
(5.3417995 0.0085169027 0)
(5.2550751 -2.5766767e-05 0)
(5.293574 0.010633691 0)
(5.2572956 0.0031388153 0)
(5.2598242 0.014282605 0)
(5.242387 0.008791124 0)
(5.2307183 0.019586647 0)
(5.2167527 0.019498139 0)
(5.1998558 0.028081599 0)
(5.183245 0.037785853 0)
(5.1646113 0.046076095 0)
(5.1447974 0.066830258 0)
(5.1271841 0.084278463 0)
(5.1105951 0.11487913 0)
(5.1007269 0.14758193 0)
(5.0981014 0.1843926 0)
(5.1043399 0.2212796 0)
(6.6152281 0.0069140744 0)
(4.1886331 -0.006415089 0)
(6.4308115 0.0072191197 0)
(4.3729061 -0.0069883935 0)
(6.2439277 0.0075518564 0)
(4.5577965 -0.0072619139 0)
(6.0586283 0.0077266148 0)
(4.7363073 -0.0071844105 0)
(5.8800142 0.0076892516 0)
(4.900667 -0.006682195 0)
(5.7148183 0.0074267617 0)
(5.0426342 -0.0057158941 0)
(5.5710625 0.0070203367 0)
(5.1541659 -0.0043291053 0)
(5.4564023 0.0067149373 0)
(5.2295955 -0.0026597005 0)
(5.3746098 0.0069415787 0)
(5.2689188 -0.0008270869 0)
(5.3220669 0.0082092634 0)
(5.2790372 0.001346451 0)
(5.2885656 0.010880801 0)
(5.2702097 0.0047272536 0)
(5.2627664 0.015027155 0)
(5.2506311 0.011135962 0)
(5.2369715 0.020874175 0)
(5.2240384 0.022940789 0)
(5.2078369 0.030794309 0)
(5.1917284 0.041961059 0)
(5.1747696 0.051598364 0)
(5.1569911 0.071586359 0)
(5.1418453 0.091237944 0)
(5.129057 0.11915437 0)
(5.1221508 0.14999918 0)
(5.1220852 0.18213552 0)
(5.1290834 0.21304634 0)
(6.5597537 0.0073755541 0)
(4.2647684 -0.0068453752 0)
(6.3676508 0.0076009016 0)
(4.4589697 -0.0072959878 0)
(6.1729616 0.0077746526 0)
(4.6513457 -0.0073596239 0)
(5.9815865 0.0077151595 0)
(4.8334856 -0.0069757542 0)
(5.8006717 0.0073835431 0)
(4.9957146 -0.006093551 0)
(5.6393016 0.0068200347 0)
(5.1280725 -0.0047480855 0)
(5.5072532 0.0062128378 0)
(5.2223897 -0.0031065556 0)
(5.4113602 0.0059395452 0)
(5.2762761 -0.0014022609 0)
(5.3504704 0.0064868897 0)
(5.2959969 0.00030974016 0)
(5.3144545 0.0082534138 0)
(5.2933472 0.0024630549 0)
(5.2902168 0.011398136 0)
(5.2787567 0.0062249953 0)
(5.26817 0.015901455 0)
(5.2575732 0.013509509 0)
(5.2438657 0.022317378 0)
(5.2312009 0.026273737 0)
(5.2160123 0.033846945 0)
(5.2005712 0.045866927 0)
(5.1851801 0.057026792 0)
(5.1696067 0.076161166 0)
(5.1567889 0.096897432 0)
(5.1471864 0.12268721 0)
(5.1427953 0.15089589 0)
(5.1444161 0.17905359 0)
(5.1517344 0.20510412 0)
(6.4992714 0.0077641434 0)
(4.3461782 -0.0071987114 0)
(6.2993215 0.0078743615 0)
(4.5495847 -0.0074761514 0)
(6.0974697 0.007842714 0)
(4.7477118 -0.0072745534 0)
(5.9018538 0.0075063514 0)
(4.9303281 -0.0065401221 0)
(5.7221361 0.0068668353 0)
(5.0857056 -0.0052792296 0)
(5.5698082 0.0060558627 0)
(5.2028284 -0.0036447558 0)
(5.4551455 0.0053961991 0)
(5.2756151 -0.0019312043 0)
(5.3810772 0.005354522 0)
(5.3079304 -0.0003681055 0)
(5.3390732 0.0063431924 0)
(5.312495 0.0011875329 0)
(5.3143405 0.0085671706 0)
(5.3025039 0.0034470072 0)
(5.2947992 0.012049773 0)
(5.2855821 0.0077477924 0)
(5.2743211 0.016831534 0)
(5.2641366 0.015935744 0)
(5.2509127 0.023928233 0)
(5.238429 0.029469343 0)
(5.2242813 0.037169814 0)
(5.2097415 0.049592369 0)
(5.1958324 0.06214259 0)
(5.1824689 0.08053343 0)
(5.1718678 0.10139548 0)
(5.1648652 0.12533092 0)
(5.1625223 0.15071855 0)
(5.1652577 0.1753402 0)
(5.1725631 0.19746477 0)
(6.4339465 0.0080664437 0)
(4.4322895 -0.007458343 0)
(6.2262839 0.0080231652 0)
(4.6436794 -0.0075105769 0)
(6.0184578 0.0077429213 0)
(4.8451313 -0.0069947669 0)
(5.8212626 0.0071024474 0)
(5.024245 -0.0058894697 0)
(5.6472193 0.0061772264 0)
(5.1674318 -0.0043006656 0)
(5.5096657 0.0052271562 0)
(5.2641761 -0.0025264739 0)
(5.4168337 0.0046989933 0)
(5.3136741 -0.00092736643 0)
(5.3642611 0.0050371429 0)
(5.3277788 0.00041400515 0)
(5.3363683 0.006467246 0)
(5.3227356 0.0018971715 0)
(5.3178998 0.0090372655 0)
(5.3093726 0.0044085101 0)
(5.3003481 0.012749866 0)
(5.2917949 0.009351793 0)
(5.2806045 0.017801703 0)
(5.2705643 0.018390781 0)
(5.2579695 0.02573063 0)
(5.2457491 0.032519625 0)
(5.2326076 0.040658793 0)
(5.2191644 0.053209724 0)
(5.2067 0.066817035 0)
(5.1954298 0.084601165 0)
(5.1869068 0.10490919 0)
(5.1820068 0.127068 0)
(5.1812588 0.14974664 0)
(5.1847173 0.17121599 0)
(5.1917958 0.1901198 0)
(6.3640405 0.0082693709 0)
(4.5223849 -0.0076074377 0)
(6.1491756 0.0080328944 0)
(4.7399746 -0.0073840479 0)
(5.9372136 0.007468598 0)
(4.9415858 -0.0065182705 0)
(5.7420037 0.0065203257 0)
(5.1124583 -0.0050567056 0)
(5.5789461 0.005376258 0)
(5.2379391 -0.0032464901 0)
(5.4616298 0.0044429827 0)
(5.3107413 -0.0015144571 0)
(5.3924553 0.0042172617 0)
(5.3385657 -0.00015517842 0)
(5.3576658 0.0049822213 0)
(5.3398757 0.00099842704 0)
(5.3384418 0.0067686177 0)
(5.3298833 0.002537225 0)
(5.3228207 0.0095774586 0)
(5.3153269 0.0054161776 0)
(5.3060581 0.013459585 0)
(5.2977326 0.011047955 0)
(5.2868309 0.018827273 0)
(5.2768924 0.020834437 0)
(5.2649738 0.027735598 0)
(5.2531445 0.035441164 0)
(5.2409692 0.044195657 0)
(5.2287496 0.056751238 0)
(5.2177231 0.071001762 0)
(5.2083676 0.088241553 0)
(5.2017351 0.10759142 0)
(5.1985326 0.12797338 0)
(5.1989774 0.1481603 0)
(5.2028728 0.16685543 0)
(5.2096033 0.1830762 0)
(6.2899285 0.0083607262 0)
(4.6155857 -0.00762996 0)
(6.0688412 0.0078923772 0)
(4.8369713 -0.0070865017 0)
(5.855331 0.0070219996 0)
(5.0348192 -0.0058566197 0)
(5.6665878 0.0057945091 0)
(5.1921364 -0.0040983643 0)
(5.5202803 0.00454671 0)
(5.2949571 -0.0022223786 0)
(5.4272108 0.0038069806 0)
(5.3430238 -0.00069667542 0)
(5.3799861 0.0039844267 0)
(5.3537892 0.0004017757 0)
(5.3574056 0.0051248215 0)
(5.3477124 0.0014744843 0)
(5.3425334 0.0071640137 0)
(5.3356699 0.0031785464 0)
(5.3280262 0.010140516 0)
(5.3208614 0.0065015151 0)
(5.3116543 0.014169057 0)
(5.3034504 0.012823087 0)
(5.2929269 0.019936158 0)
(5.2831099 0.023228491 0)
(5.2718787 0.029930913 0)
(5.2605772 0.038264855 0)
(5.2493436 0.047673331 0)
(5.2384048 0.060201883 0)
(5.2288101 0.074698075 0)
(5.2211738 0.091363805 0)
(5.2162052 0.10954917 0)
(5.2143654 0.12815919 0)
(5.2156723 0.14608928 0)
(5.2197896 0.16237311 0)
(5.2261094 0.1763418 0)
(6.2121204 0.0083299038 0)
(4.710836 -0.0075118614 0)
(5.9863603 0.0075953227 0)
(4.9329446 -0.0066155491 0)
(5.7747218 0.006417042 0)
(5.1223827 -0.0050384913 0)
(5.5977425 0.004978965 0)
(5.2606227 -0.00309346 0)
(5.4736771 0.0037835229 0)
(5.3374578 -0.0013298296 0)
(5.4060404 0.0033879745 0)
(5.3634369 -9.9606262e-05 0)
(5.37593 0.0039682068 0)
(5.3630597 0.00081163725 0)
(5.360234 0.0053860236 0)
(5.3535023 0.0019134914 0)
(5.347183 0.0076023076 0)
(5.3408267 0.0038606653 0)
(5.3330996 0.010703924 0)
(5.3260862 0.007674079 0)
(5.3170391 0.014883984 0)
(5.3089276 0.014652215 0)
(5.2988377 0.021157457 0)
(5.2891929 0.02554914 0)
(5.2786419 0.032279846 0)
(5.2679924 0.041023242 0)
(5.257698 0.051012031 0)
(5.2480398 0.063509863 0)
(5.239848 0.07792706 0)
(5.2337406 0.093928888 0)
(5.2301933 0.11085955 0)
(5.229434 0.12774225 0)
(5.2313431 0.1436411 0)
(5.2355235 0.15784298 0)
(5.2414045 0.16991591 0)
(6.1312814 0.0081687482 0)
(4.8068866 -0.0072426415 0)
(5.903074 0.007142264 0)
(5.0259461 -0.0059793883 0)
(5.6976006 0.0056820019 0)
(5.2017233 -0.0041123414 0)
(5.5382023 0.0041460251 0)
(5.3158015 -0.002135481 0)
(5.4404534 0.0031753829 0)
(5.3661735 -0.00063658772 0)
(5.395741 0.003196626 0)
(5.3755324 0.00031374896 0)
(5.3766478 0.0041003122 0)
(5.3691953 0.001148589 0)
(5.3641359 0.0057078873 0)
(5.3583226 0.0023601001 0)
(5.3517525 0.0080563761 0)
(5.3455696 0.0046021035 0)
(5.3378894 0.011258828 0)
(5.330985 0.008932122 0)
(5.3221542 0.015619308 0)
(5.3141277 0.016503899 0)
(5.3045072 0.022513646 0)
(5.2951073 0.027791057 0)
(5.2852228 0.034727645 0)
(5.2753232 0.043737393 0)
(5.265982 0.054162854 0)
(5.2575659 0.066606219 0)
(5.2507147 0.080710546 0)
(5.2459567 0.095939721 0)
(5.2435941 0.11159101 0)
(5.2436749 0.12683118 0)
(5.2459862 0.14091109 0)
(5.250117 0.15331837 0)
(5.2555527 0.16379145 0)
(6.048254 0.0078725696 0)
(4.9022829 -0.006817323 0)
(5.8206028 0.0065427727 0)
(5.1138238 -0.0051999081 0)
(5.6264233 0.0048616118 0)
(5.2703478 -0.0031464779 0)
(5.4903407 0.0033799171 0)
(5.3566223 -0.00131476 0)
(5.4201375 0.0027786633 0)
(5.3836523 -0.00015267063 0)
(5.3927022 0.0031888801 0)
(5.3827261 0.00061305664 0)
(5.3793958 0.0043149876 0)
(5.3737912 0.0014646334 0)
(5.3681304 0.0060591532 0)
(5.3625703 0.0028370498 0)
(5.3559927 0.0085128759 0)
(5.3499109 0.0054118403 0)
(5.3423207 0.011803926 0)
(5.3355086 0.010266105 0)
(5.3269423 0.016397025 0)
(5.3190086 0.018344002 0)
(5.3098762 0.024014515 0)
(5.3008062 0.029962932 0)
(5.2915789 0.037213125 0)
(5.2824947 0.046407781 0)
(5.274125 0.057100408 0)
(5.2668915 0.069426794 0)
(5.2612876 0.083062515 0)
(5.2577086 0.097425004 0)
(5.2563149 0.11180942 0)
(5.2570322 0.12551866 0)
(5.2595922 0.13797914 0)
(5.2635969 0.14883888 0)
(5.2685951 0.15795694 0)
(5.9640791 0.0074413232 0)
(4.9953553 -0.0062388491 0)
(5.7408499 0.0058178297 0)
(5.1942691 -0.0043154768 0)
(5.5637484 0.0040173918 0)
(5.3261049 -0.0022239997 0)
(5.4556005 0.0027621363 0)
(5.3836742 -0.00069197251 0)
(5.410254 0.0025956241 0)
(5.3934599 0.00016759102 0)
(5.3934412 0.0032978707 0)
(5.3873756 0.00086078366 0)
(5.3826294 0.0045713919 0)
(5.3775436 0.0017887007 0)
(5.3717976 0.0064240622 0)
(5.366324 0.0033555097 0)
(5.3597929 0.0089646079 0)
(5.3537999 0.0062943156 0)
(5.3463303 0.012343662 0)
(5.3395987 0.011659219 0)
(5.3313383 0.017243429 0)
(5.3235228 0.020142996 0)
(5.314883 0.02565234 0)
(5.3062295 0.032081097 0)
(5.297661 0.039680914 0)
(5.2894273 0.04901337 0)
(5.2820377 0.059811362 0)
(5.2759178 0.071926843 0)
(5.2714468 0.084990941 0)
(5.2688829 0.098425804 0)
(5.268269 0.11157976 0)
(5.2694538 0.12388198 0)
(5.2721454 0.13490862 0)
(5.2759738 0.14443289 0)
(5.2805512 0.15239848 0)
(5.8800141 0.0068809399 0)
(5.0842189 -0.0055208421 0)
(5.6659751 0.0050020591 0)
(5.2649136 -0.0033823347 0)
(5.5119688 0.0032241931 0)
(5.3676418 -0.0014296056 0)
(5.4337868 0.0023483531 0)
(5.3994021 -0.00027371247 0)
(5.4070799 0.0025778666 0)
(5.3988617 0.0003928535 0)
(5.3955231 0.0034676494 0)
(5.3906913 0.0010958744 0)
(5.3856318 0.0048492876 0)
(5.3806649 0.0021342258 0)
(5.3749581 0.0067947487 0)
(5.3695459 0.0039226508 0)
(5.3630755 0.0094071766 0)
(5.3571673 0.0072498044 0)
(5.3498505 0.012887892 0)
(5.3431922 0.013088381 0)
(5.3352697 0.018183424 0)
(5.3276152 0.021885498 0)
(5.3194643 0.027401785 0)
(5.3113052 0.034163267 0)
(5.3034089 0.042087516 0)
(5.2960361 0.051518805 0)
(5.2896173 0.062283807 0)
(5.2845362 0.074084781 0)
(5.2810751 0.086503819 0)
(5.2793698 0.09898594 0)
(5.2793729 0.11096451 0)
(5.2808881 0.12198605 0)
(5.2836228 0.1317485 0)
(5.2872436 0.14011952 0)
(5.2914221 0.14710093 0)
(5.7975443 0.0062047782 0)
(5.1667871 -0.0046905056 0)
(5.5983194 0.0041451655 0)
(5.3235123 -0.0024726626 0)
(5.4728491 0.0025601916 0)
(5.3950222 -0.00082670594 0)
(5.4226104 0.0021444752 0)
(5.4074093 -1.2232614e-05 0)
(5.4071056 0.0026592858 0)
(5.4019621 0.00057849644 0)
(5.397671 0.0036674063 0)
(5.3931409 0.0013376834 0)
(5.3880903 0.0051391292 0)
(5.3831577 0.0025078877 0)
(5.3775088 0.0071661775 0)
(5.3721625 0.0045443956 0)
(5.3657649 0.0098388202 0)
(5.3599365 0.0082734798 0)
(5.3528063 0.013452209 0)
(5.3462225 0.014525725 0)
(5.3386581 0.019234784 0)
(5.3312211 0.023571851 0)
(5.3235544 0.029224425 0)
(5.315952 0.036221076 0)
(5.3087489 0.044401472 0)
(5.3022307 0.053884143 0)
(5.2967532 0.064502638 0)
(5.2926306 0.07589589 0)
(5.2900553 0.087616296 0)
(5.289064 0.099149431 0)
(5.2895456 0.11002203 0)
(5.2912817 0.11988636 0)
(5.2939937 0.12853721 0)
(5.2973888 0.13591136 0)
(5.3011924 0.14204916 0)
(5.7183828 0.0054351173 0)
(5.2408121 -0.003791104 0)
(5.5402402 0.0033112199 0)
(5.3682735 -0.001666535 0)
(5.4468201 0.0020882153 0)
(5.4102247 -0.00043067766 0)
(5.418228 0.0021034684 0)
(5.4110247 0.00016181069 0)
(5.4080042 0.0027889191 0)
(5.4037473 0.00075544688 0)
(5.3993104 0.0038830671 0)
(5.3948274 0.0015943417 0)
(5.3898522 0.005436215 0)
(5.384954 0.0029146213 0)
(5.3793629 0.0075338889 0)
(5.37409 0.0052252848 0)
(5.3677822 0.010261459 0)
(5.3620279 0.009354453 0)
(5.3551174 0.014057992 0)
(5.3486205 0.01594216 0)
(5.3414237 0.020402965 0)
(5.3342675 0.025212115 0)
(5.327086 0.031077512 0)
(5.3200846 0.038253015 0)
(5.3135957 0.046600639 0)
(5.3079146 0.056072421 0)
(5.3033323 0.066451689 0)
(5.3000822 0.077363195 0)
(5.2982728 0.088352207 0)
(5.2978656 0.098960907 0)
(5.2987092 0.10880605 0)
(5.3005796 0.11763102 0)
(5.303221 0.12530608 0)
(5.3063814 0.13181733 0)
(5.3098344 0.13722932 0)
(5.6444479 0.0046045284 0)
(5.3039758 -0.0028828055 0)
(5.4937953 0.00257353 0)
(5.398405 -0.0010347854 0)
(5.4322147 0.0018299072 0)
(5.4168121 -0.00019893452 0)
(5.4168401 0.0021567892 0)
(5.4123134 0.00030193748 0)
(5.4086152 0.0029407796 0)
(5.404546 0.00093743574 0)
(5.4001827 0.0041084988 0)
(5.395711 0.0018697903 0)
(5.3908153 0.0057373121 0)
(5.385969 0.0033593334 0)
(5.3804379 0.0078938056 0)
(5.3752445 0.0059670676 0)
(5.3690493 0.010681236 0)
(5.3633649 0.010475852 0)
(5.3567029 0.01472889 0)
(5.3503191 0.017316779 0)
(5.3434917 0.021678132 0)
(5.3366783 0.026820631 0)
(5.3299926 0.032924133 0)
(5.3236194 0.040242468 0)
(5.3178585 0.048668397 0)
(5.3129893 0.058053499 0)
(5.3092441 0.068118861 0)
(5.3067774 0.078492696 0)
(5.3056207 0.088738146 0)
(5.3056835 0.098462133 0)
(5.3067922 0.10736306 0)
(5.308729 0.11525957 0)
(5.3112653 0.12207933 0)
(5.3141884 0.12784259 0)
(5.3173136 0.13262794 0)
(5.5778018 0.0037567852 0)
(5.354074 -0.0020397286 0)
(5.4601788 0.0020023937 0)
(5.4148292 -0.00061285454 0)
(5.4252529 0.001749388 0)
(5.4184374 -5.8457577e-05 0)
(5.4159775 0.0022523669 0)
(5.4121676 0.00043484448 0)
(5.4084433 0.0031039155 0)
(5.4044048 0.0011292904 0)
(5.4001572 0.0043404808 0)
(5.3957195 0.0021668663 0)
(5.3909 0.0060389035 0)
(5.3861265 0.00384669 0)
(5.3806636 0.0082432186 0)
(5.3755543 0.0067672879 0)
(5.369499 0.011108697 0)
(5.3638851 0.011615786 0)
(5.3574932 0.015485321 0)
(5.3512614 0.018644263 0)
(5.3448023 0.023037557 0)
(5.338386 0.028411236 0)
(5.3322153 0.034737029 0)
(5.3264842 0.042162251 0)
(5.3214532 0.050588236 0)
(5.3173635 0.059805241 0)
(5.3143902 0.069497486 0)
(5.3126164 0.079295275 0)
(5.3120091 0.088802803 0)
(5.3124436 0.097692579 0)
(5.313738 0.10573379 0)
(5.3156881 0.11280503 0)
(5.3180946 0.11887626 0)
(5.3207807 0.12399036 0)
(5.3235989 0.12823291 0)
(5.5205212 0.0029463956 0)
(5.3893768 -0.0013399455 0)
(5.438856 0.0016426077 0)
(5.420558 -0.00037624306 0)
(5.4215748 0.0017736113 0)
(5.4174481 4.7285058e-05 0)
(5.4145142 0.0023640493 0)
(5.4108846 0.0005697178 0)
(5.4073053 0.0032728324 0)
(5.4033071 0.001332185 0)
(5.3991774 0.0045760437 0)
(5.3948085 0.0024879557 0)
(5.3900646 0.0063366332 0)
(5.3853841 0.0043800196 0)
(5.3800035 0.0085820414 0)
(5.374981 0.0076182418 0)
(5.3690944 0.01155968 0)
(5.3635584 0.012748382 0)
(5.3574495 0.016339711 0)
(5.3514167 0.019931613 0)
(5.3453265 0.024450093 0)
(5.3393501 0.029992211 0)
(5.3337167 0.036495761 0)
(5.3286325 0.043983248 0)
(5.3243197 0.052339423 0)
(5.3209698 0.061313746 0)
(5.3187 0.070583494 0)
(5.3175302 0.079785789 0)
(5.3173797 0.088576268 0)
(5.3181025 0.096689813 0)
(5.3195178 0.10395486 0)
(5.3214398 0.11029622 0)
(5.3236981 0.11571363 0)
(5.3261491 0.12026392 0)
(5.328677 0.12403479 0)
(5.4744461 0.0022347277 0)
(5.4092802 -0.00084511493 0)
(5.4268423 0.0014854953 0)
(5.4197609 -0.00025555412 0)
(5.4182543 0.0018383041 0)
(5.4149212 0.00014302621 0)
(5.4121056 0.0024806915 0)
(5.4085889 0.00070856132 0)
(5.4051885 0.0034445284 0)
(5.4012788 0.001546834 0)
(5.3972635 0.0048122637 0)
(5.3929981 0.0028356933 0)
(5.388332 0.0066263188 0)
(5.3837602 0.0049604689 0)
(5.3784798 0.0089139244 0)
(5.3735442 0.0085068572 0)
(5.3678521 0.012054615 0)
(5.3624097 0.013850037 0)
(5.3565879 0.017290974 0)
(5.3508018 0.021191527 0)
(5.3450858 0.025883849 0)
(5.339579 0.031562006 0)
(5.3345023 0.03818383 0)
(5.3300617 0.045680272 0)
(5.3264432 0.053899688 0)
(5.323786 0.062570908 0)
(5.3221502 0.07137738 0)
(5.3215009 0.079980177 0)
(5.3217255 0.088086543 0)
(5.3226666 0.095486917 0)
(5.3241504 0.10205746 0)
(5.3260116 0.10775715 0)
(5.3281073 0.11260534 0)
(5.3303237 0.11666621 0)
(5.3325731 0.12002617 0)
(5.4407304 0.0016795588 0)
(5.4153237 -0.00057083994 0)
(5.4194791 0.0014588963 0)
(5.416025 -0.00018326862 0)
(5.414301 0.0019109776 0)
(5.4113475 0.00023507065 0)
(5.4087926 0.002596969 0)
(5.4054357 0.00085091932 0)
(5.4022115 0.0036165008 0)
(5.3984374 0.0017740428 0)
(5.3945299 0.0050458296 0)
(5.3903953 0.0032130282 0)
(5.3858105 0.0069047848 0)
(5.3813551 0.0055865761 0)
(5.3761941 0.0092457179 0)
(5.3713429 0.009416764 0)
(5.3658635 0.012612893 0)
(5.3605378 0.014912035 0)
(5.3550008 0.018324829 0)
(5.3495029 0.022440131 0)
(5.344172 0.02731461 0)
(5.3391518 0.033109349 0)
(5.3346419 0.039787435 0)
(5.3308335 0.047234029 0)
(5.3278758 0.05525192 0)
(5.3258576 0.063572766 0)
(5.3247861 0.071888022 0)
(5.3245825 0.079898696 0)
(5.3251121 0.087361451 0)
(5.3262139 0.094113883 0)
(5.3277243 0.1000687 0)
(5.3294982 0.10520849 0)
(5.3314182 0.10956375 0)
(5.3333973 0.11320085 0)
(5.3353731 0.11620239 0)
(5.4191325 0.0013140996 0)
(5.4123183 -0.00047670753 0)
(5.4133342 0.0014759346 0)
(5.4111963 -0.00013012508 0)
(5.4097817 0.0019790387 0)
(5.407153 0.00032299782 0)
(5.404853 0.0027099327 0)
(5.4016998 0.00099618176 0)
(5.3986267 0.0037863211 0)
(5.3950175 0.0020151066 0)
(5.391203 0.0052730742 0)
(5.3872119 0.0036228645 0)
(5.3827094 0.0071709553 0)
(5.3783665 0.0062539889 0)
(5.3733416 0.0095882353 0)
(5.36857 0.010328526 0)
(5.3633107 0.013249627 0)
(5.3581284 0.015940753 0)
(5.3528702 0.019420359 0)
(5.3476912 0.023692193 0)
(5.3427592 0.028728956 0)
(5.3382314 0.034616225 0)
(5.3342866 0.041295064 0)
(5.3310893 0.048630078 0)
(5.3287513 0.05639006 0)
(5.327315 0.064320514 0)
(5.3267397 0.07212963 0)
(5.3269153 0.079564076 0)
(5.3276922 0.08642709 0)
(5.3289091 0.092595624 0)
(5.3304135 0.098008895 0)
(5.3320789 0.10266402 0)
(5.3338101 0.10659542 0)
(5.335544 0.10986737 0)
(5.337242 0.11255671 0)
(5.4074715 0.0011210411 0)
(5.407029 -0.00046884916 0)
(5.4078038 0.00149098 0)
(5.4063103 -9.0710997e-05 0)
(5.4051874 0.0020392308 0)
(5.4028499 0.0004070302 0)
(5.4007256 0.0028186167 0)
(5.3977788 0.0011452117 0)
(5.3948073 0.0039523273 0)
(5.3913633 0.0022726585 0)
(5.3876157 0.0054910288 0)
(5.3837599 0.0040677478 0)
(5.3793355 0.007427542 0)
(5.3750875 0.0069549491 0)
(5.3702078 0.0099584709 0)
(5.36551 0.011221116 0)
(5.3604658 0.0139722 0)
(5.3554522 0.016947993 0)
(5.3504661 0.020555519 0)
(5.3456245 0.024953672 0)
(5.3411021 0.03012076 0)
(5.3370641 0.03606326 0)
(5.3336706 0.042696349 0)
(5.3310537 0.049859018 0)
(5.3292876 0.057318578 0)
(5.3283735 0.064826833 0)
(5.3282311 0.072124554 0)
(5.3287287 0.07900405 0)
(5.3297072 0.085310536 0)
(5.3310059 0.09095366 0)
(5.3324814 0.095891129 0)
(5.3340216 0.10012755 0)
(5.3355502 0.10369548 0)
(5.3370256 0.10665376 0)
(5.3384317 0.10907177 0)
(5.4023947 0.0010410103 0)
(5.4028855 -0.00048127995 0)
(5.4034497 0.0014995069 0)
(5.4021887 -5.7999888e-05 0)
(5.4011326 0.0020943235 0)
(5.3989887 0.00049024218 0)
(5.3969148 0.0029243519 0)
(5.3941288 0.0013011677 0)
(5.3911889 0.0041141977 0)
(5.3878793 0.0025511971 0)
(5.3841623 0.0056985437 0)
(5.3804121 0.0045492443 0)
(5.3760555 0.0076808994 0)
(5.371873 0.0076791792 0)
(5.3671368 0.010376345 0)
(5.3625083 0.012083015 0)
(5.3576633 0.014774917 0)
(5.3528383 0.017949629 0)
(5.3481192 0.021712645 0)
(5.3436226 0.026224555 0)
(5.3395138 0.03148433 0)