/*--------------------------------*- C++ -*----------------------------------*\
  =========                 |
  \\      /  F ield         | OpenFOAM: The Open Source CFD Toolbox
   \\    /   O peration     | Website:  https://openfoam.org
    \\  /    A nd           | Version:  11
     \\/     M anipulation  |
\*---------------------------------------------------------------------------*/
FoamFile
{
    format      ascii;
    class       volSymmTensorField;
    location    "1";
    object      UPrime2Mean;
}
// * * * * * * * * * * * * * * * * * * * * * * * * * * * * * * * * * * * * * //

dimensions      [0 2 -2 0 0 0 0];

internalField   nonuniform List<symmTensor> 
66675
(
(0.01976536 1.1377926e-06 0 2.6421076e-09 0 0)
(0.020937902 1.1601292e-06 0 3.8330062e-09 0 0)
(0.012406261 6.7854709e-07 0 6.2686758e-09 0 0)
(0.01399514 8.9409335e-07 0 4.635645e-09 0 0)
(0.0078947906 4.632722e-07 0 7.5966989e-09 0 0)
(0.0092780533 6.7643366e-07 0 5.6777455e-09 0 0)
(0.0050276509 3.3186871e-07 0 8.7851658e-09 0 0)
(0.0061169778 5.0127237e-07 0 6.6560409e-09 0 0)
(0.0032369047 2.5130505e-07 0 1.0118972e-08 0 0)
(0.0040914763 3.793876e-07 0 7.7118299e-09 0 0)
(0.0021026771 1.8225489e-07 0 1.1105857e-08 0 0)
(0.0028212961 3.15675e-07 0 8.9179028e-09 0 0)
(0.0014224677 1.4670468e-07 0 1.1939667e-08 0 0)
(0.0019916101 2.6730257e-07 0 1.0133281e-08 0 0)
(0.0010434837 1.415614e-07 0 1.2696238e-08 0 0)
(0.0014360505 2.1839049e-07 0 1.1318753e-08 0 0)
(0.00084546699 1.5921189e-07 0 1.3415918e-08 0 0)
(0.0010639968 1.6390479e-07 0 1.245371e-08 0 0)
(0.00074661599 1.9720641e-07 0 1.4139036e-08 0 0)
(0.00081898149 1.0239384e-07 0 1.3550856e-08 0 0)
(0.00069772459 2.5500742e-07 0 1.4899438e-08 0 0)
(0.00066151925 3.290585e-08 0 1.4655967e-08 0 0)
(0.00067230169 3.3432398e-07 0 1.575343e-08 0 0)
(0.00056263055 -4.724711e-08 0 1.5855213e-08 0 0)
(0.00065743497 4.411876e-07 0 1.6818669e-08 0 0)
(0.00050117243 -1.4455993e-07 0 1.7302262e-08 0 0)
(0.00064744014 5.8874299e-07 0 1.8353487e-08 0 0)
(0.00046203392 -2.7402737e-07 0 1.9335597e-08 0 0)
(0.00064020799 8.0883566e-07 0 2.0913099e-08 0 0)
(0.00043438217 -4.8374413e-07 0 2.2914034e-08 0 0)
(0.00063517753 1.2234653e-06 0 2.6206086e-08 0 0)
(0.00040981414 -1.0185884e-06 0 3.2063526e-08 0 0)
(0.00063095765 2.5377317e-06 0 4.2961874e-08 0 0)
(0.00038217744 -2.5557868e-06 0 7.4784527e-08 0 0)
(0.00061995911 4.7558356e-06 0 1.1658929e-07 0 0)
(0.019663307 3.3707376e-06 0 2.4658567e-08 0 0)
(0.020768081 3.3925438e-06 0 3.5459027e-08 0 0)
(0.012330543 2.0086526e-06 0 5.8340529e-08 0 0)
(0.013854721 2.6142676e-06 0 4.2910733e-08 0 0)
(0.0078344987 1.3695946e-06 0 7.0650484e-08 0 0)
(0.0091640224 1.9737197e-06 0 5.2591023e-08 0 0)
(0.0049795523 9.7985869e-07 0 8.1661931e-08 0 0)
(0.0060256786 1.4567124e-06 0 6.1686888e-08 0 0)
(0.003198773 7.4142796e-07 0 9.4018062e-08 0 0)
(0.0040183018 1.0960703e-06 0 7.1498741e-08 0 0)
(0.0020726708 5.3598086e-07 0 1.0310936e-07 0 0)
(0.0027619289 9.0596991e-07 0 8.2678819e-08 0 0)
(0.001398732 4.3096477e-07 0 1.1075756e-07 0 0)
(0.0019434583 7.5739311e-07 0 9.3904744e-08 0 0)
(0.0010241186 4.1663662e-07 0 1.1764653e-07 0 0)
(0.0013975468 6.0411908e-07 0 1.0478434e-07 0 0)
(0.00082869198 4.6914681e-07 0 1.241306e-07 0 0)
(0.0010340663 4.3237851e-07 0 1.1508839e-07 0 0)
(0.0007308616 5.7878871e-07 0 1.3055051e-07 0 0)
(0.0007968242 2.3934214e-07 0 1.2487013e-07 0 0)
(0.00068160019 7.3974202e-07 0 1.3715737e-07 0 0)
(0.0006465912 2.4442427e-08 0 1.3443993e-07 0 0)
(0.00065444877 9.4963305e-07 0 1.4433601e-07 0 0)
(0.00055477255 -2.1532503e-07 0 1.4434745e-07 0 0)
(0.00063624851 1.2106283e-06 0 1.5288874e-07 0 0)
(0.00050090149 -4.854595e-07 0 1.5545497e-07 0 0)
(0.00062053977 1.5227182e-06 0 1.6444159e-07 0 0)
(0.00047117905 -7.8271829e-07 0 1.6933545e-07 0 0)
(0.00060328402 1.8472499e-06 0 1.8181037e-07 0 0)
(0.00045764317 -1.0166695e-06 0 1.8927949e-07 0 0)
(0.00057927012 1.870152e-06 0 2.0887532e-07 0 0)
(0.00045858681 -4.7173888e-07 0 2.3102963e-07 0 0)
(0.00053753476 1.211309e-07 0 2.518218e-07 0 0)
(0.0004809158 5.1517822e-06 0 4.8311428e-07 0 0)
(0.00046539597 -3.7493364e-06 0 3.3251365e-07 0 0)
(0.019456114 5.5696968e-06 0 7.1884174e-08 0 0)
(0.020434675 5.5606959e-06 0 1.0301374e-07 0 0)
(0.01217568 3.3171703e-06 0 1.6975733e-07 0 0)
(0.013577391 4.2658289e-06 0 1.2470741e-07 0 0)
(0.0077107871 2.2508621e-06 0 2.0533256e-07 0 0)
(0.0089377763 3.1957055e-06 0 1.5283401e-07 0 0)
(0.004880717 1.6005804e-06 0 2.3700221e-07 0 0)
(0.005843938 2.3297239e-06 0 1.7920726e-07 0 0)
(0.0031204217 1.2026136e-06 0 2.7242508e-07 0 0)
(0.0038724525 1.7233109e-06 0 2.0755476e-07 0 0)
(0.0020111604 8.5834453e-07 0 2.981224e-07 0 0)
(0.0026437882 1.3941099e-06 0 2.3967214e-07 0 0)
(0.0013503329 6.8331734e-07 0 3.1940228e-07 0 0)
(0.0018480829 1.1250468e-06 0 2.7158962e-07 0 0)
(0.00098500253 6.5920627e-07 0 3.3815272e-07 0 0)
(0.0013219251 8.4283679e-07 0 3.0199488e-07 0 0)
(0.00079528749 7.4134873e-07 0 3.5527054e-07 0 0)
(0.00097609231 5.2945738e-07 0 3.2996963e-07 0 0)
(0.00070008727 9.047404e-07 0 3.7151642e-07 0 0)
(0.00075485458 1.8710146e-07 0 3.552682e-07 0 0)
(0.00065087693 1.1255795e-06 0 3.8720933e-07 0 0)
(0.00061936208 -1.743438e-07 0 3.7809194e-07 0 0)
(0.00062154637 1.376371e-06 0 4.0270441e-07 0 0)
(0.00054152979 -5.3699684e-07 0 3.9869115e-07 0 0)
(0.00059904062 1.6165641e-06 0 4.1881651e-07 0 0)
(0.00050162098 -8.5326597e-07 0 4.1698648e-07 0 0)
(0.00057676477 1.7533321e-06 0 4.3694648e-07 0 0)
(0.0004867144 -9.655971e-07 0 4.3255774e-07 0 0)
(0.00055067629 1.5233734e-06 0 4.584596e-07 0 0)
(0.00048904393 -3.5939176e-07 0 4.5041084e-07 0 0)
(0.00051780269 2.7839204e-07 0 4.8637182e-07 0 0)
(0.00050218906 2.2788776e-06 0 5.4485512e-07 0 0)
(0.00047978169 -2.0244531e-06 0 5.4577926e-07 0 0)
(0.00051187018 8.944068e-06 0 1.0768746e-06 0 0)
(0.00046140862 2.9010109e-06 0 5.8879898e-07 0 0)
(0.019141905 7.7924599e-06 0 1.4785878e-07 0 0)
(0.019943228 7.7699883e-06 0 2.1293784e-07 0 0)
(0.011939518 4.6397234e-06 0 3.4924589e-07 0 0)
(0.013167987 5.9077154e-06 0 2.5777697e-07 0 0)
(0.0075219765 3.1224619e-06 0 4.2175926e-07 0 0)
(0.0086037263 4.3663551e-06 0 3.1560702e-07 0 0)
(0.0047300996 2.196259e-06 0 4.8568303e-07 0 0)
(0.00557602 3.1171568e-06 0 3.6950454e-07 0 0)
(0.0030014834 1.6276804e-06 0 5.5669726e-07 0 0)
(0.00365834 2.2390361e-06 0 4.2701548e-07 0 0)
(0.0019184787 1.1358319e-06 0 6.0700856e-07 0 0)
(0.0024717305 1.7407917e-06 0 4.9159219e-07 0 0)
(0.0012782978 8.8788509e-07 0 6.4745436e-07 0 0)
(0.0017109152 1.3154929e-06 0 5.5463904e-07 0 0)
(0.0009278555 8.5365743e-07 0 6.8169215e-07 0 0)
(0.0012151866 8.6889188e-07 0 6.1296848e-07 0 0)
(0.00074771884 9.5979405e-07 0 7.1122521e-07 0 0)
(0.00089650839 3.881522e-07 0 6.6401291e-07 0 0)
(0.00065767577 1.1546052e-06 0 7.3703436e-07 0 0)
(0.00069962077 -1.0640297e-07 0 7.0628663e-07 0 0)
(0.00061024353 1.3819909e-06 0 7.5882989e-07 0 0)
(0.0005858885 -5.7532322e-07 0 7.387261e-07 0 0)
(0.00058034713 1.5730349e-06 0 7.7586881e-07 0 0)
(0.00052733974 -9.4901002e-07 0 7.5967057e-07 0 0)
(0.00055601739 1.6311518e-06 0 7.8746144e-07 0 0)
(0.00050402205 -1.0778653e-06 0 7.6659175e-07 0 0)
(0.00053219791 1.3883833e-06 0 7.9317355e-07 0 0)
(0.00050166155 -6.2280618e-07 0 7.5951711e-07 0 0)
(0.00050785818 5.5209701e-07 0 7.9334056e-07 0 0)
(0.00050833564 1.0379549e-06 0 7.6619397e-07 0 0)
(0.00048597204 -1.0004395e-06 0 7.9532644e-07 0 0)
(0.00051035431 4.3115969e-06 0 9.0371604e-07 0 0)
(0.0004746584 -9.8469572e-07 0 7.837827e-07 0 0)
(0.00049604478 8.309401e-06 0 1.4283678e-06 0 0)
(0.00048488606 9.2147373e-06 0 1.1222384e-06 0 0)
(0.018719675 9.9404686e-06 0 2.5603069e-07 0 0)
(0.019299816 9.8975531e-06 0 3.7164837e-07 0 0)
(0.011621014 5.9096801e-06 0 6.0515952e-07 0 0)
(0.012633109 7.4272955e-06 0 4.498027e-07 0 0)
(0.007267772 3.928281e-06 0 7.291729e-07 0 0)
(0.0081689337 5.3818608e-06 0 5.4986193e-07 0 0)
(0.0045282574 2.7185541e-06 0 8.36983e-07 0 0)
(0.0052294481 3.7239683e-06 0 6.4228114e-07 0 0)
(0.0028433599 1.9748681e-06 0 9.555895e-07 0 0)
(0.0033840343 2.5568079e-06 0 7.3985972e-07 0 0)
(0.0017968525 1.3340832e-06 0 1.036731e-06 0 0)
(0.0022544887 1.8654355e-06 0 8.4803093e-07 0 0)
(0.0011856311 1.0196549e-06 0 1.0990749e-06 0 0)
(0.0015413005 1.2555397e-06 0 9.5095862e-07 0 0)
(0.00085641726 9.8528275e-07 0 1.1485865e-06 0 0)
(0.0010870416 6.245771e-07 0 1.0421374e-06 0 0)
(0.00069047796 1.1198936e-06 0 1.1873387e-06 0 0)
(0.00080491489 -1.8851786e-08 0 1.1159408e-06 0 0)
(0.00060900265 1.333522e-06 0 1.2161704e-06 0 0)
(0.0006398429 -6.1762711e-07 0 1.1684092e-06 0 0)
(0.00056625873 1.5284191e-06 0 1.2334058e-06 0 0)
(0.00055285058 -1.0834334e-06 0 1.1963487e-06 0 0)
(0.0005390784 1.5961962e-06 0 1.2363971e-06 0 0)
(0.00051521416 -1.2838888e-06 0 1.196465e-06 0 0)
(0.00051760468 1.4164312e-06 0 1.2228547e-06 0 0)
(0.00050555757 -1.0012835e-06 0 1.1679115e-06 0 0)
(0.00049928433 8.5608439e-07 0 1.1924929e-06 0 0)
(0.00050734998 8.0170519e-08 0 1.1236972e-06 0 0)
(0.00048569104 -1.3357161e-07 0 1.1483776e-06 0 0)
(0.00050723484 2.1231824e-06 0 1.1198989e-06 0 0)
(0.00047987465 -8.8139208e-07 0 1.0916746e-06 0 0)
(0.00049721725 4.4720266e-06 0 1.2481675e-06 0 0)
(0.00048173822 1.7248566e-06 0 1.0418205e-06 0 0)
(0.00048284943 6.513887e-06 0 1.6627685e-06 0 0)
(0.00048548855 1.1445178e-05 0 1.7487115e-06 0 0)
(0.018189566 1.1917838e-05 0 3.9957331e-07 0 0)
(0.018512024 1.1832013e-05 0 5.8559656e-07 0 0)
(0.011220466 7.0588865e-06 0 9.4518775e-07 0 0)
(0.011981676 8.7199668e-06 0 7.0849032e-07 0 0)
(0.0069494687 4.610715e-06 0 1.1355669e-06 0 0)
(0.0076433506 6.1461083e-06 0 8.643431e-07 0 0)
(0.00427754 3.1193173e-06 0 1.298073e-06 0 0)
(0.0048149925 4.06559e-06 0 1.0065892e-06 0 0)
(0.0026493743 2.2055384e-06 0 1.4745761e-06 0 0)
(0.0030609945 2.6073232e-06 0 1.1546829e-06 0 0)
(0.0016504753 1.4264682e-06 0 1.5896169e-06 0 0)
(0.0020041022 1.7154093e-06 0 1.3160684e-06 0 0)
(0.0010772425 1.0676668e-06 0 1.6723575e-06 0 0)
(0.0013515296 9.1600438e-07 0 1.4643469e-06 0 0)
(0.0007761385 1.0610005e-06 0 1.7317406e-06 0 0)
(0.00094942629 1.1708723e-07 0 1.5878685e-06 0 0)
(0.00062941375 1.2468548e-06 0 1.7705328e-06 0 0)
(0.00071198382 -6.3175446e-07 0 1.6764996e-06 0 0)
(0.00056023941 1.485297e-06 0 1.7893218e-06 0 0)
(0.00058372752 -1.2224966e-06 0 1.7233936e-06 0 0)
(0.00052539391 1.6337143e-06 0 1.7848658e-06 0 0)
(0.00052464145 -1.5224303e-06 0 1.724633e-06 0 0)
(0.00050437912 1.5630014e-06 0 1.7531513e-06 0 0)
(0.00050476456 -1.3844243e-06 0 1.6802439e-06 0 0)
(0.00048983938 1.1854689e-06 0 1.6927906e-06 0 0)
(0.00050190453 -6.5574674e-07 0 1.600312e-06 0 0)
(0.00048084506 5.0028857e-07 0 1.6087553e-06 0 0)
(0.00050081031 7.3797277e-07 0 1.5190117e-06 0 0)
(0.00047804687 -2.3596077e-07 0 1.5114959e-06 0 0)
(0.00049409792 2.5084894e-06 0 1.4990494e-06 0 0)
(0.00047948256 7.8223744e-08 0 1.4085505e-06 0 0)
(0.00048338444 3.9390168e-06 0 1.6047635e-06 0 0)
(0.00047989328 3.9983571e-06 0 1.4265062e-06 0 0)
(0.00047719602 5.7111152e-06 0 1.9583039e-06 0 0)
(0.00047774198 1.1434437e-05 0 2.3401496e-06 0 0)
(0.017553062 1.3639472e-05 0 5.812693e-07 0 0)
(0.017589529 1.3477573e-05 0 8.6144867e-07 0 0)
(0.010739691 8.0244576e-06 0 1.3762327e-06 0 0)
(0.011225235 9.6960994e-06 0 1.0417592e-06 0 0)
(0.006570118 5.1174878e-06 0 1.6475021e-06 0 0)
(0.0070398814 6.5805022e-06 0 1.2677255e-06 0 0)
(0.0039822171 3.3580407e-06 0 1.87376e-06 0 0)
(0.0043464579 4.0807373e-06 0 1.4708581e-06 0 0)
(0.0024248181 2.2926937e-06 0 2.1155634e-06 0 0)
(0.0027035376 2.3540194e-06 0 1.6785775e-06 0 0)
(0.0014854084 1.4035141e-06 0 2.2631827e-06 0 0)
(0.0017349895 1.2841062e-06 0 1.9000199e-06 0 0)
(0.00095961375 1.0443117e-06 0 2.3595231e-06 0 0)
(0.001155432 3.2998719e-07 0 2.094254e-06 0 0)
(0.0006935121 1.1155303e-06 0 2.4175913e-06 0 0)
(0.00081457225 -5.6886677e-07 0 2.2426321e-06 0 0)
(0.00057063346 1.3932336e-06 0 2.4414886e-06 0 0)
(0.00062710329 -1.3088614e-06 0 2.3299689e-06 0 0)
(0.00051677185 1.6729604e-06 0 2.4320827e-06 0 0)
(0.00053660098 -1.7393322e-06 0 2.348405e-06 0 0)
(0.00049200048 1.7682785e-06 0 2.3853953e-06 0 0)
(0.00050196051 -1.7317383e-06 0 2.2986449e-06 0 0)
(0.00047901621 1.5598119e-06 0 2.2984095e-06 0 0)
(0.00049330034 -1.2207817e-06 0 2.1927261e-06 0 0)
(0.00047254887 1.0486883e-06 0 2.1761416e-06 0 0)
(0.00049119671 -2.1695963e-07 0 2.0586585e-06 0 0)
(0.00047137988 3.9199115e-07 0 2.0367446e-06 0 0)
(0.00048664032 1.1603834e-06 0 1.9483114e-06 0 0)
(0.00047328406 3.9165495e-08 0 1.9032643e-06 0 0)
(0.00047925065 2.5196567e-06 0 1.9203767e-06 0 0)
(0.0004740642 1.1783486e-06 0 1.8021478e-06 0 0)
(0.00047270134 3.5636815e-06 0 2.0191099e-06 0 0)
(0.00047158069 5.3603695e-06 0 1.9379329e-06 0 0)
(0.0004708912 5.8102226e-06 0 2.3727699e-06 0 0)
(0.00046984918 1.0698224e-05 0 2.9124911e-06 0 0)
(0.016813198 1.5021475e-05 0 8.0337892e-07 0 0)
(0.016544452 1.4740798e-05 0 1.2059634e-06 0 0)
(0.010182217 8.7441161e-06 0 1.9040937e-06 0 0)
(0.010378091 1.0274684e-05 0 1.4575719e-06 0 0)
(0.0061346761 5.4006952e-06 0 2.2696933e-06 0 0)
(0.0063742545 6.6235917e-06 0 1.7683328e-06 0 0)
(0.0036485457 3.403874e-06 0 2.5660227e-06 0 0)
(0.0038402469 3.7360533e-06 0 2.0424686e-06 0 0)
(0.0021768758 2.2251127e-06 0 2.8764814e-06 0 0)
(0.0023280272 1.8009772e-06 0 2.3165623e-06 0 0)
(0.0013092808 1.2777238e-06 0 3.0500159e-06 0 0)
(0.0014626997 6.1902699e-07 0 2.6007892e-06 0 0)
(0.00084018283 9.8755983e-07 0 3.147424e-06 0 0)
(0.00096667379 -4.0459112e-07 0 2.8353046e-06 0 0)
(0.00061508136 1.2054121e-06 0 3.187587e-06 0 0)
(0.0006929756 -1.2842397e-06 0 2.9932945e-06 0 0)
(0.00051916884 1.6178668e-06 0 3.1773164e-06 0 0)
(0.00055641373 -1.8688684e-06 0 3.0560905e-06 0 0)
(0.00048172783 1.9384306e-06 0 3.1190124e-06 0 0)
(0.00049981544 -2.007747e-06 0 3.020241e-06 0 0)
(0.00046710962 1.9500561e-06 0 3.0099135e-06 0 0)
(0.00048266079 -1.6538018e-06 0 2.8998788e-06 0 0)
(0.00046158414 1.5939487e-06 0 2.8529456e-06 0 0)
(0.00047876453 -8.815386e-07 0 2.7262856e-06 0 0)
(0.00046114588 1.0016015e-06 0 2.6685216e-06 0 0)
(0.00047552942 1.949059e-07 0 2.5463005e-06 0 0)
(0.00046334805 4.4415252e-07 0 2.4929235e-06 0 0)
(0.00047055054 1.4338994e-06 0 2.4214547e-06 0 0)
(0.00046494039 4.6064479e-07 0 2.3547648e-06 0 0)
(0.00046548416 2.4734659e-06 0 2.4013336e-06 0 0)
(0.00046370549 2.1607557e-06 0 2.2912936e-06 0 0)
(0.00046201321 3.5164773e-06 0 2.5115064e-06 0 0)
(0.00046088469 6.0122191e-06 0 2.5440098e-06 0 0)
(0.00046145808 6.2959562e-06 0 2.9104886e-06 0 0)
(0.00046084617 9.8293327e-06 0 3.5030908e-06 0 0)
(0.015974764 1.5980111e-05 0 1.0674819e-06 0 0)
(0.015391564 1.5529941e-05 0 1.6257496e-06 0 0)
(0.009553457 9.1569149e-06 0 2.5330615e-06 0 0)
(0.0094572855 1.0386497e-05 0 1.9636311e-06 0 0)
(0.0056501112 5.4197143e-06 0 3.0045283e-06 0 0)
(0.0056647091 6.2375807e-06 0 2.3737026e-06 0 0)
(0.0032847457 3.2401861e-06 0 3.373547e-06 0 0)
(0.0033146935 3.0346448e-06 0 2.7271699e-06 0 0)
(0.0019143901 2.0122677e-06 0 3.7510025e-06 0 0)
(0.0019517999 1.0006481e-06 0 3.0708822e-06 0 0)
(0.0011307552 1.0862215e-06 0 3.9379736e-06 0 0)
(0.0012024288 -1.762812e-07 0 3.4151752e-06 0 0)
(0.00072645624 9.5642895e-07 0 4.018515e-06 0 0)
(0.00079698396 -1.1370214e-06 0 3.6769724e-06 0 0)
(0.00054625591 1.3913407e-06 0 4.0200861e-06 0 0)
(0.00059168733 -1.8514525e-06 0 3.8218264e-06 0 0)
(0.00047776743 1.9533664e-06 0 3.9541932e-06 0 0)
(0.00050183838 -2.1543947e-06 0 3.8324192e-06 0 0)
(0.00045524469 2.2674857e-06 0 3.8266524e-06 0 0)
(0.00047136149 -1.9579173e-06 0 3.7188119e-06 0 0)
(0.00044870919 2.13578e-06 0 3.6397945e-06 0 0)
(0.00046404429 -1.3421184e-06 0 3.5173393e-06 0 0)
(0.00044819922 1.6315209e-06 0 3.4108639e-06 0 0)
(0.00046135848 -4.6846108e-07 0 3.2803728e-06 0 0)
(0.00045035121 1.0084196e-06 0 3.1829521e-06 0 0)
(0.0004580545 5.7509433e-07 0 3.0702639e-06 0 0)
(0.00045240705 5.8151525e-07 0 2.9997759e-06 0 0)
(0.00045453434 1.6613918e-06 0 2.9484571e-06 0 0)
(0.00045251567 9.5353957e-07 0 2.8792076e-06 0 0)
(0.00045151348 2.4857447e-06 0 2.9501828e-06 0 0)
(0.00045050879 2.9640923e-06 0 2.8725363e-06 0 0)
(0.00044951517 3.7433196e-06 0 3.0860191e-06 0 0)
(0.00044856541 6.2255435e-06 0 3.2184166e-06 0 0)
(0.00044943621 6.8028909e-06 0 3.5561905e-06 0 0)
(0.00044960345 9.1158224e-06 0 4.1388088e-06 0 0)
(0.015044509 1.6436255e-05 0 1.3743153e-06 0 0)
(0.014148377 1.5761662e-05 0 2.127017e-06 0 0)
(0.0088608678 9.2078685e-06 0 3.2655183e-06 0 0)
(0.0084824107 9.9828793e-06 0 2.5670679e-06 0 0)
(0.0051254458 5.1469332e-06 0 3.8516504e-06 0 0)
(0.0049314841 5.4184296e-06 0 3.0901417e-06 0 0)
(0.0029008497 2.8705954e-06 0 4.2914278e-06 0 0)
(0.002789166 2.025122e-06 0 3.5284984e-06 0 0)
(0.0016474306 1.6884398e-06 0 4.7285711e-06 0 0)
(0.0015918759 5.7328662e-08 0 3.9403569e-06 0 0)
(0.00095875154 8.8894077e-07 0 4.9108259e-06 0 0)
(0.00096743859 -9.5112726e-07 0 4.3353294e-06 0 0)
(0.00062492631 1.0177615e-06 0 4.9522681e-06 0 0)
(0.00065458996 -1.6930119e-06 0 4.6036164e-06 0 0)
(0.00049019484 1.711519e-06 0 4.8923701e-06 0 0)
(0.00051334727 -2.1164259e-06 0 4.7065103e-06 0 0)
(0.00044628795 2.3782578e-06 0 4.7496129e-06 0 0)
(0.00046144582 -2.0903178e-06 0 4.6369004e-06 0 0)
(0.00043492256 2.5916679e-06 0 4.5361988e-06 0 0)
(0.00044775402 -1.6275555e-06 0 4.4290219e-06 0 0)
(0.00043330084 2.2716524e-06 0 4.2666347e-06 0 0)
(0.00044466469 -8.9568967e-07 0 4.14585e-06 0 0)
(0.00043492071 1.6606088e-06 0 3.9810789e-06 0 0)
(0.00044245715 -2.9065084e-08 0 3.8586154e-06 0 0)
(0.0004370305 1.0592421e-06 0 3.7380009e-06 0 0)
(0.00044013929 9.5109713e-07 0 3.6381877e-06 0 0)
(0.00043794888 7.938836e-07 0 3.5688776e-06 0 0)
(0.00043804896 1.8726685e-06 0 3.5375489e-06 0 0)
(0.0004372221 1.4980966e-06 0 3.477147e-06 0 0)
(0.00043616138 2.5950229e-06 0 3.5678974e-06 0 0)
(0.00043535674 3.5651126e-06 0 3.5366783e-06 0 0)
(0.00043494697 4.147257e-06 0 3.7399883e-06 0 0)
(0.00043441065 6.2391899e-06 0 3.9469451e-06 0 0)
(0.00043527716 7.1399847e-06 0 4.2858401e-06 0 0)
(0.00043600061 8.6483941e-06 0 4.8316027e-06 0 0)
(0.014031312 1.6321104e-05 0 1.7236232e-06 0 0)
(0.012835107 1.5369284e-05 0 2.7153023e-06 0 0)
(0.0081140597 8.8538036e-06 0 4.1015595e-06 0 0)
(0.0074752618 9.0454132e-06 0 3.2740978e-06 0 0)
(0.0045717023 4.5741301e-06 0 4.8076333e-06 0 0)
(0.0041960973 4.2052075e-06 0 3.9222429e-06 0 0)
(0.002508388 2.3242223e-06 0 5.3110722e-06 0 0)
(0.0022829568 8.0664358e-07 0 4.4471655e-06 0 0)
(0.0013866404 1.313334e-06 0 5.7947553e-06 0 0)
(0.001263534 -8.7838113e-07 0 4.9197376e-06 0 0)
(0.00080145885 7.5966076e-07 0 5.9492597e-06 0 0)
(0.00076757296 -1.5310874e-06 0 5.3483415e-06 0 0)
(0.00053996874 1.2243895e-06 0 5.9267431e-06 0 0)
(0.00054318049 -1.9186214e-06 0 5.5948166e-06 0 0)
(0.00044713208 2.1557288e-06 0 5.7824142e-06 0 0)
(0.00045626929 -2.0004657e-06 0 5.6235878e-06 0 0)
(0.00042209392 2.8164681e-06 0 5.5443898e-06 0 0)
(0.0004309862 -1.7065068e-06 0 5.4500006e-06 0 0)
(0.00041729013 2.8379122e-06 0 5.2365712e-06 0 0)
(0.0004259657 -1.1194174e-06 0 5.1408789e-06 0 0)
(0.0004176969 2.3507155e-06 0 4.894408e-06 0 0)
(0.00042435578 -3.9309534e-07 0 4.7850485e-06 0 0)
(0.00041937918 1.7051688e-06 0 4.5792391e-06 0 0)
(0.00042284161 4.2790102e-07 0 4.4665726e-06 0 0)
(0.00042059384 1.1662515e-06 0 4.3450454e-06 0 0)
(0.00042156584 1.3298063e-06 0 4.2564037e-06 0 0)
(0.00042074537 1.0928652e-06 0 4.2014583e-06 0 0)
(0.00042029936 2.0797605e-06 0 4.1915206e-06 0 0)
(0.00041982746 2.055428e-06 0 4.1449847e-06 0 0)
(0.00041905976 2.8201211e-06 0 4.2506118e-06 0 0)
(0.00041842935 3.9917398e-06 0 4.2715532e-06 0 0)
(0.00041839992 4.609664e-06 0 4.4677991e-06 0 0)
(0.00041830785 6.2275289e-06 0 4.723067e-06 0 0)
(0.00041913716 7.2833916e-06 0 5.0755697e-06 0 0)
(0.00042015465 8.3664173e-06 0 5.5817043e-06 0 0)
(0.01294633 1.5582332e-05 0 2.1140272e-06 0 0)
(0.011474482 1.4311468e-05 0 3.3951462e-06 0 0)
(0.0073248384 8.0696703e-06 0 5.038647e-06 0 0)
(0.006459297 7.5949975e-06 0 4.08961e-06 0 0)
(0.0040017183 3.7184457e-06 0 5.8657609e-06 0 0)
(0.0034804168 2.6865038e-06 0 4.8723271e-06 0 0)
(0.0021198767 1.6583753e-06 0 6.4203021e-06 0 0)
(0.001814004 -4.7308833e-07 0 5.4803798e-06 0 0)
(0.0011423617 9.6698174e-07 0 6.9318671e-06 0 0)
(0.0009788827 -1.6272263e-06 0 5.99904e-06 0 0)
(0.00066524091 7.688589e-07 0 7.0320595e-06 0 0)
(0.00060811055 -1.7552471e-06 0 6.4359235e-06 0 0)
(0.00047300343 1.5900195e-06 0 6.9200211e-06 0 0)
(0.0004616844 -1.7281623e-06 0 6.6260831e-06 0 0)
(0.00041452546 2.6568985e-06 0 6.6703656e-06 0 0)
(0.00041561276 -1.5281182e-06 0 6.5492276e-06 0 0)
(0.00040141077 3.1775935e-06 0 6.3248143e-06 0 0)
(0.00040586212 -1.1101266e-06 0 6.2561921e-06 0 0)
(0.00039939702 2.9874996e-06 0 5.92676e-06 0 0)
(0.00040424611 -5.3639812e-07 0 5.8495488e-06 0 0)
(0.00040002127 2.4157593e-06 0 5.5350692e-06 0 0)
(0.00040321694 1.2797207e-07 0 5.4385166e-06 0 0)
(0.00040104359 1.7937204e-06 0 5.2163389e-06 0 0)
(0.00040242611 9.0117241e-07 0 5.1102472e-06 0 0)
(0.00040156524 1.3435454e-06 0 5.0066352e-06 0 0)
(0.00040177539 1.7016028e-06 0 4.9288784e-06 0 0)
(0.00040143889 1.4749889e-06 0 4.8929068e-06 0 0)
(0.00040094937 2.3080581e-06 0 4.9051371e-06 0 0)
(0.00040061631 2.5824563e-06 0 4.8774095e-06 0 0)
(0.00040017458 3.152266e-06 0 4.9925199e-06 0 0)
(0.00039976851 4.3099443e-06 0 5.0642417e-06 0 0)
(0.00039997358 5.031102e-06 0 5.2611506e-06 0 0)
(0.0004002551 6.2611523e-06 0 5.5435507e-06 0 0)
(0.00040108658 7.2924727e-06 0 5.9087618e-06 0 0)
(0.00040220921 8.166667e-06 0 6.3823572e-06 0 0)
(0.011803079 1.4190755e-05 0 2.5429313e-06 0 0)
(0.010091411 1.2581284e-05 0 4.1697158e-06 0 0)
(0.0065071496 6.8551046e-06 0 6.0713181e-06 0 0)
(0.0054589024 5.6995332e-06 0 5.0166827e-06 0 0)
(0.0034297933 2.6270674e-06 0 7.0159404e-06 0 0)
(0.0028055409 1.0020727e-06 0 5.9398031e-06 0 0)
(0.0017480849 9.5712009e-07 0 7.6036645e-06 0 0)
(0.0013975238 -1.6292659e-06 0 6.6210893e-06 0 0)
(0.00092358512 7.3733441e-07 0 8.1197749e-06 0 0)
(0.00074560008 -2.0117785e-06 0 7.1628597e-06 0 0)
(0.00055362935 9.6056448e-07 0 8.1372579e-06 0 0)
(0.00048921619 -1.5211776e-06 0 7.574322e-06 0 0)
(0.00042226979 2.0724255e-06 0 7.9113597e-06 0 0)
(0.00040502778 -1.1378297e-06 0 7.6702083e-06 0 0)
(0.00038817315 3.1158463e-06 0 7.5400176e-06 0 0)
(0.00038526459 -8.1218765e-07 0 7.4617106e-06 0 0)
(0.00038095845 3.4168946e-06 0 7.084773e-06 0 0)
(0.00038254919 -4.2591244e-07 0 7.0450561e-06 0 0)
(0.00037958796 3.0854228e-06 0 6.6141442e-06 0 0)
(0.00038178053 5.730195e-08 0 6.5555919e-06 0 0)
(0.00037982296 2.5128109e-06 0 6.1985674e-06 0 0)
(0.00038113386 6.5888148e-07 0 6.1103603e-06 0 0)
(0.00038027756 1.938848e-06 0 5.8967426e-06 0 0)
(0.00038083102 1.3824424e-06 0 5.7946731e-06 0 0)
(0.00038048587 1.5965268e-06 0 5.7185614e-06 0 0)
(0.00038046392 2.0612402e-06 0 5.6553813e-06 0 0)
(0.00038032789 1.9205504e-06 0 5.6360148e-06 0 0)
(0.00037994719 2.5803731e-06 0 5.6701653e-06 0 0)
(0.00037971021 3.057079e-06 0 5.6667187e-06 0 0)
(0.0003795482 3.5540656e-06 0 5.7873802e-06 0 0)
(0.00037940059 4.582095e-06 0 5.9034463e-06 0 0)
(0.00037975841 5.3660015e-06 0 6.109536e-06 0 0)
(0.00038030413 6.3326404e-06 0 6.4054173e-06 0 0)
(0.00038117485 7.2383728e-06 0 6.7763853e-06 0 0)
(0.00038230539 7.9856567e-06 0 7.2242267e-06 0 0)
(0.010617451 1.2147351e-05 0 3.0064749e-06 0 0)
(0.00871245 1.0215254e-05 0 5.0403791e-06 0 0)
(0.0056768888 5.2407045e-06 0 7.1909777e-06 0 0)
(0.0044984587 3.4789285e-06 0 6.0560178e-06 0 0)
(0.0028711341 1.3793213e-06 0 8.2447694e-06 0 0)
(0.0021905288 -6.6238948e-07 0 7.1204245e-06 0 0)
(0.0014050847 3.2396798e-07 0 8.8429225e-06 0 0)
(0.0010446737 -2.4627364e-06 0 7.85713e-06 0 0)
(0.00073683602 7.005325e-07 0 9.3367605e-06 0 0)
(0.00056606358 -1.8972943e-06 0 8.3897234e-06 0 0)
(0.00046669076 1.3297001e-06 0 9.24308e-06 0 0)
(0.00040622028 -8.2457812e-07 0 8.7347724e-06 0 0)
(0.00038349656 2.5798749e-06 0 8.8821775e-06 0 0)
(0.0003657736 -2.6465017e-07 0 8.6994652e-06 0 0)
(0.00036391005 3.4553905e-06 0 8.3804822e-06 0 0)
(0.00035969054 3.4789419e-10 0 8.3438329e-06 0 0)
(0.00035887107 3.5618877e-06 0 7.8263368e-06 0 0)
(0.00035894993 2.5545247e-07 0 7.8130163e-06 0 0)
(0.00035746559 3.1926883e-06 0 7.3059834e-06 0 0)
(0.00035820456 6.398658e-07 0 7.2615859e-06 0 0)
(0.00035738476 2.6600672e-06 0 6.889915e-06 0 0)
(0.0003578779 1.1957616e-06 0 6.8043389e-06 0 0)
(0.00035752008 2.1388398e-06 0 6.6187404e-06 0 0)
(0.0003577891 1.8616296e-06 0 6.5211211e-06 0 0)
(0.0003576591 1.9205478e-06 0 6.4742851e-06 0 0)
(0.00035757731 2.412202e-06 0 6.4301451e-06 0 0)
(0.00035755025 2.397993e-06 0 6.4233693e-06 0 0)
(0.00035732765 2.9057996e-06 0 6.4777827e-06 0 0)
(0.00035719637 3.4801464e-06 0 6.5025947e-06 0 0)
(0.000357251 3.9764135e-06 0 6.6281031e-06 0 0)
(0.00035735767 4.8430821e-06 0 6.7797753e-06 0 0)
(0.00035783524 5.6174942e-06 0 7.0006936e-06 0 0)
(0.00035854276 6.412475e-06 0 7.3030478e-06 0 0)
(0.00035946053 7.1685794e-06 0 7.6723983e-06 0 0)
(0.00036056459 7.8074071e-06 0 8.097773e-06 0 0)
(0.0094076129 9.4901301e-06 0 3.4995448e-06 0 0)
(0.0073650994 7.3013795e-06 0 6.0062358e-06 0 0)
(0.004851542 3.2930859e-06 0 8.3857971e-06 0 0)
(0.0036012238 1.1055535e-06 0 7.2052872e-06 0 0)
(0.0023410732 8.4541886e-08 0 9.5357547e-06 0 0)
(0.0016510532 -2.0897415e-06 0 8.4054327e-06 0 0)
(0.0011011319 -1.3280933e-07 0 1.0117638e-05 0 0)
(0.00076140953 -2.7944069e-06 0 9.1703005e-06 0 0)
(0.00058520003 8.9635396e-07 0 1.0560264e-05 0 0)
(0.00043710669 -1.2354669e-06 0 9.6517033e-06 0 0)
(0.00040109359 1.8116262e-06 0 1.032864e-05 0 0)
(0.00035083293 2.2517146e-07 0 9.8849457e-06 0 0)
(0.0003514253 3.0095345e-06 0 9.8171652e-06 0 0)
(0.00033619603 7.1810197e-07 0 9.6885451e-06 0 0)
(0.00033896081 3.666282e-06 0 9.1877194e-06 0 0)
(0.00033501904 7.9007897e-07 0 9.185718e-06 0 0)
(0.00033463145 3.6785537e-06 0 8.5533223e-06 0 0)
(0.00033410651 8.9554717e-07 0 8.5608735e-06 0 0)
(0.00033333896 3.340838e-06 0 8.0060908e-06 0 0)
(0.00033339363 1.2074913e-06 0 7.9699123e-06 0 0)
(0.00033303885 2.8504644e-06 0 7.6096097e-06 0 0)
(0.00033325085 1.7337836e-06 0 7.5226031e-06 0 0)
(0.00033307681 2.3875846e-06 0 7.3754757e-06 0 0)
(0.00033324002 2.3270478e-06 0 7.2853764e-06 0 0)
(0.00033323796 2.302064e-06 0 7.2651448e-06 0 0)
(0.00033316882 2.761571e-06 0 7.2426916e-06 0 0)
(0.00033321345 2.8743318e-06 0 7.2474826e-06 0 0)
(0.00033315783 3.2759935e-06 0 7.318826e-06 0 0)
(0.0003331562 3.8624574e-06 0 7.3732615e-06 0 0)
(0.00033337501 4.3760527e-06 0 7.5061506e-06 0 0)
(0.00033369904 5.0986032e-06 0 7.6844976e-06 0 0)
(0.00033428371 5.8066505e-06 0 7.9215654e-06 0 0)
(0.00033508079 6.4779997e-06 0 8.2273139e-06 0 0)
(0.00033602919 7.0994673e-06 0 8.5898611e-06 0 0)
(0.00033709753 7.6346366e-06 0 8.9936347e-06 0 0)
(0.0081937728 6.3001121e-06 0 4.015859e-06 0 0)
(0.006076885 3.9848263e-06 0 7.0636105e-06 0 0)
(0.0040496183 1.1174289e-06 0 9.6407377e-06 0 0)
(0.0027880628 -1.2020248e-06 0 8.4583786e-06 0 0)
(0.0018540622 -1.1259874e-06 0 1.0869655e-05 0 0)
(0.0011980819 -3.0569509e-06 0 9.7805746e-06 0 0)
(0.00084348831 -3.2217958e-07 0 1.1405744e-05 0 0)
(0.00054774166 -2.5082934e-06 0 1.0535428e-05 0 0)
(0.00046777088 1.3056043e-06 0 1.1767399e-05 0 0)
(0.00035062131 -9.706511e-08 0 1.091475e-05 0 0)
(0.00035109338 2.2976632e-06 0 1.1374535e-05 0 0)
(0.00031315395 1.4306664e-06 0 1.0991688e-05 0 0)
(0.00032158622 3.3031471e-06 0 1.0705677e-05 0 0)
(0.00031006725 1.6516366e-06 0 1.0618552e-05 0 0)
(0.00031219806 3.7999569e-06 0 9.9616032e-06 0 0)
(0.00030919261 1.4971554e-06 0 9.9847439e-06 0 0)
(0.00030865163 3.8143735e-06 0 9.2667011e-06 0 0)
(0.00030787026 1.4867268e-06 0 9.2896548e-06 0 0)
(0.00030745894 3.52558e-06 0 8.7160436e-06 0 0)
(0.00030726883 1.7604724e-06 0 8.6819393e-06 0 0)
(0.00030707821 3.0696589e-06 0 8.3522743e-06 0 0)
(0.00030721177 2.2622144e-06 0 8.2629049e-06 0 0)
(0.0003071383 2.6767594e-06 0 8.1574737e-06 0 0)
(0.00030725522 2.7660349e-06 0 8.079162e-06 0 0)
(0.00030734739 2.7202692e-06 0 8.0802345e-06 0 0)
(0.00030733643 3.1128913e-06 0 8.0807823e-06 0 0)
(0.00030744143 3.3242955e-06 0 8.0988362e-06 0 0)
(0.00030754055 3.6674827e-06 0 8.1833733e-06 0 0)
(0.00030768505 4.2119925e-06 0 8.2665495e-06 0 0)
(0.00030803507 4.7253436e-06 0 8.4110215e-06 0 0)
(0.00030852571 5.3344706e-06 0 8.6084688e-06 0 0)
(0.00030920312 5.9484686e-06 0 8.8597002e-06 0 0)
(0.00031004695 6.5160434e-06 0 9.1670908e-06 0 0)
(0.00031100171 7.0260137e-06 0 9.5199278e-06 0 0)
(0.00031202883 7.4664435e-06 0 9.9022451e-06 0 0)
(0.0069977748 2.705446e-06 0 4.5481248e-06 0 0)
(0.0048742516 4.6945092e-07 0 8.2055142e-06 0 0)
(0.003289849 -1.1440795e-06 0 1.0937701e-05 0 0)
(0.0020760862 -3.1941857e-06 0 9.8045097e-06 0 0)
(0.001422477 -2.1145299e-06 0 1.2224875e-05 0 0)
(0.00083673909 -3.3720631e-06 0 1.1224981e-05 0 0)
(0.0006353811 -1.9740029e-07 0 1.268395e-05 0 0)
(0.00039763004 -1.5957551e-06 0 1.1919709e-05 0 0)
(0.00037984202 1.8414005e-06 0 1.2935199e-05 0 0)
(0.00029511629 1.3262083e-06 0 1.2140296e-05 0 0)
(0.0003102963 2.6817901e-06 0 1.236377e-05 0 0)
(0.00028399 2.5767151e-06 0 1.2024998e-05 0 0)
(0.00029130481 3.4730011e-06 0 1.1542739e-05 0 0)
(0.00028351654 2.4450836e-06 0 1.1480355e-05 0 0)
(0.00028397891 3.9138366e-06 0 1.0699184e-05 0 0)
(0.00028174293 2.1096983e-06 0 1.0740845e-05 0 0)
(0.00028120697 3.9770804e-06 0 9.9672436e-06 0 0)
(0.00028033334 2.0311509e-06 0 9.999789e-06 0 0)
(0.00028009155 3.7275625e-06 0 9.4317278e-06 0 0)
(0.00027986403 2.2944769e-06 0 9.3951491e-06 0 0)
(0.0002797448 3.302783e-06 0 9.1091026e-06 0 0)
(0.00027986405 2.7643519e-06 0 9.0188437e-06 0 0)
(0.00027987777 2.9935964e-06 0 8.9537411e-06 0 0)
(0.00027998398 3.1682749e-06 0 8.8917658e-06 0 0)
(0.00028014912 3.1465239e-06 0 8.908085e-06 0 0)
(0.00028022516 3.4626065e-06 0 8.931453e-06 0 0)
(0.00028039568 3.7315062e-06 0 8.9653026e-06 0 0)
(0.00028062833 4.0486786e-06 0 9.0603958e-06 0 0)
(0.00028091875 4.5271757e-06 0 9.170152e-06 0 0)
(0.0002813807 5.0115879e-06 0 9.3295433e-06 0 0)
(0.00028198971 5.5295794e-06 0 9.5414548e-06 0 0)
(0.00028273751 6.0450892e-06 0 9.8032402e-06 0 0)