/*--------------------------------*- C++ -*----------------------------------*\
  =========                 |
  \\      /  F ield         | OpenFOAM: The Open Source CFD Toolbox
   \\    /   O peration     | Website:  https://openfoam.org
    \\  /    A nd           | Version:  11
     \\/     M anipulation  |
\*---------------------------------------------------------------------------*/
FoamFile
{
    format      ascii;
    class       volScalarField;
    location    "1";
    object      yPlus;
}
// * * * * * * * * * * * * * * * * * * * * * * * * * * * * * * * * * * * * * //

dimensions      [0 0 0 0 0 0 0];

internalField   uniform 0;

boundaryField
{
    lowerWall
    {
        type            calculated;
        value           nonuniform List<scalar> 
600
(
1.7554217
1.4172439
1.1999417
1.0455933
0.94929983
0.89000783
0.84839326
0.81547856
0.78798921
0.7646226
0.74444749
0.72671753
0.71083164
0.69639926
0.6831659
0.67094982
0.65961373
0.64904984
0.63917032
0.62990176
0.62118151
0.61295559
0.60517684
0.59780403
0.59080064
0.58413454
0.57777696
0.57170257
0.56588841
0.56031435
0.55496191
0.54981481
0.54485831
0.54007838
0.5354646
0.53100145
0.5266872
0.52249559
0.51843649
0.51451218
0.51070362
0.50697754
0.50332274
0.49974063
0.49623389
0.49280434
0.48945259
0.48617822
0.48298
0.4798562
0.47680476
0.47382341
0.47090977
0.46806146
0.46527604
0.46255118
0.45988453
0.45727388
0.45471704
0.45221198
0.44975663
0.44734918
0.44498769
0.44267056
0.44039597
0.43816256
0.43596853
0.43381281
0.43169359
0.42961008
0.42756044
0.42554411
0.4235593
0.42160531
0.41968131
0.41778405
0.41591827
0.41406861
0.41225559
0.41047544
0.40871403
0.40695529
0.40520407
0.40346486
0.40174128
0.40003577
0.39834982
0.39668428
0.39503959
0.39341586
0.39181304
0.39023092
0.38866922
0.38712759
0.38560563
0.38410295
0.3826191
0.38115367
0.37970618
0.37827626
0.37686341
0.37546729
0.37408739
0.37272343
0.37137486
0.3700415
0.36872273
0.36741849
0.36612806
0.36485156
0.3635881
0.36233796
0.3611002
0.35987497
0.35866196
0.35745945
0.35627127
0.35508693
0.35392005
0.35276988
0.35162539
0.35047502
0.34932179
0.34817036
0.34702411
0.34588528
0.34475523
0.34363479
0.34252442
0.3414244
0.3403348
0.33925565
0.33818688
0.33712839
0.33608003
0.33504168
0.33401312
0.33299423
0.33198477
0.33098462
0.32999351
0.32901137
0.32803788
0.32707304
0.32611646
0.32516822
0.32422785
0.32329554
0.32237072
0.32145367
0.32054378
0.31964122
0.31874581
0.31785649
0.31697584
0.31609668
0.31522865
0.31437202
0.31351558
0.31265088
0.31178068
0.31091008
0.31004204
0.30917858
0.30832078
0.30746933
0.30662456
0.30578673
0.30495583
0.30413198
0.30331501
0.30250499
0.30170167
0.30090515
0.30011507
0.2993316
0.29855429
0.2977834
0.29701838
0.2962596
0.29550637
0.29475926
0.29401734
0.29328146
0.29255038
0.29182528
0.29110462
0.29038974
0.28967931
0.28897332
0.28827425
0.28757219
0.28688728
0.28620346
0.2855126
0.28481124
0.28410787
0.28340502
0.28270531
0.28200971
0.281319
0.28063343
0.27995329
0.27927852
0.27860929
0.27794537
0.27728691
0.27663359
0.2759856
0.27534253
0.27470463
0.2740714
0.27344322
0.27281944
0.2722006
0.27158586
0.270976
0.27036992
0.26976867
0.2691709
0.2685778
0.2679882
0.26740212
0.2668218
0.26623851
0.26566942
0.26510116
0.26452527
0.26393922
0.26335025
0.26276149
0.26217535
0.26159275
0.26101437
0.26044041
0.25987108
0.25930632
0.25874622
0.25819058
0.2576395
0.25709272
0.25655034
0.25601205
0.25547803
0.25494786
0.25442183
0.25389942
0.25338105
0.25286606
0.25235502
0.25184711
0.251343
0.25084199
0.25034403
0.24985046
0.24935572
0.24887085
0.24838809
0.24789703
0.24739657
0.24689239
0.24638861
0.2458871
0.24538899
0.24489462
0.24440434
0.24391808
0.24343599
0.24295785
0.2424838
0.24201351
0.24154717
0.24108438
0.24062541
0.24016976
0.23971782
0.23926895
0.23882372
0.2383813
0.23794249
0.23750618
0.23707347
0.23664294
0.23621589
0.23579094
0.23536705
0.23495369
0.23453163
0.23410009
0.23366238
0.23322488
0.23278917
0.23235658
0.23192749
0.23150207
0.23108044
0.23066247
0.23024823
0.22983747
0.2294303
0.22902642
0.22862598
0.22822861
0.22783455
0.22744334
0.22705535
0.22666998
0.22628776
0.2259079
0.22553119
0.22515647
0.22478499
0.22441477
0.22404715
0.22368705
0.22331661
0.22293734
0.22255359
0.22217072
0.22179003
0.22141247
0.22103829
0.22066754
0.2203003
0.21993637
0.21957584
0.21921843
0.21886426
0.21851299
0.21816482
0.21781933
0.21747685
0.21713682
0.21679972
0.21646484
0.21613284
0.21580287
0.21547543
0.21515069
0.21482535
0.21450864
0.21418855
0.21385817
0.21352115
0.21318306
0.2128467
0.21251305
0.21218258
0.21185528
0.21153126
0.21121032
0.21089253
0.21057761
0.2102657
0.20995641
0.20965003
0.20934602
0.20904486
0.2087458
0.20844959
0.20815518
0.20786366
0.2075736
0.2072864
0.20700065
0.20671561
0.20643945
0.20615028
0.20585351
0.2055534
0.20525509
0.20495898
0.20466602
0.20437592
0.20408899
0.20380485
0.2035237
0.20324516
0.2029694
0.20269609
0.20242536
0.20215696
0.20189094
0.20162716
0.20136557
0.20110615
0.20084874
0.2005933
0.20034019
0.2000868
0.19984086
0.19958939
0.19932821
0.19906213
0.19879657
0.19853281
0.19827212
0.1980139
0.19775887
0.19750622
0.19725658
0.19700914
0.19676451
0.19652193
0.19628193
0.19604391
0.19580823
0.19557452
0.19534287
0.19511325
0.19488537
0.19465948
0.19443558
0.19421083
0.19399671
0.19376664
0.19353132
0.19329301
0.19305799
0.1928241
0.19259425
0.1923657
0.19214114
0.19191762
0.19169801
0.19147913
0.19126411
0.19104952
0.19083881
0.19062819
0.19042154
0.19021465
0.19001185
0.1898084
0.18960927
0.18940889
0.18921272
0.18901833
0.18881295
0.18860068
0.18839043
0.18817993
0.18797441
0.18776877
0.18756837
0.18736746
0.18717184
0.18697527
0.18678407
0.18659151
0.18640444
0.18621558
0.18603243
0.185847
0.18566757
0.18548532
0.18530942
0.18513015
0.18495672
0.18478381
0.18460166
0.1844108
0.18422475
0.18403593
0.18385462
0.18367034
0.18349391
0.18331396
0.18314204
0.18296604
0.1827983
0.18262594
0.18246209
0.18229312
0.18213295
0.18196714
0.18181044
0.18164758
0.1814943
0.18133321
0.18118621
0.1810212
0.18085915
0.18068603
0.18052506
0.18035546
0.18019934
0.18003378
0.17988234
0.17972044
0.17957336
0.17941476
0.17927178
0.17911617
0.17897711
0.17882423
0.17868893
0.17853854
0.17840686
0.17825885
0.17812963
0.1779876
0.17785167
0.17769243
0.17755388
0.17739637
0.17726276
0.17710876
0.17698006
0.17682922
0.17670513
0.17655707
0.17643733
0.17629172
0.1761762
0.17603276
0.17592133
0.17577983
0.17567235
0.17553265
0.17542839
0.1752927
0.17518512
0.17503412
0.17492271
0.17477223
0.17466611
0.17451825
0.17441753
0.17427192
0.17417635
0.17403258
0.17394201
0.1737997
0.17371406
0.17357288
0.17349213
0.17335182
0.17327593
0.17313618
0.17306488
0.17292716
0.17284952
0.17269588
0.17262064
0.17246767
0.17239913
0.17224731
0.17218538
0.17203412
0.17197883
0.1718276
0.17177898
0.17162745
0.17158552
0.17143341
0.17139832
0.17124526
0.17121732
0.17106243
0.17104465
0.17087732
0.17085289
0.17068014
0.17066507
0.17049124
0.17048674
0.17031147
0.17031789
0.17014056
0.17015874
0.16997864
0.17000937
0.1698263
0.16987012
0.16968387
0.16974183
0.1695517
0.16962524
0.16943004
0.16951013
0.16929801
0.16939448
0.16917818
0.16929489
0.16907454
0.16921185
0.16898734
0.16914571
0.16891716
0.16909608
0.16886507
0.16906229
0.16883238
0.16904243
0.16882194
0.16903082
0.16884146
0.1690043
0.16890562
)
;
    }
    lowerSymmetry
    {
        type            calculated;
        value           uniform 0;
    }
    upperSymmetry
    {
        type            calculated;
        value           uniform 0;
    }
    inlet
    {
        type            calculated;
        value           uniform 0;
    }
    outlet
    {
        type            calculated;
        value           uniform 0;
    }
    defaultFaces
    {
        type            empty;
    }
}


// ************************************************************************* //
