/*--------------------------------*- C++ -*----------------------------------*\
| =========                 |                                                 |
| \\      /  F ield         | OpenFOAM: The Open Source CFD Toolbox           |
|  \\    /   O peration     | Version:  2206                                  |
|   \\  /    A nd           | Website:  www.openfoam.com                      |
|    \\/     M anipulation  |                                                 |
\*---------------------------------------------------------------------------*/
FoamFile
{
    version     2.0;
    format      ascii;
    arch        "LSB;label=32;scalar=64";
    class       volScalarField;
    location    "1800";
    object      k;
}
// * * * * * * * * * * * * * * * * * * * * * * * * * * * * * * * * * * * * * //

dimensions      [0 2 -2 0 0 0 0];

internalField   nonuniform List<scalar> 
13056
(
8.7412188e-05
6.2651176e-05
6.1349151e-05
6.1170074e-05
6.1182851e-05
6.119574e-05
6.1199595e-05
6.1201253e-05
6.1203172e-05
6.1205934e-05
6.1209733e-05
6.1214735e-05
6.1221152e-05
6.1229284e-05
6.1239527e-05
6.12525e-05
6.1269076e-05
6.1290269e-05
6.132128e-05
6.1348348e-05
6.1472892e-05
6.1270298e-05
6.2676516e-05
1.6219128e-05
3.0942634e-07
4.8279407e-08
2.4504023e-08
1.6543201e-08
1.2649983e-08
1.0277855e-08
8.6746218e-09
7.503753e-09
6.6087827e-09
5.9025158e-09
5.3298577e-09
4.8552978e-09
4.4552864e-09
4.1133998e-09
3.8176871e-09
3.5592632e-09
3.3314186e-09
3.1289779e-09
2.9477538e-09
2.7847013e-09
2.6370671e-09
2.5027578e-09
2.3800155e-09
2.2673813e-09
2.163634e-09
2.0677439e-09
1.9788322e-09
1.8961469e-09
1.8190411e-09
1.7469546e-09
1.6794028e-09
1.6159624e-09
1.5562601e-09
1.4999664e-09
1.4467911e-09
1.3964763e-09
1.3487923e-09
1.3035356e-09
1.2605253e-09
1.2195978e-09
1.1806043e-09
1.143412e-09
1.1079019e-09
1.0739671e-09
1.0415108e-09
1.0104471e-09
9.8070047e-10
9.5220397e-10
9.2489802e-10
8.9873101e-10
8.7365781e-10
8.496404e-10
8.2664808e-10
8.0466064e-10
7.836746e-10
7.6369334e-10
7.4472816e-10
7.2680071e-10
7.0994113e-10
6.941935e-10
6.796278e-10
6.6634761e-10
6.5447488e-10
6.4419526e-10
6.3597227e-10
6.2913379e-10
6.2654772e-10
6.2574862e-10
6.2903464e-10
6.3648099e-10
6.4899395e-10
6.6737419e-10
6.9223228e-10
7.2357323e-10
7.6164942e-10
8.0623542e-10
8.5477377e-10
9.0224236e-10
9.4642417e-10
9.7939996e-10
1.0073389e-09
1.0273978e-09
1.0422542e-09
1.0530855e-09
1.0607454e-09
1.065841e-09
1.0687825e-09
1.0698714e-09
1.0691379e-09
1.066612e-09
1.0625236e-09
1.057081e-09
1.050527e-09
1.0431694e-09
1.0352069e-09
1.0268012e-09
1.0181636e-09
1.009433e-09
1.0006665e-09
9.9192191e-10
9.8328688e-10
9.7480427e-10
9.6647252e-10
9.5827235e-10
9.5020973e-10
9.4228186e-10
9.3452153e-10
9.2657032e-10
9.1901534e-10
9.0966418e-10
9.0210806e-10
8.911763e-10
8.740979e-05
6.2645584e-05
6.1343455e-05
6.1164301e-05
6.1177054e-05
6.1189939e-05
6.1193792e-05
6.1195449e-05
6.1197368e-05
6.1200129e-05
6.1203928e-05
6.120893e-05
6.1215347e-05
6.1223478e-05
6.1233721e-05
6.1246693e-05
6.126327e-05
6.1284462e-05
6.1315471e-05
6.1342538e-05
6.1467078e-05
6.1264476e-05
6.267067e-05
1.6221488e-05
4.760109e-08
7.4141922e-09
3.7630421e-09
2.5405114e-09
1.9426369e-09
1.5783537e-09
1.3321481e-09
1.1523399e-09
1.0149009e-09
9.0644064e-10
8.1849848e-10
7.4562112e-10
6.8419208e-10
6.3168921e-10
5.8627723e-10
5.4659163e-10
5.1160202e-10
4.8051366e-10
4.526835e-10
4.2764389e-10
4.0497207e-10
3.8434652e-10
3.6549729e-10
3.4820036e-10
3.3226819e-10
3.1754263e-10
3.0388874e-10
2.9119102e-10
2.7935012e-10
2.6828003e-10
2.579063e-10
2.4816394e-10
2.389956e-10
2.3035075e-10
2.2218487e-10
2.1445833e-10
2.0713583e-10
2.0018612e-10
1.935814e-10
1.8729654e-10
1.8130873e-10
1.7559755e-10
1.7014472e-10
1.6493383e-10
1.5995002e-10
1.5518007e-10
1.5061232e-10
1.4623643e-10
1.4204356e-10
1.3802606e-10
1.3417667e-10
1.3048958e-10
1.2696007e-10
1.2358509e-10
1.2036412e-10
1.1729767e-10
1.1438732e-10
1.116357e-10
1.0904861e-10
1.066346e-10
1.0440294e-10
1.0236975e-10
1.0055399e-10
9.8984476e-11
9.7732411e-11
9.6693077e-11
9.6300311e-11
9.6198153e-11
9.6730116e-11
9.7907536e-11
9.9870882e-11
1.027442e-10
1.0662157e-10
1.1150264e-10
1.1742307e-10
1.2434057e-10
1.3185165e-10
1.3917989e-10
1.45991e-10
1.5107192e-10
1.5537924e-10
1.5847549e-10
1.6077367e-10
1.6245442e-10
1.6364779e-10
1.6444592e-10
1.6491118e-10
1.6508947e-10
1.6498514e-10
1.6460249e-10
1.6397685e-10
1.6314067e-10
1.6213178e-10
1.6099792e-10
1.5977003e-10
1.584733e-10
1.5714041e-10
1.5579287e-10
1.5443962e-10
1.5308965e-10
1.5175649e-10
1.5044676e-10
1.4916027e-10
1.4789409e-10
1.4664915e-10
1.4542503e-10
1.4422672e-10
1.4299931e-10
1.4183259e-10
1.4039046e-10
1.3922393e-10
1.3753613e-10
8.7402123e-05
6.262808e-05
6.1325644e-05
6.1146258e-05
6.115894e-05
6.1171811e-05
6.117566e-05
6.1177315e-05
6.1179232e-05
6.1181992e-05
6.1185789e-05
6.1190791e-05
6.1197207e-05
6.1205338e-05
6.1215579e-05
6.1228551e-05
6.1245125e-05
6.1266315e-05
6.129732e-05
6.1324379e-05
6.1448904e-05
6.12463e-05
6.2652274e-05
1.6224477e-05
1.4886366e-08
2.3128169e-09
1.1738622e-09
7.9250174e-10
6.0600327e-10
4.9237123e-10
4.155711e-10
3.5948223e-10
3.1660952e-10
2.8277593e-10
2.553427e-10
2.3260885e-10
2.1344645e-10
1.9706886e-10
1.8290338e-10
1.7052428e-10
1.5961004e-10
1.4991274e-10
1.412318e-10
1.3342137e-10
1.2634957e-10
1.1991611e-10
1.1403681e-10
1.0864177e-10
1.036725e-10
9.9079682e-11
9.4821186e-11
9.0860961e-11
8.7167935e-11
8.3715329e-11
8.0479887e-11
7.7441289e-11
7.4581636e-11
7.1885381e-11
6.9339134e-11
6.6930426e-11
6.4647909e-11
6.2481828e-11
6.042353e-11
5.8465195e-11
5.6599699e-11
5.4820692e-11
5.3122503e-11
5.1499946e-11
4.9948428e-11
4.8463704e-11
4.7041812e-11
4.5679074e-11
4.437472e-11
4.3127943e-11
4.1934602e-11
4.079299e-11
3.9701794e-11
3.8660274e-11
3.7668506e-11
3.6726676e-11
3.5834506e-11
3.4988811e-11
3.4198231e-11
3.3475875e-11
3.2816482e-11
3.2226593e-11
3.1714033e-11
3.129003e-11
3.097803e-11
3.0738608e-11
3.067439e-11
3.079263e-11
3.1155324e-11
3.1767659e-11
3.2683597e-11
3.3951156e-11
3.5604612e-11
3.7640687e-11
4.0057753e-11
4.2802165e-11
4.568143e-11
4.8406617e-11
5.0879558e-11
5.2729514e-11
5.4300276e-11
5.5459078e-11
5.6350052e-11
5.7033963e-11
5.7549285e-11
5.7922328e-11
5.817169e-11
5.8310649e-11
5.8338955e-11
5.8256135e-11
5.8073702e-11
5.7805295e-11
5.7466942e-11
5.7077379e-11
5.6649542e-11
5.6193953e-11
5.5722855e-11
5.5244487e-11
5.4762826e-11
5.4281525e-11
5.3805404e-11
5.3336962e-11
5.2876458e-11
5.2423155e-11
5.1977429e-11
5.1539294e-11
5.1109944e-11
5.0672895e-11
5.0254021e-11
4.9750701e-11
4.9334487e-11
4.8731457e-11
8.7388951e-05
6.2598098e-05
6.1295142e-05
6.111536e-05
6.112792e-05
6.1140768e-05
6.1144611e-05
6.1146262e-05
6.1148176e-05
6.1150934e-05
6.1154729e-05
6.1159729e-05
6.1166144e-05
6.1174273e-05
6.1184513e-05
6.1197483e-05
6.1214054e-05
6.1235239e-05
6.1266237e-05
6.1293282e-05
6.1417779e-05
6.1215179e-05
6.2620734e-05
1.6228261e-05
6.6225075e-09
1.0198671e-09
5.1763884e-10
3.494772e-10
2.6725576e-10
2.1716192e-10
1.8330371e-10
1.5857494e-10
1.3967179e-10
1.2475249e-10
1.1265506e-10
1.0262987e-10
9.4180141e-11
8.6959427e-11
8.0714648e-11
7.525779e-11
7.044683e-11
6.6172379e-11
6.2346066e-11
5.890363e-11
5.5786978e-11
5.295191e-11
5.0361316e-11
4.79844e-11
4.5795373e-11
4.3772524e-11
4.1897184e-11
4.0153382e-11
3.8527191e-11
3.7006956e-11
3.5582334e-11
3.4244231e-11
3.2984731e-11
3.1797614e-11
3.0678417e-11
2.9621336e-11
2.8620416e-11
2.7671337e-11
2.6770341e-11
2.5914049e-11
2.5099291e-11
2.432334e-11
2.3583801e-11
2.2878243e-11
2.2204772e-11
2.1561228e-11
2.0944977e-11
2.0353172e-11
1.9791016e-11
1.9262679e-11
1.8761202e-11
1.8286235e-11
1.7837766e-11
1.7416248e-11
1.7022586e-11
1.6657262e-11
1.6318542e-11
1.599489e-11
1.5707937e-11
1.5491539e-11
1.532336e-11
1.5211483e-11
1.5165992e-11
1.5200127e-11
1.5331041e-11
1.553207e-11
1.5780743e-11
1.6344681e-11
1.7165655e-11
1.8261226e-11
1.9691218e-11
2.1511876e-11
2.3762519e-11
2.6446155e-11
2.9549903e-11
3.2963362e-11
3.6415874e-11
3.9595818e-11
4.2354427e-11
4.4512473e-11
4.629915e-11
4.7704208e-11
4.8847999e-11
4.9789825e-11
5.0557823e-11
5.117238e-11
5.1650104e-11
5.1999354e-11
5.2216905e-11
5.2297259e-11
5.2248096e-11
5.2088052e-11
5.1839298e-11
5.1524065e-11
5.1159793e-11
5.0760663e-11
5.0339633e-11
4.990595e-11
4.9465573e-11
4.9023162e-11
4.8583152e-11
4.8148226e-11
4.7719579e-11
4.7297437e-11
4.6882274e-11
4.6474577e-11
4.6073738e-11
4.5673627e-11
4.5280121e-11
4.4849077e-11
4.4465583e-11
4.3907529e-11
8.7369902e-05
6.255475e-05
6.1251043e-05
6.107069e-05
6.1083074e-05
6.1095888e-05
6.1099722e-05
6.1101368e-05
6.1103278e-05
6.1106032e-05
6.1109824e-05
6.1114822e-05
6.1121235e-05
6.1129362e-05
6.11396e-05
6.1152566e-05
6.1169133e-05
6.1190311e-05
6.1221297e-05
6.1248324e-05
6.1372777e-05
6.1170189e-05
6.257512e-05
1.6233143e-05
3.6360256e-09
5.4430094e-10
2.7628531e-10
1.8654793e-10
1.4270851e-10
1.160064e-10
9.7955131e-11
8.4767921e-11
7.4684714e-11
6.6723071e-11
6.02663e-11
5.4915347e-11
5.0406407e-11
4.6555525e-11
4.3226512e-11
4.0318464e-11
3.7755016e-11
3.5477654e-11
3.3439377e-11
3.1606046e-11
2.9946767e-11
2.8438013e-11
2.7060025e-11
2.5796406e-11
2.4633418e-11
2.3559557e-11
2.2564636e-11
2.1639974e-11
2.0777709e-11
1.9971939e-11
1.9216982e-11
1.8507726e-11
1.7839905e-11
1.7211485e-11
1.6623013e-11
1.6070805e-11
1.5549789e-11
1.5057639e-11
1.4592493e-11
1.4152708e-11
1.3736531e-11
1.3342681e-11
1.2970158e-11
1.2617496e-11
1.2284006e-11
1.1968088e-11
1.1666756e-11
1.1376238e-11
1.1109876e-11
1.0878788e-11
1.0669838e-11
1.0483902e-11
1.0322473e-11
1.0187763e-11
1.0082567e-11
1.0008882e-11
9.9643815e-12
9.9269691e-12
9.938219e-12
1.0065877e-11
1.0268488e-11
1.0563113e-11
1.097171e-11
1.1523238e-11
1.2250609e-11
1.3155226e-11
1.4183386e-11
1.5744026e-11
1.777941e-11
2.0361128e-11
2.3609061e-11
2.7639276e-11
3.2533938e-11
3.830965e-11
4.4939739e-11
5.217132e-11
5.9423295e-11
6.6075499e-11
7.1754041e-11
7.6308411e-11
8.0026043e-11
8.3027963e-11
8.5517792e-11
8.7611366e-11
8.9356327e-11
9.0790152e-11
9.1945685e-11
9.2835379e-11
9.3450645e-11
9.3775948e-11
9.3822026e-11
9.3629809e-11
9.3248164e-11
9.2723298e-11
9.2093308e-11
9.1389163e-11
9.0636408e-11
8.9853791e-11
8.9054788e-11
8.8249379e-11
8.7445643e-11
8.6648902e-11
8.5862426e-11
8.5087665e-11
8.4325624e-11
8.357773e-11
8.2840932e-11
8.2114384e-11
8.1388311e-11
8.0639734e-11
7.9940541e-11
7.8920312e-11
8.7344474e-05
6.2496834e-05
6.119212e-05
6.1011003e-05
6.1023152e-05
6.1035919e-05
6.1039742e-05
6.104138e-05
6.1043284e-05
6.1046034e-05
6.1049823e-05
6.1054817e-05
6.1061228e-05
6.1069352e-05
6.1079587e-05
6.1092549e-05
6.1109109e-05
6.1130278e-05
6.1161249e-05
6.1188252e-05
6.1312644e-05
6.1110074e-05
6.2514175e-05
1.6239582e-05
2.3591493e-09
3.283206e-10
1.6670039e-10
1.1259136e-10
8.6231736e-11
7.0191132e-11
5.9340493e-11
5.1407209e-11
4.5336362e-11
4.0536705e-11
3.6642356e-11
3.3414569e-11
3.0696636e-11
2.8379284e-11
2.6378505e-11
2.4632525e-11
2.309421e-11
2.1728007e-11
2.0505888e-11
1.9407566e-11
1.8414626e-11
1.7512997e-11
1.6690851e-11
1.5938379e-11
1.5247341e-11
1.4610967e-11
1.4022667e-11
1.3476923e-11
1.2968356e-11
1.2493954e-11
1.205006e-11
1.1633201e-11
1.1240753e-11
1.0873574e-11
1.0536762e-11
1.0227234e-11
9.9389286e-12
9.6704544e-12
9.4209774e-12
9.1898306e-12
8.9758371e-12
8.7785796e-12
8.5980699e-12
8.4334418e-12
8.2849638e-12
8.15129e-12
8.0286248e-12
7.9116673e-12
7.8238606e-12
7.7855048e-12
7.7759506e-12
7.7980615e-12
7.8560609e-12
7.9554861e-12
8.1031421e-12
8.3054852e-12
8.5642885e-12
8.8545068e-12
9.2325431e-12
9.7958247e-12
1.0503452e-11
1.1391531e-11
1.2506914e-11
1.3911933e-11
1.5677322e-11
1.7851308e-11
2.0372717e-11
2.3872652e-11
2.8332602e-11
3.3932361e-11
4.0922811e-11
4.9549031e-11
5.998637e-11
7.2278612e-11
8.6377318e-11
1.0175044e-10
1.1717504e-10
1.313534e-10
1.4343185e-10
1.53196e-10
1.6113233e-10
1.6757856e-10
1.7294047e-10
1.7746257e-10
1.8124394e-10
1.8436528e-10
1.8689793e-10
1.888671e-10
1.9025422e-10
1.910245e-10
1.9119807e-10
1.9086278e-10
1.9012361e-10
1.8907843e-10
1.878089e-10
1.863814e-10
1.8484934e-10
1.8325218e-10
1.8161904e-10
1.7997122e-10
1.7832523e-10
1.7669224e-10
1.7507957e-10
1.7349079e-10
1.7192805e-10
1.7039457e-10
1.6888299e-10
1.6739759e-10
1.6590641e-10
1.6439597e-10
1.6296485e-10
1.60875e-10
8.7312038e-05
6.2422834e-05
6.1116827e-05
6.093473e-05
6.0946579e-05
6.0959286e-05
6.0963094e-05
6.0964723e-05
6.0966619e-05
6.0969363e-05
6.0973148e-05
6.0978138e-05
6.0984545e-05
6.0992666e-05
6.1002897e-05
6.1015853e-05
6.1032405e-05
6.1053563e-05
6.1084515e-05
6.1111486e-05
6.1235799e-05
6.1033255e-05
6.2436312e-05
1.6248227e-05
1.825058e-09
2.1850994e-10
1.1102847e-10
7.5053118e-11
5.7660748e-11
4.7103716e-11
3.9950356e-11
3.4708826e-11
3.0689814e-11
2.7502875e-11
2.491388e-11
2.2767311e-11
2.0962742e-11
1.9430093e-11
1.8110865e-11
1.6962702e-11
1.5952464e-11
1.5056036e-11
1.4255335e-11
1.35374e-11
1.289036e-11
1.2305062e-11
1.1773793e-11
1.129017e-11
1.0848793e-11
1.0445463e-11
1.0075001e-11
9.7332984e-12
9.416065e-12
9.1221017e-12
8.8487643e-12
8.5932896e-12
8.3539083e-12
8.1339781e-12
7.943278e-12
7.7788071e-12
7.6327082e-12
7.504182e-12
7.3931937e-12
7.2998855e-12
7.2232691e-12
7.1637176e-12
7.1224569e-12
7.0996977e-12
7.0969412e-12
7.1137421e-12
7.1465672e-12
7.1898344e-12
7.2745039e-12
7.4290314e-12
7.6300723e-12
7.8841597e-12
8.2002059e-12
8.5895636e-12
9.0662001e-12
9.6447179e-12
1.0335059e-11
1.1110151e-11
1.2050551e-11
1.3299979e-11
1.4824235e-11
1.6693979e-11
1.9001167e-11
2.186876e-11
2.5437934e-11
2.9838955e-11
3.5026176e-11
4.1994658e-11
5.0813679e-11
6.1858808e-11
7.5620789e-11
9.2580571e-11
1.1308469e-10
1.3722725e-10
1.6492612e-10
1.9515502e-10
2.2553415e-10
2.535231e-10
2.7738061e-10
2.9672714e-10
3.1242784e-10
3.2519705e-10
3.3581743e-10
3.4477249e-10
3.5226022e-10
3.5844424e-10
3.6346865e-10
3.6738394e-10
3.701541e-10
3.7170999e-10
3.7208997e-10
3.7146736e-10
3.7004929e-10
3.6802822e-10
3.6556519e-10
3.6279111e-10
3.5981061e-10
3.567012e-10
3.535204e-10
3.5031014e-10
3.4710265e-10
3.4391976e-10
3.407761e-10
3.3767895e-10
3.3463252e-10
3.3164328e-10
3.2869625e-10
3.2580299e-10
3.2289491e-10
3.1996343e-10
3.1717501e-10
3.1310228e-10
8.7271849e-05
6.233093e-05
6.1023302e-05
6.0839983e-05
6.0851458e-05
6.0864091e-05
6.086788e-05
6.0869497e-05
6.0871383e-05
6.087412e-05
6.0877899e-05
6.0882885e-05
6.0889287e-05
6.0897404e-05
6.0907629e-05
6.0920578e-05
6.0937121e-05
6.0958264e-05
6.0989192e-05
6.1016126e-05
6.1140338e-05
6.0937826e-05
6.2339625e-05
1.6259948e-05
1.7194884e-09
1.6168198e-10
8.2289852e-11
5.5730037e-11
4.3108612e-11
3.5492142e-11
3.0311592e-11
2.6496884e-11
2.3560205e-11
2.1218815e-11
1.9311951e-11
1.7729834e-11
1.6403627e-11
1.5285078e-11
1.4328033e-11
1.3499862e-11
1.2773389e-11
1.2130066e-11
1.1557425e-11
1.1046751e-11
1.0589877e-11
1.0180369e-11
9.8127789e-12
9.4826172e-12
9.1860297e-12
8.9204216e-12
8.6806644e-12
8.4631374e-12
8.2643715e-12
8.0844627e-12
7.9215169e-12
7.7732783e-12
7.6385719e-12
7.522551e-12
7.4385105e-12
7.3837887e-12
7.3494729e-12
7.3353979e-12
7.3423887e-12
7.3715119e-12
7.4217035e-12
7.4943122e-12
7.5923051e-12
7.717531e-12
7.8733496e-12
8.0608277e-12
8.2772174e-12
8.5171098e-12
8.821781e-12
9.2311604e-12
9.7197121e-12
1.0300131e-11
1.0989137e-11
1.1807835e-11
1.2782281e-11
1.3940921e-11
1.530798e-11
1.6855132e-11
1.8703276e-11
2.1069562e-11
2.3934212e-11
2.7426557e-11
3.171512e-11
3.702597e-11
4.3621374e-11
5.1773541e-11
6.1492603e-11
7.4337628e-11
9.054915e-11
1.1083807e-10
1.3610412e-10
1.6723047e-10
2.0485659e-10
2.4916437e-10
3.0002098e-10
3.5557235e-10
4.1148161e-10
4.6308796e-10
5.0711675e-10
5.4287975e-10
5.7188158e-10
5.9547431e-10
6.1508594e-10
6.3161086e-10
6.4541981e-10
6.5682165e-10
6.6608697e-10
6.7331101e-10
6.7842866e-10
6.8131268e-10
6.8203297e-10
6.8090863e-10
6.7832087e-10
6.7462364e-10
6.7011328e-10
6.6503071e-10
6.5956815e-10
6.5386802e-10
6.4803625e-10
6.4215002e-10
6.3626837e-10
6.3043145e-10
6.2466625e-10
6.189863e-10
6.1339935e-10
6.0791736e-10
6.0251254e-10
5.9720783e-10
5.9187397e-10
5.8650507e-10
5.813921e-10
5.7392367e-10
8.7223041e-05
6.221899e-05
6.0909369e-05
6.0724552e-05
6.0735571e-05
6.0748112e-05
6.0751878e-05
6.075348e-05
6.0755355e-05
6.0758083e-05
6.0761854e-05
6.0766834e-05
6.0773232e-05
6.0781343e-05
6.0791562e-05
6.0804503e-05
6.0821033e-05
6.0842158e-05
6.0873057e-05
6.0899946e-05
6.1024035e-05
6.0821561e-05
6.2221892e-05
1.6275883e-05
1.9464209e-09
1.3722941e-10
7.0048124e-11
4.7593457e-11
3.7249544e-11
3.1075931e-11
2.6847383e-11
2.3705699e-11
2.1272382e-11
1.9318885e-11
1.772165e-11
1.6394984e-11
1.5286857e-11
1.4360099e-11
1.3573985e-11
1.2900352e-11
1.23127e-11
1.1794295e-11
1.1335883e-11
1.0931334e-11
1.0574607e-11
1.0260726e-11
9.985433e-12
9.7452579e-12
9.5371321e-12
9.3596099e-12
9.2064158e-12
9.0736915e-12
8.958572e-12
8.8624127e-12
8.7839606e-12
8.721334e-12
8.6738728e-12
8.6487505e-12
8.6634531e-12
8.7157137e-12
8.7953439e-12
8.9029732e-12
9.0405668e-12
9.2104599e-12
9.411258e-12
9.6457072e-12
9.9194377e-12
1.0236841e-11
1.06042e-11
1.1025041e-11
1.1498104e-11
1.2018737e-11
1.2643929e-11
1.3430851e-11
1.435156e-11
1.5428766e-11
1.6691851e-11
1.817778e-11
1.9932333e-11
2.2006695e-11
2.4449174e-11
2.7232771e-11
3.0542303e-11
3.4707103e-11
3.9736331e-11
4.5855152e-11
5.3357184e-11
6.2637198e-11
7.4156917e-11
8.8427067e-11
1.0558488e-10
1.2803416e-10
1.5632706e-10
1.9172783e-10
2.3580599e-10
2.9010373e-10
3.5574177e-10
4.330488e-10
5.2181718e-10
6.1885342e-10
7.1663203e-10
8.0701787e-10
8.8419634e-10
9.4695313e-10
9.9782238e-10
1.0392036e-09
1.0735828e-09
1.1025311e-09
1.1267067e-09
1.1466608e-09
1.1628741e-09
1.1755168e-09
1.1844768e-09
1.189532e-09
1.1908043e-09
1.1888516e-09
1.1843407e-09
1.17789e-09
1.1700178e-09
1.1611453e-09
1.1516083e-09
1.1416557e-09
1.1314728e-09
1.1211946e-09
1.110924e-09
1.1007313e-09
1.0906637e-09
1.0807449e-09
1.0709886e-09
1.0614155e-09
1.0519771e-09
1.0427144e-09
1.0333996e-09
1.0240284e-09
1.0151002e-09
1.0020586e-09
8.7164645e-05
6.2084578e-05
6.0772533e-05
6.0585908e-05
6.0596376e-05
6.0608806e-05
6.0612543e-05
6.0614127e-05
6.0615988e-05
6.0618704e-05
6.0622468e-05
6.0627441e-05
6.0633832e-05
6.0641936e-05
6.0652147e-05
6.0665079e-05
6.0681594e-05
6.0702698e-05
6.0733562e-05
6.0760398e-05
6.0884338e-05
6.0681906e-05
6.2080567e-05
1.6297495e-05
2.5091434e-09
1.3788418e-10
7.0647881e-11
4.8200694e-11
3.8286803e-11
3.2462593e-11
2.8433801e-11
2.5403035e-11
2.3037805e-11
2.1124895e-11
1.9553261e-11
1.8246142e-11
1.7158395e-11
1.6256584e-11
1.5499516e-11
1.4859265e-11
1.4305076e-11
1.3818892e-11
1.3393129e-11
1.3023255e-11
1.2704346e-11
1.2432019e-11
1.2202469e-11
1.2012644e-11
1.1859723e-11
1.1743239e-11
1.1654386e-11
1.1588333e-11
1.1542713e-11
1.1520418e-11
1.1520877e-11
1.154255e-11
1.1585356e-11
1.1659212e-11
1.178741e-11
1.1968153e-11
1.2189429e-11
1.2452989e-11
1.2762457e-11
1.3122048e-11
1.3529725e-11
1.3990342e-11
1.4513668e-11
1.5108092e-11
1.5784512e-11
1.6550453e-11
1.7407385e-11
1.8352553e-11
1.9466441e-11
2.0831773e-11
2.2418468e-11
2.4265175e-11
2.6421394e-11
2.894931e-11
3.1926144e-11
3.5439553e-11
3.9577436e-11
4.4320012e-11
4.9949968e-11
5.6963804e-11
6.5425508e-11
7.5712889e-11
8.8318875e-11
1.0390733e-10
1.232597e-10
1.472769e-10
1.7634414e-10
2.1410755e-10
2.6165896e-10
3.2115217e-10
3.9522548e-10
4.8647316e-10
5.9678596e-10
7.2673089e-10
8.7599126e-10
1.0392556e-09
1.2039297e-09
1.3563321e-09
1.4865569e-09
1.5925309e-09
1.6784039e-09
1.7482547e-09
1.806258e-09
1.8550697e-09
1.8958121e-09
1.9294283e-09
1.9567381e-09
1.9780333e-09
1.9931275e-09
2.0016474e-09
2.0037983e-09
2.0005197e-09
1.9929339e-09
1.9820824e-09
1.9688375e-09
1.9539086e-09
1.9378608e-09
1.9211132e-09
1.9039777e-09
1.8866815e-09
1.869398e-09
1.8522454e-09
1.8353033e-09
1.8186115e-09
1.8021931e-09
1.7860832e-09
1.7701997e-09
1.7546126e-09
1.7389369e-09
1.7231694e-09
1.708145e-09
1.6861983e-09
8.7095582e-05
6.1924945e-05
6.0609979e-05
6.042119e-05
6.0431002e-05
6.0443297e-05
6.0446999e-05
6.0448562e-05
6.0450406e-05
6.0453109e-05
6.0456862e-05
6.0461827e-05
6.046821e-05
6.0476307e-05
6.0486509e-05
6.0499428e-05
6.0515927e-05
6.0537005e-05
6.0567828e-05
6.0594602e-05
6.0718364e-05
6.0515979e-05
6.1912787e-05
1.6326627e-05
3.4768607e-09
1.6325204e-10
8.3939622e-11
5.7488823e-11
4.6279752e-11
3.9802375e-11
3.52757e-11
3.1827075e-11
2.9116882e-11
2.691215e-11
2.5092887e-11
2.3578102e-11
2.2321195e-11
2.1286057e-11
2.0425032e-11
1.9706295e-11
1.9089168e-11
1.8550942e-11
1.8084513e-11
1.768631e-11
1.7351751e-11
1.7076327e-11
1.6856046e-11
1.6687774e-11
1.6568461e-11
1.6498647e-11
1.6465147e-11
1.6461249e-11
1.6485122e-11
1.654177e-11
1.6631519e-11
1.6753255e-11
1.6907705e-11
1.7108668e-11
1.7387634e-11
1.7743473e-11
1.8161668e-11
1.8645652e-11
1.9201548e-11
1.9836422e-11
2.0547161e-11
2.134185e-11
2.2236667e-11
2.3246297e-11
2.4388858e-11
2.5678333e-11
2.7121075e-11
2.871833e-11
3.0584905e-11
3.284078e-11
3.5455276e-11
3.8492023e-11
4.2031977e-11
4.6176791e-11
5.1052946e-11
5.6805602e-11
6.358641e-11
7.1394054e-11
8.0658241e-11
9.212116e-11
1.0594526e-10
1.227473e-10
1.4333226e-10
1.6878574e-10
2.0039223e-10
2.3967752e-10
2.8747314e-10
3.4923442e-10
4.2695523e-10
5.2419268e-10
6.4526054e-10
7.9440293e-10
9.7472032e-10
1.1871588e-09
1.4312437e-09
1.6983679e-09
1.9680151e-09
2.2178074e-09
2.4313755e-09
2.605279e-09
2.7461627e-09
2.8607508e-09
2.9558643e-09
3.0358658e-09
3.1026119e-09
3.1576665e-09
3.202386e-09
3.2372551e-09
3.2619717e-09
3.2759259e-09
3.2794538e-09
3.2740936e-09
3.2616824e-09
3.2439253e-09
3.2222501e-09
3.1978181e-09
3.1715545e-09
3.144145e-09
3.1161006e-09
3.0877928e-09
3.0595057e-09
3.0314327e-09
3.0037041e-09
2.9763853e-09
2.9495138e-09
2.9231473e-09
2.8971512e-09
2.8716405e-09
2.8459846e-09
2.8201803e-09
2.7955904e-09
2.7596712e-09
8.701468e-05
6.1737028e-05
6.0418565e-05
6.0227206e-05
6.0236242e-05
6.0248376e-05
6.0252036e-05
6.0253573e-05
6.0255397e-05
6.0258084e-05
6.0261825e-05
6.0266779e-05
6.0273154e-05
6.0281241e-05
6.0291432e-05
6.0304338e-05
6.0320816e-05
6.0341865e-05
6.037264e-05
6.0399341e-05
6.0522894e-05
6.0320563e-05
6.1715361e-05
1.636557e-05
4.980879e-09
2.1805723e-10
1.12397e-10
7.718478e-11
6.2709916e-11
5.4451906e-11
4.8635158e-11
4.4161097e-11
4.0628196e-11
3.7744987e-11
3.5359077e-11
3.3371102e-11
3.1724203e-11
3.0372581e-11
2.925503e-11
2.8331044e-11
2.7542579e-11
2.6858086e-11
2.6269846e-11
2.5774763e-11
2.5367889e-11
2.5043832e-11
2.4797744e-11
2.4625891e-11
2.4524471e-11
2.4495244e-11
2.4517996e-11
2.4582909e-11
2.4688901e-11
2.484404e-11
2.5049982e-11
2.5306297e-11
2.5614944e-11
2.5995238e-11
2.649014e-11
2.7099601e-11
2.7805872e-11
2.8614957e-11
2.9536779e-11
3.0582747e-11
3.1748048e-11
3.3045707e-11
3.4501782e-11
3.6140799e-11
3.7992067e-11
4.0079894e-11
4.241907e-11
4.5018499e-11
4.8042399e-11
5.1664521e-11
5.5857339e-11
6.0723171e-11
6.6391598e-11
7.3025277e-11
8.0826942e-11
9.0031223e-11
1.0089076e-10
1.1344244e-10
1.2833449e-10
1.4666756e-10
1.6877358e-10
1.9563869e-10
2.2855045e-10
2.6924713e-10
3.1979415e-10
3.8270212e-10
4.5956691e-10
5.584651e-10
6.8285972e-10
8.3849173e-10
1.0322681e-09
1.2709876e-09
1.5596265e-09
1.8997247e-09
2.29058e-09
2.7185148e-09
3.1507817e-09
3.5515387e-09
3.8943483e-09
4.1736287e-09
4.3998377e-09
4.5838106e-09
4.7364641e-09
4.8648102e-09
4.9718499e-09
5.0601175e-09
5.1318049e-09
5.1876989e-09
5.2273195e-09
5.2496906e-09
5.2553513e-09
5.2467666e-09
5.2268814e-09
5.1984279e-09
5.1636951e-09
5.1245436e-09
5.0824565e-09
5.0385329e-09
4.9935913e-09
4.9482277e-09
4.902897e-09
4.8579093e-09
4.8134734e-09
4.7696942e-09
4.7266317e-09
4.6843785e-09
4.642719e-09
4.6018376e-09
4.5607229e-09
4.5193721e-09
4.4799661e-09
4.4224045e-09
8.6920677e-05
6.151744e-05
6.019481e-05
6.0000422e-05
6.0008544e-05
6.0020485e-05
6.0024096e-05
6.0025602e-05
6.0027401e-05
6.003007e-05
6.0033796e-05
6.0038738e-05
6.0045102e-05
6.0053179e-05
6.0063357e-05
6.0076247e-05
6.0092701e-05
6.0113716e-05
6.0144435e-05
6.0171055e-05
6.0294361e-05
6.0092095e-05
6.1484766e-05
1.6417127e-05
7.2259297e-09
3.1224677e-10
1.6118201e-10
1.1085857e-10
9.054759e-11
7.9052911e-11
7.0916741e-11
6.4621941e-11
5.9638606e-11
5.5567511e-11
5.2193772e-11
4.9381895e-11
4.7053739e-11
4.5144823e-11
4.3571106e-11
4.2277235e-11
4.1177321e-11
4.022522e-11
3.9411354e-11
3.8732692e-11
3.8183124e-11
3.7755456e-11
3.7443149e-11
3.7241234e-11
3.7144502e-11
3.7156352e-11
3.7245654e-11
3.7397727e-11
3.7612716e-11
3.7903209e-11
3.827295e-11
3.872269e-11
3.9256339e-11
3.9901017e-11
4.0715577e-11
4.1701807e-11
4.2838006e-11
4.4134146e-11
4.5605915e-11
4.7271328e-11
4.9122951e-11
5.1181341e-11
5.3487673e-11
5.6081743e-11
5.9010069e-11
6.2313258e-11
6.6020278e-11
7.0153764e-11
7.4948503e-11
8.065545e-11
8.725761e-11
9.4916682e-11
1.0383674e-10
1.1427389e-10
1.2654783e-10
1.4103103e-10
1.5813408e-10
1.779651e-10
2.0149522e-10
2.3034613e-10
2.6513233e-10
3.0740588e-10
3.5919372e-10
4.232349e-10
5.0279536e-10
6.0191893e-10
7.2346789e-10
8.7930714e-10
1.0752472e-09
1.3203932e-09
1.6256288e-09
2.0016712e-09
2.4563784e-09
2.9922094e-09
3.6081352e-09
4.2827428e-09
4.9645669e-09
5.5971145e-09
6.1384254e-09
6.5796028e-09
6.9368877e-09
7.2274421e-09
7.4684627e-09
7.6710338e-09
7.8399227e-09
7.9791618e-09
8.0922328e-09
8.180389e-09
8.2428792e-09
8.2781662e-09
8.2871001e-09
8.2735687e-09
8.2422163e-09
8.1973514e-09
8.1425837e-09
8.0808477e-09
8.0144819e-09
7.9452197e-09
7.8743521e-09
7.8028185e-09
7.7313369e-09
7.660396e-09
7.590325e-09
7.5212896e-09
7.4533844e-09
7.3867553e-09
7.3210623e-09
7.2565965e-09
7.1917626e-09
7.1265575e-09
7.0644183e-09
6.9736494e-09
8.6812234e-05
6.1262468e-05
5.9934893e-05
5.9736954e-05
5.9744002e-05
5.9755716e-05
5.9759267e-05
5.9760736e-05
5.9762507e-05
5.9765154e-05
5.9768862e-05
5.9773791e-05
5.9780142e-05
5.9788206e-05
5.979837e-05
5.981124e-05
5.9827668e-05
5.9848644e-05
5.9879297e-05
5.9905824e-05
6.0028844e-05
5.9826664e-05
6.121714e-05
1.6484682e-05
1.0513123e-08
4.6232449e-10
2.388403e-10
1.644063e-10
1.3465988e-10
1.1790047e-10
1.0600644e-10
9.6775199e-11
8.9459248e-11
8.3483715e-11
7.8529151e-11
7.4399504e-11
7.0980135e-11
6.8175324e-11
6.5865326e-11
6.3971438e-11
6.2364724e-11
6.097616e-11
5.9792728e-11
5.8811036e-11
5.8022798e-11
5.7417773e-11
5.6986596e-11
5.672221e-11
5.661709e-11
5.6676978e-11
5.6854055e-11
5.7126213e-11
5.7495685e-11
5.7981777e-11
5.8591557e-11
5.9327816e-11
6.0197567e-11
6.1238932e-11
6.2532647e-11
6.4083616e-11
6.5865582e-11
6.7894608e-11
7.0195117e-11
7.279514e-11
7.5683245e-11
7.8891422e-11
8.2483847e-11
8.6523835e-11
9.1084189e-11
9.6230974e-11
1.0201643e-10
1.0848673e-10
1.159771e-10
1.248491e-10
1.3510946e-10
1.4701039e-10
1.6086931e-10
1.7708456e-10
1.9615396e-10
2.1866073e-10
2.4526006e-10
2.7618514e-10
3.1288256e-10
3.5773022e-10
4.1180261e-10
4.7751289e-10
5.5801324e-10
6.5756655e-10
7.8127082e-10
9.3553463e-10
1.1252703e-09
1.3678127e-09
1.6726697e-09
2.0540893e-09
2.5290111e-09
3.1141212e-09
3.821672e-09
4.6555345e-09
5.6142103e-09
6.6645583e-09
7.7266587e-09
8.7125645e-09
9.556568e-09
1.0244684e-08
1.0801878e-08
1.1254976e-08
1.1630736e-08
1.1946458e-08
1.2209612e-08
1.2426527e-08
1.2602657e-08
1.2739972e-08
1.283731e-08
1.2892278e-08
1.2906201e-08
1.2885135e-08
1.2836313e-08
1.2766445e-08
1.2681153e-08
1.2585009e-08
1.2481653e-08
1.2373786e-08
1.2263418e-08
1.2152013e-08
1.2040689e-08
1.1930206e-08
1.1821078e-08
1.1713563e-08
1.1607808e-08
1.150404e-08
1.140173e-08
1.1301332e-08
1.120036e-08
1.1098811e-08
1.1002036e-08
1.0860673e-08
8.6687951e-05
6.0968071e-05
5.9634639e-05
5.9432559e-05
5.9438353e-05
5.9449796e-05
5.9453276e-05
5.9454702e-05
5.9456439e-05
5.945906e-05
5.9462748e-05
5.946766e-05
5.9473996e-05
5.9482046e-05
5.9492192e-05
5.9505041e-05
5.9521438e-05
5.9542369e-05
5.9572947e-05
5.9599371e-05
5.972206e-05
5.9520002e-05
6.090828e-05
1.6572261e-05
1.5275149e-08
6.9388856e-10
3.5861582e-10
2.4695813e-10
2.0256243e-10
1.7760838e-10
1.598751e-10
1.4608995e-10
1.3516152e-10
1.2624194e-10
1.1884593e-10
1.1268173e-10
1.0757618e-10
1.0338405e-10
9.9931536e-11
9.7104465e-11
9.4708486e-11
9.2639546e-11
9.0878997e-11
8.9422585e-11
8.8258447e-11
8.7371528e-11
8.6748013e-11
8.6377542e-11
8.6248976e-11
8.6371494e-11
8.6671991e-11
8.7117157e-11
8.7712761e-11
8.8488109e-11
8.9455538e-11
9.0621308e-11
9.1997337e-11
9.3637222e-11
9.5651735e-11
9.8050991e-11
1.0080384e-10
1.0393566e-10
1.0748408e-10
1.1149223e-10
1.1594265e-10
1.2088461e-10
1.2641712e-10
1.3263948e-10
1.3966442e-10
1.4759743e-10
1.5652822e-10
1.6654211e-10
1.7811708e-10
1.9177312e-10
2.0756307e-10
2.2587639e-10
2.472021e-10
2.7215385e-10
3.0149933e-10
3.361421e-10
3.7711318e-10
4.248568e-10
4.8151845e-10
5.50573e-10
6.3383059e-10
7.350078e-10
8.5896031e-10
1.0122592e-09
1.2027825e-09
1.4405598e-09
1.733766e-09
2.1076339e-09
2.5774317e-09
3.1652233e-09
3.8971217e-09
4.7988574e-09
5.8893478e-09
7.1746179e-09
8.6524962e-09
1.0272144e-08
1.1910602e-08
1.3432269e-08
1.4735323e-08
1.5798018e-08
1.6658429e-08
1.7358056e-08
1.7938144e-08
1.8425422e-08
1.8831473e-08
1.9166122e-08
1.9437827e-08
1.9649647e-08
1.9799799e-08
1.9884597e-08
1.9906085e-08
1.9873604e-08
1.979831e-08
1.9690554e-08
1.9559008e-08
1.941072e-08
1.925131e-08
1.9084941e-08
1.8914714e-08
1.8742887e-08
1.8571184e-08
1.8400779e-08
1.8232464e-08
1.8066635e-08
1.7903522e-08
1.7743473e-08
1.7585673e-08
1.7430822e-08
1.7275085e-08
1.7118459e-08
1.6969196e-08
1.6751162e-08
8.6546385e-05
6.0629878e-05
5.9289522e-05
5.9082638e-05
5.9086964e-05
5.909809e-05
5.9101485e-05
5.910286e-05
5.9104557e-05
5.9107147e-05
5.9110811e-05
5.9115704e-05
5.9122023e-05
5.9130055e-05
5.9140182e-05
5.9153006e-05
5.9169367e-05
5.9190247e-05
5.922074e-05
5.9247049e-05
5.9369358e-05
5.9167463e-05
6.0553664e-05
1.6684578e-05
2.2126529e-08
1.0456809e-09
5.4054534e-10
3.7232234e-10
3.0560904e-10
2.6815684e-10
2.4152479e-10
2.2080601e-10
2.0438168e-10
1.9098866e-10
1.7988505e-10
1.7063178e-10
1.6296463e-10
1.5666187e-10
1.5146894e-10
1.4721869e-10
1.4361827e-10
1.405106e-10
1.3786828e-10
1.3568552e-10
1.3394489e-10
1.3262392e-10
1.3170198e-10
1.3116365e-10
1.3099226e-10
1.3120211e-10
1.3168199e-10
1.3238179e-10
1.3331318e-10
1.3452034e-10
1.3602391e-10