/*--------------------------------*- C++ -*----------------------------------*\
| =========                 |                                                 |
| \\      /  F ield         | OpenFOAM: The Open Source CFD Toolbox           |
|  \\    /   O peration     | Version:  2206                                  |
|   \\  /    A nd           | Website:  www.openfoam.com                      |
|    \\/     M anipulation  |                                                 |
\*---------------------------------------------------------------------------*/
FoamFile
{
    version     2.0;
    format      ascii;
    arch        "LSB;label=32;scalar=64";
    class       volScalarField;
    location    "1800";
    object      nut;
}
// * * * * * * * * * * * * * * * * * * * * * * * * * * * * * * * * * * * * * //

dimensions      [0 2 -1 0 0 0 0];

internalField   nonuniform List<scalar> 
13056
(
1.9256787e-07
1.8851869e-07
1.8888924e-07
1.8925156e-07
1.8946643e-07
1.8957275e-07
1.8962872e-07
1.8966359e-07
1.8968878e-07
1.8970896e-07
1.8972638e-07
1.8974245e-07
1.8975821e-07
1.8977454e-07
1.8979241e-07
1.8981264e-07
1.8983751e-07
1.8986451e-07
1.8991712e-07
1.8990704e-07
1.9023132e-07
1.8966927e-07
1.8648414e-07
8.2959992e-10
2.5905678e-16
4.0420307e-17
2.0515167e-17
1.3850237e-17
1.0590772e-17
8.6047878e-18
7.2625348e-18
6.2822643e-18
5.5329806e-18
4.9416825e-18
4.4622437e-18
4.0649344e-18
3.7300384e-18
3.4438053e-18
3.1962299e-18
2.9798732e-18
2.7891179e-18
2.6196313e-18
2.4679076e-18
2.3313973e-18
2.2077956e-18
2.0953496e-18
1.9925878e-18
1.8982886e-18
1.8114297e-18
1.7311489e-18
1.6567106e-18
1.5874851e-18
1.5229308e-18
1.4625789e-18
1.4060234e-18
1.3529101e-18
1.3029263e-18
1.2557964e-18
1.2112771e-18
1.1691527e-18
1.1292309e-18
1.0913413e-18
1.0553324e-18
1.0210671e-18
9.884212e-19
9.5728321e-19
9.2755355e-19
8.9914274e-19
8.7196984e-19
8.4596279e-19
8.2105842e-19
7.9720069e-19
7.743397e-19
7.5243225e-19
7.3144056e-19
7.1133279e-19
6.9208325e-19
6.7367501e-19
6.5610515e-19
6.3937652e-19
6.2349856e-19
6.084894e-19
5.9437429e-19
5.8119012e-19
5.6899547e-19
5.5787708e-19
5.4793704e-19
5.3933077e-19
5.3244635e-19
5.2672107e-19
5.2455596e-19
5.2388695e-19
5.2663806e-19
5.3287227e-19
5.4334832e-19
5.5873655e-19
5.7954815e-19
6.0578731e-19
6.3766531e-19
6.7499344e-19
7.1563054e-19
7.5537201e-19
7.9236175e-19
8.1996961e-19
8.4336056e-19
8.6015422e-19
8.7259222e-19
8.8166031e-19
8.8807331e-19
8.9233948e-19
8.9480216e-19
8.9571378e-19
8.9509971e-19
8.9298497e-19
8.8956206e-19
8.8500543e-19
8.7951834e-19
8.7335841e-19
8.6669206e-19
8.5965469e-19
8.5242318e-19
8.4511374e-19
8.3777428e-19
8.3045319e-19
8.232238e-19
8.1612202e-19
8.0914655e-19
8.0228124e-19
7.9553108e-19
7.8889374e-19
7.8239666e-19
7.7573978e-19
7.6941463e-19
7.6158568e-19
7.5525958e-19
7.4610732e-19
1.9256753e-07
1.8851729e-07
1.8888805e-07
1.8925042e-07
1.8946533e-07
1.8957167e-07
1.8962766e-07
1.8966253e-07
1.8968773e-07
1.8970791e-07
1.8972534e-07
1.8974141e-07
1.8975717e-07
1.8977351e-07
1.8979138e-07
1.8981161e-07
1.8983648e-07
1.8986348e-07
1.899161e-07
1.8990601e-07
1.9023029e-07
1.8966831e-07
1.8648401e-07
8.4222232e-10
2.4302455e-16
3.777554e-17
1.9172817e-17
1.2943985e-17
9.8977953e-18
8.0417606e-18
6.7873352e-18
5.8712066e-18
5.1709504e-18
4.6183421e-18
4.170274e-18
3.7989615e-18
3.4859786e-18
3.2184748e-18
2.9870993e-18
2.7848999e-18
2.6066267e-18
2.4482305e-18
2.3064349e-18
2.1788573e-18
2.0633437e-18
1.9582558e-18
1.8622184e-18
1.7740899e-18
1.6929149e-18
1.6178877e-18
1.5483207e-18
1.4836253e-18
1.4232955e-18
1.366893e-18
1.3140384e-18
1.2644007e-18
1.2176876e-18
1.1736416e-18
1.1320361e-18
1.0926691e-18
1.0553606e-18
1.0199515e-18
9.8630009e-19
9.5427839e-19
9.2377016e-19
8.9467132e-19
8.668888e-19
8.4033889e-19
8.1494595e-19
7.9064254e-19
7.6736927e-19
7.4507333e-19
7.2370997e-19
7.0324025e-19
6.8362702e-19
6.6484057e-19
6.4685696e-19
6.2966048e-19
6.1324852e-19
5.9762356e-19
5.8279341e-19
5.6877067e-19
5.5558605e-19
5.432845e-19
5.3191155e-19
5.2154913e-19
5.1229372e-19
5.0429159e-19
4.9790465e-19
4.9259565e-19
4.9056442e-19
4.9002965e-19
4.9272426e-19
4.9870269e-19
5.0867908e-19
5.2328338e-19
5.4299198e-19
5.6779869e-19
5.9787724e-19
6.3300148e-19
6.7111078e-19
7.0826161e-19
7.4278735e-19
7.6851848e-19
7.9034722e-19
8.0603361e-19
8.17679e-19
8.2619815e-19
8.322484e-19
8.3629443e-19
8.3865078e-19
8.3954964e-19
8.3901258e-19
8.3706147e-19
8.3387605e-19
8.2962109e-19
8.2448871e-19
8.1872148e-19
8.1247658e-19
8.0588188e-19
7.9910361e-19
7.9225103e-19
7.8536958e-19
7.7850487e-19
7.7172566e-19
7.6506571e-19
7.5852398e-19
7.5208553e-19
7.4575505e-19
7.3953046e-19
7.3343714e-19
7.2719558e-19
7.21263e-19
7.1392858e-19
7.0799666e-19
6.9941419e-19
1.9256643e-07
1.885129e-07
1.888843e-07
1.8924684e-07
1.8946186e-07
1.8956827e-07
1.896243e-07
1.896592e-07
1.8968441e-07
1.897046e-07
1.8972205e-07
1.8973813e-07
1.897539e-07
1.8977024e-07
1.8978811e-07
1.8980835e-07
1.8983323e-07
1.8986023e-07
1.8991286e-07
1.8990275e-07
1.9022704e-07
1.8966529e-07
1.864815e-07
8.5739285e-10
2.3213746e-16
3.6013198e-17
1.8278376e-17
1.2340157e-17
9.4361612e-18
7.6667787e-18
6.4709117e-18
5.597543e-18
4.9299646e-18
4.4031345e-18
3.9759658e-18
3.6219721e-18
3.3235906e-18
3.0685727e-18
2.8480005e-18
2.6552442e-18
2.4852976e-18
2.3343e-18
2.1991282e-18
2.077511e-18
1.9673952e-18
1.8672192e-18
1.7756718e-18
1.691665e-18
1.6142878e-18
1.5427723e-18
1.4764626e-18
1.4147971e-18
1.3572918e-18
1.3035298e-18
1.2531487e-18
1.205832e-18
1.161301e-18
1.1193143e-18
1.0796652e-18
1.0421591e-18
1.006618e-18
9.7288983e-19
9.4083989e-19
9.103464e-19
8.8129844e-19
8.5359709e-19
8.2715397e-19
8.0188769e-19
7.7772669e-19
7.5460403e-19
7.3245611e-19
7.1122328e-19
6.9090289e-19
6.714892e-19
6.5290765e-19
6.3513126e-19
6.1813905e-19
6.0191904e-19
5.8647158e-19
5.7179673e-19
5.5788166e-19
5.4464824e-19
5.322746e-19
5.2102489e-19
5.1075328e-19
5.0156022e-19
4.9356468e-19
4.8693418e-19
4.8200932e-19
4.7805735e-19
4.7631024e-19
4.7803408e-19
4.8361656e-19
4.9305006e-19
5.071543e-19
5.2664034e-19
5.5197235e-19
5.8296617e-19
6.1932922e-19
6.5980967e-19
7.0111303e-19
7.3901952e-19
7.7310613e-19
7.9794769e-19
8.195072e-19
8.3539752e-19
8.4780437e-19
8.5751876e-19
8.6498527e-19
8.7047083e-19
8.7416999e-19
8.7623917e-19
8.7665602e-19
8.7540679e-19
8.7266245e-19
8.6862717e-19
8.6354148e-19
8.5768678e-19
8.5125727e-19
8.4441097e-19
8.373318e-19
8.3014353e-19
8.2290588e-19
8.1567367e-19
8.0851936e-19
8.0148049e-19
7.9456092e-19
7.8774957e-19
7.8105205e-19
7.7446861e-19
7.6801718e-19
7.614499e-19
7.5515596e-19
7.4759215e-19
7.41338e-19
7.3227674e-19
1.9256454e-07
1.8850538e-07
1.8887786e-07
1.8924071e-07
1.8945592e-07
1.8956244e-07
1.8961853e-07
1.8965348e-07
1.8967872e-07
1.8969894e-07
1.897164e-07
1.897325e-07
1.8974828e-07
1.8976463e-07
1.8978252e-07
1.8980276e-07
1.8982765e-07
1.8985466e-07
1.8990729e-07
1.8989717e-07
1.9022146e-07
1.8966011e-07
1.8647658e-07
8.7406881e-10
2.258947e-16
3.4757091e-17
1.7641144e-17
1.1910187e-17
9.108064e-18
7.4008514e-18
6.2469531e-18
5.4041884e-18
4.7599555e-18
4.2514803e-18
3.8391774e-18
3.4975e-18
3.2095222e-18
2.9634412e-18
2.7506246e-18
2.564661e-18
2.400709e-18
2.2550405e-18
2.1246439e-18
2.0073293e-18
1.9011168e-18
1.8045001e-18
1.7162146e-18
1.6352107e-18
1.5606096e-18
1.4916713e-18
1.4277594e-18
1.3683293e-18
1.312902e-18
1.2610822e-18
1.2125154e-18
1.1668895e-18
1.123934e-18
1.0834459e-18
1.045293e-18
1.0092721e-18
9.7516556e-19
9.428251e-19
9.1212267e-19
8.8294295e-19
8.5517794e-19
8.2873449e-19
8.0352991e-19
7.7947478e-19
7.5650389e-19
7.3453431e-19
7.1345548e-19
6.9314406e-19
6.7388052e-19
6.5588216e-19
6.3880104e-19
6.2262131e-19
6.0733668e-19
5.9295798e-19
5.795069e-19
5.6696894e-19
5.5518952e-19
5.4345528e-19
5.3298901e-19
5.2561825e-19
5.1987123e-19
5.1600913e-19
5.1434525e-19
5.1524713e-19
5.190073e-19
5.2326423e-19
5.2281487e-19
5.4050258e-19
5.6761079e-19
6.0377459e-19
6.5095183e-19
7.1096455e-19
7.8502173e-19
8.7306387e-19
9.7431597e-19
1.0845608e-18
1.1943865e-18
1.2937605e-18
1.3792029e-18
1.4452318e-18
1.5003401e-18
1.543754e-18
1.5794138e-18
1.6090923e-18
1.6335312e-18
1.6532223e-18
1.66859e-18
1.6798467e-18
1.6868629e-18
1.6894523e-18
1.6878599e-18
1.682687e-18
1.6746493e-18
1.6644646e-18
1.6526962e-18
1.6398021e-18
1.6262008e-18
1.6121909e-18
1.5979648e-18
1.5836732e-18
1.5694592e-18
1.5554095e-18
1.5415626e-18
1.5279259e-18
1.5145146e-18
1.5013445e-18
1.488396e-18
1.4754708e-18
1.4627592e-18
1.4488337e-18
1.4364454e-18
1.4184181e-18
1.9256181e-07
1.8849449e-07
1.8886855e-07
1.8923183e-07
1.8944731e-07
1.89554e-07
1.8961019e-07
1.896452e-07
1.8967049e-07
1.8969074e-07
1.8970822e-07
1.8972435e-07
1.8974014e-07
1.8975652e-07
1.8977442e-07
1.8979467e-07
1.8981957e-07
1.8984659e-07
1.8989924e-07
1.8988909e-07
1.9021336e-07
1.8965263e-07
1.8646922e-07
8.9221332e-10
2.2637756e-16
3.3895893e-17
1.7205424e-17
1.161708e-17
8.8869365e-18
7.2240104e-18
6.099827e-18
5.2785615e-18
4.6505588e-18
4.1546001e-18
3.7523747e-18
3.4190342e-18
3.1381776e-18
2.8983744e-18
2.6910979e-18
2.5100405e-18
2.3504391e-18
2.208649e-18
2.0817437e-18
1.9675973e-18
1.8642865e-18
1.7703461e-18
1.6845458e-18
1.6058647e-18
1.533447e-18
1.4665761e-18
1.4046177e-18
1.3470275e-18
1.2932902e-18
1.2430489e-18
1.1959382e-18
1.1516256e-18
1.1098415e-18
1.0705143e-18
1.0338021e-18
9.9944133e-19
9.6702562e-19
9.3640358e-19
9.0745904e-19
8.800892e-19
8.5418449e-19
8.2966419e-19
8.0645928e-19
7.844365e-19
7.6354873e-19
7.4363652e-19
7.2438051e-19
7.0537688e-19
6.8811023e-19
6.7375287e-19
6.6078469e-19
6.4923476e-19
6.3915699e-19
6.3065688e-19
6.2384871e-19
6.1865186e-19
6.1423817e-19
6.0698125e-19
6.0276032e-19
6.1047126e-19
6.2272167e-19
6.405257e-19
6.6518258e-19
6.9835458e-19
7.4169477e-19
7.9350564e-19
8.4463631e-19
9.3625723e-19
1.0572385e-18
1.2106617e-18
1.4036125e-18
1.6429098e-18
1.9332401e-18
2.2752217e-18
2.6664517e-18
3.0905171e-18
3.5116486e-18
3.8934567e-18
4.2171136e-18
4.4747586e-18
4.6858509e-18
4.8565454e-18
4.9989138e-18
5.1194157e-18
5.2204509e-18
5.3038146e-18
5.3711568e-18
5.4230654e-18
5.4589777e-18
5.4779645e-18
5.480646e-18
5.4694107e-18
5.4471123e-18
5.4164492e-18
5.3796464e-18
5.3385127e-18
5.2945401e-18
5.2488234e-18
5.20215e-18
5.1551025e-18
5.1081529e-18
5.0616121e-18
5.015671e-18
4.9704143e-18
4.9259005e-18
4.8822132e-18
4.839174e-18
4.7967331e-18
4.7543206e-18
4.7105904e-18
4.6697476e-18
4.6101519e-18
1.9255816e-07
1.8847993e-07
1.888561e-07
1.8921995e-07
1.894358e-07
1.8954271e-07
1.8959903e-07
1.8963412e-07
1.8965947e-07
1.8967976e-07
1.8969729e-07
1.8971344e-07
1.8972927e-07
1.8974566e-07
1.8976358e-07
1.8978386e-07
1.8980877e-07
1.898358e-07
1.8988847e-07
1.8987829e-07
1.9020254e-07
1.8964262e-07
1.8645937e-07
9.1204462e-10
2.4010684e-16
3.3538706e-17
1.7028721e-17
1.1501278e-17
8.8082592e-18
7.1693661e-18
6.0607149e-18
5.2501281e-18
4.6296284e-18
4.1386475e-18
3.7402278e-18
3.4099917e-18
3.1320523e-18
2.8953612e-18
2.6911329e-18
2.5129504e-18
2.3559651e-18
2.2165414e-18
2.0918178e-18
1.9797234e-18
1.8783785e-18
1.7863465e-18
1.7024196e-18
1.6255958e-18
1.555033e-18
1.4900385e-18
1.4299392e-18
1.3741548e-18
1.3220178e-18
1.273268e-18
1.2274793e-18
1.1842301e-18
1.143234e-18
1.1048303e-18
1.0701098e-18
1.0386037e-18
1.009277e-18
9.819579e-19
9.5655962e-19
9.3301172e-19
9.1119174e-19
8.9105244e-19
8.7256173e-19
8.5542665e-19
8.3964719e-19
8.2478421e-19
8.0977484e-19
7.932188e-19
7.8072078e-19
7.7675806e-19
7.7577922e-19
7.7795175e-19
7.8365858e-19
7.9341667e-19
8.0783642e-19
8.2732781e-19
8.5126766e-19
8.7442643e-19
9.0588231e-19
9.6111094e-19
1.0304899e-18
1.117531e-18
1.2267765e-18
1.3641783e-18
1.5360649e-18
1.7438924e-18
1.9700116e-18
2.3058711e-18
2.7365409e-18
3.2771926e-18
3.9519515e-18
4.7842787e-18
5.7906075e-18
6.9742166e-18
8.3283155e-18
9.797915e-18
1.1261626e-17
1.2595215e-17
1.3725068e-17
1.4633351e-17
1.5373412e-17
1.5975158e-17
1.6477742e-17
1.6903681e-17
1.7261424e-17
1.7557633e-17
1.7798397e-17
1.7985753e-17
1.8117772e-17
1.8191082e-17
1.8207584e-17
1.8175637e-17
1.8105234e-17
1.8005696e-17
1.7884795e-17
1.7748854e-17
1.7602956e-17
1.7450861e-17
1.7295341e-17
1.7138423e-17
1.698168e-17
1.6826175e-17
1.6672605e-17
1.6521311e-17
1.6372495e-17
1.6226467e-17
1.6082523e-17
1.5941072e-17
1.5799072e-17
1.565523e-17
1.5518948e-17
1.5319937e-17
1.9255351e-07
1.8846129e-07
1.8884016e-07
1.8920475e-07
1.8942108e-07
1.8952827e-07
1.8958476e-07
1.8961996e-07
1.8964538e-07
1.8966573e-07
1.896833e-07
1.8969949e-07
1.8971535e-07
1.8973177e-07
1.8974972e-07
1.8977002e-07
1.8979496e-07
1.89822e-07
1.8987469e-07
1.8986447e-07
1.9018868e-07
1.8962981e-07
1.8644705e-07
9.3390129e-10
2.8124014e-16
3.412638e-17
1.7339757e-17
1.1720953e-17
9.0035776e-18
7.3537493e-18
6.2357349e-18
5.416466e-18
4.7874964e-18
4.2872096e-18
3.8806062e-18
3.5434368e-18
3.260475e-18
3.0212095e-18
2.8157412e-18
2.6370589e-18
2.4798573e-18
2.3403573e-18
2.2157398e-18
2.1039862e-18
2.003247e-18
1.9120959e-18
1.8293296e-18
1.7539511e-18
1.6851151e-18
1.6221606e-18
1.5642789e-18
1.5107613e-18
1.4604691e-18
1.413396e-18
1.3689136e-18
1.3263164e-18
1.285248e-18
1.2472332e-18
1.2160868e-18
1.1907513e-18
1.1683409e-18
1.1486134e-18
1.1315611e-18
1.1172028e-18
1.1053834e-18
1.0961545e-18
1.0896681e-18
1.0857397e-18
1.0845552e-18
1.0856999e-18
1.0878438e-18
1.089067e-18
1.0976336e-18
1.1207901e-18
1.1510892e-18
1.1893795e-18
1.2369545e-18
1.2954728e-18
1.3669336e-18
1.4531766e-18
1.5544343e-18
1.6621481e-18
1.7933113e-18
1.9791791e-18
2.205918e-18
2.4839847e-18
2.8269515e-18
3.2527775e-18
3.7811901e-18
4.4246087e-18
5.1505884e-18
6.1696613e-18
7.4650453e-18
9.0872145e-18
1.110801e-17
1.3597587e-17
1.6605654e-17
2.0143753e-17
2.4194737e-17
2.8599137e-17
3.2999344e-17
3.7024667e-17
4.044059e-17
4.319833e-17
4.5440533e-17
4.7265608e-17
4.8788497e-17
5.0077586e-17
5.1159254e-17
5.2054791e-17
5.278342e-17
5.3351593e-17
5.3753691e-17
5.3979535e-17
5.403465e-17
5.3944192e-17
5.3738231e-17
5.3444715e-17
5.3087025e-17
5.2684169e-17
5.2251342e-17
5.1799796e-17
5.1337886e-17
5.08717e-17
5.0405916e-17
4.9943706e-17
4.9487194e-17
4.9037435e-17
4.8595041e-17
4.8160953e-17
4.7732996e-17
4.7312842e-17
4.6890542e-17
4.6464823e-17
4.6059895e-17
4.5468464e-17
1.9254775e-07
1.8843809e-07
1.8882033e-07
1.8918584e-07
1.8940276e-07
1.895103e-07
1.89567e-07
1.8960233e-07
1.8962785e-07
1.8964828e-07
1.8966591e-07
1.8968215e-07
1.8969805e-07
1.897145e-07
1.8973248e-07
1.8975281e-07
1.8977777e-07
1.8980483e-07
1.8985756e-07
1.8984728e-07
1.9017145e-07
1.8961386e-07
1.8643229e-07
9.5821509e-10
3.8240687e-16
3.6707507e-17
1.8681472e-17
1.2650761e-17
9.7821888e-18
8.0498533e-18
6.871156e-18
6.0029737e-18
5.3318771e-18
4.7914647e-18
4.3506857e-18
3.9847533e-18
3.6796518e-18
3.4259741e-18
3.2106069e-18
3.0247721e-18
2.8618453e-18
2.7175659e-18
2.5891233e-18
2.4745597e-18
2.3720416e-18
2.2801235e-18
2.19758e-18
2.1234e-18
2.0567134e-18
1.9969287e-18
1.9428926e-18
1.8937185e-18
1.848126e-18
1.8063105e-18
1.7675977e-18
1.7311574e-18
1.6966011e-18
1.6661603e-18
1.6453914e-18
1.6331088e-18
1.6254653e-18
1.6222886e-18
1.6237577e-18
1.6301041e-18
1.6410868e-18
1.6569956e-18
1.6784388e-18
1.7055354e-18
1.7389463e-18
1.7784025e-18
1.8221255e-18
1.867244e-18
1.9277891e-18
2.0170094e-18
2.1237098e-18
2.2504623e-18
2.4008356e-18
2.5793428e-18
2.7914777e-18
3.0427903e-18
3.3362217e-18
3.6571106e-18
4.0401916e-18
4.5512171e-18
5.1698379e-18
5.9238723e-18
6.8494886e-18
7.9948093e-18
9.4137817e-18
1.1150411e-17
1.3151568e-17
1.588666e-17
1.9350642e-17
2.3685422e-17
2.9082713e-17
3.5730143e-17
4.3761714e-17
5.3211235e-17
6.4039053e-17
7.5829614e-17
8.7638261e-17
9.8474374e-17
1.0768542e-16
1.1513988e-16
1.2119405e-16
1.2612239e-16
1.3023004e-16
1.3370225e-16
1.3661223e-16
1.3901985e-16
1.4097859e-16
1.4250666e-16
1.435894e-16
1.4419958e-16
1.4435188e-16
1.4411382e-16
1.4356605e-16
1.427835e-16
1.4182886e-16
1.4075312e-16
1.3959697e-16
1.3839055e-16
1.3715626e-16
1.3591046e-16
1.3466562e-16
1.3343026e-16
1.3221007e-16
1.3100793e-16
1.2982547e-16
1.2866523e-16
1.2752132e-16
1.2639859e-16
1.252697e-16
1.2413335e-16
1.230512e-16
1.2147053e-16
1.9254076e-07
1.8840976e-07
1.8879613e-07
1.8916276e-07
1.8938041e-07
1.8948838e-07
1.8954534e-07
1.8958083e-07
1.8960647e-07
1.8962698e-07
1.8964468e-07
1.8966098e-07
1.8967693e-07
1.8969343e-07
1.8971145e-07
1.8973181e-07
1.8975681e-07
1.8978389e-07
1.8983666e-07
1.8982631e-07
1.9015043e-07
1.8959439e-07
1.8641524e-07
9.8551208e-10
6.064216e-16
4.351498e-17
2.2210945e-17
1.5089895e-17
1.1806685e-17
9.8457181e-18
8.5020905e-18
7.5035105e-18
6.7271053e-18
6.0979496e-18
5.5826624e-18
5.1542946e-18
4.7981399e-18
4.5041675e-18
4.2566316e-18
4.0450945e-18
3.8606517e-18
3.6979385e-18
3.5540341e-18
3.4270101e-18
3.3149677e-18
3.216341e-18
3.1297894e-18
3.0542168e-18
2.9886519e-18
2.9326275e-18
2.8841686e-18
2.8419667e-18
2.8044711e-18
2.7723045e-18
2.7447224e-18
2.7206662e-18
2.6997065e-18
2.6855005e-18
2.6870843e-18
2.7030442e-18
2.7276638e-18
2.7609503e-18
2.8035075e-18
2.8560518e-18
2.9181412e-18
2.9906124e-18
3.0751343e-18
3.1726058e-18
3.2848161e-18
3.4120014e-18
3.5517592e-18
3.6996607e-18
3.8814517e-18
4.122608e-18
4.4051355e-18
4.73566e-18
5.1230456e-18
5.5784515e-18
6.115545e-18
6.7487584e-18
7.4883745e-18
8.3095615e-18
9.2845488e-18
1.0550354e-17
1.2078816e-17
1.3938143e-17
1.6217114e-17
1.9034288e-17
2.2524506e-17
2.6812774e-17
3.1826873e-17
3.856902e-17
4.7090789e-17
5.7752531e-17
7.102587e-17
8.7373059e-17
1.0712618e-16
1.3037374e-16
1.5702975e-16
1.8609199e-16
2.1525626e-16
2.4208299e-16
2.6491896e-16
2.8343084e-16
2.9845467e-16
3.1068313e-16
3.2086508e-16
3.2946161e-16
3.3665842e-16
3.426087e-16
3.4744824e-16
3.5122378e-16
3.539e-16
3.5540992e-16
3.5578975e-16
3.5520613e-16
3.538582e-16
3.5193078e-16
3.4957867e-16
3.469277e-16
3.4407822e-16
3.4110459e-16
3.3806216e-16
3.3499123e-16
3.319226e-16
3.2887725e-16
3.2586927e-16
3.2290577e-16
3.1999079e-16
3.1713058e-16
3.1431059e-16
3.1154309e-16
3.0876005e-16
3.0596005e-16
3.032925e-16
2.9939597e-16
1.925324e-07
1.8837563e-07
1.8876699e-07
1.8913499e-07
1.8935351e-07
1.89462e-07
1.8951927e-07
1.8955496e-07
1.8958074e-07
1.8960136e-07
1.8961914e-07
1.8963551e-07
1.8965153e-07
1.8966808e-07
1.8968615e-07
1.8970655e-07
1.8973159e-07
1.8975868e-07
1.898115e-07
1.8980108e-07
1.9012513e-07
1.8957093e-07
1.8639613e-07
1.0164276e-09
1.0717238e-15
5.9797543e-17
3.06376e-17
2.0901732e-17
1.6598354e-17
1.4068294e-17
1.2317483e-17
1.099995e-17
9.9678972e-18
9.125611e-18
8.4322466e-18
7.8549107e-18
7.376405e-18
6.9846098e-18
6.6580434e-18
6.3826158e-18
6.1443307e-18
5.9352748e-18
5.7521634e-18
5.5930428e-18
5.4557894e-18
5.3385134e-18
5.2395704e-18
5.1576375e-18
5.0914881e-18
5.0408991e-18
5.0020758e-18
4.9727907e-18
4.9510346e-18
4.9383176e-18
4.9338256e-18
4.9361248e-18
4.9447677e-18
4.9661718e-18
5.0160152e-18
5.0925275e-18
5.1865572e-18
5.2985492e-18
5.4300359e-18
5.5827964e-18
5.7559461e-18
5.9515239e-18
6.17355e-18
6.424786e-18
6.7095618e-18
7.029532e-18
7.3816645e-18
7.7592509e-18
8.2108979e-18
8.7860382e-18
9.4550892e-18
1.0233728e-17
1.114254e-17
1.2207398e-17
1.3460131e-17
1.4935264e-17
1.6661146e-17
1.8597518e-17
2.0892877e-17
2.3826112e-17
2.7364717e-17
3.1666255e-17
3.6935971e-17
4.3448703e-17
5.1520483e-17
6.146868e-17
7.3229551e-17
8.8862532e-17
1.0859578e-16
1.3328294e-16
1.6401667e-16
2.0186911e-16
2.4761406e-16
3.0146603e-16
3.6324719e-16
4.3067338e-16
4.9844356e-16
5.6090106e-16
6.1412937e-16
6.573326e-16
6.9237737e-16
7.2089698e-16
7.4462406e-16
7.6463672e-16
7.8137582e-16
7.9520727e-16
8.0645337e-16
8.1522623e-16
8.2144543e-16
8.2495588e-16
8.2584174e-16
8.2449009e-16
8.2136343e-16
8.1689094e-16
8.1143214e-16
8.0527929e-16
7.9866538e-16
7.9176307e-16
7.8470093e-16
7.7757253e-16
7.7044941e-16
7.6338023e-16
7.5639779e-16
7.4951857e-16
7.4275197e-16
7.3611253e-16
7.2956642e-16
7.2314239e-16
7.1668194e-16
7.1018344e-16
7.0399133e-16
6.9494636e-16
1.9252252e-07
1.8833493e-07
1.8873227e-07
1.8910189e-07
1.8932147e-07
1.8943059e-07
1.8948822e-07
1.8952416e-07
1.895501e-07
1.8957085e-07
1.8958874e-07
1.8960519e-07
1.8962128e-07
1.896379e-07
1.8965602e-07
1.8967647e-07
1.8970155e-07
1.8972868e-07
1.8978155e-07
1.8977104e-07
1.9009502e-07
1.8954297e-07
1.8637536e-07
1.0517313e-09
2.0035212e-15
9.5331374e-17
4.9016226e-17
3.356866e-17
2.7017436e-17
2.3228752e-17
2.0579964e-17
1.8561302e-17
1.6969174e-17
1.5662595e-17
1.4582172e-17
1.3681353e-17
1.2936555e-17
1.2330364e-17
1.1829614e-17
1.1412726e-17
1.105495e-17
1.0742892e-17
1.0472398e-17
1.0241387e-17
1.0047193e-17
9.88719e-18
9.7590512e-18
9.6609407e-18
9.5910659e-18
9.5497009e-18
9.5291866e-18
9.5253812e-18
9.5355673e-18
9.5630565e-18
9.6070523e-18
9.6655601e-18
9.7382311e-18
9.83668e-18
9.9888987e-18
1.0192631e-17
1.0432645e-17
1.0710396e-17
1.1029384e-17
1.1393643e-17
1.1801352e-17
1.2257104e-17
1.2769949e-17
1.3346867e-17
1.3997688e-17
1.4727616e-17
1.5533583e-17
1.640604e-17
1.7437044e-17
1.8721782e-17
2.021196e-17
2.194271e-17
2.3959648e-17
2.6320051e-17
2.9094638e-17
3.2361566e-17
3.6190881e-17
4.0521623e-17
4.5653441e-17
5.2140663e-17
5.9963887e-17
6.9471317e-17
8.1116812e-17
9.5509443e-17
1.1335566e-16
1.35406e-16
1.6170229e-16
1.9634987e-16
2.4004234e-16
2.947031e-16
3.6275304e-16
4.4656958e-16
5.4787506e-16
6.6716162e-16
8.0407388e-16
9.5362027e-16
1.1041246e-15
1.2430459e-15
1.3615531e-15
1.4578352e-15
1.5359047e-15
1.5994282e-15
1.6522409e-15
1.6967495e-15
1.7339499e-15
1.7646728e-15
1.7896461e-15
1.8091254e-15
1.8229349e-15
1.8307313e-15
1.8327018e-15
1.8297054e-15
1.8227691e-15
1.8128452e-15
1.8007321e-15
1.7870783e-15
1.772401e-15
1.7570834e-15
1.741411e-15
1.7255915e-15
1.7097836e-15
1.6940953e-15
1.6785994e-15
1.6633326e-15
1.6483158e-15
1.6335811e-15
1.6190536e-15
1.6047971e-15
1.5904596e-15
1.5760389e-15
1.562297e-15
1.542224e-15
1.9251097e-07
1.882868e-07
1.8869124e-07
1.890628e-07
1.8928362e-07
1.8939348e-07
1.8945156e-07
1.8948778e-07
1.8951392e-07
1.8953482e-07
1.8955283e-07
1.8956939e-07
1.8958556e-07
1.8960226e-07
1.8962045e-07
1.8964096e-07
1.896661e-07
1.8969325e-07
1.897462e-07
1.8973558e-07
1.9005948e-07
1.8950989e-07
1.8635353e-07
1.0923609e-09
3.8256588e-15
1.6945574e-16
8.7346847e-17
5.997993e-17
4.8722119e-17
4.2294592e-17
3.7765357e-17
3.4280447e-17
3.1519354e-17
2.9247408e-17
2.7363295e-17
2.5791234e-17
2.4493027e-17
2.3439153e-17
2.2573426e-17
2.1859447e-17
2.1250467e-17
2.0721745e-17
2.0267257e-17
1.9884592e-17
1.9569911e-17
1.931903e-17
1.9128181e-17
1.8994446e-17
1.8914845e-17
1.8890668e-17
1.8906277e-17
1.895365e-17
1.9029079e-17
1.9139473e-17
1.9284365e-17
1.9461021e-17
1.9669539e-17
1.9931141e-17
2.0296199e-17
2.0761938e-17
2.1302652e-17
2.1922039e-17
2.2627667e-17
2.3428228e-17
2.4319978e-17
2.5312805e-17
2.6426227e-17
2.7676413e-17
2.9084754e-17
3.0664728e-17
3.2415428e-17
3.4324879e-17
3.6566259e-17
3.932064e-17
4.251117e-17
4.6213654e-17
5.0525724e-17
5.5569946e-17
6.149806e-17
6.8480182e-17
7.6678363e-17
8.6009529e-17
9.7067519e-17
1.109323e-16
1.2764995e-16
1.4796474e-16
1.7284724e-16
2.0360223e-16
2.4175382e-16
2.8899139e-16
3.45726e-16
4.1995391e-16
5.1348777e-16
6.3050305e-16
7.7618542e-16
9.5563112e-16
1.1725437e-15
1.428007e-15
1.7213288e-15
2.0419407e-15
2.3649542e-15
2.6634918e-15
2.918364e-15
3.1256033e-15
3.2935882e-15
3.4302552e-15
3.5438143e-15
3.6394523e-15
3.7193373e-15
3.785284e-15
3.8388767e-15
3.8806751e-15
3.9103073e-15
3.9270387e-15
3.9312711e-15
3.9248478e-15
3.9099717e-15
3.8886865e-15
3.8627042e-15
3.8334167e-15
3.8019334e-15
3.7690763e-15
3.7354579e-15
3.7015237e-15
3.6676143e-15
3.6339614e-15
3.6007213e-15
3.5679725e-15
3.5357598e-15
3.5041525e-15
3.4729893e-15
3.442408e-15
3.4116524e-15
3.3807195e-15
3.351242e-15
3.3081833e-15
1.9249756e-07
1.8823025e-07
1.8864307e-07
1.8901692e-07
1.8923922e-07
1.8934996e-07
1.8940856e-07
1.8944511e-07
1.8947149e-07
1.8949257e-07
1.8951073e-07
1.8952741e-07
1.8954368e-07
1.8956047e-07
1.8957874e-07
1.8959932e-07
1.8962452e-07
1.8965171e-07
1.8970473e-07
1.8969399e-07
1.9001781e-07
1.8947103e-07
1.8633147e-07
1.1394681e-09
7.3294885e-15
3.2003966e-16
1.6521281e-16
1.1362716e-16
9.2793342e-17
8.0994384e-17
7.2639665e-17
6.6173772e-17
6.1039294e-17
5.6813023e-17
5.330345e-17
5.0374492e-17
4.7956291e-17
4.5993063e-17
4.4384136e-17
4.3064366e-17
4.1942903e-17
4.0972062e-17
4.0141972e-17
3.9449507e-17
3.8888403e-17
3.8451293e-17
3.8131465e-17
3.7923794e-17
3.7822893e-17
3.7832102e-17
3.7919639e-17
3.8069755e-17
3.8277562e-17
3.8557048e-17
3.8908933e-17
3.9329703e-17
3.9820787e-17
4.0420947e-17
4.1220674e-17
4.2216988e-17
4.3366543e-17
4.4677839e-17
4.6166699e-17
4.7851275e-17
4.9723938e-17
5.1805333e-17
5.4136347e-17
5.6752574e-17
5.9699187e-17
6.3008042e-17
6.6686441e-17
7.0723368e-17
7.5441633e-17
8.1181638e-17
8.7825926e-17
9.5533549e-17
1.0450812e-16
1.1500522e-16
1.2734199e-16
1.4187804e-16
1.5897193e-16
1.7853111e-16
2.0171475e-16
2.3059405e-16
2.6541357e-16
3.0772412e-16
3.5954889e-16
4.236118e-16
5.0311321e-16
6.0172089e-16
7.208532e-16
8.7581763e-16
1.0709651e-15
1.315108e-15
1.6190716e-15
1.9935013e-15
2.4461535e-15
2.9793432e-15
3.5917466e-15
4.2615206e-15
4.9369252e-15
5.5618267e-15
6.0956878e-15
6.5300657e-15
6.882074e-15
7.1684223e-15
7.4062412e-15
7.6064143e-15
7.7735284e-15
7.9114348e-15
8.0234843e-15
8.110867e-15
8.1728151e-15
8.207796e-15
8.2166501e-15
8.2032312e-15
8.1721435e-15
8.1276589e-15
8.0733562e-15
8.0121447e-15
7.946343e-15
7.8776697e-15
7.8074048e-15
7.7364797e-15
7.6656061e-15
7.5952687e-15
7.5257938e-15
7.4573458e-15
7.3900182e-15
7.323956e-15
7.2588219e-15
7.1949044e-15
7.1306222e-15
7.0659707e-15
7.0043601e-15
6.9143633e-15
1.9248212e-07
1.8816416e-07
1.8858683e-07
1.889634e-07
1.8918741e-07
1.8929919e-07
1.893584e-07
1.8939534e-07
1.89422e-07
1.894433e-07
1.8946163e-07
1.8947845e-07
1.8949484e-07
1.8951173e-07
1.8953009e-07
1.8955076e-07
1.8957603e-07
1.8960327e-07
1.8965638e-07
1.8964549e-07
1.8996924e-07
1.8942561e-07
1.8631037e-07
1.1944779e-09
1.3982744e-14
6.2069516e-16
3.2068614e-16
2.2074004e-16
1.8077482e-16
1.582434e-16
1.4224747e-16
1.2982914e-16
1.1996033e-16
1.1184484e-16
1.0510294e-16
9.9476823e-17
9.4830257e-17
9.1052339e-17
8.7957417e-17
8.5425251e-17
8.3277845e-17
8.1421846e-17
7.9839667e-17
7.8526712e-17
7.7471849e-17
7.6661332e-17
7.6082566e-17
7.5726012e-17
7.5581483e-17
7.5656431e-17
7.5886869e-17
7.6241869e-17
7.671559e-17
7.7335825e-17
7.8106547e-17
7.9023919e-17
8.0092754e-17
8.1383562e-17
8.3058066e-17
8.5114339e-17
8.7479903e-17
9.0173296e-17
9.3226848e-17
9.667764e-17
1.005103e-16
1.0476703e-16
1.0953165e-16
1.1487994e-16
1.2090516e-16
1.2767863e-16
1.3523056e-16
1.4356187e-16
1.5326908e-16
1.6498588e-16
1.7854309e-16
1.9426744e-16
2.1257522e-16
2.3398889e-16
2.5915805e-16
2.8882616e-16
3.2376151e-16
3.6391279e-16
4.1151575e-16
4.7049577e-16
5.4160579e-16
6.2801443e-16
7.3385693e-16
8.6470767e-16
1.0271483e-15
1.2289276e-15
1.4739184e-15
1.791053e-15
2.1902147e-15
2.6896022e-15
3.31137e-15
4.0773146e-15
5.0033539e-15
6.0943166e-15
7.3477057e-15
8.7192043e-15
1.0103304e-14
1.1385087e-14
1.2480758e-14
1.3372758e-14
1.4095453e-14
1.4683285e-14
1.5171295e-14
1.5581855e-14
1.5924459e-14
1.6207096e-14
1.6436701e-14
1.6615747e-14
1.6742676e-14
1.6814356e-14
1.6832508e-14
1.6805028e-14
1.674135e-14
1.6650225e-14
1.6538986e-14
1.6413591e-14
1.6278793e-14
1.6138111e-14
1.5994168e-14
1.5848872e-14
1.5703681e-14
1.5559588e-14
1.5417262e-14
1.527704e-14
1.5139113e-14
1.5003778e-14
1.4870344e-14
1.4739403e-14
1.4607715e-14
1.4475271e-14
1.4349056e-14
1.4164688e-14
1.9246446e-07
1.8808728e-07
1.8852146e-07
1.8890125e-07
1.8912726e-07
1.8924025e-07
1.8930018e-07
1.8933758e-07
1.8936457e-07
1.8938612e-07
1.8940465e-07
1.8942163e-07
1.8943817e-07
1.8945518e-07
1.8947365e-07
1.8949441e-07
1.8951977e-07
1.8954706e-07
1.8960027e-07
1.8958921e-07
1.899129e-07
1.8937278e-07
1.8629177e-07
1.2591672e-09
2.6491769e-14
1.2137269e-15
6.2737821e-16
4.3203445e-16
3.5432365e-16
3.1061808e-16
2.7954947e-16
2.5539182e-16
2.3619369e-16
2.2042946e-16
2.0733465e-16
1.9640925e-16
1.8738097e-16
1.8002578e-16
1.7399685e-16
1.690692e-16
1.6489434e-16
1.6128905e-16
1.5822051e-16
1.556812e-16
1.5365035e-16
1.5210163e-16
1.5101081e-16
1.5035968e-16
1.5012858e-16
1.5033313e-16
1.508458e-16
1.5160613e-16
1.5260878e-16
1.5390825e-16
1.5551645e-16
1.5743099e-16
1.5966463e-16
1.6234499e-16
1.6575944e-16
1.6991064e-16
1.7467889e-16
1.8010332e-16
1.8624891e-16
1.9319019e-16
2.0089654e-16
2.0945283e-16
2.1902813e-16
2.2977996e-16
2.418976e-16
2.5553498e-16
2.7077863e-16
2.8766998e-16
3.0730361e-16
3.3085031e-16
3.5808847e-16
3.896785e-16
4.2645847e-16
4.6948014e-16
5.2005338e-16
5.7968907e-16
6.4999398e-16
7.311006e-16
8.2728202e-16
9.4591296e-16
1.0889409e-15
1.2627418e-15
1.4756395e-15
1.7388662e-15
2.0657394e-15
2.4722904e-15
2.9679932e-15
3.6070298e-15
4.4110001e-15
5.4168579e-15
6.6692462e-15
8.2121074e-15
1.0077595e-14
1.2275596e-14
1.4801448e-14
1.756652e-14
2.0358859e-14
2.2946819e-14
2.5160108e-14
2.6962839e-14
2.8423138e-14
2.9610822e-14
3.0596481e-14
3.1425367e-14
3.211679e-14
3.2687044e-14
3.315023e-14
3.3511401e-14
3.3767441e-14
3.391204e-14
3.3948675e-14
3.3893272e-14
3.3764857e-14
3.3581082e-14
3.3356736e-14
3.3103839e-14
3.2831974e-14
3.2548242e-14
3.2257931e-14
3.1964891e-14
3.1672062e-14
3.1381448e-14
3.1094397e-14
3.0811588e-14
3.0533409e-14
3.0260457e-14
2.999134e-14
2.972725e-14
2.9461652e-14
2.9194534e-14
2.8939974e-14
2.8568131e-14
1.9244438e-07
1.879982e-07
1.8844578e-07
1.8882939e-07
1.8905771e-07
1.8917211e-07
1.8923288e-07
1.8927083e-07
1.892982e-07
1.8932004e-07
1.893388e-07
1.8935598e-07
1.8937268e-07
1.8938984e-07
1.8940843e-07
1.894293e-07
1.8945476e-07
1.8948211e-07
1.8953544e-07
1.8952418e-07
1.8984783e-07
1.8931145e-07
1.8627777e-07
1.3357698e-09
4.9819818e-14
2.373061e-15
1.227014e-15
8.4515789e-16
6.9364904e-16
6.0854819e-16
5.4801613e-16
5.009135e-16
4.6349336e-16
4.32815e-16
4.0733937e-16
3.8608952e-16
3.6851847e-16
3.5417388e-16
3.4240468e-16
3.3278769e-16
3.2464343e-16
3.1761332e-16
3.1163478e-16
3.0669455e-16
3.02753e-16
2.9975916e-16
2.9766611e-16
2.9643864e-16
2.9603865e-16
2.9649779e-16
2.975643e-16
2.9912057e-16
3.0116631e-16
3.0380739e-16
3.0707379e-16