/*--------------------------------*- C++ -*----------------------------------*\
| =========                 |                                                 |
| \\      /  F ield         | OpenFOAM: The Open Source CFD Toolbox           |
|  \\    /   O peration     | Version:  2206                                  |
|   \\  /    A nd           | Website:  www.openfoam.com                      |
|    \\/     M anipulation  |                                                 |
\*---------------------------------------------------------------------------*/
FoamFile
{
    version     2.0;
    format      ascii;
    arch        "LSB;label=32;scalar=64";
    class       volScalarField;
    location    "1800";
    object      omega;
}
// * * * * * * * * * * * * * * * * * * * * * * * * * * * * * * * * * * * * * //

dimensions      [0 0 -1 0 0 0 0];

internalField   nonuniform List<scalar> 
13056
(
453.92925
332.33403
324.78902
323.22098
322.92185
322.80874
322.73378
322.68319
322.65045
322.63071
322.62109
322.62013
322.62716
322.64224
322.66584
322.6998
322.74484
322.81056
322.88442
323.0441
323.14812
323.03755
336.09569
19550.542
1.1944345e+09
1.1944345e+09
1.1944345e+09
1.1944345e+09
1.1944345e+09
1.1944345e+09
1.1944345e+09
1.1944345e+09
1.1944345e+09
1.1944345e+09
1.1944345e+09
1.1944345e+09
1.1944345e+09
1.1944345e+09
1.1944345e+09
1.1944345e+09
1.1944345e+09
1.1944345e+09
1.1944345e+09
1.1944345e+09
1.1944345e+09
1.1944345e+09
1.1944345e+09
1.1944345e+09
1.1944345e+09
1.1944345e+09
1.1944345e+09
1.1944345e+09
1.1944345e+09
1.1944345e+09
1.1944345e+09
1.1944345e+09
1.1944345e+09
1.1944345e+09
1.1944345e+09
1.1944345e+09
1.1944345e+09
1.1944345e+09
1.1944345e+09
1.1944345e+09
1.1944345e+09
1.1944345e+09
1.1944345e+09
1.1944345e+09
1.1944345e+09
1.1944345e+09
1.1944345e+09
1.1944345e+09
1.1944345e+09
1.1944345e+09
1.1944345e+09
1.1944345e+09
1.1944345e+09
1.1944345e+09
1.1944345e+09
1.1944345e+09
1.1944345e+09
1.1944345e+09
1.1944345e+09
1.1944345e+09
1.1944345e+09
1.1944345e+09
1.1944345e+09
1.1944345e+09
1.1944345e+09
1.1944345e+09
1.1944345e+09
1.1944345e+09
1.1944345e+09
1.1944345e+09
1.1944345e+09
1.1944345e+09
1.1944345e+09
1.1944345e+09
1.1944345e+09
1.1944345e+09
1.1944345e+09
1.1944345e+09
1.1944345e+09
1.1944345e+09
1.1944345e+09
1.1944345e+09
1.1944345e+09
1.1944345e+09
1.1944345e+09
1.1944345e+09
1.1944345e+09
1.1944345e+09
1.1944345e+09
1.1944345e+09
1.1944345e+09
1.1944345e+09
1.1944345e+09
1.1944345e+09
1.1944345e+09
1.1944345e+09
1.1944345e+09
1.1944345e+09
1.1944345e+09
1.1944345e+09
1.1944345e+09
1.1944345e+09
1.1944345e+09
1.1944345e+09
1.1944345e+09
1.1944345e+09
1.1944345e+09
1.1944345e+09
1.1944345e+09
1.1944345e+09
1.1944345e+09
1.1944345e+09
453.9176
332.30684
324.76091
323.19241
322.89313
322.77997
322.705
322.65439
322.62165
322.60189
322.59227
322.5913
322.59833
322.61341
322.637
322.67096
322.71601
322.78173
322.85558
323.01526
323.1193
323.0085
336.06458
19260.34
1.9586947e+08
1.9626965e+08
1.9626964e+08
1.9626965e+08
1.9626965e+08
1.9626966e+08
1.9626967e+08
1.9626968e+08
1.9626969e+08
1.962697e+08
1.9626971e+08
1.9626972e+08
1.9626973e+08
1.9626974e+08
1.9626975e+08
1.9626976e+08
1.9626977e+08
1.9626978e+08
1.9626979e+08
1.962698e+08
1.9626981e+08
1.9626982e+08
1.9626984e+08
1.9626985e+08
1.9626986e+08
1.9626988e+08
1.962699e+08
1.9626992e+08
1.9626994e+08
1.9626996e+08
1.9626999e+08
1.9627002e+08
1.9627005e+08
1.9627009e+08
1.9627013e+08
1.9627016e+08
1.962702e+08
1.9627024e+08
1.9627029e+08
1.9627034e+08
1.9627039e+08
1.9627046e+08
1.9627053e+08
1.9627061e+08
1.9627071e+08
1.9627083e+08
1.9627098e+08
1.9627119e+08
1.9627139e+08
1.9627156e+08
1.9627175e+08
1.9627198e+08
1.9627225e+08
1.9627258e+08
1.9627299e+08
1.962735e+08
1.9627422e+08
1.9627541e+08
1.9627672e+08
1.9627764e+08
1.9627876e+08
1.9628016e+08
1.9628192e+08
1.9628421e+08
1.962874e+08
1.96293e+08
1.9630513e+08
1.9631088e+08
1.9631693e+08
1.9632446e+08
1.9633377e+08
1.9634525e+08
1.9635939e+08
1.9637706e+08
1.9639996e+08
1.9643014e+08
1.9646779e+08
1.9650915e+08
1.9654482e+08
1.9657552e+08
1.9659618e+08
1.9661152e+08
1.9662199e+08
1.9662889e+08
1.9663335e+08
1.9663639e+08
1.9663867e+08
1.9664052e+08
1.9664204e+08
1.9664325e+08
1.9664415e+08
1.9664479e+08
1.9664524e+08
1.9664553e+08
1.9664571e+08
1.9664581e+08
1.9664585e+08
1.9664583e+08
1.9664579e+08
1.9664573e+08
1.9664564e+08
1.9664554e+08
1.9664543e+08
1.9664531e+08
1.966452e+08
1.9664508e+08
1.9664496e+08
1.9664491e+08
1.9664476e+08
1.9664497e+08
1.9664489e+08
1.9664475e+08
453.88037
332.22172
324.67307
323.10318
322.80343
322.69013
322.61509
322.56445
322.53168
322.5119
322.50226
322.50128
322.5083
322.52337
322.54696
322.58091
322.62595
322.69167
322.76551
322.92517
323.02928
322.91781
335.97045
18923.038
64127375
64221370
64221362
64221364
64221378
64221396
64221414
64221432
64221459
64221505
64221554
64221603
64221645
64221667
64221680
64221691
64221702
64221713
64221724
64221737
64221751
64221765
64221782
64221800
64221820
64221844
64221869
64221901
64221956
64222031
64222136
64222285
64222486
64222697
64222812
64222848
64222883
64222922
64222967
64223019
64223078
64223147
64223234
64223390
64223626
64224020
64224752
64226068
64227144
64227307
64227463
64227652
64227934
64228361
64229039
64230300
64233168
64241117
64249227
64250050
64251143
64252691
64255069
64259259
64268529
64298997
64400022
64415134
64421542
64430899
64445076
64467443
64504339
64567532
64679256
64870472
65155586
65501134
65811867
66081417
66259669
66386452
66465867
66510455
66532098
66541378
66545055
66546498
66547145
66547502
66547727
66547878
66547980
66548046
66548086
66548109
66548117
66548114
66548104
66548090
66548071
66548047
66548022
66547996
66547970
66547945
66547917
66547904
66547871
66547918
66547901
66547869
453.81642
332.07593
324.52263
322.95039
322.64983
322.5363
322.46116
322.41044
322.37762
322.35781
322.34815
322.34714
322.35415
322.3692
322.39278
322.42672
322.47175
322.53746
322.61129
322.77091
322.87514
322.76253
335.81017
18566.343
29316790
29342706
29342702
29342713
29342763
29342829
29342898
29342969
29343087
29343307
29343541
29343780
29343976
29344071
29344117
29344148
29344177
29344208
29344242
29344279
29344320
29344365
29344416
29344475
29344541
29344619
29344708
29344824
29345061
29345396
29345882
29346594
29347570
29348595
29349107
29349207
29349289
29349385
29349497
29349630
29349788
29349980
29350246
29350845
29351828
29353602
29357091
29363553
29368731
29369116
29369398
29369754
29370474
29371808
29374259
29379496
29392742
29431843
29471408
29472985
29475298
29479097
29486015
29500653
29539162
29683035
30184190
30239784
30241946
30245105
30249885
30257311
30269887
30291203
30328870
30393281
30489189
30605214
30709353
30799540
30859103
30901432
30927930
30942803
30950020
30953115
30954341
30954822
30955038
30955157
30955232
30955282
30955316
30955338
30955351
30955359
30955362
30955361
30955358
30955353
30955346
30955339
30955330
30955321
30955313
30955304
30955295
30955291
30955280
30955295
30955290
30955279
453.72394
331.86513
324.30514
322.72948
322.42777
322.31389
322.2386
322.18779
322.1549
322.13504
322.12533
322.1243
322.13128
322.14632
322.16988
322.2038
322.24882
322.31451
322.38832
322.54788
322.65229
322.53805
335.57882
18194.239
16061776
16058021
16058036
16058074
16058234
16058449
16058674
16058906
16059299
16060047
16060843
16061655
16062318
16062633
16062780
16062874
16062963
16063056
16063158
16063269
16063394
16063533
16063692
16063873
16064082
16064327
16064611
16064983
16065774
16066897
16068540
16070958
16074282
16077773
16079493
16079788
16080018
16080288
16080608
16080993
16081457
16082026
16082843
16084790
16088045
16094003
16105839
16127886
16145488
16146556
16147224
16148091
16150138
16154210
16161878
16178538
16222342
16354655
16487845
16488699
16489691
16491318
16494283
16500554
16517050
16578617
16792299
16815920
16816839
16818181
16820212
16823368
16828711
16837765
16853761
16881097
16921766
16970909
17014965
17053079
17078231
17096096
17107275
17113548
17116592
17117897
17118414
17118617
17118708
17118758
17118790
17118811
17118825
17118835
17118840
17118843
17118845
17118844
17118843
17118841
17118838
17118835
17118831
17118828
17118824
17118820
17118816
17118815
17118810
17118817
17118814
17118810
453.60048
331.58349
324.01453
322.43431
322.13104
322.0167
321.94121
321.89028
321.85729
321.83736
321.8276
321.82652
321.83347
321.84848
321.87202
321.90593
321.95092
322.01659
322.09038
322.24986
322.3545
322.23809
335.26968
17805.688
9825414.5
9789304.5
9789366.3
9789465.2
9789872.7
9790423.7
9791005.5
9791610.4
9792656.8
9794674.4
9796824.5
9799017.8
9800805.8
9801638.2
9802007.9
9802232.6
9802441.7
9802662.6
9802903.7
9803170.4
9803469.4
9803807.6
9804193.7
9804638.5
9805155.5
9805764.7
9806477.4
9807427.3
9809516.9
9812508.7
9816914.9
9823429.9
9832416.1
9841849.8
9846430.4
9847099.4
9847572.3
9848135.4
9848813.6
9849641.2
9850656.8
9851922.5
9853824.2
9858755
9867196.4
9882936.5
9914638.5
9974129.8
10021330
10023076
10023407
10023837
10024852
10026870
10030672
10038929
10060630
10126074
10191769
10192189
10192678
10193480
10194941
10198032
10206159
10236473
10341420
10352986
10353436
10354094
10355089
10356636
10359253
10363689
10371523
10384907
10404806
10428833
10450356
10468962
10481234
10489948
10495399
10498457
10499941
10500577
10500829
10500928
10500973
10500997
10501012
10501023
10501030
10501034
10501037
10501039
10501039
10501039
10501038
10501037
10501036
10501034
10501033
10501031
10501029
10501027
10501025
10501025
10501022
10501026
10501024
10501022
453.44299
331.22363
323.64317
322.05708
321.75183
321.63691
321.56116
321.51006
321.47695
321.45693
321.4471
321.44597
321.45288
321.46785
321.49136
321.52525
321.57022
321.63587
321.70961
321.869
321.97394
321.85476
334.87423
17398.228
6489322.7
6402962.7
6403115.9
6403328.8
6404204
6405401.4
6406679.7
6408020.6
6410409.8
6415099.1
6420100
6425206
6429352.3
6431229.9
6432006.1
6432432
6432815
6433221.2
6433668.2
6434167.7
6434733.1
6435379.3
6436124.6
6436992.6
6438012.7
6439228.7
6440668
6442644.6
6447288.1
6454030.9
6464077.9
6479064.4
6499841.6
6521617.9
6531834.9
6532688.4
6532946.3
6533253.2
6533622.9
6534074
6534627.6
6535317.5
6536354.5
6539042.1
6543642.5
6552218
6569479.4
6601829.2
6627442.7
6628387.6
6628567.2
6628800.7
6629351.3
6630446.8
6632509.6
6636989.4
6648758.8
6684212.4
6719720.3
6719947.2
6720211.2
6720644.6
6721433.9
6723103.6
6727494
6743863
6800422.3
6806639.1
6806881.5
6807235.4
6807770.9
6808602.8
6810011.2
6812397.4
6816611.3
6823808.1
6834503.9
6847410.7
6858965.6
6868949.3
6875532
6880204.4
6883127
6884766.6
6885562.1
6885903.1
6886038.2
6886091.2
6886115
6886128.1
6886136.4
6886141.9
6886145.7
6886148.1
6886149.6
6886150.4
6886150.7
6886150.6
6886150.2
6886149.7
6886149
6886148.1
6886147.2
6886146.3
6886145.3
6886144.4
6886143.3
6886142.9
6886141.6
6886143.4
6886142.7
6886141.6
453.24783
330.77669
323.18184
321.58846
321.28073
321.16507
321.089
321.0377
321.00444
320.9843
320.97439
320.9732
320.98005
320.99498
321.01846
321.05231
321.09725
321.16287
321.23657
321.39584
321.50114
321.37854
334.38212
16968.996
4496489.4
4404602.5
4404891.2
4405271.5
4406847.3
4409042.1
4411425.3
4413959.7
4418745
4428461.1
4438829.3
4449418.2
4457929.2
4461527.7
4462718
4463100.5
4463339.9
4463577.4
4463837.4
4464127.9
4464456.6
4464832.3
4465265.7
4465770.5
4466363.6
4467070.6
4467907.4
4469057.8
4471757.6
4475677.2
4481515.8
4490220.5
4502279.1
4514902.4
4520815.3
4521308.5
4521457.9
4521635.7
4521849.9
4522111.3
4522432
4522831.7
4523432.9
4524990.2
4527655.4
4532622.7
4542616.6
4561326.6
4576113.1
4576657.2
4576760.9
4576895.7
4577213.7
4577846.3
4579037.4
4581624
4588418
4608865.8
4629304.1
4629434.5
4629586.5
4629836
4630290.2
4631251.2
4633777.9
4643195.6
4675686.2
4679248.3
4679387.3
4679590.4
4679897.6
4680375
4681182.9
4682551.8
4684968.9
4689096.2
4695228
4702624
4709242.5
4714958.7
4718726.6
4721400.5
4723072.8
4724010.8
4724466
4724661
4724738.4
4724768.7
4724782.3
4724789.8
4724794.5
4724797.7
4724799.8
4724801.2
4724802.1
4724802.5
4724802.7
4724802.7
4724802.4
4724802.1
4724801.7
4724801.3
4724800.7
4724800.2
4724799.6
4724799.1
4724798.5
4724798.2
4724797.5
4724798.5
4724798.2
4724797.5
453.0108
330.2323
322.6198
321.01747
320.70673
320.59017
320.5137
320.46214
320.4287
320.40842
320.39841
320.39713
320.40392
320.4188
320.44223
320.47605
320.52095
320.58653
320.66019
320.81931
320.92505
320.79831
333.78114
16515.153
3209682.7
3153613.1
3153766
3153995.2
3154953.6
3156289
3157739.1
3159281
3162189.5
3168095.3
3174408.4
3180839.6
3185996.5
3188180.5
3188902.8
3189134.9
3189280.2
3189424.3
3189582.1
3189758.4
3189957.9
3190185.9
3190448.9
3190755.2
3191115.1
3191544.1
3192051.9
3192750.8
3194389.2
3196767.5
3200309.3
3205587.6
3212894.8
3220535.8
3224109.2
3224406.7
3224497.1
3224604.7
3224734.3
3224892.5
3225086.6
3225328.5
3225692.5
3226635
3228247.9
3231253.5
3237298.4
3248605.3
3257525.8
3257853.1
3257915.7
3257997.1
3258189.1
3258570.9
3259289.8
3260851
3264950.8
3277281.4
3289584
3289662.4
3289753.9
3289904
3290177.5
3290756.1
3292277.2
3297945.5
3317475.7
3319611.5
3319695
3319816.9
3320001.4
3320288.1
3320773.2
3321595.3
3323046.5
3325524.2
3329204.2
3333641.4
3337610.7
3341037.7
3343296.2
3344898.7
3345900.9
3346463
3346735.7
3346852.6
3346898.9
3346917
3346925.2
3346929.7
3346932.5
3346934.4
3346935.7
3346936.5
3346937
3346937.3
3346937.4
3346937.4
3346937.3
3346937.1
3346936.9
3346936.6
3346936.2
3346935.9
3346935.6
3346935.3
3346934.9
3346934.8
3346934.3
3346934.9
3346934.7
3346934.3
452.72716
329.57861
321.94471
320.33157
320.01719
319.89953
319.82259
319.77072
319.73706
319.71662
319.70647
319.7051
319.7118
319.72663
319.75001
319.78378
319.82864
319.89418
319.96777
320.12672
320.23298
320.10132
333.05716
16034.093
2341222
2305850.3
2305920.9
2306062.2
2306662.7
2307500.3
2308410
2309377.4
2311200.1
2314902
2318867.3
2322896.2
2326118.9
2327486.4
2327938.5
2328083.8
2328174.8
2328265
2328363.7
2328474.1
2328599
2328741.7
2328906.4
2329098.2
2329323.5
2329592.1
2329910
2330348.1
2331374
2332862.9
2335079.9
2338382.8
2342952.5
2347726.2
2349955
2350140.1
2350196.6
2350263.8
2350344.8
2350443.6
2350564.8
2350716
2350943.6
2351532.3
2352540
2354417.4
2358192.4
2365248.1
2370805.4
2371008.7
2371047.7
2371098.4
2371218.1
2371456.2
2371904.3
2372877.5
2375433
2383114.4
2390765.4
2390814.1
2390871
2390964.4
2391134.6
2391494.5
2392440.8
2395966.5
2408100.8
2409424.4
2409476.3
2409552
2409666.5
2409844.5
2410145.7
2410656
2411556.9
2413094.7
2415378.2
2418130.7
2420592.4
2422717.1
2424117.1
2425110.4
2425731.5
2426079.8
2426248.8
2426321.2
2426349.9
2426361.2
2426366.3
2426369
2426370.8
2426372
2426372.8
2426373.3
2426373.6
2426373.8
2426373.8
2426373.8
2426373.7
2426373.6
2426373.5
2426373.3
2426373.1
2426372.9
2426372.7
2426372.5
2426372.3
2426372.2
2426371.9
2426372.3
2426372.1
2426371.9
452.39165
328.80222
321.14264
319.51658
319.19784
319.07887
319.00135
318.94912
318.91519
318.89455
318.88425
318.88276
318.88937
318.90412
318.92744
318.96116
319.00596
319.07145
319.14497
319.30373
319.4106
319.27314
332.19405
15523.573
1735375.1
1712469.2
1712486.4
1712574.3
1712958.7
1713496
1714079.8
1714700.6
1715869.1
1718243.4
1720792.1
1723375
1725435.8
1726312
1726601.7
1726694.8
1726753
1726810.8
1726874.1
1726944.8
1727024.8
1727116.3
1727221.8
1727344.7
1727489.1
1727661.2
1727864.9
1728146
1728803.4
1729757.6
1731178.1
1733293.8
1736219.4
1739272.6
1740695.8
1740813.8
1740849.9
1740892.9
1740944.7
1741007.8
1741085.4
1741182
1741327.7
1741704.4
1742349
1743549.9
1745963.9
1750473
1754018.9
1754148.2
1754173.1
1754205.5
1754281.9
1754433.9
1754720.1
1755341.5
1756973.2
1761875.5
1766750.5
1766781.5
1766817.8
1766877.4
1766985.8
1767215.2
1767818.5
1770065.8
1777792.6
1778633.4
1778666.3
1778714.5
1778787.4
1778900.7
1779092.3
1779417.1
1779990.3
1780968.7
1782421.3
1784171.8
1785736.9
1787087.4
1787977.3
1788608.5
1789003.2
1789224.5
1789331.9
1789377.9
1789396.2
1789403.3
1789406.5
1789408.3
1789409.4
1789410.2
1789410.7
1789411
1789411.2
1789411.3
1789411.4
1789411.4
1789411.3
1789411.2
1789411.1
1789411
1789410.9
1789410.8
1789410.6
1789410.5
1789410.4
1789410.3
1789410.1
1789410.4
1789410.3
1789410.1
451.99856
327.88823
320.19804
318.55662
318.23273
318.11219
318.03399
317.98132
317.94707
317.92619
317.91571
317.91408
317.92059
317.93525
317.95849
317.99215
318.03689
318.10233
318.17576
318.33429
318.44186
318.2977
331.17356
14981.834
1301966.3
1286809.3
1286789.4
1286843.4
1287093.4
1287443.7
1287824.6
1288229.9
1288992
1290541.3
1292208.3
1293893.2
1295234
1295805.4
1295994.2
1296054.9
1296092.9
1296130.5
1296171.8
1296217.8
1296270
1296329.6
1296398.4
1296478.5
1296572.7
1296684.9
1296817.8
1297001.3
1297430.2
1298052.5
1298978.8
1300358.1
1302264.6
1304252.4
1305177.4
1305253.9
1305277.4
1305305.4
1305339.1
1305380.3
1305430.8
1305493.7
1305588.6
1305833.9
1306253.7
1307035.7
1308607.4
1311541.4
1313845.1
1313928.8
1313945
1313966
1314015.8
1314114.6
1314300.7
1314704.8
1315765.7
1318952
1322115.7
1322135.8
1322159.4
1322198
1322268.4
1322417.4
1322809.1
1324268.3
1329280.7
1329824.7
1329846.1
1329877.4
1329924.6
1329998.1
1330122.3
1330332.9
1330704.5
1331338.7
1332280.2
1333414.5
1334428.6
1335303.4
1335879.7
1336288.5
1336544.1
1336687.4
1336757
1336786.8
1336798.6
1336803.2
1336805.3
1336806.4
1336807.2
1336807.6
1336808
1336808.2
1336808.3
1336808.4
1336808.4
1336808.4
1336808.4
1336808.3
1336808.3
1336808.2
1336808.1
1336808
1336807.9
1336807.8
1336807.8
1336807.7
1336807.6
1336807.8
1336807.7
1336807.6
451.5417
326.82015
319.09367
317.43413
317.10417
316.98177
316.90276
316.84958
316.81495
316.79379
316.7831
316.7813
316.78767
316.80223
316.82539
316.85898
316.90365
316.96902
317.04236
317.20064
317.309
317.15717
329.9752
14407.71
985870.94
975650.24
975602.41
975634.38
975798.35
976029.53
976281.22
976549.15
977052.7
978076.99
979181.88
980295.64
981179.68
981557.22
981681.97
981722.01
981747.06
981771.91
981799.14
981829.57
981864.03
981903.42
981948.87
982001.81
982064.03
982138.19
982225.97
982347.47
982630.93
983042.3
983654.56
984566.04
985825.28
987137.12
987746.52
987796.83
987812.34
987830.81
987853.06
987880.21
987913.53
987955.06
988017.78
988179.72
988456.83
988973.09
990010.51
991946.02
993463.42
993518.39
993529.06
993542.93
993575.73
993640.88
993763.58
994030.01
994729.54
996829.59
998911.66
998924.86
998940.36
998965.82
999012.18
999110.28
999368.24
1000329.1
1003627.2
1003984.3
1003998.4
1004018.9
1004050
1004098.3
1004180
1004318.5
1004562.9
1004979.9
1005599
1006344.6
1007011.1
1007586
1007964.7
1008233.3
1008401.2
1008495.4
1008541.1
1008560.7
1008568.4
1008571.5
1008572.8
1008573.6
1008574.1
1008574.4
1008574.6
1008574.7
1008574.8
1008574.9
1008574.9
1008574.9
1008574.8
1008574.8
1008574.8
1008574.7
1008574.7
1008574.6
1008574.6
1008574.5
1008574.4
1008574.4
1008574.3
1008574.4
1008574.4
1008574.3
451.01453
325.57989
317.8106
316.12976
315.79269
315.66811
315.58815
315.53435
315.49929
315.47779
315.46685
315.46485
315.47108
315.48551
315.50857
315.54208
315.58667
315.65196
315.72519
315.8832
315.99245
315.83196
328.57613
13800.743
751864.03
744849.51
744778.97
744796.01
744903.98
745057.72
745225.5
745404.31
745740.28
746424.35
747164.14
747907.92
748496.71
748748.73
748831.97
748858.65
748875.33
748891.88
748910.03
748930.32
748953.31
748979.59
749009.92
749045.25
749086.78
749136.29
749194.89
749276.14
749465.46
749740.21
750149.1
750757.71
751598.17
752472.99
752878.69
752912.1
752922.44
752934.75
752949.59
752967.69
752989.91
753017.61
753059.48
753167.51
753352.4
753696.82
754388.85
755679.3
756689.49
756725.96
756733.07
756742.31
756764.16
756807.58
756889.34
757066.91
757533.1
758932.21
760317.34
760326.11
760336.42
760353.37
760384.23
760449.53
760621.27
761260.97
763454.97
763691.91
763701.26
763714.91
763735.58
763767.71
763822.04
763914.12
764076.65
764353.96
764765.5
765261.15
765704.1
766086.11
766337.76
766516.22
766627.78
766690.35
766720.7
766733.71
766738.86
766740.89
766741.79
766742.29
766742.61
766742.82
766742.97
766743.06
766743.11
766743.14
766743.15
766743.15
766743.13
766743.11
766743.08
766743.05
766743.01
766742.97
766742.93
766742.9
766742.86
766742.84
766742.79
766742.85
766742.83
766742.78
450.41018
324.14776
316.32811
314.62237
314.27702
314.14986
314.06878
314.01426
313.97868
313.9568
313.94556
313.94334
313.94938
313.96368
313.98662
314.02003
314.06453
314.12975
314.20285
314.36056
314.47079
314.30073
326.951
13161.287
576599.81
571700.76
571610.26
571616.74
571687.59
571790.23
571902.71
572022.81
572248.63
572709.01
573208.22
573708.84
574104.06
574273.61
574329.56
574347.45
574358.63
574369.72
574381.9
574395.52
574410.96
574428.62
574449.01
574472.77
574500.7
574534.01
574573.44
574628.21
574755.67
574940.64
575215.92
575625.58
576191.1
576779.24
577051.52
577073.89
577080.83
577089.1
577099.07
577111.24
577126.18
577144.8
577172.97
577245.64
577369.99
577601.66
578067.1
578934.61
579612.71
579637.11
579641.88
579648.08
579662.77
579691.94
579746.88
579866.2
580179.49
581119.47
582048.73
582054.61
582061.53
582072.9
582093.62
582137.46
582252.76
582682.27
584154.3
584312.87
584319.14
584328.29
584342.15
584363.7
584400.14
584461.9
584570.91
584756.89
585032.86
585365.19
585662.15
585918.21
586086.89
586206.5
586281.27
586323.2
586343.54
586352.26
586355.72
586357.08
586357.68
586358.02
586358.23
586358.37
586358.47
586358.53
586358.56
586358.58
586358.59
586358.59
586358.57
586358.56
586358.54
586358.51
586358.49
586358.46
586358.44
586358.41
586358.38
586358.37
586358.34
586358.38
586358.36
586358.33
449.72155
322.50244
314.62376
312.88899
312.53401
312.40383
312.32143
312.26608
312.2299
312.20756
312.19598
312.19349
312.19932
312.21345
312.23627
312.26957
312.31396
312.37909
312.45206
312.60944
312.72075
312.54033
325.07188
12490.609
444131.07
440646.47
440537.21
440535.84
440581.65
440650.12
440725.7
440806.67
440959.24
441270.9
441609.77
441948.76
442215.65
442330.38
442368.19
442380.23
442387.73
442395.19
442403.38
442412.57
442422.98
442434.91
442448.69
442464.76
442483.65
442506.19
442532.88
442570.01
442656.36
442781.67
442968.16
443245.65
443628.58
444026.5
444210.4
444225.46
444230.15
444235.74
444242.47
444250.7
444260.8
444273.39
444292.48
444341.66
444425.84
444582.67
444897.72
445484.69
445942.83
445959.25
445962.47
445966.66
445976.59
445996.32
446033.47
446114.18
446326.1
446961.77
447589.32
447593.28
447597.95
447605.63
447619.63
447649.26
447727.19
448017.49
449011.76
449118.6
449122.83
449129.01
449138.36
449152.91
449177.52
449219.22
449292.83
449418.41
449604.74
449829.08
450029.52
450202.34
450316.18
450396.9
450447.36
450475.65
450489.38
450495.27
450497.6
450498.52
450498.93
450499.15
450499.3
450499.39
450499.45
450499.49
450499.52
450499.53
450499.53
450499.53
450499.52
450499.51
450499.49
450499.48
450499.46
450499.44
450499.42
450499.4
450499.38
450499.37
450499.35
450499.37
450499.36
450499.34
448.94147
320.62108
312.6733
310.90482
310.53865
310.40495
310.32102
310.26469
310.2278
310.20494
310.19295
310.19015
310.19574
310.20969
310.23235
310.26552
310.30979
310.37483
310.44766
310.6047
310.71716
310.52586
322.90811
11790.964
343288.98
340761.4
340633.53
340625.92
340654.55
340699.88
340750.56
340805.19
340908.59
341120.46
341351.51
341582.11
341763.14
341841.12
341866.74
341874.84
341879.87
341884.87
341890.39
341896.59
341903.63
341911.7
341921.04
341931.95
341944.78
341960.09
341978.23
342003.52
342062.3
342147.6
342274.56
342463.45
342724.02
342994.59
343119.41
343129.6
343132.78
343136.56
343141.13
343146.72
343153.58
343162.13
343175.12
343208.57
343265.84
343372.54
343586.88
343986.05
344297.16
344308.27
344310.45
344313.29
344320.03
344333.44
344358.7
344413.56
344557.65
344989.76
345415.76
345418.45
345421.61
345426.83
345436.33
345456.46
345509.4
345706.64
346381.77
346454.14
346457
346461.19
346467.54
346477.42
346494.12
346522.44
346572.41
346657.66
346784.14
346936.4
347072.44
347189.71
347266.96
347321.73
347355.97
347375.17
347384.48
347388.48
347390.06
347390.68
347390.96
347391.12
347391.21
347391.28
347391.32
347391.35
347391.36
347391.37
347391.37
347391.36
347391.35
347391.34
347391.33
347391.32
347391.31
347391.29
347391.28
347391.26
347391.25
347391.24
347391.22
347391.24
347391.23
347391.21
448.06283
318.4793
310.45074
308.64328
308.26414
308.12632
308.04059
307.98313
307.94542
307.92194
307.90948
307.90633
307.91164
307.92536
307.94785
307.98088
308.02502
308.08996
308.16263
308.31932
308.43299
308.23079
320.42629
11065.65
266088.28
264215.74
264068.7
264055.75
264072.31
264101.75
264135.46
264172.17
264242.32
264386.76
264544.77
264702.15
264825.34
264878.47
264895.85
264901.27
264904.61
264907.94
264911.64
264915.81
264920.56
264926.02
264932.36
264939.76
264948.49
264958.92
264971.29
264988.57
265028.72
265087
265173.76
265302.83
265480.84
265665.53
265750.58
265757.49
265759.64
265762.21
265765.32
265769.12
265773.79
265779.62
265788.48
265811.32
265850.44
265923.31
266069.72
266342.27
266554.38
266561.93
266563.4
266565.34
266569.93
266579.08
266596.31
266633.76
266732.12
267027.06
267317.44
267319.27
267321.42
267324.97
267331.45
267345.17
267381.29
267515.86
267976.22
268025.44
268027.38
268030.24
268034.56
268041.3
268052.68
268071.99
268106.06
268164.19
268250.41
268354.2
268446.93
268526.85
268579.5
268616.83
268640.16
268653.25
268659.6
268662.32
268663.4
268663.83
268664.02
268664.13
268664.19
268664.23
268664.26
268664.28
268664.29
268664.29
268664.29
268664.28
268664.27
268664.27
268664.26
268664.24
268664.23
268664.22
268664.21
268664.2
268664.19
268664.18
268664.16
268664.17
268664.17
268664.15
447.07886
316.05138
307.92849
306.07609
305.68189
305.53927
305.45146
305.39268
305.35401
305.32982
305.31682
305.31324
305.31823
305.3317
305.35398
305.38686
305.43085
305.49569
305.56818
305.72453
305.83943
305.62712
317.59026
10319.02
206722.11
205303.62
205136.34
205118.41
205126.23
205144.59
205166.58
205190.99
205238.48
205337.06
205445.3
205552.93
205636.92
205673.15
205684.9
205688.49
205690.66
205692.84
205695.28
205698.06
205701.24
205704.92
205709.21
205714.23
205720.16
205727.27
205735.7
205747.53
205775.02
205814.96
205874.42
205962.88
206084.85
206211.31
206269.43
206274.12
206275.58
206277.32
206279.43
206282.01
206285.2
206289.17
206295.24
206310.87
206337.66
206387.59
206487.91
206674.59
206819.68
206824.81
206825.81
206827.12
206830.26
206836.51
206848.31
206873.95
206941.31
207143.28
207341.87
207343.11
207344.57
207347
207351.42
207360.81
207385.53
207477.64
207792.6
207826.18
207827.51
207829.46
207832.41
207837.02
207844.81
207858.02
207881.33
207921.1
207980.09
208051.09
208114.52
208169.18
208205.2
208230.73
208246.69
208255.65
208259.99
208261.86
208262.6
208262.89
208263.02
208263.09
208263.14
208263.16
208263.18
208263.19
208263.19
208263.19
208263.19
208263.18
208263.18
208263.17
208263.16
208263.15
208263.14
208263.13
208263.12
208263.11
208263.09
208263.09
208263.08
208263.08
208263.07
208263.05
445.98333
313.3105
305.07752
303.1734
302.76175
302.61355
302.5233
302.46299
302.42321
302.39819
302.38455
302.38049
302.38511
302.39829
302.42034
302.45304
302.49687
302.5616
302.63391
302.78993
302.90603
302.68567
314.36114
9556.445
160908.6
159809.74
159620.73
159597.82
159599.05
159609.49
159623.26
159639.12
159671.06
159738.28
159812.43
159886.07
159943.36
159968.03
159975.91
159978.21
159979.56
159980.93
159982.5
159984.31
159986.41
159988.86
159991.73
159995.11
159999.13
160003.96
160009.7
160017.8
160036.65
160064.07
160104.9
160165.66
160249.43
160336.22
160376.03
160379.21
160380.18
160381.35
160382.78
160384.53
160386.7
160389.41
160393.56
160404.29
160422.67
160456.96
160525.86
160654.05
160753.54
160757.04
160757.71
160758.6
160760.74
160765.02
160773.11
160790.71
160836.95
160975.62
161111.78
161112.62
161113.62
161115.27
161118.3
161124.73
161141.69
161204.91
161420.96
161443.94
161444.85
161446.18
161448.21
161451.36
161456.71
161465.78
161481.78
161509.07
161549.54
161598.26
161641.77
161679.28
161703.98
161721.5
161732.46
161738.6
161741.58
161742.87
161743.38
161743.58
161743.67
161743.72
161743.75
161743.77
161743.78
161743.78
161743.78
161743.77
161743.77
161743.76
161743.75
161743.74
161743.73
161743.72
161743.71
161743.7
161743.69
161743.68
161743.67
161743.66
161743.65
161743.65
161743.64
161743.63
444.77098
310.22903
301.86763
299.90403
299.4722
299.31751
299.22443
299.16233
299.12126
299.09527
299.08091
299.07629
299.08047
299.09331
299.1151
299.14761
299.19126
299.25588
299.32801
299.48374
299.60093
299.37576
310.69825
8784.2271
125454.17
124585.11
124372.62
124344.4
124340.35
124344.95
124352.82
124362.64
124383.79
124429.45
124480.13
124530.45
124569.46
124586.17
124591.36
124592.74
124593.5
124594.29
124595.23
124596.36
124597.69
124599.28
124601.17
124603.42
124606.11
124609.37
124613.26
124618.79
124631.72
124650.55
124678.62
124720.43
124778.06
124837.72
124865.03
124867.17
124867.81
124868.59
124869.54
124870.72
124872.18
124874.03
124876.86
124884.22
124896.86
124920.45
124967.86
125056.06
125124.41
125126.79
125127.23
125127.83
125129.29
125132.22
125137.77
125149.87
125181.68
125277.07
125370.62
125371.19
125371.87
125372.99
125375.07
125379.48
125391.14
125434.61
125583.14
125598.89
125599.51
125600.42
125601.81
125603.98
125607.66
125613.9
125624.91
125643.69
125671.54
125705.04
125734.98
125760.78
125777.78
125789.83
125797.37
125801.6
125803.66
125804.54
125804.9
125805.04
125805.1
125805.13
125805.15
125805.16
125805.17
125805.16
125805.16
125805.15
125805.15
125805.14
125805.13
125805.12
125805.1
125805.09
125805.08
125805.07
125805.06
125805.05
125805.04
125805.03
125805.02
125805.01
125805
125804.98
443.43792
306.779
298.26778
296.23587
295.78072
295.61847
295.52209
295.45792
295.41536
295.38826
295.37305
295.36777
295.37146
295.38391
295.4054
295.43768
295.48114
295.54567
295.61759
295.77311
295.89118
295.66588
306.55926
8009.4513
97954.719
97255.953
97018.027
96983.898
96975.307
96975.391
96978.878
96984.325
96997.915
97028.641
97063.07
97097.3