/*--------------------------------*- C++ -*----------------------------------*\
| =========                 |                                                 |
| \\      /  F ield         | OpenFOAM: The Open Source CFD Toolbox           |
|  \\    /   O peration     | Version:  2206                                  |
|   \\  /    A nd           | Website:  www.openfoam.com                      |
|    \\/     M anipulation  |                                                 |
\*---------------------------------------------------------------------------*/
FoamFile
{
    version     2.0;
    format      ascii;
    arch        "LSB;label=32;scalar=64";
    class       volScalarField;
    location    "1800";
    object      p;
}
// * * * * * * * * * * * * * * * * * * * * * * * * * * * * * * * * * * * * * //

dimensions      [0 2 -2 0 0 0 0];

internalField   nonuniform List<scalar> 
13056
(
0.012025352
0.012129663
0.01235015
0.01263131
0.012971987
0.013372462
0.013830848
0.014346349
0.01492031
0.015555978
0.016258381
0.017034679
0.017894764
0.018852646
0.019927285
0.021148184
0.022551878
0.024215506
0.026197388
0.028796615
0.031917272
0.037409165
0.04249174
0.080466778
0.050902951
0.0023085352
0.00097239746
0.0018461929
0.0023959988
0.0028456272
0.0031218506
0.0033156885
0.0034633299
0.0035704599
0.0036464162
0.0037011288
0.003740973
0.0037695547
0.0037893279
0.0038023134
0.0038099158
0.0038131189
0.0038127149
0.0038093773
0.0038035432
0.0037955127
0.0037855971
0.0037740204
0.0037609713
0.003746574
0.0037309242
0.0037141082
0.0036961872
0.0036772189
0.0036572461
0.0036362726
0.003614299
0.0035913296
0.0035673573
0.0035423645
0.0035163317
0.0034892325
0.0034610103
0.0034315975
0.0034009265
0.0033689238
0.0033355162
0.0033006195
0.0032641484
0.0032260184
0.0031861267
0.0031443518
0.0031005729
0.0030546765
0.0030065408
0.0029560836
0.0029032325
0.0028479971
0.002790395
0.0027303891
0.0026681446
0.0026038377
0.0025377368
0.0024705625
0.0024034356
0.0023380493
0.0022766999
0.002223416
0.0021830374
0.0021515633
0.0021523432
0.0021888713
0.0022518455
0.0023615164
0.0025223634
0.0027369283
0.0030019609
0.0033079536
0.0036521286
0.0039960838
0.0042857834
0.0044720743
0.0045737734
0.004566742
0.0044647859
0.0043456407
0.0042058886
0.0040556439
0.0039022885
0.0037457904
0.003589001
0.0034305214
0.0032664617
0.0031010763
0.0029360776
0.0027723942
0.0026122636
0.0024549371
0.0022986926
0.0021465749
0.0019986202
0.0018531894
0.0017105425
0.0015722652
0.0014384951
0.0013077561
0.0011805664
0.0010576505
0.00094118664
0.00083089543
0.00072923537
0.00063259135
0.00057013697
0.00048297729
0.00066817328
-0.00051359514
0.012025352
0.012129663
0.01235015
0.01263131
0.012971987
0.013372462
0.013830848
0.014346349
0.01492031
0.015555978
0.016258381
0.01703468
0.017894765
0.018852646
0.019927286
0.021148185
0.02255188
0.024215508
0.026197391
0.028796619
0.031917276
0.037409174
0.042491765
0.080461989
0.050914154
0.0023157177
0.0009742365
0.0018470255
0.002396509
0.002845986
0.0031221219
0.0033159041
0.0034635065
0.0035706078
0.0036465424
0.0037012381
0.0037410688
0.0037696394
0.0037894036
0.0038023814
0.0038099772
0.0038131747
0.0038127659
0.003809424
0.0038035861
0.0037955524
0.0037856339
0.0037740545
0.0037610031
0.0037466037
0.0037309519
0.0037141342
0.0036962116
0.0036772418
0.0036572677
0.0036362929
0.0036143182
0.0035913477
0.0035673744
0.0035423807
0.003516347
0.003489247
0.0034610241
0.0034316106
0.0034009389
0.0033689356
0.0033355274
0.0033006302
0.0032641585
0.003226028
0.0031861358
0.0031443605
0.0031005811
0.0030546843
0.0030065482
0.0029560906
0.0029032392
0.0028480034
0.0027904009
0.0027303946
0.0026681497
0.0026038425
0.0025377412
0.0024705665
0.0024034392
0.0023380525
0.0022767027
0.0022234183
0.0021830391
0.0021515644
0.0021523436
0.002188871
0.0022518444
0.0023615144
0.0025223606
0.0027369245
0.0030019562
0.0033079482
0.0036521226
0.0039960775
0.0042857774
0.004472069
0.0045737689
0.0045667389
0.0044647836
0.0043456392
0.0042058875
0.0040556432
0.0039022881
0.0037457901
0.0035890008
0.0034305214
0.0032664618
0.0031010765
0.0029360779
0.0027723945
0.002612264
0.0024549376
0.0022986931
0.0021465754
0.0019986207
0.0018531899
0.001710543
0.0015722657
0.0014384956
0.0013077566
0.0011805669
0.001057651
0.00094118711
0.00083089589
0.00072923583
0.00063259181
0.00057013747
0.00048297783
0.00066817384
-0.00051359479
0.012025352
0.012129663
0.01235015
0.01263131
0.012971987
0.013372462
0.013830849
0.01434635
0.01492031
0.015555979
0.016258382
0.01703468
0.017894765
0.018852647
0.019927287
0.021148187
0.022551881
0.02421551
0.026197394
0.028796623
0.031917281
0.037409184
0.042491783
0.08045716
0.050929533
0.0023226942
0.00097641752
0.0018480211
0.002397119
0.002846415
0.0031224462
0.0033161619
0.0034637176
0.0035707847
0.0036466934
0.0037013689
0.0037411834
0.0037697408
0.003789494
0.0038024626
0.0038100506
0.0038132414
0.0038128268
0.0038094799
0.0038036376
0.0037955999
0.0037856778
0.0037740953
0.0037610411
0.0037466391
0.0037309851
0.0037141652
0.0036962408
0.0036772692
0.0036572935
0.0036363172
0.0036143411
0.0035913694
0.0035673949
0.0035424001
0.0035163654
0.0034892644
0.0034610406
0.0034316263
0.0034009538
0.0033689497
0.0033355408
0.003300643
0.0032641706
0.0032260396
0.0031861468
0.0031443709
0.003100591
0.0030546937
0.0030065571
0.002956099
0.0029032471
0.0028480108
0.0027904079
0.0027304012
0.0026681559
0.0026038482
0.0025377464
0.0024705713
0.0024034435
0.0023380563
0.0022767059
0.0022234209
0.0021830412
0.0021515658
0.002152344
0.0021888707
0.0022518431
0.0023615121
0.0025223572
0.00273692
0.0030019507
0.0033079418
0.0036521155
0.00399607
0.0042857702
0.0044720627
0.0045737637
0.0045667352
0.0044647809
0.0043456373
0.0042058862
0.0040556423
0.0039022875
0.0037457898
0.0035890007
0.0034305214
0.0032664619
0.0031010767
0.0029360782
0.0027723949
0.0026122644
0.0024549381
0.0022986936
0.002146576
0.0019986213
0.0018531905
0.0017105436
0.0015722663
0.0014384962
0.0013077572
0.0011805675
0.0010576515
0.00094118767
0.00083089644
0.00072923639
0.00063259236
0.00057013808
0.00048297846
0.0006681745
-0.00051359437
0.012025352
0.012129663
0.01235015
0.01263131
0.012971987
0.013372462
0.013830849
0.01434635
0.014920311
0.015555979
0.016258382
0.017034681
0.017894766
0.018852648
0.019927288
0.021148188
0.022551883
0.024215512
0.026197396
0.028796626
0.031917286
0.037409192
0.0424918
0.080452459
0.050946696
0.0023278464
0.00097846945
0.0018489964
0.0023977167
0.0028468353
0.003122764
0.0033164145
0.0034639245
0.0035709579
0.0036468412
0.0037014969
0.0037412956
0.0037698401
0.0037895826
0.0038025422
0.0038101225
0.0038133068
0.0038128865
0.0038095346
0.0038036879
0.0037956464
0.0037857209
0.0037741353
0.0037610783
0.0037466739
0.0037310176
0.0037141957
0.0036962693
0.003677296
0.0036573187
0.003636341
0.0036143636
0.0035913906
0.0035674149
0.0035424191
0.0035163834
0.0034892815
0.0034610567
0.0034316416
0.0034009683
0.0033689636
0.0033355539
0.0033006554
0.0032641825
0.0032260508
0.0031861575
0.0031443811
0.0031006006
0.0030547028
0.0030065658
0.0029561072
0.0029032549
0.0028480182
0.0027904148
0.0027304077
0.0026681619
0.0026038538
0.0025377515
0.0024705759
0.0024034477
0.00233806
0.0022767091
0.0022234235
0.0021830433
0.002151567
0.0021523444
0.0021888704
0.0022518418
0.0023615099
0.0025223539
0.0027369156
0.0030019453
0.0033079355
0.0036521085
0.0039960627
0.0042857632
0.0044720564
0.0045737587
0.0045667316
0.0044647782
0.0043456355
0.0042058849
0.0040556415
0.003902287
0.0037457895
0.0035890005
0.0034305214
0.003266462
0.0031010769
0.0029360785
0.0027723953
0.0026122649
0.0024549386
0.0022986941
0.0021465766
0.0019986219
0.0018531911
0.0017105442
0.0015722669
0.0014384968
0.0013077578
0.0011805681
0.0010576521
0.00094118822
0.00083089698
0.00072923693
0.0006325929
0.00057013867
0.00048297906
0.00066817515
-0.00051359398
0.012025352
0.012129663
0.01235015
0.01263131
0.012971987
0.013372462
0.013830849
0.01434635
0.014920311
0.015555979
0.016258383
0.017034681
0.017894767
0.018852649
0.01992729
0.021148189
0.022551885
0.024215515
0.026197399
0.02879663
0.03191729
0.037409199
0.04249182
0.080447426
0.050964964
0.0023335584
0.0009805447
0.0018499949
0.0023983287
0.0028472657
0.0031230894
0.0033166731
0.0034641363
0.0035711354
0.0036469927
0.0037016281
0.0037414105
0.0037699418
0.0037896733
0.0038026237
0.0038101962
0.0038133738
0.0038129476
0.0038095906
0.0038037395
0.003795694
0.003785765
0.0037741763
0.0037611164
0.0037467094
0.0037310508
0.0037142268
0.0036962986
0.0036773235
0.0036573446
0.0036363654
0.0036143866
0.0035914123
0.0035674354
0.0035424385
0.0035164018
0.0034892989
0.0034610733
0.0034316573
0.0034009832
0.0033689777
0.0033355674
0.0033006682
0.0032641946
0.0032260624
0.0031861684
0.0031443915
0.0031006105
0.0030547122
0.0030065747
0.0029561156
0.0029032628
0.0028480257
0.0027904218
0.0027304143
0.002668168
0.0026038595
0.0025377568
0.0024705807
0.002403452
0.0023380638
0.0022767124
0.0022234262
0.0021830454
0.0021515683
0.0021523449
0.0021888701
0.0022518405
0.0023615075
0.0025223504
0.002736911
0.0030019397
0.0033079291
0.0036521013
0.0039960552
0.004285756
0.00447205
0.0045737537
0.0045667279
0.0044647755
0.0043456336
0.0042058837
0.0040556406
0.0039022864
0.0037457891
0.0035890004
0.0034305214
0.0032664621
0.0031010771
0.0029360788
0.0027723957
0.0026122654
0.0024549391
0.0022986947
0.0021465771
0.0019986225
0.0018531917
0.0017105448
0.0015722675
0.0014384974
0.0013077583
0.0011805686
0.0010576526
0.00094118878
0.00083089754
0.00072923749
0.00063259345
0.00057013927
0.00048297966
0.00066817582
-0.00051359359
0.012025352
0.012129663
0.01235015
0.01263131
0.012971987
0.013372463
0.013830849
0.01434635
0.014920311
0.01555598
0.016258383
0.017034682
0.017894768
0.01885265
0.019927291
0.021148191
0.022551887
0.024215517
0.026197402
0.028796634
0.031917295
0.037409205
0.042491844
0.080441838
0.050984011
0.0023406825
0.00098275155
0.0018510554
0.0023989788
0.0028477229
0.003123435
0.0033169479
0.0034643613
0.0035713238
0.0036471535
0.0037017674
0.0037415326
0.0037700498
0.0037897696
0.0038027102
0.0038102744
0.0038134449
0.0038130125
0.0038096501
0.0038037942
0.0037957446
0.0037858118
0.0037742198
0.0037611569
0.0037467472
0.0037310862
0.0037142599
0.0036963296
0.0036773527
0.0036573721
0.0036363912
0.003614411
0.0035914354
0.0035674573
0.0035424591
0.0035164213
0.0034893174
0.0034610909
0.003431674
0.0034009991
0.0033689928
0.0033355817
0.0033006818
0.0032642075
0.0032260746
0.0031861801
0.0031444026
0.003100621
0.0030547222
0.0030065841
0.0029561246
0.0029032713
0.0028480336
0.0027904293
0.0027304213
0.0026681746
0.0026038655
0.0025377624
0.0024705858
0.0024034566
0.0023380678
0.0022767159
0.0022234291
0.0021830477
0.0021515697
0.0021523454
0.0021888698
0.0022518391
0.0023615051
0.0025223468
0.0027369062
0.0030019338
0.0033079223
0.0036520937
0.0039960472
0.0042857483
0.0044720433
0.0045737484
0.004566724
0.0044647726
0.0043456316
0.0042058823
0.0040556397
0.0039022858
0.0037457888
0.0035890002
0.0034305214
0.0032664622
0.0031010774
0.0029360791
0.0027723961
0.0026122659
0.0024549396
0.0022986953
0.0021465777
0.0019986231
0.0018531923
0.0017105454
0.0015722681
0.001438498
0.001307759
0.0011805693
0.0010576533
0.00094118938
0.00083089813
0.00072923808
0.00063259404
0.00057013991
0.00048298031
0.00066817653
-0.00051359317
0.012025352
0.012129663
0.01235015
0.01263131
0.012971988
0.013372463
0.013830849
0.014346351
0.014920312
0.01555598
0.016258384
0.017034683
0.017894768
0.018852651
0.019927292
0.021148193
0.022551889
0.02421552
0.026197405
0.028796638
0.0319173
0.03740921
0.042491873
0.080435585
0.051004059
0.0023485588
0.00098512952
0.0018521967
0.0023996786
0.0028482151
0.0031238071
0.0033172436
0.0034646035
0.0035715266
0.0036473266
0.0037019173
0.003741664
0.003770166
0.0037898733
0.0038028034
0.0038103586
0.0038135214
0.0038130824
0.0038097142
0.0038038532
0.003795799
0.0037858622
0.0037742666
0.0037612005
0.0037467879
0.0037311242
0.0037142955
0.003696363
0.0036773841
0.0036574016
0.0036364191
0.0036144373
0.0035914602
0.0035674807
0.0035424814
0.0035164424
0.0034893374
0.0034611098
0.0034316919
0.0034010161
0.003369009
0.0033355971
0.0033006964
0.0032642214
0.0032260878
0.0031861926
0.0031444145
0.0031006323
0.0030547329
0.0030065943
0.0029561342
0.0029032804
0.0028480422
0.0027904374
0.0027304288
0.0026681816
0.0026038721
0.0025377684
0.0024705913
0.0024034615
0.0023380722
0.0022767197
0.0022234321
0.0021830501
0.0021515712
0.0021523459
0.0021888694
0.0022518376
0.0023615024
0.0025223429
0.002736901
0.0030019274
0.0033079149
0.0036520855
0.0039960387
0.0042857401
0.004472036
0.0045737427
0.0045667198
0.0044647695
0.0043456295
0.0042058808
0.0040556387
0.0039022851
0.0037457884
0.003589
0.0034305214
0.0032664624
0.0031010776
0.0029360795
0.0027723966
0.0026122664
0.0024549402
0.0022986959
0.0021465784
0.0019986238
0.001853193
0.0017105461
0.0015722688
0.0014384987
0.0013077596
0.0011805699
0.0010576539
0.00094119002
0.00083089876
0.00072923871
0.00063259467
0.0005701406
0.000482981
0.00066817729
-0.00051359272
0.012025352
0.012129663
0.01235015
0.01263131
0.012971988
0.013372463
0.01383085
0.014346351
0.014920312
0.015555981
0.016258384
0.017034684
0.017894769
0.018852652
0.019927294
0.021148195
0.022551891
0.024215522
0.026197408
0.028796642
0.031917306
0.037409215
0.042491907
0.080428535
0.05102538
0.0023570171
0.00098770776
0.0018534342
0.0024004376
0.0028487488
0.0031242106
0.0033175643
0.0034648662
0.0035717466
0.0036475143
0.0037020799
0.0037418065
0.0037702921
0.0037899858
0.0038029044
0.0038104499
0.0038136044
0.0038131582
0.0038097836
0.0038039171
0.003795858
0.0037859169
0.0037743174
0.0037612478
0.003746832
0.0037311654
0.0037143342
0.0036963993
0.0036774182
0.0036574337
0.0036364493
0.0036144658
0.0035914871
0.0035675062
0.0035425054
0.0035164652
0.003489359
0.0034611303
0.0034317114
0.0034010346
0.0033690265
0.0033356137
0.0033007123
0.0032642365
0.0032261022
0.0031862062
0.0031444274
0.0031006446
0.0030547445
0.0030066053
0.0029561446
0.0029032902
0.0028480515
0.0027904461
0.002730437
0.0026681893
0.0026038791
0.0025377749
0.0024705972
0.0024034668
0.0023380769
0.0022767237
0.0022234354
0.0021830527
0.0021515728
0.0021523464
0.002188869
0.002251836
0.0023614995
0.0025223386
0.0027368954
0.0030019206
0.0033079069
0.0036520767
0.0039960294
0.0042857312
0.0044720281
0.0045737364
0.0045667152
0.0044647661
0.0043456272
0.0042058792
0.0040556376
0.0039022844
0.003745788
0.0035889998
0.0034305213
0.0032664625
0.0031010779
0.0029360799
0.0027723971
0.002612267
0.0024549409
0.0022986966
0.0021465791
0.0019986245
0.0018531937
0.0017105469
0.0015722695
0.0014384994
0.0013077604
0.0011805706
0.0010576546
0.00094119072
0.00083089945
0.0007292394
0.00063259535
0.00057014135
0.00048298175
0.00066817812
-0.00051359222
0.012025352
0.012129663
0.01235015
0.01263131
0.012971988
0.013372463
0.01383085
0.014346351
0.014920313
0.015555981
0.016258385
0.017034684
0.017894771
0.018852654
0.019927295
0.021148197
0.022551894
0.024215526
0.026197412
0.028796647
0.031917312
0.03740922
0.042491947
0.080420514
0.051048202
0.0023661887
0.00099052232
0.0018547856
0.0024012665
0.0028493318
0.0031246513
0.0033179145
0.003465153
0.0035719869
0.0036477193
0.0037022575
0.0037419621
0.0037704297
0.0037901086
0.0038030148
0.0038105496
0.003813695
0.0038132409
0.0038098595
0.0038039869
0.0037959225
0.0037859766
0.0037743728
0.0037612994
0.0037468802
0.0037312105
0.0037143763
0.0036964388
0.0036774554
0.0036574687
0.0036364823
0.0036144969
0.0035915165
0.003567534
0.0035425318
0.0035164901
0.0034893826
0.0034611527
0.0034317327
0.0034010548
0.0033690457
0.003335632
0.0033007296
0.0032642529
0.0032261178
0.0031862211
0.0031444415
0.003100658
0.0030547572
0.0030066174
0.002956156
0.002903301
0.0028480617
0.0027904557
0.002730446
0.0026681976
0.0026038869
0.002537782
0.0024706037
0.0024034727
0.0023380821
0.0022767282
0.002223439
0.0021830556
0.0021515745
0.002152347
0.0021888686
0.0022518343
0.0023614964
0.002522334
0.0027368893
0.003001913
0.0033078982
0.003652067
0.0039960192
0.0042857215
0.0044720194
0.0045737296
0.0045667102
0.0044647624
0.0043456247
0.0042058775
0.0040556364
0.0039022837
0.0037457875
0.0035889996
0.0034305213
0.0032664626
0.0031010782
0.0029360803
0.0027723976
0.0026122676
0.0024549416
0.0022986973
0.0021465799
0.0019986253
0.0018531945
0.0017105477
0.0015722703
0.0014385002
0.0013077611
0.0011805714
0.0010576554
0.00094119148
0.0008309002
0.00072924016
0.0006325961
0.00057014217
0.00048298258
0.00066817902
-0.00051359169
0.012025352
0.012129663
0.01235015
0.012631311
0.012971988
0.013372464
0.01383085
0.014346352
0.014920313
0.015555982
0.016258386
0.017034686
0.017894772
0.018852655
0.019927297
0.021148199
0.022551897
0.024215529
0.026197416
0.028796652
0.031917319
0.037409223
0.042491996
0.080411316
0.051072734
0.0023762358
0.00099361498
0.001856271
0.0024021778
0.0028499727
0.0031251358
0.0033182996
0.0034654684
0.003572251
0.0036479447
0.0037024527
0.0037421331
0.0037705811
0.0037902436
0.003803136
0.0038106593
0.0038137947
0.0038133319
0.0038099429
0.0038040637
0.0037959933
0.0037860422
0.0037744337
0.0037613561
0.0037469331
0.00373126
0.0037144227
0.0036964824
0.0036774963
0.0036575072
0.0036365186
0.0036145311
0.0035915488
0.0035675646
0.0035425607
0.0035165175
0.0034894086
0.0034611773
0.003431756
0.003401077
0.0033690668
0.003335652
0.0033007486
0.003264271
0.003226135
0.0031862374
0.003144457
0.0031006727
0.0030547712
0.0030066306
0.0029561686
0.0029033128
0.0028480728
0.0027904662
0.0027304558
0.0026682068
0.0026038954
0.0025377898
0.0024706109
0.0024034791
0.0023380878
0.002276733
0.002223443
0.0021830587
0.0021515764
0.0021523477
0.0021888681
0.0022518323
0.0023614929
0.0025223289
0.0027368825
0.0030019048
0.0033078886
0.0036520563
0.003996008
0.0042857108
0.00447201
0.0045737222
0.0045667047
0.0044647583
0.0043456219
0.0042058755
0.0040556351
0.0039022828
0.003745787
0.0035889993
0.0034305213
0.0032664628
0.0031010785
0.0029360808
0.0027723982
0.0026122683
0.0024549423
0.0022986982
0.0021465808
0.0019986262
0.0018531954
0.0017105486
0.0015722712
0.0014385011
0.001307762
0.0011805723
0.0010576562
0.00094119232
0.00083090102
0.00072924099
0.00063259692
0.00057014307
0.00048298348
0.00066818002
-0.0005135911
0.012025352
0.012129663
0.01235015
0.012631311
0.012971988
0.013372464
0.013830851
0.014346352
0.014920314
0.015555983
0.016258387
0.017034687
0.017894774
0.018852657
0.0199273
0.021148202
0.0225519
0.024215533
0.026197421
0.028796657
0.031917326
0.037409224
0.042492055
0.080400691
0.051099173
0.0023873091
0.00099703169
0.0018579126
0.0024031852
0.0028506812
0.0031256714
0.0033187252
0.003465817
0.0035725429
0.0036481939
0.0037026685
0.0037423222
0.0037707484
0.0037903928
0.0038032701
0.0038107804
0.0038139048
0.0038134324
0.003810035
0.0038041485
0.0037960717
0.0037861148
0.0037745011
0.0037614188
0.0037469916
0.0037313147
0.003714474
0.0036965305
0.0036775415
0.0036575497
0.0036365587
0.0036145689
0.0035915846
0.0035675983
0.0035425927
0.0035165478
0.0034894373
0.0034612045
0.0034317819
0.0034011015
0.0033690901
0.0033356741
0.0033007696
0.003264291
0.003226154
0.0031862555
0.0031444742
0.003100689
0.0030547866
0.0030066452
0.0029561824
0.0029033259
0.0028480852
0.0027904778
0.0027304667
0.0026682169
0.0026039048
0.0025377985
0.0024706188
0.0024034862
0.002338094
0.0022767384
0.0022234474
0.0021830622
0.0021515785
0.0021523484
0.0021888676
0.0022518302
0.0023614891
0.0025223233
0.002736875
0.0030018956
0.003307878
0.0036520446
0.0039959957
0.004285699
0.0044719995
0.0045737139
0.0045666986
0.0044647538
0.0043456188
0.0042058734
0.0040556337
0.0039022819
0.0037457865
0.0035889991
0.0034305213
0.003266463
0.0031010789
0.0029360813
0.0027723989
0.0026122691
0.0024549432
0.0022986991
0.0021465817
0.0019986271
0.0018531964
0.0017105495
0.0015722722
0.001438502
0.001307763
0.0011805732
0.0010576572
0.00094119324
0.00083090193
0.0007292419
0.00063259783
0.00057014406
0.00048298448
0.00066818111
-0.00051359044
0.012025352
0.012129663
0.012350151
0.012631311
0.012971989
0.013372464
0.013830851
0.014346353
0.014920315
0.015555984
0.016258388
0.017034688
0.017894775
0.018852659
0.019927302
0.021148205
0.022551904
0.024215538
0.026197426
0.028796663
0.031917335
0.037409224
0.042492126
0.080388342
0.051127704
0.002399567
0.001000823
0.0018597347
0.0024043037
0.0028514679
0.0031262661
0.0033191978
0.003466204
0.003572867
0.0036484705
0.0037029081
0.0037425321
0.0037709341
0.0037905585
0.0038034189
0.0038109149
0.003814027
0.003813544
0.0038101373
0.0038042427
0.0037961586
0.0037861953
0.0037745759
0.0037614885
0.0037470566
0.0037313754
0.0037145309
0.0036965838
0.0036775916
0.0036575969
0.0036366032
0.0036146109
0.0035916242
0.0035676358
0.0035426282
0.0035165814
0.0034894692
0.0034612348
0.0034318106
0.0034011287
0.0033691159
0.0033356987
0.003300793
0.0032643132
0.0032261751
0.0031862755
0.0031444932
0.0031007071
0.0030548038
0.0030066615
0.0029561978
0.0029033405
0.0028480989
0.0027904907
0.0027304787
0.0026682281
0.0026039152
0.0025378081
0.0024706275
0.0024034941
0.002338101
0.0022767444
0.0022234523
0.002183066
0.0021515809
0.0021523492
0.002188867
0.0022518278
0.0023614849
0.002522317
0.0027368668
0.0030018855
0.0033078663
0.0036520315
0.003995982
0.0042856858
0.0044719878
0.0045737048
0.0045666919
0.0044647488
0.0043456154
0.0042058711
0.0040556321
0.0039022809
0.0037457859
0.0035889988
0.0034305212
0.0032664632
0.0031010793
0.0029360819
0.0027723996
0.0026122699
0.0024549441
0.0022987001
0.0021465828
0.0019986282
0.0018531975
0.0017105506
0.0015722733
0.0014385031
0.001307764
0.0011805743
0.0010576582
0.00094119427
0.00083090294
0.00072924292
0.00063259883
0.00057014516
0.00048298558
0.00066818233
-0.00051358972
0.012025352
0.012129664
0.012350151
0.012631311
0.012971989
0.013372465
0.013830852
0.014346354
0.014920316
0.015555985
0.016258389
0.01703469
0.017894777
0.018852662
0.019927305
0.021148209
0.022551908
0.024215543
0.026197432
0.028796669
0.031917343
0.037409219
0.042492211
0.080373912
0.051158486
0.002413187
0.0010050448
0.0018617644
0.0024055501
0.0028523444
0.0031269287
0.0033197243
0.0034666352
0.0035732282
0.0036487786
0.003703175
0.003742766
0.003771141
0.0037907431
0.0038035847
0.0038110648
0.0038141632
0.0038136684
0.0038102513
0.0038043476
0.0037962555
0.003786285
0.0037746592
0.003761566
0.0037471289
0.0037314431
0.0037145943
0.0036966433
0.0036776475
0.0036576496
0.0036366528
0.0036146577
0.0035916684
0.0035676776
0.0035426677
0.0035166189
0.0034895047
0.0034612684
0.0034318425
0.0034011591
0.0033691447
0.0033357261
0.003300819
0.0032643379
0.0032261985
0.0031862978
0.0031445144
0.0031007272
0.0030548229
0.0030066796
0.0029562149
0.0029033566
0.0028481141
0.002790505
0.0027304922
0.0026682407
0.0026039268
0.0025378188
0.0024706373
0.0024035029
0.0023381087
0.0022767511
0.0022234577
0.0021830703
0.0021515835
0.0021523501
0.0021888664
0.0022518251
0.0023614801
0.0025223101
0.0027368575
0.0030018741
0.0033078532
0.003652017
0.0039959668
0.0042856712
0.0044719749
0.0045736946
0.0045666844
0.0044647433
0.0043456116
0.0042058684
0.0040556303
0.0039022797
0.0037457852
0.0035889985
0.0034305212
0.0032664634
0.0031010797
0.0029360825
0.0027724004
0.0026122709
0.0024549452
0.0022987012
0.0021465839
0.0019986294
0.0018531987
0.0017105519
0.0015722745
0.0014385043
0.0013077652
0.0011805754
0.0010576594
0.00094119541
0.00083090407
0.00072924405
0.00063259996
0.00057014639
0.00048298682
0.00066818369
-0.00051358891
0.012025352
0.012129664
0.012350151
0.012631312
0.01297199
0.013372465
0.013830852
0.014346354
0.014920317
0.015555986
0.016258391
0.017034692
0.01789478
0.018852665
0.019927309
0.021148213
0.022551913
0.024215549
0.026197438
0.028796675
0.031917352
0.03740921
0.042492312
0.080356972
0.051191646
0.0024283696
0.0010097594
0.001864032
0.0024069429
0.002853324
0.0031276692
0.0033203127
0.003467117
0.0035736317
0.003649123
0.0037034732
0.0037430274
0.0037713722
0.0037909493
0.00380377
0.0038112323
0.0038143154
0.0038138073
0.0038103787
0.0038044648
0.0037963637
0.0037863853
0.0037747523
0.0037616527
0.0037472098
0.0037315187
0.0037146651
0.0036967098
0.00367771
0.0036577083
0.0036367082
0.00361471
0.0035917178
0.0035677243
0.0035427119
0.0035166607
0.0034895443
0.0034613061
0.0034318782
0.003401193
0.0033691769
0.0033357566
0.0033008481
0.0032643655
0.0032262248
0.0031863228
0.0031445381
0.0031007497
0.0030548442
0.0030066998
0.002956234
0.0029033747
0.0028481312
0.002790521
0.0027305072
0.0026682547
0.0026039398
0.0025378307
0.0024706482
0.0024035127
0.0023381174
0.0022767585
0.0022234638
0.0021830751
0.0021515864
0.0021523512
0.0021888657
0.0022518222
0.0023614748
0.0025223023
0.0027368472
0.0030018615
0.0033078386
0.0036520007
0.0039959497
0.0042856549
0.0044719604
0.0045736832
0.004566676
0.0044647371
0.0043456074
0.0042058655
0.0040556283
0.0039022784
0.0037457844
0.0035889981
0.0034305212
0.0032664637
0.0031010802
0.0029360833
0.0027724013
0.0026122719
0.0024549463
0.0022987024
0.0021465852
0.0019986308
0.0018532001
0.0017105532
0.0015722759
0.0014385057
0.0013077665
0.0011805767
0.0010576607
0.00094119669
0.00083090533
0.00072924532
0.00063260121
0.00057014776
0.00048298819
0.00066818521
-0.00051358801
0.012025352
0.012129664
0.012350151
0.012631312
0.01297199
0.013372466
0.013830853
0.014346355
0.014920318
0.015555988
0.016258393
0.017034694
0.017894782
0.018852668
0.019927313
0.021148218
0.022551919
0.024215555
0.026197445
0.028796681
0.031917362
0.037409192
0.042492434
0.080337005
0.051227256
0.0024453431
0.0010150362
0.001866571
0.002408503
0.0028544213
0.0031284987
0.0033209718
0.0034676568
0.0035740837
0.0036495087
0.0037038073
0.0037433201
0.0037716311
0.0037911803
0.0038039775
0.0038114198
0.0038144859
0.0038139629
0.0038105214
0.0038045961
0.003796485
0.0037864975
0.0037748566
0.0037617498
0.0037473004
0.0037316034
0.0037147444
0.0036967842
0.00367778
0.0036577742
0.0036367702
0.0036147685
0.0035917731
0.0035677766
0.0035427614
0.0035167076
0.0034895888
0.0034613482
0.0034319182
0.0034012309
0.003369213
0.0033357909
0.0033008806
0.0032643965
0.0032262542
0.0031863507
0.0031445646
0.0031007749
0.0030548681
0.0030067224
0.0029562555
0.002903395
0.0028481503
0.002790539
0.002730524
0.0026682703
0.0026039543
0.0025378441
0.0024706604
0.0024035237
0.0023381271
0.0022767669
0.0022234706
0.0021830805
0.0021515897
0.0021523523
0.0021888649
0.0022518188
0.0023614689
0.0025222935
0.0027368356
0.0030018473
0.0033078222
0.0036519825
0.0039959307
0.0042856366
0.0044719442
0.0045736704
0.0045666666
0.0044647301
0.0043456026
0.0042058622
0.0040556261
0.003902277
0.0037457836
0.0035889977
0.0034305211
0.0032664639
0.0031010808
0.0029360841
0.0027724023
0.0026122731
0.0024549476
0.0022987039
0.0021465867
0.0019986323
0.0018532016
0.0017105548
0.0015722774
0.0014385072
0.001307768
0.0011805782
0.0010576621
0.00094119812
0.00083090674
0.00072924673
0.00063260261
0.00057014929
0.00048298973
0.0006681869
-0.00051358699
0.012025352
0.012129664
0.012350152
0.012631312
0.012971991
0.013372467
0.013830854
0.014346357
0.014920319
0.015555989
0.016258395
0.017034696
0.017894785
0.018852672
0.019927317
0.021148223
0.022551924
0.024215562
0.026197452
0.028796686
0.031917371
0.037409165
0.042492579
0.080313388
0.051265325
0.0024643689
0.0010209531
0.0018694193
0.0024102539
0.0028556527
0.0031294296
0.0033217113
0.0034682624
0.0035745909
0.0036499415
0.0037041821
0.0037436485
0.0037719217
0.0037914394
0.0038042103
0.0038116302
0.0038146771
0.0038141375
0.0038106814
0.0038047434
0.003796621
0.0037866235
0.0037749736
0.0037618587
0.003747402
0.0037316984
0.0037148334
0.0036968677
0.0036778584
0.003657848
0.0036368398
0.0036148342
0.0035918351
0.0035678353
0.0035428169
0.0035167602
0.0034896386
0.0034613955
0.003431963
0.0034012735
0.0033692534
0.0033358293
0.0033009171
0.0032644312
0.0032262872
0.003186382
0.0031445944
0.0031008031
0.0030548949
0.0030067478
0.0029562795
0.0029034177
0.0028481717
0.0027905591
0.0027305429
0.0026682879
0.0026039706
0.0025378591
0.0024706741
0.002403536
0.002338138
0.0022767763
0.0022234782
0.0021830865
0.0021515934
0.0021523535
0.002188864
0.0022518151
0.0023614623
0.0025222837
0.0027368227
0.0030018315
0.0033078038
0.0036519621
0.0039959093
0.0042856161
0.004471926
0.0045736561
0.0045666561
0.0044647223
0.0043455973
0.0042058585
0.0040556236
0.0039022754
0.0037457826
0.0035889972
0.0034305211
0.0032664643
0.0031010814
0.002936085
0.0027724035
0.0026122744
0.0024549491
0.0022987054
0.0021465884
0.0019986339
0.0018532033
0.0017105565
0.0015722791
0.0014385089
0.0013077697
0.0011805799
0.0010576637
0.00094119973
0.00083090832
0.00072924832
0.00063260419
0.00057015102
0.00048299146
0.00066818881
-0.00051358586
0.012025352
0.012129664
0.012350152
0.012631313
0.012971991
0.013372467
0.013830855
0.014346358
0.014920321
0.015555991
0.016258397
0.017034699
0.017894789
0.018852676
0.019927322
0.021148228
0.022551931
0.024215569
0.026197459
0.02879669
0.031917379
0.037409122
0.042492752
0.080285376
0.051305762
0.0024857498
0.0010275972
0.0018726191
0.0024122217
0.0028570367
0.0031304758
0.0033225424
0.0034689429
0.0035751608
0.0036504278
0.0037046033
0.0037440175
0.0037722482
0.0037917306
0.0038044719
0.0038118667
0.003814892
0.0038143337
0.0038108613
0.0038049089
0.0037967738
0.003786765
0.003775105
0.003761981
0.0037475162
0.0037318051
0.0037149334
0.0036969616
0.0036779466
0.003657931
0.003636918
0.003614908
0.0035919049
0.0035679012
0.0035428793
0.0035168192
0.0034896946
0.0034614486
0.0034320134
0.0034013214
0.0033692989
0.0033358725
0.0033009582
0.0032644702
0.0032263242
0.0031864172
0.0031446278
0.0031008349
0.003054925
0.0030067764
0.0029563065
0.0029034432
0.0028481958
0.0027905818
0.0027305641
0.0026683077
0.002603989
0.002537876
0.0024706894
0.0024035498
0.0023381502
0.0022767868
0.0022234868
0.0021830932
0.0021515975
0.0021523549
0.0021888629
0.0022518109
0.0023614548
0.0025222727
0.0027368081
0.0030018136
0.0033077831
0.0036519391
0.0039958852
0.0042855931
0.0044719056
0.00457364