/*--------------------------------*- C++ -*----------------------------------*\
| =========                 |                                                 |
| \\      /  F ield         | OpenFOAM: The Open Source CFD Toolbox           |
|  \\    /   O peration     | Version:  2206                                  |
|   \\  /    A nd           | Website:  www.openfoam.com                      |
|    \\/     M anipulation  |                                                 |
\*---------------------------------------------------------------------------*/
FoamFile
{
    version     2.0;
    format      ascii;
    arch        "LSB;label=32;scalar=64";
    class       surfaceScalarField;
    location    "1800";
    object      phi;
}
// * * * * * * * * * * * * * * * * * * * * * * * * * * * * * * * * * * * * * //

dimensions      [0 3 -1 0 0 0 0];

oriented        oriented;

internalField   nonuniform List<scalar> 
25880
(
2.00458e-06
7.4169982e-11
2.0043809e-06
1.9909405e-10
2.0041062e-06
2.7467206e-10
2.0037884e-06
3.1781853e-10
2.0034243e-06
3.6407585e-10
2.0030089e-06
4.1537608e-10
2.0025377e-06
4.7121672e-10
2.0020044e-06
5.3327996e-10
2.0014006e-06
6.0383938e-10
2.0007154e-06
6.8522115e-10
1.9999353e-06
7.8012271e-10
1.9990428e-06
8.9245048e-10
1.9980157e-06
1.0271543e-09
1.996822e-06
1.1936381e-09
1.9954221e-06
1.399962e-09
1.9937439e-06
1.6781855e-09
1.9917204e-06
2.0234735e-09
1.9891185e-06
2.6019156e-09
1.9859136e-06
3.2049314e-09
1.9810173e-06
4.8962252e-09
1.9750092e-06
6.0081551e-09
1.9606643e-06
1.4344863e-08
1.9502061e-06
1.0458236e-08
9.7875274e-07
9.7145333e-07
4.3204071e-09
9.7443233e-07
2.0933594e-09
2.2270477e-09
1.5860302e-09
5.0732919e-10
1.3407956e-09
2.4523455e-10
1.1892284e-09
1.5156725e-10
1.0816709e-09
1.0755747e-10
9.9959448e-10
8.2076442e-11
9.3372222e-10
6.5872262e-11
8.7923739e-10
5.4484828e-11
8.3314058e-10
4.6096812e-11
7.9338897e-10
3.9751609e-11
7.5858741e-10
3.4801559e-11
7.2775589e-10
3.0831522e-11
7.0017074e-10
2.758515e-11
6.7527897e-10
2.489177e-11
6.5265211e-10
2.2626863e-11
6.319534e-10
2.0698709e-11
6.129069e-10
1.9046498e-11
5.9529641e-10
1.7610495e-11
5.7894366e-10
1.6352745e-11
5.6369282e-10
1.5250846e-11
5.4941917e-10
1.4273653e-11
5.3601547e-10
1.3403698e-11
5.2339043e-10
1.2625041e-11
5.1146578e-10
1.1924649e-11
5.0017376e-10
1.129202e-11
4.8945523e-10
1.0718527e-11
4.792585e-10
1.0196729e-11
4.6953815e-10
9.720351e-12
4.6025422e-10
9.2839275e-12
4.513715e-10
8.8827212e-12
4.4285855e-10
8.5129525e-12
4.3468714e-10
8.1714124e-12
4.2683202e-10
7.8551167e-12
4.1927057e-10
7.5614516e-12
4.1198238e-10
7.2881842e-12
4.0494917e-10
7.03321e-12
3.9815461e-10
6.7945631e-12
3.9158391e-10
6.5706988e-12
3.8522349e-10
6.360424e-12
3.7906097e-10
6.1625197e-12
3.7308528e-10
5.9756842e-12
3.6728655e-10
5.798735e-12
3.6165588e-10
5.6306713e-12
3.5618538e-10
5.4704935e-12
3.5086833e-10
5.3170529e-12
3.4569907e-10
5.1692644e-12
3.4067284e-10
5.0262297e-12
3.3578582e-10
4.8870139e-12
3.3103516e-10
4.7506661e-12
3.2641892e-10
4.6162406e-12
3.2193628e-10
4.4826341e-12
3.1758795e-10
4.3483317e-12
3.1337716e-10
4.2107895e-12
3.0930951e-10
4.0676484e-12
3.053922e-10
3.9173142e-12
3.0163444e-10
3.7577554e-12
2.9804763e-10
3.5868097e-12
2.9464575e-10
3.401883e-12
2.9144732e-10
3.1984308e-12
2.8847765e-10
2.9696686e-12
2.8576821e-10
2.7094397e-12
2.8335987e-10
2.4083435e-12
2.813312e-10
2.0286711e-12
2.7966916e-10
1.6620325e-12
2.7861774e-10
1.0514193e-12
2.7823788e-10
3.7986243e-13
2.7850449e-10
-2.666088e-13
2.7968196e-10
-1.1774771e-12
2.8186447e-10
-2.1825034e-12
2.8521359e-10
-3.349126e-12
2.8983956e-10
-4.6259713e-12
2.9574865e-10
-5.9090886e-12
3.0289131e-10
-7.1426601e-12
3.1118741e-10
-8.2960983e-12
3.2028809e-10
-9.1006837e-12
3.2942589e-10
-9.1378013e-12
3.3792611e-10
-8.5002137e-12
3.4494579e-10
-7.0196773e-12
3.5037574e-10
-5.4299496e-12
3.5460599e-10
-4.230247e-12
3.5764987e-10
-3.0438869e-12
3.5987318e-10
-2.2233067e-12
3.6146582e-10
-1.5926415e-12
3.6256142e-10
-1.0955981e-12
3.6325157e-10
-6.901496e-13
3.6359939e-10
-3.4782031e-13
3.6363484e-10
-3.5446188e-14
3.6335838e-10
2.7645674e-13
3.6279254e-10
5.6584375e-13
3.6197957e-10
8.1296609e-13
3.6095369e-10
1.0258879e-12
3.5976039e-10
1.1932947e-12
3.584417e-10
1.3186904e-12
3.5702742e-10
1.4142785e-12
3.5554887e-10
1.4785562e-12
3.5403578e-10
1.5130809e-12
3.5250491e-10
1.530877e-12
3.5096613e-10
1.5387752e-12
3.4943222e-10
1.5339107e-12
3.4791483e-10
1.5173941e-12
3.4641784e-10
1.4969834e-12
3.4493967e-10
1.4781753e-12
3.4347935e-10
1.4603231e-12
3.420374e-10
1.4419484e-12
3.4061677e-10
1.4206251e-12
3.3918804e-10
1.428736e-12
3.3777205e-10
1.4159878e-12
3.3622128e-10
1.5507652e-12
3.3466286e-10
1.5584208e-12
3.329553e-10
1.7075642e-12
1.0231387e-12
2.0344527e-06
1.49494e-10
2.0342505e-06
4.0132099e-10
2.0339715e-06
5.5370525e-10
2.0336486e-06
6.4069904e-10
2.0332787e-06
7.3395127e-10
2.0328567e-06
8.3736521e-10
2.032378e-06
9.4992943e-10
2.0318363e-06
1.0750342e-09
2.0312228e-06
1.217262e-09
2.0305268e-06
1.3813013e-09
2.0297343e-06
1.5725887e-09
2.0288278e-06
1.7989971e-09
2.0277844e-06
2.0705024e-09
2.026572e-06
2.4060573e-09
2.02515e-06
2.8219043e-09
2.0234456e-06
3.3826575e-09
2.0213905e-06
4.0785641e-09
2.018748e-06
5.2443616e-09
2.0154933e-06
6.4596631e-09
2.0105214e-06
9.8681673e-09
2.0044204e-06
1.2109076e-08
1.9898545e-06
2.8910763e-08
1.9792291e-06
2.108367e-08
9.9959974e-07
1.9510827e-06
1.3182449e-08
1.9608496e-06
6.405099e-09
9.0043982e-09
4.8530595e-09
2.0593687e-09
4.1026834e-09
9.9561072e-10
3.6388942e-09
6.1535643e-10
3.3097666e-09
4.3668503e-10
3.0586148e-09
3.3322831e-10
2.8570502e-09
2.6743681e-10
2.6903307e-09
2.2120433e-10
2.5492783e-09
1.8714921e-10
2.4276424e-09
1.6138754e-10
2.3211536e-09
1.4129033e-10
2.226813e-09
1.2517215e-10
2.1424061e-09
1.119921e-10
2.0662407e-09
1.0105718e-10
1.9970057e-09
9.186186e-11
1.9336706e-09
8.4033791e-11
1.8753911e-09
7.7325923e-11
1.8215057e-09
7.1495902e-11
1.7714688e-09
6.6389665e-11
1.7248036e-09
6.1916068e-11
1.6811285e-09
5.7948796e-11
1.6401153e-09
5.4416894e-11
1.6014846e-09
5.1255658e-11
1.5649971e-09
4.8412168e-11
1.5304454e-09
4.5843787e-11
1.4976484e-09
4.3515491e-11
1.4664481e-09
4.139707e-11
1.4367054e-09
3.9463047e-11
1.4082981e-09
3.7691235e-11
1.3811184e-09
3.6062402e-11
1.3550701e-09
3.4561201e-11
1.3300669e-09
3.3174603e-11
1.3060316e-09
3.1890494e-11
1.2828947e-09
3.0698262e-11
1.2605941e-09
2.9588841e-11
1.2390736e-09
2.8553689e-11
1.2182833e-09
2.7584824e-11
1.1981781e-09
2.6675975e-11
1.1787162e-09
2.5822297e-11
1.1598599e-09
2.5018841e-11
1.1415752e-09
2.4260323e-11
1.123832e-09
2.3541941e-11
1.1066031e-09
2.2859633e-11
1.0898642e-09
2.2209341e-11
1.0735949e-09
2.15864e-11
1.0577777e-09
2.0986407e-11
1.0423982e-09
2.0405714e-11
1.0274447e-09
1.9840524e-11
1.0129084e-09
1.9286977e-11
9.9878343e-10
1.8741232e-11
9.8506726e-10
1.819881e-11
9.7176203e-10
1.765356e-11
9.5887766e-10
1.7095156e-11
9.4643129e-10
1.6514023e-11
9.3444492e-10
1.590368e-11
9.2294679e-10
1.5255886e-11
9.1197174e-10
1.4561857e-11
9.0156258e-10
1.3811051e-11
8.9177599e-10
1.2985017e-11
8.8268945e-10
1.205621e-11
8.7439926e-10
1.0999627e-11
8.6703052e-10
9.7770808e-12
8.6082364e-10
8.2355544e-12
8.5573875e-10
6.7469255e-12
8.5252253e-10
4.2676369e-12
8.5136124e-10
1.5411514e-12
8.5217812e-10
-1.0834918e-12
8.5578233e-10
-4.7816851e-12
8.6246184e-10
-8.862017e-12
8.7271095e-10
-1.3598238e-11
8.8686677e-10
-1.8781788e-11
9.0494838e-10
-2.3990698e-11
9.2680419e-10
-2.8998471e-11
9.5218833e-10
-3.3680239e-11
9.8003313e-10
-3.6945488e-11
1.0079907e-09
-3.7095389e-11
1.0339975e-09
-3.4506995e-11
1.0554745e-09
-2.8496689e-11
1.0720879e-09
-2.2043331e-11
1.0850312e-09
-1.7173558e-11
1.0943449e-09
-1.2357578e-11
1.1011479e-09
-9.0263093e-12
1.1060213e-09
-6.4660298e-12
1.1093738e-09
-4.4481298e-12
1.1114858e-09
-2.8020967e-12
1.1125502e-09
-1.4122717e-12
1.1126588e-09
-1.4403801e-13
1.111813e-09
1.1222475e-12
1.1100817e-09
2.2971537e-12
1.1075942e-09
3.3004495e-12
1.1044553e-09
4.1648658e-12
1.100804e-09
4.8445203e-12
1.0967691e-09
5.3536211e-12
1.0924417e-09
5.7416709e-12
1.0879176e-09
6.0026282e-12
1.0832879e-09
6.1428095e-12
1.0786037e-09
6.2150578e-12
1.0738954e-09
6.2471094e-12
1.0692019e-09
6.2273606e-12
1.064559e-09
6.1603193e-12
1.0599785e-09
6.0774527e-12
1.0554556e-09
6.0010841e-12
1.0509874e-09
5.9285868e-12
1.0465753e-09
5.8539834e-12
1.0422286e-09
5.7673988e-12
1.037857e-09
5.8003044e-12
1.0335246e-09
5.7483928e-12
1.0287797e-09
6.2956985e-12
1.024013e-09
6.3251324e-12
1.0187804e-09
6.9400814e-12
4.1413963e-12
2.0946435e-06
2.2710221e-10
2.0944351e-06
6.0972103e-10
2.0941475e-06
8.4130109e-10
2.0938147e-06
9.7350596e-10
2.0934334e-06
1.1151989e-09
2.0929985e-06
1.2723246e-09
2.092505e-06
1.4433488e-09
2.0919467e-06
1.6334215e-09
2.0913144e-06
1.8495039e-09
2.090597e-06
2.0987183e-09
2.0897803e-06
2.3893232e-09
2.088846e-06
2.733278e-09
2.0877708e-06
3.1457352e-09
2.0865213e-06
3.6554847e-09
2.085056e-06
4.2871961e-09
2.0832997e-06
5.139021e-09
2.0811821e-06
6.1961306e-09
2.0784595e-06
7.9669974e-09
2.0751061e-06
9.8130193e-09
2.0699839e-06
1.4990367e-08
2.0636988e-06
1.8394156e-08
2.0486936e-06
4.3915961e-08
2.037742e-06
3.2035291e-08
1.0357244e-06
2.9531003e-06
2.2794041e-08
2.97378e-06
1.109981e-08
2.0698629e-08
8.4105089e-09
4.7486694e-09
7.1101214e-09
2.2959982e-09
6.3063379e-09
1.41914e-09
5.7359285e-09
1.0070944e-09
5.3006613e-09
7.6849555e-10
4.9513373e-09
6.1676077e-10
4.6624027e-09
5.1013893e-10
4.4179512e-09
4.3160069e-10
4.2071505e-09
3.7218831e-10
4.0226011e-09
3.2583966e-10
3.8591054e-09
2.8866785e-10
3.7128254e-09
2.5827212e-10
3.5808285e-09
2.3305413e-10
3.4608423e-09
2.1184804e-10
3.3510809e-09
1.9379522e-10
3.2500812e-09
1.7832554e-10
3.1566967e-09
1.6488049e-10
3.0699815e-09
1.5310483e-10
2.9891097e-09
1.4278791e-10
2.9134197e-09
1.3363873e-10
2.842343e-09
1.2549359e-10
2.7753954e-09
1.1820328e-10
2.7121618e-09
1.1164575e-10
2.652283e-09
1.0572266e-10
2.5954452e-09
1.0035325e-10
2.5413744e-09
9.5467842e-11
2.4898298e-09
9.1007688e-11
2.4405994e-09
8.6921618e-11
2.3934965e-09
8.3165284e-11
2.3483544e-09
7.9703289e-11
2.3050234e-09
7.6505586e-11
2.2633697e-09
7.354424e-11
2.2232732e-09
7.0794776e-11
2.1846257e-09
6.8236288e-11
2.1473304e-09
6.5849075e-11
2.1113004e-09
6.3614734e-11
2.0764576e-09
6.1518799e-11
2.0427298e-09
5.9550098e-11
2.0100514e-09
5.7697215e-11
1.9783638e-09
5.5947965e-11
1.9476145e-09
5.4291276e-11
1.9177563e-09
5.2717778e-11
1.8887476e-09
5.1218112e-11
1.8605524e-09
4.9781526e-11
1.833141e-09
4.8397861e-11
1.806488e-09
4.7058704e-11
1.7805732e-09
4.5755298e-11
1.7553814e-09
4.4478742e-11
1.7309025e-09
4.3220176e-11
1.707132e-09
4.196927e-11
1.6840738e-09
4.0711835e-11
1.6617449e-09
3.9424067e-11
1.640175e-09
3.8083881e-11
1.6194024e-09
3.6676324e-11
1.5994758e-09
3.5182394e-11
1.5804559e-09
3.3581832e-11
1.5624166e-09
3.1850302e-11
1.5454564e-09
2.9945256e-11
1.5297094e-09
2.7803165e-11
1.5153427e-09
2.5366355e-11
1.502573e-09
2.2546729e-11
1.491817e-09
1.8991557e-11
1.4830058e-09
1.555813e-11
1.4774332e-09
9.8403004e-12
1.4754219e-09
3.5524601e-12
1.4768391e-09
-2.5007674e-12
1.483087e-09
-1.1029511e-11
1.4946645e-09
-2.0439564e-11
1.5124281e-09
-3.1361845e-11
1.5369618e-09
-4.331547e-11
1.5682985e-09
-5.5327429e-11
1.6061755e-09
-6.6875434e-11
1.6501658e-09
-7.7670556e-11
1.6984189e-09
-8.5198579e-11
1.7468665e-09
-8.5543031e-11
1.7919333e-09
-7.9573719e-11
1.8291508e-09
-6.5714263e-11
1.8579407e-09
-5.0833157e-11
1.8803708e-09
-3.96037e-11
1.8965116e-09
-2.8498392e-11
1.9083015e-09
-2.0816214e-11
1.9167475e-09
-1.4912017e-11
1.9225579e-09
-1.0258465e-11
1.9262182e-09
-6.4624868e-12
1.9280633e-09
-3.2572941e-12
1.9282517e-09
-3.3247412e-13
1.9267861e-09
2.5878049e-12
1.9237859e-09
5.2973909e-12
1.9194752e-09
7.6111826e-12
1.9140354e-09
9.6046476e-12
1.9077079e-09
1.1172055e-11
1.9007153e-09
1.2346142e-11
1.893216e-09
1.3241014e-11
1.8853758e-09
1.3842822e-11
1.8773525e-09
1.416613e-11
1.8692348e-09
1.4332747e-11
1.8610753e-09
1.4406641e-11
1.8529415e-09
1.4361099e-11
1.8448953e-09
1.4206515e-11
1.8369574e-09
1.4015409e-11
1.8291192e-09
1.3839271e-11
1.8213757e-09
1.3672049e-11
1.8137297e-09
1.3499988e-11
1.8061968e-09
1.3300292e-11
1.798621e-09
1.3376094e-11
1.7911132e-09
1.3256216e-11
1.7828906e-09
1.4518269e-11
1.7746314e-09
1.4584354e-11
1.7655582e-09
1.6013298e-11
9.5370192e-12
2.1860492e-06
3.0816193e-10
2.1858314e-06
8.2743692e-10
2.1855309e-06
1.1418058e-09
2.1851832e-06
1.3212726e-09
2.1847848e-06
1.5135848e-09
2.1843303e-06
1.7268318e-09
2.1838147e-06
1.9589352e-09
2.1832312e-06
2.2168824e-09
2.1825706e-06
2.510119e-09
2.181821e-06
2.8483095e-09
2.1809677e-06
3.2426594e-09
2.1799916e-06
3.7093953e-09
2.1788682e-06
4.2690756e-09
2.177563e-06
4.9607627e-09
2.1760322e-06
5.8179241e-09
2.1741975e-06
6.9737356e-09
2.1719856e-06
8.408056e-09
2.1691418e-06
1.0810787e-08
2.1656394e-06
1.3315426e-08
2.16029e-06
2.0339766e-08
2.1537264e-06
2.4957765e-08
2.1380567e-06
5.9585631e-08
2.1266135e-06
4.347854e-08
1.0879655e-06
3.9917482e-06
3.3724233e-08
4.0280213e-06
1.6458329e-08
3.7964533e-08
1.2471218e-08
8.7357806e-09
1.0543061e-08
4.2241552e-09
9.351163e-09
2.6110379e-09
8.505322e-09
1.8529354e-09
7.8598812e-09
1.4139363e-09
7.3418889e-09
1.1347531e-09
6.9134457e-09
9.385821e-10
6.5509645e-09
7.9408185e-10
6.2383832e-09
6.847697e-10
5.9647292e-09
5.994936e-10
5.7222947e-09
5.3110239e-10
5.5053883e-09
4.7517852e-10
5.3096613e-09
4.2878106e-10
5.1317444e-09
3.89765e-10
4.9689888e-09
3.5655079e-10
4.8192257e-09
3.2808862e-10
4.6807544e-09
3.0335179e-10
4.5521724e-09
2.8168684e-10
4.4322551e-09
2.6270523e-10
4.3200216e-09
2.4587225e-10
4.2146286e-09
2.3088654e-10
4.1153583e-09
2.1747358e-10
4.0215953e-09
2.0540882e-10
3.9328066e-09
1.9451134e-10
3.8485273e-09
1.8463254e-10
3.7683509e-09
1.7564422e-10
3.6919203e-09
1.674383e-10
3.6189213e-09
1.5992063e-10
3.5490769e-09
1.5300963e-10
3.4821401e-09
1.4664017e-10
3.4178887e-09
1.4075695e-10
3.3561243e-09
1.3530859e-10
3.2966691e-09
1.3025006e-10
3.2393625e-09
1.2554289e-10
3.1840607e-09
1.2115084e-10
3.1306354e-09
1.1704005e-10
3.0789703e-09
1.1318391e-10
3.0289585e-09
1.0956186e-10
2.9805028e-09
1.0615289e-10
2.9335162e-09
1.0293458e-10
2.8879209e-09
9.9886577e-11
2.8436471e-09
9.6991628e-11
2.8006327e-09
9.4232516e-11
2.7588247e-09
9.1589462e-11
2.7181788e-09
8.9043776e-11
2.6786575e-09
8.6579976e-11
2.6402309e-09
8.4181951e-11
2.6028763e-09
8.1833323e-11
2.5665787e-09
7.9517788e-11
2.5313316e-09
7.721634e-11
2.4971406e-09
7.4902872e-11
2.4640311e-09
7.2533595e-11
2.4320471e-09
7.0067881e-11
2.4012452e-09
6.7478199e-11
2.371698e-09
6.4729601e-11
2.343495e-09
6.1784801e-11
2.3167463e-09
5.8598993e-11
2.2915977e-09
5.5093893e-11
2.2682482e-09
5.1152609e-11
2.2469456e-09
4.6669009e-11
2.2280114e-09
4.1480962e-11
2.2120631e-09
3.4939789e-11
2.1989993e-09
2.8621946e-11
2.1907375e-09
1.8102106e-11
2.1877567e-09
6.5332765e-12
2.1898605e-09
-4.6045925e-12
2.199127e-09
-2.0296e-11
2.2162967e-09
-3.7609243e-11
2.2426389e-09
-5.7704053e-11
2.2790193e-09
-7.9695925e-11
2.3254868e-09
-1.0179492e-10
2.3816514e-09
-1.2303999e-10
2.4468791e-09
-1.4289822e-10
2.5184254e-09
-1.5674494e-10
2.5902592e-09
-1.573768e-10
2.6570794e-09
-1.463939e-10
2.7122626e-09
-1.2089752e-10
2.7549507e-09
-9.3521219e-11
2.7882091e-09
-7.2862076e-11
2.812143e-09
-5.2432347e-11
2.8296256e-09
-3.8298783e-11
2.8421499e-09
-2.7436375e-11
2.8507662e-09
-1.8874681e-11
2.8561944e-09
-1.1890747e-11
2.8589308e-09
-5.9936513e-12
2.8592106e-09
-6.1233811e-13
2.8570379e-09
4.7605543e-12
2.8525894e-09
9.7458615e-12
2.8461977e-09
1.4002923e-11
2.8381318e-09
1.7670557e-11
2.8287495e-09
2.0554362e-11
2.8183811e-09
2.2714522e-11
2.8072612e-09
2.4360894e-11
2.7956359e-09
2.5468124e-11
2.783739e-09
2.6063009e-11
2.7717022e-09
2.636956e-11
2.7596034e-09
2.6505481e-11
2.7475428e-09
2.6421699e-11
2.735612e-09
2.6137328e-11
2.7238416e-09
2.5785726e-11
2.7122193e-09
2.5461624e-11
2.7007374e-09
2.5153911e-11
2.6894001e-09
2.4837318e-11
2.6782305e-09
2.4469892e-11
2.6669974e-09
2.4609159e-11
2.6558652e-09
2.4388461e-11
2.6436737e-09
2.6709796e-11
2.6314284e-09
2.6829624e-11
2.6179715e-09
2.9470141e-11
1.7532737e-11
2.3100319e-06
3.9389582e-10
2.3098016e-06
1.0577637e-09
2.3094836e-06
1.4597799e-09
2.3091156e-06
1.6892819e-09
2.3086941e-06
1.9351614e-09
2.3082131e-06
2.2077907e-09
2.3076675e-06
2.5045182e-09
2.3070501e-06
2.8342741e-09
2.3063511e-06
3.2091319e-09
2.305558e-06
3.6414448e-09
2.3046551e-06
4.1455344e-09
2.3036224e-06
4.7421399e-09
2.3024339e-06
5.4575355e-09
2.301053e-06
6.3416467e-09
2.2994337e-06
7.4372411e-09
2.2974929e-06
8.9145322e-09
2.2951532e-06
1.0747748e-08
2.2921454e-06
1.3818643e-08
2.2884411e-06
1.7019693e-08
2.2827839e-06
2.5996914e-08
2.275843e-06
3.1898677e-08
2.2592732e-06
7.6155421e-08
2.2471648e-06
5.5587002e-08
1.1574387e-06
5.0814743e-06
4.6616044e-08
5.138844e-06
2.2801182e-08
6.1779396e-08
1.727815e-08
1.4258812e-08
1.4606919e-08
6.8953869e-09
1.2955559e-08
4.2623979e-09
1.1783652e-08
3.0248424e-09
1.0889401e-08
2.3081872e-09
1.0171738e-08
1.8524163e-09
9.5781443e-09
1.5321756e-09
9.07594e-09
1.2962861e-09
8.6428719e-09
1.1178378e-09
8.2637375e-09
9.7862792e-10
7.9278571e-09
8.6698286e-10
7.6273451e-09
7.7569052e-10
7.3561765e-09
6.9994961e-10
7.109683e-09
6.3625853e-10
6.8841947e-09
5.8203907e-10
6.6767073e-09
5.3557607e-10
6.4848641e-09
4.9519496e-10
6.3067216e-09
4.5982927e-10
6.1405838e-09
4.2884306e-10
5.9850915e-09
4.0136459e-10
5.8390764e-09
3.7690166e-10
5.7015438e-09
3.5500612e-10
5.5716412e-09
3.3531143e-10
5.4486303e-09
3.1752225e-10
5.3318669e-09
3.0139596e-10
5.2207878e-09
2.8672332e-10
5.1148982e-09
2.7332787e-10
5.0137629e-09
2.6105595e-10
4.9169982e-09
2.4977436e-10
4.8242615e-09
2.3937678e-10
4.7352455e-09
2.2977297e-10
4.6496751e-09
2.2087902e-10
4.5673037e-09
2.1262143e-10
4.4879092e-09
2.0493741e-10
4.4112922e-09
1.9776779e-10
4.337275e-09
1.9105733e-10
4.2656963e-09
1.8476255e-10
4.1964083e-09
1.788499e-10
4.1292761e-09
1.7328509e-10
4.0641792e-09
1.6803152e-10
4.0010098e-09
1.6305595e-10
3.9396712e-09
1.5833023e-10
3.8800774e-09
1.5382625e-10
3.8221552e-09
1.4951173e-10
3.7658428e-09
1.4535616e-10
3.7110885e-09
1.4133426e-10
3.6578507e-09
1.3741973e-10
3.6060982e-09
1.3358583e-10
3.5558101e-09
1.2980595e-10
3.5069774e-09
1.2604905e-10
3.4596077e-09
1.2227251e-10
3.4137364e-09
1.1840488e-10
3.3694245e-09
1.1437981e-10
3.3267503e-09
1.1015237e-10
3.2858145e-09
1.0566549e-10
3.2467409e-09
1.0085831e-10
3.2096823e-09
9.5657625e-11
3.1748406e-09
8.9935635e-11
3.1424917e-09
8.3501518e-11
3.1129787e-09
7.618197e-11
3.0867474e-09
6.7712279e-11
3.0646532e-09
5.7033991e-11
3.0465561e-09
4.6719027e-11
3.0351116e-09
2.9546569e-11
3.0309839e-09
1.0660997e-11
3.0339017e-09
-7.5223349e-12
3.0467426e-09
-3.3136909e-11
3.0705332e-09
-6.139987e-11
3.1070315e-09
-9.4202333e-11
3.1574365e-09
-1.3010092e-10
3.2218157e-09
-1.6617411e-10
3.2996283e-09
-2.0085268e-10
3.3899949e-09
-2.332648e-10
3.4891127e-09
-2.5586276e-10
3.5886275e-09
-2.5689154e-10
3.6811958e-09
-2.3896222e-10
3.7576447e-09
-1.9734639e-10
3.8167844e-09
-1.5266093e-10
3.8628604e-09
-1.189381e-10
3.8960201e-09
-8.5591999e-11
3.9202419e-09
-6.2520622e-11
3.9375947e-09
-4.4789122e-11
3.9495329e-09
-3.0812947e-11
3.9570544e-09
-1.9412269e-11
3.9608464e-09
-9.7856076e-12
3.9612349e-09
-1.0008291e-12
3.9582253e-09
7.7701078e-12
3.9520628e-09
1.590842e-11
3.9432079e-09
2.2857852e-11
3.9320334e-09
2.8844973e-11
3.9190352e-09
3.3552615e-11
3.9046707e-09
3.7078964e-11
3.8892652e-09
3.9766477e-11
3.8731593e-09
4.1573951e-11
3.8566772e-09
4.2545141e-11
3.8400012e-09
4.3045573e-11
3.8232393e-09
4.3267406e-11
3.8065303e-09
4.3130654e-11
3.7900011e-09
4.2666507e-11
3.7736943e-09
4.2092552e-11
3.7575925e-09
4.1563422e-11
3.7416854e-09
4.1061024e-11
3.7259785e-09
4.054416e-11
3.7105041e-09
3.9944345e-11
3.6949419e-09
4.0171318e-11
3.6795195e-09
3.9810936e-11
3.6626304e-09
4.3598904e-11
3.6456671e-09
4.3792834e-11
3.6270215e-09
4.811576e-11
2.8606944e-11
2.4684395e-06
4.8560117e-10
2.468193e-06
1.3042017e-09
2.4678527e-06
1.8000724e-09
2.4674589e-06
2.0831528e-09
2.4670077e-06
2.3863659e-09
2.4664929e-06
2.7225437e-09
2.465909e-06
3.0884242e-09
2.4652483e-06
3.4950154e-09
2.4645002e-06
3.9572013e-09
2.4636514e-06
4.4902109e-09
2.4626853e-06
5.1116988e-09
2.4615802e-06
5.84723e-09
2.4603085e-06
6.7291904e-09
2.458831e-06
7.8191225e-09
2.4570985e-06
9.1697364e-09
2.4550222e-06
1.0990855e-08
2.4525193e-06
1.325067e-08
2.4493018e-06
1.7036103e-08
2.4453397e-06
2.0981851e-08
2.4392894e-06
3.2047228e-08
2.4318664e-06
3.9321622e-08
2.4141467e-06
9.3875114e-08
2.4011886e-06
6.8545179e-08
1.2455725e-06
6.2370903e-06
6.2224092e-08
6.3221924e-06
3.0507746e-08
9.3495742e-08
2.3118924e-08
2.1647635e-08
1.9544873e-08
1.0469438e-08
1.7335202e-08
6.472068e-09
1.5767079e-08
4.5929661e-09
1.4570489e-08
3.504777e-09
1.3610203e-08
2.8127023e-09
1.2815934e-08
2.3264443e-09
1.2143952e-08
1.9682684e-09
1.1564481e-08
1.6973088e-09
1.1057179e-08
1.4859301e-09
1.0607754e-08
1.3164078e-09
1.0205654e-08
1.1777899e-09
9.8428185e-09
1.0627855e-09
9.5129993e-09
9.6607764e-10
9.2112862e-09
8.8375221e-10
8.9336597e-09
8.1320256e-10
8.6769662e-09
7.5188851e-10
8.4386044e-09
6.9819109e-10
8.2163055e-09
6.5114189e-10
8.0082509e-09
6.0941925e-10
7.8128772e-09
5.7227537e-10
7.6288535e-09
5.3902978e-10
7.455039e-09
5.0912592e-10
7.2904459e-09
4.8211535e-10
7.1342122e-09
4.5762967e-10
6.9855843e-09
4.3535119e-10
6.8439002e-09
4.1501196e-10
6.7085775e-09
3.9637865e-10
6.5791028e-09
3.7924907e-10
6.4550179e-09
3.6346173e-10
6.3359112e-09
3.4887962e-10
6.2214149e-09
3.3537535e-10
6.111199e-09
3.2283731e-10
6.0049663e-09
3.1117017e-10
5.90245e-09
3.0028408e-10
5.8034121e-09
2.9009516e-10
5.7076373e-09
2.8053742e-10
5.6149273e-09
2.7155989e-10
5.5251019e-09
2.631105e-10
5.4379997e-09
2.551337e-10
5.3534766e-09
2.47579e-10
5.2714032e-09
2.4040366e-10
5.1916644e-09
2.3356501e-10
5.1141621e-09
2.2701403e-10
5.0388139e-09
2.207044e-10
4.9655504e-09
2.1459773e-10
4.8943161e-09
2.0865408e-10
4.825069e-09
2.0283286e-10
4.7577813e-09
1.9709365e-10
4.6924411e-09
1.9138931e-10
4.6290584e-09
1.8565515e-10
4.5676807e-09
1.7978265e-10
4.5083893e-09
1.7367114e-10
4.4512894e-09
1.6725229e-10
4.3965154e-09
1.6043953e-10
4.3442333e-09
1.5314038e-10
4.2946473e-09
1.4524362e-10
4.2480278e-09
1.3655519e-10
4.2047439e-09
1.2678535e-10
4.165255e-09
1.1567086e-10
4.1301576e-09
1.0280974e-10
4.100596e-09
8.6595568e-11
4.076384e-09
7.0931009e-11
4.0610731e-09
4.4857489e-11
4.0555526e-09
1.618146e-11
4.0594606e-09
-1.1430323e-11
4.0766458e-09
-5.0322072e-11
4.1084826e-09
-9.323666e-11
4.1573223e-09
-1.4304202e-10
4.2247688e-09
-1.9754745e-10
4.3109124e-09
-2.5231768e-10
4.4150289e-09
-3.0496918e-10
4.5359396e-09
-3.5417553e-10
4.668556e-09
-3.8847921e-10
4.8017021e-09
-3.9003756e-10
4.9255531e-09
-3.6281327e-10
5.0278396e-09
-2.9963293e-10
5.1069688e-09
-2.3179008e-10
5.1686189e-09
-1.8058821e-10
5.2129892e-09
-1.2996224e-10
5.2454004e-09
-9.4931883e-11
5.2686208e-09
-6.8009485e-11
5.2845963e-09
-4.6788488e-11
5.294662e-09
-2.947796e-11
5.2997372e-09
-1.4860823e-11
5.3002582e-09
-1.5218479e-12
5.2962324e-09
1.1795971e-11
5.2879875e-09
2.4153334e-11
5.2761399e-09
3.4705417e-11
5.2611887e-09
4.379616e-11
5.2437971e-09
5.094426e-11
5.2245773e-09
5.6298693e-11
5.2039645e-09
6.0379281e-11
5.1824147e-09
6.3123739e-11
5.1603614e-09
6.4598517e-11
5.1380486e-09
6.5358391e-11
5.1156208e-09
6.5695151e-11
5.0932639e-09
6.5487542e-11
5.0711475e-09
6.4782901e-11
5.0493286e-09
6.3911434e-11
5.0277841e-09
6.3107919e-11
5.0065002e-09
6.2344969e-11
4.9854843e-09
6.1560089e-11
4.9647793e-09
6.0649319e-11
4.9439573e-09
6.0993324e-11
4.9233222e-09
6.0446067e-11
4.900726e-09
6.619503e-11
4.8780309e-09
6.6487938e-11
4.853081e-09
7.3065665e-11
4.3422375e-11
2.6636323e-06
5.8467068e-10
2.663366e-06
1.5705133e-09
2.6629982e-06
2.1679011e-09
2.6625724e-06
2.5089339e-09
2.6620846e-06
2.874128e-09
2.6615282e-06
3.2789943e-09
2.660897e-06
3.719615e-09
2.6601828e-06
4.2092421e-09
2.6593742e-06
4.7657956e-09
2.6584568e-06
5.4076112e-09
2.6574125e-06
6.1559434e-09
2.6562182e-06
7.0415691e-09
2.6548439e-06
8.1034743e-09
2.6532473e-06
9.4157485e-09
2.6513752e-06
1.1041835e-08
2.6491317e-06
1.323434e-08
2.6464274e-06
1.5954913e-08
2.6429515e-06
2.0512062e-08
2.6386713e-06
2.5262042e-08
2.6321362e-06
3.8582346e-08
2.6241189e-06
4.7338926e-08
2.6049814e-06
1.1301254e-07
2.5909751e-06
8.2551493e-08
1.3541512e-06
7.4739143e-06
8.1457668e-08
7.5948859e-06
4.0038933e-08
1.3491448e-07
3.0343017e-08
3.134355e-08
2.5652413e-08
1.5160043e-08
2.2752165e-08
9.3723155e-09
2.0693956e-08
6.6511747e-09
1.9123402e-08
5.075332e-09
1.786302e-08
4.0730837e-09
1.6820541e-08
3.3689231e-09
1.5938566e-08
2.850244e-09
1.5178015e-08
2.4578598e-09
1.4512188e-08
2.1517572e-09
1.3922325e-08
1.9062701e-09
1.3394578e-08
1.7055371e-09
1.2918364e-08
1.5389992e-09
1.2485485e-08
1.3989571e-09
1.2089494e-08
1.2797432e-09
1.1725117e-08
1.1775794e-09
1.1388215e-08
1.088791e-09
1.1075371e-08
1.0110342e-09
1.0783611e-08
9.4290245e-10
1.0510545e-08
8.8248466e-10
1.0254124e-08
8.2869732e-10
1.0012598e-08
7.8055506e-10
9.7844722e-09
7.3725194e-10
9.568449e-09
6.9813855e-10
9.3633973e-09
6.6268142e-10
9.168328e-09
6.3042048e-10
8.9823722e-09
6.0096773e-10
8.8047655e-09
5.7398531e-10
8.6348342e-09
5.4918041e-10
8.4719767e-09
5.2631921e-10
8.3156531e-09
5.0520325e-10
8.1653804e-09
4.8564809e-10
8.0207256e-09
4.6749211e-10
7.8812985e-09
4.5059726e-10
7.7467491e-09
4.3483344e-10
7.6167651e-09
4.2007919e-10
7.4910636e-09
4.0623894e-10
7.3693846e-09
3.9323888e-10
7.2514915e-09
3.8100361e-10
7.1371725e-09
3.6945268e-10
7.0262385e-09
3.5851298e-10
6.9185195e-09
3.4812263e-10
6.8138647e-09
3.3821982e-10
6.7121451e-09
3.287336e-10
6.6132527e-09
3.1959687e-10
6.5170964e-09
3.1075405e-10
6.4236031e-09
3.0214729e-10
6.3327182e-09
2.9371782e-10
6.2444048e-09
2.8540707e-10
6.1586473e-09
2.7714681e-10
6.0754591e-09
2.6884332e-10
5.9949022e-09
2.6033953e-10
5.9170837e-09
2.5148962e-10
5.8421414e-09
2.4219464e-10
5.7702517e-09
2.3232922e-10
5.7016327e-09
2.217594e-10
5.6365523e-09
2.1032402e-10
5.5753654e-09
1.9774203e-10
5.5185569e-09
1.8359385e-10
5.4667296e-09
1.6749817e-10
5.4206666e-09
1.4887279e-10
5.3818695e-09
1.253926e-10
5.3500954e-09
1.0270511e-10
5.3300031e-09
6.4949765e-11
5.3227611e-09
2.3423539e-11
5.3278953e-09
-1.6564567e-11
5.3504548e-09
-7.2881606e-11
5.3922449e-09
-1.3502668e-10
5.4563501e-09
-2.0714722e-10
5.544875e-09
-2.8607238e-10
5.6579379e-09
-3.6538062e-10
5.7945876e-09
-4.4161885e-10
5.9532747e-09
-5.128626e-10
6.1273201e-09
-5.6252463e-10
6.3020588e-09
-5.6477626e-10
6.4645978e-09
-5.253523e-10
6.5988395e-09
-4.3387464e-10
6.7026919e-09
-3.3564245e-10
6.7836045e-09
-2.6150079e-10
6.8418415e-09
-1.881992e-10
6.8843827e-09
-1.3747315e-10
6.9148614e-09
-9.8488203e-11
6.9358314e-09
-6.7758492e-11
6.9490448e-09
-4.2691321e-11
6.9557081e-09
-2.152407e-11
6.9563937e-09
-2.2075081e-12
6.9511115e-09
1.7078214e-11
6.9402915e-09
3.4973268e-11
6.924743e-09
5.0253956e-11
6.9051209e-09
6.3418218e-11
6.8822957e-09
7.3769491e-11
6.8570711e-09
8.152334e-11
6.8300181e-09
8.7432294e-11
6.8017352e-09
9.1406563e-11
6.7727913e-09
9.3542405e-11
6.7435069e-09
9.464282e-11
6.7140717e-09
9.5130385e-11
6.6847294e-09
9.4829812e-11
6.6557027e-09
9.3809602e-11
6.6270665e-09
9.2547672e-11
6.5987904e-09
9.138397e-11
6.5708564e-09
9.027897e-11
6.5432742e-09
8.9142265e-11
6.5161002e-09
8.7823366e-11
6.488773e-09
8.8320513e-11
6.461691e-09
8.752805e-11
6.4320374e-09
9.5848701e-11
6.4022538e-09
9.6271524e-11
6.369507e-09
1.0581242e-10
6.2865838e-11
2.8985193e-06
6.9261495e-10
2.8982291e-06
1.8607856e-09
2.897828e-06
2.5689401e-09
2.8973637e-06
2.9732058e-09
2.8968319e-06
3.4059871e-09
2.8962251e-06
3.8857412e-09
2.8955369e-06
4.4078398e-09
2.8947582e-06
4.9879791e-09
2.8938766e-06
5.647387e-09
2.8928764e-06
6.4077841e-09
2.891738e-06
7.2943464e-09
2.890436e-06
8.3435282e-09
2.888938e-06
9.6015036e-09
2.8871977e-06
1.1156029e-08
2.8851573e-06
1.3082235e-08
2.8827123e-06
1.5679329e-08
2.8797654e-06
1.8901816e-08
2.8759779e-06
2.4299564e-08
2.8713145e-06
2.992549e-08
2.8641953e-06
4.5701592e-08
2.8554619e-06
5.6072313e-08
2.8346166e-06
1.3385783e-07
2.8193464e-06
9.782163e-08
1.485367e-06
8.8078937e-06
1.054321e-07
8.9748208e-06
5.1964746e-08
1.8838184e-07
3.9382685e-08
4.3925611e-08
3.329503e-08
2.1247699e-08
2.9530598e-08
1.3136747e-08
2.6859097e-08
9.3226752e-09
2.4820564e-08
7.1138649e-09
2.3184653e-08
5.7089946e-09
2.1831575e-08
4.7220019e-09
2.0686823e-08
3.9949958e-09
1.9699678e-08
3.4450047e-09
1.8835483e-08
3.0159526e-09
1.8069887e-08
2.6718662e-09
1.7384913e-08
2.3905111e-09
1.6766826e-08
2.1570857e-09
1.6204985e-08
1.9607982e-09
1.5691022e-08
1.7937062e-09
1.5218093e-08
1.6505085e-09
1.4780824e-08
1.5260603e-09
1.437478e-08
1.4170773e-09
1.3996101e-08
1.3215815e-09
1.3641687e-08
1.236899e-09
1.3308875e-08
1.1615098e-09
1.2995397e-08
1.0940329e-09
1.269931e-08
1.0333387e-09
1.2418932e-08
9.7851689e-10
1.2152793e-08
9.2881977e-10
1.1899611e-08
8.8360249e-10
1.1658258e-08
8.4232122e-10
1.1427741e-08
8.045024e-10
1.1207185e-08
7.6973566e-10
1.0995811e-08
7.3769323e-10
1.0792918e-08
7.0809694e-10
1.0597878e-08
6.8068829e-10
1.0410129e-08
6.5524077e-10
1.0229165e-08
6.3156084e-10
1.0054533e-08
6.094662e-10
9.8858251e-09
5.8878661e-10
9.722676e-09
5.693881e-10
9.5647477e-09
5.5116721e-10
9.411733e-09
5.3401825e-10
9.2633572e-09
5.1782847e-10
9.1193748e-09
5.024954e-10
8.9795651e-09
4.879323e-10
8.8437324e-09
4.7405254e-10
8.7117093e-09
4.6075669e-10
8.5833555e-09
4.4795072e-10
8.4585528e-09
4.3555668e-10
8.3372066e-09
4.2349351e-10
8.2192456e-09
4.1167881e-10
8.1046222e-09
4.000305e-10
7.9933161e-09
3.8845292e-10
7.8853447e-09
3.768147e-10
7.7807885e-09
3.6489575e-10
7.6797865e-09
3.5249169e-10
7.5825173e-09
3.3946374e-10
7.4892103e-09
3.2563624e-10
7.4001484e-09
3.1082135e-10
7.3156794e-09
2.9479302e-10
7.2362641e-09
2.7715728e-10
7.162532e-09
2.5732602e-10
7.0952655e-09
2.3476458e-10
7.0354815e-09
2.0865688e-10
6.9851285e-09
1.7574556e-10
6.943893e-09
1.4394057e-10
6.9178188e-09
9.1024011e-11
6.9084237e-09
3.281867e-11
6.9150942e-09
-2.3235117e-11