/*--------------------------------*- C++ -*----------------------------------*\
| =========                 |                                                 |
| \\      /  F ield         | OpenFOAM: The Open Source CFD Toolbox           |
|  \\    /   O peration     | Version:  2206                                  |
|   \\  /    A nd           | Website:  www.openfoam.com                      |
|    \\/     M anipulation  |                                                 |
\*---------------------------------------------------------------------------*/
FoamFile
{
    version     2.0;
    format      ascii;
    arch        "LSB;label=32;scalar=64";
    class       volVectorField;
    location    "1800";
    object      U;
}
// * * * * * * * * * * * * * * * * * * * * * * * * * * * * * * * * * * * * * //

dimensions      [0 1 -1 0 0 0 0];

internalField   nonuniform List<vector> 
13056
(
(0.99999999 9.2536295e-10 5.082604e-25)
(0.99993041 2.8191887e-09 0)
(0.99980488 4.4135562e-09 0)
(0.99965773 5.7937517e-09 0)
(0.99948913 7.5272421e-09 0)
(0.99929599 9.7354593e-09 0)
(0.99907631 1.251289e-08 0)
(0.99882759 1.6032249e-08 0)
(0.99854617 2.0533021e-08 0)
(0.99822727 2.632265e-08 0)
(0.9978649 3.3803319e-08 0)
(0.99745161 4.3533735e-08 0)
(0.99697753 5.6265617e-08 0)
(0.99643023 7.3195499e-08 0)
(0.99579062 9.5725357e-08 0)
(0.99503784 1.2732998e-07 0)
(0.99412205 1.6934021e-07 0)
(0.99302399 2.3842839e-07 0)
(0.9915373 3.1877572e-07 0)
(0.98982687 5.2319372e-07 0)
(0.98668506 6.8157332e-07 0)
(0.98380562 1.7046164e-06 0)
(0.97248625 1.2831226e-06 -5.085445e-21)
(0.97318752 0.00012136326 8.8169457e-18)
(0.0030830001 0.00012163639 0)
(0.0012187671 7.2167197e-08 -1.2243767e-20)
(0.00086827823 4.7531237e-08 4.0635637e-18)
(0.00071342824 6.0362534e-09 0)
(0.00062385807 3.6992119e-09 0)
(0.00056233137 2.6010976e-09 0)
(0.00051661446 1.9666451e-09 0)
(0.00048048599 1.5633533e-09 0)
(0.00045092298 1.2804287e-09 0)
(0.0004261479 1.0724323e-09 0)
(0.00040494841 9.1528879e-10 0)
(0.00038650039 7.9284256e-10 0)
(0.00037023708 6.9478122e-10 0)
(0.00035574814 6.1471444e-10 0)
(0.00034272234 5.4837496e-10 0)
(0.00033091951 4.9265958e-10 0)
(0.00032015256 4.4528404e-10 0)
(0.00031027279 4.0472394e-10 5.11784e-25)
(0.00030115362 3.6952024e-10 0)
(0.00029270615 3.3872548e-10 0)
(0.00028484144 3.1175851e-10 0)
(0.000277493 2.8786716e-10 0)
(0.00027060296 2.6661219e-10 0)
(0.00026412224 2.4759993e-10 0)
(0.00025800886 2.3050887e-10 0)
(0.00025222674 2.150791e-10 0)
(0.00024674438 2.0109645e-10 0)
(0.00024153429 1.883774e-10 0)
(0.0002365724 1.7676745e-10 0)
(0.00023183749 1.66133e-10 0)
(0.00022731092 1.5635899e-10 0)
(0.0002229762 1.473521e-10 0)
(0.00021881847 1.3903259e-10 0)
(0.00021482444 1.313278e-10 0)
(0.00021098221 1.2417445e-10 0)
(0.0002072811 1.1751817e-10 0)
(0.00020371146 1.1130903e-10 0)
(0.00020026469 1.0550152e-10 0)
(0.0001969331 1.000588e-10 0)
(0.00019370964 9.4950934e-11 0)
(0.00019058781 9.0148837e-11 0)
(0.00018756176 8.5623636e-11 0)
(0.0001846263 8.1349569e-11 0)
(0.00018177676 7.730472e-11 0)
(0.00017900895 7.3468271e-11 0)
(0.00017631921 6.9818571e-11 0)
(0.00017370447 6.6336148e-11 0)
(0.00017116216 6.3005111e-11 0)
(0.00016869012 5.9810107e-11 0)
(0.00016628671 5.6736632e-11 0)
(0.0001639507 5.377137e-11 0)
(0.00016168141 5.0900195e-11 0)
(0.00015947872 4.810576e-11 0)
(0.00015734345 4.536124e-11 0)
(0.00015527804 4.2644648e-11 0)
(0.00015328565 3.9944623e-11 0)
(0.00015137031 3.7246801e-11 0)
(0.00014953721 3.4537874e-11 0)
(0.00014779255 3.18029e-11 0)
(0.00014614411 2.9011768e-11 0)
(0.00014460263 2.6119417e-11 0)
(0.00014318271 2.3093396e-11 0)
(0.00014190121 1.9881836e-11 0)
(0.00014078218 1.6210158e-11 0)
(0.00013988054 1.286396e-11 0)
(0.00013912603 2.9554796e-11 0)
(0.00013883975 2.9521721e-12 -7.5398711e-25)
(0.00013875066 -2.024746e-12 0)
(0.00013911399 -7.7773237e-12 0)
(0.00013993439 -1.3929284e-11 0)
(0.0001413026 -2.0587388e-11 0)
(0.00014328891 -2.7343682e-11 0)
(0.00014593249 -3.3540241e-11 0)
(0.00014919893 -3.8875262e-11 0)
(0.00015307377 -4.3252916e-11 0)
(0.00015749023 -4.5407476e-11 0)
(0.00016216193 -4.3576841e-11 0)
(0.00016660431 -3.8698612e-11 0)
(0.00017063567 -1.1462985e-10 9.7958241e-21)
(0.00017358321 -2.2404464e-11 0)
(0.00017604236 -1.6589621e-11 0)
(0.00017778683 -1.1313317e-11 0)
(0.00017906789 -7.8229968e-12 0)
(0.00017999611 -5.2963319e-12 0)
(0.00018064966 -3.4384303e-12 0)
(0.00018108314 -2.0417837e-12 0)
(0.00018133292 -9.7088229e-13 0)
(0.00018142532 -1.3201443e-13 0)
(0.00018136318 6.7291024e-13 0)
(0.00018114886 1.328087e-12 0)
(0.00018080139 1.9117466e-12 0)
(0.00018033778 2.4149058e-12 0)
(0.00017977789 2.8104279e-12 0)
(0.00017914726 3.1066183e-12 0)
(0.00017846226 3.3326505e-12 0)
(0.00017773626 3.4847135e-12 0)
(0.00017698714 3.5664438e-12 0)
(0.00017622669 3.6086815e-12 0)
(0.00017545981 3.6275903e-12 0)
(0.00017469149 3.6163643e-12 0)
(0.00017392946 3.5775497e-12 0)
(0.00017317762 3.529542e-12 0)
(0.00017243596 3.4853015e-12 0)
(0.00017170287 3.443361e-12 0)
(0.00017097903 3.4001177e-12 0)
(0.00017026427 3.3499853e-12 0)
(0.0001695617 3.3690429e-12 0)
(0.00016883882 3.3399614e-12 0)
(0.00016814909 3.6559629e-12 0)
(0.00016729142 1.3865874e-11 0)
(0.00016659516 3.9805386e-12 4.8306087e-24)
(0.00016558269 9.140279e-12 0)
(0.99999999 2.7908316e-09 0)
(0.99993037 8.5036333e-09 0)
(0.99980473 1.3313862e-08 0)
(0.99965742 1.7477827e-08 0)
(0.99948865 2.270722e-08 0)
(0.99929532 2.9368538e-08 0)
(0.99907542 3.7746817e-08 0)
(0.99882645 4.8362974e-08 0)
(0.99854476 6.1939311e-08 0)
(0.99822556 7.9403094e-08 0)
(0.99786286 1.019673e-07 0)
(0.9974492 1.3131695e-07 0)
(0.99697471 1.6971909e-07 0)
(0.99642695 2.2078229e-07 0)
(0.99578682 2.887344e-07 0)
(0.99503346 3.8405467e-07 0)
(0.994117 5.1075535e-07 0)
(0.99301817 7.1911606e-07 0)
(0.99153053 9.6142747e-07 0)
(0.98981905 1.5778864e-06 0)
(0.98667558 2.0555054e-06 0)
(0.98379464 5.1407629e-06 0)
(0.97246958 3.86907e-06 1.8876923e-20)
(0.97316634 0.00036477137 -6.9673934e-21)
(0.0092602918 0.00036605131 0)
(0.0036742423 1.192738e-06 0)
(0.0026177724 2.6780482e-07 3.9157126e-22)
(0.0021509619 1.2650821e-07 0)
(0.0018809026 7.7502379e-08 0)
(0.0016953967 5.4502894e-08 0)
(0.0015575564 4.1205056e-08 0)
(0.0014486285 3.2754887e-08 0)
(0.0013594962 2.6827338e-08 0)
(0.0012847995 2.2469118e-08 0)
(0.0012208835 1.9176387e-08 0)
(0.0011652634 1.6610799e-08 0)
(0.0011162303 1.4556202e-08 0)
(0.001072547 1.2878639e-08 0)
(0.001033275 1.1488694e-08 0)
(0.00099769031 1.032136e-08 0)
(0.00096522875 9.3288823e-09 0)
(0.00093544192 8.4790972e-09 -7.8150134e-25)
(0.00090794847 7.7415355e-09 -1.2576461e-24)
(0.00088247997 7.0964092e-09 0)
(0.00085876854 6.5313628e-09 0)
(0.00083661362 6.0307988e-09 0)
(0.00081584075 5.5854764e-09 0)
(0.00079630193 5.1871466e-09 0)
(0.00077787064 4.8290726e-09 0)
(0.00076043806 4.5058055e-09 0)
(0.00074390923 4.2128574e-09 0)
(0.00072820129 3.9463849e-09 0)
(0.00071324165 3.703149e-09 0)
(0.00069896631 3.4803518e-09 0)
(0.00068531913 3.2755834e-09 0)
(0.00067225035 3.086886e-09 0)
(0.00065971518 2.9125891e-09 0)
(0.00064767353 2.7511716e-09 0)
(0.00063608957 2.6013069e-09 0)
(0.00062493107 2.461856e-09 0)
(0.00061416893 2.3317729e-09 0)
(0.00060377723 2.2101049e-09 0)
(0.0005937328 2.0960789e-09 0)
(0.00058401435 1.9890671e-09 0)
(0.0005746023 1.8884611e-09 0)
(0.00056547903 1.7936555e-09 0)
(0.00055662888 1.7041106e-09 0)
(0.00054803778 1.6193669e-09 0)
(0.00053969308 1.5389885e-09 0)
(0.00053158373 1.4625221e-09 0)
(0.00052370052 1.3895592e-09 0)
(0.00051603567 1.3197661e-09 0)
(0.00050858268 1.2528207e-09 0)
(0.00050133658 1.1884196e-09 0)
(0.00049429372 1.1262827e-09 0)
(0.00048745199 1.0661146e-09 0)
(0.00048081106 1.0075506e-09 0)
(0.0004743734 9.5002926e-10 0)
(0.00046814636 8.9308985e-10 0)
(0.00046213947 8.364894e-10 0)
(0.00045636489 7.7992989e-10 0)
(0.00045083826 7.2313177e-10 0)
(0.00044557827 6.6577776e-10 0)
(0.0004406084 6.0723646e-10 0)
(0.00043596107 5.4656375e-10 0)
(0.00043168024 4.830758e-10 0)
(0.00042781678 4.1565821e-10 0)
(0.00042444324 3.3867428e-10 0)
(0.00042172511 2.6816567e-10 0)
(0.00041945101 1.6621483e-10 1.180463e-24)
(0.00041858793 5.6938106e-11 2.3600839e-24)
(0.00041832014 -3.849718e-11 0)
(0.00041941607 -1.6451334e-10 0)
(0.0004218902 -2.9340972e-10 0)
(0.00042601591 -4.3285035e-10 0)
(0.00043200505 -5.7420688e-10 0)
(0.00043997566 -7.0371104e-10 0)
(0.00044982402 -8.1521594e-10 0)
(0.00046150628 -9.0641395e-10 0)
(0.00047482093 -9.5070332e-10 0)
(0.0004889045 -9.1156958e-10 0)
(0.00050229666 -8.0869994e-10 0)
(0.00051444926 -6.453501e-10 -2.4771466e-24)
(0.0005233357 -4.6792712e-10 -3.6218553e-24)
(0.00053074892 -3.461656e-10 0)
(0.00053600829 -2.3615984e-10 0)
(0.00053987055 -1.6326735e-10 0)
(0.0005426691 -1.105014e-10 0)
(0.00054463961 -7.1684934e-11 0)
(0.00054594659 -4.2498005e-11 0)
(0.00054669973 -2.011233e-11 0)
(0.00054697841 -1.8878906e-12 0)
(0.00054679111 1.4004497e-11 0)
(0.00054614501 2.7951764e-11 0)
(0.00054509746 4.0156509e-11 0)
(0.00054369974 5.0671959e-11 0)
(0.00054201176 5.893962e-11 0)
(0.00054011048 6.5132626e-11 0)
(0.0005380453 6.9853258e-11 0)
(0.00053585653 7.302759e-11 0)
(0.00053359801 7.4732545e-11 0)
(0.00053130537 7.5611295e-11 0)
(0.00052899332 7.600117e-11 0)
(0.00052667695 7.5760732e-11 0)
(0.00052437953 7.4944882e-11 0)
(0.00052211281 7.3936699e-11 0)
(0.00051987679 7.3007684e-11 0)
(0.00051766666 7.2125836e-11 0)
(0.00051548436 7.1218253e-11 0)
(0.0005133295 7.0164953e-11 0)
(0.00051121137 7.0565698e-11 0)
(0.00050903207 6.993504e-11 0)
(0.00050695262 7.6593878e-11 0)
(0.00050436729 7.8085639e-11 0)
(0.00050226817 8.4384481e-11 -7.4720445e-24)
(0.00049921564 5.1191182e-11 1.1590262e-24)
(0.99999999 4.6992014e-09 0)
(0.99993032 1.4319623e-08 0)
(0.99980455 2.2421419e-08 0)
(0.99965708 2.943457e-08 0)
(0.99948812 3.8241485e-08 0)
(0.99929457 4.9459656e-08 0)
(0.99907443 6.356912e-08 0)
(0.99882519 8.1446994e-08 0)
(0.99854319 1.0430949e-07 0)
(0.99822365 1.3371794e-07 0)
(0.99786058 1.7171471e-07 0)
(0.99744651 2.2113689e-07 0)
(0.99697156 2.8580151e-07 0)
(0.99642329 3.7178423e-07 0)
(0.99578259 4.8620303e-07 0)
(0.99502858 6.4670148e-07 0)
(0.99411138 8.6003286e-07 0)
(0.9930117 1.21085e-06 0)
(0.99152299 1.6188219e-06 0)
(0.98981035 2.6566958e-06 0)
(0.98666503 3.4608143e-06 0)
(0.98378243 8.6552941e-06 0)
(0.97245111 6.5162507e-06 -1.0001015e-20)
(0.97314291 0.00061189483 6.7394117e-55)
(0.015539609 0.0006151832 -6.7370028e-55)
(0.0061842373 3.3435267e-06 0)
(0.0044062735 7.6500088e-07 -2.0953997e-22)
(0.003620596 3.6727515e-07 0)
(0.0031660089 2.2501377e-07 0)
(0.0028537501 1.5824089e-07 0)
(0.0026217237 1.1963166e-07 0)
(0.0024383689 9.5096925e-08 0)
(0.0022883362 7.7887392e-08 0)
(0.0021626025 6.5234115e-08 0)
(0.0020550158 5.5674165e-08 0)
(0.0019613937 4.8225403e-08 0)
(0.0018788594 4.2260287e-08 0)
(0.0018053301 3.7389841e-08 0)
(0.0017392263 3.3354445e-08 0)
(0.001679329 2.9965361e-08 0)
(0.0016246888 2.7083951e-08 0)
(0.0015745508 2.4616782e-08 0)
(0.0015282733 2.2475449e-08 0)
(0.0014854041 2.0602513e-08 0)
(0.0014454924 1.8962039e-08 0)
(0.0014082008 1.7508783e-08 0)
(0.0013732355 1.6215907e-08 0)
(0.0013403473 1.5059463e-08 0)
(0.0013093234 1.4019892e-08 0)
(0.0012799805 1.3081373e-08 0)
(0.0012521589 1.2230878e-08 0)
(0.001225719 1.1457248e-08 0)
(0.0012005386 1.075108e-08 0)
(0.0011765101 1.0104249e-08 0)
(0.0011535389 9.5097607e-09 0)
(0.0011315413 8.9619307e-09 0)
(0.0011104419 8.4559081e-09 0)
(0.0010901731 7.9872775e-09 0)
(0.0010706748 7.5521874e-09 0)
(0.0010518926 7.1473309e-09 0)
(0.0010337775 6.7696713e-09 0)
(0.001016286 6.416443e-09 0)
(0.00099937905 6.0854012e-09 0)
(0.00098302077 5.7747235e-09 0)
(0.00096717821 5.4826428e-09 0)
(0.00095182174 5.2074022e-09 0)
(0.00093692498 4.9474347e-09 0)
(0.00092246427 4.701406e-09 0)
(0.00090841828 4.4680508e-09 0)
(0.00089476845 4.2460533e-09 0)
(0.00088149925 4.0342273e-09 0)
(0.00086859761 3.8316039e-09 0)
(0.00085605255 3.6372483e-09 0)
(0.00084385575 3.4502792e-09 0)
(0.00083200103 3.2698834e-09 0)
(0.00082048487 3.0952035e-09 0)
(0.0008093067 2.9251802e-09 0)
(0.00079847068 2.7581844e-09 0)
(0.00078798918 2.5928786e-09 0)
(0.00077787823 2.4285565e-09 0)
(0.00076815832 2.2643537e-09 0)
(0.00075885579 2.099458e-09 0)
(0.00075000207 1.9329467e-09 0)
(0.00074163672 1.762987e-09 0)
(0.00073381431 1.5868379e-09 0)
(0.00072660885 1.4025138e-09 0)
(0.000720106 1.2067791e-09 0)
(0.00071442788 9.8326928e-10 0)
(0.00070985297 7.7858947e-10 0)
(0.00070602601 4.7487559e-10 2.5022475e-24)
(0.00070457329 1.657611e-10 -1.2507179e-24)
(0.00070412356 -1.1241091e-10 0)
(0.00070596893 -4.7759992e-10 0)
(0.0007101343 -8.5181752e-10 0)
(0.00071707965 -1.2566355e-09 0)
(0.00072716144 -1.6670156e-09 0)
(0.00074057827 -2.0429911e-09 0)
(0.0007571556 -2.3667092e-09 0)
(0.00077681938 -2.631441e-09 0)
(0.00079923003 -2.7600105e-09 0)
(0.00082293424 -2.646423e-09 0)
(0.00084547461 -2.3478551e-09 0)
(0.00086592806 -1.843808e-09 0)
(0.00088088577 -1.3585481e-09 0)
(0.0008933628 -1.0051012e-09 0)
(0.00090221546 -6.8570914e-10 0)
(0.00090871652 -4.740716e-10 0)
(0.00091342723 -3.2086948e-10 0)
(0.00091674418 -2.0816561e-10 0)
(0.00091894429 -1.2342215e-10 0)
(0.00092021216 -5.8424327e-11 0)
(0.00092068136 -5.5929925e-12 0)
(0.00092036621 4.066657e-11 0)
(0.00091927876 8.1132789e-11 0)
(0.00091751557 1.165692e-10 0)
(0.00091516295 1.4710018e-10 0)
(0.00091232177 1.7110543e-10 0)
(0.00090912154 1.8908707e-10 0)
(0.00090564544 2.0279277e-10 0)
(0.00090196132 2.1200978e-10 0)
(0.00089815977 2.1696115e-10 0)
(0.0008943008 2.1951298e-10 0)
(0.00089040916 2.2064495e-10 0)
(0.00088651024 2.1994748e-10 0)
(0.00088264322 2.1757976e-10 0)
(0.00087882788 2.1465293e-10 0)
(0.00087506421 2.1195554e-10 0)
(0.00087134412 2.093948e-10 0)
(0.0008676709 2.067598e-10 0)
(0.00086404386 2.0370155e-10 0)
(0.00086047865 2.0486356e-10 0)
(0.00085681059 2.0302875e-10 0)
(0.00085331045 2.2236045e-10 0)
(0.00084895944 2.230409e-10 0)
(0.00084542615 2.4518582e-10 0)
(0.0008402881 1.4594251e-10 0)
(0.99999999 6.6791755e-09 1.089223e-24)
(0.99993026 2.0355162e-08 0)
(0.99980435 3.18744e-08 0)
(0.9996567 4.1845543e-08 0)
(0.99948752 5.4365935e-08 0)
(0.99929373 7.0313863e-08 0)
(0.99907332 9.0371775e-08 0)
(0.99882377 1.1578636e-07 0)
(0.99854143 1.482863e-07 0)
(0.99822152 1.9009078e-07 0)
(0.99785804 2.4410262e-07 0)
(0.9974435 3.1435419e-07 0)
(0.99696804 4.0627039e-07 0)
(0.9964192 5.2848622e-07 0)
(0.99577785 6.9111746e-07 0)
(0.99502313 9.192396e-07 0)
(0.99410508 1.2224473e-06 0)
(0.99300446 1.7210498e-06 0)
(0.99151455 2.3008708e-06 0)
(0.98980062 3.7758679e-06 0)
(0.98665325 4.9186525e-06 0)
(0.98376879 1.2301065e-05 0)
(0.97243052 9.2637947e-06 0)
(0.97311686 0.00086636263 -3.5160259e-55)
(0.02201156 0.0008728335 3.5147773e-55)
(0.008786132 6.8932134e-06 0)
(0.0062604318 1.5771605e-06 0)
(0.0051442338 7.5650441e-07 0)
(0.0044983292 4.6349884e-07 0)
(0.0040546545 3.2595758e-07 0)
(0.0037249753 2.4642596e-07 0)
(0.0034644568 1.9588566e-07 0)
(0.0032512848 1.6043624e-07 0)
(0.0030726379 1.3437218e-07 0)
(0.0029197756 1.1467978e-07 0)
(0.0027867551 9.9336235e-08 0)
(0.0026694888 8.7048927e-08 0)
(0.0025650172 7.7016538e-08 0)
(0.002471096 6.8704242e-08 0)
(0.0023859933 6.1723268e-08 0)
(0.00230836 5.5788069e-08 0)
(0.0022371232 5.0706056e-08 0)
(0.0021713721 4.6295266e-08 0)
(0.002110463 4.24374e-08 0)
(0.0020537564 3.905829e-08 0)
(0.0020007722 3.6064839e-08 0)
(0.0019510932 3.3401746e-08 0)
(0.0019043656 3.1019679e-08 0)
(0.0018602867 2.8878351e-08 0)
(0.0018185962 2.6945176e-08 0)
(0.0017790671 2.5193313e-08 0)
(0.0017415012 2.3599777e-08 0)
(0.0017057249 2.21452e-08 0)
(0.0016715851 2.0812849e-08 0)
(0.0016389475 1.9588315e-08 0)
(0.0016076932 1.8459888e-08 0)
(0.0015777151 1.7417577e-08 0)
(0.0015489172 1.6452286e-08 0)
(0.0015212139 1.5556083e-08 0)
(0.0014945281 1.4722155e-08 0)
(0.0014687902 1.3944248e-08 0)
(0.0014439382 1.3216665e-08 0)
(0.0014199167 1.2534783e-08 0)
(0.0013966747 1.1894847e-08 0)
(0.0013741656 1.1293217e-08 0)
(0.001352347 1.0726274e-08 0)
(0.0013311816 1.0190791e-08 0)
(0.0013106358 9.6840192e-09 0)
(0.0012906792 9.2033522e-09 0)
(0.0012712854 8.7460803e-09 0)
(0.0012524324 8.3097598e-09 0)
(0.0012341017 7.8923947e-09 0)
(0.0012162776 7.4920597e-09 0)
(0.0011989483 7.1069391e-09 0)
(0.001182105 6.7353575e-09 0)
(0.0011657427 6.3755492e-09 0)
(0.0011498607 6.0253318e-09 0)
(0.0011344648 5.6813504e-09 0)
(0.0011195725 5.3408501e-09 0)
(0.0011052068 5.0023748e-09 0)
(0.0010913967 4.6641448e-09 0)
(0.0010781796 4.3244862e-09 0)
(0.0010656002 3.9814963e-09 0)
(0.0010537147 3.6314e-09 0)
(0.0010426006 3.2685509e-09 0)
(0.0010323632 2.8888577e-09 0)
(0.0010231242 2.485653e-09 0)
(0.0010150571 2.0252485e-09 0)
(0.0010085574 1.6035912e-09 0)
(0.0010031211 9.7898127e-10 -1.3624048e-24)
(0.0010010571 3.4120937e-10 0)
(0.0010004195 -2.3168294e-10 0)
(0.0010030422 -9.8398561e-10 0)
(0.0010089615 -1.7548153e-09 0)
(0.0010188306 -2.5886418e-09 0)
(0.0010331558 -3.433904e-09 0)
(0.0010522192 -4.2082901e-09 0)
(0.0010757728 -4.8750277e-09 0)
(0.001103711 -5.4201946e-09 0)
(0.001135551 -5.6848725e-09 0)
(0.0011692279 -5.4508276e-09 0)
(0.0012012513 -4.8358256e-09 0)
(0.001230309 -3.8015084e-09 2.8587875e-24)
(0.0012515609 -2.7982312e-09 0)
(0.001269287 -2.0702417e-09 0)
(0.0012818651 -1.4124233e-09 0)
(0.0012911019 -9.7650213e-10 0)
(0.0012977952 -6.6094413e-10 0)
(0.0013025082 -4.2879673e-10 0)
(0.0013056344 -2.5424141e-10 0)
(0.0013074361 -1.203557e-10 0)
(0.001308103 -1.1519144e-11 0)
(0.0013076554 8.3754288e-11 0)
(0.0013061105 1.6711323e-10 0)
(0.0013036054 2.4010671e-10 0)
(0.0013002629 3.0299438e-10 0)
(0.0012962263 3.5244167e-10 0)
(0.0012916795 3.8948062e-10 0)
(0.0012867407 4.1771081e-10 0)
(0.0012815063 4.3669605e-10 0)
(0.0012761052 4.4689579e-10 0)
(0.0012706224 4.5215208e-10 0)
(0.0012650932 4.5448302e-10 0)
(0.0012595537 4.5304637e-10 0)
(0.0012540594 4.4816996e-10 0)
(0.0012486386 4.4214118e-10 0)
(0.0012432913 4.3658434e-10 0)
(0.0012380058 4.3130867e-10 0)
(0.001232787 4.2588052e-10 0)
(0.0012276338 4.195806e-10 0)
(0.0012225684 4.2197086e-10 0)
(0.001217357 4.1818778e-10 0)
(0.0012123841 4.5799908e-10 0)
(0.0012062031 4.5982027e-10 0)
(0.001201183 5.0524125e-10 0)
(0.0011938828 3.0058451e-10 0)
(0.99999999 8.7605323e-09 0)
(0.9999302 2.6701238e-08 0)
(0.99980413 4.1815605e-08 0)
(0.99965627 5.4898373e-08 0)
(0.99948685 7.1324349e-08 0)
(0.99929279 9.2246405e-08 0)
(0.99907207 1.1855987e-07 0)
(0.99882218 1.5189995e-07 0)
(0.99853946 1.9453403e-07 0)
(0.99821912 2.4937284e-07 0)
(0.99785517 3.2022374e-07 0)
(0.99744012 4.1237539e-07 0)
(0.99696408 5.329427e-07 0)
(0.9964146 6.9325063e-07 0)
(0.99577253 9.0656534e-07 0)
(0.99501699 1.2057734e-06 0)
(0.99409801 1.6034537e-06 0)
(0.99299632 2.2573895e-06 0)
(0.99150508 3.0178273e-06 0)
(0.9897897 4.9522094e-06 0)
(0.98664002 6.4508965e-06 0)
(0.98375349 1.613278e-05 0)
(0.97240747 1.2153181e-05 0)
(0.97308774 0.0011317813 0)
(0.028767851 0.0011426704 0)
(0.011518665 1.1997256e-05 0)
(0.0082078753 2.7364619e-06 0)
(0.0067445857 1.3120203e-06 0)
(0.0058977214 8.038945e-07 0)
(0.0053160083 5.6534484e-07 0)
(0.0048837531 4.2740277e-07 0)
(0.0045421836 3.3974222e-07 0)
(0.0042626925 2.782585e-07 0)
(0.0040284676 2.3305297e-07 0)
(0.0038280497 1.9889816e-07 0)
(0.0036536473 1.7228615e-07 0)
(0.0034999005 1.5097509e-07 0)
(0.0033629291 1.3357503e-07 0)
(0.0032397904 1.1915831e-07 0)
(0.0031282137 1.0705065e-07 0)
(0.00302643 9.6756834e-08 0)
(0.0029330327 8.794262e-08 0)
(0.002846828 8.0292655e-08 0)
(0.0027669713 7.3601792e-08 0)
(0.0026926244 6.7741132e-08 0)
(0.002623158 6.2549393e-08 0)
(0.0025580251 5.7930617e-08 0)
(0.0024967616 5.3799247e-08 0)
(0.0024389708 5.0085409e-08 0)
(0.0023843114 4.6732584e-08 0)
(0.0023324857 4.3694221e-08 0)
(0.002283234 4.0930456e-08 0)
(0.0022363285 3.8407696e-08 0)
(0.0021915686 3.6096922e-08 0)
(0.0021487783 3.3973141e-08 0)
(0.0021078016 3.2016045e-08 0)
(0.002068498 3.0208304e-08 0)
(0.0020307418 2.8534145e-08 0)
(0.0019944206 2.6979809e-08 0)
(0.0019594335 2.553348e-08 0)
(0.0019256891 2.4184313e-08 0)
(0.0018931063 2.2922427e-08 0)
(0.0018616123 2.1739801e-08 0)
(0.0018311403 2.0629926e-08 0)
(0.0018016291 1.9586486e-08 0)
(0.0017730233 1.8603207e-08 0)
(0.0017452738 1.767449e-08 0)
(0.0017183366 1.6795569e-08 0)
(0.0016921719 1.5961922e-08 0)
(0.0016667452 1.5168851e-08 0)
(0.0016420274 1.4412118e-08 0)
(0.0016179944 1.3688259e-08 0)
(0.0015946256 1.2993937e-08 0)
(0.0015719054 1.2326001e-08 0)
(0.0015498225 1.1681547e-08 0)
(0.0015283703 1.105751e-08 0)
(0.0015075476 1.0450106e-08 0)
(0.0014873623 9.8535171e-09 0)
(0.0014678374 9.2629662e-09 0)
(0.0014490028 8.6759255e-09 0)
(0.0014308965 8.0893094e-09 0)
(0.0014135678 7.5002137e-09 0)
(0.0013970752 6.9053347e-09 0)
(0.0013814924 6.2981249e-09 0)
(0.0013669211 5.6687915e-09 0)
(0.0013534992 5.0102359e-09 0)
(0.0013413864 4.3108914e-09 0)
(0.0013308102 3.5123615e-09 0)
(0.0013222891 2.7809595e-09 0)
(0.0013151631 1.6985511e-09 0)
(0.0013124571 5.9150463e-10 0)
(0.0013116227 -4.0211459e-10 0)
(0.0013150624 -1.7069005e-09 0)
(0.0013228245 -3.0438165e-09 0)
(0.0013357649 -4.4899337e-09 0)
(0.0013545475 -5.9558529e-09 0)
(0.0013795418 -7.298838e-09 0)
(0.0014104229 -8.4551014e-09 0)
(0.0014470518 -9.4004149e-09 0)
(0.0014887948 -9.8592361e-09 0)
(0.0015329451 -9.4532189e-09 0)
(0.0015749276 -8.3865727e-09 0)
(0.0016130213 -6.5962607e-09 0)
(0.0016408841 -4.8529773e-09 0)
(0.0016641229 -3.590437e-09 0)
(0.001680614 -2.4496578e-09 0)
(0.0016927245 -1.6936281e-09 0)
(0.0017015003 -1.146349e-09 0)
(0.0017076799 -7.4372213e-10 0)
(0.0017117791 -4.409789e-10 0)
(0.0017141416 -2.0876777e-10 0)
(0.0017150163 -1.9994207e-11 0)
(0.0017144298 1.45241e-10 0)
(0.0017124046 2.8982171e-10 0)
(0.0017091205 4.1642111e-10 0)
(0.0017047384 5.25491e-10 0)
(0.0016994462 6.1125157e-10 0)
(0.001693485 6.7549173e-10 0)
(0.00168701 7.2445192e-10 0)
(0.0016801476 7.573793e-10 0)
(0.0016730663 7.7507087e-10 0)
(0.001665878 7.8418732e-10 0)
(0.0016586289 7.8822904e-10 0)
(0.0016513663 7.8573755e-10 0)
(0.0016441631 7.7728125e-10 0)
(0.001637056 7.6682516e-10 0)
(0.0016300453 7.5718643e-10 0)
(0.0016231158 7.4803494e-10 0)
(0.0016162736 7.3861958e-10 0)
(0.0016095175 7.2769269e-10 0)
(0.0016028765 7.3183187e-10 0)
(0.0015960444 7.2526747e-10 0)
(0.0015895246 7.9429188e-10 0)
(0.001581422 7.9781821e-10 0)
(0.0015748403 8.7647346e-10 -9.6256592e-24)
(0.0015652693 5.2125681e-10 1.4931125e-24)
(0.99999999 1.097471e-08 0)
(0.99993013 3.3454047e-08 0)
(0.99980388 5.2396186e-08 0)
(0.99965579 6.8791737e-08 0)
(0.9994861 8.9374865e-08 0)
(0.99929173 1.1559107e-07 0)
(0.99907066 1.4856229e-07 0)
(0.99882038 1.9033702e-07 0)
(0.99853723 2.4375577e-07 0)
(0.99821642 3.1246497e-07 0)
(0.99785194 4.0123413e-07 0)
(0.9974363 5.1668831e-07 0)
(0.99695962 6.6773993e-07 0)
(0.99640941 8.685751e-07 0)
(0.99576653 1.1358103e-06 0)
(0.99501008 1.5106401e-06 0)
(0.99409004 2.0088144e-06 0)
(0.99298715 2.8279725e-06 0)
(0.99149441 3.7805148e-06 0)
(0.98977738 6.2034517e-06 0)
(0.98662512 8.0806248e-06 0)
(0.98373625 2.0208118e-05 0)
(0.97238155 1.5228365e-05 0)
(0.97305511 0.0014118054 0)
(0.03590237 0.0014286187 0)
(0.014422507 1.8808532e-05 0)
(0.010277622 4.3084264e-06 0)
(0.0084455077 2.0657996e-06 0)
(0.0073850444 1.2658147e-06 0)
(0.0066566116 8.9019682e-07 0)
(0.0061153274 6.7299016e-07 0)
(0.0056876111 5.3495443e-07 0)
(0.0053376322 4.3814181e-07 0)
(0.0050443357 3.6696126e-07 0)
(0.0047933735 3.1318068e-07 0)
(0.0045749887 2.7127721e-07 0)
(0.0043824694 2.3772092e-07 0)
(0.0042109563 2.1032302e-07 0)
(0.0040567645 1.8762268e-07 0)
(0.0039170505 1.685582e-07 0)
(0.0037895994 1.5234991e-07 0)
(0.0036726494 1.3847111e-07 2.2179041e-24)
(0.0035647065 1.2642566e-07 0)
(0.003464712 1.1589061e-07 -8.9119682e-35)
(0.0033716168 1.0666253e-07 0)
(0.0032846329 9.8487796e-08 0)
(0.0032030754 9.121523e-08 0)
(0.003126363 8.4710122e-08 0)
(0.003053999 7.886245e-08 0)
(0.0029855561 7.358322e-08 0)
(0.0029206615 6.879913e-08 0)
(0.0028589899 6.4447414e-08 0)
(0.0028002562 6.0475175e-08 0)
(0.0027442093 5.6836721e-08 0)
(0.0026906285 5.3492703e-08 0)
(0.0026393187 5.0411142e-08 0)
(0.0025901039 4.7564748e-08 0)
(0.0025428267 4.4928688e-08 0)
(0.0024973464 4.2481295e-08 0)
(0.0024535366 4.0203967e-08 0)
(0.0024112829 3.8079626e-08 0)
(0.0023704836 3.6092715e-08 0)
(0.0023310477 3.4230607e-08 0)
(0.0022928917 3.2483047e-08 0)
(0.0022559385 3.0840094e-08 0)
(0.0022201191 2.9291867e-08 0)
(0.002185372 2.7829551e-08 0)
(0.002151642 2.6445641e-08 0)
(0.0021188793 2.5133019e-08 0)
(0.0020870406 2.3884286e-08 0)
(0.0020560897 2.2692769e-08 0)
(0.0020259961 2.1553015e-08 0)
(0.0019967343 2.0459767e-08 0)
(0.0019682847 1.9408066e-08 0)
(0.001940633 1.8393335e-08 0)
(0.001913771 1.7410752e-08 0)
(0.0018876973 1.6454357e-08 0)
(0.0018624218 1.5514991e-08 0)
(0.0018379731 1.4585133e-08 0)
(0.0018143888 1.3660798e-08 0)
(0.0017917166 1.2737131e-08 0)
(0.001770018 1.1809557e-08 0)
(0.0017493663 1.0872868e-08 0)
(0.0017298539 9.9167545e-09 0)
(0.0017116082 8.9257969e-09 0)
(0.0016948018 7.8888136e-09 0)
(0.0016796348 6.787589e-09 0)
(0.0016663922 5.5302219e-09 0)
(0.0016557227 4.3784302e-09 0)
(0.0016468014 2.6742754e-09 0)
(0.0016434131 9.3100731e-10 0)
(0.0016423704 -6.3363971e-10 0)
(0.0016466786 -2.688064e-09 0)
(0.0016563997 -4.7931534e-09 0)
(0.001672605 -7.0700923e-09 0)
(0.0016961253 -9.378166e-09 0)
(0.0017274234 -1.1492663e-08 0)
(0.0017660923 -1.3313116e-08 0)
(0.0018119576 -1.4801264e-08 0)
(0.0018642249 -1.5523376e-08 0)
(0.0019195052 -1.4883952e-08 0)
(0.0019720711 -1.3204446e-08 0)
(0.002019767 -1.0386255e-08 0)
(0.002054656 -7.641107e-09 -2.663309e-24)
(0.0020837533 -5.6532322e-09 0)
(0.0021044036 -3.8571822e-09 0)
(0.0021195686 -2.6667814e-09 0)
(0.0021305581 -1.8050702e-09 0)
(0.0021382968 -1.1711062e-09 0)
(0.0021434303 -6.9441301e-10 0)
(0.0021463892 -3.2877212e-10 0)
(0.002147485 -3.152384e-11 0)
(0.002146751 2.2865622e-10 0)
(0.0021442155 4.5631571e-10 0)
(0.0021401035 6.5565906e-10 0)
(0.0021346166 8.2739744e-10 0)
(0.0021279901 9.6243499e-10 0)
(0.0021205259 1.0635879e-09 0)
(0.0021124183 1.1406775e-09 0)
(0.0021038255 1.1925244e-09 0)
(0.0020949587 1.2203836e-09 0)
(0.0020859579 1.2347385e-09 0)
(0.0020768809 1.2411012e-09 0)
(0.0020677869 1.2371787e-09 0)
(0.0020587674 1.2238656e-09 0)
(0.0020498683 1.207402e-09 0)
(0.0020410897 1.1922234e-09 0)
(0.0020324129 1.1778114e-09 0)
(0.0020238455 1.1629847e-09 0)
(0.0020153859 1.145779e-09 0)
(0.0020070704 1.1522851e-09 0)
(0.0019985158 1.1419468e-09 0)
(0.001990352 1.2505851e-09 0)
(0.0019802079 1.2561546e-09 0)
(0.0019719665 1.3802598e-09 0)
(0.0019599819 8.204604e-10 -8.5216565e-25)
(0.99999999 1.3355272e-08 0)
(0.99993005 4.0716443e-08 0)
(0.9998036 6.3777921e-08 0)
(0.99965524 8.3738361e-08 0)
(0.99948524 1.0879389e-07 0)
(0.99929052 1.4070525e-07 0)
(0.99906906 1.8083818e-07 0)
(0.99881834 2.3168555e-07 0)
(0.9985347 2.9670405e-07 0)
(0.99821335 3.8033111e-07 0)
(0.99784828 4.8837067e-07 0)
(0.99743198 6.2888443e-07 0)
(0.99695456 8.1271703e-07 0)
(0.99640353 1.0571302e-06 0)
(0.99575974 1.382341e-06 0)
(0.99500225 1.8384743e-06 0)
(0.99408102 2.4446855e-06 0)
(0.99297677 3.4414533e-06 0)
(0.99148233 4.6004894e-06 0)
(0.98976346 7.5485159e-06 0)
(0.98660827 9.8324674e-06 0)
(0.98371676 2.458859e-05 0)
(0.97235233 1.8536335e-05 0)
(0.97301844 0.0017101925 0)
(0.043512231 0.0017347543 0)
(0.017540865 2.7779509e-05 0)
(0.012500512 6.3876392e-06 0)
(0.010272358 3.0630524e-06 0)
(0.0089824695 1.8769903e-06 0)
(0.0080964474 1.3200163e-06 0)
(0.007438054 9.9793182e-07 0)
(0.0069178105 7.9323996e-07 0)
(0.006492124 6.4968285e-07 0)
(0.0061353816 5.4413444e-07 0)
(0.0058301326 4.6438643e-07 0)
(0.0055645095 4.0225046e-07 0)
(0.0053303475 3.5249241e-07 0)
(0.0051217359 3.1186637e-07 0)
(0.0049341926 2.7820604e-07 0)
(0.004764259 2.4993706e-07 0)
(0.0046092407 2.2590349e-07 0)
(0.0044669948 2.053237e-07 0)
(0.0043357052 1.8746267e-07 0)
(0.0042140823 1.7184158e-07 9.6133696e-35)
(0.0041008515 1.5815811e-07 0)
(0.0039950538 1.4603665e-07 0)
(0.0038958561 1.3525293e-07 0)
(0.0038025516 1.256072e-07 0)
(0.003714536 1.1693632e-07 0)
(0.0036312896 1.0910833e-07 0)
(0.003552359 1.0201453e-07 0)
(0.0034773485 9.5561845e-08 0)
(0.0034059114 8.9671851e-08 0)
(0.0033377421 8.4276791e-08 0)
(0.0032725725 7.9318322e-08 0)
(0.0032101649 7.4749022e-08 0)
(0.0031503054 7.0528425e-08 0)
(0.0030928027 6.6619708e-08 0)
(0.0030374856 6.2990747e-08 0)
(0.0029842001 5.9613956e-08 0)
(0.0029328074 5.6464013e-08 0)
(0.0028831837 5.3517852e-08 0)
(0.0028352182 5.0756748e-08 0)
(0.0027888093 4.8165494e-08 0)
(0.0027438635 4.5729351e-08 0)
(0.0027002968 4.3433664e-08 0)
(0.0026580342 4.1265367e-08 0)
(0.0026170086 3.9213327e-08 0)
(0.0025771596 3.7266992e-08 0)
(0.0025384344 3.5415392e-08 0)
(0.0025007891 3.3648632e-08 0)
(0.0024641864 3.1958625e-08 0)
(0.0024285954 3.0337576e-08 0)
(0.0023939923 2.8778132e-08 0)
(0.0023603597 2.7273504e-08 0)
(0.0023276875 2.5816543e-08 0)
(0.0022959743 2.4398409e-08 0)
(0.0022652317 2.3005527e-08 0)
(0.0022354948 2.1626742e-08 0)
(0.0022068093 2.0256145e-08 0)
(0.0021792331 1.8886537e-08 0)
(0.0021528412 1.751113e-08 0)
(0.0021277225 1.6122194e-08 0)
(0.0021039897 1.4704441e-08 0)
(0.0020817976 1.3235009e-08 0)
(0.0020613564 1.1697309e-08 0)
(0.0020429092 1.0064328e-08 0)
(0.0020268029 8.1998686e-09 0)
(0.0020138264 6.4917634e-09 0)
(0.0020029774 3.9648851e-09 0)
(0.0019988564 1.3799884e-09 0)
(0.0019975906 -9.4027594e-10 0)
(0.0020028321 -3.9864698e-09 0)
(0.0020146578 -7.1079291e-09 0)
(0.00203437 -1.0484057e-08 0)
(0.0020629791 -1.3906287e-08 0)
(0.0021010477 -1.7041476e-08 0)
(0.0021480809 -1.9740589e-08 0)
(0.0022038658 -2.1946743e-08 0)
(0.0022674351 -2.3016999e-08 0)
(0.0023346676 -2.2068704e-08 0)
(0.0023985989 -1.9578351e-08 0)
(0.0024566063 -1.539983e-08 0)
(0.0024990417 -1.1329899e-08 -3.1002325e-24)
(0.0025344306 -8.3823945e-09 0)
(0.0025595482 -5.7194965e-09 0)
(0.0025779942 -3.9543953e-09 0)
(0.0025913617 -2.676673e-09 0)
(0.0026007751 -1.7366286e-09 0)
(0.0026070199 -1.0297812e-09 0)
(0.0026106197 -4.8759449e-10 0)