# Region        : all region0
# Cells         : 7480
# Volume        : 2.33333000e+00
# Time          	max(U)
1               	(1.00346160e+00 2.34828426e-02 0.00000000e+00)
2               	(1.00477402e+00 3.11967468e-02 0.00000000e+00)
3               	(1.00511659e+00 3.58115846e-02 0.00000000e+00)
4               	(1.00515492e+00 3.84739821e-02 0.00000000e+00)
5               	(1.00541809e+00 3.95881030e-02 0.00000000e+00)
6               	(1.00586623e+00 3.98575324e-02 0.00000000e+00)
7               	(1.00643033e+00 4.00740055e-02 0.00000000e+00)
8               	(1.00701460e+00 4.02908141e-02 0.00000000e+00)
9               	(1.00749008e+00 4.03748992e-02 0.00000000e+00)
10              	(1.00779858e+00 4.04629407e-02 0.00000000e+00)
11              	(1.00804237e+00 4.05817043e-02 0.00000000e+00)
12              	(1.00831964e+00 4.07762578e-02 0.00000000e+00)
13              	(1.00848404e+00 4.09131315e-02 0.00000000e+00)
14              	(1.00883832e+00 4.08868919e-02 0.00000000e+00)
15              	(1.00880334e+00 4.10623150e-02 0.00000000e+00)
16              	(1.00868966e+00 4.11738327e-02 0.00000000e+00)
17              	(1.00883857e+00 4.13219270e-02 0.00000000e+00)
18              	(1.00903203e+00 4.14642231e-02 0.00000000e+00)
19              	(1.00925036e+00 4.15719717e-02 0.00000000e+00)
20              	(1.00954130e+00 4.16383531e-02 0.00000000e+00)
21              	(1.00984016e+00 4.16862484e-02 0.00000000e+00)
22              	(1.01011087e+00 4.17236257e-02 0.00000000e+00)
23              	(1.01034267e+00 4.17554414e-02 0.00000000e+00)
24              	(1.01053962e+00 4.17720288e-02 0.00000000e+00)
25              	(1.01070276e+00 4.17799036e-02 0.00000000e+00)
26              	(1.01082904e+00 4.17820239e-02 0.00000000e+00)
27              	(1.01092250e+00 4.17813044e-02 0.00000000e+00)
28              	(1.01099016e+00 4.17845979e-02 0.00000000e+00)
29              	(1.01104037e+00 4.18087616e-02 0.00000000e+00)
30              	(1.01108393e+00 4.18259112e-02 0.00000000e+00)
31              	(1.01112265e+00 4.18386967e-02 0.00000000e+00)
32              	(1.01115886e+00 4.18482523e-02 0.00000000e+00)
33              	(1.01119849e+00 4.18552959e-02 0.00000000e+00)
34              	(1.01124027e+00 4.18602549e-02 0.00000000e+00)
35              	(1.01128491e+00 4.18635786e-02 0.00000000e+00)
36              	(1.01132915e+00 4.18656527e-02 0.00000000e+00)
37              	(1.01137068e+00 4.18661940e-02 0.00000000e+00)
38              	(1.01140515e+00 4.18652921e-02 0.00000000e+00)
39              	(1.01143895e+00 4.18633427e-02 0.00000000e+00)
40              	(1.01146626e+00 4.18612010e-02 0.00000000e+00)
41              	(1.01148419e+00 4.18592563e-02 0.00000000e+00)
42              	(1.01149384e+00 4.18577096e-02 0.00000000e+00)
43              	(1.01149894e+00 4.18565348e-02 0.00000000e+00)
44              	(1.01150144e+00 4.18555747e-02 0.00000000e+00)
45              	(1.01150126e+00 4.18546798e-02 0.00000000e+00)
46              	(1.01149822e+00 4.18538788e-02 0.00000000e+00)
47              	(1.01149483e+00 4.18531019e-02 0.00000000e+00)
48              	(1.01148914e+00 4.18520854e-02 0.00000000e+00)
49              	(1.01148617e+00 4.18503208e-02 0.00000000e+00)
50              	(1.01148211e+00 4.18482012e-02 0.00000000e+00)
51              	(1.01148348e+00 4.18460892e-02 0.00000000e+00)
52              	(1.01148666e+00 4.18443432e-02 0.00000000e+00)
53              	(1.01148713e+00 4.18430932e-02 0.00000000e+00)
54              	(1.01148428e+00 4.18423256e-02 0.00000000e+00)
55              	(1.01148159e+00 4.18419177e-02 0.00000000e+00)
56              	(1.01147970e+00 4.18417476e-02 0.00000000e+00)
57              	(1.01148037e+00 4.18416514e-02 0.00000000e+00)
58              	(1.01148389e+00 4.18414810e-02 0.00000000e+00)
59              	(1.01149605e+00 4.18412437e-02 0.00000000e+00)
60              	(1.01151758e+00 4.18410181e-02 0.00000000e+00)
61              	(1.01153922e+00 4.18408257e-02 0.00000000e+00)
62              	(1.01155558e+00 4.18405862e-02 0.00000000e+00)
63              	(1.01156192e+00 4.18403299e-02 0.00000000e+00)
64              	(1.01156167e+00 4.18398400e-02 0.00000000e+00)
65              	(1.01155805e+00 4.18383439e-02 0.00000000e+00)
66              	(1.01155111e+00 4.18365451e-02 0.00000000e+00)
67              	(1.01153927e+00 4.18352337e-02 0.00000000e+00)
68              	(1.01152205e+00 4.18347961e-02 0.00000000e+00)
69              	(1.01150585e+00 4.18350478e-02 0.00000000e+00)
70              	(1.01148667e+00 4.18357006e-02 0.00000000e+00)
71              	(1.01146881e+00 4.18364403e-02 0.00000000e+00)
72              	(1.01145839e+00 4.18370440e-02 0.00000000e+00)
73              	(1.01145749e+00 4.18374439e-02 0.00000000e+00)
74              	(1.01146333e+00 4.18376798e-02 0.00000000e+00)
75              	(1.01147376e+00 4.18377771e-02 0.00000000e+00)
76              	(1.01148717e+00 4.18377497e-02 0.00000000e+00)
77              	(1.01150113e+00 4.18376663e-02 0.00000000e+00)
78              	(1.01151149e+00 4.18375250e-02 0.00000000e+00)
79              	(1.01151332e+00 4.18373014e-02 0.00000000e+00)
80              	(1.01150923e+00 4.18367966e-02 0.00000000e+00)
81              	(1.01150217e+00 4.18353154e-02 0.00000000e+00)
82              	(1.01148951e+00 4.18337845e-02 0.00000000e+00)
83              	(1.01147223e+00 4.18327794e-02 0.00000000e+00)
84              	(1.01145863e+00 4.18326417e-02 0.00000000e+00)
85              	(1.01144651e+00 4.18332214e-02 0.00000000e+00)
86              	(1.01143203e+00 4.18342072e-02 0.00000000e+00)
87              	(1.01141828e+00 4.18352182e-02 0.00000000e+00)
88              	(1.01140730e+00 4.18359879e-02 0.00000000e+00)
89              	(1.01140034e+00 4.18365157e-02 0.00000000e+00)
90              	(1.01140052e+00 4.18369154e-02 0.00000000e+00)
91              	(1.01140707e+00 4.18371580e-02 0.00000000e+00)
92              	(1.01141805e+00 4.18371077e-02 0.00000000e+00)
93              	(1.01142509e+00 4.18370581e-02 0.00000000e+00)
94              	(1.01143137e+00 4.18367208e-02 0.00000000e+00)
95              	(1.01143180e+00 4.18358557e-02 0.00000000e+00)
96              	(1.01143530e+00 4.18343089e-02 0.00000000e+00)
97              	(1.01143698e+00 4.18330541e-02 0.00000000e+00)
98              	(1.01143749e+00 4.18323756e-02 0.00000000e+00)
99              	(1.01143203e+00 4.18324993e-02 0.00000000e+00)
100             	(1.01142350e+00 4.18331844e-02 0.00000000e+00)
101             	(1.01141204e+00 4.18341557e-02 0.00000000e+00)
102             	(1.01140205e+00 4.18350531e-02 0.00000000e+00)
103             	(1.01139635e+00 4.18357551e-02 0.00000000e+00)
104             	(1.01139510e+00 4.18363347e-02 0.00000000e+00)
105             	(1.01139957e+00 4.18367484e-02 0.00000000e+00)
106             	(1.01140452e+00 4.18369664e-02 0.00000000e+00)
107             	(1.01140843e+00 4.18369985e-02 0.00000000e+00)
108             	(1.01140693e+00 4.18367990e-02 0.00000000e+00)
109             	(1.01140979e+00 4.18354910e-02 0.00000000e+00)
110             	(1.01141127e+00 4.18340118e-02 0.00000000e+00)
111             	(1.01141801e+00 4.18328954e-02 0.00000000e+00)
112             	(1.01142019e+00 4.18325285e-02 0.00000000e+00)
113             	(1.01141858e+00 4.18327854e-02 0.00000000e+00)
114             	(1.01141376e+00 4.18334592e-02 0.00000000e+00)
115             	(1.01140817e+00 4.18343082e-02 0.00000000e+00)
116             	(1.01140356e+00 4.18350779e-02 0.00000000e+00)
117             	(1.01140164e+00 4.18356643e-02 0.00000000e+00)
118             	(1.01140645e+00 4.18360563e-02 0.00000000e+00)
119             	(1.01141763e+00 4.18362919e-02 0.00000000e+00)
120             	(1.01143162e+00 4.18364244e-02 0.00000000e+00)
121             	(1.01144671e+00 4.18364767e-02 0.00000000e+00)
122             	(1.01145967e+00 4.18364578e-02 0.00000000e+00)
123             	(1.01146767e+00 4.18363379e-02 0.00000000e+00)
124             	(1.01146689e+00 4.18359141e-02 0.00000000e+00)
125             	(1.01146509e+00 4.18344802e-02 0.00000000e+00)
126             	(1.01146095e+00 4.18330333e-02 0.00000000e+00)
127             	(1.01145502e+00 4.18321194e-02 0.00000000e+00)
128             	(1.01144531e+00 4.18320645e-02 0.00000000e+00)
129             	(1.01143506e+00 4.18326790e-02 0.00000000e+00)
130             	(1.01142204e+00 4.18336871e-02 0.00000000e+00)
131             	(1.01140937e+00 4.18347281e-02 0.00000000e+00)
132             	(1.01139946e+00 4.18355446e-02 0.00000000e+00)
133             	(1.01139358e+00 4.18361107e-02 0.00000000e+00)
134             	(1.01139623e+00 4.18364630e-02 0.00000000e+00)
135             	(1.01140643e+00 4.18366471e-02 0.00000000e+00)
136             	(1.01141868e+00 4.18367554e-02 0.00000000e+00)
137             	(1.01143491e+00 4.18365511e-02 0.00000000e+00)
138             	(1.01144229e+00 4.18365539e-02 0.00000000e+00)
139             	(1.01144827e+00 4.18361123e-02 0.00000000e+00)
140             	(1.01144712e+00 4.18348835e-02 0.00000000e+00)
141             	(1.01144860e+00 4.18333805e-02 0.00000000e+00)
142             	(1.01144642e+00 4.18323418e-02 0.00000000e+00)
143             	(1.01144182e+00 4.18319956e-02 0.00000000e+00)
144             	(1.01143303e+00 4.18324486e-02 0.00000000e+00)
145             	(1.01142214e+00 4.18333653e-02 0.00000000e+00)
146             	(1.01140978e+00 4.18344398e-02 0.00000000e+00)
147             	(1.01139958e+00 4.18353167e-02 0.00000000e+00)
148             	(1.01139334e+00 4.18359403e-02 0.00000000e+00)
149             	(1.01139321e+00 4.18364371e-02 0.00000000e+00)
150             	(1.01139947e+00 4.18367732e-02 0.00000000e+00)
151             	(1.01140765e+00 4.18368770e-02 0.00000000e+00)
152             	(1.01141408e+00 4.18368449e-02 0.00000000e+00)
153             	(1.01141620e+00 4.18365983e-02 0.00000000e+00)
154             	(1.01141899e+00 4.18354298e-02 0.00000000e+00)
155             	(1.01142158e+00 4.18339330e-02 0.00000000e+00)
156             	(1.01142648e+00 4.18327725e-02 0.00000000e+00)
157             	(1.01142795e+00 4.18322992e-02 0.00000000e+00)
158             	(1.01142564e+00 4.18325384e-02 0.00000000e+00)
159             	(1.01141950e+00 4.18332570e-02 0.00000000e+00)
160             	(1.01141110e+00 4.18341841e-02 0.00000000e+00)
161             	(1.01140388e+00 4.18350261e-02 0.00000000e+00)
162             	(1.01139981e+00 4.18356582e-02 0.00000000e+00)
163             	(1.01140240e+00 4.18361022e-02 0.00000000e+00)
164             	(1.01141082e+00 4.18364282e-02 0.00000000e+00)
165             	(1.01142258e+00 4.18366044e-02 0.00000000e+00)
166             	(1.01143434e+00 4.18366320e-02 0.00000000e+00)
167             	(1.01144318e+00 4.18365804e-02 0.00000000e+00)
168             	(1.01144604e+00 4.18363392e-02 0.00000000e+00)
169             	(1.01144637e+00 4.18352570e-02 0.00000000e+00)
170             	(1.01144657e+00 4.18337273e-02 0.00000000e+00)
171             	(1.01144609e+00 4.18325551e-02 0.00000000e+00)
172             	(1.01144247e+00 4.18321259e-02 0.00000000e+00)
173             	(1.01143653e+00 4.18324395e-02 0.00000000e+00)
174             	(1.01142699e+00 4.18332433e-02 0.00000000e+00)
175             	(1.01141575e+00 4.18342435e-02 0.00000000e+00)
176             	(1.01140623e+00 4.18351196e-02 0.00000000e+00)
177             	(1.01139959e+00 4.18357777e-02 0.00000000e+00)
178             	(1.01140044e+00 4.18362185e-02 0.00000000e+00)
179             	(1.01140921e+00 4.18364651e-02 0.00000000e+00)
180             	(1.01142162e+00 4.18365809e-02 0.00000000e+00)
181             	(1.01143628e+00 4.18365877e-02 0.00000000e+00)
182             	(1.01144887e+00 4.18365043e-02 0.00000000e+00)
183             	(1.01145668e+00 4.18363135e-02 0.00000000e+00)
184             	(1.01145662e+00 4.18357999e-02 0.00000000e+00)
185             	(1.01145682e+00 4.18343068e-02 0.00000000e+00)
186             	(1.01145427e+00 4.18329259e-02 0.00000000e+00)
187             	(1.01145040e+00 4.18320866e-02 0.00000000e+00)
188             	(1.01144207e+00 4.18320840e-02 0.00000000e+00)
189             	(1.01143242e+00 4.18327434e-02 0.00000000e+00)
190             	(1.01142002e+00 4.18337642e-02 0.00000000e+00)
191             	(1.01140806e+00 4.18347852e-02 0.00000000e+00)
192             	(1.01139878e+00 4.18355750e-02 0.00000000e+00)
193             	(1.01139422e+00 4.18361223e-02 0.00000000e+00)
194             	(1.01139741e+00 4.18365227e-02 0.00000000e+00)
195             	(1.01140571e+00 4.18367775e-02 0.00000000e+00)
196             	(1.01141789e+00 4.18367497e-02 0.00000000e+00)
197             	(1.01142552e+00 4.18367416e-02 0.00000000e+00)
198             	(1.01143174e+00 4.18364472e-02 0.00000000e+00)
199             	(1.01143205e+00 4.18355686e-02 0.00000000e+00)
200             	(1.01143541e+00 4.18340298e-02 0.00000000e+00)
201             	(1.01143663e+00 4.18327947e-02 0.00000000e+00)
202             	(1.01143689e+00 4.18321611e-02 0.00000000e+00)
203             	(1.01143189e+00 4.18323365e-02 0.00000000e+00)
204             	(1.01142439e+00 4.18330465e-02 0.00000000e+00)
205             	(1.01141379e+00 4.18340395e-02 0.00000000e+00)
206             	(1.01140441e+00 4.18349500e-02 0.00000000e+00)
207             	(1.01139791e+00 4.18356494e-02 0.00000000e+00)
208             	(1.01139790e+00 4.18361637e-02 0.00000000e+00)
209             	(1.01140313e+00 4.18365695e-02 0.00000000e+00)
210             	(1.01141362e+00 4.18367200e-02 0.00000000e+00)
211             	(1.01142103e+00 4.18368163e-02 0.00000000e+00)
212             	(1.01142862e+00 4.18366595e-02 0.00000000e+00)
213             	(1.01142778e+00 4.18362684e-02 0.00000000e+00)
214             	(1.01143138e+00 4.18347876e-02 0.00000000e+00)
215             	(1.01143201e+00 4.18333567e-02 0.00000000e+00)
216             	(1.01143483e+00 4.18324045e-02 0.00000000e+00)
217             	(1.01143287e+00 4.18322574e-02 0.00000000e+00)
218             	(1.01142797e+00 4.18327354e-02 0.00000000e+00)
219             	(1.01141950e+00 4.18335952e-02 0.00000000e+00)
220             	(1.01141053e+00 4.18345386e-02 0.00000000e+00)
221             	(1.01140339e+00 4.18353262e-02 0.00000000e+00)
222             	(1.01140045e+00 4.18358933e-02 0.00000000e+00)
223             	(1.01140540e+00 4.18362544e-02 0.00000000e+00)
224             	(1.01141642e+00 4.18364706e-02 0.00000000e+00)
225             	(1.01142866e+00 4.18366152e-02 0.00000000e+00)
226             	(1.01144470e+00 4.18364835e-02 0.00000000e+00)
227             	(1.01145226e+00 4.18365604e-02 0.00000000e+00)
228             	(1.01145910e+00 4.18362134e-02 0.00000000e+00)
229             	(1.01145609e+00 4.18352231e-02 0.00000000e+00)
230             	(1.01145684e+00 4.18336566e-02 0.00000000e+00)
231             	(1.01145289e+00 4.18324799e-02 0.00000000e+00)
232             	(1.01144769e+00 4.18319828e-02 0.00000000e+00)
233             	(1.01143874e+00 4.18323235e-02 0.00000000e+00)
234             	(1.01142803e+00 4.18331667e-02 0.00000000e+00)
235             	(1.01141513e+00 4.18342353e-02 0.00000000e+00)
236             	(1.01140426e+00 4.18351561e-02 0.00000000e+00)
237             	(1.01139643e+00 4.18358378e-02 0.00000000e+00)
238             	(1.01139527e+00 4.18362963e-02 0.00000000e+00)
239             	(1.01140233e+00 4.18365927e-02 0.00000000e+00)
240             	(1.01141259e+00 4.18367830e-02 0.00000000e+00)
241             	(1.01142753e+00 4.18366519e-02 0.00000000e+00)
242             	(1.01143508e+00 4.18366666e-02 0.00000000e+00)
243             	(1.01144182e+00 4.18363049e-02 0.00000000e+00)
244             	(1.01144113e+00 4.18352727e-02 0.00000000e+00)
245             	(1.01144363e+00 4.18337322e-02 0.00000000e+00)
246             	(1.01144308e+00 4.18325701e-02 0.00000000e+00)
247             	(1.01144084e+00 4.18320473e-02 0.00000000e+00)
248             	(1.01143352e+00 4.18323485e-02 0.00000000e+00)
249             	(1.01142438e+00 4.18331542e-02 0.00000000e+00)
250             	(1.01141268e+00 4.18341981e-02 0.00000000e+00)
251             	(1.01140273e+00 4.18351104e-02 0.00000000e+00)
252             	(1.01139583e+00 4.18357817e-02 0.00000000e+00)
253             	(1.01139566e+00 4.18362787e-02 0.00000000e+00)
254             	(1.01140079e+00 4.18366747e-02 0.00000000e+00)
255             	(1.01141147e+00 4.18367812e-02 0.00000000e+00)
256             	(1.01141840e+00 4.18368423e-02 0.00000000e+00)
257             	(1.01142513e+00 4.18366248e-02 0.00000000e+00)
258             	(1.01142463e+00 4.18360623e-02 0.00000000e+00)
259             	(1.01142883e+00 4.18345280e-02 0.00000000e+00)
260             	(1.01143053e+00 4.18331647e-02 0.00000000e+00)
261             	(1.01143322e+00 4.18323312e-02 0.00000000e+00)
262             	(1.01143099e+00 4.18322972e-02 0.00000000e+00)
263             	(1.01142560e+00 4.18328541e-02 0.00000000e+00)
264             	(1.01141680e+00 4.18337516e-02 0.00000000e+00)
265             	(1.01140804e+00 4.18346781e-02 0.00000000e+00)
266             	(1.01140137e+00 4.18354351e-02 0.00000000e+00)
267             	(1.01140028e+00 4.18359688e-02 0.00000000e+00)
268             	(1.01140646e+00 4.18363394e-02 0.00000000e+00)
269             	(1.01141636e+00 4.18365842e-02 0.00000000e+00)
270             	(1.01143011e+00 4.18366003e-02 0.00000000e+00)
271             	(1.01143926e+00 4.18366576e-02 0.00000000e+00)
272             	(1.01144826e+00 4.18364543e-02 0.00000000e+00)
273             	(1.01144681e+00 4.18359998e-02 0.00000000e+00)
274             	(1.01144902e+00 4.18344779e-02 0.00000000e+00)
275             	(1.01144736e+00 4.18330635e-02 0.00000000e+00)
276             	(1.01144618e+00 4.18321802e-02 0.00000000e+00)
277             	(1.01144011e+00 4.18321524e-02 0.00000000e+00)
278             	(1.01143254e+00 4.18327436e-02 0.00000000e+00)
279             	(1.01142130e+00 4.18337076e-02 0.00000000e+00)
280             	(1.01141045e+00 4.18346884e-02 0.00000000e+00)
281             	(1.01140168e+00 4.18354832e-02 0.00000000e+00)
282             	(1.01139770e+00 4.18360455e-02 0.00000000e+00)
283             	(1.01140219e+00 4.18363881e-02 0.00000000e+00)
284             	(1.01141314e+00 4.18365670e-02 0.00000000e+00)
285             	(1.01142517e+00 4.18366904e-02 0.00000000e+00)
286             	(1.01144125e+00 4.18365135e-02 0.00000000e+00)
287             	(1.01144850e+00 4.18365386e-02 0.00000000e+00)
288             	(1.01145422e+00 4.18361316e-02 0.00000000e+00)
289             	(1.01145231e+00 4.18349494e-02 0.00000000e+00)
290             	(1.01145308e+00 4.18334243e-02 0.00000000e+00)
291             	(1.01144974e+00 4.18323541e-02 0.00000000e+00)
292             	(1.01144430e+00 4.18319810e-02 0.00000000e+00)
293             	(1.01143529e+00 4.18324119e-02 0.00000000e+00)
294             	(1.01142435e+00 4.18333127e-02 0.00000000e+00)
295             	(1.01141171e+00 4.18343927e-02 0.00000000e+00)
296             	(1.01140126e+00 4.18352870e-02 0.00000000e+00)
297             	(1.01139420e+00 4.18359182e-02 0.00000000e+00)
298             	(1.01139440e+00 4.18363766e-02 0.00000000e+00)
299             	(1.01140048e+00 4.18367156e-02 0.00000000e+00)
300             	(1.01141249e+00 4.18367696e-02 0.00000000e+00)
301             	(1.01142048e+00 4.18368204e-02 0.00000000e+00)
302             	(1.01142905e+00 4.18365754e-02 0.00000000e+00)
303             	(1.01142862e+00 4.18360623e-02 0.00000000e+00)
304             	(1.01143308e+00 4.18345305e-02 0.00000000e+00)
305             	(1.01143423e+00 4.18331514e-02 0.00000000e+00)
306             	(1.01143645e+00 4.18322832e-02 0.00000000e+00)
307             	(1.01143332e+00 4.18322186e-02 0.00000000e+00)
308             	(1.01142713e+00 4.18327802e-02 0.00000000e+00)
309             	(1.01141758e+00 4.18337038e-02 0.00000000e+00)
310             	(1.01140795e+00 4.18346597e-02 0.00000000e+00)
311             	(1.01140043e+00 4.18354358e-02 0.00000000e+00)
312             	(1.01139837e+00 4.18359915e-02 0.00000000e+00)
313             	(1.01140277e+00 4.18364088e-02 0.00000000e+00)
314             	(1.01141192e+00 4.18366646e-02 0.00000000e+00)
315             	(1.01142251e+00 4.18367327e-02 0.00000000e+00)
316             	(1.01143102e+00 4.18366938e-02 0.00000000e+00)
317             	(1.01143485e+00 4.18364850e-02 0.00000000e+00)
318             	(1.01143551e+00 4.18355943e-02 0.00000000e+00)
319             	(1.01143734e+00 4.18340579e-02 0.00000000e+00)
320             	(1.01143848e+00 4.18327984e-02 0.00000000e+00)
321             	(1.01143775e+00 4.18322080e-02 0.00000000e+00)
322             	(1.01143392e+00 4.18323834e-02 0.00000000e+00)
323             	(1.01142643e+00 4.18330871e-02 0.00000000e+00)
324             	(1.01141638e+00 4.18340467e-02 0.00000000e+00)
325             	(1.01140739e+00 4.18349381e-02 0.00000000e+00)
326             	(1.01140090e+00 4.18356330e-02 0.00000000e+00)
327             	(1.01140127e+00 4.18361068e-02 0.00000000e+00)
328             	(1.01140918e+00 4.18364024e-02 0.00000000e+00)
329             	(1.01142068e+00 4.18365662e-02 0.00000000e+00)
330             	(1.01143479e+00 4.18365878e-02 0.00000000e+00)
331             	(1.01144635e+00 4.18365512e-02 0.00000000e+00)
332             	(1.01145460e+00 4.18363695e-02 0.00000000e+00)
333             	(1.01145425e+00 4.18359086e-02 0.00000000e+00)
334             	(1.01145496e+00 4.18344274e-02 0.00000000e+00)
335             	(1.01145261e+00 4.18330215e-02 0.00000000e+00)
336             	(1.01144960e+00 4.18321382e-02 0.00000000e+00)
337             	(1.01144202e+00 4.18320912e-02 0.00000000e+00)
338             	(1.01143310e+00 4.18327050e-02 0.00000000e+00)
339             	(1.01142117e+00 4.18336978e-02 0.00000000e+00)
340             	(1.01140937e+00 4.18347171e-02 0.00000000e+00)
341             	(1.01140012e+00 4.18355189e-02 0.00000000e+00)
342             	(1.01139520e+00 4.18360753e-02 0.00000000e+00)
343             	(1.01139864e+00 4.18364538e-02 0.00000000e+00)
344             	(1.01140759e+00 4.18366917e-02 0.00000000e+00)
345             	(1.01142080e+00 4.18367075e-02 0.00000000e+00)
346             	(1.01143096e+00 4.18366921e-02 0.00000000e+00)
347             	(1.01143977e+00 4.18364586e-02 0.00000000e+00)
348             	(1.01143974e+00 4.18359734e-02 0.00000000e+00)
349             	(1.01144283e+00 4.18344659e-02 0.00000000e+00)
350             	(1.01144245e+00 4.18330849e-02 0.00000000e+00)
351             	(1.01144251e+00 4.18322101e-02 0.00000000e+00)
352             	(1.01143727e+00 4.18321430e-02 0.00000000e+00)
353             	(1.01142962e+00 4.18327260e-02 0.00000000e+00)
354             	(1.01141873e+00 4.18336898e-02 0.00000000e+00)
355             	(1.01140789e+00 4.18346828e-02 0.00000000e+00)
356             	(1.01139930e+00 4.18354773e-02 0.00000000e+00)
357             	(1.01139601e+00 4.18360405e-02 0.00000000e+00)
358             	(1.01139911e+00 4.18364731e-02 0.00000000e+00)
359             	(1.01140785e+00 4.18367245e-02 0.00000000e+00)
360             	(1.01141720e+00 4.18368006e-02 0.00000000e+00)
361             	(1.01142537e+00 4.18367301e-02 0.00000000e+00)
362             	(1.01142792e+00 4.18364972e-02 0.00000000e+00)
363             	(1.01142994e+00 4.18354166e-02 0.00000000e+00)
364             	(1.01143167e+00 4.18338989e-02 0.00000000e+00)
365             	(1.01143451e+00 4.18327099e-02 0.00000000e+00)
366             	(1.01143413e+00 4.18322242e-02 0.00000000e+00)
367             	(1.01143070e+00 4.18324643e-02 0.00000000e+00)
368             	(1.01142343e+00 4.18332039e-02 0.00000000e+00)
369             	(1.01141391e+00 4.18341601e-02 0.00000000e+00)
370             	(1.01140554e+00 4.18350254e-02 0.00000000e+00)
371             	(1.01140002e+00 4.18356812e-02 0.00000000e+00)
372             	(1.01140156e+00 4.18361240e-02 0.00000000e+00)
373             	(1.01141002e+00 4.18364268e-02 0.00000000e+00)
374             	(1.01142105e+00 4.18366242e-02 0.00000000e+00)
375             	(1.01143595e+00 4.18365572e-02 0.00000000e+00)
376             	(1.01144395e+00 4.18366252e-02 0.00000000e+00)
377             	(1.01145179e+00 4.18363363e-02 0.00000000e+00)
378             	(1.01144941e+00 4.18356041e-02 0.00000000e+00)
379             	(1.01145131e+00 4.18340254e-02 0.00000000e+00)
380             	(1.01144889e+00 4.18327369e-02 0.00000000e+00)
381             	(1.01144607e+00 4.18320559e-02 0.00000000e+00)
382             	(1.01143838e+00 4.18322424e-02 0.00000000e+00)
383             	(1.01142945e+00 4.18329746e-02 0.00000000e+00)
384             	(1.01141739e+00 4.18340005e-02 0.00000000e+00)
385             	(1.01140680e+00 4.18349444e-02 0.00000000e+00)
386             	(1.01139873e+00 4.18356800e-02 0.00000000e+00)
387             	(1.01139653e+00 4.18361887e-02 0.00000000e+00)
388             	(1.01140278e+00 4.18365135e-02 0.00000000e+00)
389             	(1.01141312e+00 4.18366967e-02 0.00000000e+00)
390             	(1.01142759e+00 4.18366439e-02 0.00000000e+00)
391             	(1.01143698e+00 4.18366554e-02 0.00000000e+00)
392             	(1.01144571e+00 4.18363653e-02 0.00000000e+00)
393             	(1.01144439e+00 4.18357431e-02 0.00000000e+00)
394             	(1.01144713e+00 4.18341815e-02 0.00000000e+00)
395             	(1.01144590e+00 4.18328567e-02 0.00000000e+00)
396             	(1.01144430e+00 4.18320967e-02 0.00000000e+00)
397             	(1.01143750e+00 4.18321867e-02 0.00000000e+00)
398             	(1.01142893e+00 4.18328702e-02 0.00000000e+00)
399             	(1.01141723e+00 4.18338814e-02 0.00000000e+00)
400             	(1.01140651e+00 4.18348472e-02 0.00000000e+00)
401             	(1.01139824e+00 4.18356040e-02 0.00000000e+00)
402             	(1.01139602e+00 4.18361414e-02 0.00000000e+00)
403             	(1.01140043e+00 4.18365383e-02 0.00000000e+00)
404             	(1.01140978e+00 4.18367506e-02 0.00000000e+00)
405             	(1.01141989e+00 4.18367764e-02 0.00000000e+00)
406             	(1.01142808e+00 4.18366886e-02 0.00000000e+00)
407             	(1.01143093e+00 4.18364234e-02 0.00000000e+00)
408             	(1.01143293e+00 4.18353027e-02 0.00000000e+00)
409             	(1.01143452e+00 4.18337947e-02 0.00000000e+00)
410             	(1.01143667e+00 4.18326369e-02 0.00000000e+00)
411             	(1.01143550e+00 4.18321700e-02 0.00000000e+00)
412             	(1.01143096e+00 4.18324500e-02 0.00000000e+00)
413             	(1.01142311e+00 4.18332223e-02 0.00000000e+00)
414             	(1.01141290e+00 4.18342108e-02 0.00000000e+00)
415             	(1.01140407e+00 4.18350850e-02 0.00000000e+00)
416             	(1.01139840e+00 4.18357330e-02 0.00000000e+00)
417             	(1.01139976e+00 4.18361811e-02 0.00000000e+00)
418             	(1.01140730e+00 4.18365059e-02 0.00000000e+00)
419             	(1.01141844e+00 4.18366806e-02 0.00000000e+00)
420             	(1.01143063e+00 4.18366616e-02 0.00000000e+00)
421             	(1.01143885e+00 4.18366044e-02 0.00000000e+00)
422             	(1.01144225e+00 4.18363177e-02 0.00000000e+00)
423             	(1.01144280e+00 4.18351874e-02 0.00000000e+00)
424             	(1.01144360e+00 4.18336685e-02 0.00000000e+00)
425             	(1.01144362e+00 4.18325282e-02 0.00000000e+00)
426             	(1.01144045e+00 4.18321083e-02 0.00000000e+00)
427             	(1.01143438e+00 4.18324455e-02 0.00000000e+00)
428             	(1.01142517e+00 4.18332620e-02 0.00000000e+00)
429             	(1.01141407e+00 4.18342740e-02 0.00000000e+00)
430             	(1.01140474e+00 4.18351490e-02 0.00000000e+00)
431             	(1.01139833e+00 4.18357969e-02 0.00000000e+00)
432             	(1.01139922e+00 4.18362278e-02 0.00000000e+00)
433             	(1.01140772e+00 4.18365069e-02 0.00000000e+00)
434             	(1.01141882e+00 4.18366825e-02 0.00000000e+00)
435             	(1.01143431e+00 4.18365708e-02 0.00000000e+00)
436             	(1.01144225e+00 4.18366338e-02 0.00000000e+00)
437             	(1.01145016e+00 4.18363026e-02 0.00000000e+00)
438             	(1.01144795e+00 4.18354500e-02 0.00000000e+00)
439             	(1.01145002e+00 4.18338776e-02 0.00000000e+00)
440             	(1.01144788e+00 4.18326427e-02 0.00000000e+00)
441             	(1.01144504e+00 4.18320303e-02 0.00000000e+00)
442             	(1.01143718e+00 4.18322740e-02 0.00000000e+00)
443             	(1.01142781e+00 4.18330491e-02 0.00000000e+00)
444             	(1.01141560e+00 4.18340916e-02 0.00000000e+00)
445             	(1.01140511e+00 4.18350254e-02 0.00000000e+00)
446             	(1.01139736e+00 4.18357350e-02 0.00000000e+00)
447             	(1.01139602e+00 4.18362310e-02 0.00000000e+00)
448             	(1.01140185e+00 4.18365826e-02 0.00000000e+00)
449             	(1.01141186e+00 4.18367696e-02 0.00000000e+00)
450             	(1.01142363e+00 4.18367263e-02 0.00000000e+00)
451             	(1.01143143e+00 4.18366577e-02 0.00000000e+00)
452             	(1.01143517e+00 4.18363412e-02 0.00000000e+00)
453             	(1.01143648e+00 4.18351745e-02 0.00000000e+00)
454             	(1.01143821e+00 4.18336717e-02 0.00000000e+00)
455             	(1.01143937e+00 4.18325517e-02 0.00000000e+00)
456             	(1.01143731e+00 4.18321225e-02 0.00000000e+00)
457             	(1.01143145e+00 4.18324542e-02 0.00000000e+00)
458             	(1.01142268e+00 4.18332667e-02 0.00000000e+00)
459             	(1.01141186e+00 4.18342803e-02 0.00000000e+00)
460             	(1.01140273e+00 4.18351545e-02 0.00000000e+00)
461             	(1.01139700e+00 4.18357903e-02 0.00000000e+00)
462             	(1.01139817e+00 4.18362585e-02 0.00000000e+00)
463             	(1.01140461e+00 4.18366194e-02 0.00000000e+00)
464             	(1.01141627e+00 4.18367134e-02 0.00000000e+00)
465             	(1.01142400e+00 4.18367911e-02 0.00000000e+00)
466             	(1.01143201e+00 4.18365925e-02 0.00000000e+00)
467             	(1.01143117e+00 4.18361410e-02 0.00000000e+00)