/*--------------------------------*- C++ -*----------------------------------*\
| =========                 |                                                 |
| \\      /  F ield         | OpenFOAM: The Open Source CFD Toolbox           |
|  \\    /   O peration     | Version:  2206                                  |
|   \\  /    A nd           | Website:  www.openfoam.com                      |
|    \\/     M anipulation  |                                                 |
\*---------------------------------------------------------------------------*/
FoamFile
{
    version     2.0;
    format      ascii;
    arch        "LSB;label=32;scalar=64";
    class       volScalarField;
    location    "1100";
    object      epsilon;
}
// * * * * * * * * * * * * * * * * * * * * * * * * * * * * * * * * * * * * * //

dimensions      [0 2 -3 0 0 0 0];

internalField   nonuniform List<scalar> 
7480
(
5.7733825
15.518371
18.081176
15.977417
12.854287
10.354418
8.6676412
7.5151004
6.668628
6.0043272
5.4654862
5.0239558
4.6607309
4.3607583
4.1118353
3.90368
3.7286424
3.5809395
3.4552992
3.3481916
3.2550095
3.1730675
3.1000846
3.0342089
2.9742103
2.9190873
2.8681433
2.8207048
2.7761783
2.7340743
2.6941093
2.6560873
2.6198024
2.5850836
2.5517411
2.5196805
2.4886561
2.4586148
2.4294746
2.4011375
2.3735328
2.3465971
2.3202816
2.294553
2.2693731
2.2447132
2.2205371
2.1968075
2.1735024
2.1505983
2.1280767
2.1059248
2.0841273
2.0626755
2.0415546
2.0207539
2.0002644
1.9800728
1.9601666
1.9405368
1.9211811
1.9020952
1.8832721
1.8647063
1.8463928
1.828327
1.8105016
1.7929108
1.7755508
1.7584181
1.7415083
1.7248171
1.7083408
1.6920767
1.6760206
1.6601683
1.6445159
1.6290597
1.6137961
1.5987216
1.5838323
1.5691245
1.5545943
1.5402374
1.5260496
1.5120257
1.4981606
1.4844468
1.4708792
1.4574429
1.4441379
1.4309206
1.4178303
1.4046961
1.3917639
1.3783411
1.365436
1.3506252
1.3387957
1.316273
0.34600631
1.5987819
2.8404352
3.297132
3.1718624
2.8634279
2.5623713
2.3178883
2.1192001
1.9491588
1.8008238
1.6726012
1.5631084
1.4701639
1.3913399
1.3239504
1.2661953
1.2167084
1.1741666
1.1372915
1.1049634
1.0762762
1.0504944
1.0270806
1.0056716
0.9859572
0.96771837
0.95071497
0.93474458
0.91964828
0.90533052
0.89172229
0.87875238
0.86635894
0.85446921
0.843055
0.83202172
0.82135445
0.81102619
0.8010007
0.79124962
0.7817513
0.77248808
0.76344576
0.75461077
0.74597161
0.73751428
0.72922582
0.72109678
0.71311893
0.70528553
0.69759092
0.69002948
0.6825969
0.67528782
0.66809825
0.66102424
0.65406084
0.64720314
0.64044798
0.6337939
0.62723912
0.62078088
0.6144168
0.60814498
0.60196348
0.5958695
0.58986082
0.58393592
0.57809333
0.57233135
0.56664826
0.56104264
0.55551333
0.55005875
0.54467726
0.53936738
0.53412776
0.52895701
0.52385379
0.51881674
0.51384445
0.50893554
0.50408851
0.49930186
0.49457388
0.48990283
0.48528645
0.48072278
0.47620794
0.4717406
0.46731072
0.46292394
0.45854379
0.45421523
0.44979398
0.44547225
0.44072922
0.43668574
0.42939552
0.010405056
0.063478105
0.16365491
0.28144477
0.38473958
0.47595619
0.55953377
0.63103718
0.68677746
0.7281122
0.75664155
0.77313661
0.77891811
0.77621697
0.76761742
0.75550939
0.74155942
0.72676054
0.71170066
0.69670805
0.68199707
0.66769988
0.6538715
0.64056589
0.62782307
0.61563211
0.60404033
0.59297939
0.58240102
0.57226467
0.56255636
0.55325791
0.54434331
0.53578778
0.52755373
0.51963462
0.51197609
0.50457781
0.49742404
0.49049366
0.48376947
0.47723839
0.47088931
0.46471187
0.45869658
0.45283483
0.44711647
0.44153285
0.43607669
0.43074177
0.42552289
0.42041491
0.41541314
0.41051336
0.4057111
0.40100291
0.39638502
0.39185342
0.38740428
0.3830349
0.37874331
0.37452743
0.37038473
0.36631296
0.36231023
0.35837461
0.35450376
0.35069578
0.34694919
0.34326248
0.33963411
0.33606255
0.33254646
0.32908467
0.32567579
0.32231843
0.31901137
0.31575341
0.31254341
0.30938023
0.30626276
0.30318989
0.30016052
0.29717353
0.2942278
0.29132212
0.28845527
0.28562585
0.28283242
0.28007301
0.2773461
0.27464763
0.27197744
0.26932306
0.26669434
0.26404486
0.26142383
0.25865057
0.25617099
0.2518523
0.00038691785
0.0025320255
0.0090779595
0.019203124
0.032008773
0.047126744
0.066728527
0.090983983
0.12644759
0.17015133
0.21724268
0.26303779
0.30616354
0.34559854
0.38009133
0.40853114
0.43043696
0.4460826
0.45631606
0.46218955
0.4646777
0.46457527
0.46250381
0.45895331
0.45432882
0.44893725
0.4430407
0.43682348
0.43041377
0.42391231
0.41739594
0.41092303
0.40453384
0.39825898
0.3921084
0.38610485
0.38021956
0.37448213
0.36888789
0.36343541
0.35812184
0.35294431
0.34789983
0.3429847
0.33819501
0.33352663
0.32897368
0.3245316
0.32019609
0.3159632
0.31182944
0.3077911
0.30384475
0.29998703
0.29621436
0.29252382
0.28891223
0.28537635
0.28191305
0.27851997
0.27519509
0.27193638
0.26874154
0.26560846
0.26253531
0.2595202
0.25656107
0.25365615
0.25080398
0.24800306
0.24525192
0.2425491
0.23989328
0.23728326
0.23471772
0.2321954
0.22971511
0.22727574
0.22487621
0.22251545
0.22019243
0.21790614
0.21565559
0.21343978
0.21125773
0.20910842
0.20699083
0.20490385
0.20284632
0.20081691
0.19881419
0.19683615
0.19488105
0.19294438
0.19102539
0.18910977
0.18720286
0.18523733
0.1834262
0.18034773
4.3084224e-05
0.0001510864
0.00054114841
0.0014273169
0.0029180254
0.0049289307
0.0074629716
0.010682009
0.015205077
0.021910436
0.031446503
0.046269471
0.066518766
0.090989162
0.11833787
0.14738562
0.17723464
0.20670798
0.2343718
0.25888306
0.27937735
0.29562923
0.30792595
0.31680501
0.32284485
0.3265562
0.32838636
0.32872139
0.32788802
0.32615041
0.32371817
0.32076056
0.31741285
0.31378188
0.30994952
0.30599033
0.30193612
0.29783556
0.293721
0.28961493
0.28553491
0.28149563
0.27750833
0.27358112
0.26972022
0.26593005
0.26221224
0.25856763
0.25499652
0.25149915
0.24807556
0.24472506
0.24144668
0.23823917
0.2351009
0.23203043
0.22902594
0.22608544
0.22320684
0.22038855
0.21762916
0.21492716
0.21228081
0.2096885
0.2071487
0.20465985
0.20222025
0.19982845
0.19748314
0.19518303
0.19292681
0.19071318
0.18854096
0.18640903
0.18431622
0.18226138
0.18024344
0.17826139
0.17631423
0.17440099
0.17252073
0.17067254
0.1688555
0.16706874
0.16531136
0.16358249
0.16188123
0.16020666
0.15855779
0.15693363
0.1553329
0.15375452
0.15219633
0.15065723
0.14913264
0.14762161
0.14611332
0.14458802
0.14316124
0.14076368
1.8796211e-05
3.2262052e-05
6.8789827e-05
0.00014821451
0.00029881303
0.00054751932
0.00091916091
0.0014350781
0.0021288756
0.0030744511
0.0043654366
0.0062592751
0.0090717278
0.013125275
0.019261545
0.028553369
0.041041569
0.056743969
0.075178471
0.095798449
0.11787202
0.14035104
0.1619706
0.18158233
0.19845239
0.21234303
0.22339228
0.23191812
0.23827584
0.24279868
0.245789
0.24751854
0.24822295
0.24809944
0.24731052
0.24599752
0.24426274
0.24219796
0.23987891
0.23736555
0.23470637
0.23194103
0.229102
0.22621568
0.22330336
0.22038225
0.217466
0.21456504
0.21168763
0.20884048
0.20602893
0.20325699
0.20052777
0.19784357
0.1952059
0.19261607
0.19007436
0.18758072
0.18513479
0.18273633
0.18038504
0.17808043
0.17582172
0.17360806
0.17143863
0.1693125
0.16722857
0.16518584
0.16318342
0.16122034
0.15929563
0.15740824
0.15555727
0.15374182
0.15196092
0.15021362
0.14849902
0.14681626
0.14516449
0.14354286
0.14195056
0.14038678
0.13885075
0.13734168
0.1358588
0.13440134
0.13296853
0.1315596
0.13017369
0.12881004
0.12746752
0.12614555
0.12484195
0.12355721
0.12228555
0.12103176
0.11977961
0.11853017
0.11735659
0.11538875
1.4755524e-05
1.8317417e-05
2.5656288e-05
3.9016771e-05
6.1477196e-05
9.7009761e-05
0.0001508267
0.00022949676
0.00034121063
0.00049797255
0.00071464997
0.0010169227
0.0014445193
0.0020474412
0.002914031
0.0042107631
0.0061300167
0.0088952714
0.013194615
0.019679464
0.028607605
0.040176399
0.054079453
0.069960847
0.087171698
0.10477824
0.12173108
0.13715634
0.15055098
0.16178308
0.17095843
0.17828005
0.1839712
0.18825192
0.19133169
0.19340605
0.19464016
0.19517683
0.19513947
0.19463209
0.1937417
0.192541
0.1910908
0.18944199
0.18763691
0.18571062
0.18369243
0.18160625
0.17947169
0.17730499
0.17511954
0.1729264
0.17073456
0.16855143
0.166383
0.16423418
0.16210885
0.16000989
0.1579395
0.15589946
0.15389119
0.15191575
0.14997375
0.14806558
0.14619149
0.14435149
0.14254527
0.14077257
0.13903309
0.13732642
0.13565207
0.13400947
0.13239805
0.13081722
0.12926635
0.12774478
0.12625184
0.12478688
0.12334926
0.12193832
0.12055341
0.11919388
0.11785909
0.1165484
0.11526116
0.11399673
0.11275447
0.11153373
0.11033381
0.1091541
0.10799363
0.10685211
0.10572753
0.10462109
0.10352694
0.10245217
0.10137972
0.10031923
0.099326008
0.097655118
1.3584985e-05
1.5066183e-05
1.7554484e-05
2.1471961e-05
2.7334122e-05
3.5764976e-05
4.7566442e-05
6.3811272e-05
8.5911511e-05
0.00011587908
0.00015646015
0.00021167189
0.00028765074
0.00039296384
0.00054001075
0.00074960109
0.0010523903
0.0014858518
0.0021255927
0.0030970824
0.004564823
0.0067195995
0.010195307
0.015414534
0.022672525
0.03209035
0.043464767
0.056432745
0.070360361
0.084407237
0.097751329
0.10980486
0.12028988
0.12916946
0.13653179
0.14251372
0.14726597
0.15094293
0.15369419
0.15565603
0.15694915
0.15767915
0.15793741
0.15780253
0.15734167
0.15661178
0.15566145
0.15453161
0.15325665
0.15186548
0.15038232
0.14882761
0.14721846
0.1455692
0.14389191
0.14219665
0.14049188
0.13878452
0.13708025
0.13538376
0.13369895
0.13202908
0.13037671
0.12874388
0.12713228
0.12554323
0.12397764
0.12243622
0.1209195
0.11942785
0.11796146
0.11652037
0.1151045
0.11371376
0.11234792
0.11100669
0.10968975
0.10839675
0.10712731
0.10588101
0.10465743
0.10345611
0.10227659
0.10111841
0.099981062
0.098864071
0.097766921
0.096689118
0.095630087
0.094589378
0.093566188
0.092560392
0.091570247
0.090597224
0.089635925
0.088694044
0.087755702
0.086833167
0.085975323
0.084523253
1.3016349e-05
1.3888133e-05
1.5054855e-05
1.6646975e-05
1.8831366e-05
2.1782613e-05
2.5677951e-05
3.0735537e-05
3.7225303e-05
4.5509922e-05
5.6083335e-05
6.9634249e-05
8.7163779e-05
0.00011010816
0.00014051521
0.0001814981
0.00023788894
0.00031630299
0.00042716207
0.00058766008
0.00082479227
0.0011718989
0.0017038952
0.0025343668
0.0038089741
0.0057961468
0.0089972593
0.013723933
0.020245101
0.028514271
0.038350891
0.049332406
0.060814621
0.072087238
0.082575675
0.091949086
0.10009358
0.10702354
0.11281155
0.11755643
0.12136995
0.12436583
0.12665156
0.12832549
0.12947597
0.13018098
0.13050891
0.13051913
0.13026274
0.12978359
0.12911907
0.12830117
0.12735713
0.12631014
0.12517999
0.1239834
0.12273469
0.12144594
0.12012736
0.11878751
0.11743365
0.1160719
0.11470741
0.11334444
0.11198659
0.1106369
0.10929784
0.10797143
0.10665934
0.10536295
0.10408334
0.10282136
0.10157763
0.10035264
0.099146739
0.097960129
0.096792923
0.095645156
0.094516792
0.093407732
0.092317826
0.091246877
0.090194653
0.089160889
0.088145288
0.087147539
0.086167296
0.085204218
0.084257888
0.083327999
0.082413924
0.081515672
0.080631773
0.079763783
0.078906948
0.078068765
0.077235342
0.076418714
0.075666513
0.074383694
1.2597282e-05
1.3227463e-05
1.3944655e-05
1.4770672e-05
1.5777809e-05
1.7048144e-05
1.8669898e-05
2.0720875e-05
2.3276225e-05
2.6423029e-05
3.0273047e-05
3.4976748e-05
4.0726123e-05
4.7794235e-05
5.6570213e-05
6.7604924e-05
8.1717158e-05
0.00010006635
0.00012434826
0.00015717172
0.00020275746
0.00026688366
0.00035951847
0.00049757974
0.00070622223
0.0010255708
0.0015339161
0.0023465447
0.0036024238
0.0056950862
0.0089526257
0.013645695
0.019860054
0.02750135
0.036281215
0.045701306
0.05516546
0.064157367
0.072350582
0.079602515
0.085887175
0.09123706
0.095714923
0.099400439
0.1023793
0.10473556
0.10654845
0.10789071
0.1088277
0.10941741
0.10971067
0.1097519
0.10957968
0.10922735
0.10872374
0.10809359
0.10735827
0.10653613
0.10564292
0.10469208
0.10369505
0.10266166
0.10160028
0.10051801
0.099420926
0.09831422
0.097202325
0.096088951
0.09497724
0.093869854
0.092769031
0.091676628
0.090594176
0.089522939
0.088463964
0.087418082
0.086385964
0.085368132
0.08436499
0.083376832
0.082403858
0.081446189
0.080503875
0.079576908
0.078665225
0.077768726
0.076887261
0.076020671
0.075168713
0.074331235
0.073507797
0.072698525
0.071902237
0.071120477
0.070349198
0.069595338
0.068847224
0.068115353
0.067448242
0.066301455
1.2237529e-05
1.272881e-05
1.3250779e-05
1.3783385e-05
1.4351872e-05
1.5002001e-05
1.5786822e-05
1.6754082e-05
1.7941388e-05
1.9380566e-05
2.1104147e-05
2.3148044e-05
2.5571847e-05
2.8450504e-05
3.1876229e-05
3.5974441e-05
4.0922417e-05
4.697142e-05
5.4435421e-05
6.3790683e-05
7.5774622e-05
9.1425898e-05
0.00011233236
0.00014106569
0.00018165394
0.00024029161
0.00032787642
0.00046321726
0.0006719716
0.0010090427
0.0015634451
0.0024493887
0.003928255
0.0063212806
0.0098861998
0.014753123
0.020880951
0.028059965
0.035887395
0.043861355
0.051536105
0.058619486
0.064970618
0.070546539
0.075356944
0.079441689
0.082858346
0.08567191
0.08794825
0.089750905
0.091139072
0.092166782
0.092882566
0.09332951
0.093545648
0.093564264
0.093414483
0.093121717
0.092708056
0.092192611
0.091591861
0.090920038
0.09018943
0.089410617
0.088592699
0.087743544
0.086869952
0.085977733
0.085071861
0.084156607
0.083235631
0.082312054
0.081388526
0.080467291
0.079550266
0.078639061
0.077735032
0.076839314
0.075952853
0.075076427
0.07421067
0.07335609
0.072513085
0.071681959
0.070862932
0.070056158
0.069261721
0.068479671
0.067709969
0.066952637
0.066207435
0.065474613
0.064753277
0.06404493
0.06334623
0.06266342
0.06198701
0.061325461
0.060728808
0.059694892
1.1918195e-05
1.2308994e-05
1.2716958e-05
1.311222e-05
1.3496018e-05
1.3889313e-05
1.4323758e-05
1.4832571e-05
1.5443629e-05
1.617855e-05
1.7055073e-05
1.8088274e-05
1.9296626e-05
2.0703276e-05
2.2335906e-05
2.4228864e-05
2.6427265e-05
2.8986932e-05
3.2014475e-05
3.5629362e-05
3.9995607e-05
4.5341547e-05
5.2000444e-05
6.0419137e-05
7.1319623e-05
8.5781626e-05
0.00010551295
0.00013343598
0.00017382676
0.00023431482
0.00032876426
0.00047775586
0.00072108961
0.0011302953
0.0018026299
0.0029395713
0.0048267296
0.0077013488
0.011694618
0.016791149
0.022819603
0.029434388
0.036207711
0.042764996
0.048861017
0.054372236
0.059253263
0.063503297
0.067148983
0.070233132
0.072805791
0.074919028
0.076623897
0.077968582
0.078997553
0.079751113
0.080265469
0.080572887
0.080701933
0.080677734
0.080522264
0.080254725
0.07989187
0.079448285
0.078936637
0.078367947
0.077751814
0.077096549
0.076409333
0.075696382
0.074963077
0.074214068
0.073453363
0.072684405
0.071910169
0.071133211
0.070355724
0.069579585
0.068806403
0.068037544
0.067274168
0.066517251
0.065767612
0.065025931
0.064292767
0.063568578
0.062853724
0.062148505
0.061453113
0.060767775
0.060092469
0.059427584
0.058772518
0.058128736
0.057493571
0.056872561
0.05625823
0.055656945
0.055120143
0.054182493
1.163111e-05
1.1944137e-05
1.2270623e-05
1.2583616e-05
1.287544e-05
1.3152607e-05
1.3431372e-05
1.373242e-05
1.4075768e-05
1.4478558e-05
1.4954987e-05
1.5516359e-05
1.6172657e-05
1.6934049e-05
1.7811718e-05
1.8818438e-05
1.9969738e-05
2.1283097e-05
2.278769e-05
2.45206e-05
2.6528055e-05
2.8870392e-05
3.162112e-05
3.4926885e-05
3.8957954e-05
4.395129e-05
5.0258608e-05
5.8407538e-05
6.9177068e-05
8.3819309e-05
0.00010451415
0.00013463861
0.00017999704
0.00025150103
0.00036627214
0.00055656689
0.00088346413
0.0014325545
0.0023813507
0.0039786707
0.0064393856
0.0098726434
0.014268111
0.019465492
0.025150817
0.030956552
0.03657626
0.041814861
0.046572309
0.050808499
0.054519795
0.057725905
0.060459906
0.062761191
0.064671403
0.0662318
0.067481773
0.068458004
0.06919408
0.069720352
0.070063976
0.070249109
0.070297138
0.070226934
0.070055074
0.069796103
0.069462785
0.069066282
0.068616327
0.068121409
0.067588928
0.067025336
0.066436247
0.065826527
0.065200417
0.064561596
0.063913258
0.06325817
0.062598729
0.061937007
0.061274792
0.060613622
0.059954815
0.059299501
0.058648641
0.058003054
0.057363426
0.056730348
0.056104285
0.055485697
0.054874807
0.05427217
0.053677479
0.053092186
0.052514254
0.051948574
0.051389474
0.050841379
0.050356676
0.04950318
1.1369184e-05
1.16216e-05
1.1885403e-05
1.2139442e-05
1.2374456e-05
1.2590492e-05
1.2794708e-05
1.2998416e-05
1.3214097e-05
1.345386e-05
1.3728845e-05
1.4048677e-05
1.4421495e-05
1.4854434e-05
1.5354221e-05
1.5927612e-05
1.6581872e-05
1.7324704e-05
1.8166289e-05
1.9120021e-05
2.0202542e-05
2.1434967e-05
2.2840911e-05
2.4460077e-05
2.6343644e-05
2.8557273e-05
3.1183065e-05
3.4367967e-05
3.8317082e-05
4.3301484e-05
4.9758885e-05
5.8311022e-05
6.9949658e-05
8.6433813e-05
0.0001105885
0.00014723277
0.00020568768
0.00030093689
0.00046199642
0.00074457289
0.0012270427
0.00208331
0.0035294772
0.0057570399
0.0088385261
0.012754352
0.017335359
0.022289202
0.027303283
0.032135034
0.036636118
0.040730039
0.044385409
0.047599883
0.050389681
0.052781493
0.054807272
0.056500943
0.057896303
0.059025765
0.059919643
0.060605829
0.061109654
0.061453939
0.06165908
0.061743214
0.06172243
0.061610951
0.061421308
0.061164519
0.060850267
0.060487051
0.060082325
0.059642604
0.059173595
0.058680288
0.058167046
0.057637679
0.057095514
0.056543451
0.055984017
0.055419412
0.054851545
0.054282074
0.053712433
0.053143864
0.052577436
0.052014082
0.051454581
0.050899664
0.050349832
0.049805832
0.049267668
0.04873681
0.048211814
0.047697005
0.047188302
0.046688448
0.046250192
0.045471953
1.1126241e-05
1.1331435e-05
1.154624e-05
1.1754753e-05
1.1948613e-05
1.2125603e-05
1.2288453e-05
1.2442931e-05
1.2596025e-05
1.2755161e-05
1.2927922e-05
1.3121606e-05
1.3342901e-05
1.359779e-05
1.3891666e-05
1.4229515e-05
1.4616092e-05
1.5056053e-05
1.5554454e-05
1.61173e-05
1.6751805e-05
1.7466899e-05
1.8272644e-05
1.9182725e-05
2.0215323e-05
2.1393875e-05
2.2745889e-05
2.431262e-05
2.6153105e-05
2.8343511e-05
3.0982881e-05
3.4254514e-05
3.8401078e-05
4.3787669e-05
5.0980884e-05
6.0811245e-05
7.4817724e-05
9.5507502e-05
0.0001272502
0.00017869027
0.00026371985
0.00041105568
0.00067487883
0.0011307346
0.0019618118
0.0033550826
0.0054613851
0.0083320134
0.011914243
0.016018858
0.020374881
0.024725751
0.02888834
0.032754528
0.036268519
0.039408443
0.042174956
0.044582654
0.046654029
0.04841563
0.04989551
0.051121626
0.052120823
0.052918288
0.053537246
0.053998853
0.05432223
0.054524547
0.054621144
0.054625666
0.054550222
0.05440553
0.054201067
0.053945181
0.05364523
0.053307689
0.052938254
0.05254193
0.052123114
0.051685664
0.051232964
0.05076798
0.050293306
0.049811215
0.049323693
0.048832474
0.048339071
0.047844814
0.047350842
0.046858205
0.046367713
0.045880345
0.045396429
0.044917495
0.044442659
0.043975781
0.043514162
0.043059168
0.0426633
0.041953818
1.0897398e-05
1.106565e-05
1.124198e-05
1.1414544e-05
1.1576372e-05
1.1724663e-05
1.1860183e-05
1.1985875e-05
1.2105551e-05
1.2223412e-05
1.2344028e-05
1.2472183e-05
1.2612687e-05
1.2770196e-05
1.2949124e-05
1.3153609e-05
1.3387485e-05
1.3654339e-05
1.3957669e-05
1.4301093e-05
1.4688555e-05
1.5124588e-05
1.5614285e-05
1.6163758e-05
1.6780678e-05
1.7474845e-05
1.8257901e-05
1.9144941e-05
2.0156589e-05
2.1320049e-05
2.2667745e-05
2.4251245e-05
2.6141378e-05
2.8433346e-05
3.1264379e-05
3.4875927e-05
3.9599827e-05
4.5960668e-05
5.4730048e-05
6.7359998e-05
8.621193e-05
0.00011560146
0.00016419809
0.00024568155
0.00039147561
0.00065470044
0.0011293322
0.0019882199
0.0033969828
0.0054621161
0.0082059316
0.011534916
0.015243083
0.019088816
0.022871882
0.026460307
0.029778105
0.03278689
0.035473647
0.037842043
0.039905906
0.041684889
0.043201546
0.044479435
0.045541884
0.046411244
0.047108473
0.047652935
0.048062321
0.048352662
0.048538394
0.048632455
0.0486464
0.048590511
0.048473919
0.048304718
0.048090074
0.047836323
0.047549061
0.047233227
0.046893179
0.046532754
0.046155332
0.045763891
0.045361046
0.0449491
0.044530076
0.044105759
0.043677704
0.043247327
0.042815785
0.04238433
0.041953638
0.041525342
0.041099094
0.04067839
0.040261734
0.039849422
0.039493127
0.038847754
1.0678993e-05
1.081813e-05
1.0964071e-05
1.1107995e-05
1.1244234e-05
1.1369984e-05
1.148511e-05
1.1591149e-05
1.1690272e-05
1.1784874e-05
1.1877585e-05
1.1971258e-05
1.2068937e-05
1.2173802e-05
1.2289092e-05
1.2418037e-05
1.2563751e-05
1.27292e-05
1.2917221e-05
1.3130575e-05
1.3372019e-05
1.3644435e-05
1.3950903e-05
1.4294825e-05
1.4680127e-05
1.5111559e-05
1.5594763e-05
1.6136575e-05
1.6745696e-05
1.7433466e-05
1.8213472e-05
1.9104193e-05
2.013082e-05
2.1326482e-05
2.2733958e-05
2.4421312e-05
2.6482019e-05
2.9040735e-05
3.2323255e-05
3.6660145e-05
4.2556819e-05
5.079018e-05
6.2840958e-05
8.1044853e-05
0.00011017155
0.00015899608
0.00024376116
0.00039980049
0.00068179963
0.0012096855
0.0021415047
0.0036150703
0.0056938863
0.0083571442
0.011468705
0.014821517
0.018215347
0.021503413
0.02459422
0.027436207
0.030005137
0.032295355
0.034313079
0.036071732
0.037588779
0.038883601
0.039976112
0.040885894
0.041631657
0.042230932
0.042699918
0.043053433
0.043304928
0.043466538
0.043549164
0.04356256
0.043515435
0.043415545
0.043269787
0.043084283
0.042864466
0.042615146
0.042340581
0.04204454
0.041730353
0.041400966
0.04105898
0.040706699
0.040346151
0.039979166
0.039607296
0.039232111
0.038854655
0.038476721
0.038098474
0.037723151
0.037350302
0.036979449
0.03666091
0.036076476
1.0468337e-05
1.0584333e-05
1.0706087e-05
1.0827012e-05
1.0942554e-05
1.10501e-05
1.1149073e-05
1.1240235e-05
1.1324889e-05
1.1404496e-05
1.148063e-05
1.1554974e-05
1.162934e-05
1.1705688e-05
1.1786137e-05
1.1872935e-05
1.1968386e-05
1.2074797e-05
1.2194455e-05
1.2329603e-05
1.2482436e-05
1.2655139e-05
1.2849925e-05
1.3069092e-05
1.3315095e-05
1.359068e-05
1.3898978e-05
1.4243618e-05
1.4628935e-05
1.5060325e-05
1.5544294e-05
1.6088998e-05
1.6705038e-05
1.7406202e-05
1.8209657e-05
1.9139396e-05
2.0228621e-05
2.1518739e-05
2.3075005e-05
2.499144e-05
2.7395398e-05
3.0501194e-05
3.4660927e-05
4.0381128e-05
4.8521721e-05
6.0615146e-05
7.931125e-05
0.00011020584
0.0001627946
0.00025804454
0.00043557326
0.00076525959
0.0013840262
0.0024312666
0.0040000754
0.0061163585
0.0087052028
0.011602023
0.014619351
0.017604609
0.020455887
0.023111883
0.02553969
0.027726071
0.029670809
0.031381898
0.03287226
0.034157495
0.035254386
0.036179914
0.036950627
0.037582262
0.038089532
0.038486017
0.038784142
0.03899519
0.039129358
0.039195822
0.039202811
0.03915769
0.039067031
0.038936696
0.0387719
0.038577283
0.038356963
0.038114603
0.037853448
0.037576388
0.037285978
0.03698452
0.036674006
0.036356366
0.036033051
0.035706058
0.035376059
0.035046132
0.034716739
0.034386908
0.034105129
0.033579681
1.0263476e-05
1.0360925e-05
1.0463266e-05
1.0565573e-05
1.0664208e-05
1.075683e-05
1.0842638e-05
1.0921926e-05
1.0995475e-05
1.1064231e-05
1.1129213e-05
1.119148e-05
1.1252136e-05
1.131236e-05
1.1373442e-05
1.1436809e-05
1.1503994e-05
1.157662e-05
1.1656376e-05
1.1744994e-05
1.1844212e-05
1.1955765e-05
1.208139e-05
1.2222843e-05
1.2381914e-05
1.2560483e-05
1.2760581e-05
1.2984439e-05
1.3234581e-05
1.3513959e-05
1.3826058e-05
1.417505e-05
1.4566086e-05
1.5005668e-05
1.5501813e-05
1.6064841e-05
1.6708603e-05
1.7450358e-05
1.8313903e-05
1.933276e-05
2.055045e-05
2.2031052e-05
2.3873939e-05
2.621045e-05
2.9271462e-05
3.3428997e-05
3.9240346e-05
4.7715734e-05
6.0532869e-05
8.104731e-05
0.00011580553
0.00017697996
0.00029238669
0.00050688642
0.00092201168
0.0016685664
0.00285712
0.0045394711
0.0066874082
0.0091784601
0.011845934
0.014539426
0.017151642
0.019614708
0.021889349
0.023956449
0.025810588
0.027455245
0.028899465
0.030155545
0.031237459
0.032159805
0.032937116
0.033583426
0.034112008
0.034535226
0.034864481
0.035110197
0.035281849
0.035388005
0.035436388
0.035433936
0.035386866
0.035300744
0.035180539
0.035030688
0.034855146
0.034657444
0.034440721
0.034207804
0.033961172
0.033703167
0.033435674
0.03316095
0.032880174
0.032596354
0.03231076
0.032022176
0.031776853
0.031309472
1.0063002e-05
1.0145464e-05
1.0232102e-05
1.0319215e-05
1.0403916e-05
1.048416e-05
1.0559054e-05
1.0628592e-05
1.0693212e-05
1.0753528e-05
1.081024e-05
1.086407e-05
1.0915749e-05
1.0966024e-05
1.1015689e-05
1.1065617e-05
1.1116763e-05
1.1170173e-05
1.1226984e-05
1.1288415e-05
1.1355746e-05
1.1430294e-05
1.1513408e-05
1.1606458e-05
1.1710837e-05
1.1827971e-05
1.195934e-05
1.2106512e-05
1.2271171e-05
1.2455183e-05
1.2660654e-05
1.2890006e-05
1.3146086e-05
1.3432337e-05
1.3752928e-05
1.411298e-05
1.4519055e-05
1.4979334e-05
1.5504318e-05
1.6108129e-05
1.6808981e-05
1.7631185e-05
1.8610057e-05
1.9791289e-05
2.1243853e-05
2.3074767e-05
2.5424378e-05
2.8566733e-05
3.2902431e-05
3.9114065e-05
4.8381878e-05
6.2782195e-05
8.6863496e-05
0.00012846662
0.00020593537
0.00035327367
0.0006385289
0.0011776596
0.0020851809
0.0034287207
0.0052135349
0.0073539333
0.009706548
0.01212838
0.014510984
0.016782841
0.018900489
0.02084057
0.022593683
0.024159706
0.025544481
0.026757488
0.027810248
0.02871523
0.029485133
0.030132411
0.030668978
0.031106042
0.031454015
0.031722475
0.03192018
0.032055088
0.032134402
0.032164621
0.03215159
0.032100561
0.032016241
0.031902851
0.031764163
0.031603577
0.031424102
0.03122854
0.031019245
0.030798783
0.030568846
0.030332462
0.030091617
0.029845087
0.02963651
0.029227176
9.865912e-06
9.9361741e-06
1.0010012e-05
1.0084635e-05
1.0157762e-05
1.0227638e-05
1.0293363e-05
1.0354746e-05
1.0411983e-05
1.046546e-05
1.0515658e-05
1.0563095e-05
1.0608294e-05
1.0651773e-05
1.0694057e-05
1.0735704e-05
1.0777309e-05
1.081952e-05
1.0863057e-05
1.0908715e-05
1.0957357e-05
1.100991e-05
1.1067354e-05
1.1130713e-05
1.1201049e-05
1.1279457e-05
1.1367071e-05
1.1465069e-05
1.1574688e-05
1.1697246e-05
1.1834174e-05
1.1987049e-05
1.2157648e-05
1.234802e-05
1.2560564e-05
1.2798126e-05
1.3064188e-05
1.3363015e-05
1.3699886e-05
1.4081564e-05
1.4516672e-05
1.5016195e-05
1.5595086e-05
1.6272673e-05
1.7075119e-05
1.8040976e-05
1.9218794e-05
2.0688886e-05
2.2568708e-05
2.50217e-05
2.8381957e-05
3.3110411e-05
4.0096436e-05
5.0753864e-05
6.8134736e-05
9.7999577e-05
0.00015242667
0.00025735473
0.00045940045
0.00085685268
0.001559046
0.0026426818
0.0041343917
0.0059784531
0.0080543271
0.010229427
0.012397388
0.014485527
0.016448114
0.018259062
0.019906125
0.021386432
0.022703261
0.023863755
0.02487734
0.025754624
0.026506665
0.027144483
0.027678744
0.028119573
0.028476444
0.028758128
0.028972686
0.029127477
0.029229189
0.029283884
0.029297031
0.029273567
0.029217929
0.029134125
0.029025735
0.02889606
0.028747955
0.028584344
0.02840744
0.02822037
0.028025773
0.027822615
0.027651597
0.027301086
9.6715127e-06
9.7317703e-06
9.7951013e-06
9.8593872e-06
9.9228334e-06
9.9839558e-06
1.0041897e-05
1.0096358e-05
1.0147371e-05
1.0195155e-05
1.024003e-05
1.028237e-05
1.0322563e-05
1.0360994e-05
1.0398044e-05
1.04341e-05
1.0469557e-05
1.0504831e-05
1.0540374e-05
1.0576687e-05
1.0614321e-05
1.0653884e-05
1.0696035e-05
1.0741488e-05
1.0791007e-05
1.0845395e-05
1.0905502e-05
1.0972217e-05
1.1046472e-05
1.1129253e-05
1.1221603e-05
1.1324647e-05
1.1439607e-05
1.1567837e-05
1.1710867e-05
1.1870448e-05
1.2048631e-05
1.2247855e-05
1.247105e-05
1.2721817e-05
1.3004642e-05
1.3325099e-05
1.3690386e-05
1.4109726e-05
1.459495e-05
1.5162468e-05
1.5833022e-05
1.6636301e-05
1.7615375e-05
1.8824746e-05
2.0361819e-05
2.2357237e-05
2.5036549e-05
2.8773558e-05
3.4214048e-05
4.2447081e-05
5.5557468e-05
7.7959893e-05
0.00011790064
0.0001952883
0.00034405863
0.00064413943
0.0011961449
0.0020825963
0.0033415756
0.0049395754
0.0067763906
0.0087312274
0.01070221
0.012617533
0.014430793
0.016114434
0.017654353
0.01904569
0.020289745
0.021391772
0.022359442
0.023201765
0.023928364
0.024548977
0.025073139
0.025509978
0.025868095
0.026155502
0.026379594
0.026547156
0.026664383
0.026736906
0.026769832
0.026767791
0.026734955
0.026675151
0.026591766
0.026488121
0.026366958
0.026231578
0.026085213
0.02592721
0.025795025
0.025504834
9.4793389e-06
9.5313364e-06
9.5859842e-06
9.6416632e-06
9.6969632e-06
9.7506451e-06
9.8019216e-06
9.8504401e-06
9.8961262e-06
9.9390741e-06
9.9794857e-06
1.0017624e-05
1.0053778e-05
1.0088242e-05
1.0121307e-05
1.0153265e-05
1.0184403e-05
1.0215009e-05
1.0245385e-05
1.0275855e-05
1.0306767e-05
1.0338506e-05
1.0371496e-05
1.0406204e-05
1.044314e-05
1.0482861e-05
1.0525965e-05
1.0573097e-05
1.0624943e-05
1.0682233e-05
1.0745746e-05
1.081631e-05
1.0894815e-05
1.0982226e-05
1.1079601e-05
1.1188114e-05
1.1309093e-05
1.1444065e-05
1.1594804e-05
1.1763418e-05
1.195245e-05
1.2164987e-05
1.2404862e-05
1.2676887e-05
1.298707e-05
1.3343309e-05
1.3755616e-05
1.4237182e-05
1.4806467e-05
1.5486497e-05
1.6312605e-05
1.7332516e-05
1.8617489e-05
2.0278645e-05
2.248094e-05
2.5525654e-05
2.9894733e-05
3.6486152e-05
4.6780397e-05
6.4212774e-05
9.4844892e-05
0.00015379377
0.00026876862
0.00050196541
0.00094536368
0.0016821578
0.0027572612
0.0041529291
0.0057857051
0.007546422
0.009339108
0.011094358
0.012766369
0.014327158
0.015761601
0.017063503
0.018232701
0.019272966
0.020190535
0.020993068
0.021688947
0.022286781
0.022795091
0.023222102
0.023575611
0.023862923
0.024090814
0.024265531
0.024392795
0.024477839
0.024525418
0.024539898
0.024525205
0.024485085
0.024422822
0.024341943
0.024246236
0.024135585
0.024043919
0.023816185
9.2890986e-06
9.3342319e-06
9.3816578e-06
9.430129e-06
9.4785382e-06
9.5258604e-06
9.5713924e-06
9.6147642e-06
9.6558342e-06
9.6946101e-06
9.7312038e-06
9.7657922e-06
9.7985863e-06
9.8298108e-06
9.8596941e-06
9.8884642e-06
9.9163442e-06
9.9435529e-06
9.970309e-06
9.9968367e-06
1.002337e-05
1.0050157e-05
1.0077469e-05
1.01056e-05
1.0134878e-05
1.0165665e-05
1.0198358e-05
1.0233398e-05
1.0271263e-05
1.0312472e-05
1.035759e-05
1.0407221e-05
1.0462019e-05
1.0522688e-05
1.0589993e-05
1.0664767e-05
1.0747933e-05
1.0840519e-05
1.094369e-05
1.1058783e-05
1.1187361e-05
1.1331274e-05
1.1492743e-05
1.1674481e-05
1.1879808e-05
1.2112909e-05
1.2379039e-05
1.2684838e-05
1.3039181e-05
1.3453184e-05
1.3942233e-05
1.4526947e-05
1.5235655e-05
1.6109699e-05
1.720573e-05
1.8616328e-05
2.0477799e-05
2.3021339e-05
2.6637104e-05
3.2062672e-05
4.044855e-05
5.4444174e-05
7.8962179e-05
0.00012566088
0.00021755389
0.00040466783
0.00076986833
0.0013938091
0.0023247652
0.0035555076
0.0050157048
0.0066069016
0.0082397514
0.0098483315
0.01138842
0.012832435
0.014164912
0.015378876