/*--------------------------------*- C++ -*----------------------------------*\
| =========                 |                                                 |
| \\      /  F ield         | OpenFOAM: The Open Source CFD Toolbox           |
|  \\    /   O peration     | Version:  2206                                  |
|   \\  /    A nd           | Website:  www.openfoam.com                      |
|    \\/     M anipulation  |                                                 |
\*---------------------------------------------------------------------------*/
FoamFile
{
    version     2.0;
    format      ascii;
    arch        "LSB;label=32;scalar=64";
    class       volScalarField;
    location    "1100";
    object      k;
}
// * * * * * * * * * * * * * * * * * * * * * * * * * * * * * * * * * * * * * //

dimensions      [0 2 -2 0 0 0 0];

internalField   nonuniform List<scalar> 
7480
(
0.03217677
0.062204178
0.068876845
0.063424914
0.054864022
0.047497738
0.042188092
0.038360056
0.0354226
0.033029278
0.031022403
0.029328295
0.027897096
0.026686873
0.02566139
0.02478787
0.024041244
0.023402079
0.022851442
0.022376734
0.021959613
0.021589507
0.021257175
0.02095496
0.020677798
0.020421512
0.020183217
0.019960047
0.019749436
0.019549244
0.01935827
0.019175702
0.01900066
0.018832415
0.018670129
0.018513415
0.018361131
0.018213069
0.018068871
0.017928092
0.017790419
0.017655567
0.017523321
0.01739354
0.017266056
0.017140747
0.017017451
0.016895996
0.016776287
0.01665822
0.016541716
0.016426723
0.016313175
0.016201041
0.016090256
0.015980777
0.015872568
0.01576557
0.015659728
0.015555005
0.015451397
0.015348892
0.015247463
0.015147088
0.01504775
0.014949434
0.014852108
0.01475575
0.014660346
0.014565886
0.014472354
0.014379733
0.014288012
0.014197182
0.014107228
0.014018134
0.013929884
0.013842465
0.013755864
0.013670067
0.01358506
0.013500826
0.013417352
0.013334616
0.013252603
0.013171286
0.013090643
0.013010635
0.012931236
0.012852365
0.012774026
0.012695965
0.012618416
0.012540367
0.01246328
0.012383016
0.012305602
0.012216455
0.012145019
0.012008423
0.0025337622
0.00955987
0.016654758
0.020686603
0.021734228
0.021464253
0.02082868
0.020179082
0.019545428
0.018915682
0.01830571
0.017740543
0.017234241
0.016788935
0.016401395
0.016058768
0.015760068
0.015503732
0.01528427
0.015093252
0.014924315
0.014771727
0.014630851
0.014499124
0.01437544
0.014258437
0.014147767
0.014041487
0.013938299
0.013837422
0.0137389
0.013642732
0.013548688
0.013456612
0.013365969
0.01327701
0.013188601
0.013101245
0.013014847
0.012929175
0.0128441
0.012759573
0.012675593
0.01259215
0.012509233
0.012426848
0.012344915
0.012263394
0.012182275
0.012101549
0.012021237
0.011941348
0.011861891
0.011782884
0.011704317
0.011626209
0.011548562
0.011471359
0.011394582
0.011318241
0.011242367
0.011166978
0.011092075
0.011017662
0.010943752
0.010870351
0.010797449
0.010725045
0.01065315
0.010581769
0.010510906
0.010440559
0.010370733
0.010301435
0.010232662
0.010164413
0.010096685
0.01002948
0.0099627948
0.0098966286
0.0098309787
0.0097658419
0.009701214
0.0096370896
0.0095734622
0.0095103232
0.0094476623
0.0093854653
0.0093237155
0.0092623875
0.0092014552
0.0091408619
0.0090805792
0.00902043
0.0089604824
0.008900033
0.0088396519
0.0087762325
0.0087197653
0.0086176111
0.00022488763
0.00057535564
0.0013106761
0.002633097
0.0042086856
0.0058221619
0.0072757523
0.0085099065
0.0095739295
0.010501679
0.011297575
0.011956888
0.012483733
0.012895432
0.013215473
0.013471956
0.013680146
0.013848407
0.013982856
0.014087998
0.014168129
0.014226692
0.014265819
0.014289106
0.01429951
0.014298365
0.014290518
0.01427435
0.014250847
0.014220647
0.014185416
0.014146039
0.014103054
0.01405705
0.014007838
0.013956578
0.013901851
0.01384537
0.013786984
0.01372673
0.013664746
0.013601222
0.013536362
0.013470323
0.013403254
0.0133353
0.013266465
0.013196832
0.013126486
0.013055508
0.01298401
0.012912067
0.012839762
0.012767171
0.012694329
0.012621314
0.012548167
0.012474908
0.012401548
0.01232814
0.012254752
0.012181431
0.012108204
0.012035101
0.011962159
0.011889405
0.011816846
0.0117445
0.011672397
0.011600561
0.011529007
0.011457749
0.011386804
0.011316195
0.011245929
0.011176014
0.011106459
0.011037275
0.010968468
0.010900048
0.010832019
0.010764385
0.010697152
0.01063032
0.01056389
0.010497861
0.01043223
0.010366991
0.010302131
0.010237644
0.010173493
0.010109678
0.01004609
0.0099827876
0.0099194304
0.0098562665
0.0097923045
0.0097275948
0.0096671202
0.0095614887
0.00016499698
0.00017721777
0.00020804588
0.00028864138
0.00045444904
0.00069941156
0.0011539622
0.001792119
0.00261639
0.0035368766
0.0044945243
0.0054741747
0.0064633406
0.0074391515
0.0083702298
0.009227907
0.0099940626
0.010663485
0.011241447
0.011737743
0.012162263
0.012523749
0.012830408
0.013088888
0.013305768
0.013486077
0.013635346
0.013758173
0.013857904
0.013938179
0.014001558
0.01405041
0.014086692
0.014112364
0.014128305
0.014136476
0.014134521
0.014126767
0.014112249
0.01409197
0.014066499
0.014036388
0.014002147
0.013964205
0.013922966
0.013878788
0.01383181
0.013782325
0.013730559
0.01367673
0.013621075
0.013563775
0.013505017
0.013444964
0.013383723
0.013321452
0.013258248
0.013194186
0.013129325
0.013063775
0.012997651
0.012931043
0.01286401
0.012796621
0.012728947
0.012661042
0.012592934
0.01252467
0.012456304
0.012387881
0.012319436
0.012250998
0.012182606
0.012114297
0.012046092
0.011978014
0.011910085
0.011842328
0.011774761
0.011707403
0.01164027
0.011573377
0.011506735
0.011440356
0.01137425
0.011308422
0.011242878
0.011177621
0.011112645
0.011047955
0.010983516
0.010919359
0.010855347
0.010791651
0.010727758
0.010664364
0.010599794
0.010535649
0.010474184
0.010369347
0.00016765484
0.00017011303
0.00017203481
0.00017439143
0.00018068677
0.0001931717
0.00022343772
0.00028786886
0.00039533895
0.0005977915
0.00091465657
0.0013525088
0.0019229581
0.0025910536
0.003346851
0.0041821627
0.0050797873
0.0060097276
0.006933872
0.0078153648
0.008627817
0.0093590324
0.010008359
0.010580711
0.011082623
0.011520349
0.011900483
0.012229704
0.012514674
0.012760847
0.012972783
0.013154654
0.013310123
0.013442121
0.013553583
0.013647599
0.013724771
0.013787786
0.013838202
0.013877092
0.013905598
0.013924885
0.013935931
0.013939565
0.013936591
0.013927714
0.013913421
0.013894124
0.013870227
0.013842167
0.013810383
0.013775208
0.013736965
0.013695953
0.013652417
0.013606647
0.013558816
0.013509082
0.013457575
0.01340449
0.013350012
0.013294288
0.013237428
0.013179556
0.013120788
0.013061218
0.013000909
0.012939943
0.012878411
0.012816385
0.012753926
0.01269109
0.012627939
0.012564535
0.012500918
0.012437128
0.012373206
0.012309191
0.012245117
0.012181017
0.012116922
0.012052857
0.011988849
0.011924919
0.011861087
0.011797371
0.011733785
0.011670344
0.01160705
0.011543922
0.01148093
0.01141813
0.011355373
0.011292906
0.011230127
0.011168003
0.011104493
0.011042163
0.010981569
0.010879586
0.00016945058
0.00017381692
0.00017586716
0.00017652004
0.00017665357
0.00017647775
0.0001766298
0.00017801161
0.00018245834
0.0001950209
0.00022319492
0.00027627322
0.00036242556
0.00051481133
0.00074906765
0.0010866405
0.0015374581
0.002093981
0.0027559938
0.0035167472
0.0043564343
0.0052417196
0.0061319581
0.0069896987
0.0077893452
0.0085189829
0.009176654
0.0097651615
0.010289054
0.010753454
0.011163792
0.011525565
0.011843943
0.012123502
0.01236844
0.012582978
0.012769933
0.012932402
0.01307312
0.013194363
0.013298164
0.01338624
0.01346017
0.01352138
0.013571071
0.013610328
0.013640269
0.013661773
0.013675647
0.013682592
0.013683221
0.013678066
0.013667661
0.013652486
0.013632978
0.013609611
0.01358265
0.013552376
0.013519069
0.013483021
0.013444476
0.013403658
0.01336075
0.013315935
0.013269408
0.013221324
0.013171793
0.013120954
0.013068939
0.01301586
0.012961816
0.012906893
0.012851191
0.012794802
0.01273779
0.01268022
0.012622158
0.012563664
0.012504792
0.012445595
0.01238612
0.012326411
0.012266508
0.012206448
0.012146266
0.012085992
0.012025653
0.011965275
0.011904875
0.011844482
0.011784079
0.01172374
0.011663319
0.011603113
0.011542482
0.011482556
0.01142112
0.011361333
0.011302705
0.011204718
0.00016893799
0.00017475113
0.0001784715
0.00018052816
0.00018074413
0.00018049342
0.00017992927
0.00017916717
0.00017852411
0.00017785731
0.0001782054
0.00018002479
0.00018514519
0.00019720732
0.00022129492
0.00026524372
0.00033591164
0.00045989444
0.00065649129
0.00094729889
0.0013488503
0.0018609569
0.0024851146
0.0032121544
0.0040180203
0.0048660009
0.0057153312
0.006532079
0.0072954768
0.0079970059
0.0086354341
0.0092125832
0.0097315738
0.010196367
0.010611414
0.010981464
0.01131065
0.011602913
0.011861983
0.0120912
0.01229356
0.012471716
0.012628048
0.012764707
0.012883595
0.012986396
0.0130747
0.013149899
0.013213236
0.013265813
0.013308604
0.013342522
0.013368335
0.013386745
0.013398409
0.013403854
0.013403678
0.013398377
0.013388411
0.013374157
0.013355974
0.013334194
0.013309096
0.013280969
0.013250095
0.013216697
0.013180942
0.013143044
0.013103185
0.013061539
0.01301826
0.012973495
0.012927361
0.012879981
0.012831461
0.012781903
0.012731403
0.012680047
0.012627919
0.012575093
0.012521639
0.012467623
0.012413104
0.012358138
0.012302777
0.012247067
0.012191052
0.012134773
0.01207826
0.012021557
0.011964662
0.011907667
0.011850436
0.011793297
0.011735612
0.011678596
0.011619989
0.011563291
0.011507374
0.011414214
0.00016715075
0.00017329699
0.00017798578
0.0001807613
0.00018206777
0.00018239939
0.00018222469
0.00018178196
0.00018110982
0.00018033191
0.00017954685
0.00017884292
0.00017825083
0.00017799382
0.00017849335
0.00018075943
0.00018604486
0.00019734407
0.00021929205
0.00025923729
0.00032511697
0.00044179769
0.00063130214
0.00091513103
0.0013098273
0.0018185834
0.0024400186
0.003158901
0.0039449022
0.0047586103
0.0055625681
0.0063301336
0.0070473312
0.0077090604
0.0083145573
0.0088651967
0.0093635645
0.0098130799
0.010217537
0.010580706
0.010906216
0.011197477
0.011457635
0.011689585
0.011895964
0.012079143
0.01224131
0.012384444
0.012510323
0.012620543
0.01271652
0.012799555
0.012870794
0.012931266
0.012981918
0.013023567
0.013057009
0.013082959
0.013102072
0.013114916
0.01312201
0.013123828
0.013120821
0.013113361
0.013101784
0.013086432
0.01306764
0.013045668
0.013020768
0.012993179
0.012963121
0.012930794
0.012896373
0.012860032
0.012821919
0.012782177
0.012740941
0.012698334
0.01265447
0.012609455
0.012563387
0.012516358
0.012468453
0.012419749
0.012370319
0.012320232
0.012269548
0.012218327
0.012166617
0.012114479
0.012061927
0.012009071
0.011955792
0.01190244
0.011848402
0.011794924
0.01173979
0.011686668
0.011634038
0.011546418
0.00016476735
0.0001705403
0.00017550574
0.00017889847
0.00018082201
0.00018166723
0.00018187184
0.00018174432
0.00018143649
0.00018099923
0.00018046439
0.00017984126
0.00017916473
0.00017849776
0.00017787006
0.00017730847
0.00017688269
0.00017687115
0.00017775407
0.00018049341
0.00018629744
0.00019821585
0.00022135422
0.00026306234
0.00033556826
0.00046297822
0.0006697421
0.00097749539
0.0013968176
0.0019311588
0.0025721023
0.003295296
0.004064285
0.0048408146
0.0055950584
0.0063094782
0.0069761062
0.0075921313
0.0081573187
0.008673085
0.0091419634
0.0095670126
0.00995143
0.01029842
0.010611089
0.010892357
0.011144973
0.011371484
0.011574229
0.011755339
0.011916737
0.012060178
0.012187245
0.012299364
0.012397837
0.012483819
0.012558384
0.012622514
0.012677106
0.012722958
0.012760793
0.012791269
0.012814993
0.012832503
0.012844277
0.012850774
0.012852431
0.012849626
0.012842706
0.012831994
0.012817787
0.01280036
0.012779962
0.01275681
0.012731123
0.012703095
0.012672906
0.012640723
0.0126067
0.012570982
0.012533702
0.012494983
0.01245494
0.012413679
0.012371299
0.012327892
0.012283542
0.012238331
0.012192326
0.01214561
0.012098216
0.01205027
0.01200168
0.011952807
0.011903081
0.011853747
0.011802683
0.011753621
0.011704775
0.011623365
0.00016231463
0.00016734326
0.00017203506
0.00017566176
0.00017806017
0.00017941324
0.00018004902
0.00018024975
0.00018018313
0.00017996261
0.00017964216
0.00017924543
0.00017878707
0.00017828254
0.00017773767
0.00017715975
0.00017658086
0.00017600564
0.00017547495
0.00017506449
0.00017489861
0.00017525923
0.00017672303
0.00018029265
0.00018765917
0.00020237875
0.00023079228
0.00028086176
0.00037267701
0.00053051258
0.00077859098
0.0011344825
0.0016041735
0.0021837918
0.0028533604
0.0035791498
0.0043234738
0.0050555253
0.0057560971
0.0064155309
0.0070296009
0.0075969525
0.0081181004
0.0085948146
0.0090295202
0.0094249165
0.0097838238
0.01010905
0.010403302
0.010669141
0.010908946
0.011124928
0.011319116
0.011493366
0.011649374
0.011788676
0.01191268
0.012022679
0.01211986
0.012205292
0.012279946
0.012344699
0.01240036
0.012447656
0.012487242
0.012519725
0.012545677
0.012565609
0.012579986
0.012589237
0.012593757
0.01259391
0.012590027
0.012582405
0.012571328
0.012557055
0.012539823
0.012519855
0.012497353
0.01247251
0.012445498
0.012416483
0.012385613
0.01235303
0.012318864
0.012283236
0.012246257
0.012208035
0.012168663
0.012128244
0.012086836
0.012044585
0.012001425
0.011957729
0.011912979
0.011868399
0.011821997
0.011777496
0.011732899
0.011658369
0.0001600895
0.00016427883
0.00016838911
0.00017186072
0.0001744599
0.00017619615
0.00017723702
0.00017778981
0.00017801571
0.00017802819
0.00017790113
0.00017767843
0.00017738584
0.00017703972
0.00017665017
0.00017622288
0.00017576612
0.00017528129
0.00017476513
0.0001742443
0.00017373204
0.00017325613
0.000172875
0.00017268438
0.00017286953
0.00017380271
0.00017629027
0.00018148547
0.00019206389
0.00021306338
0.00025197798
0.00032359402
0.00045216474
0.00066327377
0.00097769835
0.001403628
0.0019398192
0.0025685972
0.0032578319
0.0039708315
0.0046773071
0.0053580186
0.0060027613
0.0066065505
0.0071673392
0.0076850588
0.0081609456
0.008596945
0.0089953678
0.009358702
0.0096894585
0.0099900963
0.010262968
0.010510286
0.010734116
0.010936362
0.011118787
0.01128302
0.011430564
0.011562791
0.011680951
0.011786182
0.011879527
0.011961936
0.012034268
0.012097313
0.012151806
0.012198416
0.012237749
0.012270365
0.012296774
0.012317449
0.012332822
0.012343282
0.012349196
0.0123509
0.012348702
0.012342889
0.012333726
0.012321456
0.012306307
0.012288489
0.012268196
0.012245608
0.012220894
0.01219421
0.012165698
0.012135498
0.012103731
0.012070527
0.012035971
0.012000229
0.011963271
0.011925475
0.011886388
0.011847197
0.01180606
0.011766656
0.011726773
0.011659814
0.00015819578
0.00016160809
0.00016505342
0.00016813311
0.00017064833
0.00017254171
0.00017386632
0.00017473343
0.00017525509
0.00017552452
0.00017561421
0.00017557583
0.00017544434
0.00017524312
0.00017498825
0.00017469053
0.00017435764
0.00017399441
0.00017360148
0.00017318386
0.00017274516
0.00017228718
0.00017181774
0.00017136126
0.00017094177
0.00017060397
0.00017043376
0.00017056986
0.00017130455
0.0001732614
0.0001774844
0.0001860388
0.00020320629
0.00023607742
0.00029717538
0.00041031708
0.00060153264
0.00089267852
0.0012933811
0.001803065
0.0024041969
0.0030649586
0.0037498556
0.0044302979
0.0050882453
0.0057138133
0.0063018519
0.0068500595
0.0073580887
0.0078268404
0.0082579175
0.0086533251
0.0090152647
0.0093459888
0.0096477262
0.0099226206
0.010172713
0.010399927
0.010606067
0.010792805
0.010961681
0.011114112
0.011251401
0.011374743
0.01148523
0.011583862
0.011671567
0.011749191
0.011817509
0.011877232
0.011929011
0.011973444
0.012011083
0.012042429
0.012067945
0.012088059
0.012103164
0.012113625
0.012119778
0.012121932
0.012120375
0.012115373
0.012107172
0.012096002
0.012082072
0.012065582
0.012046713
0.012025639
0.012002515
0.011977503
0.011950717
0.011922351
0.011892409
0.011861278
0.011828576
0.011795445
0.011760205
0.011726475
0.011691789
0.011633129
0.00015662905
0.00015938638
0.00016221278
0.00016482637
0.00016708117
0.00016891855
0.00017034429
0.00017140417
0.00017215606
0.00017265784
0.00017296344
0.00017311816
0.00017315752
0.00017310814
0.00017298995
0.00017281779
0.00017260209
0.00017235033
0.00017206706
0.00017175595
0.00017141996
0.00017106074
0.00017067959
0.00017028098
0.00016986995
0.00016944941
0.00016904292
0.00016867526
0.00016838606
0.00016825447
0.00016841098
0.0001691064
0.00017087203
0.00017469028
0.00018235769
0.00019786269
0.00022807447
0.00028523912
0.00039288144
0.00057750039
0.00086047207
0.0012518432
0.0017496931
0.0023346153
0.0029741203
0.0036343314
0.0042893795
0.0049232841
0.0055270546
0.0060958203
0.006627376
0.0071213332
0.0075784179
0.0080000102
0.0083878783
0.0087439813
0.0090703525
0.0093690218
0.0096419672
0.0098910807
0.010118147
0.010324839
0.010512715
0.010683219
0.010837687
0.010977347
0.011103337
0.011216703
0.011318409
0.011409335
0.011490295
0.011562036
0.011625244
0.011680548
0.011728529
0.01176972
0.011804615
0.011833669
0.0118573
0.011875898
0.011889819
0.011899397
0.011904938
0.011906727
0.011905028
0.011900086
0.01189213
0.011881372
0.01186801
0.011852238
0.01183421
0.011814145
0.01179209
0.011768442
0.011742892
0.01171654
0.011687867
0.011660438
0.011631464
0.011581884
0.00015534314
0.00015757261
0.00015987484
0.00016204685
0.00016398205
0.00016563682
0.00016700886
0.0001681173
0.00016898709
0.00016964549
0.00017012253
0.00017044812
0.00017064961
0.00017075044
0.00017077017
0.00017072474
0.00017062627
0.00017048401
0.00017030481
0.00017009374
0.0001698546
0.00016959008
0.000169302
0.00016899207
0.00016866231
0.00016831336
0.00016794953
0.0001675768
0.0001672011
0.00016683882
0.0001665205
0.000166286
0.00016621175
0.0001664286
0.00016717244
0.00016895364
0.00017273818
0.00018030793
0.00019570578
0.0002258485
0.00028425789
0.00039459681
0.00058401511
0.00087184468
0.001267328
0.0017651663
0.0023423685
0.0029656852
0.0036037175
0.004234114
0.0048433784
0.0054237516
0.0059709804
0.006483185
0.0069600577
0.007402256
0.0078110353
0.0081879995
0.0085349337
0.0088536961
0.0091461454
0.0094140959
0.0096592889
0.0098833771
0.010087913
0.010274343
0.010444019
0.010598194
0.010738028
0.01086459
0.010978869
0.011081776
0.011174153
0.011256772
0.011330345
0.01139553
0.011452934
0.011503115
0.011546591
0.011583838
0.011615299
0.011641381
0.011662462
0.011678892
0.011690995
0.011699074
0.011703407
0.011704258
0.011701867
0.011696471
0.011688265
0.011677501
0.011664271
0.011648987
0.011631414
0.011612614
0.011591229
0.011570778
0.011548078
0.011508416
0.00015428542
0.00015609683
0.00015797389
0.00015976741
0.00016139585
0.0001628265
0.00016405929
0.00016510792
0.00016598601
0.0001667054
0.00016727923
0.00016772226
0.00016805025
0.00016827887
0.00016842305
0.00016849643
0.00016851038
0.00016847426
0.00016839569
0.00016828066
0.00016813382
0.00016795866
0.00016775781
0.00016753319
0.00016728644
0.00016701855
0.00016673087
0.00016642538
0.00016610379
0.00016576945
0.0001654294
0.00016509216
0.00016477233
0.00016450448
0.00016432985
0.00016432916
0.00016464006
0.00016550814
0.00016748032
0.00017154809
0.00017970884
0.00019638935
0.00022890198
0.00029352305
0.00041461176
0.00061960068
0.00092417957
0.00133494
0.0018410439
0.0024152858
0.0030246975
0.0036416423
0.0042477577
0.0048320254
0.0053880024
0.0059122286
0.0064032708
0.0068609908
0.0072860665
0.0076796877
0.008043343
0.0083786815
0.0086874147
0.0089712562
0.0092318776
0.0094708827
0.0096897952
0.0098900529
0.010073003
0.010239902
0.010391918
0.010530136
0.010655562
0.010769125
0.010871683
0.01096403
0.011046901
0.011120972
0.01118687
0.011245175
0.011296422
0.011341107
0.011379689
0.011412592
0.011440212
0.011462914
0.011481037
0.0114949
0.011504794
0.011511006
0.011513776
0.011513395
0.011510005
0.011504034
0.011495331
0.011484918
0.011471598
0.011458865
0.011443047
0.011414218
0.00015341008
0.00015489122
0.00015642878
0.00015791156
0.00015927454
0.00016049009
0.00016155882
0.00016249385
0.00016330757
0.00016400838
0.00016460275
0.00016509688
0.0001654976
0.00016581266
0.00016605066
0.00016622066
0.00016633111
0.00016638963
0.00016640301
0.00016637702
0.00016631641
0.00016622497
0.00016610568
0.00016596087
0.00016579233
0.00016560137
0.0001653891
0.00016515662
0.00016490491
0.00016463506
0.00016434919
0.00016404994
0.00016374076
0.00016343001
0.00016312806
0.00016285086
0.00016263646
0.00016253045
0.00016262516
0.00016307157
0.00016415139
0.00016650654
0.00017120325
0.00018071848
0.00020024296
0.00023801174
0.00031445387
0.00045558292
0.00068527491
0.0010170994
0.0014514977
0.0019703431
0.0025430132
0.0031387572
0.0037347393
0.0043165367
0.0048754327
0.0054063396
0.0059066378
0.0063753466
0.0068125395
0.0072189696
0.0075958075
0.0079444687
0.0082664927
0.0085634637
0.0088369597
0.0090885208
0.009319628
0.0095316901
0.0097260371
0.0099039179
0.010066501
0.010214875
0.01035005
0.010472967
0.010584496
0.010685444
0.010776559
0.010858534
0.01093201
0.010997581
0.011055798
0.01110717
0.011152171
0.01119124
0.011224784
0.011253185
0.011276795
0.011295952
0.011310952
0.011322128
0.011329678
0.011334053
0.011335184
0.011334066
0.011329651
0.011325437
0.011317172
0.011300171
0.00015268062
0.00015389967
0.00015516658
0.00015639783
0.00015754057
0.00015856945
0.0001594832
0.00016029303
0.0001610114
0.0001616475
0.00016220753
0.00016269553
0.00016311455
0.00016346763
0.00016375842
0.00016399144
0.00016417147
0.00016430334
0.00016439184
0.00016444142
0.00016445606
0.00016443911
0.00016439338
0.00016432117
0.00016422432
0.00016410425
0.00016396208
0.00016379879
0.00016361516
0.00016341189
0.00016318988
0.00016295025
0.0001626942
0.00016242417
0.0001621437
0.00016185701
0.00016157393
0.00016130661
0.00016107514
0.00016092156
0.00016089953
0.00016112332
0.00016176334
0.00016317428
0.0001661578
0.00017195424
0.00018385345
0.00020799222
0.00025653974
0.00035221982
0.00052277345
0.00078715954
0.0011545477
0.0016165393
0.0021477703
0.002716874
0.0032974941
0.0038718636
0.0044289506
0.0049620575
0.0054673976
0.0059431541
0.0063887935
0.0068046194
0.0071914677
0.0075504997
0.007883064
0.0081906033
0.0084745925
0.0087364954
0.0089777375
0.009199688
0.0094036507
0.0095908567
0.0097624628
0.0099195519
0.010063135
0.010194155
0.010313486
0.010421945
0.010520287
0.010609214
0.010689377
0.010761381
0.010825788
0.010883118
0.010933856
0.010978454
0.011017332
0.011050889
0.011079479
0.011103487
0.011123171
0.011139011
0.011151024
0.011160183
0.011165587
0.011170763
0.011170783
0.011166698
0.00015206878
0.00015307837
0.00015412848
0.0001551562
0.00015611839
0.00015699143
0.00015777136
0.00015846606
0.0001590865
0.00015964233
0.00016014091
0.00016058718
0.00016098414
0.00016133362
0.00016163715
0.00016189651
0.00016211371
0.00016229099
0.00016243088
0.00016253607
0.00016260914
0.00016265245
0.00016266813
0.00016265801
0.0001626236
0.00016256616
0.00016248669
0.00016238602
0.00016226485
0.00016212373
0.0001619632
0.00016178384
0.00016158626
0.00016137131
0.00016114039
0.00016089505
0.00016063831
0.00016037447
0.00016010925
0.00015985436
0.00015962401
0.00015944597
0.00015936697
0.00015945496
0.00015985784
0.00016077872
0.00016271119
0.00016659904
0.0001743513
0.0001903634
0.00022218862
0.00028792757
0.00041337711
0.00062288532
0.00093128524
0.0013390124
0.0018274767
0.0023668452
0.0029285243
0.0034917864
0.0040433816
0.0045750843
0.0050819967
0.0055614873
0.0060124242
0.0064346628
0.006828701
0.0071954456
0.0075360538
0.0078518232
0.0081441179
0.0084143177
0.0086637846
0.0088938406
0.0091057531
0.0093007272
0.0094799015
0.0096443471
0.0097950679
0.0099330025
0.010059027
0.010173957
0.010278553
0.010373521
0.010459519
0.010537159
0.010607011
0.010669604
0.010725433
0.010774967
0.010818625
0.010856848
0.010889963
0.010918482
0.010942513
0.010963015
0.01097923
0.010994743
0.011003852
0.01101387
0.00015155266
0.00015239356
0.00015326883
0.00015413098
0.00015494495
0.00015568905
0.0001563571
0.00015695347
0.00015748652
0.00015796493
0.00015839639
0.00015878686
0.00015914047
0.00015945979
0.00015974639
0.00016000138
0.00016022559
0.00016041982
0.00016058502
0.00016072234
0.00016083299
0.0001609182
0.00016097913
0.00016101687
0.00016103237
0.00016102642
0.0001609997
0.00016095277
0.00016088609
0.00016080004
0.00016069495
0.00016057113
0.00016042888
0.00016026856
0.00016009072
0.000159896
0.00015968548
0.00015946084
0.00015922418
0.00015897941
0.00015873161
0.00015848899
0.0001582656
0.00015807877
0.00015796793
0.00015798576
0.00015823069
0.00015887313
0.00016022079
0.00016299056
0.00016835098
0.00017933869
0.00020181408
0.00024799788
0.00034045198
0.00050687934
0.00076550132
0.0011240008
0.0015708874
0.0020794129
0.0026200789
0.0031697817
0.0037132341
0.0042407809
0.0047464919
0.0052269739
0.0056805318
0.006106598
0.0065053512
0.0068774549
0.0072238785
0.0075457743
0.0078443935
0.0081210278
0.0083769705
0.0086134896
0.0088318111
0.0090331085
0.0092184969
0.0093890299
0.009545699
0.0096894343
0.0098211067
0.0099415296
0.010051463
0.010151614
0.010242645
0.010325174
0.010399773
0.010466987
0.010527312
0.010581249
0.010629197
0.010671712
0.010708992
0.010741995
0.010770097
0.010796975
0.01081605
0.010841471
0.00015111518
0.00015181921
0.00015255246
0.00015327901
0.00015397054
0.00015460753
0.0001551825
0.00015569688
0.00015615626
0.00015656751
0.00015693754
0.00015727246
0.00015757713
0.0001578551
0.0001581088
0.00015833984
0.00015854921
0.00015873742
0.00015890487
0.00015905192
0.00015917893
0.00015928624
0.00015937421
0.00015944319
0.00015949348
0.00015952533
0.00015953895
0.00015953451
0.00015951214
0.00015947195
0.000159414
0.00015933836
0.00015924508
0.00015913425
0.000159006
0.00015886055
0.00015869825
0.00015851971
0.00015832577
0.00015811784
0.00015789799
0.0001576692
0.00015743655
0.0001572062
0.00015699008
0.00015680487
0.00015667525
0.00015665089
0.00015680117
0.00015727469
0.0001582777
0.00016031053
0.00016431815
0.00017231703
0.00018886489
0.00022219402
0.00029198863
0.00042474306
0.00064269824
0.00095853235
0.0013671564
0.0018456524
0.0023646975
0.0028994994
0.0034330416
0.0039544053
0.0044567445
0.0049359863
0.0053899299
0.0058176258
0.0062189598
0.0065943679
0.0069446415
0.0072707926
0.007573961
0.0078553494
0.00811618
0.0083576645
0.0085809841
0.0087872771
0.008977631
0.0091530779
0.0093145929
0.0094630942
0.0095994437
0.0097244495
0.0098388679
0.0099434078
0.010038731
0.010125462
0.010204175
0.010275443
0.010339742
0.010397674
0.010449538
0.010496294
0.01053745
0.010576805
0.010606803
0.010649046
0.00015074282
0.00015133505
0.00015195212
0.00015256688
0.00015315653
0.0001537039
0.00015420094
0.00015464694
0.00015504516
0.00015540049
0.00015571853
0.00015600472
0.00015626393
0.00015650013
0.00015671645
0.00015691523
0.00015709808
0.00015726597
0.00015741949
0.00015755896
0.00015768452
0.00015779618
0.00015789384
0.0001579774
0.00015804667
0.00015810147
0.00015814157
0.00015816675
0.00015817679
0.00015817147
0.00015815055
0.00015811384
0.00015806113
0.00015799227
0.0001579071
0.00015780554
0.00015768758
0.0001575533
0.00015740294
0.00015723696
0.00015705611
0.00015686157
0.00015665531
0.00015643989
0.00015621965
0.000156001
0.00015579252
0.00015560993
0.00015547384
0.00015542418
0.0001555204
0.00015587211
0.00015666532
0.00015825042
0.00016141917
0.00016750716
0.0001800843
0.00020573885
0.00025985418
0.00036721131
0.00055265788
0.00083249342
0.0012071008
0.0016575731
0.0021554708
0.0026749209
0.0031975207
0.0037112913
0.0042086165
0.0046848471
0.0051373467
0.0055648316
0.0059669272
0.0063438642
0.0066962705
0.0070250266
0.0073311654
0.0076158034
0.0078800927
0.008125188
0.0083522246
0.0085623035
0.0087564819
0.008935768
0.0091011179
0.0092534351
0.0093935706
0.0095223259
0.0096404524
0.0097486607
0.009847609
0.0099379436
0.010020224
0.010095108
0.010162992
0.010224854
0.010280325
0.01033336
0.010375324
0.010435935
0.00015042482
0.0001509251
0.00015144656
0.00015196859
0.00015247293
0.0001529447
0.00015337587
0.00015376436
0.00015411156
0.00015442068
0.00015469591
0.00015494169
0.00015516233
0.0001553617
0.00015554312
0.00015570935
0.00015586252
0.00015600419
0.00015613543
0.00015625693
0.00015636907
0.00015647196
0.0001565655
0.00015664949
0.00015672357
0.00015678732
0.00015684029
0.000156882
0.00015691193
0.00015692961
0.00015693455
0.00015692628
0.00015690436
0.0001568684
0.000156818
0.00015675284
0.00015667263
0.00015657716
0.00015646627
0.00015633995
0.00015619834
0.00015604177
0.00015587093
0.00015568684
0.00015549122
0.00015528671
0.00015507687
0.00015486768
0.000154667
0.00015448834
0.00015435129
0.00015428668
0.00015434861
0.00015462291
0.00015528611
0.00015658497
0.00015915194
0.00016408216
0.00017412473
0.00019478371
0.00023815779
0.00032670134
0.00048691129
0.00073735951
0.0010828302
0.001508151
0.0019861776
0.0024905025
0.0030017122
0.003506994
0.0039981173
0.0044699669
0.0049195485
0.0053452984
0.0057466197
0.0061235642
0.0064766134
0.0068065283
0.0071142434
0.007400794
0.0076672653
0.0079147563
0.0081443563
0.0083571285
0.0085540987
0.00873625
0.0089045182
0.0090597918
0.0092029099
0.0093346687
0.0094558121
0.0095670639
0.0096690702
0.0097625483
0.0098479975
0.0099264202
0.0099975662
0.010065578
0.010120634
0.010201295
0.00015015249
0.00015057672
0.000151019
0.00015146369
0.00015189619
0.00015230379
0.00015267881
0.00015301836
0.00015332251
0.00015359313
0.00015383312
0.00015404593
0.00015423511
0.00015440406
0.00015455591
0.00015469345
0.00015481903
0.00015493456
0.00015504154
0.00015514108
0.00015523395
0.00015532059
0.00015540117
0.00015547565
0.0001555438
0.00015560525
0.00015565951
0.00015570604
0.00015574423
0.00015577347
0.0001557931
0.00015580251
0.00015580107
0.00015578817
0.00015576326
0.00015572579
0.00015567528
0.00015561127
0.00015553336
0.00015544124
0.00015533466
0.00015521353
0.00015507788
0.00015492798
0.00015476439
0.00015458814
0.00015440072
0.0001542046
0.00015400315
0.0001538018
0.00015360836
0.0001534342
0.00015329789
0.00015322585
0.00015326814
0.00015349679
0.0001540594
0.00015517446
0.00015735409
0.00016155106
0.00016993914
0.00018720781
0.00022315713
0.0002982687
0.00043926701
0.00066633885
0.00098766567
0.0013912282
0.0018512622
0.002341229
0.0028410707
0.0033373847
0.0038214905
0.0042879251
0.0047334182
0.0051561842
0.0055554443