/*--------------------------------*- C++ -*----------------------------------*\
| =========                 |                                                 |
| \\      /  F ield         | OpenFOAM: The Open Source CFD Toolbox           |
|  \\    /   O peration     | Version:  2206                                  |
|   \\  /    A nd           | Website:  www.openfoam.com                      |
|    \\/     M anipulation  |                                                 |
\*---------------------------------------------------------------------------*/
FoamFile
{
    version     2.0;
    format      ascii;
    arch        "LSB;label=32;scalar=64";
    class       volScalarField;
    location    "1100";
    object      nut;
}
// * * * * * * * * * * * * * * * * * * * * * * * * * * * * * * * * * * * * * //

dimensions      [0 2 -1 0 0 0 0];

internalField   nonuniform List<scalar> 
7480
(
1.613976e-05
2.2440653e-05
2.3613606e-05
2.2659782e-05
2.1075107e-05
1.9609326e-05
1.8480825e-05
1.7622446e-05
1.6934286e-05
1.6352205e-05
1.5847639e-05
1.5408853e-05
1.5028183e-05
1.4698597e-05
1.4413424e-05
1.4165984e-05
1.3951009e-05
1.3764309e-05
1.3601414e-05
1.3459397e-05
1.333336e-05
1.3220523e-05
1.3118376e-05
1.302479e-05
1.2938366e-05
1.2857935e-05
1.2782695e-05
1.2711828e-05
1.2644584e-05
1.2580333e-05
1.2518733e-05
1.2459559e-05
1.240256e-05
1.2347526e-05
1.2294208e-05
1.2242499e-05
1.2192043e-05
1.2142784e-05
1.2094618e-05
1.2047409e-05
1.2001061e-05
1.1955488e-05
1.1910627e-05
1.1866438e-05
1.182287e-05
1.1779888e-05
1.1737443e-05
1.1695481e-05
1.1653975e-05
1.1612893e-05
1.1572211e-05
1.1531917e-05
1.149199e-05
1.1452424e-05
1.14132e-05
1.1374305e-05
1.133573e-05
1.1297458e-05
1.1259471e-05
1.1221758e-05
1.1184323e-05
1.1147162e-05
1.1110269e-05
1.1073639e-05
1.1037267e-05
1.1001151e-05
1.0965282e-05
1.0929653e-05
1.0894263e-05
1.0859109e-05
1.0824187e-05
1.0789495e-05
1.0755029e-05
1.0720789e-05
1.0686772e-05
1.0652972e-05
1.0619386e-05
1.0586012e-05
1.0552846e-05
1.0519885e-05
1.0487124e-05
1.0454561e-05
1.0422191e-05
1.0390008e-05
1.0358007e-05
1.032618e-05
1.0294519e-05
1.0263012e-05
1.0231648e-05
1.0200397e-05
1.0169262e-05
1.0138142e-05
1.0107132e-05
1.0075825e-05
1.0044809e-05
1.0012412e-05
9.9810648e-06
9.9448463e-06
9.9157281e-06
9.8598081e-06
1.6698989e-06
5.1446669e-06
8.7888949e-06
1.1681121e-05
1.3403451e-05
1.4480642e-05
1.5237858e-05
1.5810763e-05
1.6224111e-05
1.6521114e-05
1.6747287e-05
1.693495e-05
1.710164e-05
1.725532e-05
1.7400866e-05
1.7530539e-05
1.7654605e-05
1.7779867e-05
1.7906149e-05
1.8027536e-05
1.8141928e-05
1.8246575e-05
1.8339519e-05
1.8421351e-05
1.8493905e-05
1.8557877e-05
1.8615268e-05
1.8664586e-05
1.8705491e-05
1.8738339e-05
1.8764598e-05
1.8785188e-05
1.8800547e-05
1.8811184e-05
1.8816854e-05
1.8818595e-05
1.8815048e-05
1.8807757e-05
1.8796881e-05
1.8782408e-05
1.8764472e-05
1.8743306e-05
1.8719201e-05
1.8692359e-05
1.8662976e-05
1.863126e-05
1.8597231e-05
1.8561019e-05
1.8522761e-05
1.8482574e-05
1.8440634e-05
1.8397058e-05
1.8351971e-05
1.8305493e-05
1.8257686e-05
1.8208679e-05
1.815854e-05
1.8107318e-05
1.805505e-05
1.8001824e-05
1.7947748e-05
1.7892897e-05
1.7837326e-05
1.7781088e-05
1.7724251e-05
1.7666866e-05
1.7608958e-05
1.7550569e-05
1.7491754e-05
1.7432559e-05
1.7373019e-05
1.7313165e-05
1.7253036e-05
1.7192675e-05
1.7132105e-05
1.707135e-05
1.7010438e-05
1.6949394e-05
1.6888244e-05
1.682701e-05
1.6765714e-05
1.6704375e-05
1.6643011e-05
1.6581641e-05
1.6520279e-05
1.6458941e-05
1.6397638e-05
1.6336385e-05
1.6275181e-05
1.621406e-05
1.6152966e-05
1.6092038e-05
1.6030976e-05
1.5970414e-05
1.5909026e-05
1.5849373e-05
1.578673e-05
1.5728485e-05
1.5670509e-05
1.5565346e-05
4.3745082e-07
4.6934403e-07
9.4472247e-07
2.2170885e-06
4.1435121e-06
6.4097944e-06
8.5147523e-06
1.0328497e-05
1.2011768e-05
1.3632066e-05
1.5181782e-05
1.6642656e-05
1.8006929e-05
1.9281072e-05
2.0476849e-05
2.1620413e-05
2.2713185e-05
2.3749299e-05
2.4725033e-05
2.5638359e-05
2.6490185e-05
2.7281551e-05
2.8011963e-05
2.8687245e-05
2.9312143e-05
2.9887804e-05
3.0427937e-05
3.092542e-05
3.1383526e-05
3.1804186e-05
3.219294e-05
3.2552517e-05
3.2884859e-05
3.3192359e-05
3.3474802e-05
3.373668e-05
3.3973326e-05
3.4191921e-05
3.4391751e-05
3.4573493e-05
3.4738188e-05
3.4886951e-05
3.5020924e-05
3.5141051e-05
3.5248243e-05
3.5343395e-05
3.5426827e-05
3.5499222e-05
3.5561213e-05
3.561337e-05
3.5656381e-05
3.5690775e-05
3.5717106e-05
3.5735886e-05
3.5747452e-05
3.5752314e-05
3.575081e-05
3.5743211e-05
3.5729742e-05
3.5710774e-05
3.5686715e-05
3.5657879e-05
3.5624509e-05
3.558686e-05
3.5545207e-05
3.549977e-05
3.5450699e-05
3.5398186e-05
3.5342458e-05
3.5283704e-05
3.5222083e-05
3.5157744e-05
3.5090851e-05
3.5021578e-05
3.4950044e-05
3.4876367e-05
3.4800669e-05
3.4723073e-05
3.464369e-05
3.4562628e-05
3.4479988e-05
3.4395867e-05
3.4310357e-05
3.4223548e-05
3.4135521e-05
3.4046361e-05
3.395614e-05
3.3864949e-05
3.3772833e-05
3.3679938e-05
3.3586179e-05
3.3492015e-05
3.3396715e-05
3.3302178e-05
3.3204901e-05
3.3112325e-05
3.3011644e-05
3.2926079e-05
3.2832715e-05
3.2669886e-05
6.3325081e-06
1.1163207e-06
4.2911382e-07
3.9047012e-07
5.8068935e-07
9.3420177e-07
1.7960322e-06
3.1769563e-06
4.8723325e-06
6.6167844e-06
8.3688313e-06
1.0253253e-05
1.2280134e-05
1.4411773e-05
1.6589348e-05
1.8759608e-05
2.0884164e-05
2.2941699e-05
2.4924197e-05
2.6828201e-05
2.864966e-05
3.0384711e-05
3.2033774e-05
3.3595374e-05
3.507132e-05
3.6460964e-05
3.7768628e-05
3.8999415e-05
4.0156091e-05
4.1245688e-05
4.2271436e-05
4.3237445e-05
4.4147456e-05
4.5006629e-05
4.5815926e-05
4.6582153e-05
4.7290105e-05
4.7961969e-05
4.8589294e-05
4.9176623e-05
4.9726028e-05
5.0239699e-05
5.0719804e-05
5.1168204e-05
5.1586828e-05
5.1977462e-05
5.2340681e-05
5.2678147e-05
5.2991102e-05
5.3280778e-05
5.3548608e-05
5.3795706e-05
5.4023292e-05
5.4232465e-05
5.4423978e-05
5.4598966e-05
5.4758164e-05
5.4902199e-05
5.50316e-05
5.5147209e-05
5.5249909e-05
5.5340398e-05
5.5419225e-05
5.5486999e-05
5.5544332e-05
5.5591732e-05
5.5629556e-05
5.5658265e-05
5.567837e-05
5.5690296e-05
5.5694424e-05
5.56911e-05
5.5680714e-05
5.5663666e-05
5.5640241e-05
5.5610725e-05
5.5575413e-05
5.5534592e-05
5.5488528e-05
5.5437482e-05
5.5381695e-05
5.5321406e-05
5.5256835e-05
5.5188203e-05
5.5115713e-05
5.503957e-05
5.4959962e-05
5.48771e-05
5.4791129e-05
5.470235e-05
5.4610717e-05
5.4517003e-05
5.442022e-05
5.4323301e-05
5.4221225e-05
5.4125066e-05
5.4016304e-05
5.3930762e-05
5.3829643e-05
5.3658023e-05
5.8715993e-05
1.7238214e-05
4.9221945e-06
1.9176635e-06
1.006946e-06
6.8136024e-07
6.0206545e-07
6.9819857e-07
9.2510939e-07
1.4678814e-06
2.3943425e-06
3.5581821e-06
5.003086e-06
6.6405743e-06
8.5190571e-06
1.0680442e-05
1.3103429e-05
1.5725152e-05
1.8462427e-05
2.1234272e-05
2.398022e-05
2.6665948e-05
2.9276688e-05
3.1803887e-05
3.4240002e-05
3.6577655e-05
3.8813838e-05
4.0949296e-05
4.298887e-05
4.4934877e-05
4.6788781e-05
4.8553483e-05
5.0232192e-05
5.1826309e-05
5.3340832e-05
5.4783193e-05
5.6148432e-05
5.7445373e-05
5.8676859e-05
5.9843712e-05
6.0948443e-05
6.1994629e-05
6.2985192e-05
6.3922661e-05
6.4810016e-05
6.5650008e-05
6.6444251e-05
6.7194029e-05
6.7900877e-05
6.8566843e-05
6.9194239e-05
6.978473e-05
7.034008e-05
7.086207e-05
7.1352193e-05
7.1812459e-05
7.2243929e-05
7.2647651e-05
7.3024509e-05
7.337601e-05
7.3703612e-05
7.4008459e-05
7.4291474e-05
7.4553743e-05
7.4796307e-05
7.5020031e-05
7.5225531e-05
7.5413643e-05
7.558525e-05
7.5741084e-05
7.5881813e-05
7.6008056e-05
7.6120518e-05
7.6219904e-05
7.6306716e-05
7.638148e-05
7.6444726e-05
7.6496968e-05
7.6538691e-05
7.6570362e-05
7.6592427e-05
7.6605315e-05
7.6609436e-05
7.6605186e-05
7.6592946e-05
7.6573087e-05
7.6545962e-05
7.6511945e-05
7.6471332e-05
7.6424607e-05
7.6371828e-05
7.6314067e-05
7.6250227e-05
7.6184037e-05
7.610954e-05
7.6040257e-05
7.5953914e-05
7.5895931e-05
7.5813373e-05
7.5679215e-05
0.00013748595
8.4281956e-05
4.0465766e-05
1.8920814e-05
9.3991332e-06
5.119446e-06
3.0547729e-06
1.987301e-06
1.4074068e-06
1.1133642e-06
1.0270308e-06
1.0974786e-06
1.3031372e-06
1.8173153e-06
2.6217633e-06
3.7218333e-06
5.1835239e-06
6.9545378e-06
9.0929644e-06
1.1618935e-05
1.4490859e-05
1.7618723e-05
2.0893186e-05
2.4215076e-05
2.7516176e-05
3.0759551e-05
3.3926812e-05
3.7005535e-05
3.99865e-05
4.2863946e-05
4.5635579e-05
4.8301341e-05
5.0861971e-05
5.331788e-05
5.5671095e-05
5.7926683e-05
6.0084513e-05
6.2148465e-05
6.412228e-05
6.6008781e-05
6.7811138e-05
6.9531584e-05
7.1172904e-05
7.2738077e-05
7.4229324e-05
7.5648983e-05
7.7001114e-05
7.8288445e-05
7.9513857e-05
8.0679756e-05
8.1788258e-05
8.2841208e-05
8.3840988e-05
8.4789889e-05
8.5690179e-05
8.6544892e-05
8.7355047e-05
8.8122169e-05
8.884808e-05
8.9534839e-05
9.0184058e-05
9.0797307e-05
9.1375904e-05
9.1921254e-05
9.2435098e-05
9.2918759e-05
9.3373116e-05
9.379949e-05
9.4199191e-05
9.4573276e-05
9.4922757e-05
9.5248571e-05
9.5551821e-05
9.5833568e-05
9.6094553e-05
9.6335601e-05
9.6557532e-05
9.6761134e-05
9.6947159e-05
9.7116332e-05
9.7269344e-05
9.7406866e-05
9.7529538e-05
9.7637982e-05
9.7732794e-05
9.7814557e-05
9.7883826e-05
9.7941182e-05
9.7987109e-05
9.8022305e-05
9.8046981e-05
9.80625e-05
9.8067768e-05
9.806713e-05
9.8054107e-05
9.8043831e-05
9.8011491e-05
9.8010408e-05
9.7971508e-05
9.7922144e-05
0.00017407745
0.00015004388
0.00011173428
7.5176328e-05
4.7825206e-05
3.0223852e-05
1.9318255e-05
1.2588757e-05
8.4064707e-06
5.7171623e-06
3.9993631e-06
2.8682645e-06
2.1357184e-06
1.7095316e-06
1.5124856e-06
1.5037372e-06
1.6566508e-06
2.1399303e-06
2.9397049e-06
4.1039617e-06
5.7238534e-06
7.757899e-06
1.0277869e-05
1.3273342e-05
1.6668298e-05
2.0338353e-05
2.4150374e-05
2.7998159e-05
3.1817516e-05
3.5576584e-05
3.9257292e-05
4.2845243e-05
4.6329631e-05
4.9704305e-05
5.2966603e-05
5.6116806e-05
5.9154143e-05
6.2079521e-05
6.4895113e-05
6.7603135e-05
7.0206081e-05
7.2706244e-05
7.510609e-05
7.7408377e-05
7.9615638e-05
8.1730296e-05
8.3755765e-05
8.5695207e-05
8.7551768e-05
8.932835e-05
9.1027554e-05
9.2652483e-05
9.4205386e-05
9.5688568e-05
9.7104648e-05
9.8455123e-05
9.9743303e-05
0.00010097179
0.00010214328
0.00010325967
0.00010432296
0.00010533513
0.00010629783
0.00010721311
0.00010808326
0.00010890983
0.00010969393
0.00011043745
0.00011114197
0.00011180909
0.0001124403
0.0001130371
0.00011360062
0.00011413215
0.00011463288
0.000115104
0.00011554664
0.0001159619
0.00011635084
0.00011671447
0.00011705376
0.00011736966
0.00011766308
0.00011793489
0.00011818595
0.00011841708
0.00011862907
0.00011882275
0.00011899881
0.0001191582
0.00011930132
0.00011942982
0.0001195427
0.00011964479
0.00011972936
0.00011981263
0.00011986788
0.0001199558
0.00011998638
0.0001200714
0.00018509725
0.00017939953
0.00016241458
0.0001369562
0.00010914492
8.3720407e-05
6.282844e-05
4.6606521e-05
3.4361739e-05
2.5257053e-05
1.8543614e-05
1.3599497e-05
9.9412303e-06
7.2560417e-06
5.3098735e-06
3.9229632e-06
2.9600635e-06
2.3589305e-06
2.0361429e-06
1.9529211e-06
2.0840006e-06
2.6142433e-06
3.5181691e-06
4.88966e-06
6.8103697e-06
9.2754396e-06
1.2327966e-05
1.5914147e-05
1.9906135e-05
2.4144772e-05
2.8488562e-05
3.2843293e-05
3.7158894e-05
4.1408125e-05
4.5570834e-05
4.963209e-05
5.3582444e-05
5.7416985e-05
6.1133252e-05
6.4730035e-05
6.8207437e-05
7.1566307e-05
7.4807896e-05
7.7933958e-05
8.0946494e-05
8.384754e-05
8.6639767e-05
8.932607e-05
9.1909469e-05
9.4392939e-05
9.6779262e-05
9.9071501e-05
0.00010127236
0.00010338443
0.0001054105
0.00010735271
0.00010921409
0.00011099757
0.00011270614
0.00011434231
0.00011590848
0.000117407
0.00011884051
0.00012021092
0.00012151994
0.00012276986
0.00012396339
0.00012510228
0.00012618838
0.00012722362
0.00012820988
0.00012914899
0.00013004251
0.00013089215
0.00013169932
0.00013246558
0.00013319242
0.00013388124
0.00013453343
0.00013515031
0.00013573315
0.00013628321
0.00013680166
0.00013728969
0.00013774841
0.00013817892
0.00013858227
0.00013895955
0.0001393117
0.00013963993
0.00013994487
0.00014022845
0.00014048981
0.0001407342
0.00014095483
0.00014116868
0.00014134739
0.00014155926
0.0001416869
0.00014195833
0.00018771356
0.00018847455
0.00018414018
0.00017302961
0.00015626556
0.0001363596
0.0001159346
9.6721586e-05
7.958909e-05
6.4787301e-05
5.2262688e-05
4.1802118e-05
3.3144502e-05
2.6042851e-05
2.0263985e-05
1.5589399e-05
1.1836926e-05
8.9012959e-06
6.6571588e-06
4.9892933e-06
3.7871431e-06
3.0173741e-06
2.5880654e-06
2.4574823e-06
2.6607021e-06
3.3283138e-06
4.4869111e-06
6.2660428e-06
8.6736514e-06
1.1771077e-05
1.5525426e-05
1.9810665e-05
2.4445719e-05
2.9256409e-05
3.4119261e-05
3.8965655e-05
4.3758503e-05
4.8471966e-05
5.3086464e-05
5.7589501e-05
6.1974109e-05
6.6236004e-05
7.0372495e-05
7.4382497e-05
7.8266013e-05
8.2023585e-05
8.5656516e-05
8.9166696e-05
9.2556403e-05
9.5828135e-05
9.8984409e-05
0.00010202798
0.00010496157
0.0001077878
0.00011050946
0.00011312898
0.00011564922
0.00011807318
0.00012040397
0.00012264444
0.00012479733
0.00012686524
0.000128851
0.00013075702
0.00013258543
0.00013433868
0.0001360196
0.00013763049
0.00013917355
0.00014065102
0.0001420651
0.00014341797
0.00014471167
0.0001459479
0.00014712874
0.000148256
0.00014933147
0.00015035689
0.00015133395
0.0001522643
0.00015314953
0.00015399117
0.00015479074
0.00015554968
0.00015626942
0.00015695133
0.00015759675
0.00015820703
0.0001587834
0.00015932732
0.00015983967
0.00016032269
0.00016077569
0.00016120429
0.00016160174
0.00016198563
0.00016232595
0.00016269946
0.00016295396
0.00016346641
0.00018822659
0.00019053834
0.00019101551
0.00018801683
0.00018085452
0.0001699317
0.00015627232
0.00014111844
0.00012553309
0.00011031243
9.5940711e-05
8.2672158e-05
7.0638534e-05
5.9852822e-05
5.0258981e-05
4.1782489e-05
3.4341284e-05
2.7861701e-05
2.2286048e-05
1.754948e-05
1.3578081e-05
1.0358153e-05
7.8182147e-06
5.8794386e-06
4.4878747e-06
3.5942368e-06
3.1252406e-06
3.0255121e-06
3.4698677e-06
4.4476806e-06
6.0941174e-06
8.4887253e-06
1.1661777e-05
1.5606695e-05
2.0196399e-05
2.5227468e-05
3.0495862e-05
3.5853252e-05
4.1215133e-05
4.6535129e-05
5.1781608e-05
5.6931162e-05
6.1968601e-05
6.688477e-05
7.1673677e-05
7.6331424e-05
8.0856065e-05
8.5247014e-05
8.9504624e-05
9.3629982e-05
9.7624589e-05
0.00010149037
0.00010522951
0.00010884427
0.00011233714
0.00011571046
0.00011896684
0.00012210913
0.00012514033
0.00012806341
0.00013088122
0.00013359654
0.00013621225
0.00013873108
0.00014115549
0.00014348806
0.0001457317
0.00014788908
0.0001499627
0.00015195507
0.00015386865
0.00015570589
0.00015746917
0.00015916057
0.00016078237
0.00016233673
0.00016382574
0.00016525146
0.00016661587
0.00016792092
0.00016916852
0.0001703605
0.00017149867
0.00017258477
0.00017362052
0.00017460759
0.00017554759
0.00017644216
0.00017729281
0.00017810128
0.00017886871
0.00017959762
0.00018028755
0.00018094444
0.00018156165
0.00018215733
0.00018269968
0.00018327509
0.00018368875
0.00018449945
0.000188484
0.00019081739
0.00019258795
0.00019285899
0.00019086451
0.00018624565
0.00017908395
0.00016979918
0.00015896559
0.00014718163
0.0001349684
0.00012274325
0.00011074351
9.9150286e-05
8.8105631e-05
7.7691414e-05
6.7944072e-05
5.8868091e-05
5.0497572e-05
4.2835362e-05
3.5849128e-05
2.9549523e-05
2.3944292e-05
1.9025111e-05
1.4805893e-05
1.1314021e-05
8.5307858e-06
6.3994331e-06
4.9406381e-06
4.0490265e-06
3.6549805e-06
3.8475634e-06
4.6842085e-06
6.2635865e-06
8.7020765e-06
1.2018841e-05
1.6218652e-05
2.1161546e-05
2.6616927e-05
3.2353658e-05
3.8205218e-05
4.4076687e-05
4.9914608e-05
5.568219e-05
6.1352907e-05
6.6909599e-05
7.2341451e-05
7.7641221e-05
8.280435e-05
8.7828387e-05
9.2712207e-05
9.7455742e-05
0.0001020597
0.00010652525
0.00011085402
0.00011504778
0.0001191086
0.00012303885
0.0001268412
0.0001305184
0.00013407322
0.00013750839
0.00014082676
0.00014403113
0.00014712414
0.00015010846
0.00015298703
0.00015576267
0.00015843812
0.00016101608
0.0001634992
0.00016589016
0.00016819157
0.00017040583
0.00017253542
0.00017458278
0.00017655026
0.0001784402
0.00018025486
0.00018199647
0.00018366722
0.00018526923
0.00018680458
0.00018827531
0.00018968342
0.00019103085
0.0001923195
0.0001935513
0.00019472801
0.00019585168
0.0001969237
0.00019794688
0.00019892101
0.0001998523
0.00020073429
0.00020158567
0.00020237266
0.00020319258
0.00020380028
0.00020496919
0.0001889826
0.00019096164
0.00019280058
0.00019403173
0.00019419629
0.00019290787
0.00018994
0.00018525848
0.00017899234
0.00017138724
0.00016274522
0.00015338216
0.00014356211
0.00013350127
0.00012338339
0.00011335696
0.00010353144
9.3996323e-05
8.4723317e-05
7.5761625e-05
6.7149377e-05
5.8918554e-05
5.109418e-05
4.374146e-05
3.6874818e-05
3.053701e-05
2.4776959e-05
1.9623396e-05
1.5193705e-05
1.1530453e-05
8.6233949e-06
6.5199388e-06
5.1538002e-06
4.4377157e-06
4.4092184e-06
5.1546325e-06
6.7469567e-06
9.3124915e-06
1.2873881e-05
1.7425484e-05
2.2796832e-05
2.8723459e-05
3.4951879e-05
4.1306647e-05
4.7688767e-05
5.4040257e-05
6.0320734e-05
6.6502032e-05
7.2565986e-05
7.8500682e-05
8.4298076e-05
8.9953158e-05
9.5463035e-05
0.0001008262
0.00010604222
0.00011111138
0.00011603455
0.00012081314
0.00012544903
0.00012994437
0.0001343015
0.00013852286
0.00014261102
0.00014656867
0.00015039842
0.0001541029
0.00015768496
0.00016114747
0.00016449323
0.00016772503
0.00017084566
0.00017385791
0.00017676455
0.0001795682
0.00018227152
0.00018487714
0.00018738763
0.00018980557
0.00019213344
0.00019437372
0.00019652884
0.00019860117
0.00020059306
0.0002025068
0.00020434464
0.00020610882
0.00020780149
0.00020942484
0.00021098091
0.00021247202
0.00021389982
0.00021526739
0.00021657478
0.00021782846
0.00021902219
0.00022017518
0.00022125149
0.00022236075
0.00022319994
0.00022478981
0.00018983049
0.00019142127
0.000192995
0.00019430789
0.00019513512
0.00019524745
0.00019443628
0.00019254763
0.00018950254
0.00018530614
0.00018003838
0.0001738353
0.00016685678
0.00015926365
0.00015120928
0.00014283539
0.00013426482
0.00012561223
0.00011693315
0.00010827669
9.96919e-05
9.1220093e-05
8.2914107e-05
7.4716228e-05
6.6662174e-05
5.8796436e-05
5.1171253e-05
4.3840587e-05
3.6888639e-05
3.0397063e-05
2.442352e-05
1.9115822e-05
1.4598864e-05
1.0920442e-05
8.1712181e-06
6.3307181e-06
5.2991587e-06
5.1115139e-06
5.8336742e-06
7.5441285e-06
1.0348363e-05
1.4285943e-05
1.9310779e-05
2.5200419e-05
3.1652461e-05
3.8400687e-05
4.5272259e-05
5.2170096e-05
5.9034005e-05
6.5821907e-05
7.2505595e-05
7.9066839e-05
8.5493313e-05
9.1776695e-05
9.7911673e-05
0.00010389494
0.00010972469
0.00011540026
0.00012092187
0.00012629043
0.00013150726
0.00013657409
0.00014149289
0.0001462659
0.00015089545
0.00015538395
0.00015973399
0.0001639483
0.0001680296
0.00017198065
0.00017580424
0.00017950317
0.00018308027
0.00018653829
0.00018987999
0.00019310811
0.00019622541
0.00019923458
0.00020213831
0.00020493927
0.00020764007
0.00021024331
0.00021275155
0.0002151673
0.00021749305
0.00021973127
0.00022188436
0.00022395475
0.00022594475
0.0002278569
0.00022969314
0.00023145678
0.00023314814
0.00023477393
0.00023632814
0.00023783053
0.00023924279
0.00024068826
0.00024179886
0.00024387529
0.00019102814
0.00019228174
0.00019354807
0.00019468164
0.00019557306
0.00019611626
0.00019619645
0.00019569373
0.00019449663
0.00019252195
0.00018972832
0.00018611934
0.00018173678
0.00017664855
0.00017093804
0.00016469664
0.00015801589
0.00015098855
0.00014369119
0.00013618548
0.00012852604
0.0001207593
0.00011294143
0.00010507934
9.7185781e-05
8.9281801e-05
8.1410666e-05
7.3538789e-05
6.5664155e-05
5.7854077e-05
5.0154198e-05
4.2677917e-05
3.554515e-05
2.8841295e-05
2.274374e-05
1.7449104e-05
1.3056022e-05
9.7229207e-06
7.4612433e-06
6.1655198e-06
5.9266311e-06
6.7266023e-06
8.6972169e-06
1.1882875e-05
1.6354629e-05
2.1986462e-05
2.8485256e-05
3.5513877e-05
4.2808411e-05
5.0209841e-05
5.7627512e-05
6.500208e-05
7.2292554e-05
7.9471875e-05
8.6522007e-05
9.343058e-05
0.00010018934
0.00010679291
0.00011323794
0.00011952262
0.00012564624
0.00013160893
0.00013741147
0.00014305516
0.0001485416
0.00015387265
0.00015905042
0.00016407724
0.00016895556
0.00017368792
0.00017827696
0.00018272537
0.00018703591
0.00019121133
0.0001952544
0.00019916791
0.00020295466
0.00020661744
0.00021015905
0.00021358226
0.00021688985
0.00022008456
0.00022316912
0.00022614622
0.00022901854
0.00023178875
0.00023445945
0.00023703331
0.00023951283
0.0002419008
0.0002441994
0.00024641216
0.00024853968
0.00025058883
0.0002525539
0.00025445521
0.0002562519
0.00025808231
0.00025950657
0.00026213803
0.00019255014
0.00019352887
0.00019452372
0.00019543637
0.00019620485
0.00019678379
0.00019712739
0.00019717673
0.0001968575
0.00019609021
0.00019480398
0.00019294651
0.00019048928
0.00018742752
0.00018377704
0.00017957001
0.00017484956
0.00016966744
0.00016407774
0.00015813159
0.00015187667
0.00014535552
0.00013861384
0.00013168427
0.00012459004
0.00011734983
0.00010999467
0.00010252974
9.4946362e-05
8.725651e-05
7.9496146e-05
7.1610646e-05
6.3630844e-05
5.5621943e-05
4.7672516e-05
3.996574e-05
3.2606865e-05
2.5813311e-05
1.9838626e-05
1.4822224e-05
1.1021447e-05
8.4445736e-06
6.9874029e-06
6.8575068e-06
7.8862113e-06
1.0298241e-05
1.4075131e-05
1.9249347e-05
2.5603795e-05
3.2775402e-05
4.041209e-05
4.8271144e-05
5.6213341e-05
6.4154863e-05
7.2039094e-05
7.9828076e-05
8.7496687e-05
9.5027711e-05
0.00010240935
0.00010963369
0.00011669553
0.00012359167
0.00013032038
0.00013688102
0.00014327373
0.00014949921
0.00015555863
0.00016145358
0.0001671859
0.00017275767
0.00017817115
0.00018342875
0.000188533
0.00019348649
0.00019829189
0.0002029519
0.00020746928
0.00021184682
0.00021608735
0.00022019367
0.00022416863
0.00022801505
0.00023173577
0.00023533362
0.00023881141
0.00024217194
0.000245418
0.00024855242
0.00025157791
0.00025449743
0.00025731339
0.0002600295
0.00026264662
0.00026517179
0.00026759959
0.0002699509
0.0002721822
0.00027444799
0.00027623038
0.00027948813
0.00019436921
0.00019512782
0.00019589936
0.0001966128
0.00019722536
0.00019771452
0.00019806717
0.00019826526
0.00019827621
0.00019805331
0.00019754215
0.00019668795
0.00019544217
0.00019376722
0.00019163876
0.00018904604
0.00018599038
0.00018248381
0.00017854676
0.00017420474
0.00016948594
0.0001644188
0.00015903378
0.00015335981
0.00014742185
0.00014123978
0.00013483586
0.00012822728
0.00012142067
0.00011441922
0.00010724309
9.9875878e-05
9.2305517e-05
8.4543097e-05
7.6603754e-05
6.843793e-05
6.0115307e-05
5.1727995e-05
4.3490276e-05
3.5530144e-05
2.8129646e-05
2.1584489e-05
1.6065655e-05
1.1963964e-05
9.2183311e-06
7.7874743e-06
7.8801533e-06
9.3953497e-06
1.2441674e-05
1.7045446e-05
2.3107199e-05
3.0290874e-05
3.8182726e-05
4.6449277e-05
5.4885953e-05
6.3375077e-05
7.1840902e-05
8.0232242e-05
8.8515098e-05
9.6666399e-05
0.00010467028
0.000112516
0.00012019631
0.00012770649
0.00013504363
0.0001422061
0.00014919327
0.00015600527
0.00016264283
0.00016910714
0.00017539974
0.00018152246
0.00018747739
0.00019326674
0.0001988929
0.00020435836
0.0002096657
0.00021481759
0.00021981675
0.00022466596
0.00022936803
0.0002339258
0.00023834213
0.0002426199
0.00024676201
0.00025077134
0.00025465081
0.00025840336
0.00026203185
0.00026553939
0.00026892856
0.00027220324
0.00027536454
0.00027841958
0.0002813633
0.0002842171
0.00028693472
0.00028968792
0.00029187492
0.00029583298
0.00019646267
0.00019704514
0.00019763645
0.00019818387
0.00019865406
0.00019903146
0.00019931373
0.00019950109
0.00019958649
0.00019955175
0.00019936842
0.00019900041
0.00019840788
0.00019755127
0.00019639481
0.00019490901
0.00019307167
0.00019086847
0.00018829288
0.00018534514
0.00018203096
0.00017835987
0.00017434473
0.00017000071
0.0001653437
0.00016038837
0.00015514958
0.00014964166
0.00014387534
0.00013785613
0.00013159404
0.00012509037
0.00011833826
0.00011133318
0.00010408008
9.6546503e-05
8.8722544e-05
8.0637899e-05
7.2241116e-05
6.3573596e-05
5.4749846e-05
4.6002303e-05
3.7476578e-05
2.9567902e-05
2.2553528e-05
1.6737163e-05
1.2480201e-05
9.7385288e-06
8.6875048e-06
9.2299133e-06
1.1485516e-05
1.5425928e-05
2.106966e-05
2.8142143e-05
3.6199603e-05
4.4821757e-05
5.372459e-05
6.2744435e-05
7.1781269e-05
8.0768501e-05
8.9661956e-05
9.8432025e-05
0.00010705834
0.00011552692
0.00012382814
0.00013195548
0.00013990462
0.0001476729
0.00015525888
0.00016266209
0.00016988274
0.00017692162
0.00018377996
0.00019045933
0.00019696156
0.00020328869
0.00020944297
0.00021542678
0.0002212426
0.00022689306
0.00023238081
0.00023770862
0.00024287929
0.00024789567
0.00025276064
0.00025747714
0.00026204812
0.00026647657
0.00027076547
0.00027491801
0.00027893692
0.00028282619
0.00028658715
0.00029022696
0.00029374093
0.00029715097
0.00030040802
0.00030370208
0.00030634199
0.00031107701
0.00019881306
0.00019925381
0.00019969977
0.00020011155
0.00020046194
0.00020073735
0.00020093708
0.00020106646
0.00020112924
0.00020112336
0.00020103948
0.00020086085
0.00020056431
0.00020012222
0.00019950482
0.0001986824
0.00019762705
0.00019631408
0.00019472303
0.00019283815
0.00019064835
0.0001881468
0.00018533049
0.00018219984
0.00017875795
0.00017500949
0.00017096028
0.00016661706
0.00016198646
0.00015707293
0.00015188126
0.00014641441
0.00014067078
0.00013464529
0.00012833631
0.00012173056
0.00011480861
0.00010757124
9.9984706e-05
9.2023806e-05
8.3706914e-05
7.5015806e-05
6.5947593e-05
5.6668293e-05
4.7399547e-05
3.8381193e-05
3.0042949e-05
2.2666416e-05
1.6805556e-05
1.2639058e-05
1.0200581e-05
9.7499013e-06
1.1111969e-05
1.436237e-05
1.9513706e-05
2.6382671e-05
3.4527673e-05
4.3455872e-05
5.2797344e-05
6.2332058e-05
7.1930596e-05
8.1508965e-05
9.1011371e-05
0.00010040055
0.00010965094
0.00011874488
0.00012767008
0.00013641807
0.00014498308
0.00015336138
0.00016155069
0.00016954985
0.00017735857
0.00018497721
0.00019240664
0.00019964814
0.00020670331
0.00021357401
0.00022026232
0.00022677049
0.00023310095
0.0002392562
0.0002452389
0.00025105175
0.00025669756
0.00026217919
0.00026749956
0.00027266168
0.00027766854
0.00028252337
0.000287229
0.00029178944
0.00029620627
0.0003004866
0.00030462615
0.00030864725
0.00031249807
0.00031638767
0.00031953047
0.00032512159
0.00020140728
0.00020173313
0.0002020612
0.00020236219
0.00020261368
0.00020280298
0.00020292836
0.00020299489
0.00020300899
0.00020297504
0.00020289372
0.00020276085
0.00020256705
0.00020229804
0.00020193551
0.00020145826
0.00020084343
0.00020006762
0.00019910814
0.00019794393
0.00019655614
0.00019492855
0.00019304775
0.00019090313
0.00018848687
0.00018579345
0.00018281936
0.00017956273
0.00017602296
0.00017219964
0.00016809261
0.00016370157
0.00015902476
0.00015405786
0.00014879636
0.00014323241
0.00013735145
0.00013114334
0.00012458898
0.00011766043
0.00011034382
0.00010261372
9.4425983e-05
8.5805494e-05
7.6724829e-05
6.7197802e-05
5.7423695e-05
4.7608207e-05
3.8167083e-05
2.9500462e-05
2.2026448e-05
1.6355598e-05
1.2536833e-05
1.092013e-05
1.1314043e-05
1.3858244e-05
1.8458904e-05
2.5047852e-05
3.3210451e-05
4.2398858e-05
5.2155719e-05
6.2194782e-05
7.2350488e-05
8.2518695e-05
9.2630743e-05
0.00010264096
0.00011251815
0.00012224071
0.00013179356
0.00014116623
0.00015035147
0.00015934437
0.00016814179
0.00017674189
0.00018514381
0.00019334746
0.00020135334
0.00020916244
0.0002167761
0.000224196
0.00023142407
0.00023846243
0.00024531339
0.00025197942
0.0002584631
0.00026476713
0.00027089431
0.00027684756
0.00028262982
0.00028824429
0.00029369384
0.00029898244
0.00030411187
0.00030908912
0.00031391035
0.00031859826
0.00032309825
0.00032763919
0.00033133628
0.00033786498
0.00020423545
0.0002044674
0.00020469916
0.0002049091
0.00020507886
0.00020519661
0.00020525938
0.00020527052
0.0002052358
0.000205161
0.00020505051
0.00020490629
0.00020472709
0.00020450811
0.00020424099
0.00020391413
0.00020351307
0.00020302113
0.00020242019
0.00020169139
0.00020081584
0.00019977522
0.00019855221
0.00019713092
0.00019549715
0.00019363843
0.00019154407
0.00018920506
0.00018661391
0.00018376425
0.00018065056
0.00017726789
0.00017361134
0.00016967515
0.0001654529
0.00016093701
0.00015611637
0.000150979
0.00014551006
0.00013968803
0.00013349172
0.00012689799
0.00011986874
0.00011238484
0.00010441278
9.5901254e-05
8.689464e-05
7.7312135e-05
6.7253228e-05
5.6915065e-05
4.660143e-05
3.6840889e-05
2.7975399e-05
2.0802168e-05
1.5588848e-05
1.2577547e-05
1.2016939e-05
1.3787176e-05
1.7828426e-05
2.4117037e-05
3.2266112e-05
4.1689113e-05
5.1847627e-05
6.2385801e-05
7.309771e-05
8.3857011e-05
9.4581229e-05
0.00010521576
0.00011572354
0.00012607891
0.00013626394
0.00014626604
0.00015607643
0.00016568902
0.00017509976
0.00018430607
0.00019330654
0.0002021006
0.0002106884
0.0002190706
0.00022724832
0.00023522304
0.00024299652
0.00025057077
0.00025794801
0.00026513065
0.00027212123
0.00027892248
0.0002855372
0.00029196847
0.00029821911
0.000304293
0.00031019206
0.0003159231
0.00032148272
0.00032689392
0.00033209935
0.00033734838
0.0003416524
0.00034920228
0.0002072901
0.0002074447
0.00020759717
0.00020773175
0.00020783349
0.0002078916
0.00020790227
0.0002078671
0.00020779039
0.00020767727
0.00020753274
0.00020736087
0.00020716406
0.00020694265
0.00020669462
0.00020641544
0.00020609806
0.00020573302
0.00020530873
0.00020481187
0.00020422779
0.00020354089
0.00020273517
0.00020179455
0.0002007033
0.00019944635
0.00019800949
0.00019637954
0.00019454441
0.0001924931
0.00019021554
0.00018770247
0.00018494522
0.00018193525
0.00017866385
0.00017512197
0.0001712991
0.00016718337
0.00016276134
0.00015801593
0.00015292733
0.00014747409
0.00014162664
0.00013535634
0.00012863231
0.00012140519
0.0001136605
0.00010533678
9.6394098e-05
8.6888611e-05
7.6696389e-05
6.6041168e-05
5.5091231e-05
4.4408197e-05
3.4417884e-05
2.5768257e-05
1.9148434e-05
1.480277e-05
1.3228497e-05
1.416343e-05
1.7631786e-05
2.3602568e-05
3.1718888e-05
4.1361765e-05
5.1915558e-05
6.2952514e-05
7.4223095e-05
8.5577245e-05
9.6918146e-05
0.00010818197
0.00011932557
0.00013031914
0.00014114183
0.00015177893
0.00016222006
0.00017245796
0.00018248764
0.0001923058
0.00020191044
0.00021130055
0.00022047588
0.00022943683
0.00023818426
0.00024671947
0.00025504406
0.00026315995
0.00027106928
0.00027877444
0.00028627796
0.00029358268
0.0003006913
0.00030760752
0.00031433332
0.00032087525
0.00032723036