/*--------------------------------*- C++ -*----------------------------------*\
| =========                 |                                                 |
| \\      /  F ield         | OpenFOAM: The Open Source CFD Toolbox           |
|  \\    /   O peration     | Version:  2206                                  |
|   \\  /    A nd           | Website:  www.openfoam.com                      |
|    \\/     M anipulation  |                                                 |
\*---------------------------------------------------------------------------*/
FoamFile
{
    version     2.0;
    format      ascii;
    arch        "LSB;label=32;scalar=64";
    class       volScalarField;
    location    "1100";
    object      p;
}
// * * * * * * * * * * * * * * * * * * * * * * * * * * * * * * * * * * * * * //

dimensions      [0 2 -2 0 0 0 0];

internalField   nonuniform List<scalar> 
7480
(
0.062808229
0.051892313
0.036487873
0.027134319
0.021859989
0.018695368
0.016700536
0.015175732
0.013838519
0.012723907
0.011839701
0.011145142
0.010619003
0.010234915
0.009962101
0.0097781284
0.0096626933
0.0096016412
0.0095750869
0.0095717188
0.0095931043
0.0096157439
0.0096316277
0.0096433809
0.0096489437
0.0096470999
0.009638653
0.0096237782
0.0096010617
0.0095710673
0.0095350372
0.0094934275
0.0094467317
0.00939572
0.0093403711
0.00928087
0.0092173953
0.0091498428
0.0090786375
0.0090041865
0.0089265437
0.0088456115
0.0087619311
0.0086755876
0.0085865644
0.0084952492
0.0084014572
0.0083053088
0.0082070078
0.0081063052
0.0080035411
0.0078986866
0.0077917591
0.0076829282
0.0075719557
0.0074590747
0.0073441973
0.0072273254
0.0071084572
0.0069875308
0.0068646705
0.0067397363
0.0066128297
0.0064838452
0.0063528071
0.0062196688
0.0060843916
0.0059469465
0.0058072976
0.0056654399
0.0055213174
0.005374926
0.0052262098
0.005075177
0.0049217652
0.0047659829
0.0046077758
0.0044471723
0.0042841302
0.0041186985
0.0039508565
0.0037806813
0.0036082031
0.0034335186
0.003256767
0.0030780714
0.0028977511
0.0027159997
0.0025334962
0.0023503921
0.0021685426
0.0019868954
0.0018123897
0.0016356907
0.0014876332
0.0013149466
0.0012545211
0.0010500281
0.0018236154
-0.001801478
0.059117416
0.050884629
0.038550468
0.029276664
0.022981127
0.019194133
0.016945674
0.015328126
0.013953924
0.012823639
0.011928507
0.011224267
0.010689873
0.010297954
0.010017571
0.0098267347
0.0097054287
0.00963901
0.0096112104
0.0096092234
0.0096229381
0.0096386058
0.0096521794
0.0096619254
0.009665681
0.0096622881
0.0096524955
0.009636416
0.0096126313
0.0095817097
0.0095448673
0.0095025271
0.0094551749
0.0094035707
0.0093476829
0.0092876948
0.0092237814
0.0091558318
0.0090842627
0.0090094789
0.0089315292
0.0088503143
0.0087663737
0.008679788
0.0085905396
0.008499015
0.0084050272
0.0083086969
0.0082102257
0.0081093635
0.00800645
0.0079014547
0.0077943948
0.0076854388
0.0075743481
0.0074613556
0.0073463727
0.0072294009
0.0071104384
0.0069894225
0.0068664771
0.006741462
0.0066144785
0.0064854209
0.0063543133
0.0062211087
0.0060857686
0.0059482635
0.0058085575
0.0056666454
0.0055224708
0.0053760299
0.0052272664
0.0050761885
0.0049227336
0.0047669102
0.0046086638
0.0044480229
0.004284945
0.0041194792
0.0039516047
0.0037813984
0.0036088906
0.0034341778
0.0032573992
0.0030786779
0.0028983332
0.0027165588
0.0025340334
0.0023509087
0.0021690402
0.0019873751
0.0018128543
0.0016361405
0.0014880747
0.0013153799
0.0012549598
0.0010505496
0.0018240309
-0.0018009176
0.055349695
0.048570131
0.037783149
0.029041527
0.023241251
0.019705411
0.017444378
0.015731621
0.014273148
0.013092084
0.012160093
0.011425008
0.010866624
0.010454472
0.010156653
0.0099512564
0.0098171119
0.0097391652
0.0097021011
0.0096910896
0.0096935146
0.0097014224
0.0097087404
0.0097127356
0.0097114582
0.0097037874
0.0096902815
0.0096708058
0.0096439787
0.0096104145
0.00957127
0.0095268624
0.0094776546
0.0094243743
0.009366968
0.0093055874
0.0092404186
0.0091713535
0.0090987496
0.0090230221
0.0089442072
0.0088621982
0.008777532
0.0086902757
0.008600408
0.0085083105
0.0084137888
0.0083169652
0.0082180361
0.0081167467
0.0080134366
0.0079080704
0.0078006639
0.0076913832
0.0075799871
0.0074667088
0.0073514566
0.0072342316
0.0071150307
0.0069937903
0.0068706333
0.0067454179
0.0066182453
0.0064890087
0.0063577319
0.0062243669
0.0060888749
0.0059512259
0.0058113834
0.0056693417
0.0055250442
0.0053784864
0.0052296118
0.0050784284
0.0049248732
0.0047689543
0.0046106172
0.00444989
0.00428673
0.004121186
0.0039532371
0.00378296
0.0036103849
0.0034356081
0.0032587687
0.0030799897
0.0028995903
0.002717764
0.0025351899
0.0023520192
0.0021701086
0.0019884033
0.0018138499
0.0016371012
0.0014890211
0.001316299
0.0012559089
0.0010515056
0.0018251142
-0.0018001841
0.052447487
0.046850005
0.037526893
0.029352277
0.023815499
0.020258236
0.017904056
0.016140511
0.014649734
0.013438863
0.012473022
0.011702757
0.011115306
0.010677499
0.010356357
0.010130131
0.0099767611
0.0098816565
0.0098293849
0.0098049697
0.0097961313
0.0097944227
0.0097931285
0.0097894695
0.0097813025
0.0097675471
0.0097486667
0.009724272
0.0096930087
0.0096555594
0.009612968
0.0095654238
0.0095133861
0.0094575421
0.009397804
0.0093342112
0.0092670403
0.0091962128
0.0091219369
0.00904469
0.0089644812
0.0088811892
0.0087953497
0.0087070083
0.0086161385
0.0085231129
0.0084277235
0.0083300987
0.0082304254
0.0081284415
0.0080244879
0.0079185204
0.0078105531
0.0077007476
0.0075888585
0.0074751197
0.0073594339
0.007241801
0.0071222165
0.0070006159
0.0068771202
0.0067515848
0.0066241107
0.0064945893
0.0063630435
0.006229424
0.0060936911
0.0059558143
0.0058157562
0.0056735101
0.0055290186
0.0053822769
0.0052332279
0.0050818789
0.0049281663
0.0047720981
0.0046136191
0.0044527571
0.0042894689
0.0041238032
0.0039557385
0.0037853513
0.0036126716
0.0034377954
0.0032608616
0.003081993
0.0029015088
0.0027196021
0.0025369525
0.0023537104
0.0021717344
0.0019899665
0.0018153613
0.0016385586
0.0014904518
0.0013176872
0.0012573325
0.001052881
0.0018267836
-0.001799198
0.04973491
0.045023414
0.037060078
0.029704055
0.024453285
0.020842815
0.018365756
0.016506724
0.014944675
0.013716508
0.012747199
0.011969364
0.011365664
0.010905596
0.010564738
0.010320638
0.010150873
0.010040859
0.0099730517
0.0099338559
0.009912165
0.0098989035
0.0098883194
0.0098770448
0.009862081
0.0098421702
0.0098177661
0.0097883132
0.0097524031
0.0097107834
0.0096643675
0.0096132541
0.0095579279
0.0094990722
0.0094365765
0.0093703442
0.009300765
0.0092277841
0.0091514592
0.009072335
0.0089903929
0.008905497
0.0088181845
0.0087284747
0.0086363367
0.0085421341
0.0084456386
0.0083469856
0.0082463546
0.0081434753
0.0080386914
0.0079319463
0.0078232534
0.0077127692
0.0076002426
0.0074859088
0.0073696617
0.0072515002
0.0071314187
0.007009352
0.0068854184
0.0067594693
0.0066316055
0.0065017165
0.0063698237
0.0062358758
0.0060998322
0.0059616618
0.0058213259
0.0056788167
0.0055340757
0.0053870976
0.0052378245
0.005086263
0.0049323486
0.0047760889
0.004617428
0.0044563933
0.0042929411
0.0041271196
0.0039589068
0.003788379
0.0036155656
0.0034405624
0.003263508
0.0030845251
0.0029039325
0.0027219232
0.0025391769
0.0023558435
0.002173783
0.0019919349
0.0018172611
0.0016403895
0.0014922408
0.001319422
0.0012590922
0.001054582
0.0018288585
-0.0017979697
0.047231792
0.043123192
0.036373526
0.029837259
0.024879519
0.02133187
0.018815184
0.016901114
0.015302422
0.014034326
0.013025343
0.012207198
0.011576968
0.011098246
0.010748142
0.010492214
0.010305517
0.010184751
0.010107735
0.010060241
0.01003096
0.010008972
0.0099894583
0.0099695294
0.0099465562
0.0099198612
0.0098900383
0.0098559779
0.0098158551
0.0097704413
0.0097204825
0.009665956
0.0096073854
0.0095454919
0.0094801499
0.0094112092
0.0093391282
0.0092638343
0.0091853193
0.0091041669
0.0090203301
0.0089336582
0.0088447026
0.0087534514
0.0086598703
0.0085643258
0.0084665671
0.0083667364
0.0082650052
0.0081610913
0.0080553434
0.0079476917
0.0078381506
0.0077268723
0.0076136001
0.0074985691
0.0073816622
0.0072628792
0.0071422136
0.0070195983
0.0068951489
0.0067687118
0.006640388
0.0065100651
0.0063777632
0.0062434278
0.0061070175
0.0059685007
0.0058278372
0.0056850177
0.0055399824
0.0053927256
0.0052431886
0.0050913769
0.0049372249
0.0047807398
0.0046218649
0.0044606271
0.004296982
0.0041309773
0.0039625905
0.0037918974
0.003618927
0.0034437747
0.0032665788
0.0030874615
0.0029067416
0.0027246116
0.0025417516
0.0023583106
0.0021761501
0.0019942075
0.0018194501
0.0016424974
0.0014942905
0.0013214073
0.001261084
0.0010565148
0.0018312046
-0.0017965406
0.04504801
0.041349541
0.035563398
0.029777744
0.025162366
0.021733876
0.019212245
0.017266408
0.015656807
0.014363024
0.013324531
0.012478405
0.011817405
0.011308116
0.010929165
0.010645992
0.010436635
0.010302902
0.010217391
0.010161744
0.010125597
0.010100065
0.01007883
0.010057142
0.010031186
0.0099998221
0.00996448
0.009924895
0.0098797252
0.009830334
0.0097771682
0.0097197152
0.0096583879
0.0095938892
0.0095260095
0.0094545923
0.0093801788
0.0093026561
0.009221993
0.0091388329
0.0090530899
0.0089646
0.0088739459
0.0087810814
0.0086859713
0.0085889964
0.0084898853
0.0083887913
0.0082858754
0.0081808377
0.0080740379
0.0079653919
0.0078549157
0.0077427586
0.0076286553
0.0075128447
0.0073952007
0.0072757241
0.0071544059
0.0070311752
0.0069061453
0.0067791579
0.0066503149
0.0065195018
0.0063867376
0.0062519636
0.0061151379
0.0059762287
0.0058351938
0.0056920225
0.0055466538
0.0053990811
0.0052492446
0.0050971489
0.0049427271
0.004785986
0.0046268682
0.0044653999
0.0043015358
0.0041353231
0.0039667387
0.0037958581
0.0036227094
0.0034473878
0.0032700311
0.0030907612
0.0029098966
0.0027276295
0.0025446399
0.0023610763
0.0021788012
0.0019967504
0.0018218951
0.0016448496
0.0014965675
0.0013236096
0.0012632706
0.0010586371
0.001833765
-0.0017949163
0.043139383
0.03980693
0.034768872
0.029614354
0.025336475
0.022048335
0.019552887
0.017597609
0.015982999
0.01467029
0.01361084
0.012747283
0.012064289
0.011529572
0.011127163
0.010819859
0.010585855
0.010430724
0.010324218
0.010250123
0.010200242
0.010167336
0.010142814
0.010118774
0.010092858
0.010063203
0.010029208
0.0099900544
0.0099433124
0.0098907659
0.0098338486
0.0097727266
0.009708362
0.0096414885
0.0095715079
0.0094980743
0.0094217684
0.0093423785
0.0092598448
0.0091748942
0.0090874018
0.0089972034
0.0089049289
0.008810498
0.008713884
0.0086154862
0.0085150102
0.0084126307
0.0083084992
0.0082022982
0.0080944048
0.0079847185
0.0078732571
0.0077601686
0.0076451766
0.0075285285
0.0074100924
0.0072898693
0.0071678461
0.0070439478
0.0069182865
0.0067906993
0.0066612896
0.0065299394
0.0063966668
0.0062614107
0.0061241284
0.0059847869
0.0058433421
0.0056997825
0.0055540456
0.0054061236
0.0052559554
0.0051035448
0.0049488239
0.004791799
0.0046324116
0.0044706872
0.0043065799
0.0041401362
0.0039713322
0.0038002429
0.0036268959
0.003451386
0.0032738503
0.0030944104
0.0029133845
0.0027309644
0.0025478298
0.0023641293
0.0021817252
0.0019995531
0.0018245854
0.0016474354
0.0014990604
0.0013260171
0.0012656378
0.0010609303
0.0018365085
-0.0017930806
0.041428376
0.038449689
0.034050662
0.029434397
0.025457443
0.02230534
0.019850701
0.017899028
0.016285095
0.014962166
0.013887464
0.013008421
0.012305105
0.011749661
0.011324117
0.010995958
0.010743528
0.010568069
0.010442558
0.010351829
0.010287094
0.01024004
0.01020306
0.010168528
0.010136045
0.010104853
0.01007099
0.010032498
0.0099887635
0.0099393757
0.0098846831
0.0098238542
0.0097578679
0.0096884144
0.0096157293
0.0095399593
0.0094618995
0.0093810167
0.0092970329
0.0092107073
0.009121823
0.009030207
0.008936549
0.0088407327
0.008742754
0.0086430402
0.0085412729
0.0084376614
0.0083323506
0.0082250056
0.0081160278
0.0080052992
0.0078928435
0.0077788081
0.0076629056
0.0075453952
0.0074261369
0.0073051347
0.0071823722
0.0070577713
0.0069314434
0.0068032209
0.0066732092
0.0065412855
0.006407468
0.0062716951
0.006133923
0.0059941161
0.0058522293
0.00570825
0.0055621145
0.005413814
0.0052632858
0.005110533
0.0049554869
0.004798153
0.0046384718
0.0044764682
0.0043120953
0.0041453992
0.0039763551
0.0038050376
0.0036314735
0.0034557572
0.0032780253
0.0030983989
0.0029171958
0.0027346075
0.0025513134
0.0023674618
0.0021849147
0.0020026084
0.0018275138
0.0016502479
0.0015017615
0.0013286217
0.0012681753
0.0010633818
0.0018394073
-0.0017910105
0.039873561
0.037214897
0.033376857
0.029246368
0.025552214
0.022533847
0.020126479
0.018184125
0.016572805
0.015243207
0.014155681
0.013262544
0.012541454
0.011967124
0.01152005
0.011172301
0.010902097
0.010706811
0.010563725
0.010458307
0.010379857
0.010319822
0.010272066
0.010228172
0.010187144
0.01014811
0.010106893
0.01006252
0.010017075
0.0099684874
0.009915338
0.0098576461
0.009795324
0.0097286617
0.0096571976
0.0095807605
0.009500968
0.0094181269
0.0093324097
0.0092448129
0.0091548573
0.0090622007
0.0089675384
0.008870668
0.008771601
0.0086707986
0.0085679171
0.008463216
0.0083568385
0.0082484351
0.0081384408
0.0080267199
0.0079133069
0.0077983507
0.0076815527
0.0075631874
0.0074431059
0.0073213176
0.0071978041
0.0070724857
0.0069454734
0.006816595
0.0066859594
0.006553439
0.0064190527
0.006282738
0.0061444504
0.0060041528
0.0058617987
0.0057173745
0.0055708155
0.005422112
0.0052711999
0.0051180816
0.0049626874
0.0048050223
0.0046450259
0.0044827223
0.0043180637
0.0041510957
0.0039817927
0.0038102289
0.0036364303
0.0034604908
0.0032825466
0.003102718
0.0029213227
0.0027385517
0.002555084
0.0023710678
0.0021883642
0.0020059109
0.0018306751
0.0016532819
0.0015046648
0.0013314173
0.0012708749
0.0010659809
0.0018424351
-0.0017886788
0.038452776
0.03607407
0.032720151
0.029031284
0.025613349
0.022735381
0.02038528
0.018459548
0.016853177
0.015518726
0.01441962
0.013513076
0.012775454
0.012183004
0.011715871
0.011348978
0.01106123
0.010847168
0.010687224
0.010566368
0.010474115
0.010401963
0.010343909
0.010291643
0.010242981
0.010196877
0.010149345
0.010099744
0.010049313
0.0099957092
0.0099379256
0.009878182
0.0098166275
0.0097518408
0.009683187
0.0096103733
0.0095335201
0.0094522987
0.0093664413
0.009277654
0.0091862567
0.0090923449
0.0089967851
0.008899146
0.0087993287
0.0086977737
0.0085940718
0.0084885315
0.008381293
0.0082719955
0.0081611206
0.0080485157
0.0079342342
0.0078184289
0.0077007907
0.0075816144
0.0074607415
0.0073381895
0.0072139395
0.0070879113
0.0069602173
0.0068306803
0.0066994146
0.0065662884
0.006431322
0.0062944516
0.006155633
0.0060148281
0.0058719891
0.0057271018
0.0055801004
0.005430975
0.0052796599
0.0051261571
0.0049703959
0.004812381
0.0046520508
0.0044894291
0.0043244671
0.0041572099
0.0039876312
0.0038158046
0.0036417555
0.0034655774
0.0032874057
0.0031073605
0.0029257588
0.0027427913
0.0025591365
0.0023749427
0.0021920693
0.0020094568
0.0018340654
0.0016565337
0.001507766
0.0013343993
0.0012737303
0.0010687193
0.0018455663
-0.0017860537
0.03714982
0.035014933
0.03207415
0.028781722
0.025631801
0.022902156
0.020621563
0.018722462
0.017125964
0.015789832
0.014681197
0.01376217
0.01300884
0.01239881
0.011912389
0.011526642
0.011221465
0.010989237
0.010812507
0.010676342
0.010570538
0.01048634
0.010417535
0.010356483
0.01030021
0.010247427
0.010194491
0.010140287
0.010085308
0.010027473
0.0099661846
0.009903102
0.0098380441
0.0097696797
0.009698897
0.0096266999
0.0095517159
0.0094731056
0.0093907156
0.0093047794
0.0092149835
0.0091211075
0.0090246737
0.0089259593
0.0088252624
0.0087230828
0.0086188215
0.0085127472
0.0084049409
0.0082950041
0.0081834675
0.0080701584
0.0079551576
0.0078386272
0.0077202495
0.0076003464
0.0074787505
0.0073554901
0.0072305475
0.0071038432
0.0069754933
0.0068453157
0.0067134321
0.0065797073
0.0064441636
0.0063067365
0.0061673828
0.0060260641
0.0058827316
0.0057373709
0.0055899157
0.0054403557
0.0052886241
0.0051347227
0.00497858
0.0048202005
0.0046595216
0.0044965667
0.0043312863
0.0041637251
0.0039938559
0.0038217521
0.0036474382
0.0034710074
0.0032925946
0.0031123192
0.002930498
0.0027473212
0.0025634665
0.0023790827
0.0021960268
0.0020132431
0.0018376817
0.0016600004
0.0015110618
0.0013375641
0.0012767361
0.0010715894
0.0018487753
-0.0017830983
0.035951159
0.034029254
0.031440186
0.028500155
0.025606066
0.023029678
0.020829565
0.018967533
0.017387441
0.016054187
0.014939171
0.014009396
0.013241637
0.012614877
0.012109964
0.011705788
0.011383291
0.011133251
0.010939806
0.010788473
0.010669042
0.010572772
0.010493196
0.010423109
0.010359049
0.010299442
0.010240845
0.010181767
0.010122393
0.010060965
0.0099967403
0.0099307708
0.0098627709
0.0097917565
0.0097185728
0.0096438076
0.0095660365
0.0094856101
0.0094038517
0.0093197285
0.0092324353
0.0091417934
0.0090479754
0.0089505845
0.0088498796
0.0087470005
0.008641933
0.0085352831
0.0084270639
0.0083167278
0.0082047992
0.0080910375
0.0079755383
0.0078584706
0.0077395085
0.0076190101
0.0074968
0.007372923
0.0072473638
0.0071200466
0.0069910926
0.0068603157
0.0067278474
0.0065935495
0.006457448
0.006319478
0.0061795984
0.0060377709
0.0058939467
0.0057481117
0.0056001992
0.0054501992
0.0052980442
0.0051437359
0.0049872024
0.004828448
0.0046674095
0.0045041101
0.0043384995
0.0041706222
0.0040004503
0.003828057
0.003653466
0.0034767703
0.0032981041
0.0031175864
0.0029355337
0.0027521356
0.0025680692
0.0023834837
0.002200233
0.0020172666
0.0018415212
0.0016636796
0.001514549
0.0013409085
0.0012798872
0.0010745839
0.0018520347
-0.0017797706
0.034845174
0.033110048
0.030820774
0.028192276
0.025539194
0.023117637
0.02100645
0.01919087
0.017634027
0.016308799
0.015191235
0.01425316
0.013472786
0.012830573
0.012308219
0.011886256
0.0115467
0.011279244
0.011069267
0.010902835
0.010769734
0.010661306
0.0105709
0.010491627
0.010419666
0.010353073
0.010288562
0.010224433
0.010160588
0.010095415
0.010028028
0.0099591622
0.0098886189
0.0098155393
0.0097403953
0.0096634826
0.00958368
0.0095014787
0.0094177494
0.0093313966
0.0092427654
0.0091528681
0.009060818
0.0089658967
0.0088681403
0.0087675204
0.0086633725
0.0085565873
0.0084477982
0.0083368901
0.0082245952
0.0081105522
0.0079947845
0.0078774156
0.0077580829
0.0076371774
0.0075145114
0.0073901516
0.0072640887
0.0071362535
0.0070067761
0.0068754672
0.0067424708
0.0066076464
0.0064710253
0.0063325432
0.0061921618
0.0060498442
0.0059055421
0.0057592424
0.0056108786
0.0054604417
0.0053078639
0.0051531471
0.0049962193
0.0048370851
0.0046756807
0.0045120297
0.0043460808
0.0041778788
0.0040073948
0.0038347024
0.0036598242
0.0034828533
0.0033039234
0.0031231529
0.002940858
0.0027572279
0.0025729388
0.0023881408
0.0022046838
0.002021524
0.0018455807
0.0016675683
0.0015182242
0.0013444292
0.0012831782
0.0010776956
0.001855315
-0.0017760229
0.0338218
0.032251093
0.030218069
0.027864157
0.025435892
0.023167963
0.021151594
0.019390298
0.017863184
0.016551194
0.015435215
0.014491745
0.013700962
0.013044922
0.012506426
0.012067536
0.011711381
0.011427001
0.011200775
0.01101937
0.010872638
0.010752011
0.010650715
0.010562105
0.010482083
0.010408365
0.010337788
0.01026848
0.010200036
0.010130938
0.010060229
0.0099883829
0.0099152082
0.0098399033
0.0097627393
0.0096839601
0.009602653
0.0095190709
0.0094337492
0.0093458448
0.0092558365
0.0091643011
0.0090704108
0.0089747804
0.0088779323
0.0087790454
0.0086773665
0.0085731513
0.0084661019
0.0083557311
0.0082431865
0.0081286833
0.0080125766
0.0078949962
0.0077754692
0.0076543682
0.0075314506
0.0074067904
0.0072803804
0.0071521604
0.007022273
0.0068905278
0.0067570856
0.0066218043
0.0064847229
0.0063457784
0.0062049365
0.0060621626
0.00591741
0.0057706675
0.0056218694
0.0054710085
0.0053180169
0.0051628979
0.0050055792
0.0048460664
0.0046842955
0.0045202904
0.0043539995
0.0041854678
0.004014666
0.0038416677
0.0036664951
0.0034892412
0.0033100392
0.0031290072
0.002946461
0.0027625897
0.0025780684
0.0023930481
0.0022093742
0.0020260107
0.0018498561
0.0016716629
0.0015220832
0.001348122
0.0012866031
0.0010809161
0.0018585834
-0.0017718013
0.032872276
0.03144679
0.029633589
0.027521339
0.025301212
0.023183585
0.021265697
0.019564921
0.018073343
0.016779568
0.015669335
0.0147236
0.013924859
0.013256879
0.012703746
0.012248995
0.01187689
0.01157618
0.01133409
0.011137924
0.010977662
0.010844846
0.010732631
0.010634568
0.01054635
0.01046539
0.010388607
0.010313974
0.010240804
0.010167646
0.010093485
0.010018562
0.0099426505
0.0098649917
0.0097857236
0.0097050229
0.0096220921
0.0095370623
0.0094503821
0.0093613809
0.009270326
0.0091775549
0.0090824838
0.0089857487
0.0088874109
0.0087869913
0.0086853075
0.0085821744
0.0084768134
0.0083689405
0.008258554
0.0081451695
0.0080292402
0.0079113835
0.0077915297
0.0076702428
0.0075472019
0.0074224217
0.0072958521
0.0071674201
0.0070372749
0.0069052231
0.0067714466
0.0066358036
0.006498344
0.0063590074
0.0062177651
0.0060745859
0.0059294257
0.0057822761
0.0056330731
0.005481812
0.0053284259
0.0051729196
0.0050152214
0.0048553384
0.0046932065
0.0045288507
0.004362219
0.0041933573
0.0040222357
0.0038489285
0.0036734574
0.0034959154
0.0033164354
0.0031351354
0.0029523309
0.0027682108
0.002583449
0.0023981979
0.0022142974
0.002030721
0.0018543421
0.0016759589
0.0015261211
0.0013519823
0.0012901552
0.0010842362
0.0018618034
-0.0017670452
0.031988951
0.030692093
0.029068242
0.027168588
0.025140003
0.023167773
0.021350184
0.019714681
0.01826367
0.016992704
0.015892238
0.014947435
0.014143313
0.013465448
0.012899336
0.012429955
0.012042721
0.011726383
0.011468915
0.011258281
0.011084654
0.010939709
0.010816584
0.01070899
0.010612468
0.010524167
0.010441047
0.010360953
0.01028295
0.010205616
0.010127886
0.010049783
0.0099710364
0.0098909231
0.0098094618
0.0097267615
0.0096421146
0.0095555649
0.0094674814
0.0093772835
0.0092851443
0.0091913708
0.0090954908
0.0089978895
0.0088985472
0.0087971959
0.0086945751
0.0085900351
0.0084836352
0.0083762383
0.0082671869
0.0081556968
0.0080419711
0.0079256979
0.0078064307
0.0076850636
0.0075617699
0.0074368243
0.0073101718
0.0071816727
0.0070514377
0.0069192408
0.0067852756
0.0066493965
0.0065116668
0.0063720311
0.0062304689
0.0060869538
0.0059414456
0.00579394
0.0056443755
0.0054927508
0.0053390005
0.0051831321
0.0050250749
0.0048648381
0.0047023581
0.0045376613
0.004370696
0.004201509
0.0040300704
0.0038564553
0.003680685
0.0035028531
0.0033230923
0.0031415204
0.0029584527
0.0027740782
0.0025890694
0.0024035807
0.002219445
0.0020356477
0.0018590322
0.0016804503
0.0015303316
0.0013560042
0.0012938265
0.0010876453
0.0018649336
-0.0017616864
0.031165126
0.029982476
0.028522436
0.026809879
0.024956717
0.023123822
0.021406829
0.019840034
0.01843383
0.017189829
0.016102926
0.015162217
0.014355337
0.013669735
0.013092408
0.012609752
0.012208348
0.011877179
0.011604914
0.011380188
0.011193425
0.011036466
0.010902477
0.01078531
0.010680402
0.010584678
0.010495108
0.010409431
0.010326495
0.010244878
0.010163465
0.010082089
0.010000423
0.009917769
0.0098340381
0.009749269
0.0096628285
0.0095746833
0.0094851272
0.0093936573
0.0093003806
0.0092055618
0.0091087779
0.0090103294
0.0089102412
0.0088082674
0.0087048652
0.0085995028
0.0084923648
0.0083840015
0.0082737375
0.0081620391
0.0080490736
0.0079341447
0.0078169668
0.0076974053
0.0075750344
0.0074502535
0.0073234442
0.0071947972
0.0070645038
0.0069322738
0.0067982685
0.006662303
0.0065244405
0.0063846255
0.006242847
0.0060990858
0.0059533074
0.0058055133
0.0056556456
0.0055037077
0.0053496363
0.0051934423
0.0050350567
0.0048744918
0.0047116849
0.0045466643
0.0043793791
0.0042098776
0.0040381301
0.0038642129
0.0036881472
0.0035100274
0.0033299862
0.0031481413
0.0029648083
0.002780176
0.0025949159
0.0024091842
0.0022248066
0.0020407815
0.001863918
0.0016851298
0.0015347071
0.0013601805
0.0012976074
0.0010911309
0.0018679277
-0.0017556487
0.030394914
0.029313894
0.0279962
0.026448475
0.024755353
0.02305492
0.021437562
0.019941744
0.018583815
0.01737047
0.016300665
0.015367124
0.014560098
0.013868956
0.013282241
0.012787759
0.012373256
0.012028135
0.011741738
0.011503368
0.011303764
0.011134959
0.010990191
0.010863449
0.0107501
0.010646885
0.01055077
0.010459404
0.010371439
0.010285438
0.010200238
0.0101155
0.010030834
0.0099455579
0.0098594863
0.0097725888
0.0096842899
0.0095944899
0.0095034079
0.0094106058
0.0093161295
0.0092202007
0.0091224511
0.0090231215
0.0089222375
0.0088195537
0.0087154612
0.0086095485
0.0085018838
0.0083928331
0.008281894
0.0081695686
0.0080555378
0.0079397872
0.0078229857
0.0077045476
0.0075838317
0.0074608595
0.0073352233
0.0072069739
0.0070766357
0.0069442811
0.0068102317
0.0066742649
0.0065363976
0.0063965401
0.0062546731
0.006110779
0.0059648289
0.005816832
0.0056667357
0.0055145497
0.0053602136
0.0052037431
0.0050450713
0.0048842143
0.0047211108
0.0045557922
0.0043882084
0.0042184099
0.0040463675
0.0038721595
0.003695807
0.0035174056
0.0033370883
0.003154973
0.0029713756
0.0027864851
0.0026009715
0.0024149938
0.002230369
0.0020461108
0.001868989
0.0016899878
0.001539238
0.0013645022
0.0013014868
0.0010946782
0.0018707327
-0.0017488462
0.029673129
0.028682737
0.027489283
0.026087005
0.024539455
0.022964087
0.021444381
0.020020775
0.018713842
0.017534372
0.01648491
0.015561484
0.014756888
0.014062415
0.013468181
0.012963388
0.012536947
0.012178824
0.01187903
0.011627538
0.011415445
0.011235015
0.011079595
0.010943308
0.010821493
0.01071074
0.010608001
0.010510853
0.010417773
0.010327294
0.010238207
0.010150021
0.010062279
0.0099743023
0.0098858214
0.0097967381
0.0097065202
0.0096150108
0.0095223584
0.0094281753
0.0093324539
0.0092353722
0.0091366096
0.0090363444
0.008934603
0.0088311615
0.0087263595
0.008619831
0.0085115937
0.0084020058
0.0082906432
0.0081777832
0.0080631642
0.007946888
0.0078293256
0.0077099643
0.007589171
0.0074669631
0.0073426191
0.007216119
0.0070871224
0.0069553461
0.0068213487
0.0066852968
0.0065473988
0.006407559
0.0062657127
0.0061218091
0.0059758059
0.0058277126
0.0056774807
0.0055251277
0.0053705979
0.005213913
0.0050550093
0.0048939074
0.0047305482
0.0045649666
0.0043971139
0.0042270437
0.0040547276
0.0038802461
0.003703621
0.0035249494
0.0033443647
0.0031619855
0.002978128
0.0027929819
0.0026072156
0.0024209912
0.0022361162
0.0020516214
0.0018742323
0.0016950129
0.0015439127
0.0013689587
0.0013054516
0.00109827
0.0018732877
-0.0017411831
0.028995185
0.028085787
0.02700124
0.025727565
0.024312135
0.022854149
0.021429289
0.020078232
0.018824305
0.017681441
0.016655261
0.015744739
0.014945083
0.014249481
0.013649621
0.013136083
0.012698938
0.012328827
0.012016436
0.011752403
0.011528233
0.011336448
0.011170543
0.01102478
0.010894502
0.010776185
0.010666763
0.010563749
0.010465476
0.010370435
0.010277369
0.010185653
0.01009476
0.010004007
0.0099130505
0.0098217249
0.0097295291
0.0096362574
0.009541991
0.0094463809
0.0093493741
0.0092511056
0.0091512923
0.0090500563
0.0089474217
0.0088431839
0.008737621
0.00863042
0.0085215809
0.0084114282
0.0082995689
0.0081862178
0.0080712105
0.0079545547
0.0078364812
0.0077166178
0.0075952955
0.0074722371
0.0073475403
0.0072214778
0.0070934793
0.0069633135
0.0068307114
0.0066953658
0.0065576182
0.0064177339
0.0062758683
0.0061319961
0.0059860324
0.0058379541
0.0056876961
0.0055352754
0.0053806394
0.0052238167
0.0050647482
0.0049034605
0.0047398973
0.0045740978
0.0044060154
0.0042357071
0.004063146
0.0038884156
0.0037115384
0.0035326135
0.0033517753
0.0031691432
0.0029850342
0.0027996386
0.0026136236
0.0024271546
0.0022420288
0.0020572961
0.0018796322
0.001700191
0.0015487173
0.0013735369
0.0013094864
0.001101886
0.0018755241
-0.0017325524
0.02835702
0.027520171
0.026531493
0.025371791
0.024076092
0.022727728
0.021394269
0.020115319
0.018915737
0.017811726
0.016811439
0.015916425
0.015124134
0.014429577
0.013825992
0.013305312
0.012858759
0.012477729
0.012153597
0.011877667
0.011641884
0.011439064
0.011262881
0.011107749
0.010969039
0.010843154
0.010727006
0.010618062
0.010514526
0.010414843
0.010317713
0.010222389
0.010128275
0.010034674
0.0099411755
0.009847552
0.0097533212
0.0096582351
0.0095623114
0.0094652295
0.009366898
0.0092674091
0.00916651
0.0090642741
0.0089607195
0.0088556561
0.0087493047
0.0086414006
0.0085319241
0.0084211559
0.0083087528
0.0081948989
0.0080794499
0.0079623761
0.0078439117
0.007723731
0.0076019973
0.0074784958
0.0073534132
0.0072266183
0.0070980422
0.0069681076
0.0068363639
0.0067023949
0.0065660185
0.0064269235
0.0062852892
0.0061414117
0.005995442
0.0058474052
0.0056972005
0.0055448129
0.0053901714
0.0052333034
0.0050741517
0.0049127501
0.004749046
0.0045830845
0.0044148214
0.004244318
0.0040715491
0.003896602
0.0037195
0.0035403453
0.0033592733
0.0031764044
0.0029920571
0.0028064224
0.0026201663
0.0024334581
0.0022480836
0.0020631141
0.0018851699
0.0017055049
0.001553635
0.0013782213
0.0013135732
0.0011055025
0.001877377
-0.0017228339
0.027755026
0.026983321
0.026079381
0.025020943
0.023833651
0.022587231
0.021341253
0.020133308
0.018988793
0.017925401
0.016953278
0.016076169
0.015293551
0.014602167
0.013996751
0.013470558
0.013015944
0.012625115
0.012290152
0.012003023
0.011756147
0.011542658
0.011356446
0.011192087
0.011045011
0.010911575
0.010788679
0.010673753
0.010564895
0.010460501
0.010359227
0.010260222
0.010162816
0.010066298
0.0099701952
0.009874219
0.0097778977
0.0096809459
0.0095833219
0.0094847245
0.0093850289
0.0092842863
0.0091822672
0.0090790029
0.0089745017
0.0088685861
0.0087614264
0.0086527969
0.0085426586
0.0084312514
0.0083182781
0.0082038835
0.0080879428
0.0079704241
0.0078515443
0.0077309906
0.0076088918
0.0074851054
0.007359684
0.0072325021
0.0071035873
0.0069730793
0.006840722
0.0067067817
0.0065711008
0.0064331899
0.0062928784
0.006149836
0.0060041562
0.0058561468
0.0057059489
0.0055536115
0.0053990334
0.0052422113
0.0050830695
0.0049216396
0.0047578708
0.0045918144
0.0044234298
0.0042527837
0.0040798532
0.0039047297
0.0037274383
0.0035480842
0.0033668042
0.0031837206
0.0029991533
0.0028132945
0.002626809
0.0024398709
0.002254253
0.0020690508
0.0018908228
0.0017109344
0.001558646
0.0013829936
0.0013176911
0.0011090915
0.0018787948
-0.0017118918
0.027185993
0.026472937
0.025644192
0.024675968
0.023586793
0.022434845