/*--------------------------------*- C++ -*----------------------------------*\
| =========                 |                                                 |
| \\      /  F ield         | OpenFOAM: The Open Source CFD Toolbox           |
|  \\    /   O peration     | Version:  2206                                  |
|   \\  /    A nd           | Website:  www.openfoam.com                      |
|    \\/     M anipulation  |                                                 |
\*---------------------------------------------------------------------------*/
FoamFile
{
    version     2.0;
    format      ascii;
    arch        "LSB;label=32;scalar=64";
    class       surfaceScalarField;
    location    "1100";
    object      phi;
}
// * * * * * * * * * * * * * * * * * * * * * * * * * * * * * * * * * * * * * //

dimensions      [0 3 -1 0 0 0 0];

oriented        oriented;

internalField   nonuniform List<scalar> 
14782
(
0.00064615992
7.5216201e-05
-0.00072137613
0.000552632
9.3527923e-05
0.00046309054
8.954146e-05
0.0003911614
7.192914e-05
0.0003399111
5.1250306e-05
0.00030381291
3.6098183e-05
0.00027705516
2.6757757e-05
0.00025592185
2.1133304e-05
0.00023842812
1.7493734e-05
0.00022368758
1.4740542e-05
0.00021122118
1.24664e-05
0.00020064941
1.0571769e-05
0.00019167194
8.9774667e-06
0.00018403421
7.6377278e-06
0.00017751177
6.5224403e-06
0.00017192346
5.5883131e-06
0.00016712046
4.8029995e-06
0.0001629803
4.1401564e-06
0.00015939001
3.5902981e-06
0.00015624373
3.146276e-06
0.00015346534
2.7783924e-06
0.00015097621
2.4891238e-06
0.00014872044
2.2557714e-06
0.00014665905
2.061388e-06
0.00014475976
1.8992967e-06
0.00014299715
1.7626033e-06
0.00014135187
1.6452826e-06
0.00013980634
1.5455357e-06
0.00013834369
1.4626427e-06
0.00013695241
1.3912883e-06
0.00013562565
1.326755e-06
0.00013435701
1.2686387e-06
0.00013314039
1.2166264e-06
0.00013197062
1.1697635e-06
0.00013084312
1.1275004e-06
0.00012975251
1.0906066e-06
0.00012869431
1.0582021e-06
0.00012766611
1.0282057e-06
0.00012666489
1.0012183e-06
0.00012568811
9.7677677e-07
0.00012473371
9.5439955e-07
0.00012379958
9.3413596e-07
0.00012288455
9.1502136e-07
0.00012198748
8.9707404e-07
0.00012110706
8.8042258e-07
0.00012024245
8.6461125e-07
0.00011939229
8.501534e-07
0.00011855559
8.367015e-07
0.00011773176
8.2383264e-07
0.00011691986
8.1190143e-07
0.0001161195
8.0035435e-07
0.00011533019
7.8930966e-07
0.00011455147
7.7872468e-07
0.00011378308
7.6838768e-07
0.00011302445
7.5863566e-07
0.00011227535
7.4909862e-07
0.00011153538
7.3996836e-07
0.00011080412
7.3125952e-07
0.00011008124
7.2287924e-07
0.00010936651
7.1473383e-07
0.00010865989
7.0661184e-07
0.00010796116
6.9873782e-07
0.00010727015
6.9100309e-07
0.00010658669
6.8346698e-07
0.00010591063
6.7605451e-07
0.0001052418
6.6883207e-07
0.00010457998
6.6181659e-07
0.00010392504
6.5494323e-07
0.00010327686
6.4818337e-07
0.00010263533
6.4152572e-07
0.00010200032
6.3500735e-07
0.00010137173
6.2859257e-07
0.00010074945
6.2227884e-07
0.00010013341
6.1604686e-07
9.9523452e-05
6.0995396e-07
9.8919483e-05
6.0396888e-07
9.8321375e-05
5.9810837e-07
9.7729036e-05
5.9233843e-07
9.7142345e-05
5.8669066e-07
9.6561208e-05
5.8113725e-07
9.5985494e-05
5.7571379e-07
9.5415098e-05
5.7039643e-07
9.4849882e-05
5.652162e-07
9.4289705e-05
5.6017631e-07
9.3734419e-05
5.5528642e-07
9.3183822e-05
5.5059711e-07
9.2637718e-05
5.4610425e-07
9.2095813e-05
5.4190505e-07
9.1557812e-05
5.3800108e-07
9.1023214e-05
5.3459724e-07
9.0491552e-05
5.3166233e-07
8.996173e-05
5.2982237e-07
8.9433147e-05
5.2858221e-07
8.8902433e-05
5.3071479e-07
8.8370454e-05
5.3197819e-07
8.7821779e-05
5.4867572e-07
8.7270826e-05
5.5095256e-07
8.6623511e-05
6.4731514e-07
8.635763e-05
2.6588051e-07
1.1943261e-06
0.00078822506
8.1366073e-05
-0.00079437493
0.0007695848
0.00011216818
0.00073468958
0.00012443668
0.0006873741
0.00011924462
0.00063523384
0.00010339057
0.00058557166
8.5760357e-05
0.00054186079
7.0468627e-05
0.00050471044
5.8283654e-05
0.00047340719
4.8796983e-05
0.00044699256
4.1155177e-05
0.00042457332
3.4885638e-05
0.00040541271
2.9732376e-05
0.00038896094
2.5429236e-05
0.00037478924
2.1809428e-05
0.00036254804
1.8763643e-05
0.00035194895
1.6187407e-05
0.00034273599
1.4015955e-05
0.0003346861
1.2190045e-05
0.00032760786
1.0668541e-05
0.00032134016
9.4139768e-06
0.00031574724
8.371309e-06
0.00031071036
7.526005e-06
0.00030613608
6.8300574e-06
0.00030195154
6.2459216e-06
0.00029809656
5.7542767e-06
0.00029452288
5.3362893e-06
0.00029119201
4.9761517e-06
0.0002880698
4.6677404e-06
0.00028512669
4.4057585e-06
0.00028234019
4.177787e-06
0.00027969392
3.9730248e-06
0.00027717322
3.7893421e-06
0.00027476497
3.6248757e-06
0.0002724578
3.4769338e-06
0.00027024212
3.34318e-06
0.00026810721
3.2255177e-06
0.00026604405
3.1213593e-06
0.00026404715
3.0250994e-06
0.0002621099
2.9384723e-06
0.0002602268
2.8598815e-06
0.00025839336
2.7878386e-06
0.00025660534
2.7221548e-06
0.00025485962
2.6607405e-06
0.00025315334
2.6033492e-06
0.00025148373
2.5500401e-06
0.00024984847
2.4998701e-06
0.00024824489
2.4537342e-06
0.00024667078
2.4108063e-06
0.0002451245
2.3701117e-06
0.00024360421
2.3321911e-06
0.00024210868
2.2958899e-06
0.00024063665
2.2613339e-06
0.00023918703
2.2283482e-06
0.00023775894
2.1964769e-06
0.00023635126
2.1663161e-06
0.00023496324
2.1371148e-06
0.00023359398
2.10923e-06
0.00023224256
2.0826841e-06
0.00023090821
2.0572313e-06
0.00022959036
2.0325781e-06
0.00022828871
2.0082642e-06
0.00022700271
1.9847331e-06
0.00022573194
1.9617814e-06
0.00022447592
1.9394814e-06
0.00022323431
1.9176704e-06
0.00022200665
1.8964895e-06
0.00022079249
1.8759703e-06
0.00021959149
1.8559445e-06
0.00021840335
1.8363263e-06
0.00021722779
1.8170889e-06
0.00021606449
1.7983005e-06
0.00021491321
1.7798802e-06
0.00021377368
1.7618007e-06
0.0002126457
1.7440278e-06
0.00021152897
1.7266824e-06
0.00021042324
1.7096991e-06
0.00020932825
1.6930993e-06
0.00020824378
1.6768122e-06
0.00020716957
1.6608957e-06
0.00020610542
1.6452958e-06
0.00020505105
1.6300833e-06
0.00020400623
1.6152128e-06
0.00020297069
1.6007519e-06
0.00020194416
1.5867138e-06
0.00020092631
1.5731329e-06
0.00019991678
1.5601234e-06
0.00019891517
1.5477193e-06
0.00019792096
1.5361174e-06
0.0001969335
1.5254575e-06
0.00019595205
1.5160471e-06
0.00019497534
1.5083713e-06
0.00019400223
1.5029324e-06
0.00019302968
1.5011355e-06
0.00019205576
1.5046319e-06
0.00019107298
1.5147563e-06
0.00019007213
1.5495243e-06
0.00018904017
1.5829151e-06
0.00018793055
1.7569316e-06
0.0001870325
1.1639375e-06
2.7403943e-06
0.00082980708
7.7974169e-05
-0.00082641517
0.00083408475
0.0001078905
0.00083511241
0.00012340902
0.00082826262
0.00012609441
0.00081003085
0.00012162234
0.00078239499
0.00011339622
0.00074967318
0.00010319043
0.00071544577
9.2511068e-05
0.00068191104
8.2331707e-05
0.00065039786
7.2668359e-05
0.00062155641
6.3727094e-05
0.00059559107
5.5697716e-05
0.0005724544
4.8565904e-05
0.00055193944
4.2324384e-05
0.00053377152
3.6931568e-05
0.00051767294
3.2285988e-05
0.00050337672
2.8312174e-05
0.00049064395
2.492281e-05
0.00047926451
2.2047983e-05
0.00046905572
1.9622769e-05
0.00045985418
1.7572852e-05
0.0004515179
1.5862278e-05
0.00044392588
1.4422083e-05
0.00043697588
1.3195918e-05
0.00043057981
1.2150346e-05
0.00042466132
1.125478e-05
0.00041915823
1.0479244e-05
0.00041402014
9.8058316e-06
0.00040920339
9.2225058e-06
0.00040467132
8.7098597e-06
0.00040039285
8.2514867e-06
0.00039634091
7.8412869e-06
0.00039249198
7.4738088e-06
0.0003888261
7.142812e-06
0.00038532611
6.8431653e-06
0.00038197418
6.5774521e-06
0.00037875571
6.3398295e-06
0.00037565977
6.1210376e-06
0.00037267462
5.9236225e-06
0.00036979085
5.7436537e-06
0.0003670003
5.578386e-06
0.00036429535
5.427108e-06
0.00036166964
5.2864481e-06
0.00035911746
5.1555305e-06
0.00035663346
5.0340354e-06
0.00035421302
4.9203125e-06
0.00035185149
4.8152695e-06
0.00034954481
4.7174842e-06
0.00034728961
4.6253134e-06
0.00034508254
4.5392549e-06
0.0003429209
4.4575283e-06
0.00034080212
4.3801188e-06
0.00033872387
4.3065948e-06
0.0003366842
4.236154e-06
0.00033468103
4.1694813e-06
0.00033271269
4.1054576e-06
0.00033077741
4.0445109e-06
0.00032887352
3.9865711e-06
0.00032699958
3.9311662e-06
0.00032515439
3.8777685e-06
0.00032333699
3.8256726e-06
0.00032154626
3.7754604e-06
0.00031978123
3.7268069e-06
0.00031804098
3.679738e-06
0.00031632466
3.6339874e-06
0.00031463141
3.589735e-06
0.00031296039
3.5469909e-06
0.00031131088
3.5054595e-06
0.00030968222
3.4649814e-06
0.00030807382
3.4254931e-06
0.00030648506
3.3870623e-06
0.00030491539
3.3495495e-06
0.0003033643
3.3128887e-06
0.0003018313
3.277026e-06
0.00030031586
3.242123e-06
0.00029881749
3.2080727e-06
0.0002973357
3.1748862e-06
0.00029587006
3.1424533e-06
0.00029442011
3.1108435e-06
0.00029298543
3.0799753e-06
0.00029156557
3.0499446e-06
0.0002901601
3.0206849e-06
0.00028876855
2.9922967e-06
0.00028739046
2.9648051e-06
0.00028602532
2.9382772e-06
0.00028467255
2.9128926e-06
0.00028333151
2.8887604e-06
0.00028200146
2.8661622e-06
0.00028068142
2.8455006e-06
0.00027937041
2.8270576e-06
0.00027806643
2.81235e-06
0.0002767684
2.8009588e-06
0.00027547104
2.7985e-06
0.00027417421
2.8014646e-06
0.00027286248
2.826486e-06
0.00027153464
2.8773659e-06
0.00027015
2.967556e-06
0.0002687161
3.1908298e-06
0.00026728196
2.5980729e-06
4.4082088e-06
0.00086003255
7.4402496e-05
-0.00085646088
0.00086619609
0.00010172696
0.00087221774
0.00011738737
0.00087644968
0.00012186248
0.00087787512
0.0001201969
0.00087504815
0.00011622319
0.00086672287
0.00011151571
0.00085259912
0.00010663482
0.00083355011
0.00010138072
0.00081126338
9.4955086e-05
0.00078713315
8.7857318e-05
0.00076226996
8.0560906e-05
0.00073759652
7.3239346e-05
0.00071380177
6.6119136e-05
0.00069134723
5.9386111e-05
0.00067049187
5.3141342e-05
0.00065132001
4.7484036e-05
0.00063379908
4.2443744e-05
0.00061782592
3.8021144e-05
0.00060326869
3.4179996e-05
0.00058998929
3.0852252e-05
0.00057785523
2.7996334e-05
0.00056674252
2.5534798e-05
0.00055653675
2.3401684e-05
0.00054713283
2.1554272e-05
0.00053843471
1.99529e-05
0.00053035973
1.8554225e-05
0.00052283943
1.732613e-05
0.00051581318
1.624875e-05
0.00050922757
1.5295477e-05
0.0005030358
1.4443248e-05
0.00049719682
1.3680276e-05
0.00049167427
1.2996356e-05
0.00048643729
1.2379788e-05
0.00048145918
1.1821282e-05
0.0004767159
1.1320726e-05
0.00047218619
1.0869541e-05
0.00046785104
1.0456191e-05
0.00046369347
1.0081189e-05
0.00045969856
9.7385615e-06
0.0004558532
9.4237526e-06
0.00045214527
9.1350379e-06
0.00044856424
8.867471e-06
0.00044510063
8.6191449e-06
0.00044174566
8.389008e-06
0.00043849174
8.174233e-06
0.00043533167
7.9753319e-06
0.00043225897
7.7901909e-06
0.00042926802
7.6162588e-06
0.0004263535
7.4537771e-06
0.00042351075
7.3002799e-06
0.00042073542
7.1554505e-06
0.00041802356
7.0184502e-06
0.00041537177
6.8879468e-06
0.00041277672
6.7645317e-06
0.00041023546
6.6467107e-06
0.00040774513
6.534848e-06
0.00040530309
6.4286113e-06
0.00040290703
6.3272198e-06
0.00040055488
6.2299238e-06
0.00039824477
6.1357758e-06
0.00039597485
6.0453877e-06
0.00039374341
5.9582472e-06
0.00039154887
5.8742723e-06
0.0003893898
5.7930629e-06
0.00038726475
5.7147812e-06
0.00038517239
5.6393551e-06
0.00038311151
5.5663403e-06
0.000381081
5.4954909e-06
0.00037907982
5.4266746e-06
0.00037710696
5.3599153e-06
0.00037516152
5.294996e-06
0.0003732426
5.2318035e-06
0.00037134938
5.1702495e-06
0.000369481
5.1104996e-06
0.00036763669
5.0523886e-06
0.00036581567
4.9959033e-06
0.00036401723
4.9408867e-06
0.00036224068
4.8874027e-06
0.00036048532
4.8353348e-06
0.00035875047
4.7847909e-06
0.00035703548
4.7356788e-06
0.00035533965
4.6881239e-06
0.00035366229
4.6421599e-06
0.00035200268
4.5978883e-06
0.00035036002
4.5555513e-06
0.00034873343
4.5153542e-06
0.00034712194
4.4776539e-06
0.00034552425
4.4431921e-06
0.00034393915
4.4121516e-06
0.00034236411
4.3873969e-06
0.00034079794
4.3671199e-06
0.00033923389
4.3625559e-06
0.00033767271
4.3626434e-06
0.00033609401
4.4051818e-06
0.00033450113
4.470247e-06
0.00033283574
4.6329523e-06
0.00033113858
4.8879898e-06
0.00032928678
4.4498698e-06
6.1869482e-06
0.00088996896
7.138641e-05
-0.00088695288
0.00089579077
9.590516e-05
0.00090211883
0.00011105931
0.00090745685
0.00011652446
0.00091121568
0.00011643807
0.0009137451
0.00011369376
0.00091484279
0.00011041803
0.00091411218
0.00010736542
0.00091125284
0.00010424006
0.00090526387
0.00010094405
0.00089572764
9.7393553e-05
0.0008827746
9.3513943e-05
0.00086703318
8.8980773e-05
0.00084921388
8.393843e-05
0.00082995991
7.8640081e-05
0.00080991032
7.3190936e-05
0.00078967366
6.7720693e-05
0.00076977757
6.2339837e-05
0.00075062484
5.7173872e-05
0.00073247949
5.232535e-05
0.00071547208
4.7859664e-05
0.00069962761
4.3840799e-05
0.00068490843
4.0253979e-05
0.00067124786
3.7062248e-05
0.00065856793
3.4234207e-05
0.00064678745
3.1733381e-05
0.00063582656
2.9515117e-05
0.00062560934
2.754335e-05
0.00061606388
2.5794211e-05
0.00060712514
2.4234214e-05
0.00059873515
2.2833242e-05
0.0005908412
2.1574222e-05
0.00058339551
2.0442045e-05
0.0005763563
1.9418997e-05
0.0005696862
1.8491383e-05
0.0005633532
1.7653728e-05
0.00055732857
1.6894172e-05
0.00055158491
1.6199844e-05
0.00054609868
1.5567428e-05
0.00054084885
1.4988388e-05
0.00053581651
1.4456092e-05
0.00053098408
1.3967465e-05
0.0005263361
1.3515457e-05
0.00052185852
1.3096724e-05
0.00051753836
1.2709165e-05
0.00051336442
1.2348176e-05
0.00050932649
1.2013262e-05
0.00050541533
1.170135e-05
0.00050162274
1.1408844e-05
0.00049794086
1.1135665e-05
0.00049436261
1.0878525e-05
0.00049088151
1.0636554e-05
0.00048749162
1.0408343e-05
0.00048418771
1.0191848e-05
0.00048096483
9.9874206e-06
0.00047781843
9.7931061e-06
0.0004747443
9.6089799e-06
0.00047173867
9.4342401e-06
0.00046879815
9.2677408e-06
0.00046591951
9.1085626e-06
0.00046309981
8.9554746e-06
0.00046033622
8.8089777e-06
0.00045762618
8.6682901e-06
0.00045496729
8.5331612e-06
0.00045235735
8.4030062e-06
0.00044979423
8.2778926e-06
0.000447276
8.1575917e-06
0.00044480085
8.0414926e-06
0.00044236709
7.9292455e-06
0.00043997316
7.8206023e-06
0.00043761758
7.7154939e-06
0.00043529897
7.6136054e-06
0.00043301601
7.5147701e-06
0.00043076742
7.4188364e-06
0.00042855199
7.325927e-06
0.00042636858
7.2357977e-06
0.00042421609
7.1483955e-06
0.00042209348
7.0635034e-06
0.00041999972
6.9811605e-06
0.00041793385
6.9012028e-06
0.00041589491
6.8237346e-06
0.00041388196
6.7486287e-06
0.00041189406
6.6760238e-06
0.00040993026
6.605956e-06
0.00040798959
6.5385566e-06
0.00040607102
6.4741259e-06
0.0004041734
6.4129752e-06
0.00040229552
6.3555311e-06
0.00040043579
6.302918e-06
0.00039859276
6.2551848e-06
0.00039676343
6.216726e-06
0.00039494644
6.1841069e-06
0.00039313402
6.1749769e-06
0.00039132719
6.169473e-06
0.00038950257
6.2298085e-06
0.00038766552
6.3072965e-06
0.00038574688
6.5515934e-06
0.00038380677
6.8280986e-06
0.000381599
6.6576386e-06
8.1020649e-06
0.00092079561
6.8767014e-05
-0.00091817621
0.00092598224
9.0718528e-05
0.00093179242
0.00010524913
0.00093691232
0.00011140455
0.0009410078
0.0001123426
0.00094400026
0.0001107013
0.00094612632
0.00010829197
0.00094760396
0.00010588778
0.00094856468
0.00010327934
0.00094887
0.00010063874
0.0009482
9.806355e-05
0.00094625982
9.5454123e-05
0.00094242829
9.2812299e-05
0.00093624741
9.0119317e-05
0.00092751214
8.7375348e-05
0.00091633381
8.4369269e-05
0.00090304265
8.1011849e-05
0.00088797101
7.7411484e-05
0.00087151313
7.3631744e-05
0.00085415095
6.9687536e-05
0.00083640051
6.5610099e-05
0.00081873207
6.1509243e-05
0.00080152322
5.7462828e-05
0.00078502729
5.3558184e-05
0.00076937657
4.9884927e-05
0.00075461313
4.649682e-05
0.00074072749
4.3400749e-05
0.00072768464
4.0586204e-05
0.00071543655
3.8042301e-05
0.00070393096
3.5739808e-05
0.0006931139
3.36503e-05
0.00068293102
3.1757101e-05
0.00067333036
3.0042704e-05
0.00066426424
2.8485117e-05
0.00065568766
2.7067964e-05
0.00064755995
2.5781431e-05
0.00063984511
2.4609018e-05
0.00063250897
2.353598e-05
0.0006255206
2.2555804e-05
0.00061885268
2.165631e-05
0.00061248029
2.0828474e-05
0.00060638022
2.0067534e-05
0.00060053173
1.9363954e-05
0.00059491588
1.8712571e-05
0.00058951521
1.8109837e-05
0.00058431426
1.7549119e-05
0.00057929899
1.7028531e-05
0.00057445679
1.6543555e-05
0.00056977632
1.6089315e-05
0.00056524679
1.5665199e-05
0.00056085847
1.5266835e-05
0.00055660243
1.4892596e-05
0.0005524704
1.4540381e-05
0.00054845497
1.4207277e-05
0.00054454906
1.3893329e-05
0.00054074628
1.3595883e-05
0.00053704089
1.331437e-05
0.00053342772
1.3047412e-05
0.00052990198
1.2793483e-05
0.00052645908
1.2551457e-05
0.00052309485
1.2319711e-05
0.00051980532
1.2098506e-05
0.00051658691
1.1886696e-05
0.00051343625
1.1683825e-05
0.00051035018
1.1489078e-05
0.00050732577
1.1302303e-05
0.00050436033
1.1123027e-05
0.00050145136
1.0950467e-05
0.00049859647
1.0784132e-05
0.00049579348
1.0623595e-05
0.00049304033
1.0468641e-05
0.0004903351
1.0318841e-05
0.0004876759
1.0173968e-05
0.00048506098
1.0033756e-05
0.00048248868
9.8982291e-06
0.00047995743
9.7670452e-06
0.00047746573
9.6400926e-06
0.00047501216
9.5170743e-06
0.00047259534
9.3979832e-06
0.00047021395
9.2825899e-06
0.00046786671
9.170977e-06
0.00046555237
9.0629685e-06
0.00046326969
8.9587025e-06
0.00046101744
8.8582069e-06
0.00045879436
8.7616349e-06
0.00045659915
8.6693374e-06
0.00045443039
8.5817335e-06
0.00045228661
8.4993155e-06
0.00045016591
8.4236148e-06
0.00044806656
8.3545316e-06
0.00044598519
8.2980973e-06
0.00044392016
8.249136e-06
0.00044186297
8.2321712e-06
0.00043981454
8.2178983e-06
0.00043774956
8.2947886e-06
0.00043567417
8.3826952e-06
0.000433512
8.7137625e-06
0.00043133579
9.0043005e-06
0.00042880037
9.1930643e-06
1.0171554e-05
0.00095264772
6.646734e-05
-0.00095034805
0.00095726673
8.6099528e-05
0.00096260077
9.991509e-05
0.00096738694
0.00010661838
0.00097126447
0.00010846507
0.00097424395
0.00010772182
0.00097655564
0.00010598028
0.00097843224
0.00010401118
0.00097988256
0.00010182902
0.00098095391
9.9567389e-05
0.00098170145
9.7316006e-05
0.0009821381
9.5017474e-05
0.00098219073
9.2759672e-05
0.00098166845
9.0641597e-05
0.00098042167
8.8622128e-05
0.00097807183
8.6719105e-05
0.00097414212
8.4941559e-05
0.00096834621
8.3207394e-05
0.00096049336
8.1484595e-05
0.00095058674
7.9594152e-05
0.00093876811
7.7428734e-05
0.00092524248
7.5034869e-05
0.0009103377
7.2367611e-05
0.00089449819
6.9397689e-05
0.0008782118
6.6171319e-05
0.00086192384
6.2784781e-05
0.00084598154
5.9343052e-05
0.00083060779
5.5959952e-05
0.00081591395
5.2736141e-05
0.00080193965
4.9714103e-05
0.00078868573
4.6904226e-05
0.00077613292
4.4309912e-05
0.00076425117
4.1924451e-05
0.00075300447
3.9731818e-05
0.00074235254
3.7719892e-05
0.00073225448
3.5879491e-05
0.00072267196
3.4191542e-05
0.00071356776
3.2640181e-05
0.00070490623
3.1217327e-05
0.00069665491
2.9907634e-05
0.00068878378
2.86996e-05
0.0006812647
2.7586615e-05
0.00067407205
2.6556602e-05
0.00066718219
2.5602438e-05
0.00066057322
2.4718802e-05
0.00065422535
2.3896996e-05
0.00064812017
2.3133705e-05
0.00064224112
2.2422605e-05
0.00063657327
2.1757171e-05
0.00063110257
2.1135897e-05
0.00062581635
2.0553056e-05
0.00062070286
2.0006079e-05
0.00061575128
1.9491968e-05
0.00061095176
1.9006789e-05
0.00060629497
1.8550126e-05
0.0006017724
1.8118449e-05
0.00059737638
1.7710387e-05
0.00059309994
1.7323859e-05
0.0005889366
1.6956821e-05
0.00058488028
1.6607774e-05
0.0005809254
1.6274591e-05
0.00057706672
1.5957184e-05
0.00057329947
1.5653953e-05
0.00056961906
1.5364233e-05
0.00056602123
1.5086902e-05
0.00056250214
1.4821397e-05
0.00055905823
1.4566935e-05
0.00055568613
1.4322574e-05
0.00055238264
1.4087615e-05
0.00054914484
1.3861394e-05
0.00054596998
1.3643503e-05
0.00054285548
1.3433346e-05
0.00053979884
1.3230599e-05
0.00053679776
1.3034843e-05
0.00053385002
1.2845962e-05
0.00053095358
1.2663485e-05
0.00052810646
1.2487215e-05
0.00052530679
1.2316748e-05
0.00052255276
1.2152007e-05
0.00051984268
1.1992674e-05
0.00051717487
1.1838789e-05
0.00051454773
1.1690109e-05
0.00051195968
1.1546755e-05
0.00050940915
1.1408732e-05
0.00050689458
1.1276203e-05
0.00050441436
1.114956e-05
0.00050196677
1.1029327e-05
0.00049955003
1.0916056e-05
0.00049716194
1.0811698e-05
0.00049480048
1.0715998e-05
0.00049246188
1.063669e-05
0.00049014421
1.0566807e-05
0.00048783837
1.0538017e-05
0.000485545
1.0511265e-05
0.00048323743
1.0602359e-05
0.00048092191
1.0698216e-05
0.00047851688
1.111879e-05
0.00047610457
1.1416617e-05
0.00047325263
1.2045006e-05
1.240878e-05
0.00098567183
6.4436189e-05
-0.00098364068
0.00098978161
8.1989748e-05
0.00099468895
9.5007747e-05
0.00099922948
0.00010207785
0.0010029681
0.00010472641
0.0010058898
0.00010480012
0.0010081816
0.00010368848
0.001010048
0.00010214478
0.001011566
0.00010031105
0.0010128061
9.8327328e-05
0.0010138191
9.6303007e-05
0.0010145964
9.4240107e-05
0.0010151423
9.221378e-05
0.0010155228
9.0261086e-05
0.0010156877
8.8457299e-05
0.0010155895
8.6817315e-05
0.0010152013
8.5329734e-05
0.0010143553
8.4053355e-05
0.0010128603
8.2979621e-05
0.0010103852
8.2069205e-05
0.0010065562
8.1257789e-05
0.001001064
8.0527024e-05
0.00099370552
7.9726126e-05
0.00098442903
7.8674181e-05
0.00097329267
7.7307681e-05
0.00096048332
7.5594131e-05
0.00094634736
7.3479016e-05
0.0009313481
7.0959208e-05
0.00091596516
6.8119078e-05
0.00090061184
6.5067428e-05
0.00088558223
6.1933834e-05
0.00087104834
5.8843802e-05
0.00085709312
5.5879671e-05
0.00084374875
5.307619e-05
0.00083101976
5.0448883e-05
0.00081889436
4.8004887e-05
0.00080735148
4.5734428e-05
0.00079636342
4.3628239e-05
0.00078589908
4.1681664e-05
0.00077592741
3.9879305e-05
0.00076641766
3.8209353e-05
0.00075733961
3.6664664e-05
0.00074866488
3.5231326e-05
0.00074036653
3.3900795e-05
0.00073241911
3.2666221e-05
0.00072479917
3.1516929e-05
0.00071748456
3.0448323e-05
0.00071045492
2.9452239e-05
0.00070369173
2.8520366e-05
0.00069717752
2.76501e-05
0.00069089642
2.6834159e-05
0.00068483365
2.6068848e-05
0.00067897563
2.5349993e-05
0.00067330993
2.4672482e-05
0.00066782484
2.4035218e-05
0.0006625096
2.3433692e-05
0.00065735424
2.2865744e-05
0.00065234967
2.2328424e-05
0.00064748754
2.1818961e-05
0.00064276003
2.1335277e-05
0.00063816
2.0874629e-05
0.00063368069
2.0436489e-05
0.00062931594
2.0018705e-05
0.00062505987
1.9620296e-05
0.00062090702
1.9239752e-05
0.0006168524
1.8876024e-05
0.00061289139
1.8527941e-05
0.00060901965
1.8194313e-05
0.00060523309
1.7874182e-05
0.00060152788
1.7566602e-05
0.00059790046
1.7270919e-05
0.00059434751
1.6986297e-05
0.00059086586
1.6712257e-05
0.00058745251
1.6448194e-05
0.00058410466
1.6193808e-05
0.00058081967
1.5948471e-05
0.00057759503
1.5711861e-05
0.00057442834
1.5483438e-05
0.00057131732
1.5263022e-05
0.00056825982
1.5050182e-05
0.00056525372
1.484489e-05
0.00056229701
1.4646814e-05
0.00055938773
1.4456038e-05
0.00055652393
1.4272526e-05
0.0005537037
1.4096437e-05
0.00055092507
1.392819e-05
0.00054818599
1.3768404e-05
0.00054548436
1.3617686e-05
0.00054281765
1.347841e-05
0.00054018348
1.3350165e-05
0.00053757775
1.3242424e-05
0.00053499814
1.3146415e-05
0.00053243504
1.3101116e-05
0.00052988872
1.3057587e-05
0.00052733145
1.3159624e-05
0.00052476928
1.3260391e-05
0.00052211653
1.3771533e-05
0.00051946356
1.4069587e-05
0.00051629655
1.5212019e-05
1.4825532e-05
0.0010199
6.260872e-05
-0.0010180725
0.0010235595
7.8330191e-05
0.0010280558
9.0511507e-05
0.0010323689
9.7764716e-05
0.0010360251
0.0001010702
0.0010389457
0.0001018795
0.0010412596
0.00010137465
0.0010431356
0.00010026871
0.0010446639
9.8782742e-05
0.001045917
9.7074226e-05
0.0010469514
9.5268694e-05
0.0010477902
9.3401277e-05
0.0010484589
9.1545077e-05
0.0010489758
8.9744212e-05
0.0010493576
8.8075507e-05
0.001049608
8.6566838e-05
0.0010497428
8.5194955e-05
0.0010497652
8.4030993e-05
0.00104965
8.3094815e-05
0.001049355
8.2364228e-05
0.0010487774
8.1835342e-05
0.0010477964
8.150808e-05
0.0010461921
8.133039e-05
0.0010436208
8.1245443e-05
0.0010397309
8.1197651e-05
0.0010341986
8.1126358e-05
0.0010268212
8.0856411e-05
0.0010175474
8.0233054e-05
0.0010064427
7.9223721e-05
0.00099375291
7.7757263e-05
0.00097989138
7.5795361e-05
0.00096534589
7.3389293e-05
0.00095057055
7.0655016e-05
0.00093591287
6.7733871e-05
0.00092159286
6.4768893e-05
0.00090772879
6.1868954e-05
0.00089437854
5.9084684e-05
0.00088156627
5.6440506e-05
0.0008692957
5.3952234e-05
0.00085755793
5.1617069e-05
0.0008463354
4.9431888e-05
0.00083560553
4.7394537e-05
0.00082534415
4.5492704e-05
0.00081552593
4.3719011e-05
0.00080612536
4.2066798e-05
0.00079711784
4.052444e-05
0.00078847932
3.9086852e-05
0.000780187
3.774455e-05
0.00077221962
3.6487751e-05
0.00076455682
3.5312904e-05
0.00075717982
3.4211159e-05
0.000750071
3.317766e-05
0.00074321405
3.2206944e-05
0.00073659394
3.1292596e-05
0.00073019644
3.0432716e-05
0.00072400846
2.9621678e-05
0.00071801772
2.8856482e-05
0.00071221292
2.8133226e-05
0.00070658361
2.7448271e-05
0.00070112008
2.6798802e-05
0.0006958134
2.6181314e-05
0.00069065513
2.5594757e-05
0.00068563753
2.5036306e-05
0.00068075333
2.4504498e-05
0.00067599573
2.3997343e-05
0.00067135843
2.3513323e-05
0.00066683559
2.3050789e-05
0.00066242174
2.2608161e-05
0.00065811176
2.2184155e-05
0.00065390087
2.1777494e-05
0.00064978457
2.1387224e-05
0.00064575866
2.1012207e-05
0.00064181917
2.0651738e-05
0.00063796239
2.0304976e-05
0.0006341848
1.99714e-05
0.00063048309
1.9650182e-05
0.00062685411
1.9340835e-05
0.00062329491
1.9042645e-05
0.00061980263
1.8755295e-05
0.0006163746
1.8478212e-05
0.00061300822
1.8211269e-05
0.00060970102
1.7954023e-05
0.00060645056
1.7706492e-05
0.00060325451
1.7468581e-05
0.00060011052
1.7240425e-05
0.00059701626
1.7022454e-05
0.00059396929
1.6815371e-05
0.00059096715
1.6619829e-05
0.00058800693
1.643862e-05
0.00058508592
1.627118e-05
0.00058219961
1.6128738e-05
0.00057934529
1.6000727e-05
0.00057651288
1.5933526e-05
0.00057370218
1.586829e-05
0.00057088461
1.5977196e-05
0.00056806582
1.6079182e-05
0.00056515664
1.668071e-05
0.0005622551
1.6971128e-05
0.00055876824
1.8698878e-05
1.7433406e-05
0.0010553142
6.0925922e-05
-0.0010536314
0.0010585927
7.5051714e-05
0.001062699
8.6405234e-05
0.0010667707
9.369301e-05
0.0010703386
9.7502301e-05
0.0010732698
9.894831e-05
0.0010756321
9.9012313e-05
0.0010775557
9.8345137e-05
0.0010791259
9.7212528e-05
0.0010804112
9.578891e-05
0.0010814675
9.4212431e-05
0.0010823267
9.2542017e-05
0.0010830199
9.0851895e-05
0.0010835686
8.9195542e-05
0.001084
8.7644107e-05
0.0010843332
8.6233647e-05
0.0010845722
8.4955951e-05
0.001084732
8.3871195e-05
0.0010848311
8.2995659e-05
0.0010848661
8.2329306e-05
0.0010848334
8.1868001e-05
0.0010847319
8.160954e-05
0.0010845187
8.1543592e-05
0.0010841279
8.1636296e-05
0.0010834573
8.1868276e-05
0.0010823637
8.2219885e-05
0.0010805729
8.2647239e-05
0.0010777156
8.309033e-05
0.0010734316
8.3507733e-05
0.0010674207
8.3768141e-05
0.0010595199
8.3696242e-05
0.0010497078
8.3201315e-05
0.0010381498
8.221309e-05
0.00102521
8.0673627e-05
0.001011371
7.8607867e-05
0.00099711001
7.6129971e-05
0.00098280871
7.3385982e-05
0.00096871874
7.053048e-05
0.00095498324
6.768774e-05
0.00094167923
6.4921071e-05
0.00092884594
6.2265185e-05
0.00091649916
5.9741314e-05
0.00090463987
5.7351997e-05
0.0008932586
5.510028e-05
0.00088233985
5.2985544e-05
0.00087186523
5.0999061e-05
0.00086181398
4.9138105e-05
0.00085216472
4.7393805e-05
0.00084289619
4.5756282e-05
0.00083398709
4.4222004e-05
0.00082541717
4.2781074e-05
0.00081716697
4.1427866e-05
0.00080921808
4.0155829e-05
0.00080155333
3.8957346e-05
0.00079415628
3.7829773e-05
0.00078701163
3.6766326e-05
0.00078010495
3.5763154e-05
0.0007734228
3.4815377e-05
0.00076695264
3.3918437e-05
0.00076068275
3.3068685e-05
0.00075460233
3.2261737e-05
0.00074870116
3.1495931e-05
0.00074296979
3.0767675e-05
0.0007373994
3.0074889e-05
0.00073198174
2.9414996e-05
0.00072670911
2.8785959e-05
0.0007215743
2.8185596e-05
0.00071657063
2.7611833e-05
0.00071169181
2.7062974e-05
0.00070693196
2.6537343e-05
0.00070228555
2.6033632e-05
0.00069774742
2.5550339e-05
0.00069331271
2.5086454e-05
0.00068897684
2.4640846e-05
0.0006847355
2.4212739e-05
0.00068058463
2.3801045e-05
0.0006765204
2.340507e-05
0.00067253916
2.3023884e-05
0.00066863746
2.2656999e-05
0.00066481201
2.230366e-05
0.00066105966
2.1963613e-05
0.00065737742
2.1636269e-05
0.00065376235
2.1321557e-05
0.00065021163
2.1019299e-05
0.00064672248
2.072958e-05
0.00064329211
2.0452824e-05
0.00063991768
2.0189803e-05
0.00063659631
1.9941201e-05
0.0006333247
1.9710224e-05
0.00063009973
1.9496151e-05
0.00062691649
1.9311979e-05
0.00062377185
1.9145363e-05
0.00062065525
1.905013e-05
0.00061756597
1.8957571e-05
0.00061447468
1.906849e-05
0.00061138655
1.9167313e-05
0.00060820922
1.9858039e-05
0.00060504844
2.0131908e-05
0.00060123249
2.2514822e-05
2.0244463e-05
0.0010919027
5.934826e-05
-0.001090325
0.0010948668
7.2087601e-05
0.0010986197
8.2652334e-05
0.0011024423
8.9870374e-05
0.0011058976
9.4047042e-05
0.0011088216
9.6024317e-05
0.0011112299
9.660402e-05
0.0011132124
9.6362539e-05
0.0011148418
9.5583205e-05
0.0011161793
9.4451371e-05
0.0011172781
9.3113608e-05
0.0011181731
9.1647038e-05
0.0011188961
9.0128925e-05
0.0011194717
8.8619937e-05
0.0011199276
8.7188221e-05
0.0011202861
8.5875123e-05
0.0011205575
8.4684513e-05
0.0011207607
8.366808e-05
0.00112091
8.2846294e-05
0.001121015
8.2224279e-05
0.001121081
8.1802016e-05
0.0011211194
8.1571204e-05
0.001121131
8.1531936e-05
0.0011211054
8.1661872e-05
0.0011210313
8.1942392e-05
0.0011208836
8.2367656e-05
0.0011206148
8.2916004e-05
0.001120141
8.3564139e-05
0.001119346
8.4302681e-05
0.0011180132
8.510102e-05
0.0011158025
8.5906933e-05
0.0011123312
8.6672617e-05
0.001107238
8.7306221e-05
0.0011002773
8.7634401e-05
0.0010913653
8.7519806e-05
0.0010806105
8.6884833e-05
0.0010683431
8.5653354e-05
0.0010550405
8.3833096e-05
0.0010411924
8.1535821e-05
0.0010271977
7.8915785e-05
0.001013323
7.6139825e-05
0.00099972501
7.3339342e-05
0.00098649266
7.0584344e-05
0.00097367535
6.7917586e-05
0.00096129758
6.5363315e-05
0.00094936756
6.292908e-05
0.00093788197
6.0623695e-05
0.00092683094
5.8444842e-05
0.00091620048
5.6386742e-05
0.00090597361
5.4448868e-05
0.00089613248