/*--------------------------------*- C++ -*----------------------------------*\
| =========                 |                                                 |
| \\      /  F ield         | OpenFOAM: The Open Source CFD Toolbox           |
|  \\    /   O peration     | Version:  2206                                  |
|   \\  /    A nd           | Website:  www.openfoam.com                      |
|    \\/     M anipulation  |                                                 |
\*---------------------------------------------------------------------------*/
FoamFile
{
    version     2.0;
    format      ascii;
    arch        "LSB;label=32;scalar=64";
    class       volVectorField;
    location    "1100";
    object      U;
}
// * * * * * * * * * * * * * * * * * * * * * * * * * * * * * * * * * * * * * //

dimensions      [0 1 -1 0 0 0 0];

internalField   nonuniform List<vector> 
7480
(
(0.86075557 0.014755998 5.8376732e-16)
(0.74498802 0.025621441 0)
(0.62909669 0.027263178 0)
(0.52577212 0.019489055 0)
(0.45009889 0.0094044309 0)
(0.3978726 0.0037518585 0)
(0.3601494 0.0017194842 0)
(0.33103588 0.0012085319 0)
(0.30733545 0.0010852062 0)
(0.28744614 0.00096758338 0)
(0.27061608 0.00081755172 0)
(0.25636083 0.00067116848 0)
(0.24426553 0.00054336041 0)
(0.23398345 0.00043800201 0)
(0.2252209 0.00035434441 0)
(0.21772175 0.00028711141 0)
(0.21128566 0.00023278514 0)
(0.20574996 0.00018481953 0)
(0.20095069 0.00023492273 -9.998847e-18)
(0.19680051 0.00029372252 -1.6997674e-17)
(0.19312528 0.00013599715 0)
(0.18985563 9.0355343e-05 0)
(0.1869127 7.7411963e-05 0)
(0.18423168 6.887427e-05 0)
(0.18177067 6.152758e-05 0)
(0.1794932 5.5271311e-05 0)
(0.17737417 4.9958961e-05 0)
(0.1753895 4.563134e-05 0)
(0.17351762 4.2226637e-05 0)
(0.17174016 3.9311589e-05 0)
(0.17004679 3.6598964e-05 0)
(0.16842995 3.4154389e-05 0)
(0.16688142 3.1980039e-05 0)
(0.16539468 3.0021869e-05 0)
(0.16396262 2.8265667e-05 0)
(0.16258139 2.6751096e-05 0)
(0.16124136 2.540531e-05 0)
(0.1599407 2.4126901e-05 0)
(0.15867567 2.2976327e-05 0)
(0.15744241 2.1919731e-05 0)
(0.15623827 2.0939027e-05 0)
(0.15506058 2.0042001e-05 0)
(0.15390732 1.9178288e-05 0)
(0.15277721 1.8359103e-05 0)
(0.15166858 1.7593236e-05 0)
(0.15058028 1.6857048e-05 0)
(0.14951084 1.6176926e-05 0)
(0.14845866 1.5534048e-05 0)
(0.14742292 1.4912488e-05 0)
(0.14640259 1.4331516e-05 0)
(0.14539685 1.3766087e-05 0)
(0.14440523 1.3224856e-05 0)
(0.14342702 1.2706723e-05 0)
(0.14246193 1.2203465e-05 0)
(0.14150933 1.1728918e-05 0)
(0.14056875 1.1267772e-05 0)
(0.13963985 1.0828105e-05 0)
(0.13872206 1.0408813e-05 0)
(0.1378149 1.0006684e-05 0)
(0.13691798 9.6202379e-06 0)
(0.13603124 9.2433571e-06 0)
(0.13515449 8.8831541e-06 0)
(0.13428748 8.5349565e-06 0)
(0.13342997 8.2009949e-06 0)
(0.1325818 7.8787651e-06 0)
(0.13174278 7.5696726e-06 0)
(0.13091262 7.2734439e-06 0)
(0.13009111 6.9884236e-06 0)
(0.12927811 6.7140535e-06 0)
(0.12847348 6.4497868e-06 0)
(0.12767707 6.1961846e-06 0)
(0.12688872 5.9520716e-06 0)
(0.12610831 5.7173833e-06 0)
(0.12533574 5.4913085e-06 0)
(0.12457085 5.2746394e-06 0)
(0.1238135 5.0663104e-06 0)
(0.12306354 4.8665088e-06 0)
(0.12232083 4.6742572e-06 0)
(0.12158525 4.4899355e-06 0)
(0.12085665 4.3126713e-06 0)
(0.12013491 4.1428187e-06 0)
(0.11941986 3.9796219e-06 0)
(0.11871138 3.8232548e-06 0)
(0.11800926 3.6733935e-06 0)
(0.11731336 3.5297327e-06 0)
(0.11662342 3.3926259e-06 0)
(0.11593925 3.2612213e-06 0)
(0.11526047 3.1366842e-06 0)
(0.11458686 3.0171398e-06 0)
(0.11391763 2.9064044e-06 0)
(0.11325289 2.7976182e-06 0)
(0.1125901 2.7069601e-06 0)
(0.11193185 2.6024852e-06 0)
(0.11126782 2.55811e-06 0)
(0.11061346 2.4251912e-06 0)
(0.10992643 2.5331275e-06 0)
(0.10926975 2.228256e-06 -2.7367911e-21)
(0.10849602 6.2100326e-06 6.7950868e-20)
(0.10789302 -1.6608781e-06 -3.2162644e-19)
(0.10672074 1.2282576e-05 -1.1186449e-18)
(0.95762504 0.024817306 0)
(0.94367469 0.032452149 0)
(0.91262679 0.032582048 0)
(0.8610664 0.028775134 0)
(0.79827264 0.02293139 0)
(0.73528819 0.01728782 0)
(0.6784178 0.012893211 0)
(0.62968102 0.0098252409 0)
(0.58868016 0.0077465425 0)
(0.55417964 0.0062558419 0)
(0.52497677 0.0051166723 0)
(0.50008953 0.0042184413 0)
(0.4787561 0.0034893353 0)
(0.46040126 0.0028910389 0)
(0.44456284 0.0024001092 0)
(0.43086753 0.0019957499 0)
(0.41898893 0.0016646112 0)
(0.40863971 0.0013950891 0)
(0.39956437 0.0011767925 0)
(0.39155914 0.00099512885 0)
(0.38444096 0.00084872081 0)
(0.37805845 0.00074401954 0)
(0.37228414 0.00065522046 0)
(0.36701839 0.00058057441 0)
(0.36218376 0.00051875513 0)
(0.35771268 0.00046690642 0)
(0.35355758 0.00042269043 0)
(0.34967251 0.00038515661 0)
(0.34601969 0.00035347732 0)
(0.34256714 0.00032605349 0)
(0.33929269 0.00030157464 0)
(0.33617828 0.00027971687 0)
(0.33320677 0.00026020461 0)
(0.33036405 0.00024270138 0)
(0.32763616 0.00022692915 0)
(0.32501435 0.00021296431 0)
(0.32248134 0.00020048691 0)
(0.32003254 0.00018898686 0)
(0.3176596 0.0001785678 0)
(0.3153548 0.00016904445 0)
(0.31311249 0.00016027668 0)
(0.31092738 0.00015221883 0)
(0.30879498 0.00014469003 0)
(0.30671189 0.00013765486 0)
(0.30467458 0.00013109806 0)
(0.3026802 0.00012493866 0)
(0.30072563 0.0001192162 0)
(0.29880776 0.0001138597 0)
(0.29692446 0.00010879802 0)
(0.29507355 0.00010405172 0)
(0.29325319 9.9542916e-05 0)
(0.29146196 9.5270005e-05 0)
(0.28969834 9.1215313e-05 0)
(0.2879613 8.7348169e-05 0)
(0.28624951 8.369138e-05 0)
(0.28456189 8.0199747e-05 0)
(0.2828975 7.6883004e-05 0)
(0.28125517 7.373491e-05 0)
(0.27963386 7.0738463e-05 0)
(0.27803271 6.7876134e-05 0)
(0.27645133 6.5124448e-05 0)
(0.27488921 6.2496997e-05 0)
(0.2733457 5.9980823e-05 0)
(0.27182027 5.7574841e-05 0)
(0.27031245 5.5269011e-05 0)
(0.26882177 5.3064151e-05 0)
(0.26734765 5.0957225e-05 0)
(0.26588959 4.8939121e-05 0)
(0.26444722 4.7003895e-05 0)
(0.26302022 4.5147589e-05 0)
(0.26160821 4.336927e-05 0)
(0.26021085 4.1663587e-05 0)
(0.25882782 4.0027115e-05 0)
(0.25745889 3.845618e-05 0)
(0.25610372 3.6951375e-05 0)
(0.25476197 3.5508377e-05 0)
(0.25343334 3.4125334e-05 0)
(0.25211755 3.2798152e-05 0)
(0.2508143 3.1526008e-05 0)
(0.24952331 3.0305436e-05 0)
(0.24824431 2.9135906e-05 0)
(0.24697698 2.8014321e-05 0)
(0.24572103 2.6940051e-05 0)
(0.24447611 2.5911282e-05 0)
(0.24324189 2.4926594e-05 0)
(0.24201794 2.3986067e-05 0)
(0.24080384 2.3087917e-05 0)
(0.23959894 2.2233577e-05 0)
(0.23840279 2.1422089e-05 0)
(0.23721402 2.065706e-05 0)
(0.23603271 1.9939308e-05 0)
(0.23485457 1.9279253e-05 0)
(0.23368367 1.8676503e-05 0)
(0.23250289 1.8178102e-05 0)
(0.2313371 1.7727256e-05 0)
(0.23011666 1.7661783e-05 0)
(0.22894321 1.7382113e-05 4.9109906e-21)
(0.22757305 1.9269948e-05 0)
(0.22648034 9.9448567e-06 0)
(0.22439434 3.0910355e-05 0)
(0.96652616 0.026193323 0)
(0.97139585 0.035049361 0)
(0.97639315 0.038617587 0)
(0.97519326 0.037503337 0)
(0.96059452 0.034289689 0)
(0.93244622 0.029951999 0)
(0.8957965 0.02525746 0)
(0.85579585 0.020862923 0)
(0.81570892 0.017138823 0)
(0.77746284 0.014082313 0)
(0.74210833 0.011601764 0)
(0.71009643 0.0096042843 0)
(0.68147749 0.007982872 0)
(0.656071 0.0066594132 0)
(0.63357117 0.005578741 0)
(0.61364796 0.0046926426 0)
(0.59597796 0.0039645725 0)
(0.58026467 0.0033647671 0)
(0.56624448 0.0028693185 0)
(0.55369019 0.0024622653 0)
(0.54240233 0.00213333 0)
(0.53220035 0.0018650488 0)
(0.52293213 0.0016425352 0)
(0.51446841 0.001457138 0)
(0.50669908 0.0013019348 0)
(0.49952834 0.0011709765 0)
(0.4928746 0.0010590103 0)
(0.48667386 0.00096286626 0)
(0.48087155 0.00088042545 0)
(0.47542155 0.00080865155 0)
(0.4702843 0.00074505583 0)
(0.46542628 0.00068853778 0)
(0.46081797 0.00063819842 0)
(0.45643428 0.0005931239 0)
(0.45225323 0.00055257197 0)
(0.44825703 0.00051657197 0)
(0.44442171 0.00048433731 0)
(0.44073712 0.00045482736 0)
(0.43718804 0.00042810761 0)
(0.43376228 0.00040372987 0)
(0.43044993 0.00038135394 0)
(0.42724177 0.00036082106 0)
(0.42412955 0.00034177497 0)
(0.42110642 0.00032408285 0)
(0.41816587 0.00030765949 0)
(0.41530218 0.00029232978 0)
(0.41250992 0.00027810979 0)
(0.40978388 0.00026484979 0)
(0.40711984 0.00025239736 0)
(0.40451388 0.00024074825 0)
(0.40196245 0.00022975435 0)
(0.39946255 0.00021938688 0)
(0.39701122 0.00020959458 0)
(0.3946061 0.00020030874 0)
(0.39224476 0.0001915465 0)
(0.38992505 0.00018322399 0)
(0.387645 0.00017534435 0)
(0.38540255 0.00016788566 0)
(0.38319585 0.00016080741 0)
(0.38102335 0.00015406849 0)
(0.37888387 0.00014762243 0)
(0.37677622 0.00014148367 0)
(0.37469913 0.00013562552 0)
(0.37265149 0.00013003825 0)
(0.3706323 0.00012469991 0)
(0.36864059 0.00011960715 0)
(0.3666753 0.00011475024 0)
(0.36473552 0.00011010877 0)
(0.36282048 0.0001056683 0)
(0.36092946 0.00010141862 0)
(0.35906172 9.7354533e-05 0)
(0.3572166 9.3463977e-05 0)
(0.35539347 8.9737936e-05 0)
(0.35359179 8.6168044e-05 0)
(0.35181091 8.2752864e-05 0)
(0.35005026 7.948297e-05 0)
(0.34830926 7.6352797e-05 0)
(0.34658738 7.33536e-05 0)
(0.34488409 7.0481926e-05 0)
(0.34319889 6.7730406e-05 0)
(0.34153126 6.5096454e-05 0)
(0.3398807 6.257351e-05 0)
(0.33824669 6.0159182e-05 0)
(0.33662867 5.7849272e-05 0)
(0.3350261 5.5640513e-05 0)
(0.33343831 5.3532044e-05 0)
(0.33186468 5.1520891e-05 0)
(0.33030425 4.960805e-05 0)
(0.32875636 4.7794513e-05 0)
(0.32721917 4.6081743e-05 0)
(0.32569263 4.4484451e-05 0)
(0.32417123 4.2997708e-05 0)
(0.3226599 4.168053e-05 0)
(0.32113698 4.050888e-05 0)
(0.31963325 3.9624691e-05 0)
(0.31806157 3.9226772e-05 0)
(0.31654736 3.9102999e-05 3.6182196e-21)
(0.31478622 4.1305141e-05 0)
(0.31335747 2.9833928e-05 0)
(0.31068577 5.6986634e-05 -1.1092102e-20)
(0.9693346 0.024343262 0)
(0.97489235 0.032489563 0)
(0.98289478 0.036274453 0)
(0.98948226 0.036562413 0)
(0.9930132 0.034808743 0)
(0.99266366 0.032332829 0)
(0.98647358 0.029704802 0)
(0.97364656 0.027082055 0)
(0.95434165 0.024419486 0)
(0.930507 0.02157448 0)
(0.90389844 0.018752828 0)
(0.87590142 0.016132659 0)
(0.84766866 0.013794856 0)
(0.82010858 0.011764962 0)
(0.79386981 0.010024843 0)
(0.76935011 0.0085438998 0)
(0.74672867 0.0072954173 0)
(0.72601899 0.0062493218 0)
(0.70712957 0.0053805246 0)
(0.68991765 0.0046621743 0)
(0.67422799 0.0040654375 0)
(0.65990436 0.0035690385 0)
(0.6468024 0.0031528505 0)
(0.63478754 0.0028006689 0)
(0.62373482 0.0025018176 0)
(0.61353167 0.0022472651 0)
(0.60407423 0.0020285804 0)
(0.59527914 0.0018397552 0)
(0.58707445 0.0016764436 0)
(0.57939617 0.0015337722 0)
(0.57218741 0.0014077261 0)
(0.56539891 0.001296078 0)
(0.55898736 0.0011969345 0)
(0.55291414 0.0011083934 0)
(0.54714779 0.0010289129 0)
(0.54165957 0.00095799086 0)
(0.53642407 0.00089439787 0)
(0.53141839 0.00083657494 0)
(0.52662263 0.00078423616 0)
(0.52201843 0.00073662245 0)
(0.51759024 0.00069306984 0)
(0.51332392 0.00065321243 0)
(0.50920655 0.00061645267 0)
(0.50522701 0.00058248784 0)
(0.50137495 0.00055109747 0)
(0.49764112 0.00052194714 0)
(0.49401735 0.00049497189 0)
(0.49049571 0.0004699121 0)
(0.48706948 0.00044649693 0)
(0.48373253 0.00042466138 0)
(0.48047917 0.00040416718 0)
(0.47730441 0.00038493227 0)
(0.47420346 0.00036684745 0)
(0.47117225 0.00034978318 0)
(0.46820698 0.00033372765 0)
(0.46530415 0.00031854935 0)
(0.46246045 0.00030422923 0)
(0.45967273 0.00029071262 0)
(0.45693823 0.00027792337 0)
(0.45425446 0.00026579008 0)
(0.45161925 0.00025423782 0)
(0.4490305 0.00024327092 0)
(0.44648616 0.00023284121 0)
(0.4439844 0.0002229223 0)
(0.44152353 0.00021347489 0)
(0.43910193 0.00020448547 0)
(0.43671799 0.0001959317 0)
(0.43437029 0.00018777748 0)
(0.43205753 0.00017999635 0)
(0.42977851 0.00017256796 0)
(0.42753206 0.00016547868 0)
(0.42531709 0.0001587067 0)
(0.4231326 0.00015223477 0)
(0.42097764 0.00014604744 0)
(0.41885123 0.00014013822 0)
(0.41675245 0.00013449033 0)
(0.41468044 0.00012909236 0)
(0.41263435 0.00012392922 0)
(0.41061339 0.00011899287 0)
(0.40861678 0.00011427055 0)
(0.40664374 0.00010975598 0)
(0.40469352 0.00010543789 0)
(0.40276536 0.00010131081 0)
(0.40085847 9.7367045e-05 0)
(0.39897209 9.3600578e-05 0)
(0.39710531 9.0008561e-05 0)
(0.39525727 8.658655e-05 0)
(0.39342678 8.3333815e-05 0)
(0.39161292 8.0254548e-05 0)
(0.38981351 7.7344818e-05 0)
(0.38802833 7.4640751e-05 0)
(0.38625113 7.2107916e-05 0)
(0.38448705 6.9899663e-05 0)
(0.38271217 6.7857002e-05 0)
(0.38095956 6.6463373e-05 0)
(0.37913405 6.5538549e-05 0)
(0.37737056 6.5770805e-05 2.7586983e-21)
(0.3753365 6.7904912e-05 0)
(0.37365588 5.6993964e-05 0)
(0.37057551 8.4421732e-05 8.5607283e-21)
(0.97121508 0.02319919 0)
(0.9761469 0.030448843 0)
(0.98349893 0.034214123 0)
(0.99057003 0.034715266 0)
(0.99568984 0.033444712 0)
(0.99877448 0.031573939 0)
(1.0012115 0.02968505 0)
(1.0010781 0.027931229 0)
(0.99949017 0.02624227 0)
(0.99480342 0.024503784 0)
(0.9863221 0.022698575 0)
(0.97385802 0.020834924 0)
(0.95792416 0.01886164 0)
(0.93936501 0.016857303 0)
(0.91889562 0.014924017 0)
(0.89720759 0.013125215 0)
(0.87500551 0.011506273 0)
(0.85292057 0.01006396 0)
(0.83146977 0.0087963637 0)
(0.81101769 0.007697036 0)
(0.79177494 0.0067514991 0)
(0.77381417 0.0059488897 0)
(0.75711665 0.0052692908 0)
(0.7416182 0.0046908615 0)
(0.72723599 0.0041961303 0)
(0.71388246 0.0037706352 0)
(0.70146805 0.0034017373 0)
(0.68990688 0.0030803891 0)
(0.67911819 0.002800354 0)
(0.66902653 0.0025547138 0)
(0.65956487 0.0023376783 0)
(0.65067301 0.0021455033 0)
(0.6422962 0.0019749289 0)
(0.63438481 0.0018227679 0)
(0.62689682 0.0016864841 0)
(0.61979257 0.0015647158 0)
(0.61304204 0.0014553824 0)
(0.60661209 0.0013563666 0)
(0.60047605 0.001266889 0)
(0.59460924 0.0011855951 0)
(0.58899021 0.0011114491 0)
(0.58359898 0.0010437863 0)
(0.57841737 0.00098165865 0)
(0.57342949 0.00092450249 0)
(0.56862054 0.0008718877 0)
(0.56397711 0.00082323223 0)
(0.55948787 0.00077830096 0)
(0.55514199 0.00073667416 0)
(0.55093011 0.00069793297 0)
(0.54684349 0.00066192196 0)
(0.54287386 0.00062828093 0)
(0.53901391 0.00059683626 0)
(0.53525677 0.00056739151 0)
(0.53159641 0.00053972903 0)
(0.5280273 0.00051378331 0)
(0.52454423 0.00048935755 0)
(0.52114242 0.00046638604 0)
(0.51781745 0.00044475944 0)
(0.5145655 0.00042435357 0)
(0.51138295 0.00040506114 0)
(0.50826643 0.00038676903 0)
(0.50521278 0.00036945704 0)
(0.50221904 0.00035304498 0)
(0.49928252 0.00033748057 0)
(0.49640072 0.00032269964 0)
(0.49357128 0.0003086707 0)
(0.49079193 0.00029535121 0)
(0.48806067 0.00028268445 0)
(0.48537559 0.00027062751 0)
(0.48273491 0.00025914467 0)
(0.48013696 0.0002482088 0)
(0.47758019 0.00023778472 0)
(0.47506312 0.00022784403 0)
(0.47258435 0.00021836078 0)
(0.47014249 0.00020931951 0)
(0.46773628 0.00020069334 0)
(0.46536447 0.00019246254 0)
(0.46302591 0.00018460351 0)
(0.46071946 0.00017710131 0)
(0.45844405 0.0001699359 0)
(0.45619862 0.00016309538 0)
(0.45398212 0.00015656216 0)
(0.45179356 0.00015032611 0)
(0.44963187 0.00014437471 0)
(0.44749605 0.00013869795 0)
(0.44538496 0.00013328981 0)
(0.44329748 0.0001281437 0)
(0.4412322 0.00012325595 0)
(0.43918796 0.00011863433 0)
(0.43716229 0.00011426728 0)
(0.43515473 0.00011021674 0)
(0.43315861 0.00010641016 0)
(0.43117888 0.00010311665 0)
(0.42919068 0.00010000435 0)
(0.42722735 9.798455e-05 0)
(0.4251909 9.635886e-05 0)
(0.42321807 9.7028407e-05 2.2607995e-21)
(0.42096563 9.8687211e-05 5.464633e-20)
(0.41907384 9.0393388e-05 0)
(0.41566212 0.00011375118 0)
(0.97273629 0.022361904 0)
(0.97713725 0.028798592 0)
(0.98348627 0.032377144 0)
(0.98968337 0.033129802 0)
(0.99467344 0.032300236 0)
(0.99840274 0.03078386 0)
(1.0010108 0.029135188 0)
(1.0028551 0.027588748 0)
(1.0040475 0.026077431 0)
(1.0049083 0.024618127 0)
(1.0046758 0.0232342 0)
(1.0034559 0.021901745 0)
(1.0005501 0.02058585 0)
(0.99530168 0.01926942 0)
(0.98742274 0.017960101 0)
(0.97675639 0.016606302 0)
(0.96370651 0.015199217 0)
(0.94858118 0.01380438 0)
(0.93175885 0.012458026 0)
(0.91370622 0.011192528 0)
(0.89497775 0.010025676 0)
(0.87610956 0.0089649355 0)
(0.8575629 0.0080110029 0)
(0.8396736 0.0071629853 0)
(0.82263939 0.0064187274 0)
(0.80654158 0.0057717895 0)
(0.79138729 0.0052096197 0)
(0.77714784 0.0047185474 0)
(0.76377705 0.0042879968 0)
(0.75122056 0.0039078424 0)
(0.73942154 0.0035702677 0)
(0.72832214 0.0032703017 0)
(0.71786543 0.0030034719 0)
(0.70799846 0.0027651879 0)
(0.69867294 0.0025517885 0)
(0.68984193 0.0023607476 0)
(0.68146666 0.0021890211 0)
(0.67350935 0.0020338886 0)
(0.66593554 0.0018937687 0)
(0.65871445 0.0017666525 0)
(0.65181882 0.0016509508 0)
(0.64522314 0.001545569 0)
(0.63890404 0.0014491116 0)
(0.63284077 0.001360652 0)
(0.62701405 0.0012794565 0)
(0.62140634 0.0012046244 0)
(0.61600226 0.00113568 0)
(0.61078762 0.0010719738 0)
(0.60574992 0.0010128762 0)
(0.60087752 0.00095809164 0)
(0.59615942 0.0009070967 0)
(0.59158591 0.0008595916 0)
(0.5871478 0.0008152629 0)
(0.58283683 0.00077377191 0)
(0.57864548 0.00073497619 0)
(0.57456643 0.00069858396 0)
(0.57059336 0.00066444906 0)
(0.56672048 0.00063238915 0)
(0.56294265 0.00060221973 0)
(0.55925484 0.00057378553 0)
(0.55565242 0.00054692139 0)
(0.5521311 0.0005215675 0)
(0.54868687 0.00049759884 0)
(0.5453161 0.0004749285 0)
(0.5420153 0.00045345924 0)
(0.53878126 0.00043312999 0)
(0.53561102 0.00041386884 0)
(0.53250184 0.00039559353 0)
(0.52945113 0.00037823887 0)
(0.52645647 0.00036174725 0)
(0.52351562 0.00034607229 0)
(0.5206265 0.00033116158 0)
(0.51778708 0.00031697221 0)
(0.51499544 0.00030346298 0)
(0.51224977 0.00029060494 0)
(0.50954836 0.00027835803 0)
(0.5068896 0.00026669138 0)
(0.50427194 0.00025557024 0)
(0.5016939 0.00024497017 0)
(0.49915405 0.00023486156 0)
(0.49665103 0.00022522469 0)
(0.49418348 0.0002160338 0)
(0.49175012 0.00020727225 0)
(0.48934961 0.00019892107 0)
(0.48698067 0.00019096487 0)
(0.48464191 0.00018339307 0)
(0.48233198 0.00017619593 0)
(0.4800492 0.00016936563 0)
(0.47779217 0.00016291325 0)
(0.47555818 0.00015681801 0)
(0.47334649 0.00015116978 0)
(0.47115017 0.00014585312 0)
(0.46897381 0.00014126457 0)
(0.46679223 0.00013687952 0)
(0.46463809 0.00013408429 0)
(0.46241322 0.00013158908 0)
(0.46025253 0.00013269075 0)
(0.45781088 0.00013357811 0)
(0.45573213 0.0001294608 1.1223302e-19)
(0.45203082 0.00014547464 0)
(0.97415927 0.02158809 0)
(0.97800941 0.027345485 0)
(0.98357399 0.030743216 0)
(0.98905861 0.031695237 0)
(0.99357735 0.031167017 0)
(0.99706043 0.029933481 0)
(0.99969129 0.028504284 0)
(1.0017726 0.027099289 0)
(1.0034782 0.025700398 0)
(1.0047493 0.024346561 0)
(1.0056692 0.023063764 0)
(1.0062615 0.021830051 0)
(1.0065668 0.02065824 0)
(1.006358 0.019567848 0)
(1.0054897 0.018543121 0)
(1.0037863 0.017568195 0)
(1.0006455 0.016635168 0)
(0.99571337 0.015720675 0)
(0.98873335 0.014811883 0)
(0.97958434 0.013867777 0)
(0.96839914 0.012881482 0)
(0.95533372 0.011889439 0)
(0.94065452 0.010910049 0)
(0.92476899 0.0099643653 0)
(0.90818139 0.0090673996 0)
(0.8913876 0.0082303306 0)
(0.87480415 0.0074627437 0)
(0.85872298 0.0067696284 0)
(0.84330635 0.0061529689 0)
(0.82862044 0.0056073045 0)
(0.81467863 0.0051228978 0)
(0.80146849 0.0046912208 0)
(0.78896329 0.0043051283 0)
(0.77712813 0.0039585043 0)
(0.76592363 0.003647015 0)
(0.75530665 0.0033673245 0)
(0.74523687 0.0031153782 0)
(0.73567573 0.0028877486 0)
(0.72658558 0.0026820863 0)
(0.71793135 0.0024955782 0)
(0.70968129 0.0023259944 0)
(0.70180569 0.0021717132 0)
(0.69427688 0.0020307786 0)
(0.68706981 0.0019018085 0)
(0.68016113 0.0017836763 0)
(0.67352954 0.0016750754 0)
(0.66715553 0.0015752102 0)
(0.66102111 0.0014831273 0)
(0.65511032 0.0013979301 0)
(0.6494084 0.0013191341 0)
(0.64390157 0.0012460049 0)
(0.63857748 0.001178068 0)
(0.63342448 0.0011148518 0)
(0.62843206 0.0010558651 0)
(0.62359051 0.0010008563 0)
(0.61889051 0.00094941383 0)
(0.61432389 0.00090128492 0)
(0.60988314 0.00085618568 0)
(0.60556147 0.00081385025 0)
(0.60135241 0.00077405902 0)
(0.59725001 0.0007365792 0)
(0.59324871 0.00070129388 0)
(0.58934343 0.00066802046 0)
(0.5855294 0.00063662853 0)
(0.58180205 0.00060697546 0)
(0.5781572 0.00057895564 0)
(0.57459114 0.0005524594 0)
(0.57110033 0.00052737384 0)
(0.56768137 0.00050360411 0)
(0.56433115 0.00048106369 0)
(0.56104676 0.00045968055 0)
(0.55782549 0.00043937907 0)
(0.55466475 0.00042009708 0)
(0.55156205 0.00040177384 0)
(0.5485151 0.0003843622 0)
(0.54552173 0.00036780509 0)
(0.54257986 0.00035205713 0)
(0.53968754 0.00033706926 0)
(0.53684287 0.00032280462 0)
(0.53404408 0.00030922134 0)
(0.53128944 0.00029628945 0)
(0.52857727 0.00028397274 0)
(0.52590595 0.00027224605 0)
(0.52327386 0.00026108211 0)
(0.52067943 0.00025045841 0)
(0.51812099 0.0002403583 0)
(0.51559694 0.00023076759 0)
(0.51310533 0.00022167303 0)
(0.51064451 0.00021308827 0)
(0.50821153 0.00020498199 0)
(0.50580535 0.0001974727 0)
(0.50341888 0.0001903994 0)
(0.50105623 0.000184292 0)
(0.49869229 0.00017842318 0)
(0.49635853 0.00017467939 0)
(0.49395795 0.00017114149 0)
(0.49162197 0.00017261336 0)
(0.48900786 0.00017248779 0)
(0.48675795 0.00017382247 1.0039059e-19)
(0.48279195 0.00017980875 0)
(0.97564928 0.020886431 0)
(0.97894704 0.026006528 0)
(0.98381795 0.029250821 0)
(0.98876443 0.030381751 0)
(0.99294589 0.030113555 0)
(0.99622 0.029129248 0)
(0.99874387 0.027888368 0)
(1.0007509 0.026608058 0)
(1.0024078 0.025315127 0)
(1.00376 0.024049457 0)
(1.0048662 0.022832935 0)
(1.0057559 0.02165856 0)
(1.0064088 0.020542586 0)
(1.006831 0.019495776 0)
(1.0071677 0.018521174 0)
(1.0071482 0.01762282 0)
(1.006963 0.016799932 0)
(1.006382 0.016045338 0)
(1.0052732 0.015350933 0)
(1.0034032 0.014701833 0)
(1.0003464 0.014076556 0)
(0.99578688 0.013463869 0)
(0.98942676 0.012828434 0)
(0.9811631 0.012136853 0)
(0.97100074 0.011397404 0)
(0.95905009 0.010628193 0)
(0.94557423 0.0098483272 0)
(0.93099941 0.009081789 0)
(0.91581753 0.0083421907 0)
(0.90048994 0.0076438732 0)
(0.88537235 0.0069977876 0)
(0.87068968 0.0064109013 0)
(0.85655717 0.0058836178 0)
(0.84302305 0.0054101828 0)
(0.83010186 0.0049837387 0)
(0.81778797 0.004598868 0)
(0.80606388 0.0042503337 0)
(0.79490467 0.0039342778 0)
(0.78428036 0.0036479738 0)
(0.77415958 0.0033879489 0)
(0.76451173 0.0031513793 0)
(0.75530645 0.0029361052 0)
(0.74651452 0.0027395757 0)
(0.7381086 0.002559906 0)
(0.73006264 0.0023955051 0)
(0.72235246 0.00224461 0)
(0.71495549 0.0021060604 0)
(0.70785055 0.0019785281 0)
(0.70101851 0.0018607818 0)
(0.69444159 0.0017520822 0)
(0.68810322 0.001651426 0)
(0.68198829 0.0015581218 0)
(0.67608271 0.0014714996 0)
(0.67037368 0.0013908782 0)
(0.66484927 0.0013158659 0)
(0.65949831 0.0012458961 0)
(0.65431055 0.0011805774 0)
(0.64927655 0.0011195036 0)
(0.64438771 0.0010623049 0)
(0.63963603 0.001008673 0)
(0.63501412 0.00095828656 0)
(0.63051509 0.00091095609 0)
(0.62613255 0.00086642494 0)
(0.62186059 0.00082450482 0)
(0.61769353 0.00078499754 0)
(0.61362617 0.00074774173 0)
(0.60965384 0.00071257757 0)
(0.60577209 0.00067935184 0)
(0.60197672 0.00064793224 0)
(0.59826383 0.00061819556 0)
(0.59462975 0.00059003708 0)
(0.59107109 0.00056335154 0)
(0.58758464 0.00053805209 0)
(0.58416732 0.00051405258 0)
(0.58081629 0.00049128239 0)
(0.57752885 0.00046966357 0)
(0.57430244 0.00044913214 0)
(0.57113463 0.00042962109 0)
(0.56802312 0.00041107775 0)
(0.56496569 0.00039344497 0)
(0.56196026 0.00037667965 0)
(0.55900476 0.00036073264 0)
(0.55609725 0.00034556785 0)
(0.55323577 0.00033114759 0)
(0.55041845 0.00031744031 0)
(0.54764332 0.00030442151 0)
(0.54490849 0.00029207098 0)
(0.54221176 0.00028036862 0)
(0.53955119 0.00026932954 0)
(0.5369236 0.00025891069 0)
(0.53432766 0.00024925902 0)
(0.5317561 0.00024016631 0)
(0.52921258 0.00023229879 0)
(0.52667217 0.00022472135 0)
(0.52416498 0.0002198345 0)
(0.52159584 0.00021506877 0)
(0.51909199 0.00021681123 0)
(0.51631514 0.00021543301 -1.93397e-20)
(0.51390464 0.00022335759 0)
(0.50968942 0.00021692434 -2.8469072e-21)
(0.97715741 0.020268244 0)
(0.97998924 0.024796362 0)
(0.98422094 0.027841252 0)
(0.98867988 0.029106887 0)
(0.99258957 0.029087853 0)
(0.99573199 0.028345806 0)
(0.99819568 0.027287811 0)
(1.0001614 0.026132413 0)
(1.0017703 0.024937745 0)
(1.0030898 0.023746721 0)
(1.0041742 0.022587926 0)
(1.0050655 0.021465857 0)
(1.0057834 0.020396913 0)
(1.0063445 0.019386705 0)
(1.006777 0.018447938 0)
(1.0070725 0.017583005 0)
(1.0072503 0.016779875 0)
(1.007337 0.016048516 0)
(1.007288 0.015391262 0)
(1.0071123 0.014798908 0)
(1.0067184 0.01426094 0)
(1.0059987 0.013771794 0)
(1.0048287 0.01331781 0)
(1.0029065 0.012883017 0)
(0.99987748 0.012450124 0)
(0.99542042 0.012003663 0)
(0.98923374 0.011508341 0)
(0.98123454 0.010942413 0)
(0.97140844 0.010326818 0)
(0.95989776 0.0096756235 0)
(0.947035 0.0090111403 0)
(0.93328199 0.0083510812 0)
(0.91911412 0.0077129003 0)
(0.90492644 0.00711152 0)
(0.89098813 0.0065566477 0)
(0.87745063 0.0060520809 0)
(0.86438883 0.0055945472 0)
(0.85183761 0.0051785442 0)
(0.83980833 0.004799827 0)
(0.82829696 0.004454153 0)
(0.81728981 0.0041384794 0)
(0.80676682 0.0038504638 0)
(0.79670504 0.0035871384 0)
(0.78708064 0.0033462297 0)
(0.77786894 0.0031257338 0)
(0.76904581 0.0029234326 0)
(0.76058794 0.0027377911 0)
(0.75247267 0.0025670773 0)
(0.74467895 0.0024096836 0)
(0.73718682 0.0022645685 0)
(0.72997747 0.0021304131 0)
(0.7230335 0.0020062658 0)
(0.71633859 0.0018912097 0)
(0.70987779 0.0017843362 0)
(0.70363711 0.0016850744 0)
(0.69760342 0.001592673 0)
(0.69176458 0.0015065844 0)
(0.68610927 0.0014262515 0)
(0.68062711 0.0013511712 0)
(0.67530843 0.0012809185 0)
(0.67014433 0.001215063 0)
(0.66512648 0.0011533242 0)
(0.66024713 0.0010953546 0)
(0.6554991 0.0010408931 0)
(0.65087566 0.00098967067 0)
(0.64637052 0.00094145656 0)
(0.64197785 0.0008960301 0)
(0.63769227 0.00085318716 0)
(0.6335087 0.00081274782 0)
(0.6294224 0.0007745441 0)
(0.62542891 0.00073843089 0)
(0.62152408 0.00070426528 0)
(0.617704 0.00067192795 0)
(0.61396498 0.000641302 0)
(0.61030356 0.00061228837 0)
(0.60671647 0.00058478287 0)
(0.60320062 0.00055869838 0)
(0.59975308 0.00053394571 0)
(0.59637108 0.00051045256 0)
(0.59305196 0.00048814301 0)
(0.5897932 0.00046695765 0)
(0.58659236 0.00044683145 0)
(0.58344712 0.00042771472 0)
(0.58035517 0.00040955693 0)
(0.5773143 0.00039231525 0)
(0.57432223 0.00037595528 0)
(0.57137675 0.00036044905 0)
(0.5684754 0.00034576793 0)
(0.56561594 0.00033192713 0)
(0.56279496 0.00031887055 0)
(0.5600108 0.00030677293 0)
(0.55725606 0.0002953776 0)
(0.55453388 0.00028548825 0)
(0.55181965 0.00027595954 0)
(0.54914203 0.00026971389 0)
(0.54640794 0.00026351908 0)
(0.54374035 0.0002654035 7.5425361e-22)
(0.5408061 0.00026251688 0)
(0.53824201 0.00027809784 8.6870405e-20)
(0.53378722 0.0002569992 0)
(0.97861348 0.019709878 0)
(0.98108069 0.023721846 0)
(0.98475283 0.026544595 0)
(0.9887455 0.027881592 0)
(0.99238473 0.028067787 0)
(0.99540653 0.027548182 0)
(0.99783036 0.026671793 0)
(0.99978421 0.025648271 0)
(1.0013836 0.02455532 0)
(1.0026944 0.023442278 0)
(1.0037686 0.022344214 0)
(1.0046486 0.021273315 0)
(1.0053625 0.0202459 0)
(1.0059328 0.019270476 0)
(1.0063815 0.01836041 0)
(1.0067313 0.017517851 0)
(1.0069948 0.016736018 0)
(1.0071785 0.016024084 0)
(1.0072886 0.015380165 0)
(1.0073611 0.014796901 0)
(1.0073517 0.014270821 0)
(1.0072992 0.013800368 0)
(1.0071626 0.013377322 0)
(1.0068994 0.012991261 0)
(1.0064336 0.01263529 0)
(1.00565 0.012302635 0)
(1.0043948 0.011982592 0)
(1.0023109 0.011662816 0)
(0.99907215 0.011328974 0)
(0.99433217 0.010954963 0)
(0.98788307 0.010512376 0)
(0.97963216 0.010006688 0)
(0.96963459 0.0094518334 0)
(0.95814521 0.0088672013 0)
(0.94558787 0.0082739288 0)
(0.9324354 0.007689719 0)
(0.91910122 0.0071310301 0)
(0.9058781 0.0066090603 0)
(0.89293881 0.0061293419 0)
(0.88037579 0.0056903319 0)
(0.86823827 0.0052880071 0)
(0.85654963 0.0049190012 0)
(0.84531604 0.0045799435 0)
(0.83453245 0.0042685689 0)
(0.82418638 0.003982817 0)
(0.81426167 0.0037202236 0)
(0.80473993 0.003479017 0)
(0.79560125 0.0032571383 0)
(0.78682579 0.0030526386 0)
(0.77839372 0.0028641797 0)
(0.77028562 0.0026901085 0)
(0.76248309 0.0025291887 0)
(0.75496846 0.0023802251 0)
(0.74772531 0.0022420495 0)
(0.74073803 0.0021138821 0)
(0.73399188 0.0019947562 0)
(0.72747309 0.0018839435 0)
(0.72116871 0.0017807117 0)
(0.7150667 0.0016843988 0)
(0.70915581 0.0015944387 0)
(0.70342562 0.0015102684 0)
(0.69786639 0.0014314976 0)
(0.69246898 0.0013576696 0)
(0.68722494 0.0012884292 0)
(0.68212638 0.0012234209 0)
(0.67716588 0.0011623359 0)
(0.67233652 0.0011048798 0)
(0.66763189 0.0010507826 0)
(0.66304597 0.00099980623 0)
(0.65857312 0.00095172865 0)
(0.65420805 0.00090635573 0)
(0.64994581 0.00086349854 0)
(0.64578175 0.00082299742 0)
(0.6417115 0.00078469783 0)
(0.63773093 0.00074846621 0)
(0.63383618 0.00071416664 0)
(0.63002358 0.00068168357 0)
(0.62628966 0.00065090089 0)
(0.62263114 0.00062172239 0)
(0.61904488 0.00059404938 0)
(0.61552792 0.00056780257 0)
(0.61207739 0.00054289774 0)
(0.60869056 0.00051926858 0)
(0.60536476 0.00049684893 0)
(0.60209739 0.00047558218 0)
(0.59888587 0.00045542176 0)
(0.59572764 0.00043632984 0)
(0.59261995 0.00041826741 0)
(0.58956025 0.00040124816 0)
(0.58654487 0.00038520149 0)
(0.58357184 0.00037032884 0)
(0.58063362 0.00035632406 0)
(0.57773282 0.00034412835 0)
(0.57484518 0.00033238511 0)
(0.5719979 0.00032454296 0)
(0.5691001 0.00031669895 0)
(0.56627057 0.00031857153 0)
(0.56318139 0.00031389848 0)
(0.56046804 0.00033816352 0)
(0.55577944 0.00030022017 0)
(0.9799802 0.019191099 0)
(0.98216148 0.022759009 0)
(0.9853643 0.025364859 0)
(0.98892622 0.026728289 0)
(0.9922867 0.027071221 0)
(0.99517083 0.026742918 0)
(0.99754609 0.026036807 0)
(0.99949137 0.025145476 0)
(1.0010945 0.024156907 0)
(1.0024131 0.023126123 0)
(1.0034954 0.02209276 0)
(1.0043817 0.021075039 0)
(1.0051012 0.020090533 0)
(1.0056781 0.019150706 0)
(1.0061348 0.018268199 0)
(1.0064952 0.017447516 0)
(1.0067749 0.016684883 0)
(1.0069847 0.015987501 0)
(1.0071382 0.015354084 0)
(1.0072516 0.014781055 0)
(1.0073259 0.014264526 0)
(1.0073692 0.013798277 0)
(1.0073951 0.013378497 0)
(1.0073882 0.012998946 0)
(1.0073483 0.012653854 0)
(1.0072549 0.012339544 0)
(1.0070807 0.012050707 0)
(1.0067694 0.011780537 0)
(1.0062267 0.011524768 0)