/*--------------------------------*- C++ -*----------------------------------*\
| =========                 |                                                 |
| \\      /  F ield         | OpenFOAM: The Open Source CFD Toolbox           |
|  \\    /   O peration     | Version:  2206                                  |
|   \\  /    A nd           | Website:  www.openfoam.com                      |
|    \\/     M anipulation  |                                                 |
\*---------------------------------------------------------------------------*/
FoamFile
{
    version     2.0;
    format      ascii;
    arch        "LSB;label=32;scalar=64";
    class       volScalarField;
    location    "1000";
    object      k;
}
// * * * * * * * * * * * * * * * * * * * * * * * * * * * * * * * * * * * * * //

dimensions      [0 2 -2 0 0 0 0];

internalField   nonuniform List<scalar> 
13056
(
0.00010200279
8.8524517e-05
8.7536129e-05
8.7566233e-05
8.7624188e-05
8.7641172e-05
8.7645762e-05
8.7648334e-05
8.7651025e-05
8.7654289e-05
8.7658343e-05
8.766341e-05
8.7669759e-05
8.7677757e-05
8.76879e-05
8.7700925e-05
8.7717986e-05
8.7740512e-05
8.7773998e-05
8.7809766e-05
8.7940073e-05
8.7753899e-05
8.9579175e-05
2.6335562e-05
3.1602797e-07
4.8907996e-08
2.4778163e-08
1.6710304e-08
1.2767321e-08
1.0367104e-08
8.7447599e-09
7.5602144e-09
6.6554503e-09
5.9418104e-09
5.3634063e-09
4.8842979e-09
4.4806167e-09
4.1357218e-09
3.8375155e-09
3.5769909e-09
3.3474073e-09
3.143378e-09
2.9609005e-09
2.7966596e-09
2.6480204e-09
2.5128274e-09
2.3893046e-09
2.2759772e-09
2.1716107e-09
2.075166e-09
1.9857569e-09
1.9026235e-09
1.8251132e-09
1.7526609e-09
1.684777e-09
1.6210353e-09
1.5610595e-09
1.5045176e-09
1.4511169e-09
1.4005976e-09
1.3527284e-09
1.3073042e-09
1.2641429e-09
1.2230806e-09
1.1839677e-09
1.1466704e-09
1.1110693e-09
1.0770574e-09
1.0445379e-09
1.0134244e-09
9.8364168e-10
9.5512363e-10
9.278116e-10
9.0165501e-10
8.7661016e-10
8.5264053e-10
8.2971702e-10
8.0782159e-10
7.8695409e-10
7.6712266e-10
7.4834375e-10
7.3064544e-10
7.1406407e-10
6.9864983e-10
6.8448381e-10
6.716759e-10
6.6037253e-10
6.5079503e-10
6.4324802e-10
6.3811955e-10
6.3581613e-10
6.3673545e-10
6.4154186e-10
6.508495e-10
6.6541136e-10
6.8595749e-10
7.1279623e-10
7.4594546e-10
7.8564659e-10
8.3094223e-10
8.784883e-10
9.2382571e-10
9.6349248e-10
9.9505673e-10
1.019258e-09
1.0371551e-09
1.050232e-09
1.0596184e-09
1.0661313e-09
1.0702632e-09
1.0723698e-09
1.0727278e-09
1.0713429e-09
1.0682505e-09
1.063684e-09
1.0578428e-09
1.0509716e-09
1.0433596e-09
1.0351866e-09
1.0266179e-09
1.0178578e-09
1.0090323e-09
1.0001899e-09
9.9138988e-10
9.8272017e-10
9.7421362e-10
9.6586339e-10
9.5765212e-10
9.4958643e-10
9.4166096e-10
9.3390397e-10
9.2595857e-10
9.1840892e-10
9.0907555e-10
9.0153161e-10
8.9061711e-10
0.00010199672
8.8514861e-05
8.7526319e-05
8.7556378e-05
8.7614333e-05
8.7631318e-05
8.7635909e-05
8.7638481e-05
8.7641172e-05
8.7644435e-05
8.764849e-05
8.7653557e-05
8.7659907e-05
8.7667905e-05
8.7678049e-05
8.7691076e-05
8.7708138e-05
8.7730665e-05
8.7764154e-05
8.7799923e-05
8.7930242e-05
8.7744016e-05
8.9569454e-05
2.6336793e-05
4.8649143e-08
7.5107508e-09
3.8051525e-09
2.56618e-09
1.9606613e-09
1.5920636e-09
1.3429225e-09
1.1610134e-09
1.02207e-09
9.1247734e-10
8.236526e-10
7.5007656e-10
6.8808379e-10
6.3511882e-10
5.8932377e-10
5.4931548e-10
5.1405875e-10
4.8272635e-10
4.5470364e-10
4.2948148e-10
4.0665527e-10
3.8589399e-10
3.6692486e-10
3.4952146e-10
3.3349416e-10
3.1868339e-10
3.0495306e-10
2.9218647e-10
2.8028338e-10
2.6915704e-10
2.5873225e-10
2.489436e-10
2.397334e-10
2.3105057e-10
2.2285014e-10
2.1509223e-10
2.0774131e-10
2.0076588e-10
1.94138e-10
1.8783248e-10
1.8182635e-10
1.7609906e-10
1.7063226e-10
1.6540952e-10
1.6041596e-10
1.5563822e-10
1.5106477e-10
1.4668592e-10
1.4249258e-10
1.384768e-10
1.3463189e-10
1.3095227e-10
1.2743348e-10
1.2407279e-10
1.2087016e-10
1.1782674e-10
1.1494448e-10
1.1222802e-10
1.0968572e-10
1.0732345e-10
1.0515382e-10
1.0319391e-10
1.0146647e-10
1.0000567e-10
9.8857783e-11
9.8077561e-11
9.7734985e-11
9.7900585e-11
9.8668854e-11
1.0013531e-10
1.0241675e-10
1.0562609e-10
1.098104e-10
1.1497079e-10
1.211399e-10
1.2816178e-10
1.3551351e-10
1.4250884e-10
1.4862222e-10
1.5348618e-10
1.572179e-10
1.5998165e-10
1.6200603e-10
1.6346427e-10
1.6448073e-10
1.6512999e-10
1.6546615e-10
1.6553135e-10
1.653262e-10
1.6485587e-10
1.6415625e-10
1.6325841e-10
1.6220044e-10
1.6102725e-10
1.5976683e-10
1.5844489e-10
1.5709307e-10
1.5573086e-10
1.5436591e-10
1.5300738e-10
1.5166886e-10
1.5035544e-10
1.4906611e-10
1.4779822e-10
1.4655281e-10
1.4532906e-10
1.4413127e-10
1.4290476e-10
1.4173888e-10
1.4029949e-10
1.3913483e-10
1.3744971e-10
0.00010197738
8.8484515e-05
8.7495519e-05
8.7525441e-05
8.7583394e-05
8.7600383e-05
8.7604975e-05
8.7607547e-05
8.7610238e-05
8.7613502e-05
8.7617558e-05
8.7622626e-05
8.7628978e-05
8.7636978e-05
8.7647124e-05
8.7660155e-05
8.767722e-05
8.7699752e-05
8.7733246e-05
8.7769015e-05
8.7899364e-05
8.7713001e-05
8.9538742e-05
2.6332901e-05
1.5307775e-08
2.3430315e-09
1.18704e-09
8.0053585e-10
6.1164643e-10
4.966649e-10
4.1894653e-10
3.6220041e-10
3.1885712e-10
2.8466963e-10
2.5696064e-10
2.3400825e-10
2.1466939e-10
1.9814714e-10
1.8386174e-10
1.7138162e-10
1.6038376e-10
1.5061006e-10
1.4186883e-10
1.3400126e-10
1.2688113e-10
1.2040519e-10
1.1448836e-10
1.0906001e-10
1.0406097e-10
9.9441373e-11
9.5158788e-11
9.1176758e-11
8.7463988e-11
8.3993396e-11
8.0741625e-11
7.7688649e-11
7.4816731e-11
7.2109596e-11
6.955307e-11
6.7134721e-11
6.4843484e-11
6.2669549e-11
6.0604219e-11
5.8639658e-11
5.6768692e-11
5.4984818e-11
5.3282366e-11
5.1656167e-11
5.0101396e-11
4.8613487e-11
4.7188879e-11
4.5827457e-11
4.4525803e-11
4.3280426e-11
4.2089398e-11
4.09511e-11
3.9864359e-11
3.8828523e-11
3.7843633e-11
3.6909468e-11
3.6023535e-11
3.5189161e-11
3.4424975e-11
3.3722679e-11
3.3087275e-11
3.2525761e-11
3.2047213e-11
3.1664142e-11
3.1389474e-11
3.1216042e-11
3.1206176e-11
3.1433131e-11
3.1890263e-11
3.2616461e-11
3.3657577e-11
3.5056401e-11
3.6829043e-11
3.8970039e-11
4.1468796e-11
4.4226532e-11
4.7018332e-11
4.9600273e-11
5.1820702e-11
5.3587524e-11
5.4959804e-11
5.6003591e-11
5.6799855e-11
5.7405868e-11
5.7857962e-11
5.8176642e-11
5.8378195e-11
5.847489e-11
5.8465385e-11
5.8349653e-11
5.8139541e-11
5.7848212e-11
5.749163e-11
5.7087515e-11
5.6647774e-11
5.6182989e-11
5.5704985e-11
5.522131e-11
5.4735473e-11
5.4251148e-11
5.3773129e-11
5.3303397e-11
5.2841936e-11
5.2388082e-11
5.1942226e-11
5.1504248e-11
5.1075119e-11
5.0638419e-11
5.0219891e-11
4.9717517e-11
4.9301983e-11
4.8699932e-11
0.00010194417
8.8432505e-05
8.7442739e-05
8.747243e-05
8.7530377e-05
8.7547373e-05
8.7551967e-05
8.7554539e-05
8.7557231e-05
8.7560496e-05
8.7564553e-05
8.7569623e-05
8.7575978e-05
8.7583981e-05
8.7594131e-05
8.7607167e-05
8.7624238e-05
8.7646777e-05
8.768028e-05
8.7716047e-05
8.7846447e-05
8.7659858e-05
8.9486054e-05
2.6323912e-05
6.99168e-09
1.0334894e-09
5.2358397e-10
3.5310723e-10
2.6981093e-10
2.1911044e-10
1.8483934e-10
1.5981466e-10
1.4069981e-10
1.2562233e-10
1.1340175e-10
1.0327825e-10
9.4748781e-11
8.7462629e-11
8.1163604e-11
7.5661063e-11
7.0812259e-11
6.6503287e-11
6.2649659e-11
5.9181407e-11
5.6042915e-11
5.3188663e-11
5.0581145e-11
4.8189222e-11
4.5986765e-11
4.3951543e-11
4.2064875e-11
4.0310544e-11
3.8674653e-11
3.7145224e-11
3.5712254e-11
3.4367998e-11
3.3105418e-11
3.1916342e-11
3.0794106e-11
2.9733268e-11
2.8728999e-11
2.777703e-11
2.6873586e-11
2.6015297e-11
2.5198956e-11
2.4421467e-11
2.3680504e-11
2.2973696e-11
2.2298446e-11
2.1651639e-11
2.103183e-11
2.0447104e-11
1.9894449e-11
1.9369581e-11
1.887219e-11
1.8402045e-11
1.7959369e-11
1.7544643e-11
1.715832e-11
1.6799164e-11
1.6458403e-11
1.6142413e-11
1.5901654e-11
1.5707274e-11
1.5565341e-11
1.5484704e-11
1.5476493e-11
1.5553986e-11
1.5724301e-11
1.5936089e-11
1.6308353e-11
1.6996539e-11
1.7929644e-11
1.9156608e-11
2.0731788e-11
2.2704394e-11
2.5095909e-11
2.7903736e-11
3.1089565e-11
3.4489658e-11
3.7817677e-11
4.0807736e-11
4.3326673e-11
4.534955e-11
4.6962427e-11
4.8254619e-11
4.9307486e-11
5.0173831e-11
5.0878823e-11
5.1437637e-11
5.1865456e-11
5.2169948e-11
5.234723e-11
5.2392498e-11
5.2314085e-11
5.2130234e-11
5.1862595e-11
5.1532445e-11
5.1156341e-11
5.0748143e-11
5.0320311e-11
4.9881521e-11
4.9437303e-11
4.8992194e-11
4.855047e-11
4.8114436e-11
4.7685077e-11
4.7262595e-11
4.6847423e-11
4.6439939e-11
4.6039408e-11
4.5639701e-11
4.5246656e-11
4.4816387e-11
4.4433549e-11
4.3876479e-11
0.00010189614
8.8357306e-05
8.7366427e-05
8.7395784e-05
8.7453723e-05
8.7470729e-05
8.7475326e-05
8.7477899e-05
8.7480591e-05
8.7483857e-05
8.7487916e-05
8.7492989e-05
8.7499347e-05
8.7507355e-05
8.7517512e-05
8.7530555e-05
8.7547634e-05
8.7570183e-05
8.7603699e-05
8.7639464e-05
8.7769934e-05
8.7583022e-05
8.9409849e-05
2.6309937e-05
4.1284476e-09
5.5228333e-10
2.7977862e-10
1.8869393e-10
1.4423198e-10
1.1717868e-10
9.8888154e-11
8.5528661e-11
7.5322376e-11
6.7270806e-11
6.0744242e-11
5.5336059e-11
5.0779946e-11
4.6890225e-11
4.3529021e-11
4.0593895e-11
3.8007959e-11
3.5710197e-11
3.3655628e-11
3.1807055e-11
3.0134874e-11
2.861483e-11
2.722693e-11
2.5954578e-11
2.4783748e-11
2.3702111e-11
2.2699713e-11
2.1767594e-11
2.0898158e-11
2.008495e-11
1.9323243e-11
1.8611099e-11
1.7946372e-11
1.7322723e-11
1.6735776e-11
1.6182726e-11
1.566112e-11
1.5168811e-11
1.4703934e-11
1.4264895e-11
1.3849878e-11
1.3456858e-11
1.3084998e-11
1.2732957e-11
1.239855e-11
1.2078116e-11
1.1771156e-11
1.1497521e-11
1.125307e-11
1.1030561e-11
1.0831132e-11
1.065598e-11
1.050706e-11
1.0386676e-11
1.0296801e-11
1.0236029e-11
1.0188256e-11
1.016524e-11
1.0266105e-11
1.0437171e-11
1.069161e-11
1.1048429e-11
1.1531954e-11
1.2172128e-11
1.2994273e-11
1.3949799e-11
1.5202389e-11
1.6989456e-11
1.9255808e-11
2.210495e-11
2.5649349e-11
2.999035e-11
3.5177033e-11
4.1213377e-11
4.8009025e-11
5.5201563e-11
6.2192566e-11
6.8439167e-11
7.3675217e-11
7.7904549e-11
8.1312614e-11
8.4095682e-11
8.6411799e-11
8.8361028e-11
8.998431e-11
9.1309414e-11
9.2367034e-11
9.3168409e-11
9.370404e-11
9.3959935e-11
9.3948408e-11
9.3709718e-11
9.3291262e-11
9.2737478e-11
9.2084932e-11
9.1363578e-11
9.059792e-11
8.9805743e-11
8.8999746e-11
8.8189518e-11
8.7382696e-11
8.6584028e-11
8.5796448e-11
8.5021256e-11
8.4259325e-11
8.3511901e-11
8.2775784e-11
8.2050065e-11
8.1324994e-11
8.0577722e-11
7.9879759e-11
7.8861416e-11
0.00010183202
8.8256849e-05
8.7264482e-05
8.7293392e-05
8.7351319e-05
8.7368339e-05
8.7372939e-05
8.7375513e-05
8.7378206e-05
8.7381473e-05
8.7385535e-05
8.7390612e-05
8.7396975e-05
8.7404989e-05
8.7415154e-05
8.7428206e-05
8.7445297e-05
8.7467859e-05
8.7501392e-05
8.7537153e-05
8.7667715e-05
8.7480376e-05
8.9308036e-05
2.6291218e-05
3.0883189e-09
3.34563e-10
1.6945002e-10
1.1430441e-10
8.7471705e-11
7.1164671e-11
6.0132168e-11
5.2066436e-11
4.5900961e-11
4.103513e-11
3.7089693e-11
3.3817591e-11
3.1061939e-11
2.8713351e-11
2.6686696e-11
2.4919012e-11
2.336258e-11
2.1980149e-11
2.0744802e-11
1.9634389e-11
1.8631209e-11
1.7720704e-11
1.6890863e-11
1.6131723e-11
1.5434703e-11
1.4791661e-11
1.4196514e-11
1.3643318e-11
1.3127232e-11
1.2644299e-11
1.2192675e-11
1.1774763e-11
1.1391932e-11
1.1037233e-11
1.0706753e-11
1.0399003e-11
1.0112751e-11
9.8469691e-12
9.6008359e-12
9.3737996e-12
9.1645698e-12
8.9715267e-12
8.7949658e-12
8.6342269e-12
8.4871073e-12
8.3487573e-12
8.2194097e-12
8.1337002e-12
8.0862944e-12
8.0663857e-12
8.0772829e-12
8.1227234e-12
8.2077168e-12
8.3382245e-12
8.5204251e-12
8.7568272e-12
9.0316635e-12
9.3618737e-12
9.8822272e-12
1.0535361e-11
1.135045e-11
1.2367876e-11
1.3639822e-11
1.5232069e-11
1.7210792e-11
1.954502e-11
2.2492111e-11
2.644253e-11
3.1388522e-11
3.7549498e-11
4.5162846e-11
5.4442911e-11
6.5497653e-11
7.8344974e-11
9.2798142e-11
1.0809507e-10
1.2297996e-10
1.3630046e-10
1.4747299e-10
1.5651719e-10
1.6382194e-10
1.6980848e-10
1.7480718e-10
1.7902787e-10
1.8255507e-10
1.8544921e-10
1.877772e-10
1.8956161e-10
1.9078208e-10
1.9140711e-10
1.9146028e-10
1.9102809e-10
1.9021218e-10
1.891068e-10
1.8779054e-10
1.8632742e-10
1.8476865e-10
1.8315178e-10
1.8150434e-10
1.7984671e-10
1.7819443e-10
1.7655755e-10
1.7494274e-10
1.7335319e-10
1.7179074e-10
1.7025827e-10
1.6874815e-10
1.672645e-10
1.6577547e-10
1.6426764e-10
1.6283905e-10
1.6075312e-10
0.00010175021
8.8128533e-05
8.7134257e-05
8.7162597e-05
8.7220507e-05
8.7237545e-05
8.724215e-05
8.7244724e-05
8.7247418e-05
8.7250687e-05
8.7254752e-05
8.7259834e-05
8.7266203e-05
8.7274226e-05
8.72844e-05
8.7297464e-05
8.731457e-05
8.7337148e-05
8.7370702e-05
8.7406459e-05
8.7537135e-05
8.7349254e-05
8.9177989e-05
2.6268178e-05
2.906704e-09
2.2522545e-10
1.1401143e-10
7.6944686e-11
5.90631e-11
4.823158e-11
4.0890458e-11
3.5510096e-11
3.139124e-11
2.8137159e-11
2.5496475e-11
2.3302366e-11
2.1456057e-11
1.9888687e-11
1.8540715e-11
1.7368549e-11
1.6338156e-11
1.5423961e-11
1.4608427e-11
1.387732e-11
1.3219129e-11
1.2624299e-11
1.2084922e-11
1.1594454e-11
1.1147041e-11
1.0736455e-11
1.0358283e-11
1.0007751e-11
9.6813666e-12
9.3765101e-12
9.0933443e-12
8.8382428e-12
8.615776e-12
8.4173573e-12
8.2388165e-12
8.079541e-12
7.9391548e-12
7.8174564e-12
7.7144473e-12
7.6305084e-12
7.5644468e-12
7.5152089e-12
7.4844176e-12
7.4725601e-12
7.4781421e-12
7.4962262e-12
7.5280924e-12
7.6192042e-12
7.7654587e-12
7.9556429e-12
8.1966933e-12
8.4966676e-12
8.8658546e-12
9.3166613e-12
9.862915e-12
1.0514785e-11
1.1259703e-11
1.2124418e-11
1.3297509e-11
1.4721484e-11
1.6454662e-11
1.8576181e-11
2.1188761e-11
2.4423533e-11
2.8422279e-11
3.3194935e-11
3.9169675e-11
4.6997978e-11
5.6768356e-11
6.8911333e-11
8.3892461e-11
1.0213305e-10
1.2384929e-10
1.4908634e-10
1.7749099e-10
2.0758735e-10
2.3692841e-10
2.6323989e-10
2.8533594e-10
3.0324145e-10
3.1771026e-10
3.2957309e-10
3.3947839e-10
3.4784078e-10
3.548293e-10
3.6056759e-10
3.6519076e-10
3.6874388e-10
3.711874e-10
3.7245862e-10
3.7260269e-10
3.7179033e-10
3.7022203e-10
3.6808315e-10
3.6552876e-10
3.6268507e-10
3.596524e-10
3.565045e-10
3.5329582e-10
3.500665e-10
3.4684675e-10
3.4365632e-10
3.4050854e-10
3.3740994e-10
3.3436413e-10
3.3137689e-10
3.2843275e-10
3.2554293e-10
3.2263909e-10
3.1971265e-10
3.1692919e-10
3.1286411e-10
0.0001016488
8.7969235e-05
8.6972574e-05
8.7000206e-05
8.7058094e-05
8.7075153e-05
8.7079763e-05
8.7082338e-05
8.7085033e-05
8.7088305e-05
8.7092374e-05
8.7097461e-05
8.7103839e-05
8.7111871e-05
8.7122058e-05
8.7135137e-05
8.715226e-05
8.7174858e-05
8.7208438e-05
8.7244189e-05
8.7375007e-05
8.7186452e-05
8.9016555e-05
2.6241497e-05
3.2874255e-09
1.7085592e-10
8.6390551e-11
5.8364219e-11
4.5095903e-11
3.7118274e-11
3.1690452e-11
2.769076e-11
2.4619177e-11
2.2187058e-11
2.0210038e-11
1.856227e-11
1.7177845e-11
1.6010875e-11
1.5013763e-11
1.415226e-11
1.3397708e-11
1.2729927e-11
1.213654e-11
1.1607837e-11
1.1135738e-11
1.0713383e-11
1.0335063e-11
9.9960875e-12
9.692037e-12
9.417882e-12
9.1693275e-12
8.9418048e-12
8.7327033e-12
8.5403887e-12
8.3664438e-12
8.2201244e-12
8.1084657e-12
8.0219149e-12
7.9562882e-12
7.9117775e-12
7.8888292e-12
7.8880837e-12
7.9104425e-12
7.9574171e-12
8.0275865e-12
8.1206011e-12
8.2400145e-12
8.3880917e-12
8.5645934e-12
8.7648724e-12
8.9920103e-12
9.306004e-12
9.7052763e-12
1.0179228e-11
1.0740792e-11
1.1405196e-11
1.2191556e-11
1.3123119e-11
1.422669e-11
1.5525759e-11
1.7014857e-11
1.8738519e-11
2.0969891e-11
2.3654646e-11
2.6900658e-11
3.085285e-11
3.5699827e-11
4.1684166e-11
4.9078486e-11
5.7977187e-11
6.9092118e-11
8.349148e-11
1.0144659e-10
1.2374739e-10
1.5124827e-10
1.847239e-10
2.2457619e-10
2.7089996e-10
3.2306756e-10
3.7840172e-10
4.3243526e-10
4.8097294e-10
5.2177866e-10
5.548666e-10
5.8160605e-10
6.0352535e-10
6.2181759e-10
6.3724999e-10
6.5013981e-10
6.6072188e-10
6.692498e-10
6.7580843e-10
6.8032601e-10
6.8268709e-10
6.829741e-10
6.8150131e-10
6.7863768e-10
6.7472414e-10
6.7004609e-10
6.6483578e-10
6.5927746e-10
6.5350673e-10
6.4762386e-10
6.4170267e-10
6.3579857e-10
6.2994782e-10
6.2417511e-10
6.1849255e-10
6.1290676e-10
6.0742844e-10
6.0202894e-10
5.9673055e-10
5.9140449e-10
5.8604483e-10
5.8094095e-10
5.7348657e-10
0.00010152559
8.777531e-05
8.6775724e-05
8.6802495e-05
8.6860351e-05
8.6877436e-05
8.6882054e-05
8.688463e-05
8.6887326e-05
8.6890601e-05
8.6894674e-05
8.6899769e-05
8.6906155e-05
8.69142e-05
8.6924401e-05
8.6937499e-05
8.6954642e-05
8.6977265e-05
8.7010876e-05
8.7046619e-05
8.7177607e-05
8.6988234e-05
8.8820061e-05
2.6212198e-05
4.165437e-09
1.5128055e-10
7.6350326e-11
5.1669728e-11
4.0354986e-11
3.3642287e-11
2.9044892e-11
2.5625596e-11
2.2985988e-11
2.0888353e-11
1.9178534e-11
1.7749201e-11
1.6550909e-11
1.5549419e-11
1.4701423e-11
1.3976428e-11
1.3345457e-11
1.2789564e-11
1.2299107e-11
1.1867034e-11
1.1487111e-11
1.1153816e-11
1.0862503e-11
1.0609409e-11
1.0390738e-11
1.0202129e-11
1.0038164e-11
9.8936212e-12
9.7665149e-12
9.6561055e-12
9.5654221e-12
9.5069955e-12
9.4907049e-12
9.5057305e-12
9.5478089e-12
9.618077e-12
9.7179894e-12
9.8492629e-12
1.0014003e-11
1.0215326e-11
1.0451233e-11
1.0722359e-11
1.1035247e-11
1.1394974e-11
1.1803383e-11
1.2256589e-11
1.2760795e-11
1.3397706e-11
1.4169877e-11
1.5068365e-11
1.6115799e-11
1.7339025e-11
1.8771503e-11
2.0454141e-11
2.2435041e-11
2.4760043e-11
2.7437931e-11
3.0543299e-11
3.4476658e-11
3.9194989e-11
4.4887247e-11
5.1805827e-11
6.0279762e-11
7.0734403e-11
8.3659755e-11
9.9310282e-11
1.1884767e-10
1.4398299e-10
1.7531583e-10
2.1422438e-10
2.621999e-10
3.205964e-10
3.9012191e-10
4.7095694e-10
5.6203499e-10
6.5872853e-10
7.5327357e-10
8.3831864e-10
9.0987928e-10
9.679313e-10
1.0148445e-09
1.05329e-09
1.0853554e-09
1.1123891e-09
1.1349556e-09
1.1534759e-09
1.1684002e-09
1.17988e-09
1.1877915e-09
1.1919329e-09
1.1924482e-09
1.1898868e-09
1.1848938e-09
1.1780653e-09
1.1699002e-09
1.1608045e-09
1.1511003e-09
1.1410244e-09
1.1307523e-09
1.120413e-09
1.1101033e-09
1.0998864e-09
1.0898057e-09
1.0798825e-09
1.0701281e-09
1.0605615e-09
1.0511324e-09
1.0418808e-09
1.0325796e-09
1.0232245e-09
1.0143122e-09
1.0012952e-09
0.00010137808
8.75426e-05
8.6539471e-05
8.6565208e-05
8.6623023e-05
8.6640137e-05
8.6644763e-05
8.6647341e-05
8.6650038e-05
8.6653316e-05
8.6657396e-05
8.6662498e-05
8.6668896e-05
8.6676955e-05
8.6687174e-05
8.6700293e-05
8.6717462e-05
8.6740113e-05
8.677376e-05
8.6809496e-05
8.6940683e-05
8.6750331e-05
8.8584313e-05
2.6181742e-05
5.5897498e-09
1.601509e-10
8.0651368e-11
5.4691603e-11
4.3255509e-11
3.658923e-11
3.1984803e-11
2.8519648e-11
2.5827346e-11
2.3678488e-11
2.1921128e-11
2.0448845e-11
1.9217608e-11
1.8197107e-11
1.7341648e-11
1.6619819e-11
1.5996806e-11
1.5451245e-11
1.4974561e-11
1.4561194e-11
1.4205684e-11
1.3902861e-11
1.3648316e-11
1.3438547e-11
1.3269758e-11
1.3137867e-11
1.3034951e-11
1.2954184e-11
1.2894106e-11
1.2855007e-11
1.2841746e-11
1.2871285e-11
1.2957331e-11
1.3087158e-11
1.3256318e-11
1.3467237e-11
1.372278e-11
1.4026204e-11
1.4381377e-11
1.4793826e-11
1.5260519e-11
1.5783593e-11
1.637427e-11
1.7042095e-11
1.779239e-11
1.8622958e-11
1.9545257e-11
2.0672865e-11
2.2015074e-11
2.3566557e-11
2.5365311e-11
2.745664e-11
2.9896799e-11
3.2754842e-11
3.6113001e-11
4.0053687e-11
4.4612472e-11
4.9912622e-11
5.6540954e-11
6.4482585e-11
7.4055834e-11
8.5684303e-11
9.9920906e-11
1.1748311e-10
1.3921219e-10
1.656476e-10
1.9864675e-10
2.4089402e-10
2.9355276e-10
3.5893962e-10
4.3956219e-10
5.3770004e-10
6.5455228e-10
7.9044181e-10
9.4361491e-10
1.1063524e-09
1.2656434e-09
1.4090865e-09
1.529872e-09
1.62789e-09
1.707098e-09
1.7719917e-09
1.8260889e-09
1.8716701e-09
1.9096996e-09
1.9409002e-09
1.9660395e-09
1.985377e-09
1.9987062e-09
2.0056881e-09
2.0065648e-09
2.0022616e-09
1.9938647e-09
1.9823772e-09
1.9686394e-09
1.9533349e-09
1.9370057e-09
1.9200506e-09
1.902765e-09
1.8853661e-09
1.8680167e-09
1.8508235e-09
1.8338593e-09
1.81716e-09
1.800745e-09
1.7846459e-09
1.7687781e-09
1.7532095e-09
1.7375569e-09
1.7218165e-09
1.7068188e-09
1.6849135e-09
0.00010120352
8.7266428e-05
8.6259047e-05
8.6283556e-05
8.6341316e-05
8.6358465e-05
8.6363101e-05
8.636568e-05
8.6368379e-05
8.6371661e-05
8.6375747e-05
8.6380859e-05
8.6387271e-05
8.6395346e-05
8.6405586e-05
8.641873e-05
8.6435929e-05
8.6458614e-05
8.6492304e-05
8.6528029e-05
8.6659451e-05
8.6467942e-05
8.8304601e-05
2.6152137e-05
7.6922094e-09
1.9860316e-10
9.9834466e-11
6.7817432e-11
5.4204659e-11
4.6400773e-11
4.0967984e-11
3.6834886e-11
3.3605125e-11
3.1017486e-11
2.8895254e-11
2.7115796e-11
2.5630859e-11
2.4407221e-11
2.3389754e-11
2.2541361e-11
2.1814845e-11
2.1182381e-11
2.0635035e-11
2.01679e-11
1.9775391e-11
1.94518e-11
1.9192192e-11
1.8992732e-11
1.8849021e-11
1.8756972e-11
1.8704306e-11
1.8681375e-11
1.86873e-11
1.8723771e-11
1.8798192e-11
1.8933723e-11
1.9149413e-11
1.9429835e-11
1.9770323e-11
2.0175187e-11
2.0649378e-11
2.1198451e-11
2.1828936e-11
2.2550041e-11
2.3357053e-11
2.4254491e-11
2.5260845e-11
2.6392744e-11
2.7661265e-11
2.9067628e-11
3.0631899e-11
3.2513382e-11
3.4732387e-11
3.7290828e-11
4.0250695e-11
4.3686167e-11
4.768915e-11
5.2372796e-11
5.7873104e-11
6.4331157e-11
7.1830214e-11
8.0570349e-11
9.1406623e-11
1.0438293e-10
1.2002041e-10
1.390107e-10
1.6225742e-10
1.9093663e-10
2.2644607e-10
2.698108e-10
3.239485e-10
3.9300103e-10
4.790683e-10
5.8593784e-10
7.1771066e-10
8.7811851e-10
1.0691338e-09
1.29131e-09
1.5418325e-09
1.8081613e-09
2.0690775e-09
2.3042473e-09
2.5023865e-09
2.6632211e-09
2.7931865e-09
2.8996397e-09
2.9883442e-09
3.0630476e-09
3.1253471e-09
3.1764452e-09
3.2176107e-09
3.2492749e-09
3.2711024e-09
3.2825392e-09
3.2839815e-09
3.2769443e-09
3.2632056e-09
3.2444075e-09
3.2219256e-09
3.196879e-09
3.1701547e-09
3.1424057e-09
3.1141155e-09
3.0856397e-09
3.0572448e-09
3.0291054e-09
3.0013407e-09
2.9740095e-09
2.9471436e-09
2.9207948e-09
2.8948244e-09
2.8693442e-09
2.8437258e-09
2.817966e-09
2.7934198e-09
2.7575683e-09
0.00010099888
8.6941598e-05
8.5929152e-05
8.5952213e-05
8.6009902e-05
8.6027092e-05
8.6031739e-05
8.6034318e-05
8.6037019e-05
8.6040305e-05
8.60444e-05
8.6049523e-05
8.605595e-05
8.6064045e-05
8.6074309e-05
8.6087483e-05
8.6104716e-05
8.612744e-05
8.616118e-05
8.6196892e-05
8.6328586e-05
8.6135728e-05
8.7975691e-05
2.6126051e-05
1.0688433e-08
2.7372321e-10
1.3743768e-10
9.3467653e-11
7.5218492e-11
6.4880856e-11
5.7644393e-11
5.2097528e-11
4.7746195e-11
4.4251254e-11
4.1379594e-11
3.8972439e-11
3.6966596e-11
3.5318213e-11
3.3954108e-11
3.2825808e-11
3.1864973e-11
3.1032097e-11
3.0316386e-11
2.971286e-11
2.9214881e-11
2.8815213e-11
2.8507532e-11
2.8287016e-11
2.8147966e-11
2.8086093e-11
2.8082097e-11
2.8121821e-11
2.8205192e-11
2.8335994e-11
2.852527e-11
2.8804849e-11
2.9201246e-11
2.9695459e-11
3.0282714e-11
3.0970154e-11
3.1765865e-11
3.2678888e-11
3.3719796e-11
3.4903429e-11
3.6222439e-11
3.7685138e-11
3.9321232e-11
4.1158467e-11
4.3217313e-11
4.5505407e-11
4.805662e-11
5.1094884e-11
5.4658404e-11
5.876263e-11
6.3506589e-11
6.9009095e-11
7.5417152e-11
8.2912174e-11
9.1713762e-11
1.0205565e-10
1.141026e-10
1.2817392e-10
1.455078e-10
1.662592e-10
1.9126325e-10
2.21626e-10
2.5879368e-10
3.0465297e-10
3.6147052e-10
4.3107344e-10
5.1798025e-10
6.2850072e-10
7.6625313e-10
9.3730132e-10
1.1482129e-09
1.4049692e-09
1.7107441e-09
2.0664574e-09
2.4676733e-09
2.8944231e-09
3.3128049e-09
3.6901851e-09
4.0082968e-09
4.2665739e-09
4.4752726e-09
4.6461812e-09
4.7885433e-09
4.908385e-09
5.0082909e-09
5.0902138e-09
5.1562041e-09
5.2069613e-09
5.2419515e-09
5.2602881e-09
5.2626065e-09
5.2513345e-09
5.2293218e-09
5.1992004e-09
5.1631747e-09
5.1230384e-09
5.080213e-09
5.0357453e-09
4.99041e-09
4.9447771e-09
4.8992736e-09
4.8541795e-09
4.8096858e-09
4.7658868e-09
4.7228334e-09
4.6806086e-09
4.6389902e-09
4.5981576e-09
4.5571033e-09
4.5158236e-09
4.4764878e-09
4.4190347e-09
0.00010076087
8.656239e-05
8.5543943e-05
8.556531e-05
8.5622908e-05
8.5640143e-05
8.5644803e-05
8.5647384e-05
8.5650086e-05
8.5653378e-05
8.5657481e-05
8.5662618e-05
8.5669062e-05
8.5677181e-05
8.5687473e-05
8.5700681e-05
8.5717954e-05
8.5740723e-05
8.5774518e-05
8.5810216e-05
8.5942221e-05
8.5747814e-05
8.7591827e-05
2.6106931e-05
1.4896199e-08
3.9902138e-10
2.0022884e-10
1.3625789e-10
1.1007277e-10
9.5344946e-11
8.5002609e-11
7.7040631e-11
7.0781262e-11
6.5747039e-11
6.1606539e-11
5.8138744e-11
5.5251511e-11
5.2880141e-11
5.0921854e-11
4.9309295e-11
4.7940536e-11
4.6757093e-11
4.5744466e-11
4.4896836e-11
4.4205388e-11
4.3660083e-11
4.3252093e-11
4.2974776e-11
4.2820226e-11
4.2783848e-11
4.2835369e-11
4.2953707e-11
4.314006e-11
4.3401444e-11
4.3754167e-11
4.4242092e-11
4.4902147e-11
4.5710838e-11
4.6663652e-11
4.7772007e-11
4.904874e-11
5.0508176e-11
5.2167034e-11
5.4048732e-11
5.6141877e-11
5.846079e-11
6.1052349e-11
6.3961592e-11
6.7224091e-11
7.0858878e-11
7.4921612e-11
7.9726831e-11
8.5341482e-11
9.1805012e-11
9.9273119e-11
1.0793302e-10
1.1801612e-10
1.2980852e-10
1.4365854e-10
1.5994446e-10
1.789662e-10
2.0122606e-10
2.2850753e-10
2.6116257e-10
3.0050794e-10
3.4828459e-10
4.0677045e-10
4.7894312e-10
5.6841149e-10
6.7829786e-10
8.1552273e-10
9.8960716e-10
1.2065867e-09
1.4760155e-09
1.8082443e-09
2.2127062e-09
2.6944237e-09
3.2548909e-09
3.8872126e-09
4.5600706e-09
5.2201419e-09
5.8159034e-09
6.3183057e-09
6.7262857e-09
7.0559415e-09
7.3258585e-09
7.5506238e-09
7.739766e-09
7.8973949e-09
8.0266239e-09
8.1307087e-09
8.2107636e-09
8.2659516e-09
8.2948763e-09
8.2985399e-09
8.280771e-09
8.2460639e-09
8.1985689e-09
8.1417625e-09
8.0784736e-09
8.0109437e-09
7.9408236e-09
7.8693351e-09
7.7973771e-09
7.725623e-09
7.6545143e-09
7.5843524e-09
7.5152857e-09
7.4473948e-09
7.3808106e-09
7.3151824e-09
7.2507937e-09
7.1860549e-09
7.1209621e-09
7.0589335e-09
6.9683356e-09
0.00010048601
8.6122565e-05
8.5097039e-05
8.5116435e-05
8.5173915e-05
8.5191202e-05
8.5195876e-05
8.5198458e-05
8.5201162e-05
8.5204459e-05
8.5208572e-05
8.5213725e-05
8.522019e-05
8.5228334e-05
8.5238658e-05
8.5251906e-05
8.5269224e-05
8.5292044e-05
8.5325904e-05
8.5361584e-05
8.5493944e-05
8.5297773e-05
8.7146733e-05
2.6099119e-05
2.0768229e-08
5.9633444e-10
2.9915709e-10
2.0364897e-10
1.6483969e-10
1.4309601e-10
1.278022e-10
1.1600192e-10
1.0671517e-10
9.9241396e-11
9.3091677e-11
8.7946329e-11
8.3664366e-11
8.0145587e-11
7.7241383e-11
7.4855056e-11
7.2832948e-11
7.108702e-11
6.9596556e-11
6.8353972e-11
6.7346752e-11
6.6560292e-11
6.5981701e-11
6.5601361e-11
6.5407914e-11
6.539647e-11
6.5519883e-11
6.5746625e-11
6.6079963e-11
6.6531964e-11
6.7126557e-11
6.7924244e-11
6.8976435e-11
7.0254262e-11
7.1754238e-11
7.3494257e-11
7.5494338e-11
7.77768e-11
8.0367682e-11
8.3303407e-11
8.6566439e-11
9.0180536e-11
9.4218708e-11
9.8752669e-11
1.0384194e-10
1.0952501e-10
1.1589148e-10
1.2338246e-10
1.321105e-10
1.4215598e-10
1.5376073e-10
1.6721611e-10
1.8288188e-10
2.0120365e-10
2.2272646e-10
2.4805189e-10
2.7769902e-10
3.1244885e-10
3.5486006e-10
4.0561966e-10
4.6677798e-10
5.4104212e-10
6.3195608e-10
7.4416024e-10
8.8332021e-10
1.054615e-09
1.2685541e-09
1.539403e-09
1.8769931e-09
2.2961937e-09
2.813117e-09
3.4424562e-09
4.1920568e-09
5.0643034e-09
6.0485907e-09
7.0963727e-09
8.1247859e-09
9.053505e-09
9.8369636e-09
1.0473279e-08
1.0987422e-08
1.1408332e-08
1.1758741e-08
1.2053525e-08
1.2299129e-08
1.2500448e-08
1.266258e-08
1.2787276e-08
1.2873241e-08
1.29183e-08
1.2924016e-08
1.289635e-08
1.2842304e-08
1.276834e-08
1.2679874e-08
1.2581311e-08
1.2476142e-08
1.2366939e-08
1.2255604e-08
1.2143538e-08
1.203179e-08
1.1921046e-08
1.1811776e-08
1.1704212e-08
1.159848e-08
1.1494782e-08
1.1392573e-08
1.1292295e-08
1.1191471e-08
1.1090097e-08
1.0993494e-08
1.0852397e-08
0.00010017061
8.5615362e-05
8.4581514e-05
8.4598628e-05
8.4655961e-05
8.4673303e-05
8.4677994e-05
8.4680577e-05
8.4683282e-05
8.4686585e-05
8.469071e-05
8.4695879e-05
8.4702368e-05
8.4710542e-05
8.4720903e-05
8.4734195e-05
8.4751564e-05
8.4774444e-05
8.4808375e-05
8.4844034e-05
8.4976794e-05
8.4778623e-05
8.6633634e-05
2.610795e-05
2.8940792e-08
8.9921482e-10
4.5105173e-10
3.0710504e-10
2.488324e-10
2.1625119e-10
1.9331703e-10
1.7560219e-10
1.6165403e-10
1.5042601e-10
1.4118555e-10
1.3346189e-10
1.2703591e-10
1.2175015e-10
1.173868e-10
1.1380483e-10
1.1077211e-10
1.0815546e-10
1.0592437e-10
1.0406824e-10
1.0256871e-10
1.0140406e-10
1.0055508e-10
1.0000752e-10
9.9744778e-11
9.9761878e-11
9.9985958e-11
1.0036987e-10
1.0092028e-10
1.016571e-10
1.0261533e-10
1.038784e-10
1.0551786e-10
1.0749873e-10
1.0981999e-10
1.1250929e-10
1.155975e-10
1.1911899e-10
1.2311389e-10
1.2763825e-10
1.3266528e-10
1.3823342e-10
1.4445526e-10
1.5144338e-10
1.5929486e-10
1.6808041e-10
1.7794209e-10
1.8949757e-10
2.0293103e-10
2.1839061e-10
2.3624847e-10
2.569536e-10
2.8106015e-10
3.0925529e-10
3.4238303e-10
3.8138742e-10
4.2713685e-10
4.8083436e-10
5.4614096e-10
6.2429703e-10
7.1846423e-10
8.3281224e-10
9.728023e-10
1.1455954e-09
1.3599892e-09
1.6243876e-09
1.9546466e-09
2.3720301e-09
2.8922687e-09
3.5382822e-09
4.3349115e-09
5.304822e-09
6.4601469e-09
7.8046398e-09
9.322122e-09
1.0938023e-08
1.2524777e-08
1.3958381e-08
1.5168122e-08
1.6150792e-08
1.6944773e-08
1.7594696e-08
1.8135638e-08
1.8590591e-08
1.8969555e-08
1.928014e-08
1.953025e-08
1.9722606e-08
1.9855215e-08
1.992473e-08
1.9933559e-08
1.98909e-08
1.9807548e-08
1.9693475e-08
1.9557033e-08
1.9405016e-08
1.924281e-08
1.907438e-08
1.8902662e-08
1.8729816e-08
1.8557458e-08
1.8386651e-08
1.8218117e-08
1.8052214e-08
1.7889135e-08
1.7729194e-08
1.757155e-08
1.7416884e-08
1.7261375e-08
1.710502e-08
1.6956022e-08
1.6738399e-08
9.9810839e-05
8.5033521e-05
8.3989914e-05
8.4004399e-05
8.4061544e-05
8.4078947e-05
8.4083656e-05
8.4086239e-05
8.4088946e-05
8.4092256e-05
8.4096393e-05
8.4101582e-05
8.4108096e-05
8.4116304e-05
8.4126707e-05
8.4140049e-05
8.4157477e-05
8.4180422e-05
8.4214433e-05
8.4250068e-05
8.4383274e-05
8.4182844e-05
8.6045256e-05
2.6139836e-05
4.0302083e-08
1.3582481e-09
6.8128866e-10
4.6391008e-10
3.7608143e-10
3.2702948e-10
2.9248974e-10
2.6579669e-10
2.4477533e-10
2.2785225e-10
2.1392432e-10
2.0229311e-10
1.9261755e-10
1.8465029e-10
1.7807023e-10
1.7267026e-10
1.681001e-10
1.6415838e-10
1.6079957e-10
1.5800831e-10
1.5575724e-10
1.5401376e-10
1.5274907e-10
1.5194185e-10
1.5156765e-10
1.5162192e-10
1.5199283e-10
1.5261001e-10
1.5348562e-10
1.5465173e-10