/*--------------------------------*- C++ -*----------------------------------*\
| =========                 |                                                 |
| \\      /  F ield         | OpenFOAM: The Open Source CFD Toolbox           |
|  \\    /   O peration     | Version:  2206                                  |
|   \\  /    A nd           | Website:  www.openfoam.com                      |
|    \\/     M anipulation  |                                                 |
\*---------------------------------------------------------------------------*/
FoamFile
{
    version     2.0;
    format      ascii;
    arch        "LSB;label=32;scalar=64";
    class       volScalarField;
    location    "1000";
    object      nut;
}
// * * * * * * * * * * * * * * * * * * * * * * * * * * * * * * * * * * * * * //

dimensions      [0 2 -1 0 0 0 0];

internalField   nonuniform List<scalar> 
13056
(
1.9467151e-07
1.9337885e-07
1.9343194e-07
1.9359608e-07
1.936884e-07
1.9373039e-07
1.9375178e-07
1.9376517e-07
1.9377512e-07
1.9378347e-07
1.9379116e-07
1.9379882e-07
1.9380701e-07
1.9381626e-07
1.9382726e-07
1.9384076e-07
1.938585e-07
1.9388006e-07
1.9392011e-07
1.9392686e-07
1.9420025e-07
1.9349916e-07
1.9383032e-07
1.3481311e-09
2.6458377e-16
4.0946571e-17
2.0744682e-17
1.3990139e-17
1.0689009e-17
8.6795086e-18
7.3212556e-18
6.3295347e-18
5.5720515e-18
4.9745806e-18
4.4903312e-18
4.0892138e-18
3.7512453e-18
3.4624938e-18
3.2128305e-18
2.9947151e-18
2.802504e-18
2.6316873e-18
2.4789142e-18
2.341409e-18
2.2169659e-18
2.1037801e-18
2.0003647e-18
1.9054852e-18
1.8181079e-18
1.7373628e-18
1.6625081e-18
1.5929074e-18
1.5280145e-18
1.4673563e-18
1.4105228e-18
1.3571571e-18
1.3069445e-18
1.2596067e-18
1.2148987e-18
1.1726032e-18
1.1325263e-18
1.0944964e-18
1.0583611e-18
1.023983e-18
9.9123707e-19
9.6001119e-19
9.3020533e-19
9.0172998e-19
8.7450412e-19
8.484554e-19
8.2352085e-19
7.9964508e-19
7.7677899e-19
7.5488027e-19
7.3391232e-19
7.1384455e-19
6.9465262e-19
6.763214e-19
6.5885079e-19
6.422476e-19
6.2652559e-19
6.1170827e-19
5.9782608e-19
5.8492103e-19
5.73061e-19
5.6233801e-19
5.5287465e-19
5.4485621e-19
5.3853773e-19
5.3424409e-19
5.3231563e-19
5.330853e-19
5.3710931e-19
5.4490181e-19
5.5709324e-19
5.7429479e-19
5.9676463e-19
6.245177e-19
6.5775613e-19
6.9567838e-19
7.3548473e-19
7.7344195e-19
8.0665161e-19
8.3307772e-19
8.5333938e-19
8.6832318e-19
8.7927134e-19
8.8712978e-19
8.9258252e-19
8.9604183e-19
8.9780551e-19
8.9810517e-19
8.9694571e-19
8.943567e-19
8.9053356e-19
8.8564325e-19
8.7989053e-19
8.7351768e-19
8.6667511e-19
8.5950124e-19
8.5216717e-19
8.4477826e-19
8.3737529e-19
8.3000777e-19
8.2274935e-19
8.1562753e-19
8.0863658e-19
8.0176197e-19
7.9500924e-19
7.8837391e-19
7.8187963e-19
7.7522761e-19
7.6890692e-19
7.6109287e-19
7.5477696e-19
7.4563916e-19
1.946707e-07
1.9337745e-07
1.9343057e-07
1.9359477e-07
1.9368713e-07
1.9372913e-07
1.9375053e-07
1.9376392e-07
1.9377387e-07
1.9378223e-07
1.9378992e-07
1.9379759e-07
1.9380577e-07
1.9381503e-07
1.9382603e-07
1.9383954e-07
1.9385728e-07
1.9387885e-07
1.939189e-07
1.9392565e-07
1.9419909e-07
1.9349787e-07
1.9382996e-07
1.3685216e-09
2.4837528e-16
3.8267502e-17
1.9387368e-17
1.3074765e-17
9.9896288e-18
8.1116117e-18
6.8422298e-18
5.9153975e-18
5.2074767e-18
4.6490984e-18
4.1965336e-18
3.8216614e-18
3.5058063e-18
3.2359482e-18
3.0026209e-18
2.7987774e-18
2.6191433e-18
2.4595037e-18
2.3167271e-18
2.1882194e-18
2.0719192e-18
1.9661397e-18
1.8694914e-18
1.7808205e-18
1.6991609e-18
1.6236994e-18
1.5537429e-18
1.4886967e-18
1.42805e-18
1.3713608e-18
1.318246e-18
1.2683725e-18
1.2214461e-18
1.1772067e-18
1.1354252e-18
1.0958983e-18
1.058445e-18
1.0229049e-18
9.8913546e-19
9.5700845e-19
9.2640688e-19
8.9722594e-19
8.6937218e-19
8.4276188e-19
8.1731911e-19
7.9297588e-19
7.6967338e-19
7.4736255e-19
7.2599692e-19
7.0553592e-19
6.8594545e-19
6.6719698e-19
6.4926785e-19
6.3214404e-19
6.1582533e-19
6.0031726e-19
5.8562924e-19
5.7178518e-19
5.5883006e-19
5.4679183e-19
5.3573449e-19
5.2574496e-19
5.169388e-19
5.0948949e-19
5.0363085e-19
4.9963331e-19
4.9786426e-19
4.9869429e-19
5.0259085e-19
5.100394e-19
5.2163332e-19
5.379456e-19
5.5921298e-19
5.8543564e-19
6.1677118e-19
6.5241549e-19
6.8970429e-19
7.251608e-19
7.5613795e-19
7.8077882e-19
7.9968316e-19
8.1368358e-19
8.2394007e-19
8.3132997e-19
8.3648196e-19
8.3977168e-19
8.4147193e-19
8.4179594e-19
8.407464e-19
8.3834961e-19
8.3478813e-19
8.3021974e-19
8.2483784e-19
8.1887065e-19
8.1246033e-19
8.0573751e-19
7.9886297e-19
7.9193584e-19
7.8499483e-19
7.7808659e-19
7.7128017e-19
7.6460144e-19
7.5804524e-19
7.515981e-19
7.4526523e-19
7.3904254e-19
7.3295187e-19
7.2671488e-19
7.2078652e-19
7.1346604e-19
7.0754368e-19
6.9897478e-19
1.9466808e-07
1.9337302e-07
1.9342623e-07
1.9359062e-07
1.9368308e-07
1.9372513e-07
1.9374655e-07
1.9375996e-07
1.9376993e-07
1.9377829e-07
1.9378599e-07
1.9379366e-07
1.9380186e-07
1.9381112e-07
1.9382213e-07
1.9383564e-07
1.938534e-07
1.9387497e-07
1.9391505e-07
1.9392178e-07
1.9419537e-07
1.9349385e-07
1.9382691e-07
1.3927213e-09
2.3869842e-16
3.6483641e-17
1.8483555e-17
1.2465248e-17
9.5240234e-18
7.7336283e-18
6.5234636e-18
5.6398609e-18
4.9649558e-18
4.432617e-18
4.0011559e-18
3.6437599e-18
3.3426311e-18
3.0853608e-18
2.8629214e-18
2.6685922e-18
2.4973434e-18
2.3451563e-18
2.2090457e-18
2.0865388e-18
1.9756705e-18
1.8748329e-18
1.7827012e-18
1.6981755e-18
1.6203346e-18
1.5484016e-18
1.4817159e-18
1.4197097e-18
1.3618956e-18
1.3078518e-18
1.257215e-18
1.2096746e-18
1.1649554e-18
1.1228027e-18
1.082995e-18
1.0453389e-18
1.0096619e-18
9.7581136e-19
9.4365183e-19
9.1306128e-19
8.83928e-19
8.5615011e-19
8.2963938e-19
8.0431479e-19
7.8010006e-19
7.5692188e-19
7.3472486e-19
7.1352091e-19
6.932531e-19
6.7386134e-19
6.5531558e-19
6.3758994e-19
6.2066591e-19
6.0453252e-19
5.8918794e-19
5.7462181e-19
5.6077148e-19
5.4770056e-19
5.3579857e-19
5.2485987e-19
5.149596e-19
5.0620466e-19
4.9873146e-19
4.9272038e-19
4.8831494e-19
4.8511246e-19
4.8447133e-19
4.8795466e-19
4.9499302e-19
5.0617765e-19
5.2219733e-19
5.4367198e-19
5.7076674e-19
6.0322703e-19
6.4057563e-19
6.8087288e-19
7.204766e-19
7.5612826e-19
7.8640264e-19
8.1035999e-19
8.290324e-19
8.4334297e-19
8.5443096e-19
8.6304276e-19
8.6959651e-19
8.7428225e-19
8.772696e-19
8.7870591e-19
8.7855529e-19
8.7681178e-19
8.7365163e-19
8.69272e-19
8.6391245e-19
8.5783911e-19
8.5123074e-19
8.4424628e-19
8.3706335e-19
8.2979534e-19
8.2249493e-19
8.1521729e-19
8.0803446e-19
8.0097621e-19
7.9404225e-19
7.872226e-19
7.8052314e-19
7.7394205e-19
7.6749396e-19
7.6093191e-19
7.5464316e-19
7.4709356e-19
7.4084963e-19
7.318031e-19
1.9466359e-07
1.9336541e-07
1.9341878e-07
1.9358349e-07
1.9367613e-07
1.9371826e-07
1.9373972e-07
1.9375316e-07
1.9376314e-07
1.9377152e-07
1.9377924e-07
1.9378692e-07
1.9379513e-07
1.938044e-07
1.9381543e-07
1.9382895e-07
1.9384672e-07
1.9386831e-07
1.9390843e-07
1.9391513e-07
1.9418897e-07
1.9348697e-07
1.9382109e-07
1.4190009e-09
2.3837245e-16
3.5221088e-17
1.7843642e-17
1.2033823e-17
9.1950783e-18
7.467193e-18
6.2992234e-18
5.4463745e-18
4.7949333e-18
4.2810864e-18
3.8646037e-18
3.5195821e-18
3.2288888e-18
2.9805783e-18
2.7659134e-18
2.5783931e-18
2.4131514e-18
2.2663064e-18
2.1349788e-18
2.0167841e-18
1.909827e-18
1.8125561e-18
1.7236932e-18
1.6421772e-18
1.5671168e-18
1.4977501e-18
1.4334426e-18
1.3736404e-18
1.3178681e-18
1.2657162e-18
1.2168479e-18
1.171014e-18
1.1279853e-18
1.0874678e-18
1.0492277e-18
1.0130793e-18
9.7885817e-19
9.464186e-19
9.1563195e-19
8.8638321e-19
8.5856293e-19
8.3205922e-19
8.0679295e-19
7.8267792e-19
7.596128e-19
7.374673e-19
7.1619258e-19
6.9621518e-19
6.7739213e-19
6.5951449e-19
6.4257121e-19
6.2654768e-19
6.1144874e-19
5.9728206e-19
5.8403605e-19
5.7159133e-19
5.593812e-19
5.4775348e-19
5.3954053e-19
5.3290894e-19
5.2803659e-19
5.2520318e-19
5.2473324e-19
5.2690927e-19
5.3127232e-19
5.3252099e-19
5.3931503e-19
5.6204004e-19
5.9284596e-19
6.333372e-19
6.8528535e-19
7.5026225e-19
8.2887574e-19
9.2082326e-19
1.0244269e-18
1.1337098e-18
1.2389373e-18
1.3319497e-18
1.4095714e-18
1.4716652e-18
1.52127e-18
1.5612251e-18
1.5940821e-18
1.6214113e-18
1.6438644e-18
1.6617777e-18
1.6755421e-18
1.6853559e-18
1.6910723e-18
1.6925285e-18
1.6899915e-18
1.6840496e-18
1.6754018e-18
1.6647353e-18
1.6525848e-18
1.6393978e-18
1.6255767e-18
1.6114018e-18
1.5970517e-18
1.5826729e-18
1.5684035e-18
1.554318e-18
1.5404481e-18
1.5268004e-18
1.5133889e-18
1.5002257e-18
1.4872871e-18
1.4743749e-18
1.4616782e-18
1.4477778e-18
1.4354106e-18
1.4174152e-18
1.9465709e-07
1.933544e-07
1.93408e-07
1.9357316e-07
1.9366606e-07
1.9370831e-07
1.9372984e-07
1.9374332e-07
1.9375333e-07
1.9376173e-07
1.9376946e-07
1.9377716e-07
1.9378539e-07
1.9379468e-07
1.9380572e-07
1.9381927e-07
1.9383706e-07
1.9385868e-07
1.9389884e-07
1.939055e-07
1.941797e-07
1.9347701e-07
1.9381244e-07
1.4472555e-09
2.5630636e-16
3.4391552e-17
1.742232e-17
1.1750287e-17
8.9814284e-18
7.2966383e-18
6.1575538e-18
5.3255574e-18
4.6899291e-18
4.1884875e-18
3.782019e-18
3.4451526e-18
3.1613705e-18
2.9191516e-18
2.7098724e-18
2.5271295e-18
2.3661277e-18
2.2230667e-18
2.0951457e-18
1.9800486e-18
1.875932e-18
1.7812857e-18
1.6948645e-18
1.6156347e-18
1.5427188e-18
1.4753221e-18
1.4128385e-18
1.3547019e-18
1.3004278e-18
1.2496071e-18
1.2019695e-18
1.1574876e-18
1.1160923e-18
1.0772938e-18
1.0407777e-18
1.0063683e-18
9.7391268e-19
9.4327683e-19
9.1434416e-19
8.8701445e-19
8.6117393e-19
8.3665567e-19
8.1340849e-19
7.9131392e-19
7.7015437e-19
7.4954632e-19
7.2946027e-19
7.1209087e-19
6.9692696e-19
6.8311853e-19
6.7073258e-19
6.5979913e-19
6.5041954e-19
6.4268065e-19
6.3652768e-19
6.3131852e-19
6.2416714e-19
6.1665637e-19
6.2262109e-19
6.3296288e-19
6.4833984e-19
6.6988172e-19
6.9900319e-19
7.3732318e-19
7.8553209e-19
8.3620559e-19
9.0406507e-19
1.0102939e-18
1.1449909e-18
1.3142825e-18
1.5248007e-18
1.7824518e-18
2.0899211e-18
2.4469449e-18
2.8471747e-18
3.2676685e-18
3.6720727e-18
4.0294804e-18
4.3270006e-18
4.5665937e-18
4.7598393e-18
4.9181807e-18
5.0507175e-18
5.1629995e-18
5.2570459e-18
5.3341142e-18
5.3957583e-18
5.4425151e-18
5.473778e-18
5.4887111e-18
5.488028e-18
5.4740784e-18
5.4496298e-18
5.4172776e-18
5.3791573e-18
5.3370184e-18
5.292292e-18
5.246017e-18
5.198935e-18
5.151606e-18
5.1044762e-18
5.0578228e-18
5.0118172e-18
4.9665353e-18
4.9220279e-18
4.878368e-18
4.8353687e-18
4.7929761e-18
4.7506222e-18
4.7069683e-18
4.6661972e-18
4.6067116e-18
1.9464841e-07
1.9333967e-07
1.9339357e-07
1.9355935e-07
1.936526e-07
1.9369501e-07
1.9371662e-07
1.9373015e-07
1.937402e-07
1.9374863e-07
1.9375638e-07
1.9376411e-07
1.9377236e-07
1.9378167e-07
1.9379274e-07
1.9380631e-07
1.9382414e-07
1.9384579e-07
1.9388601e-07
1.9389262e-07
1.9416729e-07
1.9346371e-07
1.9380089e-07
1.4777823e-09
3.1078996e-16
3.4170386e-17
1.7306901e-17
1.1674457e-17
8.9333152e-18
7.267216e-18
6.1399668e-18
5.315831e-18
4.6858303e-18
4.1886066e-18
3.7854241e-18
3.4508253e-18
3.1690835e-18
2.9292124e-18
2.7223482e-18
2.5419509e-18
2.3831134e-18
2.2420285e-18
2.115948e-18
2.0026105e-18
1.9002087e-18
1.807256e-18
1.7225252e-18
1.6449978e-18
1.5737778e-18
1.5079111e-18
1.4468381e-18
1.3899136e-18
1.3365904e-18
1.2864304e-18
1.239355e-18
1.1960376e-18
1.1569162e-18
1.1208469e-18
1.0872365e-18
1.0559286e-18
1.0267962e-18
9.9973283e-19
9.7465166e-19
9.514922e-19
9.3011836e-19
9.1016731e-19
8.9166832e-19
8.7437698e-19
8.5765588e-19
8.4022274e-19
8.2208931e-19
8.1151958e-19
8.0676208e-19
8.0474947e-19
8.0580268e-19
8.1025062e-19
8.1856927e-19
8.3128877e-19
8.4882307e-19
8.7077453e-19
8.9330296e-19
9.1872264e-19
9.6959632e-19
1.0336357e-18
1.1135315e-18
1.2132076e-18
1.3376792e-18
1.4930524e-18
1.6842862e-18
1.8998928e-18
2.1725578e-18
2.5540449e-18
3.0316156e-18
3.6263914e-18
4.3611614e-18
5.256325e-18
6.3217137e-18
7.5577697e-18
8.9439233e-18
1.0402901e-17
1.1811276e-17
1.3061192e-17
1.4103931e-17
1.4946006e-17
1.5626512e-17
1.6185593e-17
1.6654409e-17
1.7052198e-17
1.7386049e-17
1.7660767e-17
1.7882098e-17
1.8051878e-17
1.8168034e-17
1.8227515e-17
1.8232553e-17
1.8191378e-17
1.8113668e-17
1.8008398e-17
1.7883047e-17
1.7743714e-17
1.7595273e-17
1.7441302e-17
1.7284419e-17
1.7126566e-17
1.6969225e-17
1.6813349e-17
1.6659575e-17
1.6508207e-17
1.635942e-17
1.6213488e-17
1.6069683e-17
1.5928399e-17
1.5786603e-17
1.564301e-17
1.5506969e-17
1.5308331e-17
1.9463732e-07
1.9332083e-07
1.9337512e-07
1.9354169e-07
1.9363538e-07
1.93678e-07
1.9369972e-07
1.9371331e-07
1.937234e-07
1.9373187e-07
1.9373966e-07
1.9374742e-07
1.9375569e-07
1.9376504e-07
1.9377614e-07
1.9378974e-07
1.9380761e-07
1.938293e-07
1.9386961e-07
1.9387615e-07
1.9415142e-07
1.9344669e-07
1.9378635e-07
1.51106e-09
4.4160814e-16
3.5154748e-17
1.7796413e-17
1.2010168e-17
9.2170018e-18
7.5242515e-18
6.3767696e-18
5.5356919e-18
4.8917008e-18
4.3828233e-18
3.9698218e-18
3.6258097e-18
3.3364947e-18
3.0918356e-18
2.8819021e-18
2.6994765e-18
2.5391199e-18
2.3968297e-18
2.2698719e-18
2.1560282e-18
2.0535037e-18
1.9608071e-18
1.8767022e-18
1.8001633e-18
1.7301998e-18
1.6653507e-18
1.6051653e-18
1.5487412e-18
1.4953172e-18
1.4443423e-18
1.3962764e-18
1.3538264e-18
1.3189158e-18
1.2884845e-18
1.2611071e-18
1.2366722e-18
1.2151203e-18
1.1964178e-18
1.1805613e-18
1.1676037e-18
1.1573562e-18
1.1494502e-18
1.144122e-18
1.1412423e-18
1.1401047e-18
1.139019e-18
1.1380511e-18
1.1495065e-18
1.1715389e-18
1.2001989e-18
1.2365213e-18
1.2816635e-18
1.337139e-18
1.4047184e-18
1.4861741e-18
1.5820159e-18
1.6866607e-18
1.8045458e-18
1.978825e-18
2.1906544e-18
2.4484308e-18
2.7638519e-18
3.1519884e-18
3.6316286e-18
4.2206299e-18
4.9022611e-18
5.7547011e-18
6.9046106e-18
8.339656e-18
1.0122917e-17
1.2322457e-17
1.4999446e-17
1.8184216e-17
2.1880311e-17
2.6029736e-17
3.0406784e-17
3.4646699e-17
3.8423534e-17
4.1581541e-17
4.4135625e-17
4.6200339e-17
4.7896462e-17
4.9317485e-17
5.0521842e-17
5.153177e-17
5.236293e-17
5.303343e-17
5.3549055e-17
5.3903734e-17
5.4088243e-17
5.4109103e-17
5.3991092e-17
5.3763315e-17
5.3452692e-17
5.3081735e-17
5.2668771e-17
5.2228367e-17
5.1771234e-17
5.1305276e-17
5.083632e-17
5.0368757e-17
4.9905451e-17
4.9448341e-17
4.8998372e-17
4.8556069e-17
4.812227e-17
4.7694732e-17
4.7275078e-17
4.6853393e-17
4.6428406e-17
4.6024198e-17
4.5433878e-17
1.9462357e-07
1.9329739e-07
1.9335216e-07
1.9351972e-07
1.9361397e-07
1.9365685e-07
1.936787e-07
1.9369237e-07
1.9370253e-07
1.9371104e-07
1.9371887e-07
1.9372667e-07
1.9373498e-07
1.9374435e-07
1.9375549e-07
1.9376915e-07
1.9378706e-07
1.938088e-07
1.9384922e-07
1.9385567e-07
1.9413168e-07
1.9342552e-07
1.9376881e-07
1.5476985e-09
7.2246241e-16
3.8730441e-17
1.9585484e-17
1.3230536e-17
1.0216486e-17
8.40153e-18
7.1658633e-18
6.254967e-18
5.5549874e-18
5.0003657e-18
4.5493297e-18
4.1703506e-18
3.8525013e-18
3.5879224e-18
3.3635902e-18
3.1702788e-18
3.0010342e-18
2.8512391e-18
2.7181054e-18
2.5994508e-18
2.4934587e-18
2.3985859e-18
2.3135454e-18
2.2372762e-18
2.1687014e-18
2.1061693e-18
2.0489506e-18
1.9958366e-18
1.9459864e-18
1.8988487e-18
1.8552272e-18
1.8190959e-18
1.7934396e-18
1.7742305e-18
1.7596604e-18
1.7497513e-18
1.7445991e-18
1.7443414e-18
1.7491722e-18
1.7594176e-18
1.7747541e-18
1.7948306e-18
1.8203994e-18
1.8516634e-18
1.8878673e-18
1.9265751e-18
1.9681006e-18
2.0334006e-18
2.1205935e-18
2.2241015e-18
2.3467321e-18
2.4917162e-18
2.6631577e-18
2.8659499e-18
3.1053754e-18
3.3846684e-18
3.6956834e-18
4.0482564e-18
4.5297132e-18
5.1095023e-18
5.8103925e-18
6.6635247e-18
7.7091872e-18
8.9982508e-18
1.0582739e-17
1.2444129e-17
1.4765802e-17
1.7842677e-17
2.1679044e-17
2.6443343e-17
3.2317429e-17
3.9465247e-17
4.7969526e-17
5.7843681e-17
6.8940026e-17
8.0666659e-17
9.2057092e-17
1.0223278e-16
1.1075688e-16
1.1765755e-16
1.23236e-16
1.2781609e-16
1.3164888e-16
1.3489283e-16
1.3760995e-16
1.3984485e-16
1.4164784e-16
1.4303518e-16
1.4399095e-16
1.4449045e-16
1.4455106e-16
1.4423925e-16
1.4363311e-16
1.4280477e-16
1.4181464e-16
1.4071187e-16
1.3953545e-16
1.3831408e-16
1.3706899e-16
1.3581578e-16
1.3456619e-16
1.333279e-16
1.3210613e-16
1.3090343e-16
1.2972122e-16
1.2856175e-16
1.2741897e-16
1.2629758e-16
1.2517034e-16
1.2403594e-16
1.2295572e-16
1.2137802e-16
1.9460684e-07
1.9326879e-07
1.9332415e-07
1.9349293e-07
1.9358786e-07
1.9363105e-07
1.9365306e-07
1.9366684e-07
1.9367707e-07
1.9368564e-07
1.9369352e-07
1.9370136e-07
1.9370971e-07
1.9371914e-07
1.9373032e-07
1.9374403e-07
1.9376201e-07
1.937838e-07
1.9382434e-07
1.938307e-07
1.941076e-07
1.9339967e-07
1.9374829e-07
1.5884378e-09
1.2847179e-15
4.7907565e-17
2.4180985e-17
1.6363186e-17
1.2773285e-17
1.0640356e-17
9.178559e-18
8.0908898e-18
7.2506519e-18
6.5824392e-18
6.0374671e-18
5.57836e-18
5.1939504e-18
4.8763643e-18
4.6093973e-18
4.3817282e-18
4.1836581e-18
4.0091349e-18
3.855118e-18
3.7193868e-18
3.5999791e-18
3.4951539e-18
3.403444e-18
3.3236546e-18
3.2544822e-18
3.1938789e-18
3.1404218e-18
3.0922115e-18
3.048257e-18
3.0080373e-18
2.973061e-18
2.949835e-18
2.9434657e-18
2.9480334e-18
2.9610044e-18
2.9827024e-18
3.0135737e-18
3.0541441e-18
3.1050571e-18
3.1672653e-18
3.240132e-18
3.3234213e-18
3.4190881e-18
3.5281994e-18
3.6501278e-18
3.7812229e-18
3.9225794e-18
4.112499e-18
4.3494344e-18
4.6251367e-18
4.9465185e-18
5.3216446e-18
5.760643e-18
6.2757135e-18
6.8805172e-18
7.5854575e-18
8.379688e-18
9.2857259e-18
1.0480353e-17
1.1914363e-17
1.3644156e-17
1.5746123e-17
1.8319365e-17
2.149007e-17
2.5393172e-17
3.0026222e-17
3.5802003e-17
4.3372934e-17
5.2809966e-17
6.4527485e-17
7.897318e-17
9.6551605e-17
1.1746947e-16
1.4176691e-16
1.6909448e-16
1.9801704e-16
2.2617103e-16
2.5137917e-16
2.7252659e-16
2.8965849e-16
3.0350676e-16
3.1487042e-16
3.2437022e-16
3.3240089e-16
3.3912041e-16
3.4464393e-16
3.4909897e-16
3.5252728e-16
3.5489029e-16
3.5612723e-16
3.5628089e-16
3.555154e-16
3.5402348e-16
3.5198317e-16
3.4954353e-16
3.468259e-16
3.4392645e-16
3.4091599e-16
3.3784689e-16
3.3475773e-16
3.316774e-16
3.2862483e-16
3.2561295e-16
3.2264809e-16
3.1973372e-16
3.1687543e-16
3.1405822e-16
3.1129402e-16
3.0851505e-16
3.0571987e-16
3.0305706e-16
2.9916787e-16
1.945868e-07
1.9323437e-07
1.9329044e-07
1.9346069e-07
1.9355645e-07
1.9360002e-07
1.9362223e-07
1.9363613e-07
1.9364645e-07
1.9365509e-07
1.9366303e-07
1.9367093e-07
1.9367933e-07
1.9368881e-07
1.9370005e-07
1.9371382e-07
1.9373187e-07
1.9375374e-07
1.9379443e-07
1.9380066e-07
1.9407865e-07
1.9336854e-07
1.9372493e-07
1.6341686e-09
2.3669049e-15
6.9375834e-17
3.4940704e-17
2.3692675e-17
1.8730132e-17
1.5833081e-17
1.3830625e-17
1.2322933e-17
1.1150626e-17
1.0214178e-17
9.4478297e-18
8.800925e-18
8.2603768e-18
7.817192e-18
7.4482705e-18
7.1377428e-18
6.8698165e-18
6.6351618e-18
6.4300696e-18
6.2521386e-18
6.0990116e-18
5.9684528e-18
5.8585509e-18
5.7677784e-18
5.6943301e-18
5.6354185e-18
5.5880273e-18
5.5487994e-18
5.5165032e-18
5.4907604e-18
5.474481e-18
5.4790172e-18
5.513541e-18
5.5686351e-18
5.6404843e-18
5.7300748e-18
5.8386165e-18
5.9674832e-18
6.1183034e-18
6.2934042e-18
6.4914642e-18
6.7126408e-18
6.9615578e-18
7.2413612e-18
7.5521414e-18
7.8884923e-18
8.2535935e-18
8.7191344e-18
9.2850761e-18
9.9392673e-18
1.0697673e-17
1.1579071e-17
1.2606915e-17
1.3809644e-17
1.521983e-17
1.6865195e-17
1.8734644e-17
2.0878932e-17
2.3649345e-17
2.6970528e-17
3.0973629e-17
3.5835175e-17
4.1784632e-17
4.9115984e-17
5.8153579e-17
6.8965902e-17
8.2446363e-17
9.9978894e-17
1.218309e-16
1.4896235e-16
1.8241094e-16
2.2311618e-16
2.7156272e-16
3.278564e-16
3.9121354e-16
4.5834885e-16
5.2381299e-16
5.8253262e-16
6.3185061e-16
6.718257e-16
7.0413633e-16
7.3063734e-16
7.5277271e-16
7.7146626e-16
7.8709418e-16
7.9993334e-16
8.1028615e-16
8.1825261e-16
8.2374452e-16
8.2662115e-16
8.269819e-16
8.2520799e-16
8.2174704e-16
8.1701246e-16
8.1135049e-16
8.0504289e-16
7.9831297e-16
7.9132516e-16
7.8420113e-16
7.7703042e-16
7.6988012e-16
7.6279421e-16
7.558027e-16
7.4892034e-16
7.4215517e-16
7.3552018e-16
7.2898052e-16
7.2256416e-16
7.1611318e-16
7.0962587e-16
7.0344477e-16
6.9441683e-16
1.9456305e-07
1.9319338e-07
1.932503e-07
1.9342233e-07
1.9351907e-07
1.935631e-07
1.9358555e-07
1.9359959e-07
1.9361001e-07
1.9361874e-07
1.9362675e-07
1.9363471e-07
1.9364318e-07
1.9365272e-07
1.9366404e-07
1.9367788e-07
1.9369602e-07
1.9371797e-07
1.9375884e-07
1.9376492e-07
1.940442e-07
1.9333143e-07
1.93699e-07
1.6859664e-09
4.3994425e-15
1.1586156e-16
5.8247401e-17
3.9565374e-17
3.161135e-17
2.7044778e-17
2.3863347e-17
2.1441859e-17
1.9548152e-17
1.8029638e-17
1.6783336e-17
1.5730704e-17
1.4852719e-17
1.4136547e-17
1.354499e-17
1.3052895e-17
1.2631624e-17
1.2264822e-17
1.1947274e-17
1.1676116e-17
1.1448094e-17
1.1259875e-17
1.1108572e-17
1.0991923e-17
1.0907085e-17
1.0849969e-17
1.0814076e-17
1.079308e-17
1.0785417e-17
1.0791161e-17
1.0815944e-17
1.0880126e-17
1.1000457e-17
1.1161289e-17
1.1356655e-17
1.1588952e-17
1.1861005e-17
1.2175987e-17
1.2537614e-17
1.2951131e-17
1.3413775e-17
1.3926787e-17
1.4500504e-17
1.5142801e-17
1.5856056e-17
1.6632736e-17
1.7481085e-17
1.8535355e-17
1.9800084e-17
2.1258289e-17
2.2945198e-17
2.4902484e-17
2.718203e-17
2.9847054e-17
3.2971122e-17
3.662143e-17
4.0796237e-17
4.5606837e-17
5.1736418e-17
5.9079993e-17
6.792878e-17
7.8673007e-17
9.1820713e-17
1.0802594e-16
1.2802746e-16
1.521062e-16
1.8213459e-16
2.2095482e-16
2.6933807e-16
3.2941085e-16
4.0347308e-16
4.9361028e-16
6.0090653e-16
7.2561924e-16
8.6605933e-16
1.0150206e-15
1.1604787e-15
1.2911414e-15
1.4009878e-15
1.4900635e-15
1.5620556e-15
1.6210796e-15
1.6703454e-15
1.7119167e-15
1.7466454e-15
1.7751634e-15
1.7981531e-15
1.8158422e-15
1.8280373e-15
1.834427e-15
1.835232e-15
1.8312985e-15
1.8236202e-15
1.8131148e-15
1.8005507e-15
1.7865535e-15
1.7716188e-15
1.7561114e-15
1.7403017e-15
1.7243883e-15
1.7085201e-15
1.6927947e-15
1.6772787e-15
1.6620049e-15
1.6469913e-15
1.6322665e-15
1.6177533e-15
1.6035139e-15
1.5891974e-15
1.5748014e-15
1.5610841e-15
1.5410488e-15
1.9453517e-07
1.9314497e-07
1.932029e-07
1.9337704e-07
1.9347495e-07
1.9351953e-07
1.9354226e-07
1.9355648e-07
1.9356703e-07
1.9357585e-07
1.9358395e-07
1.9359199e-07
1.9360053e-07
1.9361015e-07
1.9362154e-07
1.9363547e-07
1.9365371e-07
1.9367577e-07
1.9371685e-07
1.9372274e-07
1.9400355e-07
1.9328753e-07
1.9367094e-07
1.7451378e-09
8.1560109e-15
2.1253401e-16
1.0672611e-16
7.2578514e-17
5.8388346e-17
5.033876e-17
4.4699964e-17
4.037576e-17
3.698104e-17
3.4252166e-17
3.200834e-17
3.0114677e-17
2.8537143e-17
2.7252764e-17
2.61964e-17
2.5324558e-17
2.4582325e-17
2.3938815e-17
2.3385631e-17
2.2918893e-17
2.2533443e-17
2.2223654e-17
2.198459e-17
2.1812462e-17
2.1702355e-17
2.1647972e-17
2.1635452e-17
2.1652565e-17
2.1697376e-17
2.1771172e-17
2.1884782e-17
2.2074995e-17
2.2372418e-17
2.2750603e-17
2.320012e-17
2.37263e-17
2.433531e-17
2.5034036e-17
2.5830521e-17
2.6736051e-17
2.7744893e-17
2.8860976e-17
3.0106529e-17
3.149976e-17
3.3049098e-17
3.4745367e-17
3.6608384e-17
3.8887492e-17
4.1599103e-17
4.4722178e-17
4.8331878e-17
5.2517509e-17
5.7390011e-17
6.3085081e-17
6.9762557e-17
7.7575949e-17
8.6559866e-17
9.6951837e-17
1.1005545e-16
1.2574891e-16
1.44657e-16
1.6761399e-16
1.957074e-16
2.3034276e-16
2.7313749e-16
3.2491847e-16
3.895124e-16
4.7261565e-16
5.7619084e-16
7.0479241e-16
8.6334833e-16
1.056333e-15
1.286087e-15
1.5532023e-15
1.8541449e-15
2.1736094e-15
2.4859261e-15
2.766815e-15
3.0031403e-15
3.194848e-15
3.3497794e-15
3.4767603e-15
3.5826855e-15
3.6720054e-15
3.7465785e-15
3.8077906e-15
3.8571261e-15
3.8950834e-15
3.9212524e-15
3.934966e-15
3.9366982e-15
3.9282648e-15
3.9117973e-15
3.8892644e-15
3.8623149e-15
3.8322908e-15
3.8002552e-15
3.7669911e-15
3.7330781e-15
3.6989426e-15
3.6649038e-15
3.6311714e-15
3.5978881e-15
3.5651244e-15
3.5329185e-15
3.5013325e-15
3.4702e-15
3.4396553e-15
3.4089448e-15
3.3780652e-15
3.3486401e-15
3.3056625e-15
1.9450269e-07
1.9308818e-07
1.9314729e-07
1.9332393e-07
1.9342324e-07
1.9346847e-07
1.9349153e-07
1.9350596e-07
1.9351665e-07
1.935256e-07
1.935338e-07
1.9354193e-07
1.9355056e-07
1.9356026e-07
1.9357175e-07
1.9358578e-07
1.9360415e-07
1.9362631e-07
1.9366764e-07
1.9367331e-07
1.9395592e-07
1.9323595e-07
1.9364147e-07
1.8132823e-09
1.5023677e-14
4.0867628e-16
2.0510092e-16
1.3956885e-16
1.1271472e-16
9.7591167e-17
8.6963975e-17
7.8779259e-17
7.234036e-17
6.7157742e-17
6.2892314e-17
5.9297845e-17
5.6305569e-17
5.3868485e-17
5.1867084e-17
5.0222288e-17
4.8826514e-17
4.7619491e-17
4.658633e-17
4.5721037e-17
4.5014567e-17
4.4456619e-17
4.4038101e-17
4.3752122e-17
4.3589713e-17
4.3540957e-17
4.3576794e-17
4.3673431e-17
4.3828737e-17
4.4046939e-17
4.4348684e-17
4.4800312e-17
4.5457461e-17
4.6275349e-17
4.7239224e-17
4.8360398e-17
4.9651814e-17
5.1127901e-17
5.2805482e-17
5.4708114e-17
5.682408e-17
5.9163505e-17
6.1772897e-17
6.4692358e-17
6.794486e-17
7.152259e-17
7.5470726e-17
8.024766e-17
8.5898042e-17
9.2402741e-17
9.9918103e-17
1.0863054e-16
1.1877126e-16
1.3062395e-16
1.4452601e-16
1.6081406e-16
1.796255e-16
2.014557e-16
2.2875409e-16
2.6144084e-16
3.0082171e-16
3.486354e-16
4.0715078e-16
4.7930969e-16
5.6854891e-16
6.7698558e-16
8.1229042e-16
9.8567345e-16
1.2017707e-15
1.4700884e-15
1.8009167e-15
2.2036089e-15
2.6830835e-15
3.2406473e-15
3.8690722e-15
4.5366375e-15
5.1899106e-15
5.7780444e-15
6.2731969e-15
6.6749867e-15
6.9996826e-15
7.2657269e-15
7.487546e-15
7.6744838e-15
7.8304784e-15
7.9584807e-15
8.0616286e-15
8.1409817e-15
8.1956905e-15
8.2243637e-15
8.2279924e-15
8.2103721e-15
8.1759583e-15
8.1288661e-15
8.0725421e-15
8.0097908e-15
7.942835e-15
7.8733111e-15
7.8024306e-15
7.7310846e-15
7.6599409e-15
7.5894371e-15
7.5198721e-15
7.451393e-15
7.3840797e-15
7.3180619e-15
7.2529921e-15
7.189151e-15
7.1249631e-15
7.060423e-15
6.998922e-15
6.9090948e-15
1.944651e-07
1.9302193e-07
1.9308242e-07
1.9326203e-07
1.9336298e-07
1.9340897e-07
1.9343242e-07
1.9344709e-07
1.9345796e-07
1.9346705e-07
1.9347537e-07
1.934836e-07
1.9349234e-07
1.9350215e-07
1.9351374e-07
1.9352789e-07
1.935464e-07
1.935687e-07
1.9361031e-07
1.9361572e-07
1.9390043e-07
1.9317561e-07
1.9361163e-07
1.8923733e-09
2.7484347e-14
8.0008895e-16
4.0144046e-16
2.7327144e-16
2.211385e-16
1.9189603e-16
1.713156e-16
1.5543026e-16
1.4292083e-16
1.3284647e-16
1.2455179e-16
1.1757351e-16
1.1176656e-16
1.0703025e-16
1.0314051e-16
9.9950037e-17
9.7247115e-17
9.4912962e-17
9.2919707e-17
9.1257106e-17
8.9908333e-17
8.8853748e-17
8.8075968e-17
8.7561925e-17
8.7294826e-17
8.7258979e-17
8.7394504e-17
8.7655201e-17
8.8039517e-17
8.8558374e-17
8.9250811e-17
9.023584e-17
9.1613909e-17
9.3309693e-17
9.5300674e-17
9.7610184e-17
1.0026472e-16
1.0329379e-16
1.067318e-16
1.1062687e-16
1.1495537e-16
1.197411e-16
1.2507935e-16
1.3105561e-16
1.3772574e-16
1.4509269e-16
1.5325551e-16
1.6304898e-16
1.7458135e-16
1.8785449e-16
2.0318736e-16
2.2096134e-16
2.4164886e-16
2.6583111e-16
2.9420485e-16
3.2748639e-16
3.6606813e-16
4.1096379e-16
4.6672196e-16
5.3347614e-16
6.1390089e-16
7.1154927e-16
8.3106192e-16
9.7847235e-16
1.1609177e-15
1.3834063e-15
1.6610883e-15
2.0157266e-15
2.4577388e-15
3.0065772e-15
3.6833047e-15
4.507085e-15
5.4880413e-15
6.6289712e-15
7.9153437e-15
9.2826478e-15
1.0621805e-14
1.1828476e-14
1.284495e-14
1.3669974e-14
1.4336667e-14
1.4882802e-14
1.5337959e-14
1.5721354e-14
1.6041149e-14
1.6303482e-14
1.6514845e-14
1.6677439e-14
1.6789537e-14
1.6848294e-14
1.6855741e-14
1.6819655e-14
1.6749164e-14
1.6652697e-14
1.6537317e-14
1.6408768e-14
1.6271606e-14
1.6129181e-14
1.5983977e-14
1.5837819e-14
1.5692075e-14
1.5547641e-14
1.5405131e-14
1.5264845e-14
1.5126947e-14
1.4991703e-14
1.4858402e-14
1.4727617e-14
1.4596122e-14
1.4463906e-14
1.4337916e-14
1.4153896e-14
1.9442186e-07
1.9294502e-07
1.9300711e-07
1.931902e-07
1.9329309e-07
1.9333997e-07
1.9336389e-07
1.9337884e-07
1.9338992e-07
1.9339917e-07
1.9340763e-07
1.9341599e-07
1.9342484e-07
1.9343477e-07
1.934465e-07
1.9346078e-07
1.9347945e-07
1.9350191e-07
1.9354385e-07
1.9354895e-07
1.938361e-07
1.9310531e-07
1.9358288e-07
1.9848647e-09
4.9971525e-14
1.5719742e-15
7.8868945e-16
5.3698462e-16
4.349979e-16
3.7791608e-16
3.3771431e-16
3.0665098e-16
2.8217901e-16
2.6246714e-16
2.4623568e-16
2.3260217e-16
2.2125947e-16
2.1199138e-16
2.0437424e-16
1.9813097e-16
1.9284604e-16
1.8828547e-16
1.8439579e-16
1.8115834e-16
1.7854093e-16
1.7650551e-16
1.7501836e-16
1.7405426e-16
1.7358143e-16
1.7357526e-16
1.7391422e-16
1.7450902e-16
1.753609e-16
1.7649541e-16
1.7798586e-16
1.8004453e-16
1.8285164e-16
1.8628182e-16
1.9030209e-16
1.9495963e-16
2.0030775e-16
2.064058e-16
2.1332297e-16
2.2115598e-16
2.2985776e-16
2.3948134e-16
2.5021887e-16
2.6224826e-16
2.7569697e-16
2.9060271e-16
3.0717645e-16
3.2692667e-16
3.5009951e-16
3.7676753e-16
4.0757162e-16
4.4328007e-16
4.8484353e-16
5.334341e-16
5.9046641e-16
6.5743054e-16
7.35307e-16
8.2613909e-16
9.3830042e-16
1.0725658e-15
1.2343284e-15
1.430739e-15
1.6711439e-15
1.9677234e-15
2.3350374e-15
2.7843399e-15
3.3452183e-15
4.0595e-15
4.9497756e-15
6.0552386e-15
7.4183406e-15
9.0777372e-15
1.1053928e-14
1.3352765e-14
1.5945419e-14
1.8702604e-14
2.1404985e-14
2.3841827e-14
2.5895561e-14
2.7562845e-14
2.8910113e-14
3.0013526e-14
3.0932796e-14
3.1706805e-14
3.2352176e-14
3.2881455e-14
3.3307838e-14
3.3635822e-14
3.3861948e-14
3.3980483e-14
3.3995529e-14
3.3922768e-14
3.3780612e-14
3.3586064e-14
3.3353367e-14
3.309411e-14
3.2817477e-14
3.2530231e-14
3.2237377e-14
3.1942598e-14
3.1648654e-14
3.1357353e-14
3.106993e-14
3.0786993e-14
3.0508873e-14
3.0236105e-14
2.9967253e-14
2.9703479e-14
2.9438271e-14
2.9171613e-14
2.8917507e-14
2.8546365e-14
1.9437241e-07
1.9285608e-07
1.9292004e-07
1.9310723e-07
1.9321237e-07
1.9326031e-07
1.9328477e-07
1.9330006e-07
1.9331138e-07
1.9332081e-07
1.9332943e-07
1.9333794e-07
1.9334694e-07
1.9335701e-07
1.9336888e-07
1.9338333e-07
1.9340218e-07
1.9342481e-07
1.9346712e-07
1.9347186e-07
1.9376185e-07
1.930237e-07
1.9355716e-07
2.0938314e-09
9.0391746e-14
3.0808357e-15
1.5458046e-15
1.0525888e-15
8.5315072e-16
7.4166152e-16
6.6311917e-16
6.0240125e-16
5.5456083e-16
5.1602577e-16
4.8429524e-16
4.5768232e-16
4.355438e-16
4.1742136e-16
4.0251246e-16
3.9029431e-16
3.7995549e-16
3.7103715e-16
3.6343573e-16
3.5711617e-16
3.5201625e-16
3.4806189e-16
3.4518749e-16
3.4334412e-16
3.4247153e-16
3.4253178e-16
3.4328132e-16
3.445485e-16
3.4634278e-16
3.4872077e-16