/*--------------------------------*- C++ -*----------------------------------*\
| =========                 |                                                 |
| \\      /  F ield         | OpenFOAM: The Open Source CFD Toolbox           |
|  \\    /   O peration     | Version:  2206                                  |
|   \\  /    A nd           | Website:  www.openfoam.com                      |
|    \\/     M anipulation  |                                                 |
\*---------------------------------------------------------------------------*/
FoamFile
{
    version     2.0;
    format      ascii;
    arch        "LSB;label=32;scalar=64";
    class       volScalarField;
    location    "1000";
    object      omega;
}
// * * * * * * * * * * * * * * * * * * * * * * * * * * * * * * * * * * * * * //

dimensions      [0 0 -1 0 0 0 0];

internalField   nonuniform List<scalar> 
13056
(
523.97391
457.77766
452.54226
452.31407
452.3977
452.38733
452.36107
452.34309
452.33375
452.3311
452.33407
452.34232
452.35598
452.37565
452.4023
452.43799
452.48459
452.55046
452.62967
452.79837
452.83191
453.5105
462.15254
19534.867
1.1944345e+09
1.1944345e+09
1.1944345e+09
1.1944345e+09
1.1944345e+09
1.1944345e+09
1.1944345e+09
1.1944345e+09
1.1944345e+09
1.1944345e+09
1.1944345e+09
1.1944345e+09
1.1944345e+09
1.1944345e+09
1.1944345e+09
1.1944345e+09
1.1944345e+09
1.1944345e+09
1.1944345e+09
1.1944345e+09
1.1944345e+09
1.1944345e+09
1.1944345e+09
1.1944345e+09
1.1944345e+09
1.1944345e+09
1.1944345e+09
1.1944345e+09
1.1944345e+09
1.1944345e+09
1.1944345e+09
1.1944345e+09
1.1944345e+09
1.1944345e+09
1.1944345e+09
1.1944345e+09
1.1944345e+09
1.1944345e+09
1.1944345e+09
1.1944345e+09
1.1944345e+09
1.1944345e+09
1.1944345e+09
1.1944345e+09
1.1944345e+09
1.1944345e+09
1.1944345e+09
1.1944345e+09
1.1944345e+09
1.1944345e+09
1.1944345e+09
1.1944345e+09
1.1944345e+09
1.1944345e+09
1.1944345e+09
1.1944345e+09
1.1944345e+09
1.1944345e+09
1.1944345e+09
1.1944345e+09
1.1944345e+09
1.1944345e+09
1.1944345e+09
1.1944345e+09
1.1944345e+09
1.1944345e+09
1.1944345e+09
1.1944345e+09
1.1944345e+09
1.1944345e+09
1.1944345e+09
1.1944345e+09
1.1944345e+09
1.1944345e+09
1.1944345e+09
1.1944345e+09
1.1944345e+09
1.1944345e+09
1.1944345e+09
1.1944345e+09
1.1944345e+09
1.1944345e+09
1.1944345e+09
1.1944345e+09
1.1944345e+09
1.1944345e+09
1.1944345e+09
1.1944345e+09
1.1944345e+09
1.1944345e+09
1.1944345e+09
1.1944345e+09
1.1944345e+09
1.1944345e+09
1.1944345e+09
1.1944345e+09
1.1944345e+09
1.1944345e+09
1.1944345e+09
1.1944345e+09
1.1944345e+09
1.1944345e+09
1.1944345e+09
1.1944345e+09
1.1944345e+09
1.1944345e+09
1.1944345e+09
1.1944345e+09
1.1944345e+09
1.1944345e+09
1.1944345e+09
1.1944345e+09
523.94492
457.73104
452.49476
452.26623
452.3498
452.3394
452.31314
452.29515
452.2858
452.28314
452.28611
452.29436
452.30803
452.3277
452.35435
452.39004
452.43664
452.50251
452.58174
452.75045
452.784
453.46245
462.10324
19244.703
1.9586951e+08
1.9626969e+08
1.9626968e+08
1.9626968e+08
1.9626969e+08
1.962697e+08
1.9626971e+08
1.9626972e+08
1.9626973e+08
1.9626974e+08
1.9626975e+08
1.9626976e+08
1.9626977e+08
1.9626978e+08
1.9626979e+08
1.962698e+08
1.9626981e+08
1.9626982e+08
1.9626983e+08
1.9626984e+08
1.9626986e+08
1.9626987e+08
1.9626988e+08
1.962699e+08
1.9626992e+08
1.9626994e+08
1.9626996e+08
1.9626998e+08
1.9627001e+08
1.9627004e+08
1.9627008e+08
1.9627011e+08
1.9627014e+08
1.9627017e+08
1.9627021e+08
1.9627025e+08
1.9627029e+08
1.9627034e+08
1.9627039e+08
1.9627045e+08
1.9627051e+08
1.9627058e+08
1.9627067e+08
1.9627077e+08
1.962709e+08
1.9627106e+08
1.9627127e+08
1.9627144e+08
1.962716e+08
1.9627179e+08
1.9627201e+08
1.9627227e+08
1.9627259e+08
1.9627297e+08
1.9627345e+08
1.9627411e+08
1.9627517e+08
1.9627655e+08
1.9627742e+08
1.9627845e+08
1.9627972e+08
1.962813e+08
1.9628332e+08
1.9628603e+08
1.9629017e+08
1.9629908e+08
1.963085e+08
1.9631383e+08
1.9632043e+08
1.9632858e+08
1.963386e+08
1.9635087e+08
1.9636598e+08
1.9638502e+08
1.964098e+08
1.9644196e+08
1.964806e+08
1.9652032e+08
1.9655438e+08
1.9658088e+08
1.9660024e+08
1.9661408e+08
1.9662357e+08
1.9662983e+08
1.9663393e+08
1.9663677e+08
1.9663894e+08
1.9664071e+08
1.9664217e+08
1.9664334e+08
1.966442e+08
1.9664482e+08
1.9664525e+08
1.9664553e+08
1.9664569e+08
1.9664579e+08
1.9664582e+08
1.9664581e+08
1.9664576e+08
1.966457e+08
1.9664561e+08
1.9664551e+08
1.966454e+08
1.9664528e+08
1.9664517e+08
1.9664506e+08
1.9664494e+08
1.9664488e+08
1.9664474e+08
1.9664494e+08
1.9664487e+08
1.9664473e+08
523.8526
457.5846
452.34567
452.11613
452.19951
452.18906
452.16276
452.14474
452.13538
452.13271
452.13567
452.14392
452.15758
452.17725
452.20391
452.2396
452.28622
452.35211
452.43134
452.60009
452.63367
453.31158
461.95208
18907.517
64130191
64221428
64221413
64221415
64221433
64221460
64221487
64221514
64221542
64221571
64221601
64221643
64221684
64221707
64221722
64221734
64221747
64221760
64221775
64221790
64221808
64221827
64221848
64221872
64221901
64221953
64222021
64222113
64222240
64222409
64222609
64222767
64222828
64222858
64222891
64222927
64222969
64223017
64223071
64223135
64223208
64223337
64223526
64223819
64224321
64225237
64226599
64227210
64227341
64227494
64227678
64227957
64228368
64229007
64230157
64232626
64239243
64248905
64249844
64250824
64252177
64254172
64257452
64263918
64281209
64348053
64412844
64418139
64425683
64436785
64453752
64480794
64525559
64602608
64736767
64955638
65260040
65597698
65895891
66128048
66293916
66406662
66476823
66515671
66534263
66542174
66545331
66546599
66547189
66547525
66547740
66547885
66547982
66548045
66548083
66548104
66548111
66548108
66548098
66548083
66548064
66548041
66548015
66547990
66547964
66547939
66547911
66547898
66547865
66547912
66547895
66547863
523.69408
457.33362
452.09021
451.85894
451.942
451.93145
451.90508
451.88703
451.87763
451.87494
451.87789
451.88613
451.89979
451.91946
451.94613
451.98184
452.02847
452.09439
452.17365
452.34247
452.37609
453.05304
461.69411
18551.019
29330907
29342915
29342887
29342897
29342972
29343080
29343194
29343311
29343434
29343563
29343695
29343896
29344083
29344181
29344232
29344270
29344308
29344349
29344394
29344443
29344498
29344561
29344633
29344715
29344823
29345045
29345350
29345776
29346376
29347197
29348167
29348921
29349158
29349230
29349307
29349397
29349501
29349624
29349769
29349944
29350156
29350636
29351402
29352683
29355015
29359456
29366165
29368943
29369177
29369455
29369803
29370541
29371831
29374133
29378872
29390165
29422517
29470215
29472584
29474592
29477770
29483264
29494021
29519288
29597441
29925748
30239010
30240798
30243344
30247091
30252781
30261943
30277046
30303031
30348250
30421946
30524286
30637596
30737481
30815127
30870540
30908176
30931585
30944542
30950742
30953380
30954433
30954856
30955052
30955164
30955236
30955284
30955317
30955338
30955350
30955357
30955360
30955359
30955355
30955350
30955344
30955336
30955328
30955319
30955311
30955302
30955293
30955289
30955278
30955293
30955288
30955277
523.46483
456.97075
451.72086
451.48709
451.56969
451.55899
451.53253
451.51441
451.50497
451.50226
451.50519
451.51342
451.52707
451.54675
451.57342
451.60915
451.65581
451.72176
451.80105
451.96998
452.00366
452.67921
461.32151
18179.193
16107472
16058692
16058632
16058666
16058913
16059269
16059649
16060039
16060451
16060883
16061326
16062005
16062637
16062963
16063126
16063242
16063359
16063485
16063622
16063775
16063948
16064144
16064370
16064632
16064981
16065719
16066743
16068180
16070218
16073012
16076317
16078876
16079649
16079850
16080068
16080322
16080620
16080974
16081400
16081919
16082557
16084106
16086626
16090905
16098785
16113902
16136802
16146144
16146699
16147360
16148212
16150340
16154281
16161488
16176517
16213731
16322962
16484448
16488527
16489388
16490750
16493104
16497713
16508538
16542001
16682260
16815591
16816351
16817433
16819025
16821443
16825336
16831752
16842789
16861988
16893257
16936638
16984614
17026856
17059663
17083059
17098941
17108816
17114282
17116896
17118009
17118453
17118631
17118714
17118761
17118792
17118812
17118826
17118834
17118840
17118843
17118844
17118843
17118842
17118840
17118837
17118834
17118830
17118827
17118823
17118819
17118816
17118814
17118809
17118816
17118813
17118809
523.15876
456.48597
451.22741
450.99031
451.07228
451.06138
451.0348
451.0166
451.00711
451.00435
451.00725
451.01547
451.02912
451.0488
451.07549
451.11124
451.15793
451.22394
451.30327
451.47233
451.50609
452.17978
460.82367
17790.995
9936997.2
9791021.9
9790893
9790983.1
9791628.6
9792563.1
9793565.6
9794599.4
9795694.2
9796845.1
9798028.3
9799855.8
9801552.7
9802413.4
9802822.3
9803105.3
9803385.9
9803688.7
9804022.8
9804397.3
9804822.2
9805309.2
9805872.9
9806532.1
9807421.8
9809372.1
9812095.6
9815946.8
9821432
9828980
9837919.6
9844809.5
9846808
9847226.6
9847676.4
9848206.9
9848838.9
9849600.7
9850530.5
9851683.1
9853122.2
9857008.3
9863494.8
9874718.8
9895702.3
9936362
9998195.5
10022802
10023146
10023474
10023897
10024952
10026906
10030479
10037928
10056366
10110415
10190098
10192105
10192529
10193200
10194360
10196632
10201965
10218449
10287433
10352825
10353197
10353727
10354508
10355692
10357600
10360743
10366150
10375552
10390859
10412080
10435530
10456162
10472175
10483589
10491335
10496150
10498815
10500089
10500632
10500848
10500935
10500976
10500999
10501013
10501023
10501030
10501034
10501037
10501038
10501039
10501039
10501038
10501037
10501036
10501034
10501032
10501030
10501029
10501027
10501025
10501024
10501022
10501025
10501024
10501022
522.76822
455.86672
450.59705
450.35568
450.43683
450.42568
450.39895
450.38064
450.37107
450.36827
450.37114
450.37933
450.39298
450.41266
450.43937
450.47515
450.52188
450.58796
450.66734
450.83657
450.87044
451.54173
460.18715
17383.941
6582088.9
6406686.5
6406427.4
6406628.5
6408059.9
6410149.9
6412409.4
6414753
6417244.6
6419870.8
6422574.2
6426803.3
6430718.2
6432647.3
6433499.3
6434043.5
6434574.3
6435151.2
6435793.5
6436520.5
6437353.6
6438318
6439445.9
6440778.9
6442632
6446963.5
6453094.5
6461861.4
6474456.6
6491889.1
6512567.5
6528342.8
6532468.7
6532757.9
6533003
6533292.2
6533636.7
6534052
6534558.8
6535187
6535971.4
6538090.2
6541625.6
6547741.8
6559171.6
6581300.6
6614898.6
6628239.5
6628426
6628603.9
6628833.2
6629405.7
6630466
6632404.9
6636446.7
6646447.4
6675736.8
6718820
6719901.5
6720130.6
6720493.2
6721120.1
6722347.3
6725228.9
6734132
6771352.1
6806552.5
6806752.8
6807038.1
6807457.9
6808095.4
6809121.6
6810812.8
6813721.2
6818778
6827007.7
6838412.3
6851006.8
6862081.8
6870673.1
6876795
6880948.4
6883530
6884958.3
6885641.6
6885932.3
6886048.3
6886094.9
6886116.6
6886128.9
6886136.8
6886142.2
6886145.7
6886148
6886149.4
6886150.2
6886150.5
6886150.4
6886150
6886149.4
6886148.7
6886147.9
6886147
6886146
6886145.1
6886144.1
6886143.1
6886142.7
6886141.4
6886143.2
6886142.5
6886141.4
522.28411
455.09789
449.81433
449.56765
449.64778
449.63632
449.6094
449.59096
449.5813
449.57843
449.58125
449.58943
449.60306
449.62276
449.64948
449.6853
449.73208
449.79824
449.87769
450.04713
450.08114
450.74948
459.39569
16955.174
4550306.7
4411411.6
4410947.9
4411326.9
4414032.8
4418037.4
4422419.3
4427003.4
4431905.1
4437087.1
4442421
4451009.4
4458881.2
4462436.3
4463612.5
4464042.6
4464363.5
4464699.8
4465073.4
4465496.1
4465980.5
4466541.2
4467197
4467972
4469050.8
4471569.4
4475133.6
4480228.8
4487546
4497666.7
4509659.9
4518796.5
4521181.5
4521348.7
4521490.8
4521658.3
4521857.9
4522098.5
4522392.2
4522756.2
4523210.6
4524438.8
4526487.2
4530030.4
4536650.1
4549458
4568877.4
4576571.8
4576679.3
4576782.1
4576914.4
4577245.2
4577857.4
4578977.1
4581310.8
4587084.3
4603981.3
4628787.7
4629408.2
4629540.1
4629748.8
4630109.6
4630816
4632474.4
4637597.9
4658999.2
4679198.6
4679313.5
4679477.2
4679718.1
4680083.8
4680672.6
4681642.8
4683311.3
4686211.7
4690930.9
4697468.1
4704684.2
4711027
4715945.5
4719449.4
4721826.2
4723303.3
4724120.5
4724511.5
4724677.8
4724744.1
4724770.8
4724783.2
4724790.3
4724794.8
4724797.8
4724799.9
4724801.2
4724802
4724802.4
4724802.6
4724802.5
4724802.3
4724802
4724801.6
4724801.1
4724800.6
4724800
4724799.5
4724799
4724798.4
4724798.1
4724797.4
4724798.4
4724798
4724797.4
521.69587
454.16184
448.86127
448.6081
448.68698
448.67513
448.64797
448.62936
448.61959
448.61664
448.61942
448.62756
448.64119
448.66089
448.68764
448.72351
448.77035
448.83661
448.91613
449.08583
449.12
449.7848
458.43016
16501.873
3242297
3157759.2
3157453
3157681.4
3159327
3161763.1
3164428.3
3167216
3170196
3173345.4
3176586.1
3181795.6
3186574.4
3188732
3189445.8
3189706.7
3189901.5
3190105.6
3190332.2
3190588.8
3190882.7
3191223
3191621
3192091.2
3192746.8
3194275.3
3196438.1
3199529.3
3203967
3210101.7
3217364.9
3222890.6
3224330
3224431
3224517
3224618.4
3224739.2
3224884.8
3225062.5
3225282.8
3225557.8
3226301.4
3227541.1
3229685.3
3233690.3
3241435.3
3253164.3
3257801.7
3257866.5
3257928.5
3258008.4
3258208.1
3258577.6
3259253.4
3260662.1
3264146.3
3274338.1
3289274.2
3289646.6
3289726
3289851.6
3290068.8
3290494.1
3291492.5
3294576.8
3307451.8
3319581.6
3319650.6
3319748.9
3319893.6
3320113.2
3320466.8
3321049.4
3322051.3
3323792.7
3326625.5
3330548.4
3334877.1
3338680.7
3341629.3
3343729.5
3345153.9
3346039
3346528.7
3346762.9
3346862.6
3346902.3
3346918.3
3346925.7
3346930
3346932.7
3346934.5
3346935.7
3346936.5
3346937
3346937.3
3346937.4
3346937.3
3346937.2
3346937
3346936.8
3346936.5
3346936.2
3346935.8
3346935.5
3346935.2
3346934.8
3346934.7
3346934.3
3346934.9
3346934.6
3346934.2
520.99157
453.03845
447.71728
447.45631
447.53364
447.52131
447.49387
447.47507
447.46516
447.46211
447.46483
447.47294
447.48655
447.50626
447.53305
447.56896
447.61588
447.68226
447.76188
447.93189
447.96624
448.6269
457.26853
16021.445
2361628.4
2308453.7
2308235.4
2308376
2309407.6
2310935.6
2312607.3
2314355.5
2316223.9
2318198.1
2320229
2323488.1
2326480.8
2327831.7
2328278.5
2328441.9
2328563.8
2328691.6
2328833.5
2328994.1
2329178.1
2329391.1
2329640.3
2329934.7
2330345.8
2331302.9
2332657.1
2334592.2
2337369.5
2341207
2345746.7
2349195.9
2350092.4
2350155.4
2350209.1
2350272.4
2350347.9
2350438.8
2350549.8
2350687.4
2350859.2
2351324
2352098.5
2353438.1
2355939.7
2360775.4
2368090.6
2370976.7
2371017
2371055.7
2371105.5
2371230
2371460.4
2371881.7
2372759.8
2374931.8
2381282.1
2390573.5
2390804.3
2390853.6
2390931.8
2391066.9
2391331.5
2391952.6
2393871.4
2401876.8
2409405.9
2409448.8
2409509.8
2409599.6
2409735.9
2409955.4
2410317.2
2410939.1
2412020.1
2413778.1
2416212.2
2418897.2
2421255.9
2423083.9
2424385.7
2425268.5
2425817.1
2426120.5
2426265.7
2426327.5
2426352.1
2426362
2426366.6
2426369.2
2426370.9
2426372
2426372.8
2426373.3
2426373.6
2426373.7
2426373.8
2426373.8
2426373.7
2426373.6
2426373.4
2426373.2
2426373
2426372.8
2426372.6
2426372.4
2426372.2
2426372.1
2426371.9
2426372.2
2426372.1
2426371.9
520.15797
451.70506
446.35919
446.08891
446.16438
446.15148
446.1237
446.10466
446.09458
446.09143
446.09407
446.10214
446.11574
446.13546
446.16227
446.19826
446.24526
446.31179
446.39151
446.5619
446.59645
447.25237
455.88569
15511.66
1748451
1714142
1713972.9
1714060.2
1714721.4
1715701.8
1716774.4
1717896.1
1719094.8
1720361
1721663.3
1723749.7
1725667.8
1726533.4
1726819.6
1726924.3
1727002.4
1727084.2
1727175.2
1727278.1
1727396
1727532.5
1727692.1
1727880.8
1728144.6
1728758.1
1729625.9
1730865.9
1732645.2
1735102.6
1738007.5
1740211.7
1740783.3
1740823.5
1740857.9
1740898.4
1740946.6
1741004.8
1741075.8
1741163.8
1741273.7
1741571.2
1742066.6
1742923.6
1744523.7
1747615.6
1752288.2
1754127.8
1754153.5
1754178.2
1754210
1754289.5
1754436.6
1754705.7
1755266.4
1756653.3
1760706.9
1766628.8
1766775.3
1766806.7
1766856.6
1766942.7
1767111.3
1767507.3
1768730.5
1773831.6
1778621.6
1778648.8
1778687.7
1778744.8
1778831.6
1778971.3
1779201.5
1779597.2
1780285
1781403.5
1782951.8
1784659.1
1786158.7
1787320.6
1788148
1788709
1789057.6
1789250.4
1789342.7
1789381.9
1789397.5
1789403.8
1789406.8
1789408.4
1789409.5
1789410.2
1789410.7
1789411
1789411.2
1789411.3
1789411.3
1789411.3
1789411.3
1789411.2
1789411.1
1789411
1789410.9
1789410.7
1789410.6
1789410.5
1789410.3
1789410.3
1789410.1
1789410.3
1789410.3
1789410.1
519.18055
450.13648
444.7612
444.47994
444.55316
444.53957
444.51138
444.49206
444.48179
444.4785
444.48106
444.48907
444.50265
444.52238
444.54924
444.5853
444.6324
444.6991
444.77896
444.94979
444.98456
445.63519
454.25344
14970.766
1310497.6
1287903.1
1287760.7
1287814.4
1288245
1288884.7
1289584.8
1290317
1291099.3
1291925.7
1292775.4
1294134.4
1295385.3
1295949.8
1296136.4
1296204.6
1296255.5
1296308.8
1296368.1
1296435.2
1296512.1
1296601.1
1296705.2
1296828.2
1297000.6
1297400.7
1297966.7
1298775.5
1299935.6
1301537.4
1303429.5
1304863.2
1305234.2
1305260.3
1305282.7
1305309
1305340.5
1305378.3
1305424.6
1305481.9
1305553.4
1305747.2
1306069.9
1306628
1307669.9
1309682.7
1312721.7
1313915.6
1313932.3
1313948.3
1313969
1314020.7
1314116.4
1314291.3
1314656
1315557.8
1318192.9
1322037
1322131.7
1322152.2
1322184.5
1322240.5
1322350
1322607.1
1323401.4
1326712.7
1329817.1
1329834.8
1329860
1329897
1329953.3
1330043.8
1330193.1
1330449.7
1330895.6
1331620.6
1332624
1333730.3
1334701.8
1335454.4
1335990.3
1336353.6
1336579.3
1336704.2
1336763.9
1336789.3
1336799.5
1336803.5
1336805.4
1336806.5
1336807.2
1336807.7
1336808
1336808.2
1336808.3
1336808.4
1336808.4
1336808.4
1336808.3
1336808.3
1336808.2
1336808.2
1336808.1
1336808
1336807.9
1336807.8
1336807.7
1336807.7
1336807.6
1336807.7
1336807.7
1336807.6
518.04359
448.30496
442.89487
442.60071
442.67124
442.65684
442.62817
442.60851
442.59801
442.59456
442.59701
442.60497
442.61852
442.63827
442.66517
442.70132
442.74854
442.81545
442.89545
443.0668
443.10182
443.7467
452.34022
14397.61
991514.86
976375.19
976245.49
976277.19
976560.72
976983.36
977446.23
977930.38
978447.74
978994.17
979555.94
980452.9
981279.68
981652.65
981775.93
981820.96
981854.56
981889.79
981928.94
981973.25
982024.05
982082.86
982151.65
982232.94
982347.06
982611.57
982985.76
983520.34
984287.08
985345.3
986594.48
987539.84
987783.88
987801.05
987815.8
987833.2
987853.94
987878.93
987909.44
987947.26
987994.48
988122.49
988335.53
988703.98
989391.85
990720.25
992724.15
993509.73
993520.68
993531.26
993544.88
993578.99
993642.06
993757.41
993997.86
994592.52
996329.58
998860.07
998922.18
998935.64
998956.94
998993.76
999065.87
999235.21
999758.31
1001938.4
1003979.3
1003990.9
1004007.4
1004031.8
1004068.8
1004128.4
1004226.5
1004395.3
1004688.5
1005165.3
1005825
1006552.2
1007190.7
1007685.3
1008037.3
1008276.1
1008424.4
1008506.4
1008545.6
1008562.3
1008569
1008571.7
1008572.9
1008573.6
1008574.1
1008574.4
1008574.6
1008574.7
1008574.8
1008574.8
1008574.9
1008574.9
1008574.8
1008574.8
1008574.8
1008574.7
1008574.7
1008574.6
1008574.5
1008574.5
1008574.4
1008574.4
1008574.3
1008574.4
1008574.4
1008574.3
516.73032
446.1802
440.72908
440.41986
440.48719
440.47182
440.44258
440.42253
440.41176
440.40812
440.41045
440.41833
440.43186
440.45162
440.47858
440.51483
440.56219
440.62932
440.7095
440.88147
440.91673
441.5556
450.11104
13791.739
755638.42
745335.18
745209.12
745225.94
745413.83
745695.55
746004.48
746327.77
746673.3
747038.25
747413.41
748011.45
748563.5
748812.47
748894.72
748924.74
748947.13
748970.62
748996.72
749026.29
749060.18
749099.43
749145.35
749199.62
749275.95
749452.62
749702.56
750059.59
750571.62
751278.06
752111.45
752741.31
752903.52
752914.94
752924.77
752936.37
752950.19
752966.85
752987.2
753012.42
753043.92
753129.36
753271.5
753517.32
753976.25
754862.3
756197.79
756720.21
756727.49
756734.53
756743.61
756766.34
756808.37
756885.25
757045.5
757441.83
758599.3
760283.17
760324.33
760333.28
760347.46
760371.97
760419.98
760532.71
760880.99
762332.13
763688.57
763696.3
763707.31
763723.51
763748.11
763787.72
763853
763965.22
764160.22
764477.21
764915.78
765399.12
765823.46
766152.08
766386.03
766544.63
766643.16
766697.66
766723.73
766734.82
766739.25
766741.03
766741.86
766742.33
766742.63
766742.83
766742.97
766743.05
766743.11
766743.14
766743.14
766743.14
766743.12
766743.1
766743.07
766743.04
766743
766742.96
766742.93
766742.89
766742.85
766742.83
766742.78
766742.85
766742.82
766742.77
515.22299
443.72932
438.23004
437.9033
437.96683
437.95032
437.92041
437.8999
437.88881
437.88495
437.88713
437.89492
437.90842
437.92819
437.95522
437.99158
438.0391
438.1065
438.18688
438.35958
438.39509
439.02792
447.52736
13153.516
579145.66
572029.01
571900.29
571906.59
572031.26
572220.13
572427.7
572645.12
572877.6
573123.19
573375.66
573777.51
574149.03
574316.53
574371.81
574391.95
574406.97
574422.73
574440.27
574460.13
574482.91
574509.31
574540.19
574576.7
574628.16
574747.11
574915.39
575155.77
575500.46
575975.89
576536.4
576959.49
577068.17
577075.82
577082.42
577090.21
577099.5
577110.69
577124.37
577141.32
577162.5
577219.99
577315.6
577480.97
577789.67
578385.56
579282.97
579633.27
579638.15
579642.87
579648.96
579664.24
579692.48
579744.14
579851.83
580118.19
580895.94
582025.91
582053.42
582059.42
582068.94
582085.39
582117.62
582193.31
582427.16
583401.34
584310.63
584315.81
584323.19
584334.06
584350.56
584377.13
584420.91
584496.18
584626.96
584839.56
585133.65
585457.7
585742.16
585962.43
586119.24
586225.54
586291.58
586328.11
586345.58
586353.01
586355.98
586357.17
586357.73
586358.04
586358.24
586358.38
586358.47
586358.53
586358.56
586358.58
586358.58
586358.58
586358.57
586358.55
586358.53
586358.51
586358.48
586358.46
586358.43
586358.4
586358.38
586358.36
586358.33
586358.37
586358.36
586358.32
513.50313
440.91698
435.36128
435.01426
435.0733
435.05543
435.02474
435.00369
434.99223
434.98811
434.99012
434.99781
435.01126
435.03106
435.05815
435.09464
435.14235
435.21006
435.29067
435.4642
435.49994
436.12698
444.54701
12484.213
445860.21
440870.03
440734.01
440732.48
440814.76
440941.68
441081.72
441228.64
441385.89
441552.08
441722.95
441994.59
442246.12
442359.46
442396.82
442410.38
442420.49
442431.11
442442.93
442456.34
442471.73
442489.58
442510.47
442535.17
442570.07
442650.65
442764.65
442927.51
443161.02
443483
443862.38
444148.37
444221.64
444226.79
444231.25
444236.51
444242.78
444250.35
444259.6
444271.06
444285.39
444324.32
444389.04
444500.99
444709.98
445113.31
445720.27
445956.67
445959.96
445963.15
445967.26
445977.59
445996.69
446031.63
446104.47
446284.65
446810.69
447573.98
447592.48
447596.54
447602.96
447614.08
447635.85
447687.01
447845.08
448503.44
449117.09
449120.59
449125.57
449132.9
449144.04
449161.98
449191.54
449242.37
449330.69
449474.23
449672.78
449891.52
450083.53
450232.19
450338.01
450409.75
450454.31
450478.96
450490.75
450495.77
450497.78
450498.58
450498.96
450499.17
450499.3
450499.4
450499.46
450499.49
450499.52
450499.53
450499.53
450499.52
450499.51
450499.5
450499.49
450499.47
450499.45
450499.43
450499.41
450499.4
450499.38
450499.37
450499.34
450499.37
450499.36
450499.33
511.5518
437.70542
432.08379
431.71337
431.7671
431.74764
431.71604
431.69437
431.68246
431.67804
431.67984
431.68742
431.70082
431.72063
431.7478
431.78445
431.83236
431.90043
431.98129
432.15581
432.19172
432.81361
441.12413
11786.091
344470.2
340914.75
340767.77
340760
340813.45
340898.58
340993.17
341092.71
341199.41
341312.29
341428.4
341612.83
341783.9
341860.92
341886.24
341895.38
341902.18
341909.33
341917.32
341926.39
341936.82
341948.93
341963.11
341979.89
342003.66
342058.5
342136.11
342246.98
342405.94
342625.08
342883.14
343077.42
343127.06
343130.54
343133.55
343137.12
343141.37
343146.51
343152.78
343160.57
343170.3
343196.8
343240.83
343316.99
343459.19
343733.58
344146.17
344306.53
344308.75
344310.91
344313.7
344320.72
344333.7
344357.45
344406.97
344529.49
344887.12
345405.4
345417.91
345420.66
345425.02
345432.56
345447.36
345482.11
345589.51
346036.79
346453.12
346455.49
346458.86
346463.84
346471.4
346483.58
346503.65
346538.16
346598.11
346695.56
346830.33
346978.79
347109.09
347209.97
347281.77
347330.45
347360.69
347377.41
347385.42
347388.82
347390.18
347390.73
347390.98
347391.13
347391.22
347391.28
347391.32
347391.34
347391.36
347391.36
347391.36
347391.36
347391.35
347391.34
347391.33
347391.32
347391.3
347391.29
347391.27
347391.26
347391.24
347391.24
347391.22
347391.24
347391.23
347391.21
509.34993
434.05472
428.35616
427.95883
428.00631
427.98497
427.9523
427.9299
427.91748
427.9127
427.91427
427.9217
427.93505
427.95487
427.98212
428.01894
428.06709
428.13557
428.21672
428.39237
428.42839
429.04626
437.2091
11062.453
266899.24
264321.73
264160.67
264147.55
264181.05
264237.71
264301.43
264368.84
264441.33
264518.13
264597.22
264722.82
264839.53
264892.01
264909.18
264915.31
264919.86
264924.67
264930.05
264936.18
264943.25
264951.47
264961.11
264972.54
264988.77
265026.23
265079.25
265155.01
265263.64
265413.36
265589.57
265722.07
265755.82
265758.17
265760.21
265762.63
265765.52
265769.01
265773.28
265778.58
265785.22
265803.31
265833.38
265885.4
265982.54
266169.95
266451.55
266560.76
266562.27
266563.73
266565.63
266570.41
266579.26
266595.47
266629.27
266712.91
266957.05
267310.42
267318.91
267320.78
267323.74
267328.89
267338.97
267362.68
267435.96
267741.1
268024.74
268026.36
268028.65
268032.04
268037.19
268045.49
268059.18
268082.71
268123.59
268190.03
268281.9
268383.1
268471.91
268540.66
268589.6
268622.77
268643.38
268654.78
268660.24
268662.56
268663.49
268663.86
268664.04
268664.13
268664.2
268664.24
268664.26
268664.28
268664.28
268664.29
268664.28
268664.28
268664.27
268664.26
268664.25
268664.24
268664.23
268664.22
268664.21
268664.2
268664.18
268664.18
268664.16
268664.17
268664.16
268664.15
506.87884
429.92308
424.13484
423.70667
423.74678
423.72322
423.68932
423.66606
423.65305
423.64786
423.64915
423.65641
423.66968
423.68951
423.71686
423.75388
423.80229
423.87123
423.95271
424.12968
424.16566
424.78135
432.74872
10317.654
207281.42
205377.53
205199.61
205181.49
205200.9
205237.91
205280.48
205325.94
205375.08
205427.32
205481.2
205566.88
205646.66
205682.45
205694.06
205698.12
205701.12
205704.31
205707.91
205712.03
205716.81
205722.37
205728.92
205736.7
205747.81
205773.45
205809.76
205861.68
205936.12
206038.72
206159.42
206250.04
206273.06
206274.64
206276.01
206277.64
206279.6
206281.97
206284.88
206288.5
206293.03
206305.42
206326.01
206361.65
206428.2
206556.61
206749.43
206824.04
206825.06
206826.05
206827.33
206830.6
206836.65
206847.74
206870.89
206928.17
207095.37
207337.09
207342.87
207344.14
207346.16
207349.68
207356.57
207372.79
207422.96
207631.82
207825.71
207826.81
207828.38
207830.69
207834.22
207839.89
207849.26
207865.36
207893.33
207938.79
208001.64
208070.86
208131.61
208178.64
208212.11
208234.8
208248.9
208256.7
208260.43
208262.02
208262.66
208262.91
208263.03
208263.1
208263.14
208263.17
208263.18
208263.19
208263.19
208263.19
208263.19
208263.18
208263.17
208263.17
208263.16
208263.15
208263.14
208263.12
208263.11
208263.1
208263.09
208263.09
208263.07
208263.08
208263.07
208263.05
504.12083
425.26732
419.37458
418.91113
418.94258
418.91641
418.88106
418.85681
418.84311
418.83744
418.8384
418.84546
418.85864
418.87848
418.90594
418.94316
418.99187
419.06134
419.14318
419.32167
419.35743
419.97367
427.68641
9557.0692
161296.07
159861.86
159664.46
159641.33
159650.48
159673.73
159701.63
159731.96
159765.06
159800.45
159837.07
159895.52
159950.07
159974.43
159982.21
159984.84
159986.76
159988.82
159991.19
159993.92
159997.11
160000.86
160005.28
160010.56
160018.15
160035.72
160060.63
160096.27
160147.4
160217.87
160300.72
160362.85
160378.57
160379.62
160380.54
160381.63
160382.95
160384.55
160386.53
160388.99
160392.08
160400.58
160414.7
160439.17
160484.89
160573.09
160705.44
160756.54
160757.22
160757.89
160758.76
160760.99
160765.13
160772.73
160788.62
160827.95
160942.75
161108.53
161112.47
161113.33
161114.71
161117.11
161121.84
161132.96
161167.39
161310.73
161443.63
161444.38
161445.45
161447.03
161449.44
161453.34
161459.77
161470.82
161490.02
161521.21
161564.33
161611.82
161653.5
161685.76
161708.73
161724.3
161733.97
161739.32
161741.89
161742.98
161743.42
161743.6
161743.68
161743.72
161743.75
161743.77
161743.78
161743.78
161743.78
161743.77
161743.77
161743.76
161743.75
161743.74
161743.73
161743.72
161743.71
161743.7
161743.69
161743.68
161743.67
161743.66
161743.65
161743.65
161743.64
161743.62
501.05994
420.04344
414.02897
413.52528
413.54652
413.51727
413.48024
413.45485
413.44034
413.4341
413.43468
413.44151
413.45458
413.47442
413.50199
413.53945
413.58849
413.65855
413.7408
413.92104
413.95629
414.57698
421.96257
8787.001
125723.86
124622.44
124403
124374.52
124375.88
124389.28
124406.86
124426.64
124448.62
124472.37
124497.1
124536.86
124574.09
124590.59
124595.72
124597.32
124598.47
124599.73
124601.22
124602.98
124605.07
124607.55
124610.51
124614.06
124619.22
124631.26
124648.36
124672.85
124708.01
124756.48
124813.45
124856.11
124866.85
124867.53
124868.12
124868.84
124869.72
124870.79
124872.12
124873.79
124875.89
124881.72
124891.42
124908.25
124939.7
125000.39
125091.42
125126.48
125126.93
125127.37
125127.96
125129.48
125132.31
125137.53
125148.44
125175.5
125254.48
125368.41
125371.1
125371.68
125372.62
125374.26
125377.5
125385.14
125408.81
125507.4
125598.68
125599.19
125599.92
125601.01
125602.67
125605.35
125609.77
125617.38
125630.59
125652.05
125681.72
125714.38
125743.06
125765.25
125781.05
125791.76
125798.42
125802.1
125803.87
125804.62
125804.93
125805.05
125805.11
125805.14
125805.15
125805.16
125805.17
125805.16
125805.16
125805.15
125805.15
125805.14
125805.13
125805.11
125805.1
125805.09
125805.08
125805.07
125805.06
125805.05
125805.04
125805.03
125805.02
125805.01
125805
125804.98
497.68296
414.20756
408.0512
407.50172
407.51093
407.47805
407.43907
407.41234
407.39689
407.38999
407.39013
407.39667
407.4096
407.42944
407.45712
407.49485
407.54425
407.61498
407.69767
407.87993
407.91429
408.54477
415.51511
8014.5354
98143.392
97283.272
97039.302
97004.857
96999.939
97006.061
97016.238
97028.538
97042.713
97058.334
97074.788
97101.675
97126.947