/*--------------------------------*- C++ -*----------------------------------*\
| =========                 |                                                 |
| \\      /  F ield         | OpenFOAM: The Open Source CFD Toolbox           |
|  \\    /   O peration     | Version:  2206                                  |
|   \\  /    A nd           | Website:  www.openfoam.com                      |
|    \\/     M anipulation  |                                                 |
\*---------------------------------------------------------------------------*/
FoamFile
{
    version     2.0;
    format      ascii;
    arch        "LSB;label=32;scalar=64";
    class       volScalarField;
    location    "1000";
    object      p;
}
// * * * * * * * * * * * * * * * * * * * * * * * * * * * * * * * * * * * * * //

dimensions      [0 2 -2 0 0 0 0];

internalField   nonuniform List<scalar> 
13056
(
0.012027987
0.01213167
0.012351333
0.012631738
0.012971489
0.01337084
0.013827925
0.014341948
0.014914237
0.01554802
0.016248301
0.017022213
0.017879617
0.018834459
0.019905687
0.021122572
0.022521919
0.024179564
0.026156461
0.028743091
0.031863836
0.037294024
0.042391436
0.081051073
0.051334369
0.0023572788
0.0010344288
0.0019089022
0.002461575
0.002904
0.0031724541
0.003361638
0.0035050589
0.0036083116
0.0036810642
0.0037330791
0.0037705627
0.0037971376
0.0038151111
0.0038264944
0.0038327221
0.0038346443
0.0038330647
0.0038286627
0.0038218325
0.0038128924
0.0038021257
0.003789746
0.0037759358
0.0037608242
0.0037444885
0.0037270099
0.0037084496
0.0036888539
0.0036682665
0.003646693
0.0036241229
0.003600559
0.0035759898
0.0035503966
0.0035237551
0.0034960386
0.0034671921
0.0034371421
0.0034058156
0.0033731352
0.0033390256
0.0033034021
0.0032661734
0.0032272583
0.0031865592
0.0031439572
0.003099337
0.0030525906
0.0030036099
0.0029523265
0.0028986972
0.0028427701
0.0027846192
0.0027242696
0.0026619627
0.002597983
0.0025327036
0.002467013
0.002402252
0.0023403129
0.0022840535
0.0022374904
0.0022052369
0.0021923605
0.0022061228
0.0022519813
0.0023355979
0.0024650779
0.0026448276
0.0028752386
0.0031498446
0.0034631948
0.0038031583
0.0041236191
0.0043756575
0.004527838
0.0045803166
0.0045476957
0.0044518643
0.0043255072
0.0041823306
0.0040327282
0.0038810237
0.0037260715
0.0035711043
0.0034141149
0.0032514138
0.0030871207
0.0029229426
0.0027602439
0.0026011769
0.0024444056
0.0022890332
0.0021378732
0.0019906895
0.0018458684
0.0017038985
0.0015664296
0.0014333318
0.0013030355
0.0011763864
0.0010540278
0.00093810787
0.00082820667
0.0007268703
0.00063059476
0.00056839913
0.00048170047
0.00066713159
-0.00051327583
0.012027987
0.01213167
0.012351333
0.012631738
0.012971489
0.01337084
0.013827926
0.014341949
0.014914238
0.01554802
0.016248301
0.017022214
0.017879618
0.01883446
0.019905689
0.021122575
0.022521922
0.024179567
0.026156466
0.028743098
0.031863846
0.037294044
0.042391478
0.081046268
0.051345719
0.0023645256
0.0010362836
0.0019097415
0.002462089
0.0029043614
0.0031727274
0.0033618553
0.0035052368
0.0036084605
0.0036811912
0.0037331891
0.0037706591
0.0037972229
0.0038151871
0.0038265627
0.0038327838
0.0038347004
0.0038331159
0.0038287096
0.0038218757
0.0038129323
0.0038021626
0.0037897803
0.0037759677
0.0037608539
0.0037445164
0.003727036
0.0037084741
0.0036888769
0.0036682881
0.0036467134
0.0036241421
0.0036005771
0.003576007
0.0035504129
0.0035237705
0.0034960531
0.0034672059
0.0034371552
0.003405828
0.003373147
0.0033390368
0.0033034128
0.0032661835
0.0032272679
0.0031865684
0.0031439659
0.0030993452
0.0030525984
0.0030036173
0.0029523335
0.0028987038
0.0028427763
0.002784625
0.0027242751
0.0026619678
0.0025979876
0.0025327079
0.0024670169
0.0024022554
0.0023403159
0.0022840561
0.0022374924
0.0022052384
0.0021923614
0.002206123
0.0022519807
0.0023355965
0.0024650756
0.0026448244
0.0028752345
0.0031498397
0.0034631892
0.0038031523
0.0041236129
0.0043756518
0.0045278332
0.0045803125
0.0045476929
0.0044518623
0.0043255058
0.0041823297
0.0040327275
0.0038810233
0.0037260712
0.0035711042
0.0034141149
0.0032514139
0.003087121
0.0029229429
0.0027602443
0.0026011773
0.002444406
0.0022890336
0.0021378737
0.00199069
0.0018458689
0.001703899
0.0015664301
0.0014333323
0.001303036
0.0011763869
0.0010540283
0.00093810834
0.00082820713
0.00072687077
0.00063059522
0.00056839963
0.00048170101
0.00066713214
-0.00051327548
0.012027987
0.01213167
0.012351333
0.012631738
0.012971489
0.01337084
0.013827926
0.014341949
0.014914238
0.015548021
0.016248302
0.017022214
0.017879619
0.018834461
0.01990569
0.021122577
0.022521925
0.024179571
0.026156472
0.028743107
0.031863857
0.037294067
0.04239151
0.081041408
0.051361334
0.0023715506
0.0010384832
0.0019107451
0.0024627038
0.0029047937
0.0031730543
0.003362115
0.0035054494
0.0036086386
0.0036813432
0.0037333207
0.0037707743
0.0037973249
0.003815278
0.0038266444
0.0038328576
0.0038347675
0.0038331772
0.0038287658
0.0038219273
0.00381298
0.0038022067
0.0037898213
0.0037760059
0.0037608895
0.0037445497
0.0037270671
0.0037085033
0.0036889044
0.0036683139
0.0036467378
0.0036241651
0.0036005989
0.0035760275
0.0035504323
0.0035237889
0.0034960706
0.0034672225
0.0034371709
0.0034058429
0.0033731612
0.0033390502
0.0033034256
0.0032661956
0.0032272794
0.0031865793
0.0031439762
0.003099355
0.0030526077
0.0030036262
0.0029523419
0.0028987116
0.0028427837
0.002784632
0.0027242816
0.0026619738
0.0025979932
0.002532713
0.0024670215
0.0024022596
0.0023403195
0.0022840592
0.0022374949
0.0022052402
0.0021923624
0.0022061231
0.00225198
0.0023355948
0.0024650729
0.0026448206
0.0028752297
0.0031498339
0.0034631826
0.003803145
0.0041236056
0.004375645
0.0045278273
0.0045803077
0.0045476896
0.0044518599
0.0043255042
0.0041823286
0.0040327268
0.0038810228
0.003726071
0.0035711041
0.0034141149
0.0032514141
0.0030871212
0.0029229432
0.0027602447
0.0026011778
0.0024444065
0.0022890342
0.0021378743
0.0019906906
0.0018458695
0.0017038996
0.0015664307
0.0014333329
0.0013030366
0.0011763874
0.0010540289
0.0009381089
0.00082820768
0.00072687132
0.00063059577
0.00056840023
0.00048170164
0.00066713281
-0.00051327506
0.012027987
0.01213167
0.012351334
0.012631738
0.012971489
0.01337084
0.013827926
0.014341949
0.014914238
0.015548021
0.016248303
0.017022215
0.01787962
0.018834463
0.019905692
0.021122579
0.022521928
0.024179576
0.026156477
0.028743115
0.031863867
0.037294088
0.04239154
0.081036658
0.051378752
0.0023767499
0.0010405527
0.0019117282
0.0024633061
0.0029052171
0.0031733745
0.0033623695
0.0035056578
0.003608813
0.003681492
0.0037334496
0.0037708873
0.0037974248
0.0038153671
0.0038267244
0.00383293
0.0038348332
0.0038332371
0.0038288207
0.0038219779
0.0038130267
0.00380225
0.0037898615
0.0037760433
0.0037609244
0.0037445823
0.0037270977
0.003708532
0.0036889313
0.0036683393
0.0036467616
0.0036241877
0.0036006201
0.0035760476
0.0035504513
0.0035238069
0.0034960876
0.0034672387
0.0034371863
0.0034058575
0.003373175
0.0033390634
0.0033034381
0.0032662075
0.0032272907
0.00318659
0.0031439864
0.0030993647
0.0030526169
0.0030036348
0.0029523501
0.0028987194
0.002842791
0.0027846388
0.0027242879
0.0026619797
0.0025979987
0.0025327181
0.0024670261
0.0024022636
0.0023403231
0.0022840622
0.0022374973
0.0022052419
0.0021923634
0.0022061233
0.0022519793
0.0023355932
0.0024650702
0.0026448168
0.0028752249
0.0031498282
0.0034631761
0.0038031379
0.0041235984
0.0043756383
0.0045278216
0.0045803032
0.0045476863
0.0044518576
0.0043255026
0.0041823275
0.0040327261
0.0038810223
0.0037260707
0.003571104
0.003414115
0.0032514142
0.0030871215
0.0029229436
0.0027602451
0.0026011782
0.002444407
0.0022890348
0.0021378749
0.0019906912
0.0018458701
0.0017039002
0.0015664313
0.0014333335
0.0013030372
0.001176388
0.0010540294
0.00093810945
0.00082820822
0.00072687186
0.00063059631
0.00056840082
0.00048170224
0.00066713346
-0.00051327467
0.012027987
0.01213167
0.012351334
0.012631738
0.012971489
0.013370841
0.013827926
0.014341949
0.014914239
0.015548022
0.016248303
0.017022216
0.017879621
0.018834464
0.019905694
0.021122582
0.022521931
0.02417958
0.026156482
0.028743123
0.031863878
0.037294109
0.042391575
0.081031571
0.051397266
0.0023825367
0.0010426456
0.0019127347
0.0024639228
0.0029056508
0.0031737024
0.0033626301
0.0035058711
0.0036089917
0.0036816444
0.0037335816
0.0037710029
0.003797527
0.0038154583
0.0038268063
0.003833004
0.0038349005
0.0038332986
0.003828877
0.0038220297
0.0038130745
0.0038022943
0.0037899026
0.0037760815
0.0037609601
0.0037446156
0.0037271289
0.0037085613
0.0036889589
0.0036683652
0.0036467861
0.0036242107
0.0036006419
0.0035760682
0.0035504708
0.0035238254
0.0034961051
0.0034672552
0.003437202
0.0034058724
0.0033731892
0.0033390768
0.0033034508
0.0032662196
0.0032273023
0.003186601
0.0031439968
0.0030993746
0.0030526262
0.0030036437
0.0029523585
0.0028987273
0.0028427984
0.0027846458
0.0027242945
0.0026619858
0.0025980043
0.0025327232
0.0024670307
0.0024022678
0.0023403267
0.0022840653
0.0022374997
0.0022052437
0.0021923644
0.0022061235
0.0022519786
0.0023355915
0.0024650674
0.002644813
0.00287522
0.0031498223
0.0034631695
0.0038031307
0.004123591
0.0043756314
0.0045278157
0.0045802986
0.0045476829
0.0044518552
0.0043255009
0.0041823264
0.0040327253
0.0038810219
0.0037260705
0.0035711039
0.003414115
0.0032514144
0.0030871217
0.0029229439
0.0027602455
0.0026011787
0.0024444076
0.0022890353
0.0021378754
0.0019906918
0.0018458707
0.0017039008
0.0015664319
0.0014333341
0.0013030378
0.0011763886
0.00105403
0.00093811001
0.00082820877
0.00072687242
0.00063059686
0.00056840142
0.00048170284
0.00066713413
-0.00051327428
0.012027987
0.01213167
0.012351334
0.012631739
0.01297149
0.013370841
0.013827927
0.01434195
0.014914239
0.015548022
0.016248304
0.017022217
0.017879622
0.018834466
0.019905696
0.021122584
0.022521934
0.024179584
0.026156488
0.028743133
0.03186389
0.03729413
0.042391616
0.081025923
0.051416565
0.0023897438
0.0010448714
0.0019138037
0.0024645779
0.0029061114
0.0031740507
0.0033629069
0.0035060977
0.0036091814
0.0036818063
0.0037337218
0.0037711257
0.0037976357
0.0038155552
0.0038268933
0.0038330826
0.003834972
0.0038333638
0.0038289368
0.0038220847
0.0038131253
0.0038023413
0.0037899463
0.0037761222
0.0037609981
0.0037446511
0.0037271621
0.0037085925
0.0036889882
0.0036683928
0.003646812
0.0036242352
0.003600665
0.0035760901
0.0035504915
0.003523845
0.0034961237
0.0034672728
0.0034372187
0.0034058883
0.0033732043
0.0033390911
0.0033034644
0.0032662326
0.0032273145
0.0031866126
0.0031440079
0.003099385
0.0030526362
0.0030036531
0.0029523674
0.0028987357
0.0028428064
0.0027846532
0.0027243014
0.0026619923
0.0025980103
0.0025327287
0.0024670357
0.0024022722
0.0023403306
0.0022840685
0.0022375024
0.0022052455
0.0021923655
0.0022061237
0.0022519778
0.0023355897
0.0024650645
0.0026448089
0.0028752147
0.0031498161
0.0034631624
0.003803123
0.0041235832
0.0043756241
0.0045278095
0.0045802938
0.0045476793
0.0044518527
0.0043254992
0.0041823252
0.0040327245
0.0038810214
0.0037260702
0.0035711038
0.003414115
0.0032514145
0.003087122
0.0029229443
0.002760246
0.0026011792
0.0024444081
0.0022890359
0.0021378761
0.0019906924
0.0018458714
0.0017039015
0.0015664325
0.0014333347
0.0013030384
0.0011763892
0.0010540306
0.00093811061
0.00082820936
0.00072687301
0.00063059745
0.00056840207
0.00048170349
0.00066713483
-0.00051327386
0.012027987
0.01213167
0.012351334
0.012631739
0.01297149
0.013370841
0.013827927
0.01434195
0.01491424
0.015548023
0.016248305
0.017022218
0.017879623
0.018834468
0.019905698
0.021122587
0.022521938
0.02417959
0.026156495
0.028743143
0.031863903
0.037294154
0.042391664
0.081019603
0.051436877
0.0023977015
0.0010472696
0.0019149541
0.002465283
0.0029066072
0.0031744256
0.0033632048
0.0035063417
0.0036093856
0.0036819806
0.0037338727
0.0037712579
0.0037977526
0.0038156595
0.003826987
0.0038331673
0.0038350489
0.003833434
0.0038290012
0.0038221439
0.00381318
0.0038023919
0.0037899933
0.003776166
0.0037610389
0.0037446893
0.0037271979
0.003708626
0.0036890197
0.0036684224
0.00364684
0.0036242616
0.0036006899
0.0035761136
0.0035505138
0.0035238661
0.0034961437
0.0034672918
0.0034372367
0.0034059053
0.0033732205
0.0033391065
0.0033034791
0.0032662464
0.0032273277
0.0031866252
0.0031440198
0.0030993963
0.0030526469
0.0030036632
0.0029523769
0.0028987447
0.0028428149
0.0027846612
0.0027243089
0.0026619992
0.0025980167
0.0025327346
0.002467041
0.002402277
0.0023403348
0.0022840721
0.0022375052
0.0022052476
0.0021923667
0.0022061239
0.002251977
0.0023355877
0.0024650614
0.0026448045
0.0028752091
0.0031498094
0.0034631548
0.0038031147
0.0041235748
0.0043756163
0.0045278028
0.0045802885
0.0045476755
0.00445185
0.0043254973
0.0041823239
0.0040327237
0.0038810208
0.0037260699
0.0035711037
0.0034141151
0.0032514147
0.0030871223
0.0029229447
0.0027602465
0.0026011798
0.0024444087
0.0022890366
0.0021378767
0.0019906931
0.0018458721
0.0017039022
0.0015664332
0.0014333354
0.0013030391
0.0011763899
0.0010540312
0.00093811125
0.00082821
0.00072687365
0.00063059808
0.00056840276
0.00048170418
0.0006671356
-0.00051327341
0.012027987
0.01213167
0.012351334
0.012631739
0.01297149
0.013370841
0.013827927
0.014341951
0.01491424
0.015548024
0.016248306
0.017022219
0.017879625
0.01883447
0.019905701
0.021122591
0.022521942
0.024179596
0.026156502
0.028743154
0.031863918
0.03729418
0.042391721
0.081012475
0.051458476
0.0024062458
0.0010498699
0.0019162015
0.0024660477
0.0029071449
0.0031748322
0.0033635279
0.0035066062
0.0036096071
0.0036821696
0.0037340363
0.0037714013
0.0037978794
0.0038157726
0.0038270885
0.0038332591
0.0038351323
0.0038335101
0.003829071
0.0038222081
0.0038132393
0.0038024468
0.0037900443
0.0037762134
0.0037610832
0.0037447306
0.0037272367
0.0037086624
0.0036890539
0.0036684546
0.0036468703
0.0036242902
0.0036007169
0.0035761392
0.0035505379
0.0035238889
0.0034961654
0.0034673124
0.0034372562
0.0034059239
0.003373238
0.0033391232
0.0033034949
0.0032662615
0.003227342
0.0031866388
0.0031440327
0.0030994086
0.0030526585
0.0030036742
0.0029523873
0.0028987545
0.0028428241
0.0027846699
0.002724317
0.0026620067
0.0025980236
0.0025327409
0.0024670468
0.0024022822
0.0023403393
0.0022840759
0.0022375082
0.0022052498
0.0021923679
0.0022061242
0.0022519761
0.0023355856
0.002465058
0.0026447997
0.0028752031
0.0031498022
0.0034631465
0.0038031057
0.0041235656
0.0043756077
0.0045277956
0.0045802828
0.0045476713
0.004451847
0.0043254953
0.0041823225
0.0040327227
0.0038810202
0.0037260696
0.0035711036
0.0034141151
0.0032514149
0.0030871226
0.0029229451
0.002760247
0.0026011804
0.0024444094
0.0022890373
0.0021378775
0.0019906938
0.0018458728
0.0017039029
0.0015664339
0.0014333362
0.0013030398
0.0011763906
0.0010540319
0.00093811195
0.00082821068
0.00072687434
0.00063059876
0.0005684035
0.00048170493
0.00066713642
-0.00051327292
0.012027987
0.01213167
0.012351334
0.012631739
0.01297149
0.013370842
0.013827928
0.014341951
0.014914241
0.015548025
0.016248307
0.017022221
0.017879627
0.018834472
0.019905704
0.021122594
0.022521947
0.024179602
0.026156511
0.028743167
0.031863935
0.037294209
0.042391788
0.081004364
0.051481592
0.0024155111
0.0010527086
0.0019175637
0.002466883
0.0029077323
0.0031752763
0.0033638808
0.0035068951
0.003609849
0.0036823759
0.003734215
0.0037715578
0.0037980179
0.0038158961
0.0038271995
0.0038333593
0.0038352234
0.0038335933
0.0038291472
0.0038222783
0.003813304
0.0038025068
0.0037900999
0.0037762652
0.0037611315
0.0037447758
0.003727279
0.0037087021
0.0036890912
0.0036684897
0.0036469034
0.0036243214
0.0036007464
0.0035761671
0.0035505643
0.0035239139
0.003496189
0.0034673348
0.0034372775
0.0034059441
0.0033732572
0.0033391415
0.0033035122
0.003266278
0.0032273577
0.0031866536
0.0031440468
0.0030994219
0.0030526711
0.0030036862
0.0029523987
0.0028987653
0.0028428342
0.0027846794
0.0027243258
0.002662015
0.0025980312
0.0025327479
0.0024670531
0.0024022878
0.0023403442
0.00228408
0.0022375116
0.0022052522
0.0021923693
0.0022061244
0.0022519751
0.0023355833
0.0024650543
0.0026447945
0.0028751964
0.0031497943
0.0034631375
0.0038030959
0.0041235556
0.0043755985
0.0045277877
0.0045802766
0.0045476668
0.0044518438
0.004325493
0.004182321
0.0040327217
0.0038810196
0.0037260692
0.0035711035
0.0034141152
0.0032514151
0.0030871229
0.0029229456
0.0027602476
0.002601181
0.0024444101
0.002289038
0.0021378783
0.0019906946
0.0018458736
0.0017039037
0.0015664347
0.001433337
0.0013030406
0.0011763914
0.0010540327
0.00093811271
0.00082821143
0.00072687509
0.00063059951
0.00056840432
0.00048170575
0.00066713732
-0.00051327238
0.012027987
0.01213167
0.012351334
0.012631739
0.012971491
0.013370842
0.013827928
0.014341952
0.014914242
0.015548026
0.016248308
0.017022222
0.017879629
0.018834475
0.019905707
0.021122599
0.022521953
0.02417961
0.026156521
0.028743181
0.031863954
0.037294241
0.042391868
0.080995057
0.051506434
0.0024256609
0.0010558277
0.001919061
0.0024678014
0.002908378
0.0031757646
0.0033642688
0.0035072127
0.003610115
0.0036826028
0.0037344115
0.0037717299
0.0037981701
0.0038160319
0.0038273214
0.0038334695
0.0038353235
0.0038336847
0.003829231
0.0038223554
0.0038133752
0.0038025727
0.0037901612
0.0037763222
0.0037611847
0.0037448255
0.0037273255
0.0037087458
0.0036891322
0.0036685283
0.0036469398
0.0036243557
0.0036007788
0.0035761977
0.0035505933
0.0035239414
0.0034962151
0.0034673595
0.0034373009
0.0034059663
0.0033732783
0.0033391615
0.0033035313
0.0032662961
0.0032273748
0.0031866699
0.0031440623
0.0030994366
0.0030526851
0.0030036994
0.0029524112
0.002898777
0.0028428453
0.0027846898
0.0027243355
0.002662024
0.0025980396
0.0025327555
0.0024670601
0.002402294
0.0023403496
0.0022840846
0.0022375152
0.0022052548
0.0021923708
0.0022061247
0.0022519741
0.0023355808
0.0024650502
0.0026447888
0.0028751891
0.0031497855
0.0034631276
0.0038030851
0.0041235447
0.0043755882
0.0045277789
0.0045802698
0.0045476618
0.0044518402
0.0043254906
0.0041823193
0.0040327206
0.0038810189
0.0037260688
0.0035711033
0.0034141152
0.0032514153
0.0030871233
0.0029229461
0.0027602482
0.0026011818
0.0024444109
0.0022890389
0.0021378791
0.0019906955
0.0018458745
0.0017039046
0.0015664356
0.0014333378
0.0013030414
0.0011763922
0.0010540336
0.00093811355
0.00082821226
0.00072687592
0.00063060033
0.00056840522
0.00048170665
0.00066713832
-0.00051327179
0.012027987
0.01213167
0.012351335
0.01263174
0.012971491
0.013370843
0.013827929
0.014341953
0.014914243
0.015548027
0.01624831
0.017022224
0.017879631
0.018834478
0.019905711
0.021122604
0.02252196
0.024179619
0.026156532
0.028743198
0.031863976
0.037294277
0.042391962
0.080984302
0.051533201
0.0024368472
0.0010592736
0.0019207157
0.0024688165
0.0029090918
0.0031763043
0.0033646976
0.0035075638
0.0036104089
0.0036828536
0.0037346287
0.0037719202
0.0037983384
0.003816182
0.0038274562
0.0038335913
0.0038354342
0.0038337857
0.0038293236
0.0038224406
0.0038134539
0.0038026456
0.0037902288
0.0037763852
0.0037612434
0.0037448805
0.003727377
0.003708794
0.0036891776
0.003668571
0.00364698
0.0036243937
0.0036008147
0.0035762316
0.0035506254
0.0035239717
0.0034962438
0.0034673868
0.0034373268
0.0034059909
0.0033733017
0.0033391837
0.0033035523
0.0032663161
0.0032273938
0.003186688
0.0031440794
0.0030994529
0.0030527005
0.003003714
0.0029524249
0.00289879
0.0028428575
0.0027847013
0.0027243463
0.002662034
0.0025980488
0.002532764
0.0024670677
0.0024023008
0.0023403556
0.0022840897
0.0022375193
0.0022052577
0.0021923724
0.002206125
0.0022519729
0.002335578
0.0024650457
0.0026447825
0.002875181
0.0031497759
0.0034631167
0.0038030732
0.0041235326
0.004375577
0.0045277693
0.0045802623
0.0045476563
0.0044518363
0.0043254879
0.0041823174
0.0040327194
0.0038810181
0.0037260684
0.0035711032
0.0034141153
0.0032514156
0.0030871237
0.0029229467
0.0027602489
0.0026011826
0.0024444118
0.0022890398
0.0021378801
0.0019906965
0.0018458755
0.0017039056
0.0015664366
0.0014333388
0.0013030424
0.0011763932
0.0010540345
0.00093811447
0.00082821317
0.00072687684
0.00063060124
0.00056840621
0.00048170765
0.00066713941
-0.00051327114
0.012027987
0.01213167
0.012351335
0.01263174
0.012971491
0.013370843
0.01382793
0.014341954
0.014914244
0.015548028
0.016248311
0.017022227
0.017879634
0.018834481
0.019905716
0.02112261
0.022521967
0.024179629
0.026156545
0.028743216
0.031864
0.037294317
0.042392073
0.080971797
0.051562077
0.0024492298
0.0010630973
0.0019225524
0.0024699436
0.0029098843
0.0031769035
0.0033651737
0.0035079535
0.0036107352
0.003683132
0.0037348697
0.0037721314
0.0037985252
0.0038163486
0.0038276058
0.0038337266
0.0038355571
0.0038338979
0.0038294264
0.0038225352
0.0038135412
0.0038027264
0.0037903039
0.0037764551
0.0037613086
0.0037449414
0.0037274341
0.0037088476
0.0036892279
0.0036686184
0.0036470246
0.0036244358
0.0036008545
0.0035762692
0.0035506609
0.0035240054
0.0034962758
0.003467417
0.0034373555
0.0034060181
0.0033733276
0.0033392082
0.0033035757
0.0032663383
0.0032274149
0.003186708
0.0031440984
0.0030994709
0.0030527176
0.0030037302
0.0029524402
0.0028988045
0.0028428711
0.002784714
0.0027243582
0.0026620451
0.0025980591
0.0025327734
0.0024670762
0.0024023084
0.0023403623
0.0022840953
0.0022375237
0.0022052609
0.0021923743
0.0022061253
0.0022519716
0.0023355749
0.0024650406
0.0026447755
0.0028751721
0.0031497652
0.0034631045
0.00380306
0.0041235191
0.0043755644
0.0045277586
0.0045802539
0.0045476501
0.004451832
0.0043254849
0.0041823154
0.004032718
0.0038810173
0.0037260679
0.003571103
0.0034141153
0.0032514159
0.0030871242
0.0029229473
0.0027602497
0.0026011834
0.0024444127
0.0022890408
0.0021378812
0.0019906976
0.0018458766
0.0017039067
0.0015664377
0.0014333399
0.0013030435
0.0011763942
0.0010540355
0.0009381155
0.00082821418
0.00072687785
0.00063060225
0.00056840731
0.00048170875
0.00066714063
-0.00051327041
0.012027987
0.012131671
0.012351335
0.01263174
0.012971492
0.013370844
0.01382793
0.014341955
0.014914245
0.01554803
0.016248314
0.017022229
0.017879637
0.018834485
0.019905721
0.021122617
0.022521976
0.02417964
0.026156559
0.028743238
0.031864029
0.037294361
0.042392204
0.080957178
0.051593223
0.0024629881
0.0010673552
0.0019245983
0.0024711995
0.0029107674
0.0031775712
0.0033657042
0.0035083878
0.0036110989
0.0036834422
0.0037351383
0.0037723667
0.0037987333
0.0038165342
0.0038277725
0.0038338772
0.003835694
0.0038340228
0.003829541
0.0038226406
0.0038136385
0.0038028165
0.0037903876
0.0037765329
0.0037613813
0.0037450093
0.0037274977
0.0037089073
0.003689284
0.0036686712
0.0036470744
0.0036244827
0.0036008988
0.0035763111
0.0035507006
0.003524043
0.0034963113
0.0034674508
0.0034373875
0.0034060485
0.0033733564
0.0033392356
0.0033036017
0.003266363
0.0032274384
0.0031867303
0.0031441196
0.003099491
0.0030527366
0.0030037482
0.0029524573
0.0028988206
0.0028428863
0.0027847283
0.0027243715
0.0026620574
0.0025980705
0.0025327839
0.0024670857
0.0024023169
0.0023403697
0.0022841016
0.0022375287
0.0022052645
0.0021923763
0.0022061257
0.0022519701
0.0023355714
0.002465035
0.0026447677
0.0028751621
0.0031497533
0.003463091
0.0038030453
0.0041235041
0.0043755505
0.0045277467
0.0045802446
0.0045476433
0.0044518271
0.0043254815
0.0041823131
0.0040327165
0.0038810163
0.0037260674
0.0035711028
0.0034141154
0.0032514162
0.0030871247
0.002922948
0.0027602505
0.0026011844
0.0024444138
0.002289042
0.0021378823
0.0019906988
0.0018458778
0.001703908
0.001566439
0.0014333411
0.0013030447
0.0011763954
0.0010540367
0.00093811664
0.0008282153
0.00072687899
0.00063060337
0.00056840854
0.00048170998
0.00066714198
-0.00051326961
0.012027987
0.012131671
0.012351335
0.012631741
0.012971492
0.013370844
0.013827931
0.014341956
0.014914247
0.015548032
0.016248316
0.017022232
0.017879641
0.01883449
0.019905727
0.021122624
0.022521986
0.024179654
0.026156576
0.028743261
0.031864061
0.037294409
0.042392359
0.080940009
0.051626762
0.0024783247
0.0010721101
0.001926884
0.0024726029
0.0029117543
0.0031783174
0.003366297
0.0035088731
0.0036115052
0.0036837889
0.0037354385
0.0037726296
0.0037989659
0.0038167416
0.0038279588
0.0038340456
0.0038358469
0.0038341625
0.003829669
0.0038227584
0.0038137472
0.0038029172
0.003790481
0.00377662
0.0037614624
0.0037450852
0.0037275688
0.003708974
0.0036893467
0.0036687302
0.0036471299
0.0036245351
0.0036009483
0.0035763579
0.0035507449
0.0035240849
0.0034963511
0.0034674885
0.0034374233
0.0034060824
0.0033733886
0.0033392663
0.0033036308
0.0032663906
0.0032274647
0.0031867552
0.0031441432
0.0030995135
0.0030527579
0.0030037684
0.0029524764
0.0028988386
0.0028429032
0.0027847442
0.0027243864
0.0026620713
0.0025980832
0.0025327956
0.0024670963
0.0024023264
0.0023403779
0.0022841085
0.0022375343
0.0022052686
0.0021923786
0.0022061261
0.0022519685
0.0023355675
0.0024650288
0.0026447589
0.0028751509
0.00314974
0.0034630759
0.0038030288
0.0041234874
0.0043755349
0.0045277334
0.0045802342
0.0045476357
0.0044518217
0.0043254778
0.0041823106
0.0040327148
0.0038810152
0.0037260668
0.0035711026
0.0034141155
0.0032514165
0.0030871253
0.0029229488
0.0027602515
0.0026011855
0.002444415
0.0022890433
0.0021378837
0.0019907002
0.0018458792
0.0017039093
0.0015664403
0.0014333425
0.001303046
0.0011763967
0.001054038
0.00093811792
0.00082821656
0.00072688025
0.00063060462
0.00056840991
0.00048171136
0.0006671435
-0.0005132687
0.012027987
0.012131671
0.012351336
0.012631741
0.012971493
0.013370845
0.013827932
0.014341957
0.014914248
0.015548034
0.016248319
0.017022236
0.017879646
0.018834496
0.019905734
0.021122633
0.022521997
0.024179669
0.026156594
0.028743288
0.031864096
0.03729446
0.042392542
0.080919763
0.051662766
0.0024954702
0.0010774321
0.0019294433
0.002474175
0.0029128598
0.0031791532
0.003366961
0.0035094166
0.0036119602
0.0036841771
0.0037357746
0.0037729241
0.0037992263
0.0038169739
0.0038281674
0.0038342341
0.0038360183
0.0038343188
0.0038298123
0.0038228902
0.003813869
0.00380303
0.0037905857
0.0037767174
0.0037615534
0.0037451702
0.0037276484
0.0037090487
0.0036894169
0.0036687962
0.0036471922
0.0036245938
0.0036010037
0.0035764103
0.0035507945
0.0035241319
0.0034963956
0.0034675307
0.0034374633
0.0034061205
0.0033734247
0.0033393005
0.0033036634
0.0032664216
0.0032274941
0.0031867831
0.0031441697
0.0030995386
0.0030527817
0.0030037909
0.0029524977
0.0028988587
0.0028429222
0.002784762
0.002724403
0.0026620867
0.0025980975
0.0025328086
0.0024671082
0.002402337
0.0023403872
0.0022841164
0.0022375406
0.0022052731
0.0021923811
0.0022061265
0.0022519666
0.0023355632
0.0024650218
0.0026447491
0.0028751384
0.0031497252
0.0034630589
0.0038030104
0.0041234686
0.0043755174
0.0045277186
0.0045802225
0.0045476271
0.0044518157
0.0043254736
0.0041823077
0.0040327129
0.003881014
0.0037260661
0.0035711023
0.0034141156
0.0032514169
0.0030871259
0.0029229497
0.0027602526
0.0026011868
0.0024444164
0.0022890447
0.0021378852
0.0019907017
0.0018458807
0.0017039109
0.0015664418
0.001433344
0.0013030475
0.0011763982
0.0010540394
0.00093811935
0.00082821797
0.00072688167
0.00063060602
0.00056841144
0.0004817129
0.00066714519
-0.00051326769
0.012027987
0.012131671
0.012351336
0.012631742
0.012971494
0.013370846
0.013827934
0.014341959
0.01491425
0.015548036
0.016248322
0.017022239
0.01787965
0.018834502
0.019905742
0.021122643
0.02252201
0.024179685
0.026156615
0.028743317
0.031864136
0.037294513
0.042392756
0.080895809
0.051701237
0.0025146887
0.0010833997
0.0019323143
0.0024759393
0.0029141004
0.0031800912
0.003367706
0.0035100265
0.0036124709
0.0036846127
0.0037361518
0.0037732545
0.0037995186
0.0038172345
0.0038284015
0.0038344456
0.0038362105
0.0038344943
0.0038299731
0.0038230382
0.0038140056
0.0038031565
0.0037907032
0.0037768268
0.0037616554
0.0037452656
0.0037277377
0.0037091325
0.0036894956
0.0036688703
0.003647262
0.0036246597
0.0036010659
0.0035764691
0.0035508501
0.0035241846
0.0034964456
0.003467578
0.0034375083
0.0034061631
0.0033734652
0.003339339
0.0033036999
0.0032664563
0.003227527
0.0031868145
0.0031441995
0.0030995668
0.0030528085
0.0030038163
0.0029525216
0.0028988813
0.0028429435
0.0027847819
0.0027244217
0.0026621041
0.0025981136
0.0025328233
0.0024671215
0.0024023489
0.0023403976
0.0022841252
0.0022375476
0.0022052781
0.002192384
0.002206127
0.0022519646
0.0023355583
0.0024650139
0.0026447381
0.0028751244
0.0031497084
0.0034630399
0.0038029897
0.0041234476
0.0043754979
0.0045277019
0.0045802094
0.0045476175
0.0044518089
0.0043254689
0.0041823045
0.0040327107
0.0038810127
0.0037260654
0.003571102
0.0034141157
0.0032514173
0.0030871267
0.0029229506
0.0027602538
0.0026011881
0.0024444179
0.0022890463
0.0021378868
0.0019907034
0.0018458825
0.0017039126
0.0015664436
0.0014333457
0.0013030492
0.0011763998
0.0010540411
0.00093812096
0.00082821955
0.00072688325
0.0006306076
0.00056841316
0.00048171462
0.00066714709
-0.00051326656
0.012027987
0.012131672
0.012351337
0.012631743
0.012971495
0.013370847
0.013827935
0.01434196
0.014914253
0.015548039
0.016248325
0.017022244
0.017879656
0.018834509
0.019905751
0.021122655
0.022522024
0.024179704
0.026156638
0.028743348
0.031864179
0.037294566
0.042393009
0.080867387
0.051742079
0.0025362862
0.0010901006
0.0019355396
0.0024779222
0.0029154947
0.0031811454
0.0033685433
0.0035107119
0.0036130447
0.0036851023
0.0037365757
0.0037736258
0.0037998469
0.0038175273
0.0038286645
0.0038346833
0.0038364264
0.0038346914
0.0038301539
0.0038232045
0.0038141591
0.0038032986
0.0037908352
0.0037769496
0.00376177
0.0037453727
0.003727838
0.0037092266
0.0036895841
0.0036689536
0.0036473405
0.0036247337
0.0036011359
0.0035765352
0.0035509127
0.0035242438
0.0034965017
0.0034676313
0.0034375588
0.003406211
0.0033735108
0.0033393822
0.003303741
0.0032664953
0.0032275641
0.0031868497
0.0031442329
0.0030995985
0.0030528385
0.0030038447
0.0029525485
0.0028989067
0.0028429674
0.0027848044
0.0027244426
0.0026621236
0.0025981316
0.0025328398
0.0024671365
0.0024023622
0.0023404093
0.002284135
0.0022375555
0.0022052838
0.0021923872
0.0022061276
0.0022519622
0.0023355528
0.0024650051
0.0026447258
0.0028751087
0.0031496897
0.0034630186
0.0038029665
0.004123424
0.0043754759
0.0045276831
0.0045801948
0.0045476068