/*--------------------------------*- C++ -*----------------------------------*\
| =========                 |                                                 |
| \\      /  F ield         | OpenFOAM: The Open Source CFD Toolbox           |
|  \\    /   O peration     | Version:  2206                                  |
|   \\  /    A nd           | Website:  www.openfoam.com                      |
|    \\/     M anipulation  |                                                 |
\*---------------------------------------------------------------------------*/
FoamFile
{
    version     2.0;
    format      ascii;
    arch        "LSB;label=32;scalar=64";
    class       surfaceScalarField;
    location    "1000";
    object      phi;
}
// * * * * * * * * * * * * * * * * * * * * * * * * * * * * * * * * * * * * * //

dimensions      [0 3 -1 0 0 0 0];

oriented        oriented;

internalField   nonuniform List<scalar> 
25880
(
2.0046032e-06
5.0994935e-11
2.0044753e-06
1.2785936e-10
2.0043081e-06
1.6723978e-10
2.0041174e-06
1.9062152e-10
2.0038988e-06
2.1859685e-10
2.0036484e-06
2.5039086e-10
2.0033629e-06
2.8554045e-10
2.0030376e-06
3.2532565e-10
2.0026662e-06
3.7133565e-10
2.002241e-06
4.2520055e-10
2.0017522e-06
4.8888959e-10
2.0011869e-06
5.6528214e-10
2.0005287e-06
6.5814095e-10
1.9997544e-06
7.7437622e-10
1.9988338e-06
9.2056557e-10
1.9977138e-06
1.119961e-09
1.9963415e-06
1.3722863e-09
1.9945429e-06
1.7986496e-09
1.9922872e-06
2.2556506e-09
1.9887381e-06
3.5490953e-09
1.9843245e-06
4.4136552e-09
1.9737115e-06
1.0613031e-08
1.9678168e-06
5.8946665e-09
9.8841348e-07
9.7940331e-07
4.3611492e-09
9.8405233e-07
2.1061433e-09
2.2550058e-09
1.5944868e-09
5.1165654e-10
1.3472901e-09
2.4719665e-10
1.1945621e-09
1.5272805e-10
1.0862003e-09
1.0836175e-10
1.0034905e-09
8.2709808e-11
9.3712215e-10
6.6368369e-11
8.8224833e-10
5.4873821e-11
8.3583405e-10
4.6414276e-11
7.9581833e-10
4.0015722e-11
7.6079486e-10
3.5023463e-11
7.297744e-10
3.1020464e-11
7.0202683e-10
2.7747572e-11
6.7699393e-10
2.5032901e-11
6.542453e-10
2.2748625e-11
6.334365e-10
2.0808799e-11
6.1429325e-10
1.9143249e-11
5.9659729e-10
1.7695964e-11
5.8016453e-10
1.6432757e-11
5.6484343e-10
1.5321104e-11
5.5050628e-10
1.4337145e-11
5.37045e-10
1.3461285e-11
5.2436747e-10
1.2677527e-11
5.1239483e-10
1.1972644e-11
5.0105891e-10
1.1335913e-11
4.9030019e-10
1.0758724e-11
4.8006656e-10
1.0233624e-11
4.7031234e-10
9.7542243e-12
4.6099726e-10
9.3150821e-12
4.5208586e-10
8.9113944e-12
4.435466e-10
8.5392629e-12
4.353511e-10
8.1955019e-12
4.2747396e-10
7.8771359e-12
4.1989246e-10
7.5815078e-12
4.1258609e-10
7.3063626e-12
4.0553649e-10
7.049605e-12
3.9872726e-10
6.8092301e-12
3.9214365e-10
6.5836053e-12
3.857721e-10
6.3715475e-12
3.7960023e-10
6.1718752e-12
3.7361697e-10
5.9832617e-12
3.678125e-10
5.8044686e-12
3.6217804e-10
5.6344625e-12
3.5670576e-10
5.4722725e-12
3.5138904e-10
5.316721e-12
3.4622241e-10
5.166629e-12
3.4120139e-10
5.0210283e-12
3.3632244e-10
4.8789413e-12
3.3158307e-10
4.7393709e-12
3.2698175e-10
4.6013189e-12
3.225181e-10
4.4636521e-12
3.1819332e-10
4.3247799e-12
3.1401135e-10
4.1819732e-12
3.0997875e-10
4.0325995e-12
3.061039e-10
3.8748505e-12
3.023974e-10
3.706501e-12
2.9887213e-10
3.5252653e-12
2.955436e-10
3.328532e-12
2.9243236e-10
3.1112454e-12
2.8956573e-10
2.866631e-12
2.8697856e-10
2.5871693e-12
2.8471822e-10
2.2603356e-12
2.8284984e-10
1.8683765e-12
2.8145691e-10
1.3929344e-12
2.8063403e-10
8.2287959e-13
2.8047453e-10
1.5949861e-13
2.8109522e-10
-6.2068972e-13
2.8263072e-10
-1.5354917e-12
2.852136e-10
-2.5828826e-12
2.8897406e-10
-3.760463e-12
2.9397713e-10
-5.0030675e-12
3.0019525e-10
-6.2181153e-12
3.0758019e-10
-7.384944e-12
3.1598482e-10
-8.40463e-12
3.2493051e-10
-8.945687e-12
3.3365576e-10
-8.7252557e-12
3.4145737e-10
-7.8016128e-12
3.478697e-10
-6.4123267e-12
3.5281024e-10
-4.9405364e-12
3.5649604e-10
-3.685801e-12
3.5918386e-10
-2.687824e-12
3.6112101e-10
-1.9371506e-12
3.6248652e-10
-1.3655115e-12
3.6339914e-10
-9.1262074e-13
3.6393469e-10
-5.3554583e-13
3.6414874e-10
-2.140504e-13
3.6406661e-10
8.2128381e-14
3.6368572e-10
3.8088639e-13
3.6303084e-10
6.5488292e-13
3.6214359e-10
8.8724431e-13
3.6105691e-10
1.0866886e-12
3.5981487e-10
1.2420396e-12
3.5845631e-10
1.3585598e-12
3.5700976e-10
1.446548e-12
3.5550631e-10
1.5034463e-12
3.5397407e-10
1.5322401e-12
3.5242795e-10
1.5461168e-12
3.5087728e-10
1.550676e-12
3.4933501e-10
1.5422711e-12
3.4781198e-10
1.523023e-12
3.4631077e-10
1.5012117e-12
3.4482949e-10
1.481283e-12
3.4336742e-10
1.4620654e-12
3.4192494e-10
1.4424796e-12
3.4050437e-10
1.4205705e-12
3.39076e-10
1.4283733e-12
3.3766056e-10
1.4154368e-12
3.3611141e-10
1.5491507e-12
3.3455525e-10
1.5561649e-12
3.3284986e-10
1.7053853e-12
1.0218483e-12
2.0344762e-06
1.0284275e-10
2.0343462e-06
2.5788709e-10
2.0341761e-06
3.3734589e-10
2.0339822e-06
3.8451772e-10
2.0337598e-06
4.4094706e-10
2.0335051e-06
5.0507716e-10
2.0332147e-06
5.759738e-10
2.0328838e-06
6.5621797e-10
2.0325061e-06
7.4901449e-10
2.0320737e-06
8.5765067e-10
2.0315765e-06
9.8609737e-10
2.0310016e-06
1.1401606e-09
2.0303323e-06
1.3274274e-09
2.0295449e-06
1.5618317e-09
2.0286088e-06
1.8566343e-09
2.02747e-06
2.2587227e-09
2.0260748e-06
2.7675268e-09
2.0242462e-06
3.6272583e-09
2.0219531e-06
4.5487143e-09
2.0183456e-06
7.1566516e-09
2.0138594e-06
8.8998428e-09
2.0030725e-06
2.1399931e-08
1.9970727e-06
1.1894433e-08
1.0094562e-06
1.9670198e-06
1.3306426e-08
1.9802021e-06
6.4442148e-09
9.1172166e-09
4.878934e-09
2.0769373e-09
4.1225545e-09
1.0035761e-09
3.6552127e-09
6.2006985e-10
3.3236241e-09
4.3995034e-10
3.0705347e-09
3.3579927e-10
2.8674523e-09
2.6945074e-10
2.6995427e-09
2.2278346e-10
2.557519e-09
1.8843793e-10
2.4350751e-09
1.6245968e-10
2.3279074e-09
1.4219114e-10
2.2329887e-09
1.2593915e-10
2.1480848e-09
1.1265145e-10
2.0714876e-09
1.016301e-10
2.0018801e-09
9.2356154e-11
1.9382082e-09
8.4480664e-11
1.8796328e-09
7.7718705e-11
1.8254858e-09
7.1842903e-11
1.7752041e-09
6.6714444e-11
1.728324e-09
6.2201284e-11
1.6844546e-09
5.8206543e-11
1.6432652e-09
5.4650673e-11
1.604474e-09
5.1468724e-11
1.5678396e-09
4.8607005e-11
1.5331536e-09
4.6021971e-11
1.5002336e-09
4.3678672e-11
1.4689204e-09
4.1546849e-11
1.4390741e-09
3.9600558e-11
1.4105714e-09
3.7817709e-11
1.383304e-09
3.6178803e-11
1.3571753e-09
3.466801e-11
1.3320984e-09
3.3272397e-11
1.3079956e-09
3.1979883e-11
1.2847975e-09
3.0779682e-11
1.2624412e-09
2.9662639e-11
1.2408705e-09
2.8620246e-11
1.2200354e-09
2.7644367e-11
1.1998906e-09
2.6728371e-11
1.1803947e-09
2.5867455e-11
1.1615098e-09
2.5056821e-11
1.143202e-09
2.4291085e-11
1.1254412e-09
2.3565218e-11
1.1082006e-09
2.2875024e-11
1.0914564e-09
2.2216562e-11
1.075188e-09
2.1585052e-11
1.059379e-09
2.0975707e-11
1.0440154e-09
2.0384596e-11
1.0290866e-09
1.9807749e-11
1.0145848e-09
1.9241118e-11
1.0005055e-09
1.868065e-11
9.8684741e-10
1.8121743e-11
9.7361425e-10
1.7557938e-11
9.6081806e-10
1.6978159e-11
9.4847894e-10
1.637172e-11
9.3662252e-10
1.5731272e-11
9.2528124e-10
1.5047784e-11
9.1449453e-10
1.4311976e-11
9.0430983e-10
1.3513231e-11
8.9479005e-10
1.2631026e-11
8.8601882e-10
1.1637853e-11
8.7810282e-10
1.0503173e-11
8.7118702e-10
9.1761408e-12
8.654707e-10
7.5846957e-12
8.6120928e-10
5.6543542e-12
8.5869233e-10
3.3398258e-12
8.582054e-10
6.4643584e-13
8.601058e-10
-2.5210959e-12
8.6480547e-10
-6.2351602e-12
8.7270999e-10
-1.0487402e-11
8.8421758e-10
-1.526805e-11
8.9952705e-10
-2.0312539e-11
9.185541e-10
-2.5245158e-11
9.4115093e-10
-2.9981774e-11
9.6686669e-10
-3.4120395e-11
9.9423696e-10
-3.6315956e-11
1.0209322e-09
-3.5420542e-11
1.0448016e-09
-3.1670932e-11
1.0644205e-09
-2.6031298e-11
1.0795367e-09
-2.005674e-11
1.0908143e-09
-1.4963357e-11
1.0990385e-09
-1.0912069e-11
1.104966e-09
-7.8646464e-12
1.1091445e-09
-5.5439524e-12
1.1119371e-09
-3.7052778e-12
1.113576e-09
-2.1744335e-12
1.1142311e-09
-8.6918272e-13
1.11398e-09
3.3330044e-13
1.1128146e-09
1.5462197e-12
1.1108109e-09
2.6586421e-12
1.1080961e-09
3.602006e-12
1.1047711e-09
4.4117058e-12
1.1009707e-09
5.0424198e-12
1.0968138e-09
5.5154817e-12
1.0923877e-09
5.8726784e-12
1.0877874e-09
6.1036791e-12
1.0830991e-09
6.2205939e-12
1.0783683e-09
6.276928e-12
1.0736235e-09
6.2954233e-12
1.0689045e-09
6.2613034e-12
1.0642443e-09
6.1831738e-12
1.0596509e-09
6.0946181e-12
1.0551185e-09
6.0137001e-12
1.0506449e-09
5.9356603e-12
1.0462313e-09
5.8561411e-12
1.0418847e-09
5.7671776e-12
1.0375142e-09
5.7988316e-12
1.0331835e-09
5.7461563e-12
1.0284435e-09
6.2891436e-12
1.0236837e-09
6.3159759e-12
1.0184578e-09
6.9312288e-12
4.1361683e-12
2.0946676e-06
1.5633077e-10
2.0945334e-06
3.9206306e-10
2.0943579e-06
5.1291383e-10
2.0941577e-06
5.846485e-10
2.0939282e-06
6.7044455e-10
2.0936654e-06
7.6794575e-10
2.0933656e-06
8.7573149e-10
2.0930241e-06
9.977243e-10
2.0926343e-06
1.1387957e-09
2.092188e-06
1.3039423e-09
2.0916749e-06
1.4991993e-09
2.0910817e-06
1.7333912e-09
2.0903911e-06
2.0180481e-09
2.0895785e-06
2.3743479e-09
2.0886127e-06
2.8224413e-09
2.0874379e-06
3.4335922e-09
2.0859985e-06
4.2069122e-09
2.0841122e-06
5.5135777e-09
2.0817469e-06
6.9139616e-09
2.0780263e-06
1.0877317e-08
2.0733997e-06
1.3526445e-08
2.0622756e-06
3.2523956e-08
2.0560798e-06
1.809027e-08
1.045925e-06
2.9771746e-06
2.3007927e-08
3.0031192e-06
1.1167594e-08
2.095755e-08
8.4553466e-09
4.7891849e-09
7.1445561e-09
2.3143667e-09
6.334615e-09
1.4300109e-09
5.7599406e-09
1.0146247e-09
5.3213161e-09
7.7442383e-10
4.9693621e-09
6.2140474e-10
4.6783652e-09
5.1378038e-10
4.4322307e-09
4.3457239e-10
4.2200298e-09
3.7466057e-10
4.0343041e-09
3.2791685e-10
3.8698067e-09
2.9043649e-10
3.7226657e-09
2.5979253e-10
3.5899205e-09
2.3437523e-10
3.4692888e-09
2.1298786e-10
3.3589439e-09
1.948256e-10
3.2574313e-09
1.7923133e-10
3.1635934e-09
1.6568075e-10
3.0764542e-09
1.5385368e-10
2.9952099e-09
1.434456e-10
2.9191833e-09
1.3423309e-10
2.8478013e-09
1.2603268e-10
2.7805754e-09
1.186946e-10
2.7170874e-09
1.1209503e-10
2.6569758e-09
1.0613355e-10
2.599925e-09
1.0072954e-10
2.5456586e-09
9.5813227e-11
2.4939344e-09
9.1324785e-11
2.4445388e-09
8.7213265e-11
2.3972839e-09
8.3433702e-11
2.3520023e-09
7.994959e-11
2.3085436e-09
7.6731098e-11
2.2667731e-09
7.375037e-11
2.2265703e-09
7.0982531e-11
2.1878265e-09
6.8406465e-11
2.1504442e-09
6.6002555e-11
2.1143365e-09
6.3752038e-11
2.0794252e-09
6.1639623e-11
2.0456385e-09
5.9654231e-11
2.0129105e-09
5.7784797e-11
1.9811827e-09
5.6018901e-11
1.9504029e-09
5.4344951e-11
1.9205247e-09
5.2753269e-11
1.8915065e-09
5.1234764e-11
1.8633131e-09
4.9778414e-11
1.8359156e-09
4.8373183e-11
1.8092902e-09
4.7010001e-11
1.7834183e-09
4.5679713e-11
1.7582864e-09
4.4372983e-11
1.7338866e-09
4.3080461e-11
1.7102168e-09
4.1791536e-11
1.6872834e-09
4.049131e-11
1.6651074e-09
3.9154242e-11
1.6437234e-09
3.7755694e-11
1.623176e-09
3.6278703e-11
1.6035213e-09
3.4702455e-11
1.5848277e-09
3.3005537e-11
1.5671775e-09
3.1163445e-11
1.5506797e-09
2.9128846e-11
1.5354792e-09
2.6838303e-11
1.521761e-09
2.4221369e-11
1.5097764e-09
2.1160787e-11
1.4998707e-09
1.7490401e-11
1.4924865e-09
1.3038561e-11
1.4881258e-09
7.7005522e-12
1.4872833e-09
1.4888527e-12
1.4905783e-09
-5.8160835e-12
1.4987246e-09
-1.4381453e-11
1.512425e-09
-2.4187754e-11
1.5323693e-09
-3.5212382e-11
1.558902e-09
-4.6845251e-11
1.591877e-09
-5.8220111e-11
1.6310377e-09
-6.9142481e-11
1.6756021e-09
-7.8684803e-11
1.7230325e-09
-8.3746342e-11
1.7692925e-09
-8.1680567e-11
1.8106554e-09
-7.3033878e-11
1.8446534e-09
-6.0029266e-11
1.8708489e-09
-4.6252223e-11
1.8903927e-09
-3.4507194e-11
1.9046456e-09
-2.5164912e-11
1.9149183e-09
-1.8137411e-11
1.92216e-09
-1.2785645e-11
1.9270001e-09
-8.5453577e-12
1.9298407e-09
-5.0150087e-12
1.9309763e-09
-2.0048418e-12
1.9305413e-09
7.683493e-13
1.928522e-09
3.5655576e-12
1.9250496e-09
6.131044e-12
1.9203449e-09
8.3066156e-12
1.9145828e-09
1.0173895e-11
1.9079967e-09
1.1628444e-11
1.9007928e-09
1.2719412e-11
1.8931223e-09
1.3543133e-11
1.8851502e-09
1.4075862e-11
1.8770252e-09
1.4345515e-11
1.8688267e-09
1.4475427e-11
1.8606041e-09
1.4518058e-11
1.852426e-09
1.4439378e-11
1.84435e-09
1.4259223e-11
1.8363896e-09
1.4054994e-11
1.8285349e-09
1.3868364e-11
1.8207822e-09
1.3688361e-11
1.8131334e-09
1.3504966e-11
1.8056008e-09
1.3299783e-11
1.798027e-09
1.3372697e-11
1.7905221e-09
1.3251058e-11
1.782308e-09
1.4503153e-11
1.7740608e-09
1.4563241e-11
1.7649991e-09
1.5992874e-11
9.5249746e-12
2.1860743e-06
2.1227668e-10
2.1859339e-06
5.3244574e-10
2.1857502e-06
6.9664448e-10
2.1855407e-06
7.9409455e-10
2.1853005e-06
9.1062166e-10
2.1850254e-06
1.0430417e-09
2.1847118e-06
1.1894249e-09
2.1843544e-06
1.3550963e-09
2.1839465e-06
1.5466705e-09
2.1834795e-06
1.770932e-09
2.1829426e-06
2.0360744e-09
2.182322e-06
2.3540778e-09
2.1815994e-06
2.7405952e-09
2.1807494e-06
3.2243783e-09
2.179739e-06
3.8327783e-09
2.1785101e-06
4.6625487e-09
2.1770045e-06
5.7124499e-09
2.1750317e-06
7.4864184e-09
2.1725582e-06
9.3874806e-09
2.1686677e-06
1.4767764e-08
2.1638303e-06
1.8363888e-08
2.1522e-06
4.4154283e-08
2.1457122e-06
2.4578059e-08
1.0986658e-06
4.0242209e-06
3.4039956e-08
4.0677451e-06
1.6558831e-08
3.8438675e-08
1.2537696e-08
8.8103193e-09
1.0594115e-08
4.2579476e-09
9.3930865e-09
2.6310398e-09
8.5409212e-09
1.8667901e-09
7.8905032e-09
1.4248419e-09
7.3686117e-09
1.1432962e-09
6.937111e-09
9.4528111e-10
6.5721348e-09
7.9954863e-10
6.2574776e-09
6.8931769e-10
5.9820797e-09
6.0331483e-10
5.7381602e-09
5.34356e-10
5.5199772e-09
4.779755e-10
5.323141e-09
4.3121138e-10
5.144267e-09
3.9186188e-10
4.9806465e-09
3.5844611e-10
4.8301228e-09
3.2975504e-10
4.6909794e-09
3.0482417e-10
4.5617688e-09
2.8306429e-10
4.4412992e-09
2.6391515e-10
4.3285667e-09
2.4696564e-10
4.2227211e-09
2.3187827e-10
4.1230382e-09
2.1837743e-10
4.0288979e-09
2.0623534e-10
3.9397643e-09
1.9526723e-10
3.855169e-09
1.8532478e-10
3.7747026e-09
1.7627961e-10
3.6980058e-09
1.6802165e-10
3.6247619e-09
1.6045716e-10
3.5546921e-09
1.5350343e-10
3.4875484e-09
1.4709327e-10
3.4231077e-09
1.4117181e-10
3.3611703e-09
1.356878e-10
3.3015574e-09
1.3059546e-10
3.2441079e-09
1.2585596e-10
3.1886772e-09
1.2143319e-10
3.1351366e-09
1.1729264e-10
3.0833701e-09
1.1340618e-10
3.0332709e-09
1.0975342e-10
2.9847417e-09
1.0631401e-10
2.9376955e-09
1.0306508e-10
2.8920551e-09
9.9985318e-11
2.8477515e-09
9.7056916e-11
2.8047231e-09
9.4263145e-11
2.7629178e-09
9.158373e-11
2.7222926e-09
8.8998367e-11
2.6828122e-09
8.6490365e-11
2.6444491e-09
8.4042882e-11
2.6071833e-09
8.163874e-11
2.571003e-09
7.9260732e-11
2.5359053e-09
7.6889334e-11
2.5018994e-09
7.4497132e-11
2.4690165e-09
7.2037148e-11
2.4373082e-09
6.9464049e-11
2.4068403e-09
6.6746615e-11
2.3776962e-09
6.3846557e-11
2.3499772e-09
6.072447e-11
2.3238054e-09
5.7335232e-11
2.2993425e-09
5.359176e-11
2.2768035e-09
4.9377328e-11
2.2564626e-09
4.4562295e-11
2.2386924e-09
3.8930945e-11
2.2240052e-09
3.2177597e-11
2.213057e-09
2.3986749e-11
2.2065925e-09
1.4165098e-11
2.2053453e-09
2.7360115e-12
2.2102332e-09
-1.0703954e-11
2.2223148e-09
-2.6463021e-11
2.2426319e-09
-4.4504863e-11
2.2722073e-09
-6.4787789e-11
2.3115515e-09
-8.618946e-11
2.3604478e-09
-1.0711639e-10
2.4185152e-09
-1.2720991e-10
2.4845932e-09
-1.4476286e-10
2.5549193e-09
-1.5407238e-10
2.6235092e-09
-1.5027046e-10
2.6848384e-09
-1.3436306e-10
2.7352482e-09
-1.104391e-10
2.7740897e-09
-8.5093707e-11
2.8030691e-09
-6.3486666e-11
2.8242037e-09
-4.6299475e-11
2.8394369e-09
-3.3370573e-11
2.8501756e-09
-2.3524383e-11
2.8573532e-09
-1.5722916e-11
2.8615658e-09
-9.227657e-12
2.8632503e-09
-3.6893462e-12
2.8626057e-09
1.4130035e-12
2.8596118e-09
6.5594658e-12
2.8544632e-09
1.1279651e-11
2.8474874e-09
1.5282395e-11
2.8389434e-09
1.8717866e-11
2.8291778e-09
2.139404e-11
2.818496e-09
2.3401265e-11
2.8071224e-09
2.4916732e-11
2.7953013e-09
2.5896879e-11
2.7832538e-09
2.6393047e-11
2.7710972e-09
2.6632062e-11
2.7589048e-09
2.6710463e-11
2.7467784e-09
2.6565719e-11
2.7348033e-09
2.6234306e-11
2.7229998e-09
2.5858552e-11
2.711353e-09
2.5515146e-11
2.6998574e-09
2.5183924e-11
2.6885159e-09
2.484648e-11
2.6773467e-09
2.4468954e-11
2.6661165e-09
2.4602906e-11
2.6549886e-09
2.437897e-11
2.6428098e-09
2.6681988e-11
2.6305822e-09
2.6790788e-11
2.6171426e-09
2.9432556e-11
1.7510588e-11
2.3100584e-06
2.7154225e-10
2.3099097e-06
6.8120747e-10
2.3097149e-06
8.9139105e-10
2.3094929e-06
1.0161111e-09
2.3092383e-06
1.1652106e-09
2.3089467e-06
1.3346385e-09
2.3086142e-06
1.5219253e-09
2.3082354e-06
1.733881e-09
2.3078031e-06
1.9789665e-09
2.3073082e-06
2.2658598e-09
2.3067392e-06
2.6050401e-09
2.3060815e-06
3.0118296e-09
2.3053158e-06
3.5062457e-09
2.3044151e-06
4.1250604e-09
2.3033447e-06
4.9032456e-09
2.3020427e-06
5.9645484e-09
2.3004478e-06
7.3073358e-09
2.2983581e-06
9.5761346e-09
2.2957383e-06
1.2007278e-08
2.2916184e-06
1.8887642e-08
2.286496e-06
2.3486278e-08
2.2741814e-06
5.6468869e-08
2.2673002e-06
3.1459321e-08
1.1688041e-06
5.1227169e-06
4.70514e-08
5.1894978e-06
2.2940402e-08
6.2549673e-08
1.7370239e-08
1.4380482e-08
1.4677642e-08
6.9505451e-09
1.3013631e-08
4.2950507e-09
1.1832962e-08
3.0474587e-09
1.0931817e-08
2.3259869e-09
1.0208753e-08
1.8663602e-09
9.6109243e-09
1.5431099e-09
9.105264e-09
1.305209e-09
8.6693207e-09
1.125261e-09
8.2877707e-09
9.8486487e-10
7.9498334e-09
8.7229333e-10
7.6475531e-09
7.8025571e-10
7.3748482e-09
7.0391635e-10
7.1270289e-09
6.3968112e-10
6.9003428e-09
5.8513226e-10
6.6918016e-09
5.3829617e-10
6.4990273e-09
4.9759852e-10
6.3200143e-09
4.6207728e-10
6.1531116e-09
4.3081789e-10
5.996928e-09
4.0314923e-10
5.8502859e-09
3.7852036e-10
5.7121819e-09
3.5648141e-10
5.5817568e-09
3.3666049e-10
5.458268e-09
3.1875601e-10
5.3410669e-09
3.0252585e-10
5.2295861e-09
2.8776041e-10
5.1233277e-09
2.7428003e-10
5.0218532e-09
2.6193168e-10
4.9247763e-09
2.5058034e-10
4.8317532e-09
2.4011636e-10
4.7424749e-09
2.3045012e-10
4.6566647e-09
2.2149797e-10
4.574075e-09
2.131852e-10
4.4944826e-09
2.054484e-10
4.4176871e-09
1.9822865e-10
4.3435101e-09
1.9146961e-10
4.271791e-09
1.8512535e-10
4.2023818e-09
1.7916258e-10
4.1351477e-09
1.7354807e-10
4.0699683e-09
1.6824452e-10
4.0067365e-09
1.6321711e-10
3.9453567e-09
1.5843679e-10
3.8857436e-09
1.5387623e-10
3.8278249e-09
1.4950236e-10
3.7715413e-09
1.4528202e-10
3.7168437e-09
1.4118797e-10
3.6636939e-09
1.371927e-10
3.6120644e-09
1.3326818e-10
3.5619388e-09
1.2938632e-10
3.5133129e-09
1.2551523e-10
3.4661999e-09
1.2161016e-10
3.4206426e-09
1.1759445e-10
3.3767126e-09
1.1339408e-10
3.3345011e-09
1.0895808e-10
3.2941237e-09
1.0422395e-10
3.2557208e-09
9.9127351e-11
3.2194615e-09
9.3594565e-11
3.1855698e-09
8.7483429e-11
3.1543438e-09
8.0603383e-11
3.1261633e-09
7.2742755e-11
3.1015448e-09
6.3549433e-11
3.081198e-09
5.2524434e-11
3.0660314e-09
3.915336e-11
3.0570772e-09
2.3119307e-11
3.0553519e-09
4.4612463e-12
3.0621264e-09
-1.7478393e-11
3.0788674e-09
-4.3204055e-11
3.1070182e-09
-7.2655605e-11
3.1479952e-09
-1.0576485e-10
3.2025057e-09
-1.4069992e-10
3.2702492e-09
-1.7485994e-10
3.3506973e-09
-2.0765794e-10
3.4422408e-09
-2.3630636e-10
3.5396674e-09
-2.5149905e-10
3.6346879e-09
-2.4529094e-10
3.7196504e-09
-2.1932555e-10
3.789487e-09
-1.8027573e-10
3.843298e-09
-1.3890471e-10
3.8834473e-09
-1.0363597e-10
3.9127288e-09
-7.5580927e-11
3.9338345e-09
-5.4476342e-11
3.9487136e-09
-3.8403457e-11
3.9586588e-09
-2.566809e-11
3.9644962e-09
-1.5065054e-11
3.9668309e-09
-6.0240204e-12
3.9659385e-09
2.3053907e-12
3.9617912e-09
1.0706698e-11
3.9546587e-09
1.8412214e-11
3.9449946e-09
2.4946472e-11
3.9331579e-09
3.0554596e-11
3.9196286e-09
3.4923311e-11
3.9048299e-09
3.8199995e-11
3.8890728e-09
4.0673817e-11
3.8726958e-09
4.2273855e-11
3.856005e-09
4.30839e-11
3.8391629e-09
4.3474076e-11
3.8222714e-09
4.360201e-11
3.8054714e-09
4.3365756e-11
3.7888808e-09
4.282482e-11
3.772528e-09
4.2211427e-11
3.7563923e-09
4.1650784e-11
3.7404662e-09
4.1110019e-11
3.7247536e-09
4.0559121e-11
3.7092797e-09
3.9942813e-11
3.6937215e-09
4.0161108e-11
3.6783051e-09
3.9795439e-11
3.6614335e-09
4.3553515e-11
3.6444949e-09
4.3729446e-11
3.625873e-09
4.8054395e-11
2.8570797e-11
2.4684677e-06
3.3504828e-10
2.4683082e-06
8.4067287e-10
2.4680994e-06
1.1002103e-09
2.4678613e-06
1.2541865e-09
2.4675883e-06
1.4382109e-09
2.4672756e-06
1.6473153e-09
2.4669191e-06
1.8784518e-09
2.466513e-06
2.1400203e-09
2.4660495e-06
2.4424601e-09
2.4655188e-06
2.7964777e-09
2.4649089e-06
3.2150008e-09
2.4642038e-06
3.7169304e-09
2.4633831e-06
4.3269584e-09
2.4624177e-06
5.0904469e-09
2.4612704e-06
6.0505254e-09
2.4598751e-06
7.359855e-09
2.4581661e-06
9.0163558e-09
2.4559271e-06
1.1815147e-08
2.4531204e-06
1.4813932e-08
2.4487075e-06
2.3300588e-08
2.4432211e-06
2.8972651e-08
2.4300325e-06
6.9657445e-08
2.4226488e-06
3.8843056e-08
1.2577808e-06
6.2875849e-06
6.2803704e-08
6.3844749e-06
3.0693995e-08
9.4659382e-08
2.324212e-08
2.1832357e-08
1.9639486e-08
1.055318e-08
1.7412888e-08
6.5216485e-09
1.5833041e-08
4.6273054e-09
1.4627229e-08
3.5317987e-09
1.3659719e-08
2.8338708e-09
1.2859784e-08
2.3430444e-09
1.2183179e-08
1.9818144e-09
1.1599862e-08
1.7085779e-09
1.1089328e-08
1.4953985e-09
1.0637152e-08
1.3244697e-09
1.0232687e-08
1.1847204e-09
9.8677959e-09
1.0688075e-09
9.5362034e-09
9.7127366e-10
9.2328882e-09
8.8844751e-10
8.953852e-09
8.1733232e-10
8.6959126e-09
7.5553798e-10
8.4563864e-09
7.0160343e-10
8.2330644e-09
6.5413994e-10
8.024085e-09
6.1212859e-10
7.8278726e-09
5.7473279e-10
7.6430845e-09
5.4126946e-10
7.468571e-09
5.1117398e-10
7.3033387e-09
4.8398837e-10
7.1465195e-09
4.5934501e-10
6.9973543e-09
4.3692564e-10
6.8551768e-09
4.1645746e-10
6.7194004e-09
3.9770814e-10
6.5895081e-09
3.8047266e-10
6.4650399e-09
3.6458451e-10
6.3455824e-09
3.4990764e-10
6.2307653e-09
3.3631501e-10
6.1202573e-09
3.2369321e-10
6.0137598e-09
3.1194593e-10
5.9110047e-09
3.0098373e-10
5.8117533e-09
2.9072106e-10
5.7157904e-09
2.810882e-10
5.6229184e-09
2.7203457e-10
5.5329568e-09
2.6350974e-10
5.4457442e-09
2.5545705e-10
5.3611377e-09
2.4782365e-10
5.2790091e-09
2.4056541e-10
5.1992444e-09
2.3364087e-10
5.121747e-09
2.2699977e-10
5.0464372e-09
2.205918e-10
4.9732496e-09
2.1437558e-10
4.902133e-09
2.0830936e-10
4.8330506e-09
2.0235055e-10
4.7659804e-09
1.9645649e-10
4.7009169e-09
1.9057877e-10
4.6378776e-09
1.8464944e-10
4.5769199e-09
1.785521e-10
4.5181396e-09
1.721744e-10
4.4616588e-09
1.6543888e-10
4.4076321e-09
1.5825068e-10
4.3562474e-09
1.5051206e-10
4.3077309e-09
1.4211103e-10
4.2623827e-09
1.328317e-10
4.2206013e-09
1.2238472e-10
4.1828955e-09
1.104486e-10
4.1499561e-09
9.6488783e-11
4.122733e-09
7.9747599e-11
4.1024411e-09
5.9445205e-11
4.0904626e-09
3.5097835e-11
4.0881576e-09
6.7662365e-12
4.0972253e-09
-2.6546136e-11
4.119629e-09
-6.5607728e-11
4.1572991e-09
-1.1032571e-10
4.2121307e-09
-1.605964e-10
4.2850696e-09
-2.1363882e-10
4.375714e-09
-2.6550433e-10
4.4833553e-09
-3.1529926e-10
4.6058391e-09
-3.5879018e-10
4.7361921e-09
-3.8185204e-10
4.8633245e-09
-3.7242339e-10
4.9770011e-09
-3.330021e-10
5.0704419e-09
-2.7371648e-10
5.1424417e-09
-2.1090457e-10
5.1961637e-09
-1.5735798e-10
5.2353451e-09
-1.1476228e-10
5.2635874e-09
-8.2718696e-11
5.2834982e-09
-5.8314247e-11
5.2968071e-09
-3.8976917e-11
5.3046194e-09
-2.2877362e-11
5.3077447e-09
-9.1493263e-12
5.3065518e-09
3.4982635e-12
5.3010037e-09
1.6254844e-11
5.2914608e-09
2.795505e-11
5.2785306e-09
3.7876703e-11
5.2626932e-09
4.6391968e-11
5.2445911e-09
5.3025472e-11
5.2247902e-09
5.8000804e-11
5.2037071e-09
6.1756929e-11
5.1817945e-09
6.4186447e-11
5.1594619e-09
6.5416553e-11
5.136927e-09
6.6009001e-11
5.1143258e-09
6.6203185e-11
5.091847e-09
6.5844514e-11
5.0696486e-09
6.5023283e-11
5.0477681e-09
6.4091919e-11
5.0261783e-09
6.3240554e-11
5.004869e-09
6.241936e-11
4.9838453e-09
6.158281e-11
4.9631411e-09
6.0646988e-11
4.9423244e-09
6.0977814e-11
4.9216973e-09
6.0422528e-11
4.8991247e-09
6.6126121e-11
4.8764624e-09
6.6391707e-11
4.8515444e-09
7.2972474e-11
4.3367497e-11
2.6636626e-06
4.0379099e-10
2.6634899e-06
1.0133612e-09
2.6632637e-06
1.3264192e-09
2.6630058e-06
1.5121073e-09
2.6627101e-06
1.7339632e-09
2.6623713e-06
1.9860417e-09
2.6619851e-06
2.2646674e-09
2.6615452e-06
2.5799607e-09
2.6610431e-06
2.9445019e-09
2.6604684e-06
3.3711929e-09
2.6598078e-06
3.8756103e-09
2.6590442e-06
4.4805275e-09
2.6581555e-06
5.2156922e-09
2.6571102e-06
6.1357605e-09
2.655868e-06
7.2926819e-09
2.6543575e-06
8.8704027e-09
2.6525075e-06
1.0866328e-08
2.6500841e-06
1.4238517e-08
2.6470468e-06
1.7851301e-08
2.642272e-06
2.807533e-08
2.6363363e-06
3.4908344e-08
2.622069e-06
8.3924764e-08
2.6140643e-06
4.6847793e-08
1.3673954e-06
7.5342538e-06
8.2214304e-08
7.669656e-06
4.0283327e-08
1.3659036e-07
3.0504674e-08
3.161101e-08
2.5776563e-08
1.528129e-08
2.2854099e-08
9.4441129e-09
2.0780505e-08
6.700899e-09
1.919785e-08
5.1144536e-09
1.792799e-08
4.1037314e-09
1.6878077e-08
3.3929575e-09
1.5990035e-08
2.869856e-09
1.5224438e-08
2.4741751e-09
1.4554371e-08
2.1654655e-09
1.3960898e-08
1.9179421e-09
1.3430048e-08
1.7155711e-09
1.2951137e-08
1.5477179e-09
1.2515931e-08
1.4064801e-09
1.2117838e-08
1.2865402e-09
1.1751612e-08
1.1835589e-09
1.1413074e-08
1.0940757e-09
1.1098704e-08
1.0159739e-09
1.08056e-08
9.4724304e-10
1.0531322e-08
8.8640727e-10
1.0273799e-08
8.322552e-10
1.0031271e-08
7.837977e-10
9.8022279e-09
7.4021714e-10
9.585366e-09
7.0085035e-10
9.3795461e-09
6.6516491e-10
9.1837717e-09
6.327e-10
8.9971686e-09
6.0306057e-10
8.8189666e-09
5.7591018e-10
8.6484873e-09
5.5095195e-10
8.485127e-09
5.279448e-10
8.328343e-09
5.0669163e-10
8.1776495e-09
4.8700855e-10
8.0326114e-09
4.687313e-10
7.8928369e-09
4.5172043e-10
7.7579742e-09
4.358464e-10
7.6277099e-09
4.2098537e-10
7.5017617e-09
4.0703636e-10
7.3798702e-09
3.9392613e-10
7.2617983e-09
3.8158162e-10
7.1473345e-09
3.6992081e-10
7.036291e-09
3.5886717e-10
6.9284996e-09
3.4835678e-10
6.8238109e-09
3.3832961e-10
6.7220978e-09
3.2871289e-10
6.6232558e-09
3.1943378e-10
6.527199e-09
3.1043233e-10
6.4338603e-09
3.0164809e-10
6.3431915e-09
2.9301937e-10
6.2551636e-09
2.844844e-10
6.1697693e-09
2.7597307e-10
6.0870317e-09
2.6738697e-10
6.0070263e-09
2.5855757e-10
5.9298785e-09
2.493222e-10
5.8557487e-09
2.3956863e-10
5.7848399e-09
2.2915952e-10
5.7173986e-09
2.1795331e-10
5.653722e-09
2.0578766e-10
5.5942037e-09
1.9234997e-10
5.5393673e-09
1.7722115e-10
5.4898803e-09
1.5993561e-10
5.4466498e-09
1.3971931e-10
5.4109223e-09
1.1547505e-10
5.3842919e-09
8.6075665e-11
5.3685737e-09
5.0816042e-11
5.365553e-09
9.786938e-12
5.3774583e-09
-3.8451441e-11
5.4068669e-09
-9.5016355e-11
5.4563119e-09
-1.5977074e-10
5.5282799e-09
-2.325644e-10
5.6240121e-09
-3.0937102e-10
5.7429811e-09
-3.8447331e-10
5.8842551e-09
-4.5657327e-10
6.0450044e-09
-5.1953953e-10
6.2160784e-09
-5.5292599e-10
6.3829244e-09
-5.3926937e-10
6.5321132e-09
-4.8219091e-10
6.6547477e-09
-3.9635096e-10
6.7492442e-09
-3.0540107e-10
6.8197543e-09
-2.2786814e-10
6.8711815e-09
-1.6618944e-10
6.908252e-09
-1.1978916e-10
6.9343874e-09
-8.4449694e-11
6.9518576e-09
-5.6447131e-11
6.9621135e-09
-3.3133293e-11
6.9662176e-09
-1.3253361e-11
6.9646538e-09
5.0620758e-12
6.9573735e-09
2.3535072e-11
6.9448501e-09
4.0478496e-11
6.9278806e-09
5.4846203e-11
6.9070955e-09
6.717709e-11
6.8833377e-09
7.6783218e-11
6.8573505e-09
8.3988078e-11
6.8296802e-09
8.9427181e-11
6.8009212e-09
9.2945437e-11
6.7716108e-09
9.472698e-11
6.7420349e-09
9.5584928e-11
6.712372e-09
9.5866028e-11
6.6828698e-09
9.5346731e-11
6.6537354e-09
9.41577e-11
6.6250183e-09
9.2809009e-11
6.5966828e-09
9.157601e-11
6.5687155e-09
9.0386692e-11
6.5411231e-09
8.9175175e-11
6.5139501e-09
8.7819982e-11
6.4866299e-09
8.829804e-11
6.4595585e-09
8.7493951e-11
6.4299357e-09
9.5748928e-11
6.4001952e-09
9.6132195e-11
6.3674902e-09
1.0567745e-10
6.2786373e-11
2.8985522e-06
4.7886025e-10
2.8983635e-06
1.2020338e-09
2.8981163e-06
1.5736588e-09
2.8978344e-06
1.7940314e-09
2.8975111e-06
2.0572343e-09
2.8971409e-06
2.3562736e-09
2.8967187e-06
2.6867891e-09
2.8962379e-06
3.0607775e-09
2.8956893e-06
3.4931574e-09
2.8950612e-06
3.9992276e-09
2.8943394e-06
4.5974557e-09
2.8935051e-06
5.3148414e-09
2.8925341e-06
6.1866492e-09
2.8913922e-06
7.2776785e-09
2.8900354e-06
8.6494982e-09
2.8883856e-06
1.0520202e-08
2.8863653e-06
1.2886597e-08
2.8837192e-06
1.6884585e-08
2.8804032e-06
2.1167322e-08
2.8751916e-06
3.3286917e-08
2.8687135e-06
4.1386506e-08
2.853144e-06
9.9494197e-08
2.8443879e-06
5.560396e-08
1.4998589e-06
8.8787827e-06
1.0640843e-07
9.0631066e-06
5.2281866e-08
1.9071692e-07
3.9592448e-08
4.4300428e-08
3.3456126e-08
2.1417612e-08
2.9662859e-08
1.323738e-08
2.6971392e-08
9.3923663e-09
2.491716e-08
7.1686857e-09
2.326895e-08
5.7519412e-09
2.1906225e-08
4.7556825e-09
2.0753603e-08
4.0224782e-09
1.9759911e-08
3.4678671e-09
1.8890214e-08
3.0351619e-09
1.8119935e-08
2.688222e-09
1.7430934e-08
2.4045716e-09
1.6809349e-08
2.1693031e-09
1.6244488e-08
1.9713405e-09
1.5727799e-08
1.8032295e-09
1.525247e-08
1.6588882e-09
1.4813078e-08
1.533467e-09
1.4405054e-08
1.4239983e-09
1.4024633e-08
1.327664e-09
1.3668644e-08
1.2423957e-09
1.3334404e-08
1.1664955e-09
1.3019625e-08
1.0985768e-09
1.2722348e-08
1.0374938e-09
1.2440882e-08
9.8231697e-10
1.2173747e-08
9.3229994e-10
1.191965e-08
8.8679683e-10
1.1677456e-08
8.4525395e-10
1.1446167e-08
8.0719975e-10
1.1224901e-08
7.7221815e-10
1.1012874e-08
7.399712e-10
1.0809383e-08
7.1018265e-10
1.0613797e-08
6.8259474e-10
1.0425551e-08
6.5697726e-10
1.0244137e-08
6.3313475e-10
1.0069098e-08
6.1088567e-10
9.9000265e-09
5.9005644e-10
9.7365573e-09
5.7050552e-10
9.5783532e-09
5.5213025e-10
9.4251066e-09
5.348282e-10
9.276543e-09
5.1848445e-10
9.1324185e-09
5.0299169e-10
8.9925149e-09
4.8826037e-10
8.8566382e-09
4.7420632e-10
8.7246235e-09
4.6072759e-10
8.5963352e-09
4.4772206e-10
8.4716618e-09
4.351057e-10
8.3505161e-09
4.2279378e-10
8.2328357e-09
4.1069983e-10
8.1185828e-09
3.9873727e-10
8.0077481e-09
3.8680778e-10
7.9003616e-09
3.7477344e-10
7.7965211e-09
3.623981e-10
7.6963895e-09
3.4945375e-10
7.6001751e-09
3.3578303e-10
7.5081412e-09
3.2119347e-10
7.4206079e-09
3.054866e-10
7.3379609e-09
2.8843467e-10
7.2607113e-09
2.695995e-10
7.1895388e-09
2.4839366e-10
7.1253101e-09
2.2416439e-10
7.0692024e-09
1.9582693e-10
7.0228342e-09
1.6184333e-10
6.9882726e-09
1.2063722e-10
6.967876e-09
7.121264e-11
6.9639614e-09
1.37015e-11
6.9794188e-09
-5.3908833e-11
7.0175944e-09