/*--------------------------------*- C++ -*----------------------------------*\
| =========                 |                                                 |
| \\      /  F ield         | OpenFOAM: The Open Source CFD Toolbox           |
|  \\    /   O peration     | Version:  2206                                  |
|   \\  /    A nd           | Website:  www.openfoam.com                      |
|    \\/     M anipulation  |                                                 |
\*---------------------------------------------------------------------------*/
FoamFile
{
    version     2.0;
    format      ascii;
    arch        "LSB;label=32;scalar=64";
    class       volVectorField;
    location    "1000";
    object      U;
}
// * * * * * * * * * * * * * * * * * * * * * * * * * * * * * * * * * * * * * //

dimensions      [0 1 -1 0 0 0 0];

internalField   nonuniform List<vector> 
13056
(
(0.99999999 6.3597194e-10 5.0513149e-25)
(0.99995216 1.8096407e-09 0)
(0.99987432 2.6859728e-09 0)
(0.99978596 3.4732987e-09 0)
(0.99968492 4.5173037e-09 0)
(0.99956879 5.8657811e-09 0)
(0.99943611 7.5787582e-09 0)
(0.99928501 9.7757984e-09 0)
(0.99911277 1.2621013e-08 0)
(0.99891593 1.6326396e-08 0)
(0.99869015 2.1174176e-08 0)
(0.99842999 2.7561838e-08 0)
(0.99812826 3.6035404e-08 0)
(0.99777576 4.7464509e-08 0)
(0.99735851 6.2917768e-08 0)
(0.99686051 8.4938426e-08 0)
(0.9962454 1.147946e-07 0)
(0.99549529 1.6475144e-07 0)
(0.99445935 2.2426499e-07 0)
(0.99324591 3.7909532e-07 0)
(0.99094382 5.0049773e-07 0)
(0.98882295 1.2606711e-06 0)
(0.98043918 7.2330783e-07 -5.2258985e-21)
(0.98279113 0.00012235899 8.8464698e-18)
(0.003115636 0.00012283628 0)
(0.0012266687 7.3412941e-08 -1.2359696e-20)
(0.00087311813 4.7934879e-08 4.0982255e-18)
(0.00071701995 6.0840003e-09 0)
(0.00062674277 3.7272815e-09 0)
(0.00056476584 2.6203932e-09 0)
(0.0005186972 1.9816722e-09 0)
(0.00048228892 1.5750025e-09 0)
(0.00045251103 1.2894784e-09 0)
(0.00042756292 1.0797378e-09 0)
(0.00040621987 9.21299e-10 0)
(0.00038765201 7.9783746e-10 0)
(0.00037128722 6.9898751e-10 0)
(0.00035671133 6.1828905e-10 0)
(0.0003436105 5.5144542e-10 0)
(0.00033174194 4.9527503e-10 0)
(0.0003209193 4.4761928e-10 0)
(0.00031098537 4.0674915e-10 2.7889078e-26)
(0.00030182391 3.7128961e-10 0)
(0.00029333346 3.4036492e-10 0)
(0.00028543192 3.1317702e-10 0)
(0.00027805024 2.8913171e-10 0)
(0.00027113011 2.6774327e-10 0)
(0.00026462204 2.4861629e-10 0)
(0.00025848366 2.3142493e-10 0)
(0.00025267867 2.159045e-10 0)
(0.0002471754 2.0184096e-10 0)
(0.00024194612 1.8905026e-10 0)
(0.00023696662 1.7737548e-10 0)
(0.00023221553 1.6668326e-10 0)
(0.00022767406 1.5685712e-10 0)
(0.00022332565 1.478015e-10 0)
(0.00021915538 1.3943699e-10 0)
(0.00021514986 1.3169094e-10 0)
(0.00021129715 1.2449927e-10 0)
(0.00020758652 1.1780716e-10 0)
(0.00020400827 1.1156475e-10 0)
(0.00020055376 1.0572588e-10 0)
(0.00019721529 1.0025231e-10 0)
(0.00019398584 9.5114272e-11 0)
(0.0001908589 9.0283276e-11 0)
(0.00018782863 8.5730097e-11 0)
(0.00018488984 8.142817e-11 0)
(0.00018203792 7.7355197e-11 0)
(0.00017926872 7.3490883e-11 0)
(0.00017657861 6.9813209e-11 0)
(0.00017396459 6.6301581e-11 0)
(0.0001714242 6.2939435e-11 0)
(0.00016895544 5.9711118e-11 0)
(0.00016655682 5.6601842e-11 0)
(0.00016422731 5.359799e-11 0)
(0.00016196644 5.0685438e-11 0)
(0.0001597743 4.7846359e-11 0)
(0.00015765201 4.5052373e-11 0)
(0.00015560241 4.2279214e-11 0)
(0.00015362923 3.9514138e-11 0)
(0.00015173711 3.6741883e-11 0)
(0.000149932 3.3949068e-11 0)
(0.00014822084 3.1121777e-11 0)
(0.00014661218 2.8226446e-11 0)
(0.00014511804 2.5219689e-11 0)
(0.00014375374 2.2059152e-11 0)
(0.0001425388 1.8669139e-11 0)
(0.00014150114 1.4940941e-11 0)
(0.00014067801 1.0804821e-11 0)
(0.00014011564 2.3155917e-11 0)
(0.00013986234 1.5794515e-12 -8.968232e-26)
(0.00013996287 -4.3538343e-12 0)
(0.00014048959 -1.0158301e-11 0)
(0.00014150442 -1.648854e-11 0)
(0.00014307797 -2.3116117e-11 0)
(0.00014526942 -2.9573532e-11 0)
(0.00014808345 -3.5295514e-11 0)
(0.00015148718 -4.0196555e-11 0)
(0.00015546579 -4.3824034e-11 0)
(0.00015988452 -4.4647254e-11 0)
(0.00016439554 -4.1616911e-11 0)
(0.00016858478 -3.5538852e-11 0)
(0.00017216714 -1.0475371e-10 8.9474524e-21)
(0.00017496511 -2.040125e-11 0)
(0.00017708063 -1.4462291e-11 0)
(0.00017862896 -9.9991296e-12 0)
(0.00017975183 -6.8227082e-12 0)
(0.00018055351 -4.5462087e-12 0)
(0.00018110768 -2.868159e-12 0)
(0.00018145839 -1.5877199e-12 0)
(0.00018163696 -6.2380038e-13 0)
(0.00018166733 2.5765271e-13 0)
(0.00018155008 9.1434271e-13 0)
(0.00018128792 1.5381199e-12 0)
(0.00018090008 2.0868895e-12 0)
(0.00018040274 2.5580971e-12 0)
(0.00017981591 2.9251911e-12 0)
(0.00017916358 3.2005358e-12 0)
(0.00017846051 3.4086356e-12 0)
(0.00017772039 3.5433134e-12 0)
(0.00017696055 3.6115502e-12 0)
(0.00017619171 3.644557e-12 0)
(0.00017541802 3.6555952e-12 0)
(0.00017464463 3.6360155e-12 0)
(0.00017387933 3.5907628e-12 0)
(0.00017312515 3.5394563e-12 0)
(0.00017238161 3.4925712e-12 0)
(0.0001716473 3.4474413e-12 0)
(0.00017092294 3.4013351e-12 0)
(0.00017020817 3.3497936e-12 0)
(0.00016950567 3.3681369e-12 0)
(0.00016878308 3.3386146e-12 0)
(0.0001680936 3.6521193e-12 0)
(0.00016723728 1.3845768e-11 0)
(0.00016654193 3.9753873e-12 4.8228716e-24)
(0.00016553074 9.1287288e-12 0)
(0.99999999 1.9191976e-09 0)
(0.99995207 5.4623156e-09 0)
(0.99987407 8.1083052e-09 0)
(0.99978551 1.0485286e-08 0)
(0.99968424 1.3636887e-08 0)
(0.99956785 1.7707534e-08 0)
(0.99943488 2.2878394e-08 0)
(0.99928344 2.9510305e-08 0)
(0.99911084 3.8098561e-08 0)
(0.99891357 4.9282957e-08 0)
(0.99868732 6.3915221e-08 0)
(0.99842662 8.3194874e-08 0)
(0.99812428 1.0876962e-07 0)
(0.99777108 1.4326372e-07 0)
(0.99735303 1.8990153e-07 0)
(0.99685409 2.5635755e-07 0)
(0.99623784 3.464564e-07 0)
(0.99548641 4.9720909e-07 0)
(0.99444871 6.7678986e-07 0)
(0.99323329 1.1439659e-06 0)
(0.99092772 1.5102745e-06 0)
(0.98880369 3.8040637e-06 0)
(0.98040767 2.1813331e-06 1.9397699e-20)
(0.98275577 0.00036775518 -7.4180397e-21)
(0.0093580277 0.00036966539 0)
(0.0036980649 1.2072266e-06 0)
(0.0026323634 2.7009053e-07 3.8027088e-22)
(0.0021617901 1.275208e-07 0)
(0.0018895991 7.8096143e-08 0)
(0.0017027355 5.4910559e-08 0)
(0.0015638349 4.1523129e-08 0)
(0.0014540636 3.3001666e-08 0)
(0.0013642834 2.7018937e-08 0)
(0.0012890651 2.2623919e-08 0)
(0.0012247164 1.9303848e-08 0)
(0.0011687351 1.6716758e-08 0)
(0.0011193961 1.4645443e-08 0)
(0.0010754506 1.2954501e-08 0)
(0.0010359525 1.155386e-08 0)
(0.0010001696 1.0376927e-08 0)
(0.00096754015 9.3785222e-09 -2.9001229e-25)
(0.00093759013 8.5221903e-09 -3.6249758e-26)
(0.00090996908 7.7791249e-09 0)
(0.00088437109 7.1311448e-09 0)
(0.00086054861 6.561465e-09 0)
(0.00083829348 6.0576368e-09 0)
(0.00081742991 5.6094844e-09 0)
(0.00079780864 5.2087204e-09 0)
(0.00077930199 4.8485175e-09 0)
(0.00076180046 4.5233275e-09 0)
(0.0007452086 4.2286637e-09 0)
(0.00072944282 3.9606707e-09 0)
(0.00071443008 3.7160596e-09 0)
(0.00070010599 3.4920364e-09 0)
(0.00068641388 3.2861617e-09 0)
(0.00067330381 3.0964309e-09 0)
(0.00066073082 2.9211795e-09 0)
(0.00064865456 2.7588873e-09 0)
(0.00063703901 2.6082101e-09 0)
(0.0006258518 2.4679995e-09 0)
(0.00061506371 2.3372113e-09 0)
(0.00060464867 2.2148782e-09 0)
(0.00059458349 2.1001983e-09 0)
(0.00058484699 1.9925477e-09 0)
(0.00057541955 1.8913298e-09 0)
(0.00056628356 1.7959315e-09 0)
(0.00055742337 1.7057969e-09 0)
(0.00054882509 1.6204584e-09 0)
(0.0005404762 1.5394899e-09 0)
(0.00053236572 1.4624316e-09 0)
(0.00052448467 1.3888514e-09 0)
(0.00051682563 1.3184006e-09 0)
(0.00050938253 1.2507514e-09 0)
(0.00050215088 1.1855939e-09 0)
(0.00049512761 1.1226417e-09 0)
(0.00048831125 1.0615995e-09 0)
(0.00048170215 1.0020926e-09 0)
(0.00047530362 9.4352663e-10 0)
(0.00046912426 8.8539304e-10 0)
(0.00046317528 8.2741998e-10 0)
(0.00045747071 7.6928962e-10 0)
(0.00045202849 7.1072105e-10 0)
(0.00044686951 6.5141893e-10 0)
(0.00044201961 5.9067986e-10 0)
(0.00043751498 5.2759497e-10 0)
(0.00043340186 4.6126989e-10 0)
(0.00042973913 3.9010659e-10 0)
(0.00042661093 3.1190566e-10 0)
(0.00042412961 2.2472853e-10 0)
(0.00042243451 1.3006565e-10 3.6631863e-27)
(0.00042167132 2.362037e-11 2.9416276e-25)
(0.000421975 -8.9942286e-11 0)
(0.00042356363 -2.1452047e-10 0)
(0.00042662389 -3.4723157e-10 0)
(0.00043136863 -4.8601157e-10 0)
(0.00043797617 -6.2101307e-10 0)
(0.00044646058 -7.4051156e-10 0)
(0.00045672273 -8.4286571e-10 0)
(0.00046871767 -9.1826674e-10 0)
(0.00048203892 -9.3450109e-10 0)
(0.00049563807 -8.7040907e-10 0)
(0.00050826696 -7.4222032e-10 0)
(0.00051906639 -5.8948651e-10 -5.7928021e-25)
(0.00052750141 -4.2574079e-10 0)
(0.00053387919 -3.0160639e-10 0)
(0.00053854716 -2.08528e-10 0)
(0.00054193254 -1.4224877e-10 0)
(0.00054434961 -9.4738715e-11 0)
(0.00054602049 -5.9709776e-11 0)
(0.00054707795 -3.2975368e-11 0)
(0.00054761641 -1.2355239e-11 0)
(0.00054770805 4.4123305e-12 0)
(0.00054735461 1.9305846e-11 0)
(0.00054656428 3.2349377e-11 0)
(0.00054539498 4.3825134e-11 0)
(0.00054389558 5.3675054e-11 0)
(0.0005421264 6.1347281e-11 0)
(0.0005401597 6.7101855e-11 0)
(0.00053804002 7.1447141e-11 0)
(0.00053580869 7.4256986e-11 0)
(0.00053351786 7.5678875e-11 0)
(0.0005311999 7.6364036e-11 0)
(0.00052886734 7.6588995e-11 0)
(0.00052653568 7.6173699e-11 0)
(0.00052422839 7.5222944e-11 0)
(0.00052195461 7.4145577e-11 0)
(0.00051971294 7.3161217e-11 0)
(0.00051749911 7.2211907e-11 0)
(0.00051531527 7.1244511e-11 0)
(0.00051316035 7.0162303e-11 0)
(0.00051104244 7.0547822e-11 0)
(0.00050886402 6.9907865e-11 0)
(0.00050678534 7.651416e-11 0)
(0.00050420409 7.7972624e-11 0)
(0.00050210767 8.4276862e-11 -7.4600683e-24)
(0.00049905901 5.1126614e-11 1.153614e-24)
(0.99999999 3.2335303e-09 0)
(0.99995197 9.204035e-09 0)
(0.99987379 1.3663824e-08 0)
(0.999785 1.7669794e-08 0)
(0.99968349 2.2980766e-08 0)
(0.99956681 2.9840347e-08 0)
(0.99943351 3.855378e-08 0)
(0.9992817 4.9728984e-08 0)
(0.99910868 6.4200427e-08 0)
(0.99891095 8.3046015e-08 0)
(0.99868416 1.0770066e-07 0)
(0.99842287 1.4018514e-07 0)
(0.99811985 1.832752e-07 0)
(0.99776588 2.4139161e-07 0)
(0.99734692 3.1996563e-07 0)
(0.99684693 4.3192545e-07 0)
(0.99622943 5.8371079e-07 0)
(0.99547652 8.3766872e-07 0)
(0.99443686 1.1401741e-06 0)
(0.99321926 1.9271032e-06 0)
(0.99090982 2.5441225e-06 0)
(0.98878228 6.4079829e-06 0)
(0.98037272 3.6774581e-06 -1.0276963e-20)
(0.98271659 0.00061688872 6.7909082e-55)
(0.015703213 0.00062125491 -6.7887241e-55)
(0.0062243343 3.3847812e-06 0)
(0.0044308315 7.7152709e-07 -2.0356429e-22)
(0.0036388211 3.7021339e-07 0)
(0.0031806457 2.2673731e-07 0)
(0.0028661013 1.594241e-07 0)
(0.0026322905 1.2055459e-07 0)
(0.0024475162 9.5813009e-08 0)
(0.0022963932 7.8443385e-08 0)
(0.0021697816 6.5683293e-08 0)
(0.0020614666 5.6044e-08 0)
(0.0019672366 4.8532849e-08 0)
(0.0018841874 4.2519222e-08 0)
(0.001810217 3.7609957e-08 0)
(0.0017437325 3.3543526e-08 0)
(0.0016835018 3.0126591e-08 0)
(0.001628579 2.7227966e-08 0)
(0.0015781664 2.4741818e-08 0)
(0.001531674 2.2584529e-08 0)
(0.0014885869 2.0703293e-08 0)
(0.0014484884 1.9049383e-08 0)
(0.0014110281 1.7586655e-08 0)
(0.0013759101 1.6285568e-08 0)
(0.0013428832 1.512206e-08 0)
(0.0013117324 1.4076312e-08 0)
(0.0012822735 1.3132214e-08 0)
(0.0012543458 1.2276741e-08 0)
(0.0012278085 1.1498699e-08 0)
(0.0012025388 1.078854e-08 0)
(0.0011784282 1.0138152e-08 0)
(0.0011553814 9.5404541e-09 0)
(0.0011333143 8.9896255e-09 0)
(0.0011121512 8.4808334e-09 0)
(0.0010918242 8.0096646e-09 0)
(0.0010722727 7.5722168e-09 0)
(0.0010534422 7.165156e-09 0)
(0.0010352835 6.7854501e-09 0)
(0.0010177527 6.4302921e-09 0)
(0.0010008108 6.097353e-09 0)
(0.00098442214 5.7848215e-09 0)
(0.00096855369 5.4909652e-09 0)
(0.0009531758 5.2140047e-09 0)
(0.00093826214 4.952326e-09 0)
(0.00092378935 4.704571e-09 0)
(0.00090973631 4.4695034e-09 0)
(0.00089608458 4.2457878e-09 0)
(0.00088281903 4.0321703e-09 0)
(0.00086992716 3.8276384e-09 0)
(0.00085739875 3.6312399e-09 0)
(0.00084522627 3.4420755e-09 0)
(0.00083340454 3.2593133e-09 0)
(0.00082193108 3.0820961e-09 0)
(0.00081080647 2.9093358e-09 0)
(0.00080003633 2.7393077e-09 0)
(0.00078963508 2.5705355e-09 0)
(0.00077962162 2.402229e-09 0)
(0.00077001957 2.2334662e-09 0)
(0.00076085911 2.0634313e-09 0)
(0.00075217543 1.8912648e-09 0)
(0.00074401203 1.7149251e-09 0)
(0.00073642984 1.5317734e-09 0)
(0.0007295067 1.3392124e-09 0)
(0.00072334175 1.1326046e-09 0)
(0.00071807662 9.0555932e-10 0)
(0.00071390044 6.5250629e-10 0)
(0.00071104767 3.7163483e-10 7.5870804e-27)
(0.00070976372 6.9581312e-11 -1.5594565e-25)
(0.00071027559 -2.6144828e-10 0)
(0.00071295039 -6.2276764e-10 0)
(0.0007181023 -1.0080424e-09 0)
(0.0007260895 -1.4109386e-09 0)
(0.00073721206 -1.8028745e-09 0)
(0.00075149363 -2.1498147e-09 0)
(0.00076876731 -2.4469552e-09 0)
(0.0007889571 -2.6658227e-09 0)
(0.00081137859 -2.7129782e-09 0)
(0.0008342674 -2.5269376e-09 0)
(0.00085552294 -2.1548914e-09 0)
(0.00087369951 -1.6843009e-09 0)
(0.00088789678 -1.2361195e-09 0)
(0.00089863162 -8.757493e-10 0)
(0.00090648881 -6.0550157e-10 0)
(0.00091218726 -4.1306225e-10 0)
(0.00091625589 -2.7511411e-10 0)
(0.00091906851 -1.7340246e-10 0)
(0.00092084862 -9.577704e-11 0)
(0.00092175514 -3.5963374e-11 0)
(0.00092190951 1.2928265e-11 0)
(0.0009213147 5.6027663e-11 0)
(0.00091998448 9.3900483e-11 0)
(0.00091801636 1.2722006e-10 0)
(0.0009154926 1.5581844e-10 0)
(0.00091251474 1.7809517e-10 0)
(0.00090920439 1.9480389e-10 0)
(0.00090563656 2.0741987e-10 0)
(0.00090188079 2.1557885e-10 0)
(0.00089802487 2.1970846e-10 0)
(0.00089412327 2.216982e-10 0)
(0.0008901971 2.2235136e-10 0)
(0.00088627246 2.2114632e-10 0)
(0.00088238883 2.1838698e-10 0)
(0.00087856159 2.1525919e-10 0)
(0.00087478841 2.1240111e-10 0)
(0.00087106211 2.0964463e-10 0)
(0.00086738628 2.0683602e-10 0)
(0.00086375915 2.0369373e-10 0)
(0.00086019431 2.0481152e-10 0)
(0.00085652772 2.0294975e-10 0)
(0.0008530289 2.2212892e-10 0)
(0.00084868474 2.2271801e-10 0)
(0.00084515601 2.4487308e-10 0)
(0.00084002445 1.4575824e-10 0)
(0.99999999 4.5990567e-09 1.0825344e-24)
(0.99995187 1.3092672e-08 0)
(0.99987347 1.9438739e-08 0)
(0.99978444 2.5138394e-08 0)
(0.99968264 3.2694021e-08 0)
(0.99956564 4.2452555e-08 0)
(0.99943198 5.4848155e-08 0)
(0.99927976 7.0745434e-08 0)
(0.99910627 9.1331247e-08 0)
(0.99890801 1.1813866e-07 0)
(0.99868064 1.5320842e-07 0)
(0.99841867 1.9941443e-07 0)
(0.99811489 2.6070405e-07 0)
(0.99776005 3.4336409e-07 0)
(0.99734008 4.5511756e-07 0)
(0.99683893 6.1434933e-07 0)
(0.99622002 8.3021216e-07 0)
(0.99546547 1.1913679e-06 0)
(0.99442362 1.6215368e-06 0)
(0.99320358 2.7405159e-06 0)
(0.99088983 3.6178814e-06 0)
(0.98875838 9.1122609e-06 0)
(0.98033376 5.2335013e-06 0)
(0.98267296 0.00087341902 -3.5428922e-55)
(0.022242717 0.00088144303 3.5417631e-55)
(0.0088430971 6.9800981e-06 0)
(0.0062953199 1.590617e-06 0)
(0.0051701257 7.6255645e-07 0)
(0.0045191228 4.6704938e-07 0)
(0.0040722002 3.2839484e-07 0)
(0.0037399861 2.483268e-07 0)
(0.0034774512 1.9736053e-07 0)
(0.0032627304 1.6158141e-07 0)
(0.0030828364 1.3529732e-07 0)
(0.0029289395 1.154415e-07 0)
(0.0027950554 9.9969462e-08 0)
(0.0026770577 8.758224e-08 0)
(0.0025719594 7.7469901e-08 0)
(0.0024774975 6.9093684e-08 0)
(0.0023919211 6.205535e-08 0)
(0.0023138862 5.6084661e-08 0)
(0.0022422597 5.0963606e-08 0)
(0.002176203 4.6519964e-08 0)
(0.0021149846 4.2644948e-08 0)
(0.0020580124 3.9238188e-08 0)
(0.0020047886 3.622523e-08 0)
(0.0019548928 3.3545225e-08 0)
(0.0019079681 3.114861e-08 0)
(0.001863709 2.8994559e-08 0)
(0.0018218537 2.7049892e-08 0)
(0.0017821739 2.5287775e-08 0)
(0.0017444696 2.3685154e-08 0)
(0.0017085663 2.2222358e-08 0)
(0.00167431 2.088268e-08 0)
(0.001641565 1.9651534e-08 0)
(0.001610212 1.8516931e-08 0)
(0.0015801434 1.7468916e-08 0)
(0.0015512628 1.6498397e-08 0)
(0.001523484 1.5597337e-08 0)
(0.0014967295 1.4758869e-08 0)
(0.0014709295 1.3976748e-08 0)
(0.0014460217 1.324519e-08 0)
(0.0014219506 1.25594e-08 0)
(0.0013986656 1.1915646e-08 0)
(0.0013761196 1.1310359e-08 0)
(0.0013542706 1.0739873e-08 0)
(0.0013330812 1.0200866e-08 0)
(0.0013125182 9.6905382e-09 0)
(0.0012925516 9.2063441e-09 0)
(0.0012731551 8.7455332e-09 0)
(0.0012543073 8.3055225e-09 0)
(0.0012359905 7.8842263e-09 0)
(0.00121819 7.4796831e-09 0)
(0.0012008953 7.0900404e-09 0)
(0.0011840989 6.7135845e-09 0)
(0.0011677973 6.3485496e-09 0)
(0.0011519913 5.9926939e-09 0)
(0.001136689 5.642466e-09 0)
(0.0011219108 5.2948249e-09 0)
(0.0011076836 4.9481417e-09 0)
(0.001094041 4.6005182e-09 0)
(0.0010810257 4.250273e-09 0)
(0.0010686879 3.8956333e-09 0)
(0.0010570894 3.5323939e-09 0)
(0.0010463166 3.1551191e-09 0)
(0.0010364804 2.7584571e-09 0)
(0.0010277215 2.332857e-09 0)
(0.0010202411 1.8651581e-09 0)
(0.0010143082 1.3438962e-09 0)
(0.0010102554 7.6609285e-10 -4.074719e-27)
(0.0010084321 1.4299667e-10 0)
(0.0010091603 -5.3870374e-10 0)
(0.0010129616 -1.2830073e-09 0)
(0.0010202825 -2.0765934e-09 0)
(0.0010316317 -2.906453e-09 0)
(0.0010474354 -3.7137193e-09 0)
(0.0010677273 -4.4283025e-09 0)
(0.00109227 -5.0402737e-09 0)
(0.0011209552 -5.4909547e-09 0)
(0.0011528102 -5.5879625e-09 0)
(0.0011853287 -5.2047061e-09 0)
(0.0012155264 -4.4383961e-09 0)
(0.0012413503 -3.4726461e-09 6.6859331e-25)
(0.001261521 -2.546069e-09 0)
(0.0012767728 -1.8038367e-09 0)
(0.0012879364 -1.2472135e-09 0)
(0.0012960331 -8.5084177e-10 0)
(0.0013018141 -5.6669984e-10 0)
(0.0013058106 -3.5719191e-10 0)
(0.0013083401 -1.9729789e-10 0)
(0.0013096284 -7.4082713e-11 0)
(0.0013098479 2.6603088e-11 0)
(0.001309003 1.1539928e-10 0)
(0.0013071132 1.9341246e-10 0)
(0.001304317 2.6204543e-10 0)
(0.0013007313 3.209523e-10 0)
(0.0012965004 3.6683932e-10 0)
(0.0012917972 4.0125606e-10 0)
(0.001286728 4.2724167e-10 0)
(0.0012813919 4.4404774e-10 0)
(0.0012759135 4.5255482e-10 0)
(0.0012703701 4.5665316e-10 0)
(0.0012647919 4.5799781e-10 0)
(0.0012592158 4.5551582e-10 0)
(0.001253698 4.4983278e-10 0)
(0.0012482603 4.4338992e-10 0)
(0.0012428994 4.375021e-10 0)
(0.0012376051 4.3182329e-10 0)
(0.0012323826 4.2603758e-10 0)
(0.0012272293 4.1956451e-10 0)
(0.0012221644 4.2186367e-10 0)
(0.0012169551 4.1802505e-10 0)
(0.0012119841 4.5752223e-10 0)
(0.0012058128 4.5915464e-10 0)
(0.0012007992 5.0459688e-10 0)
(0.0011935083 3.0020484e-10 0)
(0.99999999 6.0366464e-09 0)
(0.99995175 1.7187833e-08 0)
(0.99987312 2.5521812e-08 0)
(0.99978381 3.3005954e-08 0)
(0.99968169 4.2926026e-08 0)
(0.99956433 5.5738068e-08 0)
(0.99943025 7.201197e-08 0)
(0.99927757 9.2882567e-08 0)
(0.99910355 1.199077e-07 0)
(0.99890471 1.550996e-07 0)
(0.99867667 2.0113673e-07 0)
(0.99841395 2.6179094e-07 0)
(0.99810932 3.4224272e-07 0)
(0.99775349 4.5074278e-07 0)
(0.9973324 5.9742553e-07 0)
(0.99682993 8.0641855e-07 0)
(0.99620946 1.0897264e-06 0)
(0.99545305 1.5637044e-06 0)
(0.99440876 2.1282167e-06 0)
(0.99318597 3.5965848e-06 0)
(0.9908674 4.7478786e-06 0)
(0.98873158 1.1958005e-05 0)
(0.98029014 6.8735037e-06 0)
(0.98262414 0.0011409791 0)
(0.029069154 0.0011539368 0)
(0.011593341 1.2147286e-05 0)
(0.0082536094 2.7598115e-06 0)
(0.0067785276 1.322516e-06 0)
(0.0059249792 8.1005282e-07 0)
(0.0053390072 5.6957196e-07 0)
(0.0049034293 4.3069907e-07 0)
(0.0045592169 3.4229987e-07 0)
(0.0042776955 2.8024445e-07 0)
(0.0040418359 2.3465732e-07 0)
(0.0038400618 2.0021909e-07 0)
(0.0036645274 1.7338427e-07 0)
(0.003509822 1.5189994e-07 0)
(0.0033720292 1.3436124e-07 0)
(0.0032481816 1.1983367e-07 0)
(0.0031359839 1.0762654e-07 0)
(0.0030336739 9.727112e-08 0)
(0.0029397659 8.8389287e-08 0)
(0.0028531604 8.0682375e-08 0)
(0.0027728983 7.3961675e-08 0)
(0.0026982034 6.8053107e-08 0)
(0.002628423 6.282754e-08 0)
(0.0025630058 5.8179436e-08 0)
(0.0025014839 5.4022836e-08 0)
(0.0024434569 5.0286934e-08 0)
(0.0023885814 4.6914182e-08 0)
(0.0023365582 4.3858037e-08 0)
(0.0022871251 4.1078515e-08 0)
(0.0022400532 3.8541502e-08 0)
(0.0021951406 3.6218021e-08 0)
(0.0021522095 3.4082775e-08 0)
(0.0021111033 3.2114969e-08 0)
(0.0020716812 3.0297336e-08 0)
(0.0020338165 2.8614111e-08 0)
(0.0019973963 2.7051353e-08 0)
(0.0019623192 2.5597151e-08 0)
(0.0019284936 2.4240674e-08 0)
(0.0018958376 2.2971895e-08 0)
(0.0018642785 2.1782493e-08 0)
(0.00183375 2.0665995e-08 0)
(0.0018041905 1.9616214e-08 0)
(0.0017755448 1.8626791e-08 0)
(0.0017477639 1.7691961e-08 0)
(0.0017208042 1.6806874e-08 0)
(0.0016946264 1.596711e-08 0)
(0.0016691961 1.5167901e-08 0)
(0.0016444852 1.4404768e-08 0)
(0.0016204703 1.3674091e-08 0)
(0.0015971325 1.2972471e-08 0)
(0.0015744577 1.2296692e-08 0)
(0.0015524363 1.1643783e-08 0)
(0.0015310636 1.1010682e-08 0)
(0.0015103407 1.0393498e-08 0)
(0.0014902781 9.7860751e-09 0)
(0.0014709027 9.1831388e-09 0)
(0.0014522497 8.5818617e-09 0)
(0.001434363 7.978953e-09 0)
(0.001417299 7.3714953e-09 0)
(0.0014011231 6.7564099e-09 0)
(0.0013859166 6.1264033e-09 0)
(0.0013717928 5.4720479e-09 0)
(0.0013588969 4.7840592e-09 0)
(0.0013474136 4.0458746e-09 0)
(0.0013376068 3.2346723e-09 0)
(0.0013298289 2.3305979e-09 0)
(0.001324516 1.3291071e-09 0)
(0.0013221267 2.4763903e-10 0)
(0.0013230824 -9.3459173e-10 0)
(0.0013280675 -2.2255153e-09 0)
(0.0013376669 -3.601862e-09 0)
(0.0013525477 -5.0410856e-09 0)
(0.0013732684 -6.4411034e-09 0)
(0.0013998731 -7.6803756e-09 0)
(0.0014320508 -8.7416222e-09 0)
(0.0014696585 -9.5230434e-09 0)
(0.0015114207 -9.6911144e-09 0)
(0.0015540523 -9.0263498e-09 0)
(0.001593641 -7.697371e-09 0)
(0.0016274965 -6.025652e-09 0)
(0.0016539409 -4.4156655e-09 0)
(0.001673937 -3.1284647e-09 0)
(0.0016885736 -2.1631314e-09 0)
(0.0016991894 -1.4757025e-09 0)
(0.0017067694 -9.8290262e-10 0)
(0.0017120097 -6.195359e-10 0)
(0.0017153265 -3.4221912e-10 0)
(0.0017170159 -1.2850967e-10 0)
(0.0017173041 4.6109618e-11 0)
(0.0017161966 2.0012713e-10 0)
(0.0017137192 3.3543435e-10 0)
(0.0017100533 4.5447061e-10 0)
(0.0017053524 5.5663625e-10 0)
(0.0016998056 6.3622229e-10 0)
(0.0016936394 6.9591431e-10 0)
(0.0016869935 7.4098159e-10 0)
(0.0016799976 7.7012981e-10 0)
(0.001672815 7.8488571e-10 0)
(0.0016655473 7.9199368e-10 0)
(0.0016582339 7.943248e-10 0)
(0.0016509234 7.9002052e-10 0)
(0.0016436892 7.8016528e-10 0)
(0.00163656 7.6899084e-10 0)
(0.0016295316 7.5877804e-10 0)
(0.0016225905 7.4892749e-10 0)
(0.0016157435 7.3889207e-10 0)
(0.0016089872 7.276648e-10 0)
(0.0016023469 7.3164591e-10 0)
(0.0015955175 7.249852e-10 0)
(0.0015890001 7.9346495e-10 0)
(0.0015809104 7.9666337e-10 0)
(0.0015743371 8.7535565e-10 -9.6102312e-24)
(0.0015647782 5.2059825e-10 1.4861403e-24)
(0.99999999 7.5685272e-09 0)
(0.99995161 2.1553127e-08 0)
(0.99987272 3.20079e-08 0)
(0.99978309 4.1395266e-08 0)
(0.99968062 5.3836449e-08 0)
(0.99956285 6.9904136e-08 0)
(0.9994283 9.0312864e-08 0)
(0.9992751 1.1648539e-07 0)
(0.99910049 1.5037488e-07 0)
(0.99890099 1.9450411e-07 0)
(0.99867219 2.5223099e-07 0)
(0.99840863 3.2828402e-07 0)
(0.99810303 4.2915722e-07 0)
(0.9977461 5.6519329e-07 0)
(0.99732374 7.4909468e-07 0)
(0.99681979 1.0111059e-06 0)
(0.99619754 1.366265e-06 0)
(0.99543905 1.9604253e-06 0)
(0.994392 2.668023e-06 0)
(0.99316613 4.5084721e-06 0)
(0.99084215 5.9514698e-06 0)
(0.9887014 1.4988879e-05 0)
(0.98024111 8.6233216e-06 0)
(0.98256932 0.0014232513 0)
(0.036277322 0.0014426973 0)
(0.014515999 1.9042607e-05 0)
(0.010334878 4.3451906e-06 0)
(0.0084880018 2.0823241e-06 0)
(0.0074191692 1.2755117e-06 0)
(0.0066854032 8.968526e-07 0)
(0.0061399592 6.7817955e-07 0)
(0.0057089346 5.3898099e-07 0)
(0.0053564139 4.4126842e-07 0)
(0.0050610709 3.6948703e-07 0)
(0.004808411 3.1526025e-07 0)
(0.0045886092 2.73006e-07 0)
(0.0043948898 2.3917693e-07 0)
(0.0042223483 2.1156076e-07 0)
(0.0040672692 1.8868591e-07 0)
(0.003926778 1.6946487e-07 0)
(0.0037986679 1.5315947e-07 0)
(0.0036810788 1.3917436e-07 0)
(0.0035726338 1.2703931e-07 0)
(0.0034721318 1.1645711e-07 -8.9569399e-35)
(0.003378601 1.0715369e-07 0)
(0.003291224 9.8925693e-08 0)
(0.0032093106 9.1606957e-08 0)
(0.0031322747 8.5062129e-08 0)
(0.003059615 7.917972e-08 0)
(0.0029909016 7.3869119e-08 0)
(0.0029257598 6.9057035e-08 0)
(0.0028638612 6.4680511e-08 0)
(0.0028049192 6.0685833e-08 0)
(0.002748681 5.7027375e-08 0)
(0.002694924 5.3665306e-08 0)
(0.0026434522 5.0566883e-08 0)
(0.002594089 4.7704916e-08 0)
(0.002546676 4.5054582e-08 0)
(0.0025010718 4.2593931e-08 0)
(0.0024571493 4.0304207e-08 0)
(0.0024147938 3.8168358e-08 0)
(0.0023739029 3.6170595e-08 0)
(0.0023343856 3.4297818e-08 0)
(0.0022961587 3.2539833e-08 0)
(0.0022591452 3.0886895e-08 0)
(0.0022232759 2.9328995e-08 0)
(0.0021884894 2.7857056e-08 0)
(0.0021547312 2.6463438e-08 0)
(0.0021219521 2.5141184e-08 0)
(0.002090109 2.3882787e-08 0)
(0.0020591666 2.2681193e-08 0)
(0.0020290959 2.1530705e-08 0)
(0.0019998728 2.0425966e-08 0)
(0.00197148 1.9361916e-08 0)
(0.0019439052 1.8333874e-08 0)
(0.0019171429 1.7337017e-08 0)
(0.0018911941 1.6365223e-08 0)
(0.0018660723 1.5408797e-08 0)
(0.0018418108 1.4459436e-08 0)
(0.0018184539 1.3512684e-08 0)
(0.0017960567 1.2563363e-08 0)
(0.0017746895 1.1606875e-08 0)
(0.0017544345 1.0638368e-08 0)
(0.0017353932 9.646357e-09 0)
(0.0017177079 8.615997e-09 0)
(0.0017015602 7.5326653e-09 0)
(0.0016871815 6.3702877e-09 0)
(0.0016749022 5.0929314e-09 0)
(0.0016651637 3.6694018e-09 0)
(0.0016585116 2.0924951e-09 0)
(0.0016555213 3.8946906e-10 0)
(0.0016567193 -1.4720014e-09 0)
(0.0016629629 -3.5046565e-09 0)
(0.0016749845 -5.6717668e-09 0)
(0.0016936191 -7.9378304e-09 0)
(0.0017195659 -1.0142138e-08 0)
(0.0017528801 -1.2093345e-08 0)
(0.0017931723 -1.3764139e-08 0)
(0.0018402624 -1.4994202e-08 0)
(0.001892553 -1.5258597e-08 0)
(0.0019459317 -1.4211813e-08 0)
(0.0019955 -1.2119411e-08 0)
(0.0020378914 -9.4878572e-09 0)
(0.0020710032 -6.9525811e-09 0)
(0.0020960418 -4.9259505e-09 0)
(0.00211437 -3.4060435e-09 0)
(0.0021276635 -2.3236708e-09 0)
(0.0021371559 -1.5477277e-09 0)
(0.0021437183 -9.7557244e-10 0)
(0.0021478722 -5.3891141e-10 0)
(0.0021499883 -2.024e-10 0)
(0.0021503497 7.2559831e-11 0)
(0.0021489634 3.1507884e-10 0)
(0.0021458615 5.2813617e-10 0)
(0.0021412716 7.1557013e-10 0)
(0.0021353855 8.7643702e-10 0)
(0.0021284401 1.0017528e-09 0)
(0.0021207191 1.0957439e-09 0)
(0.0021123976 1.166704e-09 0)
(0.0021036376 1.2126008e-09 0)
(0.002094644 1.2358377e-09 0)
(0.0020855438 1.2470299e-09 0)
(0.0020763862 1.250699e-09 0)
(0.0020672323 1.2439225e-09 0)
(0.002058174 1.2284068e-09 0)
(0.0020492472 1.2108118e-09 0)
(0.0020404465 1.1947292e-09 0)
(0.0020317552 1.1792168e-09 0)
(0.0020231817 1.1634139e-09 0)
(0.0020147218 1.145735e-09 0)
(0.0020064072 1.1519922e-09 0)
(0.0019978561 1.1415022e-09 0)
(0.0019896953 1.2492832e-09 0)
(0.0019795672 1.2543365e-09 0)
(0.0019713364 1.3784994e-09 0)
(0.001959367 8.1942361e-10 -8.4818646e-25)
(0.99999999 9.2186143e-09 0)
(0.99995146 2.6257133e-08 0)
(0.99987227 3.8999403e-08 0)
(0.99978229 5.0438932e-08 0)
(0.99967941 6.5597701e-08 0)
(0.99956117 8.5174526e-08 0)
(0.9994261 1.1003977e-07 0)
(0.9992723 1.419263e-07 0)
(0.99909703 1.8321309e-07 0)
(0.99889677 2.3697286e-07 0)
(0.99866713 3.0729524e-07 0)
(0.9984026 3.9993893e-07 0)
(0.99809591 5.2281231e-07 0)
(0.99773774 6.8851061e-07 0)
(0.99731393 9.1250054e-07 0)
(0.99680832 1.2316127e-06 0)
(0.99618407 1.6641462e-06 0)
(0.99542322 2.3877136e-06 0)
(0.99437306 3.249353e-06 0)
(0.99314371 5.4903203e-06 0)
(0.99081362 7.2473036e-06 0)
(0.98866731 1.825175e-05 0)
(0.98018582 1.0510882e-05 0)
(0.9825076 0.0017240207 0)
(0.043965249 0.0017518391 0)
(0.017654555 2.8124899e-05 0)
(0.012570136 6.4421462e-06 0)
(0.010324033 3.0875517e-06 0)
(0.0090239657 1.8913693e-06 0)
(0.0081314561 1.3298852e-06 0)
(0.0074680047 1.0056252e-06 0)
(0.0069437387 7.9920943e-07 0)
(0.0065149614 6.5431828e-07 0)
(0.0061557306 5.4787899e-07 0)
(0.0058484174 4.6746943e-07 0)
(0.0055810712 4.0481342e-07 0)
(0.0053454501 3.5465096e-07 0)
(0.005135588 3.1370135e-07 0)
(0.0049469658 2.797823e-07 0)
(0.0047760871 2.5128126e-07 0)
(0.0046202676 2.2710355e-07 0)
(0.0044772449 2.0636637e-07 0)
(0.0043453442 1.8837256e-07 0)
(0.0042231046 1.7268133e-07 9.6618807e-35)
(0.0041093441 1.5888627e-07 0)
(0.0040030684 1.4668585e-07 0)
(0.003903438 1.3583368e-07 0)
(0.0038097401 1.2612907e-07 0)
(0.003721365 1.1740669e-07 0)
(0.0036377897 1.0953219e-07 0)
(0.0035585584 1.0239688e-07 0)
(0.0034832719 9.5907423e-08 0)
(0.0034115815 8.9984162e-08 0)
(0.0033431796 8.4559445e-08 0)
(0.0032777957 7.9574214e-08 0)
(0.0032151911 7.4979916e-08 0)
(0.0031551512 7.0736232e-08 0)
(0.0030974833 6.6806353e-08 0)
(0.0030420155 6.3157735e-08 0)
(0.0029885931 5.9762567e-08 0)
(0.0029370766 5.6595562e-08 0)
(0.0028873415 5.3633312e-08 0)
(0.002839277 5.0856391e-08 0)
(0.0027927821 4.8249681e-08 0)
(0.0027477629 4.5798734e-08 0)
(0.0027041354 4.3488707e-08 0)
(0.0026618249 4.1306141e-08 0)
(0.0026207651 3.9239708e-08 0)
(0.0025808962 3.7279093e-08 0)
(0.0025421656 3.5413165e-08 0)
(0.0025045307 3.3631464e-08 0)
(0.0024679558 3.1925541e-08 0)
(0.002432412 3.0287454e-08 0)
(0.0023978779 2.8709699e-08 0)
(0.0023643389 2.7185335e-08 0)
(0.0023317879 2.5707208e-08 0)
(0.0023002266 2.4266241e-08 0)
(0.0022696709 2.2848061e-08 0)
(0.0022401618 2.1440357e-08 0)
(0.0022117528 2.0036518e-08 0)
(0.0021845111 1.8628868e-08 0)
(0.0021585222 1.7210587e-08 0)
(0.0021338861 1.5774468e-08 0)
(0.0021107263 1.4303484e-08 0)
(0.0020892159 1.2775621e-08 0)
(0.0020695758 1.1169191e-08 0)
(0.0020520875 9.4455379e-09 0)
(0.002037153 7.551382e-09 0)
(0.0020253091 5.4405906e-09 0)
(0.0020172187 3.1021766e-09 0)
(0.0020135836 5.7685124e-10 0)
(0.0020150422 -2.183285e-09 0)
(0.0020226379 -5.1973048e-09 0)
(0.0020372613 -8.410621e-09 0)
(0.0020599278 -1.1770592e-08 0)
(0.0020914876 -1.5038963e-08 0)
(0.0021320081 -1.7932045e-08 0)
(0.0021810151 -2.0409174e-08 0)
(0.0022382888 -2.2232601e-08 0)
(0.0023018858 -2.2624304e-08 0)
(0.0023668056 -2.1072053e-08 0)
(0.0024270906 -1.7969734e-08 0)
(0.0024786492 -1.4067887e-08 0)
(0.0025189218 -1.0309038e-08 0)
(0.0025493762 -7.3041871e-09 0)
(0.0025716696 -5.0505786e-09 0)
(0.0025878396 -3.4456786e-09 0)
(0.0025993863 -2.2951117e-09 0)
(0.0026073692 -1.4467021e-09 0)
(0.0026124225 -7.9920797e-10 0)
(0.0026149973 -3.0021079e-10 0)
(0.0026154375 1.0751917e-10 0)
(0.002613752 4.671373e-10 0)