/*--------------------------------*- C++ -*----------------------------------*\
| =========                 |                                                 |
| \\      /  F ield         | OpenFOAM: The Open Source CFD Toolbox           |
|  \\    /   O peration     | Version:  2206                                  |
|   \\  /    A nd           | Website:  www.openfoam.com                      |
|    \\/     M anipulation  |                                                 |
\*---------------------------------------------------------------------------*/
FoamFile
{
    version     2.0;
    format      ascii;
    arch        "LSB;label=32;scalar=64";
    class       volScalarField;
    location    "900";
    object      k;
}
// * * * * * * * * * * * * * * * * * * * * * * * * * * * * * * * * * * * * * //

dimensions      [0 2 -2 0 0 0 0];

internalField   nonuniform List<scalar> 
13056
(
0.00010494057
9.293615e-05
9.2007615e-05
9.2054214e-05
9.2111966e-05
9.2128169e-05
9.2132564e-05
9.2135088e-05
9.2137731e-05
9.2140914e-05
9.2144848e-05
9.2149749e-05
9.2155883e-05
9.2163607e-05
9.2173416e-05
9.2186036e-05
9.2202619e-05
9.2224613e-05
9.2257389e-05
9.2293424e-05
9.2419598e-05
9.22487e-05
9.4069198e-05
2.9253461e-05
3.1713866e-07
4.9009521e-08
2.4821197e-08
1.6736092e-08
1.2785462e-08
1.038104e-08
8.7557519e-09
7.5690664e-09
6.662794e-09
5.9480071e-09
5.3686987e-09
4.8888722e-09
4.4846113e-09
4.13924e-09
3.8406381e-09
3.5797812e-09
3.3499224e-09
3.1456428e-09
2.9629567e-09
2.7985338e-09
2.6497356e-09
2.5144029e-09
2.3907565e-09
2.2773195e-09
2.1728551e-09
2.0763227e-09
1.986835e-09
1.9036307e-09
1.8260565e-09
1.7535465e-09
1.6856101e-09
1.6218207e-09
1.5618018e-09
1.5052206e-09
1.4517842e-09
1.4012326e-09
1.353334e-09
1.3078832e-09
1.2646979e-09
1.2236141e-09
1.184482e-09
1.1471679e-09
1.111552e-09
1.0775274e-09
1.0449974e-09
1.0138754e-09
9.8408642e-10
9.5556416e-10
9.2825021e-10
9.0209418e-10
8.7705254e-10
8.53089e-10
8.3017467e-10
8.0829183e-10
7.874408e-10
7.6763038e-10
7.4887775e-10
7.31212e-10
7.1467028e-10
6.9930361e-10
6.8519469e-10
6.724546e-10
6.6123034e-10
6.5175804e-10
6.4429027e-10
6.3941338e-10
6.3717306e-10
6.3831837e-10
6.4334205e-10
6.5291285e-10
6.6776191e-10
6.8860657e-10
7.1571083e-10
7.490965e-10
7.8900636e-10
8.3438272e-10
8.8175113e-10
9.2689909e-10
9.6587677e-10
9.9709e-10
1.0208842e-09
1.0384727e-09
1.0513051e-09
1.0604916e-09
1.0668451e-09
1.0708453e-09
1.072841e-09
1.0731028e-09
1.0716328e-09
1.0684669e-09
1.0638378e-09
1.0579437e-09
1.0510301e-09
1.0433846e-09
1.0351839e-09
1.0265939e-09
1.017818e-09
1.0089803e-09
1.0001281e-09
9.9132091e-10
9.8264669e-10
9.74137e-10
9.6578422e-10
9.5757141e-10
9.4950533e-10
9.4158002e-10
9.3382325e-10
9.2587849e-10
9.1832933e-10
9.0899819e-10
9.0145571e-10
8.9054325e-10
0.00010493377
9.292575e-05
9.199704e-05
9.2043603e-05
9.2101359e-05
9.2117563e-05
9.2121959e-05
9.2124483e-05
9.2127126e-05
9.2130309e-05
9.2134244e-05
9.2139145e-05
9.214528e-05
9.2153005e-05
9.2162815e-05
9.2175436e-05
9.2192022e-05
9.2214018e-05
9.2246797e-05
9.2282834e-05
9.2409024e-05
9.2238066e-05
9.405879e-05
2.9253824e-05
4.8836676e-08
7.5263468e-09
3.8117633e-09
2.5701415e-09
1.963448e-09
1.5942043e-09
1.344611e-09
1.1623733e-09
1.0231982e-09
9.1342929e-10
8.2446564e-10
7.5077933e-10
6.886975e-10
6.3565935e-10
5.8980354e-10
5.4974419e-10
5.1444519e-10
4.8307435e-10
4.5501957e-10
4.2976948e-10
4.0691884e-10
3.8613609e-10
3.6714799e-10
3.4972774e-10
3.3368539e-10
3.1886115e-10
3.0511874e-10
2.9234126e-10
2.8042835e-10
2.6929312e-10
2.5886028e-10
2.4906435e-10
2.3984753e-10
2.3115867e-10
2.2295277e-10
2.1518989e-10
2.0783446e-10
2.0085495e-10
1.9422338e-10
1.8791456e-10
1.819055e-10
1.7617561e-10
1.7070655e-10
1.6548187e-10
1.6048666e-10
1.557076e-10
1.511332e-10
1.467538e-10
1.4256017e-10
1.3854449e-10
1.347001e-10
1.3102143e-10
1.2750407e-10
1.2414533e-10
1.2094525e-10
1.1790503e-10
1.1502668e-10
1.1231551e-10
1.097794e-10
1.0742451e-10
1.0526374e-10
1.0331436e-10
1.0159918e-10
1.0015467e-10
9.901888e-11
9.8276581e-11
9.7945235e-11
9.8145884e-11
9.8947926e-11
1.0045525e-10
1.0278127e-10
1.0603691e-10
1.1026234e-10
1.154592e-10
1.2166018e-10
1.2869375e-10
1.3601725e-10
1.4298286e-10
1.4898982e-10
1.5379974e-10
1.5746881e-10
1.6018508e-10
1.6217183e-10
1.6359926e-10
1.6459112e-10
1.6522002e-10
1.6553903e-10
1.6558936e-10
1.6537105e-10
1.6488934e-10
1.6418003e-10
1.63274e-10
1.6220948e-10
1.610311e-10
1.597664e-10
1.5844117e-10
1.5708691e-10
1.5572282e-10
1.5435635e-10
1.5299672e-10
1.516575e-10
1.5034359e-10
1.4905387e-10
1.4778575e-10
1.4654027e-10
1.4531655e-10
1.441188e-10
1.4289239e-10
1.4172658e-10
1.4028753e-10
1.391231e-10
1.3743829e-10
0.00010491213
9.2893047e-05
9.1963818e-05
9.2010271e-05
9.2068035e-05
9.2084245e-05
9.2088643e-05
9.2091168e-05
9.2093811e-05
9.2096995e-05
9.2100931e-05
9.2105834e-05
9.211197e-05
9.2119698e-05
9.2129511e-05
9.2142137e-05
9.2158727e-05
9.2180729e-05
9.2213517e-05
9.2249557e-05
9.237579e-05
9.2204666e-05
9.4025889e-05
2.9246072e-05
1.541382e-08
2.3479128e-09
1.189109e-09
8.0177594e-10
6.1251894e-10
4.9733529e-10
4.1947544e-10
3.6262646e-10
3.1921066e-10
2.8496803e-10
2.5721558e-10
2.3422892e-10
2.1486219e-10
1.9831702e-10
1.840126e-10
1.7151649e-10
1.605054e-10
1.5071967e-10
1.4196841e-10
1.3409208e-10
1.2696431e-10
1.2048165e-10
1.1455888e-10
1.0912526e-10
1.0412146e-10
9.9497626e-11
9.5211225e-11
9.1225738e-11
8.7509827e-11
8.4036402e-11
8.0782165e-11
7.7727119e-11
7.4853249e-11
7.2144249e-11
6.9586029e-11
6.7166148e-11
6.4873526e-11
6.2698341e-11
6.0631889e-11
5.8666331e-11
5.6794468e-11
5.5009797e-11
5.3306646e-11
5.167982e-11
5.012445e-11
4.8635948e-11
4.7211196e-11
4.5850149e-11
4.4548513e-11
4.3303282e-11
4.2112548e-11
4.097468e-11
3.9888547e-11
3.8853483e-11
3.7869517e-11
3.6936286e-11
3.6050897e-11
3.5219882e-11
3.4458292e-11
3.3758868e-11
3.3126903e-11
3.2569467e-11
3.2095662e-11
3.1718603e-11
3.1447947e-11
3.1282947e-11
3.1285084e-11
3.152549e-11
3.1996098e-11
3.2738367e-11
3.3796969e-11
3.5213793e-11
3.7002277e-11
3.9156766e-11
4.1665579e-11
4.4423887e-11
4.7201598e-11
4.9769462e-11
5.1951863e-11
5.3699252e-11
5.5049763e-11
5.6077084e-11
5.6860226e-11
5.7455375e-11
5.7898665e-11
5.8209944e-11
5.8405192e-11
5.8496377e-11
5.8481974e-11
5.8361984e-11
5.8148254e-11
5.7853885e-11
5.7494876e-11
5.7088848e-11
5.6647547e-11
5.6181568e-11
5.5702674e-11
5.5218317e-11
5.4731942e-11
5.4247225e-11
5.3768957e-11
5.3299055e-11
5.2837461e-11
5.2383528e-11
5.1937654e-11
5.1499687e-11
5.1070575e-11
5.0633913e-11
5.0215418e-11
4.971316e-11
4.9297708e-11
4.8695772e-11
0.00010487496
9.2836993e-05
9.1906882e-05
9.1953147e-05
9.2010925e-05
9.2027146e-05
9.2031546e-05
9.2034072e-05
9.2036716e-05
9.2039901e-05
9.2043839e-05
9.2048745e-05
9.2054885e-05
9.2062617e-05
9.2072436e-05
9.2085068e-05
9.2101667e-05
9.2123679e-05
9.2156481e-05
9.2192525e-05
9.2318829e-05
9.214743e-05
9.3969442e-05
2.9230142e-05
7.1289303e-09
1.0356935e-09
5.2451814e-10
3.5366793e-10
2.70206e-10
2.1941446e-10
1.8507965e-10
1.6000864e-10
1.4086106e-10
1.2575871e-10
1.1351855e-10
1.0338029e-10
9.4838211e-11
8.7541694e-11
8.1234067e-11
7.5724298e-11
7.0869504e-11
6.6555097e-11
6.2696929e-11
5.9224723e-11
5.6082774e-11
5.3225488e-11
5.061529e-11
4.8220991e-11
4.6016255e-11
4.3979056e-11
4.209057e-11
4.0334535e-11
3.8697041e-11
3.7166188e-11
3.5732262e-11
3.4387679e-11
3.3124569e-11
3.1934721e-11
3.0811789e-11
2.9750335e-11
2.8745527e-11
2.7793089e-11
2.6889244e-11
2.6030624e-11
2.5213962e-11
2.4436184e-11
2.3694963e-11
2.2987848e-11
2.2312116e-11
2.1664585e-11
2.1045168e-11
2.0462181e-11
1.9909883e-11
1.9385468e-11
1.8888653e-11
1.8419165e-11
1.797731e-11
1.7563508e-11
1.717812e-11
1.6819427e-11
1.6477393e-11
1.616757e-11
1.593005e-11
1.5738849e-11
1.5600712e-11
1.5524583e-11
1.5521655e-11
1.5605284e-11
1.5779693e-11
1.5989662e-11
1.6388067e-11
1.7090732e-11
1.803979e-11
1.9285252e-11
2.0880604e-11
2.2873915e-11
2.5284042e-11
2.8107731e-11
3.1303254e-11
3.4699656e-11
3.8008995e-11
4.0975676e-11
4.3459802e-11
4.5460193e-11
4.705216e-11
4.8328355e-11
4.9368432e-11
5.0224176e-11
5.0920478e-11
5.1471857e-11
5.1893236e-11
5.2192041e-11
5.2364212e-11
5.2404985e-11
5.2322765e-11
5.2135776e-11
5.1865647e-11
5.1533551e-11
5.1155916e-11
5.0746554e-11
5.0317853e-11
4.987841e-11
4.9433697e-11
4.8988236e-11
4.8546285e-11
4.81101e-11
4.7680638e-11
4.7258101e-11
4.6842921e-11
4.6435454e-11
4.603495e-11
4.5635285e-11
4.5242288e-11
4.4812111e-11
4.442935e-11
4.3872392e-11
0.00010482122
9.2755946e-05
9.182456e-05
9.1870555e-05
9.1928352e-05
9.1944589e-05
9.1948993e-05
9.195152e-05
9.1954165e-05
9.1957352e-05
9.1961293e-05
9.1966202e-05
9.1972347e-05
9.1980086e-05
9.1989912e-05
9.2002554e-05
9.2019165e-05
9.2041192e-05
9.2074014e-05
9.2110063e-05
9.2236467e-05
9.2064675e-05
9.3887796e-05
2.9206013e-05
4.3443811e-09
5.5358302e-10
2.8032928e-10
1.8902631e-10
1.4446761e-10
1.1736113e-10
9.9033486e-11
8.5646943e-11
7.5421426e-11
6.7355234e-11
6.0817205e-11
5.54018e-11
5.083821e-11
4.6942338e-11
4.3576032e-11
4.0636622e-11
3.8047128e-11
3.5746156e-11
3.3688895e-11
3.1837982e-11
3.016376e-11
2.864193e-11
2.7252458e-11
2.5978719e-11
2.4806299e-11
2.3723384e-11
2.2719738e-11
2.1786347e-11
2.0915613e-11
2.0101291e-11
1.9339336e-11
1.8628203e-11
1.7963874e-11
1.7339932e-11
1.6752736e-11
1.6199504e-11
1.5677781e-11
1.518542e-11
1.4720556e-11
1.4281601e-11
1.3866624e-11
1.3473639e-11
1.3101815e-11
1.274964e-11
1.2414663e-11
1.2093062e-11
1.178727e-11
1.1517682e-11
1.1274249e-11
1.105291e-11
1.0854858e-11
1.0681218e-11
1.05341e-11
1.0415709e-11
1.0327824e-11
1.026811e-11
1.0217944e-11
1.0206822e-11
1.0314085e-11
1.0491453e-11
1.0753429e-11
1.111927e-11
1.161358e-11
1.2266372e-11
1.3100474e-11
1.4058536e-11
1.5354054e-11
1.7169614e-11
1.9468782e-11
2.2355533e-11
2.5941035e-11
3.0324289e-11
3.554953e-11
4.1619218e-11
4.8434322e-11
5.5617418e-11
6.2570013e-11
6.8762394e-11
7.3935532e-11
7.8117488e-11
8.1485715e-11
8.4238012e-11
8.6529528e-11
8.8458458e-11
9.0065081e-11
9.1375861e-11
9.2420999e-11
9.32113e-11
9.3736931e-11
9.398398e-11
9.3964975e-11
9.3720181e-11
9.3296895e-11
9.2739356e-11
9.2083911e-11
9.1360361e-11
9.0593063e-11
8.9799666e-11
8.8992769e-11
8.818191e-11
8.7374675e-11
8.6575739e-11
8.5787994e-11
8.5012724e-11
8.4250786e-11
8.35034e-11
8.2767347e-11
8.2041713e-11
8.1316751e-11
8.0569628e-11
7.9871805e-11
7.8853675e-11
0.00010474946
9.2647678e-05
9.1714588e-05
9.1760224e-05
9.1818044e-05
9.1834302e-05
9.1838711e-05
9.184124e-05
9.1843887e-05
9.1847076e-05
9.185102e-05
9.1855934e-05
9.1862086e-05
9.1869833e-05
9.187967e-05
9.1892325e-05
9.1908951e-05
9.1930998e-05
9.1963846e-05
9.1999901e-05
9.2126437e-05
9.1954124e-05
9.3778716e-05
2.917376e-05
3.4234843e-09
3.3559479e-10
1.6988686e-10
1.1457153e-10
8.7663727e-11
7.1315506e-11
6.0254421e-11
5.2167752e-11
4.5987147e-11
4.1109796e-11
3.7155391e-11
3.3879787e-11
3.1118135e-11
2.8764604e-11
2.6733856e-11
2.4962739e-11
2.3403444e-11
2.2018462e-11
2.078096e-11
1.966868e-11
1.8663882e-11
1.7751973e-11
1.692091e-11
1.6160706e-11
1.5462103e-11
1.4817914e-11
1.4221556e-11
1.3667002e-11
1.3149415e-11
1.2665233e-11
1.221388e-11
1.17985e-11
1.1417037e-11
1.1062394e-11
1.0732011e-11
1.0424446e-11
1.013847e-11
9.8730587e-12
9.6273917e-12
9.4009355e-12
9.1922076e-12
8.9996555e-12
8.8235815e-12
8.6630463e-12
8.5153972e-12
8.3754939e-12
8.248496e-12
8.1700794e-12
8.1249379e-12
8.1075935e-12
8.1214655e-12
8.1702442e-12
8.2591501e-12
8.3940778e-12
8.5810085e-12
8.8213153e-12
9.0959046e-12
9.4444876e-12
9.9772309e-12
1.0643441e-11
1.1474181e-11
1.2510408e-11
1.3805008e-11
1.5424073e-11
1.7431428e-11
1.9781656e-11
2.2804684e-11
2.6814363e-11
3.1829388e-11
3.806927e-11
4.5768939e-11
5.5137862e-11
6.6274174e-11
7.9192655e-11
9.3687703e-11
1.0896552e-10
1.2377117e-10
1.3697439e-10
1.4801883e-10
1.5696148e-10
1.6418312e-10
1.7010522e-10
1.7505243e-10
1.7923076e-10
1.8272327e-10
1.8558759e-10
1.8788958e-10
1.8965091e-10
1.9085052e-10
1.9145706e-10
1.9149461e-10
1.9104971e-10
1.9022374e-10
1.8911056e-10
1.877883e-10
1.8632065e-10
1.8475849e-10
1.8313911e-10
1.8148982e-10
1.798309e-10
1.7817779e-10
1.7654036e-10
1.7492522e-10
1.7333552e-10
1.7177307e-10
1.7024068e-10
1.687307e-10
1.6724723e-10
1.6575843e-10
1.642509e-10
1.628226e-10
1.607371e-10
0.0001046579
9.2509394e-05
9.1574119e-05
9.1619295e-05
9.1677145e-05
9.1693429e-05
9.1697845e-05
9.1700375e-05
9.1703024e-05
9.1706217e-05
9.1710165e-05
9.1715086e-05
9.1721245e-05
9.1729003e-05
9.1738853e-05
9.1751525e-05
9.1768171e-05
9.1790241e-05
9.1823123e-05
9.1859186e-05
9.1985889e-05
9.1812912e-05
9.363939e-05
2.9133619e-05
3.4100065e-09
2.263579e-10
1.1449045e-10
7.7242329e-11
5.928085e-11
4.8405702e-11
4.1034542e-11
3.5632015e-11
3.1496786e-11
2.823019e-11
2.557981e-11
2.3384048e-11
2.1531089e-11
1.9958233e-11
1.8605726e-11
1.7429763e-11
1.639619e-11
1.5479208e-11
1.4661298e-11
1.3928145e-11
1.3268198e-11
1.2671862e-11
1.2131196e-11
1.163963e-11
1.1190294e-11
1.0778408e-11
1.0398803e-11
1.0046575e-11
9.7182408e-12
9.4117881e-12
9.1293533e-12
8.8784976e-12
8.6585025e-12
8.4605275e-12
8.2824977e-12
8.1238771e-12
7.9843e-12
7.8635757e-12
7.7617089e-12
7.6791188e-12
7.6143696e-12
7.5664892e-12
7.5371067e-12
7.5263785e-12
7.5322389e-12
7.5493457e-12
7.5852179e-12
7.6868868e-12
7.8375837e-12
8.0328099e-12
8.2796891e-12
8.5862827e-12
8.9631897e-12
9.4228177e-12
9.9788245e-12
1.0639993e-11
1.1389333e-11
1.228353e-11
1.3479803e-11
1.4929199e-11
1.6692823e-11
1.8850962e-11
2.1507819e-11
2.4795364e-11
2.8853161e-11
3.3668711e-11
3.9777983e-11
4.7721906e-11
5.7627387e-11
6.9924707e-11
8.5074762e-11
1.0348942e-10
1.2536588e-10
1.5074345e-10
1.7923191e-10
2.0929317e-10
2.3848174e-10
2.6456201e-10
2.864093e-10
3.0411363e-10
3.1841906e-10
3.3015496e-10
3.3995892e-10
3.482381e-10
3.5515857e-10
3.6083844e-10
3.6541071e-10
3.6891864e-10
3.7132131e-10
3.7255633e-10
3.7266981e-10
3.7183256e-10
3.7024458e-10
3.6809043e-10
3.6552432e-10
3.6267177e-10
3.5963247e-10
3.5647968e-10
3.5326741e-10
3.5003559e-10
3.468142e-10
3.4362271e-10
3.404743e-10
3.3737542e-10
3.343296e-10
3.3134251e-10
3.2839866e-10
3.2550919e-10
3.2260581e-10
3.1967994e-10
3.1689703e-10
3.1283282e-10
0.00010454441
9.2337731e-05
9.1399729e-05
9.1444335e-05
9.150222e-05
9.1518537e-05
9.1522961e-05
9.1525493e-05
9.1528144e-05
9.1531341e-05
9.1535295e-05
9.1540223e-05
9.1546393e-05
9.1554164e-05
9.156403e-05
9.1576722e-05
9.1593393e-05
9.1615493e-05
9.1648415e-05
9.1684488e-05
9.1811396e-05
9.1637597e-05
9.3466444e-05
2.9086073e-05
4.0131248e-09
1.724279e-10
8.7055076e-11
5.8781931e-11
4.5405541e-11
3.7369242e-11
3.1901292e-11
2.7871804e-11
2.4777818e-11
2.2328477e-11
2.0338084e-11
1.8688594e-11
1.7294923e-11
1.6120316e-11
1.5116898e-11
1.4250124e-11
1.3491149e-11
1.2819536e-11
1.222287e-11
1.1691357e-11
1.1216868e-11
1.0792489e-11
1.0412468e-11
1.0072078e-11
9.7656697e-12
9.4899454e-12
9.2396999e-12
9.0101793e-12
8.7987677e-12
8.6045871e-12
8.4317135e-12
8.2909559e-12
8.1827368e-12
8.0971542e-12
8.0326388e-12
7.9894868e-12
7.9681658e-12
7.9693377e-12
7.9939113e-12
8.0434705e-12
8.1162809e-12
8.2120936e-12
8.3344717e-12
8.4852931e-12
8.6635996e-12
8.8641936e-12
9.0980864e-12
9.4275558e-12
9.8349272e-12
1.0318093e-11
1.0890299e-11
1.1566861e-11
1.2367379e-11
1.3315217e-11
1.4437077e-11
1.5754715e-11
1.7256649e-11
1.9028383e-11
2.13012e-11
2.4032351e-11
2.7333945e-11
3.1353041e-11
3.6281048e-11
4.2362386e-11
4.9867885e-11
5.8858296e-11
7.0204835e-11
8.4815868e-11
1.0301856e-10
1.2560218e-10
1.5341271e-10
1.8720761e-10
2.2735429e-10
2.7393716e-10
3.2626103e-10
3.8153452e-10
4.352922e-10
4.8340522e-10
5.2375586e-10
5.5647193e-10
5.8291023e-10
6.0459535e-10
6.2270068e-10
6.379798e-10
6.5074444e-10
6.6121916e-10
6.696536e-10
6.7612927e-10
6.8057185e-10
6.8286644e-10
6.8309728e-10
6.8157878e-10
6.7867903e-10
6.7473746e-10
6.700379e-10
6.6481133e-10
6.5924086e-10
6.5346113e-10
6.4757169e-10
6.4164591e-10
6.357388e-10
6.2988612e-10
6.2411226e-10
6.1842918e-10
6.1284338e-10
6.0736536e-10
6.0196636e-10
5.9666863e-10
5.9134341e-10
5.859848e-10
5.8088194e-10
5.7342915e-10
0.00010440653
9.2128774e-05
9.1187428e-05
9.1231343e-05
9.1289266e-05
9.1305623e-05
9.1310057e-05
9.1312592e-05
9.1315246e-05
9.1318447e-05
9.1322408e-05
9.1327345e-05
9.1333528e-05
9.1341314e-05
9.13512e-05
9.1363916e-05
9.1380618e-05
9.1402753e-05
9.1435724e-05
9.1471809e-05
9.1598963e-05
9.1424164e-05
9.3255947e-05
2.9031953e-05
5.178716e-09
1.5371267e-10
7.7378087e-11
5.231974e-11
4.0840653e-11
3.4039328e-11
2.9381582e-11
2.5917287e-11
2.3243475e-11
2.1119375e-11
1.9388833e-11
1.7954083e-11
1.6741577e-11
1.5728321e-11
1.4870601e-11
1.4137491e-11
1.3499704e-11
1.2937944e-11
1.2442456e-11
1.2006087e-11
1.1622531e-11
1.1286186e-11
1.099234e-11
1.0737176e-11
1.0515413e-11
1.0324745e-11
1.0158662e-11
1.0011676e-11
9.8817738e-12
9.7691496e-12
9.6799619e-12
9.6287522e-12
9.6171818e-12
9.6339648e-12
9.6780782e-12
9.7508014e-12
9.8536274e-12
9.9883115e-12
1.0156974e-11
1.0362858e-11
1.060354e-11
1.0879789e-11
1.1198169e-11
1.1563292e-11
1.1976079e-11
1.2431901e-11
1.2947372e-11
1.3607467e-11
1.4393677e-11
1.5308165e-11
1.6374072e-11
1.7618476e-11
1.9075601e-11
2.0786674e-11
2.2799834e-11
2.5158735e-11
2.7863948e-11
3.1047163e-11
3.5051669e-11
3.9850652e-11
4.5639547e-11
5.2674501e-11
6.128953e-11
7.1913584e-11
8.5036045e-11
1.008623e-10
1.207861e-10
1.4629028e-10
1.7805473e-10
2.1745636e-10
2.6597185e-10
3.249254e-10
3.9496515e-10
4.7625392e-10
5.676081e-10
6.6420099e-10
7.5826999e-10
8.4257411e-10
9.1334148e-10
9.7074103e-10
1.0171265e-09
1.0551614e-09
1.0868991e-09
1.1136644e-09
1.1360119e-09
1.1543445e-09
1.1691055e-09
1.1804404e-09
1.1882208e-09
1.1922462e-09
1.1926633e-09
1.1900221e-09
1.184966e-09
1.1780885e-09
1.1698858e-09
1.1607618e-09
1.1510363e-09
1.1409448e-09
1.1306612e-09
1.1203139e-09
1.1099988e-09
1.0997786e-09
1.0896959e-09
1.0797718e-09
1.0700174e-09
1.0604513e-09
1.0510231e-09
1.0417726e-09
1.0324729e-09
1.0231196e-09
1.0142091e-09
1.0011949e-09
0.00010424145
9.1878053e-05
9.093266e-05
9.0975746e-05
9.1033712e-05
9.1050115e-05
9.1054561e-05
9.1057099e-05
9.1059756e-05
9.1062963e-05
9.1066932e-05
9.1071881e-05
9.1078078e-05
9.1085883e-05
9.1095792e-05
9.1108538e-05
9.1125274e-05
9.1147453e-05
9.1180481e-05
9.1216579e-05
9.1344026e-05
9.1168032e-05
9.3003416e-05
2.8972551e-05
6.9708551e-09
1.6402505e-10
8.2288444e-11
5.572995e-11
4.4034524e-11
3.7229047e-11
3.253007e-11
2.8994263e-11
2.6247955e-11
2.4057126e-11
2.2266676e-11
2.0781616e-11
1.9527876e-11
1.848871e-11
1.7617806e-11
1.6883094e-11
1.6249257e-11
1.5694411e-11
1.5209758e-11
1.4789602e-11
1.4428368e-11
1.4120763e-11
1.3862273e-11
1.3649317e-11
1.3476238e-11
1.3341481e-11
1.3235762e-11
1.3151872e-11
1.308829e-11
1.3046491e-11
1.303536e-11
1.3074503e-11
1.3167148e-11
1.3299949e-11
1.3472579e-11
1.3687665e-11
1.3948138e-11
1.4257319e-11
1.4619102e-11
1.5039229e-11
1.5514077e-11
1.6045964e-11
1.6646158e-11
1.7323645e-11
1.808254e-11
1.891965e-11
1.9860421e-11
2.1023051e-11
2.2388729e-11
2.3966989e-11
2.5796655e-11
2.7923499e-11
3.0404989e-11
3.3310826e-11
3.672355e-11
4.0722861e-11
4.5333176e-11
5.0757548e-11
5.7504129e-11
6.5580946e-11
7.5316201e-11
8.7139824e-11
1.0161321e-10
1.1946037e-10
1.4152453e-10
1.6827513e-10
2.0190199e-10
2.447688e-10
2.9815258e-10
3.6436782e-10
4.4589773e-10
5.44972e-10
6.6268945e-10
7.9934399e-10
9.5298593e-10
1.1155613e-09
1.2740591e-09
1.416257e-09
1.5357095e-09
1.6326259e-09
1.7109435e-09
1.7751439e-09
1.8286881e-09
1.8738168e-09
1.9114772e-09
1.9423619e-09
1.9672263e-09
1.98632e-09
1.9994287e-09
2.0062152e-09
2.0069268e-09
2.0024892e-09
1.9939861e-09
1.9824162e-09
1.9686152e-09
1.953263e-09
1.936898e-09
1.9199165e-09
1.9026115e-09
1.8851992e-09
1.8678409e-09
1.850642e-09
1.8336745e-09
1.8169737e-09
1.8005586e-09
1.7844604e-09
1.7685941e-09
1.7530275e-09
1.7373773e-09
1.72164e-09
1.7066453e-09
1.6847447e-09
0.00010404609
9.1580544e-05
9.0630301e-05
9.0672401e-05
9.0730414e-05
9.0746872e-05
9.0751332e-05
9.0753874e-05
9.0756535e-05
9.0759747e-05
9.0763726e-05
9.0768688e-05
9.0774902e-05
9.078273e-05
9.0792667e-05
9.0805447e-05
9.0822225e-05
9.0844454e-05
9.087755e-05
9.0913663e-05
9.1041453e-05
9.0864049e-05
9.2703811e-05
2.8909746e-05
9.5408234e-09
2.0476912e-10
1.0244043e-10
6.947254e-11
5.5449057e-11
4.7425387e-11
4.1843523e-11
3.759891e-11
3.4283672e-11
3.1629426e-11
2.9454439e-11
2.7649874e-11
2.6129277e-11
2.4876017e-11
2.3834008e-11
2.2965145e-11
2.2221433e-11
2.157424e-11
2.1014252e-11
2.0536359e-11
2.0134795e-11
1.9803662e-11
1.9537855e-11
1.9333421e-11
1.9183558e-11
1.9087385e-11
1.9030878e-11
1.9003829e-11
1.9005249e-11
1.9038374e-11
1.9115894e-11
1.9264496e-11
1.9489555e-11
1.9774825e-11
2.0121004e-11
2.0532691e-11
2.1014941e-11
2.157342e-11
2.2214698e-11
2.2948336e-11
2.3768783e-11
2.4680809e-11
2.5703007e-11
2.6851321e-11
2.8135255e-11
2.955471e-11
3.1148736e-11
3.3083091e-11
3.5340288e-11
3.7942336e-11
4.0952547e-11
4.4445946e-11
4.8516343e-11
5.3278084e-11
5.8867964e-11
6.5423787e-11
7.3013844e-11
8.1949217e-11
9.2977163e-11
1.0617398e-10
1.2207574e-10
1.4138446e-10
1.6501777e-10
1.9416307e-10
2.3022499e-10
2.7413051e-10
3.2926662e-10
3.9933138e-10
4.8658336e-10
5.9480661e-10
7.2806239e-10
8.9000126e-10
1.0824321e-09
1.3058621e-09
1.5571573e-09
1.8232307e-09
2.0828593e-09
2.315994e-09
2.5119541e-09
2.6709812e-09
2.7994863e-09
2.9048021e-09
2.9925996e-09
3.0665611e-09
3.1282562e-09
3.178837e-09
3.2195527e-09
3.2508179e-09
3.2722847e-09
3.2834017e-09
3.2845739e-09
3.2773168e-09
3.2634043e-09
3.2444713e-09
3.221886e-09
3.1967612e-09
3.1699784e-09
3.1421861e-09
3.1138643e-09
3.0853665e-09
3.056957e-09
3.0288083e-09
3.0010382e-09
2.9737045e-09
2.9468386e-09
2.9204912e-09
2.8945233e-09
2.8690462e-09
2.8434319e-09
2.8176771e-09
2.7931359e-09
2.757292e-09
0.00010381705
9.1230668e-05
9.0274654e-05
9.0315595e-05
9.0373656e-05
9.0390179e-05
9.0394655e-05
9.0397201e-05
9.0399866e-05
9.0403086e-05
9.0407076e-05
9.0412053e-05
9.0418288e-05
9.0426141e-05
9.043611e-05
9.0448931e-05
9.0465758e-05
9.0488045e-05
9.0521219e-05
9.055735e-05
9.0685539e-05
9.050649e-05
9.2351539e-05
2.8846138e-05
1.3128891e-08
2.8344358e-10
1.4154706e-10
9.6079382e-11
7.7184483e-11
6.650198e-11
5.9031804e-11
5.3310016e-11
4.8824419e-11
4.5224679e-11
4.2269762e-11
3.9817744e-11
3.7755847e-11
3.606085e-11
3.4658083e-11
3.3497536e-11
3.2509614e-11
3.1653553e-11
3.0917945e-11
3.0297499e-11
2.9785296e-11
2.9373799e-11
2.9056421e-11
2.8828156e-11
2.8680142e-11
2.8612248e-11
2.8602885e-11
2.863708e-11
2.871458e-11
2.8841214e-11
2.9035058e-11
2.9332667e-11
2.974248e-11
3.0244412e-11
3.0840773e-11
3.1539119e-11
3.2347708e-11
3.3275753e-11
3.4333899e-11
3.5537545e-11
3.6878153e-11
3.8364388e-11
4.0026152e-11
4.1890367e-11
4.3975463e-11
4.6287356e-11
4.8885738e-11
5.200348e-11
5.5627904e-11
5.9801713e-11
6.4626002e-11
7.0221049e-11
7.6736809e-11
8.4356769e-11
9.3302173e-11
1.0380295e-10
1.1600406e-10
1.303782e-10
1.4801685e-10
1.6912059e-10
1.9454698e-10
2.2541871e-10
2.6320455e-10
3.0981025e-10
3.6751826e-10
4.380202e-10
5.2648928e-10
6.3862942e-10
7.7827759e-10
9.5149216e-10
1.1647773e-09
1.4239848e-09
1.7320274e-09
2.089752e-09
2.4922134e-09
2.9185668e-09
3.3348996e-09
3.7090228e-09
4.0236461e-09
4.2790208e-09
4.4853753e-09
4.6544577e-09
4.795364e-09
4.9140152e-09
5.0129518e-09
5.0940457e-09
5.1593153e-09
5.2094333e-09
5.2438457e-09
5.2616701e-09
5.2635556e-09
5.2519313e-09
5.2296401e-09
5.1993025e-09
5.163111e-09
5.1228494e-09
5.0799304e-09
5.0353933e-09
4.9900073e-09
4.9443391e-09
4.8988124e-09
4.8537034e-09
4.809201e-09
4.765398e-09
4.7223445e-09
4.680122e-09
4.6385076e-09
4.5976801e-09
4.5566322e-09
4.5153606e-09
4.4760328e-09
4.4185919e-09
0.00010355067
9.0822293e-05
8.985945e-05
8.9899036e-05
8.9957147e-05
8.9973743e-05
8.9978238e-05
8.9980789e-05
8.9983459e-05
8.9986688e-05
8.999069e-05
8.9995685e-05
9.0001943e-05
9.0009826e-05
9.0019833e-05
9.00327e-05
9.0049583e-05
9.0071937e-05
9.0105202e-05
9.0141351e-05
9.0269999e-05
9.008906e-05
9.1940449e-05
2.8785186e-05
1.8083971e-08
4.1418097e-10
2.0664002e-10
1.4033408e-10
1.1314341e-10
9.7879303e-11
8.7173743e-11
7.8939832e-11
7.2471586e-11
6.727415e-11
6.3003702e-11
5.9459952e-11
5.6485464e-11
5.4041481e-11
5.2022907e-11
5.0360058e-11
4.8949063e-11
4.7729485e-11
4.668585e-11
4.5811868e-11
4.509828e-11
4.4534584e-11
4.4111547e-11
4.3822236e-11
4.3654543e-11
4.3609325e-11
4.3653279e-11
4.376413e-11
4.3942791e-11
4.4199012e-11
4.4558498e-11
4.5071469e-11
4.5750804e-11
4.6571588e-11
4.7538719e-11
4.8664215e-11
4.9961186e-11
5.1444226e-11
5.313017e-11
5.5043316e-11
5.7170575e-11
5.9526762e-11
6.2159113e-11
6.5111702e-11
6.8417479e-11
7.2093264e-11
7.6229781e-11
8.1153867e-11
8.686415e-11
9.3436996e-11
1.0103131e-10
1.0983674e-10
1.2008921e-10
1.3207831e-10
1.4615541e-10
1.6269467e-10
1.819701e-10
2.0469467e-10
2.3245361e-10
2.6566287e-10
3.0567259e-10
3.5425002e-10
4.137088e-10
4.870577e-10
5.7793674e-10
6.8928304e-10
8.2892201e-10
1.0055571e-09
1.2255221e-09
1.4983629e-09
1.8343304e-09
2.2426543e-09
2.7279466e-09
3.2915877e-09
3.9258829e-09
4.5981333e-09
5.2549928e-09
5.8456244e-09
6.3425309e-09
6.7459266e-09
7.0718808e-09
7.3389135e-09
7.5613798e-09
7.7486431e-09
7.9047429e-09
8.0326647e-09
8.1356132e-09
8.2146606e-09
8.2689378e-09
8.297055e-09
8.3000361e-09
8.2817119e-09
8.2465656e-09
8.1987298e-09
8.141662e-09
8.0781755e-09
8.0104979e-09
7.9402684e-09
7.8687e-09
7.7966864e-09
7.7248956e-09
7.6537635e-09
7.5835876e-09
7.5145148e-09
7.4466238e-09
7.3800432e-09
7.3144213e-09
7.2500406e-09
7.1853121e-09
7.1202319e-09
7.0582159e-09
6.9676373e-09
0.00010324302
9.0348728e-05
8.9377841e-05
8.9415853e-05
8.9474013e-05
8.9490693e-05
8.949521e-05
8.9497766e-05
8.9500441e-05
8.9503679e-05
8.9507696e-05
8.9512712e-05
8.9518996e-05
8.9526914e-05
8.9536964e-05
8.9549884e-05
8.9566831e-05
8.9589263e-05
8.9622629e-05
8.96588e-05
8.9787971e-05
8.9604872e-05
9.146385e-05
2.8731335e-05
2.4898084e-08
6.1974862e-10
3.0906326e-10
2.0994882e-10
1.6958783e-10
1.4701744e-10
1.3116394e-10
1.1894457e-10
1.0933578e-10
1.0161018e-10
9.5259624e-11
8.9989906e-11
8.5573345e-11
8.194249e-11
7.8945159e-11
7.648114e-11
7.4393789e-11
7.2592057e-11
7.1053715e-11
6.9770454e-11
6.872908e-11
6.7914272e-11
6.7312518e-11
6.6913756e-11
6.6701005e-11
6.667657e-11
6.6789271e-11
6.7005836e-11
6.7329101e-11
6.7774787e-11
6.8379404e-11
6.9211989e-11
7.0291923e-11
7.1588466e-11
7.3110669e-11
7.4877297e-11
7.6908789e-11
7.9227887e-11
8.1860812e-11
8.4845355e-11
8.8161561e-11
9.1833884e-11
9.5935956e-11
1.0053841e-10
1.0569744e-10
1.1144874e-10
1.1792939e-10
1.2559732e-10
1.3447376e-10
1.4468893e-10
1.564896e-10
1.7017105e-10
1.8609998e-10
2.0472763e-10
2.2660444e-10
2.5232796e-10
2.8238391e-10
3.1784085e-10
3.6099156e-10
4.1261241e-10
4.7480317e-10
5.5031194e-10
6.4273857e-10
7.5677343e-10
8.9813867e-10
1.0717625e-09
1.2893963e-09
1.5642126e-09
1.9064468e-09
2.3309554e-09
2.8536956e-09
3.4890447e-09
4.2442109e-09
5.1214037e-09
6.108777e-09
7.1556358e-09
8.1790726e-09
9.0998108e-09
9.8747176e-09
1.0503884e-08
1.1012255e-08
1.1428667e-08
1.1775492e-08
1.2067348e-08
1.231057e-08
1.2509852e-08
1.2670216e-08
1.2793344e-08
1.287789e-08
1.2921692e-08
1.2926345e-08
1.2897815e-08
1.2843085e-08
1.276859e-08
1.2679717e-08
1.2580846e-08
1.2475447e-08
1.2366074e-08
1.2254615e-08
1.2142462e-08
1.2030657e-08
1.1919876e-08
1.1810585e-08
1.1703012e-08
1.1597279e-08
1.1493587e-08
1.1391388e-08
1.1291122e-08
1.1190314e-08
1.108896e-08
1.0992376e-08
1.085131e-08
0.00010288998
8.9802737e-05
8.8822407e-05
8.8858602e-05
8.8916806e-05
8.8933582e-05
8.8938123e-05
8.8940684e-05
8.8943366e-05
8.8946614e-05
8.8950648e-05
8.8955686e-05
8.8962002e-05
8.8969959e-05
8.8980057e-05
8.8993038e-05
8.9010058e-05
8.9032578e-05
8.9066059e-05
8.9102252e-05
8.9232016e-05
8.9046457e-05
9.0914511e-05
2.8690146e-05
3.4257198e-08
9.3508587e-10
4.6623484e-10
3.1676257e-10
2.5611392e-10
2.2226788e-10
1.9847767e-10
1.801218e-10
1.656809e-10
1.5406735e-10
1.4451904e-10
1.3659623e-10
1.299642e-10
1.2450681e-10
1.2000074e-10
1.162997e-10
1.1316698e-10
1.1046482e-10
1.0816038e-10
1.0624196e-10
1.0469014e-10
1.0348212e-10
1.0259774e-10
1.0202207e-10
1.0173098e-10
1.0172901e-10
1.0193789e-10
1.0230796e-10
1.0284522e-10
1.0357448e-10
1.0454755e-10
1.0585931e-10
1.0753869e-10
1.0954828e-10
1.1190371e-10
1.1463393e-10
1.1777043e-10
1.2134825e-10
1.254078e-10
1.3000724e-10
1.3511632e-10
1.4077447e-10
1.4709532e-10
1.5419033e-10
1.6215242e-10
1.7104884e-10
1.8108567e-10
1.9290358e-10
2.0656519e-10
2.2228575e-10
2.4044492e-10
2.61498e-10
2.8600955e-10
3.1467587e-10
3.4834998e-10
3.8797294e-10
4.3437078e-10
4.8913717e-10
5.5557894e-10
6.3506079e-10
7.308174e-10
8.470817e-10
9.8940132e-10
1.1650164e-09
1.3828222e-09
1.6508854e-09
1.9867572e-09
2.4102532e-09
2.9376471e-09
3.5918391e-09
4.3974323e-09
5.3766059e-09
6.5405121e-09
7.8926381e-09
9.4148963e-09
1.1029404e-08
1.2608517e-08
1.4029823e-08
1.5226384e-08
1.6198015e-08
1.6983085e-08
1.7626062e-08
1.8161471e-08
1.8611905e-08
1.8987195e-08
1.9294641e-08
1.9542023e-08
1.9731961e-08
1.9862384e-08
1.992996e-08
1.9937151e-08
1.9893158e-08
1.9808752e-08
1.9693861e-08
1.955679e-08
1.9404299e-08
1.9241738e-08
1.9073046e-08
1.8901136e-08
1.8728156e-08
1.855571e-08
1.8384846e-08
1.8216279e-08
1.8050361e-08
1.7887282e-08
1.772735e-08
1.7569721e-08
1.7415074e-08
1.7259591e-08
1.7103265e-08
1.6954298e-08
1.6736721e-08
0.00010248724
8.9176553e-05
8.8185169e-05
8.8219274e-05
8.8277516e-05
8.8294398e-05
8.8298967e-05
8.8301534e-05
8.8304222e-05
8.8307482e-05
8.8311534e-05
8.8316599e-05
8.8322949e-05
8.833095e-05
8.8341104e-05
8.8354153e-05
8.8371256e-05
8.8393874e-05
8.8427484e-05
8.84637e-05
8.859413e-05
8.840578e-05
9.0284682e-05
2.866838e-05
4.7112508e-08
1.4128422e-09
7.044072e-10
4.7861741e-10
3.8717371e-10
3.3619859e-10
3.003576e-10
2.7269004e-10
2.5091949e-10
2.3340996e-10
2.1901325e-10
2.0706812e-10
1.9707912e-10
1.8885068e-10
1.8205332e-10
1.7647202e-10
1.7174961e-10
1.6767772e-10
1.6420726e-10
1.6132119e-10
1.5899057e-10
1.5718114e-10
1.5586267e-10
1.5501281e-10
1.5459703e-10
1.546233e-10
1.5497265e-10
1.55571e-10
1.5642952e-10
1.5758685e-10
1.5911646e-10
1.611487e-10
1.6372658e-10