/*--------------------------------*- C++ -*----------------------------------*\
| =========                 |                                                 |
| \\      /  F ield         | OpenFOAM: The Open Source CFD Toolbox           |
|  \\    /   O peration     | Version:  2206                                  |
|   \\  /    A nd           | Website:  www.openfoam.com                      |
|    \\/     M anipulation  |                                                 |
\*---------------------------------------------------------------------------*/
FoamFile
{
    version     2.0;
    format      ascii;
    arch        "LSB;label=32;scalar=64";
    class       volScalarField;
    location    "900";
    object      nut;
}
// * * * * * * * * * * * * * * * * * * * * * * * * * * * * * * * * * * * * * //

dimensions      [0 2 -1 0 0 0 0];

internalField   nonuniform List<scalar> 
13056
(
1.950677e-07
1.9400995e-07
1.9405191e-07
1.9419282e-07
1.9427147e-07
1.943072e-07
1.943254e-07
1.9433681e-07
1.9434533e-07
1.9435253e-07
1.9435923e-07
1.9436598e-07
1.9437326e-07
1.9438158e-07
1.9439157e-07
1.9440396e-07
1.9442035e-07
1.9444057e-07
1.9447782e-07
1.9448675e-07
1.9474028e-07
1.9406702e-07
1.9474939e-07
1.4994208e-09
2.6551366e-16
4.103157e-17
2.0780711e-17
1.4011729e-17
1.0704197e-17
8.6911758e-18
7.3304583e-18
6.3369458e-18
5.5781998e-18
4.9797685e-18
4.494762e-18
4.0930435e-18
3.7545897e-18
3.4654392e-18
3.2154448e-18
2.9970511e-18
2.8046096e-18
2.6335835e-18
2.4806356e-18
2.3429781e-18
2.2184018e-18
2.1050991e-18
2.0015803e-18
1.906609e-18
1.8191497e-18
1.7383312e-18
1.6634106e-18
1.5937507e-18
1.5288043e-18
1.4680977e-18
1.4112203e-18
1.3578147e-18
1.3075659e-18
1.2601952e-18
1.2154574e-18
1.1731348e-18
1.1330333e-18
1.0949811e-18
1.0588257e-18
1.0244297e-18
9.9166768e-19
9.6042764e-19
9.3060943e-19
9.0212352e-19
8.7488885e-19
8.4883305e-19
8.2389319e-19
8.000139e-19
7.7714621e-19
7.5524795e-19
7.3428268e-19
7.1422001e-19
6.9503577e-19
6.767151e-19
6.5925827e-19
6.4267267e-19
6.2697266e-19
6.1218261e-19
5.9833361e-19
5.8546838e-19
5.7365617e-19
5.6298995e-19
5.5359282e-19
5.4566246e-19
5.3941031e-19
5.3532731e-19
5.3345167e-19
5.3441054e-19
5.3861645e-19
5.4662928e-19
5.5906116e-19
5.7651265e-19
5.9920478e-19
6.271558e-19
6.6056899e-19
6.9855881e-19
7.3821642e-19
7.7601503e-19
8.0864778e-19
8.3478e-19
8.5470088e-19
8.6942631e-19
8.8016981e-19
8.8786087e-19
8.9318014e-19
8.9652912e-19
8.9819997e-19
8.9841913e-19
8.9718847e-19
8.945379e-19
8.9066236e-19
8.8572772e-19
8.799395e-19
8.7353859e-19
8.6667284e-19
8.5948116e-19
8.5213385e-19
8.4473472e-19
8.3732356e-19
8.2995003e-19
8.2268783e-19
8.1556337e-19
8.085703e-19
8.016944e-19
7.9494134e-19
7.8830614e-19
7.8181205e-19
7.7516057e-19
7.6884029e-19
7.610281e-19
7.5471342e-19
7.4557733e-19
1.9506681e-07
1.9400853e-07
1.9405051e-07
1.9419148e-07
1.9427017e-07
1.9430591e-07
1.9432412e-07
1.9433553e-07
1.9434405e-07
1.9435126e-07
1.9435796e-07
1.9436471e-07
1.9437199e-07
1.9438032e-07
1.9439031e-07
1.944027e-07
1.944191e-07
1.9443933e-07
1.9447658e-07
1.9448551e-07
1.947391e-07
1.9406568e-07
1.9474905e-07
1.5220748e-09
2.4933253e-16
3.8346962e-17
1.942105e-17
1.3094949e-17
1.0003827e-17
8.1225187e-18
6.850833e-18
5.9223258e-18
5.2132244e-18
4.6539485e-18
4.200676e-18
3.825242e-18
3.5089331e-18
3.238702e-18
3.0050653e-18
2.8009616e-18
2.6211121e-18
2.4612767e-18
2.3183367e-18
2.1896867e-18
2.073262e-18
1.9673731e-18
1.8706282e-18
1.7818714e-18
1.7001351e-18
1.6246051e-18
1.554587e-18
1.4894852e-18
1.4287885e-18
1.372054e-18
1.3188982e-18
1.2689876e-18
1.2220275e-18
1.1777575e-18
1.135948e-18
1.0963958e-18
1.0589195e-18
1.0233586e-18
9.8957041e-19
9.5742659e-19
9.2681005e-19
8.9761588e-19
8.6975057e-19
8.4313035e-19
8.1767925e-19
7.9332922e-19
7.7002188e-19
7.4770825e-19
7.2634119e-19
7.0588069e-19
6.8629282e-19
6.6754919e-19
6.4962735e-19
6.3251347e-19
6.1620767e-19
6.0071586e-19
5.8604756e-19
5.7223064e-19
5.5930704e-19
5.4730639e-19
5.3629415e-19
5.2635817e-19
5.1761441e-19
5.1024785e-19
5.0445037e-19
5.0064447e-19
4.9893438e-19
4.9994274e-19
5.0401108e-19
5.1166746e-19
5.2348807e-19
5.4003567e-19
5.6151182e-19
5.8791927e-19
6.1941567e-19
6.5511795e-19
6.9226182e-19
7.2756769e-19
7.5800358e-19
7.8237089e-19
8.0095736e-19
8.1471693e-19
8.247825e-19
8.32016e-19
8.3704307e-19
8.4022934e-19
8.4184245e-19
8.4209085e-19
8.4097443e-19
8.3851978e-19
8.3490906e-19
8.3029901e-19
8.2488378e-19
8.1889024e-19
8.1245815e-19
8.0571863e-19
7.9883166e-19
7.9189494e-19
7.8494625e-19
7.7803238e-19
7.7122241e-19
7.6454121e-19
7.5798302e-19
7.5153467e-19
7.4520151e-19
7.3897894e-19
7.3288844e-19
7.2665196e-19
7.2072398e-19
7.1340525e-19
7.0748404e-19
6.9891674e-19
1.9506396e-07
1.9400404e-07
1.940461e-07
1.9418724e-07
1.9426602e-07
1.9430181e-07
1.9432004e-07
1.9433147e-07
1.9434001e-07
1.9434722e-07
1.9435393e-07
1.9436068e-07
1.9436797e-07
1.943763e-07
1.9438631e-07
1.943987e-07
1.9441512e-07
1.9443535e-07
1.9447263e-07
1.9448155e-07
1.9473531e-07
1.9406149e-07
1.9474605e-07
1.5488358e-09
2.4034405e-16
3.6559641e-17
1.8515769e-17
1.2484556e-17
9.5376078e-18
7.7440656e-18
6.531698e-18
5.6464938e-18
4.9704596e-18
4.4372623e-18
4.0051245e-18
3.6471957e-18
3.3456327e-18
3.0880057e-18
2.8652701e-18
2.6706921e-18
2.4992372e-18
2.3468627e-18
2.2105958e-18
2.0879527e-18
1.9769653e-18
1.8760231e-18
1.783799e-18
1.6991912e-18
1.621276e-18
1.5492769e-18
1.4825316e-18
1.4204714e-18
1.3626081e-18
1.30852e-18
1.2578449e-18
1.210273e-18
1.1655238e-18
1.1233421e-18
1.083508e-18
1.045828e-18
1.0101295e-18
9.7625946e-19
9.4408244e-19
9.1347635e-19
8.8432898e-19
8.5653855e-19
8.3001672e-19
8.0468199e-19
7.804572e-19
7.5726864e-19
7.3506982e-19
7.1387395e-19
6.9360641e-19
6.7421692e-19
6.5567568e-19
6.3795657e-19
6.2104181e-19
6.0492004e-19
5.8958897e-19
5.7503498e-19
5.611865e-19
5.4817683e-19
5.3631636e-19
5.2542215e-19
5.1557507e-19
5.0688299e-19
4.9948234e-19
4.9356135e-19
4.8920488e-19
4.8608182e-19
4.8569385e-19
4.89385e-19
4.9663099e-19
5.0806254e-19
5.2434933e-19
5.4609578e-19
5.7342285e-19
6.0606756e-19
6.4352978e-19
6.837812e-19
7.2312238e-19
7.5856685e-19
7.882678e-19
8.1196926e-19
8.3033652e-19
8.4441853e-19
8.5532276e-19
8.6377949e-19
8.7020517e-19
8.7478157e-19
8.7767487e-19
8.7902865e-19
8.788045e-19
8.7699704e-19
8.7378253e-19
8.6935723e-19
8.6396121e-19
8.5785914e-19
8.5122733e-19
8.4422493e-19
8.3702863e-19
8.2975038e-19
8.2244189e-19
8.1515835e-19
8.0797179e-19
8.0091097e-19
7.9397501e-19
7.8715419e-19
7.8045445e-19
7.7387353e-19
7.6742568e-19
7.608642e-19
7.5457595e-19
7.4702811e-19
7.407854e-19
7.3174059e-19
1.9505906e-07
1.9399634e-07
1.9403852e-07
1.9417995e-07
1.9425891e-07
1.9429477e-07
1.9431304e-07
1.943245e-07
1.9433305e-07
1.9434028e-07
1.94347e-07
1.9435376e-07
1.9436107e-07
1.9436941e-07
1.9437943e-07
1.9439184e-07
1.9440827e-07
1.9442852e-07
1.9446584e-07
1.9447473e-07
1.9472878e-07
1.9405431e-07
1.9474035e-07
1.5777652e-09
2.4296396e-16
3.5296147e-17
1.7875455e-17
1.2052917e-17
9.2085296e-18
7.4775413e-18
6.3074007e-18
5.452973e-18
4.800417e-18
4.2857227e-18
3.8685734e-18
3.5230576e-18
3.2319346e-18
2.9832709e-18
2.7683129e-18
2.5805463e-18
2.4151005e-18
2.2680702e-18
2.1365879e-18
2.0182584e-18
1.9111834e-18
1.813809e-18
1.7248547e-18
1.6432575e-18
1.5681172e-18
1.4986818e-18
1.4343106e-18
1.3744479e-18
1.3186179e-18
1.2664151e-18
1.217516e-18
1.1716793e-18
1.1286368e-18
1.0880931e-18
1.0498292e-18
1.0136599e-18
9.794202e-19
9.4696455e-19
9.1616411e-19
8.8690388e-19
8.590716e-19
8.3255633e-19
8.072791e-19
7.8314951e-19
7.6006009e-19
7.3787715e-19
7.1662068e-19
6.9672748e-19
6.7791664e-19
6.6005426e-19
6.4313038e-19
6.2712729e-19
6.1205449e-19
5.9791511e-19
5.8469164e-19
5.7223577e-19
5.5990845e-19
5.4859076e-19
5.4050078e-19
5.3397553e-19
5.2922917e-19
5.2654308e-19
5.2623893e-19
5.285833e-19
5.3292295e-19
5.3348302e-19
5.4194915e-19
5.6515198e-19
5.9648382e-19
6.3758399e-19
6.9019457e-19
7.5584704e-19
8.3505949e-19
9.2750026e-19
1.0313696e-18
1.1404569e-18
1.2450042e-18
1.3372532e-18
1.4137414e-18
1.4751511e-18
1.5241072e-18
1.5635694e-18
1.5960306e-18
1.6230281e-18
1.645206e-18
1.6628817e-18
1.676439e-18
1.6860694e-18
1.6916207e-18
1.6929318e-18
1.6902718e-18
1.6842286e-18
1.6755004e-18
1.6647711e-18
1.6525711e-18
1.6393464e-18
1.6254973e-18
1.6113013e-18
1.5969352e-18
1.582545e-18
1.5682683e-18
1.5541779e-18
1.5403047e-18
1.5266553e-18
1.5132434e-18
1.5000808e-18
1.4871431e-18
1.4742323e-18
1.4615372e-18
1.4476397e-18
1.435275e-18
1.4172831e-18
1.9505197e-07
1.939852e-07
1.9402754e-07
1.9416941e-07
1.942486e-07
1.9428458e-07
1.9430291e-07
1.943144e-07
1.9432298e-07
1.9433023e-07
1.9433696e-07
1.9434375e-07
1.9435107e-07
1.9435943e-07
1.9436947e-07
1.943819e-07
1.9439836e-07
1.9441864e-07
1.9445601e-07
1.9446487e-07
1.9471933e-07
1.9404393e-07
1.9473187e-07
1.6087282e-09
2.691312e-16
3.4472158e-17
1.7456476e-17
1.1770898e-17
8.9960257e-18
7.3079255e-18
6.1665302e-18
5.3328504e-18
4.6960262e-18
4.193677e-18
3.7864994e-18
3.4492353e-18
3.1649878e-18
2.9223862e-18
2.7127896e-18
2.52978e-18
2.3685565e-18
2.2252954e-18
2.0972066e-18
1.9819635e-18
1.8777194e-18
1.7829613e-18
1.6964415e-18
1.6171245e-18
1.5440952e-18
1.4766113e-18
1.4140389e-18
1.3558077e-18
1.3014338e-18
1.2505286e-18
1.2028873e-18
1.1585194e-18
1.1171757e-18
1.0783595e-18
1.0418275e-18
1.0074064e-18
9.7494296e-19
9.4430326e-19
9.1537053e-19
8.8804496e-19
8.6219988e-19
8.3767309e-19
8.1441433e-19
7.9228544e-19
7.7103959e-19
7.5027727e-19
7.3029403e-19
7.1333439e-19
6.982342e-19
6.844973e-19
6.721954e-19
6.6134297e-19
6.5206277e-19
6.4442117e-19
6.3832767e-19
6.329955e-19
6.2517764e-19
6.1907942e-19
6.2552812e-19
6.3625056e-19
6.5208161e-19
6.7416447e-19
7.0392472e-19
7.4296343e-19
7.9170092e-19
8.417244e-19
9.1308183e-19
1.0210032e-18
1.1576487e-18
1.3291712e-18
1.542124e-18
1.8022682e-18
2.1119938e-18
2.4709291e-18
2.8721872e-18
3.2919417e-18
3.6939034e-18
4.0480999e-18
4.3419114e-18
4.578828e-18
4.7698061e-18
4.9264052e-18
5.0575459e-18
5.1686677e-18
5.2617545e-18
5.337992e-18
5.3989094e-18
5.4450201e-18
5.4756991e-18
5.4901156e-18
5.4889957e-18
5.4746896e-18
5.4499588e-18
5.4173873e-18
5.3790977e-18
5.3368305e-18
5.2920083e-18
5.2456621e-18
5.1985275e-18
5.1511616e-18
5.1040076e-18
5.0573386e-18
5.0113234e-18
4.9660368e-18
4.9215292e-18
4.8778714e-18
4.8348758e-18
4.7924882e-18
4.7501407e-18
4.7064955e-18
4.6657326e-18
4.6062595e-18
1.9504249e-07
1.9397028e-07
1.9401285e-07
1.941553e-07
1.9423482e-07
1.9427095e-07
1.9428936e-07
1.9430089e-07
1.9430951e-07
1.9431678e-07
1.9432355e-07
1.9433035e-07
1.943377e-07
1.9434608e-07
1.9435614e-07
1.943686e-07
1.943851e-07
1.9440542e-07
1.9444286e-07
1.9445167e-07
1.9470668e-07
1.9403004e-07
1.9472054e-07
1.6420333e-09
3.4166058e-16
3.4274377e-17
1.735095e-17
1.1701369e-17
8.9526044e-18
7.2823021e-18
6.1521333e-18
5.3258618e-18
4.6943222e-18
4.1959341e-18
3.7918561e-18
3.4571326e-18
3.1747783e-18
2.9344032e-18
2.7271217e-18
2.5463738e-18
2.3872435e-18
2.2458972e-18
2.1195955e-18
2.0060658e-18
1.9034966e-18
1.8103978e-18
1.7255387e-18
1.6478983e-18
1.5764513e-18
1.5104318e-18
1.4491839e-18
1.3920495e-18
1.3384848e-18
1.2881265e-18
1.2411315e-18
1.1983061e-18
1.1594476e-18
1.1233862e-18
1.0897841e-18
1.058493e-18
1.0293862e-18
1.0023574e-18
9.7731966e-19
9.5421398e-19
9.328575e-19
9.1290358e-19
8.9438513e-19
8.7698384e-19
8.5995221e-19
8.4194785e-19
8.2419109e-19
8.1513938e-19
8.1061336e-19
8.0885558e-19
8.1020419e-19
8.149723e-19
8.2366789e-19
8.3679913e-19
8.5473253e-19
8.7685348e-19
8.9872978e-19
9.2671144e-19
9.7891404e-19
1.0442338e-18
1.1256606e-18
1.227171e-18
1.3538392e-18
1.5117615e-18
1.7054466e-18
1.9210788e-18
2.2027449e-18
2.5899518e-18
3.0741831e-18
3.676567e-18
4.4196505e-18
5.3233478e-18
6.3965225e-18
7.6392689e-18
9.0291348e-18
1.0485801e-17
1.1886101e-17
1.3124712e-17
1.4155154e-17
1.4987787e-17
1.5660531e-17
1.6213617e-17
1.6677636e-17
1.7071458e-17
1.7402041e-17
1.7673935e-17
1.7892797e-17
1.8060381e-17
1.8174551e-17
1.8232272e-17
1.8235822e-17
1.8193437e-17
1.811477e-17
1.8008756e-17
1.7882834e-17
1.7743069e-17
1.7594306e-17
1.7440095e-17
1.7283036e-17
1.7125062e-17
1.696764e-17
1.6811712e-17
1.6657907e-17
1.6506525e-17
1.6357737e-17
1.6211813e-17
1.6068022e-17
1.5926754e-17
1.5784981e-17
1.5641416e-17
1.5505402e-17
1.5306806e-17
1.9503039e-07
1.9395121e-07
1.9399407e-07
1.9413726e-07
1.942172e-07
1.9425352e-07
1.9427202e-07
1.9428362e-07
1.9429228e-07
1.9429959e-07
1.9430639e-07
1.9431322e-07
1.9432059e-07
1.9432901e-07
1.943391e-07
1.943516e-07
1.9436814e-07
1.9438851e-07
1.9442605e-07
1.944348e-07
1.9469051e-07
1.9401229e-07
1.9470628e-07
1.6781867e-09
5.1455068e-16
3.5326661e-17
1.7869212e-17
1.2055341e-17
9.2498504e-18
7.550286e-18
6.3981009e-18
5.5535636e-18
4.9070328e-18
4.3962408e-18
3.9817972e-18
3.6384039e-18
3.3480481e-18
3.1025339e-18
2.8918945e-18
2.708876e-18
2.548021e-18
2.405292e-18
2.2779586e-18
2.1637888e-18
2.0609814e-18
1.9680387e-18
1.8837185e-18
1.8069906e-18
1.7364673e-18
1.6712706e-18
1.6106529e-18
1.5536741e-18
1.4995846e-18
1.4480679e-18
1.4003169e-18
1.3594572e-18
1.3254279e-18
1.2950778e-18
1.2677768e-18
1.24344e-18
1.2220091e-18
1.2034523e-18
1.187766e-18
1.1750089e-18
1.1649267e-18
1.1571712e-18
1.1519813e-18
1.1491261e-18
1.1477354e-18
1.1460109e-18
1.1457665e-18
1.1597063e-18
1.1824151e-18
1.2118342e-18
1.2490338e-18
1.2951571e-18
1.3517773e-18
1.4206433e-18
1.5034578e-18
1.6003544e-18
1.7046367e-18
1.8280363e-18
2.0059465e-18
2.221554e-18
2.4838515e-18
2.8047013e-18
3.199373e-18
3.686695e-18
4.2837265e-18
4.9683818e-18
5.8440612e-18
7.0109476e-18
8.4658243e-18
1.0271729e-17
1.2496029e-17
1.5198474e-17
1.8406561e-17
2.2122862e-17
2.6283798e-17
3.0654566e-17
3.4871051e-17
3.8613965e-17
4.17356e-17
4.4261011e-17
4.6302362e-17
4.7980396e-17
4.9386959e-17
5.0579393e-17
5.1579525e-17
5.2402239e-17
5.3065362e-17
5.3574431e-17
5.392318e-17
5.4102432e-17
5.411885e-17
5.3997224e-17
5.376659e-17
5.345375e-17
5.3081091e-17
5.266684e-17
5.2225474e-17
5.1767629e-17
5.130115e-17
5.0831831e-17
5.036403e-17
4.990057e-17
4.9443368e-17
4.8993359e-17
4.8551054e-17
4.8117278e-17
4.7689781e-17
4.7270178e-17
4.684856e-17
4.6423656e-17
4.6019529e-17
4.5429335e-17
1.9501538e-07
1.9392748e-07
1.939707e-07
1.9411483e-07
1.9419528e-07
1.9423185e-07
1.9425048e-07
1.9426215e-07
1.9427086e-07
1.9427822e-07
1.9428505e-07
1.9429193e-07
1.9429933e-07
1.9430778e-07
1.9431792e-07
1.9433046e-07
1.9434706e-07
1.9436748e-07
1.9440514e-07
1.9441382e-07
1.9467039e-07
1.939902e-07
1.9468909e-07
1.7178307e-09
8.7694055e-16
3.9072115e-17
1.973019e-17
1.3321342e-17
1.028315e-17
8.4547896e-18
7.2099078e-18
6.2922032e-18
5.5871563e-18
5.028731e-18
4.5748856e-18
4.1986111e-18
3.878638e-18
3.6123309e-18
3.3865834e-18
3.1920881e-18
3.0218473e-18
2.871187e-18
2.7373105e-18
2.6180165e-18
2.511477e-18
2.4161364e-18
2.3306968e-18
2.2540887e-18
2.1847071e-18
2.12166e-18
2.0638256e-18
2.009932e-18
1.9591449e-18
1.9112337e-18
1.8680386e-18
1.8341673e-18
1.8098345e-18
1.7908541e-18
1.7765272e-18
1.7669154e-18
1.7621191e-18
1.7622803e-18
1.7675943e-18
1.7784025e-18
1.7942754e-18
1.8148918e-18
1.8410059e-18
1.8726626e-18
1.9088321e-18
1.946872e-18
1.9899816e-18
2.0599433e-18
2.1489145e-18
2.2544332e-18
2.379385e-18
2.526996e-18
2.7014954e-18
2.9077636e-18
3.1509794e-18
3.4336846e-18
3.7455525e-18
4.1105206e-18
4.6012677e-18
5.1910691e-18
5.9039459e-18
6.7714865e-18
7.8345399e-18
9.1441953e-18
1.0751093e-17
1.2625087e-17
1.5003579e-17
1.812567e-17
2.2014909e-17
2.6839579e-17
3.2779713e-17
3.9995504e-17
4.8562206e-17
5.849076e-17
6.9618724e-17
8.1329891e-17
9.2659083e-17
1.0274411e-16
1.1117133e-16
1.179945e-16
1.2351001e-16
1.2804129e-16
1.318351e-16
1.3504697e-16
1.3773779e-16
1.3995005e-16
1.4173328e-16
1.4310308e-16
1.4404298e-16
1.4452841e-16
1.4457713e-16
1.4425565e-16
1.4364186e-16
1.4280759e-16
1.4181291e-16
1.4070669e-16
1.395277e-16
1.3830443e-16
1.3705794e-16
1.3580377e-16
1.3455354e-16
1.3331484e-16
1.3209283e-16
1.3089002e-16
1.2970781e-16
1.285484e-16
1.2740573e-16
1.2628447e-16
1.2515741e-16
1.2402324e-16
1.2294323e-16
1.2136587e-16
1.9499713e-07
1.9389853e-07
1.9394219e-07
1.9408747e-07
1.9416856e-07
1.9420542e-07
1.942242e-07
1.9423597e-07
1.9424475e-07
1.9425216e-07
1.9425904e-07
1.9426596e-07
1.9427341e-07
1.942819e-07
1.9429209e-07
1.9430469e-07
1.9432135e-07
1.9434184e-07
1.9437965e-07
1.9438823e-07
1.9464585e-07
1.9396324e-07
1.9466898e-07
1.7617444e-09
1.5895705e-15
4.8662225e-17
2.4500207e-17
1.6564929e-17
1.2923287e-17
1.0762095e-17
9.280984e-18
8.178944e-18
7.3278311e-18
6.6512984e-18
6.0999681e-18
5.6426137e-18
5.2536467e-18
4.9323337e-18
4.662309e-18
4.4320889e-18
4.2318731e-18
4.0555001e-18
3.8998935e-18
3.762801e-18
3.6422366e-18
3.536434e-18
3.4439035e-18
3.3634331e-18
3.2929291e-18
3.2314563e-18
3.1770075e-18
3.1275678e-18
3.0821422e-18
3.0407015e-18
3.0063928e-18
2.9867816e-18
2.9826463e-18
2.9877785e-18
3.0013762e-18
3.0238303e-18
3.0555984e-18
3.0972178e-18
3.1493358e-18
3.2129433e-18
3.2872147e-18
3.3719638e-18
3.4691489e-18
3.5795725e-18
3.7021195e-18
3.8327445e-18
3.9776692e-18
4.1768572e-18
4.4181167e-18
4.698725e-18
5.0257694e-18
5.407341e-18
5.8538377e-18
6.3774835e-18
6.991794e-18
7.7058931e-18
8.5046974e-18
9.4382161e-18
1.0655125e-17
1.2113632e-17
1.3872761e-17
1.6010015e-17
1.8625919e-17
2.1847387e-17
2.5807127e-17
3.0478783e-17
3.6385892e-17
4.4067898e-17
5.3634868e-17
6.5500776e-17
8.0108868e-17
9.7854562e-17
1.1892631e-16
1.4335842e-16
1.7076547e-16
1.9965251e-16
2.2765832e-16
2.5264344e-16
2.7355267e-16
2.9049211e-16
3.0418438e-16
3.1542693e-16
3.2483001e-16
3.3278123e-16
3.3943572e-16
3.4490335e-16
3.4930966e-16
3.526947e-16
3.5501858e-16
3.5622082e-16
3.5634516e-16
3.5555582e-16
3.5404505e-16
3.519901e-16
3.4953925e-16
3.4681314e-16
3.4390734e-16
3.4089218e-16
3.3781966e-16
3.347281e-16
3.316462e-16
3.2859263e-16
3.2558014e-16
3.2261502e-16
3.1970064e-16
3.168425e-16
3.1402556e-16
3.112617e-16
3.0848317e-16
3.0568854e-16
3.0302627e-16
2.991379e-16
1.9497525e-07
1.9386369e-07
1.9390789e-07
1.9405455e-07
1.9413642e-07
1.9417363e-07
1.941926e-07
1.9420448e-07
1.9421334e-07
1.9422082e-07
1.9422776e-07
1.9423473e-07
1.9424223e-07
1.9425078e-07
1.9426103e-07
1.942737e-07
1.9429044e-07
1.9431102e-07
1.9434899e-07
1.9435745e-07
1.9461635e-07
1.9393076e-07
1.9464611e-07
1.8108652e-09
2.9396174e-15
7.1034582e-17
3.564209e-17
2.4137352e-17
1.9062738e-17
1.6105015e-17
1.4061237e-17
1.2522694e-17
1.1326856e-17
1.0372237e-17
9.5917646e-18
8.9439568e-18
8.3935504e-18
7.9422734e-18
7.5666979e-18
7.2506238e-18
6.9780339e-18
6.7393734e-18
6.530838e-18
6.3499669e-18
6.194352e-18
6.0617042e-18
5.9500645e-18
5.8578699e-18
5.782027e-18
5.7215284e-18
5.6724108e-18
5.6310964e-18
5.5963282e-18
5.5685437e-18
5.5534294e-18
5.5641975e-18
5.602749e-18
5.6591387e-18
5.7324568e-18
5.8238108e-18
5.9344377e-18
6.0657382e-18
6.2193506e-18
6.3976909e-18
6.5990868e-18
6.8237853e-18
7.0764212e-18
7.3596849e-18
7.6727863e-18
8.009578e-18
8.3826009e-18
8.8667788e-18
9.4426451e-18
1.010812e-17
1.0879548e-17
1.1775822e-17
1.2820969e-17
1.4043565e-17
1.5476008e-17
1.7143707e-17
1.9027529e-17
2.1231043e-17
2.4052168e-17
2.7429856e-17
3.1500641e-17
3.6443642e-17
4.249169e-17
4.994079e-17
5.9112089e-17
7.0027041e-17
8.3797323e-17
1.015869e-16
1.2373967e-16
1.5121464e-16
1.8503929e-16
2.2613211e-16
2.7493572e-16
3.3154291e-16
3.9508732e-16
4.6214503e-16
5.2727048e-16
5.8547365e-16
6.342399e-16
6.7376587e-16
7.0571284e-16
7.3193128e-16
7.5384112e-16
7.723496e-16
7.8782623e-16
8.0053553e-16
8.1077519e-16
8.1864121e-16
8.2404228e-16
8.2683838e-16
8.2713108e-16
8.2530182e-16
8.2179709e-16
8.1702854e-16
8.1134053e-16
8.0501323e-16
7.9826859e-16
7.9126988e-16
7.8413789e-16
7.7696163e-16
7.6980768e-16
7.6271944e-16
7.5572653e-16
7.4884355e-16
7.4207837e-16
7.3544374e-16
7.289047e-16
7.2248913e-16
7.1603918e-16
7.0955313e-16
7.0337328e-16
6.9434726e-16
1.9494932e-07
1.9382222e-07
1.9386705e-07
1.9401538e-07
1.9409817e-07
1.9413581e-07
1.94155e-07
1.9416702e-07
1.9417598e-07
1.9418354e-07
1.9419054e-07
1.9419758e-07
1.9420514e-07
1.9421376e-07
1.9422408e-07
1.9423682e-07
1.9425366e-07
1.9427434e-07
1.9431252e-07
1.9432084e-07
1.9458124e-07
1.9389205e-07
1.9462075e-07
1.8663234e-09
5.4374917e-15
1.194303e-16
5.9756443e-17
4.0523516e-17
3.2330147e-17
2.763466e-17
2.4365595e-17
2.1878576e-17
1.9934705e-17
1.8377264e-17
1.7100436e-17
1.6040245e-17
1.5141249e-17
1.4407779e-17
1.3801968e-17
1.3297995e-17
1.2866739e-17
1.2491376e-17
1.2166471e-17
1.188904e-17
1.1655723e-17
1.1463075e-17
1.1308106e-17
1.1188483e-17
1.109916e-17
1.1039047e-17
1.1000032e-17
1.0975366e-17
1.0963415e-17
1.0965664e-17
1.0992608e-17
1.1067932e-17
1.1195729e-17
1.1359397e-17
1.1558018e-17
1.1794216e-17
1.2070877e-17
1.2391232e-17
1.2759022e-17
1.3179688e-17
1.3649807e-17
1.4170788e-17
1.4753003e-17
1.5403541e-17
1.6123198e-17
1.6903084e-17
1.7768577e-17
1.8860041e-17
2.0146589e-17
2.1629636e-17
2.3345216e-17
2.5335333e-17
2.765307e-17
3.0362068e-17
3.3535779e-17
3.7237323e-17
4.1450119e-17
4.6384847e-17
5.2625265e-17
6.0093575e-17
6.90918e-17
8.0015934e-17
9.3381597e-17
1.0984788e-16
1.3014985e-16
1.5447903e-16
1.8512443e-16
2.245136e-16
2.7356264e-16
3.3439596e-16
4.0929096e-16
5.0028692e-16
6.0837521e-16
7.3378517e-16
8.7464575e-16
1.0234437e-15
1.1681597e-15
1.2976789e-15
1.4063029e-15
1.4943779e-15
1.5655602e-15
1.6239547e-15
1.6727181e-15
1.7138776e-15
1.74827e-15
1.7764996e-15
1.7992382e-15
1.8167044e-15
1.828698e-15
1.834909e-15
1.835563e-15
1.8315067e-15
1.8237313e-15
1.8131504e-15
1.8005286e-15
1.7864876e-15
1.7715202e-15
1.7559887e-15
1.7401613e-15
1.7242356e-15
1.7083593e-15
1.6926287e-15
1.6771096e-15
1.6618345e-15
1.6468208e-15
1.6320969e-15
1.617585e-15
1.6033474e-15
1.5890331e-15
1.57464e-15
1.5609254e-15
1.5408944e-15
1.9491887e-07
1.9377323e-07
1.9381882e-07
1.9396914e-07
1.9405303e-07
1.9409119e-07
1.9411063e-07
1.9412282e-07
1.941319e-07
1.9413955e-07
1.9414664e-07
1.9415375e-07
1.9416139e-07
1.9417008e-07
1.9418048e-07
1.9419332e-07
1.9421028e-07
1.9423107e-07
1.9426948e-07
1.9427764e-07
1.9453983e-07
1.9384626e-07
1.9459337e-07
1.9294914e-09
9.987702e-15
2.2003594e-16
1.0989901e-16
7.4594596e-17
5.9903298e-17
5.1584657e-17
4.5763176e-17
4.1302268e-17
3.7802711e-17
3.4992267e-17
3.2684132e-17
3.0767366e-17
2.9145926e-17
2.7825318e-17
2.6739049e-17
2.5842281e-17
2.5079101e-17
2.4417647e-17
2.3849048e-17
2.336918e-17
2.2972664e-17
2.2653638e-17
2.2406959e-17
2.2228687e-17
2.2110059e-17
2.2049958e-17
2.2031715e-17
2.2042291e-17
2.2079594e-17
2.214739e-17
2.2265114e-17
2.2475502e-17
2.2786863e-17
2.3171051e-17
2.3627518e-17
2.4162022e-17
2.4780858e-17
2.549104e-17
2.6300663e-17
2.7221434e-17
2.8246384e-17
2.9379756e-17
3.0643881e-17
3.2055622e-17
3.3620611e-17
3.5327238e-17
3.7226436e-17
3.9578837e-17
4.2336884e-17
4.5512882e-17
4.918367e-17
5.3439379e-17
5.8393408e-17
6.4182561e-17
7.0966878e-17
7.889291e-17
8.7968502e-17
9.8614589e-17
1.1195303e-16
1.2791285e-16
1.471401e-16
1.7048145e-16
1.9904084e-16
2.3423567e-16
2.7768119e-16
3.3003884e-16
3.9591072e-16
4.8023162e-16
5.8523183e-16
7.1546145e-16
8.7580039e-16
1.0706246e-15
1.3020767e-15
1.5706901e-15
1.8725435e-15
2.1916732e-15
2.5024154e-15
2.7808562e-15
3.0145636e-15
3.2041176e-15
3.3573071e-15
3.4829331e-15
3.5877776e-15
3.6762123e-15
3.7500631e-15
3.8106563e-15
3.8594532e-15
3.8969325e-15
3.9226693e-15
3.9359997e-15
3.9374081e-15
3.9287112e-15
3.9120354e-15
3.8893408e-15
3.8622673e-15
3.8321495e-15
3.8000438e-15
3.7667278e-15
3.7327769e-15
3.698615e-15
3.6645588e-15
3.6308153e-15
3.5975254e-15
3.5647588e-15
3.5325528e-15
3.5009685e-15
3.469839e-15
3.439298e-15
3.4085925e-15
3.3777188e-15
3.3482997e-15
3.3053313e-15
1.9488338e-07
1.9371578e-07
1.9376226e-07
1.9391494e-07
1.9400014e-07
1.940389e-07
1.9405865e-07
1.9407103e-07
1.9408025e-07
1.9408801e-07
1.940952e-07
1.941024e-07
1.9411012e-07
1.9411891e-07
1.9412941e-07
1.9414236e-07
1.9415944e-07
1.9418037e-07
1.9421906e-07
1.9422701e-07
1.944913e-07
1.9379246e-07
1.9456467e-07
2.0020478e-09
1.8190427e-14
4.2412597e-16
2.1163748e-16
1.4372399e-16
1.1584024e-16
1.0016509e-16
8.9163691e-17
8.0698846e-17
7.4044917e-17
6.8694712e-17
6.4296696e-17
6.0644539e-17
5.756221e-17
5.5050683e-17
5.2987734e-17
5.1291636e-17
4.9852755e-17
4.8608825e-17
4.7543966e-17
4.6651695e-17
4.5922512e-17
4.5345636e-17
4.4911553e-17
4.4613065e-17
4.4434446e-17
4.4374789e-17
4.4400117e-17
4.4485099e-17
4.462728e-17
4.4835256e-17
4.514489e-17
4.56331e-17
4.6316227e-17
4.7146512e-17
4.8124834e-17
4.9263304e-17
5.0575135e-17
5.2075024e-17
5.3779903e-17
5.5714208e-17
5.7863918e-17
6.023975e-17
6.2888471e-17
6.5847934e-17
6.9136223e-17
7.2741271e-17
7.6764147e-17
8.1683708e-17
8.7430495e-17
9.4045162e-17
1.0168746e-16
1.1054573e-16
1.2085613e-16
1.3290499e-16
1.4703089e-16
1.6355892e-16
1.8257924e-16
2.0492e-16
2.3270415e-16
2.6594548e-16
3.0599092e-16
3.5460514e-16
4.1409164e-16
4.8741884e-16
5.78029e-16
6.877394e-16
8.2563599e-16
1.001559e-15
1.2206288e-15
1.4923431e-15
1.826892e-15
2.233424e-15
2.7164462e-15
3.2771456e-15
3.9074889e-15
4.5743823e-15
5.2243949e-15
5.8074212e-15
6.2971093e-15
6.6943854e-15
7.0154325e-15
7.2786372e-15
7.4981921e-15
7.6832766e-15
7.8377603e-15
7.9644687e-15
8.0664909e-15
8.1448454e-15
8.1986513e-15
8.2265238e-15
8.2294758e-15
8.2113049e-15
8.1764558e-15
8.1290256e-15
8.0724424e-15
8.0094953e-15
7.9423929e-15
7.8727606e-15
7.8018009e-15
7.7303998e-15
7.6592197e-15
7.5886927e-15
7.5191138e-15
7.4506287e-15
7.3833153e-15
7.3173011e-15
7.2522375e-15
7.1884043e-15
7.1242266e-15
7.0596991e-15
6.9982105e-15
6.9084025e-15
1.9484229e-07
1.9364877e-07
1.9369629e-07
1.9385175e-07
1.939385e-07
1.9397797e-07
1.9399809e-07
1.940107e-07
1.9402008e-07
1.9402798e-07
1.9403527e-07
1.9404258e-07
1.9405041e-07
1.940593e-07
1.9406992e-07
1.9408299e-07
1.9410023e-07
1.9412131e-07
1.9416032e-07
1.9416803e-07
1.9443477e-07
1.9372954e-07
1.9453572e-07
2.0860627e-09
3.2873694e-14
8.3137121e-16
4.1468102e-16
2.8169051e-16
2.2747591e-16
1.9712006e-16
1.7578476e-16
1.5933423e-16
1.4639071e-16
1.3597766e-16
1.2741432e-16
1.2030402e-16
1.1431526e-16
1.0942845e-16
1.054141e-16
1.0211974e-16
9.9329547e-17
9.6920701e-17
9.4863311e-17
9.3146156e-17
9.175149e-17
9.0658706e-17
8.9849575e-17
8.9310417e-17
8.9012584e-17
8.8956045e-17
8.9072325e-17
8.9312327e-17
8.9673847e-17
9.0175481e-17
9.0883037e-17
9.193418e-17
9.3360449e-17
9.5081362e-17
9.7101783e-17
9.9446531e-17
1.0214265e-16
1.0522022e-16
1.0871386e-16
1.1267347e-16
1.1707118e-16
1.219319e-16
1.2735153e-16
1.3341187e-16
1.401604e-16
1.4759273e-16
1.5590726e-16
1.6597536e-16
1.7770408e-16
1.9120136e-16
2.0679297e-16
2.2486458e-16
2.4589842e-16
2.7048167e-16
2.9931478e-16
3.3309562e-16
3.7213464e-16
4.1804119e-16
4.7478578e-16
5.4267226e-16
6.2445403e-16
7.2373741e-16
8.4523446e-16
9.9503624e-16
1.1803083e-15
1.4055242e-15
1.6883786e-15
2.0482111e-15
2.4963027e-15
3.0520881e-15
3.7364264e-15
4.5680641e-15
5.5562847e-15
6.7036453e-15
7.9939741e-15
9.3599502e-15
1.0692481e-14
1.1888705e-14
1.2893998e-14
1.3709754e-14
1.4368959e-14
1.4909263e-14
1.5359773e-14
1.5739366e-14
1.6056063e-14
1.6315746e-14
1.6524803e-14
1.6685351e-14
1.6795601e-14
1.6852718e-14
1.685878e-14
1.6821566e-14
1.6750182e-14
1.6653024e-14
1.6537112e-14
1.6408163e-14
1.62707e-14
1.6128053e-14
1.5982687e-14
1.5836416e-14
1.5690597e-14
1.5546116e-14
1.5403577e-14
1.5263279e-14
1.5125381e-14
1.4990145e-14
1.4856855e-14
1.4726087e-14
1.4594613e-14
1.4462423e-14
1.4336458e-14
1.4152478e-14
1.9479501e-07
1.9357099e-07
1.9361971e-07
1.9377847e-07
1.9386702e-07
1.9390733e-07
1.9392789e-07
1.9394076e-07
1.9395033e-07
1.9395838e-07
1.9396582e-07
1.9397324e-07
1.9398119e-07
1.9399021e-07
1.9400096e-07
1.9401418e-07
1.940316e-07
1.9405285e-07
1.9409223e-07
1.9409966e-07
1.9436924e-07
1.9365629e-07
1.9450797e-07
2.1841082e-09
5.903201e-14
1.6344539e-15
8.1514717e-16
5.5381151e-16
4.4767114e-16
3.8837063e-16
3.4666531e-16
3.1447611e-16
2.8913913e-16
2.6875174e-16
2.5198339e-16
2.3806219e-16
2.2635712e-16
2.167887e-16
2.0892264e-16
2.0247181e-16
1.9701252e-16
1.9230278e-16
1.8828503e-16
1.849387e-16
1.8222975e-16
1.8011822e-16
1.7856869e-16
1.7755475e-16
1.7702391e-16
1.7697867e-16
1.7728252e-16
1.7784077e-16
1.7865337e-16
1.7975929e-16
1.8127861e-16
1.8345624e-16
1.8635235e-16
1.8983275e-16
1.939121e-16
1.9864036e-16
2.0407194e-16
2.1026732e-16
2.1729614e-16
2.2525872e-16
2.3410022e-16
2.4387565e-16
2.5477862e-16
2.6698112e-16
2.805964e-16
2.9564984e-16
3.1252726e-16
3.3280185e-16
3.5636875e-16
3.8348683e-16
4.1481048e-16
4.5111719e-16
4.9337688e-16
5.4277462e-16
6.0073471e-16
6.6871882e-16
7.475676e-16
8.4037867e-16
9.5451451e-16
1.0910569e-15
1.2555486e-15
1.455248e-15
1.6996462e-15
2.001045e-15
2.3740909e-15
2.8290965e-15
3.400171e-15
4.1249121e-15
5.0274301e-15
6.1468842e-15
7.5253164e-15
9.2005445e-15
1.1191381e-14
1.3503199e-14
1.6103878e-14
1.8858468e-14
2.1547577e-14
2.3963378e-14
2.5994586e-14
2.7643143e-14
2.8975281e-14
3.0066913e-14
3.0976795e-14
3.1743128e-14
3.2382248e-14
3.290618e-14
3.3327915e-14
3.3651776e-14
3.3874174e-14
3.3989403e-14
3.4001655e-14
3.392662e-14
3.3782666e-14
3.3586722e-14
3.3352954e-14
3.3092888e-14
3.2815649e-14
3.2527955e-14
3.2234774e-14
3.1939768e-14
3.1645673e-14
3.1354276e-14
3.1066796e-14
3.0783834e-14
3.0505713e-14
3.023296e-14
2.9964135e-14
2.9700394e-14
2.9435228e-14
2.9168622e-14
2.8914567e-14
2.8543504e-14
1.947409e-07
1.9348108e-07
1.935312e-07
1.9369382e-07
1.937845e-07
1.9382579e-07
1.9384685e-07
1.9386003e-07
1.9386984e-07
1.9387807e-07
1.9388565e-07
1.9389322e-07
1.9390131e-07
1.9391047e-07
1.9392137e-07
1.9393477e-07
1.9395238e-07
1.9397384e-07
1.9401365e-07
1.9402073e-07
1.9429362e-07
1.9357131e-07
1.9448338e-07
2.2994055e-09
1.0548005e-13
3.204272e-15
1.5981025e-15
1.085856e-15
8.7821715e-16
7.6235209e-16
6.8084555e-16
6.1790783e-16
5.6836153e-16
5.2849331e-16
4.9570151e-16
4.6848108e-16
4.4562775e-16
4.2691233e-16
4.1151147e-16
3.9888303e-16
3.881996e-16
3.7898646e-16
3.7113204e-16
3.6459744e-16
3.5931684e-16
3.5521237e-16
3.5221511e-16
3.5027379e-16
3.4929215e-16
3.4927896e-16
3.4996469e-16
3.5116764e-16
3.528948e-16
3.5522607e-16
3.583796e-16
3.6278876e-16