/*--------------------------------*- C++ -*----------------------------------*\
| =========                 |                                                 |
| \\      /  F ield         | OpenFOAM: The Open Source CFD Toolbox           |
|  \\    /   O peration     | Version:  2206                                  |
|   \\  /    A nd           | Website:  www.openfoam.com                      |
|    \\/     M anipulation  |                                                 |
\*---------------------------------------------------------------------------*/
FoamFile
{
    version     2.0;
    format      ascii;
    arch        "LSB;label=32;scalar=64";
    class       volScalarField;
    location    "900";
    object      omega;
}
// * * * * * * * * * * * * * * * * * * * * * * * * * * * * * * * * * * * * * //

dimensions      [0 0 -1 0 0 0 0];

internalField   nonuniform List<scalar> 
13056
(
537.97
479.02776
474.13919
474.03511
474.14047
474.13667
474.11488
474.10004
474.09285
474.09166
474.09556
474.10432
474.11812
474.13756
474.16364
474.19835
474.24365
474.30745
474.38514
474.54864
474.57874
475.34455
483.02693
19509.84
1.1944345e+09
1.1944345e+09
1.1944345e+09
1.1944345e+09
1.1944345e+09
1.1944345e+09
1.1944345e+09
1.1944345e+09
1.1944345e+09
1.1944345e+09
1.1944345e+09
1.1944345e+09
1.1944345e+09
1.1944345e+09
1.1944345e+09
1.1944345e+09
1.1944345e+09
1.1944345e+09
1.1944345e+09
1.1944345e+09
1.1944345e+09
1.1944345e+09
1.1944345e+09
1.1944345e+09
1.1944345e+09
1.1944345e+09
1.1944345e+09
1.1944345e+09
1.1944345e+09
1.1944345e+09
1.1944345e+09
1.1944345e+09
1.1944345e+09
1.1944345e+09
1.1944345e+09
1.1944345e+09
1.1944345e+09
1.1944345e+09
1.1944345e+09
1.1944345e+09
1.1944345e+09
1.1944345e+09
1.1944345e+09
1.1944345e+09
1.1944345e+09
1.1944345e+09
1.1944345e+09
1.1944345e+09
1.1944345e+09
1.1944345e+09
1.1944345e+09
1.1944345e+09
1.1944345e+09
1.1944345e+09
1.1944345e+09
1.1944345e+09
1.1944345e+09
1.1944345e+09
1.1944345e+09
1.1944345e+09
1.1944345e+09
1.1944345e+09
1.1944345e+09
1.1944345e+09
1.1944345e+09
1.1944345e+09
1.1944345e+09
1.1944345e+09
1.1944345e+09
1.1944345e+09
1.1944345e+09
1.1944345e+09
1.1944345e+09
1.1944345e+09
1.1944345e+09
1.1944345e+09
1.1944345e+09
1.1944345e+09
1.1944345e+09
1.1944345e+09
1.1944345e+09
1.1944345e+09
1.1944345e+09
1.1944345e+09
1.1944345e+09
1.1944345e+09
1.1944345e+09
1.1944345e+09
1.1944345e+09
1.1944345e+09
1.1944345e+09
1.1944345e+09
1.1944345e+09
1.1944345e+09
1.1944345e+09
1.1944345e+09
1.1944345e+09
1.1944345e+09
1.1944345e+09
1.1944345e+09
1.1944345e+09
1.1944345e+09
1.1944345e+09
1.1944345e+09
1.1944345e+09
1.1944345e+09
1.1944345e+09
1.1944345e+09
1.1944345e+09
1.1944345e+09
1.1944345e+09
1.1944345e+09
537.93761
478.97766
474.0881
473.98373
474.08905
474.08523
474.06344
474.04858
474.04139
474.04019
474.0441
474.05286
474.06665
474.0861
474.11218
474.1469
474.1922
474.25601
474.3337
474.49722
474.52733
475.29304
482.97433
19219.702
1.9586965e+08
1.962697e+08
1.9626968e+08
1.9626968e+08
1.9626969e+08
1.962697e+08
1.9626971e+08
1.9626972e+08
1.9626973e+08
1.9626974e+08
1.9626975e+08
1.9626976e+08
1.9626977e+08
1.9626978e+08
1.9626979e+08
1.962698e+08
1.9626981e+08
1.9626983e+08
1.9626984e+08
1.9626985e+08
1.9626986e+08
1.9626988e+08
1.9626989e+08
1.9626991e+08
1.9626993e+08
1.9626995e+08
1.9626997e+08
1.9626999e+08
1.9627002e+08
1.9627006e+08
1.9627009e+08
1.9627012e+08
1.9627015e+08
1.9627018e+08
1.9627022e+08
1.9627026e+08
1.962703e+08
1.9627035e+08
1.962704e+08
1.9627046e+08
1.9627053e+08
1.962706e+08
1.9627069e+08
1.962708e+08
1.9627093e+08
1.962711e+08
1.9627131e+08
1.9627147e+08
1.9627163e+08
1.9627183e+08
1.9627205e+08
1.9627232e+08
1.9627264e+08
1.9627303e+08
1.9627353e+08
1.9627421e+08
1.9627533e+08
1.9627665e+08
1.9627752e+08
1.9627857e+08
1.9627986e+08
1.9628147e+08
1.9628353e+08
1.962863e+08
1.9629063e+08
1.9630014e+08
1.9630885e+08
1.9631425e+08
1.9632093e+08
1.9632917e+08
1.9633928e+08
1.9635167e+08
1.9636691e+08
1.9638615e+08
1.964112e+08
1.9644363e+08
1.9648237e+08
1.9652172e+08
1.9655557e+08
1.9658163e+08
1.9660074e+08
1.966144e+08
1.9662375e+08
1.9662994e+08
1.96634e+08
1.9663681e+08
1.9663897e+08
1.9664073e+08
1.9664219e+08
1.9664335e+08
1.9664421e+08
1.9664483e+08
1.9664525e+08
1.9664553e+08
1.9664569e+08
1.9664579e+08
1.9664582e+08
1.966458e+08
1.9664576e+08
1.9664569e+08
1.9664561e+08
1.966455e+08
1.9664539e+08
1.9664528e+08
1.9664517e+08
1.9664505e+08
1.9664493e+08
1.9664488e+08
1.9664473e+08
1.9664494e+08
1.9664486e+08
1.9664473e+08
537.83452
478.82016
473.92768
473.82243
473.92763
473.92376
473.90193
473.88705
473.87984
473.87863
473.88253
473.89129
473.90508
473.92453
473.95062
473.98535
474.03067
474.09449
474.17221
474.33579
474.36591
475.1312
482.81281
18882.617
64132311
64221440
64221423
64221424
64221444
64221472
64221500
64221529
64221558
64221588
64221619
64221649
64221690
64221713
64221728
64221741
64221754
64221768
64221783
64221799
64221817
64221836
64221858
64221883
64221921
64221979
64222055
64222159
64222300
64222483
64222676
64222798
64222838
64222868
64222902
64222939
64222982
64223031
64223087
64223153
64223234
64223376
64223581
64223906
64224470
64225488
64226819
64227234
64227366
64227522
64227710
64228009
64228441
64229123
64230368
64233113
64240492
64249125
64249936
64250942
64252337
64254409
64257852
64264763
64283797
64357368
64413177
64418587
64426302
64437670
64455062
64482814
64528780
64607922
64745378
64967986
65274701
65609857
65906362
66134587
66298135
66409112
66478093
66516253
66534500
66542262
66545361
66546611
66547194
66547528
66547741
66547885
66547983
66548045
66548082
66548103
66548111
66548107
66548097
66548082
66548063
66548040
66548015
66547989
66547963
66547938
66547910
66547897
66547864
66547912
66547894
66547863
537.65749
478.55022
473.65278
473.54603
473.651
473.64705
473.62516
473.61024
473.60301
473.60178
473.60567
473.61442
473.62821
473.64766
473.67376
473.70851
473.75385
473.81772
473.89547
474.05914
474.08928
474.85382
482.53709
18526.294
29341513
29342962
29342925
29342933
29343013
29343129
29343252
29343376
29343506
29343640
29343774
29343912
29344099
29344199
29344251
29344290
29344330
29344372
29344419
29344470
29344528
29344594
29344669
29344756
29344909
29345159
29345505
29345990
29346668
29347556
29348494
29349054
29349183
29349254
29349334
29349426
29349534
29349661
29349812
29349994
29350246
29350788
29351637
29353077
29355727
29360694
29367235
29368989
29369221
29369507
29369866
29370695
29372074
29374585
29379794
29392478
29428727
29471095
29472761
29474851
29478178
29483975
29495452
29522846
29609708
29972203
30239123
30240949
30243553
30247390
30253214
30262625
30278132
30304823
30351151
30426101
30529211
30641673
30740985
30817313
30871949
30908994
30932008
30944736
30950821
30953409
30954443
30954860
30955054
30955165
30955236
30955285
30955317
30955338
30955350
30955357
30955360
30955358
30955355
30955350
30955344
30955336
30955328
30955319
30955310
30955302
30955293
30955289
30955277
30955293
30955287
30955277
537.40148
478.15992
473.2553
473.14639
473.25103
473.24696
473.22499
473.21002
473.20274
473.20149
473.20536
473.2141
473.2279
473.24736
473.27347
473.30824
473.35362
473.41753
473.49533
473.65914
473.68932
474.45276
482.13883
18154.722
16142243
16058844
16058755
16058785
16059048
16059431
16059840
16060256
16060691
16061140
16061591
16062053
16062687
16063017
16063182
16063303
16063424
16063555
16063699
16063859
16064040
16064247
16064485
16064762
16065265
16066100
16067265
16068907
16071208
16074235
16077429
16079319
16079722
16079918
16080143
16080406
16080716
16081084
16081527
16082070
16082841
16084603
16087407
16092230
16101201
16118124
16140444
16146259
16146802
16147485
16148367
16150801
16155040
16162891
16179503
16221458
16344065
16487096
16488603
16489499
16490925
16493409
16498326
16510062
16547251
16702066
16815639
16816415
16817522
16819152
16821627
16825625
16832214
16843550
16863219
16895019
16938725
16986338
17028338
17060586
17083653
17099286
17108995
17114363
17116930
17118021
17118457
17118633
17118715
17118762
17118792
17118812
17118826
17118834
17118840
17118843
17118844
17118843
17118842
17118840
17118837
17118834
17118830
17118827
17118823
17118819
17118815
17118814
17118809
17118816
17118813
17118809
537.05968
477.63851
472.72429
472.6125
472.7167
472.71247
472.69039
472.67533
472.668
472.66672
472.67056
472.6793
472.69309
472.71256
472.7387
472.7735
472.81892
472.8829
472.96076
473.12476
473.15498
473.91694
481.60671
17766.85
10020133
9791419.4
9791213.5
9791292.2
9791980.4
9792989.3
9794069.5
9795175.7
9796333.7
9797531.4
9798734.3
9799967.4
9801671.8
9802539.6
9802956.6
9803249.9
9803542.8
9803860
9804210.4
9804603.8
9805051.2
9805564.9
9806160.7
9806859
9808170.4
9810382.7
9813493.3
9817899.4
9824105.3
9832290.2
9840923.8
9845981.2
9846962.5
9847365
9847832.4
9848384.4
9849043.3
9849838.7
9850811.4
9852020.3
9853817.5
9858276.1
9865527.9
9878228
9902175
9947758.6
10007990
10022923
10023198
10023536
10023974
10025180
10027282
10031174
10039408
10060193
10120845
10191401
10192142
10192583
10193286
10194510
10196934
10202716
10221034
10297160
10352848
10353229
10353771
10354570
10355782
10357742
10360969
10366523
10376155
10391721
10413101
10436373
10456886
10472626
10483879
10491503
10496238
10498855
10500106
10500638
10500850
10500936
10500976
10500999
10501013
10501023
10501030
10501034
10501037
10501038
10501039
10501039
10501038
10501037
10501036
10501034
10501032
10501030
10501029
10501027
10501025
10501024
10501022
10501025
10501024
10501022
536.62355
476.97251
472.04598
471.9305
472.03412
472.02969
472.00746
471.99231
471.98491
471.98357
471.98739
471.99611
472.00991
472.02939
472.05555
472.0904
472.13587
472.19995
472.27788
472.44211
472.47239
473.23246
480.92639
17360.177
6627153.9
6407565.6
6407135
6407311.8
6408844.2
6411108.4
6413550.2
6416063.2
6418703
6421438.6
6424187.2
6427007.2
6430937.7
6432881.6
6433749.9
6434315.6
6434872.5
6435479.6
6436156.7
6436924.4
6437805.7
6438828
6440026
6441444.8
6444287
6449229.5
6456265.6
6466333.8
6480621.8
6499548.7
6519490.7
6530913.7
6532609
6532833.3
6533088.1
6533389
6533748.1
6534181.7
6534711.9
6535370.9
6536351
6538781.3
6542733.7
6549653.9
6562696.3
6587499
6620212.9
6628304.9
6628453.8
6628637.7
6628874.9
6629529.8
6630670.2
6632782.2
6637249.5
6648523
6681384.2
6719522.1
6719921.6
6720160.1
6720539.8
6721201.2
6722510.5
6725634.6
6735528.3
6776594.8
6806565.1
6806769.7
6807061.5
6807491.4
6808143.8
6809197.9
6810934.4
6813921.7
6819102.3
6827471.4
6838960.5
6851459.4
6862470
6870914.7
6876950.6
6881038.7
6883576.7
6884979.7
6885650.3
6885935.5
6886049.4
6886095.4
6886116.8
6886129
6886136.9
6886142.2
6886145.8
6886148
6886149.4
6886150.2
6886150.5
6886150.3
6886150
6886149.4
6886148.7
6886147.9
6886146.9
6886146
6886145
6886144.1
6886143.1
6886142.6
6886141.4
6886143.1
6886142.5
6886141.3
536.08291
476.14568
471.20379
471.08372
471.18662
471.18193
471.15952
471.14424
471.13676
471.13537
471.13915
471.14785
471.16165
471.18114
471.20734
471.24223
471.28778
471.35196
471.42999
471.59451
471.62487
472.38261
480.08055
16931.863
4576279.2
4413068
4412277.6
4412613.5
4415528.5
4419890.2
4424646.3
4429577.9
4434781.5
4440181.3
4445594.1
4451137.2
4459019.6
4462580.1
4463760.7
4464201.3
4464537
4464890.8
4465284.5
4465730.9
4466243.4
4466837.8
4467534.4
4468359.3
4470013.3
4472886.9
4476977
4482827.8
4491126.6
4502111.4
4513672
4520283.3
4521262.5
4521392.4
4521540.1
4521714.4
4521922.5
4522173.7
4522480.9
4522862.7
4523431.1
4524839.3
4527129.3
4531138.1
4538691.1
4553043.7
4571945
4576609.4
4576695.4
4576801.6
4576938.6
4577316.8
4577975.4
4579195
4581774.4
4588282.5
4607237.2
4629190.6
4629419.8
4629557.1
4629775.6
4630156.3
4630909.9
4632708
4638401.4
4662011.3
4679205.8
4679323.2
4679490.6
4679737.3
4680111.6
4680716.4
4681712.6
4683426.3
4686397.7
4691196.7
4697782.3
4704943.4
4711249.3
4716083.8
4719538.5
4721877.8
4723330.1
4724132.8
4724516.5
4724679.6
4724744.8
4724771.1
4724783.3
4724790.3
4724794.8
4724797.8
4724799.9
4724801.2
4724802
4724802.4
4724802.6
4724802.5
4724802.3
4724802
4724801.6
4724801.1
4724800.6
4724800
4724799.5
4724798.9
4724798.4
4724798.1
4724797.4
4724798.4
4724798
4724797.4
535.42597
475.13911
470.17839
470.05273
470.15473
470.14972
470.12709
470.11166
470.10407
470.10261
470.10635
470.11503
470.12882
470.14834
470.17457
470.20953
470.25516
470.31947
470.39762
470.56249
470.59293
471.3479
479.04883
16479.095
3257934.2
3158767.9
3158262.6
3158464.5
3160237.3
3162890.5
3165783.1
3168781.6
3171944.7
3175225.9
3178513.8
3181873.6
3186658.4
3188819.3
3189535.7
3189803.1
3190006.8
3190221.5
3190460.4
3190731.3
3191042.3
3191403
3191825.7
3192326.3
3193331
3195074.9
3197556.7
3201105.9
3206138.2
3212794.7
3219792.8
3223788.5
3224378.9
3224457.5
3224546.8
3224652.3
3224778.3
3224930.3
3225116.2
3225347.2
3225691.5
3226543.8
3227929.7
3230355.6
3234925.1
3243602.8
3255014.8
3257824.3
3257876.2
3257940.3
3258023
3258251.3
3258648.8
3259385
3260941.9
3264869.4
3276300.9
3289516
3289653.5
3289736.2
3289867.7
3290096.9
3290550.6
3291633.1
3295060.5
3309262.7
3319586
3319656.5
3319757
3319905.1
3320129.9
3320493.1
3321091.3
3322120.3
3323904.4
3326785.1
3330737
3335032.6
3338814
3341712.3
3343782.9
3345184.8
3346055
3346536
3346765.9
3346863.7
3346902.7
3346918.5
3346925.8
3346930
3346932.7
3346934.5
3346935.7
3346936.5
3346937
3346937.3
3346937.4
3346937.3
3346937.2
3346937
3346936.8
3346936.5
3346936.1
3346935.8
3346935.5
3346935.2
3346934.8
3346934.7
3346934.2
3346934.8
3346934.6
3346934.2
534.63941
473.9312
468.94771
468.81531
468.9162
468.9108
468.88791
468.87229
468.86458
468.86303
468.86672
468.87537
468.88916
468.9087
468.93498
468.97001
469.01574
469.08021
469.1585
469.3238
469.35433
470.10608
477.80772
15999.287
2371347.8
2309087.3
2308743.5
2308867.6
2309979
2311643.1
2313457.2
2315337.5
2317320.4
2319376.9
2321436.9
2323537.2
2326533.5
2327886.4
2328334.8
2328502.2
2328629.7
2328764.1
2328913.7
2329083.3
2329278
2329503.9
2329768.5
2330081.9
2330711.7
2331803.7
2333357.5
2335579.2
2338728.1
2342890.9
2347263.1
2349755.4
2350122.8
2350171.9
2350227.7
2350293.6
2350372.3
2350467.3
2350583.4
2350727.7
2350943
2351475.5
2352341.4
2353856.9
2356711
2362128.2
2369243.3
2370990.8
2371023.1
2371063
2371114.6
2371257
2371504.8
2371963.7
2372934.3
2375382.5
2382504.6
2390723.3
2390808.6
2390860
2390941.8
2391084.4
2391366.7
2392040.1
2394172.3
2403002.1
2409408.6
2409452.4
2409514.8
2409606.8
2409746.3
2409971.8
2410343.2
2410982
2412089.4
2413877.2
2416329.2
2418993.6
2421338.5
2423135.3
2424418.8
2425287.7
2425827
2426125.1
2426267.5
2426328.1
2426352.3
2426362.1
2426366.6
2426369.2
2426370.9
2426372
2426372.8
2426373.3
2426373.6
2426373.7
2426373.8
2426373.8
2426373.7
2426373.6
2426373.4
2426373.2
2426373
2426372.8
2426372.6
2426372.4
2426372.2
2426372.1
2426371.9
2426372.2
2426372.1
2426371.8
533.7084
472.49766
467.48688
467.34647
467.44601
467.44014
467.41693
467.40108
467.39322
467.39157
467.39519
467.40381
467.4176
467.43717
467.4635
467.49862
467.54447
467.60913
467.68758
467.85339
467.88401
468.63215
476.33056
15490.212
1754636.9
1714549.2
1714299.3
1714375.9
1715088.3
1716156
1717320
1718526.3
1719798.3
1721117.2
1722437.9
1723781.3
1725701.5
1726568.4
1726855.7
1726963
1727044.7
1727130.8
1727226.6
1727335.3
1727460
1727604.7
1727774.3
1727975.1
1728379.2
1729079.1
1730074.8
1731498.4
1733515.5
1736180.6
1738977.2
1740568.7
1740802.7
1740834.1
1740869.8
1740911.9
1740962.3
1741023
1741097.3
1741189.6
1741327.4
1741668.1
1742222
1743191.5
1745017
1748480.3
1753023.7
1754136.8
1754157.4
1754182.9
1754215.8
1754306.7
1754465
1754758.1
1755377.9
1756941.2
1761487
1766723.9
1766778
1766810.8
1766863
1766953.8
1767133.8
1767563.1
1768922.4
1774548.4
1778623.3
1778651.1
1778690.9
1778749.4
1778838.2
1778981.7
1779218
1779624.5
1780329.2
1781466.5
1783026.2
1784720.4
1786211.2
1787353.3
1788169
1788721.2
1789063.9
1789253.3
1789343.8
1789382.3
1789397.7
1789403.9
1789406.8
1789408.4
1789409.5
1789410.2
1789410.7
1789411
1789411.2
1789411.3
1789411.3
1789411.3
1789411.3
1789411.2
1789411.1
1789411
1789410.9
1789410.7
1789410.6
1789410.5
1789410.3
1789410.3
1789410.1
1789410.3
1789410.3
1789410.1
532.61673
470.81151
465.76825
465.61838
465.71628
465.70985
465.68626
465.67015
465.6621
465.66033
465.66388
465.67246
465.68625
465.70584
465.73223
465.76746
465.81344
465.87833
465.95697
466.12338
466.1541
466.89829
474.5873
14950.125
1314505.7
1288169.5
1287974
1288020.7
1288484.7
1289181.4
1289941.1
1290728.5
1291558.7
1292419.2
1293280.9
1294155.1
1295407.3
1295972.6
1296159.9
1296229.8
1296283.1
1296339.2
1296401.7
1296472.5
1296553.9
1296648.2
1296758.8
1296889.7
1297153.6
1297610.1
1298259.6
1299188
1300503.1
1302239.8
1304060.6
1305095.1
1305246.8
1305267.2
1305290.4
1305317.9
1305350.6
1305390.2
1305438.5
1305498.6
1305588.5
1305810.3
1306171.1
1306802.5
1307991.2
1310245.5
1313199.5
1313921.4
1313934.8
1313951.4
1313972.7
1314031.9
1314134.8
1314325.4
1314728.4
1315745
1318699.9
1322098.5
1322133.5
1322154.8
1322188.7
1322247.7
1322364.5
1322643.3
1323526
1327177.7
1329818.2
1329836.3
1329862
1329900
1329957.5
1330050.6
1330203.8
1330467.4
1330924.2
1331661.5
1332672.3
1333770.1
1334735.9
1335475.6
1336003.9
1336361.5
1336583.4
1336706.1
1336764.7
1336789.6
1336799.6
1336803.6
1336805.4
1336806.5
1336807.2
1336807.7
1336808
1336808.2
1336808.3
1336808.4
1336808.4
1336808.4
1336808.3
1336808.3
1336808.2
1336808.2
1336808.1
1336808
1336807.9
1336807.8
1336807.7
1336807.7
1336807.6
1336807.7
1336807.7
1336807.6
531.34684
468.84302
463.76136
463.60037
463.69631
463.68921
463.66517
463.64875
463.64048
463.63857
463.64202
463.65056
463.66434
463.68397
463.71043
463.74578
463.79193
463.85708
463.93594
464.10306
464.13387
464.87393
472.54442
14377.871
994147.68
976551.79
976386.73
976413.8
976719.43
977179.77
977682.08
978202.73
978751.66
979320.64
979890.19
980466.71
981294.23
981667.76
981791.5
981837.64
981872.79
981909.86
981951.12
981997.92
982051.66
982114.01
982187.08
982273.61
982448.23
982750.03
983179.37
983793.02
984662.09
985809.28
987010.89
987692.46
987792.13
987805.6
987820.93
987839.04
987860.65
987886.75
987918.67
987958.34
988017.69
988164.17
988402.36
988819.21
989603.94
991091.63
993038.87
993513.51
993522.34
993533.26
993547.36
993586.37
993654.22
993779.88
994045.65
994715.97
996663.71
998900.4
998923.37
998937.37
998959.67
998998.53
999075.47
999259.08
999840.39
1002244.5
1003980
1003991.9
1004008.8
1004033.8
1004071.6
1004132.8
1004233.6
1004406.9
1004707.4
1005192.2
1005856.7
1006578.3
1007213.1
1007699.2
1008046.3
1008281.3
1008427.1
1008507.6
1008546.1
1008562.5
1008569.1
1008571.7
1008572.9
1008573.6
1008574.1
1008574.4
1008574.6
1008574.7
1008574.8
1008574.8
1008574.9
1008574.9
1008574.8
1008574.8
1008574.8
1008574.7
1008574.7
1008574.6
1008574.5
1008574.5
1008574.4
1008574.4
1008574.3
1008574.4
1008574.4
1008574.3
529.87993
466.55978
461.4329
461.25893
461.35251
461.34462
461.32005
461.30326
461.29474
461.29265
461.296
461.30449
461.31826
461.33792
461.36447
461.39995
461.44629
461.51174
461.59086
461.75881
461.78969
462.5256
470.16481
13772.997
757386.25
745453.55
745303.61
745317.32
745519.97
745826.9
746162.18
746509.85
746876.44
747256.41
747636.72
748020.75
748573.22
748822.56
748905.12
748935.88
748959.31
748984.02
749011.54
749042.77
749078.63
749120.24
749169.01
749226.78
749343.54
749545.13
749831.9
750241.74
750822.05
751587.75
752389.07
752842.83
752909
752917.97
752928.19
752940.26
752954.67
752972.07
752993.36
753019.81
753059.45
753157.17
753316.09
753594.22
754117.76
755109.98
756407.31
756722.72
756728.6
756735.87
756745.26
756771.26
756816.48
756900.22
757077.35
757524.11
758821.89
760309.9
760325.12
760334.44
760349.28
760375.15
760426.37
760548.61
760935.65
762535.8
763689.06
763696.95
763708.21
763724.8
763749.98
763790.67
763857.7
763972.96
764172.73
764495.07
764936.86
765416.49
765838.33
766161.33
766391.98
766548.08
766644.95
766698.48
766724.07
766734.95
766739.29
766741.05
766741.86
766742.33
766742.63
766742.83
766742.97
766743.05
766743.11
766743.13
766743.14
766743.14
766743.12
766743.1
766743.07
766743.04
766743
766742.96
766742.92
766742.89
766742.85
766742.83
766742.78
766742.85
766742.82
766742.77
528.19617
463.92663
458.74671
458.55766
458.64843
458.6396
458.61441
458.59718
458.58836
458.58607
458.5893
458.59772
458.61148
458.63118
458.65783
458.69347
458.74002
458.80582
458.88523
459.05414
459.08506
459.81702
467.40765
13135.863
580315.64
572109.04
571964
571968.2
572102.82
572308.67
572533.99
572767.81
573014.46
573270.15
573526.05
573783.83
574155.58
574323.32
574378.82
574399.46
574415.17
574431.76
574450.24
574471.23
574495.33
574523.32
574556.12
574594.99
574673.69
574809.41
575002.49
575278.42
575669.05
576184.27
576723.01
577027.56
577071.84
577077.86
577084.72
577092.83
577102.51
577114.2
577128.51
577146.3
577172.97
577238.71
577345.61
577532.7
577884.87
578552.1
579423.61
579634.94
579638.89
579643.77
579650.08
579667.55
579697.93
579754.2
579873.25
580173.5
581045.48
582043.77
582053.95
582060.2
582070.16
582087.52
582121.91
582203.98
582463.87
583538.02
584310.96
584316.25
584323.8
584334.93
584351.81
584379.11
584424.06
584501.37
584635.36
584851.54
585147.78
585469.34
585752.13
585968.64
586123.23
586227.86
586292.78
586328.65
586345.8
586353.09
586356.01
586357.18
586357.73
586358.04
586358.25
586358.38
586358.47
586358.53
586358.56
586358.58
586358.58
586358.58
586358.57
586358.55
586358.53
586358.51
586358.48
586358.46
586358.43
586358.4
586358.38
586358.36
586358.33
586358.37
586358.35
586358.32
526.27488
460.90581
455.66385
455.45735
455.54478
455.53483
455.50891
455.49117
455.48201
455.47948
455.48256
455.4909
455.50464
455.5244
455.55115
455.58697
455.63377
455.69997
455.77971
455.94974
455.98064
456.70912
464.22828
12467.736
446648.53
440924.56
440777.24
440774.28
440863.3
441001.73
441153.79
441311.83
441478.67
441651.68
441824.86
441998.91
442250.55
442364.07
442401.56
442415.47
442426.04
442437.22
442449.69
442463.86
442480.15
442499.07
442521.26
442547.56
442600.92
442692.87
442823.68
443010.62
443275.23
443624.11
443988.61
444194.31
444224.12
444228.18
444232.81
444238.28
444244.82
444252.73
444262.4
444274.43
444292.5
444336.99
444409.36
444536.02
444774.44
445226.03
445815.28
445957.8
445960.46
445963.76
445968.01
445979.83
446000.37
446038.44
446118.96
446322.08
446911.82
447586
447592.84
447597.06
447603.79
447615.52
447638.76
447694.23
447869.9
448595.79
449117.31
449120.88
449125.98
449133.49
449144.89
449163.31
449193.67
449245.88
449336.35
449482.32
449682.32
449899.38
450090.26
450236.38
450340.71
450411.31
450455.12
450479.33
450490.91
450495.83
450497.79
450498.59
450498.96
450499.17
450499.31
450499.4
450499.46
450499.49
450499.52
450499.53
450499.53
450499.52
450499.51
450499.5
450499.49
450499.47
450499.45
450499.43
450499.41
450499.4
450499.38
450499.37
450499.34
450499.37
450499.36
450499.33
524.09483
457.45707
452.14268
451.91607
451.99953
451.98826
451.96149
451.94316
451.93359
451.93079
451.93369
451.94193
451.95566
451.97546
452.00233
452.03837
452.08544
452.1521
452.23221
452.40353
452.43434
453.16018
460.5781
11770.869
345004.18
340952.16
340797.24
340788.5
340846.53
340939.51
341042.29
341149.39
341262.62
341380.13
341497.8
341615.8
341786.92
341864.06
341889.47
341898.84
341905.96
341913.5
341921.93
341931.51
341942.56
341955.39
341970.46
341988.33
342024.68
342087.26
342176.31
342303.58
342483.71
342721.11
342968.95
343108.57
343128.74
343131.48
343134.61
343138.32
343142.76
343148.12
343154.69
343162.86
343175.16
343205.42
343254.66
343340.84
343503.05
343810.25
344210.7
344307.3
344309.1
344311.33
344314.22
344322.25
344336.21
344362.08
344416.83
344554.94
344955.87
345413.53
345418.15
345421.01
345425.58
345433.54
345449.33
345487.01
345606.38
346099.52
346453.27
346455.69
346459.14
346464.24
346471.97
346484.48
346505.09
346540.54
346601.96
346701.05
346836.81
346984.12
347113.66
347212.81
347283.6
347331.51
347361.24
347377.67
347385.52
347388.86
347390.19
347390.73
347390.99
347391.13
347391.22
347391.28
347391.32
347391.34
347391.36
347391.36
347391.36
347391.36
347391.35
347391.34
347391.33
347391.32
347391.3
347391.29
347391.27
347391.26
347391.24
347391.24
347391.22
347391.24
347391.23
347391.21
521.63463
453.53789
448.13908
447.88938
447.96811
447.95529
447.92753
447.90851
447.89846
447.89534
447.89803
447.90616
447.91986
447.93972
447.96673
448.00299
448.05038
448.11756
448.1981
448.37089
448.40148
449.12609
456.40463
11048.555
267262.49
264347.58
264180.86
264167.06
264203.7
264265.71
264335.03
264407.61
264484.55
264564.52
264644.66
264724.88
264841.6
264894.16
264911.39
264917.68
264922.45
264927.51
264933.2
264939.68
264947.17
264955.89
264966.14
264978.31
265003.14
265045.89
265106.74
265193.71
265316.8
265478.97
265648.15
265743.28
265756.96
265758.81
265760.94
265763.45
265766.46
265770.11
265774.58
265780.15
265788.54
265809.21
265842.83
265901.69
266012.51
266222.31
266495.55
266561.28
266562.5
266564.02
266565.98
266571.45
266580.97
266598.63
266636
266730.29
267003.98
267315.94
267319.07
267321.02
267324.13
267329.56
267340.32
267366.03
267447.47
267783.89
268024.85
268026.49
268028.84
268032.31
268037.59
268046.11
268060.17
268084.33
268126.22
268193.77
268286.32
268386.73
268475.03
268542.6
268590.85
268623.5
268643.76
268654.95
268660.31
268662.59
268663.5
268663.87
268664.04
268664.13
268664.2
268664.24
268664.26
268664.28
268664.28
268664.29
268664.28
268664.28
268664.27
268664.26
268664.25
268664.24
268664.23
268664.22
268664.21
268664.19
268664.18
268664.18
268664.16
268664.17
268664.16
268664.15
518.8733
449.10381
443.60675
443.3306
443.40373
443.38907
443.36016
443.34034
443.32973
443.32623
443.32868
443.33668
443.35034
443.37026
443.39741
443.43394
443.48169
443.54945
443.63045
443.80495
443.83514
444.56058
451.65161
10305.137
207529.44
205395.53
205213.49
205194.9
205216.45
205257.13
205303.53
205352.54
205404.74
205459.14
205513.73
205568.32
205648.08
205683.92
205695.57
205699.75
205702.9
205706.27
205710.07
205714.43
205719.49
205725.4
205732.37
205740.66
205757.66
205786.93
205828.62
205888.22
205972.57
206083.69
206199.52
206264.53
206273.83
206275.08
206276.51
206278.21
206280.25
206282.73
206285.77
206289.57
206295.31
206309.46
206332.48
206372.82
206448.75
206592.49
206779.52
206824.39
206825.21
206826.24
206827.57
206831.31
206837.83
206849.91
206875.5
206940.08
207127.51
207340.85
207342.98
207344.3
207346.42
207350.13
207357.49
207375.08
207430.84
207661.1
207825.78
207826.91
207828.51
207830.88
207834.49
207840.32
207849.93
207866.47
207895.13
207941.35
208004.66
208073.35
208133.74
208179.96
208212.96
208235.3
208249.15
208256.81
208260.48
208262.04
208262.66
208262.91
208263.03
208263.1
208263.14
208263.17
208263.18
208263.19
208263.19
208263.19
208263.19
208263.18
208263.17
208263.17
208263.16
208263.15
208263.14
208263.12
208263.11
208263.1
208263.09
208263.09
208263.07
208263.08
208263.07
208263.05
515.79092
444.10901
438.49763
438.1913
438.25779
438.24095
438.2107
438.18995
438.17869
438.17475
438.17691
438.18475
438.19836
438.21834
438.24566
438.28247
438.33062
438.39905
438.48057
438.65701
438.68656
439.41581
446.25923
9545.977
161465.94
159874.53
159674.03
159650.57
159661.19
159686.95
159717.49
159750.26
159785.45
159822.33
159859.44
159896.52
159951.04
159975.44
159983.26
159985.96
159987.98
159990.17
159992.67
159995.57
159998.96
160002.94
160007.65
160013.28
160024.93
160044.99
160073.6
160114.52
160172.46
160248.77
160328.25
160372.78
160379.1
160379.92
160380.88
160382.02
160383.4
160385.07
160387.14
160389.73
160393.65
160403.35
160419.16
160446.85
160499
160597.73
160726.08
160756.78
160757.33
160758.02
160758.92
160761.48
160765.94
160774.22
160791.78
160836.12
160964.82
161111.09
161112.54
161113.44
161114.89
161117.42
161122.47
161134.53
161172.8
161330.83
161443.68
161444.44
161445.54
161447.16
161449.63
161453.63
161460.23
161471.58
161491.25
161522.97
161566.41
161613.53
161654.97
161686.68
161709.32
161724.64
161734.15
161739.41
161741.92
161742.99
161743.42
161743.6
161743.68
161743.72
161743.75
161743.77
161743.78
161743.78
161743.78
161743.77
161743.77
161743.76
161743.75
161743.74
161743.73
161743.72
161743.71
161743.7
161743.69
161743.68
161743.67
161743.66
161743.65
161743.65
161743.64
161743.62
512.36948
438.50694
432.76257
432.4219
432.48049
432.46108
432.42927
432.40744
432.39543
432.39097
432.39279
432.40044
432.41399
432.43402
432.46153
432.49866
432.54724
432.61642
432.6985
432.87717
432.90574
433.64294
440.1645
8777.3625
125840.53
124631.47
124409.63
124380.91
124383.27
124398.4
124417.8
124439.26
124462.68
124487.44
124512.5
124537.57
124574.77
124591.29
124596.44
124598.1
124599.31
124600.66
124602.25
124604.12
124606.34
124608.99
124612.14
124615.94
124623.89
124637.65
124657.29
124685.42
124725.26
124777.75
124832.38
124862.92
124867.21
124867.74
124868.36
124869.11
124870.03
124871.15
124872.54
124874.3
124876.98
124883.63
124894.49
124913.53
124949.42
125017.36
125105.6
125126.65
125127.01
125127.46
125128.07
125129.81
125132.87
125138.55
125150.62
125181.12
125269.67
125370.17
125371.15
125371.76
125372.74
125374.48
125377.93
125386.23
125412.54
125521.22
125598.72
125599.24
125599.99
125601.1
125602.8
125605.55
125610.09
125617.9
125631.44
125653.26
125683.15
125715.56
125744.06
125765.88
125781.45
125791.99
125798.54
125802.16
125803.89
125804.63
125804.93
125805.05
125805.11
125805.14
125805.15
125805.16
125805.17
125805.16
125805.16
125805.15
125805.14
125805.14
125805.12
125805.11
125805.1
125805.09
125805.08
125805.07
125805.06
125805.05
125805.04
125805.03
125805.02
125805.01
125805
125804.98
508.59393
432.25111
426.35234
425.97252
426.02173
425.99927
425.96565
425.94256
425.92967
425.9246
425.92603
425.93345
425.94691
425.967
425.9947
426.03218
426.08125
426.15126
426.23396
426.41517
426.44228
427.193
433.30269
8006.3637
98223.746
97289.827
97043.924
97009.295
97005.059
97012.372
97023.798
97037.251
97052.418
97068.738
97085.419
97102.181
97127.415
97138.476