/*--------------------------------*- C++ -*----------------------------------*\
| =========                 |                                                 |
| \\      /  F ield         | OpenFOAM: The Open Source CFD Toolbox           |
|  \\    /   O peration     | Version:  2206                                  |
|   \\  /    A nd           | Website:  www.openfoam.com                      |
|    \\/     M anipulation  |                                                 |
\*---------------------------------------------------------------------------*/
FoamFile
{
    version     2.0;
    format      ascii;
    arch        "LSB;label=32;scalar=64";
    class       volScalarField;
    location    "900";
    object      p;
}
// * * * * * * * * * * * * * * * * * * * * * * * * * * * * * * * * * * * * * //

dimensions      [0 2 -2 0 0 0 0];

internalField   nonuniform List<scalar> 
13056
(
0.012028195
0.01213179
0.012351338
0.012631629
0.012971233
0.013370403
0.013827278
0.014341058
0.014913069
0.015546534
0.016246454
0.017019954
0.01787689
0.018831195
0.019901814
0.021117972
0.022516528
0.024173064
0.026149085
0.028733322
0.031854584
0.037273591
0.042382025
0.081156848
0.051403371
0.0023598617
0.0010413355
0.0019165769
0.0024706626
0.0029123528
0.0031797149
0.0033685128
0.0035113727
0.0036140273
0.00368629
0.0037378932
0.0037750097
0.0038012687
0.0038189626
0.0038300939
0.0038360985
0.0038378229
0.0038360595
0.0038314912
0.0038245107
0.0038154305
0.0038045335
0.0037920315
0.0037781055
0.0037628856
0.0037464463
0.0037288682
0.0037102124
0.0036905235
0.0036698449
0.0036481829
0.0036255252
0.0036018741
0.0035772181
0.0035515379
0.0035248084
0.0034970033
0.0034680676
0.0034379268
0.0034065073
0.0033737315
0.003339523
0.0033037977
0.0032664637
0.0032274396
0.0031866287
0.0031439127
0.0030991777
0.0030523158
0.0030032221
0.0029518293
0.0028980994
0.0028420857
0.0027838711
0.0027234895
0.0026611938
0.0025972846
0.0025321512
0.0024667052
0.0024023194
0.0023409187
0.0022854243
0.0022398865
0.0022089234
0.0021983027
0.0022135896
0.0022608465
0.002347286
0.0024794731
0.0026617235
0.0028941509
0.0031698427
0.0034840125
0.0038231546
0.0041401807
0.0043868432
0.0045354901
0.0045832816
0.0045454571
0.0044487086
0.0043220084
0.0041786233
0.0040292368
0.0038778249
0.003723179
0.0035685215
0.0034117795
0.0032493439
0.0030852362
0.0029211922
0.0027586135
0.0025997112
0.0024430122
0.0022877565
0.0021367286
0.0019896497
0.0018449115
0.0017030321
0.0015656705
0.0014326615
0.0013024236
0.0011758444
0.0010535636
0.00093771132
0.00082785433
0.000726564
0.00063033688
0.0005681743
0.00048154147
0.00066699744
-0.00051323879
0.012028195
0.01213179
0.012351338
0.012631629
0.012971233
0.013370403
0.013827278
0.014341058
0.014913069
0.015546534
0.016246454
0.017019955
0.017876891
0.018831196
0.019901815
0.021117974
0.02251653
0.024173068
0.02614909
0.02873333
0.031854594
0.037273613
0.04238207
0.081152039
0.051414745
0.0023671191
0.0010431929
0.0019174173
0.0024711772
0.0029127146
0.0031799885
0.0033687303
0.0035115507
0.0036141763
0.0036864172
0.0037380033
0.0037751062
0.0038013541
0.0038190387
0.0038301622
0.0038361603
0.003837879
0.0038361108
0.0038315381
0.0038245539
0.0038154704
0.0038045705
0.0037920658
0.0037781374
0.0037629154
0.0037464742
0.0037288943
0.0037102368
0.0036905465
0.0036698666
0.0036482033
0.0036255445
0.0036018923
0.0035772353
0.0035515542
0.0035248238
0.0034970178
0.0034680815
0.0034379399
0.0034065197
0.0033737433
0.0033395342
0.0033038084
0.0032664738
0.0032274492
0.0031866378
0.0031439214
0.0030991859
0.0030523236
0.0030032295
0.0029518363
0.002898106
0.0028420919
0.0027838769
0.0027234949
0.0026611988
0.0025972892
0.0025321555
0.0024667091
0.0024023229
0.0023409217
0.0022854269
0.0022398885
0.0022089249
0.0021983036
0.0022135897
0.0022608459
0.0023472846
0.0024794708
0.0026617203
0.0028941468
0.0031698378
0.003484007
0.0038231485
0.0041401746
0.0043868375
0.0045354853
0.0045832776
0.0045454543
0.0044487066
0.004322007
0.0041786224
0.0040292362
0.0038778246
0.0037231788
0.0035685215
0.0034117795
0.003249344
0.0030852364
0.0029211925
0.0027586138
0.0025997116
0.0024430126
0.002287757
0.0021367291
0.0019896502
0.001844912
0.0017030326
0.001565671
0.001432662
0.0013024241
0.0011758449
0.0010535641
0.00093771179
0.00082785479
0.00072656447
0.00063033734
0.0005681748
0.00048154201
0.00066699799
-0.00051323844
0.012028195
0.01213179
0.012351338
0.012631629
0.012971233
0.013370403
0.013827278
0.014341059
0.01491307
0.015546535
0.016246455
0.017019956
0.017876892
0.018831198
0.019901817
0.021117977
0.022516534
0.024173073
0.026149096
0.02873334
0.031854607
0.037273639
0.042382103
0.081147173
0.051430401
0.0023741519
0.0010453956
0.0019184222
0.0024717927
0.0029131473
0.0031803158
0.0033689904
0.0035117636
0.0036143546
0.0036865693
0.003738135
0.0037752215
0.0038014561
0.0038191297
0.003830244
0.0038362341
0.0038379461
0.0038361721
0.0038315943
0.0038246056
0.0038155182
0.0038046147
0.0037921069
0.0037781756
0.003762951
0.0037465075
0.0037289255
0.0037102661
0.003690574
0.0036698924
0.0036482277
0.0036255675
0.003601914
0.0035772558
0.0035515736
0.0035248422
0.0034970353
0.003468098
0.0034379556
0.0034065346
0.0033737575
0.0033395476
0.0033038211
0.0032664859
0.0032274607
0.0031866487
0.0031439318
0.0030991958
0.0030523329
0.0030032383
0.0029518446
0.0028981138
0.0028420993
0.0027838839
0.0027235014
0.0026612049
0.0025972948
0.0025321606
0.0024667137
0.002402327
0.0023409253
0.0022854299
0.002239891
0.0022089266
0.0021983046
0.0022135898
0.0022608451
0.0023472828
0.002479468
0.0026617164
0.0028941419
0.0031698319
0.0034840003
0.0038231413
0.0041401672
0.0043868307
0.0045354795
0.0045832729
0.004545451
0.0044487043
0.0043220054
0.0041786213
0.0040292354
0.0038778241
0.0037231785
0.0035685214
0.0034117795
0.0032493442
0.0030852367
0.0029211928
0.0027586142
0.0025997121
0.0024430131
0.0022877576
0.0021367297
0.0019896508
0.0018449126
0.0017030332
0.0015656716
0.0014326626
0.0013024247
0.0011758455
0.0010535647
0.00093771235
0.00082785534
0.00072656502
0.00063033789
0.00056817541
0.00048154264
0.00066699866
-0.00051323803
0.012028195
0.01213179
0.012351338
0.012631629
0.012971233
0.013370404
0.013827278
0.014341059
0.01491307
0.015546535
0.016246456
0.017019957
0.017876893
0.018831199
0.019901819
0.021117979
0.022516537
0.024173077
0.026149102
0.028733349
0.031854618
0.037273662
0.042382136
0.081142415
0.051447862
0.0023793592
0.001047468
0.0019194065
0.0024723956
0.0029135713
0.0031806364
0.0033692452
0.0035119722
0.0036145292
0.0036867183
0.003738264
0.0037753346
0.0038015561
0.0038192189
0.0038303241
0.0038363065
0.0038380119
0.0038362321
0.0038316493
0.0038246562
0.0038155649
0.0038046579
0.0037921471
0.003778213
0.0037629859
0.0037465401
0.003728956
0.0037102948
0.0036906009
0.0036699178
0.0036482515
0.00362559
0.0036019353
0.003577276
0.0035515926
0.0035248603
0.0034970524
0.0034681142
0.003437971
0.0034065492
0.0033737713
0.0033395608
0.0033038336
0.0032664978
0.003227472
0.0031866595
0.003143942
0.0030992054
0.0030523421
0.003003247
0.0029518528
0.0028981216
0.0028421066
0.0027838907
0.0027235078
0.0026612108
0.0025973003
0.0025321656
0.0024667183
0.002402331
0.0023409288
0.0022854329
0.0022398933
0.0022089283
0.0021983056
0.00221359
0.0022608443
0.0023472811
0.0024794653
0.0026617126
0.002894137
0.0031698262
0.0034839938
0.0038231342
0.00414016
0.0043868241
0.0045354739
0.0045832684
0.0045454478
0.004448702
0.0043220038
0.0041786203
0.0040292347
0.0038778237
0.0037231783
0.0035685213
0.0034117796
0.0032493443
0.0030852369
0.0029211932
0.0027586147
0.0025997125
0.0024430137
0.0022877581
0.0021367303
0.0019896514
0.0018449132
0.0017030338
0.0015656722
0.0014326632
0.0013024253
0.001175846
0.0010535652
0.0009377129
0.00082785588
0.00072656557
0.00063033843
0.000568176
0.00048154324
0.00066699931
-0.00051323764
0.012028195
0.01213179
0.012351338
0.01263163
0.012971233
0.013370404
0.013827279
0.014341059
0.014913071
0.015546536
0.016246456
0.017019958
0.017876895
0.018831201
0.019901821
0.021117982
0.02251654
0.024173082
0.026149108
0.028733358
0.03185463
0.037273686
0.042382174
0.081137318
0.051466418
0.0023851588
0.001049564
0.0019204143
0.0024730131
0.0029140054
0.0031809647
0.003369506
0.0035121858
0.0036147081
0.0036868709
0.0037383962
0.0037754503
0.0038016585
0.0038193102
0.0038304061
0.0038363806
0.0038380792
0.0038362936
0.0038317057
0.003824708
0.0038156128
0.0038047023
0.0037921882
0.0037782513
0.0037630216
0.0037465735
0.0037289873
0.0037103241
0.0036906285
0.0036699437
0.003648276
0.0036256131
0.0036019571
0.0035772966
0.0035516121
0.0035248787
0.0034970699
0.0034681308
0.0034379867
0.0034065642
0.0033737855
0.0033395743
0.0033038464
0.0032665099
0.0032274836
0.0031866704
0.0031439524
0.0030992153
0.0030523514
0.0030032559
0.0029518612
0.0028981295
0.002842114
0.0027838977
0.0027235143
0.0026612168
0.0025973059
0.0025321707
0.0024667229
0.0024023352
0.0023409325
0.0022854359
0.0022398958
0.00220893
0.0021983065
0.0022135901
0.0022608436
0.0023472794
0.0024794625
0.0026617087
0.0028941321
0.0031698203
0.0034839871
0.003823127
0.0041401527
0.0043868172
0.0045354681
0.0045832639
0.0045454445
0.0044486997
0.0043220022
0.0041786192
0.004029234
0.0038778232
0.003723178
0.0035685212
0.0034117796
0.0032493445
0.0030852372
0.0029211935
0.0027586151
0.002599713
0.0024430142
0.0022877587
0.0021367309
0.001989652
0.0018449138
0.0017030344
0.0015656728
0.0014326638
0.0013024258
0.0011758466
0.0010535658
0.00093771346
0.00082785644
0.00072656612
0.00063033898
0.0005681766
0.00048154384
0.00066699997
-0.00051323724
0.012028195
0.01213179
0.012351338
0.01263163
0.012971233
0.013370404
0.013827279
0.01434106
0.014913071
0.015546537
0.016246457
0.017019959
0.017876896
0.018831203
0.019901823
0.021117985
0.022516544
0.024173087
0.026149114
0.028733369
0.031854644
0.037273711
0.042382218
0.081131661
0.051485759
0.0023923802
0.0010517928
0.0019214846
0.0024736689
0.0029144665
0.0031813134
0.0033697832
0.0035124126
0.003614898
0.003687033
0.0037385365
0.0037755733
0.0038017672
0.0038194072
0.0038304931
0.0038364593
0.0038381507
0.0038363588
0.0038317655
0.0038247631
0.0038156636
0.0038047493
0.0037922319
0.003778292
0.0037630596
0.003746609
0.0037290206
0.0037103553
0.0036906578
0.0036699713
0.003648302
0.0036256376
0.0036019802
0.0035773184
0.0035516328
0.0035248983
0.0034970884
0.0034681484
0.0034380034
0.00340658
0.0033738005
0.0033395886
0.00330386
0.0032665228
0.0032274958
0.0031866821
0.0031439634
0.0030992258
0.0030523614
0.0030032653
0.0029518701
0.0028981379
0.0028421219
0.0027839051
0.0027235212
0.0026612233
0.0025973118
0.0025321762
0.0024667278
0.0024023396
0.0023409363
0.0022854392
0.0022398984
0.0022089318
0.0021983076
0.0022135903
0.0022608428
0.0023472775
0.0024794595
0.0026617045
0.0028941268
0.003169814
0.00348398
0.0038231192
0.0041401449
0.00438681
0.0045354619
0.0045832592
0.004545441
0.0044486972
0.0043220005
0.004178618
0.0040292332
0.0038778227
0.0037231778
0.0035685211
0.0034117797
0.0032493446
0.0030852375
0.0029211939
0.0027586155
0.0025997135
0.0024430147
0.0022877593
0.0021367315
0.0019896526
0.0018449144
0.0017030351
0.0015656735
0.0014326644
0.0013024265
0.0011758472
0.0010535664
0.00093771406
0.00082785702
0.00072656672
0.00063033957
0.00056817724
0.00048154448
0.00066700068
-0.00051323682
0.012028195
0.01213179
0.012351338
0.01263163
0.012971234
0.013370404
0.013827279
0.01434106
0.014913072
0.015546537
0.016246458
0.01701996
0.017876897
0.018831205
0.019901826
0.021117988
0.022516548
0.024173092
0.026149122
0.02873338
0.031854659
0.037273738
0.04238227
0.081125329
0.051506116
0.0024003516
0.0010541945
0.0019226365
0.0024743748
0.0029149629
0.0031816887
0.0033700814
0.0035126568
0.0036151025
0.0036872074
0.0037386875
0.0037757056
0.0038018842
0.0038195115
0.0038305869
0.003836544
0.0038382277
0.0038364291
0.0038318299
0.0038248224
0.0038157183
0.0038048
0.0037922789
0.0037783358
0.0037631004
0.0037466472
0.0037290563
0.0037103888
0.0036906893
0.003670001
0.0036483299
0.003625664
0.0036020051
0.003577342
0.0035516551
0.0035249194
0.0034971084
0.0034681673
0.0034380214
0.0034065971
0.0033738168
0.003339604
0.0033038746
0.0032665367
0.003227509
0.0031866946
0.0031439753
0.0030992371
0.0030523721
0.0030032754
0.0029518797
0.0028981469
0.0028421305
0.0027839131
0.0027235287
0.0026612302
0.0025973182
0.002532182
0.0024667331
0.0024023443
0.0023409404
0.0022854427
0.0022399011
0.0022089338
0.0021983087
0.0022135905
0.0022608419
0.0023472755
0.0024794563
0.0026617001
0.0028941212
0.0031698073
0.0034839724
0.003823111
0.0041401365
0.0043868022
0.0045354553
0.004583254
0.0045454372
0.0044486945
0.0043219987
0.0041786167
0.0040292324
0.0038778222
0.0037231775
0.003568521
0.0034117797
0.0032493448
0.0030852378
0.0029211943
0.002758616
0.0025997141
0.0024430154
0.0022877599
0.0021367322
0.0019896533
0.0018449151
0.0017030358
0.0015656742
0.0014326651
0.0013024271
0.0011758479
0.0010535671
0.0009377147
0.00082785766
0.00072656735
0.0006303402
0.00056817793
0.00048154518
0.00066700144
-0.00051323637
0.012028195
0.01213179
0.012351339
0.01263163
0.012971234
0.013370405
0.01382728
0.014341061
0.014913072
0.015546538
0.016246459
0.017019961
0.017876899
0.018831207
0.019901828
0.021117992
0.022516553
0.024173099
0.02614913
0.028733392
0.031854675
0.037273768
0.042382331
0.081118188
0.051527762
0.0024089103
0.0010567985
0.0019238855
0.0024751405
0.0029155012
0.0031820958
0.0033704049
0.0035129216
0.0036153242
0.0036873966
0.0037388513
0.0037758491
0.0038020112
0.0038196247
0.0038306885
0.0038366359
0.0038383112
0.0038365053
0.0038318998
0.0038248866
0.0038157776
0.0038048549
0.00379233
0.0037783833
0.0037631447
0.0037466886
0.0037290951
0.0037104252
0.0036907235
0.0036700332
0.0036483603
0.0036256926
0.0036020322
0.0035773675
0.0035516793
0.0035249423
0.0034971301
0.0034681879
0.0034380409
0.0034066156
0.0033738343
0.0033396207
0.0033038905
0.0032665518
0.0032275233
0.0031867082
0.0031439882
0.0030992493
0.0030523837
0.0030032864
0.00295189
0.0028981567
0.0028421397
0.0027839217
0.0027235368
0.0026612377
0.0025973252
0.0025321884
0.0024667389
0.0024023495
0.0023409449
0.0022854464
0.0022399042
0.0022089359
0.0021983099
0.0022135906
0.0022608409
0.0023472733
0.0024794528
0.0026616953
0.002894115
0.0031698
0.0034839641
0.003823102
0.0041401274
0.0043867937
0.0045354481
0.0045832484
0.0045454331
0.0044486916
0.0043219967
0.0041786154
0.0040292315
0.0038778216
0.0037231772
0.0035685209
0.0034117798
0.003249345
0.0030852381
0.0029211947
0.0027586165
0.0025997147
0.002443016
0.0022877606
0.0021367329
0.001989654
0.0018449158
0.0017030365
0.0015656749
0.0014326658
0.0013024279
0.0011758486
0.0010535678
0.0009377154
0.00082785834
0.00072656804
0.00063034088
0.00056817868
0.00048154593
0.00066700227
-0.00051323588
0.012028195
0.01213179
0.012351339
0.01263163
0.012971234
0.013370405
0.01382728
0.014341061
0.014913073
0.015546539
0.01624646
0.017019963
0.017876901
0.018831209
0.019901831
0.021117996
0.022516558
0.024173106
0.026149139
0.028733407
0.031854694
0.037273801
0.042382402
0.081110061
0.051550928
0.0024181913
0.0010596411
0.0019252494
0.0024759767
0.0029160892
0.0031825404
0.0033707582
0.0035132108
0.0036155663
0.0036876032
0.0037390302
0.0037760058
0.0038021498
0.0038197483
0.0038307996
0.0038367362
0.0038384024
0.0038365885
0.0038319761
0.0038249568
0.0038158424
0.0038049149
0.0037923857
0.0037784351
0.0037631931
0.0037467338
0.0037291375
0.003710465
0.0036907609
0.0036700683
0.0036483934
0.0036257238
0.0036020617
0.0035773954
0.0035517057
0.0035249673
0.0034971538
0.0034682104
0.0034380622
0.0034066358
0.0033738535
0.0033396389
0.0033039078
0.0032665683
0.003227539
0.003186723
0.0031440023
0.0030992627
0.0030523963
0.0030032984
0.0029519014
0.0028981674
0.0028421498
0.0027839312
0.0027235456
0.0026612459
0.0025973327
0.0025321953
0.0024667452
0.0024023551
0.0023409498
0.0022854506
0.0022399074
0.0022089383
0.0021983112
0.0022135908
0.0022608399
0.002347271
0.002479449
0.00266169
0.0028941083
0.003169792
0.0034839551
0.0038230921
0.0041401174
0.0043867845
0.0045354403
0.0045832423
0.0045454286
0.0044486884
0.0043219945
0.0041786139
0.0040292305
0.003877821
0.0037231768
0.0035685208
0.0034117798
0.0032493452
0.0030852384
0.0029211952
0.0027586171
0.0025997154
0.0024430167
0.0022877614
0.0021367337
0.0019896548
0.0018449167
0.0017030373
0.0015656757
0.0014326666
0.0013024287
0.0011758494
0.0010535685
0.00093771616
0.00082785909
0.0007265688
0.00063034163
0.0005681795
0.00048154675
0.00066700317
-0.00051323534
0.012028195
0.012131791
0.012351339
0.01263163
0.012971234
0.013370405
0.013827281
0.014341062
0.014913074
0.01554654
0.016246462
0.017019964
0.017876903
0.018831212
0.019901835
0.021118
0.022516564
0.024173115
0.02614915
0.028733423
0.031854716
0.037273839
0.042382487
0.081100735
0.051575823
0.0024283585
0.0010627646
0.0019267486
0.0024768961
0.0029167357
0.0031830293
0.0033711466
0.0035135288
0.0036158325
0.0036878303
0.0037392269
0.0037761781
0.0038023021
0.0038198842
0.0038309216
0.0038368465
0.0038385026
0.00383668
0.0038320599
0.003825034
0.0038159136
0.0038049809
0.0037924469
0.0037784922
0.0037632463
0.0037467835
0.003729184
0.0037105087
0.0036908019
0.0036701069
0.0036484298
0.0036257581
0.0036020941
0.0035774261
0.0035517347
0.0035249948
0.0034971798
0.003468235
0.0034380856
0.0034066581
0.0033738746
0.0033396589
0.0033039269
0.0032665864
0.0032275561
0.0031867394
0.0031440178
0.0030992774
0.0030524103
0.0030033116
0.0029519138
0.0028981792
0.0028421608
0.0027839416
0.0027235553
0.002661255
0.0025973411
0.002532203
0.0024667521
0.0024023612
0.0023409552
0.0022854551
0.0022399111
0.0022089408
0.0021983126
0.0022135911
0.0022608387
0.0023472683
0.0024794448
0.0026616842
0.0028941009
0.0031697833
0.0034839451
0.0038230813
0.0041401065
0.0043867743
0.0045354317
0.0045832356
0.0045454237
0.004448685
0.0043219921
0.0041786122
0.0040292294
0.0038778203
0.0037231765
0.0035685206
0.0034117799
0.0032493455
0.0030852388
0.0029211957
0.0027586178
0.0025997161
0.0024430175
0.0022877623
0.0021367346
0.0019896557
0.0018449176
0.0017030382
0.0015656766
0.0014326675
0.0013024295
0.0011758503
0.0010535694
0.000937717
0.00082785992
0.00072656962
0.00063034245
0.00056818039
0.00048154765
0.00066700416
-0.00051323476
0.012028195
0.012131791
0.012351339
0.012631631
0.012971235
0.013370406
0.013827281
0.014341063
0.014913075
0.015546541
0.016246463
0.017019966
0.017876906
0.018831215
0.019901839
0.021118006
0.022516571
0.024173124
0.026149162
0.028733442
0.03185474
0.037273882
0.042382587
0.081089957
0.051602646
0.0024395638
0.0010662154
0.0019284054
0.0024779123
0.0029174502
0.0031835696
0.0033715759
0.0035138802
0.0036161268
0.0036880813
0.0037394443
0.0037763685
0.0038024706
0.0038200344
0.0038310565
0.0038369685
0.0038386134
0.0038367811
0.0038321526
0.0038251192
0.0038159924
0.0038050538
0.0037925146
0.0037785552
0.0037633051
0.0037468385
0.0037292355
0.0037105569
0.0036908473
0.0036701496
0.00364847
0.0036257961
0.0036021299
0.00357746
0.0035517668
0.0035250251
0.0034972086
0.0034682623
0.0034381115
0.0034066826
0.003373898
0.0033396811
0.0033039479
0.0032666064
0.0032275751
0.0031867574
0.0031440349
0.0030992936
0.0030524257
0.0030033261
0.0029519276
0.0028981922
0.0028421731
0.002783953
0.002723566
0.0026612649
0.0025973503
0.0025322114
0.0024667597
0.002402368
0.0023409611
0.0022854601
0.0022399151
0.0022089437
0.0021983142
0.0022135913
0.0022608375
0.0023472655
0.0024794402
0.0026616778
0.0028940928
0.0031697736
0.0034839341
0.0038230694
0.0041400944
0.0043867631
0.0045354222
0.0045832282
0.0045454182
0.0044486811
0.0043219894
0.0041786104
0.0040292282
0.0038778196
0.003723176
0.0035685205
0.0034117799
0.0032493457
0.0030852392
0.0029211963
0.0027586185
0.0025997169
0.0024430184
0.0022877632
0.0021367355
0.0019896567
0.0018449185
0.0017030392
0.0015656776
0.0014326685
0.0013024305
0.0011758512
0.0010535703
0.00093771792
0.00082786083
0.00072657054
0.00063034336
0.00056818138
0.00048154864
0.00066700526
-0.0005132341
0.012028195
0.012131791
0.012351339
0.012631631
0.012971235
0.013370406
0.013827282
0.014341064
0.014913076
0.015546543
0.016246465
0.017019969
0.017876909
0.018831219
0.019901844
0.021118012
0.02251658
0.024173135
0.026149176
0.028733463
0.031854768
0.03727393
0.042382705
0.081077425
0.051631582
0.0024519675
0.0010700446
0.0019302444
0.0024790407
0.0029182436
0.0031841695
0.0033720526
0.0035142704
0.0036164535
0.00368836
0.0037396856
0.0037765799
0.0038026575
0.0038202012
0.0038312062
0.0038371038
0.0038387363
0.0038368933
0.0038322555
0.0038252139
0.0038160798
0.0038051347
0.0037925897
0.0037786251
0.0037633703
0.0037468995
0.0037292926
0.0037106106
0.0036908977
0.003670197
0.0036485147
0.0036258382
0.0036021697
0.0035774976
0.0035518024
0.0035250588
0.0034972406
0.0034682926
0.0034381402
0.0034067099
0.0033739239
0.0033397057
0.0033039713
0.0032666286
0.0032275962
0.0031867774
0.0031440539
0.0030993116
0.0030524427
0.0030033423
0.0029519429
0.0028982066
0.0028421867
0.0027839658
0.002723578
0.002661276
0.0025973605
0.0025322208
0.0024667682
0.0024023756
0.0023409677
0.0022854657
0.0022399195
0.0022089468
0.0021983159
0.0022135916
0.002260836
0.0023472622
0.0024794351
0.0026616706
0.0028940837
0.0031697629
0.0034839219
0.0038230562
0.004140081
0.0043867507
0.0045354116
0.0045832199
0.0045454122
0.0044486768
0.0043219865
0.0041786084
0.0040292269
0.0038778187
0.0037231756
0.0035685203
0.00341178
0.003249346
0.0030852397
0.0029211969
0.0027586192
0.0025997178
0.0024430194
0.0022877642
0.0021367366
0.0019896578
0.0018449196
0.0017030403
0.0015656787
0.0014326696
0.0013024316
0.0011758523
0.0010535714
0.00093771895
0.00082786184
0.00072657156
0.00063034436
0.00056818248
0.00048154975
0.00066700648
-0.00051323338
0.012028195
0.012131791
0.01235134
0.012631631
0.012971236
0.013370407
0.013827283
0.014341065
0.014913077
0.015546544
0.016246467
0.017019971
0.017876912
0.018831223
0.01990185
0.02111802
0.022516589
0.024173148
0.026149192
0.028733487
0.031854801
0.037273984
0.042382844
0.081062773
0.051662791
0.0024657491
0.0010743085
0.0019322929
0.002480298
0.0029191277
0.003184838
0.0033725837
0.0035147051
0.0036168175
0.0036886706
0.0037399544
0.0037768154
0.0038028659
0.003820387
0.0038313731
0.0038372546
0.0038388734
0.0038370184
0.0038323701
0.0038253194
0.0038161771
0.0038052249
0.0037926735
0.003778703
0.003763443
0.0037469675
0.0037293563
0.0037106703
0.0036909538
0.0036702498
0.0036485644
0.0036258852
0.0036022141
0.0035775395
0.003551842
0.0035250964
0.0034972761
0.0034683264
0.0034381723
0.0034067403
0.0033739527
0.0033397331
0.0033039973
0.0032666533
0.0032276197
0.0031867997
0.0031440751
0.0030993317
0.0030524618
0.0030033603
0.00295196
0.0028982227
0.0028422018
0.00278398
0.0027235912
0.0026612883
0.0025973719
0.0025322312
0.0024667777
0.002402384
0.0023409751
0.0022854719
0.0022399244
0.0022089503
0.0021983179
0.0022135918
0.0022608345
0.0023472587
0.0024794294
0.0026616627
0.0028940736
0.0031697509
0.0034839083
0.0038230414
0.004140066
0.0043867368
0.0045353999
0.0045832108
0.0045454055
0.0044486721
0.0043219832
0.0041786062
0.0040292254
0.0038778178
0.0037231751
0.0035685201
0.0034117801
0.0032493463
0.0030852402
0.0029211976
0.0027586201
0.0025997188
0.0024430205
0.0022877654
0.0021367378
0.001989659
0.0018449209
0.0017030416
0.0015656799
0.0014326708
0.0013024327
0.0011758534
0.0010535725
0.00093772009
0.00082786297
0.00072657269
0.00063034549
0.00056818371
0.00048155098
0.00066700783
-0.00051323257
0.012028195
0.012131791
0.01235134
0.012631632
0.012971236
0.013370408
0.013827284
0.014341066
0.014913079
0.015546546
0.01624647
0.017019975
0.017876916
0.018831229
0.019901856
0.021118028
0.0225166
0.024173163
0.026149211
0.028733514
0.031854837
0.037274043
0.042383007
0.081045563
0.051696395
0.0024811118
0.0010790702
0.0019345814
0.0024817031
0.0029201157
0.0031855851
0.0033731771
0.0035151909
0.0036172242
0.0036890176
0.0037402549
0.0037770786
0.0038030986
0.0038205946
0.0038315595
0.0038374231
0.0038390264
0.0038371581
0.0038324982
0.0038254372
0.0038162859
0.0038053256
0.003792767
0.0037787901
0.0037635243
0.0037470434
0.0037294274
0.003710737
0.0036910165
0.0036703089
0.00364862
0.0036259376
0.0036022636
0.0035775863
0.0035518863
0.0035251384
0.0034973159
0.0034683641
0.003438208
0.0034067742
0.003373985
0.0033397637
0.0033040264
0.0032666809
0.003227646
0.0031868247
0.0031440988
0.0030993542
0.0030524831
0.0030033805
0.002951979
0.0028982407
0.0028422187
0.0027839959
0.0027236061
0.0026613021
0.0025973846
0.0025322428
0.0024667882
0.0024023935
0.0023409833
0.0022854788
0.00223993
0.0022089542
0.0021983201
0.0022135922
0.0022608327
0.0023472547
0.002479423
0.0026616538
0.0028940624
0.0031697375
0.0034838931
0.0038230249
0.0041400494
0.0043867213
0.0045353867
0.0045832005
0.0045453979
0.0044486668
0.0043219795
0.0041786037
0.0040292237
0.0038778167
0.0037231745
0.0035685199
0.0034117802
0.0032493467
0.0030852408
0.0029211984
0.0027586211
0.0025997199
0.0024430217
0.0022877667
0.0021367391
0.0019896604
0.0018449222
0.0017030429
0.0015656813
0.0014326721
0.0013024341
0.0011758547
0.0010535738
0.00093772137
0.00082786422
0.00072657395
0.00063034674
0.00056818508
0.00048155236
0.00066700934
-0.00051323167
0.012028195
0.012131792
0.01235134
0.012631632
0.012971237
0.013370409
0.013827285
0.014341067
0.014913081
0.015546549
0.016246472
0.017019978
0.017876921
0.018831234
0.019901864
0.021118038
0.022516612
0.024173179
0.026149232
0.028733545
0.031854878
0.037274107
0.042383199
0.081025269
0.051732468
0.0024982863
0.0010843997
0.001937144
0.002483277
0.0029212224
0.0031864219
0.0033738419
0.003515735
0.0036176798
0.0036894062
0.0037405914
0.0037773733
0.0038033593
0.003820827
0.0038317683
0.0038376117
0.0038391979
0.0038373146
0.0038326417
0.0038255692
0.0038164078
0.0038054384
0.0037928718
0.0037788876
0.0037636152
0.0037471284
0.0037295071
0.0037108117
0.0036910867
0.0036703749
0.0036486823
0.0036259964
0.0036023191
0.0035776388
0.0035519359
0.0035251853
0.0034973604
0.0034684063
0.0034382481
0.0034068123
0.0033740211
0.003339798
0.003304059
0.0032667119
0.0032276754
0.0031868526
0.0031441253
0.0030993793
0.0030525069
0.003003403
0.0029520003
0.0028982608
0.0028422377
0.0027840136
0.0027236227
0.0026613175
0.0025973989
0.0025322559
0.0024668
0.002402404
0.0023409925
0.0022854866
0.0022399361
0.0022089586
0.0021983225
0.0022135925
0.0022608307
0.0023472502
0.0024794158
0.0026616439
0.0028940498
0.0031697225
0.0034838761
0.0038230065
0.0041400307
0.0043867039
0.004535372
0.0045831891
0.0045453895
0.0044486608
0.0043219754
0.0041786009
0.0040292218
0.0038778156
0.0037231739
0.0035685197
0.0034117803
0.0032493471
0.0030852415
0.0029211993
0.0027586222
0.0025997211
0.002443023
0.0022877681
0.0021367406
0.0019896619
0.0018449238
0.0017030445
0.0015656828
0.0014326736
0.0013024356
0.0011758562
0.0010535753
0.0009377228
0.00082786563
0.00072657537
0.00063034814
0.00056818661
0.00048155389
0.00066701104
-0.00051323066
0.012028195
0.012131792
0.012351341
0.012631633
0.012971238
0.01337041
0.013827286
0.014341069
0.014913083
0.015546551
0.016246476
0.017019982
0.017876926
0.018831241
0.019901872
0.021118049
0.022516626
0.024173198
0.026149255
0.028733578
0.031854924
0.037274175
0.042383425
0.081001256
0.051771009
0.0025175374
0.0010903757
0.0019400186
0.0024850433
0.0029224643
0.0031873609
0.0033745878
0.0035163456
0.003618191
0.0036898423
0.0037409689
0.0037777041
0.0038036518
0.0038210879
0.0038320026
0.0038378234
0.0038393902
0.0038374902
0.0038328026
0.0038257173
0.0038165445
0.003805565
0.0037929893
0.003778997
0.0037637173
0.0037472238
0.0037295964
0.0037108956
0.0036911655
0.0036704491
0.0036487522
0.0036260623
0.0036023813
0.0035776976
0.0035519916
0.0035252381
0.0034974104
0.0034684537
0.003438293
0.0034068549
0.0033740616
0.0033398365
0.0033040955
0.0032667466
0.0032277084
0.0031868839
0.003144155
0.0030994075
0.0030525336
0.0030034284
0.0029520243
0.0028982834
0.0028422589
0.0027840336
0.0027236413
0.0026613349
0.0025974148
0.0025322705
0.0024668133
0.0024024158
0.0023410028
0.0022854953
0.0022399431
0.0022089635
0.0021983253
0.0022135929
0.0022608285
0.0023472452
0.0024794078
0.0026616327
0.0028940356
0.0031697057
0.0034838571
0.0038229858
0.0041400097
0.0043866845
0.0045353555
0.0045831762
0.0045453801
0.0044486541
0.0043219707
0.0041785977
0.0040292197
0.0038778142
0.0037231731
0.0035685194
0.0034117804
0.0032493475
0.0030852422
0.0029212003
0.0027586234
0.0025997225
0.0024430245
0.0022877697
0.0021367423
0.0019896636
0.0018449255
0.0017030462
0.0015656845
0.0014326753
0.0013024372
0.0011758579
0.0010535769
0.00093772441
0.00082786721
0.00072657696
0.00063034972
0.00056818833
0.00048155562
0.00066701294
-0.00051322952
0.012028195
0.012131792
0.012351341
0.012631634
0.012971239
0.013370411
0.013827288
0.014341071
0.014913085
0.015546554
0.01624648
0.017019987
0.017876932
0.018831249
0.019901882
0.021118061
0.022516642
0.024173219
0.026149281
0.028733615
0.031854974
0.037274246
0.04238369
0.080972762
0.051811922
0.0025391715
0.0010970863
0.001943248
0.0024870284
0.0029238602
0.0031884163
0.003375426
0.0035170317
0.0036187654
0.0036903323
0.0037413932
0.0037780757
0.0038039805
0.003821381
0.0038322658
0.0038380613
0.0038396064
0.0038376875
0.0038329835
0.0038258837
0.0038166981
0.0038057073
0.0037931214
0.00377912
0.003763832
0.0037473311
0.0037296968
0.0037109898
0.003691254
0.0036705324
0.0036488307
0.0036261363
0.0036024513
0.0035777637
0.0035520542
0.0035252973
0.0034974665
0.0034685069
0.0034383435
0.0034069029
0.0033741071
0.0033398797
0.0033041366
0.0032667856
0.0032277454
0.0031869191
0.0031441884
0.0030994392
0.0030525637
0.0030034568
0.0029520512
0.0028983088
0.0028422828
0.002784056
0.0027236622
0.0026613543
0.0025974328
0.002532287
0.0024668282
0.0024024291
0.0023410144
0.002285505
0.0022399508
0.002208969
0.0021983283
0.0022135934
0.002260826
0.0023472395
0.0024793988
0.0026616202
0.0028940197
0.0031696868
0.0034838356
0.0038229625
0.0041399862
0.0043866626
0.004535337
0.0045831617
0.0045453694