/*--------------------------------*- C++ -*----------------------------------*\
| =========                 |                                                 |
| \\      /  F ield         | OpenFOAM: The Open Source CFD Toolbox           |
|  \\    /   O peration     | Version:  2206                                  |
|   \\  /    A nd           | Website:  www.openfoam.com                      |
|    \\/     M anipulation  |                                                 |
\*---------------------------------------------------------------------------*/
FoamFile
{
    version     2.0;
    format      ascii;
    arch        "LSB;label=32;scalar=64";
    class       surfaceScalarField;
    location    "900";
    object      phi;
}
// * * * * * * * * * * * * * * * * * * * * * * * * * * * * * * * * * * * * * //

dimensions      [0 3 -1 0 0 0 0];

oriented        oriented;

internalField   nonuniform List<scalar> 
25880
(
2.0046072e-06
4.6912256e-11
2.0044908e-06
1.1646022e-10
2.0043396e-06
1.5118055e-10
2.0041676e-06
1.7204348e-10
2.0039702e-06
1.9737145e-10
2.003744e-06
2.2622649e-10
2.0034858e-06
2.5819814e-10
2.0031913e-06
2.9448347e-10
2.0028547e-06
3.3654828e-10
2.0024688e-06
3.8590028e-10
2.0020245e-06
4.443729e-10
2.0015098e-06
5.1464971e-10
2.0009095e-06
6.0025344e-10
2.0002019e-06
7.0762101e-10
1.9993589e-06
8.4298074e-10
1.998331e-06
1.0279413e-09
1.9970682e-06
1.262807e-09
1.9954081e-06
1.660118e-09
1.9933196e-06
2.0884605e-09
1.9900181e-06
3.3015603e-09
1.9859036e-06
4.1144459e-09
1.9759959e-06
9.9076887e-09
1.9708039e-06
5.1919949e-09
9.8998897e-07
9.8081496e-07
4.3678953e-09
9.8562107e-07
2.1081786e-09
2.2597166e-09
1.5958004e-09
5.1237824e-10
1.3482901e-09
2.4751026e-10
1.1953881e-09
1.5290202e-10
1.086907e-09
1.0848117e-10
1.0040998e-09
8.2807192e-11
9.3765494e-10
6.6444824e-11
8.8272164e-10
5.4933304e-11
8.3625806e-10
4.6463578e-11
7.9620085e-10
4.0057208e-11
7.6114242e-10
3.5058429e-11
7.3009211e-10
3.1050312e-11
7.023188e-10
2.7773316e-11
6.7726353e-10
2.5055266e-11
6.5449563e-10
2.2767897e-11
6.3366946e-10
2.0826173e-11
6.1451042e-10
1.9159036e-11
5.968007e-10
1.7709729e-11
5.8035556e-10
1.6445132e-11
5.6502331e-10
1.5332249e-11
5.5067609e-10
1.4347222e-11
5.3720566e-10
1.3470432e-11
5.245198e-10
1.2685862e-11
5.1253953e-10
1.1980266e-11
5.0119665e-10
1.1342885e-11
4.9043154e-10
1.0765111e-11
4.8019205e-10
1.0239489e-11
4.7043244e-10
9.7596116e-12
4.611124e-10
9.3200397e-12
4.5219644e-10
8.9159601e-12
4.4365298e-10
8.5434574e-12
4.3545363e-10
8.1993488e-12
4.2757297e-10
7.8806585e-12
4.1998825e-10
7.5847239e-12
4.1267896e-10
7.3092872e-12
4.0562671e-10
7.0522528e-12
3.988151e-10
6.8116102e-12
3.9222938e-10
6.5857155e-12
3.85856e-10
6.3733858e-12
3.7968255e-10
6.1734438e-12
3.7369799e-10
5.9845607e-12
3.678925e-10
5.8054894e-12
3.6225731e-10
5.6351917e-12
3.5678461e-10
5.4726987e-12
3.5146778e-10
5.316829e-12
3.4630139e-10
5.1663975e-12
3.4128096e-10
5.020422e-12
3.3640305e-10
4.8779134e-12
3.3166518e-10
4.7378703e-12
3.2706589e-10
4.5992881e-12
3.2260486e-10
4.4610281e-12
3.1828337e-10
4.3214901e-12
3.1410545e-10
4.1779209e-12
3.1007781e-10
4.0276463e-12
3.0620898e-10
3.8688302e-12
3.0250976e-10
3.6992146e-12
2.9899327e-10
3.5164925e-12
2.956752e-10
3.3180682e-12
2.9257639e-10
3.0988099e-12
2.8972448e-10
2.8519062e-12
2.8715454e-10
2.5699494e-12
2.8491551e-10
2.2390264e-12
2.8306869e-10
1.84682e-12
2.8171284e-10
1.3558488e-12
2.809255e-10
7.8734181e-13
2.807976e-10
1.2790276e-13
2.8146618e-10
-6.685803e-13
2.8305191e-10
-1.5857341e-12
2.8569036e-10
-2.6384536e-12
2.8950704e-10
-3.8166745e-12
2.9456026e-10
-5.0532268e-12
3.0081794e-10
-6.257676e-12
3.0823268e-10
-7.4147352e-12
3.166487e-10
-8.416021e-12
3.2556787e-10
-8.9191686e-12
3.3424254e-10
-8.6746743e-12
3.4195295e-10
-7.7104083e-12
3.4826282e-10
-6.3098709e-12
3.5313161e-10
-4.868787e-12
3.567518e-10
-3.6201929e-12
3.5938999e-10
-2.638189e-12
3.6128792e-10
-1.897934e-12
3.626221e-10
-1.3341775e-12
3.6350958e-10
-8.8747675e-13
3.6402432e-10
-5.1474909e-13
3.6422074e-10
-1.9641302e-13
3.6412324e-10
9.7499233e-14
3.6372879e-10
3.9445175e-13
3.6306232e-10
6.6646189e-13
3.6216531e-10
8.9701818e-13
3.6107053e-10
1.094778e-12
3.5982202e-10
1.2485059e-12
3.5845822e-10
1.3638059e-12
3.5700744e-10
1.4507755e-12
3.5550076e-10
1.5066772e-12
3.5396605e-10
1.5347097e-12
3.5241798e-10
1.5480795e-12
3.5086576e-10
1.5522129e-12
3.4932241e-10
1.5433556e-12
3.4779865e-10
1.5237584e-12
3.4629687e-10
1.501777e-12
3.4481516e-10
1.4817086e-12
3.4335286e-10
1.4622994e-12
3.419103e-10
1.4425614e-12
3.404897e-10
1.4205977e-12
3.3906135e-10
1.4283569e-12
3.3764595e-10
1.4153949e-12
3.3609698e-10
1.548968e-12
3.3454109e-10
1.5558908e-12
3.3283596e-10
1.7051325e-12
1.0216999e-12
2.0344804e-06
9.4624188e-11
2.0343619e-06
2.3493399e-10
2.0342081e-06
3.0500306e-10
2.034033e-06
3.4710007e-10
2.0338322e-06
3.9819755e-10
2.033602e-06
4.5640898e-10
2.0333393e-06
5.2090601e-10
2.0330397e-06
5.941027e-10
2.0326973e-06
6.7895551e-10
2.0323047e-06
7.785054e-10
2.0318526e-06
8.9644988e-10
2.031329e-06
1.038201e-09
2.0307184e-06
1.2108626e-09
2.0299986e-06
1.4274163e-09
2.0291412e-06
1.7004205e-09
2.0280957e-06
2.0734549e-09
2.0268114e-06
2.54712e-09
2.0251231e-06
3.3483835e-09
2.0229994e-06
4.2121712e-09
2.0196425e-06
6.6584439e-09
2.0154593e-06
8.2976686e-09
2.0053865e-06
1.9980413e-08
2.0000994e-06
1.0479134e-08
1.0110641e-06
1.9698502e-06
1.3326954e-08
1.9833583e-06
6.4504426e-09
9.1362283e-09
4.8829533e-09
2.0798675e-09
4.1256144e-09
1.0048492e-09
3.6577401e-09
6.207763e-10
3.3257861e-09
4.4043522e-10
3.0723987e-09
3.3619456e-10
2.8690824e-09
2.6976112e-10
2.7009908e-09
2.2302494e-10
2.5588163e-09
1.8863806e-10
2.4362454e-09
1.6262809e-10
2.3289707e-09
1.4233308e-10
2.2339607e-09
1.2606031e-10
2.1489781e-09
1.1275596e-10
2.0723125e-09
1.0172089e-10
2.002646e-09
9.2434392e-11
1.938921e-09
8.4551191e-11
1.8802972e-09
7.7782786e-11
1.8261082e-09
7.1898782e-11
1.7757886e-09
6.676468e-11
1.7288743e-09
6.2246527e-11
1.6849741e-09
5.8247448e-11
1.6437567e-09
5.4687804e-11
1.60494e-09
5.1502561e-11
1.5682824e-09
4.8637945e-11
1.533575e-09
4.6050274e-11
1.5006355e-09
4.3704601e-11
1.4693043e-09
4.1570657e-11
1.4394415e-09
3.9622428e-11
1.4109237e-09
3.7837835e-11
1.3836423e-09
3.6197338e-11
1.3575007e-09
3.4685038e-11
1.3324121e-09
3.3288013e-11
1.3082986e-09
3.1994183e-11
1.2850905e-09
3.0792738e-11
1.2627253e-09
2.9674511e-11
1.2411466e-09
2.8630995e-11
1.2203042e-09
2.7654028e-11
1.2001529e-09
2.6736937e-11
1.1806514e-09
2.5874917e-11
1.1617617e-09
2.5063189e-11
1.1434499e-09
2.4296358e-11
1.125686e-09
2.3569362e-11
1.1084432e-09
2.2877985e-11
1.0916976e-09
2.2218293e-11
1.0754289e-09
2.158549e-11
1.0596206e-09
2.0974767e-11
1.0442589e-09
2.0382135e-11
1.0293332e-09
1.9803576e-11
1.014836e-09
1.9235026e-11
1.0007629e-09
1.8672405e-11
9.8711286e-10
1.811109e-11
9.7388977e-10
1.7544582e-11
9.6110598e-10
1.6961707e-11
9.4878202e-10
1.635161e-11
9.3694402e-10
1.5706829e-11
9.2562503e-10
1.5018201e-11
9.1486517e-10
1.4276358e-11
9.0471249e-10
1.3470747e-11
8.9523076e-10
1.2580536e-11
8.865046e-10
1.1578068e-11
8.7864129e-10
1.0433256e-11
8.7179069e-10
9.0896275e-12
8.6614036e-10
7.4971481e-12
8.6199243e-10
5.5037863e-12
8.5958418e-10
3.1955865e-12
8.5919393e-10
5.1815345e-13
8.6124088e-10
-2.715533e-12
8.6609427e-10
-6.439124e-12
8.7416881e-10
-1.071299e-11
8.8584837e-10
-1.5496231e-11
9.0131129e-10
-2.0516145e-11
9.2045936e-10
-2.5405747e-11
9.431473e-10
-3.0102675e-11
9.6889785e-10
-3.4166578e-11
9.9618695e-10
-3.6208264e-11
1.0227275e-09
-3.52152e-11
1.0463178e-09
-3.1300692e-11
1.0656233e-09
-2.5615397e-11
1.08052e-09
-1.9765494e-11
1.0915968e-09
-1.4697026e-11
1.0996692e-09
-1.071057e-11
1.1054767e-09
-7.7054466e-12
1.1095593e-09
-5.4167498e-12
1.112275e-09
-3.6032035e-12
1.1138503e-09
-2.090007e-12
1.1144514e-09
-7.975816e-13
1.1141532e-09
3.956994e-13
1.1129464e-09
1.6012899e-12
1.1109072e-09
2.7056483e-12
1.1081626e-09
3.641684e-12
1.1048128e-09
4.4445449e-12
1.1009926e-09
5.0686712e-12
1.0968196e-09
5.5367784e-12
1.0923806e-09
5.8898406e-12
1.0877705e-09
6.1167957e-12
1.0830746e-09
6.23062e-12
1.0783377e-09
6.284896e-12
1.0735883e-09
6.3016626e-12
1.0688659e-09
6.2657065e-12
1.0642035e-09
6.1861595e-12
1.0596084e-09
6.0969131e-12
1.0550747e-09
6.0154277e-12
1.0506004e-09
5.9366106e-12
1.0461865e-09
5.8564733e-12
1.0418398e-09
5.7672882e-12
1.0374694e-09
5.7987651e-12
1.0331388e-09
5.7459864e-12
1.0283993e-09
6.2884018e-12
1.0236404e-09
6.3148637e-12
1.0184153e-09
6.930202e-12
4.1355675e-12
2.0946718e-06
1.438627e-10
2.0945495e-06
3.5723143e-10
2.0943907e-06
4.6382281e-10
2.09421e-06
5.2785138e-10
2.0940026e-06
6.0555434e-10
2.093765e-06
6.9407252e-10
2.0934937e-06
7.9214579e-10
2.0931844e-06
9.0344361e-10
2.0928309e-06
1.0324607e-09
2.0924256e-06
1.18382e-09
2.0919589e-06
1.3631423e-09
2.0914184e-06
1.5786541e-09
2.0907881e-06
1.8411535e-09
2.0900452e-06
2.1703736e-09
2.0891602e-06
2.5854003e-09
2.0880812e-06
3.152481e-09
2.0867558e-06
3.8725057e-09
2.0850137e-06
5.0904967e-09
2.0828224e-06
6.4034303e-09
2.0793592e-06
1.0121649e-08
2.0750437e-06
1.2613146e-08
2.0646531e-06
3.0371046e-08
2.0591904e-06
1.5941855e-08
1.0475896e-06
2.981451e-06
2.3043345e-08
3.0079045e-06
1.1178387e-08
2.1001187e-08
8.4623116e-09
4.7959427e-09
7.1498585e-09
2.3173023e-09
6.3389945e-09
1.4316403e-09
5.7636868e-09
1.015743e-09
5.324546e-09
7.7533526e-10
4.9721867e-09
6.2212047e-10
4.6808744e-09
5.1433724e-10
4.4344786e-09
4.3503388e-10
4.2220578e-09
3.750489e-10
4.0361467e-09
3.2824415e-10
3.8714911e-09
2.9071588e-10
3.7242136e-09
2.6003351e-10
3.5913499e-09
2.3458459e-10
3.470616e-09
2.1316829e-10
3.3601789e-09
1.9498822e-10
3.2585826e-09
1.7937908e-10
3.1646718e-09
1.658096e-10
3.077467e-09
1.5396952e-10
2.9961636e-09
1.4354993e-10
2.9200836e-09
1.3432741e-10
2.8486531e-09
1.261183e-10
2.781383e-09
1.1877263e-10
2.7178546e-09
1.1216638e-10
2.6577061e-09
1.0619881e-10
2.6006213e-09
1.0078933e-10
2.5463239e-09
9.5868128e-11
2.4945711e-09
9.1375217e-11
2.4451492e-09
8.7259674e-11
2.3978701e-09
8.3476442e-11
2.3525663e-09
7.9988857e-11
2.3090872e-09
7.676711e-11
2.2672981e-09
7.3783347e-11
2.2270782e-09
7.1012638e-11
2.1883188e-09
6.8433843e-11
2.1509225e-09
6.6027342e-11
2.1148022e-09
6.3774318e-11
2.0798798e-09
6.1659377e-11
2.0460832e-09
5.9671439e-11
2.0133469e-09
5.7799482e-11
1.9816122e-09
5.6031062e-11
1.9508271e-09
5.4354507e-11
1.920945e-09
5.2760096e-11
1.8919245e-09
5.1238754e-11
1.8637306e-09
4.9779426e-11
1.8363343e-09
4.8371016e-11
1.8097121e-09
4.7004325e-11
1.7838456e-09
4.5670089e-11
1.7587217e-09
4.4358934e-11
1.7343327e-09
4.3061448e-11
1.7106768e-09
4.1766969e-11
1.6877609e-09
4.0460508e-11
1.6656063e-09
3.91163e-11
1.6442486e-09
3.7709316e-11
1.6237331e-09
3.6222333e-11
1.604117e-09
3.4634229e-11
1.58547e-09
3.2923394e-11
1.5678753e-09
3.1065467e-11
1.5514434e-09
2.9012404e-11
1.5363211e-09
2.6700424e-11
1.5226942e-09
2.4060115e-11
1.5108226e-09
2.0961281e-11
1.5010313e-09
1.7288423e-11
1.4938437e-09
1.2691334e-11
1.4896713e-09
7.3680024e-12
1.4889965e-09
1.1929917e-12
1.4925454e-09
-6.2644745e-12
1.5009581e-09
-1.4851796e-11
1.514953e-09
-2.4707945e-11
1.5351954e-09
-3.5738543e-11
1.5619939e-09
-4.7314733e-11
1.5951786e-09
-5.8590406e-11
1.6344971e-09
-6.9421211e-11
1.6791218e-09
-7.87912e-11
1.7264114e-09
-8.3497944e-11
1.7724032e-09
-8.1207006e-11
1.8132827e-09
-7.2180148e-11
1.8467376e-09
-5.9070276e-11
1.8725527e-09
-4.5580625e-11
1.8917487e-09
-3.3893054e-11
1.9057384e-09
-2.4700255e-11
1.9158033e-09
-1.7770301e-11
1.9228789e-09
-1.2492318e-11
1.9275856e-09
-8.3099758e-12
1.9303159e-09
-4.8203221e-12
1.9313581e-09
-1.8397303e-12
1.9308415e-09
9.1223967e-13
1.9287503e-09
3.6925485e-12
1.9252165e-09
6.2394398e-12
1.9204601e-09
8.3981123e-12
1.914655e-09
1.0249621e-11
1.9080347e-09
1.168898e-11
1.9008029e-09
1.2768522e-11
1.8931101e-09
1.3582709e-11
1.8851208e-09
1.410611e-11
1.8769827e-09
1.4368636e-11
1.8687738e-09
1.4493801e-11
1.8605431e-09
1.4532446e-11
1.8523592e-09
1.4449532e-11
1.8442793e-09
1.4266109e-11
1.8363159e-09
1.4060286e-11
1.828459e-09
1.3872348e-11
1.820705e-09
1.3690553e-11
1.8130558e-09
1.3505732e-11
1.805523e-09
1.3300038e-11
1.7979493e-09
1.3372543e-11
1.7904446e-09
1.3250666e-11
1.7822315e-09
1.4501442e-11
1.7739857e-09
1.4560677e-11
1.7649254e-09
1.5990506e-11
9.5235906e-12
2.1860787e-06
1.9538383e-10
2.1859507e-06
4.8523734e-10
2.1857844e-06
6.3009451e-10
2.1855952e-06
7.170928e-10
2.1853781e-06
8.2264819e-10
2.1851293e-06
9.4289119e-10
2.1848453e-06
1.0761093e-09
2.1845215e-06
1.227285e-09
2.1841514e-06
1.4025223e-09
2.1837271e-06
1.6080994e-09
2.1832386e-06
1.8516484e-09
2.1826729e-06
2.14434e-09
2.1820133e-06
2.5008354e-09
2.1812357e-06
2.9479295e-09
2.1803096e-06
3.5115324e-09
2.1791804e-06
4.2816021e-09
2.1777936e-06
5.2593131e-09
2.175971e-06
6.913175e-09
2.1736786e-06
8.6958055e-09
2.1700561e-06
1.3744131e-08
2.1655424e-06
1.712682e-08
2.1546753e-06
4.1238198e-08
2.1489519e-06
2.1665234e-08
1.1004126e-06
4.0299903e-06
3.4092239e-08
4.0742248e-06
1.6574833e-08
3.8518593e-08
1.2548023e-08
8.8227527e-09
1.0601977e-08
4.2633481e-09
9.3995795e-09
2.6340378e-09
8.546475e-09
1.8688475e-09
7.8952918e-09
1.4265184e-09
7.3727994e-09
1.1446129e-09
6.9408311e-09
9.4630556e-10
6.5754674e-09
8.0039758e-10
6.2604842e-09
6.9003205e-10
5.9848114e-09
6.0391693e-10
5.7406574e-09
5.3486996e-10
5.5222721e-09
4.7841881e-10
5.3252601e-09
4.3159651e-10
5.1462346e-09
3.9219382e-10
4.9824776e-09
3.5874527e-10
4.8318298e-09
3.3002683e-10
4.6925782e-09
3.0506122e-10
4.5632703e-09
2.832774e-10
4.4427132e-09
2.6410707e-10
4.3299014e-09
2.4713916e-10
4.2239839e-09
2.3203578e-10
4.1242356e-09
2.1852098e-10
4.0300354e-09
2.063666e-10
3.9408469e-09
1.9538729e-10
3.8562015e-09
1.8543478e-10
3.775689e-09
1.7638061e-10
3.6989498e-09
1.6811443e-10
3.6256669e-09
1.6054254e-10
3.5555613e-09
1.5358206e-10
3.4883846e-09
1.4716551e-10
3.4239137e-09
1.4123806e-10
3.3619486e-09
1.3574846e-10
3.3023103e-09
1.3065085e-10
3.2448379e-09
1.2590632e-10
3.1893864e-09
1.2147879e-10
3.1358271e-09
1.1733363e-10
3.084044e-09
1.1344252e-10
3.0339303e-09
1.0978508e-10
2.9853888e-09
1.0634102e-10
2.9383324e-09
1.0308745e-10
2.892684e-09
1.000029e-10
2.8483746e-09
9.7069475e-11
2.8053429e-09
9.4270486e-11
2.7635367e-09
9.158559e-11
2.7229134e-09
8.8994379e-11
2.6834378e-09
8.6479923e-11
2.6450827e-09
8.4025178e-11
2.6078287e-09
8.1612893e-11
2.5716644e-09
7.9225752e-11
2.5365872e-09
7.6844135e-11
2.5026073e-09
7.4440463e-11
2.4697562e-09
7.1967341e-11
2.4380868e-09
6.9378723e-11
2.4076663e-09
6.6642904e-11
2.3785795e-09
6.3721033e-11
2.3509295e-09
6.0573338e-11
2.32484e-09
5.7154967e-11
2.3004749e-09
5.3377523e-11
2.2780517e-09
4.9123648e-11
2.2578462e-09
4.4265593e-11
2.2402436e-09
3.8563914e-11
2.2257262e-09
3.1805809e-11
2.2150696e-09
2.3347934e-11
2.2088841e-09
1.3553467e-11
2.2078855e-09
2.1916387e-12
2.2131499e-09
-1.1528864e-11
2.2256264e-09
-2.7328306e-11
2.2463802e-09
-4.5461825e-11
2.2763974e-09
-6.5755716e-11
2.3161358e-09
-8.705311e-11
2.365343e-09
-1.0779758e-10
2.4236443e-09
-1.2772258e-10
2.4898116e-09
-1.4495843e-10
2.5599289e-09
-1.5361531e-10
2.6281211e-09
-1.4939914e-10
2.6887335e-09
-1.3279257e-10
2.7383382e-09
-1.0867503e-10
2.7766158e-09
-8.3858155e-11
2.8050796e-09
-6.2356868e-11
2.825824e-09
-4.5444645e-11
2.8407489e-09
-3.2695214e-11
2.8512413e-09
-2.2984763e-11
2.8582212e-09
-1.5289894e-11
2.8622704e-09
-8.8694996e-12
2.8638163e-09
-3.3855976e-12
2.8630508e-09
1.6777099e-12
2.8599503e-09
6.7930842e-12
2.8547107e-09
1.1479061e-11
2.8476581e-09
1.5450717e-11
2.8390505e-09
1.8857177e-11
2.8292341e-09
2.1505409e-11
2.818511e-09
2.3491613e-11
2.8071041e-09
2.4989541e-11
2.7952577e-09
2.5952527e-11
2.7831908e-09
2.6435585e-11
2.7710187e-09
2.6665867e-11
2.7588142e-09
2.6736933e-11
2.7466794e-09
2.6584401e-11
2.7346985e-09
2.6246975e-11
2.7228905e-09
2.5868288e-11
2.7112404e-09
2.5522475e-11
2.699743e-09
2.5187957e-11
2.6884008e-09
2.4847891e-11
2.6772314e-09
2.4469424e-11
2.6660013e-09
2.4602624e-11
2.6548737e-09
2.4378249e-11
2.6426964e-09
2.6678841e-11
2.630471e-09
2.6786072e-11
2.6170333e-09
2.9428197e-11
1.7508044e-11
2.3100631e-06
2.4998573e-10
2.3099274e-06
6.2094426e-10
2.3097511e-06
8.0641583e-10
2.3095504e-06
9.1778319e-10
2.3093201e-06
1.0528728e-09
2.3090563e-06
1.2067534e-09
2.3087552e-06
1.3772325e-09
2.3084118e-06
1.5706831e-09
2.3080194e-06
1.7949148e-09
2.3075695e-06
2.0579596e-09
2.3070516e-06
2.3695803e-09
2.3064518e-06
2.7440664e-09
2.3057525e-06
3.2001707e-09
2.3049283e-06
3.772169e-09
2.3039466e-06
4.4931963e-09
2.3027499e-06
5.47833e-09
2.3012802e-06
6.729024e-09
2.2993487e-06
8.8446109e-09
2.2969198e-06
1.1124703e-08
2.2930823e-06
1.7581712e-08
2.2883009e-06
2.1908183e-08
2.2767901e-06
5.2748952e-08
2.2707158e-06
2.7739569e-08
1.1706601e-06
5.130046e-06
4.7123497e-08
5.1977615e-06
2.2962569e-08
6.2679521e-08
1.7384543e-08
1.4400779e-08
1.4688532e-08
6.9593596e-09
1.3022625e-08
4.2999448e-09
1.1840655e-08
3.0508172e-09
1.093845e-08
2.3287232e-09
1.0214554e-08
1.8685093e-09
9.6160772e-09
1.544782e-09
9.1098801e-09
1.3065946e-09
8.6734853e-09
1.1264269e-09
8.2915546e-09
9.858476e-10
7.9532924e-09
8.7313221e-10
7.6507319e-09
7.8097927e-10
7.3777835e-09
7.0454495e-10
7.1297543e-09
6.4022295e-10
6.9028791e-09
5.8562054e-10
6.6941662e-09
5.3873972e-10
6.501242e-09
4.9798545e-10
6.3220942e-09
4.6242511e-10
6.1550702e-09
4.3113115e-10
5.9987769e-09
4.0343246e-10
5.8520352e-09
3.7877746e-10
5.7138405e-09
3.567157e-10
5.5833323e-09
3.3687473e-10
5.4597677e-09
3.1895199e-10
5.342497e-09
3.0270538e-10
5.2309524e-09
2.8792526e-10
5.1246354e-09
2.7443146e-10
5.0231069e-09
2.6207104e-10
4.9259802e-09
2.5070868e-10
4.8329115e-09
2.4023427e-10
4.7435913e-09
2.3055825e-10
4.6577428e-09
2.2159699e-10
4.575118e-09
2.1327561e-10
4.4954937e-09
2.0553062e-10
4.4186694e-09
1.9830308e-10
4.3444665e-09
1.9153651e-10
4.2727244e-09
1.8518466e-10
4.2032952e-09
1.7921425e-10
4.1360441e-09
1.7359216e-10
4.0708505e-09
1.6828103e-10
4.0076076e-09
1.6324581e-10
3.9462198e-09
1.5845729e-10
3.8866021e-09
1.5388822e-10
3.8286823e-09
1.495054e-10
3.7724011e-09
1.4527551e-10
3.7177101e-09
1.4117092e-10
3.6645715e-09
1.371638e-10
3.6129584e-09
1.3322599e-10
3.5628549e-09
1.2932922e-10
3.5142576e-09
1.2544145e-10
3.4671804e-09
1.2151766e-10
3.4216673e-09
1.174805e-10
3.3777912e-09
1.132548e-10
3.3356453e-09
1.0878879e-10
3.2953473e-09
1.0401905e-10
3.25704e-09
9.8880644e-11
3.2208947e-09
9.3300296e-11
3.1871385e-09
8.7133703e-11
3.1560729e-09
8.0189268e-11
3.1280801e-09
7.225838e-11
3.1036936e-09
6.2950358e-11
3.0835823e-09
5.1917157e-11
3.0688196e-09
3.8110597e-11
3.0602518e-09
2.2121305e-11
3.0588709e-09
3.5725541e-12
3.0661669e-09
-1.8824856e-11
3.083455e-09
-4.4616418e-11
3.1122107e-09
-7.4217567e-11
3.1537997e-09
-1.0734469e-10
3.2088561e-09
-1.4210955e-10
3.2770303e-09
-1.7597175e-10
3.3578023e-09
-2.0849457e-10
3.4494692e-09
-2.3662532e-10
3.5466067e-09
-2.5075283e-10
3.6410761e-09
-2.438685e-10
3.7250458e-09
-2.167623e-10
3.7937674e-09
-1.7739664e-10
3.8467971e-09
-1.3688789e-10
3.8862321e-09
-1.0179188e-10
3.9149731e-09
-7.4185609e-11
3.9356519e-09
-5.3373995e-11
3.9501898e-09
-3.7522679e-11
3.9598612e-09
-2.4961302e-11
3.9654722e-09
-1.4480462e-11
3.9676148e-09
-5.5282383e-12
3.9665551e-09
2.7374434e-12
3.9622602e-09
1.108801e-11
3.9550015e-09
1.8737693e-11
3.945231e-09
2.5221209e-11
3.9333062e-09
3.0781982e-11
3.9197065e-09
3.5105094e-11
3.9048507e-09
3.8347465e-11
3.8890476e-09
4.0792659e-11
3.8726354e-09
4.236469e-11
3.8559177e-09
4.3153335e-11
3.8390543e-09
4.3529256e-11
3.822146e-09
4.3645218e-11
3.8053341e-09
4.3396253e-11
3.7887356e-09
4.2845502e-11
3.7723766e-09
4.2227321e-11
3.7562363e-09
4.1662748e-11
3.7403077e-09
4.1116602e-11
3.7245941e-09
4.0561425e-11
3.70912e-09
3.9943579e-11
3.6935619e-09
4.0160647e-11
3.6781459e-09
3.9794262e-11
3.6612764e-09
4.354838e-11
3.6443407e-09
4.3721749e-11
3.6257216e-09
4.8047278e-11
2.8566645e-11
2.4684726e-06
3.0852282e-10
2.4683271e-06
7.6648846e-10
2.4681379e-06
9.9557514e-10
2.4679226e-06
1.1330994e-09
2.4676756e-06
1.2998717e-09
2.4673925e-06
1.4898334e-09
2.4670695e-06
1.7002766e-09
2.4667011e-06
1.9390641e-09
2.4662802e-06
2.215834e-09
2.4657977e-06
2.5404978e-09
2.4652421e-06
2.9251018e-09
2.4645989e-06
3.3872769e-09
2.4638489e-06
3.9501599e-09
2.4629651e-06
4.6560423e-09
2.4619125e-06
5.5457962e-09
2.4606294e-06
6.7614175e-09
2.4590538e-06
8.3046333e-09
2.4569834e-06
1.0914968e-08
2.4543801e-06
1.3727986e-08
2.4502678e-06
2.169404e-08
2.4451445e-06
2.7031469e-08
2.4328117e-06
6.5081725e-08
2.4262892e-06
3.4262059e-08
1.2597752e-06
6.29656e-06
6.2899695e-08
6.394637e-06
3.072365e-08
9.4855566e-08
2.3261255e-08
2.1863174e-08
1.9654054e-08
1.0566561e-08
1.7424919e-08
6.5290797e-09
1.5843332e-08
4.6324047e-09
1.4636102e-08
3.5359527e-09
1.3667478e-08
2.8371333e-09
1.2866677e-08
2.3455831e-09
1.2189354e-08
1.9839179e-09
1.1605433e-08
1.7103479e-09
1.109439e-08
1.4968904e-09
1.0641779e-08
1.3257432e-09
1.0236939e-08
1.1858189e-09
9.8717226e-09
1.0697617e-09
9.5398492e-09
9.720963e-10
9.236281e-09
8.8918875e-10
8.9570151e-09
8.180056e-10
8.6988752e-09
7.5612539e-10
8.4591688e-09
7.0213147e-10
8.2356845e-09
6.5461551e-10
8.0265583e-09
6.1255856e-10
7.8302127e-09
5.7512309e-10
7.6453033e-09
5.4162515e-10
7.4706788e-09
5.1149922e-10
7.3053449e-09
4.842859e-10
7.1484327e-09
4.5961757e-10
6.999182e-09
4.3717591e-10
6.8569261e-09
4.1668736e-10
6.7210774e-09
3.9791971e-10
6.5911186e-09
3.806675e-10
6.4665894e-09
3.6476352e-10
6.3470758e-09
3.5007181e-10
6.2322075e-09
3.3646534e-10
6.1216526e-09
3.2383046e-10
6.0151125e-09
3.1207074e-10
5.9123188e-09
3.0109673e-10
5.8130327e-09
2.9082263e-10
5.7170391e-09
2.8117825e-10
5.6241404e-09
2.7211303e-10
5.5341558e-09
2.6357669e-10
5.4469244e-09
2.5551249e-10
5.362303e-09
2.4786722e-10
5.2801637e-09
2.4059654e-10
5.2003929e-09
2.3365906e-10
5.1228939e-09
2.2700438e-10
5.0475875e-09
2.2058192e-10
4.9744087e-09
2.143497e-10
4.903307e-09
2.0826548e-10
4.8342465e-09
2.0228649e-10
4.7672059e-09
1.963698e-10
4.7021806e-09
1.9046675e-10
4.6391893e-09
1.8450899e-10
4.5782907e-09
1.7837909e-10
4.5195826e-09
1.7196292e-10
4.4631895e-09
1.6518183e-10
4.409269e-09
1.5793956e-10
4.3580122e-09
1.5013748e-10
4.3096483e-09
1.4166423e-10
4.2644813e-09
1.323007e-10
4.2229146e-09
1.2175594e-10
4.1854599e-09
1.0971309e-10
4.1528309e-09
9.5579314e-11
4.1259232e-09
7.8824859e-11
4.1061718e-09
5.7861981e-11
4.0947098e-09
3.3583325e-11
4.0928656e-09
5.4168203e-12
4.102631e-09
-2.8590311e-11
4.1257665e-09
-6.7751954e-11
4.164246e-09
-1.12697e-10
4.2198961e-09
-1.629948e-10
4.2935653e-09
-2.1577881e-10
4.3847858e-09
-2.671922e-10
4.4928604e-09
-3.1656919e-10
4.6155091e-09
-3.5927402e-10
4.7454752e-09
-3.807189e-10
4.8718701e-09
-3.7026343e-10
4.9842187e-09
-3.2911091e-10
5.0761681e-09
-2.6934602e-10
5.1471227e-09
-2.0784245e-10
5.1998891e-09
-1.545583e-10
5.2383474e-09
-1.1264389e-10
5.2660185e-09
-8.1045137e-11
5.2854729e-09
-5.697709e-11
5.2984155e-09
-3.7903909e-11
5.3059249e-09
-2.1989867e-11
5.3087933e-09
-8.3966618e-12
5.3073766e-09
4.1541699e-12
5.3016309e-09
1.6833719e-11
5.2919194e-09
2.8449171e-11
5.2788469e-09
3.829379e-11
5.2628917e-09
4.6737174e-11
5.2446953e-09
5.3301453e-11
5.2248181e-09
5.822469e-11
5.2036734e-09
6.1937354e-11
5.1817137e-09
6.4324358e-11
5.1593451e-09
6.5521974e-11
5.1367816e-09
6.6092778e-11
5.114158e-09
6.6268786e-11
5.0916634e-09
6.5890818e-11
5.0694542e-09
6.5054686e-11
5.0475655e-09
6.4116051e-11
5.0259695e-09
6.3258718e-11
5.0046568e-09
6.2429356e-11
4.9836319e-09
6.1586311e-11
4.9629273e-09
6.0648152e-11
4.9421109e-09
6.0977115e-11
4.9214844e-09
6.0420741e-11
4.8989144e-09
6.6118326e-11
4.8762562e-09
6.6380023e-11
4.8513418e-09
7.2961667e-11
4.3361194e-11
2.663668e-06
3.7192135e-10
2.6635103e-06
9.2418994e-10
2.6633053e-06
1.2006047e-09
2.6630719e-06
1.3664974e-09
2.6628041e-06
1.5676082e-09
2.6624973e-06
1.7966712e-09
2.6621471e-06
2.0504193e-09
2.6617479e-06
2.3383279e-09
2.6612917e-06
2.6720148e-09
2.6607688e-06
3.0634269e-09
2.6601668e-06
3.5270822e-09
2.6594698e-06
4.0842288e-09
2.6586572e-06
4.7627472e-09
2.6576997e-06
5.6136059e-09
2.6565594e-06
6.6860459e-09
2.6551696e-06
8.1512035e-09
2.6534632e-06
1.0011069e-08
2.6512212e-06
1.315693e-08
2.6484026e-06
1.654666e-08
2.643951e-06
2.6145656e-08
2.6384054e-06
3.2576975e-08
2.6250578e-06
7.8429397e-08
2.6179811e-06
4.1338699e-08
1.36956e-06
7.5449811e-06
8.2339618e-08
7.6818575e-06
4.032224e-08
1.3687294e-07
3.0529781e-08
3.1655632e-08
2.5795679e-08
1.5300664e-08
2.2869885e-08
9.4548737e-09
2.0794007e-08
6.7082828e-09
1.9209492e-08
5.1204673e-09
1.793817e-08
4.1084548e-09
1.688712e-08
3.396633e-09
1.5998137e-08
2.8729014e-09
1.5231747e-08
2.4767376e-09
1.4561012e-08
2.1676254e-09
1.396697e-08
1.9197858e-09
1.3435627e-08
1.7171614e-09
1.295629e-08
1.5490994e-09
1.2520715e-08
1.4076712e-09
1.212229e-08
1.2876133e-09
1.1755762e-08
1.1845336e-09
1.1416961e-08
1.0949261e-09
1.1102354e-08
1.0167384e-09
1.0809038e-08
9.4793158e-10
1.0534567e-08
8.8702978e-10
1.027687e-08
8.3282029e-10
1.0034182e-08
7.8431267e-10
9.8049936e-09
7.4068802e-10
9.5879984e-09
7.012811e-10
9.3820564e-09
6.6555954e-10
9.1861699e-09
6.3306235e-10
8.9994639e-09
6.0339342e-10
8.8211671e-09
5.7621648e-10
8.6506006e-09
5.5123405e-10
8.4871601e-09
5.2820397e-10
8.3303026e-09
5.0692933e-10
8.1795417e-09
4.8722621e-10
8.0344422e-09
4.6893002e-10
7.8946118e-09
4.5190113e-10
7.7596985e-09
4.3601001e-10
7.6293887e-09
4.2113243e-10
7.5034002e-09
4.0716675e-10
7.3814735e-09
3.9403972e-10
7.2633716e-09
3.8167855e-10
7.1488831e-09
3.7000109e-10
7.03782e-09
3.5893025e-10
6.9300147e-09
3.4840185e-10
6.8253178e-09
3.3835595e-10
6.7236026e-09
3.2871957e-10
6.6247651e-09
3.1941948e-10
6.5287199e-09
3.1039486e-10
6.4354008e-09
3.0158456e-10
6.3447607e-09
2.9292663e-10
6.2567716e-09
2.8435888e-10
6.1714275e-09
2.7581088e-10
6.0887529e-09
2.671836e-10
6.0088249e-09
2.5830705e-10
5.9317719e-09
2.4901597e-10
5.8577573e-09
2.3919642e-10
5.7869878e-09
2.2870902e-10
5.7197144e-09
2.174109e-10
5.6562379e-09
2.0514068e-10
5.5969576e-09
1.9158105e-10
5.5424029e-09
1.7631066e-10
5.4932455e-09
1.5887046e-10
5.4504222e-09
1.3840261e-10
5.4151094e-09
1.141377e-10
5.3891882e-09
8.3783148e-11
5.3741471e-09
4.8624385e-11
5.3717311e-09
7.8328417e-12
5.3845519e-09
-4.1411112e-11
5.4149208e-09
-9.8120887e-11
5.4654278e-09
-1.6320396e-10
5.5384698e-09
-2.3603682e-10
5.6351603e-09
-3.1246932e-10
5.7548852e-09
-3.8691702e-10
5.8967276e-09
-4.5841161e-10
6.057693e-09
-5.2023948e-10
6.2282591e-09
-5.5128499e-10
6.394137e-09
-5.3614132e-10
6.5415836e-09
-4.7655744e-10
6.6622615e-09
-3.9002396e-10
6.7553862e-09
-3.0096716e-10
6.8246424e-09
-2.2381452e-10
6.8751208e-09
-1.631222e-10
6.9114417e-09
-1.1736608e-10
6.9369783e-09
-8.251372e-11
6.953968e-09
-5.4893608e-11
6.9638265e-09
-3.1848363e-11
6.9675935e-09
-1.2163652e-11
6.965736e-09
6.0116851e-12
6.9581966e-09
2.4373158e-11
6.9454518e-09
4.1193881e-11
6.9282956e-09
5.5450064e-11
6.9073559e-09
6.7676889e-11
6.8834745e-09
7.71828e-11
6.857387e-09
8.4312234e-11
6.8296359e-09
8.9688416e-11
6.8008151e-09
9.3145122e-11
6.7714575e-09
9.4879625e-11
6.741844e-09
9.5706232e-11
6.7121518e-09
9.5961016e-11
6.6826288e-09
9.5413781e-11
6.6534804e-09
9.4203174e-11
6.6247525e-09
9.2843951e-11
6.5964089e-09
9.1602312e-11
6.5684371e-09
9.040117e-11
6.5408431e-09
8.9180247e-11
6.5136696e-09
8.7821669e-11
6.4863497e-09
8.8297028e-11
6.4592791e-09
8.7491362e-11
6.4296597e-09
9.5737644e-11
6.3999245e-09
9.6115282e-11
6.3672244e-09
1.056618e-10
6.2777246e-11
2.898558e-06
4.4119696e-10
2.8983856e-06
1.0965975e-09
2.8981614e-06
1.424841e-09
2.8979061e-06
1.6217805e-09
2.8976132e-06
1.8604438e-09
2.8972776e-06
2.1322624e-09
2.8968947e-06
2.4333572e-09
2.8964581e-06
2.774964e-09
2.8959592e-06
3.1708639e-09
2.8953874e-06
3.635227e-09
2.8947292e-06
4.1852705e-09
2.8939673e-06
4.8461923e-09
2.893079e-06
5.6510521e-09
2.8920323e-06
6.6602934e-09
2.890786e-06
7.9322892e-09
2.8892672e-06
9.67e-09
2.8874026e-06
1.1875665e-08
2.8849533e-06
1.560631e-08
2.8818743e-06
1.962563e-08
2.8770128e-06
3.1007173e-08
2.8709572e-06
3.8632524e-08
2.8563838e-06
9.3002789e-08
2.848636e-06
4.9086484e-08
1.5022286e-06
8.8913885e-06
1.0657013e-07
9.0775159e-06
5.2332359e-08
1.9111072e-07
3.9625025e-08
4.4362966e-08
3.3480929e-08
2.144476e-08
2.9683341e-08
1.3252462e-08
2.6988909e-08
9.4027146e-09
2.4932264e-08
7.1771121e-09
2.3282159e-08
5.7585599e-09
2.1917959e-08
4.7608331e-09
2.0764115e-08
4.0267456e-09
1.9769395e-08
3.4714578e-09
1.8898832e-08
3.0381884e-09
1.8127812e-08
2.6908056e-09
1.7438173e-08
2.4068e-09
1.6816034e-08
2.171239e-09
1.6250695e-08
1.9730098e-09
1.5733575e-08
1.8047333e-09
1.5257855e-08
1.6602538e-09
1.4818122e-08
1.5346588e-09
1.4409791e-08
1.4250696e-09
1.4029094e-08
1.3286289e-09
1.3672855e-08
1.2432681e-09
1.3338388e-08
1.1672873e-09
1.3023402e-08
1.0992985e-09
1.2725937e-08
1.0381537e-09
1.2444297e-08
9.829206e-10
1.2177004e-08
9.3285294e-10
1.1922762e-08
8.873046e-10
1.1680435e-08
8.4572039e-10
1.1449022e-08
8.0762899e-10
1.1227643e-08
7.7261345e-10
1.1015512e-08
7.4033438e-10
1.0811926e-08
7.1051574e-10
1.0616252e-08
6.8289975e-10
1.0427927e-08
6.5725573e-10
1.024644e-08
6.3338799e-10
1.0071335e-08
6.1111495e-10
9.9022048e-09
5.9026253e-10
9.7386833e-09
5.7068824e-10
9.5804336e-09
5.5228943e-10
9.4271481e-09
5.3496404e-10
9.2785522e-09
5.1859694e-10
9.1344024e-09
5.030801e-10
8.9944807e-09
4.8832353e-10
8.8585934e-09
4.7424324e-10
8.726576e-09
4.6073695e-10
8.5982935e-09
4.4770201e-10
8.4736352e-09
4.3505319e-10
8.352515e-09
4.2270474e-10
8.2348718e-09
4.1056986e-10
8.1206693e-09
3.9856135e-10
8.0098997e-09
3.8658047e-10
7.9025949e-09
3.7448843e-10
7.7988549e-09
3.62047e-10
7.6988463e-09
3.4902458e-10
7.6027814e-09
3.3526138e-10
7.5109283e-09
3.2056209e-10
7.4236128e-09
3.047264e-10
7.3412256e-09
2.875279e-10
7.2642848e-09
2.6852183e-10
7.1934779e-09
2.4711756e-10
7.129677e-09
2.2267136e-10
7.0740977e-09
1.9398191e-10
7.0282684e-09
1.59967e-10
6.9946274e-09
1.1742417e-10
6.9751085e-09
6.8143255e-11
6.9719787e-09
1.0962614e-11
6.988624e-09
-5.8056388e-11
7.0280456e-09
-1.3754247e-10
7.093604e-09