/*--------------------------------*- C++ -*----------------------------------*\
| =========                 |                                                 |
| \\      /  F ield         | OpenFOAM: The Open Source CFD Toolbox           |
|  \\    /   O peration     | Version:  2206                                  |
|   \\  /    A nd           | Website:  www.openfoam.com                      |
|    \\/     M anipulation  |                                                 |
\*---------------------------------------------------------------------------*/
FoamFile
{
    version     2.0;
    format      ascii;
    arch        "LSB;label=32;scalar=64";
    class       volVectorField;
    location    "900";
    object      U;
}
// * * * * * * * * * * * * * * * * * * * * * * * * * * * * * * * * * * * * * //

dimensions      [0 1 -1 0 0 0 0];

internalField   nonuniform List<vector> 
13056
(
(0.99999999 5.8499146e-10 5.0469057e-25)
(0.99995599 1.6480933e-09 0)
(0.99988547 2.4277352e-09 0)
(0.99980573 3.1343836e-09 0)
(0.99971454 4.0781546e-09 0)
(0.99960965 5.2990129e-09 0)
(0.99948974 6.8521665e-09 0)
(0.99935305 8.8478862e-09 0)
(0.99919706 1.1437205e-08 0)
(0.99901856 1.4815521e-08 0)
(0.99881352 1.9243719e-08 0)
(0.99857689 2.5090004e-08 0)
(0.99830199 3.2861824e-08 0)
(0.99798024 4.3367531e-08 0)
(0.99759863 5.7608127e-08 0)
(0.99714217 7.7950287e-08 0)
(0.99657703 1.0562398e-07 0)
(0.99588595 1.5204466e-07 0)
(0.99492865 2.0761876e-07 0)
(0.99380343 3.5261587e-07 0)
(0.99165854 4.665169e-07 0)
(0.98968037 1.1767586e-06 0)
(0.9818521 6.3712899e-07 -5.2439347e-21)
(0.98435718 0.00012253573 8.8533764e-18)
(0.0031210765 0.00012303194 0)
(0.00122794 7.3625647e-08 -1.2381479e-20)
(0.0008738753 4.8002196e-08 4.1040056e-18)
(0.0007175725 6.0916087e-09 0)
(0.00062718747 3.731457e-09 0)
(0.00056514496 2.623238e-09 0)
(0.00051902281 1.983973e-09 0)
(0.00048257095 1.5767899e-09 0)
(0.0004527604 1.2908563e-09 0)
(0.00042778562 1.0808686e-09 0)
(0.00040642007 9.222408e-10 0)
(0.00038783334 7.9862313e-10 0)
(0.00037145256 6.9965111e-10 0)
(0.00035686289 6.1885482e-10 0)
(0.00034375016 5.5193135e-10 0)
(0.0003318712 4.9568773e-10 0)
(0.00032103974 4.4798735e-10 0)
(0.00031109729 4.0708071e-10 0)
(0.0003019286 3.7157469e-10 0)
(0.00029343166 3.4061804e-10 0)
(0.00028552427 3.1340199e-10 0)
(0.00027813732 2.8933238e-10 0)
(0.00027121242 2.6792292e-10 0)
(0.00026469999 2.4877772e-10 0)
(0.00025855765 2.3157044e-10 0)
(0.00025274902 2.1603566e-10 0)
(0.00024724243 2.0195934e-10 0)
(0.00024201011 1.891573e-10 0)
(0.0002370278 1.7747226e-10 0)
(0.00023227414 1.667709e-10 0)
(0.0002277303 1.5693651e-10 0)
(0.00022337971 1.4787322e-10 0)
(0.00021920743 1.3950164e-10 0)
(0.00021520008 1.3174913e-10 0)
(0.00021134569 1.2455146e-10 0)
(0.00020763353 1.1785375e-10 0)
(0.0002040539 1.1160617e-10 0)
(0.00020059813 1.057624e-10 0)
(0.00019725854 1.0028405e-10 0)
(0.00019402811 9.5141387e-11 0)
(0.00019090032 9.0305955e-11 0)
(0.00018786934 8.574848e-11 0)
(0.00018492997 8.1442321e-11 0)
(0.00018207761 7.7365096e-11 0)
(0.00017930812 7.3496534e-11 0)
(0.00017661787 6.9814616e-11 0)
(0.00017400388 6.6298656e-11 0)
(0.0001714637 6.2931927e-11 0)
(0.00016899534 5.9698692e-11 0)
(0.00016659735 5.6584146e-11 0)
(0.00016426871 5.3574622e-11 0)
(0.00016200899 5.0656008e-11 0)
(0.00015981832 4.7810412e-11 0)
(0.00015769785 4.5009253e-11 0)
(0.00015565049 4.2227921e-11 0)
(0.00015368002 3.9453499e-11 0)
(0.0001517912 3.6670538e-11 0)
(0.00014999007 3.3865626e-11 0)
(0.00014828369 3.1025121e-11 0)
(0.00014668071 2.8115027e-11 0)
(0.00014519332 2.50918e-11 0)
(0.00014383698 2.1913213e-11 0)
(0.00014263128 1.8498315e-11 0)
(0.00014160569 1.4759006e-11 0)
(0.00014079195 1.0517185e-11 0)
(0.00014025754 2.2177882e-11 0)
(0.00014001136 1.3002586e-12 -1.8446156e-26)
(0.00014013659 -4.6574989e-12 0)
(0.00014068639 -1.0488453e-11 0)
(0.00014172835 -1.6841518e-11 0)
(0.00014333025 -2.345999e-11 0)
(0.00014554944 -2.9868932e-11 0)
(0.00014838567 -3.5519498e-11 0)
(0.00015180657 -4.0358956e-11 0)
(0.00015579764 -4.3884588e-11 0)
(0.00016021497 -4.4516959e-11 0)
(0.00016470037 -4.1377192e-11 0)
(0.00016886479 -3.5128657e-11 0)
(0.0001723799 -1.0308798e-10 8.8043829e-21)
(0.00017514367 -2.0107309e-11 0)
(0.00017722173 -1.4206333e-11 0)
(0.00017874229 -9.8165379e-12 0)
(0.00017984356 -6.6864997e-12 0)
(0.00018062781 -4.4436894e-12 0)
(0.00018116824 -2.7907339e-12 0)
(0.00018150767 -1.5274905e-12 0)
(0.00018167681 -5.789246e-13 0)
(0.00018169905 2.9286227e-13 0)
(0.00018157462 9.4657373e-13 0)
(0.00018130627 1.5649541e-12 0)
(0.00018091315 2.1095721e-12 0)
(0.00018041133 2.5768973e-12 0)
(0.00017982091 2.9402336e-12 0)
(0.00017916572 3.2127606e-12 0)
(0.00017846027 3.4184996e-12 0)
(0.00017771832 3.5508596e-12 0)
(0.00017695709 3.6173251e-12 0)
(0.00017618717 3.6491531e-12 0)
(0.00017541261 3.6591985e-12 0)
(0.00017463856 3.6385597e-12 0)
(0.00017387283 3.5924888e-12 0)
(0.00017311834 3.540785e-12 0)
(0.00017237454 3.4935718e-12 0)
(0.00017164007 3.4479918e-12 0)
(0.00017091564 3.4015272e-12 0)
(0.00017020085 3.3498579e-12 0)
(0.00016949835 3.368098e-12 0)
(0.00016877578 3.3385146e-12 0)
(0.00016808632 3.6516891e-12 0)
(0.00016723017 1.3843331e-11 0)
(0.00016653492 3.9747968e-12 4.8219214e-24)
(0.00016552387 9.1274052e-12 0)
(0.99999999 1.7656435e-09 0)
(0.99995589 4.9756334e-09 0)
(0.99988521 7.3301578e-09 0)
(0.99980526 9.4639695e-09 0)
(0.99971383 1.2313523e-08 0)
(0.99960868 1.5999618e-08 0)
(0.99948846 2.0688902e-08 0)
(0.99935143 2.6714228e-08 0)
(0.99919505 3.4531501e-08 0)
(0.99901611 4.473053e-08 0)
(0.99881057 5.8098765e-08 0)
(0.99857338 7.5747565e-08 0)
(0.99829783 9.9208483e-08 0)
(0.99797534 1.3092125e-07 0)
(0.99759288 1.7390672e-07 0)
(0.99713542 2.3530775e-07 0)
(0.99656907 3.1883442e-07 0)
(0.99587656 4.589395e-07 0)
(0.99491736 6.266597e-07 0)
(0.99378999 1.0642351e-06 0)
(0.99164125 1.4079641e-06 0)
(0.98965959 3.5514238e-06 0)
(0.98181776 1.9214423e-06 1.9464753e-20)
(0.98431976 0.00036828503 -7.484456e-21)
(0.0093743221 0.00037025476 0)
(0.0037018979 1.2096633e-06 0)
(0.002634646 2.7047174e-07 3.7603928e-22)
(0.002163456 1.2768267e-07 0)
(0.0018909398 7.8185155e-08 0)
(0.0017038784 5.4971108e-08 0)
(0.0015648165 4.1572042e-08 0)
(0.0014549138 3.3039703e-08 0)
(0.0013650352 2.704824e-08 0)
(0.0012897365 2.2647962e-08 0)
(0.0012253199 1.9323871e-08 0)
(0.0011692817 1.6733455e-08 0)
(0.0011198945 1.4659541e-08 0)
(0.0010759075 1.2966526e-08 0)
(0.0010363735 1.1564188e-08 0)
(0.0010005593 1.0385722e-08 0)
(0.00096790322 9.3863565e-09 -5.1998759e-25)
(0.00093792754 8.5292214e-09 0)
(0.0009102847 7.7851786e-09 0)
(0.00088466712 7.1365174e-09 0)
(0.00086082702 6.5662401e-09 0)
(0.000838556 6.061896e-09 0)
(0.00081767803 5.6132977e-09 0)
(0.00079804366 5.2121466e-09 0)
(0.00077952504 4.8516055e-09 0)
(0.00076201255 4.5261108e-09 0)
(0.00074541069 4.2311752e-09 0)
(0.00072963571 3.9629415e-09 0)
(0.00071461453 3.7181128e-09 0)
(0.00070028268 3.4938957e-09 0)
(0.00068658343 3.2878461e-09 0)
(0.00067346678 3.0979526e-09 0)
(0.00066088776 2.9225513e-09 0)
(0.00064880595 2.7601216e-09 0)
(0.00063718535 2.609317e-09 0)
(0.00062599353 2.4689878e-09 0)
(0.00061520125 2.3380895e-09 0)
(0.00060478244 2.2156527e-09 0)
(0.00059471388 2.1008718e-09 0)
(0.00058497442 1.9931229e-09 0)
(0.00057554442 1.8918107e-09 0)
(0.00056640627 1.7963216e-09 0)
(0.00055754433 1.7060971e-09 0)
(0.00054894474 1.6206682e-09 0)
(0.00054059497 1.5396099e-09 0)
(0.00053248409 1.4624613e-09 0)
(0.00052460313 1.3887891e-09 0)
(0.0005169447 1.3182414e-09 0)
(0.00050950281 1.2504878e-09 0)
(0.00050227305 1.1852184e-09 0)
(0.00049525242 1.122146e-09 0)
(0.00048843955 1.0609752e-09 0)
(0.00048183486 1.00133e-09 0)
(0.00047544183 9.4261196e-10 0)
(0.00046926918 8.8430506e-10 0)
(0.0004633284 8.2613388e-10 0)
(0.00045763377 7.6777667e-10 0)
(0.00045220357 7.0895162e-10 0)
(0.000447059 6.4937023e-10 0)
(0.00044222621 5.883179e-10 0)
(0.00043774194 5.2488369e-10 0)
(0.00043365282 4.5819908e-10 0)
(0.00043001796 3.8642507e-10 0)
(0.00042692613 3.0831407e-10 0)
(0.00042447318 2.1874508e-10 0)
(0.00042286228 1.2443259e-10 1.4387815e-25)
(0.00042212064 1.8913515e-11 7.8188519e-26)
(0.00042249877 -9.6909575e-11 0)
(0.00042415698 -2.2154119e-10 0)
(0.00042729904 -3.5470347e-10 0)
(0.00043212922 -4.9327759e-10 0)
(0.00043882038 -6.2723986e-10 0)
(0.00044737172 -7.4522319e-10 0)
(0.00045768562 -8.4626556e-10 0)
(0.00046971808 -9.1951027e-10 0)
(0.0004830351 -9.3172924e-10 0)
(0.000496557 -8.6536226e-10 0)
(0.00050911105 -7.3353965e-10 0)
(0.00051970781 -5.8006212e-10 -3.2088933e-25)
(0.0005280397 -4.1955631e-10 0)
(0.00053430456 -2.9623663e-10 0)
(0.00053888882 -2.0467567e-10 0)
(0.00054220907 -1.3936761e-10 0)
(0.00054457362 -9.2563435e-11 0)
(0.00054620304 -5.8063506e-11 0)
(0.00054722651 -3.1693788e-11 0)
(0.00054773656 -1.1331806e-11 0)
(0.00054780367 5.2493406e-12 0)
(0.0005474286 1.9993676e-11 0)
(0.00054661958 3.2921612e-11 0)
(0.00054543438 4.4308138e-11 0)
(0.00054392149 5.4074789e-11 0)
(0.00054214147 6.1666805e-11 0)
(0.00054016616 6.7361065e-11 0)
(0.00053803931 7.1656016e-11 0)
(0.00053580243 7.4416614e-11 0)
(0.00053350743 7.5800887e-11 0)
(0.00053118621 7.6460999e-11 0)
(0.00052885101 7.666492e-11 0)
(0.00052651737 7.6227275e-11 0)
(0.0005242088 7.525927e-11 0)
(0.00052193409 7.4173501e-11 0)
(0.00051969165 7.3182238e-11 0)
(0.00051747731 7.2223468e-11 0)
(0.00051529327 7.1248552e-11 0)
(0.0005131383 7.0163648e-11 0)
(0.00051102036 7.0547013e-11 0)
(0.00050884202 6.9905797e-11 0)
(0.00050676339 7.6505135e-11 0)
(0.00050418265 7.7958891e-11 0)
(0.00050208655 8.4264375e-11 -7.4585987e-24)
(0.00049903833 5.111919e-11 1.1528881e-24)
(0.99999999 2.9753207e-09 0)
(0.99995579 8.385403e-09 0)
(0.99988491 1.2354665e-08 0)
(0.99980473 1.595143e-08 0)
(0.99971304 2.0754214e-08 0)
(0.99960759 2.6966828e-08 0)
(0.99948703 3.4870086e-08 0)
(0.99934962 4.5024848e-08 0)
(0.99919281 5.8199346e-08 0)
(0.99901338 7.5387423e-08 0)
(0.99880729 9.7915911e-08 0)
(0.99856946 1.2765736e-07 0)
(0.9982932 1.6719221e-07 0)
(0.99796989 2.2063103e-07 0)
(0.99758648 2.9306299e-07 0)
(0.9971279 3.9652252e-07 0)
(0.99656021 5.3725725e-07 0)
(0.99586611 7.733135e-07 0)
(0.99490479 1.0558798e-06 0)
(0.99377503 1.7930531e-06 0)
(0.99162204 2.3721211e-06 0)
(0.98963649 5.98326e-06 0)
(0.98177968 3.2401864e-06 -1.0312494e-20)
(0.9842783 0.00061777573 6.7997552e-55)
(0.015730491 0.00062224517 -6.7976393e-55)
(0.0062307862 3.3917259e-06 0)
(0.0044346733 7.7261559e-07 -2.0132392e-22)
(0.003641625 3.7068299e-07 0)
(0.0031829021 2.2699563e-07 0)
(0.0028680247 1.595998e-07 0)
(0.0026339425 1.2069649e-07 0)
(0.0024489471 9.5923369e-08 0)
(0.0022976584 7.8528407e-08 0)
(0.0021709115 6.5753048e-08 0)
(0.0020624824 5.6102092e-08 0)
(0.0019681566 4.8581292e-08 0)
(0.0018850263 4.2560126e-08 0)
(0.0018109859 3.7644846e-08 0)
(0.0017444411 3.357349e-08 0)
(0.0016841576 3.0152111e-08 0)
(0.00162919 2.7250695e-08 0)
(0.0015787343 2.4762217e-08 0)
(0.0015322052 2.2602094e-08 0)
(0.0014890851 2.0718881e-08 0)
(0.001448957 1.9063238e-08 0)
(0.0014114699 1.7599013e-08 0)
(0.0013763277 1.6296632e-08 0)
(0.0013432787 1.5132002e-08 0)
(0.0013121078 1.4085272e-08 0)
(0.0012826305 1.314029e-08 0)
(0.0012546859 1.2284029e-08 0)
(0.0012281332 1.1505288e-08 0)
(0.0012028492 1.0794498e-08 0)
(0.0011787256 1.0143547e-08 0)
(0.0011556668 9.5453415e-09 0)
(0.0011335886 8.9940408e-09 0)
(0.0011124154 8.4848138e-09 0)
(0.001092079 8.0132461e-09 0)
(0.001072519 7.5754286e-09 0)
(0.0010536807 7.1680237e-09 0)
(0.001035515 6.7879985e-09 0)
(0.0010179778 6.4325394e-09 0)
(0.0010010303 6.0993072e-09 0)
(0.0009846366 5.7864903e-09 0)
(0.00096876384 5.4923607e-09 0)
(0.00095338233 5.2151366e-09 0)
(0.00093846573 4.9531968e-09 0)
(0.00092399071 4.7051799e-09 0)
(0.00090993621 4.4698515e-09 0)
(0.0008962838 4.2458741e-09 0)
(0.00088301839 4.0319896e-09 0)
(0.00087012756 3.8271762e-09 0)
(0.0008576012 3.6304749e-09 0)
(0.00084543189 3.4409857e-09 0)
(0.0008336146 3.2578748e-09 0)
(0.000822147 3.0802844e-09 0)
(0.00081102984 2.9071227e-09 0)
(0.00080026893 2.7366533e-09 0)
(0.000789879 2.5673781e-09 0)
(0.00077987934 2.3984966e-09 0)
(0.00077029402 2.2290754e-09 0)
(0.00076115379 2.0582961e-09 0)
(0.00075249436 1.885319e-09 0)
(0.00074435976 1.7080702e-09 0)
(0.00073681184 1.5239046e-09 0)
(0.00072992911 1.3302973e-09 0)
(0.00072381108 1.1219271e-09 0)
(0.00071860716 8.9510375e-10 0)
(0.00071447882 6.3513013e-10 0)
(0.00071176766 3.5558898e-10 3.0479861e-25)
(0.00071052005 5.577386e-11 -4.1495929e-26)
(0.00071115721 -2.8160336e-10 0)
(0.00071394912 -6.4313776e-10 0)
(0.00071923869 -1.0297243e-09 0)
(0.0007273697 -1.4320238e-09 0)
(0.00073863296 -1.8209448e-09 0)
(0.00075302717 -2.1634894e-09 0)
(0.00077038796 -2.4568216e-09 0)
(0.00079064086 -2.66943e-09 0)
(0.00081305519 -2.7049329e-09 0)
(0.00083581397 -2.5122885e-09 0)
(0.0008569435 -2.1297013e-09 0)
(0.00087477908 -1.6573926e-09 0)
(0.00088880274 -1.2181707e-09 0)
(0.00089934755 -8.6016254e-10 0)
(0.00090706383 -5.9432113e-10 0)
(0.00091265266 -4.0470143e-10 0)
(0.00091663291 -2.688023e-10 0)
(0.00091937576 -1.6862595e-10 0)
(0.00092109866 -9.2058731e-11 0)
(0.00092195735 -3.300233e-11 0)
(0.00092207044 1.5346071e-11 0)
(0.00092143922 5.8023093e-11 0)
(0.00092007756 9.5560614e-11 0)
(0.00091808267 1.2862138e-10 0)
(0.00091553621 1.5697823e-10 0)
(0.0009125401 1.7902231e-10 0)
(0.00090921526 1.9555604e-10 0)
(0.00090563536 2.0802601e-10 0)
(0.00090187026 2.1604211e-10 0)
(0.00089800732 2.2006257e-10 0)
(0.00089410023 2.2197961e-10 0)
(0.00089016961 2.2257172e-10 0)
(0.00088624164 2.2130184e-10 0)
(0.00088235585 2.1849243e-10 0)
(0.00087852705 2.1534024e-10 0)
(0.00087475257 2.1246213e-10 0)
(0.00087102541 2.096782e-10 0)
(0.00086734926 2.0684776e-10 0)
(0.00086372204 2.0369763e-10 0)
(0.00086015714 2.0480917e-10 0)
(0.00085649069 2.0294375e-10 0)
(0.00085299195 2.2210273e-10 0)
(0.00084864864 2.226788e-10 0)
(0.00084512045 2.4483681e-10 0)
(0.00083998964 1.4573706e-10 0)
(0.99999999 4.2325909e-09 1.0815931e-24)
(0.99995567 1.1930449e-08 0)
(0.99988457 1.7579691e-08 0)
(0.99980414 2.2698105e-08 0)
(0.99971216 2.9532056e-08 0)
(0.99960637 3.8371883e-08 0)
(0.99948544 4.9617055e-08 0)
(0.99934759 6.40654e-08 0)
(0.9991903 8.2809761e-08 0)
(0.99901032 1.072639e-07 0)
(0.99880361 1.3931517e-07 0)
(0.99856509 1.816271e-07 0)
(0.99828803 2.3786999e-07 0)
(0.9979638 3.1389044e-07 0)
(0.99757931 4.1692622e-07 0)
(0.9971195 5.6409403e-07 0)
(0.99655031 7.642749e-07 0)
(0.99585443 1.1000285e-06 0)
(0.99489074 1.5019076e-06 0)
(0.99375833 2.5503026e-06 0)
(0.99160058 3.3738337e-06 0)
(0.98961071 8.5096437e-06 0)
(0.98173724 4.6124974e-06 0)
(0.98423211 0.00087467259 -3.5475075e-55)
(0.02228126 0.00088284733 3.5464146e-55)
(0.0088522637 6.9947499e-06 0)
(0.0063007776 1.5928616e-06 0)
(0.005174109 7.6352367e-07 0)
(0.0045223284 4.6758155e-07 0)
(0.0040749326 3.2875677e-07 0)
(0.0037423328 2.4861904e-07 0)
(0.0034794839 1.9758784e-07 0)
(0.0032645277 1.6175653e-07 0)
(0.0030844415 1.3544099e-07 0)
(0.0029303825 1.1556115e-07 0)
(0.0027963623 1.0006924e-07 0)
(0.0026782494 8.7666487e-08 0)
(0.0025730518 7.7541759e-08 0)
(0.0024785041 6.9155398e-08 0)
(0.0023928527 6.2107917e-08 0)
(0.0023147543 5.6131474e-08 0)
(0.0022430664 5.1005616e-08 0)
(0.0021769576 4.6556143e-08 0)
(0.0021156923 4.2677055e-08 0)
(0.002058678 3.9266724e-08 0)
(0.0020054163 3.6250684e-08 0)
(0.0019554861 3.3568013e-08 0)
(0.00190853 3.1169085e-08 0)
(0.0018642423 2.9013013e-08 0)
(0.0018223608 2.7066526e-08 0)
(0.001782657 2.5302785e-08 0)
(0.0017449308 2.3698724e-08 0)
(0.0017090074 2.2234629e-08 0)
(0.0016747325 2.0893792e-08 0)
(0.0016419704 1.9661601e-08 0)
(0.0016106017 1.8526025e-08 0)
(0.0015805187 1.7477114e-08 0)
(0.0015516248 1.6505774e-08 0)
(0.0015238338 1.5603953e-08 0)
(0.0014970684 1.4764776e-08 0)
(0.0014712584 1.3981996e-08 0)
(0.0014463416 1.3249819e-08 0)
(0.0014222624 1.2563425e-08 0)
(0.0013989702 1.1919083e-08 0)
(0.0013764181 1.1313233e-08 0)
(0.001354564 1.0742205e-08 0)
(0.0013333704 1.0202659e-08 0)
(0.0013128043 9.6917923e-09 0)
(0.0012928356 9.207061e-09 0)
(0.0012734381 8.7457109e-09 0)
(0.0012545905 8.3051503e-09 0)
(0.0012362752 7.8832743e-09 0)
(0.0012184776 7.4781074e-09 0)
(0.0012011874 7.0877957e-09 0)
(0.0011843973 6.7106216e-09 0)
(0.001168104 6.3448176e-09 0)
(0.0011523086 5.9881353e-09 0)
(0.0011370195 5.6369982e-09 0)
(0.0011222573 5.288321e-09 0)
(0.0011080498 4.9404533e-09 0)
(0.0010944309 4.5914736e-09 0)
(0.0010814444 4.2396951e-09 0)
(0.001069141 3.8833854e-09 0)
(0.0010575834 3.5182732e-09 0)
(0.0010468593 3.1389099e-09 0)
(0.0010370805 2.7400921e-09 0)
(0.0010283883 2.3108631e-09 0)
(0.0010209949 1.8436146e-09 0)
(0.00101513 1.3081063e-09 0)
(0.0010112783 7.3301241e-10 -1.6588817e-25)
(0.0010095067 1.1457097e-10 0)
(0.0010104128 -5.8022642e-10 0)
(0.0010143806 -1.3249645e-09 0)
(0.001021897 -2.1212504e-09 0)
(0.0010334505 -2.9498799e-09 0)
(0.0010494541 -3.7509359e-09 0)
(0.0010699059 -4.4564662e-09 0)
(0.0010945724 -5.0605902e-09 0)
(0.0011233472 -5.4983771e-09 0)
(0.001155192 -5.5713872e-09 0)
(0.0011875257 -5.17453e-09 0)
(0.0012175444 -4.3865153e-09 0)
(0.001242884 -3.4171722e-09 3.7040312e-25)
(0.001262808 -2.5091e-09 0)
(0.0012777899 -1.7717341e-09 0)
(0.0012887533 -1.224185e-09 0)
(0.0012966942 -8.3362115e-10 0)
(0.0013023497 -5.5369944e-10 0)
(0.0013062471 -3.4735368e-10 0)
(0.0013086953 -1.8963923e-10 0)
(0.0013099156 -6.7982784e-11 0)
(0.0013100765 3.1584347e-11 0)
(0.0013091799 1.195093e-10 0)
(0.0013072454 1.9683187e-10 0)
(0.0013044112 2.6493175e-10 0)
(0.0013007932 3.2334113e-10 0)
(0.0012965365 3.6874901e-10 0)
(0.0012918126 4.0280528e-10 0)
(0.0012867264 4.2849014e-10 0)
(0.001281377 4.4500195e-10 0)
(0.0012758886 4.5328421e-10 0)
(0.0012703374 4.5723281e-10 0)
(0.0012647528 4.5845171e-10 0)
(0.001259172 4.5583615e-10 0)
(0.0012536512 4.5005001e-10 0)
(0.0012482112 4.4355687e-10 0)
(0.0012428485 4.3762778e-10 0)
(0.001237553 4.3189244e-10 0)
(0.00123233 4.2606177e-10 0)
(0.0012271765 4.1957256e-10 0)
(0.0012221116 4.2185883e-10 0)
(0.0012169025 4.1801269e-10 0)
(0.0012119316 4.5746827e-10 0)
(0.0012057615 4.590738e-10 0)
(0.0012007487 5.0452214e-10 0)
(0.0011934588 3.0016122e-10 0)
(0.99999999 5.5567532e-09 0)
(0.99995555 1.5665354e-08 0)
(0.9998842 2.3085911e-08 0)
(0.99980348 2.9808233e-08 0)
(0.99971116 3.8782648e-08 0)
(0.999605 5.0390921e-08 0)
(0.99948364 6.5157491e-08 0)
(0.99934531 8.4129738e-08 0)
(0.99918748 1.0874239e-07 0)
(0.99900689 1.4085142e-07 0)
(0.99879948 1.8293447e-07 0)
(0.99856017 2.3848793e-07 0)
(0.99828221 3.1232953e-07 0)
(0.99795694 4.121337e-07 0)
(0.99757126 5.4739977e-07 0)
(0.99711005 7.4059509e-07 0)
(0.99653918 1.0033696e-06 0)
(0.99584131 1.4440904e-06 0)
(0.99487497 1.9715693e-06 0)
(0.99373957 3.3475524e-06 0)
(0.9915765 4.4283901e-06 0)
(0.98958179 1.1169117e-05 0)
(0.98168971 6.0597067e-06 0)
(0.98418042 0.0011426134 0)
(0.029119398 0.0011557747 0)
(0.011605358 1.2172581e-05 0)
(0.0082607634 2.7637064e-06 0)
(0.0067837491 1.3241933e-06 0)
(0.0059291812 8.1097587e-07 0)
(0.0053425888 5.7019969e-07 0)
(0.0049065054 4.3120583e-07 0)
(0.0045618813 3.4269406e-07 0)
(0.0042800514 2.8054815e-07 0)
(0.0040439398 2.3490646e-07 0)
(0.0038419533 2.0042658e-07 0)
(0.0036662406 1.7355729e-07 0)
(0.003511384 1.5204603e-07 0)
(0.0033734611 1.3448585e-07 0)
(0.0032495011 1.1994069e-07 0)
(0.0031372052 1.0771771e-07 0)
(0.0030348118 9.7352298e-08 0)
(0.0029408234 8.8462131e-08 0)
(0.0028541495 8.0745117e-08 0)
(0.0027738261 7.4017354e-08 0)
(0.002699076 6.8102595e-08 0)
(0.0026292457 6.2871681e-08 0)
(0.0025637834 5.8218956e-08 0)
(0.0025022205 5.4058345e-08 0)
(0.0024441559 5.0318937e-08 0)
(0.0023892461 4.6943028e-08 0)
(0.0023371915 4.3884068e-08 0)
(0.0022877297 4.110205e-08 0)
(0.0022406313 3.8562783e-08 0)
(0.0021956944 3.6237292e-08 0)
(0.0021527409 3.4100232e-08 0)
(0.0021116141 3.213074e-08 0)
(0.002072173 3.0311554e-08 0)
(0.002034291 2.8626904e-08 0)
(0.001997855 2.7062825e-08 0)
(0.0019627634 2.5607395e-08 0)
(0.0019289247 2.4249777e-08 0)
(0.0018962568 2.2979922e-08 0)
(0.0018646872 2.1789473e-08 0)
(0.0018341494 2.0671956e-08 0)
(0.0018045819 1.9621198e-08 0)
(0.0017759294 1.8630834e-08 0)
(0.001748143 1.7695072e-08 0)
(0.0017211792 1.6809048e-08 0)
(0.0016949986 1.5968353e-08 0)
(0.0016695671 1.5168209e-08 0)
(0.0016448564 1.4404122e-08 0)
(0.0016208435 1.3672441e-08 0)
(0.0015975095 1.2969738e-08 0)
(0.0015748406 1.2292799e-08 0)
(0.0015528274 1.1638645e-08 0)
(0.0015314656 1.1004209e-08 0)
(0.0015107566 1.0385592e-08 0)
(0.0014907113 9.7765921e-09 0)
(0.0014713569 9.1718587e-09 0)
(0.0014527296 8.5685272e-09 0)
(0.0014348741 7.9632661e-09 0)
(0.0014178478 7.3531491e-09 0)
(0.0014017171 6.7351671e-09 0)
(0.0013865642 6.1019123e-09 0)
(0.0013725042 5.4439344e-09 0)
(0.0013596836 4.7522051e-09 0)
(0.0013482877 4.0077319e-09 0)
(0.0013385949 3.1972898e-09 0)
(0.0013309065 2.2685286e-09 0)
(0.0013258569 1.2717216e-09 0)
(0.0013235354 1.9834433e-10 0)
(0.0013247244 -1.006606e-09 0)
(0.0013299276 -2.2982789e-09 0)
(0.0013397834 -3.6793051e-09 0)
(0.001354932 -5.1163942e-09 0)
(0.0013759147 -6.5056416e-09 0)
(0.0014027291 -7.7292147e-09 0)
(0.001435069 -8.7768477e-09 0)
(0.0014727941 -9.5359041e-09 0)
(0.0015145429 -9.6623627e-09 0)
(0.0015569322 -8.9740096e-09 0)
(0.001596286 -7.6074045e-09 0)
(0.0016295071 -5.9294085e-09 0)
(0.0016556279 -4.3515511e-09 0)
(0.0016752702 -3.0727931e-09 0)
(0.0016896444 -2.1231946e-09 0)
(0.0017000561 -1.4458384e-09 0)
(0.0017074715 -9.6035734e-10 0)
(0.0017125818 -6.0247442e-10 0)
(0.0017157921 -3.2893743e-10 0)
(0.0017173925 -1.1793065e-10 0)
(0.0017176038 5.4748706e-11 0)
(0.0017164285 2.0725469e-10 0)
(0.0017138925 3.4136428e-10 0)
(0.0017101768 4.5947605e-10 0)
(0.0017054336 5.6077898e-10 0)
(0.0016998528 6.3953415e-10 0)
(0.0016936596 6.9860101e-10 0)
(0.0016869913 7.4314672e-10 0)
(0.001679978 7.7178468e-10 0)
(0.0016727823 7.8615069e-10 0)
(0.0016655044 7.9299895e-10 0)
(0.0016581827 7.9511198e-10 0)
(0.001650866 7.9057609e-10 0)
(0.0016436278 7.8054204e-10 0)
(0.0016364957 7.6928039e-10 0)
(0.0016294648 7.58996e-10 0)
(0.0016225221 7.4904742e-10 0)
(0.0016156745 7.3893405e-10 0)
(0.001608918 7.2767876e-10 0)
(0.0016022777 7.3163751e-10 0)
(0.0015954485 7.2496375e-10 0)
(0.0015889313 7.9337139e-10 0)
(0.0015808431 7.9652313e-10 0)
(0.0015742709 8.7522601e-10 -9.6083381e-24)
(0.0015647133 5.2052259e-10 1.4852052e-24)
(0.99999999 6.9684115e-09 0)
(0.9999554 1.9648505e-08 0)
(0.99988378 2.8959756e-08 0)
(0.99980273 3.7393514e-08 0)
(0.99971005 4.8651287e-08 0)
(0.99960346 6.321266e-08 0)
(0.99948162 8.1735293e-08 0)
(0.99934274 1.0553259e-07 0)
(0.99918429 1.3640372e-07 0)
(0.99900301 1.7667611e-07 0)
(0.99879482 2.294565e-07 0)
(0.99855462 2.99129e-07 0)
(0.99827564 3.9173411e-07 0)
(0.99794921 5.168941e-07 0)
(0.99756218 6.8651767e-07 0)
(0.99709939 9.2877394e-07 0)
(0.99652663 1.2582591e-06 0)
(0.99582652 1.8108406e-06 0)
(0.99485719 2.4721447e-06 0)
(0.99371844 4.197128e-06 0)
(0.99154939 5.5520761e-06 0)
(0.98954924 1.4002702e-05 0)
(0.98163629 7.6048468e-06 0)
(0.98412236 0.0014252855 0)
(0.036339853 0.0014449942 0)
(0.014531044 1.9082064e-05 0)
(0.010343834 4.3513236e-06 0)
(0.0084945388 2.0849647e-06 0)
(0.0074244298 1.2769651e-06 0)
(0.0066898866 8.9784098e-07 0)
(0.00614381 6.7897731e-07 0)
(0.0057122701 5.3960157e-07 0)
(0.0053593631 4.4174657e-07 0)
(0.0050637048 3.6987926e-07 0)
(0.0048107788 3.1558688e-07 0)
(0.0045907538 2.7327839e-07 0)
(0.0043968452 2.3940693e-07 0)
(0.0042241409 2.1175694e-07 0)
(0.004068921 1.888544e-07 0)
(0.0039283068 1.6960841e-07 0)
(0.0038000923 1.5328727e-07 0)
(0.0036824026 1.3928903e-07 0)
(0.0035738721 1.2713809e-07 0)
(0.0034732933 1.1654477e-07 -8.9635123e-35)
(0.0033796934 1.072316e-07 0)
(0.003292254 9.8995187e-08 0)
(0.0032102841 9.1669174e-08 0)
(0.0031331968 8.5118032e-08 0)
(0.0030604902 7.9230104e-08 0)
(0.0029917338 7.3914532e-08 0)
(0.0029265527 6.9098016e-08 0)
(0.0028646181 6.4717563e-08 0)
(0.002805643 6.0719337e-08 0)
(0.0027493743 5.7057714e-08 0)
(0.0026955893 5.369279e-08 0)
(0.0026440916 5.0591713e-08 0)
(0.0025947047 4.77273e-08 0)
(0.00254727 4.5074722e-08 0)
(0.002501646 4.2611992e-08 0)
(0.0024577054 4.0320335e-08 0)
(0.0024153335 3.8182689e-08 0)
(0.0023744278 3.6183234e-08 0)
(0.0023348972 3.4308808e-08 0)
(0.0022966587 3.2549218e-08 0)
(0.0022596352 3.0894743e-08 0)
(0.0022237574 2.9335361e-08 0)
(0.002188964 2.7861954e-08 0)
(0.0021552007 2.6466862e-08 0)
(0.0021224181 2.5143142e-08 0)
(0.0020905734 2.3883272e-08 0)
(0.0020596314 2.2680177e-08 0)
(0.002029563 2.1528106e-08 0)
(0.0020003448 2.0421663e-08 0)
(0.0019719593 1.9355787e-08 0)
(0.001944395 1.8325783e-08 0)
(0.0019176462 1.7326827e-08 0)
(0.0018917149 1.6352775e-08 0)
(0.0018666145 1.5393866e-08 0)
(0.0018423795 1.4441675e-08 0)
(0.0018190548 1.3491689e-08 0)
(0.0017966965 1.2538663e-08 0)
(0.0017753765 1.1577988e-08 0)
(0.0017551781 1.060492e-08 0)
(0.001736204 9.6077945e-09 0)
(0.0017185986 8.5717305e-09 0)
(0.0017025451 7.4825055e-09 0)
(0.001688276 6.310238e-09 0)
(0.0016761393 5.0340314e-09 0)
(0.0016665134 3.5716744e-09 0)
(0.0016601904 2.0021779e-09 0)
(0.0016572852 3.1184815e-10 0)
(0.0016587752 -1.5853803e-09 0)
(0.0016652919 -3.6192148e-09 0)
(0.0016776343 -5.7936892e-09 0)
(0.0016966042 -8.0563907e-09 0)
(0.0017228789 -1.0243742e-08 0)
(0.0017564558 -1.2170233e-08 0)
(0.0017969509 -1.3819587e-08 0)
(0.001844188 -1.5014433e-08 0)
(0.0018964617 -1.5213321e-08 0)
(0.0019495372 -1.4129394e-08 0)
(0.0019988112 -1.197778e-08 -2.874389e-25)
(0.0020404085 -9.3363429e-09 0)
(0.0020731152 -6.8516344e-09 0)
(0.0020977108 -4.8383022e-09 0)
(0.0021157105 -3.3431664e-09 0)
(0.0021287484 -2.2766534e-09 0)
(0.0021380347 -1.5122333e-09 0)
(0.0021444345 -9.4871158e-10 0)
(0.0021484551 -5.1800132e-10 0)
(0.0021504597 -1.857449e-10 0)
(0.0021507248 8.6160672e-11 0)
(0.0021492537 3.2629998e-10 0)
(0.0021460785 5.374719e-10 0)
(0.0021414261 7.2345041e-10 0)
(0.0021354871 8.8295917e-10 0)
(0.0021284993 1.0069669e-09 0)
(0.0021207445 1.0999739e-09 0)
(0.0021123948 1.1701128e-09 0)
(0.0021036131 1.2152063e-09 0)
(0.0020946031 1.2378294e-09 0)
(0.00208549 1.2486126e-09 0)
(0.0020763222 1.2519384e-09 0)
(0.0020671605 1.2447973e-09 0)
(0.0020580971 1.2290001e-09 0)
(0.0020491666 1.2112677e-09 0)
(0.0020403629 1.1950724e-09 0)
(0.0020316696 1.1794056e-09 0)
(0.0020230953 1.16348e-09 0)
(0.0020146353 1.145757e-09 0)
(0.0020063205 1.151979e-09 0)
(0.0019977697 1.1414685e-09 0)
(0.0019896092 1.2491359e-09 0)
(0.001979483 1.2541157e-09 0)
(0.0019712535 1.3782952e-09 0)
(0.0019592858 8.193045e-10 -8.4765276e-25)
(0.99999999 8.4897789e-09 0)
(0.99995524 2.394299e-08 0)
(0.9998833 3.5294733e-08 0)
(0.99980188 4.5574834e-08 0)
(0.99970878 5.929521e-08 0)
(0.99960171 7.7041295e-08 0)
(0.99947932 9.961433e-08 0)
(0.99933983 1.2861437e-07 0)
(0.99918069 1.6623338e-07 0)
(0.99899862 2.1530677e-07 0)
(0.99878954 2.7961919e-07 0)
(0.99854833 3.6451113e-07 0)
(0.99826821 4.7734035e-07 0)
(0.99794046 6.2982739e-07 0)
(0.99755191 8.3647565e-07 0)
(0.99708734 1.131596e-06 0)
(0.99651243 1.5329532e-06 0)
(0.9958098 2.2060371e-06 0)
(0.99483709 3.0114769e-06 0)
(0.99369455 5.1122977e-06 0)
(0.99151876 6.7624227e-06 0)
(0.98951247 1.7054509e-05 0)
(0.98157606 9.2728599e-06 0)
(0.98405698 0.0017264788 0)
(0.044040807 0.0017546269 0)
(0.017672851 2.8183132e-05 0)
(0.012581026 6.4512396e-06 0)
(0.010331982 3.0914664e-06 0)
(0.0090303624 1.8935244e-06 0)
(0.0081369076 1.3313507e-06 0)
(0.0074726869 1.0068078e-06 0)
(0.0069477945 8.0012945e-07 0)
(0.0065185473 6.5502717e-07 0)
(0.0061589331 5.4846046e-07 0)
(0.0058512964 4.6795366e-07 0)
(0.0055836789 4.0521724e-07 0)
(0.0053478277 3.5499194e-07 0)
(0.0051377677 3.1399219e-07 0)
(0.0049489743 2.8003209e-07 0)
(0.004777946 2.5149407e-07 0)
(0.0046219995 2.27293e-07 0)
(0.0044788546 2.0653634e-07 0)
(0.0043468499 1.8851901e-07 0)
(0.004224517 1.7281128e-07 9.6689704e-35)
(0.0041106724 1.5900177e-07 0)
(0.0040043208 1.4678888e-07 0)
(0.0039046217 1.3592592e-07 0)
(0.0038108613 1.2621195e-07 0)
(0.0037224291 1.1748138e-07 0)
(0.0036388016 1.0959951e-07 0)
(0.0035595226 1.0245764e-07 0)
(0.0034841923 9.5962355e-08 0)
(0.0034124616 9.0033833e-08 0)
(0.0033440227 8.4604424e-08 0)
(0.0032786046 7.9614961e-08 0)
(0.0032159686 7.5016728e-08 0)
(0.0031559 7.0769418e-08 0)
(0.0030982057 6.6836213e-08 0)
(0.0030427137 6.3184513e-08 0)
(0.0029892693 5.9786477e-08 0)
(0.0029377329 5.6616809e-08 0)
(0.0028879797 5.365205e-08 0)
(0.0028398991 5.0872683e-08 0)
(0.00279339 4.8263595e-08 0)
(0.0027483587 4.5810369e-08 0)
(0.0027047209 4.3498145e-08 0)
(0.0026624021 4.1313403e-08 0)
(0.002621336 3.9244785e-08 0)
(0.0025814628 3.7281996e-08 0)
(0.0025427304 3.5413884e-08 0)
(0.0025050958 3.3629957e-08 0)
(0.0024685239 3.1921688e-08 0)
(0.0024329859 3.0281075e-08 0)
(0.0023984608 2.8700612e-08 0)
(0.0023649344 2.7173339e-08 0)
(0.0023324 2.5692099e-08 0)
(0.0023008598 2.4247784e-08 0)
(0.0022703303 2.2825922e-08 0)
(0.0022408533 2.1414022e-08 0)
(0.0022124835 2.0005388e-08 0)
(0.0021852892 1.8592245e-08 0)
(0.0021593577 1.7167755e-08 0)
(0.0021347904 1.5724873e-08 0)
(0.0021117123 1.4246305e-08 0)
(0.0020902991 1.2709984e-08 0)
(0.0020707736 1.1094809e-08 0)
(0.0020534185 9.3565135e-09 0)
(0.0020386573 7.4639761e-09 0)
(0.0020269509 5.2956884e-09 0)
(0.0020192602 2.9683385e-09 0)
(0.0020157287 4.6175121e-10 0)
(0.0020175423 -2.3513787e-09 0)
(0.0020254701 -5.3671475e-09 0)
(0.0020404837 -8.5913776e-09 0)
(0.0020635579 -1.1946362e-08 0)
(0.0020955165 -1.5189594e-08 0)
(0.0021363562 -1.8046034e-08 0)
(0.0021856101 -2.0491365e-08 0)
(0.0022430624 -2.226257e-08 0)
(0.0023066387 -2.2557163e-08 0)
(0.0023711898 -2.0949833e-08 0)
(0.0024311167 -1.7759769e-08 0)
(0.0024817102 -1.3843285e-08 0)
(0.0025214899 -1.0159363e-08 0)
(0.0025514057 -7.1742394e-09 0)
(0.0025732995 -4.9573551e-09 0)
(0.0025891588 -3.3759712e-09 0)
(0.0026004549 -2.2424892e-09 0)
(0.0026082401 -1.4068795e-09 0)
(0.0026131313 -7.6820774e-10 0)
(0.0026155704 -2.7551902e-10 0)
(0.0026158937 1.276826e-10 0)
(0.002614105 4.8377284e-10 0)
(0.0026102436 7.9691026e-10 0)