/*--------------------------------*- C++ -*----------------------------------*\
| =========                 |                                                 |
| \\      /  F ield         | OpenFOAM: The Open Source CFD Toolbox           |
|  \\    /   O peration     | Version:  2206                                  |
|   \\  /    A nd           | Website:  www.openfoam.com                      |
|    \\/     M anipulation  |                                                 |
\*---------------------------------------------------------------------------*/
FoamFile
{
    version     2.0;
    format      ascii;
    arch        "LSB;label=32;scalar=64";
    class       volScalarField;
    location    "500";
    object      epsilon;
}
// * * * * * * * * * * * * * * * * * * * * * * * * * * * * * * * * * * * * * //

dimensions      [0 2 -3 0 0 0 0];

internalField   nonuniform List<scalar> 
7480
(
5.7713667
15.516414
18.079609
15.974143
12.847614
10.345038
8.6568624
7.5038378
6.6573405
5.9933763
5.4547969
5.0133851
4.6503942
4.3507282
4.1020433
3.8940665
3.7192171
3.5717469
3.4461273
3.3393146
3.2463135
3.1645483
3.0917627
3.0260942
2.9663168
2.9114279
2.8607409
2.8135747
2.769329
2.7275153
2.6878531
2.6501419
2.6141723
2.5797705
2.546738
2.5149984
2.4842712
2.4545164
2.4256587
2.3975961
2.3702535
2.3435666
2.3174857
2.2919792
2.2670044
2.2425373
2.2185422
2.1949793
2.1718266
2.1490618
2.1266667
2.10463
2.0829368
2.0615786
2.0405416
2.0198157
1.9993924
1.979259
1.9594039
1.9398189
1.9205019
1.9014492
1.8826542
1.8641117
1.8458172
1.8277663
1.8099522
1.7923695
1.7750148
1.7578848
1.7409753
1.7242824
1.7078026
1.6915336
1.6754714
1.6596126
1.643954
1.6284931
1.6132268
1.5981523
1.583266
1.5685645
1.5540446
1.5397035
1.5255397
1.5115508
1.4977351
1.4840881
1.4706051
1.4572709
1.4440772
1.4309741
1.41797
1.4048834
1.3918792
1.3782498
1.3649064
1.3491896
1.3361721
1.3092518
0.34553523
1.5977231
2.8393055
3.2965433
3.1712817
2.8623718
2.5606963
2.3156516
2.116545
1.9462638
1.7978145
1.669475
1.5598992
1.4669266
1.3880951
1.3207008
1.2629564
1.2134986
1.170997
1.1341643
1.1018935
1.0732688
1.0475548
1.0242163
1.0028903
0.98326289
0.965119
0.94821631
0.93234971
0.91736004
0.90315244
0.88965662
0.87680021
0.86451989
0.85274005
0.84144008
0.83051066
0.81994353
0.80971429
0.79978463
0.79012465
0.78071251
0.77153046
0.76256482
0.75380029
0.74522757
0.73683251
0.72860128
0.72052442
0.71259421
0.70480418
0.69714893
0.68962313
0.68222258
0.67494219
0.66777818
0.66072682
0.65378333
0.6469431
0.64020325
0.63356245
0.62701907
0.62057047
0.61421443
0.60794917
0.60177287
0.59568286
0.58967706
0.5837541
0.57791259
0.57215092
0.56646744
0.56086084
0.55533007
0.54987366
0.54449023
0.53917858
0.53393769
0.52876645
0.5236637
0.51862817
0.51365858
0.5087538
0.50391287
0.49913515
0.49441998
0.48976676
0.4851742
0.48064066
0.47616197
0.47173439
0.46734505
0.46299063
0.45862828
0.45428025
0.44979079
0.44532059
0.44028372
0.43585433
0.42711064
0.010352395
0.063175613
0.16320812
0.28108396
0.38449799
0.4755991
0.55922235
0.63070007
0.68629773
0.72744748
0.75578751
0.77207735
0.77765817
0.77478343
0.76604309
0.75382696
0.73979944
0.72494766
0.70986468
0.69486463
0.68016112
0.66588405
0.65208646
0.6388211
0.62612657
0.61398834
0.60245651
0.59145892
0.58094606
0.5708772
0.56123829
0.55200998
0.54316566
0.53467938
0.52651223
0.51866263
0.51106617
0.50372814
0.49663387
0.48976069
0.48309067
0.47661075
0.47030984
0.46417787
0.45820423
0.45238199
0.44670061
0.44115095
0.43572582
0.4304193
0.42522637
0.42014201
0.41516168
0.41028124
0.40549639
0.40080377
0.39619974
0.39168042
0.38724209
0.38288223
0.37859896
0.37439027
0.37025371
0.3661871
0.36218863
0.35825644
0.35438827
0.3505823
0.34683712
0.34315129
0.33952331
0.33595168
0.33243514
0.32897256
0.32556262
0.3222041
0.3188959
0.31563704
0.31242652
0.30926331
0.30614633
0.30307456
0.30004702
0.29706288
0.2941215
0.29122225
0.28836454
0.28554747
0.28276981
0.2800293
0.27732316
0.27464532
0.271991
0.26934277
0.26669906
0.26400397
0.26128867
0.25833973
0.2556359
0.25045279
0.00038816475
0.002517991
0.0089855488
0.018995413
0.031755223
0.046886127
0.066546004
0.090859485
0.1263531
0.17007692
0.21714017
0.26286043
0.30587895
0.345189
0.37954474
0.40784519
0.42962139
0.44515678
0.45530687
0.46111897
0.46356637
0.4634416
0.46136291
0.4578181
0.45321037
0.44784337
0.44197899
0.43579953
0.42943116
0.42297366
0.41650311
0.41007705
0.40373527
0.39750738
0.39140174
0.3854457
0.3796004
0.37390365
0.36834922
0.36293478
0.35765723
0.35251369
0.34750119
0.34261623
0.33785413
0.33321199
0.32868362
0.32426417
0.31994938
0.3157355
0.31161919
0.30759679
0.30366496
0.29982041
0.29605965
0.29237982
0.28877782
0.28525049
0.28179477
0.2784084
0.27508944
0.27183588
0.26864547
0.26551615
0.26244614
0.25943359
0.25647648
0.25357313
0.25072209
0.24792191
0.24517115
0.24246837
0.23981229
0.23720174
0.23463547
0.23211227
0.22963109
0.22719094
0.22479082
0.22242973
0.22010669
0.21782069
0.21557084
0.21335633
0.21117646
0.20903059
0.20691809
0.20483817
0.20278975
0.20077125
0.19878039
0.19681355
0.19486608
0.19292941
0.19099567
0.1890426
0.18706314
0.18496887
0.18300123
0.17930301
4.8082816e-05
0.00015163466
0.00053354447
0.0014062181
0.0028742413
0.0048495324
0.0073427065
0.010535253
0.01505235
0.02177189
0.031351192
0.046230955
0.066499671
0.090965872
0.11828068
0.14727819
0.17706343
0.20646259
0.23404524
0.25847238
0.27888891
0.29507638
0.30732454
0.31617058
0.32219131
0.32589482
0.32772704
0.32807244
0.32725588
0.32553969
0.32313213
0.32020142
0.31688187
0.31327981
0.30947568
0.30554657
0.30151886
0.29744422
0.29335514
0.28927363
0.285217
0.28119983
0.27723332
0.27332576
0.26948268
0.26570982
0.26200804
0.2583782
0.25482068
0.25133581
0.24792373
0.24458379
0.24131509
0.2381164
0.23498617
0.23192298
0.22892504
0.22599042
0.22311708
0.22030347
0.21754823
0.21484988
0.2122067
0.20961709
0.20707957
0.20459258
0.20215448
0.19976384
0.19741939
0.19511985
0.19286392
0.19065034
0.18847793
0.1863456
0.18425221
0.18219668
0.18017802
0.1781953
0.17624759
0.17433397
0.1724535
0.17060528
0.16878846
0.1670023
0.1652461
0.16351926
0.16182114
0.16015103
0.15850797
0.15689073
0.15529739
0.15372555
0.15217094
0.15062908
0.14909043
0.14754728
0.14597928
0.14435143
0.14280598
0.13992639
2.6062211e-05
3.7111812e-05
7.0491457e-05
0.00014631653
0.00029259948
0.00053558555
0.00089915551
0.0014041368
0.0020836439
0.0030115601
0.0042846912
0.0061650458
0.0089721457
0.013030667
0.019195819
0.02850641
0.041005799
0.056712223
0.075137387
0.095739438
0.11778759
0.14023386
0.16181388
0.18138298
0.19821279
0.21206982
0.22309433
0.23160442
0.23795422
0.24247546
0.24546909
0.24720575
0.24791995
0.24780828
0.247032
0.24573358
0.24401254
0.24196114
0.23965543
0.23715526
0.23450883
0.23175567
0.22892813
0.22605277
0.22315032
0.22023889
0.21733172
0.21443915
0.21156948
0.20872947
0.20592454
0.2031587
0.20043512
0.19775613
0.19512326
0.1925378
0.19000008
0.18751006
0.18506738
0.18267187
0.18032321
0.17802093
0.17576425
0.17355235
0.17138439
0.16925948
0.16717652
0.16513455
0.16313268
0.16116996
0.1592454
0.157358
0.15550684
0.15369104
0.15190966
0.1501618
0.14844662
0.14676331
0.14511108
0.14348911
0.14189659
0.14033273
0.13879677
0.13728803
0.13580591
0.13434985
0.13291925
0.1315135
0.13013176
0.12877303
0.12743566
0.12611796
0.12481615
0.12352782
0.12224347
0.1209622
0.11965992
0.11832594
0.11705866
0.11470089
2.3140954e-05
2.5613125e-05
3.1263207e-05
4.2609641e-05
6.2928098e-05
9.6165908e-05
0.00014740182
0.0002230664
0.0003311641
0.00048338192
0.00069432693
0.00098937347
0.0014081535
0.0020003294
0.0028558945
0.0041416028
0.0060524359
0.0088150517
0.013131053
0.019625465
0.028563454
0.040143429
0.054054251
0.069941453
0.087154684
0.10475768
0.12170033
0.13711072
0.15048924
0.16170697
0.1708711
0.17818478
0.18387069
0.18814858
0.19122725
0.19330262
0.19453861
0.19507753
0.19504285
0.19453853
0.19365141
0.19245404
0.1910071
0.18936154
0.18755929
0.18563593
0.18362063
0.18153716
0.17940512
0.17724078
0.17505756
0.17286652
0.1706767
0.16849548
0.16632888
0.16418179
0.16205807
0.15996063
0.15789164
0.1558529
0.15384582
0.15187147
0.14993042
0.14802307
0.14614967
0.14431023
0.14250445
0.14073207
0.1389928
0.13728623
0.13561186
0.13396914
0.13235747
0.13077631
0.12922502
0.12770296
0.12620954
0.12474416
0.1233062
0.12189502
0.12050998
0.11915042
0.11781573
0.11650535
0.11521877
0.11395551
0.1127151
0.111497
0.11030049
0.10912479
0.10796848
0.10683033
0.10570705
0.10459736
0.10349252
0.10239477
0.10128036
0.10014955
0.099081195
0.09708937
2.2304491e-05
2.3366771e-05
2.5030992e-05
2.7805391e-05
3.235727e-05
3.9404333e-05
4.9772358e-05
6.4509538e-05
8.4976712e-05
0.00011311656
0.00015159154
0.00020434068
0.00027733734
0.00037905516
0.00052172712
0.00072589825
0.0010220576
0.0014473412
0.0020783415
0.0030400428
0.0044986438
0.0066478393
0.010132996
0.015358367
0.022627749
0.032062266
0.043457735
0.056448321
0.070396153
0.084457004
0.097807106
0.10985991
0.1203402
0.12921358
0.13656939
0.1425452
0.14729171
0.15096321
0.15370932
0.15566642
0.15695521
0.15768123
0.15793578
0.15779753
0.15733337
0.1566005
0.15564753
0.15451531
0.15323816
0.15184499
0.15036004
0.14880376
0.14719324
0.14554282
0.14386457
0.14216853
0.14046312
0.13875525
0.13705059
0.13535381
0.13366879
0.13199876
0.13034626
0.12871332
0.1271016
0.12551243
0.12394672
0.12240516
0.12088827
0.11939642
0.1179298
0.11648842
0.11507223
0.11368111
0.11231485
0.1109732
0.10965587
0.10836254
0.10709288
0.10584647
0.10462289
0.10342167
0.10224238
0.10108462
0.099948016
0.09883223
0.09773689
0.096661596
0.095605779
0.094568813
0.09354955
0.092547045
0.091558526
0.090583356
0.089613793
0.088653458
0.087680646
0.086700058
0.085782093
0.084064884
2.1733269e-05
2.2469111e-05
2.3295798e-05
2.4313374e-05
2.5735192e-05
2.7800408e-05
3.0754798e-05
3.4847725e-05
4.0350955e-05
4.7610927e-05
5.7091045e-05
6.944687e-05
8.5623855e-05
0.00010702483
0.00013563578
0.00017449629
0.00022835251
0.0003036847
0.000410816
0.00056671126
0.00079816158
0.0011381607
0.0016622106
0.0024834414
0.0037484128
0.0057316934
0.0089311029
0.01366418
0.020201801
0.028496283
0.038363955
0.049377775
0.060888354
0.072181343
0.082681058
0.092058471
0.10020228
0.10712864
0.11291109
0.11764913
0.12145508
0.12444308
0.12672083
0.12838689
0.12952962
0.13022717
0.13054805
0.13055166
0.13028907
0.12980415
0.1291343
0.12831152
0.12736306
0.12631209
0.12517837
0.12397862
0.12272712
0.12143592
0.12011521
0.11877351
0.11741804
0.1160549
0.1146892
0.11332517
0.11196638
0.11061587
0.10927609
0.10794903
0.10663636
0.10533944
0.10405934
0.10279688
0.10155269
0.10032725
0.099120912
0.097933895
0.096766349
0.095618343
0.094489871
0.093380839
0.092291088
0.091220412
0.090168598
0.089135449
0.088120777
0.08712441
0.086146137
0.085185706
0.084242718
0.083316723
0.082406813
0.081512307
0.080630895
0.079762347
0.078899989
0.078047918
0.07718712
0.07632357
0.075524098
0.074023607
2.1208894e-05
2.1795787e-05
2.2393586e-05
2.2972496e-05
2.358813e-05
2.4350188e-05
2.5375624e-05
2.6776637e-05
2.8654703e-05
3.1109936e-05
3.4248189e-05
3.8206735e-05
4.3169889e-05
4.9398906e-05
5.7257485e-05
6.7266222e-05
8.0209541e-05
9.7200098e-05
0.0001198846
0.00015080135
0.00019408081
0.00025538589
0.00034456584
0.00047832027
0.00068147526
0.00099416346
0.0014941894
0.0022970226
0.0035433179
0.0056317745
0.0088896502
0.013593155
0.019830134
0.027503056
0.036318949
0.045773694
0.055265709
0.064276062
0.072478983
0.07973414
0.086017567
0.091363104
0.095834443
0.099512044
0.10248214
0.10482919
0.10663278
0.10796588
0.108894
0.10947521
0.10976042
0.10979412
0.10961493
0.10925618
0.10874672
0.10811127
0.10737118
0.10654479
0.1056478
0.1046936
0.10369363
0.10265763
0.10159395
0.10050967
0.099410808
0.098302557
0.097189315
0.096074766
0.09496203
0.093853747
0.092752134
0.09165903
0.090575949
0.089504151
0.088444678
0.087398378
0.086365946
0.08534794
0.084344787
0.083356786
0.082384126
0.081426918
0.080485227
0.079559108
0.078648605
0.077753753
0.076874538
0.076010894
0.075162615
0.074329442
0.073510713
0.072705986
0.071913391
0.071132978
0.070359117
0.069595947
0.068827263
0.068058832
0.067355861
0.066033119
2.0719776e-05
2.1193441e-05
2.1674908e-05
2.2116901e-05
2.2518676e-05
2.2914088e-05
2.3357218e-05
2.3909315e-05
2.4628248e-05
2.5565148e-05
2.6771609e-05
2.8295459e-05
3.0189472e-05
3.2519399e-05
3.5371581e-05
3.886218e-05
4.3159702e-05
4.8473508e-05
5.511772e-05
6.3547688e-05
7.4464506e-05
8.8865804e-05
0.00010827988
0.00013520487
0.00017356458
0.00022944681
0.00031354818
0.00044441746
0.00064741898
0.00097732295
0.0015228289
0.0023989104
0.0038691473
0.0062582906
0.0098290355
0.014714993
0.020872204
0.028086683
0.035949861
0.043953908
0.051649779
0.058745462
0.065102
0.070678338
0.075485527
0.079564466
0.082973609
0.085778627
0.088045865
0.089839215
0.091218138
0.092236857
0.092944041
0.093382866
0.093591426
0.09360304
0.093446851
0.093148265
0.092729352
0.092209193
0.091604229
0.090928649
0.090194705
0.089412942
0.088592426
0.087740996
0.08686542
0.085971477
0.08506411
0.084147563
0.083225472
0.082300933
0.081376578
0.080454638
0.079537024
0.078625357
0.077721015
0.076825162
0.075938766
0.075062611
0.07419732
0.073343389
0.07250123
0.071671206
0.070853641
0.070048827
0.069256986
0.068478278
0.067712718
0.066960261
0.066220505
0.06549324
0.064777022
0.064072117
0.063373883
0.062686299
0.061995858
0.061307505
0.060685343
0.059512854
2.0259806e-05
2.0643685e-05
2.1037153e-05
2.1401186e-05
2.1723737e-05
2.2011307e-05
2.2283812e-05
2.2569498e-05
2.2899578e-05
2.3304863e-05
2.381567e-05
2.446027e-05
2.5265067e-05
2.6256137e-05
2.7461637e-05
2.89148e-05
3.0654192e-05
3.2752214e-05
3.5289112e-05
3.8370842e-05
4.21499e-05
4.6844589e-05
5.2743319e-05
6.0287769e-05
7.0166282e-05
8.3412847e-05
0.00010166784
0.00012775802
0.00016584615
0.0002234022
0.00031404651
0.00045809541
0.00069500204
0.0010959694
0.0017587435
0.0028853601
0.0047664004
0.0076438709
0.011653085
0.016776125
0.022837608
0.029486311
0.036288591
0.042866617
0.048975193
0.054492417
0.059374561
0.063622113
0.067262757
0.070340157
0.072905006
0.075009849
0.076706106
0.078042229
0.079062883
0.07980851
0.08031541
0.080615903
0.080738577
0.080708559
0.080547809
0.080275505
0.079908373
0.079460975
0.078945947
0.07837428
0.077755539
0.077097998
0.076408808
0.075694152
0.074959384
0.074209128
0.073447369
0.072677534
0.07190259
0.071125098
0.070347268
0.069571007
0.068797942
0.068029448
0.067266673
0.066510584
0.06576201
0.065021687
0.064290279
0.063568381
0.062856504
0.06215507
0.061464352
0.060784549
0.060115535
0.059457342
0.058808939
0.058170787
0.057539162
0.056917814
0.056295712
0.055676825
0.055124005
0.054081624
1.9821236e-05
2.0135034e-05
2.0458622e-05
2.0762471e-05
2.10347e-05
2.1274753e-05
2.1489656e-05
2.1691151e-05
2.1893357e-05
2.2111837e-05
2.23634e-05
2.2665468e-05
2.3035254e-05
2.3489258e-05
2.4043401e-05
2.4713928e-05
2.5516616e-05
2.6473447e-05
2.7611178e-05
2.8961845e-05
3.0566415e-05
3.2475887e-05
3.4778917e-05
3.7592008e-05
4.1069926e-05
4.5436206e-05
5.1014989e-05
5.8293614e-05
6.8026809e-05
8.1411187e-05
0.00010053837
0.00012867841
0.00017147998
0.00023961421
0.00034995911
0.00053432613
0.00085346467
0.0013933647
0.0023313624
0.0039217315
0.006383926
0.0098311986
0.014250768
0.019478335
0.025194426
0.031026126
0.036664357
0.041914271
0.046677243
0.050914563
0.054623736
0.057825423
0.060553471
0.062847856
0.064750665
0.066303492
0.067545969
0.06851495
0.069244134
0.069763944
0.070101574
0.0702812
0.070324214
0.070249483
0.070073569
0.069810992
0.069474489
0.069075188
0.068622792
0.068125759
0.067591462
0.067026325
0.066435936
0.065825147
0.065198184
0.064558731
0.063909996
0.06325477
0.062595473
0.061934185
0.061272686
0.060612503
0.059954967
0.059301258
0.058652441
0.058009477
0.057373212
0.056744378
0.056123546
0.055511192
0.054907489
0.054312731
0.053726292
0.053148833
0.052577472
0.052015734
0.05145481
0.050897759
0.050405771
0.049478299
1.9398017e-05
1.9657082e-05
1.9925424e-05
2.0180839e-05
2.041319e-05
2.0620252e-05
2.0804915e-05
2.097272e-05
2.1130055e-05
2.1283866e-05
2.1442045e-05
2.1613588e-05
2.1808386e-05
2.2036811e-05
2.2309396e-05
2.2636801e-05
2.3029318e-05
2.3497748e-05
2.40542e-05
2.4712329e-05
2.5488103e-05
2.6399402e-05
2.7471853e-05
2.8740189e-05
3.0248676e-05
3.2054781e-05
3.4238537e-05
3.694289e-05
4.0343699e-05
4.4694928e-05
5.0396685e-05
5.8034401e-05
6.8559773e-05
8.3652076e-05
0.00010603201
0.00014036208
0.00019572209
0.00028685828
0.0004422807
0.0007173785
0.0011909027
0.0020364125
0.0034757
0.0057049555
0.0087996402
0.012737746
0.017346209
0.022327106
0.027363229
0.032210347
0.036720722
0.040819105
0.044475235
0.047687734
0.050473642
0.052860297
0.054880152
0.05656751
0.057956443
0.059079565
0.059967329
0.060647723
0.061146147
0.06148546
0.061686072
0.06176612
0.06174168
0.061626955
0.061434454
0.061175172
0.060858765
0.06049371
0.060087435
0.059646439
0.059176418
0.058682361
0.058168645
0.057639102
0.057097081
0.056545495
0.055986867
0.055423386
0.054856973
0.054289334
0.053722006
0.053156377
0.052593685
0.052035022
0.051481302
0.050933316
0.050391567
0.049856631
0.049328295
0.048807427
0.048291929
0.047785135
0.047280201
0.046779458
0.046341933
0.045517641
1.8986039e-05
1.920202e-05
1.9426542e-05
1.9642888e-05
1.9842593e-05
2.0022907e-05
2.0185043e-05
2.03322e-05
2.0467909e-05
2.0595587e-05
2.0718826e-05
2.084172e-05
2.0969045e-05
2.1106258e-05
2.1259434e-05
2.1435196e-05
2.1640421e-05
2.188214e-05
2.2167716e-05
2.2504963e-05
2.2902393e-05
2.3369136e-05
2.3915814e-05
2.4555642e-05
2.5305054e-05
2.6184421e-05
2.721875e-05
2.8447095e-05
2.9921176e-05
3.170714e-05
3.3903296e-05
3.6679635e-05
4.0250855e-05
4.4960477e-05
5.1318347e-05
6.0128194e-05
7.2851628e-05
9.1895659e-05
0.00012146477
0.00016995653
0.00025102066
0.00039280568
0.00064927381
0.0010959859
0.0019166316
0.0033038481
0.0054138082
0.008297559
0.011900542
0.016029589
0.020408562
0.024777414
0.028952235
0.032825655
0.036342914
0.039483087
0.042247661
0.044651912
0.046718856
0.048475443
0.049950033
0.051170812
0.052164795
0.052957284
0.053571577
0.054028873
0.054348315
0.05454708
0.054640505
0.054642227
0.05456434
0.054417545
0.0542113
0.05395394
0.053652813
0.053314395
0.052944394
0.052547836
0.052129142
0.051692186
0.051240353
0.050776602
0.050303539
0.049823482
0.049338518
0.048850529
0.048361205
0.047872057
0.047384386
0.046899344
0.046417795
0.04594063
0.045468055
0.045001169
0.044538603
0.044083555
0.043630906
0.043182475
0.042794659
0.042064356
1.8582628e-05
1.8764391e-05
1.8953893e-05
1.9138537e-05
1.9311338e-05
1.9469384e-05
1.9612924e-05
1.9743927e-05
1.9864709e-05
1.9977387e-05
2.0083927e-05
2.0186326e-05
2.0286786e-05
2.038784e-05
2.0492465e-05
2.0604166e-05
2.0726893e-05
2.0864957e-05
2.1023013e-05
2.1206033e-05
2.141933e-05
2.1668551e-05
2.1959767e-05
2.2299767e-05
2.2696396e-05
2.3158939e-05
2.3698172e-05
2.4328068e-05
2.5067109e-05
2.5938647e-05
2.6972665e-05
2.8216286e-05
2.9732236e-05
3.1602074e-05
3.3971687e-05
3.704565e-05
4.1132458e-05
4.6713172e-05
5.4515851e-05
6.5919998e-05
8.319013e-05
0.00011045709
0.00015614392
0.00023363763
0.00037373199
0.00062964531
0.0010939904
0.0019437707
0.0033485164
0.0054191376
0.0081768612
0.011525782
0.015255426
0.019119853
0.022916816
0.026514397
0.02983741
0.032848311
0.035534843
0.037901335
0.039962156
0.041737384
0.043249898
0.044523497
0.045581678
0.046446914
0.047140245
0.047681089
0.048087171
0.04837454
0.048557638
0.048649401
0.048661378
0.048603844
0.048485929
0.048315728
0.04810042
0.047846365
0.047559186
0.047243841
0.046904694
0.046545583
0.046169899
0.045780663
0.045380589
0.044972128
0.044557488
0.044138655
0.043717371
0.043295194
0.04287339
0.042453198
0.042035257
0.041620925
0.041209522
0.040804168
0.040401257
0.040002311
0.039660693
0.039017127
1.8186123e-05
1.8340473e-05
1.850176e-05
1.8660479e-05
1.881093e-05
1.8950258e-05
1.9078097e-05
1.9195589e-05
1.9304311e-05
1.9405755e-05
1.9501264e-05
1.959207e-05
1.9679368e-05
1.9764392e-05
1.9848535e-05
1.9933459e-05
2.0021129e-05
2.0113828e-05
2.0214176e-05
2.0325119e-05
2.0449912e-05
2.0592099e-05
2.0755512e-05
2.0944303e-05
2.1163033e-05
2.1416832e-05
2.1711475e-05
2.2053675e-05
2.2451631e-05
2.2915478e-05
2.3457486e-05
2.4094165e-05
2.4847947e-05
2.5746364e-05
2.6831346e-05
2.8162777e-05
2.9821631e-05
3.193132e-05
3.469713e-05
3.8417659e-05
4.3564654e-05
5.0851366e-05
6.1690664e-05
7.8317334e-05
0.00010527845
0.00015114437
0.00023163104
0.0003816619
0.00065603007
0.0011738518
0.0020978118
0.0035707932
0.0056568973
0.0083344802
0.011464433
0.014835317
0.018243834
0.021542364
0.024639825
0.027485373
0.03005548
0.032345132
0.034361073
0.036117142
0.037631122
0.038922635
0.040011775
0.040918253
0.041660872
0.042257226
0.042723555
0.043074701
0.043324132
0.043483991
0.043565188
0.043577486
0.043529613
0.043429351
0.043283628
0.043098592
0.04287969
0.042631736
0.042359005
0.042065308
0.041754069
0.041428381
0.041091039
0.040744562
0.04039119
0.040032938
0.039671511
0.039308541
0.038945115
0.038582885
0.038221823
0.03786504
0.037510255
0.037158894
0.036860964
0.03629842
1.7795583e-05
1.7927785e-05
1.8066164e-05
1.8203522e-05
1.8335254e-05
1.8458696e-05
1.8573118e-05
1.8679076e-05
1.8777602e-05
1.886977e-05
1.8956575e-05
1.9038923e-05
1.9117636e-05
1.9193468e-05
1.9267172e-05
1.9339576e-05
1.9411623e-05
1.9484413e-05
1.9559259e-05
1.963771e-05
1.9721559e-05
1.9812851e-05
1.9913876e-05
2.0027177e-05
2.0155556e-05
2.0302117e-05
2.0470311e-05
2.0663997e-05
2.0887595e-05
2.1146304e-05
2.1446239e-05
2.1794833e-05
2.2201643e-05
2.2678413e-05
2.3240651e-05
2.3909693e-05
2.4713748e-05
2.569115e-05
2.6900947e-05
2.8425702e-05
3.0382381e-05
3.2979568e-05
3.6528234e-05
4.1501844e-05
4.868431e-05
5.9546987e-05
7.6596723e-05
0.00010519736
0.00015460714
0.00024516756
0.00041640796
0.00073692398
0.0013462738
0.0023882394
0.0039596337
0.0060855933
0.0086894138
0.011602735
0.014634596
0.017630887
0.020489715
0.023150319
0.025580404
0.027767315
0.029711332
0.031420847
0.032909093
0.034191911
0.035286265
0.036209269
0.036977568
0.037606968
0.03811223
0.038506971
0.038803643
0.039013553
0.039146926
0.03921297
0.039219952
0.039175271
0.039085525
0.038956587
0.038793693
0.038601524
0.038384291
0.038145803
0.037889502
0.037618504
0.037335604
0.037043322
0.036743851
0.03643925
0.036131084
0.035821334
0.035510601
0.035202048
0.034894559
0.034589649
0.03433372
0.03384776
1.7410573e-05
1.7524733e-05
1.7644374e-05
1.7764011e-05
1.7879953e-05
1.7989803e-05
1.8092635e-05
1.8188607e-05
1.8278345e-05
1.8362593e-05
1.8442091e-05
1.8517538e-05
1.8589569e-05
1.8658748e-05
1.8725592e-05
1.8790608e-05
1.8854316e-05
1.8917277e-05
1.8980133e-05
1.9043646e-05
1.9108719e-05
1.9176414e-05
1.9247971e-05
1.9324819e-05
1.9408582e-05
1.9501101e-05
1.9604445e-05
1.9720938e-05
1.9853196e-05
2.0004204e-05
2.0177392e-05
2.0376741e-05
2.0607043e-05
2.0874083e-05
2.1184982e-05
2.1548883e-05
2.1977622e-05
2.2486393e-05
2.309624e-05
2.383626e-05
2.4744517e-05
2.5881156e-05
2.7333581e-05
2.9221119e-05
3.1767672e-05
3.5304593e-05
4.0343039e-05
4.781827e-05
5.9335787e-05
7.8057355e-05
0.00011033012
0.00016785118
0.00027792578
0.00048546207
0.00089118336
0.0016302634
0.0028175174
0.0045051961
0.0066644275
0.0091697713
0.011850943
0.014555475
0.017175691
0.019644058
0.021921801
0.023990307
0.025844606
0.027488554
0.028931497
0.030185965
0.03126611
0.032186665
0.032962264
0.033607019
0.034134259
0.034556399
0.034884882
0.035130178
0.03530181
0.035408391
0.035457681
0.035456641
0.035411517
0.035327918
0.035210904
0.035065055
0.034894524
0.034703079
0.034494121
0.034270727
0.03403562
0.033791334
0.033539936
0.033283771
0.03302406
0.032764073
0.032503733
0.032244793
0.032029877
0.031617159
1.7031009e-05
1.7130358e-05
1.7234559e-05
1.7339403e-05
1.7441946e-05
1.7540084e-05
1.7632822e-05
1.772005e-05
1.7802099e-05
1.7879456e-05
1.7952654e-05
1.8022227e-05
1.8088678e-05
1.815246e-05
1.821398e-05
1.827362e-05
1.8331738e-05
1.8388682e-05
1.8444815e-05
1.8500537e-05
1.8556301e-05
1.8612635e-05
1.867016e-05
1.8729612e-05
1.8791851e-05
1.8857882e-05
1.892887e-05
1.9006155e-05
1.9091268e-05
1.9185963e-05
1.9292246e-05
1.9412418e-05
1.9549157e-05
1.9705616e-05
1.9885539e-05
2.0093485e-05
2.0335126e-05
2.0617537e-05
2.0949816e-05
2.1344084e-05
2.1815887e-05
2.2386829e-05
2.3087757e-05
2.3958553e-05
2.5063721e-05
2.6497446e-05
2.8391364e-05
3.0999496e-05
3.4687208e-05
4.0065987e-05
4.826344e-05
6.1229314e-05
8.3283333e-05
0.0001220264
0.00019518567
0.00033661588
0.00061328343
0.0011441215
0.0020478531
0.0033933787
0.0051860887
0.0073384365
0.0097036745
0.012136328
0.014527153
0.016804769
0.018926113
0.020868273
0.022622262
0.024188308
0.025572537
0.026784655
0.027836356
0.028740248
0.029509135
0.030155554
0.030691492
0.031128221
0.031476218
0.031745123
0.031943744
0.032080079
0.03216137
0.032194164
0.032184397
0.032137459
0.032058257
0.031951257
0.031820508
0.031669691
0.0315021
0.031320783
0.031128339
0.030927518
0.03072015
0.030509673
0.030296938
0.030084067
0.029909786
0.029567944
1.6657044e-05
1.674414e-05
1.683553e-05
1.6927952e-05
1.7019066e-05
1.7107062e-05
1.7190949e-05
1.7270455e-05
1.7345698e-05
1.7416968e-05
1.7484634e-05
1.7549092e-05
1.7610736e-05
1.766993e-05
1.7727009e-05
1.7782285e-05
1.7836043e-05
1.7888548e-05
1.7940051e-05
1.7990808e-05
1.804108e-05
1.8091152e-05
1.8141339e-05
1.8192008e-05
1.8243588e-05
1.8296586e-05
1.8351606e-05
1.8409361e-05
1.847069e-05
1.8536574e-05
1.8608157e-05
1.8686762e-05
1.8773928e-05
1.8871451e-05
1.8981434e-05
1.9106369e-05
1.9249257e-05
1.9413744e-05
1.960433e-05
1.9826734e-05
2.0088199e-05
2.0398101e-05
2.076921e-05
2.1217995e-05
2.176767e-05
2.2451692e-05
2.3313852e-05
2.4427096e-05
2.5894448e-05
2.7877772e-05
3.0670025e-05
3.4699814e-05
4.0770912e-05
5.0232674e-05
6.5949584e-05
9.3469348e-05
0.00014433343
0.00024424913
0.00043863688
0.00082746987
0.0015237255
0.0026073165
0.0041046169
0.0059586651
0.0080459673
0.010231383
0.012407504
0.014501616
0.016468293
0.018281827
0.019930343
0.021411295
0.022728227
0.023888498
0.024901705
0.025778592
0.026530331
0.027168038
0.02770247
0.028143832
0.028501671
0.028784818
0.029001384
0.029158791
0.029263816
0.029322658
0.029340986
0.029323983
0.029276379
0.029202491
0.029106217
0.028991155
0.028860463
0.028717332
0.0285642
0.028404723
0.028240595
0.028074418
0.027940936
0.027668502
1.6288978e-05
1.6365865e-05
1.6446555e-05
1.6528489e-05
1.660981e-05
1.6688984e-05
1.6765076e-05
1.6837719e-05
1.6906885e-05
1.6972719e-05
1.7035457e-05
1.7095384e-05
1.7152799e-05
1.7207995e-05
1.7261243e-05
1.7312804e-05
1.7362915e-05
1.7411796e-05
1.745965e-05
1.7506672e-05
1.7553047e-05
1.7598958e-05
1.7644593e-05
1.7690148e-05
1.7735845e-05
1.7781934e-05
1.7828712e-05
1.7876534e-05
1.7925825e-05
1.7977094e-05
1.8030951e-05
1.8088116e-05
1.8149444e-05
1.821594e-05
1.8288792e-05
1.8369398e-05
1.8459422e-05
1.8560854e-05
1.8676098e-05
1.8808105e-05
1.8960541e-05
1.9137992e-05
1.9346403e-05
1.9593409e-05
1.9889035e-05
2.0247131e-05
2.0685676e-05
2.1230808e-05
2.1919305e-05
2.2802823e-05
2.3966908e-05
2.5525976e-05
2.7700751e-05
3.0822209e-05
3.5477955e-05
4.2683557e-05
5.4382411e-05
7.4807839e-05
0.00011178529
0.00018471514
0.00032744285
0.00061921753
0.0011643766
0.0020489428
0.0033113443
0.0049174302
0.0067644105
0.0087289149
0.010707838
0.012629194
0.014446796
0.01613341
0.017675265
0.019067796
0.020312552
0.021414994
0.022382962
0.02322561
0.023952684
0.024574034
0.025099297
0.025537684
0.025897869
0.026187938
0.026415382
0.026587126
0.026709557
0.026788561
0.026829544
0.026837469
0.026816855
0.026771877
0.026706271
0.026623698
0.026527208
0.02642072
0.026306705
0.02618833
0.026096299
0.025892644
1.5927198e-05
1.5995522e-05
1.6067218e-05
1.6140251e-05
1.6213148e-05
1.6284624e-05
1.6353824e-05
1.642034e-05
1.6484049e-05
1.6544986e-05
1.6603288e-05
1.6659147e-05
1.6712786e-05
1.6764432e-05
1.6814305e-05
1.6862619e-05
1.6909575e-05
1.6955359e-05
1.7000143e-05
1.7044089e-05
1.7087348e-05
1.7130061e-05
1.7172362e-05
1.7214379e-05
1.7256243e-05
1.7298089e-05
1.734007e-05
1.7382358e-05
1.742516e-05
1.7468725e-05
1.7513353e-05
1.7559411e-05
1.7607341e-05
1.7657678e-05
1.7711062e-05
1.7768259e-05
1.7830186e-05
1.7897938e-05
1.7972834e-05
1.8056465e-05
1.815078e-05
1.8258174e-05
1.8381649e-05
1.8525001e-05
1.8693064e-05
1.8892218e-05
1.9130734e-05
1.9419757e-05
1.9774619e-05
2.0215768e-05
2.0774041e-05
2.1489964e-05
2.2430129e-05
2.3692703e-05
2.5428035e-05
2.7918709e-05
3.1595717e-05
3.7278923e-05
4.6354956e-05
6.205448e-05
9.020081e-05
0.00014532321
0.00025493099
0.00048039796
0.0009167255
0.0016505294
0.0027274962
0.0041297154
0.0057715232
0.0075412457
0.0093415788
0.011102833
0.012779352
0.014343428
0.01578023
0.017083836
0.018254315
0.019295643
0.020214227
0.021017884
0.021715129
0.022314688
0.022825184
0.023254935
0.023611846
0.023903366
0.024136465
0.02431764
0.024452922
0.024547893
0.024607685
0.024637049
0.024640308
0.024621615
0.024584624
0.024533562
0.024471616
0.0244026
0.024353107
0.024218389
1.5572129e-05
1.5633223e-05
1.5697315e-05
1.5762759e-05
1.5828384e-05
1.5893122e-05
1.5956216e-05
1.6017247e-05
1.6076034e-05
1.6132536e-05
1.6186813e-05
1.6238985e-05
1.628921e-05
1.6337661e-05
1.6384513e-05
1.6429939e-05
1.6474107e-05
1.6517174e-05
1.6559289e-05
1.6600591e-05
1.6641208e-05
1.6681258e-05
1.6720851e-05
1.6760087e-05
1.6799057e-05
1.6837852e-05
1.6876559e-05
1.6915272e-05
1.6954096e-05
1.6993149e-05
1.7032575e-05
1.7072549e-05
1.7113284e-05
1.7155046e-05
1.7198157e-05
1.7243014e-05
1.7290099e-05
1.7339996e-05
1.7393416e-05
1.7451216e-05
1.7514444e-05
1.758438e-05
1.7662603e-05
1.7751082e-05
1.7852286e-05
1.7969371e-05
1.8106392e-05
1.8268621e-05
1.84631e-05
1.8699046e-05
1.8989417e-05
1.9351348e-05
1.9809667e-05
2.0400432e-05
2.1173507e-05
2.2213686e-05
2.3638871e-05
2.5674096e-05
2.8662336e-05
3.3271494e-05
4.0575988e-05
5.3051487e-05
7.5388358e-05
0.00011871104
0.00020578408
0.00038573449
0.00074390854
0.001364209
0.0022959831
0.0035321259
0.0050004017
0.006599981
0.0082401678
0.0098546914
0.01139942
0.012847007
0.01418225
0.015398428