/*--------------------------------*- C++ -*----------------------------------*\
| =========                 |                                                 |
| \\      /  F ield         | OpenFOAM: The Open Source CFD Toolbox           |
|  \\    /   O peration     | Version:  2206                                  |
|   \\  /    A nd           | Website:  www.openfoam.com                      |
|    \\/     M anipulation  |                                                 |
\*---------------------------------------------------------------------------*/
FoamFile
{
    version     2.0;
    format      ascii;
    arch        "LSB;label=32;scalar=64";
    class       volScalarField;
    location    "500";
    object      k;
}
// * * * * * * * * * * * * * * * * * * * * * * * * * * * * * * * * * * * * * //

dimensions      [0 2 -2 0 0 0 0];

internalField   nonuniform List<scalar> 
7480
(
0.03216929
0.062198962
0.068872877
0.063416263
0.054845049
0.047469071
0.042153136
0.038321749
0.035382649
0.032989137
0.030981973
0.029287174
0.027855866
0.026645968
0.025620667
0.024747189
0.024000744
0.023362044
0.022811013
0.022337202
0.021920518
0.021550877
0.021219145
0.02091761
0.020641223
0.0203858
0.0201485
0.019926421
0.019716962
0.019517987
0.01932831
0.019147095
0.018973446
0.018806619
0.018645734
0.018490488
0.018339572
0.018192837
0.018049958
0.017910472
0.017774041
0.017640374
0.017509252
0.017380541
0.017254049
0.017129679
0.017007267
0.01688663
0.016767672
0.016650295
0.016534419
0.016419999
0.016306973
0.016195308
0.016084945
0.015975842
0.015867967
0.015761263
0.01565568
0.015551183
0.01544777
0.015345433
0.015244144
0.015143885
0.015044641
0.014946398
0.014849125
0.014752802
0.014657419
0.014562966
0.014469428
0.01437679
0.014285041
0.014194175
0.014104179
0.01401504
0.013926747
0.013839293
0.013752668
0.013666862
0.013581863
0.013497658
0.013414234
0.013331583
0.013249701
0.013168581
0.013088221
0.013008599
0.012929696
0.012851431
0.012773761
0.012696401
0.012619406
0.012541703
0.012464282
0.012382907
0.012303035
0.01220865
0.012130274
0.011967558
0.0025253209
0.0095518494
0.016647565
0.020682857
0.02173109
0.02145905
0.020820275
0.020167344
0.019530654
0.018898455
0.018286481
0.01771934
0.017211287
0.016764519
0.016375704
0.016031894
0.015732281
0.015475261
0.015255395
0.015064053
0.014895044
0.014742501
0.014601814
0.014470436
0.014347267
0.014230861
0.014120953
0.01401553
0.013913265
0.01381338
0.013715928
0.013620877
0.013527987
0.013437071
0.013347556
0.013259835
0.013172473
0.013086158
0.01300082
0.012916175
0.01283207
0.012748461
0.012665346
0.012582723
0.012500547
0.012418872
0.012337605
0.012256691
0.01217612
0.012095894
0.012016036
0.011936557
0.01185747
0.011778793
0.01170052
0.011622671
0.011545252
0.011468248
0.011391642
0.011315449
0.011239702
0.011164419
0.011089604
0.011015261
0.010941406
0.010868044
0.010795168
0.010722779
0.010650889
0.010579506
0.010508632
0.010438268
0.010368419
0.010299095
0.010230295
0.01016202
0.010094275
0.010027064
0.0099603902
0.0098942556
0.0098286589
0.0097635994
0.0096990778
0.009635099
0.0095716718
0.0095088066
0.0094465133
0.0093847949
0.0093236437
0.0092630301
0.0092028995
0.0091431407
0.0090836149
0.0090240022
0.0089640903
0.0089029252
0.0088405133
0.0087731269
0.0087110502
0.0085881218
0.00021640736
0.00056719349
0.0013037881
0.0026287007
0.0042070259
0.0058207489
0.0072749805
0.0085087504
0.0095714312
0.01049728
0.011291012
0.011947754
0.012471853
0.012880883
0.013198434
0.013452727
0.013659017
0.013825631
0.013958837
0.014063003
0.014142425
0.014200516
0.014239418
0.014262715
0.014273344
0.014272545
0.01426534
0.014249882
0.014227182
0.01419789
0.014163674
0.014125361
0.014083491
0.014038597
0.013990464
0.013940467
0.013886662
0.013831202
0.013773852
0.013714586
0.013653531
0.013590884
0.013526847
0.013461586
0.013395205
0.013327925
0.013259717
0.013190648
0.013120808
0.013050288
0.012979204
0.012907634
0.012835662
0.012763365
0.012690784
0.012617998
0.01254505
0.012471961
0.012398746
0.012325462
0.012252178
0.012178943
0.012105784
0.012032733
0.011959829
0.011887099
0.011814552
0.011742209
0.011670102
0.011598253
0.011526681
0.011455399
0.011384428
0.01131379
0.011243496
0.011173558
0.011103992
0.011034813
0.010966035
0.010897669
0.010829723
0.010762203
0.010695121
0.01062849
0.01056233
0.010496662
0.010431509
0.010366885
0.01030279
0.010239212
0.01017609
0.010113355
0.010050793
0.0099882726
0.0099251867
0.0098614554
0.0097954158
0.0097266711
0.0096602313
0.0095325635
0.00015514159
0.00016684954
0.00019793303
0.00027949195
0.00044693419
0.00069362241
0.0011505264
0.0017908324
0.0026162317
0.0035369067
0.0044942747
0.0054730434
0.0064607814
0.0074347582
0.0083636406
0.0092189062
0.0099826304
0.010649775
0.011225775
0.011720384
0.012143519
0.012503937
0.012809815
0.013067792
0.013284441
0.013464712
0.013614204
0.013737448
0.013837732
0.013918696
0.013982863
0.014032589
0.014069832
0.014096492
0.014113363
0.014122761
0.014121373
0.014114617
0.014101016
0.014081599
0.014056943
0.0140276
0.013994079
0.013956817
0.013916157
0.013872574
0.013826134
0.013777126
0.013725786
0.013672338
0.013617026
0.01356003
0.013501543
0.013441727
0.013380692
0.013318598
0.013255546
0.01319161
0.013126855
0.013061392
0.01299534
0.012928788
0.012861797
0.012794436
0.012726777
0.012658876
0.012590764
0.012522488
0.012454105
0.01238566
0.012317187
0.01224872
0.012180297
0.012111957
0.012043726
0.011975628
0.011907695
0.011839954
0.011772431
0.011705149
0.011638125
0.011571376
0.011504924
0.011438794
0.011373014
0.011307619
0.011242641
0.011178107
0.011114027
0.011050402
0.010987174
0.0109243
0.010861539
0.010798856
0.010735473
0.010671728
0.010605214
0.010537175
0.01046977
0.010342687
0.00015621023
0.00015813553
0.00015965702
0.00016187032
0.00016822762
0.0001812807
0.00021249967
0.00027827223
0.00038720963
0.00059175399
0.0009107255
0.00135078
0.0019219389
0.0025901338
0.003345668
0.0041803893
0.0050770352
0.0060056297
0.0069281374
0.007807793
0.0086184238
0.009348008
0.0099959687
0.010567241
0.011068357
0.011505538
0.011885387
0.012214565
0.01249971
0.012746217
0.012958616
0.013141059
0.013297153
0.013429861
0.013542032
0.013636934
0.013714753
0.013778483
0.013829612
0.013869188
0.01389835
0.013918257
0.013929878
0.013934056
0.013931505
0.013923151
0.013909259
0.013890316
0.013866733
0.013838951
0.01380741
0.013772447
0.013734387
0.01369353
0.013650127
0.013604466
0.013556723
0.013507057
0.013455603
0.013402558
0.013348108
0.0132924
0.013235545
0.01317767
0.01311889
0.013059299
0.012998963
0.012937968
0.012876403
0.012814341
0.012751846
0.012688973
0.012625787
0.012562351
0.012498708
0.012434904
0.012370986
0.012307
0.012242989
0.012178988
0.012115031
0.012051148
0.011987371
0.01192374
0.011860298
0.011797091
0.011734165
0.011671562
0.011609303
0.011547405
0.011485818
0.011424522
0.011363269
0.011302089
0.01124012
0.011177959
0.011112787
0.011046897
0.010980625
0.010856919
0.00015685232
0.00015994844
0.00016145054
0.00016189117
0.00016201033
0.0001616996
0.00016187669
0.0001633794
0.00016820281
0.00018142059
0.00021052607
0.00026469222
0.00035268007
0.00050704042
0.00074335572
0.0010825132
0.0015341182
0.0020911067
0.0027533938
0.0035141851
0.0043536176
0.0052383317
0.0061277101
0.006984423
0.0077830427
0.0085117818
0.0091687558
0.0097567859
0.010280412
0.010744732
0.011155145
0.011517126
0.011835803
0.012115748
0.012361109
0.012576189
0.012763626
0.012926573
0.013067776
0.013189503
0.013293763
0.013382268
0.013456592
0.013518172
0.013568146
0.013607719
0.013637928
0.013659655
0.013673718
0.013680818
0.013681574
0.01367652
0.013666193
0.013651078
0.013631615
0.013608275
0.013581326
0.01355105
0.013517735
0.013481669
0.013443099
0.013402248
0.013359303
0.013314444
0.013267871
0.013219736
0.013170153
0.013119261
0.013067195
0.013014066
0.012959972
0.012905005
0.012849263
0.01279284
0.012735803
0.012678225
0.012620177
0.012561727
0.012502938
0.012443867
0.012384564
0.012325076
0.012265453
0.012205751
0.012146028
0.012086348
0.012026772
0.011967359
0.011908147
0.011849168
0.011790387
0.011731806
0.011673183
0.011614596
0.011555151
0.011495607
0.011432937
0.011370111
0.011306273
0.01118768
0.00015582072
0.00015971601
0.00016239358
0.00016388051
0.00016402596
0.00016377191
0.0001632609
0.00016262731
0.00016202538
0.00016141476
0.00016183502
0.00016385863
0.00016938395
0.00018202844
0.00020692291
0.00025179022
0.00032398238
0.0004496516
0.00064818303
0.00094048567
0.0013430616
0.0018560879
0.0024811308
0.0032089655
0.0040154287
0.0048637172
0.0057130593
0.0065296161
0.007292758
0.0079940734
0.0086323728
0.0092094828
0.0097285082
0.010193411
0.010608618
0.010978912
0.011308357
0.011600878
0.011860207
0.012089686
0.012292299
0.012470688
0.012627226
0.012764074
0.012883092
0.012986023
0.013074435
0.01314971
0.013213094
0.013265693
0.013308483
0.013342384
0.013368163
0.013386525
0.013398129
0.013403507
0.013403258
0.013397879
0.013387832
0.013373493
0.013355225
0.013333357
0.013308172
0.013279957
0.013248997
0.013215513
0.013179676
0.013141699
0.013101767
0.013060052
0.013016712
0.012971892
0.012925711
0.012878294
0.012829752
0.012780191
0.012729715
0.012678421
0.012626397
0.012573726
0.01252048
0.01246673
0.012412545
0.012358
0.012303174
0.012248152
0.012193014
0.012137837
0.012082681
0.012027595
0.011972564
0.011917613
0.011862517
0.01180739
0.011751343
0.011695232
0.011635963
0.011576928
0.011516466
0.011404352
0.00015422605
0.00015797515
0.00016110971
0.00016315125
0.00016414455
0.00016439183
0.00016424472
0.00016386435
0.00016329699
0.00016264777
0.00016197951
0.00016142827
0.00016068819
0.00016071298
0.00016128962
0.00016380275
0.00016941308
0.0001811583
0.00020373472
0.00024440324
0.00031148409
0.00042955359
0.00062079694
0.0009060712
0.0013020481
0.0018122231
0.0024352089
0.0031556564
0.0039430556
0.0047578438
0.005562522
0.0063305278
0.0070480059
0.0077099488
0.0083156227
0.0088664333
0.0093649626
0.0098146219
0.010219205
0.010582485
0.01090809
0.011199426
0.011459633
0.011691611
0.011897978
0.012081126
0.012243248
0.012386314
0.012512102
0.01262221
0.012718059
0.012800954
0.012872042
0.012932357
0.012982845
0.01302433
0.013057607
0.013083395
0.013102347
0.013115035
0.013121977
0.013123649
0.013120499
0.013112902
0.013101192
0.013085717
0.013066808
0.013044728
0.01301973
0.012992053
0.012961917
0.012929522
0.012895048
0.012858667
0.012820532
0.012780794
0.012739593
0.012697063
0.012653328
0.012608498
0.012562677
0.012515962
0.012468447
0.012420231
0.01237142
0.012322119
0.012272433
0.012222464
0.012172291
0.01212199
0.012071568
0.012021074
0.011970309
0.011919416
0.011867542
0.011815593
0.011760501
0.01170592
0.011649598
0.011545164
0.00015264867
0.00015584385
0.00015881355
0.00016106489
0.00016250604
0.00016324839
0.00016350441
0.00016346564
0.00016323762
0.00016289102
0.00016244484
0.00016191047
0.00016131486
0.00016074757
0.00016018689
0.00015968731
0.00015933243
0.00015940621
0.00016040049
0.00016328275
0.00016930734
0.00018153514
0.00020512348
0.00024736525
0.00032076473
0.00044937108
0.00065729627
0.00096652653
0.0013875604
0.0019239455
0.0025671586
0.0032926188
0.0040636126
0.0048417149
0.005597086
0.0063122992
0.0069795033
0.0075959486
0.0081614301
0.0086773918
0.0091463899
0.0095714971
0.0099559179
0.010302866
0.010615445
0.010896588
0.01114905
0.011375384
0.011577927
0.011758814
0.011919973
0.012063164
0.012189975
0.012301833
0.012400044
0.012485766
0.012560076
0.012623958
0.012678309
0.012723931
0.012761546
0.012791812
0.012815336
0.012832656
0.012844251
0.012850581
0.012852085
0.012849141
0.012842095
0.012831272
0.012816969
0.012799463
0.012779
0.012755804
0.012730097
0.012702077
0.012671933
0.012639844
0.012605974
0.012570473
0.012533479
0.012495123
0.01245553
0.01241483
0.012373154
0.012330637
0.012287413
0.01224361
0.012199334
0.012154689
0.012109709
0.01206447
0.012018809
0.011972893
0.011925925
0.011878834
0.011828642
0.011779161
0.011727649
0.011632014
0.0001513116
0.00015390138
0.00015642677
0.00015852894
0.00016008595
0.00016110995
0.00016169578
0.00016196961
0.0001620259
0.00016192608
0.000161717
0.00016142046
0.00016105462
0.00016063452
0.00016016065
0.00015965247
0.00015914041
0.00015862885
0.00015814758
0.00015777803
0.00015765215
0.00015805744
0.00015957831
0.00016321861
0.00017069702
0.00018559176
0.00021425322
0.00026463591
0.00035706385
0.00051588416
0.0007651585
0.0011227154
0.0015946261
0.002176917
0.0028493429
0.0035778246
0.0043243899
0.005058135
0.0057599265
0.00642023
0.0070349089
0.0076026632
0.0081240496
0.0086008752
0.0090355862
0.0094309025
0.0097896644
0.010114694
0.010408705
0.010674268
0.010913771
0.011129431
0.011323286
0.011497195
0.011652861
0.011791821
0.01191549
0.012025165
0.012122031
0.012207163
0.012281529
0.01234601
0.012401412
0.012448466
0.012487825
0.012520098
0.012545858
0.012565617
0.01257984
0.012588956
0.01259336
0.012593418
0.012589461
0.01258179
0.012570691
0.012556429
0.012539253
0.012519395
0.012497069
0.012472474
0.01244579
0.012417188
0.01238683
0.012354881
0.012321508
0.012286878
0.012251156
0.012214503
0.012177058
0.012138953
0.012100259
0.012061082
0.012021296
0.0119811
0.011939762
0.01189822
0.01185363
0.011809897
0.011763821
0.011678052
0.00015023759
0.0001523078
0.00015436709
0.00015616115
0.00015760052
0.00015867743
0.00015942924
0.00015991582
0.00016019409
0.00016030953
0.00016029983
0.00016019282
0.00016000878
0.00015976186
0.00015946031
0.0001591114
0.00015872473
0.00015830089
0.00015784705
0.00015738332
0.00015691939
0.00015648214
0.00015611895
0.0001559372
0.00015612545
0.00015705492
0.00015953101
0.00016470889
0.00017527176
0.00019628607
0.00023524674
0.00030705811
0.00043611696
0.00064805294
0.00096399386
0.0013921735
0.00193125
0.0025632527
0.0032556282
0.0039713089
0.0046798499
0.0053620686
0.0060078865
0.0066124181
0.0071736824
0.0076916656
0.0081676517
0.0086036228
0.0090019163
0.0093650423
0.00969553
0.0099958535
0.010268379
0.010515327
0.010738773
0.010940631
0.011122667
0.011286518
0.01143369
0.011565558
0.011683373
0.011788276
0.01188131
0.011963426
0.012035485
0.012098279
0.012152542
0.012198945
0.012238095
0.01227055
0.012296824
0.012317388
0.012332675
0.012343079
0.01234897
0.012350688
0.012348555
0.012342867
0.012333901
0.01232191
0.012307129
0.012289775
0.012270055
0.012248177
0.012224345
0.012198767
0.012171645
0.012143176
0.012113538
0.012082899
0.012051366
0.012019081
0.011985967
0.011952249
0.011917277
0.011881986
0.011843696
0.011806376
0.011766342
0.011691476
0.00014938625
0.00015104182
0.00015270435
0.00015418551
0.00015541955
0.00015640325
0.00015716146
0.00015772749
0.0001581304
0.00015839396
0.00015853958
0.0001585867
0.00015855207
0.00015844914
0.0001582883
0.00015807763
0.00015782393
0.00015753131
0.00015720273
0.00015684315
0.00015645517
0.00015604156
0.00015561696
0.00015519475
0.00015479977
0.0001544654
0.00015428273
0.00015439296
0.00015508347
0.00015697178
0.00016109765
0.00016952349
0.00018653562
0.00021924066
0.00028019282
0.00039342876
0.00058514877
0.00087765201
0.0012805871
0.0017932724
0.0023978387
0.0030619823
0.0037497813
0.0044324716
0.0050920686
0.0057188117
0.0063076513
0.0068563618
0.0073646601
0.0078334999
0.0082645248
0.0086597722
0.0090214697
0.0093518909
0.0096532816
0.0099278005
0.0101775
0.010404316
0.010610057
0.010796403
0.010964897
0.011116959
0.011253895
0.011376904
0.01148708
0.011585424
0.011672865
0.011750252
0.011818359
0.011877898
0.01192952
0.011973827
0.012011369
0.012042651
0.01206814
0.012088272
0.01210345
0.012114049
0.01212042
0.012122882
0.012121731
0.012117243
0.012109677
0.012099289
0.012086331
0.012071055
0.012053707
0.012034526
0.012013733
0.011991537
0.011968089
0.011943571
0.011917959
0.01189151
0.011863663
0.011835351
0.011804071
0.011773846
0.011740459
0.011677513
0.00014871096
0.00015004138
0.00015138542
0.00015260029
0.00015363187
0.00015447712
0.00015515783
0.00015570127
0.00015612816
0.00015645214
0.00015668363
0.00015683218
0.00015690707
0.0001569168
0.00015686919
0.00015677129
0.00015662905
0.00015644703
0.00015622871
0.0001559772
0.00015569491
0.00015538316
0.00015504498
0.00015468353
0.0001543012
0.00015390929
0.00015352306
0.00015316424
0.00015286663
0.0001527039
0.00015281046
0.00015343166
0.00015508737
0.00015875095
0.00016620372
0.00018142181
0.00021129596
0.00026804791
0.00037548231
0.00056037349
0.00084461082
0.0012382356
0.001739187
0.0023276621
0.0029706308
0.0036337785
0.0042910899
0.0049266557
0.0055316055
0.0061011673
0.0066332156
0.0071274287
0.007584586
0.0080061098
0.0083938032
0.0087496534
0.0090757163
0.0093740403
0.0096466173
0.0098953504
0.010122033
0.010328345
0.01051585
0.010686
0.010840132
0.010979479
0.01110518
0.011218285
0.011319756
0.011410478
0.011491264
0.011562862
0.011625963
0.011681197
0.011729148
0.011770359
0.011805333
0.011834538
0.011858406
0.011877339
0.011891703
0.011901842
0.011908077
0.011910721
0.01191008
0.011906457
0.011900148
0.011891443
0.011880608
0.011867902
0.011853524
0.011837703
0.011820471
0.011802124
0.011782198
0.011761622
0.011738082
0.01171566
0.011689534
0.011639517
0.00014817272
0.00014924833
0.00015033984
0.00015133858
0.00015219797
0.0001529114
0.00015349521
0.00015397303
0.00015436417
0.00015468098
0.00015493119
0.00015512015
0.00015525222
0.00015533123
0.00015536107
0.00015534587
0.00015528948
0.00015519526
0.00015506616
0.00015490469
0.00015471297
0.00015449252
0.00015424469
0.00015397086
0.00015367177
0.00015334961
0.00015300778
0.00015264999
0.00015228486
0.0001519285
0.00015160361
0.00015134572
0.00015122214
0.00015136739
0.0001520103
0.00015364496
0.00015722489
0.00016450331
0.00017949912
0.00020915045
0.00026693227
0.00037683463
0.00056640558
0.00085551748
0.0012533594
0.0017544176
0.0023352301
0.0029619576
0.00360281
0.0042353601
0.0048462054
0.0054276969
0.0059756722
0.0064883302
0.0069654298
0.007407682
0.0078163847
0.0081931758
0.0085398669
0.0088583374
0.0091504627
0.0094180712
0.0096629159
0.0098866593
0.01009086
0.010276973
0.010446351
0.010600252
0.010739838
0.010866183
0.010980276
0.011083031
0.011175292
0.011257835
0.011331378
0.011396585
0.011454074
0.011504417
0.011548147
0.011585754
0.011617691
0.011644379
0.01166621
0.011683564
0.011696808
0.011706306
0.01171241
0.011715464
0.011715791
0.011713702
0.011709452
0.011703321
0.011695408
0.011686047
0.011674881
0.011662838
0.011647799
0.011633915
0.011615683
0.011579602
0.00014774341
0.0001486177
0.00014950833
0.00015033267
0.00015105071
0.00015165242
0.00015214775
0.00015255514
0.0001528918
0.00015317024
0.00015339881
0.00015358291
0.000153726
0.00015383024
0.00015389731
0.00015392899
0.00015392702
0.000153893
0.00015382856
0.00015373521
0.00015361432
0.00015346698
0.00015329407
0.00015309634
0.00015287426
0.00015262839
0.00015235962
0.00015206887
0.00015175786
0.00015143018
0.00015109056
0.00015074774
0.00015041854
0.00015012775
0.00014991278
0.00014984357
0.00015006063
0.00015079974
0.00015258684
0.00015639821
0.00016418737
0.00018034976
0.00021221499
0.00027603164
0.00039651788
0.0006016836
0.00090768064
0.0013209929
0.001830462
0.0024083047
0.0030209668
0.0036405207
0.0042486043
0.0048343064
0.0053912878
0.0059161772
0.0064076176
0.0068655319
0.0072906464
0.0076841894
0.0080476814
0.0083827972
0.0086912695
0.0089748286
0.0092351591
0.0094738744
0.0096925066
0.0098924996
0.010075206
0.010241887
0.010393715
0.010531778
0.010657087
0.010770573
0.010873102
0.010965475
0.011048438
0.011122682
0.01118885
0.011247537
0.011299292
0.011344623
0.011384008
0.0114179
0.011446739
0.011470953
0.011490961
0.011507169
0.011519961
0.011529707
0.011536728
0.011541357
0.011543766
0.011544338
0.011542822
0.011540156
0.011534415
0.011529838
0.01152016
0.011499033
0.00014740124
0.00014811536
0.00014884519
0.00014952807
0.00015013015
0.00015063938
0.00015106036
0.00015140615
0.00015169064
0.00015192518
0.00015211838
0.00015227645
0.0001524036
0.00015250239
0.00015257438
0.0001526207
0.00015264214
0.00015263924
0.00015261254
0.0001525626
0.00015248989
0.00015239484
0.00015227775
0.00015213884
0.00015197822
0.0001517959
0.000151592
0.0001513666
0.00015111994
0.00015085272
0.00015056607
0.00015026194
0.00014994431
0.00014961895
0.00014929585
0.00014899292
0.00014873826
0.00014857254
0.00014857751
0.00014890522
0.00014982338
0.00015194826
0.00015632714
0.00016537715
0.00018425219
0.00022120351
0.00029668602
0.00043721182
0.00066741607
0.0010009364
0.0014381183
0.0019604034
0.0025365137
0.0031352057
0.0037334969
0.0043170265
0.0048771803
0.0054089622
0.0059098327
0.0063788794
0.0068162316
0.0072226884
0.0075994572
0.0079479822
0.0082698257
0.0085665893
0.0088398654
0.0090912055
0.0093221003
0.0095339665
0.0097281406
0.0099058775
0.010068351
0.010216655
0.010351808
0.010474759
0.010586389
0.010687522
0.010778923
0.010861301
0.010935313
0.011001569
0.011060636
0.011113056
0.011159348
0.011200015
0.011235549
0.011266425
0.011293096
0.011316001
0.011335526
0.011352071
0.011365885
0.011377403
0.011386489
0.011394096
0.011398496
0.011404034
0.0114036
0.011398463
0.0001471293
0.00014771512
0.00014831545
0.00014888285
0.0001493891
0.00014982146
0.00015018068
0.00015047532
0.0001507158
0.00015091153
0.0001510703
0.00015119836
0.00015130045
0.00015137988
0.00015143888
0.00015147897
0.00015150108
0.00015150568
0.000151493
0.00015146317
0.00015141618
0.00015135197
0.00015127037
0.00015117117
0.00015105407
0.00015091873
0.0001507648
0.00015059193
0.00015039979
0.0001501882
0.00014995712
0.00014970678
0.00014943794
0.00014915205
0.00014885163
0.00014854131
0.00014822803
0.0001479238
0.00014764895
0.00014743623
0.00014733226
0.00014744148
0.00014793324
0.00014914205
0.00015183932
0.00015723872
0.00016855445
0.00019191464
0.00023934773
0.00033397843
0.00050412988
0.00076938999
0.0011388933
0.001603973
0.0021386636
0.0027109608
0.0032941882
0.0038705608
0.0044291356
0.0049633112
0.0054693885
0.0059456264
0.006391553
0.0068075207
0.0071944042
0.0075533956
0.0078858681
0.0081932845
0.0084771359
0.0087388995
0.0089800116
0.0092018508
0.0094057292
0.0095928862
0.0097644875
0.009921626
0.010065326
0.010196545
0.010316179
0.010425061
0.010523965
0.01061361
0.010694667
0.010767773
0.010833535
0.010892541
0.010945362
0.010992551
0.011034637
0.011072133
0.0111055
0.01113521
0.011161594
0.01118515
0.011205859
0.011224698
0.011240131
0.011256635
0.011266175
0.011278098
0.00014691444
0.00014739678
0.00014789215
0.00014836471
0.00014879119
0.00014915904
0.00014946649
0.00014971869
0.00014992308
0.00015008699
0.00015021694
0.00015031857
0.00015039648
0.00015045426
0.00015049462
0.00015051961
0.00015053065
0.00015052862
0.000150514
0.00015048706
0.00015044782
0.00015039611
0.00015033165
0.00015025404
0.00015016277
0.0001500573
0.00014993701
0.00014980128
0.00014964949
0.00014948103
0.00014929539
0.00014909212
0.00014887096
0.00014863193
0.0001483754
0.00014810244
0.00014781489
0.00014751608
0.00014721165
0.00014691013
0.00014662636
0.00014638542
0.00014622581
0.00014620574
0.00014646446
0.00014720023
0.00014887765
0.00015241593
0.00015964879
0.00017491403
0.00020575077
0.00027024689
0.00039461702
0.00060427169
0.0009140743
0.0013243832
0.0018161322
0.0023587882
0.0029232805
0.0034887611
0.0040420422
0.0045749923
0.0050828019
0.0055629169
0.0060142692
0.0064367657
0.0068309458
0.0071977502
0.0075383629
0.0078541037
0.0081463545
0.0084165099
0.0086659452
0.0088959942
0.0091079359
0.0093029878
0.0094823032
0.0096469706
0.009798014
0.0099363933
0.010063005
0.010178684
0.010284213
0.01038033
0.010467741
0.010547125
0.01061914
0.010684424
0.010743589
0.010797228
0.010845887
0.010890113
0.010930328
0.010967097
0.011000526
0.011031621
0.01105904
0.011087413
0.011107703
0.011137797
0.00014674617
0.00014714447
0.00014755427
0.0001479485
0.00014830814
0.00014862143
0.000148885
0.00014910151
0.00014927606
0.00014941415
0.00014952101
0.00014960137
0.00014965935
0.00014969837
0.0001497212
0.00014973013
0.00014972691
0.0001497128
0.0001496887
0.0001496552
0.0001496126
0.00014956098
0.0001495002
0.00014942998
0.00014934985
0.00014925927
0.00014915761
0.00014904417
0.00014891819
0.00014877894
0.00014862565
0.00014845759
0.00014827411
0.00014807462
0.00014785873
0.00014762624
0.00014737734
0.00014711267
0.00014683374
0.00014654302
0.00014624489
0.0001459466
0.00014565909
0.00014540086
0.0001452051
0.00014511651
0.00014522143
0.00014568657
0.00014679978
0.00014924358
0.00015415144
0.0001644731
0.0001860213
0.00023086315
0.00032194276
0.00048793744
0.00074728544
0.0011077862
0.001557648
0.0020694358
0.0026130483
0.0031651479
0.0037104639
0.0042394235
0.0047461815
0.0052274231
0.00568152
0.0061079592
0.0065069637
0.0068792329
0.0072257653
0.0075477369
0.0078464194
0.0081231222
0.0083791548
0.0086158009
0.0088343038
0.0090358564
0.0092215959
0.0093925996
0.009549882
0.0096943961
0.0098270372
0.009948652
0.010060048
0.010162001
0.010255264
0.010340565
0.010418606
0.010490067
0.010555582
0.010615784
0.010671191
0.010722442
0.010769769
0.010814221
0.010854646
0.010895847
0.010927714
0.010977147
0.00014661593
0.00014694558
0.00014728524
0.00014761446
0.00014791783
0.00014818462
0.00014841063
0.00014859674
0.00014874623
0.0001488631
0.0001489514
0.00014901501
0.00014905744
0.00014908171
0.00014909043
0.00014908579
0.00014906965
0.00014904344
0.00014900831
0.00014896512
0.00014891448
0.00014885674
0.00014879205
0.00014872036
0.00014864145
0.00014855494
0.00014846035
0.00014835708
0.00014824446
0.00014812178
0.00014798824
0.00014784307
0.00014768545
0.00014751462
0.00014732983
0.00014713046
0.00014691597
0.00014668607
0.00014644076
0.00014618046
0.00014590626
0.0001456203
0.00014532603
0.00014502919
0.00014473951
0.00014447175
0.00014425009
0.00014411597
0.00014412869
0.00014442443
0.00014520378
0.00014693505
0.00015053271
0.000157914
0.00017359898
0.00020557152
0.00027389051
0.00040558604
0.00062369998
0.00094102176
0.0013522915
0.0018339792
0.00235607
0.0028934223
0.0034289825
0.0039519033
0.0044554236
0.0049355506
0.0053901524
0.0058183359
0.0062200335
0.0065957191
0.006946216
0.0072725628
0.0075759227
0.0078575197
0.0081185972
0.0083603894
0.0085841027
0.0087909018
0.0089819007
0.0091581576
0.0093206754
0.0094704066
0.0096082618
0.0097351177
0.0098518227
0.0099592008
0.010058048
0.010149137
0.010233197
0.010310949
0.010383014
0.010450112
0.010512609
0.010571599
0.010626121
0.010681176
0.010725504
0.010795516
0.00014651685
0.00014679009
0.00014707195
0.00014734698
0.00014760275
0.00014782973
0.00014802334
0.00014818326
0.00014831138
0.00014841047
0.00014848363
0.00014853395
0.00014856433
0.00014857738
0.00014857541
0.00014856043
0.00014853417
0.0001484981
0.00014845341
0.00014840109
0.00014834192
0.00014827647
0.0001482051
0.00014812801
0.00014804521
0.00014795657
0.00014786183
0.00014776061
0.00014765242
0.00014753668
0.00014741277
0.00014727996
0.0001471375
0.00014698463
0.00014682055
0.00014664448
0.00014645567
0.00014625343
0.00014603721
0.00014580661
0.0001455615
0.00014530217
0.00014502945
0.00014474504
0.00014445199
0.00014415528
0.00014386276
0.00014358702
0.00014334792
0.00014318151
0.00014313708
0.00014331184
0.00014388524
0.00014517997
0.00014795999
0.00015347518
0.00016521862
0.00018972644
0.00024229723
0.00034811757
0.00053325574
0.00081410397
0.001191004
0.0016445258
0.0021454954
0.0026675978
0.0031923368
0.0037077875
0.0042064146
0.004683648
0.0051369214
0.0055650099
0.0059675879
0.0063449271
0.0066976894
0.0070267853
0.0073332756
0.0076183045
0.0078830531
0.0081287066
0.0083564308
0.0085673571
0.008762574
0.0089431266
0.0091100203
0.0092642276
0.0094066925
0.0095383341
0.0096600444
0.0097726913
0.0098771028
0.0099740946
0.010064395
0.010148809
0.010227839
0.010302637
0.010372427
0.010442431
0.010500169
0.010592081
0.00014644338
0.00014667001
0.00014690401
0.00014713367
0.00014734904
0.00014754178
0.00014770728
0.00014784441
0.00014795406
0.00014803802
0.00014809858
0.00014813814
0.00014815908
0.00014816361
0.00014815372
0.00014813118
0.00014809757
0.00014805425
0.00014800238
0.00014794293
0.00014787675
0.00014780447
0.0001477266
0.00014764348
0.00014755531
0.00014746215
0.00014736394
0.00014726051
0.00014715158
0.00014703679
0.00014691568
0.00014678772
0.00014665231
0.0001465088
0.00014635649
0.00014619464
0.0001460225
0.00014583932
0.00014564435
0.00014543691
0.0001452164
0.0001449824
0.0001447347
0.00014447344
0.00014419932
0.00014391382
0.00014361954
0.0001433208
0.00014302436
0.00014274181
0.00014249036
0.00014229834
0.00014221349
0.00014230849
0.00014274764
0.000143762
0.00014594632
0.00015035212
0.00015962644
0.00017919013
0.00022096257
0.00030780657
0.0004673364
0.00071836366
0.0010657816
0.0014939875
0.0019750788
0.0024821283
0.0029955763
0.0035026451
0.0039951802
0.0044681461
0.0049186198
0.0053450984
0.005747036
0.0061245274
0.006478093
0.0068085291
0.0071168058
0.0074039943
0.0076712155
0.0079196042
0.0081502857
0.0083643631
0.0085629135
0.0087469891
0.008917619
0.0090758111
0.00922255
0.0093587982
0.0094854824
0.0096035151
0.0097137343
0.0098170359
0.0099140617
0.010006027
0.010092343
0.010178469
0.010250631
0.010365863
0.00014639102
0.00014657893
0.0001467731
0.00014696465
0.00014714561
0.0001473088
0.0001474498
0.00014756698
0.00014766048
0.00014773137
0.00014778123
0.00014781192
0.00014782533
0.0001478233
0.00014780754
0.00014777958
0.00014774083
0.0001476925
0.00014763567
0.00014757126
0.00014750006
0.00014742274
0.00014733983
0.00014725174
0.00014715875
0.00014706105
0.00014695872
0.00014685173
0.00014673999
0.00014662329
0.00014650136
0.00014637387
0.0001462404
0.00014610045
0.0001459535
0.00014579895
0.00014563615
0.00014546442
0.00014528306
0.00014509135
0.00014488858
0.00014467408
0.00014444725
0.00014420765
0.00014395502
0.00014368945
0.00014341152
0.00014312251
0.00014282469
0.00014252206
0.00014222092
0.00014193101
0.00014166866
0.00014145728
0.00014134314
0.00014138599
0.00014171868
0.0001425492
0.00014435571
0.00014805238
0.00015569366
0.00017190055
0.00020624212
0.00027955637
0.00041959904
0.00064690101
0.00096987791
0.0013761711
0.0018392493
0.0023319936
0.0028341566
0.0033323554
0.0038179822
0.004285652
0.0047321666
0.0051558027
0.0055558359