/*--------------------------------*- C++ -*----------------------------------*\
| =========                 |                                                 |
| \\      /  F ield         | OpenFOAM: The Open Source CFD Toolbox           |
|  \\    /   O peration     | Version:  2206                                  |
|   \\  /    A nd           | Website:  www.openfoam.com                      |
|    \\/     M anipulation  |                                                 |
\*---------------------------------------------------------------------------*/
FoamFile
{
    version     2.0;
    format      ascii;
    arch        "LSB;label=32;scalar=64";
    class       volScalarField;
    location    "500";
    object      nut;
}
// * * * * * * * * * * * * * * * * * * * * * * * * * * * * * * * * * * * * * //

dimensions      [0 2 -1 0 0 0 0];

internalField   nonuniform List<scalar> 
7480
(
1.6137892e-05
2.2439719e-05
2.3612932e-05
2.2658243e-05
2.1071473e-05
1.9603422e-05
1.8473185e-05
1.7613665e-05
1.6924756e-05
1.6342289e-05
1.5837334e-05
1.5398073e-05
1.50171e-05
1.4687355e-05
1.440201e-05
1.4154382e-05
1.3939281e-05
1.3752559e-05
1.3589402e-05
1.3447535e-05
1.3321517e-05
1.3208718e-05
1.3106663e-05
1.3013203e-05
1.2926944e-05
1.2846712e-05
1.2771721e-05
1.2701138e-05
1.2634205e-05
1.2570293e-05
1.2509062e-05
1.2450281e-05
1.2393693e-05
1.2339084e-05
1.2286189e-05
1.2234932e-05
1.2184897e-05
1.2136052e-05
1.20883e-05
1.2041499e-05
1.1995547e-05
1.1950354e-05
1.1905856e-05
1.1862013e-05
1.1818769e-05
1.1776094e-05
1.173394e-05
1.1692249e-05
1.1650992e-05
1.161014e-05
1.1569669e-05
1.1529568e-05
1.1489817e-05
1.145041e-05
1.1411328e-05
1.1372562e-05
1.1334101e-05
1.1295929e-05
1.125803e-05
1.1220395e-05
1.1183027e-05
1.1145924e-05
1.1109079e-05
1.1072488e-05
1.1036148e-05
1.1000056e-05
1.0964204e-05
1.0928586e-05
1.0893201e-05
1.0858048e-05
1.0823123e-05
1.0788422e-05
1.0753945e-05
1.071969e-05
1.0685655e-05
1.0651836e-05
1.0618232e-05
1.0584842e-05
1.0551665e-05
1.0518698e-05
1.0485939e-05
1.0453386e-05
1.0421034e-05
1.0388883e-05
1.0356933e-05
1.0325183e-05
1.0293634e-05
1.026228e-05
1.0231118e-05
1.0200118e-05
1.0169268e-05
1.013846e-05
1.0107722e-05
1.007663e-05
1.0045592e-05
1.0012898e-05
9.9807727e-06
9.9427114e-06
9.9110887e-06
9.8453327e-06
1.6610523e-06
5.1394413e-06
8.7847987e-06
1.1678977e-05
1.3402033e-05
1.4478963e-05
1.5235523e-05
1.5807628e-05
1.6219916e-05
1.6515564e-05
1.6740095e-05
1.692613e-05
1.7091203e-05
1.7243139e-05
1.7386944e-05
1.7514904e-05
1.763752e-05
1.7761483e-05
1.7886841e-05
1.8007367e-05
1.812118e-05
1.8225368e-05
1.8318055e-05
1.8399841e-05
1.8472573e-05
1.853682e-05
1.859472e-05
1.8644645e-05
1.8686233e-05
1.871986e-05
1.8747003e-05
1.8768529e-05
1.8784872e-05
1.8796488e-05
1.8803095e-05
1.8805963e-05
1.8803207e-05
1.8796755e-05
1.8786775e-05
1.8773155e-05
1.8756006e-05
1.873557e-05
1.8712145e-05
1.8685942e-05
1.8657105e-05
1.8625926e-05
1.85924e-05
1.8556626e-05
1.851875e-05
1.8478902e-05
1.8437264e-05
1.8393953e-05
1.8349098e-05
1.830282e-05
1.8255185e-05
1.8206321e-05
1.8156302e-05
1.8105178e-05
1.8052987e-05
1.7999822e-05
1.7945794e-05
1.7890977e-05
1.7835425e-05
1.7779196e-05
1.7722358e-05
1.7664961e-05
1.7607034e-05
1.7548621e-05
1.7489778e-05
1.7430552e-05
1.7370978e-05
1.731109e-05
1.7250928e-05
1.7190536e-05
1.7129942e-05
1.7069175e-05
1.700827e-05
1.694726e-05
1.6886177e-05
1.6825047e-05
1.6763895e-05
1.6702745e-05
1.6641625e-05
1.6580569e-05
1.6519616e-05
1.6458814e-05
1.6398204e-05
1.633783e-05
1.6277711e-05
1.6217875e-05
1.615825e-05
1.609888e-05
1.6039386e-05
1.5980121e-05
1.5919561e-05
1.5859789e-05
1.5795184e-05
1.573326e-05
1.5669032e-05
1.55417e-05
4.0714185e-07
4.5830597e-07
9.3737804e-07
2.2125277e-06
4.1428462e-06
6.4114937e-06
8.5176868e-06
1.033121e-05
1.2013892e-05
1.3633094e-05
1.5181285e-05
1.6640036e-05
1.8001793e-05
1.9273184e-05
2.0466056e-05
2.1606852e-05
2.2696946e-05
2.373044e-05
2.4703895e-05
2.5615241e-05
2.6465403e-05
2.7255374e-05
2.7984774e-05
2.8659438e-05
2.9284098e-05
2.9859686e-05
3.0400521e-05
3.0898716e-05
3.1357718e-05
3.1779529e-05
3.2169703e-05
3.2530798e-05
3.286479e-05
3.3173896e-05
3.3457871e-05
3.3721914e-05
3.3959488e-05
3.4179533e-05
3.4380881e-05
3.4563997e-05
3.4729925e-05
3.4879807e-05
3.5014795e-05
3.5135857e-05
3.5243754e-05
3.5339655e-05
3.5423747e-05
3.5496664e-05
3.5559067e-05
3.5611558e-05
3.5654837e-05
3.5689434e-05
3.5715916e-05
3.5734792e-05
3.5746411e-05
3.5751284e-05
3.5749757e-05
3.5742103e-05
3.5728557e-05
3.5709494e-05
3.5685328e-05
3.5656374e-05
3.5622874e-05
3.5585087e-05
3.5543291e-05
3.5497707e-05
3.5448488e-05
3.5395834e-05
3.5339972e-05
3.5281093e-05
3.5219359e-05
3.5154921e-05
3.508795e-05
3.5018621e-05
3.4947063e-05
3.487341e-05
3.4797802e-05
3.4720382e-05
3.4641277e-05
3.4560607e-05
3.447848e-05
3.4395007e-05
3.4310305e-05
3.422451e-05
3.4137772e-05
3.4050258e-05
3.3962129e-05
3.3873551e-05
3.3784632e-05
3.3695518e-05
3.3606112e-05
3.3516667e-05
3.3426322e-05
3.3336343e-05
3.3242861e-05
3.3152332e-05
3.3049713e-05
3.2959436e-05
3.2854564e-05
3.2653974e-05
5.5806256e-06
9.9503501e-07
3.9240494e-07
3.7011131e-07
5.6612784e-07
9.2351593e-07
1.7902499e-06
3.1767434e-06
4.8753858e-06
6.6197918e-06
8.3718523e-06
1.0255931e-05
1.2281828e-05
1.4411834e-05
1.6587092e-05
1.8754521e-05
2.0875967e-05
2.2930336e-05
2.4909841e-05
2.6811011e-05
2.8629892e-05
3.0362747e-05
3.200999e-05
3.3570203e-05
3.5045256e-05
3.6434308e-05
3.7742042e-05
3.8973364e-05
4.0130892e-05
4.1221734e-05
4.2249003e-05
4.3216804e-05
4.4128952e-05
4.4990356e-05
4.5801614e-05
4.6571315e-05
4.7279157e-05
4.7953575e-05
4.8582918e-05
4.9171998e-05
4.9722994e-05
5.0238108e-05
5.0719488e-05
5.1169048e-05
5.1588382e-05
5.1979967e-05
5.2343886e-05
5.2681824e-05
5.2995093e-05
5.3284966e-05
5.3552885e-05
5.3799969e-05
5.4027471e-05
5.4236472e-05
5.4427754e-05
5.4602454e-05
5.4761317e-05
5.490498e-05
5.5033984e-05
5.5149188e-05
5.5251478e-05
5.5341554e-05
5.5419966e-05
5.548733e-05
5.5544264e-05
5.5591274e-05
5.5628728e-05
5.5657096e-05
5.5676891e-05
5.5688545e-05
5.5692438e-05
5.5688926e-05
5.567841e-05
5.5661293e-05
5.5637879e-05
5.5608482e-05
5.5573432e-05
5.5533052e-05
5.5487644e-05
5.5437488e-05
5.5382847e-05
5.5323981e-05
5.5261164e-05
5.5194707e-05
5.5124944e-05
5.5052242e-05
5.4976961e-05
5.489947e-05
5.482005e-05
5.4739037e-05
5.4656394e-05
5.4572613e-05
5.448651e-05
5.4400084e-05
5.4307695e-05
5.4219102e-05
5.4111943e-05
5.4024687e-05
5.3909186e-05
5.3693496e-05
4.5674263e-05
1.4842359e-05
4.2997965e-06
1.676966e-06
8.8616356e-07
6.0988193e-07
5.5348117e-07
6.6151127e-07
8.9645913e-07
1.447534e-06
2.3810222e-06
3.5520483e-06
4.9992191e-06
6.6375595e-06
8.5171519e-06
1.0679171e-05
1.3101891e-05
1.5722379e-05
1.8457619e-05
2.122682e-05
2.3969941e-05
2.6653007e-05
2.9261396e-05
3.1786614e-05
3.4221182e-05
3.6557701e-05
3.8793312e-05
4.0928775e-05
4.2968967e-05
4.4916014e-05
4.677132e-05
4.8537785e-05
5.0218351e-05
5.181472e-05
5.3331482e-05
5.4777043e-05
5.6144084e-05
5.7443355e-05
5.867712e-05
5.9846081e-05
6.0952793e-05
6.2000779e-05
6.2992919e-05
6.3931813e-05
6.4819802e-05
6.5661378e-05
6.6456261e-05
6.7206443e-05
6.7913505e-05
6.8579524e-05
6.9206815e-05
6.9797045e-05
7.0352021e-05
7.0873522e-05
7.1363083e-05
7.1822701e-05
7.2253458e-05
7.2656416e-05
7.3032478e-05
7.3383186e-05
7.3709995e-05
7.4014051e-05
7.4296286e-05
7.4557795e-05
7.4799628e-05
7.5022649e-05
7.5227491e-05
7.5415005e-05
7.5586079e-05
7.5741451e-05
7.5881798e-05
7.6007748e-05
7.6120027e-05
7.6219347e-05
7.6306239e-05
7.6381273e-05
7.6445036e-05
7.6498103e-05
7.6541015e-05
7.657428e-05
7.6598375e-05
7.6613775e-05
7.6620973e-05
7.6620518e-05
7.6613001e-05
7.6599064e-05
7.6579348e-05
7.6554505e-05
7.6525071e-05
7.6491644e-05
7.6454344e-05
7.6413926e-05
7.6369039e-05
7.6322243e-05
7.6266646e-05
7.6214275e-05
7.6137265e-05
7.6085522e-05
7.5988919e-05
7.581516e-05
8.4959733e-05
6.204265e-05
3.3280132e-05
1.6121128e-05
8.0733607e-06
4.3937117e-06
2.6228673e-06
1.7109121e-06
1.2220402e-06
9.8361272e-07
9.3096801e-07
1.0227949e-06
1.2476938e-06
1.775665e-06
2.5907722e-06
3.6996986e-06
5.1655302e-06
6.9393409e-06
9.0807786e-06
1.1609163e-05
1.44825e-05
1.7610659e-05
2.0884456e-05
2.4205109e-05
2.7504874e-05
3.0747132e-05
3.391367e-05
3.6992121e-05
3.9973315e-05
4.2851483e-05
4.5624293e-05
4.8291661e-05
5.0854161e-05
5.331227e-05
5.5667817e-05
5.7926338e-05
6.008672e-05
6.2153232e-05
6.4129605e-05
6.6018647e-05
6.7823343e-05
6.954591e-05
7.1189102e-05
7.2755963e-05
7.4248212e-05
7.56692e-05
7.7022247e-05
7.8310123e-05
7.9535813e-05
8.0701733e-05
8.1810028e-05
8.2862549e-05
8.3861717e-05
8.4809875e-05
8.5709333e-05
8.6563071e-05
8.7372159e-05
8.8138137e-05
8.8862897e-05
8.9548471e-05
9.0196496e-05
9.0808554e-05
9.1385976e-05
9.1930178e-05
9.244293e-05
9.2925543e-05
9.3378926e-05
9.3804419e-05
9.4203337e-05
9.4576754e-05
9.492569e-05
9.5251105e-05
9.5554126e-05
9.5835826e-05
9.6096992e-05
9.6338512e-05
9.6561289e-05
9.6766201e-05
9.6954085e-05
9.712573e-05
9.7281881e-05
9.7423281e-05
9.7550696e-05
9.766497e-05
9.7767013e-05
9.7857808e-05
9.793835e-05
9.8009648e-05
9.8072583e-05
9.8128084e-05
9.8176521e-05
9.8218958e-05
9.8254017e-05
9.8284708e-05
9.8303291e-05
9.8323337e-05
9.8312659e-05
9.8331337e-05
9.8282892e-05
9.821002e-05
9.4430369e-05
8.9634839e-05
7.5918339e-05
5.6726928e-05
3.8478936e-05
2.5101529e-05
1.6274364e-05
1.0670759e-05
7.1345299e-06
4.8510815e-06
3.3948729e-06
2.442423e-06
1.8337369e-06
1.4908003e-06
1.3493279e-06
1.3776908e-06
1.5608282e-06
2.0642863e-06
2.8796405e-06
4.0562706e-06
5.6836016e-06
7.7236953e-06
1.024972e-05
1.3250673e-05
1.6650052e-05
2.0323255e-05
2.4137274e-05
2.7986359e-05
3.180685e-05
3.5567228e-05
3.9249512e-05
4.2839303e-05
4.6325755e-05
4.9702774e-05
5.2967607e-05
5.6120737e-05
5.9161025e-05
6.2089328e-05
6.4907825e-05
6.761872e-05
7.0224405e-05
7.2727105e-05
7.5129231e-05
7.7433578e-05
7.964237e-05
8.1758478e-05
8.3785116e-05
8.5725355e-05
8.758237e-05
8.9359086e-05
9.1058129e-05
9.268266e-05
9.4234889e-05
9.5717192e-05
9.7132182e-05
9.8481448e-05
9.9768302e-05
0.00010099539
0.0001021654
0.00010328027
0.00010434201
0.00010535262
0.00010631378
0.00010722756
0.00010809627
0.00010892146
0.00010970427
0.00011044663
0.00011115012
0.00011181636
0.00011244688
0.00011304318
0.00011360644
0.00011413796
0.00011463901
0.00011511084
0.00011555472
0.00011597186
0.00011636343
0.00011673055
0.00011707428
0.00011739566
0.00011769578
0.00011797582
0.00011823706
0.00011848088
0.00011870869
0.00011892194
0.00011912191
0.00011930996
0.00011948678
0.00011965381
0.00011980978
0.0001199581
0.00012009047
0.00012022158
0.00012031559
0.00012044261
0.000120473
0.00012056244
9.5976666e-05
9.6121681e-05
9.3327121e-05
8.6157741e-05
7.4941708e-05
6.1724697e-05
4.8779478e-05
3.7461705e-05
2.8242227e-05
2.1048082e-05
1.557714e-05
1.1477488e-05
8.3791911e-06
6.1325631e-06
4.4875771e-06
3.3266654e-06
2.5273245e-06
2.0407418e-06
1.7974453e-06
1.7683846e-06
1.9410318e-06
2.4980245e-06
3.4229755e-06
4.8108533e-06
6.7430315e-06
9.2187409e-06
1.22814e-05
1.5877089e-05
1.9877391e-05
2.4122771e-05
2.8471844e-05
3.2830924e-05
3.7150469e-05
4.1403527e-05
4.5569965e-05
4.9634975e-05
5.3589079e-05
5.7427317e-05
6.1147192e-05
6.4747484e-05
6.8228249e-05
7.1590279e-05
7.483476e-05
7.7963453e-05
8.0978172e-05
8.3881119e-05
8.6674944e-05
8.936247e-05
9.1946699e-05
9.4430618e-05
9.6817029e-05
9.9109041e-05
0.00010130935
0.0001034206
0.00010544559
0.00010738653
0.00010924646
0.00011102837
0.00011273526
0.00011436968
0.00011593405
0.00011743075
0.00011886244
0.00012023105
0.00012153829
0.00012278655
0.00012397853
0.000125116
0.00012620085
0.00012723505
0.00012822048
0.00012915901
0.00013005226
0.00013090195
0.0001317096
0.00013247687
0.00013320538
0.00013389671
0.00013455239
0.0001351739
0.00013576262
0.00013631995
0.0001368473
0.00013734625
0.00013781847
0.00013826578
0.00013869006
0.00013909326
0.00013947714
0.00013984354
0.0001401936
0.00014052917
0.00014084921
0.00014115753
0.00014144552
0.00014172873
0.00014196799
0.00014224409
0.00014238615
0.00014270136
9.6494717e-05
9.7282776e-05
9.744062e-05
9.6028257e-05
9.2353667e-05
8.6275831e-05
7.8232746e-05
6.9011435e-05
5.9433209e-05
5.0156839e-05
4.1599334e-05
3.3973455e-05
2.7352466e-05
2.1729353e-05
1.7026375e-05
1.3152161e-05
1.0005644e-05
7.5306085e-06
5.6364613e-06
4.2341019e-06
3.2322375e-06
2.6059157e-06
2.2781757e-06
2.217512e-06
2.4704058e-06
3.1708069e-06
4.3537125e-06
6.1529942e-06
8.5774106e-06
1.1690682e-05
1.5460535e-05
1.9760317e-05
2.4408038e-05
2.9229136e-05
3.4100476e-05
3.8954165e-05
4.3753613e-05
4.8473117e-05
5.3093142e-05
5.7601288e-05
6.1990655e-05
6.6256959e-05
7.0397478e-05
7.4411139e-05
7.8297849e-05
8.2058192e-05
8.5693499e-05
8.920563e-05
9.2596835e-05
9.5869614e-05
9.90265e-05
0.00010207029
0.00010500371
0.00010782942
0.00011055023
0.00011316863
0.00011568752
0.00011810993
0.00012043902
0.00012267767
0.00012482865
0.00012689459
0.00012887835
0.00013078237
0.00013260882
0.00013436019
0.00013603936
0.00013764864
0.00013919029
0.00014066658
0.00014207974
0.000143432
0.00014472543
0.00014596182
0.00014714334
0.00014827193
0.00014934954
0.00015037814
0.00015135962
0.00015229581
0.00015318846
0.0001540393
0.00015485015
0.00015562293
0.00015635976
0.00015706293
0.00015773484
0.00015837796
0.00015899461
0.00015958718
0.00016015732
0.00016070739
0.00016123669
0.00016174945
0.00016223693
0.00016271546
0.00016314264
0.00016361102
0.00016389998
0.00016450612
9.7155848e-05
9.7803631e-05
9.8342447e-05
9.8458094e-05
9.7781218e-05
9.5936727e-05
9.2730622e-05
8.8176636e-05
8.2454716e-05
7.5853744e-05
6.8725233e-05
6.1378991e-05
5.4076422e-05
4.7011372e-05
4.0320126e-05
3.4103328e-05
2.8416949e-05
2.3299154e-05
1.8776049e-05
1.4856972e-05
1.1525498e-05
8.8039082e-06
6.6514762e-06
5.0126002e-06
3.8480819e-06
3.1181866e-06
2.7649774e-06
2.7439411e-06
3.2383527e-06
4.2530612e-06
5.927351e-06
8.3456772e-06
1.1540765e-05
1.5507625e-05
2.0118643e-05
2.5168924e-05
3.0453447e-05
3.5824e-05
4.1196877e-05
4.6526391e-05
5.1781224e-05
5.6938126e-05
6.1982062e-05
6.690401e-05
7.1697993e-05
7.6360156e-05
8.0888612e-05
8.5282799e-05
8.9543069e-05
9.367052e-05
9.7666674e-05
0.0001015335
0.00010527319
0.00010888807
0.00011238063
0.00011575328
0.00011900867
0.00012214968
0.0001251794
0.0001281008
0.00013091678
0.00013363016
0.00013624387
0.00013876066
0.00014118303
0.00014351364
0.00014575543
0.00014791111
0.00014998324
0.00015197435
0.00015388698
0.00015572362
0.00015748671
0.00015917841
0.00016080113
0.00016235716
0.00016384883
0.00016527842
0.00016664819
0.00016796034
0.00016921697
0.00017042017
0.00017157211
0.00017267512
0.00017373175
0.00017474479
0.00017571714
0.00017665187
0.00017755191
0.00017842024
0.0001792591
0.00018007145
0.00018085701
0.00018162051
0.00018235324
0.00018307226
0.00018373196
0.00018443793
0.00018491151
0.00018587521
9.8042572e-05
9.8511136e-05
9.894519e-05
9.9234858e-05
9.92693e-05
9.8894069e-05
9.7939373e-05
9.6262749e-05
9.3778221e-05
9.047173e-05
8.6384169e-05
8.1622871e-05
7.6326375e-05
7.0639269e-05
6.4698354e-05
5.8629739e-05
5.2535549e-05
4.6526969e-05
4.0684052e-05
3.5080045e-05
2.9760925e-05
2.4799183e-05
2.025844e-05
1.6186376e-05
1.2639469e-05
9.6752809e-06
7.305139e-06
5.4939595e-06
4.270522e-06
3.5479982e-06
3.2706843e-06
3.5372816e-06
4.4241842e-06
6.0395941e-06
8.5090317e-06
1.1854116e-05
1.6082412e-05
2.1053528e-05
2.6534744e-05
3.2293294e-05
3.8162594e-05
4.4048682e-05
4.9898974e-05
5.5677124e-05
6.1356858e-05
6.6921265e-05
7.2359733e-05
7.7665142e-05
8.2833018e-05
8.7860982e-05
9.2747971e-05
9.7493976e-05
0.00010209976
0.00010656654
0.00011089598
0.00011508991
0.00011915046
0.00012308006
0.00012688144
0.00013055739
0.00013411072
0.00013754422
0.00014086078
0.00014406326
0.00014715435
0.00015013678
0.00015301354
0.00015578752
0.00015846151
0.00016103825
0.00016352047
0.00016591092
0.00016821227
0.00017042702
0.00017255781
0.00017460722
0.00017657789
0.00017847243
0.00018029342
0.00018204339
0.0001837248
0.00018534009
0.00018689177
0.00018838255
0.00018981543
0.00019119366
0.00019252071
0.00019380022
0.00019503577
0.00019623101
0.00019738883
0.00019851283
0.00019960328
0.00020066549
0.00020169087
0.00020269731
0.0002036359
0.0002046266
0.00020532492
0.00020671423
9.9135335e-05
9.9460278e-05
9.9760445e-05
9.997509e-05
0.00010007354
0.00010002031
9.9757409e-05
9.9205414e-05
9.8275619e-05
9.6888717e-05
9.4985018e-05
9.2536863e-05
8.9550066e-05
8.6058043e-05
8.211334e-05
7.7779138e-05
7.3130469e-05
6.819234e-05
6.3026321e-05
5.7699536e-05
5.226679e-05
4.6780368e-05
4.132272e-05
3.5955665e-05
3.073652e-05
2.5743762e-05
2.1071407e-05
1.6792266e-05
1.3051731e-05
9.9265475e-06
7.4374998e-06
5.6460712e-06
4.5058838e-06
3.9471741e-06
4.0174826e-06
4.8280826e-06
6.4652389e-06
9.0693021e-06
1.2665426e-05
1.7252156e-05
2.2658534e-05
2.8617219e-05
3.4872597e-05
4.1249171e-05
4.7649115e-05
5.4015455e-05
6.030835e-05
6.6500035e-05
7.2572696e-05
7.8514679e-05
8.4318125e-05
8.997817e-05
9.5492038e-05
0.00010085831
0.00010607665
0.00011114742
0.00011607158
0.00012085061
0.00012548647
0.00012998136
0.00013433769
0.00013855796
0.0001426448
0.00014660097
0.00015042913
0.00015413201
0.0001577125
0.00016117355
0.00016451802
0.00016774877
0.00017086867
0.00017388059
0.00017678739
0.0001795918
0.00018229664
0.00018490475
0.00018741899
0.00018984226
0.00019217743
0.00019442733
0.00019659472
0.00019868238
0.00020069315
0.00020263011
0.00020449664
0.00020629647
0.00020803362
0.00020971232
0.00021133681
0.00021291144
0.00021443981
0.00021592625
0.00021737167
0.00021878199
0.00022014894
0.00022149126
0.00022275671
0.00022408085
0.00022504631
0.00022693082
0.00010041479
0.00010062647
0.0001008171
0.00010094253
0.00010098778
0.00010095
0.0001008232
0.00010058754
0.00010020575
9.9627837e-05
9.8798854e-05
9.7667081e-05
9.6191023e-05
9.4343526e-05
9.2113204e-05
8.9502221e-05
8.6529472e-05
8.3208302e-05
7.9557165e-05
7.5602911e-05
7.1375116e-05
6.6909751e-05
6.2207378e-05
5.7284236e-05
5.2174368e-05
4.692131e-05
4.1580716e-05
3.6218988e-05
3.0916319e-05
2.577856e-05
2.0903395e-05
1.6465192e-05
1.2623563e-05
9.4659155e-06
7.1040612e-06
5.543896e-06
4.7080313e-06
4.6409035e-06
5.442666e-06
7.206424e-06
1.0056988e-05
1.4035975e-05
1.910279e-05
2.5034018e-05
3.152357e-05
3.8302917e-05
4.5199503e-05
5.2117672e-05
5.899833e-05
6.580007e-05
7.2495214e-05
7.9065942e-05
8.5500218e-05
9.1789949e-05
9.7930019e-05
0.00010391729
0.00010975009
0.0001154279
0.00012095104
0.0001263205
0.00013153771
0.00013660444
0.00014152279
0.00014629508
0.0001509237
0.00015541115
0.00015976011
0.00016397338
0.00016805376
0.00017200411
0.00017582728
0.00017952619
0.00018310378
0.00018656292
0.00018990656
0.00019313766
0.0001962593
0.00019927455
0.00020218653
0.00020499834
0.00020771301
0.00021033358
0.00021286321
0.00021530528
0.00021766357
0.00021994223
0.00022214579
0.00022427909
0.00022634701
0.00022835465
0.00023030636
0.00023220723
0.00023405894
0.00023586806
0.00023762681
0.00023935484
0.00024099655
0.00024270423
0.00024398137
0.0002464323
0.00010186423
0.00010198644
0.00010208998
0.00010214159
0.00010212907
0.00010205358
0.00010192159
0.00010173657
0.00010149271
0.00010117328
0.00010075208
0.00010019639
9.947057e-05
9.8539719e-05
9.7373122e-05
9.5946001e-05
9.4242218e-05
9.2251446e-05
8.9967494e-05
8.7389239e-05
8.4519796e-05
8.1369819e-05
7.7942623e-05
7.4238634e-05
7.0262622e-05
6.6026004e-05
6.1539555e-05
5.6768212e-05
5.1734497e-05
4.6479639e-05
4.104494e-05
3.5521991e-05
3.0019532e-05
2.4650767e-05
1.9613341e-05
1.5136636e-05
1.1366985e-05
8.4903264e-06
6.5564561e-06
5.4879706e-06
5.3847852e-06
6.2759339e-06
8.3072116e-06
1.1546438e-05
1.606678e-05
2.1747829e-05
2.8294193e-05
3.5364519e-05
4.2693119e-05
5.0121932e-05
5.7561876e-05
6.4954645e-05
7.2259972e-05
7.9451429e-05
8.6511473e-05
9.3428111e-05
0.00010019339
0.00010680215
0.00011325125
0.00011953901
0.00012566488
0.00013162911
0.00013743262
0.0001430768
0.00014856339
0.00015389433
0.00015907184
0.00016409834
0.00016897637
0.0001737086
0.00017829774
0.00018274663
0.00018705813
0.00019123516
0.00019528068
0.00019919773
0.00020298946
0.0002066591
0.00021020991
0.00021364518
0.00021696816
0.00022018214
0.0002232905
0.00022629692
0.0002292055
0.00023202077
0.00023474774
0.00023739182
0.00023995854
0.00024245373
0.00024488253
0.00024725086
0.00024956123
0.00025182096
0.00025402289
0.00025618762
0.00025825629
0.00026039886
0.00026203415
0.00026512461
0.00010347237
0.00010352296
0.0001035566
0.00010354852
0.00010348791
0.00010337466
0.00010321526
0.0001030177
0.00010278682
0.00010252201
0.00010221658
0.00010185791
0.00010142816
0.00010090547
0.00010026581
9.9484607e-05
9.8538631e-05
9.7407066e-05
9.6071707e-05
9.4517218e-05
9.2731026e-05
9.0704694e-05
8.8431716e-05
8.5905468e-05
8.3119706e-05
8.0070066e-05
7.6756313e-05
7.3161939e-05
6.9273362e-05
6.5089405e-05
6.0600366e-05
5.5759535e-05
5.0590637e-05
4.5116308e-05
3.9413698e-05
3.3607837e-05
2.7818696e-05
2.2271461e-05
1.725148e-05
1.2952936e-05
9.6652373e-06
7.4523952e-06
6.2426178e-06
6.256843e-06
7.3829415e-06
9.861859e-06
1.369638e-05
1.8927494e-05
2.533945e-05
3.2564394e-05
4.0245935e-05
4.8140825e-05
5.6111643e-05
6.4076304e-05
7.197933e-05
7.9783624e-05
8.7464741e-05
9.5005956e-05
0.00010239585
0.00010962683
0.00011669393
0.00012359421
0.00013032611
0.00013688918
0.00014328372
0.00014951055
0.000155571
0.00016146674
0.00016719977
0.00017277229
0.00017818667
0.00018344547
0.00018855136
0.00019350712
0.00019831562
0.00020297985
0.00020750294
0.00021188816
0.00021613884
0.00022025839
0.0002242502
0.00022811773
0.00023186456
0.00023549458
0.00023901214
0.00024242212
0.00024572995
0.00024894154
0.00025206308
0.00025510109
0.00025806155
0.00026095122
0.00026377352
0.00026653657
0.00026923402
0.0002718875
0.00027443496
0.00027706484
0.00027910652
0.00028291168
0.00010522954
0.00010522241
0.00010519951
0.00010514273
0.00010504272
0.00010489803
0.00010471314
0.00010449512
0.00010425042
0.00010398324
0.00010369487
0.00010338338
0.00010304328
0.00010266551
0.0001022378
0.0001017453
0.00010117127
0.000100498
9.9707544e-05
9.8782323e-05
9.7705442e-05
9.6461314e-05
9.5035898e-05
9.3416241e-05
9.159005e-05
8.9545539e-05
8.7273059e-05
8.4760793e-05
8.1993953e-05
7.8958971e-05
7.5643723e-05
7.2017932e-05
6.8057328e-05
6.3752926e-05
5.9050129e-05
5.3930763e-05
4.840645e-05
4.2528516e-05
3.6443988e-05
3.0272281e-05
2.4284539e-05
1.8812233e-05
1.4085952e-05
1.0535393e-05
8.1753727e-06
6.9940794e-06
7.2414108e-06
8.8507741e-06
1.197246e-05
1.6638927e-05
2.2763818e-05
3.0009794e-05
3.7957063e-05
4.6268992e-05
5.4741893e-05
6.3260146e-05
7.1749522e-05
8.0159937e-05
8.8458279e-05
9.6622168e-05
0.00010463628
0.00011249029
0.00012017733
0.00012769298
0.00013503455
0.00014220064
0.00014919078
0.00015600528
0.00016264504
0.00016911141
0.00017540608
0.00018153105
0.00018748857
0.00019328109
0.00019891121
0.00020438172
0.00020969563
0.00021485608
0.00021986639
0.00022472999
0.00022945032
0.00023403093
0.00023847552
0.00024278814
0.00024697331
0.00025103618
0.00025498252
0.00025881872
0.00026255153
0.00026618818
0.00026973548
0.00027320102
0.00027658924
0.00027990912
0.00028315525
0.00028635039
0.00028942946
0.00029260006
0.00029509791
0.00029969522
0.00010712743
0.00010707347
0.00010700455
0.00010690773
0.00010677512
0.00010660448
0.00010639851
0.00010616261
0.0001059024
0.00010562258
0.00010532656
0.00010501621
0.00010469159
0.0001043507
0.00010398934
0.00010360113
0.0001031776
0.00010270832
0.00010218135
0.00010158357
0.00010090104
0.00010011935
9.9224019e-05
9.8200696e-05
9.7035241e-05
9.5713585e-05
9.422217e-05
9.2547551e-05
9.067532e-05
8.8590102e-05
8.6277039e-05
8.3716979e-05
8.0886072e-05
7.776516e-05
7.4320268e-05
7.0511757e-05
6.6308898e-05
6.1673943e-05
5.6547014e-05
5.0923712e-05
4.4843957e-05
3.8475054e-05
3.1926743e-05
2.5561413e-05
1.9709315e-05
1.4722092e-05
1.1038911e-05
8.6852018e-06
7.859183e-06
8.551968e-06
1.0903373e-05
1.492007e-05
2.0636226e-05
2.7781654e-05
3.5906652e-05
4.4585347e-05
5.3533201e-05
6.2588847e-05
7.1654398e-05
8.0664769e-05
8.9576973e-05
9.836233e-05
0.00010700118
0.00011548008
0.00012378984
0.00013192428
0.00013987938
0.00014765274
0.00015524315
0.00016265036
0.00016987479
0.00017691742
0.00018377972
0.00019046347
0.00019697079
0.00020330405
0.00020946592
0.00021545932
0.00022128736
0.00022695337
0.00023246076
0.00023781306
0.00024301401
0.0002480677
0.00025297877
0.00025775254
0.00026239505
0.00026691306
0.00027131386
0.00027560533
0.00027979505
0.00028389152
0.00028790021
0.00029183101
0.00029567966
0.00029947005
0.0003031344
0.0003069
0.00030990517
0.00031537444
0.00010915893
0.00010906663
0.00010895993
0.00010882992
0.00010867008
0.00010847775
0.00010825436
0.00010800383
0.00010773067
0.00010743901
0.00010713232
0.00010681332
0.00010648383
0.00010614463
0.00010579533
0.00010543426
0.00010505835
0.00010466303
0.00010424229
0.00010378868
0.00010329351
0.0001027469
0.00010213805
0.00010145538
0.00010068674
9.9819509e-05
9.8840688e-05
9.7737054e-05
9.6494941e-05
9.5099934e-05
9.3537158e-05
9.1790624e-05
8.9841576e-05
8.7670617e-05
8.5254643e-05
8.2564415e-05
7.9568333e-05
7.6232067e-05
7.2503557e-05
6.8333679e-05
6.3686125e-05
5.8478091e-05
5.2681961e-05
4.6355788e-05
3.9656828e-05
3.2749123e-05
2.604302e-05
1.9874601e-05
1.4836936e-05
1.1231268e-05
9.1496913e-06
8.9195146e-06
1.041024e-05
1.3760339e-05
1.8991116e-05
2.5939818e-05
3.4162287e-05
4.3157871e-05
5.2553635e-05
6.2131351e-05
7.176427e-05
8.1370363e-05
9.089531e-05
0.00010030296
0.0001095686
0.00011867521
0.00012761105
0.00013636806
0.00014494088
0.00015332607
0.00016152166
0.00016952676
0.00017734136
0.00018496609
0.00019240216
0.00019965119
0.00020671525
0.00021359677
0.00022029851
0.0002268235
0.00023317495
0.00023935629
0.00024537115
0.00025122359
0.00025691825
0.00026246052
0.00026785659
0.00027311354
0.00027823908
0.00028324168
0.00028812969
0.00029291246
0.00029759656
0.00030219282
0.0003066983
0.00031113812
0.0003154421
0.00031985769
0.00032342244
0.00032984594
0.00011131738
0.00011119339
0.00011105544
0.00011089772
0.00011071492
0.00011050425
0.00011026624
0.00011000366
0.00010972004
0.0001094188
0.00010910302
0.00010877532
0.00010843784
0.00010809214
0.00010773916
0.00010737918
0.00010701174
0.00010663549
0.00010624814
0.00010584638
0.00010542589
0.00010498124
0.00010450597
0.00010399262
0.0001034328
0.00010281726
0.00010213599
0.00010137828
0.00010053275
9.9587337e-05
9.8529206e-05
9.7344767e-05
9.6019064e-05
9.4535816e-05
9.2877036e-05
9.1021689e-05
8.8945342e-05
8.6620936e-05
8.4014252e-05
8.1083912e-05
7.7790207e-05
7.4070764e-05
6.9858809e-05
6.5114786e-05
5.9733895e-05
5.3684007e-05
4.7047366e-05
3.9947323e-05
3.2687118e-05
2.5681476e-05
1.9384009e-05
1.450467e-05
1.1205701e-05
9.8808985e-06
1.0467254e-05
1.314356e-05
1.7838114e-05
2.4515499e-05
3.2765613e-05
4.2032763e-05
5.1854265e-05
6.1944698e-05
7.2141426e-05
8.2342661e-05
9.2481518e-05
0.00010251373
0.00011240915
0.00012214702
0.00013171292
0.0001410969
0.00015029217
0.00015929423
0.00016810031
0.00017670893
0.00018511962
0.00019333271
0.0002013492
0.00020917068
0.00021679922
0.00022423734
0.00023148785
0.00023855386
0.00024543878
0.0002521465
0.00025868152
0.00026504917
0.00027125572
0.00027730839
0.00028321525
0.00028898525
0.00029462747
0.00030015206
0.00030556674
0.00031088328
0.00031610026
0.00032124407
0.00032624252
0.0003313637
0.00033554121
0.00034300359
0.00011359637
0.00011344599
0.00011328197
0.00011310093
0.00011289861
0.00011267228
0.00011242184
0.00011214919
0.00011185702
0.00011154814
0.00011122516
0.00011089044
0.00011054599
0.00011019345
0.00010983409
0.00010946882
0.00010909813
0.00010872205
0.00010834008
0.00010795117
0.0001075536
0.00010714494
0.00010672199
0.00010628075
0.00010581636
0.00010532314
0.00010479457
0.00010422329
0.00010360118
0.00010291928
0.00010216783
0.00010133625
0.00010041299
9.9385407e-05
9.823959e-05
9.6959956e-05
9.5528655e-05
9.3925491e-05
9.2126851e-05
9.0103908e-05
8.7824864e-05
8.5249879e-05
8.2328003e-05
7.9011953e-05
7.5226556e-05
7.0893165e-05
6.5961184e-05
6.0299274e-05
5.3898174e-05
4.6854145e-05
3.9316973e-05
3.1734665e-05
2.4487598e-05
1.8392044e-05
1.3895972e-05
1.1298839e-05
1.100868e-05
1.2940062e-05
1.7096026e-05
2.3486024e-05
3.1735346e-05
4.1250364e-05
5.1485229e-05
6.2083884e-05
7.284379e-05
8.3641646e-05
9.4397197e-05
0.00010505754
0.00011558689
0.00012596056
0.00013616144
0.00014617758
0.00015600075
0.00016562541
0.00017504798
0.0001842664
0.00019327982
0.00020208832
0.00021069284
0.00021909494
0.00022729673
0.00023530074
0.00024310995
0.00025072787
0.00025815872
0.00026540762
0.00027248072
0.00027938529
0.00028612962
0.00029272303
0.00029917524
0.00030549714
0.0003116976
0.00031778935
0.00032377265
0.00032967523
0.00033542333
0.00034130614
0.00034615021
0.00035473836
0.00011598978
0.00011581722
0.00011563131
0.0001154305
0.00011521146
0.00011497163
0.00011471048
0.00011442924
0.00011412996
0.00011381488
0.00011348622
0.00011314602
0.0001127961
0.00011243799
0.00011207298
0.00011170207
0.00011132604
0.00011094538
0.00011056029
0.00011017068
0.0001097761
0.00010937568
0.00010896812
0.0001085516
0.00010812372
0.00010768147
0.00010722119
0.00010673852
0.00010622837
0.00010568493
0.0001051016
0.000104471
0.00010378489
0.00010303412
0.00010220854
0.00010129681
0.00010028614
9.9162017e-05
9.7907865e-05
9.6504102e-05
9.4928051e-05
9.3153025e-05
9.1145442e-05
8.8868029e-05
8.6273544e-05
8.3301831e-05
7.989604e-05
7.5962814e-05
7.1419803e-05
6.6184814e-05
6.0121903e-05
5.3269605e-05
4.5700883e-05
3.7763274e-05
2.9875766e-05
2.2680342e-05
1.7021332e-05
1.3263716e-05
1.2045762e-05
1.3180814e-05
1.6796038e-05
2.2877497e-05
3.1102574e-05
4.0848388e-05
5.1489589e-05
6.2596333e-05
7.3922308e-05
8.5320969e-05
9.6698128e-05
0.00010799196
0.00011916084
0.00013017616
0.00014101802
0.00015167253
0.00016213002
0.00017238389
0.00018242983
0.00019226529
0.00020188913
0.0002113013
0.00022050266
0.00022949476
0.00023827977
0.00024686058
0.00025524088
0.00026342537
0.00027141991
0.00027923163
0.00028686884
0.00029434114
0.00030165873
0.00030883318
0.00031587447
0.0003227963