/*--------------------------------*- C++ -*----------------------------------*\
| =========                 |                                                 |
| \\      /  F ield         | OpenFOAM: The Open Source CFD Toolbox           |
|  \\    /   O peration     | Version:  2206                                  |
|   \\  /    A nd           | Website:  www.openfoam.com                      |
|    \\/     M anipulation  |                                                 |
\*---------------------------------------------------------------------------*/
FoamFile
{
    version     2.0;
    format      ascii;
    arch        "LSB;label=32;scalar=64";
    class       volScalarField;
    location    "500";
    object      p;
}
// * * * * * * * * * * * * * * * * * * * * * * * * * * * * * * * * * * * * * //

dimensions      [0 2 -2 0 0 0 0];

internalField   nonuniform List<scalar> 
7480
(
0.062713123
0.051789801
0.036368285
0.027038344
0.021808216
0.018685015
0.01672332
0.015225329
0.013912377
0.012815372
0.011943636
0.011265084
0.010751799
0.010375726
0.010110136
0.0099328316
0.0098226522
0.0097654466
0.0097387946
0.0097394358
0.0097654864
0.0097903622
0.0098079807
0.0098214996
0.0098288453
0.0098287658
0.0098220205
0.0098088155
0.009787792
0.0097595268
0.0097252438
0.0096853514
0.0096403885
0.0095910927
0.0095373726
0.009479541
0.0094176336
0.0093514647
0.0092816557
0.0092085544
0.0091321727
0.0090524056
0.0089698012
0.0088844716
0.0087963439
0.0087058405
0.0086128228
0.008517356
0.0084196604
0.008319479
0.0082171689
0.0081127245
0.0080061302
0.0078975843
0.0077868517
0.0076741601
0.0075594387
0.0074426753
0.0073238983
0.0072030094
0.0070801629
0.0069552228
0.0068282795
0.0066992393
0.0065681209
0.0064348849
0.0062994898
0.0061619139
0.0060221185
0.0058801036
0.005735812
0.0055892445
0.0054403432
0.0052891231
0.0051355215
0.0049795576
0.004821181
0.0046604366
0.0044972898
0.0043318112
0.0041639865
0.0039939238
0.0038216482
0.0036473211
0.0034710766
0.0032931153
0.0031137819
0.0029333607
0.0027525507
0.002571658
0.0023923849
0.0022141579
0.002042853
0.0018710502
0.001725326
0.0015587438
0.0014969748
0.0013095551
0.0021262369
-0.0017943604
0.059020221
0.050775554
0.038427589
0.029180232
0.022929571
0.019184482
0.016968941
0.015377952
0.014028041
0.012915022
0.012032275
0.011344354
0.010822679
0.010438673
0.010165544
0.0099813878
0.0098653366
0.0098024482
0.0097772455
0.0097783797
0.0097950171
0.0098131276
0.0098284898
0.009840001
0.0098455409
0.0098439132
0.0098358213
0.0098214102
0.0097993188
0.0097701269
0.0097350313
0.009694408
0.0096487888
0.0095989006
0.0095446425
0.009486325
0.0094239797
0.0093574157
0.0092872449
0.0092138124
0.0091371255
0.0090570775
0.0089742151
0.0088886452
0.0088002943
0.0087095835
0.0086163719
0.008520725
0.008422861
0.0083225217
0.0082200639
0.0081154802
0.0080087547
0.007900085
0.0077892354
0.0076764333
0.0075616073
0.0074447451
0.0073258745
0.0072048967
0.0070819658
0.0069569454
0.0068299257
0.0067008129
0.0065696253
0.0064363235
0.0063008657
0.0061632302
0.0060233779
0.0058813088
0.0057369653
0.0055903485
0.0054414
0.0052901349
0.0051364903
0.0049804854
0.0048220697
0.0046612879
0.0044981053
0.0043325925
0.0041647352
0.0039946414
0.003822336
0.0036479806
0.003471709
0.0032937218
0.0031143638
0.0029339191
0.0027530869
0.0025721735
0.0023928814
0.0022146369
0.0020433179
0.0018715022
0.0017257731
0.0015591862
0.0014974316
0.0013101089
0.002126716
-0.001793729
0.055252297
0.048450504
0.037652584
0.028938828
0.023187581
0.019696577
0.017469197
0.015782442
0.014348272
0.01318333
0.012263287
0.011545384
0.010999379
0.010594899
0.01030444
0.010105775
0.0099768726
0.0099024357
0.0098689157
0.0098600085
0.0098653118
0.0098758525
0.0098849619
0.0098907182
0.0098912325
0.0098853369
0.009873535
0.0098557238
0.0098305916
0.0097987606
0.0097613636
0.0097186715
0.0096711967
0.0096196308
0.0095638576
0.0095041455
0.0094405418
0.0093728693
0.0093016665
0.0092272914
0.0091497415
0.0090689023
0.0089853174
0.00889908
0.008810113
0.0087188332
0.008625091
0.0085289538
0.0084306352
0.0083298718
0.0082270206
0.0081220689
0.0080149995
0.0079060076
0.007794855
0.0076817693
0.0075666761
0.0074495625
0.0073304551
0.0072092544
0.0070861132
0.0069608938
0.0068336862
0.0067043955
0.0065730396
0.0064395782
0.0063039693
0.0061661906
0.0060262025
0.0058840043
0.0057395384
0.0055928051
0.005443746
0.0052923758
0.0051386312
0.0049825312
0.004824025
0.0046631571
0.0044998926
0.0043343018
0.0041663702
0.0039962058
0.0038238333
0.0036494139
0.0034730817
0.0032950368
0.003115624
0.0029351274
0.0027542465
0.0025732873
0.0023939536
0.0022156704
0.0020443211
0.001872475
0.0017267383
0.0015601315
0.001498424
0.0013111281
0.0021279512
-0.0017928618
0.052360932
0.046718985
0.037384504
0.029243011
0.023760864
0.020250057
0.017929291
0.016191733
0.014726251
0.013529876
0.012575452
0.011824029
0.011248157
0.010817584
0.010503989
0.01028457
0.010136402
0.010044697
0.0099959223
0.009973669
0.0099677945
0.009968736
0.0099692477
0.0099673547
0.0099609893
0.0099490249
0.0099318527
0.0099091174
0.009879552
0.0098438402
0.009802996
0.0097571652
0.0097068604
0.0096527262
0.0095946278
0.00953269
0.0094670751
0.009397657
0.0093247813
0.0092488854
0.0091699427
0.0090878224
0.009003067
0.0089157467
0.0088257808
0.0087335776
0.0086389705
0.008542035
0.008442976
0.0083415217
0.0082380307
0.0081324813
0.0080248543
0.007915341
0.0078036984
0.007690155
0.007574631
0.007457112
0.0073376235
0.0072160646
0.0070925868
0.0069670493
0.0068395417
0.0067099677
0.0065783443
0.0064446297
0.0063087811
0.0061707756
0.0060305728
0.0058881712
0.0057435121
0.0055965958
0.005447363
0.0052958278
0.0051419266
0.0049856779
0.0048270304
0.0046660282
0.004502636
0.0043369239
0.0041688769
0.0039986029
0.0038261263
0.0036516082
0.0034751822
0.0032970483
0.0031175513
0.0029369751
0.0027560193
0.0025749898
0.0023955922
0.0022172492
0.0020458519
0.0018739584
0.0017282051
0.0015615663
0.0014999177
0.0013125951
0.002129844
-0.0017916759
0.049703382
0.044909344
0.036904582
0.029583944
0.024396731
0.020836457
0.018392943
0.016559751
0.015023728
0.013806258
0.012848038
0.012092112
0.011498552
0.01104515
0.010712208
0.010475172
0.010310631
0.01020372
0.010139371
0.01010261
0.010083731
0.010073097
0.010064369
0.01005487
0.010041717
0.010023615
0.010000921
0.0099731234
0.009938915
0.009899035
0.009854363
0.0098049571
0.009751362
0.0096942106
0.0096333586
0.0095687647
0.009500731
0.0094291733
0.0093542443
0.0092764676
0.0091957912
0.0091120668
0.0090258393
0.0089371498
0.008845919
0.0087525433
0.0086568295
0.0085588678
0.0084588543
0.0083565076
0.0082521895
0.008145866
0.0080375163
0.0079273275
0.0078150506
0.0077009151
0.0075848326
0.0074667876
0.0073468048
0.007224782
0.0071008687
0.0069749195
0.0068470242
0.0067170843
0.0065851156
0.0064510742
0.0063149163
0.0061766186
0.0060361393
0.0058934758
0.0057485683
0.0056014165
0.0054519606
0.005300214
0.0051461119
0.0049896727
0.0048308442
0.0046696703
0.004506115
0.0043402478
0.0041720536
0.0040016398
0.0038290306
0.0036543867
0.0034778414
0.0032995947
0.0031199909
0.0029393137
0.0027582632
0.0025771447
0.0023976655
0.0022192466
0.002047786
0.0018758323
0.0017300496
0.0015633701
0.0015017737
0.0013144135
0.0021321938
-0.0017901829
0.04729894
0.043092689
0.036244026
0.029719674
0.024823049
0.021327157
0.018844668
0.016955309
0.015385078
0.014124835
0.013124401
0.012331769
0.01171072
0.011237993
0.010895648
0.010646589
0.010465276
0.010347343
0.010273991
0.010229285
0.010202634
0.010183192
0.010165525
0.010147359
0.010126186
0.010101318
0.010073207
0.010040799
0.010002385
0.0099587133
0.0099104924
0.0098576616
0.0098008173
0.0097406212
0.0096769197
0.0096096066
0.009539062
0.0094651916
0.0093880676
0.0093082579
0.009225684
0.0091401808
0.0090523087
0.0089620749
0.0088694025
0.0087746875
0.0086777084
0.0085785695
0.008477458
0.0083740783
0.0082687984
0.0081615709
0.0080523752
0.0079413952
0.0078283752
0.007713545
0.0075968053
0.0074781414
0.0073575771
0.007235008
0.007110581
0.006984146
0.0068557927
0.0067254209
0.0065930449
0.0064586177
0.0063220947
0.0061834522
0.0060426467
0.0058996742
0.0057544737
0.0056070445
0.005457326
0.0053053303
0.0051509918
0.0049943284
0.0048352873
0.0046739116
0.0045101646
0.0043441155
0.0041757486
0.0040051709
0.0038324062
0.0036576151
0.0034809304
0.0033025518
0.0031228234
0.0029420285
0.0027608675
0.0025796453
0.0024000705
0.0022215628
0.0020500261
0.0018780015
0.0017321756
0.001565448
0.0015038872
0.001316487
0.0021348526
-0.001788427
0.045191281
0.041444312
0.035524394
0.029703677
0.025123703
0.021737404
0.01924654
0.017324393
0.015739844
0.014455534
0.013426742
0.012603488
0.011951695
0.01144821
0.011077304
0.010801392
0.010597178
0.010465621
0.01038355
0.010330667
0.010297272
0.010274372
0.010255014
0.010235154
0.010211009
0.01018143
0.010147748
0.010109771
0.010066306
0.010018668
0.0099672374
0.0099114666
0.0098518611
0.0097890509
0.0097228027
0.009653003
0.0095801156
0.0095040111
0.0094247319
0.009342907
0.0092584214
0.0091710948
0.0090815202
0.0089896694
0.0088954658
0.0087993205
0.008700987
0.0086005837
0.0084982879
0.0083937847
0.0082874539
0.0081792339
0.0080691043
0.0079572474
0.0078433985
0.0077277907
0.007610316
0.0074909608
0.0073697465
0.0072465638
0.0071215584
0.0069945751
0.0068657045
0.0067348446
0.006602008
0.006467144
0.0063302073
0.006191174
0.0060499987
0.0059066759
0.0057611435
0.0056133999
0.0054633832
0.0053111049
0.0051564981
0.0049995804
0.0048402979
0.0046786933
0.004514729
0.0043484737
0.0041799109
0.0040091475
0.0038362066
0.0036612488
0.0034844064
0.0033058786
0.0031260093
0.0029450817
0.0027637958
0.0025824565
0.0024027732
0.002224165
0.0020525396
0.0018804344
0.0017345507
0.0015677676
0.0015062221
0.0013187729
0.0021377578
-0.0017864111
0.043310098
0.039984549
0.034835848
0.029620543
0.025344177
0.022076635
0.019600788
0.017663399
0.016069029
0.014766686
0.013716805
0.012872341
0.012199144
0.011670385
0.011275194
0.010976187
0.010747635
0.010593818
0.010490714
0.010419526
0.01037235
0.010342142
0.010319144
0.010296716
0.010272833
0.010245043
0.010212747
0.010175174
0.010130074
0.01007924
0.010024025
0.0099645518
0.0099019026
0.0098367121
0.0097683549
0.0096965303
0.0096217408
0.0095437627
0.0094626034
0.0093789775
0.0092927347
0.0092036917
0.0091124905
0.0090190681
0.0089233558
0.008825785
0.0087260836
0.0086243923
0.0085208802
0.0084152123
0.0083077879
0.0081985283
0.0080874135
0.0079746263
0.0078598898
0.0077434462
0.0076251811
0.0075050813
0.0073831641
0.0072593152
0.0071336803
0.0070060992
0.0068766637
0.0067452684
0.0066119252
0.0064765809
0.0063391894
0.0061997255
0.006058142
0.0059144324
0.0057685334
0.005620442
0.0054700952
0.0053175036
0.0051625994
0.0050053996
0.0048458495
0.0046839909
0.0045197854
0.0043533011
0.0041845209
0.0040135513
0.0038404148
0.0036652719
0.0034882543
0.003309561
0.0031295355
0.0029484606
0.0027670362
0.0025855669
0.0024057628
0.0022270428
0.0020553164
0.0018831209
0.001737164
0.0015703177
0.0015087644
0.0013212525
0.0021408737
-0.0017841142
0.04160515
0.038653697
0.034179576
0.029511501
0.025521583
0.022372122
0.019923775
0.017980961
0.01638044
0.015065474
0.013998376
0.01313488
0.012441262
0.011891772
0.011473094
0.011152626
0.010905198
0.010731413
0.010609732
0.010522007
0.010459642
0.01041511
0.010379493
0.010346688
0.01031646
0.010286944
0.010254635
0.01021786
0.010175801
0.010128124
0.010075128
0.010015899
0.0099515673
0.0098837459
0.0098126488
0.0097384734
0.009661924
0.0095824509
0.0094998339
0.009414823
0.0093271803
0.0092367104
0.0091441175
0.0090493032
0.0089522193
0.0088533277
0.0087523304
0.0086494032
0.0085447097
0.008437895
0.008329385
0.0082190829
0.0081069727
0.0079932388
0.0078775924
0.0077602871
0.0076412011
0.0075203233
0.0073976687
0.0072731182
0.0071468182
0.0070186034
0.0068885676
0.0067566005
0.0066227141
0.0064868546
0.006348975
0.0062090474
0.0060670236
0.005922896
0.0057766
0.0056281317
0.0054774267
0.0053244947
0.0051692671
0.0050117603
0.0048519186
0.0046897831
0.0045253145
0.0043585803
0.0041895627
0.0040183677
0.0038450174
0.003669672
0.0034924628
0.0033135885
0.0031333922
0.0029521561
0.0027705802
0.0025889687
0.0024090317
0.0022301888
0.0020583492
0.001886054
0.0017400078
0.0015730903
0.0015115038
0.0013239122
0.0021441667
-0.0017815089
0.040051909
0.037420952
0.033528167
0.029361343
0.025656036
0.022634938
0.020227251
0.01828729
0.016682955
0.015357568
0.014274747
0.013393311
0.012680544
0.01211149
0.011670463
0.011329403
0.011063996
0.010870898
0.010731311
0.010628711
0.010552908
0.010495357
0.010448716
0.010406552
0.010367781
0.010330322
0.010290673
0.010248112
0.010204382
0.010157405
0.010105895
0.010049903
0.0099892684
0.0099242406
0.0098543218
0.0097794177
0.0097010837
0.009619623
0.0095352574
0.0094489678
0.0093602501
0.0092687329
0.0091751293
0.0090792551
0.0089810749
0.0088810886
0.0087789712
0.0086749491
0.0085691858
0.0084613086
0.0083517797
0.0082404842
0.0081274148
0.0080127594
0.0078962172
0.0077780569
0.0076581482
0.007536485
0.0074130808
0.0072878132
0.00716083
0.0070319608
0.0069013022
0.0067687399
0.0066342862
0.0064978866
0.0063594931
0.0062190765
0.0060765869
0.0059320162
0.0057852983
0.0056364288
0.0054853416
0.0053320459
0.0051764723
0.0050186367
0.004858482
0.0046960492
0.0045312977
0.0043642946
0.0041950211
0.0040235831
0.0038500021
0.0036744382
0.003497022
0.003317952
0.003137571
0.0029561607
0.0027744207
0.0025926552
0.0024125737
0.0022335972
0.0020616323
0.0018892278
0.0017430755
0.0015760786
0.0015144308
0.0013267398
0.0021476032
-0.0017785639
0.038632204
0.036276231
0.032877916
0.029162409
0.025737278
0.022857029
0.020505991
0.018580821
0.016978089
0.015645416
0.014548672
0.013650319
0.012919157
0.012330904
0.011868675
0.011507431
0.011224077
0.011012215
0.010855256
0.010737185
0.010647557
0.010577842
0.010520931
0.01047027
0.010423816
0.01037928
0.010333324
0.010285479
0.010236712
0.010184668
0.010128535
0.010070561
0.010010672
0.0099475183
0.0098804881
0.009809235
0.0097338382
0.0096539682
0.0095694099
0.00948188
0.0093916911
0.0092989038
0.0092043986
0.0091077545
0.009008819
0.0089080759
0.0088051329
0.0087002659
0.0085936381
0.0084848616
0.0083744489
0.0082622677
0.0081483266
0.0080328208
0.0079154372
0.0077964652
0.007675765
0.0075533382
0.0074291985
0.0073032211
0.0071755569
0.0070460302
0.0069147425
0.0067815757
0.0066465431
0.0065095892
0.0063706662
0.0062297439
0.0060867709
0.0059417387
0.0057945802
0.0056452905
0.0054938021
0.0053401239
0.0051841854
0.0050260023
0.0048655165
0.0047027685
0.0045377166
0.0043704276
0.0042008818
0.0040291849
0.0038553577
0.0036795603
0.0035019229
0.0033226436
0.0031420648
0.0029604679
0.0027785518
0.002596621
0.0024163837
0.0022372633
0.0020651607
0.0018926378
0.0017463618
0.0015792769
0.0015175374
0.0013297242
0.0021511492
-0.0017752434
0.037330419
0.03521243
0.032233888
0.028920386
0.025765237
0.023033864
0.02075328
0.01885527
0.01726157
0.015926579
0.014819273
0.013906048
0.013157685
0.01255089
0.012068284
0.011687149
0.01138577
0.011155537
0.010981414
0.010847885
0.010744425
0.010662512
0.010595042
0.010535509
0.0104813
0.010430092
0.010378682
0.010326171
0.01027283
0.010216554
0.010156904
0.010095533
0.010032081
0.00996533
0.0098962017
0.0098255773
0.0097520913
0.0096749033
0.0095938438
0.0095091619
0.0094205504
0.0093277534
0.0092323322
0.00913459
0.009034763
0.0089333935
0.0088298902
0.0087244867
0.0086172896
0.0085078692
0.0083967919
0.0082839045
0.0081692401
0.0080530073
0.0079348825
0.0078151824
0.0076937585
0.0075706231
0.0074457913
0.0073191372
0.0071908174
0.0070606507
0.0069287458
0.0067949813
0.0066593725
0.0065218631
0.0063824064
0.0062409717
0.0060975067
0.0059520027
0.0058043919
0.0056546694
0.0055027663
0.0053486915
0.0051923737
0.0050338284
0.0048729967
0.0047099187
0.0045445517
0.0043769623
0.0042071298
0.0040351599
0.0038610727
0.0036850284
0.0035071567
0.0033276554
0.0031468666
0.0029650714
0.0027829681
0.0026008612
0.0024204571
0.0022411827
0.0020689304
0.0018962797
0.0017498616
0.0015826799
0.0015208156
0.0013328546
0.0021547688
-0.0017715069
0.036133057
0.034222536
0.031600857
0.02864351
0.025744845
0.023166383
0.020966769
0.019106665
0.017529459
0.016197615
0.015083846
0.014158563
0.013394893
0.012770808
0.012268938
0.011868528
0.011549274
0.011301025
0.011109842
0.010960904
0.010843608
0.01074944
0.010671238
0.010602598
0.010540484
0.010482453
0.01042533
0.010367884
0.01031011
0.010250222
0.010187602
0.010123298
0.010056884
0.0099874626
0.0099158841
0.0098426426
0.0097663436
0.0096873409
0.0096069449
0.0095241399
0.0094380883
0.0093485555
0.0092557468
0.0091593097
0.0090594358
0.0089573317
0.0088530038
0.0087470195
0.0086394111
0.0085295902
0.0084181211
0.0083047813
0.0081896151
0.0080728432
0.0079541321
0.0078338349
0.0077117958
0.0075880429
0.007462595
0.0073353266
0.0072064028
0.0070756372
0.0069431479
0.0068088109
0.006672645
0.0065345939
0.0063946123
0.0062526701
0.0061087148
0.0059627379
0.0058146714
0.0056645105
0.0055121858
0.0053577061
0.0052009997
0.0050420821
0.0048808937
0.0047174743
0.0045517807
0.004383879
0.004213748
0.0040414932
0.003867134
0.0036908311
0.0035127134
0.0033329787
0.0031519689
0.0029699646
0.0027876634
0.0026053702
0.0024247889
0.0022453507
0.0020729366
0.001900149
0.0017535696
0.0015862818
0.0015242571
0.0013361195
0.0021584238
-0.0017673088
0.035028445
0.033299865
0.0309823
0.028339394
0.025681942
0.0232575
0.021146604
0.019333361
0.017779548
0.016456168
0.015340151
0.014405928
0.013629225
0.012989483
0.012469745
0.01205097
0.011714256
0.011448456
0.011240461
0.011076203
0.010945074
0.010838578
0.010749542
0.010671676
0.01060154
0.010536492
0.010473427
0.010410881
0.010348593
0.010284927
0.010219097
0.010151845
0.010082867
0.01001135
0.0099377753
0.009862361
0.0097839999
0.0097031808
0.0096207814
0.0095357205
0.0094483061
0.0093595629
0.0092686021
0.009174684
0.0090777842
0.0089779389
0.0088745023
0.0087683491
0.0086601486
0.008549742
0.0084379062
0.0083242888
0.0082088537
0.0080917815
0.0079726991
0.0078519934
0.0077294975
0.0076052608
0.0074793093
0.0073515213
0.0072220738
0.0070907762
0.0069577588
0.0068228959
0.0066862109
0.0065476485
0.006407166
0.0062647349
0.0061203028
0.0059738625
0.0058253461
0.00567475
0.0055220041
0.0053671179
0.0052100194
0.0050507246
0.0048891732
0.0047254055
0.0045593773
0.0043911549
0.0042207163
0.0040481671
0.0038735263
0.0036969548
0.0035185813
0.0033386034
0.0031573627
0.0029751395
0.0027926307
0.0026101417
0.0024293733
0.002249762
0.002077174
0.0019042403
0.0017574797
0.0015900763
0.0015278528
0.0013395066
0.0021620719
-0.001762598
0.034006458
0.032438219
0.030380626
0.028014684
0.025582195
0.023310556
0.021293858
0.01953485
0.018010703
0.016700834
0.015586713
0.014646754
0.013859444
0.013205876
0.012669815
0.012233767
0.011880204
0.011597431
0.011373005
0.011193611
0.011048726
0.010929898
0.010829974
0.010742749
0.010664449
0.010592246
0.010523097
0.010455329
0.010388402
0.010320783
0.010251588
0.010181308
0.010109668
0.010035889
0.0099602427
0.0098829266
0.0098030418
0.0097208214
0.0096368054
0.0095501555
0.0094613211
0.0093709193
0.0092780965
0.00918343
0.0090874999
0.0089894752
0.0088885405
0.008784973
0.0086785168
0.0085686223
0.0084565051
0.0083424108
0.0082266286
0.0081093468
0.0079900734
0.0078691738
0.0077464272
0.00762189
0.0074955921
0.0073674173
0.0072375592
0.0071058252
0.0069723618
0.0068370423
0.0066998974
0.0065608732
0.0064199309
0.0062770445
0.0061321629
0.0059852809
0.0058363316
0.0056853128
0.0055321548
0.0053768683
0.0052193809
0.0050597101
0.0048977952
0.0047336768
0.0045673104
0.0043987624
0.0042280105
0.0040551606
0.0038802311
0.0037033836
0.0035247462
0.0033445169
0.0031630369
0.0029805864
0.0027978614
0.0026151679
0.0024342031
0.0022544098
0.0020816361
0.0019085474
0.0017615848
0.0015940561
0.0015315922
0.0013430022
0.002165667
-0.001757317
0.033058298
0.031631934
0.029797388
0.027675069
0.025450897
0.023328936
0.021409988
0.019711152
0.018222287
0.016930684
0.015822479
0.014880002
0.014084592
0.013419142
0.012868392
0.012416286
0.012046632
0.011747552
0.011507167
0.011312901
0.011154406
0.011023296
0.010912462
0.010815776
0.010729202
0.01064974
0.010574375
0.010501248
0.010429569
0.010357871
0.010285199
0.010211804
0.010137394
0.010061224
0.0099834251
0.0099041499
0.0098226184
0.0097389151
0.0096535033
0.0095657342
0.0094758414
0.00938418
0.0092901361
0.0091943216
0.0090968942
0.0089973097
0.0088963741
0.0087939488
0.0086892233
0.0085818665
0.0084719204
0.0083589357
0.0082433038
0.0081257223
0.0080061137
0.0078850292
0.007762163
0.0076375083
0.0075110535
0.0073826656
0.0072525498
0.0071205093
0.0069867113
0.0068510304
0.0067135075
0.0065740916
0.0064327495
0.0062894586
0.0061441701
0.0059968821
0.005847529
0.0056961115
0.0055425604
0.0053868883
0.0052290235
0.0050689849
0.0049067119
0.0047422461
0.0045755427
0.004406669
0.004235602
0.0040624484
0.0038872262
0.0037100978
0.003531191
0.003350704
0.0031689781
0.0029862933
0.0028033446
0.0026204391
0.0024392693
0.0022592858
0.0020863148
0.0019130625
0.0017658764
0.0015982123
0.0015354637
0.0013465907
0.002169158
-0.0017514012
0.032176288
0.030875879
0.029233467
0.027325347
0.02529292
0.023315977
0.021496651
0.019862604
0.018413942
0.017145032
0.016046614
0.015104817
0.014303863
0.013628561
0.013064817
0.01259796
0.012213093
0.011898442
0.011642644
0.011433844
0.011261936
0.01111864
0.010996911
0.010890698
0.010795765
0.010708951
0.010627248
0.01054864
0.010472109
0.010396227
0.01031997
0.010243368
0.010166098
0.010087449
0.01000743
0.0099261264
0.0098428471
0.0097575871
0.009670735
0.0095817457
0.0094907421
0.0093980408
0.0093031666
0.0092064834
0.0091080271
0.0090074723
0.0089055736
0.0088017193
0.0086959039
0.0085890626
0.0084805263
0.0083694701
0.0082560733
0.008140078
0.0080210329
0.0078998443
0.0077767123
0.0076518896
0.0075253556
0.0073969015
0.0072666985
0.0071345144
0.0070005282
0.0068646117
0.0067268189
0.0065871044
0.0064454427
0.0063018166
0.0061561809
0.0060085377
0.005858824
0.0057070441
0.0055531301
0.0053970976
0.0052388757
0.0050784857
0.0049158673
0.0047510638
0.0045840305
0.0044148357
0.0042434564
0.0040700002
0.0038944848
0.0037170739
0.0035378949
0.0033571465
0.0031751701
0.0029922457
0.0028090675
0.0026259435
0.0024445612
0.0022643801
0.0020912004
0.0019177761
0.0017703442
0.0016025346
0.0015394538
0.0013502545
0.0021724885
-0.0017447785
0.031353713
0.030165445
0.028689233
0.026969507
0.025112699
0.023274925
0.021555645
0.01998978
0.018585518
0.017343361
0.016258417
0.01532045
0.014516534
0.013833473
0.013258489
0.012778262
0.01237916
0.012049738
0.011779141
0.011556206
0.011371138
0.011215794
0.01108322
0.010967446
0.010864089
0.010769843
0.010681694
0.010597492
0.010516018
0.010435848
0.0103559
0.010276006
0.010195802
0.010114598
0.010032291
0.009948899
0.0098638046
0.0097769313
0.009688585
0.0095982978
0.0095061245
0.0094123409
0.0093165417
0.0092189908
0.0091197541
0.0090185616
0.0089158728
0.0088111643
0.0087045739
0.0085967535
0.0084869803
0.0083756745
0.0082631024
0.0081485324
0.0080315918
0.0079122178
0.0077899966
0.0076653182
0.0075386125
0.0074100015
0.0072797413
0.0071475287
0.0070135053
0.0068775045
0.0067395798
0.0065996869
0.0064578093
0.0063139376
0.0061680322
0.0060201013
0.0058700853
0.0057179932
0.0055637593
0.0054074027
0.0052488543
0.0050881384
0.0049251956
0.0047600715
0.0045927219
0.0044232167
0.0042515331
0.0040777801
0.0039019752
0.0037242837
0.0035448329
0.0033638222
0.0031815931
0.002998426
0.002815014
0.0026316667
0.0024500654
0.0022696801
0.002096281
0.001922677
0.0017749762
0.0016070109
0.0015435471
0.0013539734
0.0021755955
-0.001737368
0.030584671
0.029496504
0.028164673
0.026610821
0.024914226
0.023208903
0.021588853
0.020093452
0.018737054
0.017525296
0.016457291
0.015526219
0.01472193
0.014033251
0.013448828
0.01295668
0.012544412
0.012201082
0.01191636
0.011679751
0.011481827
0.011314616
0.011171282
0.011045945
0.01093412
0.010832379
0.010737689
0.010647789
0.010561281
0.010476725
0.010392985
0.010309717
0.010226504
0.010142669
0.01005801
0.0099724775
0.0098855126
0.0097969761
0.0097070917
0.0096154561
0.009522068
0.009427156
0.0093303712
0.0092319105
0.0091318448
0.0090299255
0.0089265196
0.0088212343
0.008714115
0.0086055894
0.0084951069
0.0083831358
0.008269488
0.0081540618
0.0080375193
0.0079193394
0.0077987903
0.0076759401
0.0075504125
0.0074221804
0.0072918549
0.0071595109
0.0070254446
0.0068894463
0.0067515198
0.0066115865
0.0064696217
0.0063256182
0.0061795417
0.0060314086
0.0058811648
0.0057288255
0.005574328
0.0054176962
0.0052588632
0.0050978572
0.0049346204
0.0047692012
0.0046015564
0.0044317581
0.0042597842
0.0040857454
0.0039096594
0.0037316936
0.0035519751
0.0033707044
0.0031882234
0.0030048129
0.002821165
0.0026375913
0.002455766
0.0022751712
0.0021015425
0.0019277514
0.0017797581
0.0016116269
0.0015477262
0.0013577247
0.0021784089
-0.0017290792
0.029863963
0.028865368
0.027659503
0.026251928
0.02470105
0.023120883
0.021598213
0.020174559
0.018868758
0.0176906
0.016642741
0.015721514
0.014919414
0.014227285
0.013635266
0.013132706
0.012708422
0.01235211
0.012053995
0.011804235
0.011593808
0.011414955
0.011260984
0.011126113
0.011005801
0.010896517
0.010795206
0.010699516
0.010607888
0.010518853
0.010431223
0.010344499
0.010258202
0.01017166
0.010084584
0.009996859
0.009907968
0.0098177187
0.0097262581
0.0096332335
0.0095385951
0.0094425218
0.0093447135
0.0092453071
0.009144369
0.0090416746
0.0089375274
0.0088316016
0.0087239008
0.0086148041
0.0085038756
0.0083913719
0.0082771091
0.0081611111
0.0080437987
0.0079246675
0.0078040374
0.0076819943
0.0075577869
0.007431338
0.0073023622
0.0071705798
0.0070365476
0.0069004548
0.0067624962
0.0066225835
0.0064806424
0.006336632
0.0061905038
0.0060422753
0.0058918967
0.0057393913
0.0055847011
0.0054278562
0.0052687927
0.0051075437
0.0049440534
0.0047783739
0.0046104634
0.004440397
0.0042681536
0.0040938462
0.0039174931
0.003739264
0.0035592862
0.0033777617
0.0031950328
0.0030113811
0.0028274978
0.0026436964
0.0024616439
0.0022808354
0.0021069679
0.0019329832
0.0017846732
0.0016163661
0.0015519711
0.0013614822
0.002180853
-0.001719811
0.029186997
0.028268747
0.027173249
0.025894933
0.024476292
0.023013663
0.021585681
0.020234169
0.018980997
0.017839171
0.016814377
0.015905793
0.01510839
0.014414988
0.013817242
0.013305828
0.012870754
0.012502448
0.012191729
0.011929398
0.011706874
0.011516652
0.011352202
0.011207863
0.011079068
0.010962212
0.010854217
0.010752654
0.010655827
0.010562225
0.010470611
0.010380349
0.010290896
0.010201571
0.010112014
0.010022042
0.0099311681
0.0098391556
0.0097460794
0.0096516244
0.0095557001
0.0094584374
0.0093595756
0.0092591982
0.009157362
0.0090538641
0.0089489472
0.008842338
0.0087340198
0.0086243254
0.0085128795
0.0083998736
0.0082851912
0.008168802
0.0080509644
0.0079312942
0.0078101188
0.007687201
0.0075625864
0.0074366261
0.0073087259
0.0071785565
0.0070459254
0.0069105277
0.0067727031
0.006632735
0.0064907719
0.0063467952
0.0062007095
0.0060524985
0.0059020955
0.0057495237
0.0055947281
0.0054377466
0.0052785197
0.0051170865
0.0049533942
0.0047874993
0.0046193619
0.0044490609
0.0042765763
0.0041020245
0.0039254244
0.0037469485
0.0035667249
0.003384957
0.0032019881
0.0030181007
0.0028339851
0.0026499575
0.0024676763
0.0022866519
0.0021125372
0.0019383534
0.001789702
0.001621209
0.0015562592
0.0013652163
0.0021828571
-0.0017094499
0.028549706
0.027703701
0.026705307
0.025541481
0.024242668
0.022889851
0.021553201
0.020273455
0.019074279
0.01797104
0.016971915
0.016078588
0.01528831
0.014595793
0.013994205
0.013475535
0.013030959
0.012651707
0.012329231
0.012054966
0.011820805
0.011619529
0.011444801
0.011291092
0.011153849
0.011029413
0.010914688
0.010807183
0.010705084
0.010606835
0.010511149
0.010417269
0.010324586
0.010232406
0.010140302
0.010048027
0.009955114
0.0098612869
0.0097665536
0.0096706254
0.009573378
0.009474896
0.0093749495
0.0092735766
0.0091708208
0.0090664981
0.0089607943
0.0088534806
0.0087445212
0.0086342027
0.0085222036
0.0084086747
0.0082935229
0.008176702
0.008058446
0.0079384383
0.0078168427
0.0076934522
0.0075684106
0.0074417125
0.0073132032
0.0071832754
0.007051563
0.0069175504
0.0067811107
0.0066419273
0.0065001811
0.0063561871
0.0062100914
0.0060619234
0.0059115764
0.0057590404
0.0056042413
0.005447216
0.0052879073
0.0051263617
0.0049625303
0.0047964754
0.0046281598
0.0044576667
0.0042849778
0.0041102133
0.0039333931
0.0037546934
0.0035742429
0.0033922469
0.0032090504
0.0030249366
0.0028405953
0.0026563456
0.0024738366
0.0022925958
0.002118227
0.0019438397
0.0017948218
0.0016261335
0.0015605647
0.0013688925
0.0021843571
-0.0016978675
0.027948487
0.027167602
0.026254995
0.025192838
0.024002516
0.022751846
0.021502677
0.02029366
0.019149237
0.018086363
0.017115179
0.016239516
0.015458682
0.014769166
0.01416562
0.01364132
0.013188582
0.012799487
0.012466152
0.012180648
0.011935361
0.011723395
0.011538631
0.01137569
0.011230059
0.011098059
0.010976577
0.010863077
0.010755644
0.010652673
0.010552833
0.01045526
0.010359275
0.010264169
0.010169452
0.010074819
0.00997981
0.0098841158
0.0097876823
0.0096902374
0.0095916281
0.0094918949
0.0093908309
0.0092884358
0.0091847373
0.0090795668
0.0089730604
0.0088650254
0.0087554093
0.0086444539
0.0085318848
0.0084178126
0.0083021612
0.0081848834
0.008066184
0.0079457838
0.0078238057
0.0077001039
0.0075747169
0.0074476055
0.0073187091
0.0071882016
0.0070558469
0.0069218654
0.0067861674
0.0066481765
0.0065077701
0.0063646114
0.0062187928
0.0060706394
0.0059202944
0.0057678098
0.005613077
0.0054561005
0.0052968037
0.0051352319
0.0049713373
0.0048051894
0.0046367544
0.0044661209
0.0042932734
0.0041183361
0.0039413304
0.0037624366
0.0035817843
0.0033995815
0.0032161744
0.003031848
0.0028472912
0.0026628269
0.0024800938
0.0022986384
0.0021240099
0.0019494161
0.0018000066
0.0016311137
0.0015648585
0.0013724716
0.0021851853
-0.0016849213
0.027380137
0.026658098
0.025821584
0.024849957
0.02375783
0.022601841
0.021435953
0.020296076
0.019206604
0.018185411
0.017244099
0.016388277