/*--------------------------------*- C++ -*----------------------------------*\
| =========                 |                                                 |
| \\      /  F ield         | OpenFOAM: The Open Source CFD Toolbox           |
|  \\    /   O peration     | Version:  2206                                  |
|   \\  /    A nd           | Website:  www.openfoam.com                      |
|    \\/     M anipulation  |                                                 |
\*---------------------------------------------------------------------------*/
FoamFile
{
    version     2.0;
    format      ascii;
    arch        "LSB;label=32;scalar=64";
    class       surfaceScalarField;
    location    "500";
    object      phi;
}
// * * * * * * * * * * * * * * * * * * * * * * * * * * * * * * * * * * * * * //

dimensions      [0 3 -1 0 0 0 0];

oriented        oriented;

internalField   nonuniform List<scalar> 
14782
(
0.0006461307
7.5143012e-05
-0.00072127372
0.00055261913
9.3511569e-05
0.00046302789
8.9591245e-05
0.00039102238
7.2005509e-05
0.00033970665
5.1315728e-05
0.00030356501
3.6141643e-05
0.00027678281
2.67822e-05
0.00025563633
2.1146482e-05
0.00023814253
1.74938e-05
0.00022340401
1.4738523e-05
0.00021093129
1.2472712e-05
0.00020035981
1.0571485e-05
0.00019138706
8.9727449e-06
0.00018375184
7.6352268e-06
0.00017723096
6.5208776e-06
0.00017164498
5.5859801e-06
0.00016684519
4.799791e-06
0.00016270918
4.1360115e-06
0.0001591183
3.5908777e-06
0.00015597628
3.1420176e-06
0.00015320295
2.7733339e-06
0.00015071764
2.485308e-06
0.00014846643
2.2512124e-06
0.00014641011
2.0563159e-06
0.00014451645
1.8936652e-06
0.0001427602
1.756248e-06
0.00014112196
1.6382389e-06
0.00013958391
1.5380449e-06
0.00013812916
1.4547507e-06
0.00013674624
1.3829202e-06
0.00013542831
1.3179304e-06
0.00013416877
1.2595384e-06
0.00013296147
1.2073049e-06
0.0001318011
1.1603667e-06
0.00013068309
1.118009e-06
0.00012960193
1.0811688e-06
0.00012855276
1.049168e-06
0.00012753337
1.0193842e-06
0.00012654088
9.9248921e-07
0.00012557259
9.6829763e-07
0.00012462633
9.4626091e-07
0.00012369995
9.2637867e-07
0.00012279229
9.0765269e-07
0.00012190218
8.9010969e-07
0.00012102828
8.7390104e-07
0.00012016982
8.5846386e-07
0.00011932544
8.4438217e-07
0.00011849406
8.3137777e-07
0.00011767513
8.1893155e-07
0.00011686772
8.0741217e-07
0.00011607146
7.9625804e-07
0.0001152859
7.8555905e-07
0.00011451057
7.7533184e-07
0.00011374524
7.6532903e-07
0.00011298935
7.5588708e-07
0.0001122427
7.4664986e-07
0.00011150491
7.3779304e-07
0.00011077556
7.2934972e-07
0.00011005437
7.2118509e-07
0.00010934111
7.1326173e-07
0.00010863577
7.0534263e-07
0.00010793812
6.9765163e-07
0.00010724802
6.9009426e-07
0.00010656531
6.8271791e-07
0.00010588985
6.7545756e-07
0.00010522147
6.6837334e-07
0.00010455999
6.6148492e-07
0.00010390527
6.5472235e-07
0.0001032572
6.4806481e-07
0.0001026157
6.4149963e-07
0.00010198064
6.3506693e-07
0.00010135191
6.2872676e-07
0.00010072943
6.224805e-07
0.00010011312
6.1630402e-07
9.9502874e-05
6.1025064e-07
9.8898596e-05
6.0427725e-07
9.8300198e-05
5.9839886e-07
9.7707621e-05
5.9257675e-07
9.7120769e-05
5.8685194e-07
9.6539567e-05
5.8120137e-07
9.5963898e-05
5.7566984e-07
9.539368e-05
5.7021793e-07
9.4828805e-05
5.6487421e-07
9.4269222e-05
5.5958396e-07
9.371487e-05
5.5435179e-07
9.3165681e-05
5.4918874e-07
9.2621575e-05
5.4410603e-07
9.2082352e-05
5.3922288e-07
9.1547728e-05
5.34624e-07
9.1017108e-05
5.3061998e-07
9.0489706e-05
5.2740218e-07
8.9963953e-05
5.2575323e-07
8.9438129e-05
5.2582348e-07
8.8907886e-05
5.3024309e-07
8.837103e-05
5.3685654e-07
8.7811962e-05
5.5906777e-07
8.7234634e-05
5.7732776e-07
8.6545694e-05
6.8893989e-07
8.6206071e-05
3.396234e-07
1.3079573e-06
0.00078812779
8.1231303e-05
-0.00079421608
0.00076953023
0.00011210913
0.00073461899
0.00012450249
0.00068723365
0.00011939085
0.00063500335
0.00010354602
0.00058526067
8.5884323e-05
0.00054148818
7.0554697e-05
0.00050429441
5.8340244e-05
0.00047296896
4.8819259e-05
0.00044654177
4.1165703e-05
0.00042410759
3.4906896e-05
0.00040493985
2.9739225e-05
0.00038848699
2.5425601e-05
0.00037431498
2.1807242e-05
0.00036207415
1.8761705e-05
0.00035147695
1.6183183e-05
0.00034226818
1.400856e-05
0.00033422178
1.2182414e-05
0.00032714675
1.0665909e-05
0.00032088483
9.4039341e-06
0.00031529801
8.3601548e-06
0.00031026809
7.515228e-06
0.00030570149
6.8178152e-06
0.00030152546
6.2323453e-06
0.0002976798
5.7393251e-06
0.00029411651
5.3195336e-06
0.00029079713
4.9576209e-06
0.00028768718
4.6479919e-06
0.00028475703
4.3849066e-06
0.00028198425
4.1556946e-06
0.00027935242
3.9497597e-06
0.00027684667
3.7652957e-06
0.00027445376
3.600213e-06
0.0002721621
3.4520199e-06
0.0002699622
3.317911e-06
0.00026784294
3.2004304e-06
0.00026579489
3.0972193e-06
0.00026381294
3.0013298e-06
0.00026189044
2.914989e-06
0.00026002169
2.8370546e-06
0.00025820209
2.7658555e-06
0.00025642735
2.7011218e-06
0.00025469431
2.6406934e-06
0.00025300005
2.584367e-06
0.00025134177
2.5321865e-06
0.00024971724
2.4829895e-06
0.00024812374
2.43788e-06
0.00024655899
2.3961269e-06
0.00024502137
2.3565516e-06
0.00024350906
2.3197246e-06
0.00024202084
2.2844766e-06
0.00024055553
2.2508702e-06
0.00023911202
2.2188467e-06
0.00023768946
2.1878856e-06
0.00023628677
2.158576e-06
0.00023490323
2.130194e-06
0.00023353795
2.1030671e-06
0.00023219005
2.0772485e-06
0.00023085883
2.0524072e-06
0.00022954373
2.0283648e-06
0.00022824445
2.0046188e-06
0.0002269605
1.9816061e-06
0.00022569144
1.9591512e-06
0.00022443685
1.9373048e-06
0.00022319639
1.9159238e-06
0.00022196962
1.8951376e-06
0.00022075613
1.8749817e-06
0.00021955557
1.8552776e-06
0.00021836768
1.8359566e-06
0.00021719219
1.816991e-06
0.0002160288
1.7984552e-06
0.00021487727
1.7802594e-06
0.00021373736
1.7623848e-06
0.00021260888
1.7447869e-06
0.00021149156
1.7275744e-06
0.00021038518
1.7106536e-06
0.00020928954
1.6940374e-06
0.00020820447
1.6776445e-06
0.00020712977
1.661553e-06
0.00020606525
1.6457249e-06
0.00020501067
1.6302518e-06
0.00020396583
1.6150574e-06
0.00020293051
1.6001937e-06
0.00020190455
1.5855382e-06
0.00020088781
1.5710923e-06
0.00019988012
1.5568787e-06
0.00019888128
1.5429545e-06
0.00019789091
1.5295881e-06
0.00019690842
1.5171154e-06
0.00019593286
1.5061817e-06
0.00019496249
1.4977664e-06
0.0001939952
1.4930442e-06
0.00019302633
1.4946982e-06
0.00019205162
1.5049463e-06
0.00019105923
1.5292513e-06
0.00019003819
1.5801084e-06
0.00018896016
1.6553569e-06
0.00018777822
1.870879e-06
0.00018671586
1.4019803e-06
3.0335479e-06
0.00082942148
7.7843846e-05
-0.00082603403
0.00083372683
0.00010780379
0.00083478309
0.00012344622
0.00082794978
0.00012622416
0.00080970325
0.00012179255
0.00078202091
0.00011356666
0.00074923471
0.00010334089
0.00071494661
9.2628344e-05
0.00068136945
8.2396418e-05
0.00064982431
7.2710843e-05
0.00062095325
6.3777956e-05
0.00059497132
5.5721156e-05
0.00057182675
4.8570175e-05
0.00055130773
4.2326262e-05
0.00053313909
3.6930348e-05
0.00051704307
3.2279198e-05
0.0005027527
2.8298931e-05
0.0004900261
2.4909016e-05
0.00047865452
2.2037484e-05
0.00046845417
1.9604289e-05
0.00045926219
1.7552138e-05
0.00045093667
1.5840745e-05
0.00044335618
1.4398299e-05
0.00043641853
1.3169995e-05
0.00043003559
1.2122265e-05
0.0004241312
1.1223931e-05
0.00041864319
1.0445628e-05
0.00041352105
9.7701337e-06
0.00040872104
9.1849151e-06
0.00040420647
8.6702608e-06
0.00039994622
8.2100094e-06
0.00039591304
7.7984835e-06
0.00039208331
7.4299382e-06
0.00038843689
7.0984369e-06
0.00038495663
6.7981707e-06
0.00038162423
6.5328389e-06
0.00037842488
6.296563e-06
0.00037534801
6.0782048e-06
0.00037238157
5.8814226e-06
0.00036951603
5.7025963e-06
0.00036674317
5.5387126e-06
0.00036405529
5.3890105e-06
0.00036144595
5.2500247e-06
0.00035890937
5.1209518e-06
0.00035644019
5.0013659e-06
0.00035403383
4.8893458e-06
0.00035168555
4.7861611e-06
0.00034939125
4.6904255e-06
0.00034714759
4.600215e-06
0.00034495123
4.5160887e-06
0.00034279946
4.4362433e-06
0.00034068977
4.360559e-06
0.00033861985
4.2887661e-06
0.00033658776
4.2199741e-06
0.00033459148
4.1548548e-06
0.00033262935
4.0923255e-06
0.00033069965
4.0327741e-06
0.00032880073
3.9761668e-06
0.00032693123
3.9219083e-06
0.00032508995
3.8696403e-06
0.00032327596
3.8186064e-06
0.0003214882
3.7693713e-06
0.0003197257
3.7216492e-06
0.00031798757
3.6754387e-06
0.00031627299
3.630501e-06
0.00031458113
3.5870006e-06
0.00031291116
3.5449514e-06
0.00031126239
3.5040443e-06
0.0003096342
3.4641454e-06
0.000308026
3.4251919e-06
0.00030643719
3.3872613e-06
0.00030486725
3.3502017e-06
0.00030331568
3.3139605e-06
0.00030178199
3.2784692e-06
0.0003002657
3.2438681e-06
0.00029876635
3.2100054e-06
0.00029728351
3.1768746e-06
0.00029581681
3.1443481e-06
0.00029436584
3.1125239e-06
0.00029293021
3.0813509e-06
0.0002915095
3.0509582e-06
0.00029010332
3.021241e-06
0.00028871124
2.9922707e-06
0.00028733292
2.9638602e-06
0.00028596801
2.9360051e-06
0.00028461615
2.9087403e-06
0.00028327691
2.8821951e-06
0.00028194971
2.8567869e-06
0.0002806336
2.8332274e-06
0.00027932733
2.8124467e-06
0.00027802839
2.7967095e-06
0.00027673439
2.7870426e-06
0.00027543826
2.7908283e-06
0.0002741367
2.8065077e-06
0.00027280932
2.856628e-06
0.00027145243
2.9370032e-06
0.00027000735
3.100434e-06
0.00026848061
3.3976134e-06
0.00026681841
3.0641865e-06
4.921817e-06
0.00085945735
7.4303246e-05
-0.00085591675
0.00086562956
0.00010163159
0.00087164898
0.00011742681
0.00087586583
0.0001220073
0.0008772798
0.00012037858
0.0008744474
0.00011639907
0.00086611683
0.00011167146
0.00085197473
0.00010677044
0.00083290305
0.00010146811
0.00081058479
9.5029096e-05
0.00078641706
8.7945687e-05
0.00076152846
8.0609761e-05
0.00073683791
7.3260724e-05
0.00071303267
6.6131501e-05
0.00069057445
5.9388567e-05
0.00066972152
5.3132123e-05
0.00065055726
4.7463195e-05
0.00063304578
4.2420491e-05
0.00061708457
3.79987e-05
0.00060253995
3.4148904e-05
0.0005892745
3.0817588e-05
0.00057715566
2.795959e-05
0.00056605893
2.5495028e-05
0.00055586984
2.3359079e-05
0.00054648325
2.1508857e-05
0.00053780322
1.9903965e-05
0.00052974705
1.8501796e-05
0.00052224628
1.7270909e-05
0.00051524023
1.6190961e-05
0.00050867543
1.5235058e-05
0.00050250506
1.4380384e-05
0.00049668785
1.3615691e-05
0.00049118741
1.2930384e-05
0.0004859728
1.2313041e-05
0.00048101712
1.1753849e-05
0.0004762963
1.1253665e-05
0.00047178892
1.080394e-05
0.00046747575
1.0391372e-05
0.00046333975
1.0017425e-05
0.00045936592
9.6764236e-06
0.00045554109
9.3635458e-06
0.00045185304
9.0770587e-06
0.00044829116
8.8119022e-06
0.00044484587
8.5662493e-06
0.0004415084
8.338833e-06
0.00043827116
8.1265873e-06
0.00043512682
7.9304979e-06
0.00043206889
7.7483539e-06
0.0004290918
7.5773038e-06
0.0004261902
7.4176913e-06
0.00042335943
7.2670126e-06
0.00042059519
7.124803e-06
0.00041789354
6.9904181e-06
0.00041525109
6.8624159e-06
0.00041266458
6.7413735e-06
0.00041013106
6.6258385e-06
0.00040764771
6.5161234e-06
0.00040521194
6.4119351e-06
0.00040282152
6.3123361e-06
0.00040047436
6.2167964e-06
0.00039816866
6.1243107e-06
0.00039590257
6.0354613e-06
0.00039367443
5.949785e-06
0.0003914827
5.8671688e-06
0.00038932595
5.7872467e-06
0.00038720279
5.7101621e-06
0.0003851119
5.6358477e-06
0.0003830521
5.5638435e-06
0.00038102231
5.4939364e-06
0.0003790215
5.4259974e-06
0.0003770487
5.3600636e-06
0.000375103
5.2959043e-06
0.00037318353
5.2334245e-06
0.00037128948
5.1725178e-06
0.00036942003
5.1133206e-06
0.00036757443
5.0556084e-06
0.00036575196
4.9993404e-06
0.00036395198
4.9443341e-06
0.00036217381
4.890688e-06
0.00036041683
4.8383308e-06
0.00035868037
4.7874181e-06
0.0003569638
4.7378185e-06
0.00035526645
4.6896206e-06
0.00035358773
4.6425785e-06
0.00035192705
4.5966811e-06
0.00035028381
4.5519762e-06
0.00034865733
4.5086804e-06
0.00034704676
4.4673572e-06
0.00034545082
4.4291681e-06
0.00034386797
4.3952968e-06
0.00034229508
4.3695975e-06
0.00034072949
4.3526338e-06
0.00033916251
4.3578104e-06
0.00033759121
4.3778077e-06
0.0003359898
4.4580317e-06
0.00033435869
4.5681117e-06
0.00033261985
4.839281e-06
0.00033081328
5.2041838e-06
0.00032868479
5.1926789e-06
6.953067e-06
0.00088932282
7.1353338e-05
-0.00088637292
0.00089510006
9.5854348e-05
0.0009014156
0.00011111127
0.00090674445
0.00011667845
0.00091048714
0.00011663589
0.00091299976
0.00011388645
0.00091408385
0.00011058736
0.00091333762
0.00010751668
0.00091047297
0.00010433275
0.00090447438
0.00010102769
0.00089491326
9.7506804e-05
0.00088194301
9.3580019e-05
0.00086618675
8.9016976e-05
0.00084835366
8.3964597e-05
0.00082908945
7.8652777e-05
0.00080903553
7.3186039e-05
0.00078880148
6.7697246e-05
0.00076891223
6.2309748e-05
0.0007497713
5.7139626e-05
0.0007316406
5.2279605e-05
0.00071465024
4.7807943e-05
0.0006988247
4.3785131e-05
0.00068412546
4.0194268e-05
0.00067048561
3.6998928e-05
0.00065782704
3.4167432e-05
0.00064606861
3.1662389e-05
0.00063513032
2.9440087e-05
0.00062493613
2.7465106e-05
0.0006154141
2.5712983e-05
0.00060649923
2.4149937e-05
0.00059813347
2.2746135e-05
0.00059026398
2.1485187e-05
0.00058284287
2.0351493e-05
0.00057582839
1.932752e-05
0.00056918288
1.8399363e-05
0.00056287453
1.7562016e-05
0.00055687459
1.6803872e-05
0.00055115515
1.6110816e-05
0.00054569266
1.5479912e-05
0.0005404661
1.4902987e-05
0.00053545646
1.4373191e-05
0.00053064606
1.3887457e-05
0.00052601934
1.3438618e-05
0.00052156223
1.302336e-05
0.00051726167
1.2639391e-05
0.00051310641
1.2281853e-05
0.00050908621
1.1950695e-05
0.00050519181
1.1642752e-05
0.00050141501
1.13541e-05
0.00049774791
1.1084792e-05
0.00049418345
1.0831476e-05
0.00049071515
1.0593098e-05
0.00048733711
1.0368467e-05
0.00048404411
1.0155409e-05
0.00048083122
9.9542627e-06
0.00047769395
9.7631141e-06
0.0004746281
9.5819759e-06
0.00047162994
9.4100867e-06
0.00046869616
9.246118e-06
0.00046582354
9.089416e-06
0.00046300917
8.9386814e-06
0.00046025026
8.7943736e-06
0.00045754427
8.6557699e-06
0.00045488886
8.5225854e-06
0.00045228183
8.3942743e-06
0.00044972111
8.270883e-06
0.00044720477
8.1521891e-06
0.00044473105
8.0375656e-06
0.00044229828
7.9267016e-06
0.00043990492
7.8193547e-06
0.00043754951
7.7154735e-06
0.00043523069
7.6147297e-06
0.00043294713
7.5169796e-06
0.0004306976
7.4220503e-06
0.00042848089
7.3300295e-06
0.0004262959
7.2406018e-06
0.00042414156
7.1536766e-06
0.00042201689
7.0690026e-06
0.00041992092
6.9866581e-06
0.00041785272
6.9065381e-06
0.00041581132
6.8288108e-06
0.00041379583
6.7533154e-06
0.00041180529
6.6801545e-06
0.00040983884
6.609027e-06
0.00040789561
6.5399151e-06
0.00040597471
6.4728794e-06
0.00040407515
6.4082322e-06
0.00040219583
6.3466817e-06
0.00040033512
6.2898815e-06
0.00039849115
6.2392598e-06
0.00039666031
6.2004421e-06
0.00039483956
6.1733843e-06
0.00039301909
6.1782828e-06
0.00039119584
6.201057e-06
0.00038934061
6.3132585e-06
0.00038745547
6.4532524e-06
0.00038545015
6.8446048e-06
0.00038338487
7.269456e-06
0.00038085834
7.719214e-06
9.1504992e-06
0.00092025631
6.8829566e-05
-0.00091773254
0.00092537388
9.0736784e-05
0.00093115334
0.00010533181
0.0009362665
0.00011156529
0.00094035321
0.00011254918
0.00094332998
0.00011090969
0.00094543674
0.0001084806
0.00094691897
0.00010603444
0.00094783044
0.00010342129
0.00094809811
0.00010076001
0.00094746398
9.8140936e-05
0.0009455157
9.5528302e-05
0.00094165458
9.2878096e-05
0.00093543925
9.0179927e-05
0.0009266757
8.7416324e-05
0.00091547919
8.4382552e-05
0.00090217506
8.1001371e-05
0.00088709233
7.7392486e-05
0.00087062877
7.3603185e-05
0.00085326689
6.964148e-05
0.000835523
6.5551836e-05
0.00081786696
6.1441172e-05
0.00080067478
5.7386444e-05
0.00078419864
5.3475071e-05
0.00076856977
4.9796298e-05
0.00075382967
4.6402493e-05
0.00073996832
4.3301434e-05
0.00072695034
4.0483092e-05
0.00071472756
3.7935755e-05
0.00070324768
3.5629818e-05
0.00069245664
3.3537183e-05
0.00068229989
3.1641931e-05
0.00067272543
2.9925958e-05
0.00066368553
2.8367415e-05
0.00065513498
2.6949915e-05
0.0006470332
2.5663791e-05
0.0006393443
2.4492775e-05
0.00063203378
2.3421337e-05
0.00062507058
2.2443115e-05
0.00061842733
2.1546232e-05
0.00061207907
2.0721451e-05
0.00060600248
1.9964047e-05
0.00060017673
1.9264374e-05
0.00059458288
1.8617202e-05
0.00058920334
1.8018934e-05
0.00058402256
1.7462633e-05
0.00057902655
1.6946705e-05
0.00057420265
1.6466656e-05
0.0005695395
1.601725e-05
0.00056502626
1.5598025e-05
0.00056065322
1.5204518e-05
0.00055641144
1.4834879e-05
0.00055229265
1.4487255e-05
0.00054828948
1.4158582e-05
0.00054439486
1.3848884e-05
0.00054060243
1.3555541e-05
0.00053690649
1.3277918e-05
0.0005333019
1.3014682e-05
0.00052978392
1.2764095e-05
0.000526348
1.2525339e-05
0.00052298997
1.2296711e-05
0.00051970592
1.2078422e-05
0.0005164923
1.1869391e-05
0.00051334576
1.1669126e-05
0.00051026318
1.1476855e-05
0.00050724166
1.12924e-05
0.00050427855
1.1115299e-05
0.00050137136
1.0944753e-05
0.00049851775
1.0780316e-05
0.00049571553
1.0621568e-05
0.00049296269
1.0468319e-05
0.00049025729
1.0320126e-05
0.00048759748
1.0176791e-05
0.00048498151
1.0038022e-05
0.00048240773
9.9038077e-06
0.00047987461
9.7737238e-06
0.00047738067
9.6476119e-06
0.00047492454
9.5251324e-06
0.00047250488
9.4063198e-06
0.0004701204
9.2910171e-06
0.00046776983
9.1793877e-06
0.00046545191
9.0712342e-06
0.00046316539
8.9666676e-06
0.00046090909
8.8653337e-06
0.0004586818
8.7672069e-06
0.00045648231
8.6723606e-06
0.00045430934
8.5812058e-06
0.00045216143
8.4945948e-06
0.00045003661
8.4146975e-06
0.00044793268
8.3431878e-06
0.00044584555
8.2875748e-06
0.00044377178
8.2471531e-06
0.00044170069
8.2493752e-06
0.00043962882
8.2729227e-06
0.00043752465
8.4174374e-06
0.00043539062
8.5872823e-06
0.00043312804
9.1071778e-06
0.00043081096
9.5865338e-06
0.0004279179
1.0612282e-05
1.1531058e-05
0.00095229961
6.6632434e-05
-0.00095010247
0.00095683175
8.6204638e-05
0.00096213515
0.00010002841
0.00096693114
0.00010676931
0.00097082479
0.00010865552
0.00097380814
0.00010792634
0.00097611301
0.00010617573
0.00097796771
0.00010417974
0.00097939693
0.00010199207
0.00098044891
9.9708034e-05
0.00098118656
9.7403283e-05
0.00098161588
9.5098986e-05
0.0009816519
9.2842075e-05
0.00098111777
9.0714059e-05
0.00097984157
8.8692516e-05
0.00097745087
8.6773255e-05
0.00097348043
8.4971814e-05
0.00096764197
8.3230946e-05
0.00095975555
8.1489608e-05
0.00094982659
7.9570438e-05
0.0009379898
7.7388623e-05
0.00092444996
7.4981017e-05
0.00090953587
7.2300529e-05
0.00089369381
6.9317132e-05
0.00087741174
6.6078372e-05
0.00086113438
6.2679849e-05
0.00084520768
5.9228138e-05
0.00082985304
5.583773e-05
0.00081518065
5.260814e-05
0.00080122934
4.9581128e-05
0.00078799943
4.67671e-05
0.00077547128
4.4170082e-05
0.00076361468
4.1782551e-05
0.00075239347
3.9588624e-05
0.00074176712
3.7576269e-05
0.00073169466
3.5736247e-05
0.00072213782
3.4049619e-05
0.00071305919
3.2499963e-05
0.00070442298
3.1079333e-05
0.00069619659
2.9772619e-05
0.00068834997
2.8568075e-05
0.00068085486
2.7459151e-05
0.00067368556
2.6433675e-05
0.00066681841
2.5484357e-05
0.00066023139
2.4605949e-05
0.00065390457
2.3789457e-05
0.00064781958
2.3031696e-05
0.00064195981
2.2326422e-05
0.00063631031
2.1666751e-05
0.00063085699
2.1051349e-05
0.00062558713
2.0474373e-05
0.00062048902
1.993299e-05
0.00061555179
1.9424481e-05
0.00061076564
1.894474e-05
0.0006061212
1.8493317e-05
0.00060161003
1.8066712e-05
0.00059722447
1.766348e-05
0.00059295756
1.7281588e-05
0.0005888029
1.6918755e-05
0.00058475442
1.6573823e-05
0.00058080655
1.6244579e-05
0.0005769541
1.5930872e-05
0.00057319231
1.5631179e-05
0.00056951665
1.5344793e-05
0.00056592287
1.5070634e-05
0.00056240716
1.4808109e-05
0.000558966
1.4556458e-05
0.00055559603
1.4314718e-05
0.00055229411
1.4082242e-05
0.0005490573
1.3858375e-05
0.00054588288
1.3642738e-05
0.00054276828
1.3434727e-05
0.00053971102
1.3234049e-05
0.00053670879
1.3040259e-05
0.00053375939
1.2853204e-05
0.00053086079
1.2672323e-05
0.00052801104
1.2497366e-05
0.00052520829
1.2327879e-05
0.00052245078
1.2163825e-05
0.00051973683
1.2004973e-05
0.00051706476
1.1851461e-05
0.00051443295
1.1703042e-05
0.00051183979
1.1559828e-05
0.00050928371
1.1421411e-05
0.00050676316
1.1287756e-05
0.00050427658
1.1158947e-05
0.00050182229
1.1035496e-05
0.00049939848
1.0918396e-05
0.00049700284
1.0810347e-05
0.00049463275
1.0713273e-05
0.00049228369
1.0636639e-05
0.00048995177
1.057907e-05
0.00048762558
1.0575565e-05
0.00048530113
1.059737e-05
0.00048294515
1.077342e-05
0.00048055985
1.0972584e-05
0.00047804019
1.1626839e-05
0.00047547107
1.2155651e-05
0.00047222444
1.3858912e-05
1.4107337e-05
0.00098551803
6.4670348e-05
-0.00098355594
0.00098954115
8.2181515e-05
0.00099440154
9.5168013e-05
0.00099894847
0.00010222238
0.0010027179
0.0001048861
0.0010056652
0.00010497899
0.0010079706
0.0001038704
0.0010098367
0.00010231358
0.0010113519
0.00010047687
0.0010125834
9.8476577e-05
0.0010135734
9.6413285e-05
0.0010143307
9.4341631e-05
0.0010148632
9.2309575e-05
0.0010152389
9.0338397e-05
0.0010154125
8.8518956e-05
0.0010153041
8.6881598e-05
0.001014882
8.539393e-05
0.0010140081
8.4104879e-05
0.0010124793
8.3018338e-05
0.0010099589
8.2090838e-05
0.0010060823
8.1265253e-05
0.0010005425
8.0520811e-05
0.00099314276
7.9700278e-05
0.00098383498
7.8624907e-05
0.00097267108
7.7242272e-05
0.00095983812
7.5512808e-05
0.00094568472
7.3381543e-05
0.00093067545
7.0846999e-05
0.00091529009
6.7993504e-05
0.0008999412
6.4930015e-05
0.0008849216
6.1786701e-05
0.00087040177
5.8689912e-05
0.00085646353
5.5720787e-05
0.00084313821
5.2913946e-05
0.00083042971
5.0284773e-05
0.00081832585
4.7840103e-05
0.00080680529
4.5570177e-05
0.00079584007
4.3465182e-05
0.00078539885
4.1520559e-05
0.00077545036
3.9721102e-05
0.00076596374
3.8054698e-05
0.00075690862
3.651427e-05
0.00074825649
3.508581e-05
0.00073998032
3.3760518e-05
0.00073205458
3.2531692e-05
0.00072445565
3.1388391e-05
0.00071716131
3.0326033e-05
0.0007101512
2.9336537e-05
0.00070340672
2.8411225e-05
0.00069691037
2.7547698e-05
0.00069064621
2.6738538e-05
0.00068459946
2.5979736e-05
0.00067875651
2.5267432e-05
0.00067310493
2.459632e-05
0.00066763299
2.3965263e-05
0.00066232993
2.336977e-05
0.00065718581
2.2807593e-05
0.00065219157
2.2275835e-05
0.00064733887
2.1771456e-05
0.00064261993
2.1292758e-05
0.00063802761
2.0836904e-05
0.00063355519
2.0403292e-05
0.00062919652
1.9989847e-05
0.00062494576
1.959555e-05
0.00062079747
1.9218925e-05
0.00061674669
1.8858892e-05
0.00061278883
1.8514312e-05
0.00060891958
1.8183973e-05
0.00060513485
1.7866973e-05
0.00060143084
1.7562379e-05
0.00059780401
1.7269569e-05
0.00059425103
1.6987706e-05
0.00059076874
1.6716344e-05
0.00058735415
1.6454851e-05
0.00058400446
1.6202894e-05
0.00058071703
1.595975e-05
0.00057748936
1.5725037e-05
0.00057431908
1.5498158e-05
0.00057120393
1.5278975e-05
0.00056814175
1.5067153e-05
0.00056513043
1.4862782e-05
0.00056216792
1.4665548e-05
0.0005592522
1.4475554e-05
0.00055638127
1.4292333e-05
0.00055355319
1.4115837e-05
0.00055076598
1.3946162e-05
0.00054801756
1.3783914e-05
0.00054530573
1.3630228e-05
0.00054262774
1.3488338e-05
0.00053998059
1.3360424e-05
0.00053735928
1.325795e-05
0.00053475946
1.3178885e-05
0.00053216906
1.3165966e-05
0.00052958347
1.3182955e-05
0.00052696805
1.3388849e-05
0.00052432441
1.3616217e-05
0.00052154236
1.4408896e-05
0.00051871638
1.4981625e-05
0.00051511893
1.7456368e-05
1.6890369e-05
0.0010198791
6.2868511e-05
-0.0010180772
0.0010234817
7.8578907e-05
0.0010279255
9.0724169e-05
0.001032224
9.7923888e-05
0.0010359022
0.00010120789
0.0010388558
0.00010202546
0.0010411969
0.00010152929
0.0010430892
0.00010042124
0.0010446285
9.8937589e-05
0.0010458856
9.7219518e-05
0.0010469128
9.5385995e-05
0.0010477441
9.3510398e-05
0.0010484047
9.1648911e-05
0.0010489088
8.9834362e-05
0.0010492769
8.815082e-05
0.0010495218
8.6636744e-05
0.0010496556
8.5260138e-05
0.0010496768
8.408369e-05
0.0010495528
8.3142324e-05
0.0010492389
8.2404677e-05
0.0010486408
8.1863386e-05
0.001047638
8.1523655e-05
0.0010460019
8.1336318e-05
0.0010433869
8.1239932e-05
0.0010394488
8.1180336e-05
0.0010338701
8.1091486e-05
0.0010264508
8.0800935e-05
0.0010171358
8.0161998e-05
0.0010059915
7.91378e-05
0.00099326623
7.7655246e-05
0.00097937658
7.5676346e-05
0.00096481183
7.3254658e-05
0.00095002633
7.0506294e-05
0.00093536648
6.7573792e-05
0.00092105056
6.4600698e-05
0.00090719517
6.1695485e-05
0.00089385693
5.8908424e-05
0.00088105912
5.6262985e-05
0.00086880486
5.3774827e-05
0.00085708473
5.1441229e-05
0.00084588077
4.9258656e-05
0.00083517009
4.7224951e-05
0.00082492825
4.5327648e-05
0.00081512975
4.3559016e-05
0.00080574887
4.1912574e-05
0.00079676083
4.0376435e-05
0.00078814141
3.8945451e-05
0.00077986775
3.7610198e-05
0.00077191848
3.6360491e-05
0.00076427316
3.5193018e-05
0.00075691294
3.4098763e-05
0.00074982015
3.3072519e-05
0.00074297843
3.2109159e-05
0.00073637269
3.1202054e-05
0.00072998871
3.0349251e-05
0.00072381334
2.9545135e-05
0.00071783433
2.8786602e-05
0.00071204037
2.8069799e-05
0.00070642104
2.7390787e-05
0.00070096662
2.6747169e-05
0.00069566819
2.6135334e-05
0.00069051734
2.5554145e-05
0.00068550633
2.5000861e-05
0.00068062791
2.4473967e-05
0.00067587532
2.3971513e-05
0.00067124227
2.3491944e-05
0.00066672293
2.3033649e-05
0.00066231188
2.2595027e-05
0.000658004
2.2174854e-05
0.00065379451
2.1771871e-05
0.00064967892
2.1385159e-05
0.00064565304
2.1013581e-05
0.00064171291
2.0656473e-05
0.0006378548
2.0312965e-05
0.00063407518
1.9982511e-05
0.00063037075
1.9664183e-05
0.00062673835
1.935743e-05
0.00062317504
1.9061475e-05
0.00061967797
1.8776045e-05
0.00061624445
1.8500672e-05
0.00061287186
1.8235367e-05
0.00060955768
1.7979729e-05
0.0006062994
1.7733836e-05
0.00060309458
1.7497154e-05
0.00059994079
1.7269621e-05
0.00059683562
1.7051337e-05
0.00059377653
1.6843003e-05
0.00059076087
1.6645888e-05
0.00058778545
1.6463762e-05
0.00058484681
1.6299064e-05
0.00058193947
1.6165283e-05
0.0005790586
1.605976e-05
0.00057619148
1.6033084e-05
0.00057333286
1.6041572e-05
0.00057044691
1.6274797e-05
0.00056753454
1.6528593e-05
0.00056448101
1.7462422e-05
0.00056139002
1.807262e-05
0.0005574381
2.1408288e-05
1.9890893e-05
0.0010553591
6.1183443e-05
-0.001053674
0.0010586165
7.5321441e-05
0.0010626867
8.6653973e-05
0.0010667316
9.3878972e-05
0.001070301
9.7638558e-05
0.0010732554
9.9070988e-05
0.0010756475
9.9137239e-05
0.001077597
9.8471719e-05
0.0010791887
9.7345868e-05
0.0010804883
9.5919929e-05
0.0010815489
9.4325398e-05
0.0010824101
9.2649244e-05
0.001083103
9.0956018e-05
0.0010836477
8.92896e-05
0.0010840723
8.7726236e-05
0.0010843996
8.6309499e-05
0.001084632
8.50277e-05
0.0010847839
8.3931774e-05
0.001084881
8.3045217e-05
0.0010849173
8.2368354e-05
0.0010848803
8.1900473e-05
0.0010847691
8.1634795e-05
0.0010845459
8.155954e-05
0.0010841428
8.1643036e-05
0.0010834581
8.1865013e-05
0.001082343
8.2206565e-05
0.0010805207
8.2623223e-05
0.0010776265
8.3056272e-05
0.0010732997
8.3464554e-05
0.0010672437
8.3711255e-05
0.0010592975
8.3622551e-05
0.0010494383
8.3113878e-05
0.0010378337
8.211092e-05
0.0010248521
8.0555369e-05
0.0010109794
7.8473338e-05
0.00099669461
7.598032e-05
0.00098237906
7.3223977e-05
0.00096828283
7.0359212e-05
0.00095454719
6.7510464e-05
0.00094124761
6.4740816e-05
0.00092842217
6.208409e-05
0.00091608587
5.9561256e-05
0.00090423899
5.7174527e-05
0.00089287158
5.4926422e-05
0.00088196772
5.2816438e-05
0.00087150864
5.0835512e-05
0.00086147331
4.8980783e-05
0.00085184012
4.7243389e-05
0.00084258763
4.5612977e-05
0.00083369439
4.4086266e-05
0.00082513999
4.2653158e-05
0.00081690488
4.1307624e-05
0.00080897056
4.0043479e-05
0.00080131977
3.8852853e-05
0.00079393598
3.7733037e-05
0.00078680387
3.6677247e-05
0.00077990897
3.5681501e-05
0.0007732378
3.4740968e-05
0.00076677783
3.3850753e-05
0.00076051734
3.3007661e-05
0.00075444549
3.220719e-05
0.00074855206
3.1447573e-05
0.00074282762
3.0725298e-05
0.00073726336
3.0038229e-05
0.00073185105
2.9383827e-05
0.00072658297
2.8760016e-05
0.00072145197
2.8164655e-05
0.00071645134
2.759565e-05
0.00071157483
2.705137e-05
0.00070681654
2.6530158e-05
0.00070217096
2.6030744e-05
0.00069763291
2.5551631e-05
0.00069319752
2.5091858e-05
0.00068886022
2.4650267e-05
0.00068461667
2.4226059e-05
0.00068046281
2.3818049e-05
0.00067639476
2.3425477e-05
0.00067240889
2.3047346e-05
0.00066850172
2.2683214e-05
0.00066466995
2.2332438e-05
0.0006609104
2.1994921e-05
0.00065721998
2.1670149e-05
0.00065359566
2.1358155e-05
0.00065003448
2.105833e-05
0.00064653352
2.0770588e-05
0.00064308982
2.049503e-05
0.00063970038
2.0232447e-05
0.00063636203
1.9984237e-05
0.00063307109
1.9754701e-05
0.00062982362
1.9546537e-05
0.00062661363
1.9375274e-05
0.00062343574
1.9237652e-05
0.00062027663
1.9192187e-05
0.00061713038
1.9187827e-05
0.0006139601
1.9445073e-05
0.0006107659
1.9722797e-05
0.00060742893
2.0799386e-05
0.00060406207
2.1439487e-05
0.00059974761
2.5722746e-05
2.3119953e-05
0.0010919709
5.959277e-05
-0.0010903802
0.0010949377
7.2354577e-05
0.0010986778
8.2913926e-05
0.0011024785
9.0078265e-05
0.0011059217
9.4195364e-05
0.0011088525
9.6140215e-05
0.0011112811
9.6708571e-05
0.0011132892
9.6463601e-05
0.0011149451
9.5690049e-05
0.0011163048
9.4560147e-05
0.0011174177
9.3212567e-05
0.0011183229
9.1744022e-05
0.0011190528
9.022613e-05
0.0011196312
8.871119e-05
0.0011200865
8.7270891e-05
0.0011204433
8.5952727e-05
0.0011207124
8.4758642e-05
0.0011209115
8.3732652e-05
0.0011210557
8.2900968e-05
0.0011211555
8.2268643e-05
0.0011212194
8.1836476e-05
0.0011212549
8.15993e-05
0.0011212631
8.1551362e-05
0.0011212356
8.1670541e-05
0.0011211577
8.1942901e-05
0.0011210049
8.2359415e-05
0.0011207295
8.2898556e-05
0.0011202474
8.3538423e-05
0.0011194424
8.4269583e-05
0.0011180932
8.5060411e-05
0.0011158571
8.5858621e-05
0.001112353
8.661803e-05
0.0011072205
8.7243363e-05
0.0011002147
8.7561185e-05
0.0010912518
8.7436298e-05
0.0010804429
8.6789196e-05
0.0010681235
8.554336e-05
0.0010547759
8.3706837e-05
0.0010408928
8.1393513e-05
0.0010268737
7.8759914e-05
0.001012984
7.5973839e-05
0.0009993781
7.3167142e-05
0.00098614338
7.0409246e-05
0.00097332794
6.7741861e-05
0.00096095528
6.5189098e-05
0.00094903283
6.2757968e-05
0.00093755662
6.0456986e-05
0.00092651629
5.8283723e-05
0.00091589749
5.6231781e-05