/*--------------------------------*- C++ -*----------------------------------*\
| =========                 |                                                 |
| \\      /  F ield         | OpenFOAM: The Open Source CFD Toolbox           |
|  \\    /   O peration     | Version:  2206                                  |
|   \\  /    A nd           | Website:  www.openfoam.com                      |
|    \\/     M anipulation  |                                                 |
\*---------------------------------------------------------------------------*/
FoamFile
{
    version     2.0;
    format      ascii;
    arch        "LSB;label=32;scalar=64";
    class       volVectorField;
    location    "500";
    object      U;
}
// * * * * * * * * * * * * * * * * * * * * * * * * * * * * * * * * * * * * * //

dimensions      [0 1 -1 0 0 0 0];

internalField   nonuniform List<vector> 
7480
(
(0.86069922 0.014736571 5.8417509e-16)
(0.74496954 0.025618112 0)
(0.6290663 0.027275564 0)
(0.52565148 0.019501198 0)
(0.44988011 0.0094076385 0)
(0.3975824 0.0037516056 0)
(0.35981942 0.0017185752 0)
(0.330684 0.0012081869 0)
(0.30697646 0.0010841251 0)
(0.2870915 0.00096694816 0)
(0.27025855 0.00081840207 0)
(0.25599816 0.00067088222 0)
(0.2439062 0.00054259862 0)
(0.23362972 0.00043774702 0)
(0.22486977 0.00035423677 0)
(0.21737244 0.00028689297 0)
(0.21093992 0.00023264599 0)
(0.20540991 0.00018202128 0)
(0.2006054 0.00029811527 -1.7167105e-17)
(0.19646769 0.00030272492 -1.6540155e-17)
(0.19279514 0.00013519424 0)
(0.18953003 8.96791e-05 0)
(0.18659275 7.7063961e-05 0)
(0.18391773 6.8582283e-05 0)
(0.1814634 6.1213383e-05 0)
(0.17919333 5.491891e-05 0)
(0.17708274 4.9580297e-05 0)
(0.17510721 4.5249582e-05 0)
(0.17324492 4.1840467e-05 0)
(0.17147759 3.8914452e-05 0)
(0.169795 3.6194068e-05 0)
(0.16818937 3.3755065e-05 0)
(0.16665237 3.1587605e-05 0)
(0.16517738 2.9643081e-05 0)
(0.16375695 2.7897413e-05 0)
(0.16238788 2.6400677e-05 0)
(0.16105921 2.5088905e-05 0)
(0.15976964 2.3829095e-05 0)
(0.15851562 2.2690361e-05 0)
(0.15729313 2.1653464e-05 0)
(0.15609937 2.0694809e-05 0)
(0.15493161 1.9819347e-05 0)
(0.15378777 1.8975773e-05 0)
(0.15266664 1.8175436e-05 0)
(0.15156637 1.7429033e-05 0)
(0.15048598 1.6708153e-05 0)
(0.149424 1.604223e-05 0)
(0.14837874 1.5415752e-05 0)
(0.14734936 1.4808263e-05 0)
(0.14633488 1.424023e-05 0)
(0.14533449 1.3686408e-05 0)
(0.14434775 1.3154548e-05 0)
(0.143374 1.2646086e-05 0)
(0.14241293 1.2151126e-05 0)
(0.14146394 1.1683824e-05 0)
(0.14052659 1.1229464e-05 0)
(0.13960057 1.0795451e-05 0)
(0.13868532 1.0381603e-05 0)
(0.1377804 9.9833135e-06 0)
(0.13688545 9.6010089e-06 0)
(0.13600041 9.2275119e-06 0)
(0.13512513 8.8701435e-06 0)
(0.13425935 8.5246616e-06 0)
(0.13340288 8.1928976e-06 0)
(0.13255553 7.8726926e-06 0)
(0.13171717 7.5652638e-06 0)
(0.1308875 7.2704759e-06 0)
(0.13006633 6.986548e-06 0)
(0.12925353 6.7131373e-06 0)
(0.12844899 6.4496266e-06 0)
(0.12765256 6.1966651e-06 0)
(0.12686409 5.9529897e-06 0)
(0.12608346 5.718638e-06 0)
(0.12531059 5.4927005e-06 0)
(0.12454536 5.2759715e-06 0)
(0.12378762 5.0672255e-06 0)
(0.12303727 4.8667163e-06 0)
(0.12229423 4.6734135e-06 0)
(0.12155838 4.4878798e-06 0)
(0.12082965 4.3092489e-06 0)
(0.12010788 4.1380296e-06 0)
(0.11939297 3.9731911e-06 0)
(0.11868479 3.8150251e-06 0)
(0.11798323 3.6625247e-06 0)
(0.11728825 3.5156275e-06 0)
(0.11659974 3.3742613e-06 0)
(0.11591766 3.2379631e-06 0)
(0.11524179 3.1079391e-06 0)
(0.11457196 2.983229e-06 0)
(0.11390742 2.8677186e-06 0)
(0.11324788 2.7570454e-06 0)
(0.11259064 2.665579e-06 0)
(0.11193675 2.5696073e-06 0)
(0.11127567 2.5327552e-06 0)
(0.1106187 2.431006e-06 0)
(0.10992321 2.5588956e-06 0)
(0.10924784 2.3429897e-06 -4.1796874e-23)
(0.10843175 6.5696143e-06 7.5151899e-20)
(0.1077728 -1.5912787e-06 -3.4983743e-19)
(0.10638785 1.3266736e-05 -1.3245223e-18)
(0.95748763 0.024781743 0)
(0.94358561 0.032440971 0)
(0.9125735 0.032599708 0)
(0.86095455 0.028814037 0)
(0.79804959 0.022969528 0)
(0.73495463 0.017313998 0)
(0.67799812 0.012907038 0)
(0.62919845 0.0098318832 0)
(0.58815892 0.0077470809 0)
(0.55364133 0.0062553517 0)
(0.5244229 0.0051190913 0)
(0.49952113 0.0042187202 0)
(0.47818273 0.0034881163 0)
(0.45982833 0.0028903179 0)
(0.44399028 0.0023995989 0)
(0.43029586 0.0019950012 0)
(0.41842075 0.0016634806 0)
(0.40807779 0.0013946248 0)
(0.39900431 0.0011767363 0)
(0.39100588 0.00099038445 0)
(0.38389474 0.00084697647 0)
(0.37751982 0.00074299704 0)
(0.37175448 0.00065397502 0)
(0.36649856 0.00057917325 0)
(0.36167468 0.00051724317 0)
(0.35721537 0.00046524748 0)
(0.35307362 0.00042090112 0)
(0.34920296 0.00038330807 0)
(0.34556535 0.00035158479 0)
(0.34212891 0.0003241044 0)
(0.33887153 0.00029957926 0)
(0.3357749 0.0002777161 0)
(0.33282174 0.00025821414 0)
(0.32999775 0.00024075368 0)
(0.32728855 0.00022501291 0)
(0.32468623 0.0002111219 0)
(0.32217149 0.00019877604 0)
(0.31974084 0.00018735495 0)
(0.31738591 0.00017700444 0)
(0.31509872 0.00016757173 0)
(0.31287345 0.00015890387 0)
(0.31070473 0.00015094818 0)
(0.30858798 0.0001435181 0)
(0.30651986 0.00013658061 0)
(0.30449657 0.00013012108 0)
(0.30251553 0.00012404439 0)
(0.30057355 0.00011840238 0)
(0.29866742 0.00011313085 0)
(0.29679497 0.00010814686 0)
(0.2949541 0.00010347283 0)
(0.29314296 9.90303e-05 0)
(0.29136018 9.4814892e-05 0)
(0.2896043 9.081565e-05 0)
(0.28787427 8.6998645e-05 0)
(0.28616882 8.3386733e-05 0)
(0.2844869 7.9936357e-05 0)
(0.28282761 7.6656135e-05 0)
(0.2811898 7.354157e-05 0)
(0.27957248 7.0572286e-05 0)
(0.27797488 6.7735928e-05 0)
(0.27639658 6.5007216e-05 0)
(0.27483711 6.2399753e-05 0)
(0.27329587 5.9901875e-05 0)
(0.27177233 5.7511776e-05 0)
(0.27026605 5.522027e-05 0)
(0.2687766 5.3027873e-05 0)
(0.2673034 5.0931813e-05 0)
(0.265846 4.8922765e-05 0)
(0.26440405 4.6995435e-05 0)
(0.26297723 4.5145887e-05 0)
(0.26156521 4.3373447e-05 0)
(0.26016763 4.1672568e-05 0)
(0.25878422 4.0040129e-05 0)
(0.25741475 3.8472244e-05 0)
(0.2560589 3.6969305e-05 0)
(0.25471639 3.5526419e-05 0)
(0.25338696 3.4141742e-05 0)
(0.2520704 3.2811103e-05 0)
(0.25076648 3.15343e-05 0)
(0.24947497 3.0308273e-05 0)
(0.24819561 2.913298e-05 0)
(0.24692813 2.8004696e-05 0)
(0.24567227 2.6922633e-05 0)
(0.24442779 2.5882569e-05 0)
(0.24319454 2.4882985e-05 0)
(0.2419723 2.3922717e-05 0)
(0.24076093 2.3000928e-05 0)
(0.23956 2.2120465e-05 0)
(0.23836917 2.1283706e-05 0)
(0.23718712 2.0498746e-05 0)
(0.23601328 1.9773387e-05 0)
(0.2348431 1.9124572e-05 0)
(0.23367807 1.8569291e-05 0)
(0.23250064 1.8153309e-05 0)
(0.23132881 1.7874197e-05 0)
(0.23009204 1.798525e-05 0)
(0.22888505 1.8179011e-05 1.2383894e-22)
(0.22744098 2.0505165e-05 0)
(0.22625151 1.2278757e-05 0)
(0.22379279 3.3992279e-05 0)
(0.9660665 0.026131124 0)
(0.97095487 0.035019596 0)
(0.97599038 0.03863856 0)
(0.97483237 0.037542996 0)
(0.96023117 0.034335244 0)
(0.93204513 0.029994463 0)
(0.89532111 0.025292928 0)
(0.85524357 0.020887988 0)
(0.81509546 0.017150577 0)
(0.77680862 0.014088191 0)
(0.74141869 0.011609051 0)
(0.70937905 0.0096066355 0)
(0.68074611 0.0079822173 0)
(0.65533396 0.0066589227 0)
(0.63283184 0.0055781835 0)
(0.61290944 0.0046914531 0)
(0.59524449 0.0039625752 0)
(0.57953927 0.0033629694 0)
(0.56552638 0.0028665307 0)
(0.55298215 0.002459264 0)
(0.5417049 0.0021308772 0)
(0.53151452 0.0018624716 0)
(0.52225946 0.001639688 0)
(0.5138098 0.0014541026 0)
(0.50605531 0.0012987154 0)
(0.49890043 0.0011675081 0)
(0.49226377 0.0010553089 0)
(0.48608122 0.00095903136 0)
(0.48029802 0.0008764961 0)
(0.47486805 0.00080462226 0)
(0.46975171 0.0007409467 0)
(0.46491534 0.0006844145 0)
(0.46032925 0.00063409118 0)
(0.45596824 0.00058909323 0)
(0.45180995 0.0005486032 0)
(0.44783716 0.00051275565 0)
(0.44402403 0.00048075997 0)
(0.4403619 0.00045139651 0)
(0.43683496 0.00042482447 0)
(0.43343079 0.00040063169 0)
(0.43013944 0.0003784537 0)
(0.42695162 0.00035812385 0)
(0.42385893 0.00033927701 0)
(0.42085454 0.00032178562 0)
(0.41793167 0.00030555832 0)
(0.41508492 0.00029039981 0)
(0.41230864 0.00027635122 0)
(0.40959756 0.00026326704 0)
(0.40694749 0.00025097627 0)
(0.40435452 0.00023947851 0)
(0.40181509 0.00022862484 0)
(0.39932625 0.00021838131 0)
(0.39688509 0.00020870721 0)
(0.39448925 0.00019952912 0)
(0.39213635 0.00019086411 0)
(0.38982428 0.00018263098 0)
(0.3875511 0.00017483129 0)
(0.38531479 0.00016744568 0)
(0.38311357 0.00016042821 0)
(0.38094593 0.0001537464 0)
(0.37881072 0.00014735152 0)
(0.37670679 0.00014125777 0)
(0.3746329 0.00013544058 0)
(0.37258797 0.00012988927 0)
(0.37057102 0.00012458335 0)
(0.36858113 0.00011951907 0)
(0.36661725 0.00011468714 0)
(0.36467851 0.00011006687 0)
(0.36276417 0.00010564498 0)
(0.36087353 0.00010141142 0)
(0.35900588 9.7361478e-05 0)
(0.35716057 9.348282e-05 0)
(0.35533699 8.9766985e-05 0)
(0.35353461 8.6205284e-05 0)
(0.35175283 8.2795857e-05 0)
(0.34999109 7.9528248e-05 0)
(0.34824888 7.6396773e-05 0)
(0.34652574 7.3392563e-05 0)
(0.34482122 7.0513244e-05 0)
(0.34313487 6.7752358e-05 0)
(0.34146619 6.5108249e-05 0)
(0.3398147 6.2573458e-05 0)
(0.33817995 6.0145145e-05 0)
(0.33656144 5.7814765e-05 0)
(0.33495881 5.5578352e-05 0)
(0.33337163 5.3432822e-05 0)
(0.33179952 5.1376618e-05 0)
(0.3302418 4.9413878e-05 0)
(0.32869787 4.7551754e-05 0)
(0.32716594 4.5802209e-05 0)
(0.3256452 4.4192042e-05 0)
(0.32412985 4.2735285e-05 0)
(0.32262169 4.1517542e-05 0)
(0.32109871 4.0530932e-05 0)
(0.31958335 4.0003773e-05 0)
(0.31798728 3.9995118e-05 0)
(0.31642862 4.0842612e-05 1.3396651e-22)
(0.31457319 4.395725e-05 0)
(0.3130245 3.5455762e-05 0)
(0.30988456 6.3314637e-05 -5.4620806e-20)
(0.96864492 0.024289587 0)
(0.97423598 0.032437416 0)
(0.98226243 0.036272923 0)
(0.98883497 0.036602626 0)
(0.99234824 0.034861931 0)
(0.99198325 0.032382538 0)
(0.98579369 0.02974637 0)
(0.97295375 0.02711532 0)
(0.9536246 0.024439566 0)
(0.92975791 0.021590681 0)
(0.90310932 0.018770592 0)
(0.87507452 0.016141431 0)
(0.84681725 0.013797873 0)
(0.8192427 0.011766562 0)
(0.79299643 0.010025047 0)
(0.76847595 0.0085422356 0)
(0.74586068 0.0072919205 0)
(0.72516151 0.0062456791 0)
(0.70628391 0.0053772929 0)
(0.68908629 0.0046580836 0)
(0.67341173 0.0040608802 0)
(0.6591044 0.0035642953 0)
(0.64602021 0.003147817 0)
(0.63402395 0.0027953765 0)
(0.6229904 0.0024962907 0)
(0.61280729 0.0022414196 0)
(0.60337071 0.0020224417 0)
(0.59459731 0.0018334463 0)
(0.58641511 0.0016700086 0)
(0.57876004 0.001527214 0)
(0.57157518 0.0014010785 0)
(0.56481114 0.0012894351 0)
(0.55842441 0.0011903375 0)
(0.55237636 0.0011019124 0)
(0.54663541 0.0010225502 0)
(0.54117257 0.00095184632 0)
(0.53596245 0.0008885876 0)
(0.53098188 0.00083101361 0)
(0.52621076 0.00077891943 0)
(0.52163067 0.00073159755 0)
(0.51722603 0.00068835212 0)
(0.51298259 0.00064881072 0)
(0.50888729 0.00061236465 0)
(0.50492898 0.00057871816 0)
(0.50109709 0.00054763426 0)
(0.49738267 0.00051875933 0)
(0.49377721 0.00049206436 0)
(0.4902728 0.00046728511 0)
(0.48686275 0.00044412854 0)
(0.48354094 0.00042253688 0)
(0.48030165 0.00040227044 0)
(0.47713991 0.00038323943 0)
(0.47405098 0.00036534801 0)
(0.47103082 0.00034846074 0)
(0.46807565 0.00033256601 0)
(0.46518199 0.00031753572 0)
(0.46234661 0.00030334884 0)
(0.45956636 0.00028995382 0)
(0.45683857 0.00027726743 0)
(0.45416079 0.00026523014 0)
(0.45153088 0.00025376454 0)
(0.44894678 0.00024287439 0)
(0.44640647 0.00023251435 0)
(0.44390815 0.00022265708 0)
(0.44145016 0.00021326524 0)
(0.43903094 0.00020432497 0)
(0.43664888 0.00019581451 0)
(0.43430261 0.00018769755 0)
(0.43199086 0.00017994925 0)
(0.42971245 0.00017254964 0)
(0.42746623 0.0001654858 0)
(0.42525114 0.00015873564 0)
(0.42306619 0.00015228274 0)
(0.42091044 0.00014611128 0)
(0.41878294 0.00014021409 0)
(0.41668282 0.00013457299 0)
(0.41460924 0.00012917626 0)
(0.41256144 0.00012400863 0)
(0.41053868 0.00011906353 0)
(0.40854023 0.00011432968 0)
(0.40656536 0.0001098022 0)
(0.40461332 0.00010546886 0)
(0.40268339 0.00010132351 0)
(0.40077484 9.7352336e-05 0)
(0.39888704 9.3547835e-05 0)
(0.39701927 8.9904013e-05 0)
(0.39517091 8.6418117e-05 0)
(0.393341 8.3094524e-05 0)
(0.39152865 7.9946322e-05 0)
(0.38973172 7.6987284e-05 0)
(0.38794912 7.427018e-05 0)
(0.38617427 7.1795863e-05 0)
(0.38440896 6.9750404e-05 0)
(0.38262884 6.8018556e-05 0)
(0.38085803 6.7196245e-05 0)
(0.37899971 6.6911861e-05 0)
(0.37718176 6.8679532e-05 1.2711678e-22)
(0.37503769 7.2277309e-05 0)
(0.37322155 6.6785795e-05 0)
(0.36960759 9.4535634e-05 4.1430145e-20)
(0.97047445 0.023185007 0)
(0.97535979 0.030414633 0)
(0.98273354 0.034203739 0)
(0.98980949 0.03474298 0)
(0.99490428 0.033491914 0)
(0.9979667 0.031622512 0)
(1.0003855 0.029727898 0)
(1.0002408 0.02797049 0)
(0.99863605 0.026266135 0)
(0.99394629 0.024519704 0)
(0.98544837 0.022721646 0)
(0.97295514 0.020849018 0)
(0.95700438 0.018867046 0)
(0.9384308 0.016859832 0)
(0.91794754 0.014924601 0)
(0.89625072 0.013123821 0)
(0.87404788 0.011502165 0)
(0.85196878 0.010058963 0)
(0.8305282 0.0087911562 0)
(0.81009108 0.0076900349 0)
(0.79086599 0.0067436885 0)
(0.77292492 0.0059409369 0)
(0.75624882 0.0052611532 0)
(0.74077276 0.0046825194 0)
(0.72641355 0.0041875895 0)
(0.71308379 0.0037617822 0)
(0.70069385 0.0033925908 0)
(0.68915767 0.003071081 0)
(0.67839442 0.0027909303 0)
(0.66832863 0.0025451807 0)
(0.65889331 0.0023280811 0)
(0.65002815 0.0021359559 0)
(0.64167818 0.0019654831 0)
(0.63379375 0.0018135011 0)
(0.62633291 0.0016774189 0)
(0.61925533 0.0015559591 0)
(0.61253208 0.0014470438 0)
(0.60612888 0.0013483788 0)
(0.60001908 0.001259269 0)
(0.59417802 0.0011783863 0)
(0.58858415 0.0011046664 0)
(0.58321741 0.0010374424 0)
(0.5780595 0.0009757538 0)
(0.57309446 0.0009190406 0)
(0.56830744 0.00086685647 0)
(0.56368496 0.00081859531 0)
(0.55921564 0.00077406082 0)
(0.55488863 0.00073282914 0)
(0.55069455 0.00069445435 0)
(0.54662467 0.00065879108 0)
(0.54267065 0.0006254766 0)
(0.53882524 0.00059432696 0)
(0.53508157 0.00056516149 0)
(0.53143364 0.00053775548 0)
(0.52787595 0.00051204402 0)
(0.52440333 0.00048783419 0)
(0.52101102 0.00046505798 0)
(0.51769465 0.00044360959 0)
(0.51445047 0.00042335656 0)
(0.51127488 0.00040420646 0)
(0.50816455 0.00038604342 0)
(0.50511636 0.00036884628 0)
(0.5021274 0.00035253849 0)
(0.49919498 0.00033706685 0)
(0.49631666 0.00032236964 0)
(0.49349011 0.0003084151 0)
(0.49071309 0.00029516151 0)
(0.48798364 0.00028255205 0)
(0.48529987 0.00027054587 0)
(0.48266004 0.00025910788 0)
(0.48006248 0.00024821191 0)
(0.47750568 0.00023782261 0)
(0.47498817 0.00022791268 0)
(0.47250854 0.00021845572 0)
(0.47006546 0.00020943547 0)
(0.46765766 0.00020082331 0)
(0.46528396 0.000192599 0)
(0.46294325 0.00018473867 0)
(0.46063446 0.00017722917 0)
(0.45835655 0.0001700525 0)
(0.45610849 0.00016319871 0)
(0.45388926 0.00015664937 0)
(0.45169786 0.00015039359 0)
(0.44953325 0.00014441116 0)
(0.44739454 0.00013868981 0)
(0.44528072 0.00013321948 0)
(0.44319087 0.00012799538 0)
(0.44112375 0.00012302102 0)
(0.43907818 0.00011831568 0)
(0.4370517 0.0001138934 0)
(0.43504289 0.00010983706 0)
(0.43304473 0.00010612811 0)
(0.43105865 0.00010307304 0)
(0.42905928 0.00010041744 0)
(0.42707068 9.9209819e-05 0)
(0.42499275 9.8507432e-05 0)
(0.4229554 0.00010133392 1.2334683e-22)
(0.4205789 0.00010504799 6.0018743e-20)
(0.4185387 0.00010509053 0)
(0.41454119 0.00012812994 0)
(0.97216516 0.022380702 0)
(0.97643857 0.02881685 0)
(0.98280568 0.032409166 0)
(0.98901746 0.033174842 0)
(0.99399364 0.032352592 0)
(0.997702 0.030835229 0)
(1.0002914 0.029180775 0)
(1.0021109 0.027624207 0)
(1.0033484 0.026105111 0)
(1.0040441 0.024644182 0)
(1.0039024 0.023258404 0)
(1.0026797 0.021919937 0)
(0.99974628 0.020598101 0)
(0.99446503 0.019279051 0)
(0.986548 0.017964359 0)
(0.97585949 0.016603691 0)
(0.96279346 0.015192789 0)
(0.9476557 0.013797164 0)
(0.93082372 0.012450844 0)
(0.91276815 0.011184102 0)
(0.89404355 0.01001597 0)
(0.87518562 0.0089541952 0)
(0.85665474 0.0079995094 0)
(0.83878515 0.0071509524 0)
(0.82177322 0.0064063523 0)
(0.80569947 0.0057591681 0)
(0.79057051 0.0051968424 0)
(0.77635717 0.0047057427 0)
(0.76301298 0.0042751737 0)
(0.75048352 0.0038949721 0)
(0.73871193 0.0035573903 0)
(0.72764017 0.0032575558 0)
(0.7172112 0.0029909152 0)
(0.70737195 0.0027528913 0)
(0.69807423 0.0025398049 0)
(0.68927056 0.0023491609 0)
(0.68092287 0.0021779296 0)
(0.67299291 0.0020232774 0)
(0.665446 0.0018836528 0)
(0.65825131 0.0017570717 0)
(0.65138153 0.0016419207 0)
(0.64481108 0.0015371062 0)
(0.63851647 0.0014412195 0)
(0.63247687 0.0013533309 0)
(0.62667306 0.0012726944 0)
(0.62108717 0.0011983861 0)
(0.61570397 0.0011299631 0)
(0.61050921 0.0010667708 0)
(0.60549037 0.0010081535 0)
(0.60063578 0.00095382774 0)
(0.59593438 0.00090326547 0)
(0.59137649 0.00085615419 0)
(0.58695294 0.00081219854 0)
(0.58265546 0.00077105153 0)
(0.57847657 0.00073257123 0)
(0.57440895 0.00069647 0)
(0.57044635 0.0006625994 0)
(0.56658299 0.00063078119 0)
(0.56281379 0.00060082133 0)
(0.55913377 0.00057258212 0)
(0.55553832 0.00054589546 0)
(0.55202317 0.00052070024 0)
(0.54858437 0.00049687576 0)
(0.54521829 0.00047433436 0)
(0.54192151 0.00045298167 0)
(0.53869084 0.00043275635 0)
(0.53552335 0.00041358773 0)
(0.53241634 0.0003953936 0)
(0.52936723 0.00037811122 0)
(0.52637365 0.00036168389 0)
(0.52343336 0.00034606651 0)
(0.52054431 0.00033120663 0)
(0.51770448 0.0003170627 0)
(0.51491195 0.00030359305 0)
(0.51216492 0.00029076789 0)
(0.50946174 0.00027854512 0)
(0.50680078 0.0002668932 0)
(0.50418057 0.00025577695 0)
(0.50159966 0.00024517401 0)
(0.49905667 0.00023505735 0)
(0.49655024 0.00022540976 0)
(0.49407903 0.00021620492 0)
(0.49164174 0.0002074256 0)
(0.48923703 0.00019904382 0)
(0.48686369 0.00019104117 0)
(0.48452041 0.00018340225 0)
(0.48220595 0.00017611916 0)
(0.47991877 0.00016919328 0)
(0.4776574 0.00016264978 0)
(0.47541904 0.00015650174 0)
(0.47320198 0.00015086421 0)
(0.47099884 0.00014569598 0)
(0.46881063 0.0001414352 0)
(0.46661153 0.0001376721 0)
(0.46442479 0.000135956 0)
(0.46214964 0.00013469789 0)
(0.45991433 0.00013863116 0)
(0.45733547 0.00014219606 0)
(0.45509677 0.00014973558 1.2124439e-19)
(0.45076549 0.00016459194 0)
(0.97384085 0.021622333 0)
(0.977509 0.02737726 0)
(0.98306985 0.030795059 0)
(0.98859343 0.031755962 0)
(0.99313165 0.031229613 0)
(0.99661856 0.029991782 0)
(0.99924457 0.028555189 0)
(1.0013125 0.027139413 0)
(1.0029908 0.025737992 0)
(1.0042374 0.024379433 0)
(1.005143 0.023081791 0)
(1.0057399 0.021844786 0)
(1.0060148 0.020674831 0)
(1.0058042 0.019584173 0)
(1.0049155 0.018557925 0)
(1.0031714 0.017578182 0)
(0.99998732 0.0166381 0)
(0.99501364 0.015720963 0)
(0.98798966 0.014807836 0)
(0.97881538 0.013858072 0)
(0.96760996 0.012870025 0)
(0.95452774 0.011876602 0)
(0.9398359 0.010896589 0)
(0.92394423 0.0099506406 0)
(0.90735765 0.0090527969 0)
(0.89057181 0.0082147702 0)
(0.87400219 0.0074464774 0)
(0.85793921 0.006753073 0)
(0.84254365 0.0061364301 0)
(0.82788067 0.005590862 0)
(0.81396305 0.0051065843 0)
(0.80077791 0.0046751622 0)
(0.78829829 0.004289362 0)
(0.7764891 0.0039430894 0)
(0.76531086 0.0036320244 0)
(0.75472005 0.0033528301 0)
(0.74467657 0.0031014645 0)
(0.73514175 0.0028744267 0)
(0.72607771 0.0026693786 0)
(0.71744923 0.0024835285 0)
(0.70922451 0.0023146199 0)
(0.70137377 0.0021610328 0)
(0.69386924 0.0020207989 0)
(0.68668573 0.0018925236 0)
(0.67980001 0.00177508 0)
(0.67319044 0.0016671363 0)
(0.66683754 0.0015679148 0)
(0.66072335 0.0014764653 0)
(0.65483185 0.0013918642 0)
(0.64914824 0.0013136408 0)
(0.64365869 0.0012410537 0)
(0.63835084 0.0011736133 0)
(0.63321308 0.001110868 0)
(0.62823486 0.0010523175 0)
(0.62340647 0.00099771042 0)
(0.61871862 0.00094663936 0)
(0.61416318 0.00089884896 0)
(0.60973266 0.00085406003 0)
(0.6054203 0.00081199608 0)
(0.60121969 0.00077245764 0)
(0.59712488 0.00073520863 0)
(0.59313036 0.00070013056 0)
(0.58923105 0.0006670459 0)
(0.58542224 0.00063582357 0)
(0.58169938 0.00060632402 0)
(0.57805833 0.0005784415 0)
(0.5744954 0.00055206815 0)
(0.57100708 0.00052709122 0)
(0.56759001 0.00050341873 0)
(0.56424109 0.00048096531 0)
(0.56095742 0.00045966053 0)
(0.55773632 0.00043942898 0)
(0.5545752 0.00042021009 0)
(0.55147159 0.00040194263 0)
(0.54842319 0.00038457864 0)
(0.54542785 0.00036805884 0)
(0.54248352 0.00035233699 0)
(0.53958826 0.00033736347 0)
(0.53674023 0.00032310367 0)
(0.53393767 0.00030951885 0)
(0.53117885 0.0002965821 0)
(0.52846211 0.00028425712 0)
(0.52578578 0.0002725185 0)
(0.52314822 0.00026132892 0)
(0.52054787 0.00025066233 0)
(0.5179831 0.00024049649 0)
(0.51545233 0.00023081907 0)
(0.51295371 0.00022162807 0)
(0.51048542 0.00021295365 0)
(0.50804439 0.00020480685 0)
(0.50562856 0.00019733558 0)
(0.50323028 0.00019047421 0)
(0.50085009 0.00018479862 0)
(0.49846204 0.00017973604 0)
(0.49608822 0.00017736349 0)
(0.49362856 0.00017540651 0)
(0.49120794 0.00018043372 0)
(0.48844414 0.00018363183 0)
(0.48602358 0.00020029949 1.0835045e-19)
(0.48138945 0.00020412017 0)
(0.97553686 0.020950861 0)
(0.97867757 0.026047701 0)
(0.98350467 0.029295669 0)
(0.98847517 0.03043657 0)
(0.99269194 0.030174557 0)
(0.99599354 0.029189236 0)
(0.99853424 0.027942305 0)
(1.0005463 0.02665321 0)
(1.0021978 0.025357231 0)
(1.0035445 0.024084709 0)
(1.0046384 0.022855943 0)
(1.0055013 0.021679296 0)
(1.0061351 0.020562079 0)
(1.0065499 0.019510602 0)
(1.0068858 0.018533547 0)
(1.0068857 0.017635512 0)
(1.0066594 0.016811494 0)
(1.0060503 0.016054718 0)
(1.0049165 0.015357145 0)
(1.0030036 0.014703648 0)
(0.99989967 0.01407479 0)
(0.99529335 0.013459607 0)
(0.9888849 0.012820054 0)
(0.9805883 0.012124059 0)
(0.97039714 0.01138277 0)
(0.95842055 0.010612431 0)
(0.94492388 0.0098317714 0)
(0.93033536 0.0090642081 0)
(0.91514748 0.0083237634 0)
(0.8998212 0.0076249028 0)
(0.88471119 0.0069785617 0)
(0.87004084 0.0063917838 0)
(0.85592399 0.0058648318 0)
(0.84240791 0.005391846 0)
(0.82950647 0.0049659297 0)
(0.8172135 0.0045816364 0)
(0.80551121 0.0042337463 0)
(0.79437447 0.0039183557 0)
(0.78377301 0.0036327526 0)
(0.77367522 0.0033734823 0)
(0.76405036 0.0031376896 0)
(0.75486796 0.0029232174 0)
(0.74609862 0.0027275024 0)
(0.7377149 0.0025486383 0)
(0.72969074 0.0023850428 0)
(0.72200174 0.0022349284 0)
(0.71462524 0.0020971398 0)
(0.70754004 0.0019703555 0)
(0.70072696 0.0018533168 0)
(0.69416819 0.0017453 0)
(0.68784707 0.0016452932 0)
(0.68174847 0.0015525871 0)
(0.67585831 0.0014665339 0)
(0.67016375 0.0013864423 0)
(0.66465285 0.0013119201 0)
(0.65931444 0.0012424044 0)
(0.65413828 0.0011775013 0)
(0.64911495 0.0011168098 0)
(0.6442359 0.0010599481 0)
(0.63949313 0.0010066303 0)
(0.63487929 0.00095653168 0)
(0.63038748 0.00090946083 0)
(0.62601136 0.00086516674 0)
(0.62174503 0.00082346056 0)
(0.61758285 0.00078414736 0)
(0.61351965 0.00074706568 0)
(0.60955077 0.00071205809 0)
(0.6056718 0.00067897172 0)
(0.60187857 0.00064767749 0)
(0.59816717 0.00061805362 0)
(0.59453398 0.00058999729 0)
(0.59097559 0.00056340378 0)
(0.5874888 0.000538188 0)
(0.58407055 0.00051426335 0)
(0.58071798 0.00049155858 0)
(0.57742841 0.00046999332 0)
(0.57419927 0.00044950266 0)
(0.57102818 0.00043001884 0)
(0.56791282 0.00041149162 0)
(0.56485103 0.00039386738 0)
(0.56184069 0.00037710673 0)
(0.55887974 0.00036116096 0)
(0.55596617 0.00034599435 0)
(0.55309796 0.00033155841 0)
(0.55027322 0.0003178177 0)
(0.54748994 0.00030474153 0)
(0.54474622 0.00029231163 0)
(0.54203984 0.00028052106 0)
(0.53936866 0.00026940386 0)
(0.5367293 0.00025896782 0)
(0.53411934 0.00024939365 0)
(0.5315309 0.00024059011 0)
(0.52896402 0.00023327407 0)
(0.52639283 0.0002267063 0)
(0.52383809 0.00022350745 0)
(0.52120119 0.00022069596 0)
(0.51860285 0.00022676444 0)
(0.51566448 0.00022937549 -2.1208684e-20)
(0.51307329 0.00025663431 0)
(0.50815697 0.00024687075 -1.2275259e-20)
(0.97715487 0.020351363 0)
(0.97989416 0.024862601 0)
(0.98408065 0.027891175 0)
(0.98853266 0.029148631 0)
(0.99246235 0.029132608 0)
(0.99563631 0.02839574 0)
(0.99812931 0.027338041 0)
(1.0001142 0.026178197 0)
(1.0017334 0.024980803 0)
(1.0030598 0.023784105 0)
(1.0041437 0.022615881 0)
(1.005026 0.021490926 0)
(1.0057345 0.020419513 0)
(1.0062887 0.01940518 0)
(1.0067045 0.018462334 0)
(1.0069913 0.017595572 0)
(1.0071661 0.016791375 0)
(1.0072525 0.016058073 0)
(1.0072037 0.015400347 0)
(1.0070097 0.014806196 0)
(1.0065978 0.014265339 0)
(1.0058571 0.013773344 0)
(1.0046655 0.01331753 0)
(1.0027041 0.012880698 0)
(0.99963059 0.012445494 0)
(0.9951252 0.011995379 0)
(0.98889786 0.011496276 0)
(0.98085886 0.010928421 0)
(0.97099353 0.010311119 0)
(0.95944605 0.0096585866 0)
(0.94655226 0.008993068 0)
(0.93277638 0.0083320355 0)
(0.91859461 0.0076931801 0)
(0.90440144 0.0070915228 0)
(0.89046455 0.006536792 0)
(0.87693358 0.0060326805 0)
(0.86388196 0.0055757842 0)
(0.85134363 0.0051604662 0)
(0.83932926 0.0047824707 0)
(0.82783429 0.0044375786 0)
(0.81684461 0.0041227218 0)
(0.80633981 0.0038355634 0)
(0.79629668 0.003573121 0)
(0.78669114 0.0033330923 0)
(0.7774984 0.0031134862 0)
(0.76869411 0.0029120608 0)
(0.76025477 0.0027272778 0)
(0.75215763 0.0025574104 0)
(0.74438156 0.0024008217 0)
(0.73690654 0.002256488 0)
(0.72971363 0.0021230802 0)
(0.72278541 0.0019996252 0)
(0.7161055 0.0018852308 0)
(0.70965891 0.0017789765 0)
(0.7034316 0.0016802906 0)
(0.69741044 0.0015884253 0)
(0.69158328 0.0015028294 0)
(0.68593879 0.0014229515 0)
(0.68046661 0.0013482748 0)
(0.67515708 0.0012783993 0)
(0.6700013 0.0012128908 0)
(0.66499096 0.0011514664 0)
(0.66011831 0.0010937849 0)
(0.65537621 0.0010395844 0)
(0.65075794 0.00098859936 0)
(0.64625722 0.00094059898 0)
(0.64186827 0.00089536562 0)
(0.6375857 0.00085269561 0)
(0.63340447 0.00081241263 0)
(0.62931984 0.00077435041 0)
(0.62532736 0.000738366 0)
(0.62142288 0.0007043173 0)
(0.61760251 0.00067208704 0)
(0.61386253 0.00064155791 0)
(0.6101995 0.00061263042 0)
(0.60661012 0.00058519789 0)
(0.60309132 0.00055917214 0)
(0.59964017 0.00053446314 0)
(0.59625388 0.0005110011 0)
(0.59292983 0.00048871402 0)
(0.58966546 0.00046754681 0)
(0.58645831 0.00044743552 0)
(0.58330598 0.00042833169 0)
(0.58020608 0.00041017351 0)
(0.57715631 0.00039291419 0)
(0.57415432 0.00037651277 0)
(0.57119781 0.00036094324 0)
(0.56828422 0.00034619211 0)
(0.56541103 0.00033229583 0)
(0.56257455 0.00031925758 0)
(0.55977201 0.00030729022 0)
(0.5569953 0.000296276 0)
(0.55424394 0.0002870743 0)
(0.55149227 0.00027877806 0)
(0.54875967 0.00027456142 0)
(0.54594934 0.00027072324 0)
(0.54317768 0.00027774965 4.9552183e-23)
(0.54007082 0.00027953479 0)
(0.53731656 0.00031875273 9.3579971e-20)
(0.53213252 0.00029300849 0)
(0.97865305 0.019796082 0)
(0.98107895 0.023804035 0)
(0.98473232 0.026611374 0)
(0.98870847 0.027926973 0)
(0.99234542 0.02810273 0)
(0.99538435 0.027584096 0)
(0.99783546 0.0267105 0)
(0.99981499 0.025686979 0)
(1.0014348 0.02459417 0)
(1.0027621 0.023478192 0)
(1.0038452 0.022373263 0)
(1.0047267 0.021299454 0)
(1.0054402 0.020269862 0)
(1.0060093 0.019290949 0)
(1.0064526 0.018377318 0)
(1.0067954 0.017532987 0)
(1.0070543 0.016749982 0)
(1.0072294 0.016035143 0)
(1.0073348 0.015388279 0)
(1.0074077 0.014803155 0)
(1.0074006 0.014276522 0)
(1.0073376 0.013804651 0)
(1.0071926 0.013379591 0)
(1.0069197 0.012991856 0)
(1.0064412 0.012634285 0)
(1.0056437 0.012300188 0)
(1.0043623 0.011978541 0)
(1.0022462 0.011656946 0)
(0.99897075 0.011321528 0)
(0.99418794 0.010945029 0)
(0.98769791 0.010499692 0)
(0.97940375 0.0099923283 0)
(0.96936176 0.0094360034 0)
(0.95783038 0.0088501415 0)
(0.94523744 0.0082557406 0)
(0.93205822 0.0076707812 0)
(0.91870669 0.0071118129 0)
(0.90547456 0.0065899657 0)
(0.89253278 0.0061106969 0)
(0.87997208 0.0056723535 0)
(0.8678405 0.0052707825 0)
(0.85616056 0.004902591 0)
(0.84493774 0.0045643927 0)
(0.83416646 0.0042538926 0)
(0.82383384 0.0039690474 0)
(0.81392334 0.0037073663 0)
(0.80441626 0.0034670688 0)
(0.79529248 0.0032460976 0)
(0.78653197 0.0030424693 0)
(0.77811474 0.002854865 0)
(0.77002123 0.0026816184 0)
(0.76223293 0.0025214681 0)
(0.7547321 0.0023732452 0)
(0.74750221 0.0022357674 0)
(0.74052757 0.0021082534 0)
(0.73379341 0.0019897393 0)
(0.72728591 0.001879492 0)
(0.72099208 0.0017767848 0)
(0.7148999 0.0016809404 0)
(0.70899811 0.0015914197 0)
(0.70327625 0.0015076556 0)
(0.69772459 0.0014292548 0)
(0.69233398 0.0013557669 0)
(0.68709601 0.0012868359 0)
(0.68200276 0.00122211 0)
(0.67704685 0.0011612803 0)
(0.67222136 0.0011040559 0)
(0.6675199 0.0010501675 0)
(0.66293646 0.00099938084 0)
(0.6584654 0.00095147591 0)
(0.65410144 0.00090626098 0)
(0.64983961 0.00086354818 0)
(0.64567527 0.0008231802 0)
(0.64160404 0.00078500214 0)
(0.63762179 0.00074888027 0)
(0.63372461 0.00071467616 0)
(0.62990885 0.00068227315 0)
(0.626171 0.0006515542 0)
(0.62250779 0.00062242565 0)
(0.61891606 0.0005947931 0)
(0.61539283 0.0005685821 0)
(0.61193517 0.00054371029 0)
(0.60854027 0.00052011361 0)
(0.60520534 0.00049771451 0)
(0.60192766 0.00047645263 0)
(0.59870449 0.00045627464 0)
(0.59553314 0.00043714485 0)
(0.59241066 0.00041904133 0)
(0.58933418 0.0004020012 0)
(0.58629965 0.00038602154 0)
(0.58330392 0.00037134621 0)
(0.58033868 0.00035783008 0)
(0.57740296 0.00034647544 0)
(0.5744713 0.00033620708 0)
(0.57156177 0.00033075874 0)
(0.56857951 0.00032570221 0)
(0.56563672 0.00033357607 0)
(0.56236462 0.00033427268 0)
(0.55945222 0.00038675682 0)
(0.55401086 0.00034270549 0)
(0.98003019 0.01927364 0)
(0.98219712 0.022844217 0)
(0.98540556 0.025441668 0)
(0.98896011 0.026783651 0)
(0.99230988 0.027108276 0)
(0.99519502 0.026772738 0)
(0.9975848 0.026065712 0)
(0.99955135 0.025174607 0)
(1.0011774 0.024187697 0)
(1.0025185 0.023156494 0)
(1.0036175 0.022119175 0)
(1.0045136 0.021099732 0)
(1.00524 0.02011398 0)
(1.0058214 0.01917154 0)
(1.0062791 0.018286108 0)
(1.0066377 0.017463603 0)
(1.0069155 0.016699581 0)
(1.0071223 0.015999618 0)
(1.0072723 0.015364023 0)
(1.0073796 0.014788786 0)
(1.0074504 0.014269921 0)
(1.0074938 0.013802428 0)
(1.0075137 0.013381587 0)
(1.007507 0.013000403 0)
(1.0074638 0.012653798 0)
(1.0073664 0.012338066 0)
(1.0071871 0.012047905 0)
(1.0068692 0.011776671 0)
(1.006318 0.011520052 0)