/*--------------------------------*- C++ -*----------------------------------*\
| =========                 |                                                 |
| \\      /  F ield         | OpenFOAM: The Open Source CFD Toolbox           |
|  \\    /   O peration     | Version:  2206                                  |
|   \\  /    A nd           | Website:  www.openfoam.com                      |
|    \\/     M anipulation  |                                                 |
\*---------------------------------------------------------------------------*/
FoamFile
{
    version     2.0;
    format      ascii;
    arch        "LSB;label=32;scalar=64";
    class       volScalarField;
    location    "100";
    object      epsilon;
}
// * * * * * * * * * * * * * * * * * * * * * * * * * * * * * * * * * * * * * //

dimensions      [0 2 -3 0 0 0 0];

internalField   nonuniform List<scalar> 
7480
(
5.7653405
15.508712
18.071341
15.965319
12.836136
10.331085
8.6423236
7.4889345
6.6415853
5.977377
5.4392074
4.9982374
4.6354961
4.335996
4.0874694
3.879532
3.7046328
3.5570696
3.4318823
3.3245819
3.2315536
3.1498791
3.0770862
3.011414
2.951654
2.8967944
2.8461495
2.7990261
2.7548062
2.7129464
2.6730557
2.6347327
2.5975791
2.5609301
2.5244406
2.4876564
2.4499727
2.411078
2.3708269
2.3291416
2.2860276
2.2415655
2.1958662
2.1490427
2.1012227
2.0525703
2.003271
1.9535178
1.9035236
1.8535213
1.8037629
1.7545257
1.7061028
1.6587982
1.6129395
1.5688741
1.5269575
1.4875398
1.4509296
1.4173478
1.3868964
1.3594921
1.3349242
1.3131919
1.2931947
1.2747801
1.2574442
1.2407779
1.2244768
1.2083565
1.1922733
1.176093
1.1600404
1.1440298
1.1281414
1.1124285
1.0969357
1.0816978
1.0667387
1.0520737
1.037711
1.0236536
1.0099012
0.99645164
0.98330089
0.97044412
0.95787586
0.94558991
0.93357976
0.92183849
0.91035837
0.89912953
0.88814106
0.87737487
0.86681816
0.85641177
0.84620815
0.83574568
0.82656531
0.8114688
0.34435645
1.5950253
2.836455
3.2944267
3.1694207
2.8599751
2.5577391
2.3123741
2.1127674
1.9420289
1.7933357
1.6648809
1.5552296
1.4621926
1.3833201
1.3158946
1.2581091
1.2086184
1.1661138
1.1292849
1.0970212
1.0684108
1.0427209
1.0194148
0.99813045
0.97855342
0.96047017
0.9436349
0.92783907
0.91290663
0.89870259
0.8850864
0.87192311
0.85896247
0.84607562
0.83312456
0.81987711
0.80622459
0.79212631
0.7775572
0.76251662
0.74703376
0.73114695
0.71489183
0.69831253
0.68146467
0.66441059
0.64721611
0.62995426
0.61270706
0.59556535
0.57862981
0.56200939
0.54581881
0.53017873
0.51521226
0.50103914
0.48776875
0.47548906
0.46425478
0.4540772
0.4449127
0.43668354
0.42930598
0.42253991
0.41626591
0.41033893
0.4046329
0.3990543
0.39354488
0.38806171
0.38258501
0.37714651
0.37174398
0.36639527
0.36111598
0.35591901
0.35081415
0.34580812
0.34090501
0.33610682
0.3314141
0.32682645
0.32234282
0.31796172
0.31368141
0.30949993
0.30541516
0.30142487
0.29752678
0.29371834
0.28999648
0.2863577
0.28279684
0.27930948
0.27588092
0.27252023
0.26911104
0.26607822
0.2611071
0.010181043
0.06217819
0.16175256
0.27981094
0.38356807
0.4745851
0.5583156
0.62986956
0.68535742
0.7262955
0.75438693
0.77041957
0.77575404
0.77265753
0.76373267
0.7513748
0.73723592
0.72230654
0.70716293
0.69213245
0.6774183
0.66314367
0.64936112
0.63612066
0.62345818
0.61136107
0.59988273
0.58894464
0.57849795
0.56849606
0.55889963
0.54964753
0.54067952
0.53184442
0.52307623
0.51431632
0.5054159
0.4963179
0.48700811
0.47747422
0.46771395
0.45774143
0.44757452
0.43722726
0.42672038
0.41608141
0.40534121
0.39453378
0.3836985
0.37288182
0.36213788
0.35152848
0.34112292
0.33099688
0.32123067
0.3119056
0.30309896
0.29487782
0.28729169
0.28036629
0.27409826
0.26845193
0.26337223
0.25877815
0.25455464
0.25062345
0.24689474
0.24329877
0.23978321
0.23631456
0.2328697
0.22944798
0.22605298
0.22269066
0.2193696
0.21609778
0.21288188
0.2097268
0.20663576
0.20361062
0.20065214
0.19776031
0.19493466
0.19217436
0.18947839
0.18684558
0.18427466
0.18176426
0.17931302
0.17691949
0.17458216
0.17229922
0.17006864
0.16788772
0.16575367
0.16366014
0.16160836
0.15954637
0.15769094
0.15465035
0.00041111642
0.0024872001
0.008677657
0.018305379
0.030902548
0.046064786
0.065846885
0.090318403
0.12595902
0.16976823
0.21681179
0.26244896
0.3053487
0.34451434
0.37870825
0.40684605
0.42846693
0.44386808
0.45390917
0.45963817
0.46202978
0.46187124
0.45977593
0.45622867
0.45162999
0.4462825
0.4404504
0.43431461
0.4280011
0.42160628
0.41519119
0.40878302
0.40240234
0.39598119
0.3894871
0.38295197
0.37624997
0.36936552
0.36231267
0.35509932
0.34773542
0.34023823
0.33262401
0.32490339
0.31708961
0.30919886
0.30124871
0.29325896
0.28525391
0.27726359
0.26932533
0.26148326
0.25378844
0.24629797
0.23907284
0.23217434
0.22565968
0.2195769
0.2139597
0.20882351
0.20416231
0.19994797
0.19613801
0.19266731
0.18947005
0.18648448
0.18364898
0.18091589
0.17824902
0.17562422
0.17302628
0.1704554
0.16790947
0.16539369
0.16291307
0.16047241
0.15807581
0.15572627
0.15342572
0.15117522
0.14897513
0.1468253
0.14472528
0.14267438
0.1406718
0.13871662
0.13680787
0.13494453
0.13312554
0.13134985
0.12961634
0.12792374
0.12627059
0.12465516
0.12307541
0.12152797
0.12001191
0.11849813
0.11712892
0.11487704
8.5645719e-05
0.00017566704
0.00052953266
0.0013548233
0.0027406953
0.0045924245
0.0069500189
0.010054258
0.014545549
0.021303637
0.030976565
0.045974225
0.066295035
0.090775911
0.11806441
0.14702322
0.17675964
0.20609897
0.23361134
0.25796008
0.27830034
0.29442162
0.30661848
0.31542925
0.32142923
0.32512503
0.32696366
0.32733035
0.32655172
0.32488857
0.32253974
0.31965122
0.31633959
0.31263853
0.30859187
0.30426012
0.29961843
0.2946825
0.28949165
0.28408287
0.27849189
0.27275418
0.26689985
0.26094656
0.25491079
0.24880789
0.24265157
0.23645581
0.23023729
0.22401746
0.21782348
0.21168886
0.20565326
0.19976155
0.1940619
0.18860248
0.18342791
0.17857543
0.17407135
0.16992831
0.16614337
0.16269775
0.15956112
0.15668836
0.15403693
0.15155825
0.14920777
0.14694917
0.14475389
0.14260183
0.14048058
0.13838704
0.13631826
0.13427708
0.13226637
0.13028922
0.12834842
0.12644609
0.12458362
0.12276179
0.12098086
0.11924074
0.11754105
0.11588124
0.11426066
0.11267859
0.11113423
0.10962676
0.10815535
0.10671915
0.10531728
0.10394878
0.10261252
0.10130729
0.10003149
0.098783277
0.097560904
0.096346569
0.095247458
0.093427179
7.0312756e-05
7.661519e-05
9.8909539e-05
0.00016190979
0.00029366808
0.00051748035
0.00085291018
0.0013189132
0.0019477041
0.0028147327
0.0040270842
0.0058591043
0.0086404715
0.012700296
0.018912946
0.028258647
0.040789416
0.056525653
0.074971403
0.095592709
0.11765952
0.14011944
0.16170281
0.18126433
0.19808007
0.21192354
0.22294221
0.23145912
0.23783238
0.24239571
0.24544657
0.24724107
0.24799732
0.24785868
0.24694665
0.24537645
0.24320938
0.24051007
0.23735596
0.23382421
0.22998576
0.22590465
0.22163437
0.21721622
0.21268035
0.20804922
0.20334024
0.198568
0.19374712
0.18889467
0.1840318
0.1791847
0.17438465
0.16966726
0.16507089
0.16063424
0.15639355
0.15238012
0.14861786
0.14512135
0.14189435
0.13892914
0.13620883
0.13370674
0.13139442
0.12923511
0.12719531
0.12524528
0.12336022
0.12152146
0.11971651
0.11793914
0.11618572
0.1144569
0.11275407
0.11107929
0.10943464
0.10782186
0.10624217
0.10469634
0.10318471
0.10170729
0.10026385
0.098854001
0.097477234
0.096132976
0.094820591
0.093539413
0.092288766
0.091067973
0.089876321
0.088713043
0.087577254
0.086468053
0.085384167
0.084324617
0.083287403
0.082260932
0.081334042
0.079785508
6.8725449e-05
7.0211605e-05
7.2798943e-05
7.8763459e-05
9.196166e-05
0.00011717557
0.00015970749
0.0002255384
0.00032173658
0.00045862361
0.00064962319
0.00091912902
0.0013059813
0.0018594449
0.0026730032
0.0039160008
0.0057909715
0.0085329587
0.012863603
0.019371937
0.028336887
0.039961795
0.053929653
0.069886349
0.087176561
0.10485488
0.12186294
0.13732725
0.15075528
0.16202933
0.1712638
0.17865769
0.18442155
0.18873798
0.19177639
0.19369732
0.19462815
0.19468521
0.19398854
0.19265809
0.19080713
0.18853819
0.18593932
0.18308256
0.18002255
0.17679934
0.17344231
0.16997341
0.16641061
0.16277102
0.15907319
0.1553387
0.15159266
0.1478634
0.14418163
0.14057886
0.13708571
0.13373048
0.1305377
0.12752655
0.12470948
0.12209075
0.11966746
0.11742896
0.1153584
0.11342944
0.11161664
0.10989474
0.10824097
0.10663681
0.1050685
0.10352718
0.10200818
0.10051032
0.099033846
0.097580118
0.096150844
0.094747625
0.093371742
0.092024085
0.090705166
0.089415183
0.088154089
0.086921662
0.08571756
0.084541357
0.083392566
0.082270663
0.081175113
0.080105378
0.07906089
0.078041041
0.077045125
0.076072465
0.075122033
0.074193381
0.073284556
0.072387422
0.071580908
0.0702204
6.7524347e-05
6.860165e-05
6.9737297e-05
7.1078714e-05
7.3074427e-05
7.6514518e-05
8.2437622e-05
9.2104595e-05
0.0001070072
0.00012904501
0.00016067037
0.00020541797
0.00026877887
0.0003584167
0.00048583899
0.00067051475
0.00094193018
0.0013362234
0.0019313292
0.0028527254
0.0042715934
0.0063900916
0.0098708105
0.015103419
0.022406981
0.031909021
0.043401636
0.056514759
0.070602415
0.084810919
0.098309601
0.1105091
0.12113205
0.13012607
0.13754847
0.1434979
0.14808497
0.15143375
0.15368316
0.1549804
0.1554731
0.15530174
0.15459273
0.15345472
0.15197522
0.15022121
0.14824259
0.14607609
0.14374926
0.14128429
0.13870111
0.13601976
0.13326161
0.13044976
0.12760906
0.12476562
0.12194617
0.11917763
0.11648651
0.11389763
0.11143264
0.10910777
0.10693366
0.104914
0.10304315
0.10130434
0.099679038
0.0981459
0.096683718
0.095273817
0.093900915
0.092553997
0.091227066
0.089917409
0.088624303
0.087348565
0.086091686
0.084855275
0.083640768
0.082449275
0.081281554
0.08013804
0.079018908
0.077924135
0.07685356
0.075806923
0.074783892
0.073784088
0.072807114
0.071852568
0.070920018
0.070008998
0.069118955
0.068249388
0.067399475
0.066569103
0.065756551
0.064955496
0.06423957
0.063019434
6.6248324e-05
6.7214595e-05
6.817754e-05
6.9045933e-05
6.9890389e-05
7.0856739e-05
7.2117431e-05
7.3930941e-05
7.6632206e-05
8.0635095e-05
8.6449955e-05
9.4726923e-05
0.00010636979
0.00012264402
0.00014535242
0.0001772376
0.00022263895
0.00028746282
0.00038135557
0.00052024088
0.00072975227
0.001041711
0.0015316685
0.0023128076
0.003536325
0.0054871565
0.0086707047
0.013421904
0.020024286
0.0284372
0.038476313
0.049710207
0.061473798
0.073021202
0.083737687
0.093254822
0.10142102
0.10821508
0.11368759
0.11793824
0.12110176
0.1233291
0.12477034
0.12556459
0.12583249
0.12567245
0.12516139
0.1243575
0.12330426
0.12203452
0.12057423
0.11894562
0.1171693
0.11526555
0.1132553
0.11116076
0.10900585
0.10681679
0.10462217
0.10245217
0.10033686
0.098303432
0.096374883
0.094567945
0.092888324
0.09132864
0.089877254
0.088517087
0.087228927
0.085994343
0.084796942
0.083623954
0.082468039
0.081325176
0.080193741
0.07907407
0.07796749
0.076875679
0.075800282
0.074742688
0.073703949
0.072684788
0.071685641
0.070706721
0.069748075
0.068809634
0.067891236
0.066992664
0.066113669
0.065253988
0.064413332
0.063591373
0.062787702
0.062001971
0.061233545
0.060482522
0.059747546
0.059023069
0.058380025
0.057272126
6.4960127e-05
6.5812469e-05
6.6686053e-05
6.7498893e-05
6.8229066e-05
6.8879082e-05
6.9514217e-05
7.0202005e-05
7.1023097e-05
7.2064233e-05
7.3434495e-05
7.5284006e-05
7.7807978e-05
8.1262541e-05
8.5987546e-05
9.2451286e-05
0.00010134806
0.00011366499
0.00013087398
0.00015524183
0.00019050732
0.00024181113
0.00031825463
0.00043543157
0.00061690451
0.00090154244
0.0013661302
0.0021272887
0.0033327653
0.0053949379
0.0086622105
0.013437934
0.019832771
0.027750264
0.036878879
0.046661886
0.056419385
0.065558358
0.073706084
0.080705617
0.086542186
0.091280636
0.095030609
0.097923426
0.10009175
0.10165558
0.10271632
0.10335545
0.10363611
0.10360628
0.10330229
0.10275249
0.10198012
0.10100538
0.099847417
0.098526043
0.097063175
0.095484329
0.093819523
0.092102927
0.090371282
0.088660804
0.08700494
0.085431991
0.083958964
0.082588077
0.081315085
0.080128136
0.079011047
0.077946595
0.076918142
0.075911734
0.074918873
0.073934446
0.072955997
0.071983383
0.071017764
0.070060897
0.069114649
0.06818072
0.067260496
0.066355029
0.06546506
0.064591076
0.063733372
0.062892095
0.062067287
0.061258909
0.06046688
0.059691093
0.058931409
0.058187647
0.057459548
0.056746904
0.056049265
0.055366863
0.054698793
0.054039627
0.053459024
0.052446861
6.3673033e-05
6.443041e-05
6.5215045e-05
6.5966788e-05
6.6665003e-05
6.7304768e-05
6.7893288e-05
6.8443786e-05
6.8970364e-05
6.9503948e-05
7.0083874e-05
7.0747951e-05
7.1544241e-05
7.2528478e-05
7.3770455e-05
7.5371836e-05
7.747329e-05
8.026812e-05
8.4026507e-05
8.9132723e-05
9.6180122e-05
0.00010602812
0.00012000759
0.00014032258
0.00017045114
0.00021594005
0.00028656312
0.00039961871
0.00057916388
0.00087852275
0.0013865939
0.0022237673
0.0036683788
0.0060807849
0.0097621364
0.01486824
0.021334554
0.028884176
0.03700653
0.045094855
0.052648757
0.059380171
0.065189498
0.070091072
0.074155557
0.077477986
0.080158217
0.082287806
0.083944014
0.085188799
0.086070207
0.08662508
0.086881882
0.086863241
0.086588625
0.086076896
0.085348659
0.084428536
0.083346817
0.082139738
0.080848218
0.079514781
0.078180669
0.076883608
0.075651122
0.074495333
0.073419746
0.072418958
0.071481192
0.070591785
0.069735103
0.068896862
0.068067814
0.067242061
0.066416431
0.065590307
0.064764661
0.063941292
0.063122289
0.062309665
0.06150517
0.060710218
0.059925897
0.059153015
0.05839215
0.05764371
0.056907968
0.056185097
0.055475205
0.054778364
0.0540946
0.053423897
0.052766155
0.052121312
0.051489102
0.050869848
0.050263156
0.049663311
0.049139372
0.048213887
6.2391992e-05
6.307372e-05
6.3784052e-05
6.4475028e-05
6.5129687e-05
6.5745663e-05
6.6325875e-05
6.6874378e-05
6.739403e-05
6.7888423e-05
6.8363692e-05
6.882807e-05
6.9291086e-05
6.9771503e-05
7.029606e-05
7.0890348e-05
7.1586406e-05
7.2430182e-05
7.3471112e-05
7.4787059e-05
7.649327e-05
7.8754671e-05
8.1809079e-05
8.6018196e-05
9.193567e-05
0.00010043368
0.0001129021
0.00013179331
0.00016080324
0.00020662952
0.00028180187
0.00040548348
0.000615738
0.00098493698
0.0016170472
0.0027359104
0.0046752861
0.0077116405
0.011969328
0.01736501
0.02362
0.030278421
0.036853471
0.04298239
0.048478387
0.053289799
0.057437484
0.060972809
0.063956832
0.066448976
0.068500674
0.070153596
0.071440454
0.072386701
0.073013037
0.073338237
0.07338199
0.073167684
0.072724638
0.072088995
0.071302993
0.070412234
0.06946243
0.068497669
0.067554143
0.06665338
0.065806704
0.065016082
0.06427551
0.063574403
0.06289965
0.062237803
0.061579552
0.060918676
0.06025152
0.059577061
0.058896067
0.058210349
0.057522181
0.056833885
0.05614758
0.055465074
0.054787841
0.054117048
0.053453606
0.05279822
0.052151436
0.051513672
0.05088526
0.050266472
0.049657527
0.04905859
0.04846974
0.047891071
0.047322511
0.046764452
0.046217045
0.045674068
0.045204132
0.044361276
6.1123379e-05
6.174416e-05
6.2393664e-05
6.3032859e-05
6.3646619e-05
6.4231792e-05
6.4790515e-05
6.5326205e-05
6.5841469e-05
6.6337532e-05
6.6814726e-05
6.727333e-05
6.7713767e-05
6.8137645e-05
6.8548995e-05
6.8953431e-05
6.9358407e-05
6.9771582e-05
7.0215246e-05
7.0709609e-05
7.1279569e-05
7.1960691e-05
7.2800773e-05
7.3863625e-05
7.5252571e-05
7.7125657e-05
7.9720016e-05
8.3422077e-05
8.8832411e-05
9.6920607e-05
0.00010943652
0.0001292125
0.00016123741
0.00021531
0.00030743038
0.00046897981
0.00076395928
0.0012859108
0.0022411141
0.0039158277
0.0065335479
0.010146493
0.014648296
0.019780583
0.025175789
0.030481535
0.035454908
0.039975872
0.044008871
0.047560174
0.050652157
0.053311734
0.055564891
0.057434019
0.058937948
0.060093769
0.06091929
0.061435707
0.061669924
0.061655819
0.061434032
0.061049821
0.060549656
0.05998006
0.059382751
0.058786813
0.058210697
0.057663845
0.057146932
0.056654778
0.056178358
0.055706476
0.055230724
0.054745233
0.054246274
0.0537326
0.053204822
0.052664744
0.052114793
0.051557573
0.050995571
0.050431002
0.049865755
0.049301397
0.048739213
0.048180253
0.047625375
0.047075283
0.046530565
0.04599173
0.045459214
0.044933389
0.044414532
0.043902914
0.043398673
0.042902259
0.042414389
0.041928254
0.041511772
0.040750968
5.9873755e-05
6.0444927e-05
6.1044151e-05
6.1639484e-05
6.2217601e-05
6.2774441e-05
6.3310621e-05
6.3828441e-05
6.4330107e-05
6.4817028e-05
6.5289758e-05
6.5748213e-05
6.619191e-05
6.6620106e-05
6.7032107e-05
6.7427531e-05
6.7806588e-05
6.8169491e-05
6.8518514e-05
6.8857382e-05
6.9191099e-05
6.9525832e-05
6.9872912e-05
7.0253156e-05
7.0688289e-05
7.1209369e-05
7.1863201e-05
7.2710947e-05
7.385971e-05
7.5476719e-05
7.7839289e-05
8.1397402e-05
8.6888746e-05
9.5665375e-05
0.00011004482
0.00013411106
0.00017638252
0.00025112139
0.0003877415
0.00064586447
0.0011097541
0.0019774789
0.0034702696
0.0057460538
0.0087917843
0.012505018
0.01667545
0.021032003
0.025328573
0.029396778
0.033146027
0.036537093
0.039556681
0.042202766
0.044478768
0.046391875
0.047952976
0.049177695
0.050087865
0.050712493
0.051087655
0.051254863
0.051257613
0.051140489
0.050946291
0.05070843
0.050450326
0.050187733
0.049927896
0.049671703
0.049415429
0.049151561
0.04887374
0.048577321
0.048259112
0.04791799
0.047554557
0.047170646
0.046768822
0.046351941
0.04592284
0.045484141
0.045038164
0.044586908
0.04413207
0.043675086
0.043217171
0.042759356
0.042302526
0.041847457
0.041394837
0.04094527
0.040499261
0.040057276
0.039619686
0.039187006
0.038760519
0.038332863
0.037970705
0.037293795
5.8649244e-05
5.9179668e-05
5.9737035e-05
6.0294926e-05
6.084181e-05
6.1373259e-05
6.1888741e-05
6.2389422e-05
6.2876709e-05
6.3351644e-05
6.3814788e-05
6.4266282e-05
6.4705918e-05
6.5133192e-05
6.554735e-05
6.5947465e-05
6.6332523e-05
6.6701437e-05
6.7053125e-05
6.7386704e-05
6.7701615e-05
6.7997546e-05
6.8274706e-05
6.853505e-05
6.8781787e-05
6.9019575e-05
6.9255099e-05
6.9508854e-05
6.9801549e-05
7.0164222e-05
7.0644566e-05
7.1312804e-05
7.2292288e-05
7.3793949e-05
7.617932e-05
8.0043229e-05
8.6534269e-05
9.7681414e-05
0.000117235
0.00015328217
0.00021909462
0.00034388344
0.00058265063
0.0010082155
0.0018046362
0.0031233969
0.005058558
0.0075811738
0.010601963
0.013963878
0.017472462
0.020949948
0.024266716
0.027341869
0.030129407
0.032604644
0.034756525
0.036584917
0.038099809
0.039320597
0.040274932
0.040996878
0.041523351
0.041892698
0.042143562
0.042309077
0.042413884
0.04247716
0.042511042
0.042521872
0.042511495
0.042477094
0.042415421
0.042323984
0.0422009
0.042045679
0.0418592
0.041643445
0.041401139
0.041135376
0.040849315
0.040545969
0.04022809
0.039898122
0.039558203
0.039210192
0.0388557
0.038496124
0.038132685
0.037766467
0.03739844
0.037029471
0.036660319
0.036291676
0.035924163
0.035558382
0.035196165
0.034829728
0.034523701
0.033934176
5.7455202e-05
5.7951859e-05
5.8474166e-05
5.8999952e-05
5.9519333e-05
6.0027878e-05
6.0524349e-05
6.1009087e-05
6.1482834e-05
6.1946184e-05
6.2399455e-05
6.2842709e-05
6.3275783e-05
6.3698314e-05
6.4109761e-05
6.450942e-05
6.4896425e-05
6.526976e-05
6.5628258e-05
6.5970609e-05
6.6295391e-05
6.6601089e-05
6.6886088e-05
6.7148761e-05
6.7387617e-05
6.7601419e-05
6.7788915e-05
6.7950678e-05
6.8088664e-05
6.8205922e-05
6.8309801e-05
6.8419837e-05
6.8557383e-05
6.87591e-05
6.9076304e-05
6.9599924e-05
7.0498465e-05
7.2075507e-05
7.4852997e-05
7.9902952e-05
8.9112237e-05
0.00010618839
0.00013900582
0.00019987863
0.00031722887
0.00053808602
0.00092989885
0.001634279
0.0027525448
0.0043414488
0.0063704813
0.0087704247
0.011426386
0.01419623
0.016945251
0.019567837
0.021993266
0.024181071
0.026113582
0.027789909
0.029221706
0.030429863
0.031440351
0.032281319
0.032981917
0.033569219
0.034064284
0.034484882
0.034844309
0.035151848
0.035413515
0.035631097
0.035804904
0.035935255
0.036022309
0.036066794
0.036070254
0.036035033
0.035964103
0.035860798
0.035728571
0.035570795
0.035390629
0.035190958
0.034974371
0.034743169
0.034499387
0.034244824
0.033981073
0.033709559
0.033431568
0.033148262
0.03286068
0.032569767
0.032276422
0.031981357
0.031686929
0.031385134
0.031137608
0.030640015
5.6296002e-05
5.6764441e-05
5.7257206e-05
5.7755364e-05
5.8250483e-05
5.8738341e-05
5.9217299e-05
5.9687139e-05
6.0148114e-05
6.0600467e-05
6.1044291e-05
6.1479514e-05
6.1905911e-05
6.2323115e-05
6.2730629e-05
6.3127841e-05
6.3514016e-05
6.3888293e-05
6.4249682e-05
6.4597051e-05
6.4929108e-05
6.5244394e-05
6.5541272e-05
6.5817908e-05
6.6072275e-05
6.6302193e-05
6.6505301e-05
6.6679109e-05
6.6821223e-05
6.6929346e-05
6.7001426e-05
6.7037145e-05
6.7037828e-05
6.7004419e-05
6.6950445e-05
6.6892037e-05
6.6854442e-05
6.6874829e-05
6.701857e-05
6.7427695e-05
6.8370577e-05
7.0340324e-05
7.4389962e-05
8.2309869e-05
9.7788085e-05
0.00012805929
0.00018481755
0.00029251899
0.00048825629
0.00082621446
0.0014079121
0.0022984618
0.0035323747
0.0050797238
0.0068892456
0.0088781687
0.010947751
0.013003144
0.014969957
0.016800679
0.018472536
0.019981425
0.021334866
0.022545986
0.023629421
0.024600167
0.025469719
0.026248176
0.026944111
0.027564862
0.028116846
0.028604264
0.029030054
0.029397056
0.029707726
0.029964384
0.030169582
0.030326264
0.030437759
0.030507665
0.030539693
0.030537517
0.030504655
0.030444389
0.030359735
0.030253431
0.030127947
0.029985497
0.029828071
0.029657462
0.029475301
0.029283069
0.029082112
0.028873653
0.02865889
0.028438685
0.028215872
0.027982495
0.027796122
0.027395586
5.5174951e-05
5.5619621e-05
5.6087348e-05
5.6561654e-05
5.7035345e-05
5.750453e-05
5.7967381e-05
5.8423312e-05
5.8872224e-05
5.9314096e-05
5.9748845e-05
6.017629e-05
6.0596146e-05
6.1008018e-05
6.1411412e-05
6.1805738e-05
6.2190312e-05
6.2564343e-05
6.2926938e-05
6.3277086e-05
6.3613641e-05
6.393531e-05
6.424063e-05
6.4527958e-05
6.4795446e-05
6.5041037e-05
6.5262456e-05
6.5457181e-05
6.5622459e-05
6.5755338e-05
6.5852676e-05
6.5911204e-05
6.5927905e-05
6.5899312e-05
6.5823033e-05
6.5697929e-05
6.5521556e-05
6.5298677e-05
6.5038059e-05
6.4751962e-05
6.4458092e-05
6.4207033e-05
6.4127939e-05
6.4467339e-05
6.5707987e-05
6.8849891e-05
7.5624047e-05
8.9418069e-05
0.00011637618
0.00016627588
0.00025792661
0.00041776097
0.00068024279
0.0011129772
0.0017512101
0.0026127808
0.0036790856
0.0049116482
0.0062628465
0.0076814635
0.0091207864
0.010544406
0.011928826
0.013261092
0.014533915
0.015742883
0.016883306
0.017950777
0.018941787
0.01985436
0.020688507
0.021445474
0.022127147
0.022736711
0.023277788
0.023753829
0.024168279
0.024524677
0.024826698
0.02507815
0.025282912
0.025444845
0.025567706
0.025655076
0.025710317
0.025736547
0.025736631
0.025713186
0.025668592
0.025605021
0.025524455
0.025428712
0.02531946
0.025198219
0.025066504
0.024925359
0.024778044
0.024616961
0.024494445
0.024196299
5.4094311e-05
5.4518813e-05
5.4965195e-05
5.5418844e-05
5.5873591e-05
5.6325935e-05
5.6774006e-05
5.7216988e-05
5.765454e-05
5.8086443e-05
5.8512477e-05
5.8932377e-05
5.9345808e-05
5.9752355e-05
6.0151524e-05
6.0542742e-05
6.0925352e-05
6.1298608e-05
6.1661674e-05
6.201361e-05
6.2353362e-05
6.2679744e-05
6.2991426e-05
6.3286917e-05
6.3564552e-05
6.3822473e-05
6.4058622e-05
6.4270715e-05
6.4456231e-05
6.4612409e-05
6.4736256e-05
6.4824547e-05
6.48739e-05
6.4880724e-05
6.4841115e-05
6.4750978e-05
6.4605113e-05
6.439784e-05
6.4122894e-05
6.3770272e-05
6.3336247e-05
6.2813998e-05
6.2200685e-05
6.1512205e-05
6.0784487e-05
6.0134684e-05
5.9800256e-05
6.0246935e-05
6.2377839e-05
6.7707372e-05
7.9028056e-05
0.00010101968
0.00014044941
0.00020969033
0.00032399943
0.00050076776
0.00077046261
0.0011534802
0.001657499
0.0022800699
0.003008357
0.0038267316
0.0047255436
0.0056971494
0.0067334726
0.0078228783
0.0089478291
0.01008567
0.011211653
0.012302996
0.013342033
0.014316963
0.015220909
0.01605172
0.016809906
0.017497348
0.018116739
0.018671237
0.019164264
0.01959941
0.019980367
0.020310869
0.020594631
0.020835287
0.021036339
0.021201123
0.021332778
0.02143423
0.02150819
0.021557164
0.021583465
0.02158923
0.021576443
0.021546924
0.021502501
0.021444434
0.021376332
0.021291302
0.021235221
0.021044698
5.3055409e-05
5.3462672e-05
5.3890755e-05
5.432645e-05
5.4764434e-05
5.5201602e-05
5.5636135e-05
5.6067099e-05
5.6493987e-05
5.6916441e-05
5.7334137e-05
5.7746742e-05
5.8153883e-05
5.855513e-05
5.894999e-05
5.9337905e-05
5.9718243e-05
6.0090299e-05
6.0453281e-05
6.0806307e-05
6.1148392e-05
6.1478432e-05
6.1795194e-05
6.2097303e-05
6.2383226e-05
6.2651263e-05
6.2899534e-05
6.3125957e-05
6.3328238e-05
6.3503852e-05
6.3650044e-05
6.3763842e-05
6.3842077e-05
6.388142e-05
6.3878321e-05
6.3828908e-05
6.372867e-05
6.3571935e-05
6.3351343e-05
6.305663e-05
6.2674979e-05
6.2189496e-05
6.1578998e-05
6.0819877e-05
5.9904606e-05
5.8829448e-05
5.7609004e-05
5.6297304e-05
5.5015424e-05
5.3923083e-05
5.348331e-05
5.4435401e-05
5.7932144e-05
6.5951318e-05
8.1378402e-05
0.00010795361
0.00015131486
0.0002179125
0.0003145217
0.00044817102
0.00062876791
0.00086662125
0.0011678359
0.0015405324
0.0019954469
0.002542543
0.0031881547
0.0039355892
0.0047785633
0.0056999718
0.0066734537
0.007667686
0.0086526077
0.0096049228
0.010509146
0.011356675
0.012143694
0.012869248
0.013533957
0.014139365
0.014687618
0.015181288
0.015623245
0.016016535
0.016364289
0.016669644
0.016935684
0.017165387
0.017361596
0.017526999
0.017664131
0.017775367
0.017862948
0.017928948
0.017975479
0.018004015
0.018018419
0.018012833
0.018025468
0.01794735
5.2058772e-05
5.2451201e-05
5.2863501e-05
5.3283538e-05
5.3706666e-05
5.4130161e-05
5.4552318e-05
5.4972152e-05
5.538906e-05
5.5802585e-05
5.6212332e-05
5.6617915e-05
5.7018931e-05
5.7414937e-05
5.7805444e-05
5.8189907e-05
5.856772e-05
5.8938209e-05
5.9300625e-05
5.9654137e-05
5.999782e-05
6.033064e-05
6.0651448e-05
6.0958962e-05
6.1251763e-05
6.1528276e-05
6.178677e-05
6.2025331e-05
6.2241852e-05
6.2434013e-05
6.2599272e-05
6.2734866e-05
6.2837832e-05
6.2905046e-05
6.2933232e-05
6.2918917e-05
6.2858263e-05
6.2746665e-05
6.2578169e-05
6.234463e-05
6.2034772e-05
6.1633277e-05
6.1120006e-05
6.0469931e-05
5.9654919e-05
5.8646731e-05
5.7420054e-05
5.5957003e-05
5.4261047e-05
5.2419734e-05
5.0458347e-05
4.8508421e-05
4.6749929e-05
4.5438206e-05
4.5157519e-05
4.6640933e-05
5.091103e-05
5.9240626e-05
7.3076695e-05
9.3942169e-05
0.00012369722
0.00016470289
0.0002198145
0.00029322498
0.00039044051
0.00052097661
0.00069876044
0.00093731889
0.0012512183
0.0016536619
0.0021524733
0.0027453006
0.0034233618
0.0041697419
0.0049620941
0.005776106
0.0065889776
0.0073822545
0.0081427166
0.008861981
0.0095354029
0.010160897
0.010738011
0.011267327
0.011750126
0.012188183
0.012583609
0.012938724
0.013255955
0.013537758
0.01378656
0.01400473
0.014194574
0.014358276
0.014498108
0.014615699
0.014715016
0.014791514
0.014874565
0.014912794
5.1104295e-05
5.1483869e-05
5.1882479e-05
5.2288804e-05
5.2698743e-05
5.3109919e-05
5.3520771e-05
5.3930319e-05
5.4337906e-05
5.4743019e-05
5.5145209e-05
5.5544056e-05
5.5939133e-05
5.6329991e-05
5.6716143e-05
5.7097056e-05
5.7472147e-05
5.7840771e-05
5.8202217e-05
5.8555699e-05
5.8900344e-05
5.9235183e-05
5.9559138e-05
5.9871012e-05
6.0169481e-05
6.0453082e-05
6.072021e-05
6.0969099e-05
6.1197807e-05
6.1404198e-05
6.1585925e-05
6.1740417e-05
6.1864895e-05
6.1956399e-05
6.2011823e-05
6.2027927e-05
6.200126e-05
6.1927929e-05
6.1803146e-05
6.162055e-05
6.1371315e-05
6.1043182e-05
6.061957e-05
6.0079052e-05
5.9395514e-05
5.8538986e-05
5.7478046e-05
5.6182727e-05
5.4627335e-05
5.2805636e-05
5.0720113e-05
4.8392344e-05
4.589593e-05
4.3376338e-05
4.0889565e-05
3.8595884e-05
3.6648693e-05
3.5299338e-05
3.4935267e-05
3.5918855e-05
3.8629209e-05
4.3471046e-05
5.0896082e-05
6.152994e-05
7.6328155e-05
9.6953889e-05
0.00012614848
0.00016786404
0.00022744697
0.00031178759
0.00043047122
0.00059684643
0.00082149064
0.0011135828
0.0014790533
0.0019177263
0.0024234878
0.0029870224
0.0035948736
0.0042311135
0.0048792248
0.0055238462
0.0061523221
0.0067552711
0.0073264747
0.0078623089
0.0083610523
0.0088222808
0.0092464282
0.0096344967
0.0099878679
0.010308171
0.010597212
0.010856855
0.011089192
0.011295772
0.011480386
0.011639945
0.01179387
0.011950768
5.0191382e-05
5.0559746e-05
5.0946408e-05
5.1340676e-05
5.173888e-05
5.2138949e-05
5.253948e-05
5.2939532e-05
5.3338431e-05
5.3735633e-05
5.4130659e-05
5.4523062e-05
5.4912404e-05
5.529823e-05
5.5680057e-05
5.6057366e-05
5.6429592e-05
5.6796117e-05
5.7156263e-05
5.7509284e-05
5.7854355e-05
5.8190562e-05
5.8516892e-05
5.8832222e-05
5.9135311e-05
5.9424797e-05
5.9699184e-05
5.9956835e-05
6.0195956e-05
6.041458e-05
6.061054e-05
6.0781454e-05
6.0924725e-05
6.103755e-05
6.1116965e-05
6.1159874e-05
6.1163045e-05
6.1122989e-05
6.1035659e-05
6.0895934e-05
6.0696858e-05
6.0428726e-05
6.0078146e-05
5.9627303e-05
5.9053677e-05
5.8330435e-05
5.7427699e-05
5.6314731e-05
5.4962865e-05
5.3348932e-05
5.1459343e-05
4.9293348e-05
4.6864259e-05
4.4216635e-05
4.1398846e-05
3.8469426e-05
3.5569553e-05
3.2806232e-05
3.0224978e-05
2.7926545e-05
2.5984402e-05
2.4481861e-05
2.3582749e-05
2.3413796e-05
2.4133791e-05
2.5969937e-05
2.9288661e-05
3.4671339e-05
4.3007891e-05
5.5606167e-05
7.4425018e-05
0.00010240729
0.0001432902
0.00020162089
0.00028288974
0.00039476741
0.00054606751
0.00074329464
0.00099171483
0.0012944589
0.0016502739
0.0020548089
0.0025014126
0.0029805923
0.0034809835
0.0039906894
0.0044985127
0.0049950001
0.0054729388
0.0059273749
0.0063552853
0.0067551206
0.0071264081
0.0074693635
0.0077848839
0.0080736812
0.0083386944
0.0085780406
0.0088001874
0.0090740512
4.931909e-05
4.9677613e-05
5.0053788e-05
5.0437406e-05
5.082514e-05
5.1215185e-05
5.1606295e-05
5.1997587e-05
5.2388398e-05
5.2778173e-05
5.3166417e-05
5.3552672e-05
5.3936492e-05
5.431742e-05
5.4694981e-05
5.5068666e-05
5.5437928e-05
5.5802174e-05
5.6160756e-05
5.6512962e-05
5.685801e-05
5.7195036e-05
5.7523083e-05
5.7841095e-05
5.8147908e-05
5.8442242e-05
5.8722701e-05
5.8987762e-05
5.9235761e-05
5.9464881e-05
5.9673126e-05
5.9858293e-05
6.0017964e-05
6.0149504e-05
6.0250088e-05
6.031674e-05
6.0346367e-05
6.033571e-05
6.0281175e-05
6.0178456e-05
6.0021933e-05
5.9803858e-05
5.9513431e-05
5.9135943e-05
5.8652222e-05
5.8038629e-05
5.7267818e-05
5.6310349e-05
5.5137128e-05
5.372238e-05
5.2046845e-05
5.0100961e-05
4.7887055e-05
4.5421068e-05
4.2733563e-05
3.9867048e-05
3.6878793e-05
3.3840191e-05
3.081492e-05