/*--------------------------------*- C++ -*----------------------------------*\
| =========                 |                                                 |
| \\      /  F ield         | OpenFOAM: The Open Source CFD Toolbox           |
|  \\    /   O peration     | Version:  2206                                  |
|   \\  /    A nd           | Website:  www.openfoam.com                      |
|    \\/     M anipulation  |                                                 |
\*---------------------------------------------------------------------------*/
FoamFile
{
    version     2.0;
    format      ascii;
    arch        "LSB;label=32;scalar=64";
    class       volScalarField;
    location    "100";
    object      k;
}
// * * * * * * * * * * * * * * * * * * * * * * * * * * * * * * * * * * * * * //

dimensions      [0 2 -2 0 0 0 0];

internalField   nonuniform List<scalar> 
7480
(
0.032147107
0.062178559
0.068851976
0.063393002
0.054812493
0.047426527
0.042106103
0.038271184
0.035327007
0.032930621
0.030923151
0.029228407
0.027796619
0.026586085
0.025560275
0.02468593
0.023938343
0.02329845
0.022748553
0.022271925
0.021854544
0.021484795
0.021152559
0.020850571
0.020573859
0.020318176
0.020080712
0.019858493
0.019648876
0.019449524
0.019258806
0.019075043
0.018896548
0.018720275
0.018544296
0.018366807
0.018184681
0.017996025
0.017799871
0.017595596
0.017382965
0.017162119
0.016933393
0.016697138
0.016453772
0.016203917
0.015948323
0.015687797
0.015423281
0.015155841
0.01488669
0.014617247
0.014349075
0.014083855
0.013823474
0.013570004
0.01332566
0.013092761
0.012873556
0.012669905
0.01248305
0.012313346
0.012159874
0.012022775
0.011897948
0.011782315
0.011673815
0.011569727
0.011468012
0.011367305
0.011266813
0.011165143
0.011063711
0.010962076
0.01086064
0.010759764
0.010659751
0.010560855
0.010463269
0.010367122
0.0102725
0.010179449
0.010087994
0.0099981429
0.0099098907
0.0098232258
0.009738131
0.0096545833
0.0095725568
0.0094920219
0.0094129426
0.0093352674
0.0092589369
0.0091838395
0.0091099006
0.0090367141
0.0089646612
0.0088904861
0.0088251532
0.0087171448
0.0024997865
0.009529756
0.016630157
0.020670836
0.021720838
0.021446216
0.020804049
0.020148395
0.019507998
0.018872072
0.018257083
0.017687414
0.017177062
0.016728164
0.016337462
0.015991878
0.01569064
0.01543246
0.015211205
0.015019382
0.014849927
0.014696979
0.014556161
0.014424879
0.014302044
0.014186183
0.014077133
0.013972789
0.013871835
0.013773367
0.013676894
0.013581411
0.013485954
0.013387338
0.013284096
0.013175622
0.01305841
0.012931311
0.012794366
0.012647652
0.012491468
0.012326502
0.012153514
0.011973058
0.011785773
0.011592442
0.011393861
0.011190854
0.010984342
0.010775376
0.010565195
0.010355229
0.010147073
0.0099424621
0.0097432343
0.0095512336
0.0093682124
0.0091957243
0.0090349878
0.0088867369
0.008751124
0.0086276224
0.0085151491
0.0084125338
0.0083175207
0.0082281452
0.0081428159
0.0080600034
0.0079785736
0.0078978109
0.0078173012
0.0077367196
0.0076563945
0.0075763901
0.0074969006
0.007418129
0.0073402459
0.0072633875
0.0071876533
0.0071131112
0.0070398036
0.0069677544
0.0068969749
0.0068274676
0.0067592288
0.0066922506
0.0066265212
0.0065620264
0.0064987503
0.0064366758
0.0063757821
0.0063160406
0.0062574146
0.0061998518
0.0061432897
0.0060875997
0.0060327539
0.0059776233
0.005927693
0.0058453947
0.0001897344
0.00054141243
0.0012817884
0.0026128514
0.0041973313
0.0058120077
0.0072671914
0.0085015304
0.0095633109
0.010487119
0.011278131
0.011931677
0.012452339
0.012857927
0.013172239
0.013423695
0.013627443
0.013792021
0.013923322
0.014026143
0.014104643
0.014162082
0.014200679
0.014223992
0.014234883
0.014234664
0.014228643
0.014214605
0.014193733
0.014166726
0.014134653
0.014097266
0.014054605
0.014003471
0.013941534
0.013871167
0.013786958
0.013687999
0.013574992
0.013448441
0.013309051
0.01315797
0.012996404
0.012825147
0.01264508
0.0124572
0.012262444
0.012061722
0.01185602
0.011646448
0.011434359
0.011221321
0.011009117
0.010799738
0.010595309
0.010397955
0.010209669
0.010032159
0.0098666857
0.0097139314
0.0095739165
0.0094459414
0.0093288553
0.0092209878
0.0091202621
0.0090250149
0.0089334552
0.0088442026
0.0087562157
0.0086688323
0.0085816508
0.0084946475
0.0084078539
0.0083214457
0.0082356061
0.0081505171
0.0080663387
0.0079831973
0.0079011864
0.0078203716
0.007740796
0.0076624867
0.0075854587
0.0075097194
0.0074352704
0.0073621087
0.007290228
0.0072196187
0.0071502707
0.0070821726
0.0070153092
0.0069496592
0.0068851909
0.0068218666
0.0067596202
0.0066983997
0.0066380328
0.0065779228
0.0065227651
0.0064320008
0.00012669197
0.00013715206
0.00016857374
0.00025233997
0.00042364736
0.0006746148
0.0011361976
0.0017811185
0.0026101152
0.0035318129
0.0044889805
0.0054668336
0.0064530937
0.0074250207
0.0083513615
0.0092038763
0.0099647763
0.010629299
0.011202968
0.011695607
0.012117226
0.012476583
0.012781778
0.013039444
0.013256136
0.013436764
0.013587177
0.013711891
0.013814249
0.013897913
0.013965088
0.014017046
0.014055462
0.014079114
0.014081844
0.014074092
0.014044722
0.013994458
0.013925027
0.013837398
0.013732841
0.013613079
0.013479913
0.013334457
0.01317793
0.013011617
0.012836628
0.012653977
0.01246471
0.012269926
0.01207104
0.011869641
0.011667559
0.011466857
0.011269743
0.011078435
0.010895008
0.010721238
0.010558453
0.01040741
0.010268215
0.010140295
0.010022639
0.0099135825
0.0098114964
0.0097147246
0.009621595
0.0095308034
0.0094413431
0.0093525382
0.0092639795
0.0091756572
0.0090874958
0.0089996679
0.0089123376
0.0088256718
0.0087398241
0.0086549202
0.0085710569
0.0084883053
0.0084067155
0.0083263218
0.0082471463
0.0081692032
0.0080925004
0.0080170413
0.007942825
0.0078698475
0.0077981039
0.0077275886
0.0076582921
0.007590199
0.007523283
0.0074575166
0.0073928358
0.0073292286
0.0072664683
0.0072042072
0.0071468675
0.0070522916
0.00012554493
0.00012609199
0.00012664274
0.00012835415
0.00013502966
0.00014918672
0.00018238846
0.00025103576
0.0003631872
0.0005724455
0.00089592053
0.0013405343
0.0019133577
0.002582147
0.0033378143
0.004172484
0.0050687577
0.005996578
0.0069179429
0.0077961654
0.0086053286
0.0093336279
0.0099806202
0.010551295
0.011052193
0.011489542
0.011870087
0.012200599
0.012487945
0.012737523
0.012953673
0.013139703
0.013298638
0.013430211
0.013533797
0.013613013
0.013664561
0.013688425
0.013685938
0.013658589
0.01360855
0.0135383
0.013450559
0.013346769
0.013228726
0.013098187
0.012956545
0.012804987
0.012644643
0.012476765
0.012302669
0.012123942
0.011942406
0.0117601
0.011579213
0.011401954
0.011230406
0.011066391
0.01091134
0.010766182
0.010631267
0.010506343
0.010390714
0.010283095
0.01018225
0.010086633
0.0099947706
0.0099054173
0.0098175668
0.0097304939
0.0096437446
0.0095571925
0.009470727
0.0093844645
0.0092985404
0.0092131089
0.0091283209
0.0090443073
0.0089611745
0.0088790051
0.0087978608
0.0087177871
0.0086388163
0.0085609716
0.0084842693
0.0084087205
0.0083343312
0.0082611041
0.0081890408
0.0081181421
0.0080484049
0.0079798208
0.0079123701
0.0078460348
0.0077807569
0.0077165554
0.0076531779
0.0075904521
0.0075326695
0.0074368861
0.00012546356
0.00012602515
0.00012614866
0.00012586727
0.0001253512
0.00012469506
0.00012441072
0.00012618576
0.00013172702
0.00014612916
0.00017703631
0.00023336956
0.00032510825
0.00048348161
0.0007238844
0.0010662749
0.0015197304
0.0020781982
0.0027419453
0.0035042191
0.0043450658
0.0052309734
0.0061212107
0.0069784814
0.0077775338
0.0085068155
0.009164691
0.009754186
0.010280101
0.010747749
0.011162543
0.011529414
0.011852819
0.01213459
0.012376111
0.012579748
0.01274514
0.012872745
0.012964301
0.013022405
0.013049865
0.013049854
0.01302528
0.012979615
0.01291552
0.012835097
0.012740152
0.012632203
0.01251259
0.012382633
0.012243705
0.012097358
0.011945345
0.011789623
0.011632299
0.011475525
0.011321372
0.011171735
0.011028218
0.010892041
0.010763955
0.010644193
0.010532557
0.010428337
0.010330665
0.010238237
0.010149779
0.010064095
0.0099801491
0.0098971326
0.0098144927
0.009731952
0.0096493583
0.0095667551
0.0094842442
0.0094019687
0.0093200823
0.0092387273
0.0091580263
0.0090780793
0.0089989648
0.0089207435
0.0088434615
0.0087671537
0.0086918473
0.0086175626
0.0085443146
0.0084721141
0.0084009704
0.0083308921
0.0082618838
0.0081939448
0.0081270632
0.0080612306
0.0079963976
0.0079326077
0.0078696027
0.0078073286
0.0077500658
0.0076544788
0.00012539021
0.00012583411
0.00012607344
0.00012593468
0.00012546498
0.00012477172
0.00012390587
0.0001229447
0.00012204047
0.00012102248
0.0001212471
0.00012354807
0.00012956939
0.00014307938
0.00016932455
0.00021579552
0.00029082923
0.0004196686
0.00062170147
0.00091697551
0.001321949
0.0018376306
0.0024658269
0.0031973012
0.0040076664
0.0048598
0.0057127124
0.0065326317
0.0072993315
0.0080049522
0.0086486845
0.0092322289
0.0097581626
0.010228428
0.01064488
0.011009535
0.011323215
0.011586931
0.01180274
0.011973715
0.012103589
0.012196498
0.01225658
0.012288125
0.012294861
0.012279839
0.012245567
0.012194091
0.012127119
0.01204617
0.011952715
0.0118483
0.011734608
0.011613488
0.011486936
0.011357025
0.011225823
0.011095328
0.010967388
0.010843609
0.010725265
0.010613196
0.010507845
0.010409166
0.010316727
0.010229543
0.010146558
0.010066633
0.0099886888
0.0099118193
0.0098353351
0.009758803
0.0096820044
0.0096049047
0.0095275676
0.0094501262
0.00937274
0.0092955681
0.0092187549
0.0091424232
0.0090666734
0.0089915857
0.0089172232
0.0088436363
0.008770865
0.0086989417
0.0086278921
0.008557737
0.008488495
0.0084201837
0.0083528169
0.008286403
0.0082209387
0.0081564259
0.0080928256
0.0080302006
0.0079683036
0.0079071457
0.007851097
0.0077567176
0.00012543023
0.0001256983
0.00012585465
0.00012578297
0.00012546933
0.00012495153
0.00012426953
0.0001234073
0.00012241266
0.00012137758
0.00012032314
0.00011932798
0.00011845163
0.00011786697
0.00011826286
0.00012069023
0.00012645285
0.00013863486
0.00016202769
0.00020371947
0.00027275358
0.00039316761
0.00058726324
0.0008754985
0.0012748084
0.0017893876
0.0024180387
0.0031453216
0.0039404074
0.0047634443
0.0055768881
0.0063543295
0.007081948
0.0077536592
0.0083665641
0.008919094
0.0094102839
0.0098401371
0.010209986
0.010522552
0.010781784
0.010992461
0.011159712
0.01128882
0.011384675
0.011451474
0.011492697
0.011511164
0.011509159
0.011488582
0.011451114
0.011398375
0.011332021
0.011253808
0.011165626
0.011069474
0.010967425
0.010861605
0.010754145
0.010647092
0.010542302
0.010441299
0.010345241
0.01025481
0.010170094
0.010090499
0.010015222
0.0099432196
0.0098733923
0.0098047389
0.0097364266
0.0096678685
0.0095987595
0.009528985
0.0094585653
0.0093876212
0.0093163193
0.0092448385
0.0091733492
0.0091020015
0.0090309224
0.0089602157
0.0088899659
0.0088202416
0.0087510992
0.0086825857
0.0086147399
0.0085475945
0.0084811795
0.0084155232
0.0083506498
0.0082865782
0.0082233156
0.0081608743
0.0080992277
0.0080384537
0.0079783304
0.0079188867
0.0078646584
0.0077723805
0.00012559875
0.00012571683
0.00012575139
0.00012562418
0.00012532751
0.00012488121
0.00012431357
0.00012363894
0.00012286137
0.00012199961
0.00012105074
0.00011998108
0.00011887474
0.00011780016
0.00011672599
0.00011574936
0.00011491994
0.00011449182
0.00011503803
0.00011754927
0.00012337376
0.00013559553
0.00015944507
0.00020211154
0.00027665158
0.00040703251
0.00061720839
0.00093022732
0.0013568604
0.0019013577
0.002555584
0.0032948799
0.0040818391
0.0048765641
0.0056471783
0.0063736377
0.0070446314
0.007653483
0.0081965742
0.0086732664
0.0090856225
0.0094376398
0.0097344788
0.0099819532
0.010185895
0.010351631
0.01048376
0.010586088
0.010661698
0.010713076
0.010742288
0.010751154
0.010741396
0.010714741
0.010673008
0.010618145
0.010552246
0.010477572
0.010396538
0.010311636
0.010225312
0.01013978
0.010056937
0.009978212
0.0099043103
0.0098350898
0.0097700685
0.0097083593
0.0096488945
0.0095906147
0.009532564
0.0094740117
0.0094145573
0.0093540053
0.0092923273
0.0092296269
0.0091660765
0.0091018752
0.0090372218
0.0089722975
0.0089072596
0.0088422403
0.0087773492
0.0087126772
0.0086483003
0.0085842832
0.0085206805
0.0084575396
0.0083949037
0.0083328137
0.0082713062
0.0082104121
0.0081501507
0.0080905457
0.0080315849
0.0079733574
0.0079156799
0.0078585589
0.0078067453
0.0077174587
0.00012586591
0.00012587066
0.00012580828
0.00012561708
0.00012529149
0.0001248489
0.00012431129
0.00012369653
0.00012301372
0.00012226699
0.00012145774
0.0001205763
0.00011962243
0.00011860895
0.00011752955
0.00011637064
0.000115211
0.0001140844
0.00011298692
0.00011200836
0.00011121356
0.00011091058
0.0001117348
0.00011471058
0.00012160066
0.00013601804
0.00016436216
0.00021455274
0.00030760713
0.00046820415
0.00072143274
0.0010866092
0.001571137
0.0021716518
0.0028667081
0.0036186579
0.004384288
0.0051273424
0.0058242446
0.0064622029
0.0070352995
0.0075422065
0.0079850266
0.0083681911
0.0086972697
0.0089780421
0.0092159386
0.0094157153
0.009581346
0.009716062
0.0098224776
0.0099027704
0.0099588514
0.0099925145
0.010005577
0.0099999781
0.0099778518
0.0099415894
0.0098938644
0.0098375713
0.0097756947
0.0097110947
0.009646363
0.0095836657
0.0095243814
0.0094688912
0.0094171012
0.00936837
0.0093217402
0.0092761589
0.0092305971
0.009184205
0.0091364899
0.0090871796
0.0090361926
0.0089836098
0.0089296052
0.0088743967
0.0088182115
0.0087612646
0.0087037471
0.0086458236
0.0085876329
0.0085292923
0.0084709016
0.0084125462
0.0083543001
0.0082962279
0.0082383886
0.0081808381
0.0081236272
0.0080668009
0.0080103921
0.0079544377
0.0078989416
0.0078440014
0.0077894832
0.0077353393
0.0076865597
0.0076012041
0.00012620414
0.00012612373
0.00012598866
0.00012574978
0.00012539951
0.00012495014
0.0001244191
0.00012382176
0.00012316874
0.00012246571
0.00012171519
0.000120917
0.00012006821
0.00011916644
0.0001182099
0.00011719086
0.00011611255
0.00011498231
0.0001137952
0.00011255221
0.0001113308
0.00011013891
0.00010900058
0.00010806632
0.00010711515
0.00010724685
0.00010877631
0.00011293537
0.00012244421
0.00014245089
0.00018051052
0.00025217279
0.00038295181
0.00060057152
0.00092871589
0.0013767721
0.0019419632
0.0026008307
0.0033123116
0.0040311855
0.0047219666
0.0053637515
0.0059470473
0.0064691674
0.006931433
0.0073375468
0.0076922967
0.0080005705
0.0082668374
0.0084949387
0.0086880495
0.0088487789
0.0089793248
0.0090816397
0.009157613
0.0092092263
0.0092386742
0.0092484702
0.0092415035
0.0092209993
0.0091903907
0.0091530872
0.0091122796
0.0090708003
0.0090307078
0.0089929676
0.008957922
0.0089252718
0.0088942661
0.008863948
0.0088332916
0.0088013748
0.008767631
0.0087317239
0.0086935197
0.0086530723
0.0086105519
0.0085661914
0.0085202458
0.008472964
0.0084245739
0.0083752758
0.0083252422
0.008274621
0.0082235395
0.0081721085
0.0081204243
0.0080685723
0.0080166303
0.0079646713
0.007912763
0.0078609664
0.0078093307
0.0077579069
0.0077067177
0.0076558671
0.0076052795
0.0075548298
0.007509745
0.0074293376
0.0001265919
0.00012644756
0.00012625758
0.00012598382
0.00012561757
0.00012516608
0.00012464201
0.0001240575
0.00012342171
0.00012274055
0.00012201738
0.0001212539
0.00012045029
0.00011960543
0.00011871771
0.00011778454
0.00011680248
0.00011576885
0.0001146813
0.00011353413
0.00011233301
0.00011108264
0.00010977605
0.00010843222
0.00010712159
0.00010585628
0.00010472016
0.00010377022
0.00010326351
0.00010384844
0.00010657453
0.00011349674
0.00012898314
0.0001603386
0.00022113727
0.00033762553
0.00053914109
0.00084984072
0.0012774998
0.0018147499
0.0024331593
0.0030902601
0.003744623
0.0043672444
0.00494307
0.0054665371
0.0059371041
0.0063567285
0.0067285501
0.0070560031
0.0073422753
0.0075901363
0.0078019622
0.0079798388
0.0081257341
0.0082416838
0.0083299464
0.0083931371
0.0084343087
0.0084569319
0.0084647745
0.0084616676
0.0084512625
0.0084369261
0.0084213335
0.0084060444
0.0083918596
0.008378896
0.0083667048
0.0083545243
0.0083414294
0.0083264953
0.0083091196
0.0082889273
0.0082657428
0.0082395921
0.0082106381
0.0081791245
0.0081453306
0.0081095391
0.0080720158
0.0080329995
0.0079927003
0.0079513009
0.0079089607
0.0078658195
0.0078220005
0.0077776133
0.0077327576
0.0076875268
0.0076420079
0.0075962806
0.0075504124
0.0075044708
0.0074584995
0.0074126079
0.0073667861
0.0073208161
0.0072801346
0.0072057836
0.00012701238
0.00012682019
0.00012658884
0.00012628932
0.00012591283
0.00012546299
0.00012494856
0.00012437872
0.00012376079
0.00012309982
0.00012239898
0.00012166013
0.00012088421
0.00012007131
0.0001192209
0.00011833192
0.00011740267
0.00011643086
0.00011541406
0.00011434911
0.0001132327
0.00011206249
0.00011083536
0.00010954645
0.00010820652
0.00010681526
0.00010536322
0.00010392401
0.00010253154
0.00010120604
0.00010009675
9.92133e-05
9.9270505e-05
0.00010122333
0.00010679359
0.0001201598
0.00014860871
0.00020624133
0.0003196443
0.0005179829
0.00082076848
0.0012307633
0.0017345646
0.0023013742
0.0028925477
0.0034746938
0.0040265047
0.0045376467
0.0050044569
0.0054264823
0.0058047041
0.0061407325
0.0064363664
0.006693384
0.0069135709
0.0070988588
0.0072514694
0.007374041
0.0074697088
0.0075420884
0.0075951591
0.007633032
0.0076596593
0.007678759
0.0076934821
0.0077059087
0.0077172749
0.007728133
0.0077384002
0.0077475981
0.0077550054
0.0077597832
0.0077613511
0.0077593369
0.0077535464
0.0077439867
0.0077308134
0.0077142773
0.0076946792
0.007672333
0.0076475424
0.0076205867
0.0075917165
0.0075611531
0.0075290924
0.0074957077
0.007461153
0.0074255662
0.0073890728
0.0073517898
0.0073138265
0.0072752838
0.0072362506
0.0071968131
0.0071570385
0.0071170414
0.007076883
0.0070362467
0.0070007236
0.0069336325
0.00012745249
0.00012722464
0.00012696235
0.00012664396
0.00012626117
0.0001258151
0.00012531155
0.00012475731
0.00012415812
0.0001235181
0.00012283992
0.00012212523
0.00012137492
0.00012058928
0.00011976811
0.00011891085
0.00011801655
0.00011708388
0.00011611116
0.00011509641
0.00011403719
0.00011293077
0.00011177436
0.0001105643
0.00010929764
0.00010797221
0.00010658212
0.00010513093
0.00010362577
0.00010206549
0.00010046324
9.8915727e-05
9.7416395e-05
9.610402e-05
9.504633e-05
9.4781635e-05
9.6230235e-05
0.00010124926
0.00011423063
0.0001425971
0.00020229228
0.00031863414
0.00051761732
0.00081061393
0.0011954129
0.0016554708
0.0021621152
0.0026836451
0.0031945756
0.0036790176
0.0041288571
0.004540518
0.0049126509
0.0052450457
0.0055382438
0.0057934091
0.0060122955
0.0061972734
0.0063513534
0.006478132
0.0065816476
0.0066661383
0.006735697
0.0067941852
0.0068450127
0.0068906286
0.0069325911
0.0069718264
0.0070086158
0.0070428066
0.0070739609
0.007101418
0.0071246899
0.0071434633
0.0071575647
0.0071670031
0.0071719342
0.0071726166
0.0071693695
0.0071625358
0.0071524555
0.0071394487
0.0071238082
0.0071057974
0.0070856522
0.0070635836
0.0070397809
0.0070144144
0.0069876395
0.0069596003
0.0069304317
0.006900259
0.0068691952
0.006837348
0.006804811
0.0067717049
0.0067381652
0.0067037794
0.0066742114
0.0066156767
0.00012790206
0.00012764781
0.00012736263
0.00012703065
0.00012664442
0.00012620339
0.0001257111
0.00012517247
0.00012459191
0.00012397273
0.00012331714
0.00012262653
0.00012190164
0.0001211427
0.00012034955
0.00011952169
0.00011865835
0.00011775848
0.00011682078
0.00011584374
0.00011482557
0.00011376423
0.00011265742
0.00011150259
0.00011029679
0.00010903696
0.00010771964
0.0001063411
0.00010489819
0.00010338848
0.00010180586
0.00010016182
9.8457634e-05
9.6679367e-05
9.4948778e-05
9.3264906e-05
9.1728534e-05
9.0458322e-05
8.995427e-05
9.1208899e-05
9.6333222e-05
0.00011010101
0.00013996839
0.00020349028
0.0003225364
0.00051736478
0.00079167388
0.0011406978
0.0015483992
0.0019907324
0.0024426453
0.0028841702
0.0033022504
0.0036894766
0.0040420389
0.0043583015
0.0046381536
0.0048827617
0.0050944022
0.0052762503
0.0054321189
0.005566152
0.0056824097
0.0057846902
0.0058763943
0.0059601104
0.0060375124
0.0061097289
0.0061772982
0.0062403488
0.0062987391
0.0063520501
0.0063999493
0.0064422425
0.0064788285
0.0065097512
0.0065351843
0.0065554007
0.0065707385
0.0065815671
0.0065882602
0.0065911775
0.0065906546
0.0065869983
0.0065804875
0.0065713746
0.006559888
0.0065462347
0.0065306039
0.0065131709
0.0064940995
0.0064735427
0.0064516407
0.0064285257
0.0064043207
0.0063791542
0.0063532376
0.0063260742
0.0063032933
0.0062546965
0.0001283533
0.00012807969
0.0001277778
0.00012743632
0.00012704875
0.00012661348
0.00012613242
0.00012560895
0.0001250464
0.00012444736
0.00012381363
0.00012314636
0.00012244615
0.00012171316
0.0001209472
0.00012014778
0.00011931416
0.00011844537
0.00011754021
0.00011659732
0.00011561514
0.00011459191
0.00011352569
0.00011241434
0.00011125549
0.00011004652
0.0001087846
0.0001074666
0.00010608897
0.00010464824
0.00010314003
0.00010156029
9.990609e-05
9.8167618e-05
9.635279e-05
9.446429e-05
9.2488896e-05
9.0513161e-05
8.8587947e-05
8.6793482e-05
8.5292413e-05
8.4618656e-05
8.5823043e-05
9.1372084e-05
0.00010623625
0.0001374548
0.00020255885
0.00031865753
0.00049915167
0.00074389158
0.0010473242
0.0013956564
0.0017695415
0.0021492132
0.002518478
0.0028662723
0.0031863144
0.0034759223
0.0037349392
0.0039649758
0.0041688505
0.0043501019
0.0045124418
0.0046593777
0.0047940001
0.0049187186
0.0050350597
0.0051440522
0.0052462458
0.0053418707
0.0054309724
0.0055133558
0.0055888595
0.0056574456
0.0057191334
0.0057740408
0.0058223847
0.0058644661
0.0059006464
0.0059313204
0.0059568927
0.0059777594
0.0059942968
0.006006855
0.006015757
0.0060212988
0.0060237508
0.0060233603
0.0060203539
0.006014942
0.0060073209
0.0059976744
0.0059861731
0.0059729765
0.0059582406
0.0059421041
0.005924854
0.0059059294
0.0058907945
0.0058535889
0.00012880032
0.00012851273
0.00012819889
0.00012785105
0.00012746368
0.00012703457
0.00012656442
0.00012605544
0.00012551002
0.00012493016
0.00012431726
0.00012367223
0.00012299556
0.00012228734
0.00012154735
0.0001207751
0.00011996988
0.00011913074
0.00011825656
0.00011734604
0.0001163977
0.00011540991
0.00011438088
0.00011330863
0.00011219105
0.00011102579
0.00010981035
0.00010854198
0.00010721773
0.00010583435
0.00010438839
0.00010287584
0.00010129249
9.9632861e-05
9.7890905e-05
9.6060557e-05
9.4130923e-05
9.2099485e-05
8.9967058e-05
8.7722206e-05
8.5431885e-05
8.3192502e-05
8.1074548e-05
7.9297843e-05
7.8428903e-05
7.9568509e-05
8.5364723e-05
0.00010052471
0.00013140306
0.00019269544
0.00029670946
0.0004516796
0.00065571146
0.00090340485
0.0011834947
0.0014813876
0.0017825203
0.0020749753
0.0023509823
0.0026068428
0.002842018
0.0030580064
0.0032573141
0.0034426663
0.0036164312
0.0037804297
0.0039356621
0.0040826426
0.0042215232
0.0043522778
0.0044748434
0.004589068
0.0046948662
0.0047923138
0.0048815592
0.0049628139
0.0050363591
0.0051025381
0.0051617416
0.0052143894
0.0052609127
0.0053017384
0.0053372783
0.0053679223
0.0053940352
0.0054159561
0.0054339989
0.0054484524
0.0054595839
0.0054676413
0.0054728566
0.0054754474
0.0054756173
0.0054735566
0.0054694564
0.0054634695
0.005455956
0.005446319
0.0054397059
0.0054153993
0.0001292388
0.00012894131
0.00012861921
0.00012826743
0.00012788139
0.0001274586
0.0001269989
0.00012650358
0.0001259743
0.0001254125
0.00012481925
0.00012419524
0.00012354082
0.00012285602
0.00012214058
0.00012139402
0.00012061564
0.00011980453
0.00011895963
0.00011807968
0.00011716328
0.00011620889
0.00011521479
0.00011417913
0.00011309989
0.00011197491
0.00011080181
0.00010957807
0.00010830095
0.00010696749
0.00010557457
0.00010411878
0.00010259638
0.00010100316
9.9334e-05
9.7582602e-05
9.5740849e-05
9.3798554e-05
9.174332e-05
8.9560349e-05
8.7236998e-05
8.4772872e-05
8.216031e-05
7.945935e-05
7.6817182e-05
7.4298699e-05
7.2186041e-05
7.0995645e-05
7.1862097e-05
7.72477e-05
9.1021854e-05
0.00011811592
0.00016913517
0.00025173899
0.0003701295
0.00052293644
0.00070471167
0.00090796043
0.0011241905
0.0013453869
0.00156546
0.0017807263
0.0019897102
0.0021924054
0.0023893013
0.0025807738
0.002766681
0.0029464507
0.0031192353
0.0032841412
0.0034404207
0.0035875036
0.0037250479
0.0038530327
0.0039716186
0.0040810538
0.0041816609
0.0042738165
0.0043579337
0.0044344491
0.0045038091
0.0045664596
0.0046228364
0.0046733588
0.0047184259
0.0047584145
0.0047936778
0.0048245453
0.0048513242
0.0048743012
0.0048937455
0.0049099098
0.0049230329
0.0049333378
0.0049410531
0.0049463494
0.0049496551
0.004950373
0.0049531615
0.0049432963
0.00012966566
0.0001293614
0.00012903385
0.00012868
0.00012829613
0.00012787967
0.00012742988
0.00012694736
0.00012643315
0.00012588826
0.00012531342
0.00012470913
0.00012407561
0.00012341282
0.00012272046
0.00012199805
0.00012124489
0.00012046013
0.00011964272
0.00011879148
0.00011790507
0.00011698201
0.00011602067
0.00011501928
0.00011397594
0.00011288857
0.00011175494
0.00011057264
0.00010933905
0.00010805138
0.00010670665
0.00010530168
0.0001038331
0.00010229721
0.00010068983
9.9005954e-05
9.7239252e-05
9.5381571e-05
9.3422035e-05
9.1347117e-05
8.9139939e-05
8.6780787e-05
8.4251376e-05
8.1532306e-05
7.862995e-05
7.5549374e-05
7.2344298e-05
6.9231583e-05
6.6260198e-05
6.3749907e-05
6.2066822e-05
6.2290158e-05
6.632752e-05
7.6788509e-05
9.6839892e-05
0.00013177512
0.00018615414
0.00026156057
0.00035772368
0.00047180727
0.00060091833
0.00074276032
0.00089573649
0.0010589264
0.0012315938
0.0014125622
0.0015998479
0.00179067
0.0019818145
0.0021701677
0.0023531174
0.0025286737
0.0026954653
0.0028527871
0.0030003616
0.003138187
0.0032664498
0.0033854521
0.0034955612
0.0035971804
0.0036907323
0.0037766472
0.0038553553
0.00392728
0.0039928336
0.0040524135
0.0041063998
0.0041551531
0.0041990141
0.0042383042
0.0042733269
0.004304369
0.0043317038
0.0043555869
0.0043762852
0.0043939895
0.0044091897
0.00442133
0.0044343894
0.0044405177
0.00013007882
0.00012977018
0.00012943936
0.00012908489
0.00012870379
0.00012829357
0.00012785312
0.00012738253
0.00012688235
0.00012635318
0.00012579552
0.00012520965
0.00012459567
0.00012395348
0.00012328273
0.00012258294
0.00012185342
0.00012109333
0.00012030167
0.00011947731
0.00011861895
0.00011772518
0.00011679446
0.0001158251
0.00011481528
0.00011376302
0.0001126662
0.00011152253
0.00011032949
0.00010908442
0.00010778441
0.00010642643
0.00010500723
0.0001035234
0.0001019712
0.00010034642
9.8643943e-05
9.6857333e-05
9.4978136e-05
9.2995304e-05
9.089483e-05
8.8659036e-05
8.6268028e-05
8.3699342e-05
8.0930497e-05
7.7946511e-05
7.4729837e-05
7.1308041e-05
6.7706135e-05
6.3963904e-05
6.038624e-05
5.6976303e-05
5.4037005e-05
5.1796987e-05
5.1059114e-05
5.2890305e-05
5.8705006e-05
6.9989099e-05
8.8108683e-05
0.00011537141
0.00015297452
0.0002015188
0.00026171996
0.00033484628
0.00042225499
0.00052561245
0.00064643128
0.00078512505
0.00094038045
0.0011090804
0.0012866969
0.0014681256
0.0016486587
0.0018247608
0.0019941178
0.0021554266
0.002308066
0.0024518191
0.0025866978
0.0027128517
0.0028305189
0.0029399964
0.0030416184
0.0031357411
0.0032227322
0.0033029641
0.0033768073
0.003444625
0.0035067696
0.0035635804
0.003615383
0.003662489
0.0037051994
0.0037437979
0.0037785856
0.0038097738
0.0038379025
0.0038625009
0.0038866676
0.0039103072
0.00013047698
0.00013016579
0.00012983335
0.00012947937
0.0001291015
0.00012869738
0.00012826573
0.00012780622
0.00012731904
0.00012680447
0.00012626276
0.00012569404
0.00012509829
0.00012447532
0.00012382476
0.00012314611
0.00012243868
0.00012170165
0.00012093406
0.00012013481
0.00011930266
0.00011843626
0.00011753412
0.00011659464
0.00011561607
0.00011459654
0.00011353402
0.00011242631
0.00011127104
0.00011006561
0.00010880726
0.000107493
0.00010611969
0.00010468403
0.00010318253
0.00010161141
9.9966302e-05
9.8241932e-05
9.6431533e-05
9.452623e-05
9.2514504e-05
9.0381714e-05
8.8110093e-05
8.567937e-05
8.3067162e-05
8.0252146e-05
7.7214255e-05
7.393963e-05
7.042747e-05
6.6675269e-05
6.2740584e-05
5.8666317e-05
5.4492464e-05
5.0541021e-05
4.6816267e-05
4.3507763e-05
4.0826691e-05
3.9007976e-05
3.8591577e-05
4.0104478e-05
4.4074425e-05
5.1023337e-05
6.1533968e-05
7.6435236e-05
9.7288043e-05
0.00012600464
0.00016478193
0.00021624576
0.00028316044
0.00036768949
0.00047059207
0.0005914164
0.0007279764
0.0008767065
0.0010332614
0.0011932414
0.001352823
0.0015090951
0.0016600878
0.0018046116
0.0019420274
0.0020720429
0.0021945738
0.0023096655
0.0024174539
0.0025181417
0.0026119792
0.0026992473
0.0027802448
0.0028552786
0.0029246579
0.002988689
0.0030476777
0.0031019179
0.0031517302
0.0031973391
0.0032393155
0.0032773142
0.0033133447
0.0033559122
0.00013085939
0.00013054706
0.00013021428
0.00012986165
0.00012948732
0.00012908916
0.00012866576
0.00012821655
0.0001277414
0.00012724036
0.00012671346
0.00012616067
0.00012558188
0.00012497681
0.00012434509
0.00012368616
0.00012299935
0.00012228385
0.00012153874
0.00012076293
0.00011995525
0.00011911439
0.00011823893
0.00011732732
0.00011637789
0.00011538885
0.00011435827
0.00011328404
0.00011216391
0.00011099538
0.00010977579
0.00010850224
0.00010717167
0.00010578084
0.00010432638
0.00010280474
0.00010121201
9.9543697e-05
9.779422e-05
9.5956377e-05
9.4020724e-05
9.1975037e-05
8.9804016e-05
8.7489469e-05
8.5010898e-05
8.2346834e-05
7.9476805e-05
7.6382952e-05
7.3053765e-05
6.9484634e-05
6.5682492e-05
6.166866e-05
5.7470747e-05
5.3159652e-05
4.8804217e-05
4.4477923e-05
4.0324084e-05
3.6542123e-05
3.3115385e-05
3.0162769e-05
2.7769109e-05
2.6030156e-05
2.5186601e-05
2.5436615e-05
2.7074443e-05
3.0525381e-05
3.6399433e-05
4.557643e-05
5.9255603e-05
7.9187607e-05
0.00010781309
0.0001473571
0.00019991382
0.00026712453
0.00034957267
0.00044662048
0.0005569594
0.00067832619
0.00080780404
0.00094221248
0.0010784906
0.0012139774
0.0013465923
0.0014748597
0.0015978305
0.0017149554
0.001825962
0.0019307584
0.0020293717
0.0021219106
0.0022085403
0.0022894658
0.0023649233
0.002435161
0.0025004745
0.0025610699
0.0026175124
0.0026696066
0.0027180626
0.0027807295
0.00013122579
0.00013091338
0.00013058123
0.0001302306
0.00012986006
0.00012946768
0.00012905205
0.0001286124
0.0001281484
0.00012765987
0.00012714669
0.00012660869
0.00012604566
0.00012545727
0.00012484308
0.00012420254
0.00012353497
0.00012283956
0.00012211542
0.0001213615
0.00012057666
0.00011975964
0.00011890906
0.00011802345
0.0001171012
0.00011614059