/*--------------------------------*- C++ -*----------------------------------*\
| =========                 |                                                 |
| \\      /  F ield         | OpenFOAM: The Open Source CFD Toolbox           |
|  \\    /   O peration     | Version:  2206                                  |
|   \\  /    A nd           | Website:  www.openfoam.com                      |
|    \\/     M anipulation  |                                                 |
\*---------------------------------------------------------------------------*/
FoamFile
{
    version     2.0;
    format      ascii;
    arch        "LSB;label=32;scalar=64";
    class       volScalarField;
    location    "100";
    object      nut;
}
// * * * * * * * * * * * * * * * * * * * * * * * * * * * * * * * * * * * * * //

dimensions      [0 2 -1 0 0 0 0];

internalField   nonuniform List<scalar> 
7480
(
1.6132488e-05
2.2436136e-05
2.36094e-05
2.2654138e-05
2.1065284e-05
1.9594728e-05
1.8462992e-05
1.7602173e-05
1.691159e-05
1.6327951e-05
1.5822474e-05
1.5382818e-05
1.5001346e-05
1.4671091e-05
1.4385303e-05
1.4137159e-05
1.3921483e-05
1.3734227e-05
1.3571182e-05
1.3428298e-05
1.330193e-05
1.3188976e-05
1.3086655e-05
1.2992955e-05
1.2906503e-05
1.282609e-05
1.2750963e-05
1.2680259e-05
1.2613246e-05
1.2549292e-05
1.248801e-05
1.2429024e-05
1.2371965e-05
1.2315987e-05
1.2260214e-05
1.2204485e-05
1.214766e-05
1.2088834e-05
1.2027528e-05
1.1963399e-05
1.1896214e-05
1.1825865e-05
1.1752347e-05
1.1675662e-05
1.1595817e-05
1.1512894e-05
1.1427017e-05
1.1338329e-05
1.1247028e-05
1.1153341e-05
1.1057561e-05
1.0960085e-05
1.0861382e-05
1.0761977e-05
1.0662495e-05
1.0563658e-05
1.0466296e-05
1.0371377e-05
1.0280003e-05
1.0193253e-05
1.0112066e-05
1.0037326e-05
9.9688263e-06
9.9065795e-06
9.8519618e-06
9.8009567e-06
9.7539252e-06
9.7094518e-06
9.6664773e-06
9.6241513e-06
9.58228e-06
9.5395843e-06
9.4966636e-06
9.4534593e-06
9.4100049e-06
9.3664686e-06
9.322994e-06
9.2797176e-06
9.2367506e-06
9.1941755e-06
9.1520498e-06
9.1104126e-06
9.0692894e-06
9.0286947e-06
8.9886362e-06
8.9491179e-06
8.9101396e-06
8.871698e-06
8.8337884e-06
8.7964034e-06
8.7595328e-06
8.7231588e-06
8.6872598e-06
8.6517884e-06
8.6167161e-06
8.581851e-06
8.5473811e-06
8.5117602e-06
8.4802732e-06
8.4278967e-06
1.6332028e-06
5.1243466e-06
8.7752456e-06
1.16729e-05
1.3397254e-05
1.4473768e-05
1.5229372e-05
1.58003e-05
1.6211239e-05
1.6505398e-05
1.6727987e-05
1.6911729e-05
1.7074412e-05
1.7224018e-05
1.7365569e-05
1.7491231e-05
1.7611873e-05
1.773469e-05
1.7857834e-05
1.7978071e-05
1.8091564e-05
1.8195349e-05
1.8288081e-05
1.8370285e-05
1.8443843e-05
1.8509262e-05
1.8568938e-05
1.8621073e-05
1.8665416e-05
1.870236e-05
1.8732748e-05
1.8756277e-05
1.8772741e-05
1.8778322e-05
1.877143e-05
1.8753176e-05
1.8718641e-05
1.8666874e-05
1.8598829e-05
1.8515267e-05
1.8417052e-05
1.8305516e-05
1.8181997e-05
1.8047305e-05
1.7902301e-05
1.7747983e-05
1.758522e-05
1.7414847e-05
1.7237789e-05
1.7055107e-05
1.6868176e-05
1.6678659e-05
1.6488475e-05
1.6299786e-05
1.6114859e-05
1.5935851e-05
1.576465e-05
1.5602724e-05
1.5451019e-05
1.5309844e-05
1.5178907e-05
1.5057399e-05
1.4943771e-05
1.4836423e-05
1.4735421e-05
1.4637792e-05
1.4542833e-05
1.4449465e-05
1.4356911e-05
1.4264669e-05
1.4172792e-05
1.4080831e-05
1.3988818e-05
1.3897069e-05
1.3805628e-05
1.3714645e-05
1.3624248e-05
1.353455e-05
1.3445643e-05
1.3357597e-05
1.3270469e-05
1.3184303e-05
1.3099135e-05
1.3014989e-05
1.2931889e-05
1.2849852e-05
1.276889e-05
1.2689014e-05
1.2610233e-05
1.2532558e-05
1.2455993e-05
1.2380541e-05
1.2306187e-05
1.2232932e-05
1.2160707e-05
1.208963e-05
1.2019184e-05
1.1950005e-05
1.1885148e-05
1.1777457e-05
3.1823093e-07
4.2428813e-07
9.1416378e-07
2.1958731e-06
4.1337724e-06
6.4059091e-06
8.513261e-06
1.0327284e-05
1.200997e-05
1.3628296e-05
1.5174788e-05
1.6630993e-05
1.7989552e-05
1.925739e-05
2.0446564e-05
2.1583907e-05
2.267069e-05
2.3701551e-05
2.4672251e-05
2.5581725e-05
2.6430768e-05
2.7220059e-05
2.7949525e-05
2.8625035e-05
2.9251152e-05
2.9829031e-05
3.037408e-05
3.0877181e-05
3.1342524e-05
3.1772695e-05
3.2172068e-05
3.2540783e-05
3.2880609e-05
3.3184044e-05
3.3442492e-05
3.3669618e-05
3.3847807e-05
3.3975238e-05
3.405536e-05
3.4090745e-05
3.4084456e-05
3.4040827e-05
3.3964372e-05
3.38579e-05
3.3724247e-05
3.3566423e-05
3.3386881e-05
3.3187684e-05
3.297086e-05
3.2738462e-05
3.249318e-05
3.2238136e-05
3.1976915e-05
3.1713566e-05
3.1452323e-05
3.1197168e-05
3.0951479e-05
3.0717738e-05
3.0497345e-05
3.0290523e-05
3.0096466e-05
2.9913448e-05
2.9739197e-05
2.9571258e-05
2.9408721e-05
2.924938e-05
2.9091733e-05
2.8934766e-05
2.8777737e-05
2.8620238e-05
2.8462379e-05
2.8304077e-05
2.8145086e-05
2.7985823e-05
2.7826411e-05
2.7667029e-05
2.7507855e-05
2.7349054e-05
2.7190778e-05
2.7033162e-05
2.687633e-05
2.6720392e-05
2.6565448e-05
2.6411586e-05
2.6258889e-05
2.6107431e-05
2.5957276e-05
2.5808486e-05
2.5661123e-05
2.551525e-05
2.5370924e-05
2.5228197e-05
2.5087087e-05
2.4947673e-05
2.4809839e-05
2.4674122e-05
2.4539035e-05
2.4408052e-05
2.4282826e-05
2.4075969e-05
3.5137907e-06
6.8066978e-07
2.9472696e-07
3.1306599e-07
5.227057e-07
8.8917077e-07
1.7644731e-06
3.1611993e-06
4.8677985e-06
6.61274e-06
8.3647904e-06
1.0248714e-05
1.2273894e-05
1.4402257e-05
1.6574953e-05
1.8739325e-05
2.0857407e-05
2.2908564e-05
2.4885122e-05
2.6783784e-05
2.8600849e-05
3.0332831e-05
3.1980029e-05
3.354116e-05
3.5018188e-05
3.6410112e-05
3.7722806e-05
3.8961239e-05
4.0128431e-05
4.1232022e-05
4.2274815e-05
4.3257626e-05
4.4184737e-05
4.5052468e-05
4.5821414e-05
4.655207e-05
4.7183733e-05
4.7719766e-05
4.8167167e-05
4.8529021e-05
4.8810624e-05
4.9019865e-05
4.91658e-05
4.9253705e-05
4.9289554e-05
4.9279598e-05
4.9228799e-05
4.9141147e-05
4.9020225e-05
4.8869015e-05
4.8691674e-05
4.8492412e-05
4.8275937e-05
4.8047463e-05
4.7812374e-05
4.7575693e-05
4.7341674e-05
4.711354e-05
4.6893336e-05
4.6681895e-05
4.6479008e-05
4.6283548e-05
4.6094058e-05
4.5908778e-05
4.5726971e-05
4.5547107e-05
4.5367842e-05
4.5188176e-05
4.5007297e-05
4.4824668e-05
4.4640145e-05
4.4453514e-05
4.426452e-05
4.4073399e-05
4.3880325e-05
4.3685537e-05
4.3489306e-05
4.3291912e-05
4.309363e-05
4.2894723e-05
4.2695436e-05
4.2495994e-05
4.2296606e-05
4.2097462e-05
4.1898737e-05
4.1700595e-05
4.1503182e-05
4.1306639e-05
4.1111106e-05
4.0916729e-05
4.0723641e-05
4.0531968e-05
4.0341784e-05
4.0153249e-05
3.9966244e-05
3.978165e-05
3.9597241e-05
3.9418801e-05
3.9247305e-05
3.896456e-05
1.6562856e-05
8.1456781e-06
2.7259028e-06
1.094409e-06
5.9874253e-07
4.3617505e-07
4.3077573e-07
5.6410981e-07
8.1615652e-07
1.3843855e-06
2.3321057e-06
3.517904e-06
4.9699707e-06
6.6104923e-06
8.4927404e-06
1.0657269e-05
1.3081648e-05
1.5702676e-05
1.8437522e-05
2.1205675e-05
2.3947694e-05
2.663016e-05
2.923878e-05
3.1765236e-05
3.4202202e-05
3.6542442e-05
3.878384e-05
4.0927813e-05
4.2980599e-05
4.4944651e-05
4.6821477e-05
4.8611303e-05
5.031567e-05
5.1923708e-05
5.3419198e-05
5.4815829e-05
5.6087404e-05
5.7226232e-05
5.823118e-05
5.9102948e-05
5.9848558e-05
6.0478266e-05
6.1006321e-05
6.1438874e-05
6.1786033e-05
6.2058418e-05
6.2264112e-05
6.2409519e-05
6.2499999e-05
6.2540969e-05
6.2536917e-05
6.249312e-05
6.2415233e-05
6.230926e-05
6.2181373e-05
6.2037409e-05
6.1882517e-05
6.1720983e-05
6.1556147e-05
6.1390364e-05
6.1225108e-05
6.1061028e-05
6.089845e-05
6.0737021e-05
6.0576633e-05
6.0416476e-05
6.0255506e-05
6.0092592e-05
5.992665e-05
5.9756777e-05
5.958235e-05
5.9402915e-05
5.9218185e-05
5.902821e-05
5.8833222e-05
5.8633582e-05
5.8429716e-05
5.8222083e-05
5.8011146e-05
5.7797348e-05
5.7581106e-05
5.7362802e-05
5.7142789e-05
5.692139e-05
5.6698905e-05
5.6475612e-05
5.6251768e-05
5.6027613e-05
5.580339e-05
5.5579347e-05
5.5355718e-05
5.5132717e-05
5.4910491e-05
5.4689288e-05
5.4469008e-05
5.4250786e-05
5.4031909e-05
5.3819734e-05
5.3615078e-05
5.3278444e-05
2.014854e-05
1.8657012e-05
1.4480034e-05
8.8063312e-06
4.8155151e-06
2.704252e-06
1.633258e-06
1.0865432e-06
8.0180592e-07
6.827774e-07
7.0044899e-07
8.3656504e-07
1.1009334e-06
1.6564891e-06
2.4935711e-06
3.6210079e-06
5.095985e-06
6.8765539e-06
9.0253583e-06
1.1561129e-05
1.4441362e-05
1.7575559e-05
2.0854491e-05
2.4179761e-05
2.7484355e-05
3.0732461e-05
3.3906726e-05
3.6995617e-05
3.9991372e-05
4.2889658e-05
4.568902e-05
4.8387855e-05
5.0984579e-05
5.346734e-05
5.5822308e-05
5.8043485e-05
6.0110644e-05
6.2008545e-05
6.3729509e-05
6.5273274e-05
6.664285e-05
6.7846686e-05
6.8893707e-05
6.9802967e-05
7.0589315e-05
7.1264748e-05
7.1840343e-05
7.2325494e-05
7.2728007e-05
7.3054808e-05
7.3312048e-05
7.3505971e-05
7.3643028e-05
7.3730009e-05
7.377397e-05
7.3781843e-05
7.3760154e-05
7.3714927e-05
7.3651599e-05
7.3574905e-05
7.3488802e-05
7.3396381e-05
7.3300158e-05
7.3201388e-05
7.3100808e-05
7.2998231e-05
7.2892794e-05
7.2783117e-05
7.2667705e-05
7.2545139e-05
7.2414271e-05
7.2274397e-05
7.212513e-05
7.1966412e-05
7.1798559e-05
7.1622095e-05
7.1437653e-05
7.1245921e-05
7.104759e-05
7.0843325e-05
7.0633749e-05
7.0419433e-05
7.0200903e-05
6.9978641e-05
6.9753095e-05
6.9524683e-05
6.929379e-05
6.9060778e-05
6.8826008e-05
6.8589851e-05
6.8352654e-05
6.8114741e-05
6.7876347e-05
6.7637807e-05
6.7399074e-05
6.7161454e-05
6.6921984e-05
6.6688938e-05
6.6463151e-05
6.6092129e-05
2.0589802e-05
2.0296932e-05
1.9650095e-05
1.8122095e-05
1.5405676e-05
1.1957427e-05
8.651691e-06
6.0317266e-06
4.1662929e-06
2.874208e-06
2.0366843e-06
1.4946447e-06
1.1569388e-06
9.9086223e-07
9.6534572e-07
1.0702484e-06
1.31452e-06
1.8576155e-06
2.7042302e-06
3.906474e-06
5.5503424e-06
7.605258e-06
1.0147056e-05
1.3164891e-05
1.6581579e-05
2.0271722e-05
2.410214e-05
2.7968047e-05
3.1807986e-05
3.5593145e-05
3.9307647e-05
4.2937221e-05
4.6469387e-05
4.9888565e-05
5.3177622e-05
5.6319252e-05
5.9289302e-05
6.2064947e-05
6.4629698e-05
6.697506e-05
6.9099711e-05
7.1009011e-05
7.2712635e-05
7.4227829e-05
7.5572339e-05
7.6762166e-05
7.781176e-05
7.8733654e-05
7.9538383e-05
8.0234917e-05
8.0831133e-05
8.1334523e-05
8.175259e-05
8.2093191e-05
8.2364666e-05
8.2575582e-05
8.2734515e-05
8.2849974e-05
8.2930243e-05
8.2983097e-05
8.3015494e-05
8.3033273e-05
8.3041222e-05
8.3042268e-05
8.3038064e-05
8.3028885e-05
8.3013951e-05
8.2991583e-05
8.2959821e-05
8.2916721e-05
8.2860646e-05
8.2790638e-05
8.2706196e-05
8.2607214e-05
8.249411e-05
8.2367595e-05
8.2228534e-05
8.2077865e-05
8.1916537e-05
8.174546e-05
8.1565487e-05
8.1377401e-05
8.1181921e-05
8.0979713e-05
8.0771391e-05
8.0557529e-05
8.033866e-05
8.0115284e-05
7.9887899e-05
7.9657005e-05
7.9423082e-05
7.9186574e-05
7.8947825e-05
7.8707263e-05
7.846492e-05
7.8222219e-05
7.7976151e-05
7.7735408e-05
7.7500767e-05
7.7114345e-05
2.0969427e-05
2.0728448e-05
2.0441649e-05
2.0033031e-05
1.9388859e-05
1.8364615e-05
1.6859564e-05
1.4881371e-05
1.2603238e-05
1.0274914e-05
8.1097038e-06
6.2386212e-06
4.6981779e-06
3.4884985e-06
2.5908778e-06
1.9551424e-06
1.5278512e-06
1.2945188e-06
1.2233894e-06
1.3093254e-06
1.5674494e-06
2.1771627e-06
3.144527e-06
4.5674948e-06
6.5275316e-06
9.0310424e-06
1.2124474e-05
1.5754722e-05
1.9792707e-05
2.4078694e-05
2.8472817e-05
3.2883945e-05
3.7263952e-05
4.1580683e-05
4.5801639e-05
4.9892866e-05
5.3819166e-05
5.7546926e-05
6.1047308e-05
6.4299546e-05
6.7292783e-05
7.0025474e-05
7.250358e-05
7.4741072e-05
7.6755765e-05
7.8565898e-05
8.0188742e-05
8.1639786e-05
8.2932369e-05
8.4077822e-05
8.5085988e-05
8.5965936e-05
8.6726572e-05
8.737722e-05
8.7927986e-05
8.8389669e-05
8.8773574e-05
8.9091403e-05
8.9354956e-05
8.9575613e-05
8.9763754e-05
8.992819e-05
9.0076045e-05
9.0211988e-05
9.0338599e-05
9.0456486e-05
9.0564889e-05
9.0661815e-05
9.0744842e-05
9.0811534e-05
9.0859822e-05
9.0888472e-05
9.0896891e-05
9.0884958e-05
9.0853197e-05
9.0802508e-05
9.0733993e-05
9.0648855e-05
9.0548309e-05
9.0433528e-05
9.030561e-05
9.0165568e-05
9.0014335e-05
8.9852772e-05
8.968168e-05
8.9501806e-05
8.9313844e-05
8.9118449e-05
8.8916264e-05
8.8707933e-05
8.849408e-05
8.8275283e-05
8.8052007e-05
8.7824791e-05
8.7593768e-05
8.7360444e-05
8.7121936e-05
8.6887014e-05
8.6656195e-05
8.6273242e-05
2.1430792e-05
2.1162442e-05
2.0875015e-05
2.0570785e-05
2.0226366e-05
1.980868e-05
1.9285874e-05
1.8609161e-05
1.7728089e-05
1.6612513e-05
1.5255016e-05
1.3677118e-05
1.195648e-05
1.0183285e-05
8.4363647e-06
6.8033665e-06
5.3386583e-06
4.1040223e-06
3.1231675e-06
2.3904403e-06
1.8772091e-06
1.5884957e-06
1.4938258e-06
1.5895905e-06
1.9478551e-06
2.7173987e-06
3.9541375e-06
5.8023851e-06
8.2747681e-06
1.144151e-05
1.5276694e-05
1.9655139e-05
2.4392945e-05
2.9310377e-05
3.4275559e-05
3.9205406e-05
4.4038355e-05
4.8716151e-05
5.3185619e-05
5.7405464e-05
6.1348144e-05
6.4998563e-05
6.8352838e-05
7.1417786e-05
7.4207548e-05
7.6739683e-05
7.9032599e-05
8.1103866e-05
8.296925e-05
8.4642441e-05
8.6135377e-05
8.745895e-05
8.8623761e-05
8.9640931e-05
9.0522726e-05
9.1282661e-05
9.1935346e-05
9.2496294e-05
9.2981448e-05
9.3406378e-05
9.3785384e-05
9.4130617e-05
9.4451767e-05
9.475541e-05
9.5045127e-05
9.5321787e-05
9.5584601e-05
9.5831232e-05
9.6058786e-05
9.6264357e-05
9.6445458e-05
9.660056e-05
9.6728989e-05
9.6830623e-05
9.6906082e-05
9.695645e-05
9.6983066e-05
9.6987396e-05
9.6970931e-05
9.6935113e-05
9.6881302e-05
9.6810755e-05
9.6724633e-05
9.662401e-05
9.6509886e-05
9.6383199e-05
9.6244818e-05
9.6095565e-05
9.5936239e-05
9.5767642e-05
9.5590547e-05
9.5405679e-05
9.5213645e-05
9.5015103e-05
9.4810321e-05
9.4600859e-05
9.4384109e-05
9.4168694e-05
9.3954646e-05
9.3593963e-05
2.1948856e-05
2.1666229e-05
2.1361215e-05
2.1039878e-05
2.0706955e-05
2.0366883e-05
2.0007372e-05
1.9615891e-05
1.9175647e-05
1.8669866e-05
1.8079765e-05
1.7380557e-05
1.6551739e-05
1.5580703e-05
1.4457762e-05
1.3183065e-05
1.1787317e-05
1.0305483e-05
8.7790103e-06
7.2733529e-06
5.843141e-06
4.5783838e-06
3.5305691e-06
2.7197535e-06
2.15723e-06
1.8469254e-06
1.77973e-06
1.9475301e-06
2.5552334e-06
3.6570137e-06
5.4076113e-06
7.9078204e-06
1.1201785e-05
1.5295222e-05
2.0055419e-05
2.5256623e-05
3.0662836e-05
3.6091013e-05
4.142079e-05
4.6569323e-05
5.1473042e-05
5.6086803e-05
6.038537e-05
6.4360452e-05
6.8015848e-05
7.1363242e-05
7.4418719e-05
7.7199729e-05
7.972315e-05
8.2004369e-05
8.4057152e-05
8.5894146e-05
8.7527696e-05
8.8970819e-05
9.0238095e-05
9.1346007e-05
9.2312841e-05
9.3158408e-05
9.3903375e-05
9.4568144e-05
9.517159e-05
9.5729815e-05
9.6255553e-05
9.6757645e-05
9.7240906e-05
9.7706488e-05
9.8153517e-05
9.8579258e-05
9.8980281e-05
9.9353169e-05
9.9694985e-05
0.00010000385
0.00010027901
0.00010052033
0.00010072852
0.00010090485
0.00010105086
0.00010116831
0.00010125895
0.00010132451
0.00010136662
0.0001013868
0.00010138644
0.00010136686
0.00010132926
0.00010127479
0.00010120452
0.00010111943
0.0001010205
0.00010090869
0.00010078494
0.00010065014
0.00010050504
0.00010035045
0.00010018677
0.00010001564
9.9834823e-05
9.9652661e-05
9.9468482e-05
9.9148877e-05
2.251304e-05
2.2220061e-05
2.1905725e-05
2.1574047e-05
2.122933e-05
2.08771e-05
2.0520586e-05
2.0160552e-05
1.9796163e-05
1.9420574e-05
1.9024533e-05
1.859959e-05
1.8135264e-05
1.762146e-05
1.7047776e-05
1.6399134e-05
1.5662057e-05
1.4823867e-05
1.3869923e-05
1.2791262e-05
1.1598128e-05
1.0296817e-05
8.9102817e-06
7.490239e-06
6.0582107e-06
4.7937835e-06
3.7161296e-06
2.8724774e-06
2.3297941e-06
2.0788342e-06
2.1149411e-06
2.5736507e-06
3.5979621e-06
5.338415e-06
7.9517624e-06
1.1473794e-05
1.5908928e-05
2.1076898e-05
2.66825e-05
3.243255e-05
3.8115376e-05
4.3605209e-05
4.8827856e-05
5.3737392e-05
5.8310244e-05
6.2541163e-05
6.6436466e-05
7.0008204e-05
7.3270907e-05
7.6239583e-05
7.892857e-05
8.1351496e-05
8.3521954e-05
8.5454516e-05
8.7165823e-05
8.8675204e-05
9.0004684e-05
9.1178629e-05
9.2222895e-05
9.3163367e-05
9.4024278e-05
9.4826526e-05
9.5586641e-05
9.6316339e-05
9.702211e-05
9.7705611e-05
9.8365814e-05
9.8999531e-05
9.9602666e-05
0.00010017117
0.00010070156
0.00010119152
0.00010164013
0.00010204729
0.00010241375
0.00010274093
0.00010303064
0.00010328486
0.00010350564
0.000103695
0.00010385485
0.00010398698
0.00010409305
0.0001041746
0.00010423309
0.00010426987
0.00010428621
0.0001042833
0.0001042623
0.00010422434
0.00010417054
0.00010410194
0.00010401948
0.00010392411
0.00010381643
0.00010369811
0.00010356741
0.00010343231
0.00010329119
0.00010303163
2.3116681e-05
2.281471e-05
2.2492893e-05
2.2155446e-05
2.1805413e-05
2.1446118e-05
2.1080863e-05
2.0712322e-05
2.0342494e-05
1.9972064e-05
1.9600196e-05
1.9225088e-05
1.8844338e-05
1.8452967e-05
1.8044404e-05
1.7612944e-05
1.7152051e-05
1.6653532e-05
1.6110578e-05
1.551204e-05
1.4846842e-05
1.410128e-05
1.3257334e-05
1.2301805e-05
1.1233432e-05
1.0041449e-05
8.7418054e-06
7.3535093e-06
5.9681746e-06
4.6973198e-06
3.6274838e-06
2.8591444e-06
2.4317137e-06
2.3491472e-06
2.7217214e-06
3.7498267e-06
5.5955038e-06
8.428898e-06
1.2271408e-05
1.7068723e-05
2.2558162e-05
2.8385683e-05
3.4243671e-05
3.9936218e-05
4.5361549e-05
5.0468804e-05
5.5232719e-05
5.9644944e-05
6.370867e-05
6.7432886e-05
7.0828656e-05
7.3908046e-05
7.6684218e-05
7.9172063e-05
8.13893e-05
8.3357357e-05
8.5101544e-05
8.6650652e-05
8.8035925e-05
8.9289255e-05
9.0441038e-05
9.1517955e-05
9.2541327e-05
9.3526613e-05
9.4482691e-05
9.5412151e-05
9.631386e-05
9.7184122e-05
9.8018007e-05
9.881063e-05
9.9557788e-05
0.00010025655
0.00010090577
0.0001015053
0.00010205594
0.00010255925
0.00010301727
0.00010343224
0.00010380651
0.00010414238
0.00010444207
0.00010470765
0.00010494104
0.00010514407
0.00010531842
0.00010546569
0.00010558736
0.00010568484
0.00010575948
0.0001058126
0.0001058455
0.0001058594
0.00010585543
0.00010583471
0.00010579805
0.00010574716
0.00010568089
0.00010560678
0.00010552204
0.00010534184
2.3753481e-05
2.3443551e-05
2.3114946e-05
2.2772398e-05
2.2418532e-05
2.2055848e-05
2.1686704e-05
2.131313e-05
2.0936745e-05
2.0558813e-05
2.018022e-05
1.9801411e-05
1.9422479e-05
1.9042936e-05
1.8661485e-05
1.8276391e-05
1.7885428e-05
1.7486389e-05
1.7073733e-05
1.6642924e-05
1.6189042e-05
1.5706078e-05
1.5186693e-05
1.4622059e-05
1.4003224e-05
1.3314052e-05
1.2532946e-05
1.1651807e-05
1.0650892e-05
9.511287e-06
8.2398665e-06
6.8561101e-06
5.5006897e-06
4.2829156e-06
3.3387667e-06
2.7708102e-06
2.6017217e-06
2.9770289e-06
4.1031035e-06
6.1666567e-06
9.2797179e-06
1.3436176e-05
1.8485719e-05
2.4097827e-05
2.9910281e-05
3.5648295e-05
4.1154996e-05
4.6355997e-05
5.1217242e-05
5.5723176e-05
5.9869376e-05
6.3659038e-05
6.7100161e-05
7.0204474e-05
7.2988147e-05
7.5472745e-05
7.7685454e-05
7.9658614e-05
8.14285e-05
8.303318e-05
8.4509834e-05
8.5891914e-05
8.7206677e-05
8.8474411e-05
8.9707364e-05
9.0909719e-05
9.2080497e-05
9.3215489e-05
9.4308744e-05
9.5354269e-05
9.6346885e-05
9.7282786e-05
9.8160425e-05
9.8979536e-05
9.974092e-05
0.00010044628
0.00010109785
0.00010169814
0.00010224981
0.00010275547
0.00010321762
0.00010363865
0.00010402077
0.00010436608
0.00010467652
0.00010495393
0.00010520006
0.00010541653
0.0001056049
0.00010576669
0.0001059034
0.00010601644
0.00010610714
0.00010617679
0.00010622647
0.00010625793
0.00010627065
0.00010627175
0.00010625689
0.00010617596
2.4417581e-05
2.4100446e-05
2.3765578e-05
2.3418145e-05
2.3060508e-05
2.2694739e-05
2.2322771e-05
2.1946247e-05
2.1566443e-05
2.1184323e-05
2.0800631e-05
2.041594e-05
2.0030673e-05
1.9645116e-05
1.9259369e-05
1.8873317e-05
1.8486575e-05
1.809867e-05
1.7708529e-05
1.7314722e-05
1.6915517e-05
1.6509005e-05
1.6092297e-05
1.5660532e-05
1.5209559e-05
1.4734295e-05
1.4226717e-05
1.3680554e-05
1.3084902e-05
1.242188e-05
1.1669655e-05
1.0818391e-05
9.8297639e-06
8.6890208e-06
7.3882845e-06
6.0287365e-06
4.7250898e-06
3.6740284e-06
3.0287634e-06
2.8334954e-06
3.3187489e-06
4.6207798e-06
6.9485932e-06
1.0292028e-05
1.4628554e-05
1.9724283e-05
2.5230311e-05
3.0818539e-05
3.6262532e-05
4.1438736e-05
4.6288246e-05
5.0783114e-05
5.4910383e-05
5.8667847e-05
6.2063162e-05
6.5113191e-05
6.7843396e-05
7.0287105e-05
7.2484065e-05
7.447785e-05
7.631252e-05
7.8029006e-05
7.9661636e-05
8.1236722e-05
8.2771049e-05
8.4271366e-05
8.5737281e-05
8.7164184e-05
8.8544941e-05
8.987212e-05
9.1139208e-05
9.2341165e-05
9.347573e-05
9.4542392e-05
9.5541872e-05
9.647596e-05
9.7347088e-05
9.8158048e-05
9.8911777e-05
9.9611206e-05
0.00010025917
0.00010085835
0.00010141128
0.00010192032
0.00010238772
0.00010281558
0.00010320588
0.00010356051
0.00010388126
0.00010416985
0.00010442799
0.00010465731
0.00010485934
0.00010503559
0.00010518737
0.00010531651
0.00010542321
0.00010551415
0.00010558294
0.00010562202
2.5103551e-05
2.4779738e-05
2.4438968e-05
2.4086783e-05
2.3725344e-05
2.3356369e-05
2.2981486e-05
2.260212e-05
2.2219404e-05
2.1834182e-05
2.1447074e-05
2.1058537e-05
2.0668911e-05
2.0278446e-05
1.9887323e-05
1.9495657e-05
1.9103485e-05
1.8710771e-05
1.8317395e-05
1.7923112e-05
1.7527529e-05
1.7130132e-05
1.6730244e-05
1.6326749e-05
1.5918231e-05
1.550307e-05
1.5079277e-05
1.4642145e-05
1.4187747e-05
1.3711063e-05
1.3204114e-05
1.2661333e-05
1.206839e-05
1.1399593e-05
1.0650848e-05
9.7803506e-06
8.7511129e-06
7.5392409e-06
6.2119618e-06
4.8845584e-06
3.8120885e-06
3.1725896e-06
3.0261763e-06
3.6963788e-06
5.1881236e-06
7.7127465e-06
1.1150861e-05
1.5447112e-05
2.0352705e-05
2.5542432e-05
3.0733303e-05
3.5735619e-05
4.0443759e-05
4.480679e-05
4.8803718e-05
5.2432139e-05
5.5705286e-05
5.865047e-05
6.1306449e-05
6.3719621e-05
6.5939587e-05
6.8014553e-05
6.998665e-05
7.1889322e-05
7.3745092e-05
7.5564458e-05
7.7348259e-05
7.90917e-05
8.0786333e-05
8.2422893e-05
8.3993053e-05
8.5490043e-05
8.6910408e-05
8.8253129e-05
8.9518699e-05
9.0708905e-05
9.1826338e-05
9.2874042e-05
9.3855253e-05
9.4773225e-05
9.5631113e-05
9.6431926e-05
9.7178501e-05
9.7873508e-05
9.8519475e-05
9.9118788e-05
9.9673708e-05
0.00010018637
0.00010065881
0.000101093
0.00010149085
0.00010185422
0.00010218488
0.00010248452
0.00010275477
0.00010299751
0.0001032137
0.00010340963
0.00010357625
0.00010375707
2.5806387e-05
2.5476262e-05
2.5129815e-05
2.4772926e-05
2.440761e-05
2.4035294e-05
2.3657336e-05
2.3274972e-05
2.2889222e-05
2.2500872e-05
2.2110505e-05
2.1718548e-05
2.1325304e-05
2.0930983e-05
2.0535721e-05
2.0139601e-05
1.9742663e-05
1.9344907e-05
1.8946306e-05
1.8546807e-05
1.814632e-05
1.7744717e-05
1.7341832e-05
1.6937445e-05
1.6531234e-05
1.6122757e-05
1.5711537e-05
1.5296628e-05
1.4876754e-05
1.4450547e-05
1.4015674e-05
1.3567765e-05
1.3103044e-05
1.2613884e-05
1.2096006e-05
1.1539024e-05
1.0920488e-05
1.0230062e-05
9.4358839e-06
8.4850404e-06
7.3472694e-06
6.0687287e-06
4.7688903e-06
3.7592674e-06
3.2019555e-06
3.1601714e-06
3.9710854e-06
5.5919682e-06
8.1465394e-06
1.1471682e-05
1.5496462e-05
1.9988441e-05
2.4663524e-05
2.928387e-05
3.3687659e-05
3.7786319e-05
4.1546077e-05
4.4968365e-05
4.807764e-05
5.0913912e-05
5.3526592e-05
5.5968205e-05
5.8287892e-05
6.0526711e-05
6.2713738e-05
6.4864225e-05
6.6981132e-05
6.905967e-05
7.1089903e-05
7.3060241e-05
7.4959841e-05
7.6779513e-05
7.8513869e-05
8.0160894e-05
8.1720576e-05
8.3194509e-05
8.4585341e-05
8.5896318e-05
8.7130952e-05
8.8292808e-05
8.9385364e-05
9.0411944e-05
9.1375699e-05
9.2279603e-05
9.3126476e-05
9.3918996e-05
9.4659701e-05
9.5351e-05
9.599519e-05
9.6594485e-05
9.7151035e-05
9.7666927e-05
9.8144169e-05
9.858469e-05
9.8990428e-05
9.9363328e-05
9.9705167e-05
0.00010002188
0.00010030094
0.00010064634
2.6521545e-05
2.6185353e-05
2.5833361e-05
2.547175e-05
2.5102437e-05
2.4726617e-05
2.4345416e-05
2.3959895e-05
2.3570962e-05
2.3179342e-05
2.278559e-05
2.2390124e-05
2.1993243e-05
2.1595156e-05
2.1195997e-05
2.0795837e-05
2.0394702e-05
1.9992583e-05
1.9589439e-05
1.9185215e-05
1.8779839e-05
1.8373231e-05
1.79653e-05
1.7555954e-05
1.7145085e-05
1.6732559e-05
1.6318219e-05
1.5901871e-05
1.548322e-05
1.5061883e-05
1.4637364e-05
1.4208682e-05
1.3774538e-05
1.3333503e-05
1.2881716e-05
1.241533e-05
1.1928254e-05
1.1415481e-05
1.0869621e-05
1.027125e-05
9.6075632e-06
8.855366e-06
7.9523821e-06
6.8756434e-06
5.6612046e-06
4.449527e-06
3.5485929e-06
3.1090955e-06
3.1827728e-06
4.0447586e-06
5.627685e-06
7.9885171e-06
1.095472e-05
1.4459965e-05
1.8297995e-05
2.2246237e-05
2.6120805e-05
2.9800257e-05
3.3229261e-05
3.6403688e-05
3.9352255e-05
4.2120433e-05
4.4758122e-05
4.7311108e-05
4.9813818e-05
5.2286163e-05
5.4733594e-05
5.7151299e-05
5.9527414e-05
6.184718e-05
6.4096099e-05
6.6261418e-05
6.8334671e-05
7.0311954e-05
7.2192191e-05
7.397639e-05
7.5667014e-05
7.7267365e-05
7.8781155e-05
8.0212207e-05
8.1564285e-05
8.2841008e-05
8.4045816e-05
8.5181971e-05
8.6252577e-05
8.7260591e-05
8.8208829e-05
8.9099976e-05
8.9936594e-05
9.072115e-05
9.1456041e-05
9.2143592e-05
9.2786063e-05
9.338562e-05
9.3944524e-05
9.4464809e-05
9.4949079e-05
9.5403044e-05
9.5809625e-05
9.6343603e-05
2.7244973e-05
2.6902872e-05
2.6545399e-05
2.6179007e-05
2.580555e-05
2.542604e-05
2.5041408e-05
2.4652557e-05
2.4260289e-05
2.3865264e-05
2.3468003e-05
2.3068907e-05
2.2668276e-05
2.2266321e-05
2.1863182e-05
2.1458941e-05
2.1053631e-05
2.0647245e-05
2.0239748e-05
1.983108e-05
1.9421167e-05
1.9009927e-05
1.8597269e-05
1.8183105e-05
1.776734e-05
1.734988e-05
1.6930619e-05
1.6509447e-05
1.6086239e-05
1.5660842e-05
1.523308e-05
1.4802715e-05
1.4369357e-05
1.3932581e-05
1.3491507e-05
1.3044746e-05
1.2590786e-05
1.2126359e-05
1.1647262e-05
1.114862e-05
1.0625919e-05
1.0073345e-05
9.4736942e-06
8.8144005e-06
8.0824139e-06
7.2160855e-06
6.20139e-06
5.0731843e-06
3.9937253e-06
3.229865e-06
2.8909309e-06
3.0056024e-06
3.7848304e-06
5.1245672e-06
7.0406321e-06
9.4197059e-06
1.2148581e-05
1.5105987e-05
1.8161451e-05
2.1207669e-05
2.418211e-05
2.7065417e-05
2.9869261e-05
3.2621576e-05
3.5351004e-05
3.8076597e-05
4.0804045e-05
4.3526888e-05
4.6229354e-05
4.889115e-05
5.1491607e-05
5.4012162e-05
5.6439195e-05
5.8765207e-05
6.0986803e-05
6.3103511e-05
6.5117004e-05
6.7030268e-05
6.8846965e-05
7.0571014e-05
7.2206346e-05
7.3756779e-05
7.522597e-05
7.6617408e-05
7.7934429e-05
7.9180233e-05
8.0357883e-05
8.1470317e-05
8.252035e-05
8.3510698e-05
8.4443998e-05
8.5322814e-05
8.6149658e-05
8.6926934e-05
8.7657239e-05
8.8342699e-05
8.8986753e-05
8.9595029e-05
9.0144634e-05
9.089225e-05
2.7973118e-05
2.7625207e-05
2.7262273e-05
2.6891014e-05
2.6513255e-05
2.612986e-05
2.5741598e-05
2.5349234e-05
2.495347e-05
2.45549e-05
2.4154007e-05
2.3751174e-05
2.3346691e-05
2.2940771e-05
2.253356e-05
2.2125148e-05
2.1715577e-05
2.1304854e-05
2.0892951e-05
2.0479819e-05
2.006539e-05
1.9649587e-05
1.9232324e-05
1.8813511e-05
1.8393055e-05
1.7970859e-05
1.7546819e-05
1.7120827e-05
1.6692763e-05
1.6262498e-05
1.5829891e-05
1.5394786e-05
1.4956987e-05
1.4516248e-05
1.4072241e-05
1.3624444e-05
1.3172216e-05
1.2714525e-05
1.2249773e-05
1.1776437e-05
1.1291063e-05
1.0790293e-05
1.0270731e-05
9.7261435e-06
9.1543129e-06
8.5423865e-06
7.8767685e-06
7.1600503e-06
6.3345773e-06
5.4021379e-06
4.3871271e-06
3.4568091e-06
2.8190975e-06
2.5307928e-06
2.6049948e-06
3.1208505e-06
4.0479613e-06
5.33798e-06
6.9483969e-06
8.7866557e-06
1.0802992e-05
1.2975136e-05
1.5280982e-05
1.7713991e-05
2.0273951e-05
2.295573e-05
2.5744366e-05
2.8613361e-05
3.1528176e-05
3.44523e-05
3.7351468e-05
4.0195477e-05
4.2960508e-05
4.5630967e-05
4.8197492e-05
5.0655654e-05
5.300471e-05
5.5246245e-05
5.7383121e-05
5.9418809e-05
6.1357001e-05
6.3201418e-05
6.4955704e-05
6.6623396e-05
6.8207914e-05
6.9712578e-05
7.1140604e-05
7.2495105e-05
7.3779094e-05
7.499549e-05
7.6147139e-05
7.7236816e-05
7.8267266e-05
7.9241119e-05
8.01613e-05
8.1030021e-05
8.1851546e-05
8.2631597e-05
8.3339977e-05
8.4327072e-05
2.8702918e-05
2.8349257e-05
2.7980852e-05
2.7604634e-05
2.7222411e-05
2.6834938e-05
2.6442849e-05
2.6046788e-05
2.5647362e-05
2.5245103e-05
2.4840456e-05
2.4433778e-05
2.402535e-05
2.3615382e-05
2.3204023e-05
2.2791367e-05
2.2377468e-05
2.196234e-05
2.1545966e-05
2.1128308e-05
2.0709309e-05
2.0288899e-05
1.9867001e-05
1.9443531e-05
1.9018402e-05
1.859152e-05
1.8162784e-05
1.7732082e-05
1.7299293e-05
1.6864282e-05
1.6426905e-05
1.5987002e-05
1.5544399e-05
1.5098888e-05
1.4650217e-05
1.4198054e-05
1.3741954e-05
1.3281346e-05
1.2815453e-05
1.2343371e-05
1.1863878e-05
1.1375526e-05
1.0877013e-05
1.0366713e-05
9.8402631e-06
9.2948224e-06
8.7244934e-06
8.1289026e-06
7.4991854e-06
6.828695e-06
6.13621e-06
5.3672226e-06
4.5363384e-06
3.6612386e-06
2.8832341e-06
2.3321553e-06
2.0497987e-06
2.0231178e-06
2.221413e-06
2.6729764e-06
3.3495797e-06
4.2173954e-06
5.2787898e-06
6.5503216e-06
8.0417749e-06
9.7792487e-06
1.1796356e-05
1.4096472e-05
1.6655296e-05
1.9422085e-05
2.232772e-05
2.5299072e-05
2.8272032e-05
3.1200425e-05
3.4054673e-05
3.6817798e-05
3.9481e-05
4.2040337e-05
4.4494784e-05
4.6845157e-05
4.9093418e-05
5.1242166e-05
5.3294295e-05
5.5252805e-05
5.7120738e-05
5.8901165e-05
6.0597166e-05
6.2211806e-05
6.3748113e-05
6.5209077e-05
6.6597641e-05
6.7916702e-05
6.9169169e-05
7.0357841e-05
7.1485928e-05
7.2555699e-05
7.3572193e-05
7.4541423e-05
7.5424209e-05
7.667679e-05
2.9431768e-05
2.9072392e-05
2.8698492e-05
2.831722e-05
2.7930381e-05
2.7538649e-05
2.7142544e-05
2.6742607e-05
2.6339359e-05
2.5933272e-05
2.5524748e-05
2.5114123e-05
2.4701663e-05
2.4287571e-05
2.3871998e-05
2.3455043e-05
2.3036764e-05
2.2617184e-05
2.2196297e-05
2.1774073e-05
2.1350463e-05
2.0925409e-05
2.049884e-05
2.0070682e-05
1.9640853e-05
1.9209266e-05
1.8775825e-05
1.8340423e-05
1.7902936e-05
1.746323e-05
1.7021152e-05
1.657654e-05
1.6129216e-05
1.5678983e-05
1.5225615e-05
1.4768833e-05
1.4308279e-05
1.3843492e-05
1.3373891e-05
1.2898765e-05
1.2417294e-05
1.192857e-05
1.143169e-05
1.0925858e-05
1.0410102e-05
9.8835283e-06
9.3448834e-06
8.7931121e-06
8.2269436e-06
7.6326835e-06
7.0211234e-06
6.3856192e-06
5.7165559e-06
5.0595204e-06
4.3682351e-06
3.6526561e-06
2.946585e-06
2.3116906e-06
1.8342083e-06
1.5408759e-06
1.4133701e-06
1.4225875e-06
1.5503009e-06
1.7932002e-06
2.181758e-06
2.7428204e-06
3.4973039e-06
4.4900414e-06
5.7673272e-06
7.3579736e-06
9.2596368e-06
1.1466723e-05
1.3932348e-05
1.6589824e-05
1.9364127e-05
2.2185232e-05
2.4998066e-05
2.77643e-05
3.046038e-05
3.3073425e-05
3.5597061e-05
3.8028389e-05
4.0366309e-05
4.261081e-05
4.4762711e-05
4.6823501e-05
4.8795158e-05
5.0679977e-05
5.2480448e-05
5.4199186e-05
5.5838884e-05
5.740229e-05
5.8892259e-05
6.0311593e-05
6.1663652e-05
6.2950662e-05