/*--------------------------------*- C++ -*----------------------------------*\
| =========                 |                                                 |
| \\      /  F ield         | OpenFOAM: The Open Source CFD Toolbox           |
|  \\    /   O peration     | Version:  2206                                  |
|   \\  /    A nd           | Website:  www.openfoam.com                      |
|    \\/     M anipulation  |                                                 |
\*---------------------------------------------------------------------------*/
FoamFile
{
    version     2.0;
    format      ascii;
    arch        "LSB;label=32;scalar=64";
    class       volScalarField;
    location    "100";
    object      p;
}
// * * * * * * * * * * * * * * * * * * * * * * * * * * * * * * * * * * * * * //

dimensions      [0 2 -2 0 0 0 0];

internalField   nonuniform List<scalar> 
7480
(
0.059720864
0.048934465
0.033490664
0.02413747
0.018940437
0.015870836
0.013935423
0.012450345
0.011176972
0.010112107
0.0092568627
0.0085928738
0.0080944146
0.0077317824
0.0074773528
0.0073097964
0.007211074
0.0071649176
0.0071495298
0.0071684498
0.0072017734
0.007234135
0.0072653507
0.0072931232
0.0073154483
0.0073318931
0.0073433613
0.0073502694
0.0073516058
0.0073485964
0.0073427395
0.0073340642
0.0073232652
0.0073098449
0.0072920942
0.0072693726
0.0072398223
0.0072004916
0.0071494695
0.007085676
0.0070076589
0.0069138519
0.0068033532
0.0066747262
0.0065264332
0.0063576105
0.0061668923
0.005953282
0.005715855
0.0054534366
0.0051656657
0.0048528503
0.0045158125
0.0041572994
0.0037823743
0.0033987025
0.0030173468
0.0026521196
0.0023182628
0.0020300104
0.0017990351
0.0016338069
0.0015316639
0.0014902306
0.0015008216
0.0015438126
0.0016053664
0.0016723446
0.0017334248
0.0017806057
0.0018101407
0.0018182897
0.0018061348
0.0017787088
0.0017378869
0.0016864239
0.0016271434
0.0015623535
0.0014937967
0.0014227232
0.0013500183
0.0012762776
0.0012018691
0.0011270332
0.0010519606
0.00097680595
0.00090170701
0.00082683993
0.00075243357
0.0006787729
0.00060626416
0.00053544024
0.00046713221
0.00040224256
0.00034297418
0.00029003291
0.00025304512
0.00021957886
0.00042222625
-0.00048231076
0.056020203
0.047917755
0.035545706
0.026277226
0.0200612
0.016371622
0.014180513
0.012601879
0.011293421
0.01021195
0.0093453645
0.0086720698
0.0081652368
0.0077946816
0.007532668
0.0073582571
0.007253754
0.0072019382
0.0071886371
0.0072020771
0.0072276511
0.0072571518
0.0072859863
0.0073116494
0.0073321696
0.0073470774
0.0073572093
0.0073629167
0.0073633141
0.0073594256
0.007352672
0.0073432375
0.0073318156
0.0073178456
0.0072996255
0.0072765092
0.007246634
0.0072070565
0.0071558507
0.0070919204
0.007013798
0.0069199072
0.0068093371
0.006680642
0.006532281
0.0063633861
0.0061725866
0.0059588853
0.0057213561
0.0054588242
0.0051709286
0.004857976
0.0045207876
0.0041621086
0.0037869969
0.0034031112
0.0030215088
0.0026559985
0.0023218214
0.0020332211
0.0018018919
0.0016362975
0.0015339281
0.0014921995
0.001502424
0.0015452066
0.0016066184
0.0016734963
0.0017345083
0.0017816483
0.001811152
0.0018192733
0.001807095
0.001779641
0.001738789
0.0016872933
0.001627978
0.0015631524
0.0014945595
0.0014234503
0.0013507104
0.001276936
0.0012024951
0.0011276282
0.0010525261
0.00097734324
0.00090221751
0.00082732502
0.00075289454
0.00067921106
0.00060668078
0.0005358366
0.00046750968
0.00040260251
0.00034331861
0.00029036271
0.00025336701
0.00021993192
0.00042255327
-0.000482007
0.052239729
0.045582114
0.034762569
0.026029544
0.020317559
0.016887383
0.014680325
0.013004499
0.011616643
0.010480868
0.009575785
0.0088726893
0.0083416406
0.0079506748
0.0076712085
0.007482271
0.0073651903
0.0073019045
0.0072800461
0.0072814354
0.0072980498
0.0073202753
0.0073424572
0.0073623858
0.0073779381
0.0073886213
0.0073950746
0.0073974109
0.0073948399
0.0073883483
0.0073792119
0.0073676808
0.0073543525
0.0073386405
0.0073189133
0.007294453
0.0072633973
0.0072228611
0.0071708873
0.0071063465
0.0070277372
0.0069334544
0.0068225592
0.0066935764
0.006544954
0.0063758125
0.0061847643
0.0059708079
0.0057330127
0.0054701984
0.0051820033
0.0048687288
0.0045311871
0.0041721161
0.0037965589
0.0034121597
0.0030299679
0.0026637923
0.0023288838
0.0020395135
0.0018074154
0.0016410621
0.0015380685
0.001495764
0.0015054868
0.0015479172
0.0016090792
0.0016757858
0.001736683
0.0017837509
0.0018131955
0.0018212586
0.0018090256
0.0017815096
0.0017405906
0.001689023
0.0016296331
0.0015647316
0.0014960633
0.0014248803
0.001352069
0.0012782259
0.0012037193
0.0011287897
0.001053628
0.00097838863
0.00090320924
0.00082826592
0.00075378738
0.00068005849
0.00060748545
0.00053660112
0.0004682369
0.00040329509
0.00034398095
0.00029099567
0.00025398749
0.00022053664
0.00042322653
-0.00048156065
0.049405964
0.043842737
0.034472059
0.026319708
0.020889056
0.017446056
0.01513322
0.013406818
0.012000232
0.010829506
0.0098874881
0.0091508181
0.0085901062
0.0081732215
0.0078702834
0.0076604679
0.0075245415
0.0074440059
0.0074066185
0.0073950138
0.0074008214
0.0074131648
0.0074266826
0.0074390241
0.0074477431
0.007452411
0.0074535424
0.0074510043
0.0074440632
0.0074337064
0.0074210757
0.0074063777
0.0073900373
0.0073714953
0.0073493275
0.0073225496
0.0072893149
0.0072469617
0.0071934835
0.0071277107
0.0070481056
0.0069530243
0.0068414777
0.0067119384
0.0065628381
0.0063932766
0.0062018303
0.0059874876
0.005749305
0.0054860892
0.0051974754
0.0048837542
0.0045457217
0.0041861038
0.0038099225
0.0034247991
0.0030417752
0.0026746621
0.0023387236
0.0020482737
0.0018150928
0.0016476781
0.0015437636
0.0015007051
0.0015097817
0.0015517374
0.0016125577
0.0016790281
0.0017397649
0.0017867318
0.0018160883
0.001824063
0.0018117498
0.0017841422
0.0017431248
0.0016914528
0.0016319551
0.001566945
0.0014981691
0.0014268811
0.0013539684
0.001280028
0.0012054286
0.0011304105
0.0010551648
0.00097984561
0.00090459061
0.00082957571
0.0007550295
0.00068123672
0.00060860353
0.00053766272
0.00046924591
0.00040425522
0.00034489812
0.00029187103
0.00025484358
0.00022133715
0.00042415615
-0.00048096697
0.04684998
0.042080888
0.033987824
0.026645231
0.021516327
0.01804248
0.01559614
0.013764108
0.012301006
0.011107764
0.010159937
0.0094180483
0.0088393421
0.0084002427
0.0080776957
0.0078503612
0.0076988439
0.0076029517
0.0075496982
0.0075238912
0.0075164983
0.0075173268
0.0075216935
0.0075264644
0.0075284298
0.0075270199
0.0075226812
0.0075151438
0.0075036219
0.0074891184
0.0074726265
0.007454297
0.0074344008
0.0074124462
0.0073872294
0.0073574824
0.0073214047
0.0072765767
0.0072209596
0.007153382
0.0070722909
0.0069759999
0.0068634571
0.0067330772
0.0065832772
0.006413126
0.0062211464
0.0060063092
0.0057676505
0.0055039546
0.0052148488
0.0049006085
0.0045620062
0.0042017546
0.0038248514
0.0034388934
0.0030549177
0.0026867422
0.0023496474
0.0020580009
0.0018236377
0.0016550561
0.0015501337
0.0015062718
0.0015146625
0.0015561152
0.0016165696
0.0016827826
0.0017433401
0.0017901921
0.0018194382
0.0018273002
0.0018148895
0.0017871691
0.0017460327
0.0016942362
0.0016346114
0.0015694744
0.0015005737
0.0014291644
0.001356135
0.001282083
0.001207377
0.0011322577
0.0010569157
0.00098150529
0.00090616376
0.00083106696
0.00075644332
0.00068257741
0.0006098753
0.00053886968
0.00047039235
0.00040534522
0.00034593784
0.00029286193
0.00025580799
0.00022223667
0.00042519536
-0.0004802662
0.044539835
0.040382715
0.033401365
0.026808299
0.02194982
0.01852571
0.016050668
0.014170837
0.012662126
0.011426664
0.010436805
0.009658108
0.0090517152
0.0085935819
0.0082601302
0.0080201926
0.0078533591
0.0077463215
0.0076838533
0.0076504448
0.0076352264
0.0076273122
0.0076226969
0.0076187464
0.0076126878
0.0076045719
0.0075948724
0.0075827912
0.0075671298
0.0075488611
0.0075287882
0.0075069252
0.0074834967
0.0074580724
0.007429531
0.0073965115
0.0073573059
0.0073096126
0.0072514165
0.0071816017
0.0070985997
0.0070006946
0.0068868174
0.0067553274
0.0066046061
0.0064336872
0.0062410295
0.0060255834
0.005786358
0.0055221053
0.0052324426
0.0049176256
0.004578398
0.0042174608
0.0038397873
0.0034529506
0.0030679893
0.002698732
0.0023604766
0.0020676489
0.0018321412
0.0016624211
0.0015565429
0.0015119264
0.0015196597
0.0015606393
0.0016207455
0.0016867064
0.0017470819
0.001793814
0.0018229322
0.0018306616
0.0018181413
0.0017902935
0.0017490254
0.0016970935
0.0016373324
0.0015720608
0.0015030289
0.001431493
0.0013583424
0.0012841748
0.0012093588
0.001134135
0.0010586939
0.00098318962
0.00090775912
0.00083257812
0.0007578749
0.00068393382
0.00061116083
0.00054008848
0.00047154859
0.0004064429
0.00034698247
0.00029385518
0.00025676841
0.00022313451
0.00042621184
-0.00047951095
0.042469572
0.038826066
0.03279675
0.026875803
0.022294749
0.018952116
0.01646934
0.014554419
0.01301579
0.011756521
0.010739208
0.0099302158
0.0092937465
0.0088049191
0.0084412089
0.008174481
0.0079863778
0.0078652133
0.0077930081
0.0077511422
0.007729489
0.0077183431
0.0077120418
0.0077064227
0.0076973795
0.0076844818
0.0076691271
0.0076514463
0.0076307613
0.0076085615
0.0075852582
0.0075603307
0.00753387
0.0075054116
0.0074737707
0.0074375604
0.0073952182
0.00734453
0.0072835387
0.0072112244
0.007126005
0.0070261622
0.0069106674
0.0067778306
0.0066259829
0.0064541261
0.0062606488
0.0060444818
0.0058046012
0.0055397197
0.0052494435
0.0049340061
0.0045941186
0.0042324736
0.0038540218
0.0034663135
0.0030803935
0.002710103
0.0023707533
0.0020768287
0.001840274
0.0016695006
0.0015627674
0.0015174806
0.0015246055
0.0015651552
0.0016249389
0.0016906578
0.0017508506
0.0017974587
0.0018264333
0.0018340125
0.0018213731
0.0017933867
0.0017519782
0.0016999042
0.0016400022
0.0015745932
0.0015054286
0.0014337653
0.0013604934
0.0012862107
0.0012112854
0.0011359579
0.0010604188
0.00098482158
0.00090930314
0.000834039
0.00075925722
0.00068524194
0.00061239894
0.00054126057
0.00047265856
0.00040749446
0.00034798013
0.00029480068
0.00025767525
0.00022398121
0.00042713956
-0.00047871597
0.040599154
0.037385962
0.032173125
0.026870838
0.02257552
0.019329279
0.016853668
0.014915061
0.013352093
0.012071973
0.011032863
0.01020121
0.0095419862
0.0090285197
0.0086390677
0.0083484743
0.0081375002
0.007993608
0.0078999556
0.0078400216
0.0078046664
0.007786313
0.0077759149
0.0077673997
0.0077588707
0.0077478595
0.0077338437
0.0077165066
0.0076940594
0.0076685297
0.0076413058
0.0076124797
0.007582719
0.0075515011
0.0075172096
0.0074782351
0.0074331056
0.0073796344
0.0073159144
0.0072410607
0.0071535093
0.0070515681
0.0069342727
0.0067998992
0.0066467543
0.0064738177
0.0062794013
0.0060624202
0.0058218139
0.0055562501
0.0052653259
0.004949251
0.0046087013
0.0042463668
0.0038671773
0.00347866
0.0030918681
0.0027206534
0.0023803318
0.0020854415
0.0018479708
0.0016762535
0.0015687763
0.0015229053
0.0015294663
0.001569621
0.0016290998
0.0016945795
0.0017545842
0.001801061
0.001829876
0.0018372896
0.0018245235
0.0017963902
0.0017548356
0.001702616
0.0016425714
0.0015770248
0.0015077282
0.0014359393
0.0013625482
0.0012881527
0.0012131207
0.0011376922
0.0010620576
0.00098637014
0.00091076631
0.00083542147
0.00076056348
0.00068647621
0.00061356522
0.00054236266
0.00047369994
0.00040847847
0.00034891014
0.00029567837
0.00025850864
0.0002247556
0.00042794387
-0.00047787204
0.038902637
0.036046973
0.031529989
0.02679683
0.022791065
0.0196563
0.017206838
0.015259359
0.013679397
0.012381675
0.011322509
0.010468766
0.0097870142
0.0092508169
0.0088386546
0.0085266391
0.008295258
0.0081313855
0.0080189935
0.0079425608
0.0078918017
0.0078590522
0.0078358055
0.0078168341
0.0078020803
0.0077891121
0.0077749551
0.0077585374
0.0077391198
0.0077165383
0.0076913961
0.007662521
0.007630657
0.007596318
0.0075586985
0.0075166707
0.0074689258
0.007413021
0.0073468927
0.0072697378
0.0071799839
0.0070759788
0.0069568504
0.0068208591
0.0066663207
0.0064922156
0.0062967796
0.0060789236
0.0058375501
0.0055712787
0.0052797023
0.0049630068
0.0046218315
0.0042588703
0.0038790344
0.0034898261
0.0031023061
0.00273033
0.0023892063
0.0020935168
0.0018552825
0.0016827415
0.0015746256
0.0015282418
0.0015342666
0.001574043
0.0016332182
0.0016984488
0.001758251
0.0018045837
0.0018332219
0.0018404561
0.0018275579
0.0017992717
0.001757568
0.0017052018
0.0016450152
0.0015793327
0.0015099066
0.0014379949
0.001364488
0.0012899832
0.0012148479
0.001139322
0.0010635953
0.000987821
0.00091213503
0.0008367126
0.00076178136
0.00068762488
0.00061464847
0.00054338399
0.00047466243
0.00040938501
0.00034976285
0.00029647875
0.00025925909
0.00022544684
0.00042860199
-0.00047695875
0.037358214
0.034803834
0.030877268
0.026659034
0.022940625
0.019932268
0.017527435
0.015585375
0.013996324
0.012685132
0.011608643
0.010734629
0.010031582
0.0094735504
0.0090391472
0.0087058149
0.0084544266
0.0082714365
0.0081410844
0.0080493114
0.0079848871
0.00793917
0.0079048277
0.0078763237
0.0078528079
0.0078315917
0.0078099153
0.0077875591
0.0077662612
0.0077442183
0.0077203354
0.007694567
0.0076659762
0.0076341114
0.0075970997
0.0075535337
0.0075030573
0.0074441797
0.007375354
0.0072959625
0.0072042099
0.0070983345
0.0069775223
0.0068399932
0.0066840924
0.0065088265
0.006312361
0.0060936239
0.0058514858
0.0055845197
0.005292324
0.0049750632
0.0046333391
0.0042698583
0.0038895153
0.0034997835
0.0031117279
0.0027391978
0.002397478
0.0021011792
0.001862343
0.0016890984
0.001580433
0.0015335823
0.0015390733
0.0015784629
0.0016373139
0.0017022688
0.0017618428
0.001808011
0.0018364525
0.0018434947
0.0018304605
0.0018020175
0.001760164
0.0017076522
0.0016473257
0.0015815102
0.0015119581
0.0014399272
0.0013663082
0.0012916979
0.0012164632
0.0011408434
0.0010650284
0.00098917071
0.00091340598
0.00083790919
0.00076290776
0.00068868493
0.00061564571
0.00054432166
0.00047554313
0.00041021116
0.00035053529
0.00029719864
0.00025992327
0.00022604957
0.00042910019
-0.00047594706
0.035946984
0.033650173
0.030223866
0.026467115
0.023029495
0.020158541
0.017812875
0.015888892
0.014299165
0.012979671
0.011889541
0.010997903
0.010275301
0.0096965911
0.0092407849
0.0088866648
0.0086156167
0.0084136581
0.0082657315
0.0081581565
0.008079652
0.008021604
0.0079768508
0.0079396477
0.007908305
0.0078799191
0.0078516852
0.0078237114
0.0077969218
0.0077693847
0.007740301
0.0077120383
0.0076838786
0.007653531
0.0076190532
0.0075785273
0.0075304295
0.0074722508
0.0074021494
0.0073204104
0.0072261482
0.0071180876
0.0069955649
0.0068565962
0.0066994535
0.0065231452
0.0063257441
0.0061062089
0.0058633833
0.0055957959
0.0053030661
0.0049853427
0.0046431914
0.0042793425
0.0038986762
0.0035086324
0.0031202742
0.0027474313
0.0024053458
0.0021086389
0.0018693602
0.0016955212
0.0015863703
0.0015390637
0.0015439901
0.0015829531
0.0016414331
0.0017060652
0.0017653711
0.0018113448
0.0018395661
0.001846404
0.0018332309
0.0018046289
0.0017626265
0.0017099717
0.0016495086
0.0015835639
0.0015138895
0.0014417432
0.0013680156
0.0012933034
0.0012179728
0.0011422626
0.0010663625
0.00099042457
0.00091458411
0.00083901586
0.00076394697
0.00068966032
0.00061656061
0.00054517901
0.00047634508
0.00041095964
0.00035122981
0.00029783989
0.0002605027
0.00022656246
0.00042941596
-0.00047479972
0.034652949
0.032578935
0.029576636
0.026230717
0.02306385
0.020337864
0.018063049
0.016168345
0.014586092
0.013263559
0.012163582
0.011257155
0.010516972
0.0099190452
0.0094430058
0.0090688506
0.008778564
0.0085579715
0.0083926867
0.008269318
0.0081767583
0.0081063271
0.0080508936
0.0080046482
0.0079653211
0.0079300826
0.0078961785
0.0078632772
0.0078316113
0.0077993288
0.0077661728
0.0077337161
0.0077011897
0.0076662227
0.0076289786
0.0075887506
0.0075421968
0.0074862407
0.0074189796
0.0073393659
0.0072455948
0.0071363548
0.0070118962
0.0068709889
0.0067122944
0.0065348839
0.0063366133
0.0061164029
0.0058730363
0.0056049772
0.0053118716
0.0049938558
0.0046514587
0.0042874467
0.0039066896
0.0035165877
0.0031281954
0.0027553074
0.0024131017
0.0021161887
0.001876614
0.0017022693
0.001592662
0.001544867
0.0015491581
0.0015876163
0.0016456465
0.0017098842
0.0017688646
0.0018146019
0.0018425734
0.0018491941
0.0018358799
0.0018071175
0.0017649685
0.0017121747
0.0016515793
0.0015855094
0.0015157165
0.0014434582
0.0013696253
0.0012948142
0.0012193903
0.0011435924
0.0010676098
0.00099159416
0.00091568033
0.00084004287
0.00076490863
0.0006905601
0.0006174016
0.0005459639
0.00047707558
0.00041163716
0.00035185256
0.00029840789
0.00026100228
0.00022698694
0.00042953793
-0.00047347299
0.033462477
0.031583064
0.028940778
0.025958594
0.023049605
0.020473216
0.018278661
0.016423017
0.014855924
0.01353559
0.012429597
0.01151131
0.010755686
0.01014016
0.0096451714
0.0092518487
0.0089428811
0.0087041158
0.0085217235
0.0083827079
0.0082761301
0.0081932726
0.0081270268
0.008071567
0.0080241022
0.0079818494
0.0079420308
0.007903884
0.0078674364
0.0078311395
0.0077944948
0.0077583951
0.0077219321
0.0076834236
0.0076427643
0.0075989085
0.0075484463
0.0074902479
0.0074235705
0.0073455725
0.0072538936
0.0071470755
0.0070242862
0.0068836166
0.0067239569
0.0065451603
0.0063455868
0.0061244522
0.0058805107
0.0056120748
0.0053187622
0.005000669
0.0046582668
0.0042943583
0.0039138005
0.0035239441
0.0031358247
0.0027631849
0.0024211164
0.0021241951
0.0018844512
0.0017096622
0.0015995861
0.0015512199
0.0015547579
0.0015925892
0.001650053
0.0017137949
0.0017723709
0.0018178141
0.0018454983
0.0018518861
0.0018384272
0.0018095035
0.001767211
0.0017142827
0.0016535597
0.0015873688
0.0015174609
0.0014450934
0.0013711576
0.0012962497
0.0012207345
0.0011448506
0.001068787
0.00099269522
0.00091670949
0.00084100421
0.00076580589
0.00069139663
0.00061818028
0.0005466872
0.00047774476
0.0004122531
0.00035241218
0.00029891033
0.00026142908
0.00022732583
0.00042945179
-0.00047191436
0.032363864
0.030655771
0.028320009
0.025658512
0.022992504
0.020567698
0.018460716
0.01665246
0.015107651
0.013794717
0.012686605
0.011759497
0.01099071
0.010359315
0.0098467365
0.0094352156
0.0091082307
0.0088518148
0.0086526466
0.0084981643
0.0083776199
0.0082823204
0.0082051779
0.0081403699
0.0080846756
0.0080352592
0.0079893193
0.0079457885
0.007904486
0.0078639907
0.0078235575
0.0077838094
0.0077440232
0.0077025767
0.007658831
0.0076116106
0.0075582173
0.0074974143
0.0074279324
0.007347057
0.0072540157
0.0071480737
0.0070268512
0.0068880368
0.0067303408
0.0065528873
0.0063535448
0.0061318548
0.0058871087
0.0056179864
0.0053243143
0.0050061799
0.0046639399
0.004300387
0.0039203349
0.0035310566
0.0031435464
0.0027714696
0.0024298049
0.0021330666
0.001893259
0.001718057
0.0016074564
0.0015583846
0.0015610029
0.0015980376
0.001654778
0.0017178901
0.0017759578
0.0018210308
0.0018483793
0.0018545137
0.0018409037
0.0018118165
0.001769383
0.0017163248
0.0016554786
0.0015891703
0.0015191499
0.001446675
0.0013726374
0.0012976334
0.0012220275
0.001146058
0.0010699139
0.00099374636
0.00091768911
0.00084191635
0.00076665426
0.00069218446
0.00061891032
0.00054736167
0.00047836453
0.00041281855
0.00035291885
0.00029935632
0.00026179146
0.00022758236
0.00042913965
-0.00047006233
0.031347017
0.029790703
0.027716832
0.025337269
0.022898078
0.020624467
0.018610446
0.016856524
0.015340485
0.014040028
0.01293371
0.012000885
0.011221326
0.010575896
0.010047179
0.0096185306
0.0092742832
0.0090007982
0.0087852487
0.0086155287
0.0084811225
0.008373402
0.0082853053
0.0082110209
0.0081469828
0.0080902625
0.0080380577
0.0079890392
0.0079427659
0.0078978895
0.007853548
0.0078101112
0.0077668982
0.0077222939
0.0076755032
0.0076254359
0.0075695701
0.0075062639
0.0074342731
0.0073513931
0.0072565368
0.0071486307
0.0070253893
0.0068861723
0.0067296246
0.0065535774
0.0063559072
0.0061359371
0.0058924461
0.005623825
0.0053301467
0.0050118973
0.004669685
0.004306467
0.0039270406
0.0035385621
0.0031519318
0.0027806894
0.002439661
0.0021432623
0.0019034553
0.001727828
0.0016165958
0.0015666279
0.0015681086
0.0016041301
0.0016599503
0.0017222672
0.0017796993
0.0018243086
0.0018512629
0.0018571191
0.0018433491
0.0018140953
0.0017715227
0.0017183386
0.0016573728
0.0015909496
0.0015208178
0.0014482354
0.0013740952
0.0012989941
0.0012232961
0.0011472396
0.0010710137
0.00099476917
0.0009186393
0.00084279805
0.00076747124
0.00069293992
0.00061960693
0.00054800153
0.00047894811
0.00041334569
0.00035338378
0.00029975583
0.00026209854
0.00022775982
0.000428591
-0.00046784825
0.030403195
0.02898202
0.027132794
0.025000705
0.022771565
0.020646706
0.018729285
0.01703534
0.015553849
0.014270718
0.013170068
0.012234665
0.011446814
0.010789287
0.01024597
0.0098013601
0.0094406936
0.0091507861
0.0089193117
0.0087346377
0.0085865205
0.0084664322
0.0083673528
0.0082834908
0.0082110059
0.008146861
0.0080882451
0.0080335959
0.0079822292
0.0079328494
0.0078845108
0.0078373053
0.0077905401
0.0077426779
0.0076928129
0.007639834
0.0075813742
0.0075157314
0.0074416243
0.0073568808
0.0072602911
0.0071507854
0.0070262855
0.0068859692
0.0067282662
0.0065510813
0.0063538721
0.0061353673
0.0058932923
0.0056264236
0.0053345735
0.0050178707
0.0046767394
0.0043143233
0.0039356414
0.0035479751
0.0031622505
0.002791899
0.0024515667
0.0021555237
0.0019156601
0.0017394871
0.001627415
0.0015762679
0.0015763131
0.0016110357
0.0016656859
0.0017270038
0.0017836473
0.0018276831
0.001854178
0.0018597308
0.0018457934
0.001816373
0.0017736661
0.0017203628
0.0016592824
0.0015927471
0.0015225045
0.0014498133
0.0013755679
0.0013003663
0.0012245726
0.0011484255
0.0010721143
0.00099578947
0.00091958391
0.00084367132
0.00076827713
0.00069368178
0.00062028745
0.00054862273
0.00047951017
0.00041384798
0.0003538192
0.00030011963
0.00026236007
0.00022786113
0.00042777775
-0.00046519373
0.029524795
0.028224423
0.026568715
0.02465374
0.022617845
0.02063759
0.018818832
0.017189285
0.015747364
0.014486104
0.013394905
0.012460061
0.011666461
0.010998863
0.010442567
0.0099832493
0.0096070952
0.0093014799
0.0090545998
0.0088553116
0.0086936794
0.0085613129
0.0084512538
0.0083577411
0.0082767219
0.0082050446
0.0081398781
0.0080794628
0.0080228924
0.0079688892
0.0079164275
0.0078653508
0.0078149474
0.0077637553
0.007710759
0.0076548033
0.0075936788
0.0075256512
0.0074493781
0.0073627965
0.0072646135
0.0071536991
0.0070280964
0.0068867116
0.0067282038
0.006550524
0.0063531025
0.0061341967
0.0058921174
0.0056265322
0.0053365714
0.0050217657
0.0046828901
0.0043228128
0.0039462467
0.0035603717
0.0031760975
0.0028068277
0.0024671567
0.0021712933
0.0019310984
0.0017540481
0.001640731
0.0015879454
0.0015860991
0.0016190973
0.0016722134
0.0017322399
0.0017878777
0.0018311874
0.0018571349
0.0018623498
0.0018482366
0.0018186544
0.0017758248
0.0017224157
0.0016612322
0.0015945925
0.0015242431
0.0014514437
0.0013770914
0.0013017858
0.001225892
0.0011496492
0.0010732474
0.00099683714
0.00092055085
0.00084456212
0.00076909599
0.00069443223
0.0006209723
0.00054924403
0.00048006787
0.00041434099
0.00035423912
0.00030045994
0.00026258694
0.00022788903
0.00042667225
-0.00046200919
0.028705171
0.02751314
0.026024871
0.024300456
0.0224414
0.020600254
0.018880809
0.01731895
0.015920855
0.014685632
0.013607526
0.012676339
0.01187957
0.011203994
0.010636413
0.010163725
0.0097730992
0.0094525602
0.0091908569
0.008977351
0.0088024482
0.0086579327
0.0085369305
0.0084337228
0.0083440988
0.0082647944
0.0081929518
0.0081266446
0.0080647626
0.0080060154
0.0079493061
0.0078942631
0.007840139
0.0077855285
0.007729326
0.0076703367
0.0076064845
0.0075360087
0.0074575198
0.0073690617
0.0072692699
0.0071569742
0.0070302877
0.0068880199
0.0067288313
0.006550841
0.0063531983
0.0061341473
0.0058925204
0.00562772
0.0053386335
0.005024976
0.0046882707
0.0043308989
0.0039570551
0.003574007
0.0031923933
0.0028252532
0.0024869624
0.0021916198
0.0019510812
0.0017728841
0.0016578547
0.0016028447
0.0015984895
0.0016291556
0.0016801909
0.0017384657
0.0017927348
0.0018350474
0.0018602716
0.0018650527
0.0018507148
0.0018209534
0.001778002
0.001724498
0.0016632246
0.0015964923
0.0015260448
0.0014531425
0.0013786854
0.0013032756
0.0012272794
0.0011509372
0.0010744404
0.00099793961
0.00092156716
0.00084549673
0.00076995305
0.00069521527
0.00062168409
0.00054988656
0.00048064079
0.0004148427
0.00035465985
0.00030079103
0.0002627919
0.00022784668
0.00042524409
-0.00045819239
0.027938497
0.0268439
0.025501146
0.023944183
0.022246281
0.020537753
0.018917034
0.017425111
0.016074337
0.014868892
0.013807325
0.012882822
0.012085463
0.011404052
0.010826947
0.010342298
0.0099382969
0.0096036872
0.009327806
0.009100537
0.0089126585
0.0087561648
0.008624291
0.0085113749
0.0084130953
0.0083260856
0.0082474559
0.0081751397
0.0081078406
0.0080442344
0.0079831595
0.0079240565
0.007866127
0.0078080093
0.0077485263
0.0076864434
0.0076197951
0.0075468104
0.007466061
0.0073756772
0.0072742318
0.007160509
0.0070327029
0.0068895562
0.0067297498
0.0065514727
0.006353711
0.0061348789
0.0058937855
0.005629793
0.0053418837
0.0050298138
0.0046951053
0.0043400358
0.0039688581
0.0035889664
0.0032105444
0.0028460426
0.0025096867
0.0022154104
0.0019749095
0.0017957178
0.0016788828
0.001621368
0.0016141164
0.0016419923
0.0016904717
0.0017465295
0.0017989964
0.0018399271
0.0018641231
0.0018682486
0.0018535263
0.0018234807
0.0017803416
0.0017267047
0.0016653207
0.0015984849
0.0015279336
0.0014549253
0.0013803613
0.0013048455
0.0012287448
0.0011523009
0.0010757061
0.00099911134
0.00092264886
0.00084649239
0.00077086646
0.00069604957
0.00062244166
0.000550569
0.00048124714
0.00041537053
0.00035509778
0.00030112766
0.00026298846
0.00022773694
0.00042345765
-0.00045362673
0.027219647
0.026212885
0.024997153
0.023587598
0.022036102
0.020453024
0.018929383
0.017508697
0.016208003
0.015035612
0.013993792
0.01307889
0.012283498
0.011598422
0.011013602
0.010518469
0.010102262
0.009754502
0.0094651504
0.0092246312
0.0090241236
0.0088558661
0.0087132292
0.008590624
0.0084836604
0.008388885
0.008303373
0.0082249405
0.0081521244
0.0080835508
0.0080179973
0.0079547408
0.0078929225
0.0078312114
0.0077683738
0.0077031364
0.0076336253
0.007558072
0.0074750127
0.0073826468
0.0072794989
0.0071643114
0.0070353552
0.0068913145
0.0067308689
0.0065522702
0.0063544345
0.006135887
0.0058954298
0.0056323492
0.0053457707
0.0050355691
0.0047031373
0.0043506499
0.0039824406
0.0036058563
0.0032307283
0.0028691743
0.0025351869
0.0022423932
0.0020021256
0.0018218611
0.0017029703
0.0016426032
0.0016320757
0.0016567931
0.0017024242
0.0017560675
0.0018066074
0.001846057
0.0018691317
0.0018724919
0.0018572467
0.0018267728
0.0017833084
0.0017294185
0.001667824
0.0016008044
0.0015300857
0.0014569215
0.001382212
0.0013065606
0.001230333
0.0011537705
0.0010770648
0.0010003665
0.00092380641
0.00084755774
0.00077184424
0.00069694329
0.00062325372
0.00055130074
0.00048189694
0.00041593493
0.0003555635
0.00030147987
0.00026318639
0.00022755858
0.00042126722
-0.00044818193
0.026544101
0.025616694
0.02451232
0.023232819
0.021814042
0.020348852
0.018919761
0.01757076
0.016322203
0.01518566
0.014166519
0.013263994
0.012473071
0.011786505
0.011195816
0.01069173
0.010264553
0.0099046281
0.0096025746
0.009349376
0.0091366382
0.0089568766
0.008803624
0.0086713832
0.0085557324
0.0084531499
0.0083606777
0.0082760336
0.0081976073
0.0081239651
0.0080538259
0.0079863243
0.0079205354
0.0078551476
0.0077888819
0.0077204291
0.007647991
0.0075698088
0.0074843876
0.0073899823
0.0072850838
0.007168397
0.0070382557
0.0068932967
0.006732192
0.0065532615
0.006355367
0.0061370994
0.0058972722
0.0056351504
0.0053499656
0.0050416492
0.0047115302
0.0043618291
0.0039968881
0.0036238575
0.0032522481
0.0028939641
0.00256272
0.0022717155
0.0020319898
0.0018509431
0.0017301236
0.0016667916
0.0016525887
0.0016735152
0.0017156156
0.0017662634
0.0018144877
0.0018522851
0.001874268
0.0018770228
0.0018614548
0.0018307338
0.0017870632
0.0017329669
0.0016711451
0.001603879
0.0015329049
0.0014594888
0.0013845405
0.0013086691
0.001232242
0.0011554998
0.0010786338
0.0010017922
0.00092510328
0.000848738
0.00077291794
0.00069791809
0.00062413496
0.00055209175
0.00048259712
0.0004165409
0.00035606082
0.00030185031
0.00026338794
0.00022730213
0.00041861037
-0.00044171776
0.025907861
0.025052294
0.02404596
0.022881497
0.021582865
0.020227846
0.018890075
0.017612454
0.016417434
0.015319043
0.014325205
0.01343766
0.012653625
0.011967725
0.011373034
0.010861571
0.010424717
0.010053673
0.0097397455
0.0094744954
0.0092499794
0.0090590198
0.0088953391
0.0087535518
0.0086292377
0.0085188284
0.0084193362
0.0083283987
0.0082442776
0.0081654733
0.008090648
0.0080188126
0.0079489739
0.007879829
0.0078100632
0.0077383348
0.0076629069
0.0075820357
0.0074942001
0.0073976997
0.0072910035
0.0071727813
0.0070414169
0.0068955125
0.0067337327
0.0065544589
0.0063565085
0.0061385236
0.0058993381
0.0056382128
0.0053544585
0.0050480484
0.0047202787
0.0043734278
0.0040118012
0.0036423628
0.0032744189
0.0029196062
0.002591226
0.0023021392
0.0020631897
0.0018816394
0.0017591326
0.0016929995
0.0016752109
0.0016923246
0.0017307249
0.0017780607
0.0018235051
0.001859098
0.001879491
0.0018813004
0.0018652669
0.0018343407
0.0017906338
0.0017365657
0.0016747551
0.0016074425
0.001536354
0.001462763
0.0013875946
0.001311476
0.0012347914
0.0011577957
0.0010806904
0.0010036292
0.00092674191
0.00085019904
0.00077422044
0.00069907819
0.0006251655
0.00055300233
0.000483392
0.00041722009
0.00035661145
0.00030225242
0.00026360068
0.00022695793
0.00041541325
-0.00043408417
0.025307389
0.024516979
0.023597318
0.022534893
0.021344946
0.020092419
0.018842202
0.017634999
0.016494312
0.015435892
0.014469654
0.013599491
0.012824657
0.012141541
0.011544718
0.011027483
0.010582296
0.010201233
0.0098763139
0.0095996956
0.009363906
0.009162102
0.0089882226
0.0088370147
0.0087040908
0.0085858578
0.0084793059
0.0083820085
0.0082921178
0.0082080669
0.0081284627
0.0080522089
0.0079782438
0.007905265
0.0078319291
0.0077568657
0.0076783868
0.0075947672
0.0075044652
0.0074058158
0.0072972746
0.0071774795
0.0070448545
0.0068979781
0.0067355069
0.0065558756
0.0063578684
0.0061401708
0.0059016421
0.0056415426
0.0053592505
0.0050547826
0.004729415
0.0043854626
0.0040271813
0.0036613724