/*--------------------------------*- C++ -*----------------------------------*\
| =========                 |                                                 |
| \\      /  F ield         | OpenFOAM: The Open Source CFD Toolbox           |
|  \\    /   O peration     | Version:  2206                                  |
|   \\  /    A nd           | Website:  www.openfoam.com                      |
|    \\/     M anipulation  |                                                 |
\*---------------------------------------------------------------------------*/
FoamFile
{
    version     2.0;
    format      ascii;
    arch        "LSB;label=32;scalar=64";
    class       surfaceScalarField;
    location    "100";
    object      phi;
}
// * * * * * * * * * * * * * * * * * * * * * * * * * * * * * * * * * * * * * //

dimensions      [0 3 -1 0 0 0 0];

oriented        oriented;

internalField   nonuniform List<scalar> 
14782
(
0.0006459615
7.5086808e-05
-0.00072104831
0.00055249916
9.3462339e-05
0.00046287626
8.9622907e-05
0.00039079611
7.2080142e-05
0.00033940512
5.1390996e-05
0.000303237
3.6168123e-05
0.00027643725
2.679975e-05
0.00025524165
2.11956e-05
0.00023772923
1.7512416e-05
0.00022299349
1.473574e-05
0.00021052238
1.2471113e-05
0.00019994957
1.0572812e-05
0.00019097419
8.9753723e-06
0.00018333724
7.636948e-06
0.0001768133
6.5239481e-06
0.00017121991
5.5933886e-06
0.00016641376
4.8061526e-06
0.00016227669
4.1370613e-06
0.00015867813
3.5985649e-06
0.00015553319
3.1449441e-06
0.00015275416
2.7790235e-06
0.00015026458
2.4895856e-06
0.00014801052
2.2540589e-06
0.00014595124
2.0592723e-06
0.00014405463
1.8966101e-06
0.00014229568
1.7589513e-06
0.00014065478
1.6409067e-06
0.00013911404
1.5407403e-06
0.00013765536
1.4586804e-06
0.00013626659
1.388764e-06
0.00013493771
1.3288864e-06
0.00013365763
1.2800712e-06
0.00013241219
1.2454493e-06
0.00013118567
1.2265175e-06
0.00012996549
1.2201787e-06
0.00012873674
1.2287526e-06
0.0001274826
1.2541383e-06
0.00012619121
1.2913832e-06
0.00012485521
1.3360025e-06
0.00012347035
1.3848582e-06
0.00012203475
1.4356026e-06
0.00012054819
1.4865644e-06
0.00011901197
1.5362151e-06
0.00011742764
1.5843339e-06
0.00011579736
1.6302805e-06
0.00011412499
1.6723684e-06
0.00011241463
1.7103568e-06
0.0001106712
1.7434347e-06
0.00010890064
1.7705557e-06
0.00010710932
1.7913183e-06
0.0001053049
1.804428e-06
0.00010349643
1.8084642e-06
0.00010169345
1.8029779e-06
9.9906704e-05
1.7867501e-06
9.8148426e-05
1.7582786e-06
9.6432113e-05
1.7163128e-06
9.4773023e-05
1.6590901e-06
9.318769e-05
1.5853331e-06
9.1692491e-05
1.4951989e-06
9.0301878e-05
1.3906124e-06
8.9025235e-05
1.2766429e-06
8.7864762e-05
1.1604737e-06
8.6823924e-05
1.0408371e-06
8.5891158e-05
9.3276644e-07
8.5043456e-05
8.4770173e-07
8.4263718e-05
7.7973868e-07
8.353273e-05
7.3098766e-07
8.2832312e-05
7.0041752e-07
8.2148387e-05
6.8392528e-07
8.1471744e-05
6.766429e-07
8.0792495e-05
6.7924891e-07
8.0108591e-05
6.8390396e-07
7.9423496e-05
6.8509579e-07
7.8736886e-05
6.8660925e-07
7.805122e-05
6.8566619e-07
7.7368933e-05
6.822877e-07
7.6692219e-05
6.7671327e-07
7.6022893e-05
6.6932678e-07
7.5362297e-05
6.6059579e-07
7.4711346e-05
6.5095063e-07
7.4070624e-05
6.4072206e-07
7.3440475e-05
6.3014908e-07
7.2821062e-05
6.1941301e-07
7.2212423e-05
6.0863926e-07
7.1614521e-05
5.9790136e-07
7.1027269e-05
5.8725225e-07
7.0450526e-05
5.7674353e-07
6.9884118e-05
5.6640701e-07
6.9327851e-05
5.5626794e-07
6.8781479e-05
5.4637123e-07
6.8244691e-05
5.3678798e-07
6.7717072e-05
5.2761936e-07
6.7198033e-05
5.1903872e-07
6.6686778e-05
5.1125548e-07
6.6181863e-05
5.0491456e-07
6.5682098e-05
4.9976496e-07
6.5180352e-05
5.0174604e-07
6.4675234e-05
5.051179e-07
6.4200711e-05
4.745232e-07
5.7407423e-07
0.00078783025
8.1180694e-05
-0.00079392414
0.00076927497
0.00011201762
0.00073436267
0.0001245352
0.0006869222
0.00011952061
0.0006346064
0.0001037068
0.00058480516
8.5969362e-05
0.00054098168
7.0623227e-05
0.00050371511
5.8462168e-05
0.00047234406
4.8883466e-05
0.00044589387
4.1185936e-05
0.00042344534
3.4919643e-05
0.0004042667
2.9751449e-05
0.00038780392
2.543815e-05
0.00037362398
2.1816889e-05
0.00036137497
1.8772956e-05
0.00035076605
1.6202306e-05
0.00034154633
1.4025872e-05
0.00033349158
1.2191813e-05
0.00032640842
1.0681731e-05
0.00032013839
9.4149729e-06
0.00031454268
8.3747286e-06
0.00030950532
7.5269511e-06
0.00030493184
6.8275322e-06
0.00030074917
6.2419474e-06
0.00029689659
5.7491915e-06
0.00029332625
5.3292848e-06
0.00028999945
4.9677125e-06
0.00028688105
4.6591374e-06
0.00028394061
4.3991259e-06
0.0002811544
4.1749664e-06
0.00027850177
3.9815177e-06
0.00027596235
3.8194939e-06
0.0002735116
3.6962005e-06
0.00027112154
3.6165761e-06
0.00026877043
3.5712891e-06
0.00026643283
3.566353e-06
0.000264078
3.6089696e-06
0.00026168286
3.6865243e-06
0.00025923099
3.7878728e-06
0.00025671062
3.9052264e-06
0.00025411417
4.0320532e-06
0.00025143752
4.163213e-06
0.00024867925
4.2944872e-06
0.00024583917
4.4244056e-06
0.00024291887
4.5505821e-06
0.00023992254
4.6687028e-06
0.00023685539
4.7775104e-06
0.00023372408
4.8747451e-06
0.00023053719
4.9574451e-06
0.00022730444
5.024063e-06
0.00022403777
5.0711028e-06
0.00022075188
5.0943462e-06
0.00021746336
5.0915058e-06
0.00021419177
5.0583323e-06
0.00021096036
4.9896902e-06
0.00020779585
4.8808235e-06
0.0002047289
4.7260418e-06
0.00020179258
4.5216573e-06
0.00019901941
4.2683673e-06
0.00019643844
3.9715775e-06
0.00019406823
3.6468514e-06
0.00019191451
3.3141958e-06
0.00018998006
2.9752921e-06
0.00018824408
2.6687423e-06
0.00018666652
2.425259e-06
0.00018521279
2.23347e-06
0.00018384763
2.0961514e-06
0.00018253746
2.0105904e-06
0.00018125623
1.9651488e-06
0.0001799855
1.9473784e-06
0.00017870945
1.9552961e-06
0.00017742432
1.9690317e-06
0.00017613433
1.9750836e-06
0.00017484076
1.9801821e-06
0.00017354778
1.9786457e-06
0.00017225991
1.9701559e-06
0.00017098125
1.9553721e-06
0.00016971517
1.9354099e-06
0.00016846417
1.9116023e-06
0.00016722996
1.8851584e-06
0.00016601367
1.8570141e-06
0.00016481596
1.8278559e-06
0.00016363717
1.7981989e-06
0.00016247742
1.7683898e-06
0.00016133668
1.7386396e-06
0.00016021483
1.709103e-06
0.00015911165
1.6799236e-06
0.00015802687
1.6511928e-06
0.00015696014
1.6229906e-06
0.00015591107
1.595444e-06
0.0001548791
1.5687586e-06
0.00015386351
1.543214e-06
0.00015286319
1.519352e-06
0.00015187679
1.4976602e-06
0.00015090134
1.4803667e-06
0.0001499355
1.4656005e-06
0.00014896297
1.4742743e-06
0.00014800382
1.4642661e-06
0.00014697492
1.5034278e-06
1.5146064e-06
0.00082873912
7.7561378e-05
-0.00082511981
0.00083315818
0.00010759857
0.00083427064
0.00012342274
0.00082746648
0.00012632477
0.00080920508
0.0001219682
0.00078149173
0.00011368271
0.00074863838
0.00010347658
0.00071425191
9.2848639e-05
0.00068060589
8.2529491e-05
0.00064901068
7.278114e-05
0.00062010294
6.3827383e-05
0.00059409465
5.5759741e-05
0.00057093037
4.860243e-05
0.00055039755
4.2349709e-05
0.00053221721
3.6953296e-05
0.0005161078
3.2311716e-05
0.00050180595
2.8327727e-05
0.00048906904
2.4928715e-05
0.0004776898
2.2060974e-05
0.00046748041
1.9624365e-05
0.00045827979
1.7575346e-05
0.00044994557
1.5861171e-05
0.00044235621
1.4416891e-05
0.00043540925
1.3188909e-05
0.00042901575
1.2142689e-05
0.00042309927
1.1245773e-05
0.00041759731
1.0469664e-05
0.00041245872
9.7977264e-06
0.00040763902
9.2188341e-06
0.00040309999
8.7139897e-06
0.00039880732
8.2741896e-06
0.000394729
7.8978119e-06
0.00039083202
7.5931853e-06
0.00038707929
7.3693031e-06
0.00038344068
7.2099037e-06
0.00037988248
7.1245523e-06
0.00037636372
7.1277284e-06
0.00037285208
7.1981613e-06
0.00036932025
7.319707e-06
0.00036574568
7.4797978e-06
0.00036211115
7.6665758e-06
0.0003584042
7.8701648e-06
0.00035461642
8.082269e-06
0.00035074237
8.298455e-06
0.00034677986
8.5130963e-06
0.0003427302
8.7183586e-06
0.00033859676
8.9109515e-06
0.00033438517
9.0863376e-06
0.0003301036
9.2390154e-06
0.00032576217
9.3654882e-06
0.00032137398
9.4592952e-06
0.0003169558
9.5125231e-06
0.00031252773
9.5195747e-06
0.00030811477
9.471298e-06
0.00030374803
9.3564262e-06
0.00029946503
9.1638256e-06
0.00029530964
8.8814276e-06
0.00029132974
8.5015655e-06
0.00028757247
8.0256303e-06
0.00028407922
7.4648297e-06
0.00028087766
6.8484145e-06
0.00027797665
6.2152047e-06
0.00027537634
5.5755977e-06
0.0002730471
4.997981e-06
0.00027093425
4.5381183e-06
0.00026898978
4.1779363e-06
0.00026716482
3.9211092e-06
0.00026541356
3.7618508e-06
0.00026370022
3.6784912e-06
0.00026199943
3.6481657e-06
0.00026029158
3.6631477e-06
0.00025857176
3.6888481e-06
0.00025684487
3.7019752e-06
0.00025511351
3.7115441e-06
0.00025338327
3.7088867e-06
0.0002516603
3.6931237e-06
0.0002499501
3.665575e-06
0.00024825711
3.6284028e-06
0.0002465846
3.5841082e-06
0.00024493481
3.5349458e-06
0.00024330916
3.4826677e-06
0.00024170846
3.4285557e-06
0.0002401331
3.3735525e-06
0.0002385832
3.3182919e-06
0.00023705867
3.2631679e-06
0.00023555931
3.2084644e-06
0.0002340848
3.1544375e-06
0.00023263473
3.101262e-06
0.00023120862
3.0490955e-06
0.0002298059
2.9981695e-06
0.00022842579
2.9488708e-06
0.0002270673
2.9017016e-06
0.00022572893
2.8577262e-06
0.00022440887
2.8177115e-06
0.0002231029
2.7863394e-06
0.00022180992
2.7585833e-06
0.00022050575
2.7784438e-06
0.00021923135
2.7386677e-06
0.00021778328
2.9514982e-06
2.6628379e-06
0.00085859951
7.4152828e-05
-0.00085519096
0.00086475973
0.00010143834
0.00087079051
0.00011739196
0.00087500649
0.00012210879
0.00087640254
0.00012057215
0.00087359848
0.00011648678
0.00086528765
0.0001117874
0.00085110692
0.00010702937
0.00083200186
0.00010163456
0.00080963852
9.5144479e-05
0.00078542678
8.8039126e-05
0.00076049945
8.0687065e-05
0.00073577646
7.3325427e-05
0.00071194762
6.6178542e-05
0.00068947144
5.9429475e-05
0.00066860224
5.3180922e-05
0.00064942642
4.7503548e-05
0.0006319054
4.244973e-05
0.00061593702
3.8029354e-05
0.00060138486
3.4176525e-05
0.00058811243
3.0847779e-05
0.00057598554
2.798806e-05
0.00056487988
2.5522551e-05
0.00055468058
2.3388209e-05
0.00054528159
2.1541677e-05
0.00053658636
1.9941003e-05
0.00052851154
1.8544489e-05
0.00052098794
1.7321329e-05
0.00051395403
1.6252736e-05
0.0005073547
1.5313325e-05
0.00050114094
1.4487948e-05
0.00049526705
1.3771702e-05
0.00048968954
1.317069e-05
0.0004843672
1.2691651e-05
0.00047925737
1.2319726e-05
0.00047431673
1.2065195e-05
0.00046950327
1.1941189e-05
0.00046477514
1.1926292e-05
0.00046009282
1.2002027e-05
0.00045542216
1.2150461e-05
0.00045073481
1.2353922e-05
0.00044600759
1.2597384e-05
0.0004412228
1.2867059e-05
0.00043636779
1.315347e-05
0.00043143454
1.3446341e-05
0.00042641947
1.3733436e-05
0.00042132216
1.4008258e-05
0.00041614559
1.4262909e-05
0.00041089623
1.4488369e-05
0.00040558345
1.4678268e-05
0.0004002204
1.4822349e-05
0.00039482502
1.4907908e-05
0.00038942005
1.4924543e-05
0.00038403496
1.4856383e-05
0.00037870753
1.4683855e-05
0.00037348421
1.4387152e-05
0.00036841957
1.3946067e-05
0.00036357298
1.3348156e-05
0.00035900249
1.2596119e-05
0.00035475815
1.1709171e-05
0.00035087314
1.073342e-05
0.00034735779
9.7305526e-06
0.0003442081
8.7252921e-06
0.00034138627
7.8198137e-06
0.00033882752
7.0968635e-06
0.00033647297
6.5324904e-06
0.00033426301
6.1310685e-06
0.00033214271
5.8821469e-06
0.00033006904
5.7521627e-06
0.0003280112
5.7060028e-06
0.00032594743
5.7269178e-06
0.00032387209
5.7641881e-06
0.00032178976
5.7843141e-06
0.00031970418
5.7971207e-06
0.00031762198
5.7910821e-06
0.0003155504
5.7647115e-06
0.00031349583
5.7201413e-06
0.00031146343
5.660807e-06
0.00030945694
5.5905949e-06
0.00030747889
5.51299e-06
0.00030553086
5.4307064e-06
0.00030361369
5.3457239e-06
0.00030172776
5.2594771e-06
0.00029987312
5.1729309e-06
0.0002980496
5.0866917e-06
0.00029625687
5.0011908e-06
0.0002944945
4.9168087e-06
0.00029276194
4.8338198e-06
0.00029105856
4.7524766e-06
0.0002893836
4.6731299e-06
0.0002877361
4.5963754e-06
0.00028611484
4.5229647e-06
0.00028451798
4.454582e-06
0.00028294341
4.3922768e-06
0.00028138599
4.3437665e-06
0.00027984473
4.2998373e-06
0.00027829011
4.3330721e-06
0.0002767769
4.2518726e-06
0.00027501141
4.7169921e-06
3.96731e-06
0.00088865246
7.1359524e-05
-0.00088585916
0.00089428702
9.5803785e-05
0.00090054783
0.00011113115
0.00090584983
0.00011680679
0.00090960281
0.00011681917
0.00091191016
0.00011417942
0.00091287196
0.0001108256
0.0009122939
0.00010760744
0.00090946421
0.00010446424
0.00090344678
0.00010116191
0.00089385121
9.7634693e-05
0.0008808448
9.3693475e-05
0.00086505633
8.9113899e-05
0.00084719281
8.4042057e-05
0.0008278983
7.8723986e-05
0.00080781476
7.3264463e-05
0.00078755792
6.7760393e-05
0.0007676502
6.2357444e-05
0.00074849565
5.7183907e-05
0.00073035408
5.2318091e-05
0.00071335487
4.784699e-05
0.00069752009
4.3822843e-05
0.0006828107
4.0231936e-05
0.00066915902
3.7039897e-05
0.00065648586
3.4214836e-05
0.00064470939
3.1717471e-05
0.00063374844
2.9505435e-05
0.0006235257
2.7544077e-05
0.00061396814
2.5810289e-05
0.00060500907
2.4272402e-05
0.00059658884
2.2908174e-05
0.00058865054
2.1709997e-05
0.00058114139
2.0679844e-05
0.00057401534
1.98177e-05
0.00056721973
1.9115335e-05
0.00056070231
1.8582615e-05
0.00055441798
1.8225527e-05
0.00054831693
1.8027342e-05
0.00054234943
1.7969522e-05
0.00053647034
1.8029549e-05
0.00053063937
1.8184897e-05
0.00052482088
1.8415872e-05
0.00051898663
1.8701309e-05
0.00051311561
1.9024485e-05
0.0005071919
1.9370053e-05
0.0005012049
1.9720438e-05
0.0004951487
2.0064453e-05
0.00048902213
2.0389477e-05
0.0004828287
2.0681806e-05
0.00047657592
2.0931043e-05
0.00047027627
2.1122004e-05
0.00046394823
2.1235946e-05
0.00045761667
2.1256099e-05
0.00045131496
2.1158093e-05
0.00044508669
2.0912131e-05
0.00043898591
2.048793e-05
0.00043307607
1.98559e-05
0.00042742573
1.8998504e-05
0.00042210128
1.792057e-05
0.0004171591
1.6651346e-05
0.00041263591
1.5256611e-05
0.00040854256
1.3823899e-05
0.00040487069
1.2397165e-05
0.00040157597
1.1114529e-05
0.0003985863
1.0086543e-05
0.00039583334
9.2854498e-06
0.00039324876
8.7156415e-06
0.00039077021
8.3607022e-06
0.00038834857
8.1738002e-06
0.00038594845
8.1061275e-06
0.00038354604
8.1293222e-06
0.0003811348
8.1754284e-06
0.00037871869
8.2004259e-06
0.00037630212
8.2136907e-06
0.0003738924
8.200805e-06
0.00037149747
8.159637e-06
0.0003691244
8.0932125e-06
0.00036677881
8.0063936e-06
0.0003644648
7.9046099e-06
0.00036218507
7.7927157e-06
0.00035994128
7.6744982e-06
0.00035773429
7.5527154e-06
0.00035556442
7.4293477e-06
0.00035343162
7.3057253e-06
0.00035133562
7.1826914e-06
0.00034927598
7.0608386e-06
0.0003472521
6.9406819e-06
0.00034526332
6.8226061e-06
0.00034330882
6.7069724e-06
0.00034138769
6.5942628e-06
0.00033949877
6.4852989e-06
0.00033764063
6.3810994e-06
0.00033581118
6.284029e-06
0.00033400802
6.1954372e-06
0.00033222535
6.1264415e-06
0.00033046213
6.0630567e-06
0.00032868519
6.1100098e-06
0.00032695858
5.9784836e-06
0.00032491636
6.7592091e-06
5.4213526e-06
0.00091984743
6.8947436e-05
-0.00091743534
0.00092482591
9.0825304e-05
0.00093051751
0.00010543955
0.00093560654
0.00011171776
0.00093968186
0.00011274385
0.00094266154
0.00011119975
0.00094473073
0.0001087564
0.00094616827
0.0001061699
0.00094706691
0.0001035656
0.00094729738
0.00010093144
0.00094662418
9.8307893e-05
0.00094463002
9.5687637e-05
0.00094071082
9.3033101e-05
0.00093443602
9.0316856e-05
0.00092561878
8.7541225e-05
0.00091437676
8.4506481e-05
0.00090103033
8.110682e-05
0.00088590276
7.7485021e-05
0.00086939585
7.3690817e-05
0.00085199466
6.971928e-05
0.00083421654
6.5625112e-05
0.00081653041
6.1508972e-05
0.00079931174
5.7450604e-05
0.00078281112
5.3540519e-05
0.00076715741
4.9868544e-05
0.00075239027
4.6484613e-05
0.00073849761
4.3398092e-05
0.00072544195
4.059974e-05
0.0007131734
3.8078838e-05
0.00070163758
3.5808222e-05
0.00069077871
3.3767044e-05
0.00068053902
3.1949689e-05
0.00067086356
3.0355305e-05
0.00066170235
2.8978906e-05
0.00065300026
2.7817429e-05
0.00064470071
2.6882162e-05
0.00063675156
2.6174682e-05
0.00062909787
2.5681024e-05
0.00062168279
2.5384608e-05
0.00061445166
2.5260675e-05
0.00060735322
2.5283333e-05
0.00060034023
2.5428862e-05
0.00059337282
2.5668722e-05
0.00058641898
2.597833e-05
0.00057945292
2.6336106e-05
0.00057245552
2.6717842e-05
0.00056541368
2.7106295e-05
0.00055832045
2.7482704e-05
0.00055117488
2.7827377e-05
0.00054398136
2.8124561e-05
0.00053675058
2.8352788e-05
0.00052950063
2.8485896e-05
0.00052225755
2.8499173e-05
0.0005150576
2.8358044e-05
0.00050794894
2.80208e-05
0.00050099169
2.7445179e-05
0.00049425637
2.6591219e-05
0.00048781883
2.5436043e-05
0.00048175215
2.3987244e-05
0.00047611784
2.2285656e-05
0.00047095557
2.0418885e-05
0.00046627684
1.8502631e-05
0.00046207025
1.6603757e-05
0.00045828719
1.4897583e-05
0.00045485006
1.3523674e-05
0.00045168261
1.2452899e-05
0.00044870918
1.1689072e-05
0.0004458608
1.120908e-05
0.00044308271
1.0951894e-05
0.00044033503
1.0853805e-05
0.00043759133
1.087302e-05
0.00043484357
1.0923191e-05
0.00043209485
1.0949143e-05
0.00042934966
1.0958886e-05
0.00042661563
1.0934829e-05
0.0004239012
1.0874069e-05
0.00042121389
1.0780526e-05
0.00041855971
1.0660576e-05
0.00041594301
1.0521305e-05
0.00041336668
1.0369048e-05
0.00041083241
1.0208762e-05
0.00040834107
1.0044055e-05
0.00040589292
9.8775066e-06
0.00040348779
9.7108473e-06
0.0004011253
9.54518e-06
0.00039880487
9.3812737e-06
0.00039652577
9.2197865e-06
0.00039428715
9.0612234e-06
0.00039208805
8.9060658e-06
0.00038992738
8.7549372e-06
0.00038780378
8.6088966e-06
0.00038571564
8.4692418e-06
0.00038366061
8.339057e-06
0.00038163603
8.2200176e-06
0.0003796356
8.1268711e-06
0.0003776581
8.0405623e-06
0.00037566778
8.1003295e-06
0.00037373556
7.9107036e-06
0.00037143183
9.0629318e-06
7.0271514e-06
0.00095213057
6.679952e-05
-0.00094998266
0.00095656511
8.6390768e-05
0.0009617777
0.00010022696
0.00096655181
0.00010694365
0.00097045909
0.00010883657
0.00097347682
0.00010818201
0.00097579329
0.00010643994
0.00097760589
0.0001043573
0.0009790057
0.00010216578
0.00098003862
9.9898525e-05
0.00098076224
9.7584268e-05
0.00098117361
9.5276267e-05
0.00098117146
9.3035254e-05
0.00098059941
9.0888909e-05
0.00097926858
8.887205e-05
0.00097680081
8.6974251e-05
0.0009727534
8.5154233e-05
0.0009668316
8.340682e-05
0.00095886751
8.1654902e-05
0.00094887039
7.9716403e-05
0.00093696369
7.7531814e-05
0.00092334989
7.5122769e-05
0.00090836088
7.2439617e-05
0.00089244654
6.9454855e-05
0.00087609607
6.6219019e-05
0.00085975444
6.2826245e-05
0.0008437658
5.9386733e-05
0.0008283482
5.6017333e-05
0.00081360794
5.2819102e-05
0.00079957973
4.983643e-05
0.0007862608
4.7085972e-05
0.00077362853
4.4581958e-05
0.00076165091
4.2332925e-05
0.00075029065
4.033917e-05
0.00073950205
3.860603e-05
0.00072923425
3.7149955e-05
0.00071943579
3.5973144e-05
0.0007100512
3.5065611e-05
0.00070102049
3.441532e-05
0.00069228291
3.3998254e-05
0.00068377896
3.3787284e-05
0.00067545188
3.3755946e-05
0.00066725039
3.3870207e-05
0.00065912998
3.409874e-05
0.00065105359
3.4412497e-05
0.00064299212
3.477932e-05
0.00063492365
3.5174763e-05
0.00062683375
3.5572603e-05
0.00061871538
3.5945745e-05
0.00061056826
3.6271679e-05
0.00060239982
3.6521227e-05
0.00059422642
3.6659303e-05
0.00058607387
3.665172e-05
0.0005779798
3.6452117e-05
0.00056999523
3.6005366e-05
0.0005621845
3.5255914e-05
0.00055462325
3.4152465e-05
0.00054739294
3.2666358e-05
0.00054057207
3.0808107e-05
0.00053422675
2.8630974e-05
0.00052839993
2.6245711e-05
0.00052310468
2.3797883e-05
0.00051832877
2.1379657e-05
0.00051402196
1.9204399e-05
0.00051010293
1.7442701e-05
0.00050648913
1.6066702e-05
0.00050309871
1.5079487e-05
0.00049985659
1.4451202e-05
0.0004967023
1.4106186e-05
0.0004935912
1.3964905e-05
0.00049049328
1.3970941e-05
0.00048739819
1.4018279e-05
0.00048430777
1.4039569e-05
0.00048122594
1.4040716e-05
0.00047816032
1.4000443e-05
0.00047511959
1.39148e-05
0.00047211161
1.3788505e-05
0.00046914272
1.3629465e-05
0.00046621753
1.3446498e-05
0.00046333907
1.3247511e-05
0.00046050911
1.3038718e-05
0.00045772851
1.2824656e-05
0.00045499746
1.2608559e-05
0.00045231571
1.2392599e-05
0.00044968272
1.2178164e-05
0.00044709778
1.1966218e-05
0.00044455999
1.1757572e-05
0.00044206835
1.1552861e-05
0.00043962172
1.1352695e-05
0.00043721881
1.1157852e-05
0.00043485807
1.0969634e-05
0.00043253769
1.0789629e-05
0.00043025508
1.0621664e-05
0.00042800732
1.0467773e-05
0.00042578772
1.0346476e-05
0.00042359475
1.0233534e-05
0.00042139077
1.0304311e-05
0.00041925239
1.0049079e-05
0.00041668986
1.1625466e-05
8.7901335e-06
0.00098546789
6.4843149e-05
-0.00098351152
0.00098945411
8.2404548e-05
0.00099424983
9.5431241e-05
0.00099876074
0.00010243274
0.0010025406
0.00010505673
0.001005531
0.00010519161
0.0010078721
0.00010409881
0.0010097409
0.00010248849
0.0010112556
0.00010065109
0.001012484
9.8670184e-05
0.0010134574
9.6610837e-05
0.0010141939
9.4539797e-05
0.0010147192
9.2509954e-05
0.001015056
9.0552068e-05
0.0010152015
8.8726522e-05
0.0010150986
8.707713e-05
0.0010146522
8.5600719e-05
0.0010137405
8.4318496e-05
0.0010121573
8.3238086e-05
0.0010095615
8.2312208e-05
0.0010055998
8.149351e-05
0.00099996408
8.0758485e-05
0.00099246427
7.9939431e-05
0.00098305534
7.8863782e-05
0.00097178037
7.749399e-05
0.00095882668
7.5779928e-05
0.00094454685
7.3666564e-05
0.00092940929
7.1154894e-05
0.00091389541
6.8332987e-05
0.0008984164
6.5315441e-05
0.00088326156
6.2240805e-05
0.00086859668
5.924684e-05
0.00085450026
5.6429349e-05
0.00084100209
5.3837334e-05
0.00082810425
5.1503871e-05
0.00081579052
4.946369e-05
0.00080403158
4.7732086e-05
0.00079278585
4.6311334e-05
0.0007820014
4.5199775e-05
0.00077162018
4.4379478e-05
0.00076158051
4.3826948e-05
0.00075181988
4.3516572e-05
0.00074227857
4.3411524e-05
0.00073290146
4.3475851e-05
0.00072364013
4.3673821e-05
0.00071445452
4.3964932e-05
0.00070531258
4.4316702e-05
0.00069619086
4.4694327e-05
0.00068707461
4.5061995e-05
0.00067795721
4.5389079e-05
0.00066884117
4.5637266e-05
0.00065973942
4.5761051e-05
0.0006506758
4.5715336e-05
0.00064168738
4.544054e-05
0.00063282596
4.4866788e-05
0.00062415784
4.3924027e-05
0.00061576173
4.2548584e-05
0.00060772289
4.0705198e-05
0.00060012418
3.840681e-05
0.0005930361
3.5719054e-05
0.00058650562
3.2776194e-05
0.00058054886
2.9754648e-05
0.00057515535
2.6773166e-05
0.00057027614
2.4083608e-05
0.00056582845
2.1890388e-05
0.00056172515
2.0170004e-05
0.0005578794
1.8925234e-05
0.00055421039
1.8120214e-05
0.00055065179
1.7664789e-05
0.00054715365
1.7463047e-05
0.0005436813
1.7443289e-05
0.0005402211
1.7478474e-05
0.000536773
1.7487675e-05
0.00053333971
1.7473999e-05
0.00052992842
1.7411736e-05
0.00052654779
1.7295432e-05
0.00052320591
1.7130387e-05
0.0005199094
1.6925975e-05
0.00051666312
1.6692774e-05
0.00051347029
1.644034e-05
0.00051033278
1.6176231e-05
0.00050725144
1.5905993e-05
0.00050422642
1.563358e-05
0.00050125737
1.5361652e-05
0.00049834361
1.5091921e-05
0.00049548427
1.4825562e-05
0.00049267829
1.4563555e-05
0.00048992447
1.4306674e-05
0.0004872215
1.4055671e-05
0.00048456787
1.3811482e-05
0.00048196184
1.3575665e-05
0.00047940136
1.3350104e-05
0.00047688364
1.3139386e-05
0.00047440547
1.2945936e-05
0.00047195982
1.2792131e-05
0.00046954479
1.2648561e-05
0.00046712126
1.2727842e-05
0.00046477102
1.2399316e-05
0.00046194499
1.4451503e-05
1.0718047e-05
0.0010198615
6.3034797e-05
-0.0010180531
0.0010234636
7.880236e-05
0.0010278814
9.1013484e-05
0.0010321453
9.8168838e-05
0.0010358145
0.0001013875
0.0010387959
0.00010221021
0.0010411735
0.00010172126
0.0010430863
0.00010057569
0.0010446449
9.9092478e-05
0.0010459185
9.7396609e-05
0.001046955
9.5574338e-05
0.001047789
9.3705727e-05
0.00104845
9.1849007e-05
0.0010489494
9.0052667e-05
0.0010493038
8.8372136e-05
0.0010495399
8.6840987e-05
0.0010496655
8.5475126e-05
0.0010496734
8.4310617e-05
0.0010495366
8.3374887e-05
0.0010492015
8.2647242e-05
0.0010485756
8.2119496e-05
0.0010475397
8.1794324e-05
0.0010458549
8.1624241e-05
0.0010431686
8.1550084e-05
0.0010391411
8.1521453e-05
0.0010334562
8.1464833e-05
0.0010259123
8.1210501e-05
0.0010164477
8.0619498e-05
0.0010051272
7.9653492e-05
0.00099220186
7.8240776e-05
0.00097809412
7.6348547e-05
0.00096329894
7.4042018e-05
0.0009482752
7.1453084e-05
0.00093337151
6.8741026e-05
0.00091880611
6.6069277e-05
0.00090469465
6.3575143e-05
0.00089109093
6.1335807e-05
0.00087801095
5.9391315e-05
0.00086544301
5.7767716e-05
0.00085335474
5.6467747e-05
0.00084169843
5.5483261e-05
0.00083041712
5.4797882e-05
0.00081945067
5.4377968e-05
0.0008087389
5.4187621e-05
0.00079822514
5.4187588e-05
0.00078785958
5.433049e-05
0.0007776001
5.4576179e-05
0.00076741357
5.4880861e-05
0.00075727641
5.519915e-05
0.00074717425
5.5491242e-05
0.00073710305
5.5708465e-05
0.00072707056
5.5793539e-05
0.00071709669
5.5689215e-05
0.00070721576
5.5321467e-05
0.000697478
5.4604542e-05
0.00068794924
5.3452789e-05
0.00067870883
5.1788995e-05
0.00066984396
4.9570069e-05
0.00066144061
4.6810161e-05
0.00065357343
4.3586227e-05
0.00064629429
4.0055337e-05
0.000639624
3.6424942e-05
0.00063355649
3.2840672e-05
0.0006280474
2.9592699e-05
0.00062301523
2.6922558e-05
0.00061837032
2.481491e-05
0.00061402226
2.3273293e-05
0.00060988513
2.2257349e-05
0.00060588664
2.1663283e-05
0.00060197097
2.1378712e-05
0.00059809772
2.1316541e-05
0.00059424882
2.1327373e-05
0.00059042153
2.1314971e-05
0.00058661665
2.1278874e-05
0.00058284039
2.1187994e-05
0.00057910113
2.1034694e-05
0.00057540703
2.082449e-05
0.00057176494
2.0568063e-05
0.00056817999
2.0277725e-05
0.00056465559
1.9964732e-05
0.00056119376
1.9638067e-05
0.00055779538
1.9304373e-05
0.00055446056
1.8968401e-05
0.00055118885
1.863336e-05
0.00054797945
1.8301322e-05
0.0005448313
1.7973708e-05
0.00054174318
1.7651681e-05
0.00053871368
1.7336166e-05
0.00053574129
1.7028066e-05
0.00053282428
1.672849e-05
0.00052996069
1.6439256e-05
0.00052714824
1.6162554e-05
0.00052438389
1.5903738e-05
0.00052166416
1.5665663e-05
0.00051898169
1.5474607e-05
0.00051633416
1.5296086e-05
0.00051368123
1.5380776e-05
0.00051110971
1.4970831e-05
0.00050801045
1.7550765e-05
1.2820648e-05
0.0010553408
6.1346097e-05
-0.0010536521
0.0010586082
7.5535031e-05
0.0010626787
8.6942938e-05
0.0010667046
9.4142911e-05
0.0010702569
9.7835187e-05
0.0010732185
9.9248621e-05
0.0010756309
9.9308871e-05
0.0010775972
9.860942e-05
0.0010792107
9.7479009e-05
0.0010805344
9.6072843e-05
0.001081616
9.4492791e-05
0.001082494
9.2827658e-05
0.0010831992
9.1143829e-05
0.0010837556
8.9496266e-05
0.0010841865
8.7941266e-05
0.0010845102
8.6517251e-05
0.0010847385
8.5246869e-05
0.0010848858
8.4163287e-05
0.0010849768
8.3283868e-05
0.0010850071
8.2616983e-05
0.0010849627
8.2163913e-05
0.0010848409
8.1916145e-05
0.0010846036
8.1861528e-05
0.001084182
8.197161e-05
0.0010834745
8.2228964e-05
0.0010823254
8.2614015e-05
0.0010804504
8.3085404e-05
0.0010774818
8.3588176e-05
0.0010730491
8.4086143e-05
0.0010668476
8.44423e-05
0.001058709
8.448718e-05
0.001048602
8.4148971e-05
0.0010366952
8.3359932e-05
0.0010233695
8.2066689e-05
0.0010091312
8.0307625e-05
0.00099448002
7.8226276e-05
0.00097981096
7.6004865e-05
0.00096537614
7.3826139e-05
0.00095130855
7.18353e-05
0.00093766648
7.0109817e-05
0.00092446214
6.8687607e-05
0.00091167684
6.7583182e-05
0.0008992722
6.6782605e-05
0.00088719786
6.6261961e-05
0.00087539898
6.5986469e-05
0.00086382242
6.5907045e-05
0.00085241955
6.5979056e-05
0.00084114923
6.6151175e-05
0.00082997958
6.6368804e-05
0.00081888806
6.6582758e-05
0.00080786315
6.6733374e-05
0.00079690603
6.6750662e-05
0.00078603088
6.656437e-05
0.00077526721
6.6085132e-05
0.00076466126
6.521049e-05
0.00075427576
6.3838295e-05
0.00074418817
6.1876582e-05
0.00073448537
5.9272865e-05
0.00072525494
5.6040594e-05
0.00071657517
5.2266e-05
0.00070850341
4.8127098e-05
0.00070106673
4.3861624e-05
0.00069426588
3.9641514e-05
0.00068806452
3.5794064e-05
0.0006823858
3.2601276e-05
0.00067714007
3.0060644e-05
0.00067223517
2.8178196e-05
0.00066758112
2.6911397e-05
0.00066309992
2.6144482e-05
0.00065872953
2.57491e-05
0.00065442281
2.5623259e-05
0.0006501561
2.5594081e-05
0.00064592304
2.5548033e-05
0.00064172171
2.5480202e-05
0.00063755673
2.5352983e-05
0.00063343578
2.5155637e-05
0.00062936691
2.4893358e-05
0.00062535713
2.4577851e-05
0.00062141179
2.4223059e-05
0.00061753458
2.384195e-05
0.00061372763
2.344501e-05
0.00060999194
2.3040066e-05
0.00060632759
2.2632752e-05
0.00060273405
2.22269e-05
0.00059921038
2.1824994e-05
0.00059575535
2.1428735e-05
0.00059236754
2.1039495e-05
0.00058904534
2.0658363e-05
0.000585787
2.0286406e-05
0.00058259057
1.9924917e-05
0.00057945385
1.9575982e-05
0.00057637429
1.9242106e-05
0.00057334862
1.8929417e-05
0.00057037304
1.8641241e-05
0.00056743988
1.8407767e-05
0.00056454637
1.8189596e-05
0.00056165106
1.8276084e-05
0.0005588459
1.7775986e-05
0.00055545988
2.0936789e-05
1.510955e-05
0.0010919446
5.9756566e-05
-0.0010903551
0.0010949198
7.2559883e-05
0.0010986711
8.3191653e-05
0.0011024671
9.0346846e-05
0.0011058966
9.4405763e-05
0.0011088239
9.6321283e-05
0.0011112576
9.6875204e-05
0.0011132697
9.6597231e-05
0.0011149369
9.5811864e-05
0.0011163153
9.4694412e-05
0.0011174487
9.3359422e-05
0.0011183742
9.1902178e-05
0.001119122
9.0395977e-05
0.0011197182
8.8900117e-05
0.0011201878
8.7471682e-05
0.0011205518
8.6153161e-05
0.0011208266
8.4972093e-05
0.0011210292
8.3960723e-05
0.0011211728
8.3140294e-05
0.0011212686
8.2521158e-05
0.0011213275
8.2104983e-05
0.0011213572
8.1886454e-05
0.0011213587
8.1860035e-05
0.0011213232
8.2007122e-05
0.0011212361
8.2316042e-05
0.0011210719
8.2778206e-05
0.0011207823
8.3375047e-05
0.0011202818
8.4088665e-05
0.001119453
8.4914966e-05
0.0011180658
8.5829483e-05
0.0011157633
8.6789667e-05
0.0011121486
8.7763698e-05
0.0011068398
8.8668695e-05
0.0010995731
8.9333408e-05
0.0010902547
8.9626005e-05
0.0010790061
8.9474879e-05
0.0010661995
8.8811489e-05
0.0010523651
8.7660543e-05
0.0010380318
8.6168608e-05
0.0010236079
8.4533723e-05
0.0010093423
8.2953172e-05
0.00099535764
8.1567833e-05
0.00098170088
8.043937e-05
0.00096837486
7.9587982e-05
0.00095535623
7.9005092e-05
0.00094260791
7.8655367e-05
0.00093008706
7.8499913e-05
0.00091775237
7.8485864e-05
0.00090556831
7.8552859e-05
0.00089350674
7.8644329e-05
0.00088154961