/*--------------------------------*- C++ -*----------------------------------*\
| =========                 |                                                 |
| \\      /  F ield         | OpenFOAM: The Open Source CFD Toolbox           |
|  \\    /   O peration     | Version:  2206                                  |
|   \\  /    A nd           | Website:  www.openfoam.com                      |
|    \\/     M anipulation  |                                                 |
\*---------------------------------------------------------------------------*/
FoamFile
{
    version     2.0;
    format      ascii;
    arch        "LSB;label=32;scalar=64";
    class       volVectorField;
    location    "100";
    object      U;
}
// * * * * * * * * * * * * * * * * * * * * * * * * * * * * * * * * * * * * * //

dimensions      [0 1 -1 0 0 0 0];

internalField   nonuniform List<vector> 
7480
(
(0.86057633 0.014712276 5.8556481e-16)
(0.74479468 0.0255994 0)
(0.62889057 0.027275194 0)
(0.52542799 0.01950898 0)
(0.44955086 0.0094125703 0)
(0.39717804 0.0037490649 0)
(0.35939834 0.001717448 0)
(0.33022313 0.0012143364 0)
(0.30646802 0.0010852655 0)
(0.28657183 0.00096545747 0)
(0.26974647 0.00081785666 0)
(0.25548835 0.00067092666 0)
(0.24339265 0.00054275245 0)
(0.23311293 0.00043775302 0)
(0.22435103 0.00035442948 0)
(0.21684682 0.00028757338 0)
(0.21040527 0.00023302925 0)
(0.20486708 0.00018163158 5.5361941e-22)
(0.20007943 0.00030669267 -1.7477683e-17)
(0.1959058 0.00015799704 0)
(0.19223355 0.00010630147 0)
(0.18896844 8.8987545e-05 0)
(0.1860256 7.7959902e-05 0)
(0.18334635 6.8792265e-05 0)
(0.1808885 6.1178885e-05 0)
(0.17861478 5.4805052e-05 0)
(0.17650098 4.9426239e-05 0)
(0.17452187 4.4766423e-05 0)
(0.17265576 4.0154264e-05 1.2303629e-18)
(0.1708831 3.9624965e-05 0)
(0.16919118 3.5765415e-05 0)
(0.1675671 3.438896e-05 0)
(0.16599783 3.3197059e-05 0)
(0.16446015 3.2525722e-05 0)
(0.16293674 3.2252185e-05 0)
(0.1614157 3.2485971e-05 0)
(0.15987109 3.3169881e-05 0)
(0.15828522 3.4051419e-05 0)
(0.15664748 3.4964491e-05 0)
(0.15495059 3.5784138e-05 0)
(0.15319072 3.6452504e-05 0)
(0.15136685 3.6954329e-05 0)
(0.14948013 3.7264556e-05 0)
(0.1475322 3.741784e-05 0)
(0.14552511 3.7424757e-05 0)
(0.14346284 3.7242835e-05 0)
(0.14135045 3.6910357e-05 0)
(0.13919346 3.6414744e-05 0)
(0.13699871 3.5744709e-05 0)
(0.13477371 3.4928993e-05 0)
(0.1325271 3.3945901e-05 0)
(0.13026944 3.278818e-05 0)
(0.1280123 3.1496857e-05 0)
(0.12576808 3.0089113e-05 0)
(0.12355107 2.8587055e-05 0)
(0.12137743 2.7024318e-05 0)
(0.11926523 2.5395584e-05 0)
(0.11723475 2.3695056e-05 0)
(0.11530762 2.1900949e-05 0)
(0.11350351 1.9979791e-05 0)
(0.11183788 1.8028608e-05 0)
(0.11032147 1.5971577e-05 0)
(0.10894721 1.2216132e-05 -9.7607489e-21)
(0.10771905 2.4860665e-05 4.2782711e-20)
(0.10662619 1.1356694e-05 1.4539551e-20)
(0.10561539 9.3920748e-06 0)
(0.10468024 8.4353174e-06 0)
(0.10379301 7.6723851e-06 0)
(0.10293325 7.1164812e-06 0)
(0.10208593 6.717483e-06 0)
(0.10124531 6.444398e-06 -9.8379332e-22)
(0.10039059 6.2563061e-06 3.2844448e-21)
(0.099537073 6.0843165e-06 0)
(0.098680249 5.8991384e-06 0)
(0.097823008 5.7166243e-06 0)
(0.096968649 5.5205106e-06 0)
(0.096120031 5.3115213e-06 0)
(0.095279684 5.0934927e-06 0)
(0.094449567 4.8712582e-06 0)
(0.093631061 4.6493819e-06 0)
(0.092825059 4.4309751e-06 0)
(0.092032106 4.2181755e-06 0)
(0.091252498 4.0126666e-06 0)
(0.090486345 3.815407e-06 0)
(0.089733633 3.6266444e-06 0)
(0.08899428 3.4464587e-06 0)
(0.088268141 3.2749322e-06 0)
(0.087555015 3.1118208e-06 0)
(0.086854671 2.9568341e-06 0)
(0.086166841 2.809898e-06 0)
(0.085491196 2.6708983e-06 0)
(0.084827265 2.5400505e-06 0)
(0.084174516 2.417238e-06 0)
(0.083531893 2.304223e-06 0)
(0.082898784 2.1990427e-06 0)
(0.082271166 2.1123511e-06 0)
(0.081653207 2.0252175e-06 0)
(0.081013339 4.1905208e-06 2.1512363e-20)
(0.080453645 1.0684682e-06 -8.3476978e-20)
(0.079527758 5.1125908e-06 -6.4075301e-19)
(0.9571748 0.024754708 0)
(0.94323233 0.032434545 0)
(0.91226392 0.032618814 0)
(0.86063174 0.028852979 0)
(0.79762854 0.023009087 0)
(0.73443054 0.017331615 0)
(0.67741492 0.012916568 0)
(0.62854355 0.0098499678 0)
(0.58742682 0.0077536992 0)
(0.55286505 0.0062552529 0)
(0.52362867 0.0051192952 0)
(0.49871479 0.0042196772 0)
(0.4773634 0.0034893983 0)
(0.45899776 0.002891248 0)
(0.4431511 0.0024009127 0)
(0.42944467 0.001997586 0)
(0.41755522 0.001665764 0)
(0.4071989 0.0013955123 0)
(0.3981193 0.0011774423 0)
(0.39010813 0.00099136556 0)
(0.38298679 0.00085635979 0)
(0.37660301 0.00074564597 0)
(0.37082869 0.00065471315 0)
(0.36556453 0.00057994708 0)
(0.36073256 0.00051809835 0)
(0.35626461 0.00046603808 0)
(0.35211431 0.00042165884 0)
(0.34823398 0.00038413041 0)
(0.34458522 0.00035262219 0)
(0.34113519 0.00032556465 0)
(0.33785881 0.00030209688 0)
(0.33473069 0.00028209567 0)
(0.33172804 0.00026616395 0)
(0.3288143 0.00025416567 0)
(0.32595649 0.00024507639 0)
(0.32313753 0.00023922995 0)
(0.32031293 0.00023679618 0)
(0.31745033 0.0002365322 0)
(0.31452793 0.00023746448 0)
(0.31152854 0.00023894203 0)
(0.3084404 0.00024049705 0)
(0.30525683 0.00024181939 0)
(0.30197519 0.00024268572 0)
(0.29859434 0.00024308027 0)
(0.29511483 0.00024293054 0)
(0.29154045 0.00024204415 0)
(0.28787704 0.00024043866 0)
(0.28413167 0.00023806545 0)
(0.2803136 0.00023485486 0)
(0.27643361 0.00023083044 0)
(0.2725046 0.0002259079 0)
(0.26854272 0.00022000199 0)
(0.26456674 0.00021314929 0)
(0.26059802 0.00020530368 0)
(0.25666222 0.00019639442 0)
(0.25278963 0.00018638241 0)
(0.24901524 0.00017517979 0)
(0.24537843 0.00016276546 0)
(0.24192079 0.00014926641 0)
(0.23868066 0.00013493734 0)
(0.23568755 0.0001203924 0)
(0.2329616 0.00010636239 0)
(0.23050003 9.2420202e-05 0)
(0.22828372 8.052254e-05 0)
(0.22631639 7.0896824e-05 -3.0685938e-20)
(0.22449379 6.3184616e-05 0)
(0.22280539 5.7343307e-05 0)
(0.2212011 5.3229636e-05 0)
(0.2196441 5.0374174e-05 0)
(0.21810685 4.8335652e-05 0)
(0.2165746 4.7066398e-05 0)
(0.2150263 4.5987845e-05 0)
(0.21347046 4.4731244e-05 0)
(0.2119091 4.3521088e-05 0)
(0.21034548 4.219923e-05 0)
(0.2087856 4.0769838e-05 0)
(0.20723467 3.925801e-05 0)
(0.20569724 3.7695471e-05 0)
(0.20417682 3.6115406e-05 0)
(0.20267593 3.4545594e-05 0)
(0.20119619 3.3005619e-05 0)
(0.19973863 3.150829e-05 0)
(0.1983038 3.0062036e-05 0)
(0.19689195 2.8671434e-05 0)
(0.19550312 2.7337995e-05 0)
(0.19413719 2.6061952e-05 0)
(0.19279397 2.4843228e-05 0)
(0.19147314 2.3680714e-05 0)
(0.19017433 2.2573011e-05 0)
(0.18889711 2.1519432e-05 0)
(0.18764094 2.052021e-05 0)
(0.186405 1.9576361e-05 0)
(0.18518838 1.8691584e-05 0)
(0.18398923 1.7869064e-05 0)
(0.18280642 1.7129295e-05 0)
(0.18163284 1.6451231e-05 0)
(0.18047562 1.604293e-05 0)
(0.17927812 1.5596104e-05 0)
(0.17822263 1.4860518e-05 0)
(0.17648088 1.5879844e-05 0)
(0.96525576 0.026044604 0)
(0.9702253 0.0349554 0)
(0.97534283 0.038647846 0)
(0.97426998 0.03758183 0)
(0.95967461 0.034385021 0)
(0.93145327 0.030025115 0)
(0.89466624 0.025328572 0)
(0.85449058 0.020938753 0)
(0.81423838 0.017177019 0)
(0.77587875 0.014097166 0)
(0.74044172 0.011614048 0)
(0.70836789 0.0096109614 0)
(0.6797082 0.0079862093 0)
(0.65427665 0.0066617394 0)
(0.63176102 0.005581312 0)
(0.61182416 0.0046965047 0)
(0.5941442 0.0039671347 0)
(0.578426 0.0033658461 0)
(0.56440295 0.0028698401 0)
(0.55184939 0.002465959 0)
(0.54056142 0.0021359721 0)
(0.53036111 0.0018649283 0)
(0.52109586 0.0016418562 0)
(0.51263558 0.0014563133 0)
(0.5048696 0.0013009477 0)
(0.4977015 0.0011697293 0)
(0.49104965 0.0010576027 0)
(0.4848494 0.00096153453 0)
(0.4790453 0.0008796021 0)
(0.47359 0.00080848123 0)
(0.46844172 0.00074690981 0)
(0.46356138 0.00069396318 0)
(0.45891397 0.00065001281 0)
(0.45445733 0.00061502777 0)
(0.45014551 0.00058693236 0)
(0.44595598 0.00056635307 0)
(0.44183212 0.00055346542 0)
(0.43773305 0.00054594035 0)
(0.43362523 0.00054198818 0)
(0.42947886 0.00054028112 0)
(0.42527071 0.00053974046 0)
(0.42098372 0.00053958862 0)
(0.41660629 0.00053925235 0)
(0.41213016 0.00053849466 0)
(0.40755081 0.00053702352 0)
(0.40286806 0.00053440364 0)
(0.39808481 0.00053056408 0)
(0.39320628 0.00052534585 0)
(0.38824062 0.00051856903 0)
(0.38319829 0.00051021466 0)
(0.37809264 0.00050007856 0)
(0.37294113 0.00048794269 0)
(0.36776507 0.00047377746 0)
(0.36259024 0.00045739451 0)
(0.35744912 0.00043853751 0)
(0.35238191 0.00041699972 0)
(0.34743668 0.00039252883 0)
(0.34266823 0.00036507078 0)
(0.33813447 0.00033492842 0)
(0.33388873 0.00030274571 0)
(0.32997254 0.00026997937 0)
(0.32641262 0.00023809389 0)
(0.32320497 0.00020666922 0)
(0.32033547 0.00018007442 -8.1073718e-20)
(0.31777054 0.00015857889 5.1359402e-20)
(0.3154121 0.00014135592 0)
(0.31322667 0.00012841189 0)
(0.31115097 0.00011929207 0)
(0.30913639 0.00011299762 0)
(0.3071469 0.00010860145 0)
(0.30516192 0.00010576876 0)
(0.30315557 0.00010334857 0)
(0.30114127 0.00010064145 0)
(0.299119 9.7942688e-05 0)
(0.29709421 9.5003183e-05 0)
(0.29507465 9.18174e-05 0)
(0.29306717 8.8444322e-05 0)
(0.29107763 8.4957265e-05 0)
(0.28911051 8.1430639e-05 0)
(0.28716897 7.7926385e-05 0)
(0.28525504 7.4488355e-05 0)
(0.28336995 7.1145181e-05 0)
(0.28151436 6.7915277e-05 0)
(0.27968853 6.4808597e-05 0)
(0.27789244 6.1828615e-05 0)
(0.27612591 5.8975856e-05 0)
(0.27438863 5.6249995e-05 0)
(0.27268017 5.3648735e-05 0)
(0.27100002 5.1169236e-05 0)
(0.26934755 4.8809933e-05 0)
(0.26772203 4.6571492e-05 0)
(0.26612239 4.4455919e-05 0)
(0.26454741 4.247259e-05 0)
(0.26299467 4.0626077e-05 0)
(0.26146267 3.8971571e-05 0)
(0.25994209 3.7435153e-05 0)
(0.25844235 3.65671e-05 0)
(0.25688908 3.5022886e-05 0)
(0.25551436 3.5870337e-05 0)
(0.25325652 3.2999228e-05 -8.2459681e-21)
(0.96767235 0.024213758 0)
(0.97320494 0.032322911 0)
(0.9812733 0.036216976 0)
(0.98787461 0.036615886 0)
(0.99137868 0.034918969 0)
(0.99098861 0.032412215 0)
(0.98485159 0.029767028 0)
(0.97200876 0.027176194 0)
(0.95262819 0.024486828 0)
(0.92870933 0.021618922 0)
(0.90201244 0.018789153 0)
(0.8739314 0.0161554 0)
(0.84563282 0.013809641 0)
(0.81802621 0.011774837 0)
(0.79175777 0.010031995 0)
(0.76721844 0.0085502991 0)
(0.74458728 0.0072983053 0)
(0.72387655 0.006250071 0)
(0.70498954 0.0053822513 0)
(0.68778418 0.0046629805 0)
(0.67210127 0.0040652319 0)
(0.65778564 0.0035683178 0)
(0.64469201 0.0031517066 0)
(0.63268493 0.0027992508 0)
(0.62163873 0.0025003645 0)
(0.61144021 0.0022457244 0)
(0.60198449 0.0020271301 0)
(0.59318774 0.0018387392 0)
(0.58497717 0.0016762781 0)
(0.5772872 0.0015350853 0)
(0.57005901 0.0014120254 0)
(0.56324011 0.0013054355 0)
(0.55678018 0.0012152585 0)
(0.55063113 0.0011406117 0)
(0.54474709 0.0010790565 0)
(0.53907855 0.0010308588 0)
(0.5335769 0.00099563773 0)
(0.52819457 0.00097063791 0)
(0.52288507 0.00095324306 0)
(0.51760599 0.00094124618 0)
(0.51232224 0.00093277413 0)
(0.5070048 0.00092641155 0)
(0.50163067 0.00092102317 0)
(0.49618266 0.0009159154 0)
(0.49064935 0.0009104121 0)
(0.48502443 0.00090373483 0)
(0.47930578 0.00089561509 0)
(0.47349488 0.00088569926 0)
(0.46759713 0.00087362572 0)
(0.46162143 0.00085926327 0)
(0.45558018 0.000842235 0)
(0.44949093 0.00082212302 0)
(0.44337638 0.00079873265 0)
(0.43726543 0.00077162037 0)
(0.43119573 0.00074022158 0)
(0.42521508 0.00070404842 0)
(0.41938127 0.00066262993 0)
(0.41376025 0.00061590311 0)
(0.40842101 0.00056447256 0)
(0.40342662 0.00050958396 0)
(0.39882571 0.00045373637 0)
(0.39464736 0.00039946463 0)
(0.39088691 0.00034718798 3.4924402e-20)
(0.38752745 0.0003018137 -5.0673176e-20)
(0.38451473 0.00026578941 0)
(0.38175218 0.00023712756 0)
(0.37919059 0.00021567357 0)
(0.37675792 0.00020058113 0)
(0.37439775 0.00019019456 0)
(0.37206842 0.00018300119 0)
(0.36974453 0.00017822244 5.8459191e-21)
(0.36740074 0.00017407679 3.1070948e-21)
(0.36504947 0.00016954173 0)
(0.36269107 0.00016494034 0)
(0.3603322 0.00015993793 0)
(0.35798156 0.00015452856 0)
(0.35564696 0.00014881504 0)
(0.35333499 0.0001429223 0)
(0.35105064 0.00013697381 0)
(0.34879739 0.00013107121 0)
(0.34657746 0.00012528637 0)
(0.34439212 0.00011966592 0)
(0.34224201 0.00011423905 0)
(0.34012735 0.00010902124 0)
(0.33804802 0.0001040178 0)
(0.33600372 9.9229133e-05 0)
(0.33399403 9.4654093e-05 0)
(0.33201838 9.028877e-05 0)
(0.33007611 8.6128494e-05 0)
(0.32816643 8.2170347e-05 0)
(0.32628843 7.8415307e-05 0)
(0.32444082 7.4866184e-05 0)
(0.32262215 7.1539397e-05 0)
(0.32082965 6.8439853e-05 0)
(0.31906151 6.566861e-05 0)
(0.31730713 6.307555e-05 0)
(0.31557712 6.1662017e-05 0)
(0.31378689 5.8808023e-05 0)
(0.31219554 6.2465849e-05 0)
(0.30959338 5.2663536e-05 6.2029228e-21)
(0.96977219 0.023183239 0)
(0.97441491 0.030398149 0)
(0.98177224 0.034187545 0)
(0.9888701 0.034748148 0)
(0.99390563 0.033522304 0)
(0.9970647 0.031666138 0)
(0.99886781 0.029773351 0)
(0.99909413 0.028013774 0)
(0.99753224 0.026303068 0)
(0.992832 0.024549054 0)
(0.98430828 0.022746959 0)
(0.97177084 0.020868598 0)
(0.95578484 0.018881224 0)
(0.93717647 0.016870013 0)
(0.91665962 0.014934701 0)
(0.89492991 0.013136822 0)
(0.87269768 0.011512576 0)
(0.85059617 0.010066272 0)
(0.82913827 0.008797862 0)
(0.80868831 0.0076953401 0)
(0.78945273 0.0067488804 0)
(0.7715022 0.005946082 0)
(0.75481575 0.0052662986 0)
(0.73932774 0.0046880012 0)
(0.7249542 0.0041937402 0)
(0.71160684 0.003768642 0)
(0.69919484 0.0034003552 0)
(0.68763085 0.0030800664 0)
(0.6768328 0.0028016094 0)
(0.66672376 0.00255833 0)
(0.65723483 0.0023453588 0)
(0.64830403 0.0021598117 0)
(0.63986926 0.0020003536 0)
(0.6318769 0.0018652925 0)
(0.62427966 0.0017516113 0)
(0.61700995 0.0016588991 0)
(0.61002108 0.0015863226 0)
(0.60326025 0.0015303163 0)
(0.59667151 0.0014876723 0)
(0.59020242 0.0014552998 0)
(0.58380638 0.0014304479 0)
(0.57744181 0.0014109225 0)
(0.57107268 0.0013946999 0)
(0.5646731 0.0013803636 0)
(0.55822306 0.0013667358 0)
(0.55170803 0.0013525539 0)
(0.54511913 0.0013371912 0)
(0.53845258 0.0013199662 0)
(0.53170977 0.0013002361 0)
(0.52489667 0.0012776618 0)
(0.51802394 0.0012516106 0)
(0.51110841 0.0012213867 0)
(0.50417346 0.0011865322 0)
(0.4972503 0.0011462453 0)
(0.4903807 0.0010995496 0)
(0.48361836 0.0010455883 0)
(0.47702843 0.00098363133 0)
(0.47068488 0.00091363071 0)
(0.46466433 0.00083658568 0)
(0.45903613 0.00075450187 0)
(0.45385304 0.00067107974 0)
(0.44914473 0.00059013063 0)
(0.44490585 0.00051304557 0)
(0.44111357 0.00044602388 0)
(0.43770557 0.00039270235 0)
(0.43458128 0.0003505198 0)
(0.43168179 0.00031901067 0)
(0.42892866 0.00029681623 0)
(0.4262598 0.00028152066 0)
(0.42362928 0.0002709358 0)
(0.42100795 0.0002637196 0)
(0.4183713 0.00025739534 0)
(0.41572946 0.00025060288 0)
(0.41308341 0.00024365719 0)
(0.41044032 0.00023613513 0)
(0.40780937 0.00022803373 0)
(0.40519892 0.0002195055 0)
(0.40261598 0.00021073427 0)
(0.40006581 0.00020189902 0)
(0.39755206 0.00019314586 0)
(0.39507702 0.00018457799 0)
(0.39264195 0.00017626195 0)
(0.39024746 0.00016823854 0)
(0.38789366 0.00016052889 0)
(0.38558031 0.00015313994 0)
(0.38330703 0.00014607148 0)
(0.38107324 0.00013932093 0)
(0.37887824 0.00013288223 0)
(0.37672122 0.00012674837 0)
(0.37460125 0.00012091455 0)
(0.37251724 0.00011538169 0)
(0.37046774 0.00011015302 0)
(0.3684511 0.00010525272 0)
(0.36646428 0.00010068527 0)
(0.36450526 9.6605386e-05 0)
(0.36256271 9.2770564e-05 0)
(0.36064761 9.0711391e-05 0)
(0.35866999 8.6229547e-05 2.2276882e-20)
(0.35690402 9.3741945e-05 0)
(0.35402661 7.4606107e-05 0)
(0.97179548 0.02239817 0)
(0.97577011 0.028860378 0)
(0.98210099 0.032478305 0)
(0.98834876 0.03324442 0)
(0.99330387 0.032411144 0)
(0.99700677 0.03091109 0)
(0.9995567 0.029253129 0)
(1.0013383 0.027650857 0)
(1.0025556 0.026130931 0)
(1.0032127 0.024679695 0)
(1.0030324 0.023294948 0)
(1.0017712 0.02195414 0)
(0.9987782 0.020627947 0)
(0.99343473 0.019303103 0)
(0.98545073 0.017983353 0)
(0.97471608 0.016619859 0)
(0.96160355 0.015205305 0)
(0.94641927 0.013806644 0)
(0.92953968 0.012460452 0)
(0.91143999 0.011193646 0)
(0.89267632 0.010025059 0)
(0.87378466 0.0089621903 0)
(0.85522421 0.0080067939 0)
(0.83732807 0.0071582993 0)
(0.82029053 0.0064145304 0)
(0.80418981 0.0057686657 0)
(0.78903038 0.0052081312 0)
(0.77478092 0.0047192482 0)
(0.76139292 0.0042914071 0)
(0.74881006 0.0039147907 0)
(0.73697326 0.003582552 0)
(0.72582304 0.0032909163 0)
(0.71529701 0.0030372023 0)
(0.7053409 0.0028183724 0)
(0.69590309 0.002631307 0)
(0.68691874 0.0024748015 0)
(0.67833281 0.0023467864 0)
(0.67008932 0.002243465 0)
(0.66212807 0.0021611355 0)
(0.65438924 0.0020957566 0)
(0.64681666 0.0020436263 0)
(0.6393579 0.002001657 0)
(0.63196569 0.0019668213 0)
(0.62460278 0.00193678 0)
(0.6172387 0.0019095892 0)
(0.60984967 0.0018833236 0)
(0.60241874 0.0018568329 0)
(0.59493541 0.0018289523 0)
(0.58739567 0.0017986167 0)
(0.57980124 0.0017651604 0)
(0.57215987 0.0017275938 0)
(0.56448667 0.001684835 0)
(0.55680463 0.0016360582 0)
(0.54914612 0.0015799991 0)
(0.54155553 0.0015151757 0)
(0.53409056 0.0014402899 0)
(0.5268214 0.0013543217 0)
(0.51982744 0.0012572594 0)
(0.51319046 0.0011505747 0)
(0.50698402 0.0010371607 0)
(0.50126363 0.00092205739 0)
(0.49605955 0.000810514 0)
(0.49136615 0.00070501384 0)
(0.4871561 0.00061330916 4.0061089e-20)
(0.48336536 0.00054007801 0)
(0.47988776 0.00048227697 0)
(0.47665861 0.00043907601 0)
(0.47359451 0.00040852639 0)
(0.47062876 0.00038737284 0)
(0.46771163 0.00037267086 0)
(0.46481069 0.00036242011 0)
(0.46190086 0.00035338986 0)
(0.45899011 0.00034385223 0)
(0.45607944 0.00033408157 0)
(0.45317598 0.0003235589 0)
(0.45028908 0.00031228233 0)
(0.44742737 0.00030045658 0)
(0.44459808 0.00028832918 0)
(0.44180667 0.00027613942 0)
(0.43905687 0.00026408176 0)
(0.436351 0.00025229349 0)
(0.43369034 0.00024086277 0)
(0.43107539 0.00022984272 0)
(0.42850619 0.00021926028 0)
(0.42598239 0.00020912375 0)
(0.42350347 0.00019943181 0)
(0.42106873 0.00019017981 0)
(0.41867733 0.00018135891 0)
(0.41632832 0.00017295924 0)
(0.41402061 0.00016497353 0)
(0.41175295 0.00015740215 0)
(0.40952373 0.00015024825 0)
(0.40733114 0.000143544 0)
(0.40517196 0.00013729306 0)
(0.40304393 0.00013170865 0)
(0.40093535 0.00012644639 0)
(0.3988571 0.00012361872 0)
(0.39671666 0.00011723431 0)
(0.39479709 0.00012949052 3.9226701e-20)
(0.39167829 9.8986142e-05 0)
(0.9737277 0.021664862 0)
(0.97715994 0.027410742 0)
(0.98265162 0.030857161 0)
(0.98821035 0.031833536 0)
(0.99277366 0.031308687 0)
(0.99627006 0.03008438 0)
(0.99891886 0.028634833 0)
(1.0009793 0.027180858 0)
(1.0025999 0.025775993 0)
(1.0038252 0.024421111 0)
(1.0047102 0.023120036 0)
(1.0053039 0.021881823 0)
(1.0055444 0.020715632 0)
(1.005291 0.019619866 0)
(1.004363 0.018591299 0)
(1.002547 0.017614536 0)
(0.99928141 0.016669869 0)
(0.99422659 0.015749036 0)
(0.98711383 0.014830797 0)
(0.97786989 0.013874829 0)
(0.9665945 0.012885708 0)
(0.95343836 0.011891184 0)
(0.93866913 0.010910842 0)
(0.92270132 0.0099653583 0)
(0.90604243 0.009067715 0)
(0.88918884 0.0082301413 0)
(0.87255516 0.0074632537 0)
(0.85642913 0.0067723362 0)
(0.84096754 0.0061593954 0)
(0.82623127 0.0056188669 0)
(0.81222921 0.0051415208 0)
(0.79894608 0.004720075 0)
(0.78635128 0.0043490047 0)
(0.77440924 0.004023786 0)
(0.76307892 0.0037413626 0)
(0.75230805 0.003500188 0)
(0.74204447 0.003297326 0)
(0.73223426 0.0031286386 0)
(0.7228178 0.0029900356 0)
(0.71373215 0.0028767172 0)
(0.70491541 0.0027841414 0)
(0.6963075 0.0027083206 0)
(0.68785252 0.0026450942 0)
(0.67950115 0.0025910225 0)
(0.67121157 0.0025432645 0)
(0.66294999 0.0024990285 0)
(0.65469036 0.0024564367 0)
(0.64641415 0.0024136594 0)
(0.63811053 0.0023690512 0)
(0.62977565 0.0023214771 0)
(0.62141296 0.0022694581 0)
(0.6130345 0.0022114081 0)
(0.60466154 0.0021460189 0)
(0.59632597 0.0020714601 0)
(0.588073 0.0019856546 0)
(0.57996213 0.0018867982 0)
(0.5720662 0.0017735504 0)
(0.56446771 0.0016459424 0)
(0.55725156 0.0015059689 0)
(0.55049427 0.001357497 0)
(0.54425372 0.0012070085 0)
(0.53856154 0.0010612993 0)
(0.53341302 0.00092404842 -1.9150798e-20)
(0.52877943 0.00080466739 0)
(0.52459851 0.0007088993 0)
(0.52075925 0.00063330376 0)
(0.51719391 0.00057663622 0)
(0.51381517 0.00053631477 0)
(0.51055225 0.00050818971 0)
(0.50735164 0.00048849222 0)
(0.50417756 0.00047449074 0)
(0.50100287 0.00046214294 2.9694788e-21)
(0.49783332 0.00044930931 0)
(0.49466924 0.00043619212 0)
(0.49151723 0.00042216281 0)
(0.4883865 0.00040721286 0)
(0.48528574 0.00039159783 0)
(0.4822223 0.00037563108 0)
(0.47920178 0.00035961528 0)
(0.47622799 0.00034379631 0)
(0.47330331 0.00032834791 0)
(0.47042897 0.00031338134 0)
(0.46760545 0.00029896284 0)
(0.46483266 0.00028512531 0)
(0.46211018 0.00027187815 0)
(0.45943733 0.00025921845 0)
(0.45681329 0.00024713879 0)
(0.45423708 0.00023562692 0)
(0.45170759 0.00022466949 0)
(0.4492236 0.00021425613 0)
(0.44678369 0.00020438603 0)
(0.4443861 0.0001950617 0)
(0.44202887 0.00018632313 0)
(0.43970861 0.00017817291 0)
(0.43742287 0.0001708854 0)
(0.43515978 0.00016400968 0)
(0.43292978 0.00016027368 0)
(0.4306396 0.00015174582 0)
(0.42857788 0.00016953215 3.6878254e-20)
(0.42523577 0.00012585269 0)
(0.97551287 0.021010656 0)
(0.97852394 0.02610352 0)
(0.98330584 0.02934948 0)
(0.98828733 0.030486201 0)
(0.9925239 0.030230671 0)
(0.99584899 0.029265486 0)
(0.99842719 0.028018667 0)
(1.000462 0.026707915 0)
(1.0021077 0.025408237 0)
(1.0034469 0.02413584 0)
(1.0045373 0.022903361 0)
(1.0053735 0.021723109 0)
(1.005992 0.02060489 0)
(1.0064106 0.019551766 0)
(1.006658 0.018574252 0)
(1.0066941 0.017677332 0)
(1.0064476 0.016851764 0)
(1.0058036 0.016093442 0)
(1.0046312 0.015395657 0)
(1.0026492 0.014740811 0)
(0.99946439 0.014110612 0)
(0.99476973 0.013494646 0)
(0.98825915 0.012852045 0)
(0.97986641 0.012152847 0)
(0.96957054 0.011411613 0)
(0.95747806 0.010642108 0)
(0.94385756 0.0098625285 0)
(0.92914194 0.0090967473 0)
(0.91382668 0.0083592612 0)
(0.89837282 0.0076653588 0)
(0.88313234 0.0070264841 0)
(0.86832438 0.0064509172 0)
(0.85405781 0.0059404258 0)
(0.84037782 0.0054902682 0)
(0.82729769 0.0050949589 0)
(0.81480847 0.0047511602 0)
(0.8028866 0.0044551884 0)
(0.79149672 0.0042030395 0)
(0.78059175 0.0039907723 0)
(0.77011611 0.0038132401 0)
(0.7600098 0.003665314 0)
(0.75021044 0.0035422404 0)
(0.74065676 0.0034388536 0)
(0.73129132 0.003350661 0)
(0.72206238 0.003273741 0)
(0.712926 0.0032042378 0)
(0.70384646 0.0031393664 0)
(0.69479625 0.0030764488 0)
(0.6857566 0.0030130821 0)
(0.67671682 0.0029475027 0)
(0.66767465 0.0028775954 0)
(0.65863762 0.0028011332 0)
(0.64962365 0.0027162063 0)
(0.64066237 0.002620311 0)
(0.63179765 0.0025106865 0)
(0.62308851 0.0023849554 0)
(0.61460796 0.0022414127 0)
(0.60643932 0.0020801137 0)
(0.59866891 0.0019035862 0)
(0.59137524 0.0017167103 0)
(0.58461861 0.0015274639 0)
(0.57843317 0.0013442737 0)
(0.5728168 0.0011720783 0)
(0.56774261 0.001021993 0)
(0.5631532 0.00090094184 0)
(0.55893426 0.00080519002 0)
(0.55501729 0.00073305369 0)
(0.55131204 0.00068130834 0)
(0.54774403 0.00064487868 0)
(0.54425585 0.0006191168 0)
(0.54080799 0.00060050355 0)
(0.5373699 0.0005841233 -3.7250753e-21)
(0.53394476 0.00056736635 0)
(0.53053156 0.00055032931 0)
(0.52713584 0.00053225204 0)
(0.52376636 0.00051310491 0)
(0.52043169 0.00049318868 0)
(0.51713924 0.00047288182 0)
(0.51389468 0.00045255208 0)
(0.51070194 0.00043249914 0)
(0.50756345 0.00041293539 0)
(0.50448046 0.0003939968 0)
(0.50145338 0.00037576367 0)
(0.49848208 0.00035827513 0)
(0.495566 0.00034154156 0)
(0.49270436 0.00032555795 0)
(0.48989617 0.00031031347 0)
(0.48714033 0.00029579172 0)
(0.48443559 0.00028197519 0)
(0.48178056 0.00026884973 0)
(0.47917366 0.00025641268 0)
(0.47661298 0.00024466522 0)
(0.4740964 0.00023365473 0)
(0.47162042 0.00022338255 0)
(0.46918236 0.00021418538 0)
(0.46677034 0.0002055041 0)
(0.46439414 0.00020070431 0)
(0.46196081 0.00018979415 -9.1633179e-21)
(0.45976296 0.00021385443 0)
(0.4562069 0.00015528885 -1.7578821e-21)
(0.97714398 0.020410509 0)
(0.97981123 0.024933534 0)
(0.98399216 0.02796885 0)
(0.98845617 0.029205326 0)
(0.99238783 0.029173119 0)
(0.99557092 0.028445578 0)
(0.99809511 0.02739464 0)
(1.0001104 0.026225445 0)
(1.0017455 0.025028074 0)
(1.0030851 0.023834517 0)
(1.0041825 0.022665779 0)
(1.0050706 0.02153941 0)
(1.0057781 0.020466289 0)
(1.0063351 0.019453654 0)
(1.0067345 0.018509502 0)
(1.0070119 0.017636043 0)
(1.0071841 0.016831925 0)
(1.0072519 0.016100725 0)
(1.007197 0.015443241 0)
(1.0069853 0.014849011 0)
(1.0065497 0.014309076 0)
(1.0057789 0.013818163 0)
(1.0045539 0.013363719 0)
(1.0025321 0.012928405 0)
(0.99938193 0.012495233 0)
(0.99478091 0.012046236 0)
(0.98844506 0.011548991 0)
(0.98027517 0.010984269 0)
(0.97025306 0.010370787 0)
(0.95852367 0.0097228063 0)
(0.94542761 0.0090647475 0)
(0.93143544 0.0084145014 0)
(0.91702816 0.0077918394 0)
(0.90260361 0.0072128311 0)
(0.88843053 0.0066890754 0)
(0.87465775 0.0062265445 0)
(0.86135718 0.005823274 0)
(0.84855872 0.0054738453 0)
(0.83626304 0.0051733413 0)
(0.82444727 0.004916477 0)
(0.81307137 0.0046982841 0)
(0.80208362 0.0045138567 0)
(0.79142674 0.0043573861 0)
(0.78104221 0.004223549 0)
(0.77087309 0.0041074101 0)
(0.76086787 0.0040039794 0)
(0.75098227 0.0039094362 0)
(0.74118006 0.0038200918 0)
(0.73143414 0.0037326141 0)
(0.72172614 0.0036444478 0)
(0.71204701 0.0035526858 0)
(0.70239842 0.0034543143 0)
(0.69279335 0.0033466977 0)
(0.68325729 0.0032265505 0)
(0.67383067 0.0030903372 0)
(0.6645696 0.0029350317 0)
(0.65554484 0.0027585015 0)
(0.64683821 0.0025607729 0)
(0.63853572 0.002344869 0)
(0.63071692 0.0021166672 0)
(0.62344465 0.0018856415 0)
(0.61675672 0.0016619052 0)
(0.61065532 0.001451687 1.5510694e-20)
(0.60511835 0.0012678183 5.0280438e-20)
(0.60009653 0.0011185726 0)
(0.59547418 0.0010000631 0)
(0.59118431 0.00091017427 0)
(0.58713486 0.00084506591 0)
(0.58324816 0.00079873338 0)
(0.57946286 0.00076561095 0)
(0.57573531 0.00074135074 -4.7505003e-22)
(0.57203032 0.00072009746 0)
(0.56834796 0.00069869777 0)
(0.56468523 0.00067710365 0)
(0.56104601 0.00065439215 0)
(0.5574383 0.00063048999 0)
(0.55387033 0.00060573229 0)
(0.55034945 0.0005805588 0)
(0.54688142 0.00055540236 0)
(0.5434703 0.00053061822 0)
(0.54011857 0.00050645958 0)
(0.53682753 0.00048308897 0)
(0.53359759 0.00046060188 0)
(0.53042854 0.00043904425 0)
(0.52731972 0.00041842744 0)
(0.52427023 0.00039874391 0)
(0.52127895 0.00037997878 0)
(0.51834462 0.00036211077 0)
(0.51546585 0.00034511745 0)
(0.51264107 0.00032898019 0)
(0.50986857 0.00031369366 0)
(0.50714626 0.00029925702 0)
(0.50447188 0.00028572437 0)
(0.50184179 0.00027309567 0)
(0.49925311 0.00026177021 0)
(0.49669399 0.00025108087 0)
(0.49417349 0.00024504623 0)
(0.49159959 0.00023150444 0)
(0.4892682 0.00026257291 3.5605853e-20)
(0.48550207 0.0001874285 0)
(0.97863584 0.019852195 0)
(0.98101339 0.023874184 0)
(0.98467985 0.02669799 0)
(0.98867839 0.027998341 0)
(0.99231592 0.028151036 0)
(0.99535022 0.027628201 0)
(0.99781357 0.026754442 0)
(0.9998127 0.025722277 0)
(1.0014488 0.024629594 0)
(1.0027952 0.023519027 0)
(1.0038999 0.022416989 0)
(1.0047998 0.021344518 0)
(1.005526 0.020315225 0)
(1.0061056 0.01933883 0)
(1.0065572 0.018424457 0)
(1.0069029 0.017576084 0)
(1.0071553 0.01679376 0)
(1.0073259 0.016079531 0)
(1.0074271 0.015432182 0)
(1.0074934 0.014847437 0)
(1.0074813 0.014322128 0)
(1.0074094 0.013851742 0)
(1.0072532 0.013428648 0)
(1.0069655 0.01304372 0)
(1.0064674 0.012690094 0)
(1.0056465 0.012361028 0)
(1.0043249 0.012044993 0)
(1.002151 0.011730383 0)
(0.99879465 0.011403633 0)
(0.99389539 0.011037812 0)
(0.98725108 0.010603523 0)
(0.97875346 0.010110431 0)
(0.96845444 0.0095708599 0)
(0.9566187 0.0090079765 0)
(0.94369115 0.0084433613 0)
(0.93016819 0.0078979283 0)
(0.91648113 0.0073902205 0)
(0.9029289 0.0069331178 0)
(0.88967905 0.0065321897 0)
(0.87681041 0.0061848161 0)
(0.86435093 0.005885211 0)
(0.85229491 0.0056276977 0)
(0.84061347 0.0054061853 0)
(0.82926353 0.0052151802 0)
(0.81819461 0.0050492127 0)
(0.80735557 0.0049023686 0)
(0.79669854 0.0047698494 0)
(0.78618138 0.004646908 0)
(0.77577013 0.0045291733 0)
(0.76543924 0.0044131725 0)
(0.7551726 0.0042950687 0)
(0.74496531 0.0041709203 0)
(0.73482421 0.0040372472 0)
(0.7247691 0.0038898759 0)
(0.71483502 0.0037244044 0)
(0.70507293 0.0035370769 0)
(0.69554893 0.0033252502 0)
(0.68634113 0.0030888322 0)
(0.67753326 0.0028312531 0)
(0.66920481 0.0025593127 0)
(0.66142095 0.0022839211 0)
(0.65422403 0.0020168961 0)
(0.64762203 0.001765758 0)
(0.64160002 0.0015450309 5.4539602e-20)
(0.63612029 0.0013645363 0)
(0.63106808 0.0012204305 0)
(0.62638038 0.0011102113 0)
(0.62196481 0.0010294883 0)
(0.61774129 0.00097135762 0)
(0.61364473 0.0009293178 0)
(0.60962715 0.00089816909 -2.5638756e-22)
(0.60564773 0.00087105021 0)
(0.60170269 0.00084417667 0)
(0.59778642 0.00081730901 0)
(0.59390052 0.00078932074 0)
(0.59005182 0.00076006317 0)
(0.58624796 0.00072988859 0)
(0.58249613 0.0006992902 0)
(0.57880213 0.00066876379 0)
(0.5751701 0.00063872107 0)
(0.57160266 0.00060945809 0)
(0.56810118 0.0005811659 0)
(0.56466608 0.00055395675 0)
(0.56129709 0.00052788421 0)
(0.55799349 0.0005029608 0)
(0.55475424 0.0004791762 0)
(0.5515781 0.00045651088 0)
(0.54846365 0.00043493793 0)
(0.54540934 0.00041442918 0)
(0.54241345 0.00039496075 0)
(0.5394741 0.00037652381 0)
(0.53658905 0.00035911471 0)
(0.53375584 0.00034279349 0)
(0.53097074 0.00032755855 0)
(0.52823063 0.00031387132 0)
(0.52552379 0.0003009582 0)
(0.52285842 0.00029350165 0)
(0.52014382 0.00027706324 0)
(0.51767914 0.0003158982 0)
(0.51370311 0.00022244281 0)
(0.98000413 0.019328671 0)
(0.9821348 0.022910987 0)
(0.98535939 0.025526693 0)
(0.98893976 0.026860201 0)
(0.99229561 0.027164165 0)
(0.99517434 0.026819479 0)
(0.99756376 0.026107874 0)
(0.99953534 0.025206996 0)
(1.001167 0.024217428 0)
(1.00252 0.023189817 0)
(1.0036372 0.022155428 0)
(1.0045527 0.021138114 0)
(1.0052962 0.020154072 0)
(1.0058929 0.019214829 0)
(1.0063653 0.018330341 0)
(1.0067342 0.017505958 0)
(1.0070167 0.016743135 0)
(1.0072269 0.016044252 0)
(1.0073793 0.015408976 0)
(1.0074833 0.014834414 0)
(1.00755 0.014316708 0)
(1.0075881 0.013850759 0)