/*--------------------------------*- C++ -*----------------------------------*\
| =========                 |                                                 |
| \\      /  F ield         | OpenFOAM: The Open Source CFD Toolbox           |
|  \\    /   O peration     | Version:  2206                                  |
|   \\  /    A nd           | Website:  www.openfoam.com                      |
|    \\/     M anipulation  |                                                 |
\*---------------------------------------------------------------------------*/
FoamFile
{
    version     2.0;
    format      ascii;
    arch        "LSB;label=32;scalar=64";
    class       volScalarField;
    location    "1700";
    object      epsilon;
}
// * * * * * * * * * * * * * * * * * * * * * * * * * * * * * * * * * * * * * //

dimensions      [0 2 -3 0 0 0 0];

internalField   nonuniform List<scalar> 
7480
(
5.7745942
15.518992
18.081442
15.979244
12.85893
10.361172
8.6754878
7.5233207
6.6769002
6.0124642
5.4734021
5.0316299
4.66817
4.3679943
4.1189033
3.9106068
3.7354562
3.587627
3.4619908
3.3546656
3.261387
3.1793563
3.1062603
3.0402574
2.9801157
2.9248378
2.8737239
2.8261027
2.7813847
2.7390804
2.6989042
2.6606639
2.6241559
2.5892113
2.5556463
2.5233537
2.4921128
2.4618611
2.4325118
2.4039693
2.376166
2.3490399
2.3225425
2.2966404
2.2712953
2.2464796
2.2221566
2.198289
2.1748545
2.1518296
2.1291957
2.1069397
2.0850458
2.0635047
2.0423015
2.0214251
2.0008661
1.9806109
1.9606463
1.9409631
1.9215584
1.9024276
1.8835636
1.8649602
1.8466123
1.8285151
1.8106608
1.7930434
1.7756587
1.758503
1.7415718
1.7248603
1.7083648
1.6920825
1.6760089
1.6601396
1.6444706
1.628998
1.6137183
1.5986275
1.5837219
1.5689974
1.5544504
1.5400762
1.5258706
1.5118284
1.4979444
1.4842112
1.4706236
1.4571667
1.443841
1.4306017
1.4174902
1.4043344
1.391379
1.3779472
1.3649987
1.3502308
1.3384535
1.3159169
0.34630403
1.5993685
2.8408711
3.2971734
3.1719473
2.8639082
2.5633475
2.3193197
2.1209604
1.9511398
1.8029453
1.6748111
1.5653717
1.472459
1.3936549
1.3262776
1.2685249
1.2190334
1.1764775
1.1395826
1.1072243
1.0785028
1.0526822
1.0292226
1.0077605
0.98798807
0.96968565
0.95261404
0.93657227
0.92140179
0.90700671
0.89331902
0.88026835
0.86779386
0.85582486
0.8443276
0.83321827
0.82247702
0.81207506
0.8019775
0.79215711
0.78259253
0.77326609
0.76416361
0.7552715
0.7465785
0.73807054
0.72973457
0.72156108
0.71354178
0.70566987
0.6979396
0.69034514
0.68288207
0.6755449
0.66832951
0.6612318
0.65424673
0.64736923
0.64059591
0.63392522
0.62735525
0.62088314
0.6145064
0.60822301
0.60203095
0.59592729
0.5899097
0.58397658
0.57812636
0.57235727
0.56666752
0.56105559
0.5555203
0.55006
0.54467299
0.53935773
0.53411283
0.52893687
0.52382844
0.51878614
0.51380853
0.50889421
0.50404165
0.49924932
0.49451548
0.48983839
0.48521577
0.48064567
0.47612417
0.47165007
0.46721314
0.46281935
0.45843204
0.45409598
0.44967031
0.44533687
0.44059983
0.4365694
0.42927901
0.010436908
0.063653614
0.16390796
0.28162999
0.38484485
0.47616165
0.55968403
0.63118402
0.68700862
0.7284718
0.75715418
0.77381325
0.77975431
0.77719558
0.76871523
0.75670089
0.74282066
0.72807359
0.71304297
0.6980667
0.68335953
0.66905534
0.65521091
0.64188119
0.62910744
0.61688091
0.60524845
0.59414381
0.58351962
0.57333561
0.56357793
0.55422928
0.54526408
0.53665839
0.52837555
0.52040537
0.51270092
0.50525766
0.49805918
0.49108536
0.48431957
0.47774881
0.47136192
0.46514855
0.45909918
0.45320531
0.44745675
0.44184476
0.43636205
0.43100236
0.42576042
0.42063105
0.41560943
0.41069129
0.4058721
0.40114828
0.39651603
0.39197127
0.38751006
0.38312961
0.37882785
0.37460266
0.37045145
0.36637189
0.36236203
0.35841989
0.35454306
0.35072957
0.34697789
0.34328646
0.3396537
0.33607803
0.33255807
0.3290926
0.32568021
0.32231949
0.31900916
0.31574801
0.31253486
0.30936855
0.30624794
0.3031719
0.3001393
0.29714903
0.29419992
0.29129078
0.28842035
0.28558723
0.28279
0.28002665
0.27729571
0.27459306
0.27191865
0.26925996
0.26662678
0.2639739
0.26134714
0.25857334
0.25609924
0.25178276
0.00038826202
0.0025424191
0.0091314974
0.019321579
0.032151844
0.047261912
0.066826813
0.091046824
0.12649369
0.17017097
0.21727766
0.26312337
0.30632542
0.34585492
0.3804554
0.40900652
0.43101681
0.44675382
0.4570588
0.46298632
0.4655122
0.46543268
0.46337173
0.45982116
0.45518757
0.4497802
0.44386192
0.43761853
0.43117965
0.42464677
0.41809738
0.41159047
0.40516665
0.39885726
0.3926734
0.38663443
0.38071902
0.3749507
0.36932606
0.36384419
0.35850248
0.35329813
0.34822813
0.34328875
0.33847606
0.33378604
0.32921268
0.32475141
0.32039791
0.3161482
0.31199875
0.30794581
0.30398587
0.30011554
0.29633119
0.29262985
0.28900828
0.28546321
0.28199147
0.2785906
0.27525856
0.27199325
0.26879235
0.26565371
0.26257545
0.25955565
0.2565922
0.2536833
0.25082743
0.24802308
0.24526874
0.24256292
0.23990428
0.23729159
0.2347235
0.23219872
0.22971607
0.22727438
0.22487257
0.22250956
0.22018428
0.21789572
0.21564286
0.21342471
0.21124025
0.20908848
0.20696834
0.20487874
0.2028185
0.20078629
0.19878069
0.19679967
0.19484153
0.19290175
0.19097957
0.18906112
0.18715065
0.18518282
0.18337363
0.18029797
4.2049387e-05
0.00015250058
0.00054737198
0.0014412183
0.0029441906
0.0049744313
0.0075311323
0.010765009
0.015291658
0.021985536
0.031492631
0.046281367
0.066516957
0.090990274
0.11836466
0.14745156
0.17735053
0.20688378
0.23461423
0.25919433
0.27975254
0.29605778
0.30839535
0.31730298
0.32336026
0.3270798
0.32891022
0.32923895
0.32839412
0.32664131
0.32419117
0.32121375
0.31784511
0.31419242
0.31033865
0.30635648
0.30228176
0.29816092
0.29402625
0.28990059
0.2858017
0.28174437
0.27773985
0.27379628
0.26991984
0.26611499
0.26238335
0.25872571
0.25514237
0.25163352
0.24819918
0.24483863
0.24155084
0.23833457
0.23518815
0.23211009
0.22909856
0.22615154
0.22326692
0.22044304
0.21767847
0.21497168
0.2123209
0.20972451
0.20718094
0.2046886
0.20224578
0.19985098
0.19750289
0.19520018
0.19294152
0.19072561
0.18855123
0.18641725
0.18432248
0.18226575
0.18024599
0.17826216
0.17631325
0.17439827
0.17251628
0.17066634
0.16884754
0.16705898
0.16529976
0.163569
0.16186579
0.16018921
0.15853826
0.15691196
0.155309
0.15372833
0.15216778
0.15062625
0.14909919
0.14758573
0.14607493
0.14454685
0.14312005
0.14072501
1.6741895e-05
3.1305112e-05
6.9402324e-05
0.00015092098
0.00030411125
0.00055614074
0.00093228347
0.0014541091
0.0021556902
0.0031109231
0.0044116255
0.0063129031
0.0091278155
0.01317748
0.019294179
0.028573471
0.041054411
0.056755658
0.075200139
0.095837554
0.11793536
0.1404448
0.16210006
0.18174947
0.19865458
0.21257422
0.22364491
0.23218473
0.23854996
0.24307509
0.24606354
0.24778797
0.24848496
0.24835224
0.24755325
0.24622853
0.24448247
0.24240651
0.24007613
0.23755145
0.23488116
0.23210506
0.22925567
0.22635942
0.22343764
0.2205075
0.21758269
0.21467363
0.21178858
0.2089342
0.20611584
0.20333748
0.20060221
0.19791232
0.19526931
0.19267445
0.19012805
0.18763002
0.18517999
0.1827777
0.18042282
0.17811485
0.17585301
0.17363644
0.1714643
0.16933563
0.16724934
0.1652044
0.1631999
0.16123488
0.15930831
0.15741919
0.15556656
0.15374953
0.15196711
0.15021834
0.14850232
0.14681817
0.14516501
0.14354202
0.14194835
0.1403832
0.13884576
0.13733526
0.13585092
0.13439196
0.1329576
0.13154707
0.1301595
0.12879414
0.12744984
0.12612603
0.12482052
0.1235338
0.12226013
0.12100423
0.11975017
0.11849795
0.11732323
0.1153573
1.2126754e-05
1.626698e-05
2.4400063e-05
3.8695965e-05
6.2273589e-05
9.9127925e-05
0.00015450926
0.00023501156
0.00034886808
0.00050824439
0.0007281218
0.0010343721
0.0014667704
0.0020755434
0.0029479763
0.0042506558
0.0061742019
0.0089402643
0.013227413
0.019705357
0.028627257
0.040190019
0.054091075
0.069973364
0.087188745
0.10480461
0.12177136
0.13721305
0.15062382
0.1618696
0.17105534
0.17838415
0.18407982
0.18836275
0.19144302
0.19351594
0.1947477
0.19528148
0.19524075
0.19472954
0.19383505
0.19263012
0.19117568
0.18952267
0.18771346
0.18578314
0.18376105
0.1816711
0.17953291
0.17736272
0.17517391
0.17297753
0.17078259
0.16859645
0.16642514
0.16427357
0.1621456
0.16004412
0.15797133
0.15592899
0.15391853
0.15194101
0.14999702
0.14808696
0.14621109
0.14436939
0.14256157
0.14078734
0.1390464
0.13733833
0.13566265
0.13401878
0.13240612
0.13082411
0.12927209
0.12774939
0.12625534
0.1247893
0.1233506
0.12193858
0.12055258
0.11919196
0.11785604
0.1165442
0.11525578
0.11399014
0.11274662
0.11152459
0.11032331
0.1091422
0.10798027
0.10683723
0.10571108
0.10460298
0.10350717
0.10243056
0.10135655
0.10029345
0.099298498
0.097628849
1.0688448e-05
1.2478477e-05
1.543334e-05
1.9902554e-05
2.6378026e-05
3.5487626e-05
4.8045473e-05
6.5145427e-05
8.8220786e-05
0.00011930951
0.00016118569
0.00021790129
0.00029565262
0.00040307115
0.00055262919
0.00076526437
0.0010717256
0.0015096727
0.0021540331
0.0031306747
0.0046031217
0.0067604424
0.010228332
0.015442708
0.022693239
0.032101484
0.043464583
0.056421344
0.070340202
0.084382917
0.097727978
0.10978626
0.12027775
0.12916384
0.1365321
0.14251897
0.14727532
0.15095574
0.15370985
0.15567398
0.15696889
0.15770029
0.15795961
0.15782555
0.15736529
0.15663581
0.15568574
0.15455602
0.15328106
0.15188976
0.15040638
0.14885133
0.14724174
0.14559195
0.14391406
0.14221812
0.14051261
0.13880446
0.13709936
0.13540201
0.13371631
0.13204553
0.13039224
0.12875849
0.12714596
0.125556
0.12398951
0.12244719
0.12092958
0.11943705
0.11796979
0.11652785
0.11511114
0.11371956
0.11235289
0.11101085
0.10969309
0.10839927
0.107129
0.10588187
0.10465743
0.10345525
0.10227483
0.10111572
0.099977426
0.098859447
0.09776127
0.096682399
0.095622253
0.094580384
0.093555978
0.092548918
0.091557447
0.090583027
0.089620324
0.088676821
0.087737164
0.086812257
0.08595239
0.084500948
1.0024131e-05
1.1048908e-05
1.2482521e-05
1.4426187e-05
1.7008354e-05
2.0383463e-05
2.4732454e-05
3.0269596e-05
3.7275839e-05
4.6127581e-05
5.7334697e-05
7.1601842e-05
8.9955618e-05
0.00011385189
0.00014537001
0.00018765683
0.00024558541
0.00032583566
0.00043886653
0.00060199994
0.00084230993
0.0011933318
0.0017295112
0.0025647761
0.0038443921
0.0058323275
0.0090332394
0.013754883
0.020265107
0.028518683
0.038336854
0.049299868
0.060766729
0.072029367
0.082513466
0.09188672
0.10003348
0.10696704
0.11275943
0.11750912
0.12132755
0.12432828
0.12661869
0.1282971
0.12945182
0.1301608
0.13049242
0.13050605
0.13025278
0.12977646
0.12911449
0.12829885
0.12735681
0.12631155
0.12518288
0.12398755
0.12273988
0.12145197
0.12013404
0.11879469
0.11744117
0.11607963
0.11471524
0.11335227
0.11199433
0.11064447
0.10930518
0.10797849
0.10666606
0.10536928
0.10408925
0.10282682
0.10158261
0.10035713
0.09915071
0.097963562
0.096795799
0.095647456
0.094518495
0.093408815
0.092318265
0.091246646
0.090193721
0.089159225
0.08814286
0.087144312
0.086163231
0.085199275
0.084252024
0.08332117
0.082406078
0.081506762
0.080621742
0.079752559
0.078894526
0.078054919
0.077220351
0.076401598
0.075647277
0.074364565
9.5960433e-06
1.0296295e-05
1.1154661e-05
1.2194899e-05
1.3468912e-05
1.5038077e-05
1.6966297e-05
1.9334414e-05
2.2217739e-05
2.5706696e-05
2.9919324e-05
3.5011987e-05
4.1199525e-05
4.8752957e-05
5.8074732e-05
6.9732609e-05
8.4564869e-05
0.00010375353
0.00012902156
0.00016301514
0.00021000206
0.00027582425
0.00037049224
0.00051102667
0.0007227674
0.0010457357
0.0015585291
0.0023763059
0.0036370761
0.0057304428
0.0089863199
0.01367161
0.019871108
0.027492332
0.036249893
0.045649142
0.055097168
0.06407901
0.072267546
0.079518648
0.085805014
0.091158316
0.095640734
0.099331494
0.10231597
0.10467797
0.10649659
0.10784443
0.10878678
0.10938156
0.10967957
0.10972521
0.10955704
0.1092084
0.10870813
0.10808098
0.10734832
0.10652853
0.10563736
0.10468829
0.10369278
0.10266067
0.10160037
0.10051899
0.099422619
0.098316479
0.097205012
0.096091943
0.094980429
0.093873146
0.092772342
0.091679887
0.090597319
0.08952591
0.088466713
0.087420565
0.086388139
0.085369961
0.084366436
0.08337786
0.082404432
0.081446274
0.080503434
0.079575905
0.078663623
0.077766489
0.076884348
0.076017043
0.075164327
0.074326049
0.07350176
0.072691591
0.071894352
0.071111569
0.070339262
0.069584155
0.068835024
0.068101261
0.067432051
0.066284957
9.2589229e-06
9.784939e-06
1.0377049e-05
1.1027723e-05
1.1760229e-05
1.261068e-05
1.3617274e-05
1.4818614e-05
1.6247051e-05
1.7932434e-05
1.9907915e-05
2.2213336e-05
2.4900543e-05
2.8060878e-05
3.1792406e-05
3.6226157e-05
4.1547284e-05
4.8014199e-05
5.5967704e-05
6.5884943e-05
7.8521954e-05
9.4942726e-05
0.00011676442
0.00014660297
0.00018854404
0.00024883002
0.00033846161
0.00047637606
0.00068838408
0.0010293525
0.0015884687
0.0024795241
0.003962016
0.0063558255
0.0099154461
0.014769112
0.020877446
0.028033551
0.035838441
0.043793907
0.051456073
0.058532484
0.06488094
0.070457239
0.075270206
0.079359033
0.082780756
0.085599968
0.087882253
0.089690929
0.091085035
0.092118487
0.092839741
0.093291835
0.093512767
0.093535803
0.093390059
0.093100947
0.092690568
0.092178051
0.091579894
0.090910356
0.090181748
0.089404671
0.088588247
0.087740364
0.086867841
0.08597651
0.085071364
0.084156691
0.083236168
0.082312931
0.081389642
0.080468557
0.079551602
0.078640396
0.077736303
0.076840462
0.075953825
0.075077173
0.074211142
0.073356243
0.072512874
0.071681342
0.070861866
0.070054603
0.069259635
0.068477013
0.067706695
0.066948705
0.066202797
0.065469222
0.06474708
0.064037857
0.063338271
0.062654373
0.061977049
0.061313821
0.060715162
0.059680622
8.9715852e-06
9.383268e-06
9.8278254e-06
1.0285142e-05
1.0761468e-05
1.1277733e-05
1.1860737e-05
1.2536893e-05
1.332753e-05
1.4249284e-05
1.5316837e-05
1.654491e-05
1.7949602e-05
1.9556705e-05
2.1397258e-05
2.3508951e-05
2.5940459e-05
2.875379e-05
3.2046795e-05
3.5957831e-05
4.0658896e-05
4.6386984e-05
5.3483845e-05
6.2428148e-05
7.3949578e-05
8.9152376e-05
0.00010978174
0.00013881522
0.00018059311
0.00024282339
0.00033949217
0.00049131668
0.00073821103
0.0011518525
0.0018291948
0.0029709486
0.0048601814
0.007731112
0.011712665
0.016791018
0.022797546
0.029390365
0.036145343
0.042689769
0.048778243
0.054286107
0.05916689
0.063418956
0.067068277
0.070157114
0.072735104
0.074854012
0.076564663
0.077915081
0.078949612
0.079708473
0.080227814
0.080539862
0.080673168
0.080652852
0.080500901
0.08023653
0.079876506
0.079435435
0.078926003
0.078359252
0.077744802
0.077090987
0.07640501
0.075693108
0.074960682
0.0742124
0.073452286
0.072683796
0.071909921
0.071133226
0.070355914
0.069579874
0.068806718
0.068037819
0.067274343
0.066517269
0.06576742
0.065025479
0.064292007
0.063567464
0.062852212
0.062146549
0.06145067
0.060764801
0.060088915
0.059423403
0.05876766
0.058123131
0.057487203
0.056865248
0.056250092
0.055647318
0.055108644
0.054170139
8.7206207e-06
9.0477476e-06
9.395765e-06
9.7424941e-06
1.0084687e-05
1.0432063e-05
1.0801907e-05
1.1213392e-05
1.1683113e-05
1.2224038e-05
1.2846444e-05
1.3558918e-05
1.4369154e-05
1.528649e-05
1.6322505e-05
1.7491096e-05
1.8809206e-05
2.0297131e-05
2.1983482e-05
2.3909016e-05
2.6124391e-05
2.8694234e-05
3.1698932e-05
3.5276908e-05
3.9619712e-05
4.4975052e-05
5.1704658e-05
6.036924e-05
7.1758149e-05
8.715606e-05
0.00010879158
0.00014010528
0.00018698352
0.00026046242
0.00037778791
0.00057140306
0.00090251683
0.0014564369
0.0024104081
0.0040102465
0.0064679772
0.0098905055
0.0142691
0.019446011
0.02511105
0.030900067
0.036508108
0.041739793
0.046494093
0.050729983
0.05444308
0.057652468
0.060390726
0.062696876
0.064612269
0.066177949
0.067433146
0.068414429
0.069155308
0.069686086
0.070033891
0.07022287
0.070274406
0.070207373
0.070038358
0.069781922
0.069450847
0.069056318
0.068608088
0.068114667
0.067583477
0.067020989
0.066432834
0.065823898
0.065198435
0.064560139
0.063912215
0.063257442
0.062598227
0.06193665
0.061274505
0.060613337
0.059954469
0.059299035
0.058648
0.058002187
0.057362283
0.056728882
0.05610245
0.055483446
0.054872091
0.054268941
0.053673687
0.053087761
0.052509177
0.051942681
0.051382836
0.050833419
0.050346999
0.049492495
8.4987765e-06
8.760554e-06
9.0380094e-06
9.3118114e-06
9.5748991e-06
9.8299298e-06
1.0086519e-05
1.0357423e-05
1.0655056e-05
1.0990042e-05
1.1371103e-05
1.1805234e-05
1.2298077e-05
1.2854833e-05
1.3481055e-05
1.4183037e-05
1.4968056e-05
1.5844551e-05
1.6823176e-05
1.7918354e-05
1.9148445e-05
2.0536481e-05
2.2109295e-05
2.3906411e-05
2.5983331e-05
2.8410809e-05
3.1278256e-05
3.4726781e-05
3.8982582e-05
4.4328843e-05
5.1216887e-05
6.030401e-05
7.259964e-05
8.9908333e-05
0.00011511633
0.00015312819
0.00021339275
0.00031101412
0.00047523805
0.00076188083
0.0012490315
0.0021104357
0.0035590735
0.0057828733
0.0088542578
0.012754488
0.017316944
0.022252923
0.0272527
0.032074662
0.036570011
0.04066141
0.044316711
0.047532925
0.05032573
0.052721382
0.054751503
0.056449762
0.057849772
0.058983815
0.059882112
0.06057249
0.061080236
0.061428147
0.061636607
0.061723753
0.061705683
0.061596633
0.061409149
0.061154268
0.060841691
0.060479936
0.060076474
0.059637841
0.059169757
0.058677231
0.058164639
0.057635802
0.05709406
0.056542323
0.055983128
0.055418681
0.054850898
0.054281443
0.053711755
0.053143083
0.052576496
0.052012932
0.05145317
0.050897945
0.050347754
0.049803345
0.049264722
0.048733336
0.048207787
0.04769228
0.047182907
0.046681878
0.046242067
0.04546273
8.3000664e-06
8.5108843e-06
8.7341755e-06
8.9547137e-06
9.1649072e-06
9.3638609e-06
9.5561063e-06
9.7492515e-06
9.9516739e-06
1.0171363e-05
1.0415512e-05
1.0690239e-05
1.1000572e-05
1.1350714e-05
1.1744474e-05
1.2185617e-05
1.2678061e-05
1.3226072e-05
1.3834592e-05
1.4509791e-05
1.5259407e-05
1.6093113e-05
1.7022233e-05
1.8061324e-05
1.9229995e-05
2.0553616e-05
2.2062978e-05
2.3799612e-05
2.5827369e-05
2.8227789e-05
3.1108352e-05
3.4647895e-05
3.9111615e-05
4.4879012e-05
5.2547299e-05
6.2965411e-05
7.7717966e-05
9.9368959e-05
0.00013238115
0.00018553148
0.00027282925
0.0004232827
0.00069096795
0.0011521902
0.0019880383
0.0033829237
0.0054847668
0.008345102
0.011912545
0.016000551
0.020341407
0.024680631
0.028835484
0.032697309
0.036209603
0.039349848
0.042118141
0.044528618
0.046603424
0.048368837
0.049852707
0.051082838
0.052085962
0.052887187
0.053509688
0.053974593
0.054301005
0.054506092
0.054605196
0.05461197
0.054538535
0.054395624
0.054192728
0.053938213
0.053639452
0.053302937
0.052934379
0.052538795
0.052120596
0.05168365
0.051231353
0.050766679
0.050292232
0.049810291
0.049322847
0.048831642
0.048338193
0.047843833
0.047349705
0.046856861
0.046366109
0.045878428
0.04539415
0.044914784
0.044439486
0.043972018
0.043509799
0.043053762
0.0426565
0.041945882
8.119291e-06
8.2903204e-06
8.4713886e-06
8.6509936e-06
8.8223633e-06
8.9832227e-06
9.1352709e-06
9.2826757e-06
9.4305838e-06
9.584394e-06
9.7494518e-06
9.9307269e-06
1.0132615e-05
1.0358902e-05
1.0612882e-05
1.089753e-05
1.121562e-05
1.156988e-05
1.1963181e-05
1.2398753e-05
1.2880401e-05
1.3412734e-05
1.4001182e-05
1.4652297e-05
1.5374376e-05
1.6178028e-05
1.7076226e-05
1.8085009e-05
1.9226652e-05
2.0530464e-05
2.2032515e-05
2.3785226e-05
2.5864488e-05
2.8373454e-05
3.1447659e-05
3.5347719e-05
4.0421036e-05
4.7209123e-05
5.6524461e-05
6.9855205e-05
8.961622e-05
0.00012023367
0.00017048
0.00025426861
0.00040324199
0.000670367
0.0011501972
0.0020130781
0.0034223105
0.005482003
0.0082152627
0.011530297
0.015224045
0.019057551
0.022831736
0.026414508
0.02972932
0.032737209
0.035424646
0.03779485
0.039861287
0.041643321
0.043163288
0.044444584
0.045510419
0.046383064
0.047083419
0.047630812
0.048042913
0.048335743
0.048523736
0.048619833
0.048635601
0.048581331
0.048466167
0.048298218
0.048084663
0.04783185
0.047545389
0.047230233
0.046890747
0.046530781
0.046153725
0.045762563
0.045359919
0.044948103
0.044529141
0.044104826
0.043676715
0.043246225
0.042814516
0.042382841
0.041951875
0.041523238
0.041096612
0.040675417
0.040258231
0.039844994
0.03948746
0.038840953
7.9521867e-06
8.0920504e-06
8.2400229e-06
8.3875294e-06
8.5289396e-06
8.661647e-06
8.7859444e-06
8.9039953e-06
9.0187972e-06
9.1337203e-06
9.2523602e-06
9.3783435e-06
9.5151526e-06
9.6660078e-06
9.8338276e-06
1.0021248e-05
1.0230636e-05
1.0464167e-05
1.0723944e-05
1.1012094e-05
1.1330894e-05
1.1682901e-05
1.2071044e-05
1.2498723e-05
1.2970006e-05
1.3489917e-05
1.4064598e-05
1.4701429e-05
1.540986e-05
1.6202166e-05
1.709342e-05
1.8103328e-05
1.9258796e-05
2.0596208e-05
2.2159373e-05
2.4021457e-05
2.6282252e-05
2.9075648e-05
3.2626e-05
3.7289857e-05
4.3590044e-05
5.234606e-05
6.5071955e-05
8.416981e-05
0.00011453007
0.00016503026
0.00025217821
0.00041146834
0.00069743094
0.0012302146
0.0021651154
0.0036371255
0.0057095109
0.0083622372
0.011461211
0.014802113
0.018186518
0.021468075
0.024554967
0.02739514
0.029963869
0.032255066
0.034274592
0.036035588
0.037555302
0.038852951
0.039948329
0.040860928
0.0416094
0.042211234
0.042682604
0.043038313
0.043291809
0.043455227
0.043539475
0.043554314
0.043508464
0.043409692
0.043264906
0.043080241
0.042861139
0.042612421
0.042338355
0.042042719
0.041728852
0.041399706
0.041057887
0.040705709
0.040345199
0.039978195
0.039606247
0.039230927
0.038853282
0.038475091
0.038096546
0.037720825
0.037347512
0.036975842
0.03665621
0.036070676
7.7954234e-06
7.9107238e-06
8.0326146e-06
8.1547127e-06
8.272463e-06
8.3833471e-06
8.4869931e-06
8.5844637e-06
8.6774837e-06
8.7680936e-06
8.8585694e-06
8.9513375e-06
9.0488886e-06
9.1536968e-06
9.2681556e-06
9.394532e-06
9.5349127e-06
9.6912115e-06
9.8652146e-06
1.0058624e-05
1.0273112e-05
1.0510399e-05
1.0772327e-05
1.1060922e-05
1.1378477e-05
1.1727683e-05
1.2111752e-05
1.2534485e-05
1.3000508e-05
1.3515628e-05
1.4086969e-05
1.4723401e-05
1.5436354e-05
1.6240989e-05
1.7155514e-05
1.8205769e-05
1.9427456e-05
2.0866031e-05
2.2588274e-05
2.4694639e-05
2.732182e-05
3.0684935e-05
3.5160966e-05
4.1275181e-05
4.9933596e-05
6.2703384e-05
8.2313577e-05
0.00011448522
0.00016883498
0.00026663882
0.00044747652
0.00078183728
0.0014046509
0.0024533259
0.0040188066
0.0061275535
0.0087059717
0.01159188
0.014599899
0.017578308
0.020425125
0.023078667
0.0255056
0.027692292
0.029638187
0.031351011
0.032843472
0.034131011
0.035230288
0.036158196
0.036931222
0.037565058
0.038074389
0.038472782
0.038772652
0.038985281
0.03912087
0.0391886
0.039196708
0.039152568
0.039062763
0.038933162
0.038768992
0.038574898
0.038355011
0.038112998
0.037852114
0.037575252
0.037284974
0.036983584
0.036673077
0.036355385
0.036031961
0.035704791
0.03537457
0.035044331
0.03471454
0.034383989
0.034101253
0.033574764
7.6464663e-06
7.7422545e-06
7.8434443e-06
7.9452736e-06
8.0441001e-06
8.1376402e-06
8.2252138e-06
8.3072673e-06
8.3847929e-06
8.459039e-06
8.5314324e-06
8.603531e-06
8.6769942e-06
8.7535589e-06
8.8350083e-06
8.9231334e-06
9.0196698e-06
9.1262674e-06
9.24449e-06
9.3758164e-06
9.5216533e-06
9.6833651e-06
9.8623191e-06
1.0059928e-05
1.0277691e-05
1.0517263e-05
1.0780527e-05
1.106965e-05
1.1387168e-05
1.1736142e-05
1.2120267e-05
1.2544034e-05
1.3012989e-05
1.3534248e-05
1.4116459e-05
1.4770793e-05
1.551222e-05
1.6359725e-05
1.7338572e-05
1.8484484e-05
1.9844863e-05
2.1485625e-05
2.3512887e-05
2.6067241e-05
2.9382398e-05
3.3854929e-05
4.0063885e-05
4.9068954e-05
6.2586825e-05
8.407732e-05
0.00012018955
0.000183353
0.00030156434
0.00051959503
0.00093922992
0.0016887267
0.0028763918
0.0045539096
0.0066937095
0.0091752483
0.011833981
0.014520668
0.017128185
0.019588398
0.021861684
0.023928579
0.025783356
0.02742924
0.028875074
0.030133
0.031216873
0.032141203
0.032920464
0.033568644
0.034098989
0.034523845
0.034854603
0.035101685
0.035274565
0.035381818
0.03543117
0.035429568
0.035383236
0.035297748
0.03517808
0.035028678
0.034853502
0.03465609
0.034439587
0.034206823
0.033960279
0.0337023
0.033434775
0.03315995
0.032879022
0.032594971
0.032309043
0.032019833
0.031773677
0.031305332
7.5034057e-06
7.5835652e-06
7.6681908e-06
7.7537187e-06
7.837256e-06
7.9167974e-06
7.9915329e-06
8.0615463e-06
8.1273877e-06
8.1898349e-06
8.2498055e-06
8.3083081e-06
8.3664243e-06
8.4253111e-06
8.4862016e-06
8.5503953e-06
8.6192185e-06
8.6939949e-06
8.7760297e-06
8.8665908e-06
8.9668959e-06
9.0781135e-06
9.2013786e-06
9.337813e-06
9.488548e-06
9.6547584e-06
9.8377053e-06
1.0038774e-05
1.0259521e-05
1.0501739e-05
1.0767533e-05
1.1059393e-05
1.1380303e-05
1.1733953e-05
1.2124824e-05
1.2558449e-05
1.3041933e-05
1.3584234e-05
1.4196731e-05
1.4894593e-05
1.5697689e-05
1.6631752e-05
1.7734458e-05
1.9055371e-05
2.0665807e-05
2.2679728e-05
2.5247404e-05
2.8647515e-05
3.3305257e-05
3.9933473e-05
4.9758063e-05
6.4920527e-05
9.0085156e-05
0.00013321415
0.00021295396
0.00036331809
0.00065278779
0.0011955428
0.0021038254
0.0034446717
0.005223495
0.0073558942
0.0097005231
0.01211578
0.014493628
0.016762416
0.018878394
0.020817901
0.022571254
0.024138097
0.025524084
0.026738547
0.027792895
0.028699516
0.029471046
0.030119898
0.030657958
0.031096414
0.031445668
0.031715296
0.031914053
0.0320499
0.032130045
0.032160992
0.032148591
0.032098102
0.032014237
0.031901223
0.031762838
0.031602484
0.031423174
0.031227713
0.031018457
0.030797967
0.030567947
0.030331406
0.030090293
0.029843222
0.029633927
0.029223716
7.3648075e-06
7.4323475e-06
7.5036098e-06
7.5759179e-06
7.6469853e-06
7.7150879e-06
7.7793849e-06
7.8397421e-06
7.8964251e-06
7.9499134e-06
8.0008124e-06
8.0497986e-06
8.0975934e-06
8.1449644e-06
8.1927369e-06
8.2418015e-06
8.2931007e-06
8.3476166e-06
8.4063605e-06
8.4703546e-06
8.5406129e-06
8.618128e-06
8.7038684e-06
8.7987821e-06
8.9038021e-06
9.019862e-06
9.147918e-06
9.2889707e-06
9.444092e-06
9.6144609e-06
9.8014023e-06
1.0006433e-05
1.0231314e-05
1.0478141e-05
1.0749421e-05
1.1048171e-05
1.1378116e-05
1.1743884e-05
1.2151209e-05
1.260741e-05
1.312189e-05
1.3706477e-05
1.4377213e-05
1.5155095e-05
1.6067849e-05
1.7156518e-05
1.8473702e-05
2.010275e-05
2.2168232e-05
2.4844422e-05
2.8472692e-05
3.3541221e-05
4.0983695e-05
5.2251856e-05
7.0496869e-05
0.00010158988
0.0001578769
0.00026536804
0.00047120272
0.00087261365
0.0015769332
0.0026592565
0.0041465203
0.0059839124
0.0080526626
0.01022162
0.012384967
0.014469993
0.016430745
0.018240873
0.019887884
0.021368695
0.02268641
0.023848038
0.024862898
0.025741522
0.02649491
0.027134041
0.027669556
0.028111559
0.028469515
0.02875219
0.028967641
0.02912323
0.029225648
0.029280958
0.029294638
0.029271627
0.029216367
0.029132869
0.029024716
0.028895211
0.028747214
0.028583643
0.028406721
0.028219564
0.028024761
0.027821145
0.027649512
0.027298219
7.2295969e-06
7.2868699e-06
7.3472667e-06
7.4087689e-06
7.4695764e-06
7.5282302e-06
7.5839172e-06
7.6363764e-06
7.6856855e-06
7.7321207e-06
7.7760813e-06
7.8180341e-06
7.8584798e-06
7.8979457e-06
7.9369907e-06
7.9762166e-06
8.0162676e-06
8.0578315e-06
8.10164e-06
8.1484615e-06
8.1990865e-06
8.2543149e-06
8.3149474e-06
8.3817793e-06
8.4555969e-06
8.5371802e-06
8.6273113e-06
8.7267838e-06
8.8364166e-06
8.9570732e-06
9.0896824e-06
9.2352649e-06
9.3949631e-06
9.5700842e-06
9.762147e-06
9.9729344e-06
1.0204578e-05
1.045966e-05
1.0741323e-05
1.1053448e-05
1.1400909e-05
1.1789746e-05
1.222773e-05
1.2724883e-05
1.3293926e-05
1.3952433e-05
1.4722865e-05
1.5636745e-05
1.6739781e-05
1.8090756e-05
1.9790896e-05
2.1979689e-05
2.4888763e-05
2.8914334e-05
3.4729919e-05
4.3470229e-05
5.7294036e-05
8.0708027e-05
0.00012217134
0.00020182043
0.00035356674
0.00065755909
0.0012123382
0.00209868
0.0033546318
0.0049472442
0.0067778497
0.0087270834
0.010693715
0.012605998
0.014417366
0.016100042
0.017639707
0.01903131
0.020275994
0.02137889
0.022347574
0.023190985
0.023918691
0.024540394
0.025065602
0.025503427
0.025862456
0.026150697
0.026375542
0.026543777
0.026661597
0.026734637
0.026768006
0.026766336
0.026733802
0.026674233
0.026591019
0.026487476
0.026366357
0.026230954
0.026084446
0.025926064
0.025793359
0.025502484
7.0969719e-06
7.1458322e-06
7.19733e-06
7.2499354e-06
7.3022352e-06
7.3530104e-06
7.4015082e-06
7.4474028e-06
7.4906486e-06
7.5313798e-06
7.5698497e-06
7.6063811e-06
7.6413316e-06
7.6750786e-06
7.7080167e-06
7.740563e-06
7.7731589e-06
7.8062759e-06
7.8404223e-06
7.876144e-06
7.91402e-06
7.9546549e-06
7.9986732e-06
8.0467124e-06
8.0994161e-06
8.157431e-06
8.2214076e-06
8.2920011e-06
8.3698768e-06
8.4557183e-06
8.550238e-06
8.6541905e-06
8.7683901e-06
8.8937327e-06
9.0312224e-06
9.1820025e-06
9.3473959e-06
9.528959e-06
9.7285428e-06
9.9483741e-06
1.0191178e-05
1.0460283e-05
1.0759831e-05
1.1095043e-05
1.1472425e-05
1.1900493e-05
1.2390085e-05
1.2955393e-05
1.3616135e-05
1.4397152e-05
1.5335843e-05
1.6483357e-05
1.791392e-05
1.9745484e-05
2.2154471e-05
2.5447735e-05
3.0137615e-05
3.7160515e-05
4.8050363e-05
6.6345695e-05
9.822675e-05
0.00015909385
0.00027669937
0.00051355604
0.00095996659
0.0016974225
0.0027705658
0.0041619229
0.0057893439
0.0075450266
0.0093336914
0.011086054
0.012756196
0.01431595
0.015750005
0.017051998
0.018221625
0.019262549
0.020180918
0.020984329
0.021681115
0.022279849
0.022789029
0.02321686
0.023571132
0.023859143
0.024087665
0.024262944
0.024390701
0.024476169
0.024524105
0.024538876
0.02452441
0.024484452
0.024422287
0.024341447
0.024245656
0.024134703
0.024042601
0.023814282
6.9663388e-06
7.00826e-06
7.0524198e-06
7.097652e-06
7.1428489e-06
7.1870023e-06
7.2294361e-06
7.2698004e-06
7.307973e-06
7.3439892e-06
7.3779959e-06
7.4102109e-06
7.4408905e-06
7.4703119e-06
7.4987649e-06
7.5265518e-06
7.5539862e-06
7.5813968e-06
7.6091352e-06
7.6375797e-06
7.6671368e-06
7.6982403e-06
7.7313496e-06
7.7669467e-06
7.8055318e-06
7.8476191e-06
7.893735e-06
7.944416e-06
8.0002087e-06
8.0616715e-06
8.1293789e-06
8.2039265e-06
8.2859405e-06
8.376088e-06
8.4750919e-06
8.5837485e-06
8.7029491e-06
8.8337081e-06
8.9771985e-06
9.1347938e-06
9.3081287e-06
9.4991631e-06
9.7102736e-06
9.9443881e-06
1.0205098e-05
1.0496932e-05
1.0825586e-05
1.1198249e-05
1.1624477e-05
1.2116267e-05
1.2690093e-05
1.3368135e-05
1.4180352e-05
1.5170593e-05
1.6400135e-05
1.7964745e-05
2.0010423e-05
2.2774461e-05
2.6671167e-05
3.2468832e-05
4.1366818e-05
5.6100162e-05
8.1690455e-05
0.00013005462
0.00022428623
0.00041478699
0.0007830529
0.0014081412
0.0023379147
0.0035652133
0.0050208119
0.0066075294
0.0082367164
0.0098426084
0.011380904
0.012823871
0.014155881
0.015369813
0.016464357