/*--------------------------------*- C++ -*----------------------------------*\
| =========                 |                                                 |
| \\      /  F ield         | OpenFOAM: The Open Source CFD Toolbox           |
|  \\    /   O peration     | Version:  2206                                  |
|   \\  /    A nd           | Website:  www.openfoam.com                      |
|    \\/     M anipulation  |                                                 |
\*---------------------------------------------------------------------------*/
FoamFile
{
    version     2.0;
    format      ascii;
    arch        "LSB;label=32;scalar=64";
    class       volScalarField;
    location    "1700";
    object      k;
}
// * * * * * * * * * * * * * * * * * * * * * * * * * * * * * * * * * * * * * //

dimensions      [0 2 -2 0 0 0 0];

internalField   nonuniform List<scalar> 
7480
(
0.03218127
0.062205836
0.068877517
0.063429747
0.054877226
0.047518383
0.04221354
0.038388013
0.035451877
0.0330591
0.031052338
0.029358142
0.027926762
0.026716375
0.025690778
0.024817173
0.024070512
0.023431195
0.022880923
0.022405558
0.021988276
0.021618012
0.021285386
0.020982789
0.02070515
0.020448313
0.020209379
0.019985495
0.019774111
0.019573091
0.019381224
0.019197715
0.019021697
0.01885245
0.018689167
0.018531397
0.018378124
0.018229093
0.018083922
0.017942181
0.017803571
0.017667815
0.017534699
0.017404085
0.017275802
0.017149736
0.017025723
0.01690359
0.016783242
0.016664577
0.016547513
0.016431999
0.016317967
0.016205382
0.01609418
0.015984315
0.01587575
0.015768426
0.015662283
0.015557282
0.015453419
0.01535068
0.015249035
0.015148462
0.015048943
0.014950459
0.014852978
0.014756477
0.014660939
0.014566354
0.014472705
0.014379973
0.014288145
0.014197214
0.014107162
0.014017971
0.013929627
0.013842115
0.013755421
0.01366953
0.013584428
0.013500097
0.013416522
0.013333685
0.013251565
0.013170139
0.013089383
0.013009257
0.012929737
0.012850741
0.012772274
0.012694078
0.012616398
0.012538214
0.012460982
0.012380657
0.012302974
0.012214077
0.012142949
0.012006256
0.0025387924
0.0095644431
0.01665797
0.020687247
0.021734535
0.02146617
0.020833029
0.020185994
0.019554624
0.018926865
0.018318613
0.017754955
0.01724999
0.016805882
0.016419417
0.016077784
0.015779903
0.015524244
0.015305235
0.015114636
0.014945914
0.014793431
0.014652542
0.014520668
0.014396704
0.014279336
0.014168188
0.014061352
0.013957548
0.013855994
0.013756734
0.013659786
0.013564929
0.01347203
0.013380577
0.01329072
0.013201546
0.013113419
0.013026231
0.012939783
0.012853963
0.012768723
0.012684061
0.012599967
0.012516431
0.012433463
0.012350981
0.012268943
0.012187341
0.012106165
0.012025435
0.011945159
0.011865344
0.011786006
0.011707134
0.011628746
0.011550842
0.011473405
0.011396414
0.011319878
0.011243824
0.011168271
0.011093219
0.01101867
0.010944636
0.010871122
0.010798115
0.010725616
0.010653632
0.01058217
0.01051123
0.010440811
0.010370916
0.010301552
0.010232717
0.010164406
0.010096619
0.010029353
0.0099626087
0.0098963823
0.009830671
0.0097654711
0.0097007781
0.0096365863
0.0095728887
0.0095096766
0.0094469392
0.0093846623
0.0093228291
0.009261414
0.0092003913
0.0091397034
0.0090793241
0.0090190734
0.0089590249
0.0088984833
0.0088379825
0.0087745217
0.0087181672
0.0086159619
0.00022982044
0.00058013182
0.0013146933
0.0026353481
0.0042089754
0.0058223759
0.007275247
0.0085094499
0.0095741888
0.01050317
0.011300723
0.01196202
0.012491007
0.012904846
0.013226916
0.013485212
0.013695006
0.013864691
0.014000257
0.014106324
0.014187168
0.014246245
0.014285683
0.014309084
0.014319431
0.014318102
0.014309886
0.01429327
0.014269238
0.014238424
0.014202496
0.014162377
0.014118607
0.014071812
0.014021822
0.013969642
0.013914235
0.013856994
0.013797828
0.013736817
0.01367411
0.013609896
0.013544375
0.013477708
0.013410041
0.013341528
0.013272167
0.013202041
0.013131234
0.013059829
0.012987935
0.012915627
0.012842983
0.01277008
0.012696953
0.012623677
0.012550291
0.012476815
0.012403257
0.012329669
0.012256115
0.012182645
0.012109281
0.012036053
0.011962999
0.011890143
0.01181749
0.011745057
0.011672876
0.011600966
0.011529343
0.01145802
0.011387014
0.011316346
0.011246023
0.011176052
0.011106443
0.011037204
0.010968343
0.010899867
0.01083178
0.010764088
0.010696792
0.010629896
0.010563398
0.010497299
0.010431593
0.010366275
0.010301333
0.010236758
0.010172515
0.010108605
0.010044917
0.0099815084
0.0099180487
0.0098547682
0.0097907102
0.0097258728
0.009665438
0.0095597616
0.00017085916
0.00018340952
0.00021408393
0.00029408542
0.00045885771
0.00070273907
0.0011557123
0.0017923979
0.0026159303
0.0035360682
0.0044938396
0.0054740541
0.0064641967
0.0074413661
0.0083741495
0.0092337365
0.010001839
0.010673132
0.011252743
0.011750477
0.012176207
0.012538653
0.012846041
0.013105024
0.013322191
0.013502619
0.013651814
0.013774414
0.013873804
0.01395363
0.014016477
0.014064728
0.014100336
0.014125306
0.014140576
0.014147849
0.014145472
0.014136968
0.014121754
0.014100804
0.014074688
0.014043958
0.014009127
0.013970624
0.013928852
0.01388418
0.013836735
0.013786814
0.013734643
0.013680438
0.013624436
0.013566818
0.013507765
0.013447443
0.013385955
0.01332346
0.013260051
0.013195804
0.013130776
0.013065073
0.01299881
0.012932075
0.012864929
0.012797436
0.012729668
0.012661678
0.012593493
0.012525158
0.012456727
0.012388243
0.012319741
0.01225125
0.012182806
0.012114447
0.012046195
0.01197807
0.011910095
0.01184229
0.011774675
0.011707268
0.011640083
0.011573136
0.011506438
0.01144
0.01137383
0.011307936
0.011242321
0.011176989
0.011111933
0.011047159
0.010982631
0.010918381
0.010854269
0.010790467
0.010726472
0.010662951
0.010598295
0.010533989
0.010472502
0.010367621
0.00017449729
0.0001773157
0.0001795045
0.00018195437
0.00018821231
0.00020034563
0.00023001967
0.00029360341
0.00040015239
0.00060119182
0.00091666175
0.0013531254
0.0019230637
0.0025910675
0.0033470691
0.0041828561
0.005081257
0.0060122978
0.0069378016
0.0078208135
0.0086347816
0.0093673697
0.010017866
0.010591167
0.011093802
0.011532046
0.011912492
0.012241835
0.012526756
0.012772749
0.012984401
0.013165896
0.01332094
0.01345244
0.013563394
0.013656761
0.013733449
0.01379592
0.013845779
0.013884128
0.013912102
0.013930876
0.013941432
0.013944603
0.013941187
0.013931896
0.013917221
0.013897571
0.013873349
0.013844988
0.013812928
0.013777503
0.013739028
0.013697806
0.01365408
0.013608136
0.013560149
0.013510276
0.013458645
0.013405446
0.013350865
0.013295047
0.013238104
0.013180157
0.013121322
0.013061692
0.013001327
0.012940312
0.012878733
0.012816664
0.012754164
0.012691289
0.012628101
0.012564661
0.012501008
0.012437182
0.012373224
0.012309171
0.012245058
0.012180918
0.012116779
0.012052669
0.011988611
0.011924629
0.01186074
0.011796964
0.011733313
0.011669803
0.011606435
0.011543228
0.011480151
0.011417262
0.01135441
0.011291839
0.011228962
0.011166707
0.011103116
0.01104061
0.010979944
0.010877902
0.00017703382
0.00018218523
0.00018463513
0.00018541505
0.00018557634
0.00018552097
0.00018566554
0.00018698246
0.00019127283
0.00020343362
0.00023101188
0.00028339211
0.00036834639
0.00051942378
0.00075230465
0.001088811
0.001539085
0.0020953136
0.0027572103
0.0035180563
0.0043580912
0.0052439858
0.0061350624
0.0069937668
0.007794363
0.0085248326
0.0091831663
0.0097721562
0.010296358
0.010760913
0.011171274
0.011532956
0.011851163
0.012130472
0.012375119
0.012589267
0.012775863
0.012937963
0.013078295
0.013199142
0.013302556
0.013390256
0.013463827
0.013524697
0.013574072
0.013613028
0.01364269
0.013663939
0.013677581
0.013684315
0.013684754
0.013679429
0.013668872
0.013653559
0.013633927
0.013610449
0.013583391
0.013553032
0.013519649
0.013483536
0.013444932
0.013404062
0.01336111
0.013316255
0.013269693
0.01322158
0.013172022
0.013121157
0.01306912
0.013016019
0.012961954
0.012907011
0.012851288
0.012794879
0.012737845
0.012680253
0.012622167
0.012563647
0.012504747
0.01244552
0.012386011
0.012326266
0.012266322
0.012206219
0.012145988
0.012085661
0.012025264
0.011964825
0.011904357
0.011843892
0.01178341
0.011722988
0.011662478
0.011602172
0.011541448
0.01148139
0.011419878
0.01135991
0.011301171
0.011203101
0.00017708329
0.00018399527
0.00018838131
0.00019049997
0.0001910902
0.00019094015
0.00019036279
0.00018953736
0.00018876824
0.00018807219
0.0001883846
0.00019011076
0.00019497618
0.00020666379
0.00023022742
0.0002735812
0.00034323857
0.00046608766
0.00066136932
0.00095115793
0.0013520292
0.0018635589
0.0024872074
0.0032138566
0.0040195211
0.0048675334
0.0057171088
0.0065342266
0.0072980093
0.0079998612
0.0086385216
0.0092158112
0.009734864
0.010199642
0.010614618
0.010984517
0.011313524
0.011605593
0.011864452
0.012093443
0.012295573
0.012473503
0.012629616
0.012766069
0.012884767
0.012987391
0.013075533
0.013150588
0.013213798
0.013266266
0.013308961
0.013342797
0.013368544
0.013386897
0.013398514
0.013403923
0.013403717
0.013398394
0.013388411
0.013374146
0.013355955
0.013334171
0.013309073
0.013280947
0.013250076
0.013216682
0.013180932
0.013143039
0.013103185
0.013061541
0.013018265
0.012973501
0.012927366
0.012879983
0.012831458
0.012781894
0.012731384
0.012680017
0.012627873
0.012575028
0.012521552
0.01246751
0.01241296
0.01235796
0.012302559
0.012246806
0.012190742
0.012134408
0.012077835
0.012021068
0.011964102
0.01190703
0.011849716
0.011792483
0.011734711
0.011677566
0.011618885
0.011562008
0.011505953
0.011412681
0.00017557358
0.00018310901
0.00018864381
0.00019179783
0.00019324117
0.00019377628
0.00019361516
0.00019316698
0.00019247051
0.00019159835
0.00019071278
0.00018989078
0.00018926882
0.00018891831
0.00018941508
0.00019148222
0.00019653767
0.00020753201
0.00022905454
0.00026850934
0.00033356481
0.00044928363
0.00063757314
0.00092040312
0.0013142512
0.0018221065
0.0024426027
0.0031605902
0.0039458523
0.0047590576
0.0055627506
0.0063302145
0.007047385
0.0077090989
0.0083145749
0.0088651682
0.0093634707
0.0098129102
0.010217283
0.01058036
0.010905775
0.011196941
0.011457009
0.011688879
0.011895188
0.01207831
0.012240431
0.012383533
0.012509392
0.012619603
0.012715585
0.012798632
0.012869892
0.012930393
0.01298108
0.013022769
0.013056254
0.013082251
0.013101411
0.013114304
0.013121446
0.013123313
0.013120353
0.01311294
0.013101409
0.0130861
0.013067349
0.013045414
0.013020549
0.012992992
0.012962961
0.012930659
0.012896259
0.012859937
0.012821838
0.012782107
0.012740878
0.012698273
0.012654408
0.012609387
0.01256331
0.012516266
0.012468341
0.012419613
0.012370154
0.012320032
0.012269308
0.012218042
0.01216628
0.012114086
0.012061471
0.012008545
0.011955191
0.011901752
0.011847633
0.011794032
0.011738825
0.011685528
0.011632744
0.011544983
0.00017308477
0.00018048797
0.00018654668
0.00019047246
0.00019257211
0.00019345871
0.00019364923
0.0001934905
0.00019313658
0.00019264998
0.00019205948
0.00019137336
0.00019061409
0.00018986186
0.00018916741
0.00018855721
0.00018806722
0.00018797784
0.00018876557
0.00019139253
0.00019703293
0.00020872698
0.00023154267
0.00027286819
0.00034473171
0.00047127638
0.00067721173
0.00098393905
0.0014021256
0.0019351543
0.0025746853
0.0032965144
0.0040643436
0.0048400058
0.005593661
0.0063076861
0.0069740343
0.0075898557
0.008154898
0.0086705623
0.0091393689
0.0095643701
0.009948761
0.010295744
0.010608424
0.010889722
0.011142383
0.011368952
0.011571769
0.011752962
0.011914453
0.012057994
0.012185168
0.012297399
0.012395987
0.012482086
0.012556768
0.012621015
0.01267572
0.012721683
0.012759626
0.012790205
0.012814029
0.012831633
0.012843499
0.012850081
0.012851817
0.012849086
0.012842234
0.012831584
0.012817434
0.012800058
0.012779705
0.012756593
0.012730942
0.012702944
0.012672779
0.012640615
0.012606607
0.012570897
0.012533621
0.0124949
0.012454849
0.012413575
0.012371176
0.012327745
0.012283365
0.012238118
0.012192071
0.012145308
0.012097859
0.012049852
0.012001194
0.011952241
0.01190244
0.01185299
0.011801856
0.011752625
0.011703615
0.011622038
0.00017016182
0.00017693395
0.00018296668
0.0001873604
0.00019005963
0.00019146833
0.00019205293
0.0001921551
0.00019199789
0.00019169385
0.00019129525
0.00019082474
0.00019029174
0.00018971217
0.00018909732
0.00018844716
0.00018780422
0.00018716641
0.00018657401
0.00018610766
0.00018588636
0.00018619026
0.00018758883
0.00019108441
0.00019834852
0.00021291982
0.00024113143
0.00029094774
0.00038228369
0.00053935885
0.00078656561
0.0011413167
0.0016095364
0.0021874283
0.0028551941
0.0035793244
0.004322299
0.0050533529
0.0057532187
0.0064121541
0.0070258761
0.0075929955
0.0081140015
0.0085906433
0.0090253319
0.0094207565
0.0097797288
0.01010505
0.010399421
0.010665398
0.010905358
0.011121506
0.011315869
0.011490299
0.011646492
0.011785979
0.011910168
0.01202035
0.012117708
0.012203312
0.012278131
0.012343044
0.012398857
0.012446298
0.012486022
0.012518633
0.012544705
0.012564749
0.012579229
0.012588575
0.012593183
0.012593414
0.012589603
0.012582045
0.012571026
0.012556803
0.012539615
0.012519684
0.012497213
0.012472394
0.0124454
0.012416396
0.012385532
0.012352948
0.012318775
0.012283133
0.012246135
0.012207887
0.012168482
0.012128025
0.012086571
0.012044267
0.012001048
0.011957279
0.011912463
0.011867775
0.011821304
0.011776643
0.011731879
0.01165716
0.00016723464
0.00017312145
0.00017870649
0.00018319156
0.00018631697
0.00018822889
0.00018925577
0.0001897102
0.00018981518
0.0001897083
0.00018947038
0.00018914645
0.00018876002
0.00018832583
0.00018785428
0.00018734911
0.00018681987
0.00018626772
0.00018568741
0.00018510116
0.00018452757
0.0001839939
0.00018356733
0.00018333812
0.00018348838
0.00018438979
0.00018685011
0.00019202215
0.00020257355
0.00022351733
0.00026234707
0.00033375
0.00046187972
0.00067233587
0.00098568309
0.00141008
0.00194436
0.002571049
0.003258288
0.003969612
0.0046748129
0.0053546025
0.0059986903
0.006602028
0.0071625262
0.0076800814
0.0081559015
0.0085919108
0.0089904039
0.0093538555
0.0096847659
0.0099855852
0.01025866
0.010506195
0.010730253
0.010932734
0.011115396
0.011279864
0.011427639
0.011560092
0.011678471
0.011783913
0.011877461
0.011960062
0.012032577
0.012095794
0.012150449
0.012197208
0.012236681
0.012269426
0.012295954
0.012316737
0.012332209
0.012342759
0.012348754
0.01235053
0.012348397
0.01234264
0.012333524
0.012321296
0.01230618
0.012288388
0.012268113
0.012245538
0.012220828
0.012194142
0.012165622
0.012135407
0.012103617
0.012070384
0.012035792
0.012000007
0.011962998
0.011925138
0.011885993
0.011846702
0.011805498
0.011765944
0.011725894
0.011658728
0.00016456099
0.00016950357
0.00017440397
0.00017864337
0.00018191712
0.00018419669
0.00018564545
0.00018648655
0.00018691124
0.00018705788
0.00018702103
0.00018686149
0.00018661695
0.00018631072
0.00018595854
0.00018557043
0.0001851536
0.00018471253
0.00018424714
0.00018376104
0.00018325773
0.00018274022
0.00018220945
0.00018169757
0.00018122935
0.00018084855
0.00018065088
0.00018076842
0.00018149534
0.00018345915
0.00018770737
0.00019630462
0.00021352389
0.00024644466
0.00030754682
0.0004204985
0.0006112506
0.00090139268
0.0013005392
0.0018082001
0.0024070718
0.0030656487
0.0037486964
0.0044277188
0.00508463
0.0057094628
0.0062970019
0.0068448969
0.0073527595
0.0078214573
0.0082525681
0.0086480771
0.0090101701
0.0093410875
0.0096430473
0.0099181846
0.010168533
0.01039601
0.010602415
0.010789416
0.010958551
0.011111235
0.011248768
0.011372345
0.011483057
0.011581901
0.011669806
0.011747617
0.011816111
0.011875996
0.011927925
0.011972497
0.012010263
0.012041724
0.012067345
0.012087555
0.012102746
0.012113283
0.012119502
0.012121714
0.012120207
0.012115246
0.012107078
0.012095932
0.012082021
0.012065541
0.012046675
0.012025596
0.012002461
0.01197743
0.011950618
0.011922218
0.011892234
0.011861049
0.011828295
0.011795074
0.011759769
0.011725899
0.011691052
0.011632172
0.00016224665
0.00016631019
0.00017045572
0.00017423654
0.00017739032
0.00017981775
0.00018156113
0.00018274072
0.00018348806
0.00018391689
0.00018411743
0.00018415574
0.00018407799
0.0001839156
0.0001836905
0.00018341818
0.00018310904
0.00018277031
0.00018240612
0.00018201958
0.00018161304
0.00018118829
0.0001807447
0.00018028739
0.00017982206
0.00017935314
0.00017889733
0.00017848746
0.00017816311
0.00017801337
0.0001781637
0.00017886794
0.00018066419
0.00018454166
0.00019230451
0.00020794323
0.0002383112
0.00029564569
0.00040328371
0.00058756846
0.00086957007
0.0012593452
0.0017550845
0.0023376467
0.0029748957
0.0036332193
0.0042868236
0.0049196733
0.0055226986
0.0060909652
0.0066222167
0.0071160216
0.0075730721
0.007994722
0.0083827176
0.0087390003
0.0090655889
0.0093645019
0.009637708
0.0098870922
0.010114434
0.010321402
0.010509549
0.010680319
0.010835043
0.010974949
0.011101171
0.011214758
0.011316671
0.011407791
0.011488932
0.011560839
0.011624202
0.011679648
0.011727759
0.011769069
0.011804071
0.011833221
0.011856938
0.011875611
0.011889599
0.011899233
0.011904822
0.01190665
0.011904982
0.011900063
0.011892121
0.011881371
0.011868007
0.011852228
0.011834183
0.011814094
0.011792008
0.011768314
0.011742721
0.011716289
0.011687555
0.011659994
0.011630868
0.011581059
0.00016029889
0.00016360689
0.00016703838
0.0001702798
0.00017313357
0.00017549735
0.00017735579
0.00017875346
0.00017975955
0.00018044798
0.00018088836
0.00018113935
0.00018124716
0.00018124661
0.0001811638
0.00018101831
0.00018082403
0.000180591
0.00018032636
0.00018003516
0.00017972093
0.00017938625
0.00017903229
0.00017866053
0.00017827287
0.0001778705
0.0001774561
0.00017703641
0.00017661902
0.00017621484
0.00017586243
0.00017560224
0.00017551671
0.00017573927
0.00017650743
0.00017834062
0.00018221387
0.0001899252
0.00020552656
0.00023591746
0.00029462309
0.0004050895
0.00059422274
0.00088106273
0.0012748758
0.0017705191
0.0023453211
0.0029664078
0.0036026157
0.0042316297
0.0048398876
0.005419557
0.0059663251
0.0064782609
0.0069550134
0.0073972059
0.0078060661
0.0081831758
0.0085303032
0.008849293
0.009141993
0.0094102091
0.0096556749
0.0098800373
0.010084844
0.010271539
0.010441471
0.010595891
0.010735957
0.01086274
0.010977226
0.011080327
0.011172883
0.011255669
0.011329395
0.011394722
0.011452253
0.011502551
0.011546132
0.011583473
0.011615016
0.011641171
0.011662315
0.011678798
0.011690946
0.01169906
0.011703421
0.011704291
0.01170191
0.011696518
0.011688306
0.011677528
0.011664276
0.011648955
0.011631348
0.011612479
0.011591036
0.011570463
0.011547619
0.011507727
0.00015867773
0.00016136564
0.00016417765
0.00016689324
0.00016936994
0.00017152712
0.00017333667
0.00017480614
0.0001759614
0.00017683856
0.00017747964
0.00017792649
0.0001782168
0.00017838247
0.00017844966
0.00017843939
0.00017836769
0.00017824668
0.00017808564
0.00017789154
0.00017766944
0.00017742306
0.00017715495
0.00017686692
0.00017656047
0.00017623666
0.00017589648
0.00017554177
0.00017517478
0.00017479739
0.00017441777
0.00017404592
0.00017369438
0.0001734002
0.00017320864
0.00017320521
0.00017353371
0.00017444163
0.00017648774
0.00018067417
0.00018902342
0.0002059746
0.00023882553
0.00030383305
0.00042512657
0.00062979858
0.00093327483
0.0013422308
0.0018460564
0.0024179233
0.0030252247
0.0036404921
0.0042453535
0.0048287195
0.0053840787
0.0059079122
0.0063987368
0.0068563743
0.0072814717
0.0076751933
0.0080390079
0.0083745479
0.0086835112
0.0089676007
0.0092284801
0.0094677467
0.0096869195
0.0098874325
0.01007063
0.010237767
0.010390009
0.010528441
0.010654068
0.010767819
0.010870551
0.01096306
0.011046079
0.011120285
0.011186307
0.011244723
0.01129607
0.011340844
0.011379504
0.011412475
0.011440153
0.011462903
0.011481066
0.01149496
0.011504877
0.011511103
0.011513878
0.011513493
0.011510091
0.011504094
0.011495365
0.011484895
0.011471521
0.011458673
0.011442724
0.011413666
0.00015732946
0.00015952019
0.00016182019
0.0001640716
0.00016617042
0.00016805777
0.00016971109
0.00017112829
0.00017231565
0.00017328537
0.0001740562
0.00017465111
0.00017509453
0.00017541017
0.00017561977
0.00017574247
0.00017579403
0.00017578716
0.00017573212
0.00017563706
0.00017550824
0.0001753504
0.00017516709
0.00017496095
0.00017473393
0.00017448747
0.00017422264
0.00017394052
0.00017364221
0.00017332849
0.00017300145
0.00017266433
0.00017232015
0.00017197756
0.00017164836
0.00017134834
0.0001711158
0.00017100207
0.0001711054
0.00017158244
0.00017271963
0.00017517355
0.00018002467
0.00018977939
0.0002096449
0.00024783755
0.00032474146
0.00046605318
0.0006952045
0.0010257417
0.0014581988
0.0019747452
0.0025451711
0.0031390201
0.0037335349
0.0043142471
0.004872372
0.0054027615
0.0059027434
0.0063712925
0.006808446
0.0072149273
0.0075918833
0.0079407108
0.0082629349
0.0085601285
0.0088338604
0.0090856639
0.0093170145
0.0095293168
0.0097238977
0.0099020035
0.010064801
0.010213378
0.010348745
0.01047184
0.010583534
0.010684635
0.01077589
0.010857993
0.010931585
0.01099726
0.01105557
0.011107024
0.011152096
0.011191227
0.011224823
0.011253268
0.011276912
0.011296094
0.01131111
0.011322293
0.011329841
0.0113342
0.011335314
0.011334149
0.011329686
0.011325366
0.01131698
0.011299756
0.00015620304
0.00015799841
0.00015988518
0.00016174799
0.00016350818
0.0001651214
0.00016657249
0.00016786086
0.00016898887
0.00016995961
0.00017077887
0.00017145569
0.00017200193
0.00017243132
0.00017275841
0.00017299762
0.000173162
0.00017326291
0.00017331015
0.00017331195
0.00017327498
0.00017320453
0.00017310478
0.00017297897
0.00017282957
0.00017265846
0.00017246706
0.00017225652
0.00017202782
0.00017178169
0.00017151903
0.00017124115
0.00017094928
0.00017064587
0.00017033495
0.00017002088
0.00016971346
0.00016942647
0.0001691801
0.00016901755
0.00016899812
0.00016924472
0.00016993079
0.00017142
0.00017453242
0.00018052507
0.00019272855
0.00021727831
0.00026640345
0.00036256714
0.00053314759
0.00079675417
0.0011626013
0.0016224961
0.0021514639
0.002718522
0.0032974957
0.00387062
0.0044268031
0.0049592842
0.0054642192
0.005939742
0.0063852795
0.0068011033
0.0071880242
0.0075471838
0.0078799147
0.0081876473
0.0084718467
0.008733969
0.0089754336
0.0091976052
0.0094017841
0.009589199
0.0097610049
0.0099182833
0.010062045
0.01019323
0.010312716
0.010421316
0.010519788
0.010608833
0.010689103
0.010761203
0.010825694
0.010883098
0.010933901
0.010978555
0.011017478
0.011051071
0.011079689
0.011103714
0.011123407
0.011139241
0.011151245
0.011160368
0.011165731
0.01117081
0.011170721
0.01116642
0.00015525568
0.00015673646
0.00015829242
0.00015983792
0.00016131145
0.0001626772
0.00016392397
0.00016505364
0.00016607033
0.00016697672
0.00016777489
0.0001684674
0.00016905819
0.00016955296
0.00016995913
0.0001702853
0.0001705403
0.00017073258
0.00017087006
0.00017095989
0.00017100821
0.00017102016
0.00017099997
0.00017095109
0.00017087625
0.00017077762
0.00017065688
0.00017051539
0.00017035423
0.00017017426
0.00016997619
0.00016976084
0.00016952894
0.00016928146
0.00016902004
0.00016874639
0.00016846362
0.00016817651
0.00016789109
0.0001676193
0.00016737732
0.00016719197
0.00016711452
0.0001672172
0.00016765949
0.00016864484
0.0001706828
0.00017473355
0.00018274935
0.00019915434
0.00023149522
0.00029786759
0.00042371771
0.00063290193
0.00094021205
0.0013461603
0.0018324753
0.0023697512
0.0029296711
0.0034915698
0.0040421541
0.004573137
0.0050795629
0.0055587499
0.0060095249
0.00643171
0.0068257765
0.00719261
0.0075333506
0.0078492826
0.0081417597
0.0084121533
0.0086618195
0.0088920752
0.0091041842
0.0092993489
0.0094787059
0.0096433247
0.0097942086
0.0099322953
0.010058461
0.010173521
0.010278235
0.010373311
0.010459406
0.010537132
0.01060706
0.01066972
0.010725606
0.010775187
0.010818883
0.010857134
0.010890267
0.01091879
0.010942821
0.0109633
0.010979479
0.010994904
0.011003914
0.011013729
0.00015445331
0.00015568244
0.00015697336
0.00015826182
0.00015949881
0.00016065375
0.0001617165
0.00016268929
0.0001635777
0.00016438645
0.00016511858
0.00016577582
0.00016635934
0.00016687069
0.00016731245
0.00016768843
0.0001680032
0.00016826176
0.00016846938
0.0001686312
0.00016875204
0.00016883616
0.00016888726
0.0001689085
0.00016890249
0.00016887139
0.00016881695
0.00016874058
0.00016864344
0.00016852647
0.00016839043
0.00016823599
0.00016806377
0.00016787435
0.00016766853
0.00016744719
0.00016721158
0.00016696362
0.00016670569
0.00016644186
0.00016617795
0.00016592215
0.00016568957
0.0001654998
0.00016539031
0.00016542143
0.00016569569
0.00016639422
0.00016783215
0.00017074589
0.00017632499
0.00018765621
0.00021061114
0.00025747968
0.00035058236
0.0005170442
0.00077498258
0.0011320517
0.0015769805
0.0020834424
0.0026222874
0.0031705389
0.0037128929
0.0042396399
0.0047447939
0.0052249114
0.0056782545
0.0061042208
0.0065029611
0.0068751164
0.0072216386
0.0075436662
0.0078424394
0.0081192416
0.0083753595
0.0086120559
0.008830553
0.0090320215
0.0092175744
0.0093882637
0.0095450801
0.0096889531
0.0098207529
0.0099412931
0.010051333
0.010151582
0.010242699
0.010325305
0.010399971
0.010467244
0.010527616
0.010581591
0.010629568
0.010672096
0.010709386
0.010742376
0.010770449
0.010797247
0.010816235
0.010841467
0.00015376924
0.00015479565
0.00015587309
0.00015695308
0.00015799628
0.00015897602
0.00015988196
0.00016071496
0.00016148032
0.00016218385
0.00016283037
0.00016342302
0.00016396348
0.00016445255
0.00016489094
0.00016527981
0.00016562081
0.00016591608
0.00016616828
0.00016638038
0.00016655543
0.00016669634
0.00016680582
0.00016688631
0.00016693991
0.00016696845
0.00016697345
0.00016695621
0.0001669178
0.00016685911
0.00016678089
0.00016668375
0.00016656823
0.00016643481
0.00016628399
0.00016611631
0.00016593238
0.0001657331
0.00016551956
0.00016529341
0.00016505708
0.00016481379
0.00016456897
0.00016432979
0.0001641079
0.00016392176
0.00016379887
0.00016378658
0.00016396325
0.00016448589
0.00016556845
0.00016772602
0.00017192162
0.00018022673
0.00019721711
0.0002312467
0.00030176617
0.0004349345
0.00065255559
0.00096727877
0.0013741588
0.0018506584
0.0023678527
0.0029011403
0.0034335189
0.0039540222
0.0044557498
0.0049345778
0.005388262
0.0058158174
0.0062171011
0.0065925265
0.006942867
0.0072691205
0.0075724155
0.0078539462
0.0081149278
0.008356567
0.0085800412
0.0087864857
0.0089769859
0.0091525723
0.009314219
0.0094628433
0.0095993067
0.0097244172
0.0098389311
0.0099435572
0.010038957
0.010125755
0.010204526
0.010275841
0.010340177
0.010398134
0.010450015
0.010496769
0.010537903
0.010577187
0.010607108
0.010649177
0.00015318257
0.00015404445
0.00015494873
0.00015585873
0.00015674284
0.00015757782
0.00015835301
0.00015906741
0.00015972477
0.00016033056
0.00016089029
0.00016140846
0.00016188816
0.00016233119
0.0001627385
0.00016311066
0.00016344815
0.00016375156
0.00016402179
0.00016426006
0.00016446779
0.00016464649
0.00016479771
0.00016492292
0.00016502348
0.00016510063
0.00016515543
0.00016518884
0.00016520167
0.00016519461
0.00016516826
0.00016512312
0.00016505963
0.00016497815
0.00016487904
0.00016476265
0.00016462934
0.00016447955
0.00016431385
0.00016413299
0.00016393805
0.00016373049
0.00016351256
0.00016328733
0.00016305938
0.00016283563
0.00016262599
0.00016244586
0.00016231817
0.00016228451
0.00016240662
0.00016280227
0.00016366773
0.00016536572
0.00016870318
0.00017506592
0.00018806225
0.0002142983
0.00026918545
0.0003772398
0.00056264173
0.0008416661
0.001214763
0.0016633557
0.0021594239
0.002677336
0.0031987348
0.0037116047
0.0042082786
0.0046840572
0.0051362613
0.0055635716
0.0059655847
0.0063425086
0.0066949531
0.0070237841
0.0073300235
0.007614779
0.0078791963
0.0081244247
0.0083515957
0.0085618073
0.0087561145
0.0089355237
0.00910099
0.0092534162
0.0093936528
0.009522501
0.0096407115
0.0097489948
0.0098480087
0.0099383988
0.010020725
0.010095642
0.010163552
0.010225422
0.010280878
0.010333852
0.010375746
0.0104362
0.00015267681
0.00015340419
0.00015416702
0.00015493744
0.00015569017
0.0001564051
0.00015707166
0.00015768718
0.00015825356
0.00015877498
0.00015925651
0.00015970305
0.00016011866
0.00016050631
0.00016086797
0.00016120484
0.00016151756
0.00016180644
0.00016207169
0.00016231362
0.00016253261
0.00016272914
0.00016290374
0.00016305699
0.00016318946
0.00016330167
0.00016339416
0.00016346737
0.00016352172
0.00016355759
0.0001635753
0.00016357512
0.00016355732
0.00016352211
0.00016346968
0.00016340023
0.00016331394
0.00016321104
0.00016309178
0.00016295651
0.00016280573
0.00016264011
0.00016246065
0.00016226875
0.00016206647
0.00016185676
0.00016164388
0.00016143405
0.0001612359
0.00016106391
0.0001609384
0.00016089357
0.00016098187
0.00016129946
0.00016202923
0.00016343339
0.00016616037
0.00017133029
0.00018174708
0.0002029537
0.00024712769
0.00033647692
0.00049687012
0.00074677838
0.0010909696
0.0015145471
0.0019907945
0.0024935844
0.0030035773
0.0035079357
0.0039983815
0.0044697522
0.0049190108
0.0053445588
0.0057457708
0.0061226755
0.006475737
0.0068057019
0.0071134938
0.0074001395
0.0076667174
0.0079143215
0.008144037
0.0083569241
0.0085540065
0.0087362657
0.0089046362
0.0090600057
0.0092032124
0.0093350516
0.0094562667
0.0095675808
0.0096696403
0.009763159
0.0098486416
0.0099270808
0.0099982201
0.010066179
0.010121174
0.010201695
0.00015223879
0.00015285547
0.00015350195
0.00015415702
0.00015480048
0.00015541517
0.00015599098
0.0001565241
0.0001570148
0.0001574657
0.00015788081
0.00015826459
0.00015862124
0.00015895436
0.00015926678
0.00015956058
0.00015983712
0.00016009717
0.00016034115
0.00016056924
0.00016078149
0.0001609779
0.00016115842
0.00016132302
0.00016147165
0.00016160427
0.00016172086
0.00016182139
0.00016190584
0.00016197418
0.00016202642
0.00016206254
0.00016208253
0.00016208639
0.00016207411
0.00016204571
0.00016200121
0.00016194062
0.00016186402
0.0001617715
0.00016166324
0.00016153949
0.0001614007
0.00016124747
0.00016108073
0.00016090186
0.00016071279
0.00016051639
0.00016031645
0.00016011902
0.00015993236
0.00015976929
0.00015964821
0.0001595985
0.00015967234
0.00015994442
0.00016057229
0.00016178668
0.00016411439
0.00016852973
0.00017727103
0.00019506106
0.00023180737
0.00030778068
0.00044913068
0.00067588593
0.00099614028
0.0013980979
0.0018564198
0.0023448749
0.0028435022
0.0033388851
0.0038223003
0.0042882388
0.0047333894