/*--------------------------------*- C++ -*----------------------------------*\
| =========                 |                                                 |
| \\      /  F ield         | OpenFOAM: The Open Source CFD Toolbox           |
|  \\    /   O peration     | Version:  2206                                  |
|   \\  /    A nd           | Website:  www.openfoam.com                      |
|    \\/     M anipulation  |                                                 |
\*---------------------------------------------------------------------------*/
FoamFile
{
    version     2.0;
    format      ascii;
    arch        "LSB;label=32;scalar=64";
    class       volScalarField;
    location    "1700";
    object      nut;
}
// * * * * * * * * * * * * * * * * * * * * * * * * * * * * * * * * * * * * * //

dimensions      [0 2 -1 0 0 0 0];

internalField   nonuniform List<scalar> 
7480
(
1.6140887e-05
2.2440951e-05
2.361372e-05
2.2660643e-05
2.107764e-05
1.9613582e-05
1.8486391e-05
1.7628859e-05
1.6941275e-05
1.6359577e-05
1.5855275e-05
1.5416683e-05
1.5036162e-05
1.470671e-05
1.4421665e-05
1.4174344e-05
1.3959489e-05
1.3772859e-05
1.3610175e-05
1.3468053e-05
1.3342049e-05
1.3229238e-05
1.3127068e-05
1.3033425e-05
1.2946911e-05
1.286636e-05
1.2790968e-05
1.271992e-05
1.2652472e-05
1.2587995e-05
1.2526145e-05
1.2466702e-05
1.2409417e-05
1.2354086e-05
1.2300468e-05
1.2248438e-05
1.2197679e-05
1.214812e-05
1.209965e-05
1.2052138e-05
1.2005492e-05
1.1959631e-05
1.1914491e-05
1.1870032e-05
1.1826204e-05
1.1782974e-05
1.1740293e-05
1.1698108e-05
1.1656389e-05
1.1615107e-05
1.1574238e-05
1.1533768e-05
1.1493677e-05
1.1453958e-05
1.1414591e-05
1.1375564e-05
1.1336866e-05
1.129848e-05
1.1260389e-05
1.122258e-05
1.1185055e-05
1.1147811e-05
1.1110842e-05
1.1074141e-05
1.1037704e-05
1.1001528e-05
1.0965603e-05
1.0929922e-05
1.0894483e-05
1.0859283e-05
1.0824318e-05
1.0789584e-05
1.0755079e-05
1.0720801e-05
1.0686746e-05
1.0652909e-05
1.0619288e-05
1.0585877e-05
1.0552675e-05
1.0519677e-05
1.048688e-05
1.0454278e-05
1.0421868e-05
1.0389644e-05
1.0357601e-05
1.032573e-05
1.0294023e-05
1.0262467e-05
1.0231054e-05
1.0199752e-05
1.0168564e-05
1.0137388e-05
1.0106323e-05
1.0074959e-05
1.0043882e-05
1.0011457e-05
9.9799987e-06
9.9438776e-06
9.9148821e-06
9.8589182e-06
1.6750946e-06
5.1477015e-06
8.7909362e-06
1.1681702e-05
1.340347e-05
1.4480799e-05
1.5238418e-05
1.5811832e-05
1.6225904e-05
1.6523859e-05
1.6751169e-05
1.6940095e-05
1.7108138e-05
1.7263224e-05
1.7410158e-05
1.7541246e-05
1.7666567e-05
1.7792944e-05
1.7920037e-05
1.8042307e-05
1.8157326e-05
1.8262451e-05
1.835571e-05
1.8437684e-05
1.8510209e-05
1.8574061e-05
1.8631172e-05
1.8680122e-05
1.8720588e-05
1.8752918e-05
1.8778576e-05
1.8798522e-05
1.8813192e-05
1.8823136e-05
1.8828135e-05
1.8829057e-05
1.8824927e-05
1.881701e-05
1.8805458e-05
1.8790326e-05
1.8771771e-05
1.875002e-05
1.872536e-05
1.8697993e-05
1.8668113e-05
1.8635938e-05
1.8601481e-05
1.856487e-05
1.8526242e-05
1.8485717e-05
1.8443467e-05
1.8399607e-05
1.835426e-05
1.8307545e-05
1.8259525e-05
1.8210323e-05
1.816001e-05
1.8108632e-05
1.8056224e-05
1.8002872e-05
1.7948683e-05
1.789373e-05
1.7838068e-05
1.7781749e-05
1.772484e-05
1.766739e-05
1.7609425e-05
1.7550983e-05
1.7492121e-05
1.7432882e-05
1.7373302e-05
1.7313411e-05
1.7253247e-05
1.7192851e-05
1.7132248e-05
1.7071462e-05
1.7010517e-05
1.6949441e-05
1.6888257e-05
1.6826987e-05
1.6765653e-05
1.6704274e-05
1.6642867e-05
1.658145e-05
1.6520038e-05
1.6458646e-05
1.6397285e-05
1.6335969e-05
1.6274697e-05
1.6213504e-05
1.6152331e-05
1.609132e-05
1.6030167e-05
1.5969503e-05
1.5908028e-05
1.5848212e-05
1.5785565e-05
1.5726971e-05
1.566894e-05
1.5563612e-05
4.5545761e-07
4.75853e-07
9.4905501e-07
2.2194205e-06
4.1429491e-06
6.4074994e-06
8.5112839e-06
1.0324986e-05
1.2008377e-05
1.3629205e-05
1.5179961e-05
1.6642377e-05
1.8008586e-05
1.928492e-05
2.0483032e-05
2.162887e-05
2.2723906e-05
2.3762253e-05
2.4739952e-05
2.5655074e-05
2.6508471e-05
2.7301173e-05
2.8032602e-05
2.8708569e-05
2.9333858e-05
2.9909703e-05
3.044957e-05
3.0946686e-05
3.1404263e-05
3.1824195e-05
3.2212012e-05
3.2570567e-05
3.2901773e-05
3.3208148e-05
3.3489504e-05
3.3749808e-05
3.3985768e-05
3.4203271e-05
3.4401948e-05
3.4582609e-05
3.4746306e-05
3.489414e-05
3.5027245e-05
3.5146566e-05
3.5253011e-05
3.5347499e-05
3.5430326e-05
3.5502173e-05
3.5563675e-05
3.5615403e-05
3.5658037e-05
3.5692106e-05
3.571815e-05
3.5736687e-05
3.574805e-05
3.5752741e-05
3.5751098e-05
3.5743389e-05
3.5729836e-05
3.5710802e-05
3.5686692e-05
3.5657821e-05
3.5624429e-05
3.558677e-05
3.5545116e-05
3.5499689e-05
3.5450632e-05
3.5398138e-05
3.5342431e-05
3.5283699e-05
3.5222103e-05
3.5157788e-05
3.5090918e-05
3.5021667e-05
3.4950152e-05
3.4876492e-05
3.4800809e-05
3.4723224e-05
3.4643846e-05
3.4562785e-05
3.4480139e-05
3.4396006e-05
3.4310477e-05
3.422364e-05
3.4135579e-05
3.4046375e-05
3.3956103e-05
3.386485e-05
3.3772661e-05
3.3679685e-05
3.3585829e-05
3.3491559e-05
3.3396137e-05
3.3301446e-05
3.3204063e-05
3.3111156e-05
3.3010579e-05
3.2924254e-05
3.2830486e-05
3.2667104e-05
6.7669682e-06
1.1908008e-06
4.5171932e-07
4.0285325e-07
5.8937634e-07
9.4041473e-07
1.7988346e-06
3.1757518e-06
4.8688455e-06
6.6129966e-06
8.3649352e-06
1.0249466e-05
1.2276897e-05
1.4409665e-05
1.6588999e-05
1.8761486e-05
2.0888535e-05
2.2948693e-05
2.4933731e-05
2.6840177e-05
2.8663913e-05
3.0400966e-05
3.2051739e-05
3.3614698e-05
3.5091622e-05
3.6481965e-05
3.7789864e-05
3.902052e-05
4.01768e-05
4.1265686e-05
4.2290499e-05
4.3255353e-05
4.4163934e-05
4.5021578e-05
4.5829511e-05
4.6593229e-05
4.7301273e-05
4.7971236e-05
4.8597043e-05
4.9182974e-05
4.9731079e-05
5.0243537e-05
5.0722519e-05
5.1169894e-05
5.1587581e-05
5.1977429e-05
5.2339938e-05
5.2676787e-05
5.2989225e-05
5.3278476e-05
5.3545964e-05
5.3792804e-05
5.4020187e-05
5.4229229e-05
5.4420671e-05
5.4595635e-05
5.4754855e-05
5.4898953e-05
5.5028456e-05
5.5144185e-05
5.5247023e-05
5.5337666e-05
5.5416663e-05
5.5484616e-05
5.5542135e-05
5.5589728e-05
5.5627747e-05
5.565665e-05
5.5676943e-05
5.5689055e-05
5.5693362e-05
5.5690211e-05
5.567999e-05
5.5663099e-05
5.5639823e-05
5.5610448e-05
5.5575268e-05
5.5534567e-05
5.5488614e-05
5.5437667e-05
5.5381968e-05
5.5321754e-05
5.5257246e-05
5.5188663e-05
5.5116208e-05
5.5040088e-05
5.4960488e-05
5.487762e-05
5.4791627e-05
5.4702812e-05
5.461112e-05
5.4517333e-05
5.4420454e-05
5.4323383e-05
5.4221239e-05
5.4124654e-05
5.4016092e-05
5.3929643e-05
5.3827787e-05
5.3654965e-05
6.5171878e-05
1.8555189e-05
5.297984e-06
2.067463e-06
1.0828608e-06
7.2620427e-07
6.3228397e-07
7.2069298e-07
9.4240755e-07
1.4795566e-06
2.4013297e-06
3.5605119e-06
5.0037718e-06
6.6405641e-06
8.5182388e-06
1.0679207e-05
1.3102445e-05
1.5725231e-05
1.8464261e-05
2.1238355e-05
2.3986737e-05
2.6674811e-05
2.9287688e-05
3.1816762e-05
3.4254425e-05
3.6593292e-05
3.8830265e-05
4.0966077e-05
4.3005534e-05
4.4951085e-05
4.6804236e-05
4.856789e-05
5.0245445e-05
5.1838085e-05
5.3351104e-05
5.479121e-05
5.6155175e-05
5.7450409e-05
5.8680151e-05
5.9845381e-05
6.0948524e-05
6.1993209e-05
6.2982387e-05
6.39186e-05
6.4804807e-05
6.5643782e-05
6.6437195e-05
6.7186297e-05
6.7892611e-05
6.8558168e-05
6.9185275e-05
6.97756e-05
7.0330871e-05
7.0852878e-05
7.13431e-05
7.180353e-05
7.2235235e-05
7.2639254e-05
7.3016461e-05
7.3368331e-05
7.3696326e-05
7.4001587e-05
7.4285036e-05
7.4547747e-05
7.4790758e-05
7.5014935e-05
7.5220885e-05
7.5409437e-05
7.5581475e-05
7.5737726e-05
7.5878862e-05
7.6005494e-05
7.6118328e-05
7.6218071e-05
7.6305224e-05
7.6380311e-05
7.6443862e-05
7.6496391e-05
7.6538383e-05
7.6570305e-05
7.65926e-05
7.66057e-05
7.6610012e-05
7.6605935e-05
7.6593846e-05
7.6574121e-05
7.6547108e-05
7.6513185e-05
7.6472645e-05
7.6425974e-05
7.637322e-05
7.6315462e-05
7.6251601e-05
7.6185307e-05
7.6110828e-05
7.6041095e-05
7.595504e-05
7.5896203e-05
7.5812758e-05
7.5676579e-05
0.00016848078
9.5423117e-05
4.4207621e-05
2.0501369e-05
1.0191902e-05
5.5698538e-06
3.3277994e-06
2.1639502e-06
1.5274349e-06
1.1972882e-06
1.0887107e-06
1.1449562e-06
1.3377917e-06
1.8426965e-06
2.6399987e-06
3.7340877e-06
5.1928752e-06
6.9619583e-06
9.0983712e-06
1.1622843e-05
1.4494095e-05
1.7622189e-05
2.0897644e-05
2.4220977e-05
2.7523596e-05
3.076831e-05
3.3936604e-05
3.7016014e-05
3.9997273e-05
4.2874621e-05
4.5645786e-05
4.831073e-05
5.0870303e-05
5.3324868e-05
5.5676595e-05
5.7930204e-05
6.0086276e-05
6.2148411e-05
6.4120334e-05
6.6004912e-05
6.7805436e-05
6.9524151e-05
7.116386e-05
7.2727559e-05
7.4217523e-05
7.563601e-05
7.6987143e-05
7.8273663e-05
7.9498438e-05
8.0663881e-05
8.1772091e-05
8.2824919e-05
8.3824723e-05
8.4773751e-05
8.5674277e-05
8.6529316e-05
8.7339903e-05
8.8107548e-05
8.8834021e-05
8.9521405e-05
9.0171291e-05
9.0785239e-05
9.1364561e-05
9.1910655e-05
9.242524e-05
9.2909653e-05
9.3364755e-05
9.3791859e-05
9.4192274e-05
9.4567056e-05
9.4917215e-05
9.5243681e-05
9.5547555e-05
9.5829905e-05
9.6091466e-05
9.6333064e-05
9.6555519e-05
9.6759617e-05
9.6946111e-05
9.7115726e-05
9.7269151e-05
9.7407059e-05
9.7530091e-05
9.7638866e-05
9.7733982e-05
9.7816025e-05
9.7885548e-05
9.7943133e-05
9.7989262e-05
9.8024637e-05
9.8049459e-05
9.8065093e-05
9.8070453e-05
9.80698e-05
9.8056915e-05
9.8046231e-05
9.8014263e-05
9.8012504e-05
9.7972772e-05
9.7920564e-05
0.00023273041
0.0001873048
0.00013089625
8.4404708e-05
5.2773442e-05
3.3100993e-05
2.1108244e-05
1.3757608e-05
9.1926157e-06
6.2635289e-06
4.3866124e-06
3.1446991e-06
2.3326172e-06
1.8519935e-06
1.6182015e-06
1.5847438e-06
1.7173304e-06
2.1868921e-06
2.9761561e-06
4.13203e-06
5.7469168e-06
7.7769721e-06
1.0292975e-05
1.3285037e-05
1.6677491e-05
2.0346045e-05
2.4157405e-05
2.8004993e-05
3.1824214e-05
3.5582965e-05
3.9263113e-05
4.2850253e-05
4.6333606e-05
4.9706979e-05
5.2967775e-05
5.6116124e-05
5.9151524e-05
6.2074913e-05
6.4888453e-05
6.7594376e-05
7.0195254e-05
7.2693427e-05
7.5091395e-05
7.739194e-05
7.9597643e-05
8.1710905e-05
8.3735163e-05
8.5673602e-05
8.7529368e-05
8.9305367e-05
9.1004194e-05
9.2628918e-05
9.4181827e-05
9.566518e-05
9.708158e-05
9.8432526e-05
9.9721283e-05
0.00010095045
0.00010212271
0.00010323994
0.00010430413
0.00010531726
0.00010628097
0.00010719728
0.00010806845
0.00010889608
0.00010968123
0.00011042579
0.00011113133
0.00011179943
0.00011243161
0.00011302935
0.00011359378
0.00011412619
0.00011462776
0.00011509968
0.00011554309
0.00011595909
0.00011634873
0.00011671302
0.00011705294
0.00011736943
0.0001176634
0.00011793573
0.00011818728
0.00011841886
0.00011863128
0.00011882535
0.00011900177
0.00011916149
0.00011930491
0.00011943367
0.00011954678
0.00011964897
0.00011973383
0.00011981679
0.00011987251
0.00011996
0.00011998999
0.00012007144
0.00025956502
0.00024182453
0.0002075237
0.00016634933
0.00012740883
9.5228463e-05
7.022128e-05
5.1549489e-05
3.7792008e-05
2.7691785e-05
2.0308397e-05
1.4893284e-05
1.090483e-05
7.9690934e-06
5.8430257e-06
4.312091e-06
3.2437734e-06
2.567615e-06
2.1921382e-06
2.0726376e-06
2.175457e-06
2.6872531e-06
3.5768251e-06
4.9371374e-06
6.8501925e-06
9.3081826e-06
1.2354144e-05
1.593439e-05
1.9921431e-05
2.4156271e-05
2.8497238e-05
3.2849698e-05
3.716321e-05
4.1410339e-05
4.5570925e-05
4.9629945e-05
5.357797e-05
5.7410132e-05
6.1123989e-05
6.4718346e-05
6.8193338e-05
7.1549864e-05
7.4789215e-05
7.7913177e-05
8.0923792e-05
8.3823107e-05
8.6613809e-05
8.9298813e-05
9.1881149e-05
9.4363797e-05
9.6749542e-05
9.9041421e-05
0.00010124215
0.00010335431
0.00010538067
0.00010732335
0.00010918536
0.0001109696
0.00011267906
0.00011431622
0.00011588348
0.00011738316
0.00011881788
0.00012018957
0.0001214999
0.00012275114
0.000123946
0.00012508622
0.00012617362
0.00012721016
0.00012819767
0.00012913802
0.00013003273
0.00013088353
0.00013169181
0.00013245916
0.00013318703
0.00013387685
0.00013452999
0.00013514777
0.00013573147
0.00013628234
0.00013680157
0.00013729033
0.00013774973
0.00013818089
0.00013858486
0.00013896272
0.00013931542
0.00013964416
0.00013994956
0.00014023356
0.00014049533
0.00014073998
0.00014096107
0.00014117474
0.00014135402
0.00014156574
0.00014169316
0.0001419605
0.00026897597
0.00026535034
0.00025090844
0.00022633688
0.00019623073
0.00016524987
0.00013646046
0.00011131538
9.0062538e-05
7.2413537e-05
5.7902391e-05
4.6034272e-05
3.6351658e-05
2.8495593e-05
2.2154417e-05
1.7051571e-05
1.2961825e-05
9.7601661e-06
7.3072773e-06
5.4764109e-06
4.1480905e-06
3.2857801e-06
2.7898524e-06
2.6127561e-06
2.7821292e-06
3.4272986e-06
4.5692818e-06
6.3346409e-06
8.7310693e-06
1.1818007e-05
1.556232e-05
1.9838403e-05
2.4465691e-05
2.9270131e-05
3.4127932e-05
3.8969955e-05
4.3758786e-05
4.8468499e-05
5.3079483e-05
5.757918e-05
6.1960583e-05
6.6219416e-05
7.035301e-05
7.4360299e-05
7.8241313e-05
8.1996613e-05
8.5627515e-05
8.9135926e-05
9.2524135e-05
9.5794647e-05
9.8949982e-05
0.00010199288
0.00010492607
0.00010775216
0.00011047392
0.00011309379
0.00011561457
0.00011803926
0.00012037095
0.00012261246
0.00012476651
0.0001268357
0.00012882281
0.00013073028
0.0001325602
0.00013431499
0.00013599747
0.00013760993
0.00013915456
0.00014063359
0.0001420492
0.00014340357
0.00014469876
0.00014593642
0.00014711865
0.00014824726
0.00014932404
0.00015035071
0.00015132898
0.00015226049
0.00015314681
0.00015398951
0.00015479008
0.00015554998
0.00015627063
0.0001569534
0.00015759964
0.0001582107
0.00015878781
0.00015933243
0.00015984545
0.00016032908
0.00016078267
0.00016121169
0.00016160979
0.00016199367
0.00016233469
0.00016270835
0.00016296309
0.00016347113
0.00027156548
0.00027364269
0.00027010346
0.00025907166
0.00024137359
0.00021940378
0.00019565788
0.00017187604
0.00014932605
0.00012865084
0.00011007764
9.3604151e-05
7.9102491e-05
6.6440354e-05
5.5414838e-05
4.5833791e-05
3.7537316e-05
3.0387533e-05
2.4281891e-05
1.9122429e-05
1.4808601e-05
1.1311598e-05
8.548252e-06
6.4305695e-06
4.898937e-06
3.90169e-06
3.3576487e-06
3.2060489e-06
3.6162767e-06
4.568882e-06
6.1962729e-06
8.5750212e-06
1.173335e-05
1.5663852e-05
2.0239839e-05
2.525876e-05
3.0517071e-05
3.586625e-05
4.1221231e-05
4.6535183e-05
5.1776277e-05
5.6920998e-05
6.195406e-05
6.6866241e-05
7.1651527e-05
7.6306012e-05
8.0827738e-05
8.5216116e-05
8.9471501e-05
9.3594977e-05
9.7588043e-05
0.00010145262
0.00010519087
0.00010880507
0.00011229767
0.00011567102
0.0001189277
0.00012207053
0.00012510248
0.0001280265
0.00013084543
0.00013356201
0.00013617913
0.00013869947
0.00014112549
0.00014345974
0.00014570511
0.00014786424
0.00014993963
0.00015193377
0.00015384911
0.0001556881
0.00015745311
0.00015914619
0.00016076965
0.00016232561
0.00016381618
0.00016524341
0.00016660928
0.00016791574
0.00016916468
0.00017035796
0.00017149736
0.00017258465
0.00017362153
0.00017460968
0.00017555072
0.00017644629
0.00017729789
0.00017810727
0.00017887556
0.00017960528
0.00018029601
0.00018095351
0.00018157157
0.00018216744
0.00018271062
0.00018328647
0.0001837009
0.00018450707
0.00027185323
0.00027566788
0.00027698058
0.00027388457
0.00026566329
0.00025285791
0.00023672852
0.00021858294
0.0001995859
0.0001806242
0.00016229286
0.00014495229
0.00012878157
0.00011375253
9.9899041e-05
8.7201414e-05
7.5604215e-05
6.5035129e-05
5.5445964e-05
4.68031e-05
3.9027788e-05
3.2091325e-05
2.597304e-05
2.0635039e-05
1.6071146e-05
1.2297406e-05
9.283672e-06
6.9661884e-06
5.3650922e-06
4.3681824e-06
3.8995659e-06
4.0431209e-06
4.8460074e-06
6.4009304e-06
8.8187061e-06
1.2116456e-05
1.6297406e-05
2.1221941e-05
2.6660749e-05
3.2383586e-05
3.8223843e-05
4.4085931e-05
4.9915825e-05
5.567646e-05
6.1341141e-05
6.6892555e-05
7.2319775e-05
7.7615493e-05
8.2775104e-05
8.7796115e-05
9.2677377e-05
9.7418795e-05
0.00010202106
0.00010648533
0.00011081321
0.00011500645
0.00011906708
0.00012299747
0.00012680022
0.00013047809
0.00013403381
0.00013747009
0.00014078975
0.00014399558
0.00014709019
0.00015007621
0.00015295656
0.00015573405
0.00015841139
0.00016099127
0.00016347632
0.00016586922
0.00016817255
0.00017038871
0.00017252017
0.00017456936
0.00017653864
0.00017843032
0.00018024667
0.00018198993
0.00018366226
0.0001852658
0.00018680262
0.00018827476
0.00018968423
0.00019103296
0.00019232287
0.00019355588
0.00019473376
0.00019585855
0.00019693165
0.00019795585
0.00019893098
0.00019986308
0.00020074614
0.00020159792
0.00020238589
0.00020320653
0.00020381554
0.00020498001
0.00027166089
0.00027557899
0.00027854657
0.00027925825
0.00027676946
0.00027075989
0.00026151672
0.00024965921
0.00023591942
0.0002210047
0.00020552011
0.00018994057
0.00017461833
0.00015974324
0.00014545098
0.00013183381
0.00011894034
0.00010679235
9.5336547e-05
8.4519301e-05
7.4338114e-05
6.4790995e-05
5.5867815e-05
4.7594888e-05
3.9972737e-05
3.3017157e-05
2.6754236e-05
2.1186075e-05
1.6416186e-05
1.2474718e-05
9.340614e-06
7.0589815e-06
5.5584654e-06
4.7455273e-06
4.6537712e-06
5.3564405e-06
6.9187657e-06
9.4586378e-06
1.2996717e-05
1.7525017e-05
2.2873494e-05
2.8779438e-05
3.4990545e-05
4.1331271e-05
4.7701834e-05
5.4043605e-05
6.0315846e-05
6.649014e-05
7.2548106e-05
7.847768e-05
8.4270714e-05
8.9922119e-05
9.5428942e-05
0.00010078963
0.00010600372
0.00011107144
0.00011599363
0.00012077165
0.00012540735
0.00012990284
0.00013426043
0.00013848254
0.00014257171
0.00014653059
0.00015036176
0.00015406783
0.0001576516
0.00016111593
0.0001644636
0.00016769737
0.00017082001
0.0001738343
0.00017674299
0.00017954869
0.00018225405
0.00018486168
0.00018737417
0.00018979404
0.00019212382
0.00019436595
0.00019652287
0.00019859694
0.00020059052
0.00020250589
0.00020434531
0.00020611101
0.00020780515
0.00020942993
0.00021098738
0.00021247982
0.00021390892
0.00021527772
0.00021658632
0.00021784103
0.00021903605
0.00022018966
0.00022126711
0.00022237735
0.00022321837
0.00022480408
0.00027167308
0.00027513116
0.00027831304
0.00028044703
0.00028082768
0.00027895711
0.00027465521
0.00026802551
0.00025935795
0.00024904111
0.00023749223
0.00022510648
0.00021223404
0.00019914612
0.00018604976
0.00017310525
0.00016043223
0.00014812185
0.00013621497
0.00012471452
0.00011362932
0.00010296939
9.2753223e-05
8.2924468e-05
7.3454289e-05
6.4370784e-05
5.5708383e-05
4.749438e-05
3.9811345e-05
3.272278e-05
2.6259454e-05
2.0551948e-05
1.5710258e-05
1.1767556e-05
8.8099494e-06
6.8106652e-06
5.6633851e-06
5.4012456e-06
6.0725805e-06
7.7479783e-06
1.0521634e-05
1.4431571e-05
1.9428623e-05
2.5291218e-05
3.171912e-05
3.8447343e-05
4.5302732e-05
5.2187289e-05
5.9040144e-05
6.581881e-05
7.2494757e-05
7.9049499e-05
8.5470538e-05
9.1749423e-05
9.7880727e-05
0.00010386105
0.00010968851
0.00011536237
0.0001208828
0.00012625065
0.00013146721
0.00013653416
0.00014145343
0.00014622723
0.00015085783
0.00015534761
0.00015969913
0.00016391508
0.00016799817
0.00017195112
0.00017577669
0.00017947766
0.00018305686
0.000186517
0.00018986083
0.00019309109
0.0001962105
0.00019922177
0.00020212757
0.00020493055
0.00020763334
0.00021023851
0.00021274862
0.0002151662
0.00021749374
0.00021973368
0.00022188845
0.00022396047
0.00022595206
0.00022786575
0.00022970349
0.00023146857
0.00023316137
0.00023478839
0.0002363441
0.00023784735
0.00023926092
0.00024070761
0.00024182052
0.00024389321
0.00027211165
0.00027498825
0.00027784477
0.00028024289
0.00028175451
0.00028198967
0.00028066737
0.00027765129
0.00027294222
0.00026665347
0.00025897699
0.00025014598
0.00024040732
0.00022999364
0.00021910964
0.00020793054
0.00019660267
0.00018524853
0.00017396143
0.00016280174
0.00015181208
0.00014102457
0.00013047592
0.00012016704
0.00011008247
0.00010022285
9.0611186e-05
8.1227515e-05
7.2018963e-05
6.3043607e-05
5.4346987e-05
4.6021039e-05
3.8189588e-05
3.091578e-05
2.4357433e-05
1.8693382e-05
1.400315e-05
1.0438248e-05
7.9995804e-06
6.5746952e-06
6.2546451e-06
6.9979747e-06
8.9290258e-06
1.2081267e-05
1.6520611e-05
2.2119776e-05
2.858748e-05
3.5589112e-05
4.2861647e-05
5.0245333e-05
5.7648494e-05
6.5011121e-05
7.2291763e-05
7.9462977e-05
8.6506427e-05
9.340952e-05
0.00010016383
0.00010676383
0.00011320609
0.00011948869
0.00012561085
0.00013157265
0.0001373748
0.00014301852
0.00014850537
0.00015383716
0.00015901596
0.00016404405
0.00016892386
0.00017365788
0.00017824873
0.00018269906
0.00018701162
0.00019118913
0.00019523433
0.00019915001
0.00020293893
0.0002066039
0.00021014767
0.00021357304
0.00021688275
0.00022007954
0.00022316613
0.00022614523
0.00022901951
0.00023179162
0.00023446419
0.00023703986
0.00023952117
0.00024191089
0.00024421119
0.00024642559
0.00024855474
0.00025060534
0.00025257212
0.00025447452
0.00025627269
0.00025810455
0.00025953157
0.0002621598
0.00027301901
0.0002753531
0.00027774656
0.00027994216
0.00028170016
0.0002827829
0.00028297133
0.000282088
0.00028001493
0.00027670516
0.00027218174
0.00026652399
0.00025985108
0.00025230374
0.0002440284
0.00023516704
0.00022585101
0.00021619941
0.0002063165
0.00019628717
0.00018617884
0.00017604455
0.00016593292
0.00015587849
0.00014589833
0.00013600246
0.00012620968
0.00011652888
0.00010693146
9.7417171e-05
8.8013032e-05
7.8685258e-05
6.9423784e-05
6.0297374e-05
5.1384389e-05
4.2880748e-05
3.4872958e-05
2.7560813e-05
2.1176074e-05
1.5834963e-05
1.1786444e-05
9.0206809e-06
7.4292694e-06
7.2108816e-06
8.1819019e-06
1.0552459e-05
1.4292344e-05
1.9429664e-05
2.5747074e-05
3.2884602e-05
4.0492705e-05
4.8328847e-05
5.6252648e-05
6.4179224e-05
7.2051256e-05
7.9830253e-05
8.7490684e-05
9.5015035e-05
0.00010239129
0.00010961135
0.00011666986
0.00012356351
0.00013029044
0.00013684993
0.00014324202
0.00014946737
0.00015552708
0.00016142267
0.00016715594
0.00017272894
0.00017814387
0.0001834031
0.00018850915
0.00019346456
0.00019827197
0.00020293407
0.0002074536
0.00021183332
0.00021607604
0.00022018456
0.00022416171
0.00022801031
0.00023173319
0.00023533316
0.00023881303
0.00024217562
0.00024542371
0.00024856012
0.00025158756
0.00025450901
0.00025732685
0.0002600448
0.00026266376
0.00026519056
0.00026762027
0.00026997289
0.00027220583
0.00027447328
0.00027625881
0.00027951395
0.00027437497
0.00027625014
0.00027819756
0.00028005499
0.00028168583
0.00028296163
0.00028375369
0.00028393111
0.00028336968
0.00028196917
0.00027966704
0.00027644209
0.0002723116
0.00026732424
0.00026155076
0.00025507498
0.00024798619
0.00024037426
0.00023232618
0.00022392204
0.00021523265
0.00020631876
0.00019723448
0.00018802649
0.00017873085
0.00016937348
0.00015997783
0.00015056545
0.00014113979
0.00013169935
0.00012225818
0.00011280814
0.00010332627
9.3815337e-05
8.4320568e-05
7.4755118e-05
6.5195152e-05
5.5746716e-05
4.6615841e-05
3.7930574e-05
2.9959826e-05
2.29696e-05
1.7109336e-05
1.274817e-05
9.8094657e-06
8.2463939e-06
8.251743e-06
9.7107512e-06
1.2710079e-05
1.7273456e-05
2.329456e-05
3.0438565e-05
3.8295385e-05
4.6533273e-05
5.4947003e-05
6.3417629e-05
7.1868473e-05
8.0247673e-05
8.8520692e-05
9.6664047e-05
0.00010466156
0.00011250221
0.00012017857
0.00012768575
0.0001350207
0.00014218168
0.00014916797
0.00015597962
0.00016261729
0.00016908211
0.00017537555
0.0001814994
0.0001874557
0.00019324663
0.00019887453
0.00020434187
0.0002096512
0.00021480515
0.00021980644
0.00022465782
0.00022936208
0.00023392205
0.00023834058
0.00024262055
0.00024676483
0.00025077633
0.00025465794
0.00025841261
0.0002620432
0.00026555282
0.00026894404
0.00027222073
0.00027538404
0.00027844091
0.00028138671
0.00028424204
0.00028696145
0.0002897165
0.00029190695
0.00029586305
0.00027614354
0.0002776447
0.00027920971
0.00028072833
0.00028211515
0.00028330142
0.00028422392
0.00028481081
0.0002849772
0.00028463367
0.00028369929
0.00028211109
0.00027982943
0.00027683925
0.00027314817
0.00026878246
0.00026378194
0.00025819571
0.0002520786
0.00024548762
0.00023847895
0.00023110553
0.00022341679
0.00021545843
0.00020727096
0.00019888816
0.00019033887
0.00018164953
0.00017283879
0.00016391669
0.00015489527
0.00014578082
0.00013656767
0.00012724678
0.00011783996
0.0001083048
9.8630793e-05
8.8853721e-05
7.8954564e-05
6.8947005e-05
5.8968348e-05
4.924802e-05
3.9938599e-05
3.1420216e-05
2.3937302e-05
1.7772723e-05
1.3256445e-05
1.032616e-05
9.1584295e-06
9.6169756e-06
1.1815616e-05
1.5708435e-05
2.1306163e-05
2.8332661e-05
3.6347967e-05
4.4934975e-05
5.3809804e-05
6.2807354e-05
7.1826314e-05
8.0799186e-05
8.9681082e-05
9.8441843e-05
0.00010706069
0.00011552331
0.00012381986
0.00013194361
0.00013989008
0.00014765649
0.00015524129
0.00016264389
0.00016986444
0.00017690365
0.00018376269
0.00019044306
0.00019694655
0.00020327518
0.00020943112
0.00021541674
0.0002212345
0.00022688697
0.00023237681
0.00023770676
0.0002428796
0.00024789817
0.00025276536
0.00025748407
0.00026205726
0.00026648793
0.00027077903
0.00027493378
0.00027895487
0.00028284628
0.0002866094
0.0002902512
0.00029376743
0.00029717918
0.00030043817
0.00030373423
0.00030637784
0.00031111157
0.00027829012
0.00027949006
0.000280741
0.0002819639
0.00028309883
0.0002841047
0.00028495322
0.00028561404
0.00028604397
0.00028618653
0.00028597813
0.00028535555
0.00028426258
0.00028265505
0.00028050343
0.00027779325
0.00027452369
0.00027070559
0.00026635934
0.00026151248
0.00025619722
0.00025044819
0.00024430088
0.00023779073
0.00023095204
0.00022381654
0.00021641291
0.00020876764
0.00020090375
0.00019283861
0.00018458702
0.00017616085
0.00016756583
0.0001587994
0.00014987015
0.00014076752
0.00013147368
0.00012199256
0.00011230906
0.00010239715
9.2283934e-05
8.1987593e-05
7.1484202e-05
6.0969891e-05
5.0664755e-05
4.0822316e-05
3.1853014e-05
2.4001904e-05
1.7802942e-05
1.3387475e-05
1.077845e-05
1.0213454e-05
1.1503429e-05
1.4694679e-05
1.9796893e-05
2.6616378e-05
3.4713748e-05
4.3600769e-05
5.2909103e-05
6.2417577e-05
7.1995195e-05
8.1556806e-05
9.1045743e-05
0.00010042408
0.00010966579
0.0001187528
0.00012767256
0.00013641634
0.00014497819
0.0001533542
0.00016154198
0.00016954025
0.00017734862
0.00018496739
0.00019239735
0.00019963971
0.00020669601
0.00021356808
0.00022025796
0.00022676786
0.00023310017
0.00023925739
0.00024524213
0.00025105709
0.00025670506
0.00026218888
0.00026751148
0.00027267585
0.00027768497
0.00028254207
0.00028724998
0.00029181267
0.00029623178
0.00030051423
0.00030465616
0.00030867916
0.00031253204
0.00031642377
0.00031957042
0.00032516092
0.00028078645
0.00028174378
0.00028274023
0.00028371741
0.0002846295
0.00028544717
0.00028615675
0.00028674922
0.00028720923
0.00028751036
0.00028761561
0.00028748035
0.00028705662
0.00028629777
0.00028516227
0.00028361638
0.00028163522
0.00027920307
0.00027631311
0.00027296647
0.00026917098
0.00026493976
0.00026028984
0.00025524113
0.00024981534
0.00024403491
0.000237922
0.00023149824
0.00022478415
0.00021779777
0.00021055479
0.00020306877
0.00019535011
0.00018740322
0.00017923377
0.00017084192
0.00016221883
0.00015335933
0.00014425471
0.00013488397
0.00012523947
0.00011531963
0.00010508165
9.4567601e-05
8.378676e-05
7.274517e-05
6.1675382e-05
5.0782278e-05
4.0505117e-05
3.1207873e-05
2.3281102e-05
1.7285436e-05
1.3238086e-05
1.1483213e-05
1.1777435e-05
1.4247494e-05
1.8792231e-05
2.53274e-05
3.3437075e-05
4.2578236e-05
5.2296453e-05
6.2304882e-05
7.2436259e-05
8.2585068e-05
9.2681618e-05
0.00010267943
0.0001125467
0.00012226136
0.00013180798
0.0001411758
0.00015035734
0.00015934752
0.00016814305
0.00017674195
0.00018514327
0.00019334682
0.00020135303
0.00020916281
0.00021677747
0.00022419862
0.00023142814
0.00023846814
0.00024532088
0.00025198881
0.00025847449
0.00026478061
0.00027090994
0.00027686541
0.00028264992
0.00028826669
0.00029371855
0.00029900946
0.00030414124
0.00030912071
0.00031394442
0.00031863437
0.00032313652
0.00032767969
0.00033138071
0.00033790941
0.00028361095
0.00028437184
0.00028516214
0.00028593818
0.00028666336
0.00028731363
0.00028787992
0.00028836117
0.00028875581
0.00028905641
0.0002892475
0.00028930531
0.00028919906
0.00028889352
0.00028835187
0.00028753846
0.00028642071
0.0002849706
0.00028316571
0.0002809895
0.00027843126
0.00027548569
0.0002721523
0.00026843475
0.00026434014
0.00025987824
0.0002550607
0.00024990042
0.00024441099
0.00023860588
0.00023249782
0.00022609854
0.00021941839
0.00021246456
0.00020524281
0.00019775662
0.00019000405
0.00018198091
0.00017368119
0.00016509159
0.00015619787
0.00014699128
0.00013744232
0.00012754331
0.00011728679
0.00010662962
9.5641768e-05
8.4277609e-05
7.264785e-05
6.097653e-05
4.9583164e-05
3.8999707e-05
2.9529105e-05
2.1944746e-05
1.6437886e-05
1.3246666e-05
1.2554852e-05
1.4240495e-05
1.8216622e-05
2.4445447e-05
3.2535329e-05
4.1904395e-05
5.2018368e-05
6.2521385e-05
7.3205593e-05
8.3942928e-05
9.4649659e-05
0.00010527023
0.00011576686
0.00012611333
0.00013629133
0.00014628792
0.00015609407
0.0001657035
0.00017511197
0.00018431677
0.00019331636
0.00020211009
0.00021069801
0.00021908072
0.00022725928
0.00023523512
0.00024300995
0.00025058575
0.00025796471
0.0002651492
0.00027214176
0.0002789451
0.00028556198
0.00029199549
0.00029824842
0.00030432462
0.00031022606
0.00031595937
0.00032152153
0.00032693487
0.00033214251
0.00033739383
0.0003417018
0.00034925223
0.00028674763
0.00028734829
0.00028797072
0.00028858218
0.00028915298
0.00028966217
0.00029010146
0.00029047126
0.00029077466
0.00029101324
0.00029118437
0.00029127959
0.00029128406
0.00029117714
0.00029093375
0.00029052604
0.00028992497
0.00028910189
0.00028802993
0.00028668493
0.00028504614
0.00028309651
0.00028082289
0.00027821591
0.00027526977
0.00027198193
0.0002683527
0.00026438471
0.00026008252
0.00025545201
0.00025049987
0.00024523306
0.0002396585
0.00023378204
0.00022760843
0.0002211412
0.00021438115
0.0002073264
0.000199973
0.0001923129
0.00018433409
0.00017602558
0.00016736707
0.00015833935
0.000148928
0.00013909523
0.00012884527
0.000118142
0.000106966
9.5404249e-05
8.3372236e-05
7.111882e-05
5.8824402e-05
4.710118e-05
3.6334503e-05
2.7151591e-05
2.0161702e-05
1.5575118e-05
1.3840058e-05
1.4677616e-05
1.8067293e-05
2.3975184e-05
3.2028887e-05
4.1612856e-05
5.2116931e-05
6.3114412e-05
7.4353961e-05
8.5683588e-05
9.7005023e-05
0.00010825333
0.00011938456
0.00013036826
0.00014118312
0.00015181406
0.00016225042
0.00017248471
0.00018251173
0.00019232806
0.00020193154
0.00021132108
0.00022049633
0.00022945762
0.00023820575
0.00024674195
0.00025506781
0.00026318517
0.00027109617
0.00027880317
0.00028630866
0.00029361547
0.00030072627
0.00030764473
0.00031437286
0.00032091706