/*--------------------------------*- C++ -*----------------------------------*\
| =========                 |                                                 |
| \\      /  F ield         | OpenFOAM: The Open Source CFD Toolbox           |
|  \\    /   O peration     | Version:  2206                                  |
|   \\  /    A nd           | Website:  www.openfoam.com                      |
|    \\/     M anipulation  |                                                 |
\*---------------------------------------------------------------------------*/
FoamFile
{
    version     2.0;
    format      ascii;
    arch        "LSB;label=32;scalar=64";
    class       volScalarField;
    location    "1700";
    object      p;
}
// * * * * * * * * * * * * * * * * * * * * * * * * * * * * * * * * * * * * * //

dimensions      [0 2 -2 0 0 0 0];

internalField   nonuniform List<scalar> 
7480
(
0.062963734
0.052067967
0.036669131
0.027288715
0.021978212
0.018780899
0.016758602
0.015210359
0.013853041
0.012721872
0.011824191
0.011118353
0.010583018
0.010191562
0.0099125961
0.0097237084
0.0096044126
0.0095399219
0.0095130417
0.0095073287
0.0095251904
0.0095460665
0.0095608377
0.0095714005
0.0095758368
0.0095729376
0.0095634339
0.0095475174
0.0095237611
0.0094926929
0.0094555739
0.0094129041
0.0093651297
0.0093130475
0.0092566949
0.0091961493
0.009131693
0.0090632933
0.0089912203
0.0089159234
0.0088374961
0.0087558396
0.008671491
0.0085845317
0.0084949543
0.0084031435
0.008308912
0.0082123833
0.0081137517
0.0080127843
0.0079098097
0.0078047946
0.0076977627
0.007588869
0.0074778958
0.0073650617
0.0072502746
0.0071335462
0.00701486
0.006894176
0.0067716022
0.0066470016
0.0065204806
0.0063919312
0.0062613835
0.0061287887
0.0059941158
0.005857333
0.0057184122
0.0055773481
0.0054340925
0.0052886426
0.0051409506
0.0049910272
0.004838819
0.0046843376
0.0045275384
0.0043684542
0.0042070532
0.0040433887
0.0038774529
0.0037093242
0.0035390544
0.0033667272
0.0031925104
0.0030165263
0.0028391074
0.002660448
0.002481247
0.0023016353
0.0021235212
0.0019457411
0.0017754384
0.001602918
0.0014593884
0.001291434
0.0012340155
0.0010290984
0.0018351373
-0.0018312187
0.059275063
0.05106537
0.038733865
0.029431237
0.023099138
0.019279148
0.017003401
0.015362588
0.013968335
0.012821554
0.011912975
0.011197468
0.010653908
0.010254639
0.0099681055
0.0097723639
0.0096471912
0.009577534
0.0095475831
0.0095434757
0.009554996
0.0095690168
0.0095814245
0.0095899734
0.0095926032
0.0095881548
0.0095773053
0.0095601851
0.0095353606
0.0095033651
0.0094654341
0.0094220344
0.0093736035
0.0093209288
0.0092640368
0.0092030035
0.0091381081
0.00906931
0.008996872
0.0089212413
0.0088425061
0.0087605656
0.0086759555
0.0085887527
0.0084989489
0.0084069273
0.0083124987
0.0082157868
0.0081169838
0.0080158557
0.0079127306
0.0078075737
0.0077004083
0.0075913886
0.0074802964
0.00736735
0.0072524566
0.0071356277
0.0070168466
0.0068960725
0.0067734132
0.0066487312
0.006522133
0.0063935101
0.0062628925
0.0061302312
0.0059954951
0.0058586521
0.005719674
0.0055785552
0.0054352475
0.005289748
0.0051420086
0.0049920399
0.0048397886
0.004685266
0.0045284276
0.0043693059
0.0042078691
0.0040441704
0.003878202
0.0037100422
0.0035397428
0.0033673873
0.0031931435
0.0030171338
0.0028396905
0.0026610079
0.0024817851
0.0023021529
0.0021240197
0.0019462218
0.0017759038
0.0016033687
0.0014598305
0.0012918681
0.0012344541
0.0010296188
0.00183555
-0.0018306561
0.055509683
0.048759217
0.037972286
0.029200611
0.023360587
0.019789509
0.017500661
0.015765151
0.014286984
0.0130898
0.01214457
0.011398263
0.010830778
0.010411308
0.010107322
0.0098970325
0.0097590165
0.0096777822
0.009637923
0.0096253846
0.0096258117
0.0096319372
0.0096380449
0.0096408454
0.0096384427
0.0096297112
0.0096151443
0.0095946293
0.0095667614
0.0095321206
0.0094918874
0.0094464212
0.0093961349
0.0093417852
0.0092833724
0.0092209482
0.0091547997
0.0090848813
0.0090114065
0.0089348314
0.0088552299
0.0087724936
0.0086871559
0.0085992803
0.0085088552
0.0084162587
0.0083212937
0.0082240865
0.0081248234
0.008023266
0.0079197423
0.0078142124
0.0077066985
0.0075973523
0.0074859531
0.0073727193
0.0072575552
0.0071404717
0.0070214509
0.0069004512
0.0067775792
0.006652696
0.0065259078
0.0063971052
0.0062663177
0.0061334954
0.0059986067
0.0058616194
0.0057225044
0.0055812557
0.0054378246
0.005292208
0.0051443573
0.0049942829
0.004841931
0.0046873128
0.0045303835
0.0043711754
0.0042096564
0.0040458795
0.0038798367
0.0037116061
0.0035412393
0.0033688198
0.0031945151
0.0030184477
0.0028409496
0.0026622153
0.0024829437
0.0023032654
0.0021250902
0.0019472519
0.0017769013
0.0016043313
0.0014607782
0.0012927893
0.0012354034
0.0010305708
0.0018366301
-0.0018299239
0.05260478
0.047049712
0.037723678
0.029515578
0.023935848
0.020342205
0.017960174
0.016173754
0.01466291
0.013436026
0.01245728
0.011675906
0.011079488
0.010634435
0.01030712
0.010076056
0.0099188278
0.0098203883
0.0097653948
0.0097394816
0.0097285764
0.0097250347
0.0097225045
0.0097176469
0.0097083546
0.00969353
0.0096735816
0.0096481492
0.0096158433
0.0095773136
0.0095336335
0.0094850324
0.0094319156
0.0093750054
0.0093142563
0.0092496293
0.0091814852
0.0091097927
0.0090346464
0.0089565529
0.008875557
0.0087915366
0.008705024
0.0086160616
0.0085246328
0.0084311061
0.0083352713
0.0082372603
0.0081372507
0.0080349966
0.0079308271
0.0078246934
0.0077166165
0.0076067434
0.0074948492
0.0073811529
0.0072655533
0.0071480601
0.0070286541
0.0069072928
0.0067840806
0.0066588761
0.0065317852
0.0064026966
0.0062716392
0.0061385614
0.0060034311
0.0058662153
0.005726884
0.0055854303
0.0054418048
0.0052960038
0.0051479783
0.004997738
0.0048452285
0.0046904608
0.0045333894
0.0043740463
0.004212399
0.0040485002
0.0038823415
0.0037140008
0.0035435293
0.0033710104
0.0031966113
0.0030204542
0.0028428713
0.0026640566
0.0024847095
0.0023049597
0.002126719
0.0019488181
0.0017784156
0.0016057917
0.001462211
0.0012941804
0.001236828
0.0010319411
0.0018382953
-0.0018289419
0.049863791
0.045220617
0.037266882
0.029873024
0.024573952
0.020925282
0.01842045
0.016538899
0.014956962
0.013713247
0.012731304
0.011942497
0.011330065
0.010862735
0.010515576
0.010266608
0.010092951
0.0099796237
0.0099092098
0.0098683971
0.0098446894
0.0098296142
0.009817749
0.0098052613
0.0097891769
0.0097681882
0.0097427089
0.0097122194
0.0096752645
0.0096325615
0.0095850588
0.0095328929
0.0094764876
0.0094165694
0.0093530595
0.0092858047
0.0092152597
0.0091414037
0.0090642113
0.0089842429
0.0089015144
0.0088158901
0.0087279044
0.0086375729
0.0085448753
0.0084501708
0.0083532284
0.0082541879
0.0081532188
0.0080500677
0.0079450659
0.0078381526
0.0077293481
0.0076187942
0.0075062607
0.0073919675
0.0072758048
0.0071577812
0.0070378764
0.0069160473
0.0067923957
0.0066667761
0.0065392943
0.0064098368
0.0062784313
0.0061450241
0.0060095822
0.0058720719
0.0057324621
0.0055907446
0.005446869
0.005300831
0.005152581
0.0050021278
0.0048494162
0.0046944566
0.0045372031
0.0043776872
0.0042158756
0.0040518209
0.003885514
0.0037170325
0.0035464273
0.0033737813
0.0031992617
0.0030229902
0.0028452989
0.0026663815
0.0024869377
0.0023070966
0.0021287714
0.0019507903
0.001780319
0.0016076263
0.0014640029
0.0012959188
0.0012385899
0.0010336378
0.0018403652
-0.0018277201
0.047293806
0.043280239
0.036573363
0.03000663
0.024999471
0.021412603
0.018867951
0.01693172
0.01531366
0.014030128
0.013008541
0.012179554
0.011540905
0.011055121
0.010699018
0.010438512
0.010247735
0.010123563
0.010043946
0.0099946457
0.0099634132
0.0099396894
0.0099188766
0.0098977331
0.0098736642
0.0098458852
0.0098149758
0.0097798803
0.0097387088
0.0096922084
0.0096411669
0.0095855963
0.0095259485
0.0094629968
0.0093966432
0.0093266866
0.0092536459
0.0091774765
0.0090980969
0.0090161038
0.0089314828
0.0088440844
0.0087544569
0.0086625849
0.0085684449
0.0084723986
0.0083741931
0.0082739745
0.0081719045
0.008067718
0.0079617511
0.0078539298
0.0077442756
0.007632926
0.0075196454
0.0074046534
0.0072878293
0.0071691827
0.007048692
0.0069263131
0.0068021442
0.0066760352
0.0065480921
0.0064181995
0.0062863838
0.0061525881
0.0060167785
0.0058789209
0.0057389827
0.0055969542
0.0054527838
0.0053064665
0.0051579521
0.0050072483
0.0048542986
0.0046991133
0.0045416455
0.0043819261
0.0042199215
0.0040556834
0.0038892024
0.0037205555
0.0035497932
0.0033769981
0.0032023368
0.0030259309
0.0028481123
0.0026690743
0.0024895167
0.002309568
0.0021311428
0.0019530671
0.0017825121
0.0016097383
0.0014660561
0.001297908
0.0012405853
0.0010355678
0.001842706
-0.0018262998
0.045036648
0.041422139
0.035717233
0.029927965
0.025274183
0.021810044
0.019261659
0.017294416
0.015666191
0.014357557
0.013307071
0.012450414
0.011780773
0.011264285
0.010879424
0.010591803
0.010378414
0.01024134
0.010153644
0.010096302
0.010058058
0.010030752
0.010008155
0.0099851944
0.0099581649
0.0099257582
0.0098893532
0.0098487613
0.0098025458
0.0097520582
0.0096978119
0.0096393251
0.0095769222
0.0095113714
0.0094424868
0.0093700599
0.0092946932
0.0092162989
0.0091347755
0.0090507798
0.0089642569
0.008875044
0.0087837209
0.0086902381
0.0085945713
0.0084970959
0.0083975391
0.008296058
0.0081928033
0.0080874934
0.0079804743
0.0078716584
0.0077610682
0.0076488386
0.0075347262
0.0074189533
0.0073013909
0.0071820495
0.0070609048
0.0069379094
0.0068131587
0.0066864982
0.0065580347
0.0064276509
0.0062953718
0.0061611365
0.0060249105
0.0058866596
0.0057463492
0.0056039682
0.0054594637
0.00531283
0.0051640155
0.0050130271
0.0048598073
0.0047043657
0.0045466547
0.0043867045
0.0042244807
0.0040600345
0.0038933557
0.0037245211
0.0035535804
0.0033806159
0.0032057939
0.0030292354
0.002851272
0.0026720968
0.0024924096
0.0023123384
0.0021337985
0.0019556146
0.0017849616
0.001612095
0.0014683372
0.0013001144
0.0012427769
0.0010376892
0.0018452613
-0.0018246865
0.043084798
0.039795991
0.03484646
0.029717151
0.025423906
0.022111976
0.019595174
0.017621246
0.015989722
0.01466315
0.013592194
0.012718377
0.012026941
0.011485412
0.011077306
0.010765336
0.010527055
0.010368602
0.010260138
0.010184343
0.010132377
0.010097702
0.010072014
0.010046836
0.01001972
0.0099889839
0.009953888
0.00991375
0.0098660098
0.0098123912
0.0097544153
0.0096922832
0.0096268452
0.0095589237
0.009487945
0.0094135068
0.0093362542
0.0092559975
0.0091726096
0.0090868307
0.0089985643
0.0089076482
0.0088147092
0.0087196637
0.0086224968
0.0085236013
0.0084226819
0.0083199172
0.0082154481
0.0081089763
0.0080008641
0.0078910082
0.007779433
0.0076662714
0.0075512701
0.0074346593
0.0073163039
0.0071962151
0.0070743643
0.0069507005
0.0068253175
0.0066980562
0.0065690251
0.0064381031
0.0063053146
0.0061705963
0.0060339129
0.0058952288
0.0057545078
0.0056117378
0.0054668644
0.0053198807
0.005170734
0.0050194303
0.0048659109
0.0047101851
0.0045522042
0.0043919978
0.0042295304
0.004064853
0.0038979544
0.0037289111
0.003557772
0.0033846191
0.003209618
0.0030328894
0.0028547648
0.0026754365
0.0024956045
0.0023153962
0.0021367273
0.0019584221
0.0017876567
0.0016146856
0.0014708347
0.0013025261
0.0012451506
0.0010399838
0.0018480001
-0.001822864
0.041356245
0.038390834
0.034061694
0.02947893
0.025505981
0.022345601
0.019878876
0.017914022
0.01628658
0.014951822
0.013866763
0.012978212
0.012266954
0.011704958
0.011273814
0.010940967
0.010684528
0.010505927
0.010378147
0.010285496
0.010218843
0.010170198
0.01013214
0.010096418
0.010062605
0.010030465
0.0099955857
0.0099560134
0.009911266
0.0098608059
0.0098050585
0.009743254
0.0096762339
0.0096057668
0.0095321094
0.0094553431
0.0093763406
0.0092945938
0.0092097605
0.0091226139
0.0090329622
0.0089406348
0.0088463181
0.0087498924
0.0086513661
0.0085511588
0.0084489516
0.008344958
0.0082393116
0.0081316984
0.0080225033
0.0079116061
0.0077990374
0.0076849292
0.0075690181
0.0074515449
0.0073323671
0.0072114987
0.0070889079
0.0069645412
0.0068384907
0.0067105934
0.0065809596
0.0064494633
0.0063161291
0.0061808932
0.0060437192
0.005904569
0.0057634053
0.0056202149
0.0054749423
0.0053275795
0.0051780724
0.005026426
0.0048725809
0.0047165458
0.0045582707
0.0043977848
0.0042350516
0.0040701216
0.0039029827
0.0037337111
0.0035623548
0.0033889953
0.003213798
0.0030368829
0.0028585811
0.0026790846
0.0024990931
0.0023187338
0.0021399219
0.0019614824
0.0017905901
0.0016175032
0.0014735409
0.0013051349
0.001247696
0.0010424389
0.0018508949
-0.0018208092
0.03979561
0.037137122
0.033349498
0.029245951
0.025562344
0.022545993
0.020134882
0.018185575
0.01656532
0.015227018
0.014131179
0.013229912
0.012501763
0.011921378
0.011469034
0.011116849
0.010842879
0.010644514
0.010499101
0.010391747
0.010311391
0.010249701
0.010200812
0.010155795
0.01011356
0.01007367
0.010031384
0.0099858477
0.0099393579
0.0098897808
0.0098356324
0.0097768923
0.009713511
0.0096458298
0.0095734252
0.0094960338
0.0094153332
0.0093316494
0.0092450921
0.0091566799
0.0090659611
0.0089725979
0.0088772822
0.0087798076
0.008680199
0.0085789082
0.0084755915
0.0083705124
0.0082638023
0.0081551342
0.008044925
0.0079330374
0.0078195131
0.0077044848
0.0075876795
0.0074693521
0.0073493514
0.0072276969
0.0071043547
0.0069792705
0.0068525354
0.0067239817
0.0065937234
0.0064616299
0.0063277264
0.0061919479
0.0060542579
0.0059146163
0.0057729847
0.0056293488
0.0054836521
0.0053358859
0.0051859943
0.005033982
0.0048797885
0.0047234218
0.0045648311
0.0044040449
0.0042410258
0.0040758237
0.0039084258
0.0037389077
0.0035673168
0.0033937341
0.0032183243
0.0030412071
0.0028627131
0.0026830339
0.0025028687
0.0023223449
0.0021433765
0.0019647901
0.0017937566
0.0016205424
0.0014764498
0.0013079347
0.0012504052
0.0010450442
0.0018539196
-0.0018184951
0.03837331
0.035991162
0.032675149
0.029004553
0.025595921
0.022723443
0.020374003
0.01844568
0.016834375
0.015494428
0.01438943
0.013476554
0.012733121
0.012135456
0.011663653
0.011292727
0.01100146
0.010784479
0.010622346
0.010499634
0.010405444
0.010331673
0.01027245
0.010218935
0.010169183
0.010122323
0.010073707
0.010022974
0.0099715242
0.0099169613
0.0098581667
0.0097973118
0.0097347242
0.0096689347
0.009599281
0.0095254918
0.0094477281
0.0093656861
0.0092790249
0.0091894559
0.0090973167
0.0090027082
0.0089064987
0.008808258
0.0087079037
0.0086058644
0.0085017318
0.0083958178
0.0082882504
0.0081786925
0.0080676058
0.007954837
0.0078404463
0.0077245703
0.0076069269
0.0074877896
0.0073669983
0.0072445807
0.007120502
0.0069947085
0.0068672917
0.0067380794
0.0066071908
0.0064744912
0.0063400072
0.0062036725
0.006065451
0.0059253016
0.0057831846
0.0056390851
0.0054929456
0.005344757
0.005194462
0.0050420647
0.0048875039
0.004730787
0.0045718623
0.0044107577
0.004247435
0.0040819435
0.0039142697
0.0037444887
0.0035726473
0.0033988258
0.0032231886
0.0030458546
0.0028671542
0.0026872786
0.0025069264
0.002326225
0.0021470868
0.0019683413
0.0017971522
0.0016237995
0.001479557
0.0013109208
0.0012532718
0.0010477913
0.0018570488
-0.0018158899
0.037070209
0.034932128
0.032021819
0.028741591
0.025597967
0.022873707
0.020594929
0.01869513
0.017096116
0.015756826
0.014644358
0.013720734
0.012962943
0.012348713
0.011858384
0.011469129
0.011160799
0.010925933
0.010747135
0.010609185
0.010501573
0.010415902
0.010345905
0.010283579
0.010226225
0.01017264
0.010118703
0.010063429
0.010007456
0.0099486506
0.0098863492
0.0098221864
0.009756135
0.0096867777
0.0096149574
0.0095417843
0.0094658729
0.0093863882
0.0093031715
0.0092164533
0.0091259347
0.0090313935
0.0089343385
0.0088350394
0.0087338141
0.008631153
0.008526463
0.0084200176
0.0083118849
0.0082016917
0.0080899467
0.0079764766
0.0078613694
0.0077447702
0.0076263899
0.0075065276
0.0073850145
0.0072618896
0.0071371185
0.0070106501
0.0068825776
0.0067527249
0.0066212186
0.0064879202
0.0063528588
0.0062159672
0.0060772103
0.0059365467
0.0057939359
0.0056493626
0.0055027689
0.0053541453
0.0052034335
0.0050506373
0.0048956947
0.0047386128
0.0045793391
0.0044179011
0.0042542598
0.0040884641
0.0039204996
0.0037504413
0.0035783351
0.0034042608
0.0032283824
0.0030508183
0.0028718984
0.0026918135
0.0025112614
0.0023303701
0.0021510494
0.0019721329
0.001800774
0.0016272717
0.0014828593
0.0013140896
0.0012562905
0.001050673
0.001860257
-0.0018129568
0.035871679
0.033948135
0.031384787
0.028453502
0.025563428
0.022991407
0.020792735
0.018930253
0.017348628
0.016013471
0.014895963
0.013962909
0.013191833
0.01256182
0.012053759
0.011646647
0.011321432
0.011069087
0.010873745
0.010720748
0.01059967
0.010502004
0.010421269
0.010350028
0.010284872
0.010224392
0.01016489
0.010104767
0.0100444
0.0099820365
0.0099168263
0.0098498089
0.0097808194
0.009708813
0.0096346201
0.0095589131
0.0094802268
0.009398908
0.0093163065
0.0092313677
0.0091433086
0.0090519808
0.008957542
0.0088595822
0.0087583766
0.0086550395
0.0085495563
0.0084425393
0.008333994
0.0082234038
0.008111268
0.0079973475
0.0078817444
0.0077646098
0.0076456482
0.0075251926
0.0074030671
0.0072793268
0.0071539399
0.0070268599
0.006898184
0.0067677326
0.006635642
0.0065017707
0.0063661515
0.006228717
0.0060894341
0.0059482616
0.0058051589
0.005660111
0.0055130597
0.0053639958
0.0052128604
0.005059657
0.0049043232
0.0047468663
0.0045872327
0.00442545
0.0042614782
0.0040953663
0.003927099
0.0037567511
0.0035843677
0.0034100284
0.0032338967
0.0030560903
0.0028769389
0.0026966327
0.002515869
0.0023347761
0.0021552607
0.0019761617
0.0018046189
0.0016309563
0.0014863534
0.0013174378
0.0012594563
0.0010536821
0.001863517
-0.001809654
0.03476574
0.033030768
0.030763754
0.028142169
0.025491893
0.023073942
0.020963578
0.019147135
0.017588888
0.016262189
0.015142785
0.014202234
0.013419327
0.012774583
0.012249716
0.011825337
0.011483484
0.01121405
0.011002381
0.010834433
0.010699838
0.010590098
0.010498591
0.01041823
0.010345219
0.010277774
0.010212398
0.010147231
0.010082398
0.010016334
0.0099479892
0.009878105
0.0098065927
0.0097325407
0.0096564117
0.0095785687
0.0094978605
0.0094147888
0.0093302383
0.009243083
0.0091536868
0.0090630762
0.0089703616
0.0088748358
0.0087765594
0.0086754811
0.0085709364
0.0084638073
0.0083547082
0.008243556
0.0081310559
0.0080168541
0.0079009832
0.0077835478
0.0076642183
0.0075433573
0.0074207777
0.0072965561
0.0071706662
0.0070430701
0.0069138719
0.0067828892
0.0066502711
0.0065158737
0.0063797353
0.0062417888
0.0061020042
0.0059603415
0.0058167609
0.0056712482
0.0055237455
0.0053742445
0.0052226861
0.005069074
0.0049133457
0.0047555088
0.0045955093
0.0044333746
0.0042690645
0.0041026276
0.0039340482
0.003763401
0.0035907305
0.0034161159
0.0032397204
0.0030616613
0.0028822677
0.0027017297
0.0025207434
0.0023394382
0.0021597166
0.0019804243
0.0018086839
0.0016348504
0.0014900358
0.0013209619
0.001262764
0.0010568114
0.0018667993
-0.001805934
0.033742246
0.032173328
0.030159739
0.027811726
0.025385788
0.023121164
0.021105303
0.019342729
0.017814033
0.016500571
0.01538294
0.014437375
0.01364449
0.012986379
0.012445816
0.012004911
0.011646806
0.011360729
0.011133006
0.01095023
0.010802145
0.010680301
0.010577962
0.010488319
0.010407302
0.010332753
0.010261327
0.010191025
0.010121632
0.010051662
0.0099800109
0.009907176
0.0098330628
0.0097568136
0.0096786888
0.0095989951
0.0095168
0.009432362
0.0093462301
0.0092575396
0.0091667895
0.0090745543
0.0089800093
0.0088837844
0.0087863792
0.0086869828
0.0085848821
0.0084803121
0.0083729517
0.0082623546
0.0081496257
0.0080349765
0.0079187708
0.0078011236
0.0076816007
0.007560544
0.0074377134
0.0073131926
0.0071869563
0.0070589773
0.0069293703
0.0067979524
0.0066648893
0.0065300356
0.0063934374
0.0062550288
0.006114784
0.0059726651
0.0058286341
0.0056826786
0.0055347416
0.0053848165
0.0052328443
0.0050788298
0.0049227105
0.0047644949
0.0046041287
0.0044416399
0.0042769876
0.004110221
0.0039413236
0.0037703706
0.0035974056
0.0034225079
0.0032458404
0.0030675198
0.002887875
0.0027070959
0.0025258774
0.0023443501
0.0021644117
0.001984916
0.0018129646
0.0016389504
0.0014939025
0.0013246579
0.0012662077
0.0010600529
0.0018700713
-0.0018017433
0.032792445
0.031370111
0.029573894
0.027466901
0.025248981
0.023134645
0.02121731
0.019515096
0.018021789
0.016726427
0.015614519
0.014666815
0.013866155
0.013196338
0.012641402
0.012184898
0.011811094
0.011508897
0.011265468
0.011068051
0.010906558
0.010772609
0.010659403
0.01056036
0.010471192
0.010389417
0.010311803
0.010236221
0.010162136
0.010088119
0.010013043
0.0099371662
0.0098603403
0.0097817614
0.0097015585
0.0096199658
0.0095361705
0.0094503045
0.0093628303
0.0092730576
0.0091812704
0.0090878118
0.0089921035
0.0088947961
0.0087959076
0.0086949915
0.0085928773
0.0084893496
0.0083836476
0.008275523
0.0081649444
0.0080514236
0.0079354117
0.0078175007
0.0076976592
0.0075764177
0.0074534626
0.0073288212
0.0072024248
0.0070742353
0.0069443714
0.0068126479
0.0066792514
0.0065440368
0.006407061
0.0062682606
0.0061276159
0.0059850921
0.0058406537
0.0056942912
0.0055459494
0.0053956242
0.0052432574
0.0050888557
0.0049323568
0.0047737709
0.0046130436
0.004450204
0.0042852109
0.0041181142
0.003948897
0.0037776351
0.0036043716
0.0034291857
0.0032522403
0.0030736518
0.0028937488
0.002712721
0.0025312621
0.0023495044
0.0021693394
0.0019896312
0.0018174559
0.0016432516
0.0014979484
0.0013285209
0.0012697808
0.0010633977
0.0018732965
-0.0017970215
0.031908718
0.030616097
0.029007061
0.02711219
0.02508583
0.023116968
0.021300191
0.019663355
0.018210623
0.016938015
0.015835821
0.014889075
0.014083086
0.013403476
0.012835688
0.0123647
0.011975921
0.011658231
0.011399533
0.011187737
0.011012971
0.010866962
0.010742887
0.010634355
0.010536919
0.010447816
0.01036388
0.010282873
0.010203981
0.010125803
0.010047182
0.0099681563
0.0098885166
0.0098075065
0.0097251383
0.0096415703
0.0095560812
0.0094687168
0.0093798601
0.0092889094
0.0091960536
0.0091016105
0.0090051053
0.008906935
0.0088070549
0.0087052256
0.0086021876
0.0084972631
0.0083905456
0.0082828699
0.0081735791
0.0080619324
0.0079481064
0.0078317738
0.0077125319
0.0075912267
0.0074680282
0.0073432239
0.0072167433
0.0070884872
0.0069585328
0.0068266643
0.0066930797
0.0065576295
0.0064203844
0.0062812854
0.0061403213
0.0059974619
0.0058526759
0.0057059577
0.0055572546
0.0054065659
0.0052538351
0.0050990712
0.0049422134
0.0047832736
0.0046221983
0.0044590177
0.0042936909
0.0041262689
0.0039567347
0.0037851649
0.0036116024
0.0034361266
0.0032589004
0.0030800401
0.002899874
0.002718592
0.0025368864
0.0023548912
0.0021744913
0.0019945624
0.001822151
0.001647748
0.0015021673
0.001332545
0.0012734753
0.0010668352
0.0018764339
-0.001791701
0.031084397
0.029906819
0.028459678
0.026751512
0.024900629
0.023071163
0.021355309
0.019787456
0.018379683
0.017134096
0.016045473
0.01510285
0.014294118
0.013606798
0.013027845
0.012543651
0.012140785
0.011808335
0.011534903
0.01130907
0.01112123
0.010963256
0.010828345
0.010710272
0.010604476
0.010507955
0.01041758
0.010331018
0.010247212
0.010164762
0.010082479
0.010000205
0.0099176642
0.0098341342
0.009749521
0.0096639055
0.0095766427
0.0094877029
0.0093973932
0.0093051905
0.0092112174
0.0091157503
0.0090183569
0.0089193497
0.008818741
0.0087162983
0.0086124828
0.0085067518
0.008399314
0.0082906766
0.0081801866
0.0080683288
0.0079552317
0.00784022
0.0077230445
0.0076035357
0.0074812672
0.0073566398
0.0072300116
0.0071016134
0.0069716005
0.0068396975
0.0067060718
0.0065705349
0.0064331571
0.0062938793
0.0061526994
0.0060095942
0.0058645385
0.005717532
0.0055685261
0.0054175244
0.0052644726
0.0051093833
0.0049521973
0.0047929295
0.0046315272
0.0044680229
0.0043023763
0.0041346398
0.0039647967
0.0037929248
0.0036190671
0.0034433034
0.0032657969
0.0030866637
0.0029062325
0.002724693
0.0025427362
0.0023604984
0.0021798567
0.0019997004
0.0018270416
0.0016524322
0.0015065514
0.0013367227
0.0012772821
0.0010703533
0.001879437
-0.0017857057
0.030313624
0.02923829
0.027931817
0.026388142
0.024697355
0.023000356
0.021384444
0.019887915
0.018528662
0.017313879
0.016242438
0.015307056
0.014498215
0.013805374
0.013217057
0.012721066
0.012305141
0.011958769
0.011671234
0.011431786
0.011231141
0.011061351
0.010915678
0.010788046
0.010673828
0.010569817
0.010472901
0.01038067
0.01029185
0.010205023
0.010118966
0.010033349
0.0099478242
0.0098616885
0.0097747549
0.0096870287
0.0095979244
0.0095073466
0.0094155279
0.0093220106
0.0092268557
0.0091302961
0.0090319535
0.0089320822
0.008830698
0.008727559
0.0086230624
0.0085167951
0.0084088347
0.0082995157
0.0081883668
0.0080758911
0.0079617416
0.0078459341
0.0077291065
0.0076106758
0.0074900515
0.0073672215
0.0072417646
0.0071137751
0.0069837294
0.0068517064
0.0067180368
0.006582497
0.0064451137
0.0063057926
0.0061645243
0.0060212864
0.0058760594
0.0057288504
0.0055796162
0.0054283666
0.0052750504
0.0051196848
0.0049622128
0.0048026529
0.0046409543
0.004477152
0.0043112068
0.0041431735
0.0039730356
0.003800873
0.0036267287
0.0034506834
0.0032729009
0.0030934976
0.0029128021
0.0027310045
0.0025487945
0.0023663111
0.0021854225
0.0020050336
0.0018321172
0.0016572948
0.0015110913
0.0013410453
0.00128119
0.0010739376
0.0018822531
-0.0017789503
0.029591241
0.028606952
0.02742327
0.026024736
0.024479568
0.022907583
0.021389566
0.019965611
0.018657637
0.01747693
0.01642598
0.015500833
0.014694496
0.013998366
0.013402557
0.012896277
0.012468438
0.012109075
0.011808152
0.011555591
0.011342475
0.011161076
0.011004757
0.010867591
0.010744915
0.010633364
0.010529825
0.010431822
0.010337897
0.010246595
0.010156661
0.010067611
0.009979021
0.0098901971
0.0098008699
0.0097109718
0.0096199616
0.0095276882
0.0094343123
0.0093394281
0.0092430423
0.0091453441
0.0090460026
0.0089452102
0.0088429838
0.0087391013
0.0086339115
0.0085270455
0.0084185229
0.0083086807
0.008197116
0.008084108
0.0079693838
0.0078530673
0.0077354796
0.0076161403
0.0074954364
0.0073733415
0.0072491591
0.0071228994
0.0069941904
0.0068627553
0.0067291481
0.006593529
0.0064561161
0.0063168118
0.0061755632
0.0060323151
0.0058870348
0.0057397294
0.0055903599
0.0054389435
0.005285434
0.0051298542
0.0049721504
0.0048123459
0.0046503917
0.0044863265
0.0043201127
0.0041518077
0.0039813961
0.0038089603
0.0036345437
0.0034582281
0.0032801785
0.0031005114
0.0029195562
0.0027375032
0.0025550408
0.0023723111
0.0021911725
0.0020105476
0.0018373647
0.0016623242
0.0015157753
0.0013455017
0.0012851863
0.0010775711
0.0018848216
-0.0017713397
0.028912685
0.028009633
0.026933621
0.025663413
0.024250397
0.022795707
0.021372709
0.020021637
0.018766958
0.017623083
0.016595596
0.015683509
0.014882222
0.014185032
0.013583644
0.013068651
0.012630133
0.012258788
0.01194527
0.011680172
0.011454986
0.011262239
0.011095435
0.010948798
0.010817662
0.010698541
0.010588316
0.010484456
0.010385343
0.010289479
0.010195572
0.010103001
0.010011269
0.0099196775
0.0098278858
0.0097357555
0.0096427774
0.0095487516
0.0094537716
0.0093574712
0.0092598109
0.0091609368
0.0090605554
0.0089588027
0.0088556947
0.0087510277
0.0086450903
0.0085375639
0.0084284515
0.0083180644
0.0082060155
0.0080925226
0.0079774236
0.007860731
0.007742639
0.0076228156
0.007501587
0.0073786515
0.0072541402
0.0071282862
0.0070005326
0.0068707041
0.0067384881
0.0066035816
0.0064663282
0.0063269854
0.0061857195
0.0060425021
0.0058972603
0.0057499691
0.0056005732
0.0054490892
0.0052954735
0.005139756
0.0049818877
0.0048218975
0.0046597395
0.0044954566
0.0043290133
0.0041604704
0.003989814
0.0038171295
0.003642461
0.0034658923
0.0032875894
0.0031076697
0.0029264632
0.0027441611
0.0025614503
0.0023784766
0.0021970874
0.0020162252
0.0018427684
0.0016675061
0.0015205894
0.0013500789
0.0012892557
0.0010812339
0.0018870741
-0.0017627673
0.028273914
0.0274435
0.02646231
0.025305827
0.024012557
0.022667378
0.02133589
0.020057217
0.01885716
0.017752365
0.016750968
0.015854564
0.015060774
0.014364725
0.013759679
0.013237591
0.0127897
0.01240745
0.012082195
0.011805204
0.011568411
0.011364632
0.011187549
0.011031542
0.010891978
0.010765281
0.010648327
0.010538541
0.010434168
0.010333662
0.010235694
0.010139522
0.010044572
0.0099501391
0.0098558144
0.0097613931
0.0096663869
0.0095705535
0.0094739227
0.0093761583
0.0092771809
0.0091770941
0.0090756346
0.0089728893
0.0088688697
0.0087633854
0.0086566684
0.0085484475
0.0084387067
0.0083277162
0.0082151348
0.0081011526
0.0079856282
0.007868527
0.0077500572
0.0076299232
0.0075082863
0.0073849209
0.0072600404
0.007133454
0.007005138
0.006875529
0.0067441347
0.0066105994
0.0064747093
0.0063361582
0.0061951314
0.006051915
0.0059066697
0.0057594196
0.0056100761
0.0054586242
0.0053050028
0.0051492399
0.0049912886
0.0048311846
0.004668886
0.0045044411
0.0043378173
0.0041690795
0.0039982155
0.0038253144
0.0036504217
0.0034736232
0.0032950867
0.0031149306
0.002933486
0.0027509452
0.0025679936
0.0023847814
0.0022031437
0.0020220456
0.0018483094
0.0016728234
0.0015255169
0.0013547612
0.0012933804
0.001084903
0.0018889447
-0.0017531137
0.027671336
0.026906023
0.026008687
0.024953248
0.023768382
0.022525022
0.021281075
0.020073653
0.018928916
0.017864957
0.016891922
0.016013604
0.015229636
0.014536871
0.013930079
0.013402541
0.012946635
0.012554609
0.012218537
0.011930355
0.011682475
0.011468033
0.01128092
0.011115687
0.010967758
0.010833505
0.010709799
0.010594035
0.010484343
0.010379125
0.010277016
0.010177168
0.01007893
0.009981584
0.0098846607
0.0097878912
0.009690799
0.0095931042
0.0094947769
0.009395502
0.0092951653
0.0091938295
0.0090912548
0.0089874855
0.0088825248
0.0087761934
0.0086686737
0.0085597328
0.0084493357
0.0083377138
0.0082245699
0.0081100573
0.0079940506
0.0078765143
0.0077576475
0.0076371522
0.0075151564
0.0073915191
0.0072663032
0.0071393393
0.0070107062
0.0068805224
0.0067485262
0.0066150138
0.0064797906
0.0063424181
0.0062027043
0.0060603225
0.0059153734
0.0057681571
0.0056188232
0.0054674214
0.0053138625
0.0051581448
0.0050002029
0.0048400705
0.0046777073
0.0045131677
0.0043464225
0.0041775422
0.0040065168
0.0038334397
0.003658358
0.00348136
0.003302616
0.0031222456
0.0029405813
0.0027578168
0.0025746363
0.0023911946
0.002209314
0.002027984
0.0018539651
0.0016782557
0.001530538
0.00135953
0.0012975398
0.0010885505
0.0018903779
-0.001742244
0.027101753
0.026394934
0.02557205