/*--------------------------------*- C++ -*----------------------------------*\
| =========                 |                                                 |
| \\      /  F ield         | OpenFOAM: The Open Source CFD Toolbox           |
|  \\    /   O peration     | Version:  2206                                  |
|   \\  /    A nd           | Website:  www.openfoam.com                      |
|    \\/     M anipulation  |                                                 |
\*---------------------------------------------------------------------------*/
FoamFile
{
    version     2.0;
    format      ascii;
    arch        "LSB;label=32;scalar=64";
    class       surfaceScalarField;
    location    "1700";
    object      phi;
}
// * * * * * * * * * * * * * * * * * * * * * * * * * * * * * * * * * * * * * //

dimensions      [0 3 -1 0 0 0 0];

oriented        oriented;

internalField   nonuniform List<scalar> 
14782
(
0.00064615472
7.5268447e-05
-0.00072142317
0.00055262454
9.3530179e-05
0.00046312823
8.9496317e-05
0.00039126034
7.186789e-05
0.0003400602
5.1200134e-05
0.00030399522
3.6064982e-05
0.00027725646
2.6738763e-05
0.00025613265
2.1123802e-05
0.00023864204
1.7490609e-05
0.0002239012
1.4740848e-05
0.00021143315
1.2468045e-05
0.00020085886
1.0574293e-05
0.0001918788
8.9800578e-06
0.00018423908
7.6397205e-06
0.00017771477
6.5243072e-06
0.00017212492
5.5898537e-06
0.00016732094
4.8039768e-06
0.00016317845
4.1424886e-06
0.00015958828
3.5901782e-06
0.00015643975
3.1485276e-06
0.00015365855
2.7811973e-06
0.00015116755
2.4910015e-06
0.00014890931
2.2582418e-06
0.0001468448
2.0645121e-06
0.00014494189
1.9029073e-06
0.00014317521
1.7666736e-06
0.00014152534
1.6498768e-06
0.0001399748
1.5505332e-06
0.00013850683
1.4679794e-06
0.0001371098
1.3970248e-06
0.00013577693
1.3328738e-06
0.00013450194
1.2749903e-06
0.00013327875
1.2231871e-06
0.00013210231
1.1764351e-06
0.00013096803
1.1342823e-06
0.00012987063
1.0974021e-06
0.00012880586
1.0647682e-06
0.0001277712
1.0346665e-06
0.00012676352
1.0076723e-06
0.0001257804
9.8312221e-07
0.00012481985
9.6055487e-07
0.00012387977
9.400744e-07
0.00012295904
9.207329e-07
0.00012205648
9.0255824e-07
0.00012117083
8.856547e-07
0.00012030125
8.6957869e-07
0.00011944639
8.5486024e-07
0.00011860524
8.4114305e-07
0.00011777722
8.2802102e-07
0.0001169614
8.1582472e-07
0.00011615738
8.0401855e-07
0.00011536465
7.9272884e-07
0.00011458275
7.8190348e-07
0.0001138114
7.7134979e-07
0.00011305002
7.6137579e-07
0.00011229839
7.5163044e-07
0.00011155608
7.4230677e-07
0.00011082268
7.3340884e-07
0.00011009781
7.2486907e-07
0.00010938124
7.1656398e-07
0.00010867294
7.0829837e-07
0.00010797265
7.0029176e-07
0.00010728022
6.9243207e-07
0.00010659544
6.8478427e-07
0.00010591817
6.7726793e-07
0.00010524821
6.6995363e-07
0.00010458536
6.6285462e-07
0.00010392945
6.5591073e-07
0.00010328036
6.490872e-07
0.00010263799
6.4237595e-07
0.00010200218
6.3581015e-07
0.00010137282
6.2935733e-07
0.00010074981
6.230108e-07
0.00010013305
6.1675333e-07
9.9522414e-05
6.1063973e-07
9.8917773e-05
6.0464124e-07
9.8319001e-05
5.9877173e-07
9.7726002e-05
5.9299909e-07
9.713865e-05
5.8735252e-07
9.6556843e-05
5.8180633e-07
9.598045e-05
5.7639332e-07
9.5409357e-05
5.7109277e-07
9.4843432e-05
5.6592538e-07
9.4282522e-05
5.6091014e-07
9.3726478e-05
5.5604345e-07
9.3175099e-05
5.5137982e-07
9.2628186e-05
5.469131e-07
9.2085443e-05
5.4274219e-07
9.154658e-05
5.3886315e-07
9.1011094e-05
5.3548627e-07
9.047853e-05
5.3256399e-07
8.9947766e-05
5.3076344e-07
8.9418288e-05
5.2947857e-07
8.888659e-05
5.3169773e-07
8.8353897e-05
5.3269363e-07
8.7804323e-05
5.4957339e-07
8.7253619e-05
5.507041e-07
8.6604894e-05
6.487246e-07
8.6347291e-05
2.5760362e-07
1.2047066e-06
0.00078826605
8.1467588e-05
-0.00079446519
0.00076959709
0.00011219913
0.00073472044
0.00012437297
0.000687461
0.00011912734
0.0006353905
0.00010327063
0.0005857904
8.5665086e-05
0.00054212744
7.0401721e-05
0.00050501065
5.8240594e-05
0.00047372845
4.8772808e-05
0.00044732599
4.1143301e-05
0.00042491342
3.4880618e-05
0.00040575576
2.9731949e-05
0.00038930491
2.5430912e-05
0.00037513331
2.1811319e-05
0.00036289139
1.8766228e-05
0.00035229121
1.6190032e-05
0.00034307679
1.4018398e-05
0.00033502541
1.2193869e-05
0.00032794543
1.067016e-05
0.00032167452
9.4194362e-06
0.00031607826
8.3774552e-06
0.00031103763
7.5316339e-06
0.000306459
6.8368716e-06
0.00030226926
6.254252e-06
0.00029840832
5.7638432e-06
0.00029482792
5.3470747e-06
0.00029148953
4.988268e-06
0.00028835915
4.680914e-06
0.00028540727
4.4198553e-06
0.00028261138
4.1929158e-06
0.00027995513
3.9891309e-06
0.00027742401
3.8061068e-06
0.00027500499
3.6422108e-06
0.00027268683
3.4945923e-06
0.0002704599
3.3612117e-06
0.00026831375
3.243553e-06
0.00026623965
3.1388663e-06
0.00026423184
3.0424734e-06
0.00026228372
2.9557976e-06
0.00026038992
2.876917e-06
0.00025854606
2.804416e-06
0.00025674793
2.738203e-06
0.00025499245
2.6762196e-06
0.00025327676
2.6182449e-06
0.00025159813
2.5642898e-06
0.00024995427
2.5134376e-06
0.00024834251
2.4666213e-06
0.00024676065
2.4229983e-06
0.00024520704
2.38163e-06
0.00024367985
2.343012e-06
0.00024217785
2.3060232e-06
0.00024069977
2.2708093e-06
0.00023924449
2.2371809e-06
0.00023781112
2.204719e-06
0.00023639853
2.1739641e-06
0.00023500596
2.1441992e-06
0.00023363249
2.1157849e-06
0.00023227717
2.0887268e-06
0.00023093921
2.0628312e-06
0.00022961803
2.0377442e-06
0.00022831329
2.0130333e-06
0.00022702445
1.9891344e-06
0.00022575104
1.9658378e-06
0.0002244926
1.9432267e-06
0.00022324874
1.9211277e-06
0.00022201901
1.8996896e-06
0.00022080292
1.8789381e-06
0.00021960012
1.858713e-06
0.00021841029
1.8389164e-06
0.00021723314
1.819527e-06
0.00021606834
1.8006054e-06
0.00021491562
1.7820765e-06
0.00021377473
1.7639045e-06
0.00021264543
1.7460584e-06
0.00021152741
1.7286546e-06
0.00021042042
1.7116323e-06
0.00020932418
1.6950069e-06
0.00020823847
1.6787111e-06
0.00020716303
1.6627982e-06
0.00020609762
1.6472176e-06
0.00020504197
1.6320355e-06
0.00020399586
1.6172107e-06
0.00020295899
1.6027896e-06
0.00020193108
1.5888184e-06
0.00020091182
1.5753053e-06
0.00019990083
1.5623691e-06
0.0001988977
1.5500412e-06
0.00019790193
1.5385193e-06
0.00019691285
1.5279352e-06
0.00019592974
1.5185974e-06
0.00019495134
1.510972e-06
0.00019397647
1.5056248e-06
0.00019300221
1.503739e-06
0.00019202646
1.5074484e-06
0.00019104234
1.5168149e-06
0.00019003961
1.5523019e-06
0.0001890077
1.5826191e-06
0.00018789864
1.757783e-06
0.00018700939
1.1468583e-06
2.7605343e-06
0.00083001929
7.8093313e-05
-0.00082664502
0.00083427816
0.00010794026
0.0008352914
0.00012335973
0.00082843833
0.00012598041
0.00081022646
0.0001214825
0.00078263399
0.00011325755
0.00074996852
0.00010306719
0.0007157927
9.2416422e-05
0.00068229848
8.2267028e-05
0.00065081498
7.2626794e-05
0.00062199388
6.3701719e-05
0.00059604101
5.568482e-05
0.00057291125
4.8560674e-05
0.00055239962
4.2322948e-05
0.0005342322
3.6933647e-05
0.00051813233
3.2289903e-05
0.00050383351
2.8317219e-05
0.00049109738
2.493e-05
0.00047971316
2.2054377e-05
0.00046949918
1.9633421e-05
0.00046029172
1.758491e-05
0.00045194886
1.5874502e-05
0.00044434966
1.4436068e-05
0.0004373917
1.3212207e-05
0.00043098698
1.2168568e-05
0.00042505914
1.1274914e-05
0.00041954594
1.0501464e-05
0.00041439706
9.8298018e-06
0.00040956888
9.2480296e-06
0.00040502475
8.7370467e-06
0.00040073364
8.2802413e-06
0.00039666859
7.8711616e-06
0.00039280613
7.5046623e-06
0.00038912646
7.1742651e-06
0.0003856124
6.8752691e-06
0.00038224645
6.6095068e-06
0.00037901414
6.3711732e-06
0.00037590431
6.1523069e-06
0.0003729054
5.954707e-06
0.00037000809
5.7742223e-06
0.00036720429
5.6082185e-06
0.00036448642
5.4560784e-06
0.00036184817
5.3144657e-06
0.00035928387
5.1825504e-06
0.0003567882
5.0599514e-06
0.00035435658
4.9450596e-06
0.00035198437
4.8388338e-06
0.00034966753
4.7398325e-06
0.00034740269
4.6464727e-06
0.00034518651
4.5591899e-06
0.00034301629
4.4762482e-06
0.00034088943
4.3976649e-06
0.00033880362
4.322993e-06
0.00033675685
4.2514859e-06
0.00033474707
4.1837504e-06
0.00033277256
4.1187098e-06
0.00033083154
4.0567997e-06
0.00032892234
3.9979325e-06
0.00032704346
3.9417129e-06
0.00032519368
3.887524e-06
0.00032337201
3.8346955e-06
0.00032157735
3.7838027e-06
0.00031980867
3.7345125e-06
0.00031806503
3.6868652e-06
0.00031634558
3.6405798e-06
0.00031464942
3.595847e-06
0.00031297569
3.552669e-06
0.00031132364
3.5107613e-06
0.00030969261
3.4699469e-06
0.00030808197
3.4301698e-06
0.00030649109
3.3914864e-06
0.0003049194
3.3537649e-06
0.00030336638
3.3169266e-06
0.00030183152
3.2809216e-06
0.00030031426
3.2459055e-06
0.00029881412
3.2117768e-06
0.00029733059
3.1785382e-06
0.00029586322
3.146084e-06
0.00029441154
3.114477e-06
0.00029297511
3.0836396e-06
0.00029155349
3.0536623e-06
0.00029014622
3.0244825e-06
0.00028875284
2.9961687e-06
0.00028737286
2.9687949e-06
0.00028600577
2.9423923e-06
0.000284651
2.9171419e-06
0.00028330789
2.893151e-06
0.00028197571
2.8706987e-06
0.00028065347
2.8501807e-06
0.0002793402
2.8318664e-06
0.00027803391
2.8172635e-06
0.00027673351
2.8060199e-06
0.00027543382
2.8034275e-06
0.00027413451
2.8067574e-06
0.00027282098
2.8303505e-06
0.0002714905
2.8827809e-06
0.00027010565
2.9674652e-06
0.00026867438
3.1890598e-06
0.00026724858
2.5726549e-06
4.4354992e-06
0.00086043518
7.4517503e-05
-0.00085685937
0.00086658123
0.00010179421
0.00087260488
0.00011733608
0.00087684956
0.00012173573
0.00087828389
0.00012004817
0.00087546111
0.00011608033
0.00086714055
0.00011138775
0.0008530315
0.00010652547
0.00083400698
0.00010129155
0.00081175055
9.4883221e-05
0.00078764851
8.7803758e-05
0.00076280747
8.0525863e-05
0.00073814966
7.3218482e-05
0.00071436445
6.6108162e-05
0.00069191369
5.9384406e-05
0.00067105785
5.3145746e-05
0.00065188243
4.7492631e-05
0.00063435575
4.2456682e-05
0.00061837481
3.8035316e-05
0.00060380926
3.4198973e-05
0.00059052055
3.087362e-05
0.00057837637
2.8018678e-05
0.00056725297
2.5559468e-05
0.00055703586
2.3429317e-05
0.00054762006
2.1584377e-05
0.00053890954
1.9985429e-05
0.00053082161
1.8589395e-05
0.00052328781
1.73636e-05
0.00051624755
1.6288291e-05
0.00050964741
1.5337185e-05
0.00050344065
1.4487e-05
0.00049758632
1.3725493e-05
0.00049204812
1.3042861e-05
0.00048679521
1.2427178e-05
0.00048180103
1.1869452e-05
0.00047704158
1.1368949e-05
0.00047249568
1.091708e-05
0.00046814447
1.0503514e-05
0.00046397104
1.0128138e-05
0.0004599605
9.7847648e-06
0.00045609977
9.4689447e-06
0.00045237682
9.1790262e-06
0.00044878119
8.9101034e-06
0.0004453034
8.6603348e-06
0.00044193474
8.4286101e-06
0.00043866765
8.2121477e-06
0.00043549498
8.0115093e-06
0.00043241023
7.8245775e-06
0.00042940782
7.6488855e-06
0.00042648242
7.4845948e-06
0.00042362937
7.3292936e-06
0.00042084433
7.1827067e-06
0.00041812334
7.0439835e-06
0.00041546295
6.91187e-06
0.00041285985
6.7868557e-06
0.00041031106
6.6674938e-06
0.0004078137
6.5541629e-06
0.00040536512
6.4465164e-06
0.00040296296
6.3438709e-06
0.00040060512
6.2453603e-06
0.00039828974
6.1500788e-06
0.00039601491
6.0586351e-06
0.00039377891
5.9705075e-06
0.00039158015
5.8856312e-06
0.00038941714
5.8035881e-06
0.00038728843
5.724554e-06
0.00038519265
5.6484474e-06
0.00038312858
5.5748369e-06
0.00038109507
5.5034553e-06
0.00037909106
5.4341785e-06
0.00037711553
5.3670163e-06
0.00037516753
5.3017604e-06
0.00037324618
5.2382811e-06
0.00037135061
5.1764947e-06
0.00036947995
5.1165593e-06
0.00036763341
5.0583159e-06
0.00036581021
5.0017405e-06
0.00036400961
4.9466809e-06
0.0003622309
4.8931929e-06
0.00036047337
4.8411638e-06
0.00035873634
4.7906956e-06
0.00035701912
4.741699e-06
0.00035532104
4.6942562e-06
0.00035364137
4.6484656e-06
0.00035197937
4.6043842e-06
0.00035033427
4.562251e-06
0.00034870515
4.5222702e-06
0.00034709105
4.4847916e-06
0.00034549068
4.4505531e-06
0.00034390284
4.4197053e-06
0.00034232498
4.395121e-06
0.00034075595
4.3750518e-06
0.00033918907
4.3703087e-06
0.0003376249
4.3709326e-06
0.00033604399
4.4112609e-06
0.0003344479
4.4788712e-06
0.00033278195
4.6334071e-06
0.00033108861
4.8824065e-06
0.00032924506
4.4161992e-06
6.2192951e-06
0.00089046307
7.1470364e-05
-0.00088741593
0.00089630084
9.5956441e-05
0.00090263389
0.00011100302
0.00090797957
0.00011639006
0.00091175215
0.00011627559
0.00091429648
0.000113536
0.00091540595
0.00011027828
0.00091468378
0.00010724764
0.00091183167
0.00010414366
0.00090585021
0.00010086468
0.00089632614
9.7327827e-05
0.00088338684
9.346516e-05
0.00086765839
8.8946931e-05
0.00084985118
8.3915378e-05
0.00083060617
7.8629411e-05
0.00081056132
7.3190596e-05
0.00079032488
6.772907e-05
0.00077042464
6.2356923e-05
0.00075126384
5.7196118e-05
0.00073310821
5.2354599e-05
0.00071608866
4.7893175e-05
0.00070023081
4.3876526e-05
0.0006854975
4.0292775e-05
0.00067182213
3.7104695e-05
0.00065912691
3.4279596e-05
0.00064733075
3.1781592e-05
0.00063635381
2.9566334e-05
0.00062612024
2.7597165e-05
0.00061655815
2.5850385e-05
0.00060760245
2.4292879e-05
0.00059919519
2.2894262e-05
0.00059128379
2.1636893e-05
0.0005838205
2.0506157e-05
0.0005767635
1.9484175e-05
0.00057007565
1.8557305e-05
0.00056372477
1.7719832e-05
0.00055768212
1.695973e-05
0.0005519207
1.6264932e-05
0.00054641691
1.5631921e-05
0.00054114978
1.5051898e-05
0.00053610043
1.4518299e-05
0.00053125134
1.4028112e-05
0.00052658711
1.3574337e-05
0.00052209374
1.3153701e-05
0.0005177583
1.2764054e-05
0.0005135696
1.2400848e-05
0.00050951748
1.2063628e-05
0.00050559273
1.1749328e-05
0.00050178715
1.1454461e-05
0.00049809289
1.1178853e-05
0.00049450291
1.0919282e-05
0.00049101069
1.0674927e-05
0.0004876103
1.0444371e-05
0.00048429649
1.0225675e-05
0.00048106429
1.0019062e-05
0.00047790915
9.82263e-06
0.00047482683
9.6364784e-06
0.00047181355
9.4597962e-06
0.00046886588
9.29155e-06
0.00046598056
9.1306782e-06
0.00046315463
8.9760023e-06
0.00046038525
8.8280235e-06
0.00045766981
8.6859486e-06
0.00045500589
8.5495471e-06
0.00045239126
8.418214e-06
0.00044982378
8.2920334e-06
0.00044730147
8.1707653e-06
0.00044482249
8.0538131e-06
0.00044238514
7.9408024e-06
0.00043998783
7.8314949e-06
0.00043762904
7.7258041e-06
0.00043530737
7.6234239e-06
0.00043302149
7.5241687e-06
0.00043077009
7.4278917e-06
0.00042855194
7.3347068e-06
0.00042636588
7.2443756e-06
0.00042421079
7.1568327e-06
0.00042208561
7.0718656e-06
0.00041998929
6.9895046e-06
0.00041792087
6.9095882e-06
0.00041587935
6.8322152e-06
0.00041386379
6.7572594e-06
0.00041187324
6.684806e-06
0.00040990674
6.6149694e-06
0.00040796329
6.54783e-06
0.00040604186
6.4836789e-06
0.00040414131
6.4228271e-06
0.00040226041
6.3656886e-06
0.00040039757
6.3133879e-06
0.00039855136
6.2659195e-06
0.00039671877
6.227706e-06
0.00039489847
6.1953607e-06
0.00039308277
6.1860067e-06
0.00039127248
6.1812244e-06
0.00038944523
6.2385021e-06
0.0003876045
6.3196102e-06
0.00038568491
6.5529881e-06
0.00038374917
6.818147e-06
0.00038154985
6.6155188e-06
8.1380227e-06
0.00092126009
6.8793773e-05
-0.0009185835
0.00092647639
9.074014e-05
0.00093230003
0.00010517938
0.00093742653
0.00011126356
0.00094153114
0.00011217098
0.00094453547
0.00011053168
0.00094667241
0.00010814134
0.00094815704
0.00010576301
0.00094912167
0.00010317903
0.00094943408
0.00010055227
0.00094877589
9.7986023e-05
0.0009468513
9.5389748e-05
0.0009430388
9.2759427e-05
0.00093687865
9.0075535e-05
0.00092816015
8.7347911e-05
0.00091699282
8.4357928e-05
0.00090371047
8.1011411e-05
0.0008886454
7.7421999e-05
0.00087219049
7.3651028e-05
0.00085482702
6.9718065e-05
0.00083707072
6.5649481e-05
0.0008193924
6.1554842e-05
0.00080217062
5.7514556e-05
0.00078565945
5.361586e-05
0.00076999214
4.994691e-05
0.00075521126
4.6562468e-05
0.00074130764
4.3469957e-05
0.00072824647
4.0658333e-05
0.00071597983
3.8117027e-05
0.00070445545
3.581726e-05
0.00069361941
3.3730295e-05
0.00068341749
3.1838822e-05
0.00067379772
3.0125925e-05
0.00066471242
2.8569467e-05
0.00065611678
2.7152952e-05
0.00064797002
2.5866587e-05
0.00064023604
2.4693716e-05
0.00063288092
2.3620048e-05
0.00062587379
2.263905e-05
0.00061918737
2.1738322e-05
0.00061279678
2.0908885e-05
0.00060667886
2.0146036e-05
0.00060081291
1.9440285e-05
0.00059518006
1.8786552e-05
0.00058976288
1.8181233e-05
0.00058454596
1.7617773e-05
0.00057951527
1.7094317e-05
0.00057465823
1.6606361e-05
0.00056996354
1.6149156e-05
0.00056542041
1.5721981e-05
0.00056101914
1.532055e-05
0.00055675078
1.4943284e-05
0.00055260708
1.4588078e-05
0.0005485806
1.4252151e-05
0.00054466427
1.3935396e-05
0.00054085168
1.3635221e-05
0.00053713706
1.3351092e-05
0.00053351524
1.3081622e-05
0.00052998138
1.2825411e-05
0.00052653088
1.2581172e-05
0.00052315954
1.2347342e-05
0.00051986338
1.2124188e-05
0.00051663878
1.1910549e-05
0.00051348233
1.1705993e-05
0.00051039086
1.1509685e-05
0.0005073614
1.1321491e-05
0.00050439124
1.1140925e-05
0.00050147784
1.096722e-05
0.00049861878
1.0799858e-05
0.00049581185
1.0638423e-05
0.00049305498
1.048268e-05
0.00049034619
1.0332207e-05
0.00048768361
1.0186758e-05
0.00048506543
1.0046071e-05
0.00048248997
9.9101609e-06
0.00047995566
9.7786903e-06
0.00047746096
9.6515331e-06
0.00047500443
9.5283972e-06
0.00047258466
9.4092652e-06
0.00047020034
9.2939096e-06
0.00046785015
9.1824072e-06
0.00046553283
9.0745815e-06
0.00046324713
8.9705064e-06
0.0004609918
8.870301e-06
0.00045876556
8.7740619e-06
0.00045656712
8.6821247e-06
0.00045439504
8.5949086e-06
0.00045224784
8.5128872e-06
0.00045012363
8.4375963e-06
0.00044802069
8.3688576e-06
0.00044593565
8.3127515e-06
0.00044386687
8.264137e-06
0.00044180597
8.2469054e-06
0.00043975365
8.2335509e-06
0.00043768565
8.3064969e-06
0.00043560612
8.399137e-06
0.0004334426
8.7165153e-06
0.00043127095
8.989797e-06
0.00042874424
9.1422231e-06
1.0210081e-05
0.00095302077
6.6413837e-05
-0.00095064083
0.00095768087
8.6080039e-05
0.00096301914
9.9841109e-05
0.00096779603
0.00010648666
0.00097166624
0.00010830077
0.00097464573
0.00010755219
0.00097696281
0.00010582425
0.00097884973
0.00010387609
0.00098031412
0.00010171464
0.00098139646
9.9469929e-05
0.00098214729
9.7235189e-05
0.0009825846
9.4952435e-05
0.0009826437
9.2700334e-05
0.00098213449
9.0584739e-05
0.00098090811
8.8574292e-05
0.00097858581
8.6680227e-05
0.00097468425
8.491297e-05
0.00096891626
8.3189994e-05
0.00096108566
8.1481627e-05
0.00095119352
7.9610206e-05
0.0009393861
7.7456904e-05
0.00092586894
7.5072e-05
0.0009109688
7.2414692e-05
0.00089512881
6.9455851e-05
0.00087883699
6.623873e-05
0.0008625393
6.2860163e-05
0.00084658388
5.9425372e-05
0.00083119475
5.6047467e-05
0.00081648409
5.282769e-05
0.00080249204
4.9809302e-05
0.00078921977
4.7002565e-05
0.00077664826
4.4410332e-05
0.00076474753
4.2026661e-05
0.00075348163
3.9835362e-05
0.00074281048
3.7824106e-05
0.00073269317
3.5983897e-05
0.00072309131
3.4295577e-05
0.00071396781
3.2743543e-05
0.00070528713
3.1319729e-05
0.00069701685
3.000861e-05
0.00068912699
2.8798738e-05
0.00068158948
2.7683552e-05
0.00067437874
2.6651024e-05
0.00066747117
2.569412e-05
0.00066084495
2.4807453e-05
0.00065448031
2.3982416e-05
0.00064835889
2.3215736e-05
0.00064246415
2.2501097e-05
0.00063678118
2.1832125e-05
0.00063129597
2.120719e-05
0.00062599586
2.0620663e-05
0.00062086911
2.0070031e-05
0.0006159049
1.9552288e-05
0.0006110934
1.9063659e-05
0.00060642523
1.8603557e-05
0.00060189193
1.8168527e-05
0.00059748578
1.775724e-05
0.00059319979
1.7367608e-05
0.00058902748
1.6997731e-05
0.00058496272
1.6645925e-05
0.00058099993
1.6310134e-05
0.00057713384
1.5990279e-05
0.00057335964
1.5684748e-05
0.00056967274
1.5392897e-05
0.00056606883
1.5113588e-05
0.00056254404
1.4846282e-05
0.00055909479
1.4590178e-05
0.00055571766
1.434435e-05
0.00055240944
1.4108073e-05
0.00054916717
1.3880693e-05
0.00054598807
1.366178e-05
0.00054286954
1.3450745e-05
0.00053980905
1.3247244e-05
0.00053680426
1.3050863e-05
0.00053385295
1.2861473e-05
0.00053095303
1.2678609e-05
0.0005281025
1.2502057e-05
0.00052529948
1.2331419e-05
0.00052254214
1.2166606e-05
0.00051982875
1.20073e-05
0.00051715762
1.1853536e-05
0.00051452713
1.1705069e-05
0.0005119357
1.1561944e-05
0.00050938173
1.142427e-05
0.00050686364
1.129215e-05
0.00050437981
1.1165952e-05
0.00050192852
1.10462e-05
0.00049950799
1.0933423e-05
0.000497116
1.082958e-05
0.00049475055
1.0734312e-05
0.00049240788
1.0655423e-05
0.00049008605
1.0585967e-05
0.00048777608
1.0556872e-05
0.00048547839
1.0531244e-05
0.0004831674
1.0617484e-05
0.00048084733
1.0719207e-05
0.00047844052
1.1123328e-05
0.00047603271
1.13976e-05
0.00047318975
1.198519e-05
1.2449104e-05
0.00098591863
6.4302832e-05
-0.00098380763
0.00099008707
8.1911607e-05
0.00099500521
9.4922968e-05
0.0009995283
0.00010196357
0.0010032449
0.0001045842
0.0010061517
0.00010464541
0.0010084367
0.00010353922
0.0010103029
0.00010200985
0.0010118256
0.00010019198
0.0010130726
9.8222899e-05
0.0010140956
9.6212248e-05
0.0010148862
9.4161819e-05
0.0010154414
9.2145157e-05
0.0010158228
9.0203265e-05
0.0010159867
8.8410466e-05
0.0010158914
8.6775453e-05
0.0010155146
8.5289773e-05
0.0010146858
8.4018798e-05
0.0010132137
8.2953794e-05
0.0010107697
8.2054215e-05
0.001006973
8.1253539e-05
0.0010015137
8.0531299e-05
0.00099418331
7.97451e-05
0.00098492748
7.8711684e-05
0.00097380868
7.7357528e-05
0.00096101369
7.5655156e-05
0.00094688725
7.3551813e-05
0.00093189202
7.1042696e-05
0.00091650774
6.8211968e-05
0.00090114835
6.5168689e-05
0.00088610898
6.2041938e-05
0.00087156273
5.8956582e-05
0.0008575933
5.5996096e-05
0.00084423341
5.3195249e-05
0.00083148802
5.0569492e-05
0.00081934558
4.812634e-05
0.00080778514
4.5856017e-05
0.0007967792
4.3749479e-05
0.00078629681
4.1802127e-05
0.000776307
3.9998414e-05
0.00076677913
3.8326605e-05
0.00075768307
3.6779614e-05
0.00074899051
3.5343583e-05
0.00074067456
3.4010075e-05
0.00073270985
3.2772162e-05
0.000725073
3.1619269e-05
0.00071774188
3.0546852e-05
0.00071069621
2.9546766e-05
0.00070391747
2.8610867e-05
0.00069738825
2.7736409e-05
0.00069109269
2.6916225e-05
0.00068501603
2.6146682e-05
0.00067914472
2.54236e-05
0.00067346634
2.4742045e-05
0.00066796916
2.4100735e-05
0.00066264244
2.3495244e-05
0.00065747621
2.2923468e-05
0.00065246137
2.2382452e-05
0.00064758951
2.1869586e-05
0.00064285285
2.138259e-05
0.00063824418
2.0918799e-05
0.00063375677
2.0477697e-05
0.00062938439
2.005712e-05
0.00062512117
1.9656114e-05
0.00062096161
1.9273154e-05
0.00061690067
1.8907221e-05
0.00061293373
1.8557119e-05
0.0006090564
1.8221679e-05
0.00060526456
1.7899914e-05
0.00060155436
1.7590891e-05
0.00059792221
1.7293931e-05
0.00059436475
1.7008206e-05
0.00059087878
1.6733214e-05
0.00058746129
1.6468358e-05
0.00058410944
1.6213322e-05
0.00058082056
1.5967483e-05
0.00057759212
1.5730501e-05
0.0005744217
1.5501843e-05
0.00057130699
1.5281314e-05
0.0005682458
1.5068484e-05
0.00056523602
1.4863318e-05
0.00056227561
1.4665482e-05
0.00055936258
1.4474972e-05
0.00055649498
1.4291869e-05
0.00055367087
1.4116265e-05
0.00055088827
1.3948551e-05
0.00054814512
1.3789346e-05
0.00054543932
1.3639225e-05
0.00054276832
1.3500575e-05
0.00054012978
1.3372858e-05
0.00053751957
1.3265633e-05
0.00053493539
1.317014e-05
0.00053236777
1.3124501e-05
0.0005298167
1.3082313e-05
0.00052725561
1.3178573e-05
0.00052468847
1.3286345e-05
0.00052203351
1.3778289e-05
0.00051938488
1.4046232e-05
0.00051622704
1.5143031e-05
1.4867076e-05
0.0010200243
6.2417352e-05
-0.0010181389
0.001023746
7.8189986e-05
0.0010282694
9.0399556e-05
0.001032574
9.7658903e-05
0.0010362055
0.00010095274
0.0010391025
0.00010174838
0.0010414002
0.0001012415
0.0010432675
0.0001001426
0.0010447925
9.8666956e-05
0.0010460459
9.6969554e-05
0.0010470831
9.5174977e-05
0.0010479273
9.3317677e-05
0.0010486019
9.1470542e-05
0.0010491262
8.9678963e-05
0.0010495174
8.8019237e-05
0.0010497747
8.651816e-05
0.00104991
8.5154448e-05
0.0010499308
8.3998037e-05
0.0010498179
8.3066723e-05
0.0010495305
8.2341541e-05
0.0010489653
8.1818754e-05
0.0010479988
8.1497854e-05
0.0010464161
8.1327741e-05
0.0010438749
8.1252877e-05
0.0010400182
8.1214266e-05
0.0010345179
8.1155464e-05
0.0010271687
8.0900969e-05
0.001017922
8.0289418e-05
0.0010068428
7.9291154e-05
0.00099417481
7.7836704e-05
0.00098032953
7.5887224e-05
0.00096579388
7.3492226e-05
0.00095102205
7.0767931e-05
0.00093636247
6.7854824e-05
0.00092203646
6.4895505e-05
0.00090816339
6.1999407e-05
0.00089480198
5.9217429e-05
0.00088197698
5.657448e-05
0.00086969249
5.408662e-05
0.00085793993
5.1750966e-05
0.000846702
4.956454e-05
0.00083595632
4.7525298e-05
0.00082567888
4.5621024e-05
0.00081584447
4.3844478e-05
0.00080642771
4.2188925e-05
0.00079740412
4.0642862e-05
0.0007887497
3.9201274e-05
0.00078044176
3.7854705e-05
0.00077245906
3.6593566e-05
0.00076478132
3.5414152e-05
0.0007573898
3.4307739e-05
0.00075026694
3.3269545e-05
0.00074339643
3.2294105e-05
0.00073676328
3.1375202e-05
0.00073035328
3.0510733e-05
0.00072415335
2.9695172e-05
0.00071815123
2.8925587e-05
0.00071233561
2.8198074e-05
0.00070669602
2.7509178e-05
0.00070122275
2.6855859e-05
0.00069590685
2.62347e-05
0.00069073988
2.5644668e-05
0.00068571407
2.5082931e-05
0.00068082213
2.4548053e-05
0.00067605725
2.4038035e-05
0.00067141307
2.3551392e-05
0.00066688374
2.3086449e-05
0.00066246377
2.2641649e-05
0.00065814801
2.2215677e-05
0.00065393163
2.1807271e-05
0.00064981011
2.1415452e-05
0.00064577923
2.103909e-05
0.00064183498
2.0677455e-05
0.00063797363
2.0329716e-05
0.00063419161
1.9995334e-05
0.00063048561
1.9673487e-05
0.00062685244
1.9363667e-05
0.00062328912
1.9065167e-05
0.00061979278
1.8777656e-05
0.0006163607
1.8500558e-05
0.00061299028
1.8233743e-05
0.000609679
1.7976759e-05
0.00060642444
1.7729529e-05
0.00060322423
1.7492087e-05
0.000600076
1.7264494e-05
0.0005969774
1.7047147e-05
0.000593926
1.6840749e-05
0.00059091931
1.6645913e-05
0.00058795444
1.6465449e-05
0.00058502866
1.6298638e-05
0.00058213747
1.6156819e-05
0.00057927819
1.6029421e-05
0.00057644084
1.596185e-05
0.00057362497
1.5898179e-05
0.00057080317
1.6000378e-05
0.000567979
1.6110519e-05
0.00056506717
1.6690118e-05
0.0005621697
1.69437e-05
0.00055869215
1.862058e-05
1.7475755e-05
0.0010553469
6.070486e-05
-0.0010536344
0.0010586731
7.4863857e-05
0.0010628147
8.6257948e-05
0.0010668942
9.3579408e-05
0.0010704467
9.7400159e-05
0.0010733543
9.8840807e-05
0.0010756956
9.8900226e-05
0.001077604
9.8234165e-05
0.0010791649
9.710606e-05
0.0010804453
9.5689197e-05
0.0010814997
9.4120517e-05
0.0010823595
9.2457949e-05
0.0010830545
9.0775497e-05
0.0010836063
8.9127146e-05
0.0010840421
8.7583468e-05
0.0010843799
8.6180407e-05
0.0010846241
8.4910229e-05
0.0010847902
8.3831962e-05
0.0010848922
8.2964665e-05
0.0010849264
8.2307373e-05
0.0010848932
8.1851913e-05
0.0010847937
8.1597353e-05
0.0010845861
8.1535399e-05
0.0010842032
8.1635731e-05
0.0010835423
8.1875164e-05
0.0010824643
8.2233496e-05
0.0010806962
8.2669068e-05
0.0010778656
8.312003e-05
0.0010736121
8.3544592e-05
0.0010676328
8.3816028e-05
0.0010597626
8.375745e-05
0.0010499816
8.3273164e-05
0.0010384533
8.2296267e-05
0.0010255392
8.0768906e-05
0.0010117198
7.8714894e-05
0.00099747144
7.6247796e-05
0.00098317624
7.351263e-05
0.00096908703
7.0663689e-05
0.00095534825
6.7825407e-05
0.00094203797
6.5061248e-05
0.00092919613
6.2406376e-05
0.0009168391
5.9882332e-05
0.00090496826
5.7491859e-05
0.0008935745
5.5238242e-05
0.00088264258
5.312084e-05
0.00087215433
5.1131113e-05
0.00086208916
4.926644e-05
0.00085242586
4.7518007e-05
0.00084314325
4.5876173e-05
0.00083422016
4.4337243e-05
0.00082563643
4.2891472e-05
0.00081737265
4.153332e-05
0.00080941052
4.0256242e-05
0.00080173287
3.9052847e-05
0.00079432333
3.7920275e-05
0.00078716664
3.685186e-05
0.0007802484
3.584383e-05
0.00077355516
3.4891311e-05
0.00076707439
3.3989952e-05
0.00076079439
3.3135862e-05
0.00075470433
3.2324753e-05
0.00074879401
3.1554987e-05
0.00074305398
3.0822968e-05
0.00073747537
3.0126656e-05
0.00073204995
2.946346e-05
0.00072676996
2.8831386e-05
0.00072162818
2.8228222e-05
0.00071661791
2.7651923e-05
0.00071173283
2.7100757e-05
0.00070696703
2.6573071e-05
0.00070231495
2.6067528e-05
0.00069777141
2.5582636e-05
0.0006933315
2.511736e-05
0.00068899064
2.467058e-05
0.00068474447
2.42415e-05
0.00068058892
2.3829039e-05
0.00067652011
2.3432481e-05
0.00067253437
2.3050903e-05
0.00066862822
2.2683801e-05
0.00066479836
2.2330418e-05
0.00066104161
2.1990494e-05
0.00065735494
2.1663433e-05
0.00065373541
2.1349058e-05
0.00065018017
2.1047326e-05
0.00064668641
2.0758251e-05
0.00064325135
2.0482213e-05
0.00063987211
2.0219984e-05
0.00063654582
1.9972202e-05
0.00063326918
1.9742095e-05
0.00063003905
1.9528763e-05
0.00062685054
1.9345327e-05
0.00062370054
1.9179429e-05
0.00062057858
1.9083805e-05
0.00061748372
1.8993042e-05
0.00061438778
1.9096321e-05
0.00061129384
1.9204455e-05
0.00060811343
1.9870532e-05
0.0006049564
2.0100729e-05
0.00060114984
2.242714e-05
2.0287333e-05
0.0010918804
5.9119756e-05
-0.0010902953
0.0010948703
7.1873974e-05
0.0010986531
8.2475163e-05
0.001102494
8.9738481e-05
0.001105948
9.3946182e-05
0.0011088562
9.5932611e-05
0.0011112443
9.6512151e-05
0.0011132085
9.6269956e-05
0.0011148237
9.5490845e-05
0.0011161515
9.4361399e-05
0.0011172442
9.3027772e-05
0.001118136
9.1566165e-05
0.0011188579
9.005366e-05
0.0011194339
8.855107e-05
0.0011198914
8.7125954e-05
0.0011202524
8.5819487e-05
0.0011205268
8.463576e-05
0.0011207332
8.3625552e-05
0.0011208868
8.2811062e-05
0.0011209966
8.2197604e-05
0.0011210662
8.1782317e-05
0.001121105
8.155858e-05
0.0011211149
8.1525525e-05
0.0011210905
8.1660057e-05
0.0011210199
8.1945807e-05
0.0011208756
8.2377759e-05
0.0011206114
8.2933338e-05
0.0011201436
8.358779e-05
0.0011193562
8.4331951e-05
0.0011180359
8.5136398e-05
0.0011158446
8.5948689e-05
0.0011123981
8.6719738e-05
0.0011073334
8.736088e-05
0.001100404
8.7698394e-05
0.0010915264
8.7592424e-05
0.0010808069
8.6967283e-05
0.0010685725
8.5747047e-05
0.0010552974
8.393884e-05
0.0010414695
8.1653234e-05
0.0010274878
7.9043001e-05
0.0010136199
7.6274298e-05
0.0010000237
7.347849e-05
0.00098678957
7.0726002e-05
0.00097396765
6.8060154e-05
0.00096158312
6.5505374e-05
0.00094964469
6.3069544e-05
0.00093814944
6.0761684e-05
0.00092708784
5.8579615e-05
0.00091644613
5.6517881e-05
0.00090620756
5.4575809e-05
0.00089635445
5.274459e-05