/*--------------------------------*- C++ -*----------------------------------*\
| =========                 |                                                 |
| \\      /  F ield         | OpenFOAM: The Open Source CFD Toolbox           |
|  \\    /   O peration     | Version:  2206                                  |
|   \\  /    A nd           | Website:  www.openfoam.com                      |
|    \\/     M anipulation  |                                                 |
\*---------------------------------------------------------------------------*/
FoamFile
{
    version     2.0;
    format      ascii;
    arch        "LSB;label=32;scalar=64";
    class       volVectorField;
    location    "1700";
    object      U;
}
// * * * * * * * * * * * * * * * * * * * * * * * * * * * * * * * * * * * * * //

dimensions      [0 1 -1 0 0 0 0];

internalField   nonuniform List<vector> 
7480
(
(0.86077514 0.014769539 5.8339134e-16)
(0.74497192 0.025621524 0)
(0.6291005 0.02725177 0)
(0.52585565 0.019478889 0)
(0.45025847 0.0094020564 0)
(0.3980852 0.0037521049 0)
(0.36039279 0.001720073 0)
(0.33129549 0.001208816 0)
(0.30760204 0.0010855009 0)
(0.2877138 0.00096793178 0)
(0.27088207 0.00081788594 0)
(0.25662397 0.0006715361 0)
(0.24452528 0.0005436707 0)
(0.23424031 0.00043818998 0)
(0.22547536 0.00035450343 0)
(0.21797404 0.00028722832 0)
(0.2115365 0.00023273235 0)
(0.20599819 0.00018671744 0)
(0.20120283 0.00019153368 -5.0367824e-18)
(0.19704319 0.00027922157 -1.6374633e-17)
(0.1933676 0.00013478455 0)
(0.19009609 9.0713257e-05 0)
(0.18715009 7.7664768e-05 0)
(0.18446554 6.9074868e-05 0)
(0.18200032 6.1733344e-05 0)
(0.17971808 5.5495568e-05 0)
(0.17759361 5.0206426e-05 0)
(0.17560292 4.5888517e-05 0)
(0.17372459 4.2489878e-05 0)
(0.17194024 3.9586196e-05 0)
(0.17023943 3.6882179e-05 0)
(0.16861478 3.4435047e-05 0)
(0.16705817 3.2258386e-05 0)
(0.16556312 3.0293123e-05 0)
(0.16412278 2.8530835e-05 0)
(0.16273282 2.700556e-05 0)
(0.16138458 2.5637697e-05 0)
(0.16007582 2.4347202e-05 0)
(0.1588027 2.3190068e-05 0)
(0.15756143 2.212163e-05 0)
(0.15634948 2.1126251e-05 0)
(0.15516424 2.0215001e-05 0)
(0.15400371 1.933791e-05 0)
(0.15286661 1.8506388e-05 0)
(0.15175129 1.7727909e-05 0)
(0.15065663 1.6979592e-05 0)
(0.14958115 1.6288472e-05 0)
(0.14852328 1.5635018e-05 0)
(0.14748215 1.500405e-05 0)
(0.14645676 1.4413659e-05 0)
(0.14544629 1.3839667e-05 0)
(0.14445025 1.3290859e-05 0)
(0.14346794 1.2765542e-05 0)
(0.14249902 1.2256243e-05 0)
(0.14154286 1.1775622e-05 0)
(0.140599 1.1309167e-05 0)
(0.13966706 1.0864867e-05 0)
(0.13874649 1.0441123e-05 0)
(0.13783675 1.0035549e-05 0)
(0.13693745 9.6456182e-06 0)
(0.13604852 9.2658517e-06 0)
(0.13516975 8.903077e-06 0)
(0.13430088 8.5525164e-06 0)
(0.13344167 8.2165632e-06 0)
(0.13259192 7.8925113e-06 0)
(0.13175144 7.5818961e-06 0)
(0.13091995 7.2842963e-06 0)
(0.13009719 6.9981805e-06 0)
(0.12928302 6.7228132e-06 0)
(0.1284773 6.4577405e-06 0)
(0.12767986 6.2034104e-06 0)
(0.12689054 5.9587286e-06 0)
(0.12610919 5.7235269e-06 0)
(0.12533572 5.4970486e-06 0)
(0.12456997 5.2800202e-06 0)
(0.12381178 5.0714282e-06 0)
(0.12306098 4.8713952e-06 0)
(0.12231745 4.6789865e-06 0)
(0.12158104 4.4945263e-06 0)
(0.12085162 4.3171901e-06 0)
(0.12012903 4.1472643e-06 0)
(0.11941313 3.9840726e-06 0)
(0.11870377 3.8276207e-06 0)
(0.11800075 3.677822e-06 0)
(0.11730392 3.5341505e-06 0)
(0.11661302 3.3970685e-06 0)
(0.11592786 3.2656667e-06 0)
(0.11524805 3.1411676e-06 0)
(0.11457339 3.0215825e-06 0)
(0.11390305 2.9109138e-06 0)
(0.11323721 2.8019283e-06 0)
(0.11257325 2.7115445e-06 0)
(0.11191386 2.6064181e-06 0)
(0.11124868 2.562576e-06 0)
(0.11059305 2.428585e-06 0)
(0.10990563 2.5350496e-06 0)
(0.10924643 2.2251592e-06 -3.9577378e-21)
(0.10847551 6.2341682e-06 7.1816303e-20)
(0.10787544 -1.7345255e-06 -3.2252279e-19)
(0.1067022 1.2399871e-05 -1.1191245e-18)
(0.95769239 0.024842707 0)
(0.94369854 0.032456693 0)
(0.91263495 0.032565625 0)
(0.86112693 0.028744597 0)
(0.79842015 0.022902341 0)
(0.73551974 0.017268248 0)
(0.67871608 0.012883062 0)
(0.63002775 0.0098207396 0)
(0.58905889 0.007745145 0)
(0.55457731 0.0062557738 0)
(0.52538493 0.0051170121 0)
(0.50050294 0.0042190934 0)
(0.4791714 0.0034900619 0)
(0.46081697 0.0028916188 0)
(0.44497813 0.0024006826 0)
(0.43128159 0.0019962334 0)
(0.41940166 0.0016650037 0)
(0.40904988 0.0013952273 0)
(0.39997409 0.0011767781 0)
(0.39196469 0.00099822946 0)
(0.38484268 0.00085023044 0)
(0.37845618 0.00074459975 0)
(0.37267694 0.0006558755 0)
(0.3674054 0.00058142042 0)
(0.36256401 0.00051971911 0)
(0.35808531 0.00046796907 0)
(0.35392157 0.00042385582 0)
(0.35002697 0.00038638753 0)
(0.34636391 0.0003547556 0)
(0.34290042 0.00032738806 0)
(0.33961421 0.00030295655 0)
(0.33648745 0.00028111224 0)
(0.33350312 0.00026160448 0)
(0.33064719 0.00024408303 0)
(0.32790602 0.00022829765 0)
(0.32527024 0.00021429005 0)
(0.32272407 0.00020172931 0)
(0.32026207 0.00019018126 0)
(0.31787592 0.00017972296 0)
(0.31555808 0.0001701458 0)
(0.31330301 0.00016131429 0)
(0.3111055 0.00015319091 0)
(0.30896109 0.00014559762 0)
(0.30686641 0.00013850063 0)
(0.30481797 0.00013188124 0)
(0.30281295 0.00012566035 0)
(0.30084825 0.00011987989 0)
(0.29892077 0.00011446759 0)
(0.29702836 0.00010935417 0)
(0.29516887 0.00010455738 0)
(0.29334044 0.00010000123 0)
(0.29154166 9.5684934e-05 0)
(0.28977097 9.1589726e-05 0)
(0.28802734 8.7686549e-05 0)
(0.2863094 8.3995219e-05 0)
(0.28461608 8.0472162e-05 0)
(0.2829464 7.712706e-05 0)
(0.28129919 7.3952637e-05 0)
(0.27967336 7.0933938e-05 0)
(0.27806803 6.8050671e-05 0)
(0.27648278 6.5280487e-05 0)
(0.27491708 6.2636475e-05 0)
(0.27337028 6.0105293e-05 0)
(0.2718418 5.7686159e-05 0)
(0.27033116 5.536852e-05 0)
(0.26883788 5.3153382e-05 0)
(0.26736135 5.1037379e-05 0)
(0.26590104 4.9011599e-05 0)
(0.26445657 4.7069612e-05 0)
(0.2630276 4.5207572e-05 0)
(0.26161373 4.3424246e-05 0)
(0.2602146 4.1714407e-05 0)
(0.25882989 4.0074333e-05 0)
(0.25745933 3.8500407e-05 0)
(0.25610259 3.6993053e-05 0)
(0.25475931 3.5548036e-05 0)
(0.25342917 3.416332e-05 0)
(0.25211187 3.283487e-05 0)
(0.25080713 3.1561721e-05 0)
(0.24951464 3.0340473e-05 0)
(0.24823412 2.9170458e-05 0)
(0.24696523 2.804867e-05 0)
(0.2457077 2.6974031e-05 0)
(0.24446115 2.5945385e-05 0)
(0.24322525 2.4960754e-05 0)
(0.24199956 2.402034e-05 0)
(0.24078367 2.3122299e-05 0)
(0.2395769 2.2268096e-05 0)
(0.23837884 2.1456615e-05 0)
(0.23718808 2.0691564e-05 0)
(0.23600476 1.9973365e-05 0)
(0.2348245 1.9313577e-05 0)
(0.23365153 1.8708468e-05 0)
(0.23246865 1.8211876e-05 0)
(0.23130056 1.7750937e-05 0)
(0.2300793 1.7692304e-05 0)
(0.22890149 1.7375426e-05 7.1011042e-21)
(0.22753557 1.9293974e-05 0)
(0.22644831 9.7326969e-06 0)
(0.22436125 3.1161872e-05 0)
(0.96678238 0.026239639 0)
(0.9716326 0.035065736 0)
(0.97660819 0.038597772 0)
(0.97539037 0.03747087 0)
(0.9608044 0.034253136 0)
(0.93269337 0.029917599 0)
(0.89610967 0.025228403 0)
(0.85617454 0.020842749 0)
(0.81614178 0.01712714 0)
(0.77793634 0.014076643 0)
(0.74261043 0.011599322 0)
(0.71061706 0.0096037244 0)
(0.68200875 0.0079831723 0)
(0.65660778 0.0066599195 0)
(0.63410991 0.0055794751 0)
(0.61418599 0.0046933963 0)
(0.59651372 0.0039652939 0)
(0.58079649 0.003365644 0)
(0.56677211 0.002871135 0)
(0.55421156 0.0024642951 0)
(0.54291709 0.0021347882 0)
(0.53270801 0.0018664042 0)
(0.52343172 0.0016441433 0)
(0.51495912 0.0014590141 0)
(0.50718007 0.0013040021 0)
(0.49999882 0.0011732191 0)
(0.49333371 0.0010614394 0)
(0.48712073 0.00096542817 0)
(0.48130541 0.00088308385 0)
(0.47584169 0.00081141138 0)
(0.47068997 0.00074790022 0)
(0.46581687 0.00069141224 0)
(0.46119298 0.00064108467 0)
(0.45679326 0.00059597954 0)
(0.45259603 0.00055540292 0)
(0.44858307 0.00051931384 0)
(0.44473176 0.00048692947 0)
(0.44103086 0.00045733291 0)
(0.43746558 0.0004305274 0)
(0.43402387 0.00040603892 0)
(0.43069585 0.00038353764 0)
(0.42747238 0.00036287543 0)
(0.42434528 0.00034369998 0)
(0.42130773 0.00032588203 0)
(0.41835327 0.00030933149 0)
(0.41547623 0.0002938764 0)
(0.4126712 0.00027953666 0)
(0.40993299 0.00026616092 0)
(0.40725739 0.00025360025 0)
(0.40464048 0.00024184605 0)
(0.40207871 0.00023075294 0)
(0.39956908 0.0002202937 0)
(0.39710862 0.00021041561 0)
(0.39469495 0.00020105261 0)
(0.3923256 0.00019221706 0)
(0.38999843 0.00018382727 0)
(0.38771144 0.00017588638 0)
(0.38546254 0.00016837103 0)
(0.38324986 0.00016124407 0)
(0.38107179 0.00015445979 0)
(0.37892715 0.00014797316 0)
(0.37681472 0.00014179793 0)
(0.37473321 0.00013590679 0)
(0.37268147 0.00013029039 0)
(0.37065848 0.00012492593 0)
(0.36866325 0.00011981026 0)
(0.36669468 0.00011493313 0)
(0.36475185 0.00011027436 0)
(0.36283395 0.00010581869 0)
(0.36094023 0.000101556 0)
(0.35906996 9.7480588e-05 0)
(0.35722243 9.3580525e-05 0)
(0.35539699 8.9846269e-05 0)
(0.35359309 8.6269486e-05 0)
(0.35181008 8.2848461e-05 0)
(0.35004734 7.9573861e-05 0)
(0.34830428 7.6439803e-05 0)
(0.34658037 7.3437597e-05 0)
(0.34487507 7.0563553e-05 0)
(0.34318784 6.7810359e-05 0)
(0.34151817 6.5175225e-05 0)
(0.33986552 6.2651671e-05 0)
(0.33822939 6.0236527e-05 0)
(0.3366092 5.79267e-05 0)
(0.33500439 5.571804e-05 0)
(0.3334143 5.3609766e-05 0)
(0.33183829 5.1598839e-05 0)
(0.33027541 4.9686237e-05 0)
(0.32872499 4.7872776e-05 0)
(0.32718517 4.615982e-05 0)
(0.32565599 4.4561784e-05 0)
(0.32413181 4.3075157e-05 0)
(0.32261775 4.1753441e-05 0)
(0.32109209 4.0585134e-05 0)
(0.31958533 3.9678485e-05 0)
(0.31801256 3.9299199e-05 0)
(0.31649278 3.9097921e-05 5.2251501e-21)
(0.31473663 4.1300292e-05 0)
(0.31331515 2.9482052e-05 0)
(0.31064325 5.7373596e-05 -8.5505408e-21)
(0.96982275 0.024392237 0)
(0.97533527 0.032518962 0)
(0.98332108 0.036264158 0)
(0.98992569 0.036526497 0)
(0.99346981 0.034766474 0)
(0.99313123 0.032293483 0)
(0.98694099 0.029671193 0)
(0.97412459 0.027054969 0)
(0.95484156 0.024398701 0)
(0.93104121 0.021559025 0)
(0.90446696 0.018742666 0)
(0.87649884 0.016126783 0)
(0.84828737 0.013791697 0)
(0.82074129 0.01176351 0)
(0.79450973 0.01002487 0)
(0.76999147 0.0085448518 0)
(0.74736744 0.0072969232 0)
(0.72665212 0.0062513448 0)
(0.70775518 0.005382563 0)
(0.69053381 0.0046646024 0)
(0.67483406 0.0040681007 0)
(0.66049957 0.0035717937 0)
(0.64738579 0.0031558813 0)
(0.63535842 0.0028040372 0)
(0.62429256 0.0025054314 0)
(0.61407567 0.0022511059 0)
(0.60460391 0.00203266 0)
(0.59579386 0.0018440068 0)
(0.58757359 0.0016808239 0)
(0.57987916 0.001538282 0)
(0.5726537 0.0014123393 0)
(0.56584799 0.001300718 0)
(0.55941892 0.0012015764 0)
(0.55332782 0.0011129884 0)
(0.54754333 0.001033453 0)
(0.54203688 0.00096240568 0)
(0.53678305 0.00089860609 0)
(0.53175911 0.00084063375 0)
(0.52694528 0.0007881505 0)
(0.52232326 0.00074035991 0)
(0.51787754 0.0006966132 0)
(0.51359402 0.00065655506 0)
(0.50945989 0.0006195925 0)
(0.50546406 0.00058542833 0)
(0.50159626 0.00055383732 0)
(0.49784723 0.00052448871 0)
(0.49420889 0.00049732185 0)
(0.49067331 0.00047207655 0)
(0.48723379 0.00044848714 0)
(0.4838842 0.00042648278 0)
(0.48061888 0.00040582856 0)
(0.47743281 0.00038644458 0)
(0.47432122 0.00036822019 0)
(0.47128 0.00035102963 0)
(0.46830533 0.00033485453 0)
(0.46539369 0.00031956585 0)
(0.46254177 0.00030514463 0)
(0.45974639 0.00029153471 0)
(0.45700475 0.00027866435 0)
(0.45431432 0.00026645574 0)
(0.45167292 0.00025483562 0)
(0.44907843 0.00024380757 0)
(0.44652875 0.00023332255 0)
(0.44402204 0.00022335457 0)
(0.44155655 0.00021386312 0)
(0.43913067 0.00020483492 0)
(0.43674274 0.00019624688 0)
(0.43439132 0.0001880631 0)
(0.43207507 0.00018025599 0)
(0.42979276 0.00017280526 0)
(0.4275432 0.00016569651 0)
(0.42532529 0.00015890806 0)
(0.42313798 0.00015242189 0)
(0.42098031 0.00014622256 0)
(0.41885129 0.00014030314 0)
(0.41674998 0.00013464696 0)
(0.41467548 0.00012924212 0)
(0.41262694 0.00012407358 0)
(0.41060354 0.00011913296 0)
(0.40860448 0.00011440752 0)
(0.40662899 0.00010989072 0)
(0.40467627 0.00010557132 0)
(0.40274559 0.00010144276 0)
(0.40083612 9.7498838e-05 0)
(0.39894708 9.3732398e-05 0)
(0.39707757 9.014056e-05 0)
(0.39522671 8.6718825e-05 0)
(0.39339332 8.3466345e-05 0)
(0.39157648 8.0387187e-05 0)
(0.38977399 7.7476956e-05 0)
(0.38798569 7.4771806e-05 0)
(0.38620524 7.2238669e-05 0)
(0.38443794 7.002342e-05 0)
(0.38265985 6.7985677e-05 0)
(0.38090369 6.6554562e-05 0)
(0.37907682 6.5663721e-05 0)
(0.37730703 6.5772637e-05 3.974978e-21)
(0.37527801 6.7844453e-05 0)
(0.37360564 5.650657e-05 0)
(0.37052627 8.4904079e-05 6.640859e-21)
(0.97178246 0.023231511 0)
(0.97671752 0.03047788 0)
(0.98405784 0.034210524 0)
(0.99112887 0.034683248 0)
(0.99626861 0.033402655 0)
(0.99936965 0.031533376 0)
(1.0018246 0.029649529 0)
(1.0016983 0.02790143 0)
(1.0001207 0.026218294 0)
(0.99544022 0.024485083 0)
(0.98696905 0.022684439 0)
(0.97452104 0.020825782 0)
(0.95860152 0.018856645 0)
(0.94005634 0.016854758 0)
(0.91959912 0.014923258 0)
(0.89791873 0.013125438 0)
(0.87571929 0.011507679 0)
(0.85363196 0.010066698 0)
(0.83217437 0.0087996453 0)
(0.81171179 0.0077013672 0)
(0.7924565 0.0067564222 0)
(0.77448175 0.0059538667 0)
(0.7577691 0.0052744532 0)
(0.74225474 0.0046963474 0)
(0.72785603 0.0042018469 0)
(0.71448554 0.003776569 0)
(0.70205374 0.0034079151 0)
(0.69047485 0.0030867382 0)
(0.67966811 0.0028068281 0)
(0.66955807 0.0025613147 0)
(0.66007767 0.0023443729 0)
(0.65116678 0.0021521997 0)
(0.64277078 0.001981597 0)
(0.63484004 0.0018293544 0)
(0.62733248 0.0016929651 0)
(0.62020894 0.0015710168 0)
(0.61343857 0.0014614276 0)
(0.60698904 0.0013621996 0)
(0.60083368 0.0012724998 0)
(0.5949478 0.0011909539 0)
(0.58930998 0.0011165378 0)
(0.58390031 0.0010485958 0)
(0.57870068 0.00098618493 0)
(0.57369526 0.00092874834 0)
(0.56886931 0.00087585184 0)
(0.56420944 0.00082691865 0)
(0.55970435 0.00078171724 0)
(0.55534328 0.00073982778 0)
(0.55111685 0.00070083871 0)
(0.54701636 0.00066458757 0)
(0.54303354 0.00063071838 0)
(0.53916109 0.00059905996 0)
(0.53539214 0.0005694146 0)
(0.53172062 0.00054156982 0)
(0.528141 0.00051545168 0)
(0.52464806 0.000490866 0)
(0.52123699 0.00046774746 0)
(0.51790338 0.00044598532 0)
(0.51464334 0.00042546049 0)
(0.51145323 0.00040605756 0)
(0.50832965 0.00038766545 0)
(0.50526944 0.00037026317 0)
(0.50226959 0.00035376938 0)
(0.49932737 0.00033813218 0)
(0.49644027 0.00032328585 0)
(0.49360588 0.00030919911 0)
(0.49082193 0.00029582846 0)
(0.48808635 0.00028311728 0)
(0.48539722 0.00027102126 0)
(0.48275273 0.00025950466 0)
(0.48015118 0.00024853934 0)
(0.47759099 0.00023809017 0)
(0.47507066 0.00022812777 0)
(0.47258875 0.00021862611 0)
(0.47014388 0.00020956921 0)
(0.46773473 0.00020093018 0)
(0.46536006 0.00019268871 0)
(0.46301867 0.00018482118 0)
(0.46070943 0.00017731221 0)
(0.45843122 0.00017014173 0)
(0.45618299 0.00016329752 0)
(0.45396366 0.00015676196 0)
(0.45177222 0.00015052348 0)
(0.44960761 0.00014457144 0)
(0.44746879 0.00013889446 0)
(0.44535461 0.00013348635 0)
(0.44326397 0.00012834046 0)
(0.44119543 0.00012345287 0)
(0.43914784 0.00011883132 0)
(0.43711871 0.00011446332 0)
(0.43510765 0.00011041127 0)
(0.43310789 0.00010660376 0)
(0.43112456 0.00010330049 0)
(0.42913277 0.00010019473 0)
(0.42716546 9.8120435e-05 0)
(0.42512735 9.6546126e-05 0)
(0.42314776 9.7043153e-05 3.2515981e-21)
(0.42090003 9.8556253e-05 5.7783708e-20)
(0.4190169 8.9769475e-05 0)
(0.41560736 0.00011430101 0)
(0.97323799 0.022370814 0)
(0.97768565 0.028802381 0)
(0.98402082 0.03235722 0)
(0.9902163 0.03309199 0)
(0.99521929 0.03225498 0)
(0.99896319 0.030739821 0)
(1.0015845 0.029096885 0)
(1.0034385 0.027558054 0)
(1.0046352 0.026053717 0)
(1.0055006 0.024597926 0)
(1.0052786 0.023216013 0)
(1.0040729 0.021886986 0)
(1.0011864 0.020574969 0)
(0.99595871 0.019261909 0)
(0.98810284 0.017957199 0)
(0.97744912 0.016607492 0)
(0.96440958 0.015202138 0)
(0.94929256 0.013808808 0)
(0.93247583 0.01246285 0)
(0.91442404 0.011197997 0)
(0.8956916 0.01003206 0)
(0.87681492 0.0089719523 0)
(0.85825593 0.0080186104 0)
(0.84035143 0.0071711743 0)
(0.82330017 0.0064272375 0)
(0.80718422 0.0057804417 0)
(0.79201111 0.0052184084 0)
(0.7777524 0.004727409 0)
(0.76436207 0.0042969116 0)
(0.75178582 0.003916841 0)
(0.73996678 0.003579321 0)
(0.72884722 0.0032793004 0)
(0.7183703 0.0030123844 0)
(0.70848308 0.0027739673 0)
(0.69913721 0.002560388 0)
(0.69028615 0.0023691111 0)
(0.68189059 0.002197083 0)
(0.67391306 0.0020416536 0)
(0.66631926 0.0019012287 0)
(0.65907844 0.0017737805 0)
(0.65216336 0.0016577279 0)
(0.64554858 0.0015519834 0)
(0.63921078 0.0014551578 0)
(0.63312926 0.0013663325 0)
(0.62728479 0.00128477 0)
(0.62165988 0.001209576 0)
(0.61623916 0.001140278 0)
(0.6110085 0.0010762274 0)
(0.60595542 0.0010168037 0)
(0.60106829 0.00096170284 0)
(0.59633614 0.00091040672 0)
(0.59174925 0.0008626182 0)
(0.58729845 0.00081802253 0)
(0.58297547 0.0007762879 0)
(0.57877276 0.0007372617 0)
(0.57468299 0.00070065502 0)
(0.57069986 0.00066632248 0)
(0.56681753 0.00063408017 0)
(0.56303082 0.00060374937 0)
(0.5593347 0.00057516522 0)
(0.55572451 0.00054816482 0)
(0.55219592 0.00052268763 0)
(0.54874491 0.00049860722 0)
(0.5453678 0.00047583694 0)
(0.5420611 0.00045427779 0)
(0.53882154 0.00043386888 0)
(0.53564613 0.00041453704 0)
(0.53253212 0.00039620005 0)
(0.52947686 0.00037879102 0)
(0.52647792 0.00036225223 0)
(0.52353302 0.00034653607 0)
(0.52064006 0.00033159001 0)
(0.51779697 0.00031737002 0)
(0.51500182 0.00030383473 0)
(0.51225275 0.00029095452 0)
(0.50954806 0.00027868923 0)
(0.5068861 0.00026700727 0)
(0.50426529 0.00025587379 0)
(0.50168413 0.00024526384 0)
(0.49914118 0.00023514768 0)
(0.49663504 0.00022550524 0)
(0.49416436 0.00021631059 0)
(0.49172782 0.00020754537 0)
(0.48932408 0.00019919281 0)
(0.48695184 0.00019123596 0)
(0.4846097 0.00018366387 0)
(0.4822963 0.00017646676 0)
(0.48000995 0.00016963643 0)
(0.47774926 0.000163184 0)
(0.47551149 0.00015708724 0)
(0.47329598 0.00015143697 0)
(0.47109568 0.00014611863 0)
(0.46891538 0.00014151731 0)
(0.46672988 0.0001371404 0)
(0.4645714 0.00013427239 0)
(0.46234456 0.00013184684 0)
(0.46017679 0.00013272549 0)
(0.45773938 0.00013337047 0)
(0.45566933 0.00012869589 1.1254121e-19)
(0.45197122 0.0001460726 0)
(0.97452831 0.021582053 0)
(0.97846566 0.027335973 0)
(0.98401532 0.030712051 0)
(0.9894766 0.031650998 0)
(0.99398661 0.031118295 0)
(0.99746896 0.029886682 0)
(1.0001042 0.028463456 0)
(1.0021935 0.027065649 0)
(1.0039125 0.025673361 0)
(1.0051996 0.0243245 0)
(1.0061262 0.023046155 0)
(1.006718 0.021816505 0)
(1.0070254 0.020645621 0)
(1.0068279 0.019555333 0)
(1.005975 0.018532897 0)
(1.0042986 0.017560934 0)
(1.0011869 0.016631341 0)
(0.99628325 0.015719835 0)
(0.98933237 0.014814717 0)
(0.98019968 0.013874495 0)
(0.96902735 0.012889487 0)
(0.95597218 0.011898251 0)
(0.94130014 0.010919338 0)
(0.92541678 0.0099740548 0)
(0.90882599 0.0090777848 0)
(0.89202417 0.0082413202 0)
(0.87542871 0.0074742135 0)
(0.85933267 0.0067813116 0)
(0.84389934 0.0061646452 0)
(0.82919562 0.0056189458 0)
(0.81523525 0.00513449 0)
(0.80200609 0.0047026652 0)
(0.78948155 0.0043164109 0)
(0.77762682 0.0039695884 0)
(0.76640256 0.0036578387 0)
(0.75576592 0.0033778429 0)
(0.74567636 0.0031255382 0)
(0.73609538 0.0028975355 0)
(0.72698552 0.0026914883 0)
(0.71831175 0.0025045668 0)
(0.71004237 0.0023345489 0)
(0.70214771 0.0021798206 0)
(0.69460018 0.0020384322 0)
(0.68737476 0.0019090105 0)
(0.68044816 0.001790425 0)
(0.67379914 0.0016813769 0)
(0.6674082 0.0015810742 0)
(0.66125742 0.0014885642 0)
(0.65533085 0.0014029608 0)
(0.64961375 0.0013237703 0)
(0.64409237 0.0012502645 0)
(0.63875436 0.0011819719 0)
(0.63358811 0.0011184195 0)
(0.62858309 0.0010591246 0)
(0.62372957 0.0010038238 0)
(0.61901825 0.00095210884 0)
(0.61444095 0.00090372814 0)
(0.60999013 0.00085839622 0)
(0.60565898 0.00081585355 0)
(0.601441 0.00077586949 0)
(0.59733024 0.0007382139 0)
(0.5933211 0.00070276913 0)
(0.58940847 0.0006693509 0)
(0.58558757 0.00063782892 0)
(0.58185379 0.00060805876 0)
(0.57820292 0.00057993494 0)
(0.57463121 0.00055334614 0)
(0.5711351 0.00052817943 0)
(0.56771115 0.00050433802 0)
(0.56435623 0.0004817352 0)
(0.56106738 0.00046029741 0)
(0.55784188 0.00043994883 0)
(0.55467711 0.00042062594 0)
(0.55157055 0.00040226779 0)
(0.54851987 0.00038482635 0)
(0.54552289 0.00036824439 0)
(0.5425775 0.00035247563 0)
(0.53968173 0.00033747086 0)
(0.53683366 0.0003231926 0)
(0.53403148 0.00030959875 0)
(0.53127345 0.00029665893 0)
(0.52855786 0.00028433669 0)
(0.5258831 0.00027260477 0)
(0.52324751 0.00026143843 0)
(0.52064952 0.00025081342 0)
(0.51808743 0.00024071255 0)
(0.51555964 0.00023112155 0)
(0.51306419 0.00022202665 0)
(0.51059943 0.00021344161 0)
(0.50816239 0.00020533317 0)
(0.50575211 0.00019782122 0)
(0.50336137 0.00019074537 0)
(0.50099448 0.00018462199 0)
(0.49862632 0.00017876288 0)
(0.49628791 0.00017492722 0)
(0.49388506 0.00017147749 0)
(0.49154175 0.00017267556 0)
(0.48893134 0.00017220256 0)
(0.48668994 0.00017291189 1.006651e-19)
(0.48272795 0.00018044069 0)
(0.9758652 0.020856873 0)
(0.97927004 0.025990288 0)
(0.98415054 0.029220855 0)
(0.98907004 0.030338897 0)
(0.99322544 0.030065669 0)
(0.99648208 0.029082579 0)
(0.99899673 0.027846946 0)
(1.0010016 0.026572965 0)
(1.0026616 0.02528577 0)
(1.0040207 0.024024833 0)
(1.0051341 0.022812454 0)
(1.0060362 0.021641843 0)
(1.0067032 0.020528611 0)
(1.0071297 0.019484483 0)
(1.0074637 0.018512439 0)
(1.0074452 0.01761464 0)
(1.0072648 0.016791736 0)
(1.0067018 0.016038434 0)
(1.0056094 0.015346332 0)
(1.0037683 0.014700332 0)
(1.0007438 0.014077863 0)
(0.99621648 0.013466912 0)
(0.98988962 0.012834504 0)
(0.98164815 0.012146239 0)
(0.97150445 0.011408162 0)
(0.95957001 0.010639692 0)
(0.94610629 0.0098603805 0)
(0.9315382 0.0090945709 0)
(0.91635747 0.0083555394 0)
(0.90102596 0.0076575899 0)
(0.88590022 0.0070116807 0)
(0.87120632 0.0064247156 0)
(0.85706045 0.0058972206 0)
(0.84351149 0.0054235062 0)
(0.83057437 0.0049967188 0)
(0.81824387 0.0046114787 0)
(0.80650258 0.004262537 0)
(0.79532576 0.0039460523 0)
(0.78468359 0.0036593005 0)
(0.77454484 0.003398794 0)
(0.764879 0.0031617189 0)
(0.7556558 0.002945923 0)
(0.74684607 0.0027488624 0)
(0.73842257 0.0025686628 0)
(0.73035929 0.0024037282 0)
(0.72263214 0.0022523049 0)
(0.7152186 0.0021132371 0)
(0.70809752 0.0019851978 0)
(0.70124982 0.0018669677 0)
(0.69465774 0.0017577971 0)
(0.68830476 0.0016566898 0)
(0.68217578 0.0015629582 0)
(0.67625673 0.0014759304 0)
(0.67053482 0.0013949353 0)
(0.66499813 0.001319568 0)
(0.65963549 0.0012492659 0)
(0.65443666 0.0011836394 0)
(0.64939218 0.0011222805 0)
(0.64449344 0.0010648264 0)
(0.6397324 0.0010109565 0)
(0.63510169 0.00096035244 0)
(0.63059436 0.00091282394 0)
(0.62620403 0.00086811255 0)
(0.62192475 0.00082602997 0)
(0.61775083 0.0007863761 0)
(0.61367703 0.00074898981 0)
(0.60969863 0.0007137092 0)
(0.60581117 0.00068038093 0)
(0.60201043 0.00064887055 0)
(0.59829246 0.00061905454 0)
(0.59465357 0.00059082643 0)
(0.59109033 0.00056408059 0)
(0.58759952 0.00053872868 0)
(0.58417802 0.00051468424 0)
(0.58082295 0.00049187561 0)
(0.57753161 0.00047022451 0)
(0.57430139 0.00044966599 0)
(0.57112985 0.00043013277 0)
(0.56801466 0.00041157144 0)
(0.56495359 0.00039392452 0)
(0.56194452 0.00037714846 0)
(0.55898536 0.00036119372 0)
(0.55607416 0.00034602182 0)
(0.55320894 0.00033159786 0)
(0.55038781 0.0003178884 0)
(0.54760879 0.00030486815 0)
(0.54486998 0.00029251688 0)
(0.54216916 0.00028081373 0)
(0.5395044 0.00026977407 0)
(0.5368725 0.0002593523 0)
(0.5342722 0.00024969725 0)
(0.53169612 0.00024060105 0)
(0.52914807 0.00023271416 0)
(0.52660318 0.00022514793 0)
(0.52409107 0.00022014958 0)
(0.52151934 0.00021549051 0)
(0.51900797 0.00021690843 0)
(0.51623429 0.00021507229 -2.0450035e-20)
(0.51383196 0.0002222975 0)
(0.50962138 0.00021757968 -2.2953745e-21)
(0.97725051 0.020214584 0)
(0.98017347 0.024764172 0)
(0.984438 0.027812648 0)
(0.9888884 0.029072884 0)
(0.99277225 0.029047781 0)
(0.99588903 0.028303587 0)
(0.99833423 0.027248061 0)
(1.0002894 0.026097366 0)
(1.0018937 0.024907552 0)
(1.0032123 0.023720859 0)
(1.0042983 0.02256589 0)
(1.0051938 0.021447096 0)
(1.005918 0.020380862 0)
(1.0064842 0.019373187 0)
(1.0069258 0.018436858 0)
(1.0072306 0.017573953 0)
(1.0074121 0.016772856 0)
(1.007496 0.016043154 0)
(1.007447 0.015386108 0)
(1.0072756 0.014794184 0)
(1.006892 0.014257736 0)
(1.0061858 0.013770429 0)
(1.0050304 0.013318242 0)
(1.0031352 0.012885347 0)
(1.0001368 0.012454129 0)
(0.99571319 0.012010187 0)
(0.98955408 0.011517646 0)
(0.98158145 0.010953143 0)
(0.97178089 0.010338771 0)
(0.96029344 0.0096884896 0)
(0.94744926 0.009024676 0)
(0.93370879 0.0083652524 0)
(0.91954714 0.0077275192 0)
(0.90535991 0.0071263268 0)
(0.89141746 0.0065713443 0)
(0.8778725 0.0060664652 0)
(0.86480086 0.0056085124 0)
(0.85223805 0.0051920539 0)
(0.84019589 0.0048128653 0)
(0.82867067 0.0044666834 0)
(0.81764899 0.0041504696 0)
(0.80711097 0.003861889 0)
(0.79703387 0.003597982 0)
(0.78739396 0.0033564874 0)
(0.7781667 0.0031353961 0)
(0.76932807 0.002932501 0)
(0.76085484 0.0027462732 0)
(0.75272443 0.0025749829 0)
(0.74491586 0.0024170366 0)
(0.7374092 0.0022713811 0)
(0.73018571 0.0021367061 0)
(0.72322804 0.0020120639 0)
(0.71651988 0.0018965365 0)
(0.71004632 0.001789226 0)
(0.70379337 0.0016895479 0)
(0.69774796 0.0015967552 0)
(0.69189794 0.0015103029 0)
(0.68623199 0.001429632 0)
(0.68073971 0.0013542474 0)
(0.67541143 0.0012837107 0)
(0.67023823 0.0012175945 0)
(0.6652118 0.0011556176 0)
(0.66032433 0.0010974307 0)
(0.65556867 0.0010427728 0)
(0.65093803 0.00099137259 0)
(0.6464261 0.00094299988 0)
(0.64202703 0.00089743144 0)
(0.63773541 0.00085446299 0)
(0.63354614 0.00081391222 0)
(0.62945444 0.00077561077 0)
(0.62545583 0.00073941158 0)
(0.62154611 0.0007051712 0)
(0.61772138 0.00067276866 0)
(0.61397789 0.0006420867 0)
(0.61031215 0.00061302498 0)
(0.60672089 0.00058547891 0)
(0.60320098 0.00055936023 0)
(0.59974946 0.0005345794 0)
(0.59636354 0.00051106328 0)
(0.59304053 0.00048873549 0)
(0.5897779 0.0004675361 0)
(0.58657317 0.00044739959 0)
(0.58342401 0.00042827353 0)
(0.5803281 0.00041011045 0)
(0.57728319 0.00039286545 0)
(0.57428701 0.00037650319 0)
(0.57133734 0.00036099558 0)
(0.56843167 0.00034631311 0)
(0.5655678 0.00033247132 0)
(0.56274228 0.00031941099 0)
(0.55995352 0.00030730918 0)
(0.55719402 0.00029590931 0)
(0.55446707 0.00028599708 0)
(0.55174812 0.000276481 0)
(0.54906532 0.0002701038 0)
(0.54632835 0.00026403404 0)
(0.54365306 0.00026554328 1.0872986e-21)
(0.54072147 0.00026208457 0)
(0.53816511 0.00027688547 8.7106767e-20)
(0.5337154 0.00025767014 0)
(0.97863037 0.019641386 0)
(0.98115529 0.023670742 0)
(0.98486253 0.026507809 0)
(0.988867 0.027851446 0)
(0.9924943 0.028036843 0)
(0.99549333 0.027514217 0)
(0.99789541 0.02663744 0)
(0.99983326 0.025616078 0)
(1.0014223 0.024526252 0)
(1.0027269 0.023416578 0)
(1.0037983 0.022321766 0)
(1.0046781 0.02125377 0)
(1.0053934 0.020228892 0)
(1.0059659 0.01925589 0)
(1.0064182 0.018348027 0)
(1.0067726 0.017507421 0)
(1.0070401 0.016727336 0)
(1.0072295 0.016016886 0)
(1.0073457 0.015375111 0)
(1.0074175 0.014793873 0)
(1.0074073 0.014268465 0)
(1.0073547 0.013797976 0)
(1.007222 0.013375436 0)
(1.0069651 0.012991181 0)
(1.0065078 0.012636758 0)
(1.005734 0.012305094 0)
(1.0044978 0.011986192 0)
(1.0024372 0.011667778 0)
(0.99922476 0.011335121 0)
(0.99451527 0.010963072 0)
(0.98809423 0.010522607 0)
(0.97987219 0.010018125 0)
(0.96990348 0.0094642652 0)
(0.95844043 0.0088804202 0)
(0.94590439 0.0082878929 0)
(0.93276686 0.0077041758 0)
(0.91944111 0.0071456688 0)
(0.90622081 0.0066235974 0)
(0.89328003 0.0061435669 0)
(0.88071236 0.0057041113 0)
(0.86856781 0.0053012763 0)
(0.85687032 0.0049317245 0)
(0.8456265 0.0045920931 0)
(0.83483168 0.0042801275 0)
(0.82447364 0.0039937611 0)
(0.81453643 0.003730544 0)
(0.80500186 0.0034887126 0)
(0.79585017 0.0032662123 0)
(0.78706164 0.003061111 0)
(0.77861651 0.0028720588 0)
(0.77049548 0.0026974127 0)
(0.76268021 0.0025359417 0)
(0.75515313 0.0023864497 0)
(0.74789783 0.0022477812 0)
(0.74089876 0.0021191415 0)
(0.73414122 0.0019995697 0)
(0.72761147 0.0018883404 0)
(0.72129657 0.0017847199 0)
(0.71518449 0.0016880555 0)
(0.70926398 0.001597766 0)
(0.70352462 0.0015132921 0)
(0.69795668 0.0014342432 0)
(0.69255101 0.0013601604 0)
(0.68729914 0.0012906888 0)
(0.68219316 0.0012254709 0)
(0.67722565 0.0011641981 0)
(0.67238965 0.0011065734 0)
(0.66767873 0.0010523267 0)
(0.66308684 0.001001217 0)
(0.65860833 0.00095302215 0)
(0.65423788 0.00090754576 0)
(0.6499705 0.00086459827 0)
(0.64580152 0.00082401818 0)
(0.64172655 0.00078565054 0)
(0.63774144 0.00074936029 0)
(0.63384228 0.00071501105 0)
(0.63002538 0.00068248595 0)
(0.62628726 0.00065166848 0)
(0.62262459 0.00062246143 0)
(0.61903423 0.00059476557 0)
(0.61551318 0.00056850099 0)
(0.61205855 0.00054358287 0)
(0.6086676 0.00051994182 0)
(0.60533762 0.00049751499 0)
(0.60206603 0.00047624357 0)
(0.59885019 0.00045607979 0)
(0.59568756 0.0004369857 0)
(0.59257535 0.00041892123 0)
(0.58951103 0.00040190046 0)
(0.5864909 0.00038584912 0)
(0.58351305 0.00037097139 0)
(0.58056986 0.00035696096 0)
(0.57766407 0.00034473872 0)
(0.57477147 0.00033300944 0)
(0.57191879 0.00032501537 0)
(0.56901782 0.00031731471 0)
(0.56618043 0.00031876148 0)
(0.56309343 0.00031339966 0)
(0.56038734 0.00033679715 0)
(0.55570408 0.0003009012 0)
(0.97995919 0.019117132 0)
(0.98216747 0.022695364 0)
(0.9853919 0.02531676 0)
(0.98897344 0.026694395 0)
(0.99233698 0.027044114 0)
(0.99520886 0.026716164 0)
(0.9975659 0.026009335 0)
(0.99949375 0.025118374 0)
(1.0010827 0.024131055 0)
(1.0023909 0.0231022 0)
(1.0034663 0.022071089 0)
(1.0043489 0.021055623 0)
(1.0050667 0.020073297 0)
(1.0056434 0.019135649 0)
(1.0061011 0.018255165 0)
(1.0064636 0.017436335 0)
(1.0067457 0.016675469 0)
(1.0069585 0.015979615 0)
(1.0071151 0.015347784 0)
(1.0072331 0.014776486 0)
(1.0073112 0.014261375 0)
(1.0073572 0.01379669 0)
(1.0073812 0.013377846 0)
(1.0073729 0.012998544 0)
(1.0073369 0.012654319 0)
(1.007246 0.012341191 0)
(1.0070753 0.012053416 0)
(1.0067686 0.011784068 0)
(1.0062322 0.011528945 0)