# Region        : all region0
# Cells         : 13056
# Volume        : 2.33333000e+00
# Time          	min(p)	min(nut)
0.000120005     	7.96594023e-04	2.87166133e-54
0.000264017     	3.30367620e-04	3.96143677e-54
0.000436833     	3.19339533e-04	2.66672212e-59
0.000644211     	2.95214857e-04	2.65309368e-54
0.000893055     	2.61231067e-04	1.23839310e-55
0.00119165      	2.32017835e-04	2.85241074e-55
0.0015499       	2.08093268e-04	5.04328656e-57
0.00197972      	1.87809375e-04	6.69046002e-54
0.00249549      	1.70010350e-04	1.62896807e-55
0.00311429      	1.54213187e-04	1.79589786e-54
0.00385657      	1.40043037e-04	1.02991571e-54
0.00472354      	1.31286881e-04	1.37123007e-53
0.00571288      	1.25388176e-04	2.15729247e-54
0.00682257      	1.21097528e-04	4.30642850e-54
0.00800916      	1.22255262e-04	9.47644363e-55
0.00917896      	1.32025756e-04	1.66508828e-52
0.0103338       	1.39461298e-04	1.33575726e-52
0.0114753       	1.46286161e-04	1.53531243e-53
0.0126024       	1.53007823e-04	3.86397095e-54
0.0137169       	1.59260219e-04	1.30610076e-52
0.0148201       	1.65065124e-04	3.64979521e-53
0.0159135       	1.70418865e-04	1.02014252e-52
0.0169973       	1.75475934e-04	1.12904326e-52
0.0180728       	1.80061095e-04	8.85659685e-53
0.019139        	1.84508940e-04	7.66541853e-53
0.0201959       	1.88629622e-04	1.70697098e-52
0.0212461       	1.92151564e-04	4.37296020e-52
0.0222884       	1.95581630e-04	2.85822565e-52
0.0233241       	1.98575862e-04	9.12610521e-53
0.0243544       	2.01185217e-04	9.40653460e-53
0.0253781       	2.03710952e-04	5.88789993e-53
0.0263966       	2.05844341e-04	6.32981320e-52
0.0274086       	2.07906494e-04	6.79792597e-51
0.0284154       	2.09605310e-04	2.03959167e-51
0.0294181       	2.10992884e-04	7.97448767e-53
0.0304156       	2.12342545e-04	4.70228652e-52
0.0314091       	2.13374351e-04	5.61118378e-52
0.0323984       	2.14257632e-04	8.36447560e-52
0.0333838       	2.14988231e-04	1.75555993e-52
0.0343651       	2.15573727e-04	1.79635399e-52
0.0353434       	2.15911128e-04	7.87364109e-52
0.0363178       	2.16250663e-04	1.69661596e-51
0.0372893       	2.16352420e-04	4.06360557e-51
0.0382569       	2.16457637e-04	5.58974276e-52
0.0392215       	2.16344613e-04	4.91907560e-52
0.0401832       	2.16166301e-04	9.66421991e-52
0.0411421       	2.15875019e-04	6.06607333e-51
0.042099        	2.15431462e-04	2.80622238e-51
0.0430531       	2.15014613e-04	1.13921212e-51
0.0440053       	2.14427500e-04	2.65196899e-50
0.0449556       	2.13786638e-04	2.58294286e-50
0.0459031       	2.13172310e-04	4.24982821e-50
0.0468486       	2.12411612e-04	3.82892678e-50
0.0477924       	2.11613384e-04	8.50322103e-50
0.0487342       	2.10770784e-04	9.04702926e-50
0.0496742       	2.09885930e-04	6.83402815e-50
0.0506123       	2.08968549e-04	7.93466978e-50
0.0515495       	2.07944307e-04	1.11458429e-49
0.0524849       	2.06972201e-04	1.20433718e-49
0.0534184       	2.05958884e-04	1.52312418e-49
0.054351        	2.04856139e-04	1.94448524e-49
0.0552817       	2.03806361e-04	2.55548461e-49
0.0562116       	2.02665412e-04	3.44104173e-49
0.0571405       	2.01518831e-04	4.71297758e-49
0.0580685       	2.00358643e-04	3.95637368e-49
0.0589947       	1.99238614e-04	4.91522564e-49
0.05992         	1.98041981e-04	8.14965759e-49
0.0608444       	1.96847477e-04	1.06588889e-48
0.0617678       	1.95646426e-04	1.26753712e-48
0.0626904       	1.94438836e-04	1.81567023e-48
0.063612        	1.93225974e-04	1.97209925e-48
0.0645336       	1.91965440e-04	1.60298092e-48
0.0654544       	1.90757093e-04	1.55282963e-48
0.0663742       	1.89535702e-04	1.95879315e-48
0.0672931       	1.88312445e-04	2.77387466e-48
0.068212        	1.87052239e-04	3.10268427e-48
0.0691301       	1.85842095e-04	2.17876918e-48
0.0700481       	1.84588239e-04	2.00495056e-48
0.0709652       	1.83381734e-04	1.57098260e-48
0.0718823       	1.82135786e-04	1.31863319e-48
0.0727985       	1.80936060e-04	1.26704238e-48
0.0737147       	1.79700845e-04	4.24432914e-48
0.07463         	1.78510524e-04	2.63077776e-48
0.0755453       	1.77288287e-04	8.84155404e-48
0.0764597       	1.76109421e-04	1.28434280e-47
0.0773741       	1.74901928e-04	6.92164764e-48
0.0782885       	1.73712107e-04	5.04737858e-48
0.079202        	1.72554023e-04	1.07174841e-47
0.0801155       	1.71370476e-04	4.30516993e-48
0.081029        	1.70205452e-04	3.54559732e-48
0.0819416       	1.69069961e-04	7.79705965e-48
0.0828542       	1.67913064e-04	4.48016027e-48
0.0837667       	1.66775209e-04	8.07132781e-48
0.0846793       	1.65647479e-04	1.05742459e-47
0.0855919       	1.64528597e-04	1.09642561e-47
0.0865036       	1.63434608e-04	1.27290173e-47
0.0874152       	1.62324770e-04	1.94231146e-47
0.0883269       	1.61234834e-04	2.02974195e-47
0.0892386       	1.60155612e-04	1.74247919e-47
0.0901503       	7.00667439e-05	8.90213875e-48
0.0910619       	-3.75119176e-05	1.35414343e-47
0.0919736       	-1.41403404e-04	1.82608848e-47
0.0928853       	-2.41735800e-04	1.72926294e-47
0.093797        	-3.38583923e-04	1.09580490e-47
0.0947086       	-4.32069947e-04	1.33606550e-47
0.0956194       	-5.19469087e-04	1.14426228e-47
0.0965301       	-6.07849211e-04	1.05999547e-47
0.0974409       	-6.91973727e-04	6.75981236e-48
0.0983517       	-7.72945937e-04	7.00107616e-48
0.0992624       	-8.51094653e-04	6.59031859e-48
0.100173        	-9.26546276e-04	5.19199563e-48
0.101084        	-9.99403661e-04	4.58274305e-48
0.101995        	-1.06974624e-03	3.73429411e-48
0.102905        	-1.13765860e-03	2.20192548e-48
0.103816        	-1.20322306e-03	8.81684007e-49
0.104728        	-1.26834030e-03	1.24439816e-48
0.105639        	-1.32645560e-03	1.22826345e-48
0.106548        	-1.38504362e-03	9.10890833e-50
0.107457        	-1.44196804e-03	2.99959154e-49
0.108366        	-1.49830633e-03	9.73974469e-50
0.109274        	-1.54993424e-03	1.01780748e-49
0.110181        	-1.60091935e-03	2.09726221e-49
0.111087        	-1.65035400e-03	1.16973624e-49
0.111994        	-1.69923503e-03	1.72296543e-49
0.112899        	-1.74412603e-03	2.84378718e-49
0.113803        	-1.78870832e-03	4.08165074e-49
0.114707        	-1.83293696e-03	1.14258384e-48
0.115611        	-1.87365338e-03	1.18959734e-48
0.116514        	-1.91497988e-03	1.63679745e-48
0.117416        	-1.95327969e-03	6.94123079e-49
0.118318        	-1.99152884e-03	1.12920164e-48
0.11922         	-2.02936444e-03	6.36305145e-49
0.12012         	-2.06429051e-03	5.48627528e-49
0.121021        	-2.09973527e-03	3.37475005e-49
0.12192         	-2.13269548e-03	2.75251784e-49
0.12282         	-2.16616094e-03	4.06057539e-49
0.123719        	-2.19734367e-03	2.66954928e-49
0.124618        	-2.22896909e-03	3.39782587e-49
0.125515        	-2.25850342e-03	4.55896788e-49
0.126413        	-2.28842261e-03	5.19139967e-49
0.12731         	-2.31643108e-03	1.15003278e-48
0.128207        	-2.34477344e-03	1.65028100e-48
0.129103        	-2.37137527e-03	9.66617659e-49
0.129999        	-2.39826728e-03	2.47172038e-48
0.130894        	-2.42357888e-03	1.08897238e-48
0.131789        	-2.44911409e-03	6.62601184e-49
0.132683        	-2.47322749e-03	6.22266564e-49
0.133577        	-2.49752680e-03	8.91030632e-49
0.134471        	-2.52054031e-03	1.16453560e-48
0.135364        	-2.54368949e-03	9.66118269e-49
0.136256        	-2.56569552e-03	8.80829266e-49
0.137148        	-2.58778139e-03	1.27654943e-48
0.138041        	-2.60823608e-03	5.50256684e-49
0.138932        	-2.62876823e-03	6.01877894e-49
0.139823        	-2.64950273e-03	6.63809197e-49
0.140714        	-2.66942328e-03	6.12725014e-49
0.141604        	-2.68928829e-03	6.92412507e-49
0.142495        	-2.70760464e-03	6.36755277e-49
0.143384        	-2.72627735e-03	6.83885403e-49
0.144274        	-2.74502739e-03	7.16180810e-49
0.145162        	-2.76324910e-03	1.04691323e-48
0.146051        	-2.78130589e-03	8.12087131e-49
0.14694         	-2.79787085e-03	1.07164264e-48
0.147827        	-2.81508237e-03	9.28024225e-49
0.148715        	-2.83225645e-03	8.73671230e-49
0.149602        	-2.84915471e-03	1.32743362e-48
0.150489        	-2.86577045e-03	3.27445873e-48
0.151375        	-2.88098040e-03	2.81215130e-48
0.152261        	-2.89707593e-03	1.68620374e-48
0.153147        	-2.91301838e-03	1.39428889e-48
0.154033        	-2.92761315e-03	1.91563985e-48
0.154918        	-2.94321354e-03	2.18749456e-48
0.155803        	-2.95859107e-03	1.24443120e-48
0.156688        	-2.97264311e-03	1.84194526e-48
0.157571        	-2.98781136e-03	2.18785814e-48
0.158455        	-3.00269022e-03	2.73763469e-48
0.159339        	-3.01624739e-03	3.48075268e-48
0.160222        	-3.03103347e-03	2.45127608e-48
0.161106        	-3.04545701e-03	4.99143019e-48
0.161989        	-3.05857699e-03	2.12826573e-48
0.162871        	-3.07301629e-03	5.19131121e-48
0.163753        	-3.08702232e-03	3.19814682e-48
0.164635        	-3.09973331e-03	3.17184948e-48
0.165516        	-3.11384755e-03	2.56385430e-48
0.166397        	-3.12746310e-03	5.97148398e-48
0.167278        	-3.13978802e-03	2.58178078e-48
0.168159        	-3.15360306e-03	4.13395500e-48
0.169039        	-3.16684744e-03	3.64031630e-48
0.169919        	-3.17878868e-03	2.41108263e-48
0.170799        	-3.19230764e-03	3.23114881e-48
0.171678        	-3.20518783e-03	5.45302833e-48
0.172557        	-3.21677729e-03	5.78336442e-48
0.173436        	-3.23001797e-03	7.63906971e-48
0.174314        	-3.24254678e-03	3.92967679e-48
0.175192        	-3.25380713e-03	4.10677885e-48
0.17607         	-3.26678666e-03	8.42994620e-48
0.176947        	-3.27900097e-03	1.32905417e-47
0.177825        	-3.28995082e-03	4.15776578e-48
0.178702        	-3.30065989e-03	2.27683968e-48
0.179579        	-3.31338195e-03	4.60395903e-48
0.180455        	-3.32529048e-03	2.56761814e-48
0.181332        	-3.33594093e-03	1.54753340e-48
0.182207        	-3.34847149e-03	2.80488381e-48
0.183083        	-3.36012010e-03	5.74115182e-48
0.183959        	-3.37052576e-03	7.57339468e-48
0.184834        	-3.38072230e-03	7.72185745e-49
0.185709        	-3.39308781e-03	7.59012905e-49
0.186583        	-3.40456294e-03	3.07454582e-49
0.187458        	-3.41478821e-03	8.14269550e-50
0.188332        	-3.42704900e-03	1.48239507e-48
0.189205        	-3.43838540e-03	5.07573149e-49
0.190079        	-3.44845263e-03	2.02402835e-50
0.190953        	-3.45836266e-03	2.35138111e-49
0.191826        	-3.47060292e-03	4.95193985e-50
0.192698        	-3.48184131e-03	8.91108588e-51
0.193571        	-3.49189041e-03	2.33334378e-49
0.194443        	-3.50407841e-03	2.35600081e-51
0.195315        	-3.51524986e-03	3.99720447e-51
0.196187        	-3.52519627e-03	1.12805015e-51
0.197058        	-3.53497046e-03	2.09025109e-49
0.197929        	-3.54717994e-03	3.02874961e-50
0.1988          	-3.55839534e-03	1.96083949e-48
0.199671        	-3.56825416e-03	2.58177982e-48
0.200542        	-3.57799938e-03	2.07167690e-48
0.201412        	-3.59022428e-03	3.90848204e-48
0.202282        	-3.60132359e-03	1.92265033e-48
0.203152        	-3.61114686e-03	4.38449107e-48
0.204021        	-3.62333584e-03	6.85859137e-48
0.20489         	-3.63421485e-03	4.40666099e-48
0.205759        	-3.64396187e-03	4.25386492e-48
0.206627        	-3.65339918e-03	4.80663381e-48
0.207496        	-3.66557069e-03	4.17363186e-48
0.208364        	-3.67630780e-03	4.89405583e-48
0.209232        	-3.68579017e-03	5.91035830e-48
0.2101          	-3.69516155e-03	4.67363101e-48
0.210967        	-3.70705105e-03	4.54737942e-48
0.211834        	-3.71771137e-03	5.22469262e-48
0.212701        	-3.72690465e-03	5.49893827e-48
0.213568        	-3.73601846e-03	4.85746425e-48
0.214434        	-3.74768773e-03	4.97661832e-48
0.2153          	-3.75802681e-03	5.21708854e-48
0.216166        	-3.76702733e-03	5.81441722e-48
0.217032        	-3.77579215e-03	5.28204262e-48
0.217897        	-3.78726390e-03	5.64130257e-48
0.218763        	-3.79727709e-03	6.22002663e-48
0.219628        	-3.80598449e-03	5.79253333e-48
0.220493        	-3.81445697e-03	5.95662813e-48
0.221357        	-3.82565981e-03	5.98065700e-48
0.222221        	-3.83543832e-03	6.75070524e-48
0.223086        	-3.84380628e-03	1.12263971e-47
0.22395         	-3.85202027e-03	1.00562721e-47
0.224813        	-3.86295908e-03	6.40297912e-48
0.225676        	-3.87254809e-03	7.14045034e-48
0.226539        	-3.88062837e-03	1.05339327e-47
0.227403        	-3.88864667e-03	6.91075339e-48
0.228265        	-3.89938910e-03	8.50547145e-48
0.229127        	-3.90879740e-03	9.46028733e-48
0.22999         	-3.91667891e-03	9.95482816e-48
0.230852        	-3.92453815e-03	1.02945032e-47
0.231713        	-3.93516613e-03	1.25509901e-47
0.232574        	-3.94443231e-03	8.69189479e-48
0.233436        	-3.95220671e-03	9.33952577e-48
0.234297        	-3.95995225e-03	1.45128497e-47
0.235158        	-3.96761493e-03	1.50429251e-47
0.236019        	-3.97833452e-03	1.31599882e-47
0.236879        	-3.98749936e-03	1.63951599e-47
0.237739        	-3.99530811e-03	2.06558524e-47
0.2386          	-4.00298941e-03	1.49778107e-47
0.239459        	-4.01371691e-03	9.81125315e-48
0.240318        	-4.02273008e-03	2.49793906e-47
0.241178        	-4.03060968e-03	2.51797425e-47
0.242037        	-4.03825054e-03	1.93889865e-47
0.242896        	-4.04905728e-03	2.55637939e-47
0.243754        	-4.05806458e-03	1.93079242e-47
0.244612        	-4.06593267e-03	1.75099194e-47
0.245471        	-4.07361931e-03	3.39099810e-47
0.246328        	-4.08444412e-03	3.13262869e-47
0.247186        	-4.09352397e-03	1.72848324e-47
0.248043        	-4.10137515e-03	3.52850235e-47
0.2489          	-4.10909521e-03	5.30946672e-47
0.249758        	-4.11682790e-03	3.61874485e-47
0.250614        	-4.12776269e-03	2.52596492e-47
0.251471        	-4.13690617e-03	2.76505093e-47
0.252327        	-4.14481146e-03	5.52141531e-47
0.253184        	-4.15251787e-03	5.65367845e-47
0.254039        	-4.16341840e-03	8.08218057e-47
0.254895        	-4.17251909e-03	1.01403159e-46
0.25575         	-4.18033558e-03	5.24948600e-47
0.256605        	-4.18796683e-03	6.69992176e-47
0.257461        	-4.19559649e-03	6.05436202e-47
0.258315        	-4.20646936e-03	1.10118344e-46
0.25917         	-4.21548820e-03	1.16395690e-46
0.260024        	-4.22319059e-03	7.60991503e-47
0.260879        	-4.23067277e-03	1.01832518e-46
0.261732        	-4.24138128e-03	1.21198186e-46
0.262586        	-4.25021027e-03	1.15785965e-46
0.263439        	-4.25770387e-03	1.15109110e-46
0.264293        	-4.26496806e-03	1.23485082e-46
0.265146        	-4.27219974e-03	1.08079063e-46
0.265999        	-4.28272523e-03	1.00623917e-46
0.266851        	-4.29130168e-03	9.83334882e-47
0.267704        	-4.29851875e-03	9.89493605e-47
0.268556        	-4.30548529e-03	1.22762408e-46
0.269409        	-4.31240709e-03	1.07780203e-46
0.27026         	-4.32263325e-03	1.09774931e-46
0.271112        	-4.33087828e-03	1.22509303e-46
0.271963        	-4.33773558e-03	9.84303222e-47
0.272815        	-4.34434434e-03	9.83179503e-47
0.273665        	-4.35425300e-03	1.08317738e-46
0.274516        	-4.36215026e-03	9.87309735e-47
0.275366        	-4.36867926e-03	1.02833933e-46
0.276217        	-4.37494929e-03	1.03670406e-46
0.277067        	-4.38117347e-03	1.03002806e-46
0.277917        	-4.39077077e-03	9.94682304e-47
0.278766        	-4.39833689e-03	1.00177304e-46
0.279616        	-4.40450239e-03	1.07940183e-46
0.280465        	-4.41043714e-03	1.19829977e-46
0.281315        	-4.41631567e-03	1.20370955e-46
0.282163        	-4.42561371e-03	5.57042466e-47
0.283012        	-4.43285932e-03	5.69825251e-47
0.28386         	-4.43871847e-03	1.15876125e-46
0.284709        	-4.44433521e-03	1.56768721e-46
0.285557        	-4.44992345e-03	1.25527429e-46
0.286405        	-4.45898108e-03	1.77429038e-46
0.287252        	-4.46597224e-03	1.27356862e-46
0.2881          	-4.47158888e-03	1.86770777e-46
0.288947        	-4.47697456e-03	1.33121458e-46
0.289795        	-4.48235957e-03	3.59267475e-47
0.290641        	-4.49126279e-03	1.50196066e-46
0.291488        	-4.49809075e-03	9.54001249e-49
0.292334        	-4.50355669e-03	6.27509021e-47
0.293181        	-4.50881491e-03	1.98459425e-46
0.294027        	-4.51408186e-03	2.01572498e-46
0.294873        	-4.52292668e-03	1.90202210e-46
0.295718        	-4.52968692e-03	2.03247886e-46
0.296564        	-4.53509679e-03	2.81468729e-46
0.297409        	-4.54031633e-03	3.46799996e-46
0.298255        	-4.54556211e-03	1.98439194e-46
0.299099        	-4.55443383e-03	1.53311006e-46
0.299944        	-4.56121210e-03	2.25501861e-46
0.300788        	-4.56664697e-03	2.32642247e-46
0.301633        	-4.57190315e-03	1.77343339e-46
0.302477        	-4.57719875e-03	2.09864787e-46
0.30332         	-4.58616397e-03	2.27907020e-46
0.304164        	-4.59302189e-03	3.46103955e-46
0.305007        	-4.59853172e-03	3.71524572e-46
0.305851        	-4.60388002e-03	2.61202599e-46
0.306694        	-4.60926656e-03	3.04086868e-46
0.307537        	-4.61836288e-03	5.78197292e-47
0.308379        	-4.62532696e-03	3.13984584e-46
0.309221        	-4.63094534e-03	3.74558892e-46
0.310064        	-4.63639212e-03	4.67744464e-46
0.310906        	-4.64188141e-03	4.45688961e-46
0.311749        	-4.64744069e-03	4.47096495e-46
0.31259         	-4.65673792e-03	3.95218134e-46
0.313431        	-4.66385422e-03	4.21294590e-46
0.314273        	-4.66960648e-03	5.40515570e-46
0.315114        	-4.67517952e-03	4.06748319e-46
0.315956        	-4.68077676e-03	6.33175144e-46
0.316796        	-4.69013783e-03	4.45433180e-46
0.317636        	-4.69728850e-03	4.58950979e-46
0.318477        	-4.70306741e-03	5.25266283e-46
0.319317        	-4.70864895e-03	5.33187409e-46
0.320157        	-4.71425075e-03	6.40357415e-46
0.320997        	-4.72363992e-03	7.29607128e-46
0.321836        	-4.73078404e-03	5.58747442e-46
0.322675        	-4.73653474e-03	7.65341406e-46
0.323515        	-4.74207473e-03	5.91096432e-46
0.324354        	-4.74762201e-03	8.02002737e-46
0.325193        	-4.75319667e-03	5.85064649e-46
0.326031        	-4.76258140e-03	8.58029848e-46
0.32687         	-4.76965200e-03	7.99827251e-46
0.327708        	-4.77530382e-03	5.31165126e-46
0.328546        	-4.78071787e-03	5.22332607e-46
0.329385        	-4.78611504e-03	9.32936499e-46
0.330222        	-4.79533258e-03	1.09690015e-45
0.331059        	-4.80221450e-03	1.15176630e-45
0.331896        	-4.80765550e-03	1.22114551e-45
0.332733        	-4.81284911e-03	1.29104526e-45
0.333571        	-4.81801496e-03	9.40119509e-46
0.334408        	-4.82317934e-03	7.47683362e-46
0.335244        	-4.83218518e-03	9.80474479e-46
0.33608         	-4.83880123e-03	1.43800930e-45
0.336916        	-4.84394917e-03	1.14362677e-45
0.337753        	-4.84880096e-03	1.17340849e-45
0.338589        	-4.85366823e-03	1.19651152e-45
0.339424        	-4.86237738e-03	1.53416027e-45
0.340259        	-4.86866790e-03	1.88553172e-45
0.341094        	-4.87348147e-03	1.49383701e-45
0.341929        	-4.87802261e-03	1.53933362e-45
0.342764        	-4.88251791e-03	1.74140156e-45
0.343599        	-4.88699693e-03	1.79428383e-45
0.344433        	-4.89537185e-03	1.96335884e-45
0.345268        	-4.90129684e-03	1.42261872e-45
0.346102        	-4.90572334e-03	1.14529646e-45
0.346936        	-4.90987128e-03	1.81201733e-45
0.34777         	-4.91396966e-03	1.81547764e-45
0.348604        	-4.91804934e-03	1.64526203e-45
0.349437        	-4.92606452e-03	2.04846074e-45
0.35027         	-4.93159995e-03	1.73510699e-45
0.351103        	-4.93563188e-03	1.30409612e-45
0.351936        	-4.93938966e-03	1.27655521e-45
0.352769        	-4.94310158e-03	1.94975228e-45
0.353602        	-4.94680694e-03	2.17488378e-45
0.354434        	-4.95447982e-03	1.71237173e-45
0.355266        	-4.95967420e-03	1.83231189e-45
0.356097        	-4.96335154e-03	1.70534437e-45
0.356929        	-4.96676908e-03	1.93435025e-45
0.357761        	-4.97015689e-03	1.85717992e-45
0.358593        	-4.97353872e-03	2.22422786e-45
0.359424        	-4.98094275e-03	1.70019685e-45
0.360255        	-4.98587122e-03	2.18874925e-45
0.361086        	-4.98929250e-03	2.03658667e-45
0.361917        	-4.99245319e-03	2.20282333e-45
0.362747        	-4.99560156e-03	2.12778678e-45
0.363578        	-4.99876940e-03	2.09717353e-45
0.364408        	-5.00602884e-03	2.04880314e-45
0.365238        	-5.01076386e-03	2.93566562e-46
0.366067        	-5.01402269e-03	2.09390950e-45
0.366897        	-5.01702840e-03	2.22316452e-45
0.367727        	-5.02006001e-03	1.93536214e-45
0.368557        	-5.02311402e-03	2.22710503e-45
0.369385        	-5.03031950e-03	2.00227871e-45
0.370214        	-5.03499125e-03	2.25874032e-45
0.371043        	-5.03819379e-03	2.31700154e-45
0.371871        	-5.04117448e-03	1.98894988e-45
0.3727          	-5.04417457e-03	1.93447620e-45
0.373529        	-5.04723960e-03	2.05971397e-45
0.374356        	-5.05448496e-03	2.14023606e-45
0.375184        	-5.05920549e-03	1.63094145e-45
0.376011        	-5.06245059e-03	1.96307403e-45
0.376839        	-5.06549051e-03	1.88955144e-45
0.377667        	-5.06856490e-03	2.02346149e-45
0.378494        	-5.07170770e-03	1.79370616e-45
0.379322        	-5.07491441e-03	1.83618524e-45
0.380148        	-5.08236523e-03	1.82005533e-45
0.380975        	-5.08725712e-03	1.97542631e-45
0.381801        	-5.09066890e-03	1.65625877e-45
0.382628        	-5.09388033e-03	1.72186463e-45
0.383454        	-5.09713133e-03	1.76490373e-45
0.384281        	-5.10045663e-03	1.59238781e-45
0.385106        	-5.10807541e-03	1.84478269e-45
0.385931        	-5.11312023e-03	1.41777342e-45
0.386757        	-5.11668271e-03	1.64405108e-45
0.387582        	-5.12004622e-03	1.47592397e-45
0.388407        	-5.12338032e-03	1.62305841e-45
0.389233        	-5.12695219e-03	1.39153365e-45
0.390058        	-5.13052463e-03	1.56147308e-45
0.390882        	-5.13841194e-03	1.26847296e-45
0.391707        	-5.14368726e-03	1.53759874e-45
0.392531        	-5.14746104e-03	1.31094455e-45
0.393355        	-5.15102915e-03	1.45074634e-45
0.394179        	-5.15463500e-03	1.27864198e-45
0.395004        	-5.15831094e-03	1.39622556e-45
0.395828        	-5.16205011e-03	1.17454597e-45
0.396651        	-5.17015153e-03	1.70593486e-45
0.397474        	-5.17560354e-03	1.28711627e-45
0.398297        	-5.17953306e-03	1.30513317e-45
0.39912         	-5.18324507e-03	8.10101669e-47
0.399943        	-5.18698381e-03	9.84347099e-48
0.400767        	-5.19078180e-03	6.78016134e-46
0.40159         	-5.19463159e-03	1.26273888e-45
0.402412        	-5.20287552e-03	1.22062173e-45
0.403234        	-5.20842662e-03	1.14805974e-45
0.404056        	-5.21243119e-03	1.17343334e-45
0.404878        	-5.21620209e-03	1.09834836e-45
0.4057          	-5.21998603e-03	1.15020052e-45
0.406522        	-5.22381622e-03	1.07761826e-45
0.407344        	-5.22768362e-03	1.24086083e-45
0.408164        	-5.23597645e-03	8.24152858e-46
0.408985        	-5.24153133e-03	9.85222263e-46
0.409806        	-5.24551122e-03	9.38424640e-46
0.410627        	-5.24924203e-03	1.18365834e-45
0.411448        	-5.25297056e-03	8.77350687e-46
0.412269        	-5.25673042e-03	1.13697389e-45
0.41309         	-5.26051371e-03	8.71662397e-46
0.413909        	-5.26875912e-03	1.36515635e-45
0.414729        	-5.27420048e-03	1.06110606e-45
0.415549        	-5.27806182e-03	1.02098169e-45
0.416368        	-5.28164684e-03	8.10116437e-46
0.417188        	-5.28521802e-03	2.92606820e-46
0.418008        	-5.28880648e-03	2.36020116e-47
0.418828        	-5.29240485e-03	1.25789144e-47
0.419646        	-5.30049360e-03	1.12419479e-46
0.420465        	-5.30575234e-03	8.57598414e-47
0.421283        	-5.30938041e-03	1.66826571e-46
0.422102        	-5.31272864e-03	5.19561573e-46
0.42292         	-5.31604989e-03	8.27029705e-46
0.423739        	-5.31937632e-03	9.41910532e-46
0.424557        	-5.32270311e-03	7.70724172e-46
0.425375        	-5.33055830e-03	1.04534301e-45
0.426192        	-5.33553644e-03	7.99450839e-46
0.42701         	-5.33886745e-03	8.01554987e-46
0.427827        	-5.34190464e-03	6.33870887e-46
0.428644        	-5.34490501e-03	8.67812615e-46
0.429462        	-5.34790336e-03	7.35924216e-46
0.430279        	-5.35088732e-03	8.66525222e-46
0.431097        	-5.35376355e-03	6.36366321e-46
0.431913        	-5.36142441e-03	6.16179920e-46
0.432729        	-5.36605758e-03	6.31609206e-46
0.433545        	-5.36900516e-03	7.83779312e-46
0.434361        	-5.37164505e-03	6.62683210e-46
0.435178        	-5.37423965e-03	6.38917621e-46
0.435994        	-5.37682847e-03	6.94717943e-46
0.43681         	-5.37940663e-03	6.47209792e-46
0.437626        	-5.38196386e-03	5.01649826e-46
0.438441        	-5.38915185e-03	5.23672845e-46
0.439256        	-5.39336548e-03	5.48256121e-46
0.440071        	-5.39589769e-03	6.11894478e-46
0.440886        	-5.39812138e-03	4.80843366e-46
0.441701        	-5.40030322e-03	5.67748231e-46
0.442516        	-5.40248354e-03	5.17323318e-46
0.443331        	-5.40465643e-03	5.61777267e-46
0.444147        	-5.40681393e-03	4.86118716e-46
0.44496         	-5.41366470e-03	5.47771198e-46
0.445774        	-5.41750706e-03	5.09246621e-46
0.446588        	-5.41965993e-03	4.93335301e-46
0.447402        	-5.42150918e-03	4.77514621e-46
0.448216        	-5.42332512e-03	4.67540677e-46
0.44903         	-5.42514848e-03	4.62254536e-46
0.449843        	-5.42697441e-03	4.57664213e-46
0.450657        	-5.42879616e-03	4.48295880e-46
0.45147         	-5.43538095e-03	4.38120337e-46
0.452283        	-5.43892759e-03	3.93996318e-46
0.453095        	-5.44036351e-03	4.30671270e-46
0.453908        	-5.44284679e-03	4.35749348e-46
0.45472         	-5.44342280e-03	1.26099930e-46
0.455533        	-5.44590586e-03	4.04990458e-46
0.456346        	-5.44656992e-03	4.11173590e-46
0.457158        	-5.44907390e-03	3.92462560e-46
0.45797         	-5.45497176e-03	4.09050415e-46
0.458781        	-5.45839997e-03	3.25832308e-46
0.459593        	-5.45964500e-03	4.07374535e-46
0.460404        	-5.46198238e-03	3.77438722e-46
0.461215        	-5.46240838e-03	3.78870717e-46
0.462027        	-5.46469601e-03	3.56378637e-46
0.462838        	-5.46529883e-03	3.92950550e-46
0.46365         	-5.46764484e-03	4.23952270e-46
0.464461        	-5.46828773e-03	3.94935203e-46
0.465271        	-5.47557129e-03	3.09907553e-46
0.466082        	-5.47795162e-03	3.05188775e-46
0.466892        	-5.48060451e-03	2.91533913e-46
0.467702        	-5.48102594e-03	3.20230260e-46
0.468512        	-5.48321662e-03	3.46961115e-46
0.469322        	-5.48382216e-03	3.43307454e-46
0.470133        	-5.48612412e-03	3.02972060e-46
0.470943        	-5.48680822e-03	3.24199296e-46
0.471752        	-5.49414059e-03	3.16135467e-46
0.472561        	-5.49663006e-03	3.00838127e-46
0.47337         	-5.49931598e-03	2.69978121e-46
0.474179        	-5.49983946e-03	2.78734262e-46
0.474987        	-5.50166505e-03	3.49518833e-46
0.475796        	-5.50326517e-03	3.13007721e-46
0.476605        	-5.50482097e-03	2.92721965e-46
0.477414        	-5.50647341e-03	2.94878713e-46
0.478223        	-5.50816273e-03	2.92729832e-46
0.479031        	-5.51534011e-03	2.70899591e-46
0.479839        	-5.51803135e-03	2.63889119e-46
0.480646        	-5.52089816e-03	2.70165660e-46
0.481454        	-5.52165726e-03	5.11471254e-48
0.482262        	-5.52365079e-03	2.81289092e-46
0.48307         	-5.52551989e-03	2.75964956e-46
0.483877        	-5.52729254e-03	2.73528475e-46
0.484685        	-5.52914799e-03	2.71281909e-46
0.485493        	-5.53107743e-03	2.68132029e-46
0.486299        	-5.53854742e-03	2.59338780e-46
0.487106        	-5.54152984e-03	2.78910780e-46
0.487912        	-5.54415887e-03	2.68230110e-46
0.488718        	-5.54610148e-03	2.59512476e-46
0.489525        	-5.54794771e-03	2.61309271e-46
0.490331        	-5.54992762e-03	2.58066003e-46
0.491138        	-5.55199702e-03	2.55618343e-46
0.491944        	-5.55412140e-03	2.53896606e-46
0.492751        	-5.55629575e-03	2.52683610e-46
0.493557        	-5.55851757e-03	2.51723966e-46
0.494362        	-5.56633653e-03	2.51263029e-46
0.495167        	-5.56965468e-03	2.56623786e-46
0.495973        	-5.57255575e-03	2.48549455e-46
0.496778        	-5.57476200e-03	2.48100413e-46
0.497583        	-5.57687355e-03	2.46716210e-46
0.498388        	-5.57911093e-03	2.45990857e-46
0.499193        	-5.58143147e-03	2.45900707e-46
0.499998        	-5.58379972e-03	2.45663187e-46
0.500803        	-5.58621380e-03	2.45362897e-46
0.501607        	-5.59427960e-03	2.44295897e-46
0.502411        	-5.59783210e-03	2.48233125e-46
0.503215        	-5.60090452e-03	2.44838185e-46
0.504019        	-5.60327947e-03	2.43910405e-46
0.504823        	-5.60555778e-03	2.43883285e-46
0.505627        	-5.60795417e-03	2.44815092e-46
0.50643         	-5.61042697e-03	2.43659019e-46
0.507234        	-5.61294342e-03	2.43950048e-46
0.508038        	-5.61548685e-03	2.45658670e-46
0.508842        	-5.61806316e-03	2.46674150e-46
0.509645        	-5.62635231e-03	2.40491623e-46
0.510447        	-5.63008940e-03	1.96959136e-46
0.51125         	-5.63328632e-03	2.51095095e-46
0.512052        	-5.63575948e-03	2.54393474e-46
0.512855        	-5.63813078e-03	2.57561875e-46
0.513657        	-5.64061094e-03	2.59501744e-46
0.51446         	-5.64315149e-03	2.60301396e-46
0.515262        	-5.64572075e-03	2.61468711e-46
0.516065        	-5.64831283e-03	2.63039084e-46
0.516867        	-5.65092343e-03	2.65725284e-46
0.517669        	-5.65930441e-03	2.51643449e-46
0.51847         	-5.66309875e-03	2.67787351e-46
0.519271        	-5.66628787e-03	2.67440502e-46
0.520072        	-5.66873426e-03	2.71585432e-46
0.520874        	-5.67107361e-03	2.76771232e-46
0.521675        	-5.67350690e-03	2.81042908e-46
0.522476        	-5.67599031e-03	2.83741307e-46
0.523277        	-5.67849130e-03	2.87772330e-46
0.524078        	-5.68100317e-03	2.89123747e-46
0.52488         	-5.68352204e-03	2.89607543e-46
0.525679        	-5.69187580e-03	2.80967511e-46
0.526479        	-5.69561414e-03	2.80097464e-46
0.527279        	-5.69866586e-03	2.86335628e-46
0.528079        	-5.70097023e-03	3.06769967e-46
0.528879        	-5.70315937e-03	3.09481184e-46
0.529679        	-5.70543214e-03	3.09525460e-46
0.530479        	-5.70774431e-03	3.12478461e-46
0.531279        	-5.71006343e-03	3.20485450e-46
0.532078        	-5.71238351e-03	3.22063501e-46
0.532878        	-5.71470075e-03	3.25156261e-46