/*--------------------------------*- C++ -*----------------------------------*\
| =========                 |                                                 |
| \\      /  F ield         | OpenFOAM: The Open Source CFD Toolbox           |
|  \\    /   O peration     | Version:  2206                                  |
|   \\  /    A nd           | Website:  www.openfoam.com                      |
|    \\/     M anipulation  |                                                 |
\*---------------------------------------------------------------------------*/
FoamFile
{
    version     2.0;
    format      ascii;
    arch        "LSB;label=32;scalar=64";
    class       volScalarField;
    location    "1300";
    object      k;
}
// * * * * * * * * * * * * * * * * * * * * * * * * * * * * * * * * * * * * * //

dimensions      [0 2 -2 0 0 0 0];

internalField   nonuniform List<scalar> 
7480
(
0.011445344
0.014109723
0.011691246
0.0076600074
0.0045418622
0.0027811594
0.001936941
0.0015258488
0.0012980601
0.0011497583
0.0010352065
0.00093696416
0.00085137281
0.0007773211
0.00071311233
0.00065716579
0.00060830301
0.00056538196
0.00052720449
0.00049299224
0.00046227408
0.00043454171
0.00040932867
0.00038634046
0.0003653437
0.00034608614
0.00032834376
0.00031197399
0.00029686401
0.00028288488
0.00026992435
0.00025790918
0.00024677489
0.00023644951
0.00022687269
0.0002180035
0.00020980448
0.00020223897
0.00019528219
0.00018892182
0.00018314741
0.00017794813
0.0001733244
0.00016927544
0.00016580825
0.00016300843
0.00016080425
0.0001593131
0.00015852248
0.00015840988
0.00015895254
0.00016012155
0.00016185544
0.00016404173
0.00016657031
0.00016936517
0.00017225908
0.00017500362
0.00017735727
0.00017913975
0.000180339
0.00018096047
0.00018105893
0.00018071153
0.00018001555
0.00017905922
0.00017792031
0.00017666097
0.00017532577
0.00017394779
0.00017255216
0.00017115368
0.00016976181
0.00016838653
0.00016703032
0.00016569455
0.00016437974
0.00016303163
0.00016165475
0.00016026541
0.00015887021
0.00015747244
0.00015606671
0.00015465093
0.00015322469
0.00015178774
0.00015034236
0.00014888916
0.00014743143
0.00014597028
0.00014450795
0.00014304542
0.00014158598
0.00014012154
0.00013867625
0.00013716234
0.00013584175
0.00013394044
0.00013286912
0.00012997072
0.0014157625
0.002566574
0.0028348743
0.0024742335
0.0020072831
0.0015609559
0.0011995735
0.00093133599
0.00073512685
0.00059094303
0.00048473594
0.00040599512
0.00034688444
0.00030176035
0.00026655838
0.00023844369
0.00021551131
0.00019645108
0.00018033445
0.00016653097
0.00015461511
0.0001442642
0.00013522401
0.00012730442
0.00012022323
0.00011384041
0.00010807031
0.00010286235
9.8183197e-05
9.4003775e-05
9.0301205e-05
8.7061582e-05
8.4274863e-05
8.1931854e-05
8.0027328e-05
7.856146e-05
7.7538507e-05
7.6970042e-05
7.6879271e-05
7.7301959e-05
7.8284775e-05
7.9885734e-05
8.217711e-05
8.5243843e-05
8.9191891e-05
9.4134389e-05
0.00010014556
0.00010729496
0.00011560392
0.00012506357
0.0001356409
0.0001473398
0.00015989784
0.00017301809
0.00018641222
0.00019964955
0.00021209139
0.00022315203
0.000232479
0.00024001203
0.00024590226
0.0002504114
0.00025380042
0.00025616347
0.00025772134
0.00025867303
0.00025917624
0.00025934754
0.00025927216
0.00025901216
0.00025861058
0.00025809391
0.00025748602
0.00025680525
0.00025605847
0.00025524673
0.00025435036
0.00025316436
0.00025177442
0.00025025131
0.00024861791
0.00024688072
0.0002450418
0.00024310823
0.00024108671
0.00023898733
0.00023682013
0.00023459517
0.00023232349
0.0002300141
0.00022767603
0.00022531728
0.00022294571
0.00022056599
0.00021818214
0.00021579263
0.00021343462
0.00021076297
0.00020884641
0.00020445469
0.00021000754
0.00055721236
0.00084139553
0.00095108594
0.00092903344
0.00084363991
0.0007562653
0.0006980727
0.00065935337
0.00062438513
0.00059317091
0.00056410872
0.00053581932
0.00050888909
0.00048358015
0.00045991742
0.00043796276
0.000417733
0.00039923114
0.00038246619
0.00036742701
0.00035407103
0.0003423506
0.00033220513
0.00032247369
0.00031328563
0.00030475592
0.00029701427
0.00029018826
0.00028439662
0.00027975814
0.00027639032
0.00027440244
0.00027390001
0.00027499348
0.00027779841
0.000282442
0.00028909208
0.00029797436
0.00030937488
0.00032363859
0.00034117541
0.00036246737
0.000388067
0.0004186394
0.00045479376
0.00049697503
0.00054543376
0.00060019356
0.00066108971
0.00072758585
0.00079924681
0.00087486571
0.00095271702
0.0010311189
0.001107526
0.0011784699
0.0012410104
0.0012936137
0.0013362806
0.0013700024
0.0013963488
0.0014161223
0.0014304344
0.0014405691
0.0014475685
0.0014522354
0.001455154
0.0014567497
0.0014573312
0.0014571089
0.001456212
0.0014547648
0.001452859
0.0014505284
0.001447774
0.0014444794
0.001439465
0.0014332912
0.0014263446
0.0014187386
0.0014105042
0.0014016588
0.0013922451
0.0013823028
0.0013718902
0.0013610626
0.0013498773
0.0013383944
0.0013266652
0.001314739
0.0013026621
0.0012904766
0.00127822
0.0012658866
0.0012535744
0.0012411757
0.0012276365
0.0012173914
0.0011948796
3.6612618e-05
0.00011641427
0.00022888928
0.0003289109
0.00038971035
0.00041116654
0.00040820605
0.00039506283
0.00038065682
0.00036979612
0.00036657173
0.00037470618
0.0003861936
0.00039600519
0.00040418172
0.00041046099
0.00041545081
0.00041965185
0.00042338342
0.000426906
0.00043043617
0.00043416181
0.00043823846
0.00044277399
0.00044760604
0.0004525487
0.00045764886
0.00046311966
0.0004692384
0.00047630633
0.00048464196
0.00049457756
0.00050645345
0.00052062012
0.00053744245
0.00055729734
0.00058060107
0.00060788454
0.00063980707
0.00067714541
0.00072078472
0.00077172247
0.00083107347
0.00090006397
0.00098008528
0.0010721678
0.0011767762
0.0012938874
0.0014230378
0.0015633317
0.0017133216
0.0018699389
0.0020313039
0.0021938599
0.0023542964
0.0025072522
0.0026462967
0.0027670142
0.0028679537
0.0029501264
0.0030160287
0.0030681222
0.0031080091
0.0031384525
0.0031617294
0.0031796064
0.0031934139
0.0032041113
0.0032123892
0.0032187451
0.0032235115
0.0032268912
0.0032291012
0.0032302911
0.003230509
0.0032297395
0.0032277889
0.0032223286
0.0032146691
0.0032054792
0.0031949223
0.0031830519
0.0031699128
0.0031555904
0.0031401689
0.00312376
0.0031064696
0.0030884056
0.0030696786
0.0030503863
0.0030306174
0.0030104628
0.0029899981
0.0029693049
0.0029483491
0.0029274122
0.0029059542
0.0028832222
0.002864644
0.0028272332
1.2523731e-05
2.757332e-05
5.8626414e-05
9.9475816e-05
0.00013898232
0.00016943198
0.00018921619
0.00020027336
0.00020549409
0.0002073597
0.00020803886
0.00020960045
0.00021296072
0.00021862213
0.00022751743
0.00024062738
0.00025527129
0.00027043666
0.00028570221
0.0003013323
0.00031747598
0.00033431709
0.0003519292
0.00037024414
0.00038898501
0.00040784578
0.00042730489
0.00044781153
0.00046969159
0.00049322335
0.00051868685
0.00054639385
0.00057670199
0.00061001636
0.00064678273
0.00068748296
0.00073271687
0.00078334418
0.00084040014
0.0009050259
0.00097846448
0.0010620678
0.0011572989
0.0012657287
0.0013890856
0.0015278151
0.001681499
0.0018494573
0.0020307446
0.0022240026
0.0024272222
0.0026371783
0.00284917
0.0030591901
0.0032641243
0.0034560148
0.0036271228
0.0037741268
0.0038972613
0.0039987445
0.0040812156
0.0041475219
0.0042006211
0.0042432946
0.0042779022
0.0043062981
0.0043298874
0.0043496958
0.0043664661
0.0043807347
0.004392855
0.004403046
0.0044115734
0.0044185971
0.0044241543
0.0044282028
0.0044305597
0.0044302571
0.0044274811
0.0044225278
0.0044155583
0.004406666
0.0043959408
0.0043835119
0.0043695146
0.0043541073
0.0043374399
0.0043196603
0.0043009166
0.0042813419
0.0042610519
0.0042401704
0.0042187942
0.0041970348
0.0041748507
0.004152628
0.0041295479
0.0041056565
0.0040847822
0.0040463381
9.3805736e-06
1.1752374e-05
1.8505498e-05
3.0346082e-05
4.5491471e-05
6.1121186e-05
7.5209657e-05
8.69376e-05
9.6289952e-05
0.00010358313
0.00010921488
0.00011369302
0.000117511
0.00012111929
0.00012502482
0.00012980174
0.00013572621
0.00014307383
0.00015227018
0.0001637638
0.00017687793
0.00019189386
0.00020809301
0.00022549679
0.00024418713
0.00026422153
0.0002858278
0.00030930837
0.00033499864
0.00036327746
0.00039456385
0.00042931635
0.00046803641
0.00051126086
0.00055957437
0.00061369281
0.0006746128
0.0007433583
0.0008209465
0.00090847008
0.0010071377
0.0011182792
0.0012433369
0.0013838833
0.001541591
0.001714678
0.0019011881
0.0021003198
0.0023114111
0.0025332804
0.0027638841
0.0029999067
0.0032365412
0.0034695205
0.0036956262
0.0039038605
0.0040873569
0.0042458703
0.0043809946
0.004495263
0.0045916948
0.0046729917
0.0047415819
0.0047997514
0.0048495397
0.0048925871
0.004930184
0.0049633207
0.0049927339
0.0050189657
0.0050423708
0.0050631744
0.0050817096
0.0050981341
0.0051124674
0.0051246451
0.0051345237
0.0051414504
0.0051453816
0.0051465028
0.0051449911
0.0051409877
0.0051346345
0.0051261075
0.0051155932
0.0051032947
0.0050894021
0.0050740989
0.0050575661
0.0050399683
0.0050214422
0.0050021402
0.0049821758
0.0049616826
0.0049406248
0.0049194388
0.0048971776
0.0048744706
0.004853766
0.0048171179
8.9899182e-06
9.2310567e-06
1.0392005e-05
1.3066588e-05
1.735274e-05
2.2792269e-05
2.8762214e-05
3.479503e-05
4.0620775e-05
4.6098121e-05
5.1144216e-05
5.5727901e-05
5.9867938e-05
6.3620127e-05
6.7088458e-05
7.042963e-05
7.3809342e-05
7.7402096e-05
8.1420196e-05
8.6120203e-05
9.1688838e-05
9.8402071e-05
0.00010649991
0.0001161898
0.00012734386
0.00014016886
0.00015491282
0.00017142599
0.0001897352
0.00021020796
0.00023328271
0.00025947969
0.00028940991
0.00032375688
0.00036328714
0.0004089114
0.00046180831
0.00052344911
0.00059537672
0.00067924326
0.00077679639
0.00088986033
0.00102032
0.001170177
0.0013415428
0.0015226584
0.0017159179
0.001924843
0.0021498848
0.0023894943
0.0026405581
0.0028983636
0.0031567913
0.0034118337
0.0036610076
0.0038826091
0.0040754653
0.0042465404
0.0043983498
0.0045329389
0.0046523655
0.0047581514
0.0048516722
0.0049345319
0.0050082975
0.0050742517
0.0051335383
0.0051871308
0.0052357811
0.0052800756
0.005320466
0.00535728
0.0053908147
0.0054212502
0.0054486187
0.0054728729
0.0054939284
0.0055113728
0.0055250914
0.0055352106
0.0055419332
0.0055454609
0.0055460011
0.0055437883
0.0055390697
0.0055321009
0.005523119
0.0055123498
0.0055000154
0.0054863176
0.005471434
0.0054555361
0.0054387559
0.0054212497
0.0054030028
0.0053844652
0.0053646981
0.0053446014
0.0053258197
0.0052923034
8.9408879e-06
8.8619395e-06
8.9454084e-06
9.3734755e-06
1.0288335e-05
1.1705363e-05
1.3541439e-05
1.5693147e-05
1.8076775e-05
2.062642e-05
2.3280441e-05
2.5980301e-05
2.867587e-05
3.1326561e-05
3.3908023e-05
3.6418213e-05
3.8874441e-05
4.1309526e-05
4.3775987e-05
4.6349623e-05
4.9117696e-05
5.2189421e-05
5.5692798e-05
5.9773644e-05
6.4564254e-05
7.0242673e-05
7.7049203e-05
8.512977e-05
9.4549844e-05
0.00010554898
0.00011843552
0.0001335871
0.00015135306
0.00017185186
0.00019571682
0.00022371861
0.00025683145
0.00029630088
0.00034366206
0.00040074625
0.0004697193
0.00055309312
0.00065368433
0.00077453618
0.00091876966
0.0010825304
0.0012631099
0.0014615794
0.0016783066
0.0019124101
0.0021612561
0.002420158
0.0026829363
0.0029480615
0.0032140969
0.0034582388
0.0036786989
0.0038798719
0.0040626282
0.0042297775
0.0043831495
0.0045232091
0.0046506183
0.0047666769
0.0048725043
0.0049689625
0.0050571081
0.0051379032
0.0052120799
0.0052802934
0.0053431133
0.0054009641
0.0054541851
0.0055030058
0.0055474805
0.0055876062
0.0056233748
0.0056545946
0.0056811853
0.005703253
0.0057210195
0.00573474
0.0057446892
0.0057511658
0.0057544825
0.0057549533
0.005752868
0.0057485023
0.0057421282
0.0057339923
0.0057243118
0.0057132914
0.0057010909
0.0056878946
0.0056737217
0.0056590164
0.0056429367
0.005626438
0.0056108024
0.0055810511
8.9328904e-06
8.8092452e-06
8.7106663e-06
8.6774765e-06
8.7584704e-06
8.98732e-06
9.3744917e-06
9.9172963e-06
1.0610742e-05
1.1449723e-05
1.242618e-05
1.3526943e-05
1.4735342e-05
1.6031904e-05
1.7396907e-05
1.8813576e-05
2.0269757e-05
2.175797e-05
2.3277478e-05
2.4836551e-05
2.6452033e-05
2.8150246e-05
2.9968582e-05
3.195665e-05
3.4173067e-05
3.6690543e-05
3.9603638e-05
4.3016705e-05
4.7038952e-05
5.1814894e-05
5.7538796e-05
6.4400476e-05
7.2615378e-05
8.2426777e-05
9.4180555e-05
0.00010832024
0.00012542398
0.00014624343
0.000171472
0.00020216233
0.00023988232
0.00028663872
0.00034497708
0.00041807888
0.00050985793
0.00062312263
0.00075701487
0.00091181093
0.0010885426
0.0012875535
0.0015078775
0.0017466471
0.0019991415
0.0022629823
0.0025354894
0.0028006061
0.0030436449
0.0032703713
0.0034831512
0.0036835619
0.0038726849
0.0040492302
0.0042133152
0.0043663075
0.0045085902
0.0046403597
0.0047625934
0.0048760509
0.0049812282
0.0050788118
0.0051694233
0.0052535087
0.0053314221
0.0054034362
0.0054695818
0.0055299026
0.0055844809
0.0056333067
0.0056763896
0.0057138589
0.0057459572
0.0057729807
0.0057952662
0.0058131765
0.0058270921
0.0058373907
0.0058444209
0.0058485174
0.0058500131
0.0058492092
0.0058463736
0.0058417546
0.0058355502
0.005827981
0.0058191124
0.0058093775
0.0057980831
0.0057861266
0.0057746921
0.0057492647
8.9301939e-06
8.8000276e-06
8.6732941e-06
8.5571775e-06
8.463332e-06
8.4039865e-06
8.3886379e-06
8.4242275e-06
8.5168712e-06
8.6725237e-06
8.8963609e-06
9.1917174e-06
9.5600125e-06
1.0000487e-05
1.0510617e-05
1.1086739e-05
1.1724457e-05
1.241911e-05
1.3166677e-05
1.3964722e-05
1.4812959e-05
1.571379e-05
1.6673486e-05
1.7703305e-05
1.88196e-05
2.0044651e-05
2.1408772e-05
2.2950423e-05
2.4716039e-05
2.6763747e-05
2.9169021e-05
3.2023468e-05
3.5439454e-05
3.9555771e-05
4.4554495e-05
5.0629971e-05
5.8057049e-05
6.7203856e-05
7.8500216e-05
9.2509003e-05
0.00011001617
0.00013208772
0.00016015746
0.00019613957
0.00024247464
0.00030212187
0.00037783282
0.00047158974
0.00058582419
0.00072280452
0.00088422071
0.0010705908
0.0012806992
0.0015124896
0.0017633112
0.0020239886
0.0022816585
0.0025302918
0.0027637158
0.0029864344
0.003200454
0.0034057289
0.0036020598
0.0037897131
0.0039677658
0.0041351148
0.0042929601
0.0044415031
0.0045807285
0.0047113229
0.0048337325
0.0049482786
0.005055255
0.0051549628
0.005247238
0.0053321326
0.0054098177
0.0054803865
0.0055439261
0.0056006167
0.0056507204
0.0056945568
0.0057325122
0.0057650017
0.0057924646
0.005815345
0.0058340517
0.0058489842
0.0058605434
0.0058690946
0.005874968
0.0058784675
0.0058798413
0.0058793569
0.0058771376
0.0058736105
0.0058682585
0.0058618781
0.0058556991
0.0058352801
8.9286011e-06
8.7969563e-06
8.6657306e-06
8.5359174e-06
8.4097302e-06
8.2901894e-06
8.1805316e-06
8.0839962e-06
8.0039949e-06
7.9442212e-06
7.9085227e-06
7.9006506e-06
7.9240835e-06
7.9818197e-06
8.0763064e-06
8.2094305e-06
8.3824628e-06
8.5960933e-06
8.8506001e-06
9.1460848e-06
9.4826973e-06
9.8609089e-06
1.0281825e-05
1.0747643e-05
1.1262055e-05
1.1830719e-05
1.2461927e-05
1.3167286e-05
1.3962194e-05
1.4866764e-05
1.590742e-05
1.7117911e-05
1.8541124e-05
2.0231469e-05
2.2259348e-05
2.4711606e-05
2.7701999e-05
3.1383439e-05
3.5953476e-05
4.1648902e-05
4.8806925e-05
5.7889709e-05
6.9534472e-05
8.4622187e-05
0.00010435325
0.00013035276
0.00016465607
0.00020948072
0.0002674379
0.00034148061
0.00043476621
0.00055034621
0.00069066442
0.00085726044
0.0010506464
0.0012681281
0.0015025427
0.0017456188
0.0019880041
0.002227001
0.0024575269
0.0026784207
0.0028931991
0.0031024523
0.0033056707
0.003501905
0.0036911046
0.0038723343
0.0040444135
0.0042081668
0.0043635111
0.0045105503
0.0046493008
0.0047796245
0.0049012408
0.0050142234
0.0051187377
0.0052148464
0.0053026538
0.0053823615
0.0054542145
0.0055185218
0.0055756891
0.0056261499
0.0056703713
0.0057088582
0.005742079
0.0057704934
0.0057945692
0.0058147382
0.005831402
0.0058449301
0.0058556373
0.0058638473
0.0058697539
0.0058737901
0.0058756285
0.0058759612
0.0058761429
0.0058615683
8.9276006e-06
8.7952752e-06
8.6629998e-06
8.5308183e-06
8.3990641e-06
8.2683131e-06
8.1393605e-06
8.0131962e-06
7.8910116e-06
7.7742085e-06
7.6643793e-06
7.5632714e-06
7.4727521e-06
7.3947526e-06
7.3312135e-06
7.2840493e-06
7.2551044e-06
7.2460967e-06
7.2586015e-06
7.2940636e-06
7.3538195e-06
7.4391454e-06
7.5512982e-06
7.6916373e-06
7.8617676e-06
8.0637002e-06
8.3001469e-06
8.5748485e-06
8.8928116e-06
9.2606151e-06
9.6869314e-06
1.0183183e-05
1.0764293e-05
1.144956e-05
1.2264114e-05
1.3240269e-05
1.4419918e-05
1.5858535e-05
1.7629314e-05
1.982659e-05
2.2577861e-05
2.6058922e-05
3.0512425e-05
3.6270472e-05
4.3808593e-05
5.3798882e-05
6.7168579e-05
8.5125817e-05
0.00010923955
0.00014151687
0.00018446297
0.00024108285
0.00031476619
0.00040906768
0.00052742151
0.00067222616
0.00084341845
0.0010381328
0.0012503808
0.0014744839
0.0017033182
0.0019316401
0.0021584604
0.0023800175
0.0025943441
0.0028048321
0.0030115966
0.0032142479
0.0034115037
0.0036030518
0.0037877111
0.0039647676
0.0041341789
0.0042951315
0.0044470508
0.0045899397
0.0047237314
0.0048482639
0.0049635335
0.0050696525
0.0051667647
0.0052551026
0.0053350321
0.0054069438
0.0054712902
0.0055286104
0.0055794033
0.0056241757
0.0056634558
0.0056977364
0.0057274946
0.0057531722
0.0057751603
0.0057938513
0.005809521
0.0058226244
0.00583303
0.0058413412
0.0058490853
0.0058413603
8.9270502e-06
8.7943454e-06
8.661667e-06
8.5289578e-06
8.3962442e-06
8.2636004e-06
8.1311847e-06
7.9992579e-06
7.8681814e-06
7.7384077e-06
7.6104734e-06
7.4850006e-06
7.3627025e-06
7.2443837e-06
7.1309329e-06
7.0233172e-06
6.9225723e-06
6.8297842e-06
6.7460737e-06
6.6725863e-06
6.6104793e-06
6.560913e-06
6.5250548e-06
6.5040925e-06
6.4992522e-06
6.5118288e-06
6.5432679e-06
6.5952767e-06
6.6699102e-06
6.7696537e-06
6.8976414e-06
7.0578984e-06
7.2555922e-06
7.4974683e-06
7.792376e-06
8.1516687e-06
8.5900553e-06
9.1268652e-06
9.7876446e-06
1.0605889e-05
1.1626303e-05
1.2909844e-05
1.4540359e-05
1.6633985e-05
1.9355766e-05
2.2943342e-05
2.7736197e-05
3.420741e-05
4.3020666e-05
5.5094993e-05
7.1690303e-05
9.4505273e-05
0.00012577106
0.00016831014
0.00022553654
0.00030124164
0.0003989706
0.00052118795
0.00066826341
0.00083864012
0.0010284149
0.0012324347
0.0014464652
0.0016650327
0.0018836667
0.0021020913
0.0023176926
0.0025280481
0.0027359886
0.0029415232
0.0031443157
0.0033425854
0.0035358487
0.0037231554
0.0039026385
0.0040741521
0.0042371819
0.0043910529
0.004535426
0.0046701549
0.0047951515
0.0049104312
0.0050162216
0.0051127798
0.0052004733
0.0052798252
0.0053513024
0.0054154248
0.0054727595
0.0055238374
0.0055692048
0.0056093709
0.0056448045
0.0056759745
0.0057032458
0.0057271082
0.0057476286
0.0057653437
0.0057819928
0.0057823195
8.9267414e-06
8.7938056e-06
8.6609278e-06
8.5280658e-06
8.3952096e-06
8.2623518e-06
8.1295171e-06
7.9967816e-06
7.8642689e-06
7.7321388e-06
7.6005777e-06
7.4697992e-06
7.3400507e-06
7.2116206e-06
7.0848423e-06
6.9600983e-06
6.8378229e-06
6.7185023e-06
6.6026736e-06
6.4909237e-06
6.3838865e-06
6.2822384e-06
6.1866966e-06
6.0980189e-06
6.0170032e-06
5.9444883e-06
5.881369e-06
5.8286181e-06
5.7873087e-06
5.7586466e-06
5.7440318e-06
5.7451325e-06
5.7639635e-06
5.803039e-06
5.8655695e-06
5.9556014e-06
6.0782854e-06
6.2402948e-06
6.4503929e-06
6.7201773e-06
7.0649519e-06
7.5051408e-06
8.0685261e-06
8.7933206e-06
9.7331216e-06
1.0964805e-05
1.2599496e-05
1.4797178e-05
1.7789395e-05
2.1911632e-05
2.7648108e-05
3.5693729e-05
4.7045347e-05
6.310663e-05
8.5809113e-05
0.0001177102
0.00016197366
0.00022212904
0.0003015468
0.00040287548
0.0005273245
0.00067430521
0.00084189944
0.0010265427
0.0012236995
0.0014300078
0.0016412554
0.0018531894
0.0020658814
0.0022773716
0.002485334
0.0026913574
0.002895663
0.0030979264
0.0032963479
0.0034899851
0.0036779443
0.003858274
0.0040301589
0.0041931551
0.0043466662
0.0044902022
0.004623751
0.0047472759
0.0048609181
0.0049651025
0.0050601439
0.0051465093
0.0052247557
0.0052954005
0.0053590342
0.0054162068
0.0054674517
0.0055133112
0.0055542351
0.0055907561
0.0056231354
0.0056518629
0.005678933
0.0056887286
8.9265627e-06
8.7934404e-06
8.6604047e-06
8.5274434e-06
8.3945548e-06
8.261728e-06
8.1289666e-06
7.9963043e-06
7.8638029e-06
7.7315422e-06
7.5996104e-06
7.468101e-06
7.337116e-06
7.2067695e-06
7.0771911e-06
6.948529e-06
6.8209532e-06
6.6946579e-06
6.5698645e-06
6.446823e-06
6.3258145e-06
6.2071522e-06
6.0911819e-06
5.978284e-06
5.8688739e-06
5.7634022e-06
5.662358e-06
5.5662727e-06
5.4757253e-06
5.3913496e-06
5.3138506e-06
5.2440248e-06
5.1827818e-06
5.1311843e-06
5.0905078e-06
5.062307e-06
5.0484953e-06
5.0514664e-06
5.0742795e-06
5.1209353e-06
5.1966198e-06
5.3081153e-06
5.4645008e-06
5.6781138e-06
5.9661375e-06
6.3526812e-06
6.8721939e-06
7.5745874e-06
8.5328378e-06
9.854594e-06
1.1699684e-05
1.4305829e-05
1.8028973e-05
2.34019e-05
3.1215559e-05
4.2623194e-05
5.9264107e-05
8.3340056e-05
0.0001175978
0.00016516466
0.0002291966
0.0003124075
0.00041668571
0.00054260765
0.00068918795
0.00085448761
0.0010354136
0.0012278696
0.0014290449
0.0016354831
0.0018431777
0.0020521431
0.0022604831
0.0024657696
0.0026701456
0.0028735887
0.0030752056
0.0032731009
0.0034661417
0.0036532696
0.0038325527
0.0040027999
0.0041638275
0.0043149199
0.004455771
0.0045866291
0.0047074121
0.0048184383
0.0049201703
0.0050130101
0.0050975424
0.0051742978
0.0052438389
0.0053067599
0.0053635726
0.0054148498
0.0054610319
0.0055025731
0.005541778
0.0055626929
8.9264935e-06
8.7932061e-06
8.6600164e-06
8.5269389e-06
8.3939873e-06
8.2611615e-06
8.1284673e-06
7.9959306e-06
7.8635966e-06
7.7315225e-06
7.5997703e-06
7.4684021e-06
7.337481e-06
7.2070725e-06
7.0772461e-06
6.948076e-06
6.8196431e-06
6.6920361e-06
6.5653533e-06
6.4397041e-06
6.3152106e-06
6.1920093e-06
6.0702529e-06
5.9501117e-06
5.8317755e-06
5.7154548e-06
5.6013829e-06
5.4898178e-06
5.3810442e-06
5.2753762e-06
5.1731613e-06
5.0747869e-06
4.9806862e-06
4.8913481e-06
4.8073341e-06
4.7292991e-06
4.658016e-06
4.5944111e-06
4.539619e-06
4.4950595e-06
4.4625291e-06
4.4443255e-06
4.4434521e-06
4.4638948e-06
4.5110991e-06
4.5925466e-06
4.718727e-06
4.9046942e-06
5.1725078e-06
5.5547956e-06
6.1000734e-06
6.8816057e-06
8.0112686e-06
9.6614272e-06
1.2098873e-05
1.5735533e-05
2.1202675e-05
2.9442773e-05
4.18068e-05
6.0120266e-05
8.6698127e-05
0.00012425329
0.00017569417
0.00024379227
0.00033076135
0.00043799967
0.0005657624
0.00071288834
0.00087747589
0.0010567423
0.0012468851
0.0014453778
0.0016488697
0.0018536199
0.0020600466
0.0022658385
0.0024694041
0.0026722545
0.0028748368
0.0030752462
0.0032716223
0.0034627864
0.0036476694
0.0038239404
0.0039908289
0.0041483939
0.0042956238
0.0044326457
0.0045596793
0.0046768111
0.0047845486
0.0048832837
0.004973546
0.005055932
0.0051309621
0.0051992312
0.0052613246
0.005317657
0.0053709134
0.0054048388
8.9265293e-06
8.7931024e-06
8.6597702e-06
8.5265675e-06
8.3935219e-06
8.260645e-06
8.1279501e-06
7.9954634e-06
7.8632253e-06
7.7312856e-06
7.5996983e-06
7.4685173e-06
7.3377965e-06
7.2075899e-06
7.0779518e-06
6.9489375e-06
6.8206033e-06
6.6930072e-06
6.5662093e-06
6.4402725e-06
6.3152632e-06
6.1912521e-06
6.0683152e-06
5.9465346e-06
5.8260001e-06
5.7068098e-06
5.5890716e-06
5.4729047e-06
5.3584408e-06
5.2458257e-06
5.1352213e-06
5.0268076e-06
4.9207855e-06
4.8173797e-06
4.7168436e-06
4.6194653e-06
4.5255757e-06
4.435558e-06
4.3498636e-06
4.2690338e-06
4.1937274e-06
4.124758e-06
4.0631525e-06
4.0102329e-06
3.9677353e-06
3.9379937e-06
3.9242192e-06
3.930921e-06
3.964622e-06
4.0348967e-06
4.1558902e-06
4.3489913e-06
4.6471719e-06
5.1018052e-06
5.7934881e-06
6.8502735e-06
8.4761621e-06
1.099389e-05
1.4904529e-05
2.0960122e-05
3.0245866e-05
4.4258889e-05
6.4932455e-05
9.4613837e-05
0.00013593473
0.0001916054
0.00026411612
0.00035534897
0.00046637777
0.00059722765
0.00074657413
0.00091247714
0.0010921289
0.0012818388
0.0014794076
0.0016810901
0.0018841924
0.0020890361
0.0022926468
0.0024946784
0.0026960373
0.0028972396
0.0030955666
0.0032893683
0.0034774157
0.0036587701
0.0038305
0.0039928697
0.0041455295
0.004287888
0.0044203247
0.0045428575
0.0046558948
0.0047599381
0.0048554197
0.0049429187
0.0050230983
0.0050963126
0.005165702
0.0052147534
8.9266618e-06
8.7931229e-06
8.6596687e-06
8.526348e-06
8.3931992e-06
8.2602442e-06
8.1275038e-06
7.9950067e-06
7.8627921e-06
7.7309064e-06
7.5994003e-06
7.4683253e-06
7.3377329e-06
7.2076745e-06
7.0782017e-06
6.9493657e-06
6.8212175e-06
6.6938081e-06
6.567188e-06
6.4414078e-06
6.3165182e-06
6.1925703e-06
6.0696157e-06
5.947707e-06
5.8268982e-06
5.7072455e-06
5.5888076e-06
5.4716465e-06
5.3558283e-06
5.2414244e-06
5.1285117e-06
5.0171745e-06
4.9075052e-06
4.7996063e-06
4.6935912e-06
4.5895872e-06
4.487738e-06
4.3882064e-06
4.2911792e-06
4.1968735e-06
4.1055443e-06
4.0174959e-06
3.9330977e-06
3.8528076e-06
3.7772044e-06
3.7070379e-06
3.6433092e-06
3.5873856e-06
3.5411892e-06
3.5074896e-06
3.4903492e-06
3.4958511e-06
3.5333423e-06
3.6174018e-06
3.7709692e-06
4.0309009e-06
4.4573446e-06
5.147723e-06
6.2598166e-06
8.0447421e-06
1.089363e-05
1.5400578e-05
2.2432567e-05
3.3202937e-05
4.9329896e-05
7.2839242e-05
0.00010610845
0.00015172929
0.00021228626
0.00029007887
0.00038672851
0.00050301793
0.00063864776
0.00079200303
0.00096104321
0.0011426404
0.0013334202
0.0015314115
0.0017320055
0.0019341017
0.0021374315
0.0023389471
0.0025390782
0.0027392065
0.002938092
0.0031333646
0.0033235652
0.0035075379
0.0036835955
0.0038499709
0.0040070404
0.0041539625
0.004290953
0.0044182352
0.004535991
0.0046447202
0.0047450382
0.0048372058
0.0049248592
0.0049913158
8.9268789e-06
8.7932538e-06
8.6597005e-06
8.5262772e-06
8.3930303e-06
8.2599907e-06
8.1271852e-06
7.9946462e-06
7.8624125e-06
7.7305292e-06
7.5990448e-06
7.4680094e-06
7.3374738e-06
7.2074886e-06
7.078105e-06
6.9493737e-06
6.821345e-06
6.6940687e-06
6.5675937e-06
6.4419684e-06
6.3172401e-06
6.1934553e-06
6.0706595e-06
5.9488976e-06
5.8282136e-06
5.7086507e-06
5.5902522e-06
5.4730607e-06
5.3571195e-06
5.2424722e-06
5.1291633e-06
5.0172391e-06
4.9067478e-06
4.7977405e-06
4.6902715e-06
4.5844e-06
4.4801904e-06
4.3777139e-06
4.2770497e-06
4.1782876e-06
4.0815297e-06
3.9868942e-06
3.8945196e-06
3.8045715e-06
3.7172515e-06
3.6328104e-06
3.5515706e-06
3.4739576e-06
3.4005494e-06
3.3321557e-06
3.2699407e-06
3.2156189e-06
3.1717834e-06
3.142447e-06
3.1339274e-06
3.1563734e-06
3.2264964e-06
3.3716834e-06
3.6372615e-06
4.0979505e-06
4.8750142e-06
6.1628186e-06
8.2660608e-06
1.1650727e-05
1.7008159e-05
2.5325023e-05
3.7949526e-05
5.6640164e-05
8.3535741e-05
0.0001210919
0.00017190989
0.00023849447
0.00032295784
0.00042661204
0.00054988489
0.00069197985
0.00085095829
0.0010246419
0.0012092969
0.0014020463
0.0016006981
0.0018004784
0.0020016255
0.0022025832
0.0024021672
0.0026000936
0.0027986301
0.0029944558
0.0031859321
0.0033716715
0.0035507113
0.0037203908
0.0038808455
0.0040317074
0.0041726369
0.00430397
0.0044260392
0.0045389801
0.0046468514
0.0047330333
8.927168e-06
8.7934787e-06
8.6598475e-06
8.5263388e-06
8.3930053e-06
8.2598845e-06
8.1270094e-06
7.9944154e-06
7.8621423e-06
7.7302342e-06
7.5987385e-06
7.4677043e-06
7.3371816e-06
7.2072208e-06
7.0778728e-06
6.9491881e-06
6.8212172e-06
6.6940097e-06
6.5676147e-06
6.4420804e-06
6.3174538e-06
6.1937809e-06
6.0711063e-06
5.9494732e-06
5.8289238e-06
5.7094984e-06
5.5912363e-06
5.4741754e-06
5.3583521e-06
5.2438019e-06
5.1305592e-06
5.0186576e-06
4.9081299e-06
4.799009e-06
4.6913273e-06
4.585118e-06
4.4804148e-06
4.3772531e-06
4.2756698e-06
4.1757049e-06
4.0774015e-06
3.9808078e-06
3.8859775e-06
3.7929725e-06
3.7018652e-06
3.612742e-06
3.5257095e-06
3.4409032e-06
3.3585004e-06
3.2787415e-06
3.2019624e-06
3.1286466e-06
3.0595103e-06
2.9956449e-06
2.9387529e-06
2.8915532e-06
2.8584982e-06
2.8469421e-06
2.8691968e-06
2.9459409e-06
3.1115893e-06
3.4231243e-06
3.9740292e-06
4.9143697e-06
6.4811528e-06
9.0404994e-06
1.3144146e-05
1.9598695e-05
2.9534566e-05
4.4470197e-05
6.6346222e-05
9.7455908e-05
0.00014037404
0.0001977221
0.00027191284
0.00036478567
0.00047724079
0.00060924895
0.00075930216
0.00092510678
0.0011041308
0.0012922514
0.0014871867
0.0016852966
0.0018845146
0.0020844491
0.002282862
0.0024799692
0.0026766026
0.0028721306
0.0030640787
0.0032509276
0.0034315831
0.0036042103
0.0037674723
0.0039215463
0.0040660219
0.0042009207
0.0043304389
0.0044384674
8.9275178e-06
8.7937818e-06
8.6600908e-06
8.526513e-06
8.3931053e-06
8.2599112e-06
8.1269687e-06
7.9943163e-06
7.8619953e-06
7.7300496e-06
7.598526e-06
7.4674728e-06
7.3369395e-06
7.2069761e-06
7.0776331e-06
6.948961e-06
6.8210102e-06
6.6938304e-06
6.5674707e-06
6.4419794e-06
6.3174038e-06
6.1937898e-06
6.0711822e-06
5.9496244e-06
5.8291581e-06
5.7098238e-06
5.5916599e-06
5.4747035e-06
5.35899e-06
5.2445529e-06
5.1314241e-06
5.0196339e-06
4.9092112e-06
4.8001831e-06
4.6925755e-06
4.586413e-06
4.4817193e-06
4.3785171e-06
4.2768284e-06
4.1766752e-06
4.0780792e-06
3.9810627e-06
3.8856488e-06
3.7918621e-06
3.6997298e-06
3.6092821e-06
3.5205546e-06
3.4335901e-06
3.3484428e-06
3.2651834e-06
3.1839079e-06
3.1047511e-06
3.0279089e-06
2.9536742e-06
2.8824981e-06
2.8150933e-06
2.7526176e-06
2.6969799e-06
2.6513903e-06
2.6212765e-06
2.6158318e-06
2.6506395e-06
2.7520162e-06
2.9636186e-06
3.3570953e-06
4.048835e-06
5.2236322e-06
7.1709063e-06
1.0333751e-05
1.5373633e-05
2.3246441e-05
3.5270781e-05
5.3188827e-05
7.9164526e-05
0.00011569461
0.000165478
0.00023111782
0.00031485757
0.00041808577
0.00054111552
0.00068323713
0.00084216247
0.0010153309
0.001199232
0.001390628
0.0015872636
0.00178443
0.0019825971
0.002179861
0.0023759174
0.0025706859
0.0027653788
0.0029572183
0.0031447346
0.0033265486
0.0035013881
0.0036671361
0.003823909
0.0039754813
0.0041068309
8.9279179e-06
8.7941494e-06
8.6604134e-06
8.5267802e-06
8.3933103e-06
8.2600516e-06
8.1270467e-06
7.9943371e-06
7.8619657e-06
7.729977e-06
7.5984174e-06
7.467335e-06
7.3367787e-06
7.2067984e-06
7.0774441e-06
6.9487662e-06
6.8208148e-06
6.6936396e-06
6.5672897e-06
6.4418134e-06
6.317258e-06
6.1936696e-06
6.071093e-06
5.9495719e-06
5.8291481e-06
5.7098621e-06
5.5917527e-06
5.4748569e-06
5.35921e-06
5.2448456e-06
5.1317952e-06
5.0200887e-06
4.9097541e-06
4.8008174e-06
4.6933029e-06
4.5872332e-06
4.4826291e-06
4.3795097e-06
4.2778926e-06
4.1777941e-06
4.0792289e-06
3.9822108e-06
3.8867526e-06
3.7928662e-06
3.7005631e-06
3.609855e-06
3.5207536e-06
3.433272e-06
3.3474254e-06
3.2632328e-06
3.1807194e-06
3.0999197e-06