/*--------------------------------*- C++ -*----------------------------------*\
| =========                 |                                                 |
| \\      /  F ield         | OpenFOAM: The Open Source CFD Toolbox           |
|  \\    /   O peration     | Version:  2206                                  |
|   \\  /    A nd           | Website:  www.openfoam.com                      |
|    \\/     M anipulation  |                                                 |
\*---------------------------------------------------------------------------*/
FoamFile
{
    version     2.0;
    format      ascii;
    arch        "LSB;label=32;scalar=64";
    class       volScalarField;
    location    "1300";
    object      nut;
}
// * * * * * * * * * * * * * * * * * * * * * * * * * * * * * * * * * * * * * //

dimensions      [0 2 -1 0 0 0 0];

internalField   nonuniform List<scalar> 
7480
(
1.512113e-06
1.8587888e-06
1.5441913e-06
1.0161646e-06
6.0456879e-07
3.7091641e-07
2.5856498e-07
2.0377993e-07
1.7340184e-07
1.53616e-07
1.3832853e-07
1.2521455e-07
1.1378699e-07
1.0389838e-07
9.5322851e-08
8.7849813e-08
8.1322229e-08
7.5587823e-08
7.0486718e-08
6.5915065e-08
6.1810019e-08
5.8103742e-08
5.4733961e-08
5.1661372e-08
4.8854823e-08
4.6280629e-08
4.3908877e-08
4.1720529e-08
3.9700522e-08
3.7831634e-08
3.6098874e-08
3.4492459e-08
3.3003779e-08
3.1623219e-08
3.0342717e-08
2.9156807e-08
2.8060487e-08
2.7048856e-08
2.6118608e-08
2.52681e-08
2.4495935e-08
2.3800668e-08
2.3182361e-08
2.2640908e-08
2.2177249e-08
2.1802835e-08
2.1508071e-08
2.130866e-08
2.1202931e-08
2.1187873e-08
2.1260443e-08
2.1416774e-08
2.1648647e-08
2.1941016e-08
2.2279159e-08
2.2652907e-08
2.3039899e-08
2.3406914e-08
2.3721656e-08
2.3960017e-08
2.4120385e-08
2.4203489e-08
2.4216656e-08
2.4170201e-08
2.4077132e-08
2.3949248e-08
2.3796948e-08
2.3628543e-08
2.3449994e-08
2.3265723e-08
2.3079092e-08
2.2892079e-08
2.2705949e-08
2.2522037e-08
2.2340674e-08
2.2162045e-08
2.1986218e-08
2.1805937e-08
2.1621809e-08
2.1436013e-08
2.1249433e-08
2.1062509e-08
2.087452e-08
2.0685187e-08
2.0494453e-08
2.0302287e-08
2.0108993e-08
1.9914653e-08
1.9719707e-08
1.9524302e-08
1.9328738e-08
1.9133148e-08
1.893797e-08
1.8742123e-08
1.8548837e-08
1.8346372e-08
1.8169761e-08
1.7915485e-08
1.777221e-08
1.7384583e-08
1.4111828e-06
1.6301793e-06
1.5385884e-06
1.288121e-06
1.0362506e-06
8.1135431e-07
6.4383273e-07
5.1803748e-07
4.2147165e-07
3.4679747e-07
2.8967861e-07
2.4640115e-07
2.1353582e-07
1.8823958e-07
1.6835863e-07
1.5236978e-07
1.3923266e-07
1.2821296e-07
1.1880763e-07
1.1068396e-07
1.036147e-07
9.7423552e-08
9.197658e-08
8.7175762e-08
8.2849493e-08
7.8917266e-08
7.5335458e-08
7.2082252e-08
6.9144347e-08
6.650991e-08
6.417137e-08
6.2126317e-08
6.0373544e-08
5.891192e-08
5.7742979e-08
5.6871462e-08
5.6304322e-08
5.6053642e-08
5.6139838e-08
5.6592131e-08
5.7447391e-08
5.8750795e-08
6.0557992e-08
6.293363e-08
6.5958115e-08
6.9716592e-08
7.4265317e-08
7.9656096e-08
8.5903891e-08
9.3001306e-08
1.0092001e-07
1.0965654e-07
1.1901953e-07
1.2878704e-07
1.3874458e-07
1.4857283e-07
1.5779953e-07
1.6599548e-07
1.7290672e-07
1.7849729e-07
1.8288353e-07
1.8626234e-07
1.8882177e-07
1.9063333e-07
1.9186126e-07
1.9265009e-07
1.9311382e-07
1.9333596e-07
1.9337749e-07
1.9328275e-07
1.9308237e-07
1.9279501e-07
1.9243785e-07
1.9202406e-07
1.9155833e-07
1.9104144e-07
1.9045818e-07
1.8965624e-07
1.8870017e-07
1.8764267e-07
1.8650076e-07
1.8527923e-07
1.8397959e-07
1.8260743e-07
1.8116775e-07
1.796682e-07
1.7811624e-07
1.7651937e-07
1.7488584e-07
1.7322229e-07
1.7153549e-07
1.6983137e-07
1.6811577e-07
1.6639237e-07
1.6466361e-07
1.6293052e-07
1.612164e-07
1.5926617e-07
1.578986e-07
1.546497e-07
1.1014392e-06
1.4048507e-06
1.4359189e-06
1.3410457e-06
1.2076931e-06
1.0741686e-06
9.6697648e-07
8.8451666e-07
8.20415e-07
7.6814594e-07
7.2396956e-07
6.7970241e-07
6.3738011e-07
6.0224314e-07
5.7250661e-07
5.4696063e-07
5.2492387e-07
5.0590525e-07
4.8954485e-07
4.756052e-07
4.6392252e-07
4.5435901e-07
4.4681656e-07
4.4121366e-07
4.336191e-07
4.2648688e-07
4.1998794e-07
4.1433129e-07
4.0972296e-07
4.0636116e-07
4.0445754e-07
4.0423218e-07
4.05898e-07
4.0966874e-07
4.157736e-07
4.2445356e-07
4.359701e-07
4.5065773e-07
4.6894951e-07
4.9137961e-07
5.1858119e-07
5.5130011e-07
5.9040874e-07
6.3690059e-07
6.9196061e-07
7.5669737e-07
8.3195433e-07
9.1824765e-07
1.0156896e-06
1.1240522e-06
1.2423426e-06
1.3697359e-06
1.5043206e-06
1.6431389e-06
1.7832668e-06
1.9203642e-06
2.0485256e-06
2.1626812e-06
2.2601012e-06
2.3406459e-06
2.4059485e-06
2.458724e-06
2.4999325e-06
2.5316591e-06
2.5561879e-06
2.5753059e-06
2.5903744e-06
2.602365e-06
2.611977e-06
2.6197129e-06
2.6259107e-06
2.6307702e-06
2.6344909e-06
2.6372205e-06
2.6390041e-06
2.6398408e-06
2.6395079e-06
2.635731e-06
2.6295972e-06
2.6218673e-06
2.6127742e-06
2.6023837e-06
2.5907313e-06
2.5779076e-06
2.5639902e-06
2.5490937e-06
2.5333229e-06
2.5167855e-06
2.4995946e-06
2.4818439e-06
2.4636272e-06
2.4450297e-06
2.4261289e-06
2.4070022e-06
2.3876204e-06
2.3682433e-06
2.3485192e-06
2.3265838e-06
2.3111975e-06
2.2731376e-06
5.0848779e-07
9.5920314e-07
1.1798583e-06
1.228528e-06
1.200475e-06
1.1429524e-06
1.0804545e-06
1.0214067e-06
9.6994129e-07
9.3014098e-07
9.0618854e-07
9.0240739e-07
9.058094e-07
8.5770172e-07
8.2198942e-07
7.9456416e-07
7.7454959e-07
7.6004388e-07
7.5002238e-07
7.4384997e-07
7.4112464e-07
7.4156092e-07
7.4499024e-07
7.5125451e-07
7.598238e-07
7.7018387e-07
7.8219924e-07
7.9608728e-07
8.1223857e-07
8.3113169e-07
8.5331608e-07
8.7940748e-07
9.1007873e-07
9.4606177e-07
9.8815477e-07
1.0372139e-06
1.0942078e-06
1.1604091e-06
1.2374085e-06
1.3271034e-06
1.4316928e-06
1.553698e-06
1.6959907e-06
1.861795e-06
2.0547279e-06
2.2780758e-06
2.5342605e-06
2.8247723e-06
3.150109e-06
3.5097195e-06
3.9016492e-06
4.3199701e-06
4.761347e-06
5.2180817e-06
5.6817231e-06
6.1406257e-06
6.5796742e-06
6.9849002e-06
7.3473698e-06
7.6641642e-06
7.9378255e-06
8.172239e-06
8.370047e-06
8.5382277e-06
8.6832085e-06
8.8102803e-06
8.9235917e-06
9.0261912e-06
9.1202583e-06
9.2073324e-06
9.2884436e-06
9.3641891e-06
9.4350837e-06
9.5015221e-06
9.5636064e-06
9.6212681e-06
9.6740266e-06
9.7002299e-06
9.7153754e-06
9.7242529e-06
9.7275862e-06
9.7256387e-06
9.7185766e-06
9.7067258e-06
9.6903888e-06
9.6699716e-06
9.6458508e-06
9.6184058e-06
9.5880299e-06
9.5550553e-06
9.5198027e-06
9.4825806e-06
9.4436548e-06
9.4033332e-06
9.3614647e-06
9.3192228e-06
9.2746125e-06
9.2241719e-06
9.1898467e-06
9.0977997e-06
2.250769e-07
4.2727624e-07
6.9866924e-07
8.9335312e-07
9.8973246e-07
1.0235608e-06
1.0250819e-06
1.0107934e-06
9.8916388e-07
9.6540015e-07
9.4381424e-07
9.2880792e-07
9.2205812e-07
9.2310216e-07
9.320613e-07
9.4903432e-07
9.6933338e-07
9.5333369e-07
9.2970093e-07
9.1684489e-07
9.1365081e-07
9.1847149e-07
9.3038875e-07
9.4877613e-07
9.7327424e-07
1.0037154e-06
1.0384375e-06
1.077495e-06
1.1214305e-06
1.1707766e-06
1.2261361e-06
1.2882433e-06
1.3580083e-06
1.4365528e-06
1.5252422e-06
1.6256903e-06
1.7395361e-06
1.8684114e-06
2.0150734e-06
2.1828522e-06
2.3755489e-06
2.5974376e-06
2.853301e-06
3.1484659e-06
3.488711e-06
3.878941e-06
4.3212016e-06
4.8166334e-06
5.3659511e-06
5.9690144e-06
6.6241405e-06
7.3263106e-06
8.0661639e-06
8.8340313e-06
9.6192321e-06
1.0407968e-05
1.1176449e-05
1.1901388e-05
1.2568173e-05
1.317074e-05
1.3707783e-05
1.4182017e-05
1.4599758e-05
1.49694e-05
1.529955e-05
1.5597872e-05
1.5870821e-05
1.6123468e-05
1.63596e-05
1.658198e-05
1.6792436e-05
1.6991925e-05
1.7181617e-05
1.7362276e-05
1.7534066e-05
1.7696791e-05
1.7849581e-05
1.7986648e-05
1.8107933e-05
1.8214958e-05
1.8308795e-05
1.8390044e-05
1.8459057e-05
1.8516406e-05
1.8562731e-05
1.8598841e-05
1.862556e-05
1.8643703e-05
1.8654134e-05
1.8657615e-05
1.8654806e-05
1.8646437e-05
1.8633153e-05
1.8615605e-05
1.8593844e-05
1.8569447e-05
1.8540977e-05
1.8499851e-05
1.8478836e-05
1.8402079e-05
1.7530542e-07
2.1588728e-07
3.1857368e-07
4.6495928e-07
6.0526639e-07
7.1035442e-07
7.7989421e-07
8.2293767e-07
8.4804886e-07
8.6130993e-07
8.6700721e-07
8.6872384e-07
8.6926138e-07
8.7065058e-07
8.7465173e-07
8.8294252e-07
8.9636401e-07
9.1555926e-07
9.4163372e-07
9.758495e-07
1.0156349e-06
1.0618167e-06
1.0570552e-06
1.0562527e-06
1.0670811e-06
1.0882308e-06
1.1196782e-06
1.1617308e-06
1.2148732e-06
1.2798122e-06
1.3575177e-06
1.4493192e-06
1.5571429e-06
1.6840161e-06
1.8350114e-06
2.0181615e-06
2.2359697e-06
2.4751927e-06
2.740805e-06
3.0384842e-06
3.3740225e-06
3.7535315e-06
4.1837564e-06
4.6725811e-06
5.2300152e-06
5.8553495e-06
6.5392646e-06
7.2796703e-06
8.0782948e-06
8.93628e-06
9.8526621e-06
1.0822873e-05
1.1837089e-05
1.2881913e-05
1.3946087e-05
1.4997501e-05
1.60053e-05
1.6954156e-05
1.7837705e-05
1.8655348e-05
1.9409178e-05
2.0102365e-05
2.0739605e-05
2.1327103e-05
2.1871499e-05
2.2379248e-05
2.2856456e-05
2.3308286e-05
2.3738769e-05
2.4151041e-05
2.4546188e-05
2.4923757e-05
2.5288572e-05
2.5641342e-05
2.5981863e-05
2.6309437e-05
2.6622373e-05
2.6918847e-05
2.7195653e-05
2.7451392e-05
2.7685979e-05
2.7899662e-05
2.8092662e-05
2.8265542e-05
2.8419083e-05
2.8554358e-05
2.8672552e-05
2.8774896e-05
2.8862737e-05
2.8937332e-05
2.899915e-05
2.9049929e-05
2.909093e-05
2.9123197e-05
2.9147198e-05
2.9164526e-05
2.9175588e-05
2.9165185e-05
2.917502e-05
2.9133592e-05
1.689059e-07
1.7480116e-07
1.9622614e-07
2.4159112e-07
3.0836298e-07
3.8393863e-07
4.5673101e-07
5.2096167e-07
5.7521525e-07
6.1996073e-07
6.562483e-07
6.8541337e-07
7.0892719e-07
7.2823975e-07
7.4480588e-07
7.601029e-07
7.754675e-07
7.9213744e-07
8.1144566e-07
8.3489274e-07
8.6343644e-07
8.984365e-07
9.4047944e-07
9.898273e-07
1.0449864e-06
1.1061056e-06
1.1741355e-06
1.2083297e-06
1.2332712e-06
1.2729093e-06
1.3285308e-06
1.4020262e-06
1.4958617e-06
1.6130513e-06
1.7575273e-06
1.9347865e-06
2.1513864e-06
2.412461e-06
2.7238368e-06
3.0927115e-06
3.527698e-06
4.0392135e-06
4.6406701e-06
5.351489e-06
6.2043394e-06
6.9692381e-06
7.8045886e-06
8.7620778e-06
9.8393489e-06
1.1030144e-05
1.2321634e-05
1.3690452e-05
1.5103274e-05
1.6563472e-05
1.8073057e-05
1.9177932e-05
2.0095475e-05
2.1003181e-05
2.1904227e-05
2.2797608e-05
2.3678009e-05
2.4540565e-05
2.538169e-05
2.6198793e-05
2.699033e-05
2.7756816e-05
2.850005e-05
2.9221646e-05
2.9923191e-05
3.0606436e-05
3.1272623e-05
3.1922015e-05
3.2555095e-05
3.317194e-05
3.3771736e-05
3.4353172e-05
3.4913796e-05
3.5451882e-05
3.5964363e-05
3.6448314e-05
3.6902078e-05
3.7324967e-05
3.7716737e-05
3.8077729e-05
3.8408711e-05
3.8710898e-05
3.8985751e-05
3.923487e-05
3.9460105e-05
3.966326e-05
3.9846043e-05
4.0010206e-05
4.0157392e-05
4.0289095e-05
4.0406447e-05
4.0510765e-05
4.0605247e-05
4.0668578e-05
4.0745028e-05
4.0789811e-05
1.6818107e-07
1.6866177e-07
1.7195769e-07
1.8125981e-07
1.9895335e-07
2.2489899e-07
2.5727898e-07
2.9357469e-07
3.3180803e-07
3.7052134e-07
4.0855227e-07
4.4498927e-07
4.7922997e-07
5.1095581e-07
5.4014476e-07
5.670584e-07
5.9215299e-07
6.1601086e-07
6.393576e-07
6.6308207e-07
6.8811098e-07
7.1550565e-07
7.4634507e-07
7.8169814e-07
8.2232556e-07
8.6917032e-07
9.2354215e-07
9.8581631e-07
1.0558279e-06
1.134769e-06
1.2243443e-06
1.326698e-06
1.4276183e-06
1.4948507e-06
1.5856692e-06
1.7047669e-06
1.8584188e-06
2.0546873e-06
2.3033467e-06
2.6160561e-06
3.0068657e-06
3.4926294e-06
4.0933027e-06
4.8323283e-06
5.738359e-06
6.7096897e-06
7.7074344e-06
8.8168916e-06
1.0049524e-05
1.1405475e-05
1.2869482e-05
1.4406639e-05
1.5971414e-05
1.7626558e-05
1.9392498e-05
2.0669732e-05
2.1768402e-05
2.284952e-05
2.3923787e-05
2.4999881e-05
2.607978e-05
2.7164545e-05
2.8249424e-05
2.9328995e-05
3.0399798e-05
3.1460637e-05
3.2509989e-05
3.3545688e-05
3.4567167e-05
3.5574719e-05
3.6567911e-05
3.7545968e-05
3.8507954e-05
3.9452581e-05
4.0377562e-05
4.1280443e-05
4.2157774e-05
4.3006452e-05
4.3823375e-05
4.4605058e-05
4.5348504e-05
4.6051719e-05
4.6713562e-05
4.7333739e-05
4.7912673e-05
4.8451414e-05
4.8951392e-05
4.9414338e-05
4.9842436e-05
5.0237906e-05
5.060316e-05
5.0940385e-05
5.1251663e-05
5.1538896e-05
5.1804002e-05
5.2047843e-05
5.2276611e-05
5.2464974e-05
5.265217e-05
5.2845188e-05
1.6814565e-07
1.67873e-07
1.6803239e-07
1.6934669e-07
1.7271318e-07
1.787719e-07
1.8775435e-07
1.9960591e-07
2.14189e-07
2.3138647e-07
2.5106443e-07
2.7272973e-07
2.9591367e-07
3.2014358e-07
3.4498332e-07
3.7008329e-07
3.9519584e-07
4.2017471e-07
4.4499931e-07
4.6979595e-07
4.9481961e-07
5.2045776e-07
5.4723093e-07
5.7578516e-07
6.0682526e-07
6.4115775e-07
6.7976932e-07
7.2363567e-07
7.7364816e-07
8.309671e-07
8.9714169e-07
9.7360452e-07
1.0618696e-06
1.1632989e-06
1.2801021e-06
1.4151516e-06
1.5722413e-06
1.756514e-06
1.9284697e-06
2.1213674e-06
2.3730849e-06
2.7009553e-06
3.1275208e-06
3.6821109e-06
4.4017662e-06
5.3210867e-06
6.2973881e-06
7.3653397e-06
8.5757138e-06
9.9377838e-06
1.1453198e-05
1.3111196e-05
1.4887922e-05
1.6776933e-05
1.8774892e-05
2.0624449e-05
2.1909215e-05
2.3189391e-05
2.4437585e-05
2.5674723e-05
2.6932873e-05
2.8216541e-05
2.9507923e-05
3.0809152e-05
3.2126248e-05
3.3454729e-05
3.4788998e-05
3.6125741e-05
3.746427e-05
3.8802421e-05
4.013637e-05
4.1464023e-05
4.2783532e-05
4.4091495e-05
4.5382817e-05
4.6653091e-05
4.7897029e-05
4.9109391e-05
5.0286088e-05
5.1422983e-05
5.2515896e-05
5.3561509e-05
5.4557472e-05
5.5502367e-05
5.6395867e-05
5.723845e-05
5.8031053e-05
5.8775154e-05
5.9472955e-05
6.0126815e-05
6.0739436e-05
6.1313419e-05
6.1851215e-05
6.235504e-05
6.2827584e-05
6.3269174e-05
6.368866e-05
6.405921e-05
6.4408831e-05
6.4820136e-05
1.6818996e-07
1.6781425e-07
1.6749284e-07
1.6735573e-07
1.6761826e-07
1.6851605e-07
1.7024583e-07
1.7296162e-07
1.7680283e-07
1.8190966e-07
1.8841332e-07
1.9639265e-07
2.0587958e-07
2.1685687e-07
2.2933847e-07
2.4327598e-07
2.5849933e-07
2.7484958e-07
2.9219886e-07
3.1045821e-07
3.295869e-07
3.4960496e-07
3.7060522e-07
3.9276678e-07
4.1635315e-07
4.4172166e-07
4.6935174e-07
4.9983452e-07
5.3385326e-07
5.7222894e-07
6.1598961e-07
6.6632772e-07
7.2462694e-07
7.9245988e-07
8.7178237e-07
9.6455865e-07
1.0735231e-06
1.202265e-06
1.3545631e-06
1.5353219e-06
1.7515406e-06
2.0125814e-06
2.3306565e-06
2.7214087e-06
3.1865339e-06
3.7661001e-06
4.5193879e-06
5.3772548e-06
6.3844873e-06
7.5555656e-06
8.9028629e-06
1.043262e-05
1.2141236e-05
1.4023398e-05
1.6074695e-05
1.8246241e-05
2.0452897e-05
2.2483183e-05
2.3872735e-05
2.5254907e-05
2.6659345e-05
2.8073445e-05
2.9487635e-05
3.0934044e-05
3.2433158e-05
3.3953975e-05
3.5496433e-05
3.706996e-05
3.8670907e-05
4.0291951e-05
4.1928642e-05
4.3580851e-05
4.5243943e-05
4.6911386e-05
4.8574383e-05
5.0225763e-05
5.1856988e-05
5.3460466e-05
5.5030427e-05
5.6560969e-05
5.804637e-05
5.9481997e-05
6.0863853e-05
6.2188803e-05
6.3455276e-05
6.4662607e-05
6.5810612e-05
6.6899986e-05
6.7932393e-05
6.8909872e-05
6.9834965e-05
7.0710363e-05
7.1538676e-05
7.232225e-05
7.3064404e-05
7.3764871e-05
7.4434543e-05
7.5047211e-05
7.5615921e-05
7.6319484e-05
1.6824351e-07
1.6785089e-07
1.6745969e-07
1.6708851e-07
1.6677831e-07
1.6658705e-07
1.6657946e-07
1.6682288e-07
1.6739037e-07
1.6836387e-07
1.6983284e-07
1.7188809e-07
1.7461756e-07
1.7810162e-07
1.824165e-07
1.8762933e-07
1.9378787e-07
2.0092293e-07
2.0905328e-07
2.1819173e-07
2.2837821e-07
2.3969723e-07
2.5216752e-07
2.6579581e-07
2.8063356e-07
2.9678729e-07
3.1442727e-07
3.3380157e-07
3.5524284e-07
3.791749e-07
4.0613903e-07
4.3681101e-07
4.7202751e-07
5.12814e-07
5.6044753e-07
6.1643368e-07
6.8265775e-07
7.6154392e-07
8.5603512e-07
9.6948157e-07
1.1064744e-06
1.2730561e-06
1.4771882e-06
1.7293138e-06
2.0426587e-06
2.4336989e-06
2.9206502e-06
3.5194885e-06
4.2475352e-06
5.1233256e-06
6.1660304e-06
7.39369e-06
8.8203607e-06
1.0456157e-05
1.2308439e-05
1.4364328e-05
1.6579623e-05
1.8900533e-05
2.1257086e-05
2.3634682e-05
2.5604918e-05
2.7112769e-05
2.8629709e-05
3.0181986e-05
3.176782e-05
3.3370304e-05
3.5016856e-05
3.6739948e-05
3.8506437e-05
4.0311302e-05
4.2166136e-05
4.4072367e-05
4.601593e-05
4.7987016e-05
4.9977823e-05
5.1977426e-05
5.397331e-05
5.5957037e-05
5.7920199e-05
5.9853241e-05
6.1748623e-05
6.3599849e-05
6.540017e-05
6.7144127e-05
6.8828161e-05
7.0449523e-05
7.2006219e-05
7.3497388e-05
7.4923285e-05
7.6284915e-05
7.7584072e-05
7.8822957e-05
8.0004006e-05
8.1129338e-05
8.2202631e-05
8.3222931e-05
8.4202469e-05
8.5117044e-05
8.5963536e-05
8.7033229e-05
1.6834523e-07
1.6795306e-07
1.675546e-07
1.6715121e-07
1.6674934e-07
1.6636049e-07
1.6600047e-07
1.656889e-07
1.6544963e-07
1.6531151e-07
1.6530886e-07
1.6548107e-07
1.6587214e-07
1.6652971e-07
1.6750456e-07
1.6884996e-07
1.7062e-07
1.7286795e-07
1.7564562e-07
1.7900336e-07
1.8299261e-07
1.8766963e-07
1.9308926e-07
1.9930527e-07
2.0637537e-07
2.1436681e-07
2.2336883e-07
2.335426e-07
2.4509142e-07
2.5817739e-07
2.7299838e-07
2.8984103e-07
3.0909717e-07
3.3128285e-07
3.570715e-07
3.8730731e-07
4.2305155e-07
4.6566679e-07
5.1689147e-07
5.7888553e-07
6.5445121e-07
7.4728287e-07
8.6224658e-07
1.0056854e-06
1.186114e-06
1.4146823e-06
1.7052991e-06
2.0736546e-06
2.5372783e-06
3.1154641e-06
3.8290989e-06
4.7001715e-06
5.7507074e-06
7.0019914e-06
8.4744145e-06
1.0180978e-05
1.2117022e-05
1.4260272e-05
1.6566619e-05
1.9001088e-05
2.1511268e-05
2.4054642e-05
2.6628883e-05
2.8804898e-05
3.0458999e-05
3.2131988e-05
3.3853446e-05
3.5625702e-05
3.7432985e-05
3.9300226e-05
4.1268758e-05
4.331174e-05
4.5414297e-05
4.7583372e-05
4.9807766e-05
5.2070006e-05
5.4359834e-05
5.6669519e-05
5.8984483e-05
6.1291258e-05
6.3581364e-05
6.5844188e-05
6.806892e-05
7.0247705e-05
7.2373833e-05
7.4441076e-05
7.6444771e-05
7.8381468e-05
8.0248953e-05
8.2046316e-05
8.3773778e-05
8.5432254e-05
8.7023364e-05
8.8548495e-05
9.0011256e-05
9.1409766e-05
9.2756891e-05
9.4031032e-05
9.5213928e-05
9.6720332e-05
1.6852038e-07
1.6817127e-07
1.6780864e-07
1.6743205e-07
1.6704287e-07
1.6664379e-07
1.662389e-07
1.6583359e-07
1.6543469e-07
1.6505069e-07
1.6469211e-07
1.6437185e-07
1.6410545e-07
1.6391127e-07
1.6381057e-07
1.6382763e-07
1.6398967e-07
1.6432657e-07
1.6487068e-07
1.6565665e-07
1.6672145e-07
1.6810462e-07
1.6984819e-07
1.7199659e-07
1.7459695e-07
1.7769994e-07
1.8136234e-07
1.8565402e-07
1.9066079e-07
1.9647968e-07
2.0322438e-07
2.1103502e-07
2.2009017e-07
2.306636e-07
2.4313414e-07
2.578527e-07
2.7524971e-07
2.9592855e-07
3.207072e-07
3.506688e-07
3.8723601e-07
4.3229028e-07
4.8834469e-07
5.5877392e-07
6.4819445e-07
7.6294593e-07
9.115631e-07
1.105026e-06
1.3572011e-06
1.6849677e-06
2.1081767e-06
2.6492731e-06
3.3325238e-06
4.1830587e-06
5.2263374e-06
6.4862631e-06
7.980432e-06
9.716144e-06
1.1685074e-05
1.38708e-05
1.6242161e-05
1.8761003e-05
2.1401776e-05
2.4121306e-05
2.6880542e-05
2.9683068e-05
3.2156633e-05
3.3986853e-05
3.5840391e-05
3.7755811e-05
3.97376e-05
4.176695e-05
4.3876448e-05
4.6119274e-05
4.8440662e-05
5.083148e-05
5.3304764e-05
5.584122e-05
5.8418087e-05
6.1026097e-05
6.3654612e-05
6.6284589e-05
6.8902932e-05
7.1499564e-05
7.4062278e-05
7.6580556e-05
7.9046198e-05
8.1451736e-05
8.3791446e-05
8.6061506e-05
8.8259377e-05
9.0383598e-05
9.2433998e-05
9.4410425e-05
9.6315693e-05
9.8146465e-05
9.9915464e-05
0.00010160356
0.00010318034
0.00010518862
1.6867654e-07
1.6839193e-07
1.6809283e-07
1.6777777e-07
1.6744666e-07
1.6710014e-07
1.6673955e-07
1.6636665e-07
1.6598353e-07
1.6559254e-07
1.6519649e-07
1.6479888e-07
1.6440415e-07
1.640179e-07
1.6364712e-07
1.6330029e-07
1.6298766e-07
1.627213e-07
1.6251523e-07
1.6238553e-07
1.6235042e-07
1.6243037e-07
1.6264816e-07
1.6302906e-07
1.6360086e-07
1.6439405e-07
1.6544238e-07
1.6678393e-07
1.6846238e-07
1.7052768e-07
1.730378e-07
1.7606112e-07
1.7967966e-07
1.8399848e-07
1.8915544e-07
1.9531654e-07
2.0268453e-07
2.1151803e-07
2.2217048e-07
2.3519736e-07
2.5120948e-07
2.7091815e-07
2.9534553e-07
3.2593312e-07
3.6471139e-07
4.1453419e-07
4.7941125e-07
5.6492832e-07
6.7881772e-07
8.3162305e-07
1.0373753e-06
1.3141638e-06
1.6845283e-06
2.1749959e-06
2.8148831e-06
3.6341741e-06
4.6602141e-06
5.9141416e-06
7.407989e-06
9.1460012e-06
1.1122984e-05
1.3324867e-05
1.5735511e-05
1.8327565e-05
2.1066237e-05
2.3931375e-05
2.6888553e-05
2.9895254e-05
3.2959842e-05
3.5735031e-05
3.7766817e-05
3.9815392e-05
4.1933439e-05
4.4130693e-05
4.6387826e-05
4.8756301e-05
5.1280278e-05
5.3891226e-05
5.6588019e-05
5.9380354e-05
6.2238672e-05
6.513904e-05
6.8074385e-05
7.1027855e-05
7.3979385e-05
7.6916169e-05
7.9824517e-05
8.2691683e-05
8.5507891e-05
8.8265079e-05
9.09564e-05
9.3576697e-05
9.6122691e-05
9.8591475e-05
0.00010098391
0.00010329433
0.00010553427
0.00010768631
0.00010971234
0.0001122803
1.6876872e-07
1.6852906e-07
1.6827909e-07
1.6801701e-07
1.677419e-07
1.6745338e-07
1.671516e-07
1.6683712e-07
1.665106e-07
1.6617267e-07
1.6582395e-07
1.6546509e-07
1.6509697e-07
1.6472076e-07
1.6433809e-07
1.6395114e-07
1.6356275e-07
1.6317657e-07
1.6279715e-07
1.624301e-07
1.620822e-07
1.6176154e-07
1.6147764e-07
1.6124162e-07
1.6106633e-07
1.6096647e-07
1.6095879e-07
1.6106241e-07
1.6129917e-07
1.61694e-07
1.622756e-07
1.630772e-07
1.6413755e-07
1.655029e-07
1.672299e-07
1.693879e-07
1.7206179e-07
1.7535709e-07
1.7940919e-07
1.8440334e-07
1.9057648e-07
1.9822723e-07
2.0775108e-07
2.1970616e-07
2.3498374e-07
2.5462359e-07
2.8004378e-07
3.133826e-07
3.577954e-07
4.1788277e-07
5.002794e-07
6.1448251e-07
7.7394902e-07
9.9728472e-07
1.309179e-06
1.7404334e-06
2.3263196e-06
3.1019013e-06
4.0960594e-06
5.3275233e-06
6.8045404e-06
8.5278893e-06
1.0495684e-05
1.2701393e-05
1.5131612e-05
1.7772811e-05
2.060256e-05
2.3586803e-05
2.6708448e-05
2.9937992e-05
3.3229391e-05
3.659394e-05
3.9596482e-05
4.1817046e-05
4.4072852e-05
4.6415468e-05
4.8847263e-05
5.1346949e-05
5.4008933e-05
5.6836453e-05
5.9754262e-05
6.2778039e-05
6.5906471e-05
6.9100934e-05
7.2341322e-05
7.5616838e-05
7.8902575e-05
8.2182499e-05
8.5442595e-05
8.8668346e-05
9.1847413e-05
9.4969481e-05
9.8026751e-05
0.00010101187
0.00010392229
0.00010674874
0.00010950014
0.00011215953
0.00011468574
0.00011786121
1.6881502e-07
1.685987e-07
1.6837576e-07
1.6814478e-07
1.6790478e-07
1.6765508e-07
1.673954e-07
1.6712578e-07
1.6684642e-07
1.6655751e-07
1.6625912e-07
1.6595125e-07
1.6563384e-07
1.6530689e-07
1.6497046e-07
1.6462476e-07
1.6427016e-07
1.6390728e-07
1.6353707e-07
1.6316082e-07
1.627803e-07
1.623978e-07
1.6201627e-07
1.6163937e-07
1.6127164e-07
1.6091855e-07
1.605867e-07
1.6028391e-07
1.6001944e-07
1.5980416e-07
1.5965081e-07
1.5957435e-07
1.5959225e-07
1.5972512e-07
1.5999751e-07
1.6043887e-07
1.6108476e-07
1.6197841e-07
1.6317335e-07
1.6473785e-07
1.6675911e-07
1.6934837e-07
1.7265018e-07
1.7685793e-07
1.8224725e-07
1.8918777e-07
1.9818536e-07
2.0996533e-07
2.257047e-07
2.4708086e-07
2.7633988e-07
3.1699849e-07
3.7446515e-07
4.5694545e-07
5.76708e-07
7.5173555e-07
1.007442e-06
1.3772898e-06
1.900895e-06
2.6182178e-06
3.5619576e-06
4.7519128e-06
6.1955584e-06
7.8928496e-06
9.8408415e-06
1.2038042e-05
1.4480898e-05
1.715782e-05
2.0057088e-05
2.3158837e-05
2.6427952e-05
2.9848624e-05
3.3387747e-05
3.6999566e-05
4.069766e-05
4.3784769e-05
4.6214251e-05
4.8696308e-05
5.1285556e-05
5.3967168e-05
5.6737341e-05
5.972543e-05
6.2875252e-05
6.6133167e-05
6.9510933e-05
7.2990884e-05
7.6532381e-05
8.0125706e-05
8.3749689e-05
8.7380563e-05
9.1001476e-05
9.4594948e-05
9.8147821e-05
0.00010164622
0.0001050829
0.00010844338
0.00011173207
0.00011493113
0.00011799844
0.00012181504
1.6883674e-07
1.6863119e-07
1.6842108e-07
1.6820545e-07
1.6798355e-07
1.6775478e-07
1.6751879e-07
1.6727548e-07
1.6702495e-07
1.6676726e-07
1.6650244e-07
1.662304e-07
1.6595098e-07
1.65664e-07
1.6536923e-07
1.6506646e-07
1.6475549e-07
1.6443617e-07
1.6410842e-07
1.6377223e-07
1.6342772e-07
1.6307518e-07
1.627151e-07
1.6234821e-07
1.6197557e-07
1.615986e-07
1.6121919e-07
1.6083974e-07
1.6046328e-07
1.6009359e-07
1.5973529e-07
1.5939403e-07
1.5907662e-07
1.5879126e-07
1.5854784e-07
1.5835825e-07
1.5823686e-07
1.5820107e-07
1.5827208e-07
1.5847614e-07
1.5884598e-07
1.5942277e-07
1.6025893e-07
1.6142245e-07
1.630043e-07
1.6512703e-07
1.6795803e-07
1.7173151e-07
1.7679627e-07
1.8366678e-07
1.9308618e-07
2.0618055e-07
2.2482193e-07
2.5184869e-07
2.9144656e-07
3.5042178e-07
4.3957463e-07
5.7547471e-07
7.824794e-07
1.0938798e-06
1.550797e-06
2.1976115e-06
3.0731167e-06
4.2029818e-06
5.5974004e-06
7.2567498e-06
9.179087e-06
1.1363178e-05
1.3810563e-05
1.6520676e-05
1.9482305e-05
2.2683763e-05
2.6102531e-05
2.9701353e-05
3.3465211e-05
3.7346411e-05
4.1312358e-05
4.5377075e-05
4.8384229e-05
5.1032455e-05
5.3761641e-05
5.6614326e-05
5.9556288e-05
6.2670804e-05
6.6005532e-05
6.9492089e-05
7.3112936e-05
7.686654e-05
8.0717662e-05
8.463473e-05
8.8600492e-05
9.2586618e-05
9.6575635e-05
0.0001005449
0.0001044822
0.00010836571
0.00011219336
0.00011594548
0.00011957442
0.00012404511
1.6884627e-07
1.6864533e-07
1.6844083e-07
1.6823214e-07
1.6801873e-07
1.6780013e-07
1.6757604e-07
1.6734639e-07
1.6711121e-07
1.668706e-07
1.6662458e-07
1.6637315e-07
1.661162e-07
1.6585361e-07
1.6558519e-07
1.6531076e-07
1.6503011e-07
1.64743e-07
1.644492e-07
1.6414849e-07
1.6384065e-07
1.6352548e-07
1.6320283e-07
1.628726e-07
1.6253476e-07
1.6218941e-07
1.6183676e-07
1.6147719e-07
1.6111131e-07
1.6074e-07
1.6036444e-07
1.5998623e-07
1.5960742e-07
1.5923066e-07
1.5885924e-07
1.5849732e-07
1.5815003e-07
1.578237e-07
1.5752616e-07
1.5726709e-07
1.5705848e-07
1.5691532e-07
1.5685644e-07
1.569058e-07
1.570944e-07
1.5746305e-07
1.5806648e-07
1.5897962e-07
1.6030879e-07
1.6220831e-07
1.649038e-07
1.6873323e-07
1.742298e-07
1.8223059e-07
1.9404024e-07
2.1177219e-07
2.3915954e-07
2.8179659e-07
3.4880501e-07
4.5471241e-07
6.2144203e-07
8.8018228e-07
1.2714372e-06
1.8418918e-06
2.6369989e-06
3.6911759e-06
5.0222693e-06
6.6340252e-06
8.524757e-06
1.0694999e-05
1.3147166e-05
1.5885735e-05
1.8910202e-05
2.2207109e-05
2.576319e-05
2.9546507e-05
3.3520754e-05
3.7672004e-05
4.1926658e-05
4.6279394e-05
5.055587e-05
5.3451363e-05
5.6332503e-05
5.9333181e-05
6.2457954e-05
6.5688908e-05
6.9199845e-05
7.2906695e-05
7.6785515e-05
8.0810896e-05
8.496463e-05
8.9206e-05
9.3515798e-05
9.7862247e-05
0.00010222825
0.00010658226
0.0001109143
0.00011520234
0.00011937938
0.00012448711
1.6884985e-07
1.6865067e-07
1.6844839e-07
1.6824259e-07
1.680329e-07
1.6781897e-07
1.6760055e-07
1.6737759e-07
1.6715012e-07
1.6691822e-07
1.6668197e-07
1.6644139e-07
1.6619646e-07
1.6594713e-07
1.656933e-07
1.6543486e-07
1.651717e-07
1.6490366e-07
1.6463057e-07
1.6435227e-07
1.6406856e-07
1.6377923e-07
1.6348409e-07
1.6318292e-07
1.6287552e-07
1.6256168e-07
1.6224123e-07
1.6191402e-07
1.6157997e-07
1.6123903e-07
1.6089128e-07
1.6053689e-07
1.6017619e-07
1.598097e-07
1.5943819e-07
1.5906271e-07
1.5868468e-07
1.5830598e-07
1.5792904e-07
1.5755696e-07
1.5719369e-07
1.5684424e-07
1.5651497e-07
1.5621395e-07
1.5595155e-07
1.5574119e-07
1.5560057e-07
1.5555347e-07
1.5563265e-07
1.5588445e-07
1.5637582e-07
1.5720565e-07
1.5852533e-07
1.6057145e-07
1.6371771e-07
1.6856901e-07
1.76155e-07
1.8815632e-07
2.0737717e-07
2.3871155e-07
2.8983038e-07
3.7295425e-07
5.0716999e-07
7.204788e-07
1.0510969e-06
1.5460841e-06
2.255881e-06
3.2248319e-06
4.4814793e-06
6.0372777e-06
7.8928825e-06
1.0048234e-05
1.2507952e-05
1.5277571e-05
1.8363018e-05
2.1759268e-05
2.5449013e-05
2.9416378e-05
3.3612724e-05
3.8007265e-05
4.257761e-05
4.7236287e-05
5.2006632e-05
5.5894283e-05
5.90076e-05
6.2160007e-05
6.5467559e-05
6.887917e-05
7.2535947e-05
7.6449344e-05
8.0567248e-05
8.4866197e-05
8.9315245e-05
9.3886323e-05
9.8550926e-05
0.00010326933
0.0001080221
0.00011278367
0.00011745457
0.00012313394
1.6885057e-07
1.6865186e-07
1.6845025e-07
1.6824547e-07
1.6803725e-07
1.6782532e-07
1.6760949e-07
1.6738971e-07
1.6716601e-07
1.6693845e-07
1.6670713e-07
1.6647208e-07
1.6623333e-07
1.6599087e-07
1.6574467e-07
1.6549469e-07
1.6524088e-07
1.6498315e-07
1.6472143e-07
1.6445563e-07
1.6418562e-07
1.639113e-07
1.6363252e-07
1.6334915e-07
1.6306102e-07
1.6276796e-07
1.624698e-07
1.6216635e-07
1.6185743e-07
1.6154285e-07
1.6122244e-07
1.6089604e-07
1.6056352e-07
1.602248e-07
1.5987986e-07
1.5952875e-07
1.5917165e-07
1.5880886e-07
1.5844087e-07
1.5806839e-07
1.5769243e-07
1.5731434e-07
1.5693594e-07
1.5655962e-07
1.5618849e-07
1.5582667e-07
1.5547955e-07
1.5515435e-07
1.5486091e-07
1.5461289e-07
1.5442973e-07
1.5433977e-07
1.5438554e-07
1.5463253e-07
1.5518388e-07
1.5620573e-07
1.5797557e-07
1.6095676e-07
1.6593398e-07
1.7426589e-07
1.8823202e-07
2.1165e-07
2.5112083e-07
3.1687299e-07
4.2507852e-07
6.0031057e-07
8.7753448e-07
1.3025983e-06
1.9289143e-06
2.8092827e-06
3.9851454e-06
5.4783362e-06
7.2955137e-06
9.4369537e-06
1.1906791e-05
1.471339e-05
1.7863772e-05
2.1362975e-05
2.5195485e-05
2.9338793e-05
3.3768662e-05
3.8422474e-05
4.3278759e-05
4.8272008e-05
5.3370257e-05
5.8441788e-05
6.1811816e-05
6.5160807e-05
6.8620749e-05
7.2224681e-05
7.6022097e-05
8.0144119e-05
8.4480559e-05
8.9065707e-05
9.3829205e-05
9.8743462e-05
0.00010377355
0.00010888426
0.0001139578
0.00012006769
1.6884999e-07
1.6865119e-07
1.6844956e-07
1.6824495e-07
1.6803715e-07
1.6782596e-07
1.6761123e-07
1.673929e-07
1.67171e-07
1.6694558e-07
1.6671672e-07
1.6648447e-07
1.6624887e-07
1.6600993e-07
1.6576766e-07
1.6552206e-07
1.652731e-07
1.6502078e-07
1.6476505e-07
1.6450587e-07
1.642432e-07
1.6397699e-07
1.6370717e-07
1.6343366e-07
1.6315638e-07
1.6287524e-07
1.6259013e-07
1.6230093e-07
1.6200752e-07
1.6170975e-07
1.6140749e-07
1.6110057e-07
1.6078883e-07
1.6047211e-07
1.6015024e-07
1.5982309e-07
1.5949051e-07
1.5915239e-07
1.5880869e-07
1.5845939e-07
1.5810456e-07
1.5774439e-07
1.5737918e-07
1.5700943e-07
1.5663584e-07
1.5625941e-07
1.5588154e-07
1.5550414e-07
1.5512985e-07
1.547624e-07
1.5440706e-07
1.5407155e-07
1.5376735e-07
1.53512e-07
1.5333298e-07
1.5327434e-07
1.5340888e-07
1.5385865e-07
1.5483179e-07
1.5668852e-07
1.6004944e-07
1.659839e-07
1.7635564e-07
1.9428738e-07
2.2498563e-07
2.7732072e-07
3.6483426e-07
5.0878546e-07
7.40635e-07
1.1038159e-06
1.6528595e-06
2.4470979e-06
3.5398093e-06
4.9668019e-06
6.7430958e-06
8.8723239e-06
1.135707e-05
1.4207284e-05
1.7432484e-05
2.1037768e-05
2.502151e-05
2.9354682e-05
3.4010442e-05
3.8937225e-05
4.4087816e-05
4.9437388e-05
5.4878948e-05
6.044396e-05
6.471023e-05
6.8297122e-05
7.1939416e-05
7.5742533e-05
7.968464e-05
8.4019839e-05
8.8610006e-05
9.3485508e-05