/*--------------------------------*- C++ -*----------------------------------*\
| =========                 |                                                 |
| \\      /  F ield         | OpenFOAM: The Open Source CFD Toolbox           |
|  \\    /   O peration     | Version:  2206                                  |
|   \\  /    A nd           | Website:  www.openfoam.com                      |
|    \\/     M anipulation  |                                                 |
\*---------------------------------------------------------------------------*/
FoamFile
{
    version     2.0;
    format      ascii;
    arch        "LSB;label=32;scalar=64";
    class       volScalarField;
    location    "1300";
    object      omega;
}
// * * * * * * * * * * * * * * * * * * * * * * * * * * * * * * * * * * * * * //

dimensions      [0 0 -1 0 0 0 0];

internalField   nonuniform List<scalar> 
7480
(
7569.1061
7590.8154
7571.1124
7538.1558
7512.5648
7498.0758
7491.1188
7487.7286
7485.8495
7484.6259
7483.6805
7482.8697
7482.1632
7481.5519
7481.0218
7480.56
7480.1566
7479.8021
7479.4869
7479.2044
7478.9507
7478.7217
7478.5134
7478.3236
7478.1502
7477.9911
7477.8446
7477.7094
7477.5845
7477.4691
7477.362
7477.2628
7477.1708
7477.0855
7477.0064
7476.9331
7476.8654
7476.8029
7476.7454
7476.6929
7476.6452
7476.6022
7476.564
7476.5306
7476.5019
7476.4789
7476.4606
7476.4483
7476.4418
7476.4408
7476.4453
7476.455
7476.4693
7476.4874
7476.5082
7476.5313
7476.5552
7476.5779
7476.5974
7476.6121
7476.622
7476.6271
7476.6279
7476.6251
7476.6193
7476.6114
7476.602
7476.5916
7476.5806
7476.5692
7476.5577
7476.5461
7476.5346
7476.5232
7476.512
7476.501
7476.4901
7476.479
7476.4676
7476.4562
7476.4446
7476.4331
7476.4215
7476.4098
7476.398
7476.3861
7476.3742
7476.3622
7476.3501
7476.3381
7476.326
7476.3139
7476.3018
7476.2897
7476.2778
7476.2653
7476.2544
7476.2387
7476.2298
7476.2059
1003.2453
1574.4121
1842.5164
1920.8082
1937.0634
1923.8894
1863.1758
1797.8158
1744.1905
1704.0004
1673.3577
1647.6998
1624.4789
1603.0653
1583.2772
1564.9014
1547.8503
1532.2248
1517.8693
1504.5628
1492.2122
1480.7939
1470.2005
1460.319
1451.104
1442.5286
1434.5212
1427.0135
1419.9743
1413.38
1407.1884
1401.364
1395.8906
1390.7517
1385.9231
1381.3863
1377.1324
1373.1497
1369.4245
1365.9489
1362.7211
1359.7388
1356.9986
1354.5038
1352.2505
1350.2437
1348.4835
1346.9773
1345.7356
1344.7507
1344.0437
1343.6481
1343.4589
1343.4434
1343.5639
1343.7824
1344.0559
1344.3259
1344.5342
1344.6256
1344.5839
1344.4017
1344.1269
1343.7497
1343.2693
1342.7091
1342.0906
1341.4346
1340.7567
1340.0687
1339.3796
1338.696
1338.0217
1337.3598
1336.7128
1336.0805
1335.4656
1334.8592
1334.2564
1333.6589
1333.0664
1332.4792
1331.8966
1331.3162
1330.7375
1330.1593
1329.5819
1329.0052
1328.4294
1327.8551
1327.2824
1326.7118
1326.1439
1325.5775
1325.0173
1324.4458
1323.9014
1323.338
1322.6616
1322.0503
190.6665
396.63456
585.96313
709.21216
769.26285
785.38871
782.09276
789.21374
803.68274
812.847
819.33128
823.55
825.05019
824.15401
821.42808
817.41147
811.95011
805.29651
797.71009
789.40866
780.60446
771.50162
762.24377
752.93483
743.67963
734.57273
725.63016
716.85214
708.25482
699.86173
691.68731
683.74151
676.03791
668.58899
661.40198
654.48481
647.84717
641.48923
635.40818
629.60464
624.0847
618.85605
613.92615
609.30545
605.00467
601.02463
597.35855
593.99418
590.92222
588.13079
585.65637
583.50431
581.56866
579.81526
578.21912
576.72706
575.2771
573.82956
572.36981
570.90251
569.423
567.91603
566.4642
565.01858
563.56149
562.09576
560.62761
559.16598
557.71921
556.29426
554.8966
553.53068
552.19959
550.9054
549.64994
548.43232
547.25329
546.13504
545.06111
544.0186
543.00086
542.00469
541.02823
540.06789
539.12173
538.18743
537.26377
536.34977
535.44458
534.5482
533.65986
532.77965
531.90767
531.04229
530.18754
529.32668
528.49289
527.65628
526.7362
525.6521
72.002944
121.36561
193.99726
267.72764
324.63012
359.74075
377.80957
386.78306
392.45346
397.56997
404.52038
415.22952
426.21158
437.93565
452.28285
470.55532
485.14708
496.53947
505.31056
511.87047
516.54339
519.62094
521.3622
522.03654
521.95969
521.37813
520.02143
517.83721
514.91337
511.3741
507.33856
502.91058
498.18103
493.23037
488.13319
482.96387
477.77002
472.5347
467.2575
461.95554
456.65504
451.38367
446.16678
441.02841
435.99847
431.07338
426.22147
421.41534
416.64754
411.92421
407.26717
402.77523
398.35003
394.00282
389.76916
385.60409
381.47206
377.41877
373.52666
369.86837
366.46309
363.3276
360.49598
357.89304
355.46919
353.18905
351.02564
348.96021
346.97995
345.07613
343.2427
341.47612
339.77423
338.13468
336.55589
335.03525
333.57189
332.19095
330.8847
329.63758
328.43937
327.28461
326.17048
325.09318
324.04983
323.03715
322.05242
321.09329
320.15739
319.24318
318.34877
317.47294
316.61451
315.77153
314.94528
314.12621
313.32352
312.57247
311.71837
310.76011
55.642012
64.53277
83.911543
111.35106
140.42413
165.53192
184.58641
198.13482
207.74524
214.79145
220.42352
225.66608
230.96237
236.83417
244.10137
253.54971
263.34726
273.15121
282.74752
292.00557
300.83193
309.30682
317.72342
326.71452
337.34499
349.83192
359.6951
366.92899
372.2124
375.99588
378.58586
380.20358
381.02748
381.22524
380.98776
380.52652
379.81984
378.47543
376.48932
373.94633
370.94172
367.55804
363.86323
359.91854
355.79821
351.50249
346.96512
342.16513
337.12996
331.90478
326.53828
321.09059
315.63485
310.18108
304.76549
299.34214
293.93638
288.67221
283.66644
279.00003
274.73686
270.89069
267.42124
264.27181
261.3887
258.7254
256.24239
253.90861
251.70042
249.60008
247.59478
245.67652
243.83804
242.07352
240.37892
238.75041
237.18689
235.69123
234.26623
232.90783
231.61027
230.3691
229.18164
228.0446
226.95509
225.9097
224.90521
223.93858
223.00663
222.10686
221.23687
220.39443
219.57733
218.78329
218.01177
217.25769
216.51729
215.84943
215.10018
214.28261
53.509889
54.437548
58.088597
65.266108
75.159419
86.043226
96.435717
105.643
113.54293
120.26232
125.96767
130.8736
135.18488
139.11354
142.9424
147.01041
151.41863
156.26933
161.7085
167.81666
174.15504
180.72221
187.52378
194.61179
202.09835
210.06713
218.04962
225.68772
232.80709
239.34661
245.31979
250.80611
255.97643
261.16068
266.96881
274.12167
281.53683
286.10937
288.75737
290.08822
290.45619
290.07852
289.108
287.69081
286.00748
284.20661
281.8421
278.81965
275.24032
271.21233
266.83583
262.20892
257.43191
252.53626
247.57418
242.61831
237.72312
232.97271
228.44609
224.19485
220.24075
216.59031
213.22673
210.12171
207.24536
204.56734
202.05861
199.69503
197.45646
195.32639
193.29225
191.34585
189.47973
187.68799
185.96637
184.31094
182.72081
181.19086
179.72254
178.31742
176.97457
175.69203
174.46813
173.30045
172.18655
171.12343
170.10801
169.13719
168.20763
167.31642
166.46079
165.63812
164.84582
164.08146
163.34358
162.62903
161.93046
161.30193
160.63051
159.89027
53.224419
52.808898
52.959329
54.085547
56.273746
59.364354
62.974077
66.79
70.61839
74.356518
77.934245
81.305535
84.448641
87.361514
90.075092
92.65802
95.180446
97.712963
100.33968
103.15122
106.19061
109.52591
113.24002
117.38391
121.86174
126.72287
131.93777
137.42254
143.08042
148.82747
154.59116
160.31434
165.96579
171.5555
177.13899
182.82229
188.5266
193.80253
198.43774
202.38719
205.6874
208.42582
210.75428
212.95199
215.48372
218.48276
219.86013
219.67883
218.49868
216.63311
214.3026
211.70693
209.0137
205.98542
202.56715
199.06262
195.62501
192.3018
189.05121
185.88277
182.82393
179.88826
177.077
174.39228
171.83442
169.39627
167.06826
164.84353
162.71279
160.66708
158.69937
156.80484
154.97963
153.22099
151.52653
149.89332
148.32103
146.8055
145.34543
143.94248
142.5978
141.31141
140.08287
138.91074
137.79319
136.7279
135.71232
134.74368
133.81882
132.9349
132.08899
131.27847
130.50083
129.75365
129.03521
128.34297
127.67018
127.05778
126.43578
125.73459
53.162273
52.54267
52.020986
51.712928
51.712299
52.047201
52.63329
53.455382
54.47962
55.668643
56.982774
58.384107
59.837389
61.309727
62.775806
64.223039
65.649319
67.059736
68.468706
69.900282
71.380486
72.940614
74.620708
76.466402
78.514225
80.815775
83.427923
86.354597
89.550434
93.01363
96.733839
100.69141
104.86335
109.2301
113.78264
118.52159
123.42703
128.40643
133.35568
138.17844
142.79396
147.14026
151.1741
154.87958
158.27916
161.33837
163.88201
165.77038
167.00358
167.67474
167.93652
167.98908
167.98364
167.25112
165.73919
163.89087
162.06373
160.2835
158.32767
156.29841
154.25839
152.20688
150.13976
148.07889
146.04109
144.03016
142.05243
140.12011
138.23164
136.38759
134.58959
132.83896
131.13634
129.48473
127.8848
126.33499
124.83664
123.3881
121.9874
120.63541
119.3337
118.08342
116.88516
115.7385
114.6423
113.59519
112.59551
111.64117
110.72943
109.85794
109.02411
108.22554
107.46014
106.72568
106.02051
105.34238
104.68642
104.0808
103.48875
102.80767
53.125908
52.475652
51.839211
51.240899
50.71107
50.272553
49.929558
49.684382
49.539153
49.483113
49.49399
49.598344
49.796082
50.077232
50.428255
50.836059
51.290411
51.78315
52.30902
52.866677
53.457933
54.087475
54.76405
55.500996
56.31451
57.225454
58.260408
59.445253
60.801478
62.354929
64.135685
66.146444
68.384456
70.856063
73.572691
76.543206
79.773998
83.257762
86.971844
90.885482
94.962824
99.163406
103.44323
107.7562
112.06246
116.26213
120.21093
123.79754
126.93318
129.56143
131.65559
133.21799
134.27942
134.88653
135.04681
134.79855
134.38023
133.85147
133.0017
132.01864
130.99783
129.85158
128.55141
127.16855
125.72861
124.23105
122.69813
121.14861
119.58931
118.02964
116.47896
114.94481
113.43241
111.95415
110.51222
109.10476
107.7364
106.40671
105.11362
103.85835
102.64253
101.46763
100.33488
99.244742
98.196573
97.190375
96.225698
95.301291
94.414917
93.565105
92.750006
91.967714
91.216893
90.495614
89.802595
89.13595
88.492752
87.891282
87.317677
86.648291
53.095881
52.439097
51.783073
51.131667
50.491708
49.87054
49.273677
48.705763
48.171578
47.674893
47.21726
46.802758
46.434971
46.115612
45.83015
45.57268
45.355851
45.185115
45.060673
44.981005
44.944015
44.947274
44.989884
45.073327
45.201051
45.378465
45.613493
45.916043
46.297439
46.771047
47.353105
48.059636
48.907172
49.915172
51.107359
52.490299
54.080859
55.897708
57.952426
60.253816
62.811086
65.630995
68.717742
72.072807
75.696225
79.567143
83.602654
87.700835
91.757436
95.665177
99.318694
102.61956
105.48343
107.85471
109.69484
110.92633
111.55674
111.76385
111.74697
111.56676
111.32873
110.96531
110.42409
109.77619
109.0192
108.09696
107.07297
105.97185
104.79907
103.57618
102.31963
101.04489
99.762325
98.504238
97.265401
96.043311
94.841387
93.661485
92.503803
91.369903
90.261647
89.180832
88.129376
87.108684
86.118241
85.159678
84.235153
83.344192
82.485216
81.657485
80.860093
80.091797
79.352505
78.64044
77.954949
77.294694
76.658351
76.057257
75.492445
74.827824
53.069514
52.409351
51.748157
51.086201
50.424604
49.76491
49.108885
48.458559
47.81634
47.184834
46.566509
45.963921
45.379648
44.816098
44.27399
43.753449
43.255869
42.783038
42.336576
41.917652
41.521901
41.139019
40.773789
40.435712
40.130819
39.86262
39.633736
39.446448
39.303239
39.208198
39.167426
39.18837
39.279753
39.451866
39.717096
40.08802
40.57963
41.210282
42.000001
42.959973
44.110307
45.473021
47.072181
48.933967
51.086971
53.561582
56.376511
59.520217
62.96308
66.652138
70.509904
74.43458
78.303421
81.986185
85.359837
88.283146
90.625867
92.358182
93.521951
94.225978
94.590592
94.759659
94.788668
94.713796
94.549842
94.227109
93.786888
93.228878
92.523015
91.717284
90.831947
89.895819
88.918748
87.935372
86.939318
85.931665
84.918218
83.902966
82.889026
81.880238
80.879927
79.891239
78.917612
77.961855
77.025649
76.111362
75.221503
74.357291
73.519037
72.707036
71.921331
71.161659
70.427989
69.719638
69.036571
68.377805
67.743371
67.139847
66.577296
65.91289
53.031503
52.36746
51.70255
51.036534
50.369398
49.701184
49.032155
48.362902
47.694346
47.027629
46.363995
45.704753
45.051279
44.405005
43.767247
43.139183
42.522005
41.916946
41.325262
40.748194
40.186429
39.639581
39.107809
38.592243
38.094504
37.616365
37.158931
36.716422
36.283651
35.869195
35.483475
35.133685
34.82495
34.561281
34.346381
34.185434
34.085488
34.055542
34.106414
34.249586
34.498922
34.871563
35.387122
36.065424
36.934554
38.028949
39.388152
41.051107
43.05383
45.424008
48.173988
51.292352
54.735211
58.42162
62.236927
66.027661
69.606081
72.798953
75.475918
77.599976
79.182604
80.302176
81.057115
81.525576
81.797829
81.939454
81.962173
81.88794
81.68042
81.361463
80.92603
80.396833
79.793642
79.124249
78.396511
77.623907
76.816865
75.981571
75.124499
74.252467
73.370846
72.48469
71.599244
70.718701
69.846475
68.986173
68.140979
67.313285
66.504797
65.716786
64.950187
64.205599
63.483523
62.784056
62.10758
61.453483
60.822839
60.219324
59.658569
58.995509
52.97312
52.293984
51.616334
50.939816
50.264009
49.588408
48.912648
48.236656
47.56065
46.885038
46.210309
45.536997
44.86568
44.196985
43.53158
42.870162
42.213467
41.562265
40.917366
40.279617
39.649844
39.028749
38.416982
37.815242
37.224317
36.645082
36.078427
35.524556
34.983125
34.454727
33.941014
33.444205
32.966453
32.503908
32.049699
31.613664
31.208227
30.841449
30.518943
30.244746
30.023816
29.863833
29.774787
29.768722
29.861048
30.072042
30.427073
30.956204
31.698077
32.697953
34.005832
35.672152
37.740482
40.236142
43.153842
46.443018
49.99361
53.641439
57.18949
60.460834
63.317614
65.6913
67.586221
69.027469
70.075474
70.81786
71.311522
71.62833
71.818724
71.890285
71.862785
71.725154
71.49602
71.185286
70.773522
70.286016
69.736106
69.12865
68.472058
67.776208
67.048786
66.296704
65.527413
64.746851
63.960356
63.173385
62.390239
61.614618
60.849658
60.097728
59.360827
58.640494
57.937961
57.254122
56.589928
55.945297
55.322169
54.722454
54.165111
53.505499
52.922246
52.222251
51.524672
50.829532
50.136621
49.44551
48.755783
48.067214
47.379814
46.693762
46.009317
45.32676
44.646384
43.968496
43.293414
42.621468
41.953009
41.288401
40.62803
39.972304
39.32165
38.676502
38.037298
37.404491
36.778555
36.159996
35.54935
34.947119
34.353717
33.769571
33.195242
32.631466
32.079109
31.538515
31.009256
30.492048
29.988897
29.502425
29.033528
28.572503
28.123747
27.702613
27.318938
26.978911
26.687188
26.450906
26.281185
26.193019
26.206438
26.348034
26.651981
27.160791
27.927905
29.014598
30.484077
32.389808
34.7567
37.558966
40.705622
44.049358
47.408546
50.605023
53.503151
56.01086
58.088186
59.75452
61.039188
61.989419
62.678741
63.151746
63.471591
63.661116
63.740401
63.739373
63.647484
63.471725
63.224389
62.889591
62.476471
62.000591
61.469445
60.88923
60.270557
59.621012
58.947663
58.258474
57.55901
56.854572
56.150024
55.449016
54.754882
54.070256
53.397285
52.737787
52.093403
51.46473
50.854494
50.263637
49.713103
49.060408
52.892282
52.177591
51.464534
50.753452
50.044472
49.337483
48.632298
47.928807
47.227041
46.527158
45.829391
45.133998
44.441253
43.751435
43.064825
42.381706
41.702362
41.027078
40.356138
39.689829
39.028434
38.372238
37.721519
37.076555
36.43762
35.804987
35.17893
34.559725
33.947635
33.342917
32.745839
32.156702
31.575845
31.003592
30.440177
29.885884
29.341176
28.806742
28.283275
27.770295
27.267896
26.777933
26.303117
25.844127
25.389576
24.949304
24.539713
24.170414
23.848372
23.582197
23.386301
23.2811
23.294781
23.465616
23.843614
24.489988
25.475479
26.867411
28.709985
31.002146
33.682893
36.633626
39.700672
42.720325
45.546234
48.07836
50.256548
52.057484
53.505353
54.629019
55.468296
56.07877
56.501015
56.777686
56.950575
57.033008
57.042237
56.972423
56.823626
56.607295
56.312647
55.941161
55.511468
55.028941
54.501026
53.939555
53.350174
52.740181
52.116698
51.484712
50.849288
50.214355
49.58321
48.95883
48.343673
47.739185
47.148884
46.573303
46.034708
45.393857
52.877366
52.154651
51.43268
50.711887
49.992546
49.274746
48.558488
47.84379
47.130747
46.419536
45.710395
45.003591
44.299407
43.598137
42.90008
42.205536
41.514803
40.82818
40.145963
39.468445
38.795914
38.128652
37.466934
36.811029
36.161197
35.517687
34.88074
34.250586
33.627441
33.011507
32.402975
31.802022
31.208823
30.623536
30.046306
29.477265
28.916553
28.364343
27.820836
27.286137
26.760331
26.243687
25.736736
25.240003
24.752633
24.275071
23.809665
23.359544
22.917147
22.481691
22.074532
21.708639
21.393896
21.143503
20.979202
20.932272
21.04605
21.377326
21.993219
22.962286
24.340023
26.148057
28.358084
30.887738
33.611084
36.384627
39.069565
41.548889
43.748918
45.630195
47.180541
48.4236
49.385473
50.098422
50.618306
50.982867
51.219643
51.361884
51.433338
51.435362
51.364998
51.22138
51.01736
50.736237
50.386356
49.98701
49.537787
49.049557
48.532174
47.99115
47.433908
46.865707
46.291291
45.715149
45.140682
44.570447
44.008821
43.456365
42.93656
42.314033
52.870774
52.143986
51.417378
50.691387
49.966331
49.242382
48.519634
47.798178
47.078149
46.359733
45.643165
44.92871
44.21665
43.50728
42.800901
42.097818
41.398338
40.702767
40.011411
39.324571
38.642546
37.965631
37.294113
36.628274
35.968388
35.314722
34.667533
34.027069
33.393565
32.767245
32.14832
31.536988
30.93343
30.337814
29.750286
29.170981
28.60001
28.037472
27.483454
26.938022
26.401217
25.873079
25.353673
24.843093
24.341292
23.848268
23.364285
22.889923
22.424806
21.96857
21.523498
21.093121
20.670457
20.257422
19.878389
19.548652
19.282646
19.104036
19.047823
19.161267
19.503433
20.139542
21.129186
22.511122
24.285332
26.403749
28.773681
31.271971
33.769643
36.150316
38.320626
40.226004
41.839962
43.157591
44.20733
45.013431
45.608446
46.037259
46.338997
46.528742
46.633909
46.681652
46.664393
46.579117
46.428697
46.226465
45.944986
45.607609
45.225332
44.800719
44.345122
43.864255
43.364673
42.852751
42.332853
41.809058
41.286701
40.766781
40.274351
39.67828
52.868576
52.139735
51.410746
50.68204
49.953949
49.226686
48.500391
47.775197
47.051253
46.328751
45.607918
44.889006
44.172289
43.458051
42.746586
42.038192
41.33317
40.631821
39.934447
39.241347
38.552816
37.869147
37.190629
36.517543
35.850166
35.188768
34.533611
33.88495
33.243031
32.60809
31.980354
31.360039
30.74735
30.142476
29.545597
28.956876
28.376461
27.804483
27.241057
26.68628
26.140226
25.602955
25.074505
24.554909
24.04417
23.542272
23.04922
22.565066
22.089801
21.623365
21.165972
20.718214
20.279782
19.850684
19.433955
19.034137
18.637536
18.267513
17.946464
17.691934
17.5296
17.497032
17.643472
18.02654
18.706832
19.733343
21.12759
22.871377
24.902323
27.122851
29.415351
31.664757
33.772656
35.664391
37.302959
38.672603
39.778944
40.651183
41.310365
41.791854
42.131772
42.366579
42.501445
42.573486
42.589417
42.546127
42.439382
42.277929
42.060448
41.777569
41.450305
41.080406
40.677112
40.248755
39.800198
39.337682
38.867399
38.391333
37.936632
37.377026
52.868742
52.138861
51.408628
50.678471
49.948732
49.219649
48.491399
47.764138
47.038032
46.313273
45.590082
44.868703
44.149398
43.43244
42.718114
42.006706
41.29851
40.593816
39.892916
39.196102
38.503661
37.815876
37.133029
36.455393
35.783239
35.11683
34.456422
33.802265
33.154602
32.513667
31.879685
31.252874
30.633442
30.021585
29.417492
28.821338
28.233289
27.653496
27.082098
26.51922
25.964972
25.419449
24.882729
24.354876
23.835938
23.325946
22.824921
22.332884
21.849846
21.375805
20.910782
20.454856
20.008054
19.570397
19.142263
18.724517
18.316235
17.919586
17.539353
17.166955
16.820232
16.524329
16.298403
16.170812
16.181342
16.380107
16.822486
17.563757
18.640216
20.057369
21.780368
23.734963
25.820202
27.924074
29.945235
31.801615
33.437772
34.83236
35.977355
36.888902
37.594832
38.116425
38.487889
38.747729
38.915218
38.993963
39.032537
39.015621
38.942894
38.815355
38.64303
38.406911
38.12309
37.800675
37.443082
37.059845
36.657086
36.238649
35.833884
35.323115
52.870227
52.139825
51.408931
50.677969
49.94729
49.217153
48.487763
47.7593
47.031944
46.305893
45.581365
44.858598
44.137848
43.419381
42.703471
41.990399
41.280446
40.573899
39.871039
39.17215
38.47751
37.787395
37.102076
36.42182
35.746887
35.077533
34.414004
33.756542
33.105382
32.460748
31.82286
31.191927
30.568151
29.951723
29.342828
28.74164
28.148322
27.563028
26.985902
26.417077
25.856673
25.304799
24.761552
24.227017
23.701267
23.184363
22.676356
22.177291
21.687206
21.206134
20.734107
20.271162
19.817338
19.372669
18.937231
18.511185
18.094558
17.687621
17.291195
16.904862
16.530606
16.173514
15.825167
15.508957
15.246954
15.059704
14.978496
15.045847
15.311497
15.829734
16.648382
17.789326
19.241145
20.951899
22.836786
24.792769
26.715567
28.518919
30.136437
31.531863
32.696908
33.632696
34.36297
34.912503
35.310202
35.580454
35.76565
35.868201
35.910976
35.9112
35.86159
35.760872
35.615977
35.422445
35.17605
34.893021
34.575657
34.231524
33.890892
33.444322
52.872479
52.141832
51.410587
50.679162
49.947915
49.217125
48.487019
47.757799
47.029661
46.302811
45.577468
44.85387
44.132268
43.412922
42.696103
41.982085
41.271145
40.563561
39.859612
39.159572
38.463715
37.77231
37.085622
36.403911
35.72743
35.056426
34.391141
33.731807
33.07865
32.43189
31.791735
31.158388
30.532042
29.912882
29.301083
28.696812
28.100226
27.511475
26.930695
26.358017
25.793558
25.237428
24.689725
24.150538
23.619945
23.098014
22.584807
22.080377
21.584774
21.098041
20.620222
20.151359
19.691495
19.240673
18.798944
18.366371
17.943013
17.528946
17.124328
16.729218
16.343898
15.969257
15.604924
15.253788
14.921377
14.599829
14.317822
14.094165
13.952555
13.927714
14.064378
14.41331
15.025902
15.938732
17.157492
18.651032
20.350128
22.161701
23.983143
25.721146
27.305991
28.689205
29.853505
30.799114
31.542229
32.106541
32.515747
32.800582
32.991296
33.107203
33.154145
33.164404
33.130422
33.050714
32.92833
32.767455
32.553147
32.302316
32.04189
31.678018
52.875195
52.144454
51.413028
50.68133
49.949721
49.218497
48.487904
47.758166
47.029493
46.302099
45.576211
44.852065
44.129912
43.410012
42.692629
41.978034
41.266503
40.558308
39.853724
39.153023
38.456473
37.76434
37.076884
36.39436
35.717016
35.045096
34.378835
33.71846
33.064193
32.416245
31.774821
31.140116
30.512317
29.891602
29.27814
28.67209
28.073604
27.482823
26.899879
26.324894
25.757981
25.199244
24.648777
24.106664
23.572981
23.047794
22.531161
22.023135
21.523762
21.033084
20.551139
20.077967
19.613605
19.15809
18.711464
18.27377
17.845056
17.425366
17.014759
16.613275
16.220971
15.837998
15.464423
15.100671
14.747837
14.405769
14.078403
13.766704
13.477143
13.232885
13.052898
12.965356
13.00917
13.23122
13.68311
14.410445
15.432851
16.736563
18.268231
19.943076
21.663176
23.331761
24.871817
26.230556
27.382391
28.325713
29.068231
29.635812
30.049992
30.340817
30.532162
30.653665
30.70843
30.721144
30.698433
30.634695
30.531609
30.393025
30.228877
29.968052
52.878203
52.147452
51.415941
50.68408
49.95223
49.220699
48.489752
47.759629
47.030556
46.302758
45.576466
44.851921
44.129375
43.409084
42.691313
41.976333
41.264412
40.555825
39.850841
39.149731
38.45276
37.76019
37.07228
36.389282
35.711441
35.038996
34.37218
33.711218
33.056325
32.407712
31.765578
31.130113
30.501502
29.879916
29.265521
28.658471
28.058912
27.466979
26.882801
26.306493
25.738163
25.177911
24.625823
24.08198
23.546452
23.019301
22.50058
21.990336
21.488607
20.99543
20.510836
20.034852
19.567506
19.108824
18.658831
18.217556
17.785029
17.361278
16.946332
16.540215
16.142942
15.75454
15.375029
15.004471
14.643054
14.290908
13.948674
13.617022
13.297451
12.994579
12.706333
12.451782
12.248719
12.119528
12.097469
12.225659
12.554014
13.131835
13.991774
15.132708
16.515777
18.065641
19.687372
21.283999
22.773281
24.099325
25.228572
26.156419
26.889825
27.451293
27.863349
28.152481
28.342889
28.46374
28.524387
28.538214
28.524662
28.473526
28.405051
28.265282
52.881399
52.150685
51.419148
50.68719
49.955172
49.223413
48.492193
47.761765
47.032372
46.304248
45.577632
44.85277
44.129912
43.409318
42.691253
41.975983
41.263778
40.55491
39.849647
39.148257
38.451005
37.758151
37.06995
36.386653
35.708504
35.03574
34.368591
33.70728
33.052022
32.403022
31.760478
31.124578
30.495504
29.873424
29.258501
28.650886
28.050721
27.458139
26.873264
26.296207
25.727074
25.165959
24.612946
24.06811
23.531518
23.003228
22.483286
21.971736
21.468611
20.97394
20.487746
20.010048
19.540864
19.080206
18.628089
18.184524
17.749524
17.323102
16.905268
16.496027
16.095381
15.703325
15.31985
14.944951
14.578638
14.220932
13.871926
13.531788
13.200856
12.880054
12.569868
12.273497
11.994773
11.736853
11.520289
11.363879
11.295818
11.355065
11.58936
12.049357
12.776019
13.779594
15.03296
16.470095
17.999528
19.525147
20.960576
22.24543
23.344019
24.247806
24.964446
25.512189
25.916604
26.197808
26.385016
26.502254
26.566689
26.585312
26.592334
26.547442
52.88472
52.154071
51.422541
50.690526
49.958389
49.226454
48.495012
47.764333
47.03467
46.306269
45.579376
44.854241
44.131118
43.410269
42.691957
41.97645
41.264016
40.554925
39.849446
39.147844
38.450383
37.757322
37.068915
36.385411
35.707053
35.034077
34.366712
33.705178
33.049689
32.40045
31.757656
31.121494
30.492144
29.869773
29.25454
28.646597
28.046082
27.453126
26.86785
26.290366
25.720773
25.159166
24.605624
24.060221
23.523021
22.994077
22.473434
21.961131
21.457197
20.961657
20.474528
19.995823
19.525551
19.063717
18.610325
18.165374
17.728865
17.300796
16.881162
16.469955
16.067162
15.672763
15.286735
14.90905
14.539676
14.178587
13.825765
13.481213
13.144972
12.817198
12.498085
12.188238
11.888706
11.60084
11.328847
11.073747
10.851363
10.678662
10.579676
10.589423
10.75292
11.121042
11.739458
12.62886
13.771227
15.10899
16.554175
18.010273
19.389521
20.628244
21.690211
22.563399
23.257068
23.784721
24.174592
24.44527
24.627746
24.742424
24.822266
24.849463
52.888124
52.157554
51.426053
50.694009
49.961783
49.229707
48.498081
47.767186
47.037287
46.308641
45.5815
44.856121
44.132762
43.411684
42.693152
41.977435
41.264801
40.555519
39.849855
39.148077
38.450444
37.757217
37.068649
36.384986
35.706472
35.03334
34.365819
33.704129
33.048482
32.399081
31.756122
31.11979
30.490263
29.867709
29.252285
28.64414
28.043412
27.450232
26.864718
26.28698
25.717118
25.155223
24.601373
24.055641
23.518088
22.988766
22.467718
21.95498
21.450579
20.954536
20.466865
19.987576
19.516671
19.054151
18.600013
18.154247
17.716847
17.287799
16.867088
16.454696
16.0506
15.654768
15.267165
14.887751
14.516481
14.153307
13.798181
13.451057
13.111899
12.78069
12.45744
12.142233
11.835281
11.536945
11.248126
10.969727
10.704885
10.456856
10.233449
10.051703
9.9323632
9.906892
10.01756
10.314834
10.847087
11.643042
12.692308
13.943631
15.312355
16.702009
18.024612
19.214249
20.235153
21.072392
21.73606
22.239491
22.612081
22.871634
23.062028
23.178126
52.891585
52.161101
51.42964
50.697584
49.965292
49.2331
48.501317
47.770233
47.040124
46.311255
45.583888
44.858284
44.134704
43.413413
42.694678
41.978767
41.265948
40.55649
39.85066
39.148722
38.450939
37.757567
37.068859
36.385063
35.706419
35.033161
34.365517
33.703706
33.047938
32.398418
31.755339
31.118887
30.489238
29.866558
29.251005
28.642728
28.041863
27.448539
26.862875
26.28498
25.714952
25.15288
24.598844
24.052914
23.515151
22.985604
22.464317
21.951322
21.446647
20.950311
20.462324
19.982694
19.511421
19.048502
18.593929
18.147689
17.709767
17.280147
16.858805
16.445715
16.040847
15.644162
15.255617
14.875163
14.502747
14.138309
13.78179
13.433125
13.092254
12.759116
12.433659
12.115845
11.805666
11.503162
11.208485
10.921885
10.644019
10.375904
10.11957
9.8793425
9.6585254
9.472899
9.3409605
9.2911094
9.3631974
9.606696
10.071745
10.792561
11.764839
12.942165
14.242683
15.570059
16.836722
17.975315
18.950383
19.747233
20.378036
20.855616
21.22435
21.473989
52.895083
52.164687
51.433273
50.701216
49.968874
49.236586
48.504666
47.773414
47.043114
46.314041
45.586463
44.860647
44.136859
43.415366
42.696436
41.980339
41.267344
40.557719
39.851731
39.149644
38.451719
37.758214
37.069379
36.385462
35.706702
35.033334
34.365584
33.703669
33.047802
32.398185
31.75501
31.118464
30.488721
29.865948
29.250301
28.641929
28.040967
27.447545
26.861779
26.283779
25.713642
25.151456
24.597302
24.051247
23.513352
22.983666
22.462232
21.949082
21.444242
20.947729
20.459554
19.979722
19.508232
19.045079
18.59025
18.143733
17.705507
17.275552
16.853841
16.440343
16.035021
15.637835
15.248734
14.867664
14.494566
14.129375
13.772022
13.422438
13.080547
12.746276
12.419552
12.100302
11.788462
11.483979
11.186823
10.897002
10.614608
10.339857
10.073216
9.8157032
9.5686634
9.3356619
9.1202176
8.9347311
8.796051
8.7301892
8.774871
8.9784535
9.3921304
10.053852
10.963943
12.079276
13.320032
14.589674
15.800906
16.886376
17.814001
18.56863
19.181669
19.637519
52.898603
52.168296
51.436931
50.70488
49.9725
49.24013
48.50809
47.776687
47.046213
46.31695
45.589174
44.863157
44.139169
43.417482
42.698364
41.982087
41.26892
40.559133
39.852991
39.150759
38.452698
37.759064
37.070107
36.386075
35.707207
35.033736
34.365888
33.703881
33.047924
32.398221
31.754964
31.118338
30.488517
29.865668
29.249946
28.641499
28.040464
27.446967
26.861127
26.283051
25.712837
25.150573
24.596337
24.050198
23.512216
22.98244
22.460911
21.947663
21.442719
20.946097
20.457807
19.977852
19.506231
19.042937
18.587957
18.141275
17.70287
17.272718
16.850789
16.437051
16.031463
15.633981
15.244553
14.863119
14.489618
14.12398
13.766133
13.416
13.073503
12.73856
12.41109
12.091007
11.778231
11.472679
11.174277
10.882958
10.598676
10.321416
10.051229
9.7882958
9.5329545
9.2860065
9.048645
8.8237828
8.6153307
8.4324442
8.2911946
8.215459
8.2414177
8.4162123
8.7918931
9.4085592
10.270269
11.335108
12.52407
13.739603
14.897842
15.930003
16.829037
17.550713
52.902135
52.171913
51.440599
50.70856
49.97615
49.243709
48.511563
47.780023
47.049388
46.319948
45.591985
44.865777
44.141597
43.419721
42.70042
41.983966
41.270631
40.560684
39.854391
39.152016
38.45382
37.760059
37.070983
36.386839
35.707865
35.034295
34.366352
33.704256
33.048216
32.398433
31.7551
31.118401
30.488511
29.865594
29.249808
28.641298
28.040201
27.446644
26.860744
26.282609
25.712336
25.150012