/*--------------------------------*- C++ -*----------------------------------*\
| =========                 |                                                 |
| \\      /  F ield         | OpenFOAM: The Open Source CFD Toolbox           |
|  \\    /   O peration     | Version:  2206                                  |
|   \\  /    A nd           | Website:  www.openfoam.com                      |
|    \\/     M anipulation  |                                                 |
\*---------------------------------------------------------------------------*/
FoamFile
{
    version     2.0;
    format      ascii;
    arch        "LSB;label=32;scalar=64";
    class       volScalarField;
    location    "1300";
    object      p;
}
// * * * * * * * * * * * * * * * * * * * * * * * * * * * * * * * * * * * * * //

dimensions      [0 2 -2 0 0 0 0];

internalField   nonuniform List<scalar> 
7480
(
0.054676667
0.042423739
0.028303395
0.016497084
0.005891494
0.00044584615
-0.00080876172
0.00020835979
0.0017622325
0.0027934599
0.0032698566
0.003473751
0.0035657472
0.0035955579
0.0035983096
0.0036036156
0.003612849
0.00360814
0.00359282
0.0035760775
0.0035567545
0.0035306759
0.0035006798
0.0034701178
0.0034377181
0.0034010779
0.0033616098
0.0033208611
0.0032779453
0.0032320572
0.0031843089
0.0031354664
0.0030849125
0.0030324574
0.002978963
0.0029250312
0.0028707038
0.0028166468
0.0027641003
0.0027140824
0.0026674342
0.0026257197
0.0025914551
0.0025670219
0.0025567287
0.0025645376
0.0025952141
0.0026477743
0.0027210376
0.0028158034
0.002930349
0.0030618095
0.0032057131
0.0033557591
0.003509754
0.0036612792
0.0037922766
0.0038899428
0.0039462275
0.0039638586
0.0039452855
0.0038970289
0.0038280822
0.0037455558
0.0036545482
0.0035590479
0.0034623963
0.0033658607
0.0032703403
0.0031763778
0.0030840866
0.0029929683
0.0029030474
0.0028142982
0.0027259298
0.0026385259
0.0025511693
0.0024617373
0.00237065
0.0022780333
0.0021846959
0.0020902365
0.0019935003
0.0018955539
0.0017954932
0.0016939625
0.0015907886
0.0014860332
0.0013803297
0.0012732733
0.0011661679
0.001058705
0.00095270908
0.00084756487
0.00075008439
0.00064685517
0.00059446703
0.00031167532
0.00083785503
-0.00087447861
0.049699578
0.039187873
0.027237594
0.016348092
0.0064920743
0.0012468539
-0.00010195532
0.00067786059
0.0019891029
0.0029173447
0.0033475643
0.0035329421
0.0036165708
0.0036395607
0.0036384071
0.0036423913
0.0036454514
0.0036352037
0.003616829
0.0035977107
0.0035762193
0.0035481747
0.0035165631
0.0034846117
0.0034509367
0.0034131384
0.0033726687
0.003331024
0.003287273
0.0032406207
0.0031921906
0.0031427229
0.0030915825
0.003038585
0.0029845923
0.0029301939
0.0028754241
0.0028209495
0.002768006
0.0027176047
0.0026705827
0.0026285044
0.0025938828
0.0025690944
0.002558535
0.0025662858
0.0025963344
0.0026484224
0.0027213761
0.0028158424
0.0029301189
0.0030613465
0.003205056
0.0033549575
0.0035088662
0.0036603571
0.0037913757
0.0038891447
0.0039455724
0.0039633629
0.0039449993
0.003896923
0.0038281216
0.0037457095
0.0036547844
0.0035593398
0.0034627227
0.0033662055
0.0032706921
0.0031767289
0.0030844316
0.002993304
0.0029033718
0.0028146101
0.0027262289
0.0026388127
0.0025514498
0.0024620172
0.0023709266
0.0022783038
0.0021849597
0.0020904939
0.0019937521
0.0018958006
0.0017957349
0.0016941992
0.0015910203
0.0014862596
0.0013805506
0.0012734887
0.0011663776
0.0010589089
0.00095290735
0.0008477574
0.00075027247
0.00064703543
0.00059471283
0.00031265571
0.00084006962
-0.00087394761
0.045640138
0.037507177
0.026874341
0.016622369
0.0078665942
0.0027753074
0.0010708721
0.0013396509
0.0023254801
0.0031016686
0.0034685212
0.0036338206
0.0037047179
0.0037126722
0.0037025691
0.0036995456
0.0036939047
0.0036762864
0.0036531253
0.0036303037
0.00360521
0.0035737904
0.0035396359
0.0035055547
0.0034698367
0.0034301988
0.0033882533
0.0033453401
0.0033003853
0.0032526359
0.0032032724
0.0031529674
0.0031010332
0.0030473091
0.0029926699
0.0029376746
0.0028823405
0.0028273456
0.0027739221
0.0027230641
0.0026756
0.0026330995
0.0025980722
0.0025728869
0.002561999
0.002569825
0.0025993171
0.0026506447
0.0027232255
0.0028173137
0.002931231
0.0030621182
0.0032055056
0.0033551206
0.0035088133
0.0036601368
0.0037910121
0.0038887459
0.0039452543
0.0039631392
0.0039449971
0.0038971183
0.0038284862
0.0037462164
0.0036553966
0.0035600224
0.0034634473
0.003366948
0.0032714358
0.0031774619
0.0030851456
0.0029939936
0.0029040343
0.0028152436
0.0027268326
0.0026393872
0.0025519953
0.0024625404
0.0023714337
0.0022787932
0.0021854318
0.0020909496
0.0019941929
0.0018962285
0.0017961505
0.0016946034
0.0015914132
0.0014866415
0.0013809215
0.0012738486
0.0011667267
0.0010592472
0.00095323526
0.00084807445
0.00075058215
0.0006473284
0.00059511312
0.0003142322
0.00084399392
-0.0008733141
0.042919357
0.036205636
0.026519529
0.0169219
0.0091528256
0.0042378847
0.0021525364
0.0020334366
0.0027173873
0.0033391331
0.0036504662
0.003791388
0.0038391542
0.0038174685
0.003786835
0.0037719474
0.0037556975
0.0037275922
0.0036978331
0.0036707037
0.0036411581
0.003605205
0.0035678496
0.0035311944
0.0034928585
0.0034507933
0.0034070516
0.0033626813
0.0033163043
0.0032672682
0.0032168993
0.0031657334
0.0031129683
0.0030585014
0.0030032464
0.0029477026
0.0028918572
0.0028364273
0.0027826453
0.0027314691
0.0026837097
0.0026409535
0.0026057051
0.0025803257
0.00256921
0.0025775167
0.0026068793
0.0026573473
0.0027296303
0.0028233723
0.0029368847
0.0030673181
0.0032101908
0.0033592576
0.0035124298
0.0036632193
0.0037935547
0.0038907788
0.0039470609
0.0039647124
0.0039465185
0.0038986629
0.0038300763
0.0037478646
0.0036570894
0.0035617375
0.0034651628
0.00336864
0.0032730876
0.0031790613
0.0030866837
0.0029954641
0.0029054356
0.0028165742
0.0027280915
0.0026405761
0.0025530832
0.0024635294
0.0023723659
0.0022796782
0.0021862732
0.00209175
0.001994956
0.0018969593
0.0017968512
0.0016952772
0.0015920615
0.001487266
0.0013815233
0.0012744283
0.0011672858
0.0010597857
0.00095375483
0.00084857438
0.00075106827
0.00064778732
0.0005957287
0.00031672712
0.00085042354
-0.00087225646
0.040450192
0.034611994
0.025894736
0.017274115
0.010220577
0.0054442141
0.0031913753
0.002802032
0.0031936328
0.0036380601
0.0038723526
0.0039626516
0.0039784068
0.0039388219
0.0038972197
0.0038726303
0.0038434878
0.0037996903
0.0037589899
0.0037250292
0.0036890326
0.0036467377
0.0036051423
0.003565371
0.003523793
0.0034785395
0.0034324704
0.0033862241
0.0033379463
0.0032871789
0.0032355222
0.0031832908
0.0031294954
0.0030741411
0.0030182156
0.002962114
0.00290576
0.0028499473
0.0027959287
0.0027445925
0.0026967124
0.002653903
0.0026186593
0.0025933133
0.0025822774
0.0025912182
0.0026205611
0.0026704271
0.0027424176
0.0028357401
0.0029487093
0.0030784765
0.0032205337
0.0033686837
0.0035209743
0.0036709161
0.0038002654
0.0038963854
0.003952059
0.0039690333
0.0039503675
0.003902282
0.0038335484
0.0037512505
0.0036604057
0.0035649818
0.0034683273
0.0033717072
0.0032760462
0.0031819023
0.0030893993
0.0029980493
0.0029078925
0.0028189026
0.002730291
0.0026426493
0.0025549914
0.0024652763
0.0023740043
0.0022812214
0.0021877292
0.0020931245
0.0019962555
0.0018981932
0.0017980244
0.0016963962
0.00159313
0.0014882879
0.0013825019
0.0012753656
0.0011681847
0.0010606476
0.00095458265
0.00084936803
0.00075183554
0.00064851417
0.00059667262
0.00032043257
0.00085993508
-0.00087022765
0.038136574
0.033019625
0.025306331
0.017585809
0.011105293
0.0065411958
0.0041904914
0.0035494783
0.0036914628
0.0039607088
0.0041069557
0.0041450934
0.0041299274
0.0040760591
0.0040211088
0.0039779704
0.003933361
0.0038797519
0.003832259
0.0037923839
0.0037488202
0.003698631
0.0036511243
0.003607139
0.0035614835
0.0035123386
0.003463573
0.0034152419
0.0033647961
0.0033120202
0.0032589127
0.0032054897
0.0031505243
0.0030942187
0.0030377071
0.0029812298
0.0029244841
0.0028683331
0.0028141546
0.0027627725
0.0027149119
0.0026722273
0.0026372032
0.002612114
0.0026014331
0.0026107781
0.0026399091
0.0026894115
0.0027608768
0.0028535081
0.0029656704
0.0030944891
0.003235397
0.0033822575
0.0035333241
0.003682041
0.003809905
0.0039044707
0.0039593181
0.0039753304
0.0039559154
0.0039075053
0.0038385493
0.0037561004
0.0036651237
0.003569569
0.0034727812
0.0033760117
0.0032801923
0.0031858822
0.003093203
0.0030016742
0.0029113469
0.0028221865
0.0027334025
0.0026455898
0.0025577463
0.0024678575
0.0023764384
0.002283512
0.0021898865
0.002095156
0.0019981698
0.0019000035
0.0017997381
0.0016980231
0.0015946764
0.0014897602
0.0013839057
0.0012767042
0.0011694633
0.0010618692
0.00095575179
0.00085048601
0.00075291032
0.00064953668
0.00059798205
0.00032547454
0.00087264045
-0.00086676744
0.036035299
0.031540902
0.024753503
0.017815107
0.011863156
0.007539377
0.0051265734
0.0042578367
0.0041758512
0.0042916873
0.0043528198
0.0043408958
0.0042936815
0.0042217499
0.0041493331
0.0040874042
0.0040289093
0.0039672187
0.0039116449
0.0038620792
0.0038101087
0.0037546838
0.0037030844
0.0036551741
0.0036049068
0.003551357
0.0034993165
0.0034482935
0.0033951594
0.0033400261
0.0032853105
0.0032306039
0.0031743484
0.003117017
0.0030599417
0.0030031349
0.002946036
0.0028896439
0.0028354801
0.0027842702
0.0027366762
0.0026944233
0.0026600099
0.0026357419
0.0026252422
0.0026339988
0.0026628858
0.0027122797
0.0027833138
0.0028752626
0.0029864888
0.0031140617
0.0032534584
0.0033987718
0.0035475151
0.0036932676
0.0038189643
0.0039120649
0.0039664631
0.0039817154
0.003961699
0.0039131943
0.0038441917
0.0037617187
0.0036706918
0.0035750563
0.0034781638
0.0033812547
0.003285276
0.0031907922
0.0030979238
0.0030061988
0.0029156814
0.0028263277
0.0027373443
0.0026493316
0.0025612793
0.0024711974
0.0023796032
0.0022864979
0.0021927019
0.0020978078
0.0020006672
0.001902362
0.0018019661
0.0017001333
0.0015966767
0.0014916593
0.0013857114
0.0012784214
0.0011710992
0.0010634283
0.00095723992
0.00085190606
0.00075426911
0.00065083356
0.00059963303
0.00033179693
0.00088818998
-0.00086174031
0.034136531
0.030158914
0.024186615
0.017958485
0.012509735
0.0084305294
0.0059893608
0.0049353257
0.0046581687
0.0046326913
0.0046088238
0.004545615
0.0044642034
0.004370829
0.0042805488
0.0042018976
0.0041299971
0.0040588511
0.0039935327
0.0039339999
0.0038747975
0.0038147176
0.0037583426
0.003704857
0.0036497908
0.0035930828
0.0035384775
0.0034847729
0.0034286671
0.0033708955
0.0033143144
0.0032580772
0.0032001156
0.0031412868
0.0030832814
0.0030257886
0.0029680509
0.0029112982
0.0028571385
0.0028061528
0.0027589221
0.0027172719
0.0026837356
0.0026606435
0.0026503737
0.0026582659
0.0026868
0.0027361702
0.0028068976
0.0028982186
0.0030084059
0.0031344349
0.0032720858
0.0034159158
0.0035613788
0.0037026791
0.0038258299
0.0039178387
0.0039722593
0.0039871461
0.0039668909
0.0039186349
0.0038498567
0.003767575
0.0036766622
0.0035810687
0.0034841584
0.0033871647
0.0032910638
0.0031964315
0.0031033911
0.0030114762
0.0029207655
0.0028312087
0.0027420107
0.0026537801
0.0025654971
0.0024752003
0.0023834116
0.0022901033
0.0021961101
0.0021010233
0.0020036978
0.0019052247
0.0018046696
0.0017026918
0.0015990992
0.0014939562
0.001387892
0.0012804925
0.0011730699
0.0010653036
0.00095902655
0.00085360863
0.00075589234
0.00065238698
0.00060159244
0.00033927493
0.00090605365
-0.00085527259
0.032415757
0.028867329
0.023612016
0.018037632
0.01305971
0.0092214182
0.0067833995
0.0055844229
0.0051369576
0.0049799192
0.0048724427
0.0047571185
0.0046406069
0.0045241364
0.0044152307
0.0043200327
0.0042342597
0.0041525635
0.0040776717
0.0040091329
0.0039427858
0.0038772386
0.003815327
0.0037562416
0.0036969306
0.0036371594
0.0035794374
0.0035223909
0.0034634577
0.0034036937
0.0033455098
0.0032876068
0.0032277193
0.0031672068
0.0031080809
0.0030497009
0.0029911009
0.0029336513
0.0028790345
0.0028278003
0.002780486
0.0027390232
0.0027059868
0.0026836053
0.0026738737
0.0026816781
0.0027098331
0.0027587942
0.0028289143
0.0029194249
0.0030285089
0.003153051
0.0032890953
0.0034315167
0.0035741956
0.0037112992
0.0038315392
0.0039224065
0.0039767538
0.003991485
0.0039712976
0.0039235302
0.0038551634
0.0037732631
0.0036826421
0.0035872267
0.0034904039
0.003393408
0.0032972515
0.0032025206
0.0031093442
0.0030172665
0.0029263828
0.0028366345
0.0027472247
0.0026587749
0.0025702525
0.0024797306
0.0023877394
0.0022942166
0.0022000119
0.0021047151
0.0020071852
0.0019085244
0.0018077895
0.0017056467
0.0016018982
0.0014966101
0.0013904112
0.0012828844
0.0011753449
0.0010674672
0.00096108611
0.00085557009
0.00075775749
0.00065417636
0.00060381732
0.00034776028
0.00092564698
-0.00084741808
0.030852365
0.027667476
0.023041121
0.018062653
0.013521
0.0099189331
0.0075107757
0.0062015374
0.0056069411
0.0053295136
0.0051419664
0.0049749842
0.0048228613
0.0046819209
0.0045537365
0.0044416377
0.0043418012
0.0042489594
0.0041640351
0.004086618
0.0040128909
0.0039413598
0.0038740011
0.0038097591
0.003746166
0.0036828341
0.0036217028
0.0035614506
0.0034999344
0.0034381435
0.0033779011
0.0033179252
0.0032563193
0.0031945637
0.0031344396
0.0030750603
0.0030154412
0.0029570895
0.0029018161
0.0028500988
0.0028023739
0.0027606646
0.0027275863
0.0027052055
0.0026955125
0.0027031357
0.0027308087
0.0027790928
0.0028483725
0.002937926
0.0030459136
0.0031691754
0.0033038011
0.0034447497
0.0035855485
0.0037199112
0.0038376535
0.0039264806
0.0039797539
0.0039944509
0.0039745593
0.0039273982
0.0038596166
0.0037783263
0.0036881944
0.0035930819
0.0034964667
0.0033995883
0.0033034672
0.003208708
0.0031154585
0.0030232746
0.0029322654
0.0028423605
0.0027527635
0.0026641126
0.0025753601
0.0024846198
0.0023924331
0.0022986979
0.0022042821
0.0021087721
0.002011031
0.0019121747
0.00181125
0.0017089315
0.001605015
0.0014995696
0.0013932234
0.0012855564
0.0011778877
0.0010698864
0.00096338878
0.00085776328
0.00075983916
0.00065617854
0.00060625911
0.0003571073
0.00094639874
-0.00083810761
0.029428916
0.026557084
0.022478863
0.018038372
0.013900853
0.010529953
0.0081729308
0.0067839167
0.0060650387
0.0056793537
0.0054161832
0.0051984716
0.0050104449
0.0048439687
0.0046958806
0.0045666207
0.0044524173
0.0043480105
0.004252917
0.0041664783
0.0040852745
0.0040075026
0.0039343221
0.0038648822
0.0037969492
0.003729816
0.003665291
0.0036020246
0.0035378614
0.0034737279
0.0034113007
0.0033494288
0.0032862679
0.0032232254
0.0031617623
0.0031011717
0.0030406314
0.0029815363
0.002925697
0.0028734597
0.0028252175
0.0027830702
0.002749689
0.0027269573
0.0027167962
0.00272377
0.0027506526
0.0027979457
0.0028660056
0.0029542146
0.0030607707
0.003182504
0.0033155222
0.0034548816
0.0035941613
0.0037269562
0.003843146
0.0039300911
0.0039824212
0.0039970962
0.0039767968
0.0039298116
0.0038628368
0.0037823862
0.003692865
0.0035981883
0.0035019571
0.0034053503
0.0033093523
0.0032146474
0.0031214233
0.0030292124
0.0029381374
0.0028481276
0.0027583869
0.00266957
0.0025806145
0.002489682
0.0023973237
0.002303394
0.0022087832
0.0021130723
0.0020151274
0.001916081
0.0018149682
0.0017124739
0.0016083869
0.0015027798
0.0013962807
0.0012884664
0.0011806609
0.0010725276
0.00096590445
0.00086016097
0.00076211212
0.00065837057
0.00060886799
0.00036718198
0.00096777431
-0.00082721277
0.028130178
0.025531256
0.021928972
0.017971201
0.014207805
0.011061718
0.0087721843
0.007330117
0.0065088431
0.0060271669
0.0056933398
0.005426347
0.0052025626
0.0050099085
0.004841436
0.0046948442
0.0045660361
0.0044497378
0.0043443221
0.0042487175
0.0041598185
0.0040755754
0.0039964655
0.0039217391
0.0038493521
0.0037784297
0.0037102523
0.0036437238
0.0035769546
0.0035103952
0.0034457729
0.0033820766
0.0033173105
0.0032527848
0.0031899207
0.0031282695
0.0030669005
0.0030070342
0.0029504457
0.0028975919
0.0028488967
0.0028063288
0.002772589
0.0027494199
0.0027386834
0.0027448253
0.0027706717
0.0028166775
0.0028831355
0.0029695649
0.0030742245
0.0031939515
0.00332491
0.0034623181
0.0035998453
0.0037309632
0.0038456664
0.0039317327
0.0039840279
0.0039989042
0.0039785392
0.0039319084
0.0038657076
0.0037855234
0.0036962919
0.0036022577
0.0035066125
0.0034103534
0.0033145683
0.0032200494
0.0031269762
0.0030348055
0.002943726
0.0028536836
0.0027638524
0.0026749158
0.0025858052
0.0024947264
0.0024022364
0.0023081467
0.0022133747
0.0021174899
0.0020193625
0.0019201452
0.0018188586
0.0017161993
0.0016119489
0.0015061842
0.0013995338
0.0012915712
0.0011836267
0.0010753574
0.00096860333
0.00086273641
0.00076455177
0.00066073027
0.00061159433
0.00037785939
0.00098926388
-0.00081457342
0.026942788
0.024584193
0.021394792
0.017867911
0.01444968
0.011520729
0.0093110849
0.0078391005
0.0069359178
0.0063705073
0.0059715793
0.0056573912
0.0053984745
0.0051793926
0.0049902098
0.0048261637
0.0046825767
0.0045541023
0.0044381898
0.0043332939
0.0042365042
0.004145599
0.0040604713
0.0039803532
0.0039033702
0.0038285272
0.0037566037
0.0036867469
0.003617281
0.0035483715
0.0034814239
0.0034156301
0.0033492571
0.0032832581
0.0032189944
0.0031562746
0.003094042
0.0030333145
0.0029759517
0.002922576
0.0028734706
0.0028304338
0.0027962416
0.0027726107
0.0027613271
0.0027666244
0.0027913555
0.0028359276
0.0029005912
0.0029849921
0.0030874474
0.0032047927
0.0033332627
0.0034682651
0.0036035755
0.0037325807
0.0038455126
0.0039307199
0.0039828237
0.0039981612
0.0039787621
0.0039333328
0.0038679917
0.0037881157
0.0036994401
0.0036061127
0.00351057
0.0034143102
0.0033188989
0.0032247318
0.0031318433
0.0030397626
0.0029487835
0.0028588065
0.0027689321
0.0026799377
0.0025907459
0.0024995742
0.0024070025
0.0023128045
0.0022179183
0.0021218975
0.0020236224
0.0019242665
0.0018228313
0.0017200287
0.0016156319
0.0015097224
0.0014029299
0.001294825
0.001186745
0.0010783405
0.00097145425
0.00086546187
0.00076713283
0.00066323505
0.00061438843
0.00038901655
0.0010103492
-0.00080001261
0.025854985
0.023709773
0.020878734
0.017734665
0.014633497
0.011913059
0.009792509
0.008310338
0.007344135
0.0067071444
0.0062491758
0.0058904222
0.0055974053
0.0053519863
0.0051419352
0.0049603792
0.0048019087
0.004661036
0.0045344728
0.0044201807
0.0043153372
0.0042175899
0.0041263339
0.0040407183
0.0039590075
0.0038801058
0.0038043878
0.0037311433
0.0036588742
0.0035875325
0.0035181887
0.0034502453
0.0033822203
0.0033147663
0.0032490903
0.0031851058
0.00312192
0.0030603875
0.0030022491
0.0029483216
0.0028987786
0.0028552296
0.0028205949
0.0027965454
0.0027846959
0.0027890959
0.0028126366
0.0028557329
0.0029185909
0.0030009051
0.0031010298
0.0032158052
0.003341546
0.0034738397
0.0036065714
0.0037330736
0.0038438473
0.0039278487
0.0039794151
0.0039950797
0.0039767406
0.0039326437
0.0038684482
0.0037897017
0.0037021635
0.0036095575
0.0035140932
0.0034180489
0.003323092
0.003228847
0.0031357896
0.0030439155
0.0029531668
0.0028632732
0.0027734137
0.0026844722
0.0025952828
0.0025040607
0.0024114749
0.0023172351
0.0022222811
0.00212617
0.0020277941
0.0019283406
0.0018267908
0.0017238767
0.0016193594
0.0015133266
0.0014064097
0.0012981758
0.0011899704
0.0010814375
0.00097442258
0.00086830685
0.00076982782
0.00066586067
0.00061720006
0.00040052548
0.0010304598
-0.00078335719
0.024856373
0.022901855
0.02038227
0.017577045
0.01476586
0.012244569
0.010219608
0.0087437989
0.0077317341
0.0070350404
0.0065244457
0.0061242061
0.0057984977
0.005527166
0.0052962876
0.0050972578
0.0049238767
0.0047704546
0.0046331149
0.0045093385
0.004396302
0.0042915475
0.0041940529
0.0041028443
0.0040162853
0.0039331995
0.0038536249
0.0037769184
0.0037017408
0.0036278706
0.0035560977
0.003485975
0.0034162242
0.0033472587
0.0032801283
0.0032148334
0.003150663
0.0030883321
0.0030294228
0.0029748001
0.002924741
0.0028807096
0.0028456184
0.0028211643
0.0028087026
0.0028121406
0.0028344818
0.0028761164
0.0029371586
0.003017329
0.003115029
0.0032271592
0.0033501085
0.0034795886
0.0036095714
0.0037333572
0.0038417073
0.0039241964
0.0039748799
0.0039905852
0.0039732861
0.0039302861
0.0038672563
0.0037897575
0.0037033314
0.0036115864
0.0035168365
0.0034215115
0.0033269885
0.0032326009
0.0031395636
0.0030479466
0.002957023
0.0028669206
0.0027772059
0.0026884167
0.0025992348
0.0025080281
0.0024155376
0.0023213162
0.0022263317
0.0021301969
0.0020317734
0.0019322621
0.0018306388
0.001727653
0.0016230472
0.001516921
0.0014099061
0.0013015642
0.0011932509
0.0010846026
0.00097746841
0.00087123633
0.00077260549
0.00066857991
0.00061997826
0.000412248
0.0010489271
-0.00076445583
0.023937752
0.022154503
0.019906125
0.017400049
0.014852975
0.012520833
0.01059564
0.0091398532
0.0080972939
0.0073523278
0.0067957497
0.0063574889
0.0060008535
0.0057043547
0.0054529008
0.0052365388
0.0050482991
0.0048822486
0.0047340413
0.0046007114
0.004479369
0.0043674632
0.0042636264
0.0041667367
0.0040752182
0.0039878297
0.0039043283
0.0038240886
0.0037459051
0.0036694208
0.0035951801
0.0035228313
0.0034512745
0.0033807378
0.0033121207
0.0032454947
0.0031802977
0.0031171248
0.0030574151
0.0030020611
0.0029514533
0.0029069828
0.0028713149
0.0028463448
0.0028333289
0.0028358106
0.0028569219
0.0028970514
0.0029562259
0.003034197
0.0031294341
0.0032388997
0.0033590278
0.0034856216
0.0036127423
0.0037337285
0.0038395765
0.0039204267
0.0039700754
0.0039856701
0.0039691515
0.0039270131
0.0038649947
0.0037886055
0.0037032196
0.0036123975
0.0035184663
0.0034238004
0.0033297547
0.0032357307
0.0031431542
0.0030517532
0.0029605971
0.0028704741
0.0027808674
0.0026918326
0.0026024772
0.0025114259
0.00241908
0.0023248849
0.0022299499
0.0021338874
0.0020354571
0.0019359277
0.0018342843
0.0017312665
0.0016266078
0.0015204262
0.0014133463
0.0013049237
0.001196527
0.0010877829
0.00098054507
0.00087420912
0.00077542931
0.00067136112
0.0006226716
0.00042403236
0.001064949
-0.00074319684
0.023090957
0.021462114
0.01945044
0.017208047
0.014900597
0.012747109
0.010923909
0.0094992318
0.0084397473
0.0076573429
0.007061532
0.0065890298
0.0062035514
0.0058829266
0.0056113606
0.0053779245
0.0051749627
0.0049962806
0.0048371574
0.00469423
0.0045644969
0.0044453197
0.0043350457
0.0042323934
0.0041358135
0.0040440115
0.0039565116
0.0038726713
0.0037913911
0.0037122093
0.0036354542
0.0035608306
0.0034873948
0.003415232
0.0033450954
0.0032771071
0.0032108314
0.0031467703
0.0030862314
0.0030301272
0.0029789398
0.0029339927
0.0028977557
0.0028721562
0.0028585324
0.0028601206
0.0028799384
0.0029184874
0.0029757574
0.0030514966
0.003144213
0.0032509743
0.0033682678
0.0034919203
0.0036161197
0.0037342827
0.0038375984
0.0039167409
0.0039652894
0.0039806905
0.003964838
0.0039234627
0.0038623594
0.0037868594
0.0037023797
0.003612381
0.0035191945
0.0034251152
0.0033315796
0.0032379981
0.0031458098
0.0030546493
0.0029637037
0.0028739123
0.0027843317
0.0026950343
0.0026057021
0.0025146461
0.0024220471
0.002327849
0.0022331053
0.0021371125
0.0020387087
0.001939243
0.0018376401
0.0017346232
0.0016299624
0.0015237675
0.0014166563
0.0013081844
0.0011997342
0.0010909189
0.00098359886
0.0008771769
0.00077825637
0.000674167
0.00062522892
0.00043571191
0.0010775903
-0.00071952687
0.02230873
0.020819489
0.019014924
0.017004778
0.014914014
0.012928361
0.011207732
0.0098229746
0.008758372
0.0079486414
0.007320337
0.006817613
0.006405651
0.0060622102
0.0057712055
0.0055210817
0.0053036246
0.005112386
0.0049423491
0.0047898103
0.0046516317
0.0045250882
0.0044082935
0.0042998055
0.0041980734
0.0041017566
0.0040101868
0.0039226808
0.0038382185
0.0037562572
0.0036769379
0.0035999928
0.0035246099
0.0034507649
0.0033790724
0.003309687
0.0032422832
0.0031772911
0.0031158949
0.0030590144
0.0030072075
0.0029617395
0.0029249093
0.0028986436
0.0028843642
0.002885034
0.0029035121
0.0029404253
0.0029957589
0.0030692278
0.0031593839
0.0032634019
0.0033778092
0.0034984634
0.0036196848
0.0037349793
0.0038357462
0.0039131362
0.0039605796
0.0039757691
0.0039605325
0.0039198771
0.0038596308
0.0037849757
0.0037013759
0.0036120159
0.0035194629
0.0034258787
0.0033327682
0.003239538
0.0031476788
0.0030567895
0.0029661085
0.0028765492
0.0027870686
0.0026979247
0.0026088396
0.0025176598
0.0024248718
0.0023308334
0.0022360068
0.0021397427
0.0020414568
0.001942138
0.0018405773
0.0017376262
0.0016330427
0.0015268706
0.0014197645
0.0013112805
0.0012028068
0.0010939483
0.00098657101
0.00088008575
0.00078103789
0.00067695434
0.00062760055
0.00044710643
0.001085857
-0.00069346781
0.021584616
0.02022186
0.018598979
0.016793386
0.014898038
0.013069258
0.0114504
0.010112368
0.0090527665
0.0082250071
0.0075708238
0.0070420614
0.0066062065
0.0062415002
0.0059319334
0.005665643
0.0054340124
0.0052303734
0.0050494812
0.0048873524
0.0047407047
0.0046067278
0.004483344
0.0043689574
0.0042619942
0.0041610714
0.0040653622
0.0039741282
0.0038864038
0.0038015842
0.0037196496
0.0036403368
0.0035629416
0.0034873572
0.0034140703
0.003343253
0.0032746741
0.0032087073
0.0031464229
0.0030887368
0.0030362704
0.00299024
0.0029527871
0.0029258273
0.0029108394
0.0029105472
0.0029276534
0.0029628936
0.0030162528
0.0030874087
0.0031749594
0.0032761788
0.0033876397
0.0035052422
0.0036234376
0.0037358348
0.003834052
0.0039095813
0.0039559354
0.0039709118
0.0039562109
0.0039162618
0.0038568445
0.0037831295
0.003700401
0.0036116332
0.003519563
0.0034265051
0.0033337563
0.0032407181
0.0031490797
0.0030583904
0.0029679049
0.0028785241
0.0027891799
0.0027002091
0.0026112435
0.0025201127
0.0024275462
0.0023337367
0.0022387085
0.0021423249
0.0020441272
0.0019446489
0.0018430229
0.0017402546
0.0016357432
0.0015296316
0.0014225958
0.0013141449
0.0012056787
0.0010968121
0.00098940197
0.0008828817
0.00078372224
0.00067967603
0.00062974089
0.00045802747
0.0010888846
-0.00066512668
0.020912867
0.019664888
0.018201806
0.016576479
0.014857001
0.013174169
0.011655142
0.010368893
0.0093228259
0.0084854579
0.0078117826
0.0072612529
0.0068042795
0.006420068
0.0060930063
0.0058112082
0.0055658247
0.005350024
0.005158396
0.0049867389
0.0048316327
0.0046901847
0.0045601615
0.004439826
0.0043275653
0.0042219564
0.0041220421
0.0040270209
0.0039359607
0.0038482078
0.003763606
0.0036818796
0.0036024099
0.003525029
0.0034501081
0.0033778239
0.0033080234
0.0032410374
0.0031778317
0.0031193097
0.0030661445
0.0030195094
0.0029814028
0.0029537149
0.0029379651
0.0029366685
0.0029523742
0.002985902
0.0030372429
0.0031060424
0.0031909423
0.003289311
0.0033977734
0.0035122761
0.0036273975
0.0037368584
0.003832504
0.0039060996
0.003951355
0.0039661015
0.0039518895
0.0039126339
0.0038540398
0.0037812618
0.0036993529
0.0036113727
0.0035196442
0.0034271755
0.0033347295
0.0032418402
0.0031503545
0.0030597535
0.0029693556
0.0028800728
0.0027908072
0.002701952
0.0026130682
0.0025220451
0.0024296718
0.0023359806
0.0022410275
0.0021448767
0.0020466922
0.0019470516
0.0018455159
0.0017427008
0.0016379612
0.0015319974
0.0014250763
0.0013166757
0.0012082758
0.0010994486
0.00099203261
0.00088551636
0.0007862591
0.00068228558
0.00063161449
0.00046828754
0.0010861462
-0.0006346926
0.02028836
0.019144651
0.017822486
0.016356191
0.014794763
0.013247151
0.011825101
0.010594177
0.0095687112
0.0087292455
0.0080421466
0.0074741344
0.0069989516
0.0065971717
0.0062538569
0.0059573466
0.005698732
0.0054710924
0.0052689131
0.0050878343
0.0049243165
0.0047753913
0.0046386999
0.0045123796
0.0043947689
0.0042844058
0.0041802262
0.0040813629
0.0039868995
0.003896143
0.0038088219
0.0037246364
0.0036430331
0.0035637997
0.0034872042
0.0034134171
0.0033423495
0.0032742993
0.0032101376
0.0031507484
0.0030968445
0.0030495614
0.0030107676
0.0029823156
0.0029657517
0.0029634085
0.0029776826
0.0030094563
0.0030587345
0.0031251355
0.0032073401
0.0033028078
0.0034082206
0.0035195742
0.0036315719
0.003738062
0.0038310635
0.0039027289
0.0039468581
0.0039613396
0.0039475643
0.0039089875
0.0038512257
0.0037793819
0.003698281
0.0036110943
0.0035197845
0.0034278469
0.0033356971
0.0032430326
0.0031516717
0.0030610998
0.0029707511
0.0028814852
0.0027921895
0.0027033583
0.0026144927
0.0025235324
0.0024313011
0.0023377166
0.0022429046
0.0021468986
0.0020487732
0.0019492831
0.0018479676
0.0017449969
0.0016401762
0.0015342897
0.0014272095
0.0013188184
0.0012105576
0.001101763
0.00099439746
0.00088793475
0.00078859614
0.00068473818
0.00063320447
0.00047771397
0.0010775466
-0.00060243579
0.01970653
0.018657619
0.017460039
0.016134247
0.014714732
0.013291951
0.011963312
0.010789954
0.0097908165
0.0089558487
0.0082610015
0.0076797336
0.0071893365
0.0067720668
0.0064138955
0.0061036001
0.0058323784
0.0055933071
0.0053808289
0.0051904843
0.005018641
0.004862266
0.0047189016
0.0045865772
0.0044635791
0.0043484071
0.0042399092
0.004137154
0.0040392266
0.0039454012
0.0038553097
0.0037686206
0.0036848281
0.0036036872
0.0035253757
0.0034500493
0.0033776698
0.0033085101
0.0032433567
0.0031830675
0.0031283846
0.0030804095
0.0030408926
0.0030116394
0.0029942098
0.0029907758
0.0030035847
0.0030335633
0.0030807349
0.0031446953
0.0032241604
0.0033166773
0.0034189893
0.0035271447
0.0036359705
0.0037394565
0.0038297451
0.0038994818
0.0039424507
0.0039566292
0.0039432375
0.0039053246
0.003848392
0.0037774797
0.0036972064
0.0036107221
0.003520039
0.0034285302
0.0033366695
0.0032442542
0.0031530186
0.0030625234
0.0029722403
0.0028829317
0.0027935522
0.0027046876
0.0026157467
0.0025247555
0.0024325906
0.0023390697
0.0022443684
0.0021484654
0.0020504313
0.0019510883
0.001849885
0.0017469835
0.001642389
0.0015364981
0.0014293017
0.0013209676
0.0012126177
0.0011037075
0.00099648228
0.00089004391
0.00079066104
0.00068697513
0.00063449533
0.00048617009
0.0010633826
-0.00056873379
0.019163307
0.018200629
0.017113471
0.015912028
0.014619891
0.013312002
0.01207268
0.010958024
0.0099897353
0.0091649615
0.0084675908
0.0078771708
0.0073745909
0.0069440167
0.0065725182
0.0062494879
0.0059663836
0.0057163724
0.0054939171
0.0052945151
0.0051144741
0.0049507121
0.0048006966
0.0046623683
0.0045339616
0.0044139402
0.0043010801
0.0041943893
0.0040929443
0.0039959906
0.0039030794
0.0038138435
0.0037278094
0.0036447079
0.0035646385
0.003487736
0.0034140008
0.0033436865
0.003277504
0.0032162808
0.0031607784
0.0031120665
0.0030717885
0.0030416956
0.0030233488
0.0030187784
0.0030300871
0.0030582297
0.0031032512
0.0031647286
0.0032414103
0.0033309274