/*--------------------------------*- C++ -*----------------------------------*\
| =========                 |                                                 |
| \\      /  F ield         | OpenFOAM: The Open Source CFD Toolbox           |
|  \\    /   O peration     | Version:  2206                                  |
|   \\  /    A nd           | Website:  www.openfoam.com                      |
|    \\/     M anipulation  |                                                 |
\*---------------------------------------------------------------------------*/
FoamFile
{
    version     2.0;
    format      ascii;
    arch        "LSB;label=32;scalar=64";
    class       surfaceScalarField;
    location    "1300";
    object      phi;
}
// * * * * * * * * * * * * * * * * * * * * * * * * * * * * * * * * * * * * * //

dimensions      [0 3 -1 0 0 0 0];

oriented        oriented;

internalField   nonuniform List<scalar> 
14782
(
0.00061770443
8.7780881e-05
-0.00070548531
0.00051030945
0.00010739497
0.0004001364
0.00011017305
0.00030667007
9.3466329e-05
0.00023999403
6.6676044e-05
0.00019925375
4.0740282e-05
0.00017533729
2.3916457e-05
0.00016116757
1.4169719e-05
0.00015175918
9.4083931e-06
0.00014419156
7.5676151e-06
0.00013732141
6.8701504e-06
0.00013095955
6.3618679e-06
0.00012515074
5.8088072e-06
0.00011985826
5.2924783e-06
0.00011502285
4.8354066e-06
0.00011061882
4.4040367e-06
0.00010661232
4.0065003e-06
0.00010292118
3.6911382e-06
9.9493575e-05
3.4276028e-06
9.6310091e-05
3.1834836e-06
9.3348546e-05
2.9615451e-06
9.0574156e-05
2.7743901e-06
8.7965621e-05
2.6085351e-06
8.5513544e-05
2.4520765e-06
8.3205109e-05
2.3084357e-06
8.1021728e-05
2.1833807e-06
7.8952435e-05
2.0692928e-06
7.6992445e-05
1.9599899e-06
7.5134436e-05
1.8580095e-06
7.3368949e-05
1.7654869e-06
7.1690856e-05
1.6780926e-06
7.0097802e-05
1.5930541e-06
6.8585587e-05
1.5122152e-06
6.7149504e-05
1.4360828e-06
6.578736e-05
1.3621437e-06
6.4498248e-05
1.2891122e-06
6.3280429e-05
1.2178192e-06
6.2132892e-05
1.1475372e-06
6.1056573e-05
1.0763191e-06
6.0053212e-05
1.0033601e-06
5.912401e-05
9.2920276e-07
5.8270667e-05
8.5334283e-07
5.7496374e-05
7.7429291e-07
5.6803671e-05
6.9270327e-07
5.6199969e-05
6.0370107e-07
5.5690561e-05
5.0940859e-07
5.5285465e-05
4.0509577e-07
5.4990859e-05
2.9460567e-07
5.4805467e-05
1.8539267e-07
5.4727834e-05
7.76326e-08
5.4753652e-05
-2.5818074e-08
5.4876114e-05
-1.224617e-07
5.508302e-05
-2.0690557e-07
5.5354544e-05
-2.7152415e-07
5.5677553e-05
-3.2300899e-07
5.6039241e-05
-3.6168834e-07
5.6406403e-05
-3.671621e-07
5.6741147e-05
-3.3474378e-07
5.7008844e-05
-2.6769724e-07
5.7195193e-05
-1.863487e-07
5.7295866e-05
-1.0067292e-07
5.7314111e-05
-1.8244772e-08
5.7260062e-05
5.4048243e-08
5.7147161e-05
1.129016e-07
5.69889e-05
1.5826037e-07
5.6797234e-05
1.9166634e-07
5.658292e-05
2.1431358e-07
5.6353773e-05
2.2914716e-07
5.6115638e-05
2.381354e-07
5.5872967e-05
2.4267056e-07
5.5628992e-05
2.4397558e-07
5.5385408e-05
2.4358381e-07
5.5143729e-05
2.416789e-07
5.4905212e-05
2.3851679e-07
5.466976e-05
2.3545206e-07
5.4437981e-05
2.3177937e-07
5.4206569e-05
2.314117e-07
5.3971061e-05
2.3550795e-07
5.373275e-05
2.3831152e-07
5.3492969e-05
2.3978033e-07
5.3252626e-05
2.403435e-07
5.3011624e-05
2.4100189e-07
5.2768702e-05
2.4292193e-07
5.2524039e-05
2.446625e-07
5.2277051e-05
2.469883e-07
5.2028001e-05
2.4905036e-07
5.1776964e-05
2.5103678e-07
5.1524048e-05
2.529157e-07
5.1269779e-05
2.5426876e-07
5.1014011e-05
2.5576892e-07
5.075732e-05
2.566904e-07
5.0499572e-05
2.5774854e-07
5.0240929e-05
2.5864217e-07
4.998109e-05
2.5983921e-07
4.9719213e-05
2.6187747e-07
4.9455323e-05
2.6388997e-07
4.921005e-05
2.4527328e-07
4.8807114e-05
4.0293573e-07
4.8816091e-05
-8.9772071e-09
8.3967734e-07
0.00079176599
9.1060539e-05
-0.00079504565
0.00077878885
0.00012037211
0.00075194897
0.00013701294
0.00070879786
0.00013661744
0.00065525918
0.00012021471
0.00060117082
9.4828647e-05
0.00055307876
7.2008517e-05
0.00051314725
5.4101224e-05
0.00048028568
4.2269972e-05
0.00045278838
3.5064913e-05
0.00042915916
3.0499365e-05
0.00040849646
2.702457e-05
0.00039018701
2.4118261e-05
0.00037374599
2.1733494e-05
0.00035882999
1.9751403e-05
0.00034523497
1.7999059e-05
0.00033278838
1.6453089e-05
0.0003213134
1.5166116e-05
0.0003106754
1.406561e-05
0.00030078405
1.3074826e-05
0.00029156138
1.2184224e-05
0.00028292566
1.1410107e-05
0.00027481457
1.0719623e-05
0.00026718222
1.0084423e-05
0.00025998512
9.5055362e-06
0.00025317962
8.988887e-06
0.00024673294
8.5159652e-06
0.00024062243
8.0705077e-06
0.00023482559
7.6548489e-06
0.00022931916
7.2719149e-06
0.00022408633
6.9109243e-06
0.00021911569
6.5636916e-06
0.00021439547
6.2324367e-06
0.00020991418
5.9173716e-06
0.00020566445
5.6118728e-06
0.00020164209
5.3114676e-06
0.00019784337
5.0165473e-06
0.00019426659
4.72431e-06
0.00019091404
4.4288675e-06
0.00018779067
4.1267376e-06
0.00018490192
3.8179523e-06
0.00018225509
3.5001656e-06
0.00017986056
3.1688277e-06
0.00017772942
2.8238389e-06
0.00017587891
2.454216e-06
0.00017433336
2.0549545e-06
0.00017311034
1.6281204e-06
0.00017222056
1.1843865e-06
0.00017166565
7.4029858e-07
0.0001714373
3.0598344e-07
0.00017151922
-1.0773696e-07
0.00017188723
-4.9047494e-07
0.00017250249
-8.221587e-07
0.00017330994
-1.078979e-06
0.00017426153
-1.2745986e-06
0.00017530236
-1.4025218e-06
0.00017633905
-1.4038514e-06
0.00017726695
-1.2626415e-06
0.00017800193
-1.0026776e-06
0.00017849544
-6.798545e-07
0.00017873958
-3.448098e-07
0.00017874979
-2.84553e-08
0.00017855201
2.5182736e-07
0.00017818362
4.8129086e-07
0.0001776833
6.5858025e-07
0.00017708563
7.8933144e-07
0.00017642076
8.7918811e-07
0.00017571164
9.3826289e-07
0.00017497561
9.7416417e-07
0.00017422576
9.9252519e-07
0.00017347145
9.9828165e-07
0.00017271832
9.9671379e-07
0.000171971
9.8899603e-07
0.00017123293
9.7658976e-07
0.00017050467
9.6371441e-07
0.00016978696
9.4948945e-07
0.00016906886
9.4950866e-07
0.00016833861
9.657572e-07
0.00016760045
9.7647186e-07
0.00016685862
9.8161579e-07
0.0001661149
9.8405659e-07
0.00016536859
9.8731655e-07
0.00016461702
9.9449201e-07
0.00016385984
1.0018412e-06
0.00016309588
1.0109495e-06
0.0001623256
1.0193319e-06
0.00016154932
1.0273159e-06
0.0001607676
1.034636e-06
0.00015998165
1.0402198e-06
0.00015919168
1.0457343e-06
0.00015839893
1.0494382e-06
0.00015760367
1.0530168e-06
0.00015680592
1.0563896e-06
0.0001560064
1.0593564e-06
0.00015519911
1.0691677e-06
0.00015439713
1.0658683e-06
0.00015358715
1.0552519e-06
0.00015257182
1.41827e-06
0.00015201673
5.4610931e-07
2.5252517e-06
0.00083157746
8.6589141e-05
-0.00082710606
0.00083709406
0.00011485551
0.00084162245
0.00013248454
0.00084052741
0.00013771248
0.00083141153
0.00012933059
0.00081412664
0.00011211354
0.00079128226
9.48529e-05
0.0007652916
8.009188e-05
0.00073805353
6.9508041e-05
0.00071107894
6.2039502e-05
0.00068520753
5.6370773e-05
0.00066073628
5.1495825e-05
0.00063767311
4.7181433e-05
0.00061591537
4.3491234e-05
0.00059539827
4.0268497e-05
0.00057609234
3.7304985e-05
0.00055793809
3.460734e-05
0.00054084157
3.2262643e-05
0.00052471891
3.0188271e-05
0.00050950493
2.8288802e-05
0.00049513427
2.6554889e-05
0.00048153314
2.5011233e-05
0.00046864128
2.3611477e-05
0.00045641126
2.2314445e-05
0.0004447969
2.1119902e-05
0.00043374976
2.0036027e-05
0.00042323093
1.9034795e-05
0.00041321056
1.8090874e-05
0.00040365991
1.7205496e-05
0.00039455084
1.6380994e-05
0.0003858619
1.5599862e-05
0.00037757731
1.4848274e-05
0.00036968208
1.4127676e-05
0.00036216262
1.3436827e-05
0.00035501017
1.2764319e-05
0.00034822013
1.210151e-05
0.00034178972
1.1446963e-05
0.00033571923
1.0794793e-05
0.00033001372
1.0134378e-05
0.00032468201
9.4584456e-06
0.00031973487
8.7650974e-06
0.00031518622
8.0488102e-06
0.00031105388
7.3011722e-06
0.0003073583
6.5194219e-06
0.00030412713
5.685384e-06
0.00030139132
4.7907596e-06
0.00029917266
3.8467818e-06
0.00029748021
2.8768374e-06
0.00029630948
1.9110288e-06
0.00029564332
9.7214506e-07
0.00029545071
8.486856e-08
0.0002956886
-7.283561e-07
0.00029629531
-1.4288712e-06
0.00029719006
-1.9737253e-06
0.0002982947
-2.3792388e-06
0.00029951416
-2.6219905e-06
0.00030071082
-2.6005087e-06
0.00030174125
-2.2930722e-06
0.00030249541
-1.7568302e-06
0.00030291446
-1.0989131e-06
0.00030298962
-4.1996689e-07
0.00030274126
2.1990892e-07
0.00030220702
7.8606341e-07
0.00030143917
1.2491427e-06
0.00030049077
1.6069737e-06
0.00029940949
1.8706192e-06
0.00029823667
2.0520076e-06
0.00029700474
2.1701929e-06
0.00029573853
2.2403684e-06
0.00029445685
2.2742075e-06
0.00029317314
2.2819931e-06
0.00029189599
2.2738614e-06
0.00029063231
2.2526817e-06
0.00028938696
2.2219371e-06
0.00028816119
2.1894774e-06
0.00028695516
2.1555211e-06
0.00028575157
2.1531027e-06
0.00028453549
2.1818355e-06
0.00028331458
2.1973818e-06
0.00028209342
2.2027783e-06
0.00028087268
2.2047942e-06
0.00027965048
2.2095213e-06
0.00027842312
2.2218505e-06
0.00027718924
2.23572e-06
0.00027594714
2.2530516e-06
0.00027469699
2.2694734e-06
0.00027343912
2.2851922e-06
0.00027217425
2.2995052e-06
0.00027090384
2.3106277e-06
0.00026962844
2.3211353e-06
0.00026834948
2.3283996e-06
0.00026706768
2.3348137e-06
0.00026578281
2.3412601e-06
0.00026449671
2.3454544e-06
0.00026319863
2.3672551e-06
0.00026191413
2.3503595e-06
0.00026058472
2.3846656e-06
0.0002591004
2.9025939e-06
0.00025782881
1.8177002e-06
4.6042921e-06
0.00086137248
8.2259127e-05
-0.00085704246
0.00086790876
0.00010831923
0.00087519936
0.00012519395
0.00088222588
0.00013068595
0.00088613443
0.00012542204
0.00088512003
0.00011312794
0.00088103409
9.8938847e-05
0.00087431062
8.6815347e-05
0.00086522499
7.8593675e-05
0.00085402181
7.324268e-05
0.00084103105
6.936153e-05
0.00082645351
6.6073372e-05
0.00081065391
6.2981029e-05
0.00079422154
5.9923598e-05
0.00077749596
5.6994081e-05
0.00076070265
5.4098296e-05
0.00074397988
5.1330108e-05
0.00072741557
4.8826949e-05
0.00071109474
4.6509102e-05
0.00069509619
4.4287351e-05
0.0006794751
4.2175985e-05
0.00066425845
4.0227883e-05
0.00064946787
3.8402053e-05
0.00063512166
3.6660653e-05
0.00062122866
3.5012899e-05
0.00060778554
3.3479147e-05
0.00059478921
3.203113e-05
0.00058223755
3.0642529e-05
0.00057012418
2.9318871e-05
0.00055843954
2.8065634e-05
0.00054717725
2.686215e-05
0.00053633349
2.5692036e-05
0.00052590352
2.455765e-05
0.00051588317
2.3457178e-05
0.0005062724
2.237508e-05
0.00049707515
2.1298766e-05
0.0004882963
2.0225813e-05
0.00047994222
1.9148871e-05
0.00047202302
1.8053577e-05
0.00046455242
1.6929041e-05
0.0004575465
1.5771025e-05
0.00045102482
1.4570488e-05
0.00044501067
1.3315324e-05
0.00043953089
1.19992e-05
0.00043461843
1.0597838e-05
0.00043030019
9.1090008e-06
0.0004265874
7.5595717e-06
0.00042347889
5.9853455e-06
0.00042096244
4.4274807e-06
0.00041901521
2.9193753e-06
0.00041760291
1.4971726e-06
0.00041667605
1.9850144e-07
0.00041616399
-9.1681246e-07
0.00041598338
-1.7931082e-06
0.00041604802
-2.44388e-06
0.00041624018
-2.8141518e-06
0.00041640835
-2.7686826e-06
0.00041641771
-2.3024293e-06
0.0004161777
-1.5168181e-06
0.00041564479
-5.6601e-07
0.00041481528
4.0954397e-07
0.00041371017
1.3250231e-06
0.00041236512
2.1311114e-06
0.0004108252
2.789067e-06
0.00040913598
3.2961883e-06
0.00040733937
3.6672355e-06
0.00040547276
3.9186085e-06
0.00040356648
4.0764779e-06
0.00040164437
4.1624745e-06
0.0003997248
4.1937801e-06
0.00039782093
4.1858632e-06
0.00039594159
4.1532024e-06
0.00039409404
4.1002324e-06
0.0003922831
4.0328711e-06
0.00039050981
3.962773e-06
0.00038877288
3.8924543e-06
0.00038706692
3.8590556e-06
0.00038538451
3.8642433e-06
0.00038372091
3.8609861e-06
0.00038207211
3.8515827e-06
0.00038043519
3.8417069e-06
0.00037880665
3.8380673e-06
0.00037718171
3.8467899e-06
0.00037555772
3.8597101e-06
0.00037393205
3.8787157e-06
0.00037230399
3.8975384e-06
0.00037067317
3.9160139e-06
0.00036903981
3.9328595e-06
0.00036740491
3.9455241e-06
0.00036576874
3.9573064e-06
0.00036413233
3.9648148e-06
0.00036249635
3.9707955e-06
0.00036085999
3.9776144e-06
0.00035922564
3.9798108e-06
0.00035757921
4.013677e-06
0.00035595292
3.9766577e-06
0.00035426407
4.0735096e-06
0.00035246898
4.6976858e-06
0.00035066318
3.6234988e-06
6.8299977e-06
0.00089166408
7.8534403e-05
-0.00088793936
0.00089769718
0.00010228612
0.0009049042
0.00011798693
0.00091181007
0.00012378008
0.00091697722
0.00012025489
0.00091990648
0.00011019868
0.00092054774
9.8297594e-05
0.00091940475
8.795833e-05
0.00091751795
8.0480476e-05
0.00091496689
7.5793739e-05
0.00091167763
7.2650796e-05
0.00090743017
7.0320827e-05
0.00090197949
6.8431712e-05
0.00089526474
6.6638349e-05
0.00088735915
6.4899669e-05
0.00087828452
6.3172929e-05
0.00086819106
6.1423563e-05
0.00085736697
5.9651036e-05
0.00084597512
5.7900952e-05
0.00083413645
5.6126027e-05
0.00082194933
5.4363106e-05
0.0008094921
5.2685108e-05
0.00079684255
5.1051604e-05
0.00078407946
4.942374e-05
0.00077127194
4.7820427e-05
0.00075847597
4.6275117e-05
0.00074574435
4.4762743e-05
0.00073312453
4.3262354e-05
0.00072065429
4.1789112e-05
0.00070836391
4.0356013e-05
0.00069628235
3.8943707e-05
0.00068443677
3.7537614e-05
0.00067285015
3.6144273e-05
0.00066154361
3.4763721e-05
0.00065054087
3.3377816e-05
0.00063986799
3.1971649e-05
0.00062954552
3.0548284e-05
0.00061958957
2.9104818e-05
0.00061001956
2.7623587e-05
0.00060085848
2.6090118e-05
0.00059213125
2.4498254e-05
0.00058386556
2.283618e-05
0.00057609177
2.1089117e-05
0.00056884675
1.9244223e-05
0.00056216242
1.7282168e-05
0.00055604746
1.5223957e-05
0.00055049769
1.3109345e-05
0.00054550836
1.0974669e-05
0.0005410733
8.8625461e-06
0.00053717918
6.8134904e-06
0.00053380258
4.8737755e-06
0.00053090284
3.0982458e-06
0.00052841688
1.569144e-06
0.00052628069
3.4308435e-07
0.00052440285
-5.660424e-07
0.00052263693
-1.0482336e-06
0.00052084857
-9.8032006e-07
0.00051896205
-4.1591427e-07
0.00051694175
5.034872e-07
0.0005147749
1.6008416e-06
0.00051246665
2.7177878e-06
0.00051003055
3.7611224e-06
0.00050748541
4.6762553e-06
0.00050485514
5.4193405e-06
0.00050216492
5.9864085e-06
0.00049943924
6.392913e-06
0.00049670157
6.6562803e-06
0.00049397182
6.8062211e-06
0.00049126645
6.8678449e-06
0.00048859846
6.8617752e-06
0.00048597717
6.8071533e-06
0.00048340931
6.7210619e-06
0.00048090069
6.6088544e-06
0.00047845447
6.4790895e-06
0.00047607031
6.3469286e-06
0.00047374537
6.2173961e-06
0.00047148078
6.1236411e-06
0.00046927495
6.0700784e-06
0.00046711736
6.0185738e-06
0.00046499793
5.971013e-06
0.00046291017
5.9294681e-06
0.00046084866
5.89958e-06
0.00045880743
5.8880213e-06
0.00045678245
5.8846852e-06
0.00045476993
5.8912364e-06
0.00045276786
5.8996121e-06
0.00045077475
5.9091235e-06
0.00044878979
5.9178184e-06
0.00044681298
5.922328e-06
0.00044484381
5.9264781e-06
0.00044288249
5.9261406e-06
0.00044092915
5.924131e-06
0.00043898213
5.9246388e-06
0.00043704368
5.9182528e-06
0.00043509746
5.9599003e-06
0.00043317805
5.8960651e-06
0.00043119215
6.0594085e-06
0.00042914037
6.7494749e-06
0.00042690437
5.8594921e-06
9.1519296e-06
0.00092305764
7.5203652e-05
-0.00091972689
0.00092857728
9.6766486e-05
0.00093515072
0.00011141349
0.0009415704
0.00011736041
0.00094672112
0.00011510417
0.00094996565
0.00010695415
0.00095155434
9.6708907e-05
0.00095192969
8.7582982e-05
0.00095159127
8.0818891e-05
0.00095108024
7.630477e-05
0.00095043315
7.3297881e-05
0.00094958404
7.116994e-05
0.00094843385
6.9581902e-05
0.00094685586
6.8216336e-05
0.00094477325
6.6982286e-05
0.00094205033
6.5895843e-05
0.00093854619
6.4927701e-05
0.00093421935
6.3977881e-05
0.00092907567
6.3044635e-05
0.00092309447
6.2107226e-05
0.00091632925
6.112832e-05
0.00090890742
6.0106939e-05
0.00090090488
5.905414e-05
0.00089238042
5.7948203e-05
0.00088338633
5.6814521e-05
0.00087397511
5.5686331e-05
0.00086420331
5.4534546e-05
0.00085412512
5.3340544e-05
0.00084379311
5.2121122e-05
0.00083325881
5.0890312e-05
0.00082257475
4.9627768e-05
0.00081179199
4.8320375e-05
0.00080095681
4.6979456e-05
0.00079011209
4.5608442e-05
0.00077930068
4.4189223e-05
0.00076856551
4.2706819e-05
0.00075794849
4.1165302e-05
0.00074749125
3.9562056e-05
0.00073723546
3.7879375e-05
0.00072722258
3.6103001e-05
0.00071749353
3.4227303e-05
0.00070809073
3.2238981e-05
0.00069905887
3.0120977e-05
0.0006904557
2.7847395e-05
0.00068228962
2.5448245e-05
0.00067453649
2.2977085e-05
0.0006672186
2.042724e-05
0.00066036868
1.7824586e-05
0.0006540048
1.5226424e-05
0.00064812677
1.2691528e-05
0.00064271681
1.0283736e-05
0.00063773608
8.0789674e-06
0.00063313411
6.1711146e-06
0.0006288829
4.5942956e-06
0.00062485312
3.4637403e-06
0.00062085437
2.9505177e-06
0.00061683475
3.0392937e-06
0.00061281951
3.5993309e-06
0.00060882433
4.4986683e-06
0.00060485276
5.5724096e-06
0.00060090942
6.6611301e-06
0.00059699624
7.6743029e-06
0.00059311423
8.5582585e-06
0.00058926766
9.2659137e-06
0.00058546284
9.791233e-06
0.00058170711
1.014864e-05
0.00057800908
1.0354309e-05
0.00057437678
1.0438525e-05
0.00057081752
1.04271e-05
0.00056733763
1.0341662e-05
0.00056394222
1.0202571e-05
0.00056063438
1.00289e-05
0.00055741619
9.8270383e-06
0.0005542882
9.6070832e-06
0.0005512482
9.3869286e-06
0.00054829217
9.1734249e-06
0.00054541835
8.9974649e-06
0.00054262527
8.8631527e-06
0.00053990604
8.7378064e-06
0.00053725064
8.6264176e-06
0.00053465092
8.5291864e-06
0.00053209999
8.4505046e-06
0.0005295908
8.3972115e-06
0.00052711811
8.3573826e-06
0.00052467692
8.3324245e-06
0.00052226389
8.312644e-06
0.00051987621
8.2967958e-06
0.00051751181
8.2822247e-06
0.00051516941
8.2647226e-06
0.0005128476
8.2482937e-06
0.00051054558
8.2281585e-06
0.00050826242
8.2072864e-06
0.00050599532
8.1917416e-06
0.00050374594
8.1676374e-06
0.00050149635
8.2094881e-06
0.00049928087
8.111542e-06
0.00049700186
8.3384235e-06
0.0004946914
9.0599304e-06
0.00049206263
8.4882651e-06
1.1602004e-05
0.0009554363
7.2203692e-05
-0.00095243634
0.00096052138
9.1681405e-05
0.00096659164
0.00010534322
0.00097256207
0.00011138997
0.00097744592
0.00011022032
0.0009806937
0.00010370638
0.00098244696
9.4955652e-05
0.00098320769
8.6822245e-05
0.00098341884
8.0607742e-05
0.00098340481
7.6318801e-05
0.00098331646
7.3386232e-05
0.00098320229
7.1284106e-05
0.00098305841
6.9725787e-05
0.00098282075
6.8453994e-05
0.00098244381
6.7359229e-05
0.00098189012
6.6449531e-05
0.00098110979
6.5708032e-05
0.00098003973
6.504794e-05
0.00097862939
6.4454977e-05
0.00097679213
6.394448e-05
0.00097443518
6.3485274e-05
0.00097151708
6.3025038e-05
0.00096801649
6.2554733e-05
0.00096390151
6.2063183e-05
0.00095918675
6.1529282e-05
0.00095392282
6.0950253e-05
0.00094813793
6.0319443e-05
0.00094185689
5.9621579e-05
0.00093510271
5.8875301e-05
0.0009279014
5.809162e-05
0.00092028616
5.7243013e-05
0.00091229296
5.6313578e-05
0.0009039533
5.5319107e-05
0.00089529925
5.42625e-05
0.00088636915
5.3119318e-05
0.0008772025
5.187347e-05
0.00086784128
5.052652e-05
0.00085833264
4.9070703e-05
0.00084872615
4.7485862e-05
0.00083907246
4.575669e-05
0.00082942302
4.3876744e-05
0.00081983148
4.1830517e-05
0.00081035505
3.9597411e-05
0.00080105402
3.7148423e-05
0.00079197862
3.4523645e-05
0.00078315107
3.1804634e-05
0.00077458825
2.8990064e-05
0.00076632263
2.6090205e-05
0.0007583848
2.3164249e-05
0.00075079428
2.0282057e-05
0.00074355536
1.7522656e-05
0.00073665331
1.4981018e-05
0.00073007356
1.2750859e-05
0.00072382296
1.0844894e-05
0.00071782007
9.4666288e-06
0.00071192587
8.844722e-06
0.00070610131
8.8638526e-06
0.00070036689
9.3337523e-06
0.00069473314
1.0132418e-05
0.00068920533
1.1100214e-05
0.00068379385
1.207261e-05
0.00067850109
1.2967066e-05
0.00067332445
1.3734904e-05
0.00066826396
1.43264e-05
0.00066332045
1.473474e-05
0.00065849361
1.4975481e-05
0.00065378397
1.5063946e-05
0.00064919252
1.5029982e-05
0.00064472039
1.4899228e-05
0.00064036869
1.4693357e-05
0.00063613893
1.4432332e-05
0.00063203122
1.4136616e-05
0.00062804452
1.3813735e-05
0.00062417695
1.3474657e-05
0.00062042442
1.3139453e-05
0.0006167819
1.2815944e-05
0.00061324507
1.2534295e-05
0.00060981082
1.2297404e-05
0.00060647436
1.2074272e-05
0.0006032274
1.1873376e-05
0.00060006192
1.1694663e-05
0.00059697043
1.1541998e-05
0.00059394511
1.1422532e-05
0.00059097974
1.1322747e-05
0.00058806828
1.1243886e-05
0.00058520609
1.1174835e-05
0.00058238903
1.1113859e-05
0.00057961363
1.1057626e-05
0.00057687725
1.10011e-05
0.00057417729
1.0948249e-05
0.00057151178
1.0893668e-05
0.00056887855
1.084052e-05
0.00056627356
1.0796734e-05
0.00056369755
1.0743641e-05
0.00056113139
1.0775658e-05
0.00055860788
1.0635048e-05
0.00055602704
1.0919268e-05
0.0005534462
1.1640762e-05
0.00055044
1.1494472e-05
1.4211051e-05
0.00098884102
6.9473436e-05
-0.00098611077
0.00099351978
8.700265e-05
0.00099915125
9.9711753e-05
0.0010047339
0.00010580735
0.0010093922
0.00010556204
0.0010126173
0.00010048126
0.001014467
9.3105955e-05
0.0010153668
8.5922393e-05
0.0010157538
8.0220809e-05
0.0010159269
7.6145643e-05
0.0010160257
7.3287404e-05
0.0010160964
7.1213422e-05
0.0010161664
6.96558e-05
0.0010162212
6.8399243e-05
0.0010162327
6.7347726e-05
0.0010161973
6.648491e-05
0.0010161111
6.5794166e-05
0.0010159479
6.5211152e-05
0.0010156865
6.4716393e-05
0.0010153026
6.432838e-05
0.0010147609
6.4026993e-05
0.0010140204
6.3765572e-05
0.0010130409
6.3534215e-05
0.0010117612
6.334283e-05
0.0010101186
6.3171923e-05
0.0010080755
6.2993347e-05
0.0010056002
6.2794759e-05
0.0010026618
6.2559948e-05
0.00099925996
6.2277164e-05
0.00099540841
6.1943169e-05
0.00099110943
6.1541988e-05
0.0009863646
6.1058408e-05
0.00098117862
6.0505087e-05
0.00097556039
5.9880737e-05
0.00096952192
5.9157786e-05
0.00096307734
5.8318045e-05
0.00095624214
5.7361723e-05
0.00094903286
5.6279984e-05
0.00094146824
5.5050483e-05
0.00093357374
5.3651191e-05
0.00092538065
5.2069832e-05
0.00091692464
5.028653e-05
0.00090824818
4.8273863e-05
0.0008993897
4.6006905e-05
0.00089042989
4.3483453e-05
0.00088146285
4.0771677e-05
0.0008725221
3.793081e-05
0.00086362976
3.4982548e-05
0.00085481928
3.1974731e-05
0.00084612994
2.8971392e-05
0.00083760228
2.6050316e-05
0.00082927321
2.3310093e-05
0.00082117124
2.0852831e-05
0.0008133041
1.8712029e-05
0.00080571525
1.7055483e-05
0.00079838665
1.6173324e-05
0.00079123775
1.6012752e-05
0.00078423435
1.6337148e-05
0.00077734122
1.7025551e-05
0.00077055914
1.7882288e-05
0.00076390658
1.8725172e-05
0.00075738884
1.9484813e-05
0.00075100972
2.011402e-05
0.00074477958
2.0556544e-05
0.00073870488
2.0809433e-05
0.00073278612
2.0894241e-05
0.00072702445
2.082562e-05
0.00072142092
2.0633511e-05
0.00071597492
2.0345231e-05
0.00071068512
1.998315e-05
0.00070555111
1.9566339e-05
0.00070057177
1.9115961e-05
0.00069574491
1.8640596e-05
0.00069106714
1.8152429e-05
0.00068653289
1.7673695e-05
0.00068213629
1.7212551e-05
0.00067787161
1.6798972e-05
0.00067373419
1.6434825e-05
0.00066971966
1.6088804e-05
0.00066582112
1.5771913e-05
0.00066203138
1.5484404e-05
0.000658343
1.5230375e-05
0.00065474778
1.5017755e-05
0.00065123874
1.4831784e-05
0.00064780887
1.4673755e-05
0.00064445233
1.453138e-05
0.00064116363
1.440256e-05
0.00063793789
1.4283363e-05
0.00063477102
1.4167972e-05
0.00063165895
1.4060316e-05
0.0006285983
1.3954315e-05
0.00062558565
1.3853172e-05
0.0006226157
1.3766686e-05
0.00061968807
1.3671276e-05
0.00061678244
1.3681283e-05
0.0006139297
1.3487792e-05
0.00061102763
1.3821333e-05
0.00060815588
1.4512516e-05
0.00060476718
1.4883172e-05
1.7009957e-05
0.001023309
6.6957221e-05
-0.0010207928
0.0010276069
8.2704697e-05
0.0010328246
9.44941e-05
0.001038047
0.00010058488
0.0010424993
0.00010110975
0.0010457041
9.7276462e-05
0.0010476547
9.115535e-05
0.0010486907
8.4886403e-05
0.0010492017
7.9709859e-05
0.0010494717
7.5875573e-05
0.0010496499
7.3109295e-05
0.001049797
7.1066273e-05
0.0010499381
6.9514655e-05
0.0010500645
6.8272857e-05
0.0010501682
6.7244066e-05
0.0010502515
6.6401597e-05
0.0010503248
6.5720903e-05
0.0010503787
6.5157226e-05
0.0010503958
6.469926e-05
0.0010503784
6.4345785e-05
0.0010503234
6.4082005e-05
0.0010502142
6.3874764e-05
0.0010500354
6.3713006e-05
0.0010497684
6.3609862e-05
0.0010493877
6.3552646e-05
0.0010488643
6.3516674e-05
0.0010481664
6.3492748e-05
0.0010472481
6.3478166e-05
0.0010460647
6.3460646e-05
0.001044585
6.3422811e-05
0.001042775
6.3352044e-05
0.0010406042
6.3229213e-05
0.0010380656
6.3043681e-05
0.0010351556
6.2790674e-05
0.0010318635
6.2449876e-05
0.0010281774
6.2004203e-05
0.0010240859
6.145323e-05
0.0010195816
6.0784202e-05
0.0010146609
5.9971272e-05
0.0010093194
5.8992652e-05
0.0010035524
5.7836813e-05
0.00099735599
5.6482956e-05
0.00099072952
5.4900329e-05
0.00098366902
5.3067409e-05
0.00097618462
5.096785e-05
0.0009683366
4.8619706e-05
0.00096019419
4.6073211e-05
0.00095180279
4.3373952e-05
0.00094320394
4.0573582e-05
0.0009344439
3.7731436e-05
0.00092557864
3.4915567e-05
0.00091667528
3.2213462e-05
0.00090779682
2.9731291e-05
0.00089896942
2.7539429e-05
0.00089029322
2.5731674e-05
0.00088190752
2.4559029e-05
0.00087380859
2.4111677e-05
0.00086587103
2.4274716e-05
0.00085801304
2.4883534e-05
0.00085025465
2.5640678e-05
0.00084260218
2.6377647e-05
0.00083505111
2.7035883e-05
0.00082761921
2.7545922e-05
0.00082033083
2.7844922e-05
0.00081319667
2.7943594e-05
0.0008062225
2.786841e-05
0.00079941906
2.7629059e-05
0.00079279328
2.7259289e-05
0.00078634629
2.6792224e-05
0.00078007891
2.6250528e-05
0.00077399293
2.5652323e-05
0.00076808802
2.5020868e-05
0.00076236227
2.4366346e-05
0.00075681252
2.3702177e-05
0.0007514331
2.305311e-05
0.00074621823
2.242742e-05
0.00074116229
2.1854914e-05
0.00073626011
2.1337007e-05
0.00073150725
2.0841659e-05
0.00072689766
2.0381503e-05
0.00072242512
1.9956947e-05
0.00071808267
1.9572826e-05
0.00071386207
1.9238357e-05
0.00070975589
1.8937962e-05
0.00070575632
1.8673322e-05
0.00070185646
1.8431242e-05
0.00069804958
1.8209437e-05
0.00069432943
1.8003514e-05
0.00069069044
1.780696e-05
0.00068712704
1.7623725e-05
0.00068363431
1.7447042e-05
0.00068020746
1.7280021e-05
0.00067683987
1.7134275e-05
0.00067352989
1.698126e-05
0.00067025602
1.6955154e-05
0.00066704705
1.6696758e-05
0.00066379813
1.7070254e-05
0.00066060951
1.7701131e-05
0.00065682051
1.8672172e-05
2.0029413e-05
0.0010588694
6.4615348e-05
-0.0010565276
0.0010628162
7.8757905e-05
0.0010676448
8.9665531e-05
0.0010725289
9.5700786e-05
0.0010767773
9.686137e-05
0.0010799474
9.4106323e-05
0.0010819859
8.9116824e-05
0.0010831564
8.3715942e-05
0.0010837969
7.9069391e-05
0.0010841675
7.550491e-05
0.0010844165
7.2860372e-05
0.001084613
7.0869692e-05
0.0010847895
6.9338221e-05
0.0010849487
6.8113664e-05
0.0010850889
6.7103829e-05
0.0010852142
6.6276333e-05
0.0010853279
6.5607136e-05
0.0010854262
6.5058926e-05
0.0010855094
6.4616083e-05
0.0010855804
6.4274767e-05
0.0010856445
6.4017932e-05
0.001085697
6.3822277e-05
0.0010857233
6.3686728e-05
0.0010857224
6.3610778e-05
0.0010856933
6.358166e-05
0.0010856248
6.3585192e-05
0.0010855059
6.3611682e-05
0.0010853215
6.3662548e-05
0.0010850517
6.3730424e-05
0.0010846753
6.3799246e-05
0.0010841658
6.3861544e-05
0.001083488
6.3906977e-05
0.0010826081
6.3923606e-05
0.0010815004
6.3898397e-05
0.0010801315
6.3818725e-05
0.0010784743
6.3661423e-05
0.0010765163
6.3411252e-05
0.0010742403
6.3060214e-05
0.0010716279
6.2583665e-05
0.0010686585
6.1962045e-05
0.0010653091
6.1186176e-05
0.0010615554
6.0236725e-05
0.0010573712
5.9084514e-05
0.001052727
5.7711534e-05
0.0010475856
5.6109258e-05
0.001041926
5.4279347e-05
0.0010357573
5.2241951e-05
0.0010290967
5.0034479e-05
0.001021962
4.7708292e-05
0.001014377
4.5316474e-05
0.0010063771
4.2915476e-05
0.00099801416
4.0576378e-05
0.00098935641
3.8389039e-05
0.00098046545
3.6430387e-05
0.00097143356
3.4763567e-05
0.0009624541
3.3538492e-05
0.00095366495
3.2900827e-05
0.00094507042
3.2869242e-05
0.00093664291
3.3311045e-05
0.00092832172
3.3961872e-05
0.0009200286
3.4670765e-05
0.00091175697
3.5307507e-05
0.00090355819
3.5744708e-05
0.00089545216
3.5950955e-05
0.0008874451
3.5950644e-05
0.000879561
3.575252e-05
0.00087182675
3.5363301e-05
0.00086425434
3.48317e-05
0.00085685059
3.419598e-05
0.0008496263
3.347481e-05
0.00084259014
3.2688483e-05
0.0008357448
3.1866214e-05
0.00082909169
3.1019459e-05
0.00082263131
3.0162551e-05
0.0008163605
2.9323918e-05
0.00081027588
2.8512041e-05
0.00080437426
2.7756537e-05
0.00079865165
2.7059615e-05
0.00079310419
2.638912e-05
0.00078772683
2.5758864e-05
0.00078251454
2.5169241e-05
0.00077746117
2.4626192e-05
0.00077255894
2.4140591e-05
0.0007678004
2.36965e-05
0.00076317726
2.3296464e-05
0.00075868183
2.2926666e-05
0.0007543064
2.258487e-05
0.00075004348
2.2266436e-05
0.00074588614
2.1964296e-05
0.00074182734
2.1682528e-05
0.00073786066
2.1413719e-05
0.00073397985
2.1160832e-05
0.00073017691
2.0937211e-05
0.00072644883
2.0709344e-05
0.00072277286
2.0631125e-05
0.00071917574
2.0293883e-05
0.00071554938
2.069661e-05
0.00071201358
2.1236931e-05
0.00070779729
2.2888464e-05
2.3300558e-05
0.0010955564
6.2419641e-05
-0.0010933607
0.0010991843
7.5130007e-05
0.0011036498
8.5200099e-05
0.0011082159
9.1134622e-05
0.0011122626
9.2814696e-05
0.0011153825
9.098642e-05
0.0011174893
8.7010022e-05
0.0011187803
8.2424901e-05
0.0011195447
7.8305009e-05
0.0011200185
7.5031123e-05
0.001120345
7.2533886e-05
0.0011205973
7.0617384e-05
0.0011208124
6.9123176e-05
0.0011210007
6.7925285e-05
0.0011211651
6.6939508e-05
0.0011213111
6.6130293e-05
0.0011214438
6.5474385e-05
0.0011215633
6.4939437e-05
0.0011216714
6.4508019e-05
0.0011217716
6.4174599e-05
0.0011218649
6.3924554e-05
0.001121949
6.3738201e-05
0.001122024
6.3611713e-05
0.0011220916
6.3543195e-05
0.0011221516
6.352172e-05
0.0011222067
6.3530037e-05
0.0011222462
6.3572181e-05
0.0011222609
6.3647893e-05
0.0011222535
6.3737755e-05
0.0011222162
6.3836628e-05
0.0011221404
6.3937326e-05
0.0011220142
6.403316e-05
0.001121821
6.4116747e-05
0.0011215447
6.4174777e-05
0.0011211625
6.4200912e-05
0.0011206461
6.41778e-05
0.0011199695
6.4087829e-05
0.0011191089
6.3920884e-05
0.001118033
6.3659532e-05
0.0011167163
6.3278746e-05
0.0011151413
6.2761116e-05
0.0011132817
6.2096408e-05
0.0011111066
6.1259578e-05
0.0011085821
6.0236067e-05
0.0011056676
5.9023698e-05
0.0011023169
5.763006e-05
0.0010984875
5.6071381e-05
0.0010941446
5.437734e-05
0.0010892571
5.2595841e-05
0.0010837989
5.0774684e-05