/*--------------------------------*- C++ -*----------------------------------*\
| =========                 |                                                 |
| \\      /  F ield         | OpenFOAM: The Open Source CFD Toolbox           |
|  \\    /   O peration     | Version:  2206                                  |
|   \\  /    A nd           | Website:  www.openfoam.com                      |
|    \\/     M anipulation  |                                                 |
\*---------------------------------------------------------------------------*/
FoamFile
{
    version     2.0;
    format      ascii;
    arch        "LSB;label=32;scalar=64";
    class       volVectorField;
    location    "1300";
    object      U;
}
// * * * * * * * * * * * * * * * * * * * * * * * * * * * * * * * * * * * * * //

dimensions      [0 1 -1 0 0 0 0];

internalField   nonuniform List<vector> 
7480
(
(0.82757506 0.011160981 0)
(0.70301733 0.020209526 0)
(0.56656554 0.021424842 0)
(0.43054556 0.01455856 0)
(0.33055337 0.0062885934 0)
(0.26657619 0.0019098171 0)
(0.23007182 0.0022258985 0)
(0.20853093 -0.00029127558 0)
(0.19447171 -0.00043005682 0)
(0.1841432 -0.00017540674 0)
(0.1753192 8.8477313e-07 0)
(0.16713054 5.411163e-05 0)
(0.15955924 6.4821339e-05 0)
(0.15265885 6.7028688e-05 0)
(0.14637192 0.00020884364 0)
(0.14063149 0.00016876757 0)
(0.13539906 6.8807813e-05 0)
(0.1306133 4.9031289e-05 0)
(0.12618721 4.4384733e-05 0)
(0.12207268 4.0357749e-05 0)
(0.11824852 3.7063422e-05 0)
(0.11467891 3.5168891e-05 0)
(0.11132716 3.2961384e-05 0)
(0.10817532 3.028832e-05 0)
(0.10521075 2.795898e-05 0)
(0.10241326 2.6234699e-05 0)
(0.099763607 2.4427678e-05 0)
(0.097252605 2.2468906e-05 0)
(0.094873637 2.0760005e-05 0)
(0.092615723 1.933999e-05 0)
(0.090469253 1.7891519e-05 0)
(0.08843006 1.641574e-05 0)
(0.086494472 1.5104709e-05 0)
(0.084656589 1.3931396e-05 0)
(0.082911855 1.2762305e-05 0)
(0.081258649 1.1610587e-05 0)
(0.079695415 1.0552902e-05 0)
(0.078220194 9.5430271e-06 0)
(0.076832865 8.5256896e-06 0)
(0.075535378 7.5183962e-06 0)
(0.074329672 6.5656651e-06 0)
(0.073217223 5.6496444e-06 0)
(0.072201526 4.7261686e-06 0)
(0.071285382 3.8610238e-06 0)
(0.070473244 1.6762414e-05 0)
(0.069783569 2.3119342e-06 0)
(0.069207647 -2.5524285e-06 0)
(0.068771377 -6.2505192e-07 0)
(0.068473615 -1.0465635e-06 0)
(0.068311758 -1.6821534e-06 0)
(0.068282209 -2.4082637e-06 0)
(0.068378573 -2.9428882e-06 0)
(0.068590071 -3.3212799e-06 0)
(0.068894533 -3.4321616e-06 0)
(0.069270275 -3.5234956e-06 0)
(0.069705474 -3.6186698e-06 0)
(0.070170888 -3.3022195e-06 0)
(0.07061951 -2.7442939e-06 0)
(0.071003295 -2.8292368e-06 0)
(0.071285922 -5.4853623e-06 0)
(0.071464141 -1.3619284e-06 0)
(0.071535497 -7.1079407e-07 0)
(0.071509046 -2.8704494e-07 0)
(0.071400192 -6.8889302e-08 0)
(0.071226772 7.0267506e-08 0)
(0.071004771 1.6991394e-07 0)
(0.070748528 2.1846008e-07 0)
(0.070469664 2.4661232e-07 0)
(0.070176507 2.5801685e-07 0)
(0.069875308 2.5666612e-07 0)
(0.06957093 2.4642876e-07 0)
(0.069266242 2.3930876e-07 0)
(0.068963014 2.2925218e-07 0)
(0.068663259 2.1502383e-07 0)
(0.068367466 2.1157752e-07 0)
(0.068075983 2.0237258e-07 0)
(0.067789261 2.1363199e-07 0)
(0.067497815 2.4389615e-07 0)
(0.067201457 2.5092446e-07 0)
(0.066902873 2.568691e-07 0)
(0.066603211 2.5597675e-07 0)
(0.066303122 2.5380932e-07 0)
(0.066001297 2.6027203e-07 0)
(0.065697121 2.5768679e-07 0)
(0.065390361 2.6057336e-07 0)
(0.065080767 2.5915086e-07 0)
(0.064768694 2.5809978e-07 0)
(0.064454099 2.5742637e-07 0)
(0.064137577 2.5326355e-07 0)
(0.063819222 2.5287745e-07 0)
(0.063499421 2.4764208e-07 0)
(0.063178268 2.4690896e-07 0)
(0.062856431 2.412051e-07 0)
(0.062531809 2.4786743e-07 0)
(0.062210363 2.2431298e-07 0)
(0.061869967 3.0139954e-07 0)
(0.06157623 9.1198012e-07 0)
(0.061138199 1.124227e-05 0)
(0.060897497 1.8995028e-05 0)
(0.060225781 9.7695375e-06 0)
(0.95867631 0.028035385 0)
(0.94943609 0.038590883 0)
(0.93030859 0.041836699 0)
(0.88513496 0.039313803 0)
(0.82442357 0.032448048 0)
(0.75684118 0.023971732 0)
(0.69438201 0.015507398 0)
(0.64140578 0.0094010917 0)
(0.59777919 0.006029297 0)
(0.56172556 0.0043629797 0)
(0.53123684 0.0035597847 0)
(0.50478065 0.0030817102 0)
(0.48144179 0.0027034044 0)
(0.46060021 0.0023888098 0)
(0.44176893 0.0021306511 0)
(0.42462432 0.0018809399 0)
(0.4089605 0.0016577477 0)
(0.39457008 0.0014837293 0)
(0.38126112 0.0013367913 0)
(0.36889793 0.0012052813 0)
(0.35738613 0.001088884 0)
(0.3466295 0.00098981297 0)
(0.3365391 0.00090273035 0)
(0.32705207 0.00082377114 0)
(0.31811439 0.00075317107 0)
(0.30967427 0.00069133212 0)
(0.30168453 0.00063561276 0)
(0.29411234 0.00058412955 0)
(0.28693216 0.00053722435 0)
(0.2801159 0.00049503294 0)
(0.27363845 0.00045620943 0)
(0.26748341 0.00041992615 0)
(0.26163768 0.00038641681 0)
(0.25608684 0.00035558381 0)
(0.25081896 0.0003267267 0)
(0.24582746 0.00029947145 0)
(0.24110785 0.00027386437 0)
(0.23665648 0.00024963722 0)
(0.23247348 0.00022634269 0)
(0.22856369 0.00020379226 0)
(0.2249337 0.00018204398 0)
(0.2215906 0.00016095514 0)
(0.21854585 0.00014026875 0)
(0.21581097 0.00012000012 0)
(0.2134028 9.9701802e-05 0)
(0.21135053 7.8762705e-05 0)
(0.20967626 6.0045236e-05 0)
(0.2084018 3.794915e-05 0)
(0.20753412 1.8686384e-05 0)
(0.20706847 8.4145029e-07 0)
(0.20698898 -1.5010626e-05 0)
(0.20727242 -2.8753422e-05 0)
(0.20788337 -3.9691127e-05 0)
(0.20876008 -4.7102208e-05 0)
(0.20983843 -5.2016266e-05 0)
(0.21106552 -5.4533223e-05 0)
(0.21234984 -5.2540455e-05 0)
(0.21356549 -4.6107291e-05 0)
(0.21459353 -3.7829196e-05 0)
(0.21533168 -2.4639748e-05 0)
(0.21577326 -1.4037727e-05 0)
(0.21591857 -4.7388398e-06 0)
(0.21579372 2.9559746e-06 0)
(0.21543851 8.86393e-06 0)
(0.21490184 1.3064509e-05 0)
(0.21422843 1.5843896e-05 0)
(0.21345772 1.745969e-05 0)
(0.2126218 1.8271383e-05 0)
(0.21174457 1.8519397e-05 0)
(0.21084394 1.8371356e-05 0)
(0.20993356 1.7963714e-05 0)
(0.20902193 1.7433273e-05 0)
(0.2081147 1.6805339e-05 0)
(0.20721737 1.6114198e-05 0)
(0.20633186 1.5454337e-05 0)
(0.20545909 1.4789662e-05 0)
(0.20459891 1.4460923e-05 0)
(0.20372382 1.444627e-05 0)
(0.20283508 1.4264683e-05 0)
(0.20194075 1.3972163e-05 0)
(0.20104368 1.362888e-05 0)
(0.20014465 1.3300074e-05 0)
(0.19924059 1.3039469e-05 0)
(0.19832981 1.277338e-05 0)
(0.19741136 1.2536259e-05 0)
(0.19648476 1.2286095e-05 0)
(0.1955508 1.203329e-05 0)
(0.19460968 1.1775793e-05 0)
(0.19366291 1.1498719e-05 0)
(0.19271105 1.1229918e-05 0)
(0.19175524 1.0942554e-05 0)
(0.19079594 1.0664651e-05 0)
(0.18983495 1.0388442e-05 0)
(0.18886783 1.0123309e-05 0)
(0.18790758 9.9148839e-06 0)
(0.18690576 9.6433112e-06 0)
(0.18600797 1.1292471e-05 0)
(0.1847736 3.9529316e-05 0)
(0.18403222 6.4693879e-05 0)
(0.18205696 2.9749719e-05 0)
(0.96803414 0.029707603 0)
(0.97312171 0.037719954 0)
(0.98240878 0.041542585 0)
(0.98426977 0.041014531 0)
(0.97939905 0.037120374 0)
(0.96363625 0.030599943 0)
(0.9392755 0.024147785 0)
(0.91012981 0.019116614 0)
(0.87837024 0.01550075 0)
(0.84617353 0.012897605 0)
(0.81517536 0.01095765 0)
(0.78577472 0.0094046962 0)
(0.75804039 0.0081186851 0)
(0.73189023 0.0070810574 0)
(0.70722087 0.0062338319 0)
(0.68397651 0.0055130002 0)
(0.66212016 0.0048987945 0)
(0.64155887 0.0043849198 0)
(0.62218108 0.0039453251 0)
(0.60389846 0.0035579282 0)
(0.5866397 0.0032167526 0)
(0.57032205 0.0029217558 0)
(0.55486511 0.0026625593 0)
(0.54020617 0.0024301391 0)
(0.52629307 0.0022224014 0)
(0.51306976 0.0020387558 0)
(0.50048391 0.0018737899 0)
(0.48849591 0.001723058 0)
(0.477073 0.0015858128 0)
(0.46618144 0.0014615066 0)
(0.45579148 0.0013474288 0)
(0.44588199 0.0012415568 0)
(0.43643574 0.0011436537 0)
(0.42743569 0.0010531981 0)
(0.41886828 0.00096872169 0)
(0.41072599 0.00088919515 0)
(0.40300485 0.00081432897 0)
(0.39570312 0.00074340959 0)
(0.38882369 0.00067540967 0)
(0.38237505 0.00060973485 0)
(0.37636895 0.00054627771 0)
(0.37081924 0.00048464716 0)
(0.36574542 0.00042425878 0)
(0.36116773 0.00036509981 0)
(0.3571161 0.00030678988 0)
(0.35362732 0.00024648447 0)
(0.3507315 0.00018517335 0)
(0.34845047 0.00012897851 0)
(0.34678556 7.4247734e-05 0)
(0.34572412 2.4079765e-05 0)
(0.34523779 -2.070422e-05 0)
(0.34528253 -5.93733e-05 0)
(0.34580144 -9.0490391e-05 0)
(0.34670433 -0.00011247476 0)
(0.34789858 -0.00012694689 0)
(0.34929322 -0.00013380183 0)
(0.35074674 -0.00012953004 0)
(0.352086 -0.00011294719 0)
(0.35315532 -8.5167055e-05 0)
(0.35383897 -5.8476779e-05 0)
(0.35412244 -3.0321666e-05 0)
(0.35401 -5.106195e-06 0)
(0.35353641 1.5974315e-05 0)
(0.35275772 3.2108374e-05 0)
(0.35173867 4.3614945e-05 0)
(0.35053872 5.1250916e-05 0)
(0.34921028 5.5718398e-05 0)
(0.34779649 5.7902643e-05 0)
(0.34633038 5.8465429e-05 0)
(0.34483689 5.7887703e-05 0)
(0.34333492 5.6559124e-05 0)
(0.34183654 5.4834828e-05 0)
(0.34035022 5.2824113e-05 0)
(0.33888358 5.0639269e-05 0)
(0.33743962 4.8502939e-05 0)
(0.33601949 4.6392577e-05 0)
(0.3346215 4.517677e-05 0)
(0.33320563 4.4771529e-05 0)
(0.33177923 4.3989044e-05 0)
(0.330352 4.2929663e-05 0)
(0.32892546 4.178495e-05 0)
(0.32749906 4.070804e-05 0)
(0.32606847 3.9804749e-05 0)
(0.32463081 3.8932952e-05 0)
(0.32318423 3.8137245e-05 0)
(0.32172784 3.7328956e-05 0)
(0.32026226 3.6518171e-05 0)
(0.31878775 3.5696071e-05 0)
(0.31730612 3.4833517e-05 0)
(0.31581822 3.398215e-05 0)
(0.3143255 3.3096007e-05 0)
(0.31282867 3.2222474e-05 0)
(0.31133012 3.1367537e-05 0)
(0.30982448 3.0511824e-05 0)
(0.3083275 2.9891814e-05 0)
(0.30677963 2.8840936e-05 0)
(0.30535869 3.1271447e-05 0)
(0.30351658 7.2035975e-05 0)
(0.3023134 0.00011273484 0)
(0.29931987 2.7363472e-05 0)
(0.97007561 0.027084098 0)
(0.97642527 0.034266371 0)
(0.98548343 0.038380053 0)
(0.99344983 0.039213727 0)
(1.0016546 0.0361775 0)
(1.0025425 0.031202107 0)
(0.99958509 0.026293005 0)
(0.99334575 0.022247078 0)
(0.98421685 0.019368299 0)
(0.9725267 0.017346309 0)
(0.95870348 0.015775931 0)
(0.9431448 0.014349469 0)
(0.92572693 0.01301428 0)
(0.90738415 0.011779876 0)
(0.88857016 0.01066903 0)
(0.86957048 0.0096635182 0)
(0.85058683 0.0087600981 0)
(0.83174329 0.007970649 0)
(0.81313029 0.0072747899 0)
(0.79484009 0.0066464521 0)
(0.77695282 0.0060785651 0)
(0.75951362 0.0055726693 0)
(0.74254659 0.0051175316 0)
(0.72607198 0.0047028107 0)
(0.71010807 0.0043264514 0)
(0.69465684 0.0039880277 0)
(0.67971264 0.0036807136 0)
(0.66527246 0.0033984274 0)
(0.65133244 0.0031397343 0)
(0.6378828 0.0029034539 0)
(0.62491357 0.0026855017 0)
(0.61241929 0.0024826872 0)
(0.6003956 0.0022942363 0)
(0.58883695 0.0021190612 0)
(0.57774031 0.0019548058 0)
(0.56710808 0.0017996906 0)
(0.55694615 0.0016530774 0)
(0.54726042 0.0015138062 0)
(0.53805968 0.0013801788 0)
(0.52935763 0.0012511102 0)
(0.52117132 0.0011262386 0)
(0.51352045 0.0010048406 0)
(0.50643024 0.00088598109 0)
(0.49992646 0.00076943982 0)
(0.49404656 0.00065221905 0)
(0.48882855 0.00054164651 0)
(0.48429086 0.00042575462 0)
(0.48044119 0.000312673 0)
(0.47727122 0.00020973612 0)
(0.47476036 0.00011549496 0)
(0.47287715 3.1339456e-05 0)
(0.47157547 -4.1292214e-05 0)
(0.47078912 -9.9897032e-05 0)
(0.470422 -0.00014224107 0)
(0.470387 -0.00017103397 0)
(0.47057498 -0.00018566495 0)
(0.47082003 -0.00017824019 0)
(0.47095181 -0.00015072196 0)
(0.47084108 -9.8953603e-05 0)
(0.47040096 -6.1245405e-05 0)
(0.46962571 -1.4884483e-05 0)
(0.4685209 2.6143742e-05 0)
(0.46712182 6.0177809e-05 0)
(0.46547592 8.6055815e-05 0)
(0.46363654 0.000104274 0)
(0.46165358 0.00011603126 0)
(0.45957231 0.00012248895 0)
(0.45743119 0.00012506382 0)
(0.45526062 0.00012485979 0)
(0.45308409 0.00012270553 0)
(0.45091954 0.00011928245 0)
(0.44877843 0.00011517335 0)
(0.44666965 0.00011058114 0)
(0.44460068 0.000105726 0)
(0.44257431 0.00010097589 0)
(0.44059106 9.6374666e-05 0)
(0.43864674 9.2944075e-05 0)
(0.43673279 9.0724661e-05 0)
(0.43484215 8.8353667e-05 0)
(0.43297046 8.5803029e-05 0)
(0.43111358 8.3247074e-05 0)
(0.42926862 8.0878137e-05 0)
(0.42743014 7.8838482e-05 0)
(0.42559393 7.6917699e-05 0)
(0.42375698 7.5156211e-05 0)
(0.42191735 7.3412513e-05 0)
(0.42007479 7.168812e-05 0)
(0.41822889 6.9961716e-05 0)
(0.41638083 6.8187631e-05 0)
(0.41453108 6.6437823e-05 0)
(0.4126806 6.4649526e-05 0)
(0.41082981 6.2881483e-05 0)
(0.40898094 6.1166882e-05 0)
(0.407128 5.9430791e-05 0)
(0.40528723 5.8199144e-05 0)
(0.40339547 5.5992514e-05 0)
(0.40163598 5.9189052e-05 0)
(0.39945112 0.00010685892 0)
(0.39791685 0.00015710283 0)
(0.39438423 9.0589471e-05 0)
(0.97243346 0.02556371 0)
(0.97779209 0.032401114 0)
(0.98588219 0.036408991 0)
(0.99419034 0.037070602 0)
(1.0012713 0.034670092 0)
(1.0056248 0.030637113 0)
(1.0079643 0.026373129 0)
(1.0071151 0.022757218 0)
(1.0053067 0.020141659 0)
(1.0027987 0.018353376 0)
(0.99959242 0.017017004 0)
(0.99558802 0.015923456 0)
(0.9902962 0.014971332 0)
(0.98362634 0.014078543 0)
(0.97559317 0.01322572 0)
(0.96632048 0.012373221 0)
(0.95570779 0.011537301 0)
(0.94420664 0.01074695 0)
(0.93201355 0.010009745 0)
(0.91927109 0.0093174058 0)
(0.90609544 0.0086712055 0)
(0.89258949 0.0080774196 0)
(0.87883044 0.0075277221 0)
(0.86490437 0.007012356 0)
(0.85089557 0.006530817 0)
(0.83687215 0.0060853297 0)
(0.82289228 0.0056704484 0)
(0.80901062 0.0052811781 0)
(0.79527456 0.0049176135 0)
(0.78172059 0.0045797448 0)
(0.76837999 0.0042636056 0)
(0.7552835 0.0039659834 0)
(0.74245884 0.0036863356 0)
(0.72992946 0.003423492 0)
(0.71771878 0.0031745244 0)
(0.70585467 0.0029371631 0)
(0.69436579 0.0027110853 0)
(0.68326901 0.0024953411 0)
(0.67258291 0.0022877563 0)
(0.66233104 0.002086702 0)
(0.65253993 0.0018914907 0)
(0.64323802 0.0017010605 0)
(0.63445795 0.0015141774 0)
(0.62623204 0.0013301765 0)
(0.61861106 0.0011477454 0)
(0.61161415 0.00096794997 0)
(0.60523737 0.00079049836 0)
(0.59947719 0.0006234697 0)
(0.59432789 0.0004669765 0)
(0.58978015 0.00032333283 0)
(0.58581449 0.00019484257 0)
(0.58239894 8.3603991e-05 0)
(0.57947598 -6.9023594e-06 0)
(0.57696293 -7.4305973e-05 0)
(0.57480739 -0.00012055295 0)
(0.57285927 -0.00014178777 0)
(0.57094078 -0.00013404437 0)
(0.56894266 -0.0001000788 0)
(0.56681319 -3.2983115e-05 0)
(0.56451602 8.8068753e-06 0)
(0.56206417 6.4910511e-05 0)
(0.55946266 0.00011398251 0)
(0.5567306 0.00015411747 0)
(0.55389149 0.00018397457 0)
(0.55097322 0.00020420306 0)
(0.54800318 0.00021626725 0)
(0.54500799 0.00022159353 0)
(0.54201167 0.00022194828 0)
(0.53903412 0.00021873455 0)
(0.5360914 0.00021303344 0)
(0.53319586 0.00020575403 0)
(0.53035525 0.00019764031 0)
(0.52757689 0.00018896075 0)
(0.52486611 0.00018004408 0)
(0.52222397 0.00017139123 0)
(0.5196495 0.00016312329 0)
(0.51713674 0.00015639993 0)
(0.51469397 0.00015118985 0)
(0.51231008 0.00014602252 0)
(0.50997254 0.00014097697 0)
(0.5076723 0.00013617201 0)
(0.50540389 0.00013176826 0)
(0.50316065 0.00012791246 0)
(0.50093707 0.00012432643 0)
(0.49872888 0.00012103686 0)
(0.49653282 0.00011784788 0)
(0.49434733 0.00011474529 0)
(0.49217085 0.00011168963 0)
(0.49000336 0.00010861561 0)
(0.48784443 0.00010560841 0)
(0.485694 0.00010258797 0)
(0.48355184 9.9616666e-05 0)
(0.4814194 9.6760437e-05 0)
(0.47928998 9.3872814e-05 0)
(0.4771792 9.1809282e-05 0)
(0.47502341 8.8186176e-05 0)
(0.47300009 9.196515e-05 0)
(0.47057824 0.00014237992 0)
(0.46878204 0.00019698619 0)
(0.46489821 0.00015469279 0)
(0.97462281 0.024511666 0)
(0.97931525 0.030794673 0)
(0.98638826 0.034469541 0)
(0.99380137 0.035113882 0)
(1.000198 0.033234912 0)
(1.0048252 0.029796638 0)
(1.007319 0.025982819 0)
(1.0083053 0.022699216 0)
(1.0079815 0.020248062 0)
(1.007429 0.018528969 0)
(1.0067995 0.017262851 0)
(1.006043 0.016264215 0)
(1.0050124 0.015424004 0)
(1.0035935 0.014654076 0)
(1.0016724 0.013929837 0)
(0.99918362 0.013259725 0)
(0.99589111 0.012639177 0)
(0.99174136 0.012045413 0)
(0.98671941 0.011470854 0)
(0.98083933 0.010898999 0)
(0.97403498 0.010331017 0)
(0.96649615 0.0097845462 0)
(0.95831001 0.0092598056 0)
(0.9495413 0.0087546261 0)
(0.94024722 0.0082712616 0)
(0.93048399 0.0078127955 0)
(0.92031091 0.00737498 0)
(0.90978436 0.0069539203 0)
(0.89896143 0.0065508758 0)
(0.88789827 0.0061670691 0)
(0.8766493 0.0057994719 0)
(0.8652695 0.0054459673 0)
(0.8538113 0.0051074155 0)
(0.84232139 0.0047836421 0)
(0.83084434 0.0044721607 0)
(0.81942553 0.0041710233 0)
(0.80810999 0.0038799969 0)
(0.79694234 0.0035984294 0)
(0.78596625 0.003324662 0)
(0.77522574 0.0030573414 0)
(0.76476437 0.0027959429 0)
(0.7546257 0.0025393252 0)
(0.74485638 0.0022861789 0)
(0.73550303 0.0020348196 0)
(0.72664384 0.0017876699 0)
(0.71821678 0.0015467598 0)
(0.71023011 0.0013129827 0)
(0.70272584 0.0010881694 0)
(0.69573142 0.00087623808 0)
(0.68925619 0.00068115092 0)
(0.68329064 0.00050590605 0)
(0.67780634 0.00035366659 0)
(0.67274892 0.00022842708 0)
(0.66806429 0.00013082628 0)
(0.66375228 6.5098866e-05 0)
(0.65953394 3.5444757e-05 0)
(0.65528085 3.9598554e-05 0)
(0.65101978 7.0676513e-05 0)
(0.64678049 0.00013776251 0)
(0.6425566 0.00017436716 0)
(0.63836575 0.00022767945 0)
(0.63420604 0.00027391635 0)
(0.6300787 0.00031084083 0)
(0.62598566 0.00033696356 0)
(0.62193315 0.00035290378 0)
(0.61792852 0.00036014961 0)
(0.61398036 0.00036016336 0)
(0.61009771 0.00035483975 0)
(0.60628887 0.0003456952 0)
(0.60256105 0.00033391877 0)
(0.5989204 0.00032052732 0)
(0.59537135 0.00030638848 0)
(0.59191634 0.00029181784 0)
(0.58855727 0.00027719869 0)
(0.58529295 0.00026313139 0)
(0.58212062 0.00024979996 0)
(0.57903392 0.00023821249 0)
(0.57603529 0.00022836415 0)
(0.57311993 0.00021904482 0)
(0.57027737 0.00021034136 0)
(0.56749727 0.00020224816 0)
(0.56477246 0.00019486304 0)
(0.56209528 0.00018831909 0)
(0.5594592 0.00018226895 0)
(0.55685884 0.00017671846 0)
(0.5542897 0.00017141661 0)
(0.5517488 0.00016632752 0)
(0.5492333 0.00016138862 0)
(0.5467418 0.00015651082 0)
(0.54427265 0.00015178157 0)
(0.54182501 0.00014710387 0)
(0.53939744 0.00014254186 0)
(0.53699015 0.00013819415 0)
(0.53459566 0.00013382716 0)
(0.5322283 0.00013065336 0)
(0.5298255 0.00012532995 0)
(0.5275544 0.00012928663 0)
(0.52491771 0.00017969685 0)
(0.52288802 0.00023639142 0)
(0.5186954 0.00019438632 0)
(0.97659518 0.023525821 0)
(0.98075589 0.0291527 0)
(0.98701407 0.032517912 0)
(0.99363223 0.033276491 0)
(0.99944213 0.031816037 0)
(1.0037565 0.028881801 0)
(1.0063043 0.025505111 0)
(1.0074592 0.02252228 0)
(1.0077758 0.020236356 0)
(1.0077547 0.018571353 0)
(1.0076571 0.01731822 0)
(1.0075532 0.016318058 0)
(1.0074334 0.015484182 0)
(1.0072529 0.014744475 0)
(1.0069498 0.014071066 0)
(1.0064845 0.013463209 0)
(1.0058115 0.012909828 0)
(1.0048756 0.012387078 0)
(1.0036171 0.011890183 0)
(1.0019824 0.011423667 0)
(0.99984143 0.010983209 0)
(0.99714062 0.010556061 0)
(0.99385489 0.010137193 0)
(0.98995924 0.0097188899 0)
(0.98540978 0.0093029053 0)
(0.98028604 0.0088973325 0)
(0.97461545 0.0085006563 0)
(0.96842338 0.0081113997 0)
(0.96173427 0.0077320965 0)
(0.95457331 0.0073641171 0)
(0.94697011 0.0070042822 0)
(0.93896073 0.0066505974 0)
(0.93058238 0.0063049672 0)
(0.92186386 0.0059678534 0)
(0.91284249 0.0056367737 0)
(0.90355859 0.0053102297 0)
(0.89405229 0.0049891379 0)
(0.88437073 0.0046735303 0)
(0.87456349 0.0043617423 0)
(0.86468193 0.0040526609 0)
(0.85477837 0.0037462621 0)
(0.84490646 0.0034418104 0)
(0.83512277 0.0031383064 0)
(0.82548705 0.0028342754 0)
(0.8160642 0.0025308975 0)
(0.80689282 0.0022357651 0)
(0.79797678 0.0019525992 0)
(0.78934839 0.001680135 0)
(0.78104244 0.0014212726 0)
(0.773086 0.001180208 0)
(0.76549206 0.00096111095 0)
(0.75825614 0.00076856205 0)
(0.75135207 0.00060702473 0)
(0.74477538 0.00047573515 0)
(0.7385481 0.00038114273 0)
(0.73247755 0.00033336545 0)
(0.72646767 0.00032719047 0)
(0.7205411 0.00034823496 0)
(0.71471989 0.00040282669 0)
(0.70899452 0.00042991239 0)
(0.70338907 0.0004714516 0)
(0.69790616 0.00050631917 0)
(0.69254378 0.00053240055 0)
(0.68729941 0.00054807513 0)
(0.68217481 0.00055387822 0)
(0.67717008 0.00055129951 0)
(0.67228481 0.00054174742 0)
(0.66751995 0.00052710539 0)
(0.6628769 0.00050888296 0)
(0.65835662 0.00048829001 0)
(0.65396042 0.0004663621 0)
(0.64968989 0.00044399455 0)
(0.6455439 0.00042151976 0)
(0.64152144 0.00039937156 0)
(0.63761925 0.00037821836 0)
(0.6338329 0.0003582665 0)
(0.63015595 0.00034042922 0)
(0.62658578 0.0003246681 0)
(0.62311936 0.00030989009 0)
(0.61974933 0.00029624257 0)
(0.61646644 0.00028365315 0)
(0.61326321 0.00027216482 0)
(0.61013155 0.00026188999 0)
(0.60706422 0.00025241194 0)
(0.604055 0.00024371159 0)
(0.6010983 0.00023548286 0)
(0.59818988 0.00022766394 0)
(0.59532558 0.00022016455 0)
(0.59250263 0.00021286742 0)
(0.58971805 0.00020585522 0)
(0.58696997 0.00019900928 0)
(0.58425566 0.00019238973 0)
(0.58157405 0.00018612783 0)
(0.57891681 0.00017989259 0)
(0.57629668 0.00017526373 0)
(0.57365268 0.00016792551 0)
(0.57114082 0.00017163592 0)
(0.56829442 0.00022036099 0)
(0.56604839 0.00027854027 0)
(0.56156463 0.0002365495 0)
(0.97839496 0.022612531 0)
(0.98209731 0.027631824 0)
(0.98764325 0.030751061 0)
(0.9935841 0.03160443 0)
(0.99889198 0.030476904 0)
(1.0029295 0.027994389 0)
(1.0054546 0.025028293 0)
(1.0067016 0.022315036 0)
(1.0071844 0.020161267 0)
(1.0073539 0.018542904 0)
(1.0074459 0.017305328 0)
(1.0075265 0.016311072 0)
(1.0075917 0.015478456 0)
(1.0076624 0.0147443 0)
(1.0077026 0.014081894 0)
(1.0076894 0.013485561 0)
(1.0076319 0.012946182 0)
(1.0075136 0.012446264 0)
(1.0073089 0.01198047 0)
(1.0069954 0.011550356 0)
(1.0065438 0.011148984 0)
(1.0059163 0.010764593 0)
(1.0050739 0.010394822 0)
(1.0039711 0.010042274 0)
(1.0025294 0.0097041505 0)
(1.0007064 0.0093739616 0)
(0.99847308 0.0090472475 0)
(0.99579124 0.0087198105 0)
(0.99263712 0.008393664 0)
(0.98903723 0.0080719471 0)
(0.98499333 0.0077529097 0)
(0.98050518 0.0074351832 0)
(0.97557569 0.0071201808 0)
(0.97021356 0.0068085214 0)
(0.96442792 0.006498013 0)
(0.95823202 0.0061870721 0)
(0.95164039 0.0058763681 0)
(0.94467064 0.0055657785 0)
(0.93733785 0.0052537546 0)
(0.92966335 0.0049391567 0)
(0.92167638 0.0046220154 0)
(0.91341044 0.0043017042 0)
(0.90490291 0.0039771484 0)
(0.89620034 0.0036469688 0)
(0.88733176 0.0033140778 0)
(0.87843152 0.0029866105 0)
(0.86954927 0.0026672366 0)
(0.86070087 0.0023573072 0)
(0.85191526 0.0020603671 0)
(0.84322972 0.0017808259 0)
(0.83468502 0.0015234213 0)
(0.8263206 0.0012936387 0)
(0.8181702 0.0010969355 0)
(0.81025595 0.00093256044 0)
(0.80257172 0.0008075829 0)
(0.79521231 0.00073762182 0)
(0.78803969 0.00071369646 0)
(0.78103675 0.00071665833 0)
(0.77415504 0.00075054153 0)
(0.7673655 0.00076398277 0)
(0.7607031 0.00078828344 0)
(0.75417421 0.00080651126 0)
(0.74777906 0.00081676043 0)
(0.74152589 0.00081712668 0)
(0.73542604 0.00080819223 0)
(0.72948108 0.00079162572 0)
(0.72369071 0.00076873704 0)
(0.71805698 0.00074134297 0)
(0.71258025 0.00071095949 0)
(0.7072589 0.00067878157 0)
(0.70209196 0.00064578014 0)
(0.6970794 0.0006128596 0)
(0.69221926 0.00058037506 0)
(0.68750914 0.0005487702 0)
(0.68294434 0.00051875475 0)
(0.67851914 0.0004905223 0)
(0.67422709 0.00046493888 0)
(0.67006311 0.00044190117 0)
(0.66602371 0.00042030755 0)
(0.66210322 0.0004003672 0)
(0.65829395 0.00038197978 0)
(0.65458905 0.00036515453 0)
(0.65098044 0.00034998943 0)
(0.64746053 0.00033600224 0)
(0.64402242 0.00032314839 0)
(0.64065963 0.00031106786 0)
(0.63736676 0.0002996705 0)
(0.63413843 0.00028883481 0)
(0.63097048 0.00027841135 0)
(0.62785863 0.00026846966 0)
(0.62479955 0.00025886618 0)
(0.62178936 0.00024965459 0)
(0.61882574 0.00024099395 0)
(0.61589947 0.00023244807 0)
(0.61302161 0.00022596408 0)
(0.61013275 0.0002162603 0)
(0.60737842 0.00021933792 0)
(0.60431684 0.00026543002 0)
(0.60186008 0.00032544225 0)
(0.59708414 0.00028163997 0)
(0.98003923 0.021775265 0)
(0.98335031 0.026246806 0)
(0.98826215 0.029131007 0)
(0.99358883 0.030040272 0)
(0.99843741 0.029192449 0)
(1.0022308 0.027113034 0)
(1.0047247 0.024523897 0)
(1.006071 0.022065393 0)
(1.0066817 0.020046883 0)
(1.0069563 0.01848614 0)
(1.0071264 0.017269539 0)
(1.0072732 0.016282383 0)
(1.0074108 0.015451295 0)
(1.0075418 0.01472167 0)
(1.0076538 0.014066153 0)
(1.0077443 0.013474608 0)
(1.0078136 0.012938215 0)
(1.0078818 0.012443101 0)
(1.0079178 0.011985099 0)
(1.0079154 0.011563414 0)
(1.0078828 0.011171724 0)
(1.0078077 0.010802092 0)
(1.0076737 0.010451721 0)
(1.0074642 0.010121425 0)
(1.0071588 0.0098075477 0)
(1.0067307 0.0095045243 0)
(1.0061536 0.0092108318 0)
(1.0053888 0.0089267188 0)
(1.0043865 0.0086501965 0)
(1.003113 0.0083779513 0)
(1.0015437 0.0081062078 0)
(0.99963442 0.00783212 0)
(0.9973711 0.0075578049 0)
(0.99475708 0.0072843586 0)
(0.99178205 0.0070097891 0)
(0.98843362 0.0067326927 0)
(0.98470129 0.0064533937 0)
(0.98057552 0.0061712646 0)
(0.97605156 0.0058845537 0)
(0.97112589 0.0055923211 0)
(0.96579409 0.0052945317 0)
(0.96005202 0.0049903121 0)
(0.95389634 0.0046781331 0)
(0.94732891 0.0043573474 0)
(0.94033946 0.0040294335 0)
(0.93296009 0.003698128 0)
(0.92527425 0.0033680174 0)
(0.91733018 0.0030438093 0)
(0.90916713 0.0027302733 0)
(0.90082557 0.0024316582 0)
(0.89235392 0.0021525239 0)
(0.88381114 0.0018983619 0)
(0.87526746 0.0016744605 0)
(0.86677315 0.0014817174 0)
(0.85832709 0.0013268903 0)
(0.85012729 0.0012221286 0)
(0.84223836 0.0011655681 0)
(0.83458819 0.0011461548 0)
(0.82700868 0.001158909 0)
(0.81950667 0.0011580309 0)
(0.8121176 0.0011642374 0)
(0.80482202 0.0011648434 0)
(0.7976276 0.0011574298 0)
(0.79056189 0.0011400735 0)
(0.78364283 0.0011138635 0)
(0.77687303 0.0010807158 0)
(0.77026138 0.0010417534 0)
(0.76381906 0.00099885482 0)
(0.75754842 0.00095371754 0)
(0.7514492 0.00090749844 0)
(0.74552329 0.00086106894 0)
(0.73977205 0.00081537049 0)
(0.73419373 0.00077078366 0)
(0.72878634 0.00072775308 0)
(0.72354546 0.00068702687 0)
(0.71846523 0.00064876848 0)
(0.71353993 0.0006138027 0)
(0.7087643 0.00058196188 0)
(0.70413434 0.00055208999 0)
(0.69964506 0.00052442946 0)
(0.69529016 0.0004988559 0)
(0.69106372 0.00047536268 0)
(0.68695813 0.00045404551 0)
(0.68296578 0.00043436351 0)
(0.67907937 0.00041624966 0)
(0.67529171 0.00039929205 0)
(0.67159646 0.00038337096 0)
(0.66798714 0.0003683314 0)
(0.66445834 0.00035398843 0)
(0.66100452 0.00034039435 0)
(0.65762092 0.00032737576 0)
(0.65430243 0.00031497251 0)
(0.65104548 0.00030336705 0)
(0.64784 0.00029201307 0)
(0.64469528 0.00028322094 0)
(0.64155328 0.00027075628 0)
(0.63855032 0.00027281852 0)
(0.63526374 0.00031571341 0)
(0.63259489 0.00037840008 0)
(0.62751661 0.00033042861 0)
(0.98154122 0.020999981 0)
(0.98451544 0.024975384 0)
(0.9888667 0.027626346 0)
(0.99363608 0.028568755 0)
(0.99805866 0.027961487 0)
(1.0016147 0.026237029 0)
(1.0040612 0.02399065 0)
(1.005488 0.021777751 0)
(1.0062206 0.019900915 0)
(1.0066008 0.018408185 0)
(1.0068438 0.017220085 0)
(1.0070374 0.016243951 0)
(1.0072077 0.015416378 0)
(1.0073629 0.01469047 0)
(1.0075025 0.014039319 0)
(1.0076257 0.013451428 0)
(1.0077353 0.012917698 0)
(1.0078345 0.012426719 0)
(1.0079182 0.011973296 0)
(1.00799 0.011554412 0)
(1.0080489 0.011164863 0)
(1.0081077 0.010798076 0)
(1.0081472 0.010452544 0)
(1.0081565 0.010128141 0)
(1.0081444 0.0098210104 0)
(1.0081013 0.0095277993 0)
(1.0080177 0.0092467843 0)
(1.0078799 0.0089767937 0)
(1.0076731 0.0087159404 0)
(1.0073773 0.0084615574 0)
(1.0069735 0.008212741 0)
(1.0064291 0.0079687456 0)
(1.005711 0.0077278453 0)
(1.0047919 0.0074881599 0)
(1.0036514 0.0072466072 0)
(1.0022458 0.007001091 0)
(1.0005689 0.006752681 0)
(0.99860516 0.0065013801 0)
(0.99633795 0.006245775 0)
(0.99374883 0.0059844656 0)
(0.9908178 0.0057170613 0)
(0.98752307 0.0054427692 0)
(0.98384102 0.0051599292 0)
(0.97974638 0.0048680022 0)
(0.97520916 0.0045672327 0)
(0.97019146 0.0042598698 0)
(0.96469198 0.0039497553 0)
(0.95872865 0.0036407083 0)
(0.95231617 0.0033374669 0)
(0.94547253 0.0030444366 0)
(0.93822415 0.0027659159 0)
(0.93061042 0.0025067878 0)
(0.92268883 0.0022724515 0)
(0.91452864 0.0020664122 0)
(0.90617417 0.0018924625 0)
(0.89775516 0.0017607704 0)
(0.88950071 0.0016740561 0)
(0.88143585 0.0016232262 0)
(0.87354441 0.0016079247 0)
(0.86578499 0.0015909428 0)
(0.85808865 0.0015823814 0)
(0.85038347 0.0015681433 0)
(0.84272791 0.0015438399 0)
(0.83515944 0.0015090559 0)
(0.82767567 0.0014656266 0)
(0.82029115 0.0014151017 0)
(0.81303644 0.0013586881 0)
(0.80593015 0.0012987721 0)
(0.79897606 0.0012372665 0)
(0.79218311 0.0011751954 0)
(0.78556249 0.001113427 0)
(0.77911881 0.0010530881 0)
(0.77285268 0.00099456536 0)
(0.76676607 0.00093828124 0)
(0.76085759 0.00088506568 0)
(0.75512334 0.00083505074 0)
(0.74956047 0.00078901018 0)
(0.7441657 0.00074674279 0)
(0.73893554 0.00070704536 0)
(0.73386581 0.00067016614 0)
(0.72895169 0.00063594749 0)
(0.72418836 0.00060437988 0)
(0.71956905 0.00057556642 0)
(0.71508663 0.00054891598 0)
(0.71073377 0.00052434652 0)
(0.70650289 0.00050139685 0)
(0.70238702 0.00047991772 0)
(0.69837884 0.00045972004 0)
(0.69447192 0.00044058097 0)
(0.69065956 0.00042253277 0)
(0.68693574 0.00040536761 0)
(0.68329414 0.00038910469 0)
(0.67972998 0.00037394453 0)
(0.6762323 0.00035922653 0)
(0.67280872 0.00034761876 0)
(0.66940227 0.00033194672 0)
(0.66614135 0.00033258862 0)
(0.66261763 0.00037187154 0)
(0.65973065 0.00043829098 0)
(0.65433465 0.00038338541 0)
(0.9829143 0.020275528 0)
(0.98559594 0.023806022 0)
(0.98945438 0.026233073 0)
(0.99372148 0.027193229 0)
(0.99775019 0.026790071 0)
(1.0010739 0.025374378 0)
(1.0034556 0.023437609 0)
(1.0049377 0.021458337 0)
(1.0057734 0.019724091 0)
(1.0062515 0.018305378 0)
(1.0065682 0.017152359 0)
(1.0068128 0.016192766 0)
(1.0070178 0.015373107 0)
(1.0071968 0.014653174 0)
(1.0073546 0.014007473 0)
(1.0074934 0.013423782 0)
(1.0076173 0.012893123 0)
(1.0077299 0.012405388 0)
(1.0078319 0.011954737 0)
(1.0079249 0.011537816 0)
(1.0080111 0.011149793 0)
(1.0080915 0.01078528 0)
(1.0081628 0.010442496 0)
(1.0082267 0.010120012 0)
(1.0082836 0.0098147755 0)
(1.0083334 0.0095232104 0)
(1.0083839 0.0092446837 0)
(1.0084042 0.0089789636 0)
(1.0084088 0.0087230866 0)
(1.0083904 0.0084754965 0)
(1.0083422 0.0082353865 0)
(1.0082539 0.0080009429 0)
(1.0081135 0.0077706569 0)
(1.0079058 0.0075431104 0)