/*--------------------------------*- C++ -*----------------------------------*\
| =========                 |                                                 |
| \\      /  F ield         | OpenFOAM: The Open Source CFD Toolbox           |
|  \\    /   O peration     | Version:  2206                                  |
|   \\  /    A nd           | Website:  www.openfoam.com                      |
|    \\/     M anipulation  |                                                 |
\*---------------------------------------------------------------------------*/
FoamFile
{
    version     2.0;
    format      ascii;
    arch        "LSB;label=32;scalar=64";
    class       volScalarField;
    location    "100";
    object      k;
}
// * * * * * * * * * * * * * * * * * * * * * * * * * * * * * * * * * * * * * //

dimensions      [0 2 -2 0 0 0 0];

internalField   nonuniform List<scalar> 
7480
(
0.011444702
0.014108876
0.011690475
0.0076595004
0.0045416576
0.0027811175
0.0019369572
0.0015258463
0.0012980474
0.0011497311
0.0010351674
0.00093691453
0.00085131403
0.00077725225
0.00071303732
0.0006570935
0.00060823194
0.00056531189
0.00052713286
0.00049291941
0.00046220141
0.00043446981
0.00040925769
0.0003862705
0.0003652751
0.00034601918
0.00032827854
0.00031191046
0.00029680206
0.00028282436
0.00026986508
0.00025785097
0.00024671766
0.00023639332
0.00022681762
0.00021794953
0.00020975167
0.00020218741
0.00019523191
0.00018887276
0.0001830995
0.00017790138
0.00017327856
0.00016923058
0.00016576657
0.0001629609
0.00016076463
0.00015927456
0.00015848377
0.00015837199
0.00015891563
0.00016008556
0.0001618201
0.00016400687
0.00016653527
0.00016932868
0.00017222017
0.00017496109
0.00017731545
0.00017909219
0.00018028182
0.00018089477
0.00018098447
0.00018062819
0.0001799226
0.00017895458
0.00017780242
0.00017652901
0.00017517841
0.00017378292
0.00017236783
0.0001709481
0.00016953322
0.00016813295
0.00016674944
0.00016538373
0.0001640365
0.00016265825
0.00016124838
0.0001598224
0.00015838741
0.00015694761
0.00015549778
0.00015403552
0.00015256025
0.00015107105
0.00014956989
0.00014805653
0.00014653317
0.00014500004
0.00014345874
0.0001419099
0.00014035574
0.0001387867
0.00013722662
0.00013558295
0.00013411579
0.00013205254
0.00013083009
0.00012765206
0.0014156885
0.0025664169
0.002834669
0.0024740262
0.0020070948
0.0015608087
0.0011994571
0.00093124181
0.00073504799
0.00059087462
0.00048467511
0.00040594061
0.00034683539
0.00030171595
0.0002665182
0.00023840693
0.00021547731
0.00019641947
0.00018030486
0.00016650306
0.00015458857
0.00014423881
0.00013519956
0.0001272801
0.00012019916
0.0001138169
0.00010804758
0.00010284051
9.8162278e-05
9.3983737e-05
9.0281972e-05
8.7043062e-05
8.4256975e-05
8.1914551e-05
8.0010561e-05
7.8545168e-05
7.7522645e-05
7.6954581e-05
7.6864159e-05
7.7287111e-05
7.8270115e-05
7.9871176e-05
8.2162498e-05
8.5229107e-05
8.9177701e-05
9.4117016e-05
0.0001001286
0.00010727927
0.00011558846
0.00012504737
0.00013562317
0.00014731989
0.00015987496
0.0001729912
0.00018637961
0.00019960893
0.00021204011
0.00022309013
0.00023240073
0.00023991721
0.00024578996
0.00025027899
0.0002536445
0.00025598076
0.00025750947
0.0002584294
0.00025889823
0.0002590322
0.00025891605
0.0002586115
0.00025816281
0.00025759566
0.0002569329
0.00025619235
0.00025538077
0.00025449948
0.00025353074
0.00025228525
0.00025082419
0.00024922233
0.00024750549
0.0002456812
0.00024375149
0.00024172298
0.00023960155
0.00023739617
0.00023511563
0.00023276816
0.00023036243
0.00022790503
0.00022540541
0.00022286994
0.00022030397
0.00021771008
0.00021508988
0.00021243836
0.00020979014
0.00020679912
0.00020454953
0.00019970707
0.00020999779
0.0005571723
0.00084132796
0.00095099922
0.00092894214
0.0008435571
0.00075617898
0.00069797599
0.00065925519
0.0006242869
0.0005930745
0.00056402063
0.00053574106
0.00050882107
0.0004835225
0.00045986917
0.00043792133
0.00041769646
0.00039919846
0.00038243624
0.00036739871
0.00035404342
0.00034232293
0.00033217056
0.00032243474
0.00031324437
0.00030471384
0.00029697233
0.00029014702
0.00028435635
0.00027971888
0.00027635198
0.00027436491
0.0002738632
0.00027495724
0.00027776254
0.00028240634
0.00028905653
0.00029793871
0.00030933882
0.00032360183
0.00034113757
0.00036242783
0.00038802521
0.00041859817
0.00045473612
0.0004969147
0.00054538024
0.00060014122
0.00066103283
0.00072751758
0.0007991654
0.00087476721
0.00095259642
0.0010309686
0.0011073354
0.0011782273
0.0012407127
0.001293245
0.0013358297
0.0013694662
0.001395716
0.0014153647
0.0014295421
0.00143953
0.0014463699
0.0014508635
0.0014535928
0.001454981
0.0014553353
0.0014548734
0.0014537187
0.0014519899
0.0014497764
0.0014471117
0.0014439985
0.001440331
0.0014350151
0.0014284704
0.0014211137
0.0014130735
0.0014043849
0.0013950647
0.0013851532
0.0013746854
0.0013637136
0.0013522863
0.001340451
0.0013282551
0.0013157355
0.0013029454
0.0012899212
0.0012766908
0.0012632806
0.0012496707
0.001235942
0.0012219769
0.0012066989
0.0011946186
0.0011696914
3.661126e-05
0.00011640556
0.00022887004
0.0003288795
0.00038967041
0.00041112387
0.00040816224
0.00039501783
0.00038061043
0.00036974742
0.0003665195
0.00037464999
0.00038613946
0.00039595493
0.00040413659
0.00041042203
0.00041541844
0.00041962582
0.000423363
0.00042689008
0.00043042341
0.00043415078
0.00043822773
0.00044276138
0.00044759033
0.00045252947
0.00045762655
0.00046309496
0.00046921199
0.00047627876
0.00048461355
0.00049454847
0.00050642374
0.00052058982
0.00053741151
0.00055726563
0.0005805685
0.00060785116
0.00063977283
0.00067711007
0.00072074803
0.00077168402
0.00083103241
0.00090001927
0.00098004213
0.0010721054
0.0011766993
0.0012938201
0.0014229767
0.0015632665
0.0017132397
0.0018698299
0.0020311653
0.0021936845
0.0023540742
0.0025069686
0.0026459365
0.0027665668
0.0028674116
0.0029494619
0.0030152362
0.0030671656
0.0031068672
0.0031371036
0.0031601507
0.0031777748
0.003191305
0.0032016973
0.0032096385
0.0032156243
0.0032200022
0.0032229586
0.0032247028
0.0032253819
0.0032250442
0.0032236775
0.0032211033
0.0032151518
0.0032068583
0.0031969721
0.0031856781
0.0031730339
0.0031590824
0.0031439038
0.0031275739
0.0031101937
0.0030918563
0.0030726521
0.0030526685
0.0030319745
0.0030106691
0.0029888216
0.0029664811
0.002943708
0.0029204403
0.002896929
0.0028726197
0.002846699
0.0028246883
0.002782886
1.2523479e-05
2.7571679e-05
5.8621848e-05
9.9466628e-05
0.0001389684
0.00016941485
0.00018919728
0.00020025372
0.00020547412
0.00020733947
0.00020801817
0.00020957906
0.00021293909
0.0002186007
0.00022749669
0.00024060861
0.00025525569
0.00027042536
0.0002856954
0.00030132991
0.0003174776
0.00033432201
0.00035193636
0.00037025199
0.00038899174
0.00040785009
0.00042730693
0.00044781129
0.00046968897
0.0004932183
0.0005186793
0.00054638377
0.00057668935
0.00061000113
0.00064676479
0.00068746215
0.0007326933
0.00078331824
0.00084037223
0.00090499625
0.0009784332
0.0010620348
0.0011572636
0.0012656904
0.0013890476
0.0015277651
0.0016814361
0.0018493961
0.0020306894
0.0022239457
0.0024271502
0.0026370798
0.0028490361
0.0030590166
0.003263905
0.0034557366
0.0036267751
0.003773694
0.003896747
0.0039981231
0.0040804582
0.0041466052
0.0041995237
0.0042419895
0.0042763611
0.0043044929
0.0043277888
0.0043472712
0.004363679
0.0043775472
0.0043892504
0.0043989775
0.0044069909
0.0044134498
0.0044183922
0.0044217797
0.0044234419
0.004422478
0.0044189834
0.0044132575
0.0044054722
0.004395724
0.0043840997
0.0043707226
0.0043557179
0.0043392316
0.0043213985
0.0043023468
0.004282197
0.0042610475
0.0042390286
0.0042162358
0.0041927355
0.004168615
0.0041438005
0.0041186437
0.0040923109
0.0040647915
0.0040399001
0.0039966276
9.380462e-06
1.175204e-05
1.8504541e-05
3.034388e-05
4.5487609e-05
6.1115872e-05
7.5203356e-05
8.6930828e-05
9.6283084e-05
0.0001035764
0.00010920839
0.00011368677
0.00011750499
0.00012111357
0.00012501944
0.00012979699
0.00013572257
0.00014307184
0.00015227035
0.00016376666
0.00017688381
0.00019190295
0.000208105
0.00022551126
0.00024420338
0.00026423876
0.00028584552
0.00030932618
0.00033501617
0.0003632944
0.00039457989
0.00042933116
0.00046804966
0.00051127208
0.00055958293
0.00061369804
0.0006746147
0.0007433572
0.00082094263
0.0009084636
0.0010071287
0.0011182676
0.0012433222
0.0013838655
0.0015415704
0.0017146507
0.0019011528
0.0021002819
0.0023113731
0.0025332376
0.002763827
0.0029998258
0.0032364291
0.0034693729
0.0036954372
0.0039036217
0.0040870659
0.0042455084
0.0043805699
0.0044947565
0.0045910722
0.0046722323
0.0047406635
0.004798645
0.0048482146
0.0048910121
0.0049283271
0.0049611473
0.0049902056
0.005016043
0.0050390459
0.0050593862
0.005077406
0.0050932639
0.0051069807
0.0051184963
0.0051276752
0.005133911
0.0051371153
0.0051374644
0.0051351397
0.0051302839
0.0051230357
0.0051135646
0.0051020466
0.0050886716
0.0050736147
0.0050570386
0.005039097
0.0050199123
0.0049996443
0.0049784109
0.0049562953
0.0049334067
0.0049096752
0.0048855039
0.0048599297
0.0048335419
0.0048086684
0.0047672292
8.9898253e-06
9.2309269e-06
1.0391765e-05
1.306609e-05
1.7351828e-05
2.2790943e-05
2.8760607e-05
3.4793325e-05
4.0619172e-05
4.6096807e-05
5.1143316e-05
5.5727466e-05
5.9867976e-05
6.3620625e-05
6.7089365e-05
7.043097e-05
7.3811236e-05
7.7404683e-05
8.1423604e-05
8.6124631e-05
9.1694512e-05
9.8409258e-05
0.00010650889
0.00011620075
0.00012735679
0.0001401837
0.00015492946
0.00017144396
0.00018975431
0.00021022803
0.00023330359
0.00025950126
0.00028943204
0.00032377936
0.00036330971
0.00040893378
0.00046183042
0.00052347096
0.00059539837
0.00067926487
0.00077681798
0.00088988181
0.0010203411
0.0011701973
0.0013415605
0.0015226803
0.0017159436
0.00192487
0.0021499098
0.0023895117
0.0026405599
0.0028983417
0.0031567389
0.0034117464
0.0036608815
0.0038824322
0.0040752493
0.0042462714
0.0043980348
0.0045325654
0.0046518976
0.0047575695
0.0048509532
0.0049336463
0.0050072133
0.0050729358
0.0051319566
0.0051852473
0.0052335564
0.005277469
0.0053174496
0.0053538079
0.0053868381
0.0054167198
0.0054434867
0.0054670956
0.0054874671
0.0055042219
0.0055172264
0.0055265961
0.0055325327
0.005535238
0.005534916
0.0055317948
0.0055261112
0.0055181077
0.0055080064
0.0054960128
0.0054823227
0.0054671071
0.0054505409
0.0054327684
0.0054138968
0.0053940586
0.0053732042
0.0053517532
0.0053287471
0.0053050704
0.0052821525
0.0052440924
8.9407984e-06
8.8618381e-06
8.9452851e-06
9.3733053e-06
1.0288086e-05
1.1705037e-05
1.3541081e-05
1.569283e-05
1.8076595e-05
2.0626494e-05
2.3280877e-05
2.5981162e-05
2.8677196e-05
3.1328365e-05
3.3910288e-05
3.642093e-05
3.8877621e-05
4.1313179e-05
4.3780103e-05
4.6354227e-05
4.912283e-05
5.219515e-05
5.5699215e-05
5.9780864e-05
6.4572376e-05
7.0251793e-05
7.7059452e-05
8.5141167e-05
9.456242e-05
0.00010556276
0.00011845055
0.00013360342
0.00015137038
0.00017187017
0.0001957361
0.00022373889
0.00025685282
0.00029632345
0.00034368605
0.00040077204
0.00046974725
0.00055312361
0.00065371776
0.00077457278
0.00091880741
0.001082575
0.0012631623
0.0014616355
0.001678361
0.0019124571
0.0021612892
0.0024201707
0.0026829229
0.0029480181
0.0032140202
0.0034581206
0.0036785497
0.0038796805
0.004062402
0.0042295106
0.0043828101
0.0045227789
0.0046500739
0.0047659893
0.0048716407
0.0049678883
0.0050557872
0.0051362977
0.0052101493
0.0052779953
0.0053404135
0.0053978198
0.0054505492
0.0054988306
0.0055427206
0.0055822197
0.0056173232
0.005647861
0.0056737501
0.0056950893
0.0057120973
0.0057250277
0.0057341517
0.0057397615
0.0057421606
0.0057416499
0.0057385051
0.0057329814
0.0057253263
0.0057157552
0.0057044772
0.0056916716
0.0056774779
0.0056620567
0.0056453921
0.005627901
0.0056087165
0.0055888052
0.005569155
0.0055351906
8.932802e-06
8.8091477e-06
8.7105586e-06
8.6773562e-06
8.7583353e-06
8.987176e-06
9.3743568e-06
9.9172013e-06
1.0610732e-05
1.1449857e-05
1.2426522e-05
1.3527552e-05
1.4736266e-05
1.603318e-05
1.7398551e-05
1.8815593e-05
2.0272157e-05
2.1760753e-05
2.3280627e-05
2.4840051e-05
2.6455871e-05
2.8154411e-05
2.9973073e-05
3.1961487e-05
3.4178271e-05
3.6696136e-05
3.9609655e-05
4.3023192e-05
4.7045958e-05
5.182248e-05
5.7547051e-05
6.4409463e-05
7.2625132e-05
8.2437344e-05
9.4191987e-05
0.00010833263
0.00012543744
0.00014625808
0.00017148771
0.00020217946
0.00023990127
0.00028665998
0.00034500135
0.00041810687
0.00050988885
0.00062315998
0.00075706204
0.00091186477
0.0010885985
0.0012876062
0.0015079216
0.0017466768
0.0019991515
0.0022629686
0.0025354486
0.0028005325
0.0030435459
0.0032702386
0.0034829926
0.0036833771
0.0038724494
0.0040489284
0.004212925
0.0043658012
0.0045079347
0.0046395184
0.0047615283
0.0048747217
0.0049795924
0.0050768248
0.0051670445
0.0052506949
0.0053281266
0.005399612
0.0054651855
0.0055248931
0.0055788193
0.0056269683
0.0056693541
0.0057061053
0.0057374621
0.0057637187
0.0057852082
0.005802288
0.0058153298
0.0058246992
0.0058307316
0.0058337416
0.0058340385
0.0058318936
0.0058275612
0.0058212653
0.005813188
0.0058035268
0.0057923119
0.0057799522
0.0057657241
0.0057505609
0.0057352882
0.0057060208
8.9301062e-06
8.7999309e-06
8.6731884e-06
8.5570632e-06
8.4632107e-06
8.4038619e-06
8.3885177e-06
8.4241243e-06
8.5168038e-06
8.6725179e-06
8.8964468e-06
9.1919282e-06
9.5603821e-06
1.0001047e-05
1.0511392e-05
1.1087748e-05
1.1725718e-05
1.2420635e-05
1.3168467e-05
1.3966768e-05
1.481525e-05
1.5716313e-05
1.6676228e-05
1.7706258e-05
1.8822753e-05
2.0047993e-05
2.1412294e-05
2.2954128e-05
2.4719934e-05
2.6767844e-05
2.917334e-05
3.2028037e-05
3.5444307e-05
3.9560941e-05
4.4560028e-05
5.0635924e-05
5.8063495e-05
6.7210867e-05
7.8507848e-05
9.2517412e-05
0.00011002555
0.00013209835
0.00016016974
0.00019615399
0.00024249077
0.00030214193
0.00037785985
0.0004716228
0.00058586088
0.00072284163
0.0008842546
0.0010706174
0.0012807141
0.0015124888
0.001763291
0.0020239449
0.0022815928
0.0025302004
0.002763606
0.0029863098
0.0032002952
0.0034055288
0.0036017995
0.0037893674
0.0039673009
0.0041344941
0.0042921444
0.0044404495
0.0045793914
0.0047096549
0.0048316862
0.0049458069
0.0050523094
0.0051514929
0.0052432019
0.0053274878
0.005404524
0.0054744129
0.0055372495
0.0055932176
0.0056425802
0.0056856563
0.0057228294
0.0057545101
0.0057811307
0.005803124
0.0058208871
0.0058347993
0.0058452403
0.0058525472
0.0058570316
0.005858973
0.0058586074
0.0058561796
0.0058517789
0.0058458106
0.0058377228
0.0058283681
0.0058185673
0.0057947078
8.928514e-06
8.7968601e-06
8.6656254e-06
8.5358038e-06
8.4096094e-06
8.2900637e-06
8.1804045e-06
8.0838729e-06
8.0038827e-06
7.94413e-06
7.9084648e-06
7.9006406e-06
7.9241382e-06
7.9819566e-06
8.0765428e-06
8.2097821e-06
8.3829447e-06
8.5967195e-06
8.8513795e-06
9.1470208e-06
9.4837903e-06
9.8621573e-06
1.0283223e-05
1.0749182e-05
1.1263725e-05
1.1832508e-05
1.2463823e-05
1.316928e-05
1.3964277e-05
1.4868929e-05
1.5909661e-05
1.7120226e-05
1.8543516e-05
2.0233942e-05
2.2261905e-05
2.4714261e-05
2.7704773e-05
3.1386353e-05
3.5956566e-05
4.1652228e-05
4.8810554e-05
5.789374e-05
6.9539071e-05
8.4627534e-05
0.00010435917
0.00013036026
0.00016466672
0.00020949456
0.0002674541
0.00034149778
0.00043478255
0.00055035944
0.00069067183
0.00085725908
0.0010506332
0.0012681001
0.0015024992
0.0017455558
0.0019879278
0.0022269162
0.0024574194
0.0026782966
0.0028930416
0.0031022383
0.003305372
0.0035014865
0.0036905271
0.0038715518
0.004043378
0.0042068283
0.0043618138
0.0045084415
0.0046467277
0.0047765374
0.0048975906
0.0050099627
0.005113822
0.0052092383
0.0052963244
0.0053752891
0.005446382
0.0055099142
0.0055662907
0.0056159424
0.0056593316
0.005696954
0.0057292673
0.0057567135
0.0057797403
0.0057987538
0.0058141336
0.0058262248
0.0058353295
0.0058417509
0.0058456507
0.0058474423
0.00584676
0.0058443671
0.005841173
0.0058235718
8.9275141e-06
8.7951794e-06
8.6628949e-06
8.5307048e-06
8.3989431e-06
8.2681863e-06
8.13923e-06
8.0130644e-06
7.8908818e-06
7.7740844e-06
7.6642657e-06
7.563174e-06
7.4726777e-06
7.394709e-06
7.3312089e-06
7.2840925e-06
7.2552041e-06
7.2462619e-06
7.2588398e-06
7.2943807e-06
7.3542199e-06
7.4396321e-06
7.5518719e-06
7.6922962e-06
7.8625077e-06
8.0645168e-06
8.3010336e-06
8.575797e-06
8.8938139e-06
9.2616629e-06
9.6880157e-06
1.0184297e-05
1.0765431e-05
1.1450712e-05
1.2265274e-05
1.3241431e-05
1.4421082e-05
1.5859696e-05
1.7630472e-05
1.9827755e-05
2.2579043e-05
2.6060138e-05
3.0513728e-05
3.62719e-05
4.381005e-05
5.38007e-05
6.7171382e-05
8.5129695e-05
0.00010924423
0.00014152179
0.00018446737
0.00024108566
0.000314766
0.00040906282
0.00052741008
0.0006722062
0.00084338865
0.0010380908
0.0012503301
0.0014744211
0.0017032468
0.0019315632
0.002158367
0.0023799004
0.0025941786
0.0028045867
0.0030112316
0.0032137212
0.0034107661
0.0036020499
0.0037863838
0.0039630555
0.0041320229
0.00429248
0.0044438421
0.0045861182
0.0047192453
0.0048430659
0.0049575867
0.005062929
0.0051592443
0.0052467709
0.0053258766
0.0053969528
0.0054604498
0.0055169011
0.005566797
0.0056106292
0.0056489082
0.005682103
0.0057106669
0.0057350181
0.0057555332
0.0057725858
0.0057864223
0.0057974789
0.005805585
0.005811423
0.0058160572
0.0058057212
8.9269642e-06
8.7942499e-06
8.6615622e-06
8.5288445e-06
8.3961233e-06
8.2634734e-06
8.1310531e-06
7.9991235e-06
7.868046e-06
7.7382731e-06
7.6103418e-06
7.4848744e-06
7.3625845e-06
7.2442769e-06
7.1308407e-06
7.0232434e-06
6.9225209e-06
6.8297594e-06
6.7460797e-06
6.6726269e-06
6.6105579e-06
6.5610326e-06
6.5252175e-06
6.5042993e-06
6.4995029e-06
6.5121227e-06
6.5436028e-06
6.5956493e-06
6.6703163e-06
6.7700883e-06
6.8980993e-06
7.0583737e-06
7.2560783e-06
7.4979586e-06
7.7928625e-06
8.1521455e-06
8.590516e-06
9.1273016e-06
9.7880475e-06
1.0606255e-05
1.1626628e-05
1.2910123e-05
1.4540592e-05
1.6634168e-05
1.9355841e-05
2.2943394e-05
2.7736433e-05
3.4207848e-05
4.3021182e-05
5.5095347e-05
7.1690155e-05
9.4504125e-05
0.00012576822
0.00016830474
0.00022552754
0.00030122793
0.00039895111
0.00052116232
0.00066823137
0.00083859773
0.0010283752
0.0012323943
0.0014464197
0.0016649786
0.0018835874
0.0021019627
0.0023174961
0.0025277423
0.0027355253
0.002940844
0.0031433657
0.0033412991
0.003534158
0.003720991
0.0038999324
0.0040708397
0.0042331993
0.004386339
0.0045299336
0.0046638453
0.0047879967
0.0049024122
0.0050073234
0.0051029935
0.0051897916
0.0052682389
0.0053387977
0.0054019758
0.0054583256
0.0055083571
0.005552592
0.0055915182
0.0056255882
0.0056552531
0.0056808504
0.0057028521
0.0057212858
0.0057367687
0.0057505837
0.0057487016
8.926656e-06
8.7937105e-06
8.6608233e-06
8.5279526e-06
8.3950888e-06
8.2622247e-06
8.1293852e-06
7.9966463e-06
7.8641316e-06
7.732001e-06
7.6004408e-06
7.4696644e-06
7.3399194e-06
7.2114941e-06
7.0847221e-06
6.9599859e-06
6.8377199e-06
6.7184105e-06
6.6025948e-06
6.4908596e-06
6.3838388e-06
6.2822087e-06
6.1866864e-06
6.0980292e-06
6.0170346e-06
5.9445412e-06
5.8814432e-06
5.8287126e-06
5.7874221e-06
5.7587768e-06
5.7441764e-06
5.7452884e-06
5.764127e-06
5.8032061e-06
5.8657356e-06
5.9557614e-06
6.0784341e-06
6.2404263e-06
6.4505007e-06
6.7202567e-06
7.0649962e-06
7.505143e-06
8.0684801e-06
8.7932165e-06
9.7329313e-06
1.0964543e-05
1.2599211e-05
1.479686e-05
1.7788978e-05
2.1911003e-05
2.7647132e-05
3.5692174e-05
4.7042889e-05
6.3102842e-05
8.5803484e-05
0.00011770214
0.00016196244
0.00022211509
0.00030152929
0.00040285384
0.00052730565
0.00067428957
0.00084188654
0.0010265302
0.0012236792
0.0014299638
0.0016411744
0.0018530391
0.0020656205
0.0022769672
0.0024847276
0.0026904815
0.0028944379
0.0030962805
0.0032942026
0.0034872597
0.0036745583
0.003854149
0.004025235
0.0041873757
0.0043399902
0.0044825996
0.0046151964
0.0047377579
0.0048504307
0.0049536426
0.0050477087
0.0051330868
0.0052103238
0.0052799198
0.0053424421
0.005398424
0.0054483804
0.005492837
0.0055322171
0.0055670364
0.0055975171
0.0056242247
0.0056487359
0.0056566935
8.926478e-06
8.7933457e-06
8.6603005e-06
8.5273305e-06
8.3944342e-06
8.261601e-06
8.1288345e-06
7.9961686e-06
7.863665e-06
7.7314033e-06
7.5994716e-06
7.4679635e-06
7.3369806e-06
7.2066371e-06
7.0770625e-06
6.948405e-06
6.8208343e-06
6.694545e-06
6.5697581e-06
6.4467239e-06
6.3257233e-06
6.2070695e-06
6.0911083e-06
5.9782199e-06
5.8688198e-06
5.7633584e-06
5.6623244e-06
5.5662493e-06
5.4757116e-06
5.391345e-06
5.3138541e-06
5.2440351e-06
5.1827974e-06
5.131203e-06
5.0905275e-06
5.0623249e-06
5.0485082e-06
5.0514713e-06
5.0742726e-06
5.1209125e-06
5.1965769e-06
5.3080479e-06
5.4644039e-06
5.6779809e-06
5.9659555e-06
6.35245e-06
6.8719232e-06
7.5742659e-06
8.5324357e-06
9.8540619e-06
1.1698956e-05
1.4304803e-05
1.8027502e-05
2.3399784e-05
3.1212603e-05
4.261911e-05
5.9258488e-05
8.3333378e-05
0.0001175894
0.00016515415
0.00022918856
0.000312404
0.00041668841
0.00054261713
0.00068920174
0.00085449762
0.0010354089
0.0012278291
0.0014289368
0.001635281
0.0018428301
0.0020515889
0.0022596733
0.0024646233
0.002668574
0.0028714887
0.0030724896
0.003269677
0.003461921
0.0036481702
0.0038265159
0.0039957759
0.0041557699
0.0043058114
0.0044455976
0.0045753872
0.0046951035
0.0048050577
0.0049057102
0.0049974501
0.0050808423
0.0051564074
0.0052246878
0.0052862625
0.0053416168
0.0053913078
0.005435738
0.0054754252
0.0055123332
0.0055317283
8.9264094e-06
8.7931118e-06
8.6599125e-06
8.5268262e-06
8.3938669e-06
8.2610345e-06
8.1283352e-06
7.9957947e-06
7.8634582e-06
7.731383e-06
7.5996306e-06
7.4682633e-06
7.3373439e-06
7.2069379e-06
7.0771146e-06
6.9479481e-06
6.8195192e-06
6.6919166e-06
6.5652384e-06
6.4395941e-06
6.3151056e-06
6.1919096e-06
6.0701584e-06
5.9500226e-06
5.8316917e-06
5.7153764e-06
5.6013099e-06
5.48975e-06
5.3809815e-06
5.2753183e-06
5.1731078e-06
5.0747373e-06
4.9806398e-06
4.8913041e-06
4.8072915e-06
4.7292567e-06
4.6579722e-06
4.5943644e-06
4.5395676e-06
4.4950012e-06
4.4624616e-06
4.4442462e-06
4.4433582e-06
4.463783e-06
4.5109634e-06
4.5923853e-06
4.7185409e-06
4.9044773e-06
5.172247e-06
5.5544711e-06
6.0996592e-06
6.8810634e-06
8.0105397e-06
9.660433e-06
1.2097517e-05
1.5733689e-05
2.1200138e-05
2.9439805e-05
4.1803045e-05
6.0115458e-05
8.6694866e-05
0.00012425328
0.0001756998
0.00024380592
0.00033078444
0.00043803077
0.0005657966
0.00071291403
0.00087747217
0.0010566843
0.001246734
0.0014450816
0.0016483866
0.0018528741
0.0020589522
0.0022643301
0.002467371
0.0026695915
0.0028714157
0.0030709736
0.0032664039
0.0034565395
0.0036403173
0.0038154558
0.0039811732
0.0041375548
0.0042835985
0.0044194237
0.0045452637
0.0046611952
0.0047677096
0.0048652
0.0049541718
0.0050352097
0.0051088075
0.0051755468
0.0052359763
0.0052905581
0.0053417481
0.0053743965
8.9264459e-06
8.7930085e-06
8.6596666e-06
8.526455e-06
8.3934015e-06
8.2605181e-06
8.1278179e-06
7.9953273e-06
7.8630866e-06
7.7311455e-06
7.5995578e-06
7.4683776e-06
7.3376583e-06
7.207454e-06
7.0778188e-06
6.9488079e-06
6.8204774e-06
6.6928853e-06
6.5660915e-06
6.4401589e-06
6.3151538e-06
6.1911469e-06
6.068214e-06
5.9464375e-06
5.8259068e-06
5.7067202e-06
5.5889855e-06
5.4728218e-06
5.358361e-06
5.2457488e-06
5.135147e-06
5.0267356e-06
4.9207155e-06
4.8173114e-06
4.7167765e-06
4.619399e-06
4.5255094e-06
4.4354911e-06
4.3497953e-06
4.2689631e-06
4.1936533e-06
4.1246793e-06
4.0630678e-06
4.0101406e-06
3.9676328e-06
3.9378799e-06
3.9240937e-06
3.9307808e-06
3.9644616e-06
4.0347086e-06
4.1556642e-06
4.3487136e-06
4.6468217e-06
5.1013539e-06
5.7928983e-06
6.8494986e-06
8.4751193e-06
1.0992693e-05
1.4902969e-05
2.095804e-05
3.0244418e-05
4.4258962e-05
6.4935892e-05
9.4622916e-05
0.00013595211
0.00019163323
0.00026415494
0.00035539565
0.00046642286
0.00059725511
0.00074655732
0.00091237615
0.0010919
0.0012814195
0.0014787193
0.0016800743
0.001882742
0.0020870402
0.0022900267
0.0024913037
0.0026917581
0.0028919518
0.0030891717
0.0032817762
0.0034685526
0.0036486084
0.0038190155
0.0039800315
0.0041313511
0.0042723635
0.0044034407
0.0045246179
0.0046362712
0.004738899
0.004832904
0.004918858
0.0049973883
0.0050688807
0.0051363759
0.005184295
8.926579e-06
8.7930295e-06
8.6595654e-06
8.5262357e-06
8.3930789e-06
8.2601173e-06
8.1273714e-06
7.9948703e-06
7.8626529e-06
7.7307657e-06
7.5992592e-06
7.4681847e-06
7.3375937e-06
7.2075375e-06
7.0780674e-06
6.9492347e-06
6.8210902e-06
6.6936846e-06
6.5670685e-06
6.4412924e-06
6.3164069e-06
6.1924629e-06
6.0695121e-06
5.947607e-06
5.8268016e-06
5.7071521e-06
5.5887171e-06
5.4715586e-06
5.3557429e-06
5.2413411e-06
5.1284304e-06
5.0170948e-06
4.907427e-06
4.7995293e-06
4.6935152e-06
4.589512e-06
4.4876633e-06
4.388132e-06
4.2911047e-06
4.1967985e-06
4.1054685e-06
4.0174187e-06
3.9330186e-06
3.8527259e-06
3.7771192e-06
3.7069486e-06
3.6432153e-06
3.5872861e-06
3.5410819e-06
3.5073716e-06
3.4902168e-06
3.4956995e-06
3.5331643e-06
3.6171876e-06
3.7707057e-06
4.0305714e-06
4.4569196e-06
5.1472456e-06
6.2591942e-06
8.0438982e-06
1.0892995e-05
1.5400513e-05
2.2433906e-05
3.3206997e-05
4.9338639e-05
7.2855386e-05
0.00010613458
0.00015176705
0.00021233467
0.00029013245
0.00038677422
0.00050303165
0.00063859528
0.00079183497
0.00096069247
0.0011420387
0.0013324748
0.0015300137
0.0017300843
0.0019315231
0.0021340999
0.0023347113
0.0025338143
0.0027327357
0.0029303271
0.0031242157
0.0033129636
0.0034954191
0.0036699796
0.003834825
0.0039903478
0.0041357522
0.0042712
0.0043969321
0.0045130903
0.0046201815
0.004718784
0.0048091766
0.0048950158
0.0049603676
8.9267967e-06
8.7931608e-06
8.6595975e-06
8.5261651e-06
8.3929102e-06
8.2598637e-06
8.1270527e-06
7.9945095e-06
7.8622729e-06
7.7303879e-06
7.5989029e-06
7.4678679e-06
7.3373336e-06
7.2073505e-06
7.0779696e-06
6.9492415e-06
6.8212163e-06
6.6939437e-06
6.5674728e-06
6.4418515e-06
6.3171272e-06
6.1933463e-06
6.0705544e-06
5.9487961e-06
5.8281154e-06
5.7085556e-06
5.5901598e-06
5.4729709e-06
5.357032e-06
5.2423866e-06
5.1290795e-06
5.0171567e-06
4.9066667e-06
4.7976604e-06
4.6901923e-06
4.5843216e-06
4.4801126e-06
4.3776365e-06
4.2769727e-06
4.1782108e-06
4.0814531e-06
3.9868175e-06
3.8944427e-06
3.8044943e-06
3.7171735e-06
3.6327316e-06
3.5514907e-06
3.4738762e-06
3.4004658e-06
3.3320689e-06
3.2698495e-06
3.2155216e-06
3.1716776e-06
3.1423295e-06
3.1337938e-06
3.1562182e-06
3.2263096e-06
3.3714797e-06
3.6370057e-06
4.0976108e-06
4.8747292e-06
6.1627071e-06
8.2664286e-06
1.1652128e-05
1.7011598e-05
2.5332043e-05
3.7962224e-05
5.6660993e-05
8.356719e-05
0.00012113482
0.00017196171
0.00023854603
0.000322991
0.0004265956
0.0005497704
0.00069170555
0.00085044284
0.0010237839
0.001208003
0.0014001947
0.0015982076
0.001797192
0.0019973956
0.0021973161
0.0023957018
0.002592232
0.0027892748
0.0029835188
0.0031733277
0.0033573329
0.0035345942
0.003702561
0.0038612511
0.004010367
0.0041494989
0.0042790243
0.0043992329
0.0045102612
0.004616273
0.0047012502
8.9270865e-06
8.7933862e-06
8.6597448e-06
8.5262269e-06
8.3928852e-06
8.2597575e-06
8.1268768e-06
7.9942784e-06
7.8620022e-06
7.7300923e-06
7.5985958e-06
7.4675619e-06
7.3370404e-06
7.2070816e-06
7.0777361e-06
6.9490546e-06
6.8210871e-06
6.6938834e-06
6.5674924e-06
6.4419621e-06
6.3173396e-06
6.1936706e-06
6.0709998e-06
5.9493704e-06
5.8288243e-06
5.709402e-06
5.5911428e-06
5.4740843e-06
5.3582633e-06
5.2437151e-06
5.1304741e-06
5.0185739e-06
4.9080475e-06
4.7989275e-06
4.6912467e-06
4.5850381e-06
4.4803356e-06
4.3771744e-06
4.2755916e-06
4.1756271e-06
4.0773242e-06
3.9807309e-06
3.885901e-06
3.7928964e-06
3.7017895e-06
3.6126667e-06
3.5256346e-06
3.4408285e-06
3.3584259e-06
3.2786669e-06
3.2018873e-06
3.1285705e-06
3.0594325e-06
2.9955643e-06
2.9386682e-06
2.8914626e-06
2.8583987e-06
2.8468382e-06
2.8690764e-06
2.9457922e-06
3.1114534e-06
3.4230353e-06
3.9740839e-06
4.9147679e-06
6.482262e-06
9.0429664e-06
1.3149029e-05
1.9607574e-05
2.9549528e-05
4.4493544e-05
6.6379911e-05
9.7499466e-05
0.00014042246
0.0001977624
0.00027191917
0.00036471668
0.0004770353
0.00060882288
0.00075855901
0.00092392917
0.0011024101
0.0012898453
0.0014839389
0.0016811312
0.0018792503
0.0020779797
0.0022749997
0.0024705827
0.002665446
0.0028591414
0.0030491546
0.0032340099
0.0034126178
0.0035832601
0.0037444493
0.0038964787
0.0040388737
0.0041716338
0.0042991141
0.0044057031
8.9274369e-06
8.7936898e-06
8.6599885e-06
8.5264012e-06
8.3929852e-06
8.2597841e-06
8.1268358e-06
7.994179e-06
7.8618548e-06
7.7299071e-06
7.5983826e-06
7.4673296e-06
7.3367973e-06
7.2068357e-06
7.0774952e-06
6.9488262e-06
6.8208788e-06
6.6937027e-06
6.567347e-06
6.4418597e-06
6.3172881e-06
6.1936781e-06
6.0710743e-06
5.9495201e-06
5.8290573e-06
5.7097261e-06
5.5915651e-06
5.4746114e-06
5.3589001e-06
5.244465e-06
5.1313379e-06
5.0195493e-06
4.9091278e-06
4.8001007e-06
4.692494e-06
4.5863323e-06
4.4816392e-06
4.3784375e-06
4.2767494e-06
4.1765966e-06
4.0780011e-06
3.9809851e-06
3.8855718e-06
3.7917858e-06
3.6996542e-06
3.6092073e-06
3.5204806e-06
3.4335171e-06
3.3483708e-06
3.2651125e-06
3.1838379e-06
3.1046821e-06
3.0278406e-06
2.9536064e-06
2.8824303e-06
2.8150251e-06
2.7525481e-06
2.6969105e-06
2.651317e-06
2.6211956e-06
2.6157547e-06
2.6505748e-06
2.7519926e-06
2.9636958e-06
3.3573901e-06
4.0495751e-06
5.2252203e-06
7.1740167e-06
1.0339442e-05
1.5383437e-05
2.3262349e-05
3.5294691e-05
5.3221538e-05
7.9204251e-05
0.00011573289
0.00016549603
0.00023108135
0.00031471124
0.00041775248
0.00054049308
0.00068220955
0.00084059092
0.001013055
0.0011961241
0.0013865202
0.0015820811
0.001777962
0.0019746648
0.0021703751
0.0023646851
0.0025574688
0.0027500088
0.0029396043
0.0031248158
0.003304233
0.0034767427
0.0036400972
0.003794419
0.0039436784
0.0040731992
8.9278376e-06
8.7940578e-06
8.6603113e-06
8.5266686e-06
8.3931903e-06
8.2599245e-06
8.1269137e-06
7.9941995e-06
7.8618248e-06
7.7298339e-06
7.5982733e-06
7.4671909e-06
7.3366356e-06
7.2066569e-06
7.077305e-06
6.9486301e-06
6.820682e-06
6.6935106e-06
6.5671646e-06
6.4416923e-06
6.3171409e-06
6.1935565e-06
6.0709838e-06
5.9494663e-06
5.829046e-06
5.7097632e-06
5.5916567e-06
5.4747636e-06
5.3591191e-06
5.2447567e-06
5.1317081e-06
5.0200031e-06
4.9096698e-06
4.8007341e-06
4.6932206e-06
4.5871516e-06
4.4825481e-06
4.3794293e-06
4.2778128e-06
4.1777147e-06
4.0791501e-06
3.9821325e-06
3.8866749e-06
3.7927891e-06
3.7004869e-06
3.6097797e-06
3.5206793e-06
3.4331988e-06
3.3473535e-06
3.2631623e-06
3.1806503e-06
3.0998522e-06
3.0208179e-06
2.943622e-06