/*--------------------------------*- C++ -*----------------------------------*\
| =========                 |                                                 |
| \\      /  F ield         | OpenFOAM: The Open Source CFD Toolbox           |
|  \\    /   O peration     | Version:  2206                                  |
|   \\  /    A nd           | Website:  www.openfoam.com                      |
|    \\/     M anipulation  |                                                 |
\*---------------------------------------------------------------------------*/
FoamFile
{
    version     2.0;
    format      ascii;
    arch        "LSB;label=32;scalar=64";
    class       volScalarField;
    location    "100";
    object      nut;
}
// * * * * * * * * * * * * * * * * * * * * * * * * * * * * * * * * * * * * * //

dimensions      [0 2 -1 0 0 0 0];

internalField   nonuniform List<scalar> 
7480
(
1.5120295e-06
1.8586793e-06
1.544091e-06
1.0160981e-06
6.0454179e-07
3.7091088e-07
2.5856716e-07
2.037796e-07
1.7340016e-07
1.5361238e-07
1.3832332e-07
1.2520793e-07
1.1377914e-07
1.0388919e-07
9.5312836e-08
8.784016e-08
8.1312739e-08
7.5578464e-08
7.047715e-08
6.5905335e-08
6.1800309e-08
5.8094135e-08
5.4724477e-08
5.1652024e-08
4.8845654e-08
4.6271681e-08
4.3900159e-08
4.1712037e-08
3.9692241e-08
3.7823545e-08
3.6090951e-08
3.4484676e-08
3.2996127e-08
3.1615707e-08
3.0335353e-08
2.9149592e-08
2.8053425e-08
2.7041962e-08
2.6111886e-08
2.5261539e-08
2.4489528e-08
2.3794417e-08
2.317623e-08
2.2634908e-08
2.2171676e-08
2.1796479e-08
2.1502774e-08
2.1303506e-08
2.1197754e-08
2.1182806e-08
2.1255507e-08
2.1411962e-08
2.164392e-08
2.1936354e-08
2.2274472e-08
2.2648028e-08
2.3034696e-08
2.3401228e-08
2.3716064e-08
2.3953657e-08
2.4112739e-08
2.4194705e-08
2.4206699e-08
2.4159057e-08
2.4064703e-08
2.3935256e-08
2.3781184e-08
2.3610898e-08
2.3430289e-08
2.3243677e-08
2.3054443e-08
2.2864588e-08
2.2675381e-08
2.2488127e-08
2.2303114e-08
2.2120481e-08
2.1940317e-08
2.1756006e-08
2.1567465e-08
2.137677e-08
2.1184869e-08
2.0992325e-08
2.0798438e-08
2.0602889e-08
2.0405598e-08
2.0206444e-08
2.0005691e-08
1.9803305e-08
1.9599581e-08
1.9394549e-08
1.9188425e-08
1.8981292e-08
1.8773445e-08
1.8563609e-08
1.835497e-08
1.8135151e-08
1.7938939e-08
1.7663004e-08
1.7499516e-08
1.7074491e-08
1.411104e-06
1.6300826e-06
1.5384887e-06
1.2880318e-06
1.0361753e-06
8.1129176e-07
6.4377739e-07
5.1798697e-07
4.2142727e-07
3.4675788e-07
2.8964264e-07
2.4636836e-07
2.1350587e-07
1.8821204e-07
1.6833404e-07
1.5234777e-07
1.3921173e-07
1.2819301e-07
1.1878893e-07
1.1066627e-07
1.0359782e-07
9.7407319e-08
9.1960859e-08
8.7159999e-08
8.2833786e-08
7.8901833e-08
7.5320459e-08
7.2067773e-08
6.9130416e-08
6.6496514e-08
6.4158466e-08
6.2113849e-08
6.0361469e-08
5.8900212e-08
5.773161e-08
5.6860394e-08
5.6293529e-08
5.6043109e-08
5.6129531e-08
5.6581993e-08
5.7437375e-08
5.8740844e-08
6.054799e-08
6.2923517e-08
6.594858e-08
6.970468e-08
7.4253496e-08
7.9645296e-08
8.5893366e-08
9.2990322e-08
1.0090793e-07
1.096429e-07
1.1900374e-07
1.2876833e-07
1.3872169e-07
1.4854404e-07
1.5776287e-07
1.6595119e-07
1.7285067e-07
1.7842852e-07
1.8280193e-07
1.8616581e-07
1.8870784e-07
1.9049963e-07
1.91706e-07
1.9247137e-07
1.9290971e-07
1.9310432e-07
1.9311576e-07
1.9298813e-07
1.9275299e-07
1.924284e-07
1.9203079e-07
1.9157293e-07
1.9105942e-07
1.9049126e-07
1.8985472e-07
1.8900909e-07
1.8800068e-07
1.8688514e-07
1.8568174e-07
1.8439602e-07
1.8302944e-07
1.8158725e-07
1.8007382e-07
1.7849596e-07
1.7686023e-07
1.7517274e-07
1.7343997e-07
1.7166678e-07
1.6986027e-07
1.6802513e-07
1.6616532e-07
1.6428299e-07
1.6237876e-07
1.6045097e-07
1.5852142e-07
1.5633358e-07
1.5471935e-07
1.5113441e-07
1.1013844e-06
1.404767e-06
1.4358275e-06
1.3409563e-06
1.2076098e-06
1.0740907e-06
9.6689139e-07
8.8442127e-07
8.2031254e-07
7.6804035e-07
7.2386403e-07
6.7961373e-07
6.3730293e-07
6.0217841e-07
5.7245421e-07
5.4692043e-07
5.2489307e-07
5.0588111e-07
4.8952609e-07
4.7559058e-07
4.6391083e-07
4.5434908e-07
4.4680738e-07
4.4118387e-07
4.335834e-07
4.2644783e-07
4.1994749e-07
4.1429066e-07
4.0968291e-07
4.0632207e-07
4.0441951e-07
4.0419517e-07
4.0586194e-07
4.0963362e-07
4.1573932e-07
4.2441995e-07
4.3593706e-07
4.5062525e-07
4.6891744e-07
4.9134759e-07
5.1854899e-07
5.5126735e-07
5.9037462e-07
6.3686384e-07
6.9192975e-07
7.5664527e-07
8.318939e-07
9.1819921e-07
1.0156474e-06
1.1240068e-06
1.242281e-06
1.3696558e-06
1.5042147e-06
1.6429979e-06
1.7830764e-06
1.9201054e-06
2.0481758e-06
2.1622393e-06
2.2595189e-06
2.339912e-06
2.4050633e-06
2.4576675e-06
2.4986479e-06
2.5301315e-06
2.5543943e-06
2.573223e-06
2.5879787e-06
2.5996285e-06
2.6088671e-06
2.6161951e-06
2.6219632e-06
2.626362e-06
2.6295813e-06
2.6317639e-06
2.6329545e-06
2.6331555e-06
2.6321643e-06
2.6278704e-06
2.621091e-06
2.612643e-06
2.6027895e-06
2.5916046e-06
2.5791217e-06
2.5654272e-06
2.55059e-06
2.5347138e-06
2.5178909e-06
2.5002108e-06
2.4817638e-06
2.4626184e-06
2.4428755e-06
2.4226024e-06
2.4018508e-06
2.3806785e-06
2.3590294e-06
2.3371332e-06
2.3146216e-06
2.2896034e-06
2.2709428e-06
2.228664e-06
5.0847112e-07
9.5914633e-07
1.1797837e-06
1.2284473e-06
1.2003949e-06
1.1428744e-06
1.0803751e-06
1.0213227e-06
9.6985043e-07
9.3004189e-07
9.0608022e-07
9.0229141e-07
9.0571617e-07
8.5761948e-07
8.2192019e-07
7.9450972e-07
7.7450949e-07
7.6001705e-07
7.5000768e-07
7.4384538e-07
7.4112794e-07
7.415698e-07
7.450025e-07
7.5126666e-07
7.5983391e-07
7.701913e-07
7.8220468e-07
7.9609192e-07
8.1224364e-07
8.3113818e-07
8.5332471e-07
8.7941872e-07
9.1009298e-07
9.4607946e-07
9.881763e-07
1.0372395e-06
1.0942382e-06
1.1604451e-06
1.237451e-06
1.327153e-06
1.4317504e-06
1.5537643e-06
1.6960659e-06
1.8618773e-06
2.0548234e-06
2.2782011e-06
2.5343608e-06
2.8248862e-06
3.1502636e-06
3.5098942e-06
3.9018176e-06
4.3201056e-06
4.7614402e-06
5.2181092e-06
5.6816506e-06
6.1404035e-06
6.5792401e-06
6.9842251e-06
7.3463171e-06
7.6627023e-06
7.9359114e-06
8.1697694e-06
8.3669372e-06
8.5344051e-06
8.6785903e-06
8.8047828e-06
8.9171343e-06
9.0186874e-06
9.1116092e-06
9.1974318e-06
9.2772174e-06
9.3515501e-06
9.4209171e-06
9.4856972e-06
9.5459895e-06
9.6017351e-06
9.6524961e-06
9.6780532e-06
9.6913082e-06
9.6980977e-06
9.6992228e-06
9.69497e-06
9.6854998e-06
9.6711243e-06
9.6521199e-06
9.628859e-06
9.6016794e-06
9.5709044e-06
9.5368553e-06
9.4997757e-06
9.4600201e-06
9.4178388e-06
9.373416e-06
9.3269981e-06
9.2783435e-06
9.2285422e-06
9.1755256e-06
9.1158443e-06
9.0713802e-06
8.967285e-06
2.2507432e-07
4.272563e-07
6.9862722e-07
8.9329406e-07
9.8966631e-07
1.0234934e-06
1.0250143e-06
1.0107251e-06
9.8909379e-07
9.6532707e-07
9.4373696e-07
9.2872603e-07
9.2197404e-07
9.2301862e-07
9.3198127e-07
9.4896323e-07
9.6927505e-07
9.5329944e-07
9.2968206e-07
9.1684023e-07
9.1365921e-07
9.184909e-07
9.3041658e-07
9.4880941e-07
9.7331023e-07
1.0037512e-06
1.0384687e-06
1.0775223e-06
1.1214544e-06
1.1707977e-06
1.2261549e-06
1.2882604e-06
1.3580244e-06
1.4365684e-06
1.5252582e-06
1.6257073e-06
1.7395545e-06
1.868433e-06
2.0151008e-06
2.1828879e-06
2.3755955e-06
2.5974976e-06
2.8533767e-06
3.1485579e-06
3.488829e-06
3.8790832e-06
4.3213476e-06
4.8168126e-06
5.3661843e-06
5.9692922e-06
6.6244355e-06
7.3265915e-06
8.0664011e-06
8.8342032e-06
9.6193052e-06
1.0407887e-05
1.1176133e-05
1.1900794e-05
1.2567105e-05
1.3169111e-05
1.3705471e-05
1.4178863e-05
1.4595614e-05
1.4964123e-05
1.5292977e-05
1.5589836e-05
1.5861154e-05
1.6111995e-05
1.634613e-05
1.6566302e-05
1.6774471e-05
1.6971456e-05
1.7158398e-05
1.7336054e-05
1.7504586e-05
1.7663813e-05
1.781293e-05
1.794657e-05
1.8064233e-05
1.8167388e-05
1.8257158e-05
1.8334189e-05
1.839884e-05
1.8451666e-05
1.8493267e-05
1.8524392e-05
1.8545799e-05
1.8558205e-05
1.8562337e-05
1.855872e-05
1.8548163e-05
1.8531304e-05
1.8508637e-05
1.8480696e-05
1.8447372e-05
1.8410136e-05
1.8367248e-05
1.8310738e-05
1.8272136e-05
1.8177467e-05
1.7530494e-07
2.1588349e-07
3.1856143e-07
4.6493378e-07
6.0522895e-07
7.1031079e-07
7.7984838e-07
8.2289164e-07
8.4800318e-07
8.6126442e-07
8.6696131e-07
8.6867697e-07
8.6921361e-07
8.7060261e-07
8.7460464e-07
8.8289839e-07
8.9632548e-07
9.1552926e-07
9.4161502e-07
9.7584449e-07
1.0156447e-06
1.0618415e-06
1.0570807e-06
1.0562876e-06
1.0671234e-06
1.0882785e-06
1.1197297e-06
1.1617849e-06
1.214929e-06
1.2798691e-06
1.357575e-06
1.4493768e-06
1.557201e-06
1.6840757e-06
1.835075e-06
2.0182297e-06
2.2360281e-06
2.4752346e-06
2.740836e-06
3.0385089e-06
3.3740443e-06
3.7535533e-06
4.1837811e-06
4.6726115e-06
5.2300568e-06
5.8553972e-06
6.5393157e-06
7.2797458e-06
8.0784076e-06
8.9364247e-06
9.8528182e-06
1.0823016e-05
1.1837197e-05
1.2881969e-05
1.3946064e-05
1.4997352e-05
1.6004971e-05
1.6953646e-05
1.783677e-05
1.8653861e-05
1.940704e-05
2.0099332e-05
2.0735447e-05
2.1321592e-05
2.1864376e-05
2.2370237e-05
2.2845274e-05
2.3294634e-05
2.3722331e-05
2.4131461e-05
2.4523973e-05
2.4897909e-05
2.5258651e-05
2.5606923e-05
2.5942533e-05
2.6264793e-05
2.6572102e-05
2.6862712e-05
2.7133562e-05
2.7383134e-05
2.7611315e-05
2.7818378e-05
2.8004555e-05
2.81704e-05
2.8316646e-05
2.8444288e-05
2.8554422e-05
2.864814e-05
2.8726591e-05
2.8789901e-05
2.8840044e-05
2.8878221e-05
2.8905336e-05
2.8922251e-05
2.89292e-05
2.8927613e-05
2.8917351e-05
2.8884265e-05
2.8868051e-05
2.8801153e-05
1.6890565e-07
1.7480049e-07
1.9622389e-07
2.4158516e-07
3.0835158e-07
3.8392274e-07
4.5671284e-07
5.2094321e-07
5.7519791e-07
6.1994531e-07
6.5623486e-07
6.8540151e-07
7.0891645e-07
7.2822983e-07
7.4479662e-07
7.6009473e-07
7.7546143e-07
7.9213476e-07
8.1144776e-07
8.3490133e-07
8.6345319e-07
8.9846303e-07
9.4051675e-07
9.8987525e-07
1.0450436e-06
1.10617e-06
1.1742064e-06
1.2083761e-06
1.2333224e-06
1.2729654e-06
1.3285919e-06
1.4020927e-06
1.4959338e-06
1.6131293e-06
1.7576116e-06
1.9348776e-06
2.1514837e-06
2.4125624e-06
2.7239414e-06
3.0928197e-06
3.5278108e-06
4.039332e-06
4.640798e-06
5.3516327e-06
6.204499e-06
6.969543e-06
7.8050011e-06
8.762587e-06
9.839946e-06
1.103081e-05
1.2322339e-05
1.369116e-05
1.5103948e-05
1.6564091e-05
1.8073588e-05
1.9178007e-05
2.0095492e-05
2.1003201e-05
2.1904011e-05
2.2796987e-05
2.3676941e-05
2.4538756e-05
2.5378845e-05
2.6194605e-05
2.6984443e-05
2.7748838e-05
2.8489562e-05
2.9208203e-05
2.9906317e-05
3.0585614e-05
3.1247455e-05
3.1891964e-05
3.2519568e-05
3.3130327e-05
3.3723425e-05
3.4297559e-05
3.4850375e-05
3.5380133e-05
3.5883951e-05
3.6358946e-05
3.6803449e-05
3.7216781e-05
3.7598709e-05
3.7949567e-05
3.8270082e-05
3.8561383e-05
3.8824819e-05
3.9061823e-05
3.9274006e-05
3.946277e-05
3.9629843e-05
3.9776812e-05
3.9905103e-05
4.0015974e-05
4.0110257e-05
4.0189021e-05
4.025469e-05
4.028724e-05
4.0328657e-05
4.0338738e-05
1.6818084e-07
1.6866151e-07
1.7195723e-07
1.8125876e-07
1.9895123e-07
2.2489592e-07
2.5727574e-07
2.9357236e-07
3.3180782e-07
3.7052448e-07
4.0855955e-07
4.4500076e-07
4.7924536e-07
5.1097459e-07
5.4016624e-07
5.6708212e-07
5.9217886e-07
6.1603887e-07
6.3938776e-07
6.6311481e-07
6.8814693e-07
7.1554562e-07
7.4638995e-07
7.8174873e-07
8.2238228e-07
8.6923323e-07
9.2361146e-07
9.8589121e-07
1.0559078e-06
1.1348534e-06
1.2244331e-06
1.3267911e-06
1.4276581e-06
1.4948969e-06
1.5857232e-06
1.7048304e-06
1.858494e-06
2.0547762e-06
2.3034511e-06
2.6161788e-06
3.007009e-06
3.4927958e-06
4.0934958e-06
4.8325515e-06
5.7385971e-06
6.7100841e-06
7.7079197e-06
8.8174644e-06
1.0050174e-05
1.1406182e-05
1.2870218e-05
1.4407371e-05
1.5972115e-05
1.7627225e-05
1.9393103e-05
2.0669951e-05
2.1768625e-05
2.2849834e-05
2.3924032e-05
2.4999853e-05
2.6079515e-05
2.7163765e-05
2.8247828e-05
2.932624e-05
3.0395475e-05
3.1454274e-05
3.250106e-05
3.3533614e-05
3.4551312e-05
3.5554409e-05
3.6542363e-05
3.7514481e-05
3.846976e-05
3.9406856e-05
4.0323464e-05
4.1217122e-05
4.2084461e-05
4.2922373e-05
4.3727847e-05
4.4497529e-05
4.5228487e-05
4.5918761e-05
4.6567228e-05
4.7173597e-05
4.7738261e-05
4.8262186e-05
4.8746687e-05
4.9193302e-05
4.9603961e-05
4.9980686e-05
5.0325429e-05
5.0640142e-05
5.0926741e-05
5.1186868e-05
5.1422077e-05
5.1632881e-05
5.1824512e-05
5.1972862e-05
5.211544e-05
5.2262128e-05
1.6814541e-07
1.6787277e-07
1.6803215e-07
1.693464e-07
1.727128e-07
1.7877152e-07
1.8775431e-07
1.9960676e-07
2.1419151e-07
2.3139175e-07
2.5107337e-07
2.7274308e-07
2.9593191e-07
3.2016689e-07
3.4501158e-07
3.7011613e-07
3.95233e-07
4.2021579e-07
4.4504376e-07
4.6984333e-07
4.9486958e-07
5.2051012e-07
5.4728565e-07
5.7584244e-07
6.0688529e-07
6.4122066e-07
6.7983529e-07
7.2370485e-07
7.7372063e-07
8.3104293e-07
8.9722115e-07
9.7368762e-07
1.0619559e-06
1.163388e-06
1.280194e-06
1.4152467e-06
1.5723403e-06
1.7566183e-06
1.9285059e-06
2.1214204e-06
2.3731599e-06
2.7010576e-06
3.127658e-06
3.6822913e-06
4.4019808e-06
5.3213688e-06
6.297804e-06
7.3658379e-06
8.5762778e-06
9.938395e-06
1.1453836e-05
1.311184e-05
1.4888549e-05
1.6777526e-05
1.8775435e-05
2.0624667e-05
2.1909488e-05
2.3189817e-05
2.4438099e-05
2.5675081e-05
2.6933188e-05
2.8216595e-05
2.9507466e-05
3.080785e-05
3.2123691e-05
3.345043e-05
3.4782373e-05
3.611612e-05
3.7450896e-05
3.8784475e-05
4.011289e-05
4.1434027e-05
4.2745998e-05
4.4045333e-05
4.5326923e-05
4.6586337e-05
4.781833e-05
4.9017667e-05
5.018028e-05
5.1302153e-05
5.237922e-05
5.3408241e-05
5.4386911e-05
5.5313829e-05
5.6188657e-05
5.7011792e-05
5.7784072e-05
5.8506772e-05
5.9181828e-05
5.9811395e-05
6.039766e-05
6.0942794e-05
6.1449076e-05
6.1918419e-05
6.2353096e-05
6.2752951e-05
6.3125778e-05
6.3445498e-05
6.3740119e-05
6.4090105e-05
1.6818971e-07
1.6781401e-07
1.6749261e-07
1.673555e-07
1.6761804e-07
1.6851591e-07
1.7024588e-07
1.7296208e-07
1.7680406e-07
1.8191216e-07
1.8841765e-07
1.9639943e-07
2.0588945e-07
2.168704e-07
2.2935625e-07
2.4329822e-07
2.5852613e-07
2.7488099e-07
2.9223469e-07
3.1049811e-07
3.2963052e-07
3.4965188e-07
3.706551e-07
3.9281931e-07
4.1640804e-07
4.417786e-07
4.6941048e-07
4.9989498e-07
5.3391539e-07
5.7229273e-07
6.1605513e-07
6.663951e-07
7.2469629e-07
7.9253125e-07
8.7185592e-07
9.6463465e-07
1.073602e-06
1.2023475e-06
1.3546494e-06
1.5354139e-06
1.7516408e-06
2.0126935e-06
2.3307856e-06
2.721561e-06
3.1866244e-06
3.7662437e-06
4.5196811e-06
5.377614e-06
6.3848971e-06
7.5560087e-06
8.903323e-06
1.0433081e-05
1.2141682e-05
1.4023815e-05
1.6075073e-05
1.8246565e-05
2.0453181e-05
2.2483618e-05
2.3873366e-05
2.5255438e-05
2.6660026e-05
2.8074099e-05
2.94881e-05
3.0934008e-05
3.2432278e-05
3.3951823e-05
3.5492414e-05
3.7063369e-05
3.8660946e-05
4.0277705e-05
4.1909029e-05
4.3554682e-05
4.5209952e-05
4.6868172e-05
4.8520589e-05
5.0159964e-05
5.177774e-05
5.3366322e-05
5.4919929e-05
5.6432724e-05
5.7899084e-05
5.9314474e-05
6.0674971e-05
6.1977476e-05
6.3220423e-05
6.4403076e-05
6.552518e-05
6.6587226e-05
6.7590602e-05
6.8537088e-05
6.9428757e-05
7.0267736e-05
7.1056415e-05
7.1796757e-05
7.24916e-05
7.314004e-05
7.3751907e-05
7.4300828e-05
7.4803028e-05
7.5425921e-05
1.6824324e-07
1.6785064e-07
1.6745945e-07
1.6708828e-07
1.6677808e-07
1.6658685e-07
1.6657934e-07
1.668229e-07
1.6739067e-07
1.6836462e-07
1.6983427e-07
1.718905e-07
1.7462129e-07
1.7810704e-07
1.82424e-07
1.8763926e-07
1.9380056e-07
2.0093868e-07
2.0907228e-07
2.1821405e-07
2.2840399e-07
2.3972649e-07
2.5219999e-07
2.6583119e-07
2.8067157e-07
2.9682756e-07
3.144695e-07
3.3384555e-07
3.5528833e-07
3.7922167e-07
4.061869e-07
4.3685986e-07
4.7207732e-07
5.1286471e-07
5.6049911e-07
6.1648627e-07
6.8271162e-07
7.6159934e-07
8.5609263e-07
9.6954215e-07
1.1065393e-06
1.2731272e-06
1.4772685e-06
1.7294065e-06
2.0427629e-06
2.4338297e-06
2.9208278e-06
3.5197116e-06
4.2477934e-06
5.1236053e-06
6.1663178e-06
7.3939718e-06
8.8206244e-06
1.0456393e-05
1.230864e-05
1.436449e-05
1.6579759e-05
1.8900644e-05
2.1257228e-05
2.3634863e-05
2.5605874e-05
2.7113664e-05
2.8630683e-05
3.0182843e-05
3.1768321e-05
3.3370088e-05
3.5015291e-05
3.67364e-05
3.8500182e-05
4.030136e-05
4.2151329e-05
4.4051446e-05
4.5987464e-05
4.7949435e-05
4.9929493e-05
5.191662e-05
5.3898212e-05
5.5865772e-05
5.781088e-05
5.9723983e-05
6.1597575e-05
6.3425235e-05
6.5200292e-05
6.6917323e-05
6.8572793e-05
7.0163904e-05
7.1688603e-05
7.3145857e-05
7.4535619e-05
7.5858569e-05
7.7116084e-05
7.830978e-05
7.9441755e-05
8.0513648e-05
8.1528588e-05
8.248479e-05
8.3393511e-05
8.4229012e-05
8.4996116e-05
8.5960705e-05
1.6834494e-07
1.6795278e-07
1.6755432e-07
1.6715094e-07
1.6674909e-07
1.6636024e-07
1.6600025e-07
1.6568874e-07
1.6544955e-07
1.6531158e-07
1.6530916e-07
1.6548169e-07
1.6587322e-07
1.6653141e-07
1.6750706e-07
1.6885346e-07
1.706247e-07
1.7287408e-07
1.7565338e-07
1.790129e-07
1.8300409e-07
1.8768316e-07
1.9310491e-07
1.99323e-07
2.0639514e-07
2.1438851e-07
2.2339236e-07
2.3356788e-07
2.4511826e-07
2.582055e-07
2.7302749e-07
2.8987095e-07
3.0912772e-07
3.3131386e-07
3.5710277e-07
3.8733874e-07
4.2308313e-07
4.6569849e-07
5.1692336e-07
5.7891802e-07
6.5448476e-07
7.4731822e-07
8.6228534e-07
1.0057291e-06
1.1861618e-06
1.4147423e-06
1.7053845e-06
2.0737672e-06
2.5374132e-06
3.1156129e-06
3.829252e-06
4.7003182e-06
5.7508369e-06
7.0020946e-06
8.4744854e-06
1.0181016e-05
1.2117037e-05
1.4260267e-05
1.6566652e-05
1.9001159e-05
2.1511423e-05
2.4054891e-05
2.6629106e-05
2.8806194e-05
3.0460353e-05
3.2133047e-05
3.3853789e-05
3.5624824e-05
3.743023e-05
3.9294498e-05
4.1258983e-05
4.3296761e-05
4.5392545e-05
4.7553254e-05
4.9767459e-05
5.2017515e-05
5.429297e-05
5.6585996e-05
5.8881997e-05
6.1167398e-05
6.3433678e-05
6.567025e-05
6.7866331e-05
7.001409e-05
7.210685e-05
7.4138347e-05
7.6103865e-05
7.7999792e-05
7.9823577e-05
8.1573952e-05
8.3250752e-05
8.4854345e-05
8.6385877e-05
8.7846129e-05
8.9238069e-05
9.0558766e-05
9.1820276e-05
9.2997716e-05
9.4086966e-05
9.5458603e-05
1.6852007e-07
1.6817096e-07
1.6780834e-07
1.6743175e-07
1.6704257e-07
1.666435e-07
1.6623862e-07
1.6583334e-07
1.6543447e-07
1.6505052e-07
1.6469201e-07
1.6437186e-07
1.641056e-07
1.6391162e-07
1.638112e-07
1.6382861e-07
1.6399108e-07
1.6432852e-07
1.6487327e-07
1.6566e-07
1.6672565e-07
1.6810977e-07
1.6985438e-07
1.7200387e-07
1.7460535e-07
1.7770948e-07
1.8137301e-07
1.8566577e-07
1.9067355e-07
1.9649336e-07
2.0323885e-07
2.1105015e-07
2.2010581e-07
2.3067962e-07
2.4315034e-07
2.5786889e-07
2.7526572e-07
2.9594418e-07
3.2072226e-07
3.506833e-07
3.8724994e-07
4.323037e-07
4.8835796e-07
5.5878736e-07
6.482072e-07
7.6296135e-07
9.1158803e-07
1.1050622e-06
1.3572472e-06
1.6850198e-06
2.1082303e-06
2.6493218e-06
3.3325605e-06
4.1830761e-06
5.2263301e-06
6.4862297e-06
7.9803768e-06
9.7160837e-06
1.1685034e-05
1.3870788e-05
1.6242313e-05
1.8761297e-05
2.1402164e-05
2.4121753e-05
2.6880845e-05
2.9682918e-05
3.215809e-05
3.3987787e-05
3.5840125e-05
3.7753575e-05
3.9732567e-05
4.1758007e-05
4.3861778e-05
4.6097328e-05
4.8409769e-05
5.0789336e-05
5.3248916e-05
5.5769156e-05
5.8327101e-05
6.0913226e-05
6.3516844e-05
6.6118847e-05
6.8706046e-05
7.12684e-05
7.3793697e-05
7.6271344e-05
7.8693083e-05
8.1051249e-05
8.333975e-05
8.555443e-05
8.7692382e-05
8.9751619e-05
9.1731369e-05
9.3630722e-05
9.5451732e-05
9.7189794e-05
9.8857011e-05
0.00010042907
0.00010189673
0.00010373594
1.6867621e-07
1.6839161e-07
1.6809251e-07
1.6777746e-07
1.6744635e-07
1.6709983e-07
1.6673925e-07
1.6636637e-07
1.6598326e-07
1.6559229e-07
1.6519627e-07
1.647987e-07
1.6440402e-07
1.6401784e-07
1.6364714e-07
1.6330042e-07
1.6298794e-07
1.6272175e-07
1.625159e-07
1.6238647e-07
1.6235168e-07
1.6243199e-07
1.626502e-07
1.6303155e-07
1.6360385e-07
1.6439758e-07
1.6544645e-07
1.6678855e-07
1.6846753e-07
1.7053335e-07
1.7304394e-07
1.7606767e-07
1.7968653e-07
1.8400558e-07
1.8916266e-07
1.9532374e-07
2.0269157e-07
2.1152474e-07
2.2217667e-07
2.3520289e-07
2.5121417e-07
2.7092186e-07
2.9534815e-07
3.2593449e-07
3.6471081e-07
4.145325e-07
4.7941069e-07
5.6492937e-07
6.788194e-07
8.3162331e-07
1.0373721e-06
1.3141534e-06
1.6845067e-06
2.1749589e-06
2.8148279e-06
3.6341002e-06
4.6601225e-06
5.914058e-06
7.4079211e-06
9.145965e-06
1.1123102e-05
1.3325161e-05
1.5735986e-05
1.8328197e-05
2.1066922e-05
2.3931898e-05
2.6888736e-05
2.9894635e-05
3.2957806e-05
3.5735083e-05
3.7765209e-05
3.9810934e-05
4.1924855e-05
4.4116623e-05
4.6366615e-05
4.8725106e-05
5.1236833e-05
5.3833102e-05
5.6511877e-05
5.9282837e-05
6.2116343e-05
6.4988189e-05
6.7891128e-05
7.0808389e-05
7.3719671e-05
7.6612058e-05
7.9471773e-05
8.2285751e-05
8.5043899e-05
8.7737884e-05
9.0360465e-05
9.2905911e-05
9.5370225e-05
9.7749588e-05
0.000100044
0.00010224633
0.00010436764
0.00010638365
0.00010828384
0.00011064511
1.6876838e-07
1.6852873e-07
1.6827876e-07
1.6801669e-07
1.6774159e-07
1.6745307e-07
1.6715131e-07
1.6683684e-07
1.6651034e-07
1.6617243e-07
1.6582372e-07
1.6546489e-07
1.6509679e-07
1.6472061e-07
1.6433797e-07
1.6395106e-07
1.6356272e-07
1.6317659e-07
1.6279724e-07
1.6243027e-07
1.6208247e-07
1.6176192e-07
1.6147816e-07
1.6124231e-07
1.610672e-07
1.6096753e-07
1.6096007e-07
1.6106392e-07
1.6130091e-07
1.6169597e-07
1.6227779e-07
1.6307959e-07
1.6414012e-07
1.6550559e-07
1.6723267e-07
1.6939067e-07
1.7206448e-07
1.753596e-07
1.7941141e-07
1.8440514e-07
1.9057772e-07
1.9822776e-07
2.0775075e-07
2.1970473e-07
2.3498071e-07
2.5461909e-07
2.8003834e-07
3.1337606e-07
3.5778692e-07
4.1787098e-07
5.0026251e-07
6.1445799e-07
7.7391349e-07
9.9723446e-07
1.3091122e-06
1.7403486e-06
2.3262159e-06
3.1018077e-06
4.0959737e-06
5.3274549e-06
6.8046075e-06
8.5281361e-06
1.0496144e-05
1.2702081e-05
1.5132496e-05
1.7773774e-05
2.0603448e-05
2.3587298e-05
2.6708063e-05
2.9936303e-05
3.322554e-05
3.6586857e-05
3.9591991e-05
4.180883e-05
4.4058989e-05
4.6393976e-05
4.8816076e-05
5.1303625e-05
5.3949035e-05
5.6757e-05
5.965126e-05
6.2647271e-05
6.5743682e-05
6.890166e-05
7.2100483e-05
7.5329386e-05
7.8563219e-05
8.1785456e-05
8.4982023e-05
8.813803e-05
9.1240662e-05
9.4278902e-05
9.7244142e-05
0.00010012802
0.00010292706
0.00010563036
0.00010824645
0.00011075048
0.00011313226
0.00011606223
1.6881467e-07
1.6859836e-07
1.6837542e-07
1.6814445e-07
1.6790446e-07
1.6765478e-07
1.6739511e-07
1.6712551e-07
1.6684618e-07
1.6655729e-07
1.6625893e-07
1.6595108e-07
1.6563369e-07
1.6530677e-07
1.6497036e-07
1.6462468e-07
1.642701e-07
1.6390725e-07
1.6353706e-07
1.6316084e-07
1.6278035e-07
1.6239788e-07
1.6201638e-07
1.6163953e-07
1.6127184e-07
1.6091881e-07
1.6058702e-07
1.602843e-07
1.600199e-07
1.598047e-07
1.5965143e-07
1.5957504e-07
1.5959301e-07
1.5972594e-07
1.5999836e-07
1.6043972e-07
1.6108557e-07
1.6197914e-07
1.6317394e-07
1.6473823e-07
1.6675921e-07
1.6934809e-07
1.7264942e-07
1.7685657e-07
1.8224504e-07
1.8918465e-07
1.9818138e-07
2.0996028e-07
2.2569797e-07
2.4707177e-07
2.7632753e-07
3.1698147e-07
3.7444138e-07
4.5691229e-07
5.7666269e-07
7.5167538e-07
1.0073631e-06
1.3772105e-06
1.9008105e-06
2.6181322e-06
3.5619711e-06
4.7520756e-06
6.195925e-06
7.8934623e-06
9.8417196e-06
1.2039154e-05
1.4482162e-05
1.7159044e-05
2.0057934e-05
2.3158897e-05
2.6426563e-05
2.9844867e-05
3.3380835e-05
3.6988039e-05
4.0679773e-05
4.3770044e-05
4.6192324e-05
4.8664306e-05
5.1240516e-05
5.3906345e-05
5.665515e-05
5.9617877e-05
6.2738264e-05
6.596089e-05
6.9297496e-05
7.273051e-05
7.6218617e-05
7.9751711e-05
8.3308878e-05
8.6865362e-05
9.0403858e-05
9.390603e-05
9.7357882e-05
0.00010074451
0.00010405765
0.00010728113
0.00011041897
0.00011344534
0.00011634659
0.00011988047
1.6883638e-07
1.6863083e-07
1.6842073e-07
1.6820512e-07
1.6798323e-07
1.6775448e-07
1.675185e-07
1.6727522e-07
1.6702471e-07
1.6676705e-07
1.6650226e-07
1.6623025e-07
1.6595087e-07
1.6566391e-07
1.6536917e-07
1.6506643e-07
1.6475548e-07
1.6443619e-07
1.6410845e-07
1.6377227e-07
1.6342778e-07
1.6307525e-07
1.6271517e-07
1.6234829e-07
1.6197566e-07
1.615987e-07
1.6121929e-07
1.6083984e-07
1.6046339e-07
1.6009371e-07
1.5973542e-07
1.5939417e-07
1.5907677e-07
1.5879142e-07
1.5854799e-07
1.5835839e-07
1.5823698e-07
1.5820115e-07
1.582721e-07
1.5847606e-07
1.5884578e-07
1.594224e-07
1.6025833e-07
1.6142156e-07
1.6300302e-07
1.6512531e-07
1.6795583e-07
1.7172872e-07
1.7679264e-07
1.8366199e-07
1.9307978e-07
2.0617193e-07
2.2480997e-07
2.5183229e-07
2.9142422e-07
3.5039167e-07
4.3953362e-07
5.7543014e-07
7.8242428e-07
1.0938122e-06
1.5507777e-06
2.1976832e-06
3.0733469e-06
4.2034334e-06
5.5981258e-06
7.2577727e-06
9.1803922e-06
1.1364683e-05
1.381208e-05
1.6521913e-05
1.9482782e-05
2.2682754e-05
2.6099221e-05
2.9694528e-05
3.3453284e-05
3.7328081e-05
4.128528e-05
4.5338563e-05
4.834977e-05
5.0985626e-05
5.3698241e-05
5.6530531e-05
5.9447944e-05
6.2529041e-05
6.5825554e-05
6.9266808e-05
7.2834919e-05
7.6528718e-05
8.0312416e-05
8.4152693e-05
8.803215e-05
9.1921622e-05
9.5802765e-05
9.9651912e-05
0.00010345557
0.00010719035
0.00011085388
0.00011441895
0.00011785763
0.0001220122
1.6884589e-07
1.6864496e-07
1.6844047e-07
1.6823179e-07
1.680184e-07
1.6779982e-07
1.6757576e-07
1.6734613e-07
1.6711098e-07
1.668704e-07
1.6662442e-07
1.6637302e-07
1.6611611e-07
1.6585355e-07
1.6558517e-07
1.6531078e-07
1.6503015e-07
1.6474307e-07
1.6444929e-07
1.641486e-07
1.6384077e-07
1.6352561e-07
1.6320296e-07
1.6287273e-07
1.625349e-07
1.6218954e-07
1.6183688e-07
1.614773e-07
1.6111141e-07
1.6074008e-07
1.6036451e-07
1.5998627e-07
1.5960745e-07
1.5923066e-07
1.5885923e-07
1.5849729e-07
1.5814997e-07
1.5782361e-07
1.5752604e-07
1.5726692e-07
1.5705825e-07
1.5691502e-07
1.5685604e-07
1.5690527e-07
1.5709371e-07
1.5746217e-07
1.580654e-07
1.5897826e-07
1.6030707e-07
1.6220609e-07
1.6490089e-07
1.687294e-07
1.7422469e-07
1.8222372e-07
1.9403096e-07
2.1175971e-07
2.3914228e-07
2.8177721e-07
3.4877924e-07
4.546773e-07
6.2142273e-07
8.8020113e-07
1.2715396e-06
1.8421408e-06
2.63747e-06
3.6919436e-06
5.0233726e-06
6.6354556e-06
8.5264374e-06
1.069677e-05
1.3148733e-05
1.5886601e-05
1.8909698e-05
2.2204251e-05
2.5756612e-05
2.9534766e-05
3.3501804e-05
3.7643303e-05
4.1886271e-05
4.622383e-05
5.0505718e-05
5.3385578e-05
5.6245806e-05
5.9219838e-05
6.231364e-05
6.5502477e-05
6.8964656e-05
7.2616474e-05
7.6429308e-05
8.0378229e-05
8.4444038e-05
8.8586371e-05
9.278443e-05
9.7005495e-05
0.00010123072
0.00010542748
0.0001095857
0.00011367544
0.00011763704
0.0001224026
1.6884945e-07
1.6865029e-07
1.6844802e-07
1.6824223e-07
1.6803256e-07
1.6781865e-07
1.6760026e-07
1.6737732e-07
1.6714988e-07
1.6691802e-07
1.6668181e-07
1.6644127e-07
1.6619638e-07
1.6594708e-07
1.6569329e-07
1.654349e-07
1.6517177e-07
1.6490376e-07
1.646307e-07
1.6435242e-07
1.6406873e-07
1.6377942e-07
1.6348429e-07
1.6318312e-07
1.6287572e-07
1.6256187e-07
1.6224141e-07
1.6191419e-07
1.6158012e-07
1.6123916e-07
1.6089139e-07
1.6053697e-07
1.6017624e-07
1.5980973e-07
1.5943819e-07
1.5906268e-07
1.5868463e-07
1.583059e-07
1.5792893e-07
1.5755682e-07
1.5719351e-07
1.5684403e-07
1.5651472e-07
1.5621365e-07
1.5595118e-07
1.5574075e-07
1.5560004e-07
1.5555283e-07
1.5563187e-07
1.5588349e-07
1.563746e-07
1.5720409e-07
1.585233e-07
1.6056878e-07
1.6371416e-07
1.6856429e-07
1.7614857e-07
1.8814898e-07
2.0736712e-07
2.3869712e-07
2.8981995e-07
3.7295572e-07
5.0720283e-07
7.2057755e-07
1.0513189e-06
1.5465076e-06
2.2565921e-06
3.2258987e-06
4.4829289e-06
6.0390539e-06
7.8948314e-06
1.005006e-05
1.2509199e-05
1.5277536e-05
1.8360646e-05
2.1753236e-05
2.5437527e-05
2.9397115e-05
3.3583387e-05
3.7964716e-05
4.2519419e-05
4.7158e-05
5.1903359e-05
5.5800494e-05
5.8889183e-05
6.2009048e-05
6.5277697e-05
6.8643565e-05
7.2236336e-05
7.6078557e-05
8.0109437e-05
8.4311353e-05
8.8648294e-05
9.3092515e-05
9.7613428e-05
0.00010217031
0.00010674375
0.00011129857
0.00011573584
0.00012105385
1.6885017e-07
1.6865147e-07
1.6844987e-07
1.682451e-07
1.680369e-07
1.6782499e-07
1.6760919e-07
1.6738944e-07
1.6716576e-07
1.6693825e-07
1.6670697e-07
1.6647196e-07
1.6623325e-07
1.6599083e-07
1.6574468e-07
1.6549474e-07
1.6524096e-07
1.6498327e-07
1.6472159e-07
1.6445581e-07
1.6418583e-07
1.6391152e-07
1.6363276e-07
1.6334939e-07
1.6306126e-07
1.6276821e-07
1.6247004e-07
1.6216658e-07
1.6185764e-07
1.6154305e-07
1.6122261e-07
1.6089619e-07
1.6056364e-07
1.6022489e-07
1.5987992e-07
1.5952878e-07
1.5917165e-07
1.5880883e-07
1.5844081e-07
1.5806831e-07
1.5769232e-07
1.573142e-07
1.5693578e-07
1.5655943e-07
1.5618828e-07
1.5582643e-07
1.5547927e-07
1.5515404e-07
1.5486055e-07
1.5461247e-07
1.5442923e-07
1.5433916e-07
1.5438477e-07
1.5463156e-07
1.5518262e-07
1.5620407e-07
1.5797335e-07
1.6095419e-07
1.6593044e-07
1.7426071e-07
1.8822765e-07
2.1164874e-07
2.5112925e-07
3.1690433e-07
4.2515753e-07
6.0047973e-07
8.7785967e-07
1.3031674e-06
1.9298232e-06
2.8105996e-06
3.9868721e-06
5.4803426e-06
7.2975264e-06
9.4385158e-06
1.190718e-05
1.4711587e-05
1.785834e-05
2.1351945e-05
2.5176565e-05
2.9309053e-05
3.3725193e-05
3.8361288e-05
4.3195069e-05
4.8162677e-05
5.3228975e-05
5.8314562e-05
6.1654954e-05
6.4964281e-05
6.8374019e-05
7.1921098e-05
7.5637798e-05
7.9669992e-05
8.3897228e-05
8.8358726e-05
9.2982063e-05
9.7735068e-05
0.00010258003
0.00010748186
0.0001123211
0.00011805316
1.6884958e-07
1.6865078e-07
1.6844916e-07
1.6824456e-07
1.6803678e-07
1.6782562e-07
1.6761091e-07
1.6739261e-07
1.6717075e-07
1.6694537e-07
1.6671655e-07
1.6648434e-07
1.6624879e-07
1.6600989e-07
1.6576767e-07
1.6552211e-07
1.652732e-07
1.6502091e-07
1.6476521e-07
1.6450607e-07
1.6424343e-07
1.6397724e-07
1.6370743e-07
1.6343393e-07
1.6315666e-07
1.6287552e-07
1.625904e-07
1.623012e-07
1.6200777e-07
1.6170999e-07
1.6140771e-07
1.6110076e-07
1.60789e-07
1.6047225e-07
1.6015035e-07
1.5982317e-07
1.5949056e-07
1.5915241e-07
1.5880868e-07
1.5845935e-07
1.581045e-07
1.577443e-07
1.5737907e-07
1.570093e-07
1.5663569e-07
1.5625925e-07
1.5588137e-07
1.5550396e-07
1.5512966e-07
1.5476218e-07
1.5440683e-07
1.540713e-07
1.5376706e-07
1.5351165e-07
1.5333255e-07
1.532738e-07
1.5340817e-07
1.5385783e-07
1.5483066e-07
1.5668685e-07
1.600479e-07
1.6598307e-07
1.7635746e-07
1.9429594e-07
2.2500912e-07
2.7737551e-07
3.6494902e-07
5.09008e-07
7.4103731e-07
1.1044932e-06
1.6539147e-06
2.448588e-06
3.5416835e-06
4.968852e-06
6.7448666e-06
8.8731049e-06
1.1355821e-05
1.4202519e-05
1.7422257e-05
2.1019506e-05
2.4992243e-05
2.9310659e-05
3.3947048e-05
3.8850309e-05
4.3971663e-05
4.9288344e-05
5.4689047e-05
6.0204705e-05
6.4497111e-05
6.8038903e-05
7.1623378e-05
7.5355346e-05
7.9196992e-05
8.3417898e-05
8.7881005e-05