/*--------------------------------*- C++ -*----------------------------------*\
| =========                 |                                                 |
| \\      /  F ield         | OpenFOAM: The Open Source CFD Toolbox           |
|  \\    /   O peration     | Version:  2206                                  |
|   \\  /    A nd           | Website:  www.openfoam.com                      |
|    \\/     M anipulation  |                                                 |
\*---------------------------------------------------------------------------*/
FoamFile
{
    version     2.0;
    format      ascii;
    arch        "LSB;label=32;scalar=64";
    class       volScalarField;
    location    "100";
    object      omega;
}
// * * * * * * * * * * * * * * * * * * * * * * * * * * * * * * * * * * * * * //

dimensions      [0 0 -1 0 0 0 0];

internalField   nonuniform List<scalar> 
7480
(
7569.0997
7590.8072
7571.1046
7538.1503
7512.562
7498.0749
7491.1183
7487.7282
7485.8491
7484.6253
7483.6799
7482.869
7482.1624
7481.551
7481.0209
7480.559
7480.1556
7479.8012
7479.486
7479.2035
7478.9498
7478.7208
7478.5126
7478.3228
7478.1494
7477.9904
7477.8438
7477.7087
7477.5839
7477.4684
7477.3614
7477.2622
7477.1702
7477.0849
7477.0058
7476.9326
7476.8649
7476.8024
7476.7449
7476.6924
7476.6447
7476.6018
7476.5636
7476.5302
7476.5016
7476.4784
7476.4602
7476.4479
7476.4414
7476.4405
7476.445
7476.4546
7476.469
7476.487
7476.5079
7476.531
7476.5549
7476.5775
7476.5969
7476.6116
7476.6214
7476.6265
7476.6272
7476.6242
7476.6184
7476.6104
7476.6009
7476.5903
7476.5792
7476.5676
7476.5559
7476.5442
7476.5325
7476.5209
7476.5094
7476.4981
7476.487
7476.4756
7476.4639
7476.4521
7476.4403
7476.4283
7476.4163
7476.4042
7476.392
7476.3797
7476.3673
7476.3547
7476.3421
7476.3294
7476.3166
7476.3038
7476.2909
7476.2779
7476.265
7476.2513
7476.2392
7476.222
7476.2119
7476.1855
1003.2489
1574.4091
1842.5023
1920.7803
1937.0224
1923.8562
1863.155
1797.8093
1744.1871
1703.9977
1673.3555
1647.6978
1624.4771
1603.064
1583.2698
1564.8862
1547.8388
1532.2167
1517.8591
1504.551
1492.1991
1480.78
1470.186
1460.3041
1451.0886
1442.5127
1434.5051
1426.9972
1419.9579
1413.3634
1407.1716
1401.3471
1395.8735
1390.7344
1385.9056
1381.3687
1377.1147
1373.1319
1369.4067
1365.9312
1362.7036
1359.7213
1356.9814
1354.4873
1352.2308
1350.2252
1348.4698
1346.963
1345.7204
1344.7353
1344.0288
1343.6337
1343.4449
1343.4297
1343.5506
1343.7694
1344.0432
1344.3117
1344.5174
1344.6124
1344.5698
1344.3875
1344.1122
1343.7337
1343.252
1342.6901
1342.0694
1341.4107
1340.7298
1340.0384
1339.3453
1338.6571
1337.9776
1337.3098
1336.6563
1336.0166
1335.3934
1334.7784
1334.1664
1333.5588
1332.9554
1332.3563
1331.7611
1331.1671
1330.5741
1329.9806
1329.3867
1328.7922
1328.1969
1327.6013
1327.0049
1326.4084
1325.8119
1325.2137
1324.6183
1324.0079
1323.4182
1322.8068
1322.0682
1321.3871
190.66713
396.6297
585.95338
709.1948
769.2403
785.36862
782.07231
789.18951
803.66343
812.83087
819.31755
823.53799
825.03914
824.14313
821.41576
817.3963
811.93361
805.27916
797.69101
789.38768
780.58153
771.47692
762.21753
752.90731
743.65104
734.54323
725.59986
716.82121
708.2234
699.82995
691.65526
683.70927
676.00552
668.55646
661.36935
654.45212
647.81449
641.45658
635.37563
629.57227
624.05256
618.82418
613.89466
609.27499
604.97207
600.98984
597.32942
593.96723
590.89527
588.10396
585.63044
583.479
581.54413
579.79163
578.19651
576.70554
575.25691
573.80918
572.35412
570.88886
569.40963
567.9027
566.45222
565.00706
563.55042
562.08492
560.61648
559.15405
557.70606
556.27935
554.87942
553.5104
552.17533
550.8763
549.61514
548.39089
547.20407
546.07527
544.99077
543.93718
542.90733
541.89785
540.90689
539.93081
538.9676
538.01483
537.07106
536.13521
535.20607
534.28315
533.36546
532.4527
531.54459
530.6389
529.73934
528.82823
527.93807
527.03405
526.04521
524.83975
72.002634
121.36372
193.99323
267.71967
324.6185
359.72796
377.79679
386.77083
392.4424
397.55997
404.51109
415.22061
426.20414
437.92965
452.27828
470.55003
485.14027
496.53147
505.30108
511.85932
516.53046
519.6062
521.34571
522.01851
521.9404
521.35755
519.99894
517.81284
514.88734
511.34663
507.30988
502.88089
498.1505
493.19913
488.10137
482.93159
477.73734
472.50164
467.22414
461.92197
456.62136
451.34997
446.13313
440.9953
435.96511
431.03665
426.18696
421.38379
416.61699
411.89428
407.23791
402.74696
398.32264
393.97656
389.74424
385.58072
381.45074
377.39846
373.5112
369.85629
366.45357
363.32129
360.49283
357.89292
355.47224
353.19534
351.03505
348.97255
346.99504
345.09381
343.26277
341.49799
339.79735
338.15857
336.58011
335.05931
333.59509
332.2106
330.90046
329.64941
328.44674
327.28662
326.16617
325.08152
324.02974
323.00751
322.01203
321.04093
320.09173
319.16275
318.25187
317.35748
316.47812
315.61152
314.75881
313.90971
313.07413
312.28034
311.38462
310.33763
55.641527
64.531943
83.910055
111.34814
140.41946
165.52608
184.58013
198.12877
207.73978
214.78676
220.41965
225.66296
230.95996
236.83238
244.10007
253.54893
263.34701
273.15141
282.74783
292.00576
300.83188
309.3066
317.72351
326.71615
337.34953
349.83728
359.69419
366.92368
372.20383
375.98476
378.57266
380.18863
381.01104
381.20755
380.96908
380.50704
379.79928
378.45362
376.46639
373.92246
370.91706
367.53275
363.83743
359.89254
355.77163
351.47454
346.93744
342.13832
337.10383
331.87911
326.51297
321.0658
315.61085
310.15796
304.74336
299.32126
293.91726
288.65417
283.65184
278.98875
274.72882
270.88624
267.4205
264.27486
261.39579
258.73677
256.25819
253.92894
251.72536
249.62975
247.62887
245.71494
243.88072
242.12038
240.42988
238.80535
237.24548
235.75272
234.32977
232.97307
231.6768
230.43631
229.24881
228.11093
227.01974
225.97185
224.964
223.9932
223.0563
222.15126
221.27503
220.42507
219.59912
218.7948
218.01155
217.24391
216.48927
215.80065
215.0316
214.16146
53.509401
54.436956
58.087827
65.264951
75.157689
86.041031
96.433304
105.64067
113.54095
120.26086
125.96686
130.87347
135.1854
139.11464
142.94395
147.01237
151.42108
156.27228
161.71189
167.82044
174.15914
180.72655
187.52836
194.61673
202.10382
210.07295
218.05486
225.69193
232.81007
239.34834
245.32033
250.80561
255.97518
261.15918
266.96781
274.12122
281.53374
286.10277
288.74838
290.0775
290.4441
290.0653
289.09383
287.67597
285.99168
284.19008
281.82498
278.802
275.2223
271.19402
266.8173
262.19032
257.41346
252.51814
247.55667
242.60158
237.70747
232.95769
228.43316
224.18432
220.2324
216.58475
213.22425
210.12257
207.24989
204.5759
202.07151
199.71257
197.4789
195.35404
193.32503
191.38387
189.5232
187.73708
186.02121
184.37165
182.78727
181.26323
179.80033
178.40018
177.06189
175.78341
174.56302
173.39823
172.28656
171.22501
170.21051
169.24
168.31021
167.41868
166.56224
165.73806
164.9435
164.17611
163.4345
162.71535
162.01242
161.37565
160.69668
159.92661
53.223945
52.808359
52.958716
54.084823
56.272868
59.363358
62.973065
66.789094
70.617731
74.356248
77.934469
81.306307
84.449975
87.363387
90.077429
92.660779
95.183633
97.716559
100.34362
103.15546
106.19512
109.53067
113.24508
117.38928
121.86745
126.72889
131.94398
137.42877
143.08651
148.83328
154.59656
160.31925
165.97017
171.55933
177.14232
182.82514
188.52862
193.80333
198.43721
202.38536
205.68438
208.42172
210.74932
212.94651
215.47769
218.47634
219.85181
219.66915
218.48797
216.62159
214.29047
211.69439
209.00091
205.97246
202.55422
199.05001
195.61294
192.28968
189.04012
185.87304
182.81539
179.88144
177.07226
174.38998
171.83497
169.40007
167.07572
164.85507
162.72882
160.688
158.72553
156.83646
155.017
153.26438
151.57619
149.94948
148.38377
146.87517
145.42203
144.02576
142.68743
141.40703
140.18408
139.01708
137.90416
136.843
135.83104
134.86557
133.94348
133.06209
132.21853
131.41009
130.63416
129.88829
129.17084
128.47929
127.80775
127.1945
126.57216
125.85601
53.161812
52.54215
52.020407
51.712288
51.711599
52.046465
52.632562
53.454725
54.479111
55.668371
56.982824
58.384534
59.838233
61.311004
62.777503
64.225142
65.651822
67.062618
68.471913
69.903772
71.384216
72.944546
74.624819
76.470688
78.518686
80.820418
83.432759
86.359597
89.555567
93.018851
96.739094
100.69665
104.86851
109.2351
113.78744
118.52613
123.43122
128.41012
133.35873
138.18077
142.7955
147.14095
151.17394
154.8786
158.27711
161.33553
163.8785
165.76596
166.99821
167.66848
167.92949
167.98142
167.97544
167.24233
165.73007
163.88167
162.05464
160.27409
158.31857
156.2899
154.25038
152.19973
150.13375
148.07438
146.03846
144.02979
142.05479
140.12568
138.24092
136.40102
134.60771
132.86217
131.16503
129.51919
127.92536
126.38198
124.89026
123.44878
122.05544
120.71083
119.41636
118.17315
116.98173
115.84166
114.75172
113.71056
112.71649
111.76745
110.86078
109.99412
109.16507
108.37131
107.61056
106.88059
106.17985
105.50621
104.85543
104.25409
103.66666
102.98109
53.125457
52.475142
51.838643
51.240277
50.710402
50.271854
49.92885
49.683694
49.538525
49.482566
49.493589
49.59815
49.796138
50.077571
50.428891
50.836997
51.291661
51.78471
52.310871
52.868796
53.46029
54.090036
54.766781
55.503875
56.317515
57.228562
58.263605
59.448534
60.804838
62.358367
64.139204
66.150028
68.388086
70.859715
73.576336
76.546817
79.777536
83.261162
86.975036
90.888411
94.965421
99.165608
103.44499
107.75746
112.06299
116.2621
120.21048
123.79648
126.93135
129.55877
131.6521
133.21371
134.27443
134.88095
135.04073
134.79208
134.37354
133.84425
132.99436
132.01143
130.99072
129.84476
128.54508
127.16298
125.72411
124.22794
122.69682
121.14954
119.59295
118.03649
116.48955
114.95966
113.45201
111.97872
110.5422
109.14053
107.77827
106.45523
105.16929
103.92137
102.71302
101.54565
100.42043
99.337785
98.297036
97.298164
96.340636
95.423298
94.54392
93.70105
92.892946
92.117947
91.374312
90.660251
89.974632
89.315698
88.681041
88.088016
87.523009
86.857171
53.095439
52.438595
51.782513
51.131053
50.491048
49.869843
49.272956
48.705034
48.170861
47.674208
47.216632
46.802214
46.434541
46.115317
45.829979
45.572665
45.356026
45.1855
45.061272
44.981813
44.94502
44.948457
44.991228
45.074816
45.202665
45.380181
45.615288
45.9179
46.299347
46.772992
47.35508
48.061634
48.909188
49.9172
51.109395
52.492334
54.082885
55.899703
57.954365
60.255681
62.812847
65.632621
68.719208
72.074075
75.697136
79.567811
83.603209
87.701125
91.757294
95.664477
99.317368
102.61758
105.48079
107.85145
109.69101
110.92197
111.55198
111.75853
111.74133
111.56102
111.32275
110.95925
110.41809
109.77049
109.0139
108.09234
107.06937
105.96964
104.79868
103.57807
102.32428
101.05282
99.774085
98.519638
97.285158
96.067953
94.871359
93.697312
92.546046
91.419012
90.317997
89.244737
88.201099
87.188449
86.20614
85.255921
84.339759
83.457409
82.607196
81.788355
81.000038
80.241459
79.511614
78.809194
78.133803
77.484179
76.859466
76.270467
75.717701
75.06312
53.069081
52.408857
51.747605
51.085594
50.423949
49.764215
49.108158
48.457813
47.815586
47.184083
46.565776
45.963218
45.378991
44.815503
44.273466
43.753008
43.255523
42.782801
42.336456
41.917652
41.521999
41.139206
40.774082
40.436119
40.131338
39.863238
39.63444
39.447222
39.304069
39.20907
39.168326
39.189286
39.280676
39.452787
39.718003
40.088908
40.580492
41.211108
42.000789
42.960719
44.110999
45.473649
47.072738
48.934437
51.087267
53.561785
56.37673
59.520376
62.963067
66.651852
70.509266
74.433532
78.301921
81.984209
85.357378
88.280208
90.622501
92.354303
93.517737
94.221671
94.585762
94.754657
94.783549
94.708584
94.544589
94.222007
93.782211
93.22484
92.519981
91.715697
90.832094
89.898232
88.923977
87.943234
86.950605
85.946987
84.938118
83.928022
82.919861
81.917453
80.924089
79.942872
78.977197
78.029835
77.102388
76.197246
75.316825
74.462417
73.634309
72.83277
72.057851
71.309527
70.587342
69.890871
69.220244
68.574634
67.954526
67.366287
66.818777
66.169735
53.031081
52.366976
51.702007
51.035937
50.368751
49.700495
49.031432
48.362155
47.693583
47.026858
46.363226
45.703993
45.050538
44.40429
43.766567
43.138545
42.521417
41.916415
41.324794
40.747794
40.186097
39.639316
39.107613
38.592114
38.094442
37.616366
37.158986
36.716508
36.283767
35.869348
35.483663
35.133902
34.825187
34.561526
34.346622
34.185661
34.085694
34.055717
34.106549
34.249677
34.49896
34.871541
35.387043
36.065277
36.934297
38.028622
39.387822
41.050747
43.053384
45.42342
48.173213
51.29135
54.733947
58.420065
62.235056
66.025456
69.60354
72.79603
75.472707
77.596377
79.178715
80.298146
81.052928
81.521162
81.793236
81.934744
81.957379
81.883216
81.67604
81.357788
80.923174
80.39528
79.793933
79.126949
78.401989
77.63272
76.829594
75.998812
75.146905
74.28071
73.405594
72.526594
71.648927
70.776761
69.913464
69.062641
68.227429
67.410244
66.612794
65.836329
65.081771
64.349841
63.640887
62.955127
62.293075
61.654302
61.040178
60.454554
59.911547
59.268375
52.972708
52.29351
51.615803
50.93923
50.263375
49.587732
48.911937
48.235919
47.559895
46.884271
46.209538
45.536228
44.864918
44.196237
43.530851
42.869457
42.21279
41.56162
40.916758
40.279048
39.649316
39.028264
38.416541
37.814844
37.223961
36.644768
36.078152
35.524315
34.982913
34.45454
33.94085
33.444059
32.966319
32.503775
32.049564
31.613529
31.208085
30.841295
30.518766
30.24454
30.023575
29.863549
29.774455
29.768332
29.860577
30.071502
30.4265
30.955585
31.697382
32.69715
34.004898
35.671063
37.739217
40.234684
43.15218
46.441144
49.991512
53.639134
57.186942
60.457828
63.314577
65.688121
67.582872
69.023948
70.071734
70.813883
71.307252
71.623868
71.814196
71.885777
71.858592
71.721587
71.493524
71.184243
70.774426
70.28946
69.742689
69.138955
68.486791
67.796094
67.074568
66.32913
65.567205
64.794726
64.017012
63.239515
62.46652
61.701737
60.948315
60.208606
59.484588
58.777878
58.089674
57.420958
56.772787
56.145265
55.540536
54.96089
54.423653
53.78775
52.921842
52.221785
51.524147
50.828953
50.135993
49.444841
48.755079
48.066484
47.379064
46.693
46.008549
45.325991
44.64562
43.967742
43.292674
42.620746
41.952307
41.287723
40.627377
39.971678
39.321052
38.675933
38.036759
37.403981
36.778074
36.159543
35.548924
34.946718
34.353338
33.769212
33.194901
32.631139
32.078793
31.538207
31.008951
30.491743
29.988589
29.502111
29.033204
28.572169
28.123399
27.702243
27.318539
26.978478
26.686709
26.450381
26.280623
26.192408
26.20576
26.347269
26.651124
27.159822
27.926805
29.01335
30.482675
32.388249
34.754976
37.557139
40.703632
44.047166
47.406349
50.602732
53.500719
56.008247
58.085336
59.751373
61.03576
61.985673
62.674696
63.147392
63.467166
63.656816
63.736367
63.736012
63.645244
63.471148
63.226022
62.893968
62.484405
62.012829
61.486806
60.912545
60.300607
59.658626
58.993659
58.313671
57.624225
56.930629
56.237758
55.549258
54.86844
54.198017
53.540161
52.896772
52.269582
51.659368
51.069006
50.499903
49.971499
49.345652
52.891885
52.177131
51.464013
50.752876
50.043847
49.336814
48.631594
47.928074
47.226287
46.526391
45.828616
45.133222
44.44048
43.75067
43.064073
42.380969
41.701644
41.02638
40.355463
39.689177
39.027807
38.371635
37.720941
37.076
36.437088
35.804477
35.178442
34.559256
33.947184
33.342482
32.745418
32.156293
31.575445
31.0032
30.439791
29.8855
29.340793
28.806357
28.282886
27.7699
27.267494
26.77752
26.302691
25.84369
25.389129
24.948836
24.539222
24.169893
23.847813
23.58159
23.385634
23.28036
23.293949
23.464676
23.842573
24.488835
25.474199
26.866068
28.708533
31.000571
33.681379
36.632154
39.699189
42.718757
45.544486
48.076318
50.254156
52.054672
53.502074
54.625347
55.464264
56.074477
56.496512
56.773323
56.94667
57.02977
57.040243
56.972251
56.825989
56.61287
56.322371
55.95593
55.532073
55.05639
54.536239
53.983468
53.403736
52.804309
52.192332
51.5728
50.95076
50.330247
49.714601
49.106887
48.509642
47.924488
47.355064
46.802371
46.287579
45.676024
52.876978
52.154197
51.432164
50.711314
49.991922
49.274078
48.557782
47.843054
47.129987
46.418761
45.70961
45.002801
44.298619
43.597356
42.899309
42.204778
41.514062
40.827458
40.145263
39.467767
38.795258
38.128019
37.466325
36.810442
36.160632
35.517143
34.880216
34.25008
33.626951
33.011033
32.402514
31.801573
31.208383
30.623105
30.045881
29.476844
28.916135
28.363926
27.820419
27.285719
26.75991
26.243261
25.736305
25.239566
24.752188
24.274618
23.809204
23.359072
22.916675
22.481205
22.074019
21.708093
21.393308
21.142861
20.978498
20.931495
21.04518
21.376402
21.992222
22.961201
24.339014
26.147159
28.357316
30.88707
33.610432
36.38385
39.068518
41.547421
43.746888
45.627572
47.177304
48.419771
49.381228
50.093872
50.613662
50.978264
51.215504
51.358796
51.431594
51.435732
51.368337
51.228539
51.029101
50.753929
50.410919
50.019539
49.579356
49.101129
48.594818
48.065925
47.521833
46.967974
46.409099
45.849788
45.293516
44.74301
44.202758
43.673742
43.17902
42.587512
52.870394
52.143539
51.416868
50.690819
49.96571
49.241715
48.518927
47.79744
47.077384
46.35895
45.64237
44.927909
44.215848
43.506482
42.800111
42.09704
41.397574
40.702021
40.010684
39.323865
38.641863
37.96497
37.293474
36.627656
35.967792
35.314147
34.666977
34.026531
33.393043
32.766739
32.147828
31.536508
30.932961
30.337354
29.749835
29.170535
28.599569
28.037035
27.48302
26.937589
26.400785
25.872646
25.35324
24.842658
24.340855
23.847828
23.363844
22.889479
22.424359
21.96812
21.523042
21.092656
20.669999
20.256949
19.877889
19.548121
19.282073
19.103437
19.047171
19.160547
19.502743
20.138919
21.128722
22.510864
24.285289
26.403863
28.773819
31.271936
33.769199
36.14927
38.318824
40.223341
41.836497
43.15339
44.202516
45.008323
45.603226
46.032341
46.334646
46.525623
46.632377
46.682655
46.668861
46.588149
46.443224
46.247931
45.974546
45.646217
45.274351
44.8613
44.418352
43.951527
43.467246
42.972008
42.470209
41.966112
41.465145
40.968679
40.50214
39.938071
52.868204
52.139295
51.410242
50.681476
49.953332
49.226021
48.499685
47.774457
47.050486
46.327964
45.607116
44.888196
44.171476
43.45724
42.745781
42.037397
41.332388
40.631055
39.933699
39.240618
38.552107
37.86846
37.189963
36.516898
35.849542
35.188164
34.533026
33.884383
33.242481
32.607556
31.979835
31.359533
30.746854
30.141991
29.545121
28.956408
28.375999
27.804027
27.240606
26.685832
26.139782
25.602512
25.074065
24.554471
24.043733
23.541836
23.048785
22.564633
22.089369
21.622934
21.165542
20.717785
20.279354
19.850257
19.433526
19.033703
18.637104
18.267076
17.946005
17.691444
17.529122
17.496584
17.643105
18.026308
18.706806
19.733613
21.128151
22.872137
24.903094
27.12337
29.415323
31.663893
33.770782
35.661413
37.298867
38.667607
39.773226
40.645042
41.304328
41.786307
42.126981
42.363298
42.500699
42.575573
42.595588
42.557675
42.457501
42.303585
42.095678
41.82343
41.50795
41.151611
40.763111
40.351048
39.920186
39.477003
39.027744
38.57472
38.146168
37.618834
52.868377
52.138428
51.40813
50.677912
49.948118
49.218987
48.490694
47.763397
47.037263
46.312482
45.589275
44.867886
44.148576
43.431619
42.717297
42.005898
41.297713
40.593033
39.892151
39.195355
38.502933
37.815168
37.132342
36.454727
35.782593
35.116203
34.455814
33.801675
33.154029
32.51311
31.879142
31.252344
30.632924
30.021078
29.416994
28.820849
28.232808
27.653021
27.081629
26.518756
25.964514
25.418995
24.882278
24.354429
23.835494
23.325505
22.824484
22.332452
21.849417
21.375381
20.910362
20.45444
20.007643
19.569991
19.141861
18.724121
18.315844
17.919202
17.53897
17.16657
16.819854
16.523964
16.298073
16.17054
16.181196
16.38016
16.822812
17.564405
18.641204
20.058575
21.781555
23.735782
25.820278
27.923063
29.942867
31.797824
33.432607
34.825999
35.970254
36.881475
37.58771
38.110012
38.482974
38.744707
38.9152
38.997382
39.040879
39.030221
38.965259
38.84667
38.684558
38.461397
38.191451
37.884722
37.544107
37.179597
36.797254
36.40116
36.022172
35.543368
52.86987
52.139399
51.408439
50.677416
49.94668
49.216494
48.48706
47.75856
47.031174
46.305099
45.580554
44.857776
44.13702
43.418551
42.702645
41.989579
41.279638
40.573103
39.87026
39.171387
38.476766
37.78667
37.101372
36.421136
35.746223
35.076887
34.413377
33.755934
33.10479
32.460172
31.822298
31.191379
30.567614
29.951198
29.342313
28.741134
28.147824
27.562538
26.985419
26.416599
25.856201
25.304332
24.76109
24.22656
23.700815
23.183915
22.675914
22.176854
21.686774
21.205708
20.733687
20.270749
19.816931
19.37227
18.936839
18.510802
18.094183
17.687257
17.290838
16.904512
16.530268
16.17319
15.824855
15.50868
15.24673
15.05957
14.978509
15.046089
15.312039
15.830623
16.649621
17.790761
19.242474
20.952701
22.836572
24.791118
26.712186
28.513697
30.129567
31.523679
32.688028
33.623618
34.354359
34.90527
35.305026
35.577714
35.766572
35.874357
35.922555
35.930033
35.889262
35.799056
35.666137
35.487462
35.256842
34.991737
34.694008
34.371273
34.055474
33.64012
52.87213
52.141413
51.4101
50.678613
49.947309
49.216468
48.486317
47.75706
47.028891
46.302016
45.576654
44.853044
44.131434
43.412086
42.695269
41.981257
41.270327
40.562755
39.85882
39.158797
38.462958
37.771572
37.084904
36.403212
35.726751
35.055766
34.390499
33.731183
33.078043
32.431298
31.791158
31.157824
30.531491
29.912342
29.300553
28.696292
28.099715
27.510971
26.930199
26.357527
25.793075
25.236951
24.689254
24.150072
23.619484
23.097559
22.584358
22.079934
21.584337
21.097612
20.6198
20.150944
19.691088
19.240274
18.798554
18.365991
17.942643
17.528588
17.12398
16.72888
16.343574
15.968946
15.604629
15.253514
14.921129
14.599613
14.317672
14.094114
13.952661
13.92805
14.065024
14.414304
15.027186
15.940151
17.158663
18.651423
20.349154
22.158833
23.978092
25.713881
27.296852
28.678677
29.842213
30.78802
31.532131
32.098484
32.510386
32.799178
32.9943
33.116272
33.170247
33.188461
33.164671
33.097166
32.988397
32.844421
32.64847
32.417751
32.180965
31.847032
52.874854
52.144041
51.412547
50.680786
49.949119
49.217843
48.487205
47.757428
47.028722
46.301302
45.575394
44.851235
44.129074
43.40917
42.691788
41.977199
41.265676
40.557493
39.852923
39.152238
38.455706
37.763591
37.076154
36.393649
35.716325
35.044424
34.378181
33.717824
33.063573
32.415641
31.774232
31.13954
30.511754
29.89105
29.277599
28.671559
28.073082
27.482309
26.899372
26.324394
25.757488
25.198757
24.648296
24.106189
23.572512
23.047331
22.530705
22.022686
21.52332
21.032649
20.550712
20.077549
19.613195
19.157689
18.711073
18.27339
17.844686
17.425009
17.014412
16.612939
16.220649
15.837691
15.464131
15.100396
14.747581
14.405537
14.0782
13.766507
13.477018
13.23287
13.053043
12.965728
13.009816
13.232185
13.68431
14.41162
15.433553
16.736131
18.26597
19.938403
21.655829
23.321817
24.859662
26.217015
27.368369
28.312435
29.056573
29.62687
30.045087
30.340922
30.537946
30.66639
30.729231
30.751361
30.740492
30.690916
30.603734
30.483045
30.341473
30.10843
52.877868
52.147045
51.415466
50.68354
49.951632
49.220048
48.489055
47.758892
47.029785
46.30196
45.575647
44.851088
44.128532
43.408237
42.690467
41.97549
41.263578
40.555002
39.850031
39.148936
38.451982
37.759431
37.07154
36.388561
35.710739
35.038313
34.371515
33.71057
33.055695
32.407097
31.764978
31.129527
30.500928
29.879355
29.26497
28.65793
28.05838
27.466456
26.882285
26.305984
25.737662
25.177415
24.625334
24.081498
23.545976
23.018832
22.500117
21.98988
21.488159
20.99499
20.510404
20.034429
19.567092
19.108419
18.658437
18.217173
17.784656
17.360918
16.945984
16.539879
16.14262
15.754232
15.374736
15.004194
14.642794
14.290667
13.948453
13.616821
13.297278
12.994449
12.706254
12.451805
12.248891
12.119899
12.09809
12.226522
12.554984
13.132566
13.991712
15.131064
16.51174
18.058584
19.677011
21.270588
22.757492
24.082329
25.211537
26.140546
26.87667
27.442018
27.85951
28.154733
28.351878
28.480882
28.55218
28.576653
28.576682
28.541553
28.4918
28.375764
52.881071
52.150284
51.418678
50.686655
49.954578
49.222765
48.491498
47.761029
47.031601
46.30345
45.576812
44.851933
44.129065
43.408467
42.690401
41.975134
41.262937
40.554079
39.848829
39.147455
38.450219
37.757382
37.0692
36.385922
35.707792
35.035047
34.367917
33.706623
33.051381
32.402397
31.759868
31.123983
30.494921
29.872854
29.257942
28.650337
28.050181
27.457608
26.87274
26.295691
25.726565
25.165456
24.61245
24.067621
23.531035
23.002751
22.482817
21.971274
21.468157
20.973493
20.487308
20.009619
19.540444
19.079796
18.627689
18.184135
17.749148
17.322738
16.904916
16.495688
16.095055
15.703013
15.319554
14.94467
14.578373
14.220683
13.871695
13.531575
13.200664
12.879886
12.569729
12.2734
11.994686
11.736865
11.52044
11.364209
11.296347
11.355732
11.589982
12.049491
12.774956
13.77639
15.026641
16.45999
17.985456
19.507631
20.940635
22.224362
23.323563
24.229515
24.950211
25.503077
25.914268
26.202805
26.399187
26.525952
26.602554
26.634648
26.656759
26.631911
52.884398
52.153675
51.422076
50.689996
49.957798
49.225809
48.494319
47.763598
47.033899
46.305469
45.578553
44.853402
44.130268
43.409413
42.6911
41.975596
41.263168
40.554087
39.84862
39.147033
38.449588
37.756545
37.068156
36.384671
35.706333
35.033375
34.366028
33.704512
33.04904
32.399817
31.757038
31.120891
30.491553
29.869194
29.253973
28.646039
28.045534
27.452587
26.867319
26.289842
25.720257
25.158656
24.605121
24.059725
23.522531
22.993594
22.472958
21.960663
21.456737
20.961204
20.474084
19.995388
19.525125
19.063302
18.60992
18.16498
17.728483
17.300426
16.880805
16.469611
16.066832
15.672447
15.286434
14.908764
14.539406
14.178333
13.825527
13.480992
13.144768
12.817013
12.49792
12.188097
11.888589
11.600757
11.328819
11.073788
10.851516
10.678951
10.580092
10.589865
10.753125
11.120443
11.737133
12.623706
13.762119
15.095243
16.535787
17.987941
19.364728
20.602804
21.666379
22.542939
23.242042
23.77619
24.174027
24.454413
24.647939
24.774385
24.868475
24.911799
52.887809
52.157165
51.425593
50.693482
49.961196
49.229064
48.497389
47.766452
47.036517
46.307841
45.580677
44.85528
44.131908
43.410824
42.69229
41.976576
41.263948
40.554674
39.849023
39.147259
38.449642
37.756433
37.067882
36.384238
35.705743
35.03263
34.365127
33.703455
33.047824
32.39844
31.755496
31.119179
30.489665
29.867123
29.25171
28.643575
28.042858
27.449686
26.86418
26.28645
25.716596
25.154707
24.600864
24.055139
23.517592
22.988277
22.467236
21.954505
21.450112
20.954077
20.466415
19.987135
19.51624
19.053731
18.599602
18.153848
17.716459
17.287424
16.866726
16.454347
16.050264
15.654446
15.266858
14.88746
14.516205
14.153046
13.797936
13.450829
13.111687
12.780495
12.457262
12.142074
11.83514
11.536827
11.248034
10.96967
10.704875
10.456886
10.233571
10.051922
9.9326469
9.9070899
10.017273
10.313377
10.843335
11.635637
12.679985
13.92565
15.28891
16.674233
17.994594
19.184317
20.20796
21.049943
21.720096
22.232174
22.614885
22.886516
23.090513
23.220207
52.891276
52.160717
51.429184
50.697061
49.964708
49.23246
48.500627
47.7695
47.039354
46.310454
45.583063
44.85744
44.133848
43.412549
42.693812
41.977902
41.265089
40.555639
39.849821
39.147897
38.450129
37.756775
37.068085
36.384307
35.705682
35.032443
34.364817
33.703024
33.047273
32.397769
31.754706
31.118268
30.488632
29.865965
29.250424
28.642157
28.041302
27.447987
26.862331
26.284444
25.714423
25.152359
24.59833
24.052407
23.514649
22.98511
22.463829
21.950843
21.446175
20.949847
20.461869
19.982247
19.510984
19.048075
18.593513
18.147284
17.709374
17.279766
16.858437
16.44536
16.040506
15.643835
15.255305
14.874866
14.502464
14.138042
13.781538
13.43289
13.092035
12.758913
12.433472
12.115674
11.805512
11.503025
11.208366
10.921788
10.643946
10.37586
10.119565
9.8793903
9.6586345
9.4730624
9.3411151
9.2910327
9.362395
9.6042875
10.066365
10.782568
11.748769
12.919304
14.213563
15.536358
16.801133
17.940732
18.919453
19.722823
20.362303
20.850953
21.232771
21.496456
52.894779
52.164308
51.432821
50.700696
49.968293
49.235948
48.503978
47.772682
47.042344
46.31324
45.585637
44.859801
44.136
43.414498
42.695566
41.97947
41.26648
40.556863
39.850886
39.148813
38.450903
37.757414
37.068598
36.384699
35.705958
35.032608
34.364876
33.70298
33.04713
32.397529
31.75437
31.117838
30.488109
29.865348
29.249713
28.641351
28.0404
27.446987
26.86123
26.283237
25.713108
25.15093
24.596782
24.050734
23.512845
22.983167
22.46174
21.948597
21.443765
20.94726
20.459093
19.979271
19.50779
19.044646
18.589829
18.143322
17.705108
17.275165
16.853467
16.439982
16.034674
15.637502
15.248416
14.867361
14.494278
14.129102
13.771765
13.422196
13.08032
12.746066
12.419357
12.100123
11.788298
11.48383
11.186691
10.896886
10.614509
10.339777
10.073158
9.8156723
9.5686666
9.3357061
9.1203014
8.9348249
8.7960492
8.729811
8.7734968
8.9749854
9.3849083
10.040898
10.943611
12.050944
13.284637
14.549534
15.759129
16.846709
17.779858
18.543322
19.168312
19.637457
52.898305
52.167921
51.436483
50.704365
49.971922
49.239494
48.507403
47.775956
47.045443
46.316148
45.588346
44.86231
44.138308
43.416611
42.69749
41.981213
41.268051
40.558271
39.852141
39.149922
38.451876
37.758258
37.069319
36.385306
35.706456
35.033004
34.365174
33.703184
33.047245
32.397558
31.754317
31.117705
30.487898
29.865062
29.249352
28.640916
28.039891
27.446403
26.860572
26.282504
25.712297
25.15004
24.595812
24.04968
23.511704
22.981935
22.460414
21.947173
21.442237
20.945623
20.457341
19.977395
19.505784
19.042499
18.58753
18.140859
17.702465
17.272325
16.85041
16.436685
16.031111
15.633643
15.244229
14.86281
14.489324
14.123701
13.765869
13.415752
13.07327
12.738343
12.410887
12.09082
11.778059
11.472522
11.174135
10.88283
10.598563
10.321318
10.051147
9.7882308
9.5329093
9.285985
9.0486512
8.8238176
8.6153854
8.432466
8.2910392
8.2147798
8.2394341
8.4115633
8.7825921
9.3922361
10.245112
11.300636
12.481582
13.692233
14.849735
15.885717
16.793541
17.526418
52.901842
52.171543
51.440156
50.708048
49.975574
49.243075
48.510877
47.779292
47.048619
46.319146
45.591157
44.864927
44.140733
43.418847
42.699542
41.983089
41.269758
40.559817
39.853535
39.151173
38.452991
37.759247
37.070189
36.386063
35.707107
35.033555
34.365631
33.703553
33.04753
32.397764
31.754447
31.117763
30.487886
29.864983
29.249208
28.640709
28.039622
27.446075
26.860184
26.282057
25.711791
25.149475
24.595187
24.048995