/*--------------------------------*- C++ -*----------------------------------*\
| =========                 |                                                 |
| \\      /  F ield         | OpenFOAM: The Open Source CFD Toolbox           |
|  \\    /   O peration     | Version:  2206                                  |
|   \\  /    A nd           | Website:  www.openfoam.com                      |
|    \\/     M anipulation  |                                                 |
\*---------------------------------------------------------------------------*/
FoamFile
{
    version     2.0;
    format      ascii;
    arch        "LSB;label=32;scalar=64";
    class       volScalarField;
    location    "100";
    object      p;
}
// * * * * * * * * * * * * * * * * * * * * * * * * * * * * * * * * * * * * * //

dimensions      [0 2 -2 0 0 0 0];

internalField   nonuniform List<scalar> 
7480
(
0.054731928
0.042473869
0.028348159
0.016537422
0.0059283379
0.00048126573
-0.00077370026
0.00024264728
0.0017957997
0.0028264348
0.0033022053
0.003505481
0.0035969364
0.0036262371
0.0036286169
0.0036335743
0.0036417059
0.0036358225
0.003619776
0.0036023293
0.0035822449
0.003555362
0.0035245419
0.0034931524
0.0034599276
0.0034224693
0.0033821978
0.0033406747
0.0032970251
0.0032504563
0.0032020891
0.0031526977
0.0031016683
0.0030488078
0.0029949684
0.0029407491
0.0028861906
0.0028319523
0.0027792659
0.002729149
0.0026824461
0.0026407142
0.002606456
0.002582079
0.0025718947
0.002579625
0.0026097762
0.0026622442
0.0027357881
0.0028308291
0.0029455901
0.003077192
0.0032211524
0.0033711961
0.0035250844
0.0036764608
0.0038072891
0.0039047314
0.0039606677
0.0039782243
0.0039599392
0.0039118667
0.0038429834
0.0037604095
0.0036691456
0.0035733656
0.0034765577
0.0033798613
0.0032841194
0.0031899401
0.0030975182
0.0030063879
0.002916536
0.0028278634
0.0027395713
0.0026522498
0.0025650646
0.0024760171
0.0023853686
0.0022931426
0.0022003158
0.002106532
0.0020105496
0.0019134775
0.0018144083
0.0017139283
0.0016119412
0.0015083244
0.0014038482
0.0012979528
0.0011919412
0.0010855877
0.00098051211
0.00087618111
0.00077937522
0.00067629088
0.00062493525
0.00034404272
0.00090368474
-0.00091661007
0.049755123
0.039238018
0.027282756
0.01638883
0.0065293274
0.0012824147
-6.7037888e-05
0.00071202657
0.0020225835
0.0029502588
0.0033798833
0.0035646634
0.0036477581
0.0036702447
0.0036685984
0.0036718474
0.0036739806
0.0036629272
0.0036438544
0.0036240216
0.0036017558
0.003572895
0.0035404479
0.0035076575
0.0034731472
0.0034345235
0.0033932466
0.0033508271
0.0033063443
0.0032590143
0.0032099679
0.0031599531
0.0031083382
0.0030549354
0.0030005978
0.0029459119
0.0028909112
0.0028362554
0.0027831721
0.0027326717
0.0026855949
0.0026434987
0.0026088832
0.00258415
0.0025736711
0.0025812976
0.0026109251
0.0026629358
0.002736155
0.0028308844
0.0029453644
0.0030767263
0.0032204896
0.0033703887
0.003524191
0.0036755344
0.0038063858
0.0039039319
0.0039600255
0.0039777471
0.0039596641
0.0039117684
0.0038430263
0.0037605653
0.003669384
0.0035736603
0.0034768877
0.0033802102
0.0032844755
0.0031902955
0.0030978676
0.0030067282
0.0029168653
0.0028281803
0.0027398756
0.002652542
0.0025653498
0.0024763017
0.0023856511
0.0022934193
0.0022005861
0.0021067961
0.0020108083
0.0019137312
0.0018146574
0.0017141727
0.0016121809
0.0015085594
0.0014040784
0.001298178
0.0011921615
0.001085803
0.00098072257
0.00087638678
0.00077957758
0.00067648641
0.00062520537
0.00034512919
0.00090605648
-0.00091564019
0.045695558
0.03755724
0.026919956
0.01666338
0.0079042316
0.0028110842
0.0011055821
0.0013735972
0.0023588291
0.0031344585
0.0035007165
0.0036654811
0.0037358975
0.0037433364
0.0037325666
0.0037287585
0.0037224254
0.0037040915
0.0036802254
0.0036566806
0.0036307962
0.0035985489
0.0035635529
0.0035286251
0.0034920613
0.0034515871
0.0034088253
0.0033651316
0.0033194436
0.0032710185
0.0032210419
0.0031701932
0.0031177869
0.0030636589
0.003008675
0.0029533923
0.0028978276
0.0028426519
0.0027890888
0.002738132
0.0026906133
0.0026480949
0.0026130738
0.0025879419
0.0025771181
0.0025847204
0.0026138604
0.0026651989
0.0027380423
0.0028323847
0.0029464938
0.0030775064
0.0032209427
0.0033705541
0.0035241401
0.003675315
0.0038060234
0.0039035327
0.0039597255
0.0039775472
0.0039596783
0.0039119769
0.0038433984
0.0037610764
0.0036699994
0.0035743468
0.0034776175
0.0033809589
0.0032852259
0.0031910355
0.0030985889
0.0030074255
0.0029175361
0.0028288226
0.0027404886
0.0026531264
0.0025659048
0.0024768339
0.0023861682
0.00229392
0.00220107
0.002107264
0.0020112616
0.001914172
0.0018150863
0.0017145907
0.0016125884
0.0015089566
0.0014044656
0.0012985553
0.0011925291
0.001086161
0.00098107164
0.0008767265
0.00077991171
0.0006768054
0.00062564227
0.00034689352
0.00091027074
-0.00091406136
0.042974954
0.036256321
0.026565471
0.016963071
0.0091910115
0.0042740251
0.0021869573
0.0020670248
0.0027505512
0.0033717048
0.0036824039
0.0038229048
0.0038702902
0.0038480641
0.0038167237
0.0038011286
0.0037842857
0.0037555147
0.0037250623
0.0036971862
0.003666814
0.0036300123
0.0035918109
0.0035543052
0.003515112
0.0034721945
0.0034276201
0.0033824564
0.0033353398
0.0032856284
0.0032346513
0.0031829478
0.003129716
0.0030748486
0.0030192502
0.0029634193
0.0029073436
0.002851733
0.0027978117
0.002746537
0.0026987233
0.0026559491
0.0026207068
0.0025953777
0.0025842939
0.0025923006
0.0026213596
0.002671945
0.0027444945
0.0028384812
0.002952168
0.0030827099
0.0032256208
0.0033746782
0.0035277458
0.0036783901
0.0038085573
0.0039055479
0.0039615498
0.0039791578
0.0039612273
0.0039135369
0.0038449941
0.0037627246
0.0036716895
0.0035760597
0.0034793324
0.0033826517
0.0032868792
0.0031926367
0.0031001288
0.0030088984
0.0029189405
0.002830157
0.0027417521
0.002654321
0.0025670034
0.0024778341
0.0023871083
0.0022948137
0.0022019211
0.0021080749
0.0020120357
0.0019149144
0.0018157993
0.0017152775
0.0016132504
0.0015095956
0.001405083
0.0012991519
0.0011931064
0.0010867192
0.00098161252
0.00087724952
0.00078042299
0.00067729116
0.00062629782
0.0003496507
0.00091710949
-0.00091157886
0.040506171
0.034663039
0.025940595
0.017315572
0.010259379
0.0054805092
0.0032254593
0.0028353396
0.0032266727
0.0036703868
0.0039039669
0.0039939687
0.0040094513
0.003969315
0.0039269975
0.003901771
0.0038721221
0.0038277456
0.0037863694
0.0037516207
0.0037147507
0.0036715838
0.0036291418
0.0035885235
0.0035460819
0.0034999604
0.0034530389
0.0034059808
0.0033569514
0.0033055062
0.0032532462
0.0032004857
0.0031462322
0.0030904836
0.0030342175
0.0029778295
0.0029212457
0.002865253
0.002811095
0.0027596604
0.002711727
0.0026689
0.0026336621
0.0026083629
0.0025973252
0.0026059273
0.0026350399
0.0026850834
0.0027573373
0.0028508949
0.0029640197
0.0030938753
0.0032359563
0.0033840882
0.0035362748
0.0036860783
0.0038152597
0.0039111236
0.0039665686
0.0039835412
0.0039651136
0.0039171754
0.003848471
0.0037661062
0.0036749977
0.0035792958
0.0034824903
0.0033857141
0.003289834
0.0031954745
0.0031028415
0.0030114808
0.0029213955
0.0028324844
0.0027439515
0.0026563956
0.0025689195
0.0024795899
0.002388752
0.0022963636
0.0022033853
0.0021094587
0.0020133455
0.0019161596
0.0018169847
0.0017164097
0.0016143332
0.0015106328
0.0014060781
0.001300107
0.0011940251
0.0010876027
0.00098246403
0.00087806914
0.00078121878
0.0006780484
0.00062728715
0.0003536968
0.00092716261
-0.00090770486
0.038192835
0.033070684
0.025352269
0.017627859
0.011144404
0.0065772041
0.0042242318
0.0035826502
0.0037243643
0.0039927369
0.0041382164
0.0041761559
0.0041608233
0.0041064356
0.0040507913
0.004007079
0.0039620493
0.0039079429
0.0038597768
0.0038190671
0.003774589
0.0037235084
0.0036751554
0.0036303291
0.003583808
0.0035337819
0.0034841436
0.00343498
0.0033837672
0.0033303077
0.0032766004
0.0032226578
0.0031672451
0.003110554
0.0030537065
0.0029969442
0.0029399697
0.0028836393
0.0028293208
0.0027778405
0.0027299281
0.002687227
0.0026522087
0.0026271615
0.0026164639
0.0026254665
0.0026544401
0.0027041309
0.0027758522
0.0028687086
0.0029810088
0.0031098976
0.0032508152
0.0033976492
0.0035485976
0.0036971759
0.0038248873
0.003919172
0.0039738525
0.0039899178
0.0039707072
0.0039224273
0.0038534789
0.0037709492
0.003679705
0.0035838725
0.0034869343
0.0033900097
0.0032939726
0.0031994488
0.0031066409
0.0030151003
0.0029248434
0.0028357622
0.0027470577
0.0026593324
0.0025716726
0.00248217
0.0023911865
0.002298657
0.0022055471
0.0021114965
0.0020152678
0.0019179794
0.0018187091
0.0017180489
0.0016158932
0.0015121198
0.0014074976
0.0013014632
0.001195324
0.0010888471
0.00098365849
0.00087921516
0.00078232454
0.00067910368
0.00062864428
0.00035914969
0.00094054005
-0.00090211511
0.036091711
0.031592069
0.024799862
0.017857553
0.011902032
0.007574992
0.0051602397
0.0042909645
0.0042084885
0.0043233399
0.0043837108
0.0043716524
0.004324384
0.0042520272
0.0041789738
0.0041165181
0.0040576584
0.0039955186
0.0039392698
0.0038888428
0.0038359368
0.0037796058
0.0037271539
0.0036784027
0.0036272668
0.0035728234
0.0035198906
0.0034680145
0.003414097
0.0033582718
0.003302958
0.0032477406
0.0031910495
0.0031333429
0.0030759376
0.0030188482
0.0029615219
0.0029049512
0.0028506463
0.0027993377
0.0027516938
0.0027094259
0.002675019
0.0026507867
0.0026402623
0.0026487128
0.0026774664
0.0027270376
0.0027983262
0.0028904913
0.0030018419
0.0031294716
0.0032688679
0.0034141483
0.003562771
0.0037083846
0.0038339355
0.0039267371
0.003981023
0.0039963864
0.0039765459
0.0039281529
0.0038591311
0.0037765575
0.0036852592
0.0035893478
0.0034923047
0.0033952402
0.0032990447
0.0032043488
0.0031113526
0.0030196139
0.0029291655
0.0028398909
0.0027509874
0.0026630635
0.0025751962
0.002485501
0.0023943446
0.0023016389
0.0022083609
0.0021141489
0.0020177676
0.0019203421
0.0018209434
0.0017201672
0.0016179034
0.0015140302
0.0014093158
0.001303195
0.0011969777
0.0010904267
0.00098516992
0.00088066154
0.00078371275
0.00068043138
0.00063033797
0.00036593189
0.00095684466
-0.00089498166
0.034193097
0.030210348
0.024233306
0.018000891
0.012548281
0.0084661119
0.0060232014
0.0049683123
0.0046903745
0.0046639197
0.0046393513
0.0045760574
0.0044947226
0.004401061
0.0043102069
0.0042310366
0.0041587772
0.0040872068
0.0040212349
0.0039608531
0.0039007163
0.0038397133
0.0037824643
0.0037281257
0.0036721839
0.0036145699
0.0035590548
0.0035044802
0.0034475763
0.0033891027
0.0033319219
0.0032751805
0.0032167943
0.003157601
0.0030992723
0.0030415003
0.0029835379
0.0029266073
0.0028723049
0.0028212193
0.0027739408
0.0027322775
0.0026987483
0.0026756861
0.0026653893
0.0026730083
0.0027014142
0.0027509506
0.0028219283
0.0029134549
0.0030237572
0.0031498354
0.0032874826
0.0034312762
0.0035766398
0.0037177925
0.0038407814
0.0039324852
0.0039868395
0.0040018942
0.0039817943
0.0039336343
0.0038648109
0.003782402
0.003691212
0.0035953465
0.0034982854
0.0034011344
0.0033048167
0.0032099724
0.0031168029
0.0030248728
0.0029342307
0.0028447532
0.0027556353
0.0026674946
0.0025793981
0.0024894883
0.0023981383
0.0023052322
0.0022117595
0.0021173573
0.0020207933
0.001923202
0.0018236462
0.0017227273
0.0016203296
0.0015163327
0.0014115041
0.0013052758
0.0011989607
0.0010923171
0.0009869746
0.00088238534
0.00078536028
0.00068200994
0.00063232785
0.00037389311
0.00097547945
-0.00088650002
0.032472512
0.028919003
0.023658819
0.018079939
0.013098254
0.00925723
0.0068173017
0.0056170274
0.005168621
0.0050107451
0.0049026858
0.004787322
0.0046709876
0.004554348
0.0044449051
0.00434916
0.0042630138
0.0041809329
0.004105451
0.0040361093
0.0039688346
0.003902333
0.0038395069
0.0037795455
0.0037193496
0.0036586623
0.003600017
0.0035420896
0.0034823469
0.0034218687
0.0033630795
0.003304676
0.0032443732
0.0031835061
0.0031240641
0.0030654096
0.0030065886
0.0029489625
0.0028942011
0.0028428655
0.0027955053
0.0027540316
0.0027210025
0.002698647
0.0026888904
0.0026964481
0.0027244755
0.0027735909
0.0028439511
0.0029346559
0.0030438496
0.0031684384
0.0033044796
0.0034468633
0.0035894546
0.0037263981
0.0038464726
0.0039370318
0.0039913452
0.0040062931
0.0039862453
0.0039385665
0.0038701417
0.0037880833
0.0036971736
0.0036014916
0.0035045196
0.0034073627
0.0033109872
0.0032160434
0.0031227362
0.0030306418
0.0029398259
0.0028501563
0.0027608263
0.0026724669
0.0025841324
0.0024939967
0.002402444
0.0023093256
0.0022156439
0.0021210341
0.0020242677
0.0019264907
0.0018267572
0.0017256755
0.001623124
0.001518984
0.0014140229
0.0013076695
0.0012012399
0.0010944875
0.00098904383
0.00088435963
0.00078724109
0.00068381505
0.00063456341
0.0003828577
0.00099578597
-0.00087667918
0.030909306
0.027719318
0.023088002
0.018105037
0.013559716
0.0099548391
0.0075444623
0.0062336555
0.0056381341
0.0053600588
0.0051720454
0.0050050246
0.0048530926
0.0047120376
0.0045833448
0.0044706972
0.0043705069
0.0042773552
0.0041919297
0.0041137544
0.0040390885
0.0039665539
0.0038982303
0.0038330874
0.003768603
0.0037043508
0.0036422881
0.0035811488
0.0035188138
0.0034562938
0.0033954354
0.0033349587
0.0032729452
0.0032108444
0.0031504114
0.0030907637
0.0030309294
0.0029724037
0.0029169831
0.0028651623
0.0028173936
0.0027756753
0.0027426043
0.0027202466
0.002710531
0.0027179315
0.0027454798
0.0027939048
0.00286341
0.0029531463
0.0030612402
0.0031845491
0.0033191727
0.0034600834
0.0036007925
0.0037349924
0.0038525911
0.0039411084
0.0039943539
0.0040092971
0.0039895325
0.0039424531
0.0038746184
0.0037931439
0.0037027072
0.0036073349
0.0035105747
0.0034135312
0.0033171867
0.0032222127
0.0031288302
0.0030366275
0.0029456842
0.0028558563
0.0027663384
0.002677778
0.0025892143
0.0024988587
0.0024071093
0.0023137802
0.0022198892
0.002125068
0.002028092
0.0019301212
0.0018301994
0.0017289439
0.0016262263
0.0015219306
0.0014168245
0.0013103328
0.0012037762
0.0010969024
0.0009913448
0.00088655401
0.00078932626
0.00068581974
0.00063698879
0.00039265265
0.0010171175
-0.00086540168
0.029486025
0.026609074
0.022525875
0.018080903
0.013939651
0.010565748
0.0082063294
0.0068156786
0.0060959271
0.0057097091
0.0054461241
0.0052283134
0.0050404236
0.0048738727
0.0047253605
0.0045956239
0.0044811299
0.0043764888
0.0042809561
0.0041937715
0.0041115957
0.004032773
0.0039585904
0.0038882314
0.0038194064
0.0037513546
0.0036858934
0.0036217322
0.0035567374
0.003491857
0.0034287998
0.0033664241
0.0033028622
0.0032394838
0.0031777197
0.0031168674
0.0030561198
0.0029968544
0.0029408646
0.002888521
0.0028402377
0.0027980833
0.0027647088
0.0027419978
0.0027318169
0.002738592
0.0027653545
0.0028127731
0.0028810429
0.002969424
0.0030760833
0.0031978643
0.003330882
0.0034702041
0.0036093925
0.0037420313
0.0038580955
0.0039447225
0.0039970203
0.0040119645
0.0039917941
0.0039448694
0.0038778481
0.0037972006
0.0037073577
0.0036124272
0.0035160566
0.003419284
0.0033230581
0.0032281351
0.003134775
0.0030425425
0.0029515316
0.0028615963
0.0027719329
0.0026832062
0.0025944396
0.0025038895
0.0024119667
0.002318444
0.002224359
0.0021293379
0.0020321589
0.0019339987
0.0018338899
0.0017324598
0.0016295729
0.0015251164
0.001419859
0.0013132216
0.00120653
0.001099526
0.00099384496
0.00088893854
0.00079158753
0.00068799778
0.00063954813
0.00040311843
0.0010388613
-0.0008525044
0.028187447
0.025583401
0.02197613
0.018013839
0.014246588
0.011097371
0.0088053957
0.0073616656
0.0065394856
0.0060572884
0.0057230582
0.005455907
0.0052322164
0.0050395637
0.0048708138
0.0047238634
0.0045948247
0.0044783224
0.0043724792
0.0042761166
0.0041862192
0.0041009025
0.0040207771
0.0039451251
0.0038718455
0.0038000056
0.0037308872
0.0036634481
0.0035958265
0.0035285019
0.0034632357
0.0033990312
0.00333387
0.003269018
0.0032058617
0.0031439561
0.0030823882
0.0030223564
0.002965614
0.0029126501
0.0028639173
0.002821345
0.0027876105
0.0027644607
0.0027537081
0.0027596739
0.0027854049
0.0028315211
0.0028981745
0.0029847657
0.0030895248
0.0032092999
0.0033402597
0.0034776309
0.0036150711
0.0037460447
0.0038606205
0.0039463572
0.0039986269
0.004013791
0.0039935476
0.0039469553
0.003880718
0.0038003417
0.0037107676
0.003616479
0.0035207001
0.003424279
0.0033282625
0.0032335187
0.0031403079
0.0030481141
0.0029570971
0.0028671269
0.0027773701
0.002688523
0.0025995999
0.0025088997
0.0024168431
0.0023231603
0.0022289141
0.002133719
0.0020363573
0.0019380259
0.0018377433
0.0017361488
0.0016330989
0.001528485
0.001423077
0.0013162921
0.0012094626
0.0011023238
0.00099651311
0.0008914848
0.00079399829
0.00069032469
0.00064218803
0.00041410796
0.0010604199
-0.00083780771
0.02700022
0.024636493
0.02144208
0.017910618
0.014488442
0.011556294
0.0093441737
0.007870454
0.0069662679
0.0064003123
0.0060010118
0.0056866584
0.0054278302
0.0052088398
0.0050195314
0.0048552359
0.0047114468
0.0045827566
0.0044664045
0.0043607469
0.0042629622
0.0041709914
0.0040848528
0.0040038057
0.0039259234
0.0038501541
0.0037772754
0.0037064842
0.0036361418
0.0035664508
0.00349885
0.0034325459
0.0033657812
0.0032994662
0.0032349196
0.003171952
0.0031095271
0.003048638
0.00299112
0.0029376308
0.0028884906
0.002845453
0.0028112653
0.0027876534
0.0027763578
0.002781499
0.0028061196
0.0028507894
0.0029156348
0.0030001869
0.0031027372
0.0032201303
0.0033486032
0.0034835686
0.0036187971
0.003747665
0.0038604623
0.0039453507
0.0039974412
0.004013052
0.0039937707
0.0039483664
0.0038829918
0.0038029256
0.0037138934
0.0036203203
0.0035246545
0.0034282315
0.0033325822
0.003238182
0.003145156
0.0030530505
0.0029621302
0.0028722256
0.0027824243
0.0026935176
0.0026045107
0.0025137132
0.0024215729
0.0023277799
0.002233418
0.0021380857
0.0020405746
0.0019421034
0.0018416715
0.0017399333
0.0016367362
0.0015319764
0.0014264261
0.0013194987
0.0012125339
0.0011052604
0.00099931779
0.0008941645
0.00079653238
0.00069277675
0.00064485777
0.00042548043
0.0010811681
-0.00082112977
0.025912577
0.023762221
0.020926138
0.017777435
0.014672256
0.011948556
0.0098254656
0.0083414642
0.0073741615
0.0067366121
0.0062783278
0.0059194391
0.0056265141
0.0053812478
0.0051711886
0.004989473
0.0048308196
0.0046897159
0.0045627096
0.0044476744
0.004341864
0.004243075
0.004150816
0.0040642621
0.003981634
0.0039017851
0.003825089
0.0037508835
0.0036777172
0.003605583
0.0035355808
0.0034671261
0.0033987127
0.0033309497
0.003265001
0.0032007763
0.0031373999
0.0030757084
0.0030174156
0.0029633727
0.0029137974
0.0028702504
0.0028356208
0.0028115914
0.002799735
0.0028039962
0.0028274314
0.0028706144
0.0029336414
0.0030160962
0.0031163105
0.0032311329
0.0033568778
0.0034891338
0.003621787
0.003748156
0.0038587923
0.0039424997
0.0039940581
0.0040099625
0.0039917341
0.0039476617
0.0038834221
0.0038044784
0.003716594
0.0036237545
0.0035281684
0.0034319579
0.0033367714
0.0032422931
0.003149089
0.0030571812
0.0029664869
0.0028766697
0.0027868813
0.0026980223
0.0026090191
0.0025181686
0.0024260097
0.0023321723
0.0022377404
0.0021423161
0.0020447004
0.0019461294
0.0018455807
0.0017437293
0.0016404096
0.0015355241
0.0014298483
0.0013227907
0.0012156999
0.0011082972
0.001002225
0.00089694748
0.0007991624
0.00069532962
0.00064750884
0.00043709483
0.0011004022
-0.00080230855
0.024914125
0.022954447
0.020429785
0.017619877
0.014804618
0.012279992
0.010252413
0.0087746893
0.0077614502
0.0070641888
0.0065533334
0.0061529942
0.0058273721
0.0055562216
0.005325426
0.0051263275
0.0049528017
0.004799152
0.0046613787
0.0045368867
0.0044229163
0.0043171432
0.004218649
0.0041264865
0.0040389846
0.0039549248
0.0038743468
0.0037966562
0.003720566
0.0036458962
0.0035734619
0.0035028272
0.0034326897
0.0033634198
0.0032960235
0.0032304947
0.0031661341
0.0031036441
0.0030445858
0.0029898512
0.0029397588
0.0028957304
0.0028606471
0.0028362148
0.0028237515
0.002827067
0.0028493072
0.0028910185
0.0029522177
0.0030325186
0.0031303022
0.0032424775
0.003365432
0.0034948735
0.0036247804
0.0037484372
0.0038566507
0.003938872
0.003989545
0.0040054533
0.0039882345
0.0039452804
0.0038821901
0.0038044912
0.0037177453
0.0036257668
0.0035308878
0.0034354051
0.0033406681
0.003246041
0.0031528427
0.0030611971
0.0029703317
0.0028802991
0.0027906461
0.002701936
0.0026129463
0.0025221054
0.002430033
0.002336216
0.0022417528
0.0021463015
0.0020486341
0.0019500021
0.0018493757
0.0017474488
0.0016440372
0.0015390543
0.0014332784
0.0013261106
0.0012189101
0.0011113899
0.0010051962
0.00089979976
0.00080185803
0.00069795687
0.00065009455
0.00044880475
0.0011173021
-0.00078122194
0.023995664
0.022207235
0.019953748
0.017442941
0.014891727
0.012556173
0.010628289
0.0091705173
0.0081267205
0.0073811684
0.0068243674
0.0063860393
0.0060294848
0.0057331831
0.0054818923
0.0052655621
0.0050772377
0.0049109773
0.0047623465
0.0046283225
0.0045060727
0.0043931672
0.0042883331
0.0041904744
0.0040979879
0.0040095991
0.0039250711
0.0038438276
0.0037647186
0.0036874284
0.0036125232
0.0035396603
0.0034677165
0.0033968768
0.0033279977
0.0032611426
0.0031957557
0.0031324246
0.0030725721
0.0030171127
0.002966471
0.0029220042
0.0028863488
0.0028614011
0.0028483872
0.0028507624
0.0028717782
0.0029119748
0.0029712949
0.0030493868
0.0031447011
0.003254209
0.0033743426
0.0035008978
0.0036279455
0.0037488063
0.0038545188
0.0039351269
0.0039847564
0.0040005112
0.0039840483
0.003941981
0.0038798787
0.0038032908
0.0037176128
0.0036265565
0.0035324971
0.0034376845
0.0033434266
0.0032491527
0.0031564143
0.0030649943
0.0029738894
0.0028838241
0.0027942908
0.0027053412
0.0026161681
0.0025254674
0.0024335358
0.002339749
0.0022453312
0.0021499497
0.0020522761
0.0019536203
0.0018529673
0.0017510037
0.0016475355
0.0015424909
0.0014366466
0.0013293942
0.0012221071
0.0011144873
0.0010081859
0.00090268165
0.00080458436
0.00070062852
0.0006525695
0.00046045467
0.0011309354
-0.00075780289
0.023149029
0.021514985
0.019498167
0.017250995
0.014939339
0.012782366
0.010956404
0.0095296772
0.0084688958
0.0076858778
0.007089867
0.0066173296
0.0062319362
0.0059115238
0.0056401938
0.0054068916
0.0052039155
0.005025047
0.0048655064
0.0047218983
0.0045912794
0.0044711217
0.0043598572
0.0042562269
0.0041586586
0.0040658325
0.0039772835
0.0038924198
0.0038101999
0.003730204
0.00365278
0.0035776388
0.0035038136
0.0034313473
0.0033609514
0.0032927377
0.0032262735
0.0031620561
0.0031013812
0.0030451788
0.0029939575
0.0029490157
0.0029127973
0.0028872204
0.0028735997
0.0028750966
0.0028948269
0.0029334337
0.0029908371
0.0030666877
0.0031594754
0.0032662762
0.003383574
0.0035071885
0.0036313176
0.0037493586
0.0038525389
0.0039314624
0.0039799813
0.0039955037
0.0039796934
0.0039383885
0.0038771864
0.0038014983
0.0037167502
0.0036265188
0.0035332055
0.0034389843
0.0033452365
0.0032514077
0.0031590638
0.0030678761
0.0029769649
0.0028872332
0.0027977443
0.0027085251
0.0026193591
0.0025286662
0.0024364886
0.0023426795
0.0022484453
0.0021531362
0.0020554867
0.0019568841
0.0018562692
0.0017543038
0.0016508279
0.0015457641
0.0014398835
0.0013325753
0.001225229
0.001117532
0.0010111423
0.00090554709
0.00080730068
0.00070330968
0.00065488979
0.00047187825
0.0011403356
-0.00073204779
0.022366965
0.020872498
0.019062753
0.017047778
0.014952746
0.012963535
0.011240074
0.0098532043
0.008787249
0.0079768735
0.0073483815
0.0068456536
0.006433791
0.0060905798
0.0057998739
0.0055499789
0.0053325813
0.0051411852
0.0049707367
0.0048175275
0.0046784838
0.0045509821
0.0044332096
0.0043237407
0.0042210037
0.0041236397
0.0040309969
0.0039424457
0.0038570267
0.0037742408
0.003694247
0.0036167801
0.0035410048
0.0034668554
0.0033949059
0.0033252984
0.0032577081
0.0031925623
0.0031310367
0.0030740649
0.0030222256
0.0029767654
0.0029399592
0.0029137168
0.0028994407
0.0029000343
0.0029184345
0.0029553956
0.0030108501
0.0030844217
0.0031746434
0.003278697
0.003393107
0.0035137247
0.0036348769
0.0037500545
0.0038506863
0.0039278753
0.0039752779
0.0039905527
0.0039753556
0.003934744
0.0038744052
0.0037995759
0.0037157245
0.003626132
0.0035334468
0.0034397234
0.0033464091
0.0032529401
0.0031609239
0.0030699979
0.0029793473
0.0028898549
0.0028004604
0.0027113791
0.0026224642
0.0025316665
0.0024392873
0.0023456324
0.0022513297
0.0021557414
0.0020581884
0.0019597284
0.0018591565
0.0017572493
0.0016538434
0.0015488028
0.0014429185
0.0013355903
0.0012282133
0.0011204655
0.0010140101
0.00090834596
0.00080996124
0.00070596058
0.00065701501
0.00048289954
0.0011446717
-0.00070401512
0.021643015
0.020275006
0.018646907
0.016836436
0.014936758
0.01310435
0.01148259
0.010142385
0.0090813782
0.0082529415
0.0075985744
0.007069836
0.0066341012
0.0062696444
0.0059604298
0.0056944539
0.0054629575
0.0052591968
0.0050779033
0.0049151148
0.0047676229
0.004632712
0.0045083666
0.0043930002
0.0042850182
0.0041830252
0.0040862174
0.0039939138
0.0039052135
0.0038195571
0.0037369418
0.0036571033
0.0035793131
0.0035034236
0.0034298816
0.0033588451
0.0032900817
0.0032239637
0.003161556
0.0031037852
0.0030512891
0.0030052694
0.0029678451
0.00294091
0.0029259267
0.0029255723
0.00294261
0.0029778887
0.0030313567
0.0031026074
0.0031902175
0.0032914678
0.0034029302
0.0035204974
0.0036386243
0.0037509085
0.0038489947
0.0039243372
0.0039706336
0.0039856646
0.003970997
0.003931075
0.0038715768
0.003797693
0.0037147209
0.0036257272
0.0035335139
0.0034403132
0.0033473787
0.0032541197
0.0031623126
0.0030715809
0.0029811268
0.0028918128
0.0028025461
0.0027136381
0.0026248519
0.0025340916
0.0024419131
0.0023485088
0.0022540113
0.0021582798
0.0020608276
0.0019622217
0.0018615578
0.0017598178
0.0016564827
0.0015514977
0.0014456701
0.0013383723
0.0012309956
0.0011232326
0.0010167359
0.0009110293
0.00081251901
0.00070853867
0.00065891347
0.0004933381
0.0011434209
-0.00067381642
0.02097143
0.019718173
0.018249833
0.016619578
0.01489571
0.01320918
0.011687182
0.010398699
0.0093511778
0.0085130999
0.0078392376
0.0072887546
0.0068319262
0.0064479877
0.0061213253
0.0058399181
0.0055947428
0.005378863
0.0051868498
0.0050145455
0.0048586155
0.0047162578
0.004585291
0.0044639795
0.0043506884
0.004243987
0.0041429475
0.0040468313
0.0039547746
0.0038661715
0.0037808824
0.0036986265
0.0036187596
0.003541073
0.0034658985
0.0033933971
0.0033234137
0.0032562786
0.0031929548
0.0031343546
0.003081163
0.0030345418
0.0029964684
0.0029688079
0.0029530652
0.0029517188
0.0029673647
0.003000923
0.0030523612
0.0031212475
0.0032062004
0.0033045954
0.0034130577
0.0035275253
0.0036425789
0.0037519293
0.0038474558
0.0039208708
0.0039660468
0.0039808195
0.0039666338
0.00392741
0.0038687336
0.0037957842
0.0037136358
0.0036254439
0.0035335579
0.0034409461
0.0033483355
0.0032552393
0.0031635723
0.0030729265
0.0029825601
0.0028933405
0.0028041488
0.002715361
0.0026266578
0.0025359913
0.0024440053
0.0023507271
0.0022562865
0.0021607785
0.0020633722
0.001964593
0.0018640041
0.0017622344
0.0016586598
0.0015537867
0.0014480732
0.0013408196
0.0012334988
0.0011257728
0.0010192654
0.00091355034
0.00081492911
0.0007110015
0.000660567
0.00050301827
0.0011364477
-0.00064161839
0.02034709
0.019198076
0.017870612
0.016399338
0.014833461
0.013282084
0.011856994
0.010623776
0.0095968087
0.0087566002
0.0080693054
0.0075013571
0.0070263464
0.0066248672
0.0062819952
0.0059859437
0.0057276085
0.0054999371
0.005297395
0.0051156841
0.0049513628
0.0048015516
0.0046639352
0.0045366447
0.0044179945
0.0043065183
0.0042011875
0.0041012031
0.0040057216
0.0039141004
0.0038260845
0.0037413658
0.0036593631
0.003579823
0.0035029748
0.0034289717
0.0033577221
0.0032895245
0.0032252495
0.0031657882
0.003111862
0.0030645967
0.0030258407
0.0029974201
0.0029808665
0.0029784845
0.002992707
0.0030245047
0.0030738692
0.0031403486
0.0032225996
0.0033180888
0.0034234992
0.0035348177
0.0036467483
0.0037531304
0.003846025
0.0039175111
0.0039615409
0.0039760247
0.0039622748
0.0039237271
0.0038658769
0.003793859
0.0037125269
0.0036251376
0.0035336625
0.0034415902
0.0033492893
0.0032564168
0.0031648705
0.003074254
0.0029839353
0.0028947304
0.002805508
0.002716746
0.0026280589
0.0025374481
0.002445607
0.002352433
0.0022581243
0.0021627691
0.0020654199
0.0019667632
0.0018664122
0.0017644995
0.0016608065
0.0015560226
0.0014501721
0.0013428796
0.0012356909
0.0011279969
0.001021527
0.00091584912
0.00081714097
0.00071330229
0.00066196264
0.00051178529
0.0011239694
-0.00060767458
0.01976543
0.018711185
0.017508265
0.016177444
0.014753419
0.013326807
0.011995061
0.01081935
0.009818665
0.0089829208
0.0082878645
0.0077066726
0.0072164751
0.0067995378
0.0064418511
0.006132075
0.0058611992
0.0056221464
0.0054093337
0.0052183754
0.0050457494
0.0048885118
0.0047442414
0.0046109544
0.0044869101
0.0043706065
0.0042609324
0.0041570299
0.004058062
0.0039633562
0.0038725612
0.0037853345
0.00370114
0.0036196913
0.0035411274
0.0034655856
0.0033930247
0.003323719
0.0032584564
0.0031981008
0.0031434004
0.0030954473
0.0030559732
0.0030267561
0.0030093409
0.0030058782
0.0030186437
0.0030486406
0.0030958876
0.0031599181
0.0032394231
0.0033319564
0.0034342634
0.0035423833
0.0036511423
0.0037545224
0.0038447148
0.003914269
0.0039571241
0.0039712887
0.0039579192
0.0039200234
0.0038629986
0.0037919118
0.003711418
0.0036247354
0.0035338889
0.0034422511
0.0033502418
0.0032576173
0.0031661981
0.0030756571
0.002985401
0.0028961533
0.0028068467
0.0027180516
0.0026292884
0.0025386421
0.0024468672
0.0023537535
0.0022595541
0.0021643068
0.0020670387
0.0019685235
0.0018682916
0.0017664252
0.0016629341
0.0015581885
0.0014522062
0.0013449608
0.0012377044
0.0011298585
0.0010234991
0.00091784377
0.00081907373
0.0007153749
0.0006630789
0.00051952136
0.0011064134
-0.00057236992
0.01922238
0.018254337
0.017161799
0.015955277
0.014658569
0.013346782
0.012104289
0.010987223
0.01001734
0.0091917557
0.0084941592
0.0079038226
0.0074014693
0.0069712622
0.0066002896
0.0062778331
0.0059951359
0.0057451945
0.005522438
0.0053224452
0.0051416436
0.0049770422
0.0048261396
0.0046868575
0.0045574001
0.0044362307
0.0043221708
0.004214307
0.0041117984
0.0040139472
0.0039203226
0.0038305439
0.0037441049
0.0036606941
0.0035803722
0.0035032545
0.003429338
0.003358879
0.0032925909
0.0032313069
0.0031757919
0.0031271068
0.0030868769
0.0030568255
0.0030384979
0.0030339081
0.0030451811
0.0030733374
0.0031184237
0.0031799628
0.0032566778
0.0033462061
0.0034453589
0.0035502313
0.0036557717