/*--------------------------------*- C++ -*----------------------------------*\
| =========                 |                                                 |
| \\      /  F ield         | OpenFOAM: The Open Source CFD Toolbox           |
|  \\    /   O peration     | Version:  2206                                  |
|   \\  /    A nd           | Website:  www.openfoam.com                      |
|    \\/     M anipulation  |                                                 |
\*---------------------------------------------------------------------------*/
FoamFile
{
    version     2.0;
    format      ascii;
    arch        "LSB;label=32;scalar=64";
    class       surfaceScalarField;
    location    "100";
    object      phi;
}
// * * * * * * * * * * * * * * * * * * * * * * * * * * * * * * * * * * * * * //

dimensions      [0 3 -1 0 0 0 0];

oriented        oriented;

internalField   nonuniform List<scalar> 
14782
(
0.00061769176
8.7780484e-05
-0.00070547225
0.00051029854
0.00010739322
0.00040012919
0.00011016935
0.00030666923
9.3459955e-05
0.00023999809
6.6671146e-05
0.00019925957
4.0738515e-05
0.00017534264
2.3916931e-05
0.00016117116
1.4171478e-05
0.00015176197
9.4091957e-06
0.00014419374
7.5682255e-06
0.00013732287
6.8708745e-06
0.00013096016
6.3627054e-06
0.00012515039
5.8097702e-06
0.00011985681
5.2935787e-06
0.00011502149
4.8353219e-06
0.0001106186
4.4028938e-06
0.00010661182
4.006775e-06
0.00010291967
3.6921572e-06
9.9491591e-05
3.4280739e-06
9.6307782e-05
3.1838088e-06
9.3346026e-05
2.9617564e-06
9.0571443e-05
2.7745826e-06
8.7962703e-05
2.6087408e-06
8.5510418e-05
2.4522848e-06
8.3201785e-05
2.3086328e-06
8.1018215e-05
2.1835704e-06
7.8948721e-05
2.0694938e-06
7.698851e-05
1.9602108e-06
7.5130258e-05
1.8582521e-06
7.3364512e-05
1.7657462e-06
7.1686146e-05
1.6783661e-06
7.0092816e-05
1.5933302e-06
6.8580341e-05
1.512475e-06
6.7144031e-05
1.4363091e-06
6.5781689e-05
1.3623423e-06
6.4492402e-05
1.2892876e-06
6.3274441e-05
1.2179609e-06
6.2126801e-05
1.1476399e-06
6.1050403e-05
1.0763983e-06
6.0046976e-05
1.0034269e-06
5.9117734e-05
9.2924185e-07
5.8264388e-05
8.5334584e-07
5.7490074e-05
7.7431349e-07
5.6797285e-05
6.9278923e-07
5.6194298e-05
6.0298697e-07
5.5685682e-05
5.0861599e-07
5.5280101e-05
4.0558103e-07
5.4985026e-05
2.9507475e-07
5.4799642e-05
1.8538446e-07
5.4722217e-05
7.7425009e-08
5.4748299e-05
-2.6081643e-08
5.4871027e-05
-1.2272812e-07
5.5078167e-05
-2.0714033e-07
5.5349913e-05
-2.7174601e-07
5.5673022e-05
-3.2310846e-07
5.6034688e-05
-3.6166655e-07
5.6401657e-05
-3.6696924e-07
5.6736899e-05
-3.3524196e-07
5.7004445e-05
-2.6754547e-07
5.7189543e-05
-1.8509826e-07
5.7289273e-05
-9.9729829e-08
5.7306686e-05
-1.7413072e-08
5.7251779e-05
5.4906562e-08
5.7137975e-05
1.1380456e-07
5.6978514e-05
1.5946096e-07
5.6785334e-05
1.931802e-07
5.6569358e-05
2.159754e-07
5.6338373e-05
2.3098487e-07
5.6098108e-05
2.4026587e-07
5.5852972e-05
2.4513582e-07
5.5606234e-05
2.4673806e-07
5.5359619e-05
2.4661426e-07
5.5114625e-05
2.4499465e-07
5.4872444e-05
2.4218078e-07
5.4632933e-05
2.3951104e-07
5.4396658e-05
2.3627478e-07
5.4160578e-05
2.360799e-07
5.3920304e-05
2.4027429e-07
5.3676752e-05
2.4355215e-07
5.3431144e-05
2.4560767e-07
5.3184504e-05
2.4663994e-07
5.2936831e-05
2.4767352e-07
5.2686811e-05
2.5001959e-07
5.2434599e-05
2.522126e-07
5.2179557e-05
2.5504154e-07
5.1921839e-05
2.5771766e-07
5.1661484e-05
2.6035535e-07
5.1398375e-05
2.631095e-07
5.1132929e-05
2.654458e-07
5.0864812e-05
2.6811699e-07
5.0594485e-05
2.7032663e-07
5.0321733e-05
2.7275217e-07
5.0046438e-05
2.7529527e-07
4.9768128e-05
2.7830972e-07
4.9485632e-05
2.8249563e-07
4.9198061e-05
2.8757106e-07
4.8925874e-05
2.7218701e-07
4.8490538e-05
4.3533623e-07
4.8483977e-05
6.5614377e-09
8.971232e-07
0.0007917544
9.1060929e-05
-0.00079503485
0.00077878087
0.00012036675
0.00075194212
0.0001370081
0.00070879318
0.0001366089
0.00065525793
0.0001202064
0.00060117215
9.4824302e-05
0.00055308174
7.2007334e-05
0.00051315039
5.4102827e-05
0.00048028787
4.2271719e-05
0.00045278952
3.5066572e-05
0.00042915911
3.0501293e-05
0.0004084951
2.7026706e-05
0.00039018451
2.4120364e-05
0.00037374265
2.1735441e-05
0.0003588259
1.9752071e-05
0.00034523012
1.7998677e-05
0.00033278275
1.6454139e-05
0.00032130707
1.5167844e-05
0.00031066835
1.4066794e-05
0.00030077637
1.3075783e-05
0.00029155311
1.2185015e-05
0.00028291685
1.1410844e-05
0.00027480519
1.0720399e-05
0.00026717222
1.008526e-05
0.00025997448
9.5063748e-06
0.00025316836
8.9896887e-06
0.00024672109
8.5167643e-06
0.00024060992
8.071375e-06
0.0002348124
7.6557741e-06
0.00022930528
7.2728687e-06
0.00022407176
6.9118838e-06
0.00021910045
6.5646369e-06
0.00021437959
6.2333363e-06
0.00020989773
5.9181685e-06
0.00020564753
5.6125498e-06
0.00020162476
5.3120505e-06
0.00019782569
5.0170391e-06
0.00019424865
4.724672e-06
0.00019089594
4.4291165e-06
0.00018777243
4.1269303e-06
0.00018488362
3.8180504e-06
0.00018223683
3.5001363e-06
0.00017984239
3.1687584e-06
0.00017771063
2.8245483e-06
0.00017586359
2.4500281e-06
0.0001743181
2.054102e-06
0.00017309253
1.6311553e-06
0.00017220287
1.1847351e-06
0.00017164833
7.3992592e-07
0.00017142061
3.0513913e-07
0.00017150322
-1.0868575e-07
0.00017187183
-4.9134664e-07
0.00017248756
-8.2286647e-07
0.00017329528
-1.0794651e-06
0.00017424693
-1.2747644e-06
0.00017528759
-1.4023198e-06
0.00017632338
-1.4027596e-06
0.00017725273
-1.2645946e-06
0.00017798389
-9.9870898e-07
0.00017847477
-6.7597649e-07
0.00017871818
-3.4314006e-07
0.00017872596
-2.5189971e-08
0.00017852553
2.5533953e-07
0.00017815395
4.8538545e-07
0.00017764969
6.6372169e-07
0.00017704743
7.9543241e-07
0.00017637738
8.8602598e-07
0.00017566242
9.4595058e-07
0.00017491976
9.8292861e-07
0.0001741624
1.0024912e-06
0.00017339979
1.0093454e-06
0.00017263757
1.0088337e-06
0.00017188017
1.0024025e-06
0.00017113087
9.9147765e-07
0.0001703902
9.8017473e-07
0.00016965886
9.6761553e-07
0.00016892674
9.6819994e-07
0.00016818197
9.8505131e-07
0.00016742769
9.9782459e-07
0.00016666813
1.0051684e-06
0.00016590532
1.0094491e-06
0.00016513872
1.0142821e-06
0.00016436554
1.0231979e-06
0.00016358532
1.0324301e-06
0.00016279674
1.0436209e-06
0.00016200001
1.0544501e-06
0.00016119514
1.0652195e-06
0.00016038223
1.0760256e-06
0.00015956199
1.0856851e-06
0.00015873411
1.0960003e-06
0.00015789952
1.1049155e-06
0.00015705806
1.1142097e-06
0.00015620911
1.1242407e-06
0.00015535279
1.1346377e-06
0.00015448189
1.1533966e-06
0.00015360856
1.1608937e-06
0.0001527169
1.1638515e-06
0.00015161025
1.5419872e-06
0.0001509588
6.5800415e-07
2.6931224e-06
0.00083157257
8.6589234e-05
-0.00082710088
0.00083708815
0.00011485118
0.00084161579
0.00013248046
0.00084051942
0.00013770526
0.00083140337
0.00012932244
0.00081412009
0.00011210759
0.0007912778
9.4849618e-05
0.00076528877
8.0091857e-05
0.00073805117
6.950932e-05
0.00071107591
6.2041836e-05
0.00068520315
5.6374045e-05
0.00066073021
5.1499655e-05
0.0006376653
4.7185274e-05
0.000615906
4.3494737e-05
0.00059538735
4.0270724e-05
0.0005760796
3.7306426e-05
0.00055792373
3.4610003e-05
0.00054082575
3.2265829e-05
0.00052470169
3.0190851e-05
0.00050948644
2.8291036e-05
0.00049511458
2.6556876e-05
0.00048151235
2.5013073e-05
0.00046861945
2.3613294e-05
0.00045638842
2.2316289e-05
0.00044477311
2.1121691e-05
0.0004337251
2.0037693e-05
0.00042320547
1.9036394e-05
0.00041318431
1.8092539e-05
0.00040363287
1.7207213e-05
0.00039452301
1.6382724e-05
0.00038583332
1.5601574e-05
0.00037754801
1.4849949e-05
0.00036965208
1.4129268e-05
0.00036213201
1.3438239e-05
0.00035497905
1.2765509e-05
0.00034818858
1.2102521e-05
0.00034175782
1.14478e-05
0.00033568711
1.0795381e-05
0.00032998148
1.0134741e-05
0.00032464973
9.4586832e-06
0.00031970263
8.7651475e-06
0.00031515416
8.0486057e-06
0.00031102203
7.3008885e-06
0.00030732624
6.5203437e-06
0.00030409755
5.6787191e-06
0.0003013632
4.7884445e-06
0.00029914333
3.8510291e-06
0.00029745058
2.877483e-06
0.00029628042
1.9100831e-06
0.00029561516
9.7040019e-07
0.00029542354
8.2940249e-08
0.00029566234
-7.3014505e-07
0.00029626985
-1.4303792e-06
0.0002971652
-1.9748128e-06
0.00029827021
-2.3797788e-06
0.00029948973
-2.621838e-06
0.00030068559
-2.5986244e-06
0.00030171751
-2.2965148e-06
0.00030246906
-1.750255e-06
0.00030288549
-1.0924072e-06
0.00030295884
-4.1648673e-07
0.00030270709
2.2656254e-07
0.00030216913
7.9329538e-07
0.00030139693
1.2575806e-06
0.00030044327
1.6173847e-06
0.00029935576
1.8829414e-06
0.00029817576
2.0660306e-06
0.0002969356
2.1861141e-06
0.00029565996
2.2585616e-06
0.00029436756
2.2948949e-06
0.00029307187
2.3050355e-06
0.0002917814
2.299306e-06
0.00029050278
2.2810205e-06
0.00028924074
2.2535146e-06
0.00028799645
2.2244628e-06
0.00028677001
2.1940547e-06
0.00028554529
2.1929196e-06
0.000284307
2.2233445e-06
0.00028306131
2.2435205e-06
0.00028181298
2.2534991e-06
0.00028056294
2.2594808e-06
0.00027930947
2.2677536e-06
0.00027804873
2.283935e-06
0.00027677918
2.3019806e-06
0.00027549886
2.3239453e-06
0.00027420756
2.3457542e-06
0.0002729051
2.367671e-06
0.00027159154
2.3895861e-06
0.00027026751
2.4097194e-06
0.00026893276
2.4307519e-06
0.00026758825
2.4494252e-06
0.00026623399
2.4684654e-06
0.0002648687
2.4895298e-06
0.00026349323
2.510111e-06
0.00026209511
2.5515208e-06
0.00026069796
2.5580399e-06
0.00025923955
2.6222576e-06
0.00025761503
3.1665142e-06
0.00025617569
2.0973447e-06
4.9290401e-06
0.00086136825
8.2258745e-05
-0.00085703776
0.00086790357
0.00010831586
0.00087519363
0.00012519041
0.00088221866
0.00013068023
0.00088612563
0.00012541547
0.0008851103
0.00011312292
0.00088102383
9.8936089e-05
0.0008743004
8.6815289e-05
0.00086521484
7.8594879e-05
0.00085401161
7.3245069e-05
0.00084102043
6.9365221e-05
0.00082644204
6.6078045e-05
0.00081064116
6.2986153e-05
0.00079420719
5.9928703e-05
0.00077747965
5.699827e-05
0.00076068404
5.4102032e-05
0.00074395917
5.1334874e-05
0.00072739283
4.8832172e-05
0.00071106994
4.6513733e-05
0.00069506941
4.4291568e-05
0.00067944642
4.2179871e-05
0.00066422799
4.0231504e-05
0.00064943574
3.8405546e-05
0.00063508794
3.6664084e-05
0.00062119347
3.5016164e-05
0.00060774901
3.3482149e-05
0.00059475146
3.2033948e-05
0.00058219865
3.0645352e-05
0.00057008418
2.932168e-05
0.00055839852
2.8068384e-05
0.00054713529
2.686481e-05
0.00053629064
2.5694595e-05
0.00052585985
2.4560055e-05
0.0005158388
2.3459295e-05
0.00050622745
2.2376852e-05
0.00049702972
2.1300254e-05
0.0004882505
2.0227018e-05
0.0004798962
1.9149682e-05
0.00047197692
1.8054027e-05
0.00046450633
1.6929267e-05
0.00045750054
1.5770939e-05
0.00045097915
1.4570003e-05
0.00044496534
1.3314698e-05
0.00043948619
1.1999494e-05
0.00043457472
1.0590189e-05
0.0004302576
9.1055653e-06
0.00042654557
7.5630564e-06
0.00042343744
5.9856122e-06
0.00042092174
4.4257854e-06
0.00041897565
2.9164898e-06
0.00041756463
1.4939517e-06
0.00041663905
1.9543583e-07
0.0004161282
-9.1952647e-07
0.00041594867
-1.7952805e-06
0.00041601425
-2.4453636e-06
0.00041620713
-2.8147099e-06
0.00041637535
-2.7668451e-06
0.00041638657
-2.3077428e-06
0.00041614564
-1.5093181e-06
0.00041561155
-5.5831691e-07
0.0004147809
4.1416336e-07
0.0004136732
1.3342576e-06
0.00041232517
2.1413252e-06
0.00041078162
2.8011296e-06
0.00040908785
3.3111624e-06
0.00040728563
3.6851609e-06
0.0004054123
3.9393569e-06
0.00040349807
4.1003425e-06
0.00040156665
4.1899831e-06
0.00039963634
4.2252077e-06
0.00039772026
4.2211176e-06
0.00039582698
4.1925823e-06
0.00039396353
4.1444749e-06
0.00039213461
4.082428e-06
0.00039034118
4.017898e-06
0.00038858192
3.9533101e-06
0.00038685161
3.923232e-06
0.0003851428
3.9321532e-06
0.00038345056
3.9357589e-06
0.00038177066
3.9333969e-06
0.00038010016
3.929986e-06
0.00037843556
3.9323508e-06
0.00037677195
3.9475452e-06
0.00037510646
3.9674689e-06
0.00037343617
3.9942381e-06
0.0003717599
4.0220244e-06
0.00037007676
4.0508137e-06
0.00036838618
4.0801606e-06
0.00036668816
4.1077379e-06
0.00036498207
4.1368453e-06
0.00036326836
4.1631336e-06
0.00036154681
4.1900187e-06
0.00035981534
4.2210007e-06
0.00035807512
4.2503264e-06
0.00035631012
4.3165192e-06
0.00035454997
4.3181901e-06
0.00035270751
4.4647248e-06
0.00035074717
5.1268468e-06
0.0003487306
4.1139149e-06
7.335542e-06
0.00089165923
7.8533777e-05
-0.00088793426
0.00089769171
0.00010228337
0.00090489823
0.00011798389
0.00091180281
0.00012377565
0.00091696864
0.00012024964
0.00091989649
0.00011019507
0.00092053646
9.8296116e-05
0.0009193929
8.7958849e-05
0.00091750535
8.0482429e-05
0.0009149535
7.5796927e-05
0.00091166343
7.2655292e-05
0.00090741517
7.03263e-05
0.00090196358
6.8437744e-05
0.0008952477
6.6644583e-05
0.00088734056
6.4905408e-05
0.00087826391
6.3178686e-05
0.00086816835
6.1430433e-05
0.00085734208
5.9658448e-05
0.00084594788
5.7907926e-05
0.0008341068
5.6132655e-05
0.00082191726
5.4369407e-05
0.00080945767
5.2691092e-05
0.00079680581
5.1057406e-05
0.00078404047
4.9429427e-05
0.00077123078
4.7825848e-05
0.00075843281
4.6280126e-05
0.00074569933
4.4767425e-05
0.00073307774
4.3266942e-05
0.00072060585
4.1793573e-05
0.00070831394
4.0360294e-05
0.00069623097
3.8947776e-05
0.0006843841
3.7541468e-05
0.0006727963
3.6147854e-05
0.00066148873
3.4766864e-05
0.00065048513
3.3380452e-05
0.00063981152
3.1973858e-05
0.00062948847
3.0550069e-05
0.00061953212
2.9106033e-05
0.00060996188
2.7624274e-05
0.0006008007
2.6090446e-05
0.00059207353
2.4498109e-05
0.00058380806
2.2835469e-05
0.00057603459
2.1088163e-05
0.00056879045
1.9243638e-05
0.00056210667
1.7273967e-05
0.00055599254
1.5219698e-05
0.00055044398
1.3111613e-05
0.00054545557
1.0974029e-05
0.00054102162
8.8597264e-06
0.00053712887
6.809246e-06
0.00053375379
4.8690289e-06
0.00053085564
3.0935823e-06
0.00052837129
1.5648242e-06
0.00052623667
3.3934276e-07
0.00052436035
-5.6903929e-07
0.00052259585
-1.0502094e-06
0.00052080857
-9.7956544e-07
0.00051892439
-4.2356348e-07
0.00051690483
5.102395e-07
0.00051473864
1.6078688e-06
0.00051243063
2.722181e-06
0.00050999355
3.7713321e-06
0.00050744699
4.6878827e-06
0.00050481469
5.4334365e-06
0.00050212156
6.0042929e-06
0.00049939196
6.4147588e-06
0.00049664923
6.6820862e-06
0.00049391318
6.8363955e-06
0.00049120009
6.9030651e-06
0.00048852299
6.9023104e-06
0.000485891
6.8531052e-06
0.00048331046
6.7731225e-06
0.00048078704
6.6678998e-06
0.00047832383
6.5456341e-06
0.00047592042
6.4213157e-06
0.00047357391
6.2998185e-06
0.00047128496
6.2121809e-06
0.00046905201
6.165102e-06
0.00046686513
6.1226403e-06
0.00046471394
6.084587e-06
0.00046259173
6.0521982e-06
0.00046049299
6.0310878e-06
0.00045841156
6.0289744e-06
0.00045634319
6.035841e-06
0.00045428376
6.0536705e-06
0.0004522308
6.0749811e-06
0.00045018229
6.0993274e-06
0.00044813662
6.1258242e-06
0.00044609276
6.1515992e-06
0.00044404929
6.180318e-06
0.00044200576
6.206657e-06
0.00043996126
6.2345274e-06
0.00043791273
6.2695309e-06
0.00043586118
6.3018685e-06
0.00043378815
6.3895532e-06
0.00043172543
6.3809052e-06
0.00042957461
6.6155471e-06
0.00042734644
7.3550144e-06
0.00042487488
6.5854755e-06
9.850328e-06
0.00092305244
7.520298e-05
-0.00091972164
0.00092857146
9.6764354e-05
0.00093514427
0.00011141108
0.00094156286
0.00011735706
0.00094671228
0.00011510022
0.00094995561
0.00010695174
0.00095154301
9.670872e-05
0.00095191743
8.7584428e-05
0.00095157816
8.0821693e-05
0.00095106587
7.6309216e-05
0.00095041754
7.3303624e-05
0.00094956735
7.117649e-05
0.00094841608
6.9589013e-05
0.00094683696
6.8223706e-05
0.000944753
6.6989371e-05
0.00094202851
6.5903173e-05
0.00093852282
6.4936126e-05
0.00093419431
6.3986958e-05
0.00092904867
6.3053561e-05
0.00092306524
6.2116083e-05
0.00091629761
6.1137035e-05
0.0009088733
6.0115404e-05
0.00090086824
5.9062469e-05
0.0008923412
5.7956467e-05
0.00088334453
5.6822517e-05
0.00087393081
5.5693844e-05
0.00086415659
5.4541642e-05
0.00085407605
5.3347484e-05
0.00084374179
5.2127838e-05
0.00083320535
5.0896728e-05
0.00082251929
4.9633838e-05
0.00081173466
4.8326099e-05
0.00080089774
4.6984768e-05
0.00079005146
4.5613144e-05
0.00077923869
4.4193227e-05
0.00076850233
4.2710217e-05
0.00075788431
4.1168093e-05
0.00074742628
3.9564064e-05
0.0007371699
3.788065e-05
0.0007271566
3.6103743e-05
0.00071742734
3.4227376e-05
0.00070802452
3.2238288e-05
0.00069899281
3.0119868e-05
0.00069039035
2.7846097e-05
0.00068222459
2.543973e-05
0.0006744722
2.2972087e-05
0.00066715552
2.0428298e-05
0.00066030665
1.78229e-05
0.00065394406
1.5222317e-05
0.00064806749
1.2685808e-05
0.00064265916
1.0277363e-05
0.00063768019
8.0725506e-06
0.00063308006
6.1649589e-06
0.00062883072
4.5886771e-06
0.00062480279
3.4588908e-06
0.00062080591
2.9466668e-06
0.00061678821
3.038136e-06
0.00061277549
3.5891577e-06
0.00060878238
4.503352e-06
0.00060481308
5.5771695e-06
0.00060087115
6.6641094e-06
0.00059695852
7.6839635e-06
0.00059307668
8.5697264e-06
0.00058922972
9.2803936e-06
0.00058542374
9.8102692e-06
0.00058166595
1.017255e-05
0.0005779648
1.0383243e-05
0.00057432816
1.0473028e-05
0.00057076325
1.0467979e-05
0.00056727614
1.0389418e-05
0.00056387175
1.0257493e-05
0.00056055307
1.0091802e-05
0.00055732199
9.8989859e-06
0.00055417892
9.6887005e-06
0.00055112157
9.4786687e-06
0.00054814583
9.2755586e-06
0.00054524952
9.108492e-06
0.00054243094
8.9836773e-06
0.00053968353
8.8700506e-06
0.00053699724
8.7708761e-06
0.00053436374
8.6857011e-06
0.00053177598
8.618844e-06
0.00052922667
8.5782901e-06
0.0005267103
8.5522089e-06
0.00052422157
8.5424006e-06
0.00052175667
8.5398829e-06
0.00051931225
8.5437437e-06
0.00051688547
8.5526028e-06
0.00051447429
8.5627773e-06
0.0005120763
8.5783131e-06
0.00050968964
8.5933174e-06
0.0005073123
8.611869e-06
0.00050494014
8.6416879e-06
0.00050257356
8.6684512e-06
0.00050019242
8.7706906e-06
0.00049782822
8.7451097e-06
0.00049537766
9.0661038e-06
0.00049288431
9.8483612e-06
0.00049000293
9.4668537e-06
1.2501868e-05
0.00095543099
7.2203144e-05
-0.00095243115
0.00096051538
9.1679964e-05
0.00096658491
0.00010534156
0.00097255433
0.00011138764
0.00097743685
0.0001102177
0.00098068336
0.00010370523
0.00098243557
9.4956508e-05
0.00098319536
8.6824644e-05
0.00098340553
8.0611521e-05
0.00098339041
7.6324331e-05
0.00098330059
7.339345e-05
0.00098318493
7.1292147e-05
0.00098303974
6.9734198e-05
0.00098280081
6.8462639e-05
0.00098242242
6.7367767e-05
0.00098186715
6.645844e-05
0.00098108537
6.5717901e-05
0.00098001391
6.5058422e-05
0.000978602
6.4465475e-05
0.00097676298
6.3955096e-05
0.00097440412
6.3495899e-05
0.00097148398
6.3035539e-05
0.0009679812
6.2565256e-05
0.00096386382
6.207384e-05
0.00095914653
6.1539811e-05
0.00095388004
6.0960331e-05
0.00094809258
6.0329101e-05
0.00094180897
5.9631101e-05
0.00093505223
5.8884579e-05
0.00092784841
5.8100545e-05
0.00092023074
5.7251513e-05
0.00091223519
5.6321646e-05
0.00090389329
5.5326663e-05
0.00089523714
5.4269299e-05
0.00088630512
5.3125243e-05
0.00087713673
5.1878611e-05
0.00086777395
5.0530867e-05
0.00085826398
4.9074039e-05
0.00084865639
4.748824e-05
0.0008390018
4.5758334e-05
0.00082935168
4.387749e-05
0.0008197597
4.183027e-05
0.00081028306
3.9596505e-05
0.00080098235
3.7146807e-05
0.00079190688
3.4515207e-05
0.00078307974
3.1799227e-05
0.00077451788
2.8990157e-05
0.00076625314
2.6087636e-05
0.00075831647
2.3158984e-05
0.00075072733
2.0274948e-05
0.00074349
1.7514698e-05
0.00073658972
1.497283e-05
0.0007300119
1.2742778e-05
0.00072376334
1.0837235e-05
0.00071776257
9.4596608e-06
0.00071187061
8.8386335e-06
0.00070604852
8.8602268e-06
0.00070031643
9.3212406e-06
0.00069468558
1.0134201e-05
0.00068916117
1.1101586e-05
0.00068375184
1.2073435e-05
0.00067846075
1.2975054e-05
0.00067328553
1.3744952e-05
0.00066822606
1.4339857e-05
0.00066328298
1.4753354e-05
0.00065845581
1.4999719e-05
0.00065374492
1.5094127e-05
0.00064915115
1.5066805e-05
0.0006446755
1.4943624e-05
0.0006403187
1.4746223e-05
0.00063608204
1.4494154e-05
0.00063196569
1.4208152e-05
0.00062796841
1.3896265e-05
0.00062408815
1.3568954e-05
0.00062032072
1.32461e-05
0.00061666094
1.2935345e-05
0.00061310416
1.2665267e-05
0.00060964694
1.2440903e-05
0.00060628449
1.2232497e-05
0.00060300853
1.2046833e-05
0.00059981089
1.188334e-05
0.00059668392
1.1745822e-05
0.00059361951
1.1642697e-05
0.00059061117
1.1560543e-05
0.00058765252
1.1501057e-05
0.00058473845
1.1453952e-05
0.00058186428
1.141791e-05
0.00057902582
1.1391064e-05
0.00057621984
1.1368763e-05
0.00057344272
1.1355433e-05
0.00057069116
1.1344871e-05
0.0005679619
1.1341131e-05
0.00056524959
1.1354001e-05
0.00056255368
1.1364358e-05
0.00055985276
1.1471613e-05
0.00055717685
1.142102e-05
0.00055441996
1.1822995e-05
0.00055165168
1.2616641e-05
0.00054838034
1.2738193e-05
1.5319258e-05
0.00098883569
6.9473168e-05
-0.00098610571
0.00099351374
8.7001908e-05
0.00099914446
9.9710838e-05
0.0010047261
0.00010580603
0.001009383
0.00010556078
0.0010126068
0.00010048141
0.0010144554
9.3107896e-05
0.0010153542
8.5925849e-05
0.0010157399
8.0225794e-05
0.0010159119
7.6152382e-05
0.0010160099
7.3295449e-05
0.0010160794
7.1222613e-05
0.0010161479
6.9665772e-05
0.0010162008
6.8409709e-05
0.0010162102
6.7358311e-05
0.0010161733
6.6495385e-05
0.0010160857
6.5805476e-05
0.0010159211
6.5223053e-05
0.0010156581
6.4728452e-05
0.0010152725
6.4340657e-05
0.0010147291
6.4039327e-05
0.0010139868
6.3777813e-05
0.0010130055
6.3546558e-05
0.0010117239
6.3355453e-05
0.0010100792
6.3184556e-05
0.0010080339
6.3005619e-05
0.0010055563
6.2806701e-05
0.0010026155
6.2571895e-05
0.00099921114
6.2288941e-05
0.00099535707
6.1954619e-05
0.00099105558
6.1553002e-05
0.00098630825
6.1068972e-05
0.00098111981
6.0515106e-05
0.00097549919
5.9889923e-05
0.00096945845
5.9165982e-05
0.00096301172
5.8325333e-05
0.00095617451
5.7368078e-05
0.00094896341
5.6285142e-05
0.00094139717
5.5054484e-05
0.00093350124
5.3654266e-05
0.00092530694
5.2071784e-05
0.00091684995
5.0287258e-05
0.0009081728
4.8273659e-05
0.00089931409
4.6005519e-05
0.00089035365
4.3475647e-05
0.00088138647
4.0766402e-05
0.00087244624
3.7930387e-05
0.00086355442
3.4979457e-05
0.00085474475
3.1968651e-05
0.00084605652
2.8963178e-05
0.00083753024
2.6040983e-05
0.0008292028
2.3300268e-05
0.0008211027
2.0842879e-05
0.00081323763
1.8702307e-05
0.00080565106
1.7046232e-05
0.00079832494
1.6164747e-05
0.00079117886
1.6006313e-05
0.00078417739
1.6322711e-05
0.00077728759
1.7024e-05
0.00077050962
1.7879557e-05
0.00076385956
1.8723494e-05
0.00075734419
1.9490418e-05
0.00075096739
2.0121757e-05
0.00074473935
2.0567896e-05
0.00073866637
2.082633e-05
0.00073274879
2.0917301e-05
0.00072698758
2.0855339e-05
0.00072138363
2.0670751e-05
0.0007159362
2.0391059e-05
0.00071064362
2.0038798e-05
0.0007055052
1.9632575e-05
0.00070051975
1.9193607e-05
0.00069568491
1.8731102e-05
0.00069099716
1.8256705e-05
0.00068645081
1.7792452e-05
0.00068203978
1.7346376e-05
0.00067775809
1.6946958e-05
0.0006736007
1.6598291e-05
0.00066956307
1.6270128e-05
0.00066563817
1.5971732e-05
0.00066181864
1.5702867e-05
0.00065809688
1.546758e-05
0.00065446438
1.5275201e-05
0.00065091385
1.5111071e-05
0.00064743792
1.4976988e-05
0.00064403028
1.4861596e-05
0.0006406849
1.4763287e-05
0.00063739619
1.4679776e-05
0.00063415943
1.4605523e-05
0.00063096964
1.4545223e-05
0.00062782217
1.4492336e-05
0.00062471241
1.4450892e-05
0.0006216337
1.4432714e-05
0.00061858433
1.4413729e-05
0.00061554168
1.4514262e-05
0.00061253386
1.4428842e-05
0.00060945247
1.4904383e-05
0.00060638975
1.5679358e-05
0.0006027263
1.6401648e-05
1.8332226e-05
0.0010233037
6.6957341e-05
-0.0010207878
0.0010276009
8.2704624e-05
0.0010328178
9.4493963e-05
0.0010380392
0.00010058465
0.0010424901
0.00010110985
0.0010456937
9.7277878e-05
0.0010476431
9.1158427e-05
0.001048678
8.4891015e-05
0.0010491877
7.9716097e-05
0.0010494565
7.5883581e-05
0.0010496333
7.311857e-05
0.0010497793
7.1076637e-05
0.0010499191
6.9526002e-05
0.0010500439
6.8284886e-05
0.0010501459
6.7256347e-05
0.0010502274
6.6413879e-05
0.0010502991
6.5733779e-05
0.0010503511
6.5171034e-05
0.0010503662
6.4713329e-05
0.0010503472
6.4359637e-05
0.0010502906
6.4096008e-05
0.0010501797
6.3888719e-05
0.0010499991
6.3727127e-05
0.0010497302
6.3624333e-05
0.0010493476
6.3567194e-05
0.0010488223
6.3530885e-05
0.0010481223
6.3506668e-05
0.001047202
6.3492211e-05
0.0010460164
6.3474604e-05
0.0010445345
6.3436513e-05
0.0010427221
6.3365371e-05
0.0010405489
6.3242151e-05
0.0010380079
6.3056117e-05
0.0010350956
6.2802264e-05
0.0010318011
6.2460421e-05
0.0010281127
6.2013778e-05
0.001024019
6.1461801e-05
0.0010195127
6.0791447e-05
0.0010145899
5.9977207e-05
0.0010092467
5.8997518e-05
0.0010034781
5.7840372e-05
0.00099728026
5.6485095e-05
0.00099065263
5.4901281e-05
0.00098359136
5.3066792e-05
0.00097610581
5.0961197e-05
0.00096825715
4.8615068e-05
0.00096011479
4.6072742e-05
0.00095172348
4.3370768e-05
0.000943125
4.0567135e-05
0.00093436563
3.772254e-05
0.00092550139
3.4905228e-05
0.00091659936
3.22023e-05
0.00090772253
2.9719704e-05
0.00089889703
2.7527805e-05
0.00089022305
2.5720217e-05
0.00088183981
2.4547983e-05
0.00087374384
2.4102287e-05
0.00086580769
2.4258865e-05
0.00085795322
2.4878463e-05
0.00085019939
2.5633394e-05
0.00084254949
2.6373391e-05
0.00083500117
2.7038735e-05
0.00082757213
2.7550805e-05
0.00082028659
2.7853435e-05
0.0008131551
2.7957821e-05
0.00080618329
2.788911e-05
0.00079938173
2.7656893e-05
0.00079275721
2.7295275e-05
0.00078631069
2.6837581e-05
0.00078004271
2.6306774e-05
0.00077395478
2.572051e-05
0.00076804639
2.5101994e-05
0.00076231543
2.4462059e-05
0.00075675862
2.381352e-05
0.00075137014
2.3180926e-05
0.00074614399
2.2572525e-05
0.00074107428
2.2016671e-05
0.00073615548
2.1517088e-05
0.00073138289
2.1042719e-05
0.00072675019
2.0604438e-05
0.00072225091
2.0202146e-05
0.00071787789
1.9840598e-05
0.00071362256
1.9530535e-05
0.00070947714
1.9256488e-05
0.00070543344
1.9020685e-05
0.00070148408
1.8810959e-05
0.00069762178
1.8625584e-05
0.00069383957
1.8461987e-05
0.00069013122
1.8313872e-05
0.00068649029
1.8186156e-05
0.00068291073
1.8071899e-05
0.0006793865
1.7975118e-05
0.00067590957
1.7909644e-05
0.0006724769
1.7846393e-05
0.00066906467
1.7926496e-05
0.00066569892
1.7794594e-05
0.00066226854
1.8334764e-05
0.00065888636
1.9061531e-05
0.00065481538
2.047263e-05
2.1570315e-05
0.0010588642
6.4615924e-05
-0.0010565228
0.0010628103
7.8758499e-05
0.0010676381
8.9666238e-05
0.001072521
9.5701671e-05
0.0010767681
9.6862773e-05
0.001079937
9.4108978e-05
0.0010819744
8.9121089e-05
0.0010831436
8.3721785e-05
0.0010837828
7.9076914e-05
0.0010841521
7.5514218e-05
0.0010843997
7.287103e-05
0.0010845949
7.0881439e-05
0.0010847699
6.9350975e-05
0.0010849276
6.8127207e-05
0.0010850662
6.7117768e-05
0.0010851896
6.629041e-05
0.0010853016
6.5621797e-05
0.0010853982
6.5074458e-05
0.0010854796
6.4631942e-05
0.0010855487
6.4290501e-05
0.001085611
6.4033678e-05
0.0010856613
6.3838404e-05
0.0010856854
6.3703071e-05
0.0010856828
6.3626977e-05
0.0010856519
6.3598035e-05
0.0010855815
6.3601268e-05
0.0010854607
6.3627523e-05
0.0010852743
6.3678598e-05
0.0010850025
6.3746414e-05
0.001084624
6.3815013e-05
0.0010841124
6.387696e-05
0.0010834325
6.392205e-05
0.0010825504
6.3938237e-05
0.0010814404
6.3912211e-05
0.0010800693
6.3831497e-05
0.0010784099
6.3673225e-05
0.0010764497
6.3422044e-05
0.0010741715
6.3069604e-05
0.0010715571
6.2591642e-05
0.0010685857
6.1968856e-05
0.0010652346
6.1191541e-05
0.0010614791
6.0240521e-05
0.0010572935
5.9086905e-05
0.0010526483
5.7712051e-05
0.0010475053
5.6104112e-05
0.0010418447
5.4275714e-05
0.0010356756
5.2241814e-05
0.0010290148
5.0031588e-05
0.00102188
4.770192e-05
0.0010142952
4.5307358e-05
0.0010062958
4.2904575e-05
0.00099793386
4.056429e-05
0.00098927738
3.8376183e-05
0.00098038802
3.6417166e-05
0.00097135807
3.4750169e-05
0.00096238087
3.3525184e-05
0.00095359463
3.2888525e-05
0.00094500087
3.2852617e-05
0.00093657686
3.3302478e-05
0.00092826049
3.394976e-05
0.00091996985
3.4664031e-05
0.00091170109
3.5307499e-05
0.0009035054
3.5746494e-05
0.00089540262
3.5956219e-05
0.00088739882
3.5961615e-05
0.00087951787
3.5770061e-05
0.00087178657
3.5388196e-05
0.00086421674
3.4865101e-05
0.00085681506
3.4239259e-05
0.00084959209
3.3529745e-05
0.00084255622
3.2756382e-05
0.00083570993
3.1948284e-05
0.0008290544
3.1117588e-05
0.00082258998
3.027794e-05
0.00081631333
2.9457575e-05
0.00081022081
2.8665052e-05
0.00080430892
2.7928559e-05
0.00079857335
2.7252658e-05
0.00079300991
2.6606161e-05
0.00078761319
2.6001154e-05
0.00078237783
2.5437504e-05
0.00077729742
2.4921011e-05
0.00077236377
2.4464186e-05
0.00076756907
2.405119e-05
0.0007629046
2.3685151e-05
0.00075836219
2.3353369e-05
0.00075393354
2.305423e-05
0.00074961045
2.2785079e-05
0.0007453853
2.2539027e-05
0.00074125018
2.2321268e-05
0.00073719765
2.2124438e-05
0.0007332202
2.1952564e-05
0.00072930839
2.1821454e-05
0.00072545777
2.1697015e-05
0.00072164323
2.1741032e-05
0.00071788878
2.1549043e-05
0.00071408017
2.2143381e-05
0.00071034932
2.2792383e-05
0.00070584619
2.4975753e-05
2.5063331e-05
0.0010955513
6.2420735e-05
-0.0010933561
0.0010991785
7.5131307e-05
0.001103643
8.5201705e-05
0.0011082081
9.1136619e-05
0.0011122535
9.281735e-05
0.0011153721
9.099032e-05
0.0011174777
8.7015533e-05
0.0011187675
8.2432035e-05
0.0011195305
7.8313854e-05
0.001120003
7.5041768e-05
0.001120328
7.254597e-05
0.0011205789
7.0630591e-05
0.0011207924
6.9137414e-05
0.0011209792
6.7940404e-05
0.0011211418
6.6955162e-05
0.001121286
6.6146214e-05
0.001121417
6.549087e-05
0.0011215347
6.4956723e-05
0.0011216409
6.4525697e-05
0.0011217392
6.419227e-05
0.0011218305
6.3942313e-05
0.0011219126
6.3756331e-05
0.0011219856
6.3630064e-05
0.0011220511
6.3561451e-05
0.0011221094
6.3539812e-05
0.0011221623
6.3548287e-05
0.0011221993
6.3590596e-05
0.0011222119
6.3665986e-05
0.0011222026
6.3755703e-05
0.0011221632
6.3854395e-05
0.0011220854
6.3954773e-05
0.0011219572
6.4050302e-05
0.0011217619
6.4133472e-05
0.0011214834
6.419069e-05
0.0011210992
6.421577e-05
0.0011205807
6.4191683e-05
0.001119902
6.4100714e-05
0.0011190393
6.3932315e-05
0.0011179615
6.3669501e-05
0.0011166428
6.3287523e-05
0.001115066
6.2768346e-05
0.0011132046
6.2101956e-05
0.0011110279
6.1263533e-05
0.0011085021
6.0237916e-05
0.0011055859
5.9020254e-05
0.001102234
5.7627644e-05
0.001098404
5.6071801e-05
0.0010940606
5.4374993e-05
0.0010891726
5.2589876e-05