/*--------------------------------*- C++ -*----------------------------------*\
| =========                 |                                                 |
| \\      /  F ield         | OpenFOAM: The Open Source CFD Toolbox           |
|  \\    /   O peration     | Version:  2206                                  |
|   \\  /    A nd           | Website:  www.openfoam.com                      |
|    \\/     M anipulation  |                                                 |
\*---------------------------------------------------------------------------*/
FoamFile
{
    version     2.0;
    format      ascii;
    arch        "LSB;label=32;scalar=64";
    class       volVectorField;
    location    "100";
    object      U;
}
// * * * * * * * * * * * * * * * * * * * * * * * * * * * * * * * * * * * * * //

dimensions      [0 1 -1 0 0 0 0];

internalField   nonuniform List<vector> 
7480
(
(0.82755535 0.011166557 0)
(0.70300084 0.020217348 0)
(0.56655331 0.021429747 0)
(0.43054008 0.014560552 0)
(0.3305567 0.0062889222 0)
(0.26658122 0.0019109096 0)
(0.23008115 0.0022248273 0)
(0.20853566 -0.00029106581 0)
(0.1944757 -0.0004297416 0)
(0.18414632 -0.00017507078 0)
(0.17532146 1.2186239e-06 0)
(0.16713181 5.4447939e-05 0)
(0.15955954 6.5121966e-05 0)
(0.15265761 6.718332e-05 0)
(0.14636923 0.00021976396 0)
(0.14063084 0.00018633174 0)
(0.13539872 7.14704e-05 0)
(0.13061202 5.1089152e-05 0)
(0.12618505 4.5225782e-05 0)
(0.12206993 4.0592117e-05 0)
(0.11824547 3.7002747e-05 0)
(0.11467563 3.4960411e-05 0)
(0.11132364 3.2689528e-05 0)
(0.10817154 3.0018258e-05 0)
(0.10520672 2.7737642e-05 0)
(0.10240899 2.6086318e-05 0)
(0.099759098 2.4356878e-05 0)
(0.097247835 2.2463831e-05 0)
(0.094868578 2.0798871e-05 0)
(0.092610351 1.9400234e-05 0)
(0.090463547 1.7957417e-05 0)
(0.088424008 1.6478247e-05 0)
(0.086488081 1.51605e-05 0)
(0.084649893 1.3980792e-05 0)
(0.082904896 1.2806907e-05 0)
(0.081251455 1.1650413e-05 0)
(0.079688021 1.0586485e-05 0)
(0.078212648 9.5688783e-06 0)
(0.076825211 8.5436895e-06 0)
(0.075527632 7.5297899e-06 0)
(0.074321857 6.5718206e-06 0)
(0.073209382 5.6524058e-06 0)
(0.072193688 4.7260989e-06 0)
(0.071277478 3.8674505e-06 0)
(0.07046537 1.5599916e-05 0)
(0.069777298 6.497372e-06 0)
(0.069201489 8.2725402e-07 0)
(0.068764291 -1.1308456e-07 0)
(0.068466267 -1.034289e-06 0)
(0.068304592 -1.8601248e-06 0)
(0.06827536 -2.6137756e-06 0)
(0.068372063 -3.0865569e-06 0)
(0.068583874 -3.3886874e-06 0)
(0.068888635 -3.4419483e-06 0)
(0.069264595 -3.4891218e-06 0)
(0.069699839 -3.5586229e-06 0)
(0.070165166 -3.2392394e-06 0)
(0.070613422 -2.7491125e-06 0)
(0.070998122 -2.4058934e-06 0)
(0.071280092 -4.9448817e-06 0)
(0.071456362 -1.0471033e-06 0)
(0.07152675 -5.4802909e-07 0)
(0.071499238 -1.4166079e-07 0)
(0.071389327 6.1387171e-08 0)
(0.071214633 1.8783467e-07 0)
(0.070990924 2.6487347e-07 0)
(0.070732679 2.8960611e-07 0)
(0.070451645 2.9215928e-07 0)
(0.070156037 2.8348221e-07 0)
(0.069851963 2.6875508e-07 0)
(0.069544316 2.4974659e-07 0)
(0.069236014 2.3597645e-07 0)
(0.068928834 2.2119265e-07 0)
(0.068624733 2.0499631e-07 0)
(0.068324133 2.00938e-07 0)
(0.068027304 1.9216656e-07 0)
(0.067734695 2.0924372e-07 0)
(0.067437541 2.4113056e-07 0)
(0.067134974 2.427951e-07 0)
(0.06682946 2.4710166e-07 0)
(0.066522198 2.4628249e-07 0)
(0.066214009 2.4327421e-07 0)
(0.065903601 2.4939011e-07 0)
(0.065590293 2.4668215e-07 0)
(0.065273822 2.48484e-07 0)
(0.064953807 2.4622952e-07 0)
(0.064630548 2.4330497e-07 0)
(0.064303821 2.4136276e-07 0)
(0.063974012 2.3520844e-07 0)
(0.063641004 2.3353185e-07 0)
(0.063305005 2.2753462e-07 0)
(0.062966027 2.2518433e-07 0)
(0.062624504 2.185694e-07 0)
(0.062277985 2.2407244e-07 0)
(0.061932337 1.9995159e-07 0)
(0.061564455 2.7977576e-07 0)
(0.061238959 1.0493763e-06 0)
(0.060765974 1.2281403e-05 0)
(0.060493449 2.0237567e-05 0)
(0.059756569 1.2116994e-05 0)
(0.95866069 0.028038975 0)
(0.94942434 0.038585933 0)
(0.93029971 0.041833184 0)
(0.88512761 0.039310748 0)
(0.82442051 0.032446432 0)
(0.75683484 0.023985399 0)
(0.69438522 0.01550805 0)
(0.64140958 0.0094021588 0)
(0.59778253 0.0060299437 0)
(0.56172762 0.004363405 0)
(0.53123747 0.0035601563 0)
(0.50477974 0.0030819826 0)
(0.48143943 0.0027035907 0)
(0.4605966 0.0023890732 0)
(0.44176403 0.0021299228 0)
(0.42461894 0.0018760249 0)
(0.40895431 0.001655249 0)
(0.39456283 0.0014832927 0)
(0.38125298 0.0013367204 0)
(0.36888896 0.0012053694 0)
(0.35737644 0.0010890378 0)
(0.34661916 0.00099002092 0)
(0.33652812 0.00090298245 0)
(0.32704035 0.00082404712 0)
(0.31810189 0.00075344567 0)
(0.30966103 0.00069158581 0)
(0.30167057 0.00063583529 0)
(0.29409764 0.00058431688 0)
(0.28691665 0.00053737222 0)
(0.28009957 0.00049514207 0)
(0.27362128 0.00045628609 0)
(0.26746542 0.00041997858 0)
(0.26161889 0.0003864513 0)
(0.25606731 0.00035560335 0)
(0.25079879 0.00032673644 0)
(0.24580677 0.00029947616 0)
(0.24108668 0.00027386495 0)
(0.23663494 0.00024963326 0)
(0.2324517 0.00022633796 0)
(0.22854173 0.00020378997 0)
(0.22491163 0.00018204035 0)
(0.2215685 0.00016094829 0)
(0.21852391 0.00014026864 0)
(0.21578877 0.00012002122 0)
(0.21338095 0.00010051548 0)
(0.21133661 8.5727702e-05 0)
(0.20965701 5.7072804e-05 0)
(0.20837975 3.7485999e-05 0)
(0.20751288 1.8470757e-05 0)
(0.20704788 8.3011452e-07 0)
(0.20696923 -1.491202e-05 0)
(0.20725348 -2.8643529e-05 0)
(0.20786508 -3.961701e-05 0)
(0.20874226 -4.7075618e-05 0)
(0.20982085 -5.2029674e-05 0)
(0.21104788 -5.4566623e-05 0)
(0.21233172 -5.2548164e-05 0)
(0.21354613 -4.6019654e-05 0)
(0.21456671 -3.5785513e-05 0)
(0.21530888 -2.5317267e-05 0)
(0.21574746 -1.4350038e-05 0)
(0.2158913 -4.843529e-06 0)
(0.21576335 2.9068069e-06 0)
(0.21540471 8.8488663e-06 0)
(0.21486381 1.3088368e-05 0)
(0.21418524 1.5905498e-05 0)
(0.2134086 1.7548139e-05 0)
(0.21256604 1.839425e-05 0)
(0.21168134 1.8683065e-05 0)
(0.21077216 1.8573396e-05 0)
(0.20985222 1.8194232e-05 0)
(0.20893011 1.7684765e-05 0)
(0.20801132 1.7077903e-05 0)
(0.20710114 1.6408841e-05 0)
(0.20620138 1.5770388e-05 0)
(0.20531287 1.5126611e-05 0)
(0.20443551 1.4789735e-05 0)
(0.20354373 1.4772137e-05 0)
(0.20263656 1.4620374e-05 0)
(0.20172172 1.4353255e-05 0)
(0.20080233 1.4026358e-05 0)
(0.19987949 1.370837e-05 0)
(0.19895016 1.3460782e-05 0)
(0.19801244 1.3208009e-05 0)
(0.19706528 1.2986253e-05 0)
(0.1961079 1.275564e-05 0)
(0.19514081 1.2524659e-05 0)
(0.19416371 1.2297231e-05 0)
(0.19317756 1.2054272e-05 0)
(0.19218216 1.1825737e-05 0)
(0.19117826 1.1580065e-05 0)
(0.19016594 1.1345769e-05 0)
(0.18914633 1.1120633e-05 0)
(0.18811408 1.0910602e-05 0)
(0.18708156 1.0766632e-05 0)
(0.18599878 1.0581666e-05 0)
(0.18500598 1.3031565e-05 0)
(0.18367082 4.3255529e-05 0)
(0.18283361 6.9255123e-05 0)
(0.18066582 3.7177678e-05 0)
(0.96802766 0.029705432 0)
(0.97311503 0.037719792 0)
(0.98240176 0.04154301 0)
(0.98426121 0.041012785 0)
(0.97938957 0.037117762 0)
(0.96362202 0.030608685 0)
(0.93926946 0.024146196 0)
(0.91012557 0.019115983 0)
(0.87836768 0.015500647 0)
(0.8461706 0.012897884 0)
(0.81517113 0.010958199 0)
(0.78576863 0.0094053937 0)
(0.75803226 0.0081194029 0)
(0.73188008 0.0070816527 0)
(0.7072088 0.0062341598 0)
(0.68396276 0.0055135465 0)
(0.66210437 0.0048995206 0)
(0.64154113 0.0043855716 0)
(0.62216169 0.0039458947 0)
(0.60387753 0.003558443 0)
(0.58661733 0.0032171801 0)
(0.57029835 0.0029220869 0)
(0.55484017 0.0026628091 0)
(0.54018003 0.0024303251 0)
(0.52626579 0.0022225367 0)
(0.51304143 0.0020388597 0)
(0.50045462 0.0018738926 0)
(0.48846569 0.0017231885 0)
(0.47704185 0.001585973 0)
(0.46614937 0.0014616861 0)
(0.45575852 0.0013476143 0)
(0.44584816 0.0012417374 0)
(0.43640107 0.0011438198 0)
(0.42740025 0.0010533396 0)
(0.41883218 0.00096883723 0)
(0.41068935 0.00088929118 0)
(0.40296774 0.00081440745 0)
(0.39566568 0.00074346541 0)
(0.38878606 0.00067544556 0)
(0.38233733 0.00060975894 0)
(0.37633122 0.00054628588 0)
(0.37078163 0.00048463592 0)
(0.36570816 0.00042424678 0)
(0.36113051 0.00036516992 0)
(0.35707876 0.00030476901 0)
(0.35359632 0.00025739391 0)
(0.35069877 0.00018807641 0)
(0.3484154 0.00012888169 0)
(0.34675115 7.425813e-05 0)
(0.34569064 2.4005883e-05 0)
(0.34520546 -2.0845789e-05 0)
(0.34525133 -5.9510952e-05 0)
(0.34577125 -9.0594885e-05 0)
(0.34667499 -0.00011253882 0)
(0.34786986 -0.00012697407 0)
(0.34926476 -0.00013379818 0)
(0.35071804 -0.00012943762 0)
(0.35205598 -0.00011297101 0)
(0.3531201 -8.7990694e-05 0)
(0.35380755 -5.8443127e-05 0)
(0.35408717 -3.0167904e-05 0)
(0.35397211 -4.8520838e-06 0)
(0.35349432 1.6237982e-05 0)
(0.35271103 3.2405256e-05 0)
(0.35168647 4.3973348e-05 0)
(0.35047983 5.1662816e-05 0)
(0.34914353 5.6168783e-05 0)
(0.34772075 5.8392384e-05 0)
(0.34624439 5.9004199e-05 0)
(0.34473909 5.8480708e-05 0)
(0.34322386 5.7198923e-05 0)
(0.34171074 5.5516683e-05 0)
(0.34020794 5.3556298e-05 0)
(0.33872283 5.1427946e-05 0)
(0.33725833 4.9349009e-05 0)
(0.33581541 4.7296481e-05 0)
(0.3343925 4.6072783e-05 0)
(0.33295218 4.566939e-05 0)
(0.33149826 4.4963018e-05 0)
(0.33004057 4.3972445e-05 0)
(0.32858096 4.2875405e-05 0)
(0.32711915 4.1832132e-05 0)
(0.32565082 4.096578e-05 0)
(0.32417285 4.0133485e-05 0)
(0.32268319 3.9381507e-05 0)
(0.32118049 3.8626433e-05 0)
(0.31966496 3.787736e-05 0)
(0.31813614 3.7135396e-05 0)
(0.31659497 3.6368299e-05 0)
(0.31504114 3.5628916e-05 0)
(0.31347555 3.4859321e-05 0)
(0.31189828 3.4110076e-05 0)
(0.31031069 3.3398054e-05 0)
(0.308706 3.2698128e-05 0)
(0.30709896 3.2264399e-05 0)
(0.30542759 3.1435239e-05 0)
(0.30386358 3.5132083e-05 0)
(0.301864 7.8776119e-05 0)
(0.30051257 0.00012089079 0)
(0.29722327 7.3767317e-05 0)
(0.97006987 0.027083269 0)
(0.97641984 0.034264663 0)
(0.98547741 0.03837793 0)
(0.99344277 0.039211571 0)
(1.001646 0.036175746 0)
(1.002532 0.031200544 0)
(0.99957389 0.026292143 0)
(0.99333409 0.022246984 0)
(0.98420533 0.019368556 0)
(0.97251522 0.017346779 0)
(0.95869181 0.015776655 0)
(0.94313242 0.014350427 0)
(0.92571336 0.013015295 0)
(0.90736881 0.011780816 0)
(0.88855277 0.010669748 0)
(0.86955081 0.0096639984 0)
(0.85056462 0.0087606213 0)
(0.83171863 0.007971257 0)
(0.81310334 0.007275333 0)
(0.79481087 0.0066469297 0)
(0.7769214 0.0060789902 0)
(0.75948013 0.0055730647 0)
(0.74251115 0.0051179152 0)
(0.72603469 0.0047031768 0)
(0.71006905 0.004326774 0)
(0.69461624 0.0039882954 0)
(0.67967061 0.0036809469 0)
(0.66522909 0.0033986619 0)
(0.6512878 0.003139978 0)
(0.63783697 0.0029037062 0)
(0.62486663 0.0026857578 0)
(0.61237132 0.0024829404 0)
(0.60034665 0.0022944754 0)
(0.58878714 0.002119269 0)
(0.57768978 0.0019549763 0)
(0.56705695 0.0017998314 0)
(0.55689454 0.0016531905 0)
(0.54720847 0.0015138833 0)
(0.53800757 0.0013802244 0)
(0.52930548 0.001251137 0)
(0.52111924 0.0011262399 0)
(0.5134686 0.0010048114 0)
(0.50637884 0.00088592875 0)
(0.49987544 0.00076954069 0)
(0.49399615 0.00065188552 0)
(0.48878051 0.00054507416 0)
(0.48424349 0.00042639591 0)
(0.480394 0.00031374171 0)
(0.47722464 0.00021005356 0)
(0.4747149 0.00011548991 0)
(0.47283313 3.1219337e-05 0)
(0.47153293 -4.145718e-05 0)
(0.47074799 -0.00010005717 0)
(0.47038217 -0.00014236237 0)
(0.47034837 -0.00017109521 0)
(0.4705373 -0.00018566394 0)
(0.47078295 -0.00017812577 0)
(0.47091427 -0.00015102167 0)
(0.47080044 -0.00010972412 0)
(0.47036496 -6.0657636e-05 0)
(0.46958723 -1.4592145e-05 0)
(0.46848065 2.6597093e-05 0)
(0.46707839 6.06431e-05 0)
(0.46542884 8.6570879e-05 0)
(0.46358493 0.00010488264 0)
(0.46159627 0.00011673165 0)
(0.45950801 0.00012326694 0)
(0.45735861 0.00012592114 0)
(0.45517835 0.00012580824 0)
(0.45299042 0.00012374867 0)
(0.45081297 0.0001204103 0)
(0.44865713 0.00011638784 0)
(0.44653148 0.00011189789 0)
(0.44444336 0.00010715171 0)
(0.44239547 0.00010251056 0)
(0.44038815 9.8015978e-05 0)
(0.4384174 9.4614554e-05 0)
(0.43647474 9.24245e-05 0)
(0.43455306 9.0167242e-05 0)
(0.43264762 8.7733929e-05 0)
(0.43075413 8.5268159e-05 0)
(0.42886978 8.2968766e-05 0)
(0.42698908 8.1002676e-05 0)
(0.42510758 7.9160084e-05 0)
(0.42322203 7.7485356e-05 0)
(0.42133 7.5844946e-05 0)
(0.41943075 7.424099e-05 0)
(0.41752312 7.2666873e-05 0)
(0.41560732 7.1076706e-05 0)
(0.41368241 6.9539659e-05 0)
(0.41174883 6.7972215e-05 0)
(0.4098062 6.6442618e-05 0)
(0.4078555 6.5000851e-05 0)
(0.4058891 6.3563202e-05 0)
(0.40392213 6.2686158e-05 0)
(0.40188849 6.090094e-05 0)
(0.3999655 6.576279e-05 0)
(0.39759715 0.00011674787 0)
(0.39589083 0.0001691924 0)
(0.39200797 0.0001158773 0)
(0.97242722 0.02556349 0)
(0.97778625 0.03239982 0)
(0.98587614 0.036407511 0)
(0.9941835 0.037068892 0)
(1.0012628 0.034668141 0)
(1.005615 0.030635619 0)
(1.0079526 0.026372392 0)
(1.0071026 0.022757191 0)
(1.0052933 0.020141974 0)
(1.0027844 0.018353938 0)
(0.99957733 0.017017865 0)
(0.99557206 0.01592455 0)
(0.99027928 0.014972527 0)
(0.9836083 0.014079754 0)
(0.9755737 0.013226781 0)
(0.96629917 0.012374218 0)
(0.95568413 0.011538427 0)
(0.94418055 0.010748125 0)
(0.93198498 0.010010749 0)
(0.91923993 0.0093182728 0)
(0.90606163 0.0086719826 0)
(0.89255307 0.0080781398 0)
(0.87879146 0.0075284148 0)
(0.86486288 0.0070130242 0)
(0.85085165 0.0065314303 0)
(0.83682597 0.0060858654 0)
(0.82284399 0.0056709217 0)
(0.80896035 0.0052816264 0)
(0.79522242 0.0049180421 0)
(0.78166671 0.004580155 0)
(0.76832451 0.0042639975 0)
(0.75522653 0.0039663562 0)
(0.74240052 0.0036866804 0)
(0.72986993 0.0034237893 0)
(0.71765822 0.0031747669 0)
(0.70579324 0.0029373605 0)
(0.69430364 0.0027112405 0)
(0.68320632 0.002495443 0)
(0.67251988 0.0022878115 0)
(0.66226782 0.0020867276 0)
(0.65247669 0.0018914782 0)
(0.64317492 0.0017010023 0)
(0.63439524 0.0015141123 0)
(0.62616974 0.0013301188 0)
(0.61854961 0.0011474915 0)
(0.6115538 0.00096770078 0)
(0.605178 0.0007900972 0)
(0.59941886 0.00062352921 0)
(0.59427068 0.00046699863 0)
(0.58972429 0.00032320535 0)
(0.58576024 0.00019459694 0)
(0.58234642 8.3327152e-05 0)
(0.57942522 -7.1618783e-06 0)
(0.57691392 -7.4516717e-05 0)
(0.57476011 -0.00012069327 0)
(0.57281359 -0.00014184471 0)
(0.5708966 -0.0001339477 0)
(0.56889906 -0.00010055378 0)
(0.56676817 -4.9490433e-05 0)
(0.5644768 9.677627e-06 0)
(0.56202443 6.5230982e-05 0)
(0.55942282 0.00011453354 0)
(0.55668942 0.00015469718 0)
(0.55384848 0.00018463327 0)
(0.5509276 0.00020499342 0)
(0.54795387 0.00021718966 0)
(0.54495377 0.00022263774 0)
(0.54195124 0.00022311785 0)
(0.53896609 0.00022004347 0)
(0.53601408 0.00021448127 0)
(0.53310788 0.00020733258 0)
(0.5302545 0.00019936172 0)
(0.52746108 0.00019084518 0)
(0.52473291 0.00018209725 0)
(0.52207097 0.00017361145 0)
(0.51947409 0.00016550454 0)
(0.51693652 0.00015885582 0)
(0.51446519 0.00015372786 0)
(0.51205048 0.00014872771 0)
(0.50967961 0.00014384389 0)
(0.50734315 0.00013917454 0)
(0.50503553 0.00013488388 0)
(0.50274996 0.00013114665 0)
(0.50048068 0.00012768592 0)
(0.49822317 0.0001245344 0)
(0.4959737 0.00012150712 0)
(0.4937302 0.00011859203 0)
(0.49149038 0.00011576895 0)
(0.4892533 0.00011297674 0)
(0.48701706 0.00011029201 0)
(0.48478121 0.000107607 0)
(0.48254444 0.00010500137 0)
(0.48030691 0.00010256258 0)
(0.47806025 0.00010013164 0)
(0.47581895 9.8608641e-05 0)
(0.47351615 9.5627879e-05 0)
(0.47132405 0.0001014632 0)
(0.46871021 0.00015536378 0)
(0.46673471 0.00021316107 0)
(0.46247808 0.00016173169 0)
(0.97461643 0.024511382 0)
(0.97930918 0.030793852 0)
(0.98638203 0.034468801 0)
(0.99379431 0.035112724 0)
(1.0001895 0.033233311 0)
(1.0048153 0.029795569 0)
(1.0073082 0.025982613 0)
(1.0082926 0.022699553 0)
(1.0079682 0.020248644 0)
(1.0074144 0.018529816 0)
(1.0067836 0.017263967 0)
(1.0060259 0.016265514 0)
(1.0049941 0.015425421 0)
(1.003574 0.014655543 0)
(1.0016517 0.013931213 0)
(0.9991614 0.013261088 0)
(0.9958672 0.012640734 0)
(0.99171572 0.01204702 0)
(0.98669185 0.011472329 0)
(0.98080959 0.010900378 0)
(0.97400275 0.010332317 0)
(0.96646133 0.0097857682 0)
(0.95827253 0.0092609714 0)
(0.9495011 0.0087557422 0)
(0.94020429 0.0082722958 0)
(0.93043836 0.0078137199 0)
(0.92026268 0.0073758104 0)
(0.90973361 0.0069546987 0)
(0.89890824 0.0065516032 0)
(0.88784276 0.006167745 0)
(0.87659159 0.0058000971 0)
(0.86520974 0.0054465447 0)
(0.85374962 0.0051079387 0)
(0.84225796 0.0047840906 0)
(0.83077937 0.0044725276 0)
(0.8193592 0.0041713216 0)
(0.8080425 0.0038802307 0)
(0.79687389 0.0035985864 0)
(0.78589709 0.0033247513 0)
(0.77515604 0.0030573852 0)
(0.76469434 0.0027959316 0)
(0.75455554 0.0025392525 0)
(0.74478635 0.0022860749 0)
(0.73543326 0.0020347379 0)
(0.7265747 0.0017870554 0)
(0.71814848 0.0015460986 0)
(0.71016268 0.0013127455 0)
(0.70265951 0.0010878481 0)
(0.69566637 0.00087583791 0)
(0.6891926 0.00068071976 0)
(0.6832287 0.00050547848 0)
(0.6777462 0.00035325625 0)
(0.6726907 0.00022804852 0)
(0.66800803 0.00013050124 0)
(0.66369807 6.4839544e-05 0)
(0.65948162 3.527609e-05 0)
(0.65523066 3.9605804e-05 0)
(0.65097084 6.9998652e-05 0)
(0.6467312 0.00012047325 0)
(0.64251408 0.00017516275 0)
(0.63832429 0.00022797252 0)
(0.63416593 0.00027447985 0)
(0.63003893 0.00031145036 0)
(0.62594582 0.00033768391 0)
(0.62189257 0.0003537927 0)
(0.6178863 0.00036120805 0)
(0.6139354 0.00036138651 0)
(0.61004882 0.00035623609 0)
(0.60623474 0.00034728092 0)
(0.60250015 0.0003356985 0)
(0.59885096 0.00032249288 0)
(0.59529144 0.00030855302 0)
(0.59182387 0.00029420757 0)
(0.58844999 0.0002798193 0)
(0.58516853 0.00026598028 0)
(0.58197654 0.00025286831 0)
(0.57886773 0.00024142871 0)
(0.57584354 0.00023173317 0)
(0.57289969 0.00022262627 0)
(0.5700259 0.00021413171 0)
(0.56721158 0.00020622528 0)
(0.5644494 0.00019900412 0)
(0.56173151 0.00019263172 0)
(0.55905111 0.000186762 0)
(0.55640254 0.00018140854 0)
(0.55378085 0.00017633398 0)
(0.55118258 0.00017150608 0)
(0.54860418 0.00016688557 0)
(0.5460434 0.00016238737 0)
(0.54349773 0.00015809322 0)
(0.54096516 0.00015387623 0)
(0.53844312 0.00014981687 0)
(0.53593066 0.00014603984 0)
(0.53341867 0.00014229622 0)
(0.53092037 0.00013985827 0)
(0.52836985 0.00013540948 0)
(0.52592968 0.0001417813 0)
(0.52309883 0.00019574193 0)
(0.52088826 0.00025642812 0)
(0.51631053 0.00020665637 0)
(0.97658893 0.023525605 0)
(0.98074988 0.029152195 0)
(0.98700782 0.032517322 0)
(0.99362506 0.03327549 0)
(0.99943367 0.031814966 0)
(1.0037468 0.028881441 0)
(1.0062935 0.025505441 0)
(1.0074472 0.022522873 0)
(1.0077625 0.020237133 0)
(1.0077406 0.018572528 0)
(1.0076417 0.017319761 0)
(1.0075362 0.01631977 0)
(1.0074148 0.015485983 0)
(1.007233 0.014746292 0)
(1.0069286 0.014072763 0)
(1.0064618 0.01346489 0)
(1.0057872 0.012911636 0)
(1.0048498 0.01238893 0)
(1.0035898 0.01189197 0)
(1.0019534 0.011425425 0)
(0.99981059 0.010984928 0)
(0.99710777 0.010557712 0)
(0.99381988 0.010138788 0)
(0.98992187 0.0097204378 0)
(0.98536986 0.0093043667 0)
(0.9802435 0.0088986689 0)
(0.97457028 0.0085018812 0)
(0.96837558 0.008112559 0)
(0.96168384 0.0077331848 0)
(0.95452027 0.0073651289 0)
(0.94691453 0.007005215 0)
(0.9389027 0.006651455 0)
(0.93052199 0.0063057434 0)
(0.92180124 0.0059685252 0)
(0.91277781 0.0056373334 0)
(0.90349203 0.005310693 0)
(0.89398402 0.0049895104 0)
(0.88430099 0.0046737971 0)
(0.87449252 0.0043619153 0)
(0.86460993 0.004052767 0)
(0.85470556 0.0037462911 0)
(0.84483307 0.0034417574 0)
(0.83504907 0.0031382067 0)
(0.82541329 0.0028341378 0)
(0.81599063 0.0025302065 0)
(0.80681962 0.0022352283 0)
(0.79790416 0.0019524055 0)
(0.78927664 0.0016797632 0)
(0.78097177 0.0014207882 0)
(0.77301664 0.0011796588 0)
(0.76542423 0.00096055684 0)
(0.75819004 0.00076803451 0)
(0.75128787 0.00060653468 0)
(0.74471322 0.00047529533 0)
(0.73848812 0.00038076261 0)
(0.73241976 0.00033305442 0)
(0.72641239 0.00032704851 0)
(0.72048729 0.00034750948 0)
(0.71466612 0.00038835744 0)
(0.70894813 0.00043037226 0)
(0.70334469 0.00047166714 0)
(0.69786405 0.00050682439 0)
(0.69250323 0.00053296422 0)
(0.68726016 0.00054877679 0)
(0.68213637 0.0005547836 0)
(0.67713174 0.00055240955 0)
(0.67224568 0.00054306182 0)
(0.66747902 0.00052863928 0)
(0.66283301 0.0005106556 0)
(0.65830847 0.00049031034 0)
(0.65390603 0.00046862862 0)
(0.64962757 0.00044652325 0)
(0.64547176 0.0004243363 0)
(0.6414374 0.00040248085 0)
(0.63752111 0.00038161792 0)
(0.63371826 0.0003619472 0)
(0.63002239 0.00034433006 0)
(0.62643022 0.00032879611 0)
(0.62293867 0.00031429144 0)
(0.61954048 0.00030091228 0)
(0.61622627 0.00028856944 0)
(0.6129884 0.00027730461 0)
(0.60981858 0.00026726353 0)
(0.60670926 0.00025803046 0)
(0.60365392 0.0002495953 0)
(0.60064654 0.00024166811 0)
(0.5976824 0.00023419197 0)
(0.5947567 0.00022710358 0)
(0.59186583 0.00022028906 0)
(0.58900639 0.00021382805 0)
(0.58617491 0.00020757358 0)
(0.58336752 0.00020160182 0)
(0.58058203 0.00019607177 0)
(0.57780853 0.00019063429 0)
(0.5750587 0.00018694509 0)
(0.57226815 0.00018072193 0)
(0.56958891 0.00018718624 0)
(0.56654911 0.00023946941 0)
(0.56412298 0.00030240415 0)
(0.55924857 0.0002531227 0)
(0.97838893 0.022612404 0)
(0.98209146 0.027631494 0)
(0.98763711 0.030750591 0)
(0.99357707 0.031603814 0)
(0.99888378 0.030476482 0)
(1.00292 0.027994484 0)
(1.0054439 0.025028735 0)
(1.0066897 0.022315681 0)
(1.0071713 0.020162263 0)
(1.0073396 0.018544382 0)
(1.0074305 0.017307186 0)
(1.0075107 0.016313148 0)
(1.0075738 0.015480609 0)
(1.0076433 0.014746457 0)
(1.007681 0.014083949 0)
(1.0076664 0.013487521 0)
(1.0076074 0.012948235 0)
(1.0074876 0.012448371 0)
(1.0072814 0.011982551 0)
(1.0069664 0.011552443 0)
(1.0065131 0.011151029 0)
(1.005884 0.010766552 0)
(1.0050398 0.010396721 0)
(1.0039351 0.010044138 0)
(1.0024913 0.0097059477 0)
(1.0006662 0.0093756457 0)
(0.9984307 0.0090488291 0)
(0.99574652 0.0087213368 0)
(0.99258996 0.008395116 0)
(0.98898757 0.0080733094 0)
(0.98494116 0.0077541747 0)
(0.98045052 0.0074363534 0)
(0.97551857 0.0071212499 0)
(0.97015401 0.0068094631 0)
(0.96436606 0.0064988179 0)
(0.95816797 0.0061877566 0)
(0.95157428 0.0058769367 0)
(0.94460262 0.0055662134 0)
(0.93726813 0.0052540686 0)
(0.92959211 0.0049393791 0)
(0.92160383 0.0046221347 0)
(0.9133368 0.0043017174 0)
(0.90482845 0.0039770895 0)
(0.89612533 0.003646831 0)
(0.8872564 0.003313388 0)
(0.87835588 0.0029861191 0)
(0.86947375 0.0026671326 0)
(0.86062582 0.0023570013 0)
(0.85184088 0.0020598678 0)
(0.84315629 0.0017802187 0)
(0.83461283 0.0015227874 0)
(0.82624991 0.0012930161 0)
(0.81810127 0.0010963391 0)
(0.81018897 0.00093200386 0)
(0.80250691 0.00080707303 0)
(0.7951499 0.00073715918 0)
(0.78797997 0.00071338793 0)
(0.78097847 0.00071587618 0)
(0.77409672 0.00073935264 0)
(0.76731489 0.00076406333 0)
(0.76065494 0.00078836253 0)
(0.75412881 0.00080691726 0)
(0.74773597 0.00081722817 0)
(0.74148502 0.00081774477 0)
(0.73538713 0.00080904244 0)
(0.72944367 0.00079271185 0)
(0.72365412 0.00077006214 0)
(0.71802044 0.00074292891 0)
(0.71254283 0.00071283041 0)
(0.70721951 0.00068095819 0)
(0.70204901 0.00064826714 0)
(0.69703125 0.00061566709 0)
(0.69216414 0.00058353058 0)
(0.68744513 0.0005522799 0)
(0.68286941 0.00052261671 0)
(0.67843107 0.00049472899 0)
(0.67412353 0.00046943357 0)
(0.66994126 0.00044669778 0)
(0.6658805 0.0004254518 0)
(0.66193551 0.00040585072 0)
(0.65809841 0.00038777933 0)
(0.65436222 0.00037124652 0)
(0.65071863 0.00035638703 0)
(0.6471597 0.00034271926 0)
(0.64367827 0.00033020851 0)
(0.64026738 0.00031851304 0)
(0.6369212 0.00030754866 0)
(0.63363369 0.00029722415 0)
(0.63039993 0.00028738946 0)
(0.62721516 0.0002781185 0)
(0.62407474 0.00026924535 0)
(0.62097357 0.00026083397 0)
(0.61790818 0.00025307308 0)
(0.6148678 0.00024550609 0)
(0.61186241 0.00024017278 0)
(0.60882922 0.00023183067 0)
(0.60591024 0.00023799452 0)
(0.60265768 0.00028762011 0)
(0.60002269 0.00035319158 0)
(0.5948551 0.00030236798 0)
(0.98003343 0.021775238 0)
(0.98334466 0.026246654 0)
(0.98825624 0.029130817 0)
(0.99358205 0.030040113 0)
(0.9984295 0.029192418 0)
(1.0022216 0.027113252 0)
(1.0047143 0.024524409 0)
(1.0060594 0.022066295 0)
(1.0066689 0.020048286 0)
(1.0069423 0.01848803 0)
(1.0071112 0.017271688 0)
(1.0072569 0.016284692 0)
(1.0073932 0.015453707 0)
(1.0075227 0.014724089 0)
(1.0076331 0.014068486 0)
(1.007722 0.01347684 0)
(1.0077896 0.012940535 0)
(1.0078565 0.012445555 0)
(1.00789 0.011987578 0)
(1.0078863 0.011565828 0)
(1.0078521 0.011174067 0)
(1.0077754 0.010804314 0)
(1.0076397 0.010453865 0)
(1.0074284 0.010123555 0)
(1.0071212 0.0098096295 0)
(1.0066913 0.0095065013 0)
(1.0061123 0.009212717 0)
(1.0053455 0.0089285644 0)
(1.0043412 0.008651971 0)
(1.0030656 0.0083796319 0)
(1.0014941 0.008107784 0)
(0.99958256 0.0078335952 0)
(0.99731692 0.0075591712 0)
(0.99470058 0.0072855838 0)
(0.99172327 0.0070108604 0)
(0.98837261 0.0067336266 0)
(0.98463812 0.0064541938 0)
(0.98051027 0.0061719079 0)
(0.97598438 0.0058850521 0)
(0.97105693 0.0055927059 0)
(0.96572349 0.0052947885 0)
(0.95997997 0.0049904389 0)
(0.95382305 0.0046781611 0)
(0.94725464 0.0043572549 0)
(0.94026433 0.0040288151 0)
(0.93288416 0.0036976987 0)
(0.92519798 0.00336795 0)
(0.91725396 0.0030435354 0)
(0.90909113 0.0027297766 0)
(0.90075006 0.0024310218 0)
(0.89227923 0.0021518303 0)
(0.88373758 0.0018976534 0)
(0.87519533 0.0016737575 0)
(0.86670273 0.0014810401 0)
(0.85825865 0.0013262449 0)
(0.85006114 0.0012215358 0)
(0.84217486 0.001165111 0)
(0.83452593 0.0011453169 0)
(0.82694604 0.001150579 0)
(0.81945196 0.0011577562 0)
(0.81206547 0.0011641686 0)
(0.8047728 0.0011651277 0)
(0.79758104 0.0011577789 0)
(0.7905181 0.0011405684 0)
(0.78360174 0.0011146044 0)
(0.77683441 0.0010817167 0)
(0.77022481 0.0010430211 0)
(0.76378402 0.0010004154 0)
(0.75751425 0.00095560211 0)
(0.75141505 0.0009097393 0)
(0.74548797 0.00086367825 0)
(0.73973415 0.00081835751 0)
(0.73415167 0.00077417807 0)
(0.72873841 0.00073156288 0)
(0.72348983 0.0006912508 0)
(0.71839988 0.00065340136 0)
(0.71346263 0.00061879158 0)
(0.70867248 0.00058732792 0)
(0.70402511 0.00055788245 0)
(0.69951531 0.0005306398 0)
(0.69513652 0.00050546094 0)
(0.69088262 0.00048233875 0)
(0.68674576 0.0004614088 0)
(0.68271796 0.00044213064 0)
(0.67879163 0.00042444778 0)
(0.67495912 0.00040796842 0)
(0.67121364 0.00039257968 0)
(0.6675481 0.00037816007 0)
(0.66395634 0.00036452089 0)
(0.66043225 0.00035172398 0)
(0.65697001 0.00033957887 0)
(0.65356336 0.00032813348 0)
(0.65020754 0.00031760183 0)
(0.6468909 0.00030741443 0)
(0.64362168 0.00029999087 0)
(0.64033852 0.0002891403 0)
(0.63717451 0.00029461918 0)
(0.63370076 0.00034101032 0)
(0.63085634 0.00041013748 0)
(0.62538908 0.00035508884 0)
(0.98153565 0.021000083 0)
(0.98451001 0.024975453 0)
(0.98886103 0.027626452 0)
(0.99362953 0.0285689 0)
(0.998051 0.027961683 0)
(1.0016058 0.026237471 0)
(1.0040511 0.023991539 0)
(1.0054768 0.021779142 0)
(1.0062082 0.019902764 0)
(1.0065871 0.018410405 0)
(1.0068289 0.017222485 0)
(1.0070212 0.016246454 0)
(1.0071901 0.015418972 0)
(1.0073439 0.014693128 0)
(1.0074821 0.014041983 0)
(1.0076038 0.013454072 0)
(1.0077117 0.012920435 0)
(1.0078092 0.012429584 0)
(1.0078912 0.011976133 0)
(1.0079613 0.011557104 0)
(1.0080185 0.011167438 0)
(1.0080759 0.01080058 0)
(1.0081128 0.01045501 0)
(1.0081206 0.010130555 0)
(1.0081068 0.0098233935 0)
(1.008062 0.0095300784 0)
(1.0079766 0.009248953 0)
(1.007837 0.0089789253 0)
(1.0076283 0.0087180009 0)
(1.0073306 0.0084635188 0)
(1.0069249 0.0082145926 0)
(1.0063786 0.0079704945 0)
(1.0056584 0.0077294844 0)
(1.0047373 0.0074896536 0)
(1.0035947 0.0072479395 0)
(1.002187 0.0070022787 0)
(1.000508 0.0067537256 0)
(0.99854226 0.0065022494 0)
(0.99627311 0.0062464785 0)
(0.99368214 0.0059850372 0)
(0.99074936 0.0057174837 0)
(0.98745301 0.0054430405 0)
(0.98376952 0.0051600766 0)
(0.97967366 0.0048679951 0)
(0.97513523 0.00456673 0)
(0.97011641 0.004259524 0)
(0.96461628 0.0039497234 0)
(0.95865265 0.0036404642 0)
(0.95223999 0.0033369792 0)
(0.9453964 0.0030437828 0)
(0.93814838 0.0027651759 0)
(0.93053534 0.0025060058 0)
(0.92261479 0.0022716537 0)
(0.91445592 0.0020656238 0)
(0.90610311 0.0018916979 0)
(0.89768611 0.0017600518 0)
(0.88943411 0.0016734331 0)
(0.88137011 0.001622297 0)
(0.87347775 0.0016011628 0)
(0.86572638 0.0015904502 0)
(0.85803257 0.0015821754 0)
(0.85033025 0.0015682787 0)
(0.8426774 0.0015440419 0)
(0.83511191 0.0015093977 0)
(0.82763123 0.0014662202 0)
(0.82024971 0.0014159731 0)
(0.81299785 0.001359847 0)
(0.80589414 0.0013002449 0)
(0.79894227 0.0012390913 0)
(0.79215095 0.0011774171 0)
(0.78553113 0.0011160642 0)
(0.77908719 0.0010561539 0)
(0.77281952 0.00099809476 0)
(0.76672994 0.00094228454 0)
(0.76081691 0.00088954332 0)
(0.75507633 0.00084000082 0)
(0.74950508 0.00079438505 0)
(0.74409958 0.00075257012 0)
(0.73885603 0.00071337826 0)
(0.73376997 0.00067700009 0)
(0.72883619 0.00064326217 0)
(0.72404964 0.00061215266 0)
(0.71940325 0.00058381714 0)
(0.71488951 0.00055766441 0)
(0.71050075 0.00053362339 0)
(0.70622894 0.0005112546 0)
(0.70206665 0.00049041654 0)
(0.69800598 0.00047095665 0)
(0.69403972 0.00045264602 0)
(0.69016062 0.00043552922 0)
(0.68636171 0.00041938561 0)
(0.6826356 0.00040424323 0)
(0.67897633 0.00039033684 0)
(0.67537139 0.00037697969 0)
(0.67182729 0.00036696503 0)
(0.66828388 0.00035316543 0)
(0.6648665 0.00035755326 0)
(0.66116082 0.00040029664 0)
(0.65810175 0.00047410612 0)
(0.65232281 0.00041192792 0)
(0.98290897 0.020275787 0)
(0.98559073 0.023806316 0)
(0.98944892 0.026233433 0)
(0.99371515 0.027193638 0)
(0.99774279 0.026790591 0)
(1.0010653 0.025375244 0)
(1.0034459 0.023438967 0)
(1.0049269 0.021460121 0)
(1.0057613 0.019726211 0)
(1.0062382 0.018307796 0)
(1.0065536 0.017154972 0)
(1.0067969 0.016195523 0)
(1.0070005 0.015376015 0)
(1.0071781 0.014656224 0)
(1.0073345 0.014010591 0)
(1.0074717 0.01342689 0)
(1.007594 0.01289626 0)
(1.0077049 0.012408568 0)
(1.0078053 0.011957847 0)
(1.0078966 0.011540783 0)
(1.0079811 0.011152663 0)
(1.0080597 0.010788131 0)
(1.0081292 0.010445315 0)
(1.0081913 0.010122747 0)
(1.0082463 0.0098174372 0)
(1.0082949 0.0095257889 0)
(1.0083426 0.0092471959 0)
(1.008361 0.0089813934 0)
(1.0083639 0.0087254185 0)
(1.0083438 0.008477724 0)
(1.0082938 0.0082374946 0)
(1.0082035 0.0080029453 0)
(1.0080613 0.0077725537 0)
(1.0078517 0.0075448588 0)