# Probe 0 (1.95 0 0)
# Probe 1 (1.95 1e-10 0)
# Probe 2 (1.95 1e-07 0)
#         Probe               0               1               2
#          Time
           2000   0.00043630789   0.00043630789   0.00043630789
