# Probe 0 (1.95 0 0)
# Probe 1 (1.95 1e-10 0)
# Probe 2 (1.95 1e-07 0)
#         Probe               0               1               2
#          Time
           2000               (6.3121781e-05 3.7472816e-12 2.5825224e-24)               (6.3121781e-05 3.7472816e-12 2.5825224e-24)               (6.3121781e-05 3.7472816e-12 2.5825224e-24)
