/*--------------------------------*- C++ -*----------------------------------*\
| =========                 |                                                 |
| \\      /  F ield         | OpenFOAM: The Open Source CFD Toolbox           |
|  \\    /   O peration     | Version:  2206                                  |
|   \\  /    A nd           | Website:  www.openfoam.com                      |
|    \\/     M anipulation  |                                                 |
\*---------------------------------------------------------------------------*/
FoamFile
{
    version     2.0;
    format      ascii;
    arch        "LSB;label=32;scalar=64";
    class       volScalarField;
    location    "900";
    object      epsilon;
}
// * * * * * * * * * * * * * * * * * * * * * * * * * * * * * * * * * * * * * //

dimensions      [0 2 -3 0 0 0 0];

internalField   nonuniform List<scalar> 
13056
(
0.0086460538
0.0085801275
0.0085445893
0.0085268576
0.0085162474
0.008508935
0.0085035461
0.008499447
0.0084962741
0.0084937957
0.0084918582
0.0084903591
0.0084892333
0.008488445
0.0084879893
0.0084878925
0.0084882504
0.0084891958
0.0084912678
0.0084946839
0.0085032929
0.0085184579
0.0085426998
0.011204341
0.030454348
0.0018034827
0.0051198786
0.00036870198
0.0019505892
0.00018449316
0.001136805
0.00011855223
0.00077438865
0.00061861004
0.00056841642
0.00049086096
0.00044219998
0.0003960751
0.00035913663
0.00032714518
0.00029979206
0.00027603025
0.00025526029
0.00023696583
0.00022074791
0.00020628726
0.00019332253
0.000181642
0.00017107084
0.00016146409
0.00015270008
0.00014467614
0.00013730526
0.00013051315
0.00012423618
0.00011841963
0.00011301575
0.00010798284
0.00010328424
9.8887041e-05
9.4759292e-05
9.087389e-05
8.7219775e-05
8.3777316e-05
8.0528799e-05
7.7458398e-05
7.4552006e-05
7.1796896e-05
6.9181561e-05
6.6695659e-05
6.4329883e-05
6.2075688e-05
5.9925257e-05
5.7871526e-05
5.5908025e-05
5.4028845e-05
5.222855e-05
5.0502147e-05
4.8845132e-05
4.7253313e-05
4.5722751e-05
4.4249848e-05
4.2831282e-05
4.1463967e-05
4.0145048e-05
3.8871857e-05
3.7641927e-05
3.6453012e-05
3.5302966e-05
3.418976e-05
3.311153e-05
3.2066529e-05
3.105312e-05
3.0069768e-05
2.9115028e-05
2.8187584e-05
2.7286178e-05
2.64096e-05
2.5556725e-05
2.4726493e-05
2.3917909e-05
2.3130027e-05
2.2361955e-05
2.1612873e-05
2.088198e-05
2.0168521e-05
1.9471786e-05
1.8791102e-05
1.8125821e-05
1.7475349e-05
1.6839131e-05
1.6216584e-05
1.5607477e-05
1.5024851e-05
1.4484962e-05
1.3989249e-05
1.3532952e-05
1.3111826e-05
1.2721949e-05
1.2359913e-05
1.2022776e-05
1.1707973e-05
1.1413258e-05
1.1136662e-05
1.0876446e-05
1.063104e-05
1.0399023e-05
1.017907e-05
9.9699636e-06
9.7703331e-06
9.579167e-06
9.3939076e-06
9.2157293e-06
9.0319366e-06
8.8751244e-06
8.6453977e-06
0.0086445554
0.008578526
0.0085429262
0.0085251607
0.0085145291
0.0085072012
0.0085018005
0.0084976918
0.0084945107
0.0084920252
0.0084900809
0.008488575
0.0084874417
0.0084866449
0.0084861786
0.0084860679
0.0084864063
0.0084873242
0.0084893499
0.0084927011
0.0085011465
0.0085161293
0.0085392289
0.011201137
0.02990251
0.0017929535
0.0050687719
0.00038479184
0.0019605409
0.00021944134
0.0011589624
0.00024271774
0.00080033258
0.00064776796
0.00059585377
0.00051939492
0.00047036023
0.00042439389
0.00038733879
0.0003552655
0.00032778354
0.00030388059
0.00028295634
0.00026450055
0.00024811712
0.00023348833
0.00022035472
0.00020850571
0.00019776735
0.00018799524
0.00017906811
0.00017088355
0.00016335474
0.00015640743
0.00014997806
0.0001440118
0.00013846085
0.00013328334
0.00012844242
0.00012390502
0.00011964058
0.00011562664
0.00011184648
0.00010828027
0.00010491017
0.00010172015
9.869612e-05
9.5825283e-05
9.3096048e-05
9.0497986e-05
8.8021715e-05
8.565861e-05
8.3400778e-05
8.1241078e-05
7.9172971e-05
7.7190477e-05
7.5288094e-05
7.3460763e-05
7.1703915e-05
7.0013301e-05
6.8384926e-05
6.6815131e-05
6.5300542e-05
6.3838018e-05
6.2424654e-05
6.1057732e-05
5.9734737e-05
5.845337e-05
5.7211453e-05
5.6006906e-05
5.4837822e-05
5.3702414e-05
5.2599003e-05
5.1526014e-05
5.0481965e-05
4.9465515e-05
4.8475369e-05
4.7510275e-05
4.6569067e-05
4.5650649e-05
4.4753988e-05
4.3878102e-05
4.3022063e-05
4.2185008e-05
4.1366068e-05
4.0564481e-05
3.9779504e-05
3.9010432e-05
3.8256587e-05
3.7517344e-05
3.679212e-05
3.6080376e-05
3.5381722e-05
3.4712203e-05
3.409112e-05
3.3520164e-05
3.2993918e-05
3.2507525e-05
3.2056526e-05
3.163707e-05
3.1245842e-05
3.0879965e-05
3.0536911e-05
3.0214471e-05
2.9910691e-05
2.9623806e-05
2.9352217e-05
2.909444e-05
2.8849107e-05
2.8614646e-05
2.8389928e-05
2.8171909e-05
2.7962258e-05
2.7745457e-05
2.7561355e-05
2.728839e-05
0.008639797
0.0085734497
0.0085376609
0.0085197922
0.0085090952
0.0085017207
0.0084962846
0.0084921479
0.0084889442
0.0084864394
0.0084844784
0.0084829572
0.008481809
0.0084809969
0.0084805135
0.0084803825
0.0084806944
0.0084815764
0.0084835441
0.0084868155
0.0084950598
0.0085098337
0.0085314368
0.01119119
0.029354151
0.001782115
0.0050151027
0.00040065062
0.0019686526
0.00025424445
0.0011796409
0.00036222459
0.00082503196
0.00067565672
0.00062224159
0.00054687326
0.00049756615
0.00045179097
0.00041467103
0.00038255393
0.00035498003
0.00033096868
0.00030992023
0.00029133057
0.00027480697
0.00026003347
0.00024675272
0.00023475549
0.00022386885
0.00021394911
0.00020487553
0.00019654609
0.00018887421
0.00018178584
0.00017521747
0.00016911435
0.00016342865
0.00015811851
0.00015314707
0.00014848156
0.00014409322
0.00013996038
0.00013606336
0.00013238221
0.00012889901
0.00012559755
0.00012246377
0.00011948482
0.00011664905
0.00011394595
0.00011136608
0.00010890076
0.00010654201
0.00010428265
0.00010211607
0.00010003622
9.8037555e-05
9.6114953e-05
9.4263789e-05
9.2479765e-05
9.0758834e-05
8.9097287e-05
8.7491698e-05
8.5938882e-05
8.4435888e-05
8.2979953e-05
8.1568518e-05
8.0199237e-05
7.8869902e-05
7.7578389e-05
7.6322751e-05
7.5101161e-05
7.3911906e-05
7.2753373e-05
7.1624043e-05
7.0522559e-05
6.9447586e-05
6.8397836e-05
6.7372104e-05
6.636926e-05
6.5388235e-05
6.4428014e-05
6.3487633e-05
6.2566192e-05
6.1662754e-05
6.0776551e-05
5.9906811e-05
5.9052798e-05
5.8213802e-05
5.7389174e-05
5.6578302e-05
5.5780692e-05
5.4995797e-05
5.4242584e-05
5.3543303e-05
5.289988e-05
5.230626e-05
5.1756997e-05
5.1247112e-05
5.077233e-05
5.0328976e-05
4.9913871e-05
4.9524223e-05
4.9157585e-05
4.8811801e-05
4.8484918e-05
4.8175165e-05
4.7880907e-05
4.7600631e-05
4.733257e-05
4.7075484e-05
4.6825858e-05
4.6585845e-05
4.6337184e-05
4.6126762e-05
4.5812038e-05
0.0086316291
0.0085647387
0.0085286271
0.0085105821
0.0084997736
0.00849232
0.0084868239
0.0084826402
0.0084793985
0.0084768623
0.0084748744
0.0084733295
0.0084721596
0.0084713262
0.0084708207
0.0084706651
0.0084709467
0.0084717895
0.0084736961
0.0084768851
0.0084849218
0.0084994977
0.0085194533
0.011174557
0.028801369
0.0017706692
0.0049573501
0.00041607689
0.0019743103
0.00028862566
0.0011984483
0.00047323481
0.00084819072
0.00070202794
0.00064733005
0.00057307202
0.00052360002
0.00047806156
0.00044093601
0.00040882059
0.00038119756
0.00035711572
0.00033597753
0.00031728529
0.0003006502
0.00028575835
0.00027235478
0.00026023187
0.00024921791
0.00023917011
0.00022996842
0.00022151133
0.00021371262
0.00020649853
0.00019980575
0.00019357967
0.00018777257
0.00018234269
0.00017725337
0.00017247238
0.00016797222
0.00016373062
0.00015972642
0.00015593962
0.00015235224
0.0001489479
0.00014571262
0.00014263351
0.00013969887
0.00013689814
0.00013422185
0.00013166124
0.0001292083
0.00012685579
0.00012459705
0.000122426
0.00012033702
0.00011832496
0.00011638514
0.00011451322
0.00011270511
0.00011095707
0.00010926561
0.00010762751
0.00010603979
0.00010449964
0.00010300447
0.00010155188
0.00010013964
9.8765597e-05
9.7427753e-05
9.6124256e-05
9.4853355e-05
9.3613407e-05
9.2402858e-05
9.1220337e-05
9.0064475e-05
8.8933948e-05
8.7827516e-05
8.6744017e-05
8.568235e-05
8.4641467e-05
8.3620375e-05
8.2618131e-05
8.1633737e-05
8.0666422e-05
7.9715383e-05
7.8779857e-05
7.7859106e-05
7.6952454e-05
7.6059265e-05
7.5179088e-05
7.4311223e-05
7.3477473e-05
7.2702937e-05
7.1989764e-05
7.1331285e-05
7.0721486e-05
7.0154889e-05
6.962681e-05
6.9133232e-05
6.8670687e-05
6.8236124e-05
6.7826876e-05
6.7440589e-05
6.707513e-05
6.6728562e-05
6.639911e-05
6.6085118e-05
6.5784634e-05
6.5496309e-05
6.5216174e-05
6.4946853e-05
6.4667425e-05
6.4431602e-05
6.4076517e-05
0.0086198176
0.0085521423
0.0085155641
0.0084972643
0.008486295
0.0084787269
0.0084731444
0.0084688931
0.0084655971
0.0084630162
0.0084609907
0.0084594132
0.0084582139
0.0084573529
0.0084568199
0.0084566349
0.008456882
0.0084576821
0.0084595237
0.0084626273
0.0084704488
0.0084848373
0.008502978
0.011150805
0.028236951
0.0017583224
0.0048939882
0.0004308455
0.0019768561
0.00032226551
0.001214946
0.00057300665
0.00086946732
0.00072658507
0.00067082605
0.00059772313
0.00054820208
0.00050295923
0.00046589571
0.00043383562
0.00040621288
0.00038210426
0.00036091581
0.00034215672
0.00032544267
0.00031046226
0.00029696326
0.00028473997
0.00027362214
0.00026346811
0.00025415867
0.00024559301
0.00023768543
0.00023036255
0.00022356142
0.00021722763
0.00021131371
0.00020577815
0.00020058459
0.00019570133
0.00019110158
0.00018676214
0.00018266118
0.00017877871
0.00017509672
0.0001715987
0.00016827075
0.00016509998
0.00016207466
0.00015918421
0.00015641911
0.00015377058
0.00015123059
0.00014879184
0.00014644765
0.00014419189
0.00014201892
0.00013992354
0.00013790104
0.00013594704
0.00013405742
0.0001322284
0.00013045647
0.00012873836
0.00012707106
0.00012545173
0.00012387775
0.00012234668
0.00012085626
0.00011940432
0.00011798881
0.00011660787
0.00011525971
0.00011394265
0.00011265512
0.00011139573
0.00011016307
0.00010895581
0.00010777265
0.00010661242
0.00010547397
0.00010435624
0.0001032582
0.00010217887
0.00010111719
0.00010007239
9.9043641e-05
9.8030148e-05
9.7031151e-05
9.6045948e-05
9.5073879e-05
9.4114538e-05
9.3167072e-05
9.225603e-05
9.1409251e-05
9.0629102e-05
8.9908324e-05
8.924036e-05
8.8619254e-05
8.8039934e-05
8.7498055e-05
8.6989872e-05
8.6512089e-05
8.6061828e-05
8.5636544e-05
8.5233936e-05
8.4851909e-05
8.4488549e-05
8.4142069e-05
8.3810336e-05
8.3491901e-05
8.318235e-05
8.2884773e-05
8.2575663e-05
8.2315351e-05
8.1921292e-05
0.0086040459
0.0085353215
0.0084981193
0.0084794789
0.0084682943
0.0084605734
0.0084548755
0.008450534
0.0084471658
0.0084445258
0.0084424507
0.0084408307
0.0084395937
0.0084386981
0.0084381316
0.0084379121
0.0084381201
0.0084388731
0.0084406457
0.0084436605
0.0084512579
0.0084654701
0.0084816111
0.011119353
0.02765431
0.001744783
0.0048234717
0.00044470097
0.0019755778
0.00035478961
0.0012286387
0.00065991757
0.00088846586
0.00074897516
0.00069238458
0.00062050616
0.0005710623
0.0005261878
0.00048926347
0.00045732128
0.00042975571
0.00040567053
0.00038447703
0.00036569183
0.00034893584
0.00033390066
0.00032033723
0.00030804209
0.0002968468
0.00028661104
0.00027721671
0.00026856385
0.00026056744
0.00025315467
0.00024626301
0.00023983846
0.00023383386
0.00022820805
0.00022292506
0.00021795365
0.00021326725
0.00020884196
0.0002046557
0.00020068852
0.0001969224
0.00019334075
0.00018992979
0.00018667664
0.00018356958
0.00018059802
0.00017775242
0.00017502401
0.00017240473
0.00016988725
0.00016746488
0.00016513147
0.00016288136
0.00016070931
0.0001586106
0.00015658082
0.00015461583
0.00015271182
0.00015086524
0.00014907281
0.0001473315
0.00014563843
0.00014399095
0.0001423866
0.00014082312
0.00013929827
0.00013781001
0.00013635643
0.00013493573
0.0001335462
0.00013218625
0.00013085447
0.00012954945
0.00012826979
0.00012701419
0.00012578144
0.00012457038
0.00012337991
0.00012220897
0.00012105655
0.00011992153
0.00011880314
0.00011770054
0.00011661289
0.00011553942
0.0001144794
0.00011343214
0.00011239729
0.00011137384
0.00011038898
0.00010947318
0.00010862901
0.00010784866
0.00010712504
0.00010645177
0.00010582338
0.00010523524
0.00010468332
0.0001041641
0.00010367451
0.00010321182
0.00010277357
0.00010235751
0.00010196159
0.00010158391
0.00010122217
0.0001008748
0.00010053698
0.00010021224
9.9874591e-05
9.9590745e-05
9.9159158e-05
0.0085839176
0.0085138516
0.0084758508
0.0084567742
0.0084453141
0.0084373976
0.008431552
0.0084270953
0.0084236349
0.0084209197
0.0084187819
0.0084171084
0.0084158246
0.0084148866
0.0084142799
0.0084140199
0.0084141836
0.0084148851
0.008416584
0.0084195059
0.0084268696
0.0084409179
0.0084548555
0.011079479
0.02704747
0.0017297616
0.0047442334
0.00045735402
0.0019697047
0.0003857616
0.0012389713
0.00073330811
0.00090473245
0.00076878543
0.00071160498
0.00064104483
0.00059181658
0.0005473977
0.00051070028
0.00047894831
0.00045150499
0.00042750077
0.00040635378
0.00038758893
0.0003708331
0.00035578152
0.00034218877
0.00032985411
0.0003186112
0.00030832139
0.00029886792
0.0002901519
0.0002820892
0.00027460772
0.00026764554
0.00026114914
0.00025507184
0.00024937289
0.00024401675
0.00023897251
0.00023421367
0.00022971589
0.00022545708
0.00022141736
0.00021757878
0.00021392468
0.00021044143
0.00020711621
0.00020393733
0.00020089421
0.00019797734
0.00019517794
0.00019248796
0.00018990008
0.0001874076
0.00018500436
0.00018268469
0.00018044335
0.00017827559
0.000176177
0.00017414343
0.00017217103
0.00017025626
0.00016839583
0.00016658665
0.00016482586
0.00016311077
0.00016143891
0.000159808
0.00015821578
0.00015666019
0.00015513931
0.0001536513
0.00015219445
0.00015076712
0.00014936794
0.00014799543
0.00014664819
0.0001453249
0.00014402432
0.00014274525
0.00014148658
0.00014024724
0.00013902617
0.0001378222
0.00013663456
0.00013546238
0.00013430481
0.00013316106
0.00013203036
0.00013091203
0.00012980573
0.00012871033
0.00012765552
0.00012667426
0.00012576934
0.00012493242
0.00012415595
0.00012343308
0.00012275803
0.00012212586
0.00012153231
0.00012097363
0.00012044657
0.00011994822
0.00011947597
0.00011902744
0.00011860046
0.000118193
0.00011780259
0.00011742759
0.00011706276
0.00011671207
0.00011634712
0.00011604078
0.00011557325
0.0085589586
0.0084872242
0.0084482291
0.0084286096
0.0084168064
0.0084086463
0.0084026169
0.0083980169
0.008394442
0.0083916335
0.0083894181
0.0083876788
0.0083863379
0.0083853486
0.0083846941
0.0083843873
0.0083845009
0.0083851457
0.0083867657
0.0083895905
0.0083967098
0.0084106084
0.0084221175
0.011030328
0.026411084
0.0017129732
0.0046546952
0.00046848163
0.0019584122
0.0004146821
0.001245331
0.00079322826
0.00091775694
0.00078554527
0.0007280321
0.00065890828
0.00061004783
0.00056618701
0.00052981566
0.00049833671
0.00047108969
0.00044723188
0.00042619002
0.00040749825
0.00039079031
0.00037576582
0.00036218353
0.00034984589
0.0003385891
0.00032827649
0.00031879294
0.00031004089
0.0003019373
0.00029441096
0.00028740072
0.00028085371
0.0002747238
0.00026897076
0.00026355949
0.00025845936
0.0002536439
0.00024908865
0.0002447716
0.00024067303
0.00023677507
0.00023306107
0.00022951757
0.00022613185
0.00022289227
0.00021978832
0.00021681052
0.00021395012
0.0002111991
0.00020855016
0.00020599662
0.00020353232
0.00020115161
0.00019884926
0.0001966205
0.00019446094
0.00019236641
0.00019033308
0.00018835738
0.00018643601
0.0001845659
0.00018274416
0.0001809681
0.00017923522
0.00017754324
0.00017588989
0.0001742731
0.00017269092
0.00017114151
0.00016962313
0.00016813415
0.00016667317
0.00016523872
0.00016382936
0.00016244374
0.00016108062
0.00015973878
0.00015841709
0.00015711443
0.00015582975
0.00015456181
0.00015330984
0.00015207296
0.0001508503
0.00014964103
0.0001484444
0.00014725967
0.00014608656
0.00014492382
0.00014380346
0.00014276082
0.00014179889
0.00014090883
0.00014008266
0.00013931313
0.00013859416
0.00013792051
0.00013728772
0.00013669183
0.0001361294
0.00013559738
0.00013509302
0.0001346138
0.00013415745
0.00013372182
0.00013330429
0.00013290314
0.00013251273
0.00013213746
0.00013174664
0.00013141899
0.00013091733
0.0085286197
0.0084548498
0.0084146403
0.0083943572
0.0083821348
0.0083736769
0.008367423
0.0083626479
0.0083589333
0.008356011
0.0083537014
0.0083518824
0.0083504727
0.0083494223
0.0083487116
0.0083483504
0.0083484076
0.0083489898
0.0083505253
0.0083532482
0.0083601115
0.0083738768
0.0083827084
0.010970923
0.025740492
0.0016941431
0.0045532916
0.00047773064
0.0019408334
0.00044099385
0.0012470564
0.00084016248
0.00092698019
0.00079873334
0.00074116272
0.00067361733
0.00062529187
0.0005821071
0.00054617318
0.00051506109
0.00048809396
0.00046445649
0.00044358593
0.00042502678
0.00040842058
0.00039347221
0.00037994524
0.00036764583
0.00035641317
0.00034611298
0.00033663208
0.00032787453
0.00031975861
0.00031221423
0.00030518117
0.00029860734
0.00029244733
0.00028666147
0.00028121514
0.00027607799
0.0002712237
0.00026662787
0.00026226871
0.00025812669
0.00025418411
0.00025042433
0.00024683416
0.00024340099
0.00024011328
0.0002369606
0.00023393353
0.00023102342
0.00022822227
0.00022552283
0.00022291845
0.00022040303
0.00021797092
0.00021561692
0.00021333628
0.00021112462
0.00020897779
0.00020689195
0.00020486356
0.00020288931
0.00020096614
0.00019909114
0.00019726164
0.00019547513
0.00019372933
0.00019202196
0.00019035094
0.00018871432
0.00018711025
0.00018553699
0.00018399287
0.00018247653
0.00018098646
0.00017952122
0.00017807945
0.00017665987
0.00017526126
0.00017388247
0.00017252237
0.00017117988
0.00016985369
0.00016854308
0.00016724712
0.00016596493
0.00016469568
0.00016343858
0.00016219288
0.00016095835
0.00015973359
0.00015855281
0.00015745351
0.00015643889
0.00015549968
0.00015462748
0.00015381472
0.00015305499
0.00015234284
0.00015167358
0.00015104308
0.00015044774
0.00014988438
0.0001493501
0.00014884227
0.00014835852
0.0001478966
0.00014745375
0.00014702816
0.00014661385
0.00014621559
0.00014580056
0.000145453
0.00014491932
0.0084922784
0.0084160595
0.0083743869
0.008353304
0.0083405761
0.0083317593
0.0083252347
0.0083202486
0.0083163658
0.0083133067
0.0083108838
0.0083089694
0.0083074776
0.008306355
0.0083055784
0.0083051547
0.0083051479
0.0083056612
0.0083071056
0.0083097216
0.0083163164
0.0083299674
0.0083358452
0.010900172
0.025031819
0.0016730149
0.0044385069
0.00048472506
0.0019160784
0.000464093
0.0012434521
0.00087478887
0.00093180676
0.00080778991
0.00075045687
0.00068465557
0.00063704791
0.00059467294
0.0005593004
0.00052866039
0.00050206665
0.00047873231
0.00045810713
0.00043974724
0.00042330311
0.00040848577
0.00039506436
0.00038284934
0.0003716834
0.00036143508
0.00035199351
0.00034326466
0.00033516841
0.00032763601
0.00032060836
0.00031403434
0.00030786934
0.00030207437
0.00029661535
0.00029146226
0.00028658911
0.00028197172
0.00027758859
0.00027342047
0.00026944986
0.00026566026
0.00026203871
0.0002585728
0.00025525113
0.00025206338
0.00024900025
0.00024605316
0.00024321421
0.00024047622
0.0002378326
0.00023527729
0.00023280471
0.00023040968
0.0002280875
0.00022583382
0.00022364452
0.00022151577
0.00021944406
0.0002174261
0.00021545882
0.00021353935
0.00021166502
0.00020983331
0.00020804196
0.0002062887
0.00020457144
0.00020288823
0.00020123723
0.00019961668
0.00019802493
0.00019646061
0.00019492221
0.00019340828
0.00019191744
0.00019044842
0.00018899997
0.00018757093
0.00018616017
0.00018476657
0.00018338879
0.00018202611
0.0001806776
0.00017934236
0.00017801954
0.00017670834
0.00017540801
0.00017411832
0.00017283779
0.00017160257
0.00017045213
0.00016938988
0.00016840617
0.00016749226
0.00016664025
0.0001658435
0.00016509632
0.00016439386
0.00016373183
0.00016310647
0.00016251449
0.00016195287
0.00016141888
0.00016091006
0.00016042407
0.00015995802
0.00015951004
0.0001590738
0.00015865444
0.00015821717
0.00015785133
0.00015728813
0.0084492413
0.0083701074
0.0083266905
0.0083046535
0.0082913223
0.0082820772
0.0082752297
0.0082699919
0.0082659083
0.0082626862
0.0082601287
0.008258101
0.0082565122
0.0082553046
0.0082544513
0.0082539556
0.0082538767
0.0082543137
0.00825566
0.0082581632
0.0082644759
0.0082780347
0.0082806519
0.010816882
0.024282096
0.0016493615
0.0043089265
0.00048907684
0.0018832618
0.00048334652
0.0012338097
0.00089780243
0.00093162273
0.00081213401
0.00075535395
0.00069148501
0.00064479368
0.00060337773
0.00056870313
0.00053865182
0.00051253497
0.00048959548
0.00046929778
0.00045121108
0.00043499592
0.0004203706
0.00040711052
0.00039503119
0.00038397931
0.00037382671
0.00036446525
0.00035580314
0.00034776215
0.00034027511
0.00033328427
0.00032673963
0.00032059752
0.00031481978
0.00030937294
0.00030422745
0.00029935774
0.00029474007
0.00029035329
0.0002861785
0.0002821985
0.00027839693
0.00027476119
0.00027127908
0.00026793938
0.00026473193
0.00026164757
0.00025867787
0.00025581502
0.00025305195
0.00025038216
0.00024779967
0.00024529897
0.00024287493
0.00024052293
0.00023823865
0.00023601801
0.00023385724
0.00023175285
0.00022970158
0.0002277004
0.00022574645
0.00022383707
0.00022196978
0.00022014233
0.00021835245
0.00021659808
0.00021487727
0.00021318818
0.00021152906
0.00020989827
0.00020829444
0.00020671608
0.00020516172
0.00020362999
0.00020211958
0.00020062928
0.0001991579
0.0001977043
0.00019626736
0.00019484568
0.00019343856
0.00019204506
0.00019066429
0.00018929537
0.00018793748
0.00018658987
0.00018525235
0.00018392334
0.00018264066
0.00018144555
0.00018034159
0.00017931885
0.00017836828
0.00017748173
0.00017665232
0.00017587422
0.00017514241
0.00017445245
0.00017380048
0.0001731831
0.00017259719
0.00017203993
0.0001715088
0.00017100137
0.00017051464
0.00017004667
0.00016959084
0.00016915263
0.00016869547
0.00016831328
0.00016772357
0.0083987464
0.0083161725
0.008270693
0.0082475272
0.0082334822
0.0082237301
0.0082165003
0.0082109646
0.0082066437
0.0082032289
0.0082005122
0.008198351
0.0081966482
0.0081953413
0.0081943989
0.0081938206
0.0081936601
0.0081940126
0.0081952528
0.0081976371
0.0082036527
0.0082171446
0.0082161604
0.010719771
0.023489394
0.0016229996
0.004163302
0.00049040002
0.0018415371
0.00049811523
0.0012174345
0.0009098101
0.00092581865
0.00081118554
0.00075529348
0.0006935662
0.00064800476
0.00060771179
0.00057388382
0.00054454881
0.00051902204
0.00049657783
0.00047669759
0.00045896515
0.00044305241
0.00042868604
0.00041564862
0.00040376137
0.00039287564
0.00038286705
0.0003736306
0.00036507714
0.00035713064
0.00034972576
0.00034280634
0.00033632367
0.00033023523
0.00032450377
0.00031909658
0.00031398473
0.00030914326
0.00030454893
0.00030018108
0.00029602125
0.00029205258
0.00028825897
0.0002846282
0.00028114833
0.00027780838
0.0002745984
0.00027150944
0.00026853319
0.00026566201
0.00026288897
0.00026020768
0.00025761227
0.00025509731
0.00025265779
0.00025028913
0.00024798711
0.0002457477
0.00024356719
0.00024144212
0.00023936931
0.00023734575
0.00023536862
0.0002334353
0.00023154333
0.00022969048
0.00022787453
0.00022609342
0.00022434522
0.00022262811
0.00022094035
0.00021928031
0.00021764665
0.00021603788
0.00021445254
0.00021288926
0.00021134673
0.00020982373
0.00020831909
0.00020683165
0.00020536028
0.00020390355
0.00020246078
0.00020103103
0.0001996134
0.000198207
0.00019681101
0.00019542466
0.0001940478
0.00019267876
0.00019135676
0.0001901245
0.00018898575
0.00018793035
0.00018694902
0.00018603341
0.00018517649
0.00018437227
0.0001836156
0.00018290197
0.0001822274
0.00018158841
0.00018098181
0.00018040469
0.00017985449
0.00017932872
0.00017882428
0.00017833917
0.00017786653
0.00017741212
0.00017693784
0.00017654161
0.00017592895
0.0083399659
0.0082533614
0.0082054601
0.0081809676
0.0081660835
0.0081557353
0.008148056
0.0081421702
0.0081375703
0.008133929
0.0081310256
0.008128708
0.008126872
0.0081254493
0.0081244039
0.0081237309
0.0081234783
0.0081237369
0.0081248621
0.0081271206
0.0081328228
0.0081462769
0.0081413131
0.010607482
0.022652972
0.0015938062
0.0040006302
0.00048832809
0.0017901395
0.00050778214
0.0011936784
0.00091129052
0.00091381739
0.00080439179
0.00074974035
0.00069038256
0.0006461781
0.00060718534
0.00057436375
0.00054588271
0.00052106816
0.00049922779
0.00047986234
0.00046257195
0.00044704123
0.00043300645
0.00042025825
0.00040862437
0.00039796143
0.0003881494
0.00037908688
0.00037068774
0.00036287847
0.0003555959
0.00034878564
0.00034240055
0.00033639937
0.00033074597
0.00032540853
0.0003203589
0.00031557289
0.0003110279
0.00030670386
0.0003025828
0.00029864834
0.00029488467
0.00029128002
0.00028782279
0.00028450228
0.0002813088
0.00027823362
0.00027526865
0.00027240643
0.0002696402
0.00026696372
0.00026437126
0.00026185751
0.00025941756
0.00025704696
0.00025474155
0.0002524974
0.00025031087
0.00024817859
0.00024609741
0.00024406439
0.00024207677
0.00024013197
0.00023822757
0.00023636138
0.00023453123
0.00023273506
0.00023097099
0.00022923722
0.00022753205
0.00022585384
0.00022420131
0.00022257296
0.00022096736
0.00021938313
0.00021781898
0.0002162737
0.00021474612
0.00021323509
0.00021173947
0.00021025779
0.00020878942
0.00020733341
0.00020588885
0.00020445486
0.00020303062
0.00020161534
0.00020020889
0.00019880957
0.00019745763
0.0001961969
0.00019503135
0.00019395067
0.00019294543
0.00019200715
0.00019112867
0.00019030392
0.00018952766
0.0001887953
0.00018810281
0.00018744663
0.00018682353
0.00018623056
0.00018566509
0.00018512462
0.00018460594
0.00018410704
0.00018362085
0.00018315336
0.00018266523
0.00018225766
0.00018162626
0.0082720107
0.0081807127
0.0081299842
0.0081039415
0.0080880765
0.0080770315
0.0080688267
0.0080625315
0.0080576054
0.0080536996
0.0080505782
0.0080480782
0.008046087
0.0080445302
0.0080433659
0.0080425845
0.0080422279
0.0080423822
0.0080433824
0.0080455073
0.0080508781
0.0080643275
0.0080549656
0.0104786
0.021773417
0.0015617387
0.0038202459
0.00048253415
0.001728436
0.00051178554
0.0011619779
0.00090260403
0.00089510679
0.0007912585
0.00073821427
0.00068146879
0.00063885936
0.00060135509
0.00056970893
0.00054222812
0.00051825561
0.00049713465
0.00047838775
0.00046163311
0.00044656947
0.00043294398
0.00042055631
0.0004092415
0.00039886213
0.0003893031
0.00038046707
0.00037227137
0.00036464537
0.00035752833
0.00035086795
0.00034461882
0.0003387412
0.0003332002
0.00032796511
0.00032300873
0.00031830776
0.00031384039
0.00030958721
0.00030553089
0.00030165555
0.00029794582
0.00029439041
0.00029097811
0.00028769858
0.00028454244
0.00028150121
0.00027856709
0.00027573282
0.00027299184
0.00027033811
0.00026776607
0.00026527056
0.00026284681
0.00026049048
0.00025819755
0.00025596418
0.00025378683
0.00025166222
0.00024958728
0.00024755915
0.00024557513
0.0002436327
0.00024172949
0.00023986339
0.00023803225
0.00023623406
0.00023446699
0.00023272927
0.00023101922
0.00022933525
0.00022767611
0.00022604032
0.00022442647
0.0002228332
0.00022125925
0.00021970341
0.00021816451
0.00021664144
0.00021513305
0.00021363785
0.00021215522
0.00021068425
0.00020922403
0.00020777366
0.00020633234
0.00020489927
0.00020347436
0.00020205585
0.00020068467
0.00019940539
0.00019822219
0.00019712469
0.0001961034
0.00019514977
0.0001942566
0.00019341774
0.00019262795
0.00019188258
0.00019117756
0.00019050932
0.00018987458
0.00018927037
0.00018869405
0.00018814308
0.00018761422
0.00018710542
0.00018660946
0.00018613252
0.00018563435
0.0001852186
0.00018457336
0.0081939355
0.0080972023
0.0080431903
0.0080153453
0.0079983394
0.0079864838
0.0079776677
0.0079708961
0.0079655906
0.0079613772
0.0079580024
0.0079552905
0.0079531196
0.0079514076
0.0079501067
0.0079492014
0.0079487272
0.0079487654
0.0079496293
0.0079516122
0.0079566318
0.0079701139
0.0079558928
0.010331678
0.020852751
0.001526857
0.0036219264
0.00047275366
0.0016559826
0.00050965608
0.0011218979
0.00088403687
0.00086927681
0.00077138486
0.00072032308
0.0006664429
0.00062567391
0.00058985431
0.0005595593
0.00053323133
0.0005102365
0.00048995591
0.00047193632
0.00045581582
0.00044130868
0.00042817429
0.00041622231
0.00040529591
0.00039526435
0.00038601799
0.00037746414
0.00036952395
0.00036213005
0.00035522446
0.00034875722
0.00034268491
0.0003369695
0.00033157757
0.00032647967
0.00032164974
0.00031706552
0.00031270608
0.00030855284
0.00030458915
0.00030079975
0.0002971698
0.00029368855
0.00029034526
0.00028712998
0.00028403369
0.00028104826
0.00027816616
0.00027538042
0.00027268472
0.00027007324
0.00026754061
0.00026508187
0.00026269241
0.00026036805
0.0002581049
0.00025589926
0.00025374771
0.00025164706
0.00024959435
0.00024758682
0.00024562184
0.00024369699
0.00024180996
0.00023995869
0.0002381411
0.00023635526
0.00023459936
0.00023287169
0.00023117062
0.0002294946
0.00022784241
0.00022621263
0.00022460385
0.00022301476
0.00022144411
0.00021989072
0.00021835345
0.00021683119
0.00021532281
0.00021382681
0.00021234261
0.00021086931
0.00020940601
0.00020795183
0.00020650595
0.00020506761
0.0002036367
0.00020221148
0.00020083309
0.00019954648
0.00019835596
0.00019725122
0.00019622279
0.00019526212
0.00019436204
0.00019351641
0.00019271998
0.0001919681
0.00019125673
0.00019058227
0.00018994145
0.00018933128
0.00018874916
0.00018819252
0.00018765811
0.00018714387
0.0001866425
0.00018616028
0.00018565643
0.00018523613
0.00018458274
0.0081047477
0.0080017524
0.0079439442
0.007914013
0.0078956861
0.0078828917
0.0078733674
0.0078660441
0.0078602991
0.0078557294
0.0078520613
0.0078491044
0.0078467259
0.0078448352
0.0078433773
0.0078423309
0.0078417237
0.0078416325
0.0078423475
0.007844179
0.0078488258
0.0078623827
0.0078427973
0.010165264
0.019894507
0.0014893485
0.0034060039
0.00045880924
0.0015725877
0.00050105664
0.0010731804
0.00085586582
0.00083606038
0.00074450217
0.00069579958
0.00064504154
0.00060636076
0.00057242567
0.00054366075
0.00051864156
0.00049676326
0.00047744715
0.00046026669
0.00044488164
0.00043102327
0.0004184645
0.000407026
0.00039655989
0.00038694279
0.00037807117
0.00036985742
0.00036222699
0.00035511613
0.00034846994
0.00034224109
0.00033638838
0.00033087572
0.00032567136
0.00032074732
0.00031607881
0.00031164477
0.00030742531
0.00030340271
0.00029956118
0.00029588615
0.00029236339
0.00028898276
0.00028573405
0.00028260777
0.00027959534
0.00027668898
0.00027388152
0.00027116629
0.00026853728
0.0002659889
0.00026351603
0.00026111393
0.0002587782
0.00025650481
0.00025429005
0.00025213037
0.0002500225
0.00024796338
0.00024595017
0.00024398021
0.00024205098
0.00024016015
0.0002383055
0.00023648506