/*--------------------------------*- C++ -*----------------------------------*\
| =========                 |                                                 |
| \\      /  F ield         | OpenFOAM: The Open Source CFD Toolbox           |
|  \\    /   O peration     | Version:  2206                                  |
|   \\  /    A nd           | Website:  www.openfoam.com                      |
|    \\/     M anipulation  |                                                 |
\*---------------------------------------------------------------------------*/
FoamFile
{
    version     2.0;
    format      ascii;
    arch        "LSB;label=32;scalar=64";
    class       volScalarField;
    location    "900";
    object      k;
}
// * * * * * * * * * * * * * * * * * * * * * * * * * * * * * * * * * * * * * //

dimensions      [0 2 -2 0 0 0 0];

internalField   nonuniform List<scalar> 
13056
(
0.00013659107
0.00013122405
0.00012935576
0.00012844436
0.00012787981
0.00012748736
0.00012719847
0.00012697849
0.00012680702
0.00012667098
0.00012656158
0.00012647263
0.00012639971
0.00012633951
0.00012628956
0.00012624798
0.0001262132
0.00012618445
0.00012615958
0.00012614349
0.00012611181
0.00012619225
0.00012566906
0.00012828046
1.7967793e-05
2.7297452e-06
5.4724387e-06
9.4719966e-07
2.8755332e-06
5.9693416e-07
2.0060401e-06
4.4370862e-07
1.5528739e-06
1.3366932e-06
1.2634754e-06
1.1456239e-06
1.0685977e-06
9.9286581e-07
9.3009801e-07
8.7396639e-07
8.2450887e-07
7.8030979e-07
7.4062658e-07
7.0477255e-07
6.7220944e-07
6.42496e-07
6.1526089e-07
5.901978e-07
5.6704826e-07
5.4559386e-07
5.256476e-07
5.0704862e-07
4.8965832e-07
4.7335615e-07
4.5803738e-07
4.4361051e-07
4.2999434e-07
4.171167e-07
4.049132e-07
3.9332486e-07
3.8229284e-07
3.7175897e-07
3.6171228e-07
3.5211852e-07
3.4294413e-07
3.3415882e-07
3.2573533e-07
3.1764875e-07
3.0987629e-07
3.023973e-07
2.9519304e-07
2.8824604e-07
2.8154013e-07
2.7506056e-07
2.6879372e-07
2.6272702e-07
2.5684876e-07
2.5114809e-07
2.4561522e-07
2.402409e-07
2.3501627e-07
2.2993322e-07
2.2498419e-07
2.2016206e-07
2.1546022e-07
2.1087237e-07
2.0639269e-07
2.0201585e-07
1.9773669e-07
1.9355018e-07
1.8945176e-07
1.8543705e-07
1.8150192e-07
1.7764244e-07
1.7385488e-07
1.7013582e-07
1.6648197e-07
1.6289004e-07
1.5935697e-07
1.5587982e-07
1.524558e-07
1.490822e-07
1.4575643e-07
1.4247608e-07
1.3923873e-07
1.3604203e-07
1.3288376e-07
1.2976173e-07
1.2667379e-07
1.2361791e-07
1.2059218e-07
1.1759441e-07
1.1462409e-07
1.1174658e-07
1.0904681e-07
1.0653828e-07
1.0420292e-07
1.0202419e-07
9.9986259e-08
9.8075162e-08
9.6278666e-08
9.4585984e-08
9.2987529e-08
9.1474797e-08
9.0040191e-08
8.8676729e-08
8.7377986e-08
8.613783e-08
8.4950533e-08
8.3809273e-08
8.2709098e-08
8.1635915e-08
8.059707e-08
7.951845e-08
7.8592309e-08
7.722586e-08
0.00013657778
0.00013120242
0.00012933095
0.00012841788
0.00012785225
0.00012745904
0.00012716958
0.00012694917
0.00012677734
0.00012664103
0.00012653139
0.00012644226
0.00012636918
0.00012630885
0.00012625878
0.00012621711
0.00012618224
0.00012615341
0.00012612848
0.00012611234
0.00012608059
0.00012616114
0.00012563713
0.00012825335
1.7928919e-05
2.683977e-06
5.354714e-06
9.3267657e-07
2.8301714e-06
6.0349494e-07
1.9840398e-06
5.68948e-07
1.5419658e-06
1.3332065e-06
1.2591814e-06
1.1448912e-06
1.0688221e-06
9.9479454e-07
9.3312742e-07
8.7804552e-07
8.2945421e-07
7.8601184e-07
7.4698357e-07
7.1170231e-07
6.7964195e-07
6.5037099e-07
6.235271e-07
5.9881088e-07
5.7596971e-07
5.5479e-07
5.3508883e-07
5.1670879e-07
4.9951417e-07
4.8338694e-07
4.6822442e-07
4.5393688e-07
4.4044453e-07
4.2767642e-07
4.1556897e-07
4.0406393e-07
3.9310542e-07
3.8265041e-07
3.7267615e-07
3.6314719e-07
3.5403057e-07
3.4529637e-07
3.3691798e-07
3.2887098e-07
3.2113297e-07
3.1368363e-07
3.0650458e-07
2.9957864e-07
2.9288989e-07
2.8642384e-07
2.8016708e-07
2.7410724e-07
2.682328e-07
2.6253307e-07
2.5699839e-07
2.5161967e-07
2.4638818e-07
2.4129591e-07
2.363354e-07
2.3149964e-07
2.267821e-07
2.2217656e-07
2.1767726e-07
2.1327895e-07
2.089765e-07
2.0476498e-07
2.0063984e-07
1.9659675e-07
1.9263162e-07
1.8874056e-07
1.8491986e-07
1.8116615e-07
1.7747615e-07
1.7384659e-07
1.7027441e-07
1.6675669e-07
1.6329064e-07
1.5987356e-07
1.5650283e-07
1.5317606e-07
1.4989073e-07
1.4664456e-07
1.4343531e-07
1.4026078e-07
1.371188e-07
1.3400733e-07
1.3092442e-07
1.2786795e-07
1.2483725e-07
1.2189967e-07
1.1914249e-07
1.1657973e-07
1.1419308e-07
1.119657e-07
1.098815e-07
1.0792628e-07
1.0608763e-07
1.0435458e-07
1.0271742e-07
1.0116752e-07
9.9697167e-08
9.8299276e-08
9.6967327e-08
9.5695121e-08
9.4476853e-08
9.3305558e-08
9.2176209e-08
9.1074313e-08
9.0007714e-08
8.8899741e-08
8.7949889e-08
8.6542725e-08
0.00013653513
0.00013113431
0.00012925316
0.00012833501
0.00012776612
0.00012737059
0.0001270794
0.00012685765
0.00012668477
0.00012654761
0.00012643728
0.00012634757
0.00012627401
0.00012621327
0.00012616286
0.00012612089
0.00012608576
0.00012605671
0.00012603158
0.00012601529
0.00012598331
0.00012606418
0.00012553771
0.00012816767
1.789273e-05
2.6378985e-06
5.2352399e-06
9.1759719e-07
2.7826785e-06
6.0958587e-07
1.9599331e-06
7.0127854e-07
1.5290445e-06
1.3275563e-06
1.2530128e-06
1.1422143e-06
1.0672225e-06
9.9491315e-07
9.3440047e-07
8.8040404e-07
8.3271767e-07
7.9006744e-07
7.5172826e-07
7.1705215e-07
6.8552563e-07
6.5672692e-07
6.3030281e-07
6.0596092e-07
5.8345457e-07
5.6257508e-07
5.4314367e-07
5.2500646e-07
5.0803072e-07
4.9210096e-07
4.771167e-07
4.6299e-07
4.4964269e-07
4.3700518e-07
4.2501519e-07
4.1361617e-07
4.0275699e-07
3.9240055e-07
3.8251672e-07
3.7307019e-07
3.6402859e-07
3.5536243e-07
3.4704577e-07
3.3905467e-07
3.3136714e-07
3.2396325e-07
3.1682494e-07
3.0993536e-07
3.0327885e-07
2.968412e-07
2.9060921e-07
2.8457073e-07
2.7871443e-07
2.730298e-07
2.6750734e-07
2.6213808e-07
2.5691347e-07
2.5182559e-07
2.4686711e-07
2.4203112e-07
2.3731117e-07
2.3270115e-07
2.2819536e-07
2.2378861e-07
2.1947588e-07
2.1525226e-07
2.1111326e-07
2.0705461e-07
2.0307227e-07
1.9916238e-07
1.9532126e-07
1.9154561e-07
1.8783215e-07
1.8417765e-07
1.8057906e-07
1.7703348e-07
1.7353812e-07
1.700903e-07
1.6668741e-07
1.6332703e-07
1.600066e-07
1.5672388e-07
1.5347663e-07
1.5026267e-07
1.4707979e-07
1.4392597e-07
1.4079923e-07
1.3769752e-07
1.3462001e-07
1.3163578e-07
1.2883401e-07
1.2622915e-07
1.2380269e-07
1.2153755e-07
1.1941742e-07
1.1742791e-07
1.1555646e-07
1.1379201e-07
1.1212471e-07
1.1054584e-07
1.0904762e-07
1.0762287e-07
1.0626502e-07
1.0496781e-07
1.0372539e-07
1.0253069e-07
1.0137863e-07
1.0025438e-07
9.9166251e-08
9.8035416e-08
9.7067533e-08
9.5628015e-08
0.00013646185
0.0001310176
0.00012911994
0.00012819313
0.00012761867
0.00012721919
0.00012692506
0.00012670103
0.00012652636
0.00012638775
0.00012627624
0.00012618555
0.00012611117
0.00012604974
0.00012599874
0.00012595626
0.00012592069
0.00012589126
0.00012586578
0.00012584923
0.00012581686
0.00012589829
0.00012536765
0.00012802073
1.7859648e-05
2.591056e-06
5.1122887e-06
9.0167419e-07
2.7321663e-06
6.1495007e-07
1.9331215e-06
8.3102953e-07
1.5136603e-06
1.3193762e-06
1.2446025e-06
1.1372732e-06
1.0634926e-06
9.929409e-07
9.336525e-07
8.8079335e-07
8.3406395e-07
7.9225319e-07
7.546477e-07
7.2061846e-07
6.8966519e-07
6.6137598e-07
6.3540697e-07
6.1147302e-07
5.8933356e-07
5.6878494e-07
5.4965268e-07
5.3178655e-07
5.1505693e-07
4.9935097e-07
4.8457049e-07
4.7062951e-07
4.5745163e-07
4.4496889e-07
4.3312065e-07
4.2185271e-07
4.1111815e-07
4.0088102e-07
3.9110742e-07
3.8176262e-07
3.7281491e-07
3.6423521e-07
3.5599829e-07
3.4808071e-07
3.4046094e-07
3.3311943e-07
3.2603849e-07
3.1920157e-07
3.1259336e-07
3.0619987e-07
3.0000818e-07
2.9400635e-07
2.8818327e-07
2.8252861e-07
2.7703303e-07
2.7168774e-07
2.6648432e-07
2.61415e-07
2.5647257e-07
2.5165022e-07
2.4694161e-07
2.4234073e-07
2.3784197e-07
2.3344022e-07
2.2913051e-07
2.2490803e-07
2.2076834e-07
2.1670723e-07
2.127207e-07
2.0880495e-07
2.0495635e-07
2.0117165e-07
1.974476e-07
1.9378101e-07
1.9016883e-07
1.866082e-07
1.8309636e-07
1.7963062e-07
1.7620841e-07
1.7282729e-07
1.6948464e-07
1.661783e-07
1.6290604e-07
1.5966567e-07
1.56455e-07
1.5327199e-07
1.5011468e-07
1.4698109e-07
1.4387024e-07
1.4085262e-07
1.3801892e-07
1.353839e-07
1.3292891e-07
1.3063669e-07
1.2849074e-07
1.2647656e-07
1.2458147e-07
1.2279433e-07
1.2110523e-07
1.1950538e-07
1.1798693e-07
1.1654268e-07
1.1516598e-07
1.1385059e-07
1.1259062e-07
1.1137891e-07
1.1021035e-07
1.0906987e-07
1.0796619e-07
1.0681873e-07
1.0583824e-07
1.043744e-07
0.00013635589
0.00013084893
0.00012892746
0.00012798815
0.00012740565
0.00012700048
0.00012670209
0.00012647477
0.0001262975
0.0001261568
0.00012604358
0.00012595149
0.00012587592
0.0001258135
0.00012576164
0.00012571843
0.00012568222
0.00012565224
0.00012562627
0.00012560934
0.00012557641
0.00012565863
0.000125122
0.0001278083
1.783005e-05
2.543038e-06
4.9842265e-06
8.8462268e-07
2.6777558e-06
6.1930206e-07
1.9029929e-06
9.4938721e-07
1.4953407e-06
1.3082677e-06
1.233557e-06
1.1297168e-06
1.0572969e-06
9.8856611e-07
9.3058779e-07
8.7893348e-07
8.3322625e-07
7.9231408e-07
7.554973e-07
7.2216602e-07
6.9183381e-07
6.6409896e-07
6.3862729e-07
6.1514119e-07
5.9340644e-07
5.7322467e-07
5.5442587e-07
5.3686364e-07
5.204116e-07
5.0495974e-07
4.9041231e-07
4.7668546e-07
4.6370472e-07
4.5140399e-07
4.397246e-07
4.2861475e-07
4.1803048e-07
4.0793529e-07
3.9829379e-07
3.8907198e-07
3.8023884e-07
3.7176573e-07
3.6362819e-07
3.5580331e-07
3.4827003e-07
3.4100923e-07
3.3400358e-07
3.2723692e-07
3.2069421e-07
3.143618e-07
3.0822702e-07
3.0227817e-07
2.9650436e-07
2.9089547e-07
2.8544235e-07
2.8013638e-07
2.749693e-07
2.6993349e-07
2.6502187e-07
2.6022775e-07
2.5554493e-07
2.5096748e-07
2.464899e-07
2.4210715e-07
2.3781437e-07
2.3360683e-07
2.2948014e-07
2.2543017e-07
2.2145298e-07
2.1754482e-07
2.1370212e-07
2.0992169e-07
2.0620033e-07
2.0253487e-07
1.9892232e-07
1.9535982e-07
1.9184465e-07
1.8837415e-07
1.8494576e-07
1.8155706e-07
1.7820536e-07
1.748886e-07
1.7160455e-07
1.6835105e-07
1.6512591e-07
1.619271e-07
1.5875267e-07
1.5560072e-07
1.5247013e-07
1.4943252e-07
1.4657965e-07
1.4392648e-07
1.414543e-07
1.3914568e-07
1.3698403e-07
1.3495477e-07
1.3304517e-07
1.3124404e-07
1.2954143e-07
1.2792851e-07
1.2639743e-07
1.2494095e-07
1.2355242e-07
1.2222559e-07
1.2095457e-07
1.1973216e-07
1.1855323e-07
1.1740254e-07
1.1628918e-07
1.151312e-07
1.141434e-07
1.1266316e-07
0.00013621453
0.0001306238
0.00012867052
0.00012771452
0.00012712129
0.00012670851
0.00012640443
0.00012617273
0.00012599199
0.0001258485
0.00012573301
0.00012563903
0.00012556188
0.00012549812
0.00012544513
0.00012540093
0.00012536388
0.00012533315
0.00012530652
0.0001252891
0.00012525542
0.00012533868
0.00012479409
0.00012752468
1.7804598e-05
2.49348e-06
4.8495124e-06
8.6616052e-07
2.6185771e-06
6.2232247e-07
1.8689218e-06
1.0498055e-06
1.4735912e-06
1.2938012e-06
1.2194563e-06
1.1191639e-06
1.0482698e-06
9.8144607e-07
9.2487952e-07
8.7451287e-07
8.2990598e-07
7.8996318e-07
7.5400051e-07
7.2142762e-07
6.9177268e-07
6.646447e-07
6.3971958e-07
6.1672764e-07
5.9544132e-07
5.7566781e-07
5.5724181e-07
5.4002098e-07
5.2388238e-07
5.0871904e-07
4.9443777e-07
4.8095707e-07
4.6820457e-07
4.5611621e-07
4.4463541e-07
4.3371259e-07
4.2330562e-07
4.1337729e-07
4.0389198e-07
3.9481653e-07
3.8612064e-07
3.777762e-07
3.697595e-07
3.6204823e-07
3.5462184e-07
3.4746164e-07
3.4055074e-07
3.3387334e-07
3.2741477e-07
3.2116168e-07
3.1510168e-07
3.0922336e-07
3.0351606e-07
2.9796989e-07
2.925759e-07
2.8732565e-07
2.8221106e-07
2.7722469e-07
2.7235958e-07
2.6760921e-07
2.6296749e-07
2.5842862e-07
2.539872e-07
2.4963828e-07
2.4537712e-07
2.4119906e-07
2.370998e-07
2.3307528e-07
2.2912164e-07
2.252352e-07
2.2141243e-07
2.1765023e-07
2.1394545e-07
2.1029497e-07
2.0669582e-07
2.031452e-07
1.9964042e-07
1.9617885e-07
1.9275796e-07
1.8937536e-07
1.8602828e-07
1.8271477e-07
1.7943264e-07
1.7617973e-07
1.7295388e-07
1.6975309e-07
1.6657541e-07
1.6341903e-07
1.6028273e-07
1.5723888e-07
1.5437991e-07
1.5172089e-07
1.4924306e-07
1.4692896e-07
1.4476192e-07
1.4272735e-07
1.408125e-07
1.3900618e-07
1.3729846e-07
1.3568051e-07
1.3414446e-07
1.326831e-07
1.3128978e-07
1.299583e-07
1.2868278e-07
1.2745601e-07
1.2627287e-07
1.2511799e-07
1.2400083e-07
1.2283847e-07
1.2184862e-07
1.2035992e-07
0.00013603439
0.00013033658
0.00012834265
0.00012736531
0.00012675838
0.00012633586
0.00012602452
0.00012578721
0.00012560205
0.00012545499
0.00012533659
0.0001252402
0.00012516104
0.00012509557
0.00012504112
0.00012499567
0.00012495753
0.00012492587
0.00012489839
0.00012488033
0.00012484569
0.00012493029
0.00012437556
0.00012716275
1.7784266e-05
2.4420713e-06
4.706709e-06
8.4601084e-07
2.5537764e-06
6.2365608e-07
1.8302751e-06
1.128496e-06
1.4479001e-06
1.2755217e-06
1.2018583e-06
1.105207e-06
1.0360205e-06
9.712112e-07
9.1617354e-07
8.671921e-07
8.2377636e-07
7.8488508e-07
7.4985204e-07
7.1810715e-07
6.8919398e-07
6.6273295e-07
6.3841053e-07
6.1596542e-07
5.9517714e-07
5.7585875e-07
5.5784997e-07
5.4101277e-07
5.2522792e-07
5.1039162e-07
4.9641354e-07
4.8321463e-07
4.7072484e-07
4.5888226e-07
4.4763239e-07
4.369276e-07
4.2672691e-07
4.169928e-07
4.0769014e-07
3.9878667e-07
3.9025286e-07
3.8206117e-07
3.7418873e-07
3.6661385e-07
3.5931652e-07
3.5227855e-07
3.4548349e-07
3.3891596e-07
3.3256167e-07
3.2640759e-07
3.2044169e-07
3.146528e-07
3.0903057e-07
3.0356534e-07
2.9824836e-07
2.9307143e-07
2.8802666e-07
2.8310678e-07
2.78305e-07
2.7361495e-07
2.6903068e-07
2.6454654e-07
2.6015723e-07
2.5585793e-07
2.5164399e-07
2.4751087e-07
2.4345436e-07
2.3947048e-07
2.3555545e-07
2.3170566e-07
2.2791767e-07
2.2418846e-07
2.2051493e-07
2.1689402e-07
2.1332282e-07
2.0979856e-07
2.0631859e-07
2.0288035e-07
1.9948134e-07
1.9611917e-07
1.9279106e-07
1.8949514e-07
1.8622927e-07
1.8299132e-07
1.7977916e-07
1.7659081e-07
1.7342436e-07
1.7027808e-07
1.6715065e-07
1.6411488e-07
1.6126338e-07
1.5861124e-07
1.5613974e-07
1.5383141e-07
1.5166962e-07
1.4963979e-07
1.4772923e-07
1.4592679e-07
1.4422257e-07
1.4260781e-07
1.4107466e-07
1.3961594e-07
1.3822505e-07
1.3689585e-07
1.3562252e-07
1.3439784e-07
1.3321675e-07
1.3206384e-07
1.3094884e-07
1.2978832e-07
1.2880173e-07
1.2731265e-07
0.00013581145
0.00012998055
0.00012793609
0.00012693225
0.00012630828
0.00012587368
0.00012555332
0.00012530904
0.00012511837
0.00012496689
0.00012484487
0.00012474548
0.00012466382
0.00012459623
0.00012453997
0.00012449297
0.00012445348
0.00012442065
0.00012439212
0.00012437327
0.00012433743
0.00012442368
0.00012385642
0.00012671401
1.7770391e-05
2.3885642e-06
4.5545045e-06
8.2390691e-07
2.482531e-06
6.22914e-07
1.7864243e-06
1.1841683e-06
1.417749e-06
1.2529589e-06
1.180308e-06
1.0874222e-06
1.0201412e-06
9.5747334e-07
9.0409638e-07
8.5661163e-07
8.1448985e-07
7.7674305e-07
7.4272491e-07
7.1188643e-07
6.8378754e-07
6.5806086e-07
6.34404e-07
6.1256461e-07
5.923297e-07
5.7351862e-07
5.5597645e-07
5.3956976e-07
5.2418327e-07
5.0971664e-07
4.9608255e-07
4.8320463e-07
4.7101526e-07
4.5945478e-07
4.4847076e-07
4.3801719e-07
4.2805404e-07
4.1854403e-07
4.0945286e-07
4.0074925e-07
3.9240454e-07
3.8439178e-07
3.7668902e-07
3.6927522e-07
3.6213097e-07
3.5523863e-07
3.4858222e-07
3.421468e-07
3.3591851e-07
3.298847e-07
3.2403367e-07
3.1835458e-07
3.1283737e-07
3.0747264e-07
3.022519e-07
2.9716716e-07
2.9221077e-07
2.8737564e-07
2.8265517e-07
2.7804316e-07
2.7353382e-07
2.6912165e-07
2.6480148e-07
2.6056863e-07
2.5641856e-07
2.5234683e-07
2.4834936e-07
2.4442227e-07
2.4056185e-07
2.367646e-07
2.3302715e-07
2.2934658e-07
2.2571986e-07
2.2214399e-07
2.1861611e-07
2.1513353e-07
2.1169365e-07
2.0829395e-07
2.0493199e-07
2.0160541e-07
1.9831138e-07
1.9504817e-07
1.9181368e-07
1.886058e-07
1.8542248e-07
1.8226174e-07
1.7912172e-07
1.760008e-07
1.7289754e-07
1.6988485e-07
1.67055e-07
1.6442304e-07
1.6197035e-07
1.5967952e-07
1.5753403e-07
1.5551939e-07
1.5362301e-07
1.5183384e-07
1.5014206e-07
1.4853899e-07
1.4701686e-07
1.4556856e-07
1.4418753e-07
1.4286777e-07
1.4160351e-07
1.4038757e-07
1.3921496e-07
1.3807032e-07
1.369636e-07
1.358113e-07
1.3483339e-07
1.3335226e-07
0.0001355411
0.00012954794
0.0001274419
0.00012640575
0.00012576102
0.00012531169
0.00012498033
0.00012472756
0.00012453019
0.00012437331
0.00012424688
0.00012414385
0.00012405913
0.00012398896
0.0001239305
0.0001238816
0.00012384046
0.00012380621
0.0001237764
0.00012375658
0.0001237193
0.00012380754
0.00012322509
0.00012616863
1.7764711e-05
2.332785e-06
4.3917454e-06
7.9959946e-07
2.4040708e-06
6.1968042e-07
1.7367631e-06
1.21737e-06
1.3826284e-06
1.2256427e-06
1.1543515e-06
1.0653823e-06
1.0002199e-06
9.3983831e-07
8.8826741e-07
8.4240354e-07
8.0168962e-07
7.651903e-07
7.3228132e-07
7.0243586e-07
6.7523122e-07
6.5031313e-07
6.27391e-07
6.0622202e-07
5.8660123e-07
5.6835468e-07
5.5133319e-07
5.3540826e-07
5.2046884e-07
5.0641832e-07
4.931726e-07
4.8065816e-07
4.6880998e-07
4.5757068e-07
4.4688985e-07
4.3672298e-07
4.2703101e-07
4.1777739e-07
4.0892886e-07
4.0045522e-07
3.9232871e-07
3.8452312e-07
3.770174e-07
3.6979126e-07
3.6282593e-07
3.5610435e-07
3.4961106e-07
3.4333165e-07
3.3725267e-07
3.3136189e-07
3.25648e-07
3.201005e-07
3.1470965e-07
3.0946636e-07
3.0436238e-07
2.9939e-07
2.945418e-07
2.898109e-07
2.8519092e-07
2.8067584e-07
2.7626005e-07
2.7193821e-07
2.6770532e-07
2.6355681e-07
2.5948829e-07
2.5549547e-07
2.5157436e-07
2.477212e-07
2.4393239e-07
2.4020452e-07
2.3653432e-07
2.3291897e-07
2.2935554e-07
2.2584109e-07
2.2237283e-07
2.1894814e-07
2.1556449e-07
2.1221941e-07
2.0891053e-07
2.0563553e-07
2.0239156e-07
1.9917701e-07
1.9598983e-07
1.9282799e-07
1.8968944e-07
1.8657229e-07
1.8347471e-07
1.8039518e-07
1.773322e-07
1.743583e-07
1.71565e-07
1.6896713e-07
1.6654628e-07
1.6428521e-07
1.6216754e-07
1.6017898e-07
1.5830708e-07
1.5654094e-07
1.5487089e-07
1.5328834e-07
1.5178566e-07
1.5035583e-07
1.4899239e-07
1.4768945e-07
1.4644137e-07
1.4524104e-07
1.4408356e-07
1.4295369e-07
1.4186155e-07
1.4072405e-07
1.3976037e-07
1.382958e-07
0.00013521821
0.00012902999
0.00012684993
0.00012577496
0.00012510528
0.00012463827
0.00012429369
0.00012403073
0.0001238253
0.00012366194
0.00012353021
0.0001234228
0.00012333441
0.00012326114
0.00012320003
0.00012314886
0.00012310574
0.00012306977
0.00012303842
0.00012301745
0.00012297843
0.00012306904
0.00012246844
0.0001255155
1.7769424e-05
2.2746474e-06
4.2174804e-06
7.7286637e-07
2.3177079e-06
6.1352461e-07
1.6807315e-06
1.2297459e-06
1.3420581e-06
1.1931234e-06
1.1235542e-06
1.0386755e-06
9.758581e-07
9.1792278e-07
8.683151e-07
8.2420742e-07
7.8502498e-07
7.4988494e-07
7.1818736e-07
6.8942878e-07
6.6320499e-07
6.3917582e-07
6.170632e-07
5.9663455e-07
5.7769346e-07
5.6007315e-07
5.436306e-07
5.282426e-07
5.1380265e-07
5.0021809e-07
4.874083e-07
4.7530279e-07
4.6383924e-07
4.5296265e-07
4.4262458e-07
4.3278205e-07
4.2339716e-07
4.1443443e-07
4.0586183e-07
3.9765028e-07
3.8977305e-07
3.8220471e-07
3.749252e-07
3.6791503e-07
3.6115613e-07
3.5463207e-07
3.4832798e-07
3.4222995e-07
3.3632506e-07
3.3060151e-07
3.2504841e-07
3.1965563e-07
3.144138e-07
3.0931415e-07
3.0434872e-07
2.9951008e-07
2.9479107e-07
2.9018505e-07
2.8568587e-07
2.8128773e-07
2.7698519e-07
2.7277312e-07
2.6864667e-07
2.6460143e-07
2.6063318e-07
2.5673775e-07
2.5291129e-07
2.4915017e-07
2.454509e-07
2.418102e-07
2.3822489e-07
2.3469228e-07
2.3120952e-07
2.2777375e-07
2.2438228e-07
2.2103256e-07
2.1772214e-07
2.1444862e-07
2.112097e-07
2.0800312e-07
2.0482601e-07
2.0167689e-07
1.9855379e-07
1.9545472e-07
1.9237772e-07
1.8932093e-07
1.8628259e-07
1.8326129e-07
1.8025545e-07
1.7733685e-07
1.7459566e-07
1.7204642e-07
1.6967102e-07
1.6745246e-07
1.6537463e-07
1.6342347e-07
1.6158676e-07
1.5985381e-07
1.5821511e-07
1.5666226e-07
1.5518776e-07
1.5378473e-07
1.5244686e-07
1.5116841e-07
1.4994386e-07
1.4876622e-07
1.4763072e-07
1.4652233e-07
1.4545125e-07
1.4433533e-07
1.4339155e-07
1.4195243e-07
0.00013483715
0.00012841698
0.00012614893
0.00012502781
0.0001243285
0.00012384046
0.00012348018
0.00012320511
0.00012299011
0.00012281905
0.00012268104
0.00012256842
0.00012247567
0.00012239872
0.00012233446
0.00012228058
0.00012223512
0.00012219712
0.00012216394
0.00012214158
0.0001221005
0.00012219393
0.00012157188
0.0001247423
1.7787239e-05
2.2141686e-06
4.0310148e-06
7.4352469e-07
2.2228736e-06
6.0401817e-07
1.6178455e-06
1.2234205e-06
1.2956132e-06
1.1549967e-06
1.087525e-06
1.0069277e-06
9.4669217e-07
8.9137534e-07
8.4389746e-07
8.0169022e-07
7.6417076e-07
7.3050896e-07
7.0013149e-07
6.725596e-07
6.4740868e-07
6.2435377e-07
6.031301e-07
5.8351598e-07
5.6532415e-07
5.4839553e-07
5.3259367e-07
5.1780101e-07
5.0391593e-07
4.9085001e-07
4.7852632e-07
4.6687759e-07
4.5584432e-07
4.4537399e-07
4.3542017e-07
4.2594149e-07
4.1690149e-07
4.0826603e-07
4.000044e-07
3.920888e-07
3.8449357e-07
3.7719416e-07
3.7017158e-07
3.6340717e-07
3.5688364e-07
3.5058524e-07
3.4449774e-07
3.3860779e-07
3.3290302e-07
3.2737213e-07
3.2200466e-07
3.1679091e-07
3.1172188e-07
3.0678918e-07
3.0198515e-07
2.9730268e-07
2.9273489e-07
2.8827541e-07
2.8391834e-07
2.796581e-07
2.7548948e-07
2.7140754e-07
2.6740763e-07
2.634855e-07
2.596371e-07
2.5585844e-07
2.5214579e-07
2.4849567e-07
2.4490474e-07
2.4136982e-07
2.3788785e-07
2.344563e-07
2.3107238e-07
2.2773337e-07
2.2443665e-07
2.2117976e-07
2.1796034e-07
2.1477608e-07
2.1162476e-07
2.0850418e-07
2.0541148e-07
2.0234532e-07
1.993038e-07
1.96285e-07
1.9328704e-07
1.9030812e-07
1.8734654e-07
1.8440101e-07
1.814699e-07
1.7862377e-07
1.7595087e-07
1.7346537e-07
1.7114954e-07
1.6898673e-07
1.6696117e-07
1.6505914e-07
1.6326869e-07
1.6157941e-07
1.5998201e-07
1.5846831e-07
1.57031e-07
1.5566338e-07
1.5435929e-07
1.531132e-07
1.5191974e-07
1.5077209e-07
1.496656e-07
1.4858557e-07
1.475422e-07
1.464548e-07
1.4553672e-07
1.4413222e-07
0.00013439188
0.00012769829
0.00012532656
0.00012415109
0.00012341687
0.00012290409
0.00012252532
0.00012223599
0.00012200972
0.0001218296
0.00012168418
0.00012156544
0.00012146756
0.00012138627
0.00012131831
0.00012126124
0.00012121301
0.00012117262
0.00012113729
0.00012111331
0.0001210698
0.00012116651
0.00012051937
0.00012383556
1.7821434e-05
2.1514877e-06
3.8319738e-06
7.1144474e-07
2.1191616e-06
5.9075785e-07
1.5477324e-06
1.2005807e-06
1.2429548e-06
1.110933e-06
1.0459429e-06
9.6982944e-07
9.1241935e-07
8.5990149e-07
8.1472629e-07
7.745699e-07
7.388503e-07
7.0679067e-07
6.7784659e-07
6.5156536e-07
6.2758319e-07
6.0559144e-07
5.8533944e-07
5.6661713e-07
5.4924699e-07
5.3307817e-07
5.1798121e-07
5.0384462e-07
4.9057197e-07
4.7807935e-07
4.6629377e-07
4.5515134e-07
4.4459555e-07
4.3457645e-07
4.2504974e-07
4.1597584e-07
4.0731995e-07
3.9904949e-07
3.9113521e-07
3.8355065e-07
3.7627136e-07
3.6927374e-07
3.6253992e-07
3.5605216e-07
3.49794e-07
3.4375044e-07
3.379079e-07
3.3225371e-07
3.2677604e-07
3.2146414e-07
3.1630803e-07
3.1129848e-07
3.064269e-07
3.0168527e-07
2.9706633e-07
2.9256325e-07
2.8816949e-07
2.8387898e-07
2.7968607e-07
2.7558544e-07
2.7157213e-07
2.676414e-07
2.6378882e-07
2.6001034e-07
2.5630207e-07
2.5266021e-07
2.4908121e-07
2.4556172e-07
2.4209855e-07
2.3868867e-07
2.3532915e-07
2.320176e-07
2.2875135e-07
2.2552777e-07
2.2234437e-07
2.1919878e-07
2.1608874e-07
2.1301204e-07
2.0996656e-07
2.0695015e-07
2.0396001e-07
2.0099491e-07
1.9805305e-07
1.951326e-07
1.9223174e-07
1.8934877e-07
1.8648205e-07
1.8363041e-07
1.8079219e-07
1.7803623e-07
1.7544829e-07
1.7304207e-07
1.7080032e-07
1.6870685e-07
1.6674634e-07
1.6490544e-07
1.6317261e-07
1.6153773e-07
1.5999182e-07
1.5852694e-07
1.5713603e-07
1.558126e-07
1.545507e-07
1.53345e-07
1.5219035e-07
1.510801e-07
1.5000978e-07
1.4896512e-07
1.4795621e-07
1.4690442e-07
1.4601786e-07
1.4465735e-07
0.00013387601
0.0001268625
0.0001243695
0.00012313049
0.00012235547
0.00012181377
0.00012141341
0.00012110741
0.00012086799
0.00012067728
0.00012052321
0.00012039731
0.00012029344
0.00012020708
0.0001201348
0.00012007401
0.00012002255
0.00011997936
0.00011994152
0.00011991564
0.0001198693
0.00011996982
0.00011929354
0.00012278071
1.7875901e-05
2.086888e-06
3.6203732e-06
6.7656592e-07
2.0063779e-06
5.7339351e-07
1.4701718e-06
1.163257e-06
1.183865e-06
1.0607112e-06
9.9858982e-07
9.2716691e-07
8.7282721e-07
8.2329233e-07
7.80595e-07
7.4264244e-07
7.0886189e-07
6.7853058e-07
6.5113518e-07
6.2625052e-07
6.0353476e-07
5.8269675e-07
5.6350072e-07
5.4574898e-07
5.2927434e-07
5.139347e-07
4.9960807e-07
4.8618938e-07
4.7358772e-07
4.61724e-07
4.5052936e-07
4.3994351e-07
4.299131e-07
4.2039084e-07
4.1133476e-07
4.0270725e-07
3.944754e-07
3.8660836e-07
3.7907847e-07
3.718607e-07
3.6493189e-07
3.5826952e-07
3.5185688e-07
3.4567723e-07
3.3971499e-07
3.3395597e-07
3.2838733e-07
3.2299705e-07
3.1777396e-07
3.1270787e-07
3.0778934e-07
3.0300962e-07
2.9836058e-07
2.9383463e-07
2.8942487e-07
2.8512485e-07
2.8092837e-07
2.7682966e-07
2.7282338e-07
2.6890449e-07
2.6506827e-07
2.6131023e-07
2.5762619e-07
2.5401227e-07
2.504648e-07
2.4698018e-07
2.4355502e-07
2.4018617e-07
2.3687057e-07
2.3360536e-07
2.3038776e-07
2.2721551e-07
2.2408609e-07
2.20997e-07
2.1794584e-07
2.1493038e-07
2.1194845e-07
2.0899797e-07
2.060769e-07
2.031832e-07
2.003141e-07
1.9746853e-07
1.9464477e-07
1.9184108e-07
1.8905574e-07
1.8628713e-07
1.835337e-07
1.807944e-07
1.7806756e-07
1.7541979e-07
1.7293377e-07
1.706226e-07
1.6846967e-07
1.6645931e-07
1.6457677e-07
1.6280919e-07
1.6114546e-07
1.5957583e-07
1.580917e-07
1.5668542e-07
1.5535021e-07
1.5407983e-07
1.5286858e-07
1.5171138e-07
1.5060329e-07
1.4953792e-07
1.4851099e-07
1.4750872e-07
1.4654106e-07
1.4553199e-07
1.4468279e-07
1.4337572e-07
0.00013328294
0.00012589745
0.00012326352
0.00012195071
0.00012112833
0.00012055306
0.00012012764
0.00011980231
0.00011954762
0.00011934463
0.00011918053
0.00011904632
0.0001189355
0.00011884327
0.00011876597
0.00011870087
0.00011864565
0.00011859922
0.00011855846
0.00011853038
0.00011848077
0.00011858566
0.00011787582
0.0001215622
1.7955187e-05
2.0208224e-06
3.396694e-06
6.3891359e-07
1.8845949e-06
5.5166064e-07
1.3851394e-06
1.1132575e-06
1.1182854e-06
1.0042562e-06
9.4538495e-07
8.7885538e-07
8.2782617e-07
7.8145602e-07
7.414092e-07
7.0581169e-07
6.7410785e-07
6.4562973e-07
6.198973e-07
5.9651422e-07
5.7516177e-07
5.5556743e-07
5.375111e-07
5.2080816e-07
5.0530237e-07
4.9086086e-07
4.7736957e-07
4.6473021e-07
4.5285773e-07
4.4167808e-07
4.3112682e-07
4.2114743e-07
4.1168987e-07
4.0270972e-07
3.9416748e-07
3.8602775e-07
3.782597e-07
3.7083434e-07
3.6372571e-07
3.5691032e-07
3.5036641e-07
3.4407262e-07
3.3801348e-07
3.3217329e-07
3.2653742e-07
3.2109255e-07
3.1582663e-07
3.1072836e-07
3.0578726e-07
3.0099373e-07
2.9633893e-07
2.9181462e-07
2.8741316e-07
2.8312743e-07
2.7895092e-07
2.7487758e-07
2.7090157e-07
2.6701749e-07
2.6322028e-07
2.5950522e-07
2.5586785e-07
2.5230398e-07
2.4880964e-07
2.4538119e-07
2.4201518e-07
2.3870822e-07
2.3545711e-07
2.3225889e-07
2.2911068e-07
2.2600977e-07
2.2295356e-07
2.1993995e-07
2.1696654e-07
2.1403098e-07
2.1113101e-07
2.0826451e-07
2.0542945e-07
2.0262385e-07
1.998458e-07
1.9709335e-07
1.943638e-07
1.9165622e-07
1.8896901e-07
1.8630053e-07
1.8364914e-07
1.8101334e-07
1.7839166e-07
1.7578316e-07
1.7318621e-07
1.7066466e-07
1.6829748e-07
1.6609712e-07
1.6404769e-07
1.6213418e-07
1.6034249e-07
1.5866035e-07
1.5707713e-07
1.5558357e-07
1.5417144e-07
1.5283347e-07
1.5156318e-07
1.5035466e-07
1.4920245e-07
1.4810178e-07
1.4704795e-07
1.4603485e-07
1.4505843e-07
1.4410553e-07
1.431858e-07
1.4222649e-07
1.4142039e-07
1.4017614e-07
0.00013260592
0.00012479038
0.00012199362
0.00012059562
0.00011971857
0.00011910458
0.00011865026
0.00011830264
0.00011803034
0.00011781319
0.00011763753
0.00011749375
0.00011737492
0.00011727591
0.00011719282
0.00011712275
0.00011706322
0.00011701304
0.00011696891
0.00011693829
0.00011688492
0.00011699481
0.00011624657
0.00012016361
1.8064509e-05
1.9539431e-06
3.1619565e-06
5.9861603e-07
1.7542082e-06
5.2541607e-07
1.2928548e-06
1.0522015e-06
1.0463576e-06
9.4167673e-07
8.86422e-07
8.2497505e-07
7.7748386e-07
7.344511e-07
6.9721894e-07
6.6412074e-07
6.3462511e-07
6.0811972e-07
5.8415976e-07
5.6237903e-07
5.4248298e-07
5.2421875e-07
5.0738268e-07
4.9180387e-07
4.7733757e-07
4.6386064e-07
4.5126734e-07
4.3946652e-07
4.2837927e-07
4.179369e-07
4.0807953e-07
3.9875467e-07
3.8991573e-07
3.8152136e-07
3.7353472e-07
3.659228e-07
3.5865701e-07
3.5171036e-07
3.450587e-07
3.3868018e-07
3.325545e-07
3.2666161e-07
3.209873e-07
3.1551697e-07
3.1023703e-07
3.0513506e-07
3.0019983e-07
2.9542086e-07
2.9078836e-07
2.862934e-07
2.8192774e-07
2.7768371e-07
2.7355419e-07
2.6953254e-07
2.656127e-07
2.6178903e-07
2.5805609e-07
2.5440884e-07
2.5084256e-07
2.4735285e-07
2.4393556e-07
2.4058677e-07
2.3730278e-07
2.3408019e-07
2.309158e-07
2.2780642e-07
2.2474908e-07
2.2174101e-07
2.1877953e-07
2.1586211e-07
2.129863e-07
2.101502e-07
2.0735155e-07
2.0458814e-07
2.0185787e-07
1.9915875e-07
1.9648888e-07
1.9384642e-07
1.9122958e-07
1.8863652e-07
1.8606463e-07
1.8351314e-07
1.8098053e-07
1.784653e-07
1.7596591e-07
1.7348096e-07
1.710091e-07
1.6854949e-07
1.6610053e-07
1.6372283e-07
1.6149105e-07
1.5941689e-07
1.5748528e-07
1.5568202e-07
1.5399372e-07
1.5240881e-07
1.5091723e-07
1.4951024e-07
1.4818006e-07
1.4691983e-07
1.4572344e-07
1.4458531e-07
1.4350031e-07
1.4246395e-07
1.4147183e-07
1.4051817e-07
1.3959916e-07
1.3870237e-07
1.3783705e-07
1.3693429e-07
1.361768e-07
1.3500448e-07
0.00013183829
0.00012352812
0.00012054424
0.0001190484
0.00011810863
0.00011745023
0.00011696276
0.00011658958
0.00011629711
0.00011606374
0.00011587482
0.00011572007
0.00011559205
0.00011548528
0.00011539557
0.00011531979
0.00011525531
0.00011520085
0.00011515287
0.00011511933
0.00011506167
0.00011517721
0.00011438533
0.00011856781
1.8209738e-05
1.8871365e-06
2.9177857e-06
5.5592027e-07
1.6159914e-06
4.9467484e-07
1.1938276e-06
9.8160492e-07
9.6846402e-07
8.7330534e-07
8.2200607e-07
7.658066e-07
7.2205942e-07
6.8251964e-07
6.4825104e-07
6.1778338e-07
5.9061594e-07
5.661926e-07
5.4410551e-07
5.240197e-07
5.0566568e-07
4.8881122e-07
4.7326976e-07
4.5888466e-07
4.4552318e-07
4.3307232e-07
4.2143502e-07
4.1052759e-07
4.0027755e-07
3.9062175e-07
3.8150515e-07
3.7287939e-07
3.6470159e-07