/*--------------------------------*- C++ -*----------------------------------*\
| =========                 |                                                 |
| \\      /  F ield         | OpenFOAM: The Open Source CFD Toolbox           |
|  \\    /   O peration     | Version:  2206                                  |
|   \\  /    A nd           | Website:  www.openfoam.com                      |
|    \\/     M anipulation  |                                                 |
\*---------------------------------------------------------------------------*/
FoamFile
{
    version     2.0;
    format      ascii;
    arch        "LSB;label=32;scalar=64";
    class       volScalarField;
    location    "900";
    object      nut;
}
// * * * * * * * * * * * * * * * * * * * * * * * * * * * * * * * * * * * * * //

dimensions      [0 2 -1 0 0 0 0];

internalField   nonuniform List<scalar> 
13056
(
6.6088868e-09
6.1382606e-09
5.9869079e-09
5.9138668e-09
5.8685278e-09
5.8370433e-09
5.8139132e-09
5.7963202e-09
5.7826047e-09
5.771706e-09
5.7629081e-09
5.7557071e-09
5.7497342e-09
5.744709e-09
5.7404039e-09
5.7366273e-09
5.7331676e-09
5.7298626e-09
5.7261453e-09
5.722319e-09
5.7135092e-09
5.7105664e-09
5.646189e-09
4.4703568e-09
3.1843676e-11
1.2410514e-11
1.7569785e-11
7.3090082e-12
1.2732947e-11
5.8012486e-12
1.063282e-11
4.9880845e-12
9.3533448e-12
8.6755923e-12
8.4356639e-12
8.0311446e-12
7.7564177e-12
7.4757477e-12
7.2351657e-12
7.0129283e-12
6.8111546e-12
6.6256334e-12
6.4545364e-12
6.295957e-12
6.1483975e-12
6.0105967e-12
5.8814599e-12
5.7600696e-12
5.645634e-12
5.5374717e-12
5.4349867e-12
5.3376559e-12
5.2450209e-12
5.1566756e-12
5.0722617e-12
4.9914621e-12
4.9139894e-12
4.8395841e-12
4.7680121e-12
4.6990584e-12
4.6325261e-12
4.5680521e-12
4.5056632e-12
4.4452724e-12
4.3867467e-12
4.3299641e-12
4.2748144e-12
4.2211952e-12
4.1690114e-12
4.1181761e-12
4.0686099e-12
4.0202374e-12
3.9729873e-12
3.9267942e-12
3.881597e-12
3.8373384e-12
3.7939642e-12
3.7514237e-12
3.709671e-12
3.668662e-12
3.6283531e-12
3.5887041e-12
3.5496772e-12
3.5112358e-12
3.4733458e-12
3.4359739e-12
3.3990886e-12
3.3626616e-12
3.3266639e-12
3.2910669e-12
3.2558439e-12
3.220969e-12
3.1864171e-12
3.1521638e-12
3.1181851e-12
3.084459e-12
3.0509633e-12
3.017675e-12
2.9845722e-12
2.9516333e-12
2.9188366e-12
2.8861607e-12
2.8535841e-12
2.8210864e-12
2.7886456e-12
2.7562401e-12
2.723848e-12
2.6914469e-12
2.6590138e-12
2.6265258e-12
2.5939599e-12
2.5612893e-12
2.5285042e-12
2.4963352e-12
2.4657729e-12
2.4370331e-12
2.4099701e-12
2.3844461e-12
2.3603226e-12
2.337475e-12
2.3157928e-12
2.2951768e-12
2.2755377e-12
2.256795e-12
2.2388759e-12
2.221712e-12
2.2052391e-12
2.1893939e-12
2.1741162e-12
2.1593293e-12
2.1449783e-12
2.1308865e-12
2.1171559e-12
2.1028048e-12
2.0904013e-12
2.071975e-12
6.6087427e-09
6.1373667e-09
5.9857563e-09
5.912583e-09
5.8671593e-09
5.8356153e-09
5.8124411e-09
5.7948144e-09
5.7810728e-09
5.7701535e-09
5.7613395e-09
5.7541259e-09
5.7481438e-09
5.7431123e-09
5.7388041e-09
5.7350282e-09
5.7315742e-09
5.7282814e-09
5.7245899e-09
5.7208037e-09
5.712099e-09
5.7092907e-09
5.6456043e-09
4.4697378e-09
3.2291198e-11
1.2068288e-11
1.6991564e-11
6.7902609e-12
1.2271762e-11
4.9851316e-12
1.0202017e-11
4.0058082e-12
8.9234329e-12
8.2419017e-12
7.9926108e-12
7.5802223e-12
7.2950975e-12
7.0040319e-12
6.7521336e-12
6.5182474e-12
6.3044503e-12
6.1066706e-12
5.9231358e-12
5.7520013e-12
5.5918077e-12
5.441336e-12
5.29952e-12
5.1654653e-12
5.0383991e-12
4.9176558e-12
4.8026518e-12
4.6928737e-12
4.5878709e-12
4.4872429e-12
4.390636e-12
4.2977362e-12
4.208257e-12
4.1219377e-12
4.0385393e-12
3.9578353e-12
3.8795908e-12
3.8035814e-12
3.7298128e-12
3.6581551e-12
3.5884749e-12
3.5206504e-12
3.4545708e-12
3.3901328e-12
3.3272403e-12
3.2658057e-12
3.2057495e-12
3.146995e-12
3.0894699e-12
3.0331081e-12
2.9778475e-12
2.9236299e-12
2.8704005e-12
2.8181075e-12
2.7667049e-12
2.7161481e-12
2.6663928e-12
2.6173982e-12
2.5691261e-12
2.5215399e-12
2.4746051e-12
2.4282884e-12
2.3825585e-12
2.3373877e-12
2.2927475e-12
2.2486094e-12
2.2049478e-12
2.1617375e-12
2.1189548e-12
2.0765765e-12
2.0345801e-12
1.9929458e-12
1.9516535e-12
1.9106828e-12
1.8700144e-12
1.8296299e-12
1.7895114e-12
1.7496412e-12
1.7100023e-12
1.6705794e-12
1.6313559e-12
1.5923164e-12
1.5534458e-12
1.5147293e-12
1.4761517e-12
1.4376997e-12
1.3993605e-12
1.3611169e-12
1.3229773e-12
1.2857777e-12
1.2506477e-12
1.2178191e-12
1.1871032e-12
1.1583209e-12
1.131294e-12
1.105862e-12
1.0818821e-12
1.0592267e-12
1.0377811e-12
1.0174424e-12
9.9811772e-13
9.797208e-13
9.6217145e-13
9.4539238e-13
9.2931072e-13
9.138378e-13
8.9890924e-13
8.8433735e-13
8.7022116e-13
8.5556202e-13
8.4297054e-13
8.2437643e-13
6.6082445e-09
6.1345774e-09
5.9821834e-09
5.9086076e-09
5.8629265e-09
5.831201e-09
5.807892e-09
5.7901621e-09
5.7763395e-09
5.7653558e-09
5.7564899e-09
5.7492346e-09
5.7432188e-09
5.7381608e-09
5.7338328e-09
5.7300437e-09
5.7265845e-09
5.7232961e-09
5.7196264e-09
5.7158815e-09
5.7072946e-09
5.7046597e-09
5.6417584e-09
4.4677089e-09
3.2761811e-11
1.1728354e-11
1.6415576e-11
6.3123036e-12
1.1814456e-11
4.3900083e-12
9.7810791e-12
4.078024e-12
8.51181e-12
7.8348619e-12
7.5788479e-12
7.165709e-12
6.8755807e-12
6.5808606e-12
6.3242926e-12
6.0858414e-12
5.8673311e-12
5.6648723e-12
5.4767167e-12
5.3010714e-12
5.1365044e-12
4.9818217e-12
4.8359761e-12
4.6980852e-12
4.5673856e-12
4.4432178e-12
4.3250018e-12
4.2122261e-12
4.1044402e-12
4.0012428e-12
3.9022781e-12
3.8072292e-12
3.7158058e-12
3.6277428e-12
3.5427958e-12
3.4607347e-12
3.3813362e-12
3.3044541e-12
3.2300197e-12
3.1578891e-12
3.0879248e-12
3.020001e-12
2.9540037e-12
2.8898266e-12
2.8273701e-12
2.7665435e-12
2.707264e-12
2.6494522e-12
2.5930329e-12
2.5379373e-12
2.4841007e-12
2.4314629e-12
2.3799664e-12
2.3295577e-12
2.2801885e-12
2.2318126e-12
2.1843839e-12
2.1378603e-12
2.0922022e-12
2.0473716e-12
2.0033332e-12
1.9600525e-12
1.9174976e-12
1.8756399e-12
1.8344504e-12
1.7939003e-12
1.7539636e-12
1.7146153e-12
1.6758314e-12
1.6375889e-12
1.5998659e-12
1.5626426e-12
1.5258997e-12
1.4896174e-12
1.4537772e-12
1.4183616e-12
1.3833538e-12
1.3487373e-12
1.3144966e-12
1.2806173e-12
1.2470842e-12
1.2138839e-12
1.1810034e-12
1.1484299e-12
1.1161506e-12
1.0841541e-12
1.0524301e-12
1.0209652e-12
9.8976546e-13
9.5951125e-13
9.3110439e-13
9.0470514e-13
8.8013418e-13
8.5722392e-13
8.3581145e-13
8.1575155e-13
7.9691627e-13
7.7919211e-13
7.624779e-13
7.4668347e-13
7.3172813e-13
7.1753766e-13
7.0404368e-13
6.9118146e-13
6.7889036e-13
6.6709832e-13
6.5575281e-13
6.4470803e-13
6.3403892e-13
6.2298622e-13
6.1353182e-13
5.9956011e-13
6.6073823e-09
6.1298057e-09
5.9760764e-09
5.9018148e-09
5.855695e-09
5.82366e-09
5.8001212e-09
5.7822148e-09
5.7682537e-09
5.7571594e-09
5.748204e-09
5.7408756e-09
5.7348002e-09
5.7296938e-09
5.7253272e-09
5.7215089e-09
5.7180305e-09
5.7147344e-09
5.7110759e-09
5.7073647e-09
5.6988863e-09
5.6964389e-09
5.6342752e-09
4.4640574e-09
3.3267298e-11
1.1388653e-11
1.5835916e-11
5.8691424e-12
1.1356774e-11
3.935421e-12
9.365965e-12
4.3833207e-12
8.1136302e-12
7.4479018e-12
7.1876393e-12
6.7790764e-12
6.4881234e-12
6.1945871e-12
5.9380522e-12
5.699858e-12
5.4814701e-12
5.2791891e-12
5.0912711e-12
4.9159622e-12
4.7518488e-12
4.5977484e-12
4.4526244e-12
4.3155985e-12
4.1859096e-12
4.0628975e-12
3.9459805e-12
3.8346441e-12
3.7284339e-12
3.6269442e-12
3.5298141e-12
3.4367216e-12
3.3473712e-12
3.2614932e-12
3.1788403e-12
3.0991849e-12
3.0223243e-12
2.9481271e-12
2.8764737e-12
2.8072126e-12
2.740202e-12
2.6753108e-12
2.6124221e-12
2.5514259e-12
2.4922192e-12
2.4347077e-12
2.3788054e-12
2.3244298e-12
2.271503e-12
2.2199536e-12
2.1697143e-12
2.1207224e-12
2.0729186e-12
2.0262471e-12
1.9806577e-12
1.9361021e-12
1.892533e-12
1.8499064e-12
1.8081814e-12
1.7673188e-12
1.7272819e-12
1.6880352e-12
1.6495457e-12
1.6117837e-12
1.5747192e-12
1.5383229e-12
1.502568e-12
1.4674287e-12
1.4328805e-12
1.3989e-12
1.3654645e-12
1.3325542e-12
1.3001492e-12
1.2682293e-12
1.2367758e-12
1.2057709e-12
1.1751975e-12
1.1450391e-12
1.1152799e-12
1.0859054e-12
1.0568994e-12
1.0282493e-12
9.99942e-13
9.719646e-13
9.4430437e-13
9.1694991e-13
8.8989069e-13
8.631142e-13
8.3662313e-13
8.1099462e-13
7.8698703e-13
7.6472547e-13
7.4404825e-13
7.2480499e-13
7.0685106e-13
6.9005822e-13
6.7431401e-13
6.5951907e-13
6.4558517e-13
6.3243394e-13
6.1999547e-13
6.0820575e-13
5.9700602e-13
5.8634115e-13
5.761596e-13
5.6640032e-13
5.5701893e-13
5.4789365e-13
5.390877e-13
5.2996989e-13
5.2218959e-13
5.1065909e-13
6.6061417e-09
6.1229165e-09
5.9672598e-09
5.8920085e-09
5.8452556e-09
5.812774e-09
5.7889034e-09
5.7707424e-09
5.7565811e-09
5.7453266e-09
5.7362413e-09
5.7288066e-09
5.7226436e-09
5.7174652e-09
5.7130399e-09
5.7091751e-09
5.7056627e-09
5.7023462e-09
5.6986879e-09
5.6950024e-09
5.6866228e-09
5.6843785e-09
5.6229058e-09
4.4586617e-09
3.381995e-11
1.1047473e-11
1.5247333e-11
5.4556061e-12
1.0894879e-11
3.57468e-12
8.9530368e-12
4.7247034e-12
7.7246435e-12
7.0755028e-12
6.8133194e-12
6.4134073e-12
6.1249494e-12
5.8361651e-12
5.5830893e-12
5.3485381e-12
5.1335783e-12
4.9346983e-12
4.750151e-12
4.5782162e-12
4.4174956e-12
4.2668134e-12
4.125142e-12
3.9916062e-12
3.865446e-12
3.746001e-12
3.6326877e-12
3.5249899e-12
3.4224502e-12
3.3246601e-12
3.2312561e-12
3.1419128e-12
3.0563327e-12
2.9742448e-12
2.895403e-12
2.8195864e-12
2.7466068e-12
2.6763228e-12
2.6085881e-12
2.543248e-12
2.4801586e-12
2.4191854e-12
2.360211e-12
2.3031236e-12
2.2478189e-12
2.1942011e-12
2.1421828e-12
2.0916804e-12
2.0426151e-12
1.9949146e-12
1.9485109e-12
1.9033405e-12
1.8593437e-12
1.816464e-12
1.7746507e-12
1.7338552e-12
1.6940298e-12
1.6551305e-12
1.6171161e-12
1.5799472e-12
1.5435872e-12
1.5080005e-12
1.473154e-12
1.439018e-12
1.4055625e-12
1.3727584e-12
1.340579e-12
1.3089987e-12
1.2779931e-12
1.2475389e-12
1.2176139e-12
1.1881983e-12
1.1592723e-12
1.1308161e-12
1.1028112e-12
1.0752399e-12
1.0480855e-12
1.0213316e-12
9.9496266e-13
9.6896423e-13
9.4331999e-13
9.1801798e-13
8.9304523e-13
8.6838917e-13
8.440373e-13
8.1997834e-13
7.9620186e-13
7.7269617e-13
7.4946158e-13
7.2700556e-13
7.0599136e-13
6.8652432e-13
6.6845862e-13
6.516588e-13
6.3599532e-13
6.2135369e-13
6.0763379e-13
5.9474737e-13
5.8261623e-13
5.7117103e-13
5.6035001e-13
5.5009676e-13
5.4035958e-13
5.3109032e-13
5.2224386e-13
5.1376673e-13
5.0562017e-13
4.9769778e-13
4.9005606e-13
4.8214307e-13
4.754038e-13
4.6538136e-13
6.6045055e-09
6.1137283e-09
5.9554974e-09
5.8789248e-09
5.8313268e-09
5.798249e-09
5.7739355e-09
5.7554343e-09
5.7410056e-09
5.7295369e-09
5.7202778e-09
5.7127004e-09
5.7064195e-09
5.7011434e-09
5.6966376e-09
5.6927076e-09
5.689145e-09
5.6857943e-09
5.6821242e-09
5.6784557e-09
5.6701648e-09
5.6681407e-09
5.6073097e-09
4.4513561e-09
3.4434035e-11
1.0703496e-11
1.4645253e-11
5.0673e-12
1.0425371e-11
3.2787299e-12
8.5390689e-12
5.0162115e-12
7.3411517e-12
6.7130173e-12
6.4511159e-12
6.0630408e-12
5.7797824e-12
5.4984539e-12
5.2514071e-12
5.0229499e-12
4.813752e-12
4.620485e-12
4.4414009e-12
4.2748133e-12
4.1193424e-12
3.9738209e-12
3.8372331e-12
3.7087102e-12
3.587497e-12
3.4729362e-12
3.3644467e-12
3.2615141e-12
3.1636823e-12
3.070544e-12
2.9817366e-12
2.8969358e-12
2.8158457e-12
2.7381985e-12
2.663753e-12
2.5922959e-12
2.5236463e-12
2.4576495e-12
2.3941482e-12
2.3329878e-12
2.2740247e-12
2.2171238e-12
2.1621693e-12
2.1090502e-12
2.0576628e-12
2.0079119e-12
1.9597108e-12
1.9129765e-12
1.8676311e-12
1.8236031e-12
1.7808253e-12
1.7392351e-12
1.6987735e-12
1.6593851e-12
1.6210196e-12
1.5836294e-12
1.5471677e-12
1.5115914e-12
1.4768601e-12
1.4429352e-12
1.4097809e-12
1.3773627e-12
1.345648e-12
1.3146079e-12
1.2842132e-12
1.2544357e-12
1.2252494e-12
1.1966294e-12
1.1685521e-12
1.140995e-12
1.1139365e-12
1.0873576e-12
1.061239e-12
1.0355618e-12
1.0103079e-12
9.854603e-13
9.6100285e-13
9.369198e-13
9.1319614e-13
8.8981779e-13
8.6676861e-13
8.440375e-13
8.2161201e-13
7.9948002e-13
7.7762952e-13
7.5604962e-13
7.3473021e-13
7.1366047e-13
6.9283917e-13
6.7272309e-13
6.5390693e-13
6.3648333e-13
6.2031982e-13
6.0529328e-13
5.9128636e-13
5.7819561e-13
5.6593071e-13
5.5441217e-13
5.4356967e-13
5.3334088e-13
5.2367036e-13
5.1450755e-13
5.0580612e-13
4.975232e-13
4.8961856e-13
4.8204422e-13
4.7476564e-13
4.6768731e-13
4.6086133e-13
4.5379077e-13
4.4777937e-13
4.3880623e-13
6.6024554e-09
6.1020149e-09
5.9404943e-09
5.8622339e-09
5.8135566e-09
5.7797175e-09
5.7548384e-09
5.7359029e-09
5.7211326e-09
5.7093902e-09
5.6999087e-09
5.6921485e-09
5.6857162e-09
5.6803141e-09
5.6757037e-09
5.6716878e-09
5.6680572e-09
5.6646571e-09
5.6609618e-09
5.6573009e-09
5.6490875e-09
5.647302e-09
5.5870591e-09
4.4419322e-09
3.5126313e-11
1.0355839e-11
1.4025822e-11
4.7005296e-12
9.9453242e-12
3.0284233e-12
8.1212601e-12
5.2162889e-12
6.9599711e-12
6.3565308e-12
6.0970091e-12
5.7233147e-12
5.4475094e-12
5.17574e-12
4.9367045e-12
4.7161698e-12
4.5144338e-12
4.3283481e-12
4.1561725e-12
3.9962591e-12
3.8472532e-12
3.7080013e-12
3.5775053e-12
3.4549086e-12
3.3394666e-12
3.2305301e-12
3.1275258e-12
3.0299458e-12
2.9373403e-12
2.8493076e-12
2.7654902e-12
2.6855691e-12
2.6092543e-12
2.5362841e-12
2.4664248e-12
2.3994706e-12
2.3352434e-12
2.2735804e-12
2.2143217e-12
2.1573156e-12
2.1024209e-12
2.0495044e-12
1.9984535e-12
1.9491599e-12
1.9015222e-12
1.8554476e-12
1.8108512e-12
1.7676525e-12
1.7257757e-12
1.6851511e-12
1.6457136e-12
1.6074025e-12
1.5701606e-12
1.5339344e-12
1.4986751e-12
1.4643367e-12
1.4308742e-12
1.3982459e-12
1.366413e-12
1.3353384e-12
1.3049877e-12
1.2753276e-12
1.2463271e-12
1.2179583e-12
1.1901932e-12
1.1630049e-12
1.1363686e-12
1.1102604e-12
1.0846579e-12
1.0595395e-12
1.0348847e-12
1.0106755e-12
9.8689349e-13
9.6352057e-13
9.405396e-13
9.1793442e-13
8.9568956e-13
8.7379011e-13
8.5222179e-13
8.3097109e-13
8.1002222e-13
7.8936506e-13
7.6898783e-13
7.4887898e-13
7.2902712e-13
7.0942188e-13
6.9005359e-13
6.7091236e-13
6.519959e-13
6.3372151e-13
6.1663077e-13
6.0080726e-13
5.8612978e-13
5.7248559e-13
5.5976745e-13
5.4788102e-13
5.3674401e-13
5.2628413e-13
5.1643743e-13
5.0714729e-13
4.9836338e-13
4.9003983e-13
4.8213462e-13
4.7460913e-13
4.6742696e-13
4.605445e-13
4.5393049e-13
4.4749782e-13
4.4129536e-13
4.3486794e-13
4.2941238e-13
4.2123807e-13
6.5999753e-09
6.087508e-09
5.9218994e-09
5.8415428e-09
5.7915255e-09
5.7567414e-09
5.7311603e-09
5.7116858e-09
5.6964914e-09
5.6844092e-09
5.6746513e-09
5.6666638e-09
5.6600429e-09
5.6544834e-09
5.6497416e-09
5.6456169e-09
5.6418984e-09
5.6384319e-09
5.6346967e-09
5.6310326e-09
5.6228841e-09
5.6213574e-09
5.5616428e-09
4.4301385e-09
3.5916672e-11
1.0004091e-11
1.338597e-11
4.3522187e-12
9.4523311e-12
2.8105146e-12
7.6972534e-12
5.3097849e-12
6.5784102e-12
6.0027679e-12
5.7476327e-12
5.3903844e-12
5.1239473e-12
4.8634127e-12
4.6339572e-12
4.4227473e-12
4.2297488e-12
4.0519921e-12
3.8877567e-12
3.7354407e-12
3.5937227e-12
3.4614707e-12
3.3377113e-12
3.2216067e-12
3.1124286e-12
3.0095425e-12
2.9123877e-12
2.8204682e-12
2.7333447e-12
2.6506256e-12
2.5719629e-12
2.497046e-12
2.425594e-12
2.3573542e-12
2.2921017e-12
2.2296374e-12
2.1697859e-12
2.1123817e-12
2.0572675e-12
2.0042963e-12
1.9533312e-12
1.9042424e-12
1.8569222e-12
1.8112661e-12
1.7671765e-12
1.7245639e-12
1.6833468e-12
1.6434476e-12
1.6047936e-12
1.5673181e-12
1.5309587e-12
1.4956572e-12
1.461359e-12
1.4280129e-12
1.3955725e-12
1.3639936e-12
1.3332335e-12
1.3032526e-12
1.2740139e-12
1.2454822e-12
1.2176247e-12
1.19041e-12
1.1638087e-12
1.1377941e-12
1.1123398e-12
1.0874206e-12
1.0630126e-12
1.0390936e-12
1.0156423e-12
9.9263834e-13
9.7006236e-13
9.4789743e-13
9.2612632e-13
9.0473182e-13
8.836978e-13
8.63009e-13
8.4265086e-13
8.2260934e-13
8.0287096e-13
7.8342291e-13
7.6424985e-13
7.4534267e-13
7.2669031e-13
7.0828189e-13
6.9010667e-13
6.7215488e-13
6.5441736e-13
6.3688513e-13
6.1955515e-13
6.0281216e-13
5.8715393e-13
5.7265697e-13
5.5920986e-13
5.4670881e-13
5.3505528e-13
5.2416269e-13
5.1395561e-13
5.0436783e-13
4.9534083e-13
4.868228e-13
4.7876772e-13
4.7113366e-13
4.6388221e-13
4.5697832e-13
4.5038881e-13
4.4407365e-13
4.3800432e-13
4.3210061e-13
4.2640884e-13
4.2050782e-13
4.1550726e-13
4.0798618e-13
6.5970547e-09
6.0698996e-09
5.8993079e-09
5.8163982e-09
5.7647494e-09
5.728815e-09
5.7023797e-09
5.6822491e-09
5.6665386e-09
5.6540429e-09
5.6439485e-09
5.635684e-09
5.6288329e-09
5.6230809e-09
5.6181778e-09
5.6139188e-09
5.6100903e-09
5.6065384e-09
5.6027468e-09
5.5990675e-09
5.5909694e-09
5.5897233e-09
5.5304694e-09
4.4156809e-09
3.6828921e-11
9.6483543e-12
1.2723506e-11
4.0198369e-12
8.9445653e-12
2.6154578e-12
7.2651712e-12
5.2982215e-12
6.1942664e-12
5.6490397e-12
5.400213e-12
5.061108e-12
4.8056902e-12
4.5577514e-12
4.3391438e-12
4.1383605e-12
3.9550825e-12
3.7865187e-12
3.6309827e-12
3.4869273e-12
3.3530735e-12
3.2283193e-12
3.1117228e-12
3.0024721e-12
2.8998616e-12
2.8032766e-12
2.7121743e-12
2.6260753e-12
2.544555e-12
2.4672357e-12
2.3937818e-12
2.3238949e-12
2.2573051e-12
2.1937706e-12
2.1330761e-12
2.0750296e-12
2.0194593e-12
1.9662021e-12
1.9151061e-12
1.8660304e-12
1.818844e-12
1.7734216e-12
1.7296613e-12
1.6874636e-12
1.6467356e-12
1.607392e-12
1.569355e-12
1.532551e-12
1.4969111e-12
1.4623718e-12
1.428874e-12
1.3963627e-12
1.3647862e-12
1.334096e-12
1.3042481e-12
1.275201e-12
1.2469144e-12
1.2193509e-12
1.1924756e-12
1.1662555e-12
1.1406596e-12
1.1156585e-12
1.0912244e-12
1.0673323e-12
1.0439575e-12
1.0210761e-12
9.986661e-13
9.7670639e-13
9.5517703e-13
9.3405907e-13
9.1333432e-13
8.9298706e-13
8.7300115e-13
8.5336046e-13
8.3404986e-13
8.1505509e-13
7.9636251e-13
7.7795897e-13
7.5983188e-13
7.4196913e-13
7.2435594e-13
7.0698419e-13
6.8984357e-13
6.7292388e-13
6.562151e-13
6.3970804e-13
6.2339412e-13
6.0726524e-13
5.9131782e-13
5.7590831e-13
5.614965e-13
5.4815292e-13
5.357749e-13
5.2426661e-13
5.135372e-13
5.0350695e-13
4.9410649e-13
4.8527495e-13
4.7695858e-13
4.6910978e-13
4.6168631e-13
4.5464968e-13
4.4796465e-13
4.4159925e-13
4.3552313e-13
4.2969936e-13
4.2410181e-13
4.1865623e-13
4.1340672e-13
4.0796155e-13
4.033548e-13
3.9639984e-13
6.5936933e-09
6.0488452e-09
5.8722646e-09
5.7862893e-09
5.7326825e-09
5.6953683e-09
5.6679083e-09
5.646991e-09
5.6306616e-09
5.6176698e-09
5.6071718e-09
5.5985748e-09
5.5914471e-09
5.5854636e-09
5.580366e-09
5.5759439e-09
5.5719807e-09
5.5683222e-09
5.5644555e-09
5.5607475e-09
5.5526835e-09
5.5517415e-09
5.4928719e-09
4.3982232e-09
3.7891798e-11
9.2892752e-12
1.2037223e-11
3.7013442e-12
8.4208599e-12
2.4361466e-12
6.823667e-12
5.1924894e-12
5.8058476e-12
5.2932272e-12
5.0525455e-12
4.7329846e-12
4.4900213e-12
4.2557976e-12
4.0490781e-12
3.8596027e-12
3.6868179e-12
3.5281125e-12
3.3818486e-12
3.2465435e-12
3.1209691e-12
3.0040624e-12
2.8949197e-12
2.7927614e-12
2.6969105e-12
2.6067771e-12
2.5218411e-12
2.4416433e-12
2.3657779e-12
2.2938839e-12
2.2256414e-12
2.1607658e-12
2.0990006e-12
2.040116e-12
1.983907e-12
1.9301895e-12
1.8787973e-12
1.8295731e-12
1.7823722e-12
1.7370611e-12
1.6935154e-12
1.6516154e-12
1.6112658e-12
1.5723729e-12
1.5348488e-12
1.498613e-12
1.4635923e-12
1.4297175e-12
1.3969235e-12
1.3651507e-12
1.3343437e-12
1.3044508e-12
1.2754234e-12
1.2472162e-12
1.219788e-12
1.1930997e-12
1.1671137e-12
1.1417951e-12
1.1171113e-12
1.0930313e-12
1.0695264e-12
1.046569e-12
1.0241332e-12
1.0021957e-12
9.8073353e-13
9.5972443e-13
9.3914779e-13
9.1898407e-13
8.9921469e-13
8.7982202e-13
8.6078915e-13
8.4210161e-13
8.2374433e-13
8.0570232e-13
7.8796147e-13
7.7050851e-13
7.5333076e-13
7.36416e-13
7.1975251e-13
7.0332893e-13
6.8713106e-13
6.7115178e-13
6.5538151e-13
6.3981079e-13
6.2443028e-13
6.0923141e-13
5.9420621e-13
5.7934738e-13
5.6465101e-13
5.5044787e-13
5.3716339e-13
5.2486278e-13
5.1345133e-13
5.0284051e-13
4.9294649e-13
4.836958e-13
4.7502456e-13
4.6687677e-13
4.5920298e-13
4.5195942e-13
4.4510726e-13
4.3861112e-13
4.3243862e-13
4.2656057e-13
4.2094915e-13
4.1557025e-13
4.103999e-13
4.0536923e-13
4.0052026e-13
3.9548811e-13
3.912377e-13
3.8479683e-13
6.5899068e-09
6.0239669e-09
5.8402664e-09
5.750651e-09
5.694721e-09
5.65577e-09
5.6270951e-09
5.6052452e-09
5.5881823e-09
5.5746025e-09
5.5636259e-09
5.5546345e-09
5.5471786e-09
5.5409198e-09
5.5355904e-09
5.5309734e-09
5.526848e-09
5.5230592e-09
5.5190967e-09
5.5153446e-09
5.5072961e-09
5.5066834e-09
5.4481121e-09
4.3773861e-09
3.9140241e-11
8.9280887e-12
1.1327024e-11
3.3951535e-12
7.8808028e-12
2.2671782e-12
6.3719963e-12
5.0074726e-12
5.4120151e-12
4.9337998e-12
4.7030045e-12
4.4041369e-12
4.1748756e-12
3.9552907e-12
3.761317e-12
3.5838598e-12
3.4221818e-12
3.2738536e-12
3.1373004e-12
3.0111128e-12
2.8941225e-12
2.7853134e-12
2.6838267e-12
2.588921e-12
2.4999528e-12
2.4163616e-12
2.3376539e-12
2.2633945e-12
2.1931989e-12
2.1267257e-12
2.0636727e-12
2.0037712e-12
1.9467795e-12
1.8924806e-12
1.8406806e-12
1.7912043e-12
1.7438935e-12
1.6985988e-12
1.6551838e-12
1.6135233e-12
1.5735002e-12
1.5350013e-12
1.4979385e-12
1.4622239e-12
1.4277754e-12
1.3945177e-12
1.3623826e-12
1.3313052e-12
1.3012251e-12
1.2720865e-12
1.243838e-12
1.2164312e-12
1.1898212e-12
1.1639657e-12
1.1388262e-12
1.1143668e-12
1.0905524e-12
1.0673505e-12
1.0447309e-12
1.0226651e-12
1.0011262e-12
9.8008885e-13
9.5952899e-13
9.3942497e-13
9.1975559e-13
9.0050028e-13
8.8163996e-13
8.6315658e-13
8.4503295e-13
8.2725278e-13
8.0980044e-13
7.9266272e-13
7.7582564e-13
7.5927532e-13
7.4299873e-13
7.2698358e-13
7.1121814e-13
6.9569114e-13
6.8039171e-13
6.6530929e-13
6.504303e-13
6.3574857e-13
6.2125527e-13
6.0694165e-13
5.9279907e-13
5.7881962e-13
5.6499589e-13
5.513214e-13
5.3779201e-13
5.247144e-13
5.124818e-13
5.0115443e-13
4.9064505e-13
4.8087198e-13
4.7175794e-13
4.6323532e-13
4.5524535e-13
4.4773656e-13
4.4066351e-13
4.3398599e-13
4.2766833e-13
4.2167805e-13
4.1598541e-13
4.1056381e-13
4.0538776e-13
4.0042578e-13
3.9565588e-13
3.910143e-13
3.8654096e-13
3.8189643e-13
3.7797975e-13
3.72023e-13
6.5857346e-09
5.9948577e-09
5.8027671e-09
5.7088686e-09
5.6502072e-09
5.609333e-09
5.5792311e-09
5.556286e-09
5.5383618e-09
5.5240917e-09
5.5125532e-09
5.5030987e-09
5.4952571e-09
5.4886746e-09
5.4830721e-09
5.4782247e-09
5.4739063e-09
5.4699608e-09
5.4658792e-09
5.4620659e-09
5.4540121e-09
5.4537558e-09
5.395387e-09
4.3527467e-09
4.0617013e-11
8.5666658e-12
1.0594057e-11
3.1001107e-12
7.3248473e-12
2.1044238e-12
5.9101045e-12
4.758603e-12
5.0122486e-12
4.5698586e-12
4.3505803e-12
4.0733284e-12
3.858843e-12
3.6546501e-12
3.4741239e-12
3.3092534e-12
3.1591665e-12
3.0216178e-12
2.8951091e-12
2.7783131e-12
2.6701291e-12
2.5695955e-12
2.4759037e-12
2.3883559e-12
2.3063466e-12
2.2293486e-12
2.1568983e-12
2.0885872e-12
2.0240548e-12
1.9629814e-12
1.9050841e-12
1.8501115e-12
1.7978376e-12
1.7480594e-12
1.7005949e-12
1.6552788e-12
1.6119627e-12
1.5705066e-12
1.5307836e-12
1.4926768e-12
1.4560774e-12
1.4208792e-12
1.3870012e-12
1.3543621e-12
1.3228859e-12
1.2925028e-12
1.2631493e-12
1.2347658e-12
1.2072961e-12
1.180689e-12
1.1548966e-12
1.1298745e-12
1.1055811e-12
1.0819775e-12
1.0590282e-12
1.0366999e-12
1.0149605e-12
9.9378004e-13
9.731307e-13
9.5298618e-13
9.3332184e-13
9.1411428e-13
8.9534146e-13
8.7698343e-13
8.5902072e-13
8.4143447e-13
8.2420713e-13
8.0732212e-13
7.9076367e-13
7.7451684e-13
7.5856727e-13
7.4290298e-13
7.2751111e-13
7.123789e-13
6.9749435e-13
6.8284618e-13
6.6842363e-13
6.5421632e-13
6.4021431e-13
6.2640778e-13
6.1278386e-13
5.9933726e-13
5.8605991e-13
5.7294377e-13
5.5998091e-13
5.4716406e-13
5.344864e-13
5.2194222e-13
5.0952726e-13
4.9752496e-13
4.8629759e-13
4.7590056e-13
4.6625375e-13
4.5728201e-13
4.4891437e-13
4.4108876e-13
4.337513e-13
4.2685483e-13
4.203577e-13
4.1422309e-13
4.0841834e-13
4.0291371e-13
3.9768198e-13
3.9269896e-13
3.8794141e-13
3.8338033e-13
3.7899564e-13
3.7472847e-13
3.706166e-13
3.6634542e-13
3.6274935e-13
3.5726087e-13
6.5812488e-09
5.9610872e-09
5.7591824e-09
5.6602826e-09
5.5984352e-09
5.5553193e-09
5.5235548e-09
5.4993342e-09
5.4804072e-09
5.4653334e-09
5.4531407e-09
5.4431469e-09
5.434856e-09
5.4278961e-09
5.4219747e-09
5.4168575e-09
5.4123122e-09
5.4081808e-09
5.4039545e-09
5.4000608e-09
5.3919784e-09
5.3921072e-09
5.3338354e-09
4.3238384e-09
4.2374783e-11
8.207574e-12
9.8408463e-12
2.8154868e-12
6.7544302e-12
1.9447865e-12
5.4387263e-12
4.4600694e-12
4.6067249e-12
4.2012013e-12
3.9949366e-12
3.7400052e-12
3.5411981e-12
3.3529921e-12
3.1864709e-12
3.0346278e-12
2.8965017e-12
2.7700333e-12
2.6538136e-12
2.5466046e-12
2.4473804e-12
2.3552401e-12
2.2694308e-12
2.1893023e-12
2.1142909e-12
2.0439059e-12
1.9777163e-12
1.9153427e-12
1.8564505e-12
1.8007432e-12
1.7479587e-12
1.6978639e-12
1.6502495e-12
1.6049271e-12
1.5617273e-12
1.5204963e-12
1.4810966e-12
1.4433987e-12
1.4072852e-12
1.3726487e-12
1.3393885e-12
1.3074061e-12
1.2766279e-12
1.2469794e-12
1.2183906e-12
1.1907976e-12
1.164142e-12
1.1383692e-12
1.1134276e-12
1.0892704e-12
1.0658536e-12
1.0431367e-12
1.0210817e-12
9.9965276e-13
9.7881764e-13
9.5854584e-13
9.3880801e-13
9.1957682e-13
9.0082686e-13
8.8253412e-13
8.6467613e-13
8.4723153e-13
8.3018023e-13
8.1350402e-13
7.9718515e-13
7.8120645e-13
7.6555191e-13
7.5020644e-13
7.3515567e-13
7.2038596e-13
7.0588428e-13
6.9163981e-13
6.7764083e-13
6.6387568e-13
6.5033341e-13
6.3700373e-13
6.2387684e-13
6.1094328e-13
5.9819397e-13
5.8561991e-13
5.7320895e-13
5.6095664e-13
5.4885567e-13
5.368987e-13
5.2507851e-13
5.1338846e-13
5.0182236e-13
4.9037519e-13
4.790427e-13
4.6808545e-13
4.5783538e-13
4.4834314e-13
4.3953553e-13
4.3134376e-13
4.2370294e-13
4.165564e-13
4.0985498e-13
4.0355566e-13
3.9762049e-13
3.9201591e-13
3.8671214e-13
3.816821e-13
3.76901e-13
3.7234697e-13
3.6799888e-13
3.638302e-13
3.5982267e-13
3.5592225e-13
3.5216442e-13
3.4825933e-13
3.4497663e-13
3.3994941e-13
6.5765665e-09
5.9222082e-09
5.7088964e-09
5.6041964e-09
5.5386585e-09
5.4929482e-09
5.4592607e-09
5.4335655e-09
5.4134794e-09
5.3974768e-09
5.3845283e-09
5.3739113e-09
5.3651011e-09
5.3577045e-09
5.3514139e-09
5.3459839e-09
5.3411742e-09
5.3368246e-09
5.3324251e-09
5.3284299e-09
5.3202932e-09
5.3208373e-09
5.2625473e-09
4.2901501e-09
4.4478776e-11
7.8541558e-12
9.071408e-12
2.5409774e-12
6.1720874e-12
1.7860746e-12
4.9594882e-12
4.1242093e-12
4.196403e-12
3.8283964e-12
3.6364781e-12
3.4043531e-12
3.221948e-12
3.0501652e-12
2.8980641e-12
2.7595644e-12
2.6336586e-12
2.5184746e-12
2.4127031e-12
2.3152023e-12
2.2250265e-12
2.1413415e-12
2.0634535e-12
1.990764e-12
1.9227537e-12
1.8589712e-12
1.7990201e-12
1.7425519e-12
1.6892594e-12
1.6388706e-12
1.5911449e-12
1.5458687e-12
1.5028498e-12
1.4619151e-12
1.4229088e-12
1.3856894e-12
1.3501312e-12
1.3161156e-12
1.2835357e-12
1.2522932e-12
1.2222962e-12
1.1934542e-12
1.165701e-12
1.1389689e-12
1.1131942e-12
1.0883188e-12
1.0642897e-12
1.0410573e-12
1.0185748e-12
9.9679951e-13
9.7569185e-13
9.5521487e-13
9.3533409e-13
9.1601726e-13
8.9723497e-13
8.7895967e-13
8.6116479e-13
8.4382561e-13
8.269191e-13
8.1042357e-13
7.9431869e-13
7.7858515e-13
7.6320479e-13
7.4816112e-13
7.3343813e-13
7.1902031e-13
7.0489318e-13
6.9104312e-13
6.7745713e-13
6.6412292e-13
6.510287e-13
6.3816485e-13
6.2552074e-13
6.1308582e-13
6.0085017e-13
5.8880451e-13
5.7693996e-13
5.6524799e-13
5.5372038e-13
5.4234893e-13
5.311223e-13
5.200368e-13
5.0908587e-13
4.9826288e-13
4.8756129e-13
4.7697514e-13
4.6649882e-13
4.5612799e-13
4.458585e-13
4.3592808e-13
4.2663863e-13
4.1803609e-13
4.1005396e-13
4.0262974e-13
3.957045e-13
3.8922686e-13
3.8315225e-13
3.7744174e-13
3.7206094e-13
3.6697947e-13
3.621704e-13
3.5760921e-13
3.5327348e-13
3.491436e-13
3.4520049e-13
3.4142003e-13
3.3778574e-13
3.3424841e-13
3.3084104e-13
3.2729874e-13
3.2432553e-13
3.1975756e-13
6.5718643e-09
5.8777662e-09
5.651271e-09
5.5398849e-09
5.4700995e-09
5.4214062e-09
5.3855094e-09
5.3581209e-09
5.3367044e-09
5.3196362e-09
5.3058204e-09
5.2944884e-09
5.2850821e-09
5.2771844e-09
5.2704695e-09
5.2646792e-09
5.2595642e-09
5.2549613e-09
5.2503576e-09
5.2462374e-09
5.238018e-09
5.2390093e-09
5.1805768e-09
4.2511269e-09
4.7010173e-11
7.5106338e-12
8.2913319e-12
2.2767013e-12
5.5815533e-12
1.6269451e-12
4.4750029e-12
3.761609e-12
3.7831047e-12
3.4528552e-12
3.2764179e-12
3.0673545e-12
2.9018823e-12
2.7467927e-12
2.6093776e-12
2.4844082e-12
2.3708679e-12
2.2670725e-12
2.1718208e-12
2.0840726e-12
2.0029664e-12
1.9277393e-12
1.8577601e-12
1.792484e-12
1.7314388e-12
1.674214e-12
1.6204495e-12
1.5698289e-12
1.5220734e-12
1.4769363e-12
1.4341995e-12
1.3936691e-12
1.3551706e-12
1.3185469e-12
1.2836563e-12
1.2503703e-12
1.2185757e-12
1.1881652e-12
1.1590421e-12
1.131118e-12
1.1043097e-12
1.0785349e-12
1.0537348e-12
1.0298485e-12
1.0068188e-12
9.8459338e-13
9.6312471e-13
9.42368e-13
9.2228139e-13
9.0282655e-13
8.8396788e-13
8.6567225e-13
8.4790874e-13
8.3064842e-13
8.1386493e-13
7.9753355e-13
7.8163051e-13
7.6613364e-13
7.5102232e-13
7.3627713e-13
7.2187987e-13
7.0781326e-13
6.9406103e-13
6.8060842e-13
6.6744112e-13
6.5454526e-13
6.4190787e-13
6.2951678e-13
6.1736037e-13
6.0542764e-13
5.9370805e-13
5.8219313e-13
5.7087333e-13
5.597392e-13
5.4878187e-13
5.37993e-13
5.2736466e-13
5.1688923e-13
5.0655934e-13
4.963676e-13
4.8630353e-13
4.7636414e-13
4.6654359e-13
4.5683597e-13
4.4723544e-13
4.3773666e-13
4.2833464e-13
4.1902567e-13
4.0980576e-13
4.0088979e-13
3.925497e-13
3.8482668e-13
3.7766088e-13
3.7099599e-13
3.6477896e-13
3.5896362e-13
3.5350992e-13
3.4838292e-13
3.4355175e-13
3.3898916e-13
3.3467098e-13
3.3057524e-13
3.2668183e-13
3.229733e-13
3.1943261e-13
3.1603801e-13
3.1277478e-13
3.0959852e-13
3.0653961e-13
3.0335844e-13
3.0069222e-13
2.9658347e-13
6.5673982e-09
5.8273116e-09
5.5856579e-09
5.4666081e-09
5.3919631e-09
5.3398612e-09
5.301442e-09
5.2721218e-09
5.2491884e-09
5.2309054e-09
5.2161013e-09
5.2039545e-09
5.193869e-09
5.1853999e-09
5.1782009e-09
5.1719991e-09
5.1665344e-09
5.1616398e-09
5.1567981e-09
5.1525275e-09
5.1441949e-09
5.1456658e-09
5.086958e-09
4.2061699e-09
5.0070409e-11
7.1822581e-12
7.5078009e-12
2.0231906e-12
4.9878227e-12
1.4668848e-12
3.9889354e-12
3.3815318e-12
3.3695743e-12
3.0768872e-12
2.9168291e-12
2.7308345e-12
2.5826137e-12
2.4443066e-12
2.3216822e-12
2.2102902e-12
2.1091375e-12
2.0167264e-12
1.9319706e-12
1.8539347e-12
1.7818447e-12
1.7150122e-12
1.6528704e-12
1.5949301e-12
1.5407676e-12
1.4900146e-12
1.442348e-12
1.3974845e-12
1.3551742e-12