/*--------------------------------*- C++ -*----------------------------------*\
| =========                 |                                                 |
| \\      /  F ield         | OpenFOAM: The Open Source CFD Toolbox           |
|  \\    /   O peration     | Version:  2206                                  |
|   \\  /    A nd           | Website:  www.openfoam.com                      |
|    \\/     M anipulation  |                                                 |
\*---------------------------------------------------------------------------*/
FoamFile
{
    version     2.0;
    format      ascii;
    arch        "LSB;label=32;scalar=64";
    class       volScalarField;
    location    "900";
    object      p;
}
// * * * * * * * * * * * * * * * * * * * * * * * * * * * * * * * * * * * * * //

dimensions      [0 2 -2 0 0 0 0];

internalField   nonuniform List<scalar> 
13056
(
0.011592172
0.011697897
0.011917662
0.012195407
0.012534096
0.012932911
0.013388739
0.013900768
0.014470543
0.015101331
0.015798109
0.016568034
0.017420966
0.018370967
0.019436713
0.020647961
0.02203967
0.023690583
0.025651641
0.028227587
0.031300587
0.036649249
0.041683137
0.082907319
0.051976872
0.0012201063
0.00051811938
0.0016259075
0.0021558163
0.0025873041
0.0028599902
0.0030582627
0.0032039344
0.0033070111
0.0033805269
0.0034341896
0.0034736298
0.0035024635
0.0035231581
0.0035377407
0.003547597
0.0035536598
0.0035566682
0.0035572295
0.0035557642
0.0035525665
0.003547925
0.0035420411
0.0035350992
0.0035272307
0.0035185155
0.0035090483
0.0034989023
0.0034881386
0.0034768216
0.0034649815
0.0034526328
0.0034398074
0.0034265282
0.0034128112
0.0033986715
0.0033841293
0.003369182
0.0033538195
0.0033380492
0.0033218709
0.0033052833
0.003288283
0.0032708678
0.0032530389
0.0032347748
0.0032160544
0.0031968725
0.0031772166
0.0031570702
0.0031364229
0.0031152518
0.0030935521
0.0030713023
0.0030484528
0.00302499
0.0030008904
0.0029761241
0.0029506625
0.0029244753
0.002897529
0.0028697955
0.0028412238
0.0028117582
0.0027813614
0.0027499837
0.0027175697
0.0026840666
0.0026494072
0.0026135387
0.0025763857
0.0025378447
0.0024978431
0.0024562891
0.0024130795
0.0023681093
0.0023212573
0.0022724044
0.0022214041
0.0021680828
0.0021122832
0.002053817
0.001992484
0.0019280621
0.0018603299
0.0017890079
0.0017138089
0.0016347473
0.0015524052
0.001468822
0.001386285
0.0013053757
0.0012259537
0.0011480096
0.0010715631
0.00099664601
0.00092332153
0.00085170122
0.00078192452
0.00071416176
0.0006486493
0.00058571365
0.00052575975
0.00046940826
0.00041730593
0.00037098825
0.00033093244
0.00030305085
0.00028066657
0.00042086923
-0.00037525785
0.011592172
0.011697897
0.011917663
0.012195407
0.012534096
0.012932911
0.013388739
0.013900768
0.014470543
0.015101331
0.015798109
0.016568035
0.017420967
0.018370968
0.019436714
0.020647962
0.022039672
0.023690585
0.025651644
0.028227594
0.031300595
0.036649266
0.041683189
0.082902061
0.051988711
0.0012277659
0.00052010654
0.0016267651
0.0021563366
0.0025876704
0.0028602667
0.0030584816
0.0032041131
0.0033071605
0.0033806542
0.0034342996
0.0034737259
0.0035025484
0.0035232337
0.0035378086
0.0035476582
0.0035537153
0.0035567188
0.0035572758
0.0035558068
0.0035526058
0.0035479613
0.0035420747
0.0035351305
0.0035272599
0.0035185427
0.0035090737
0.0034989261
0.003488161
0.0034768427
0.0034650013
0.0034526515
0.0034398251
0.0034265449
0.003412827
0.0033986864
0.0033841435
0.0033691955
0.0033538323
0.0033380613
0.0033218824
0.0033052943
0.0032882935
0.0032708778
0.0032530483
0.0032347838
0.003216063
0.0031968807
0.0031772244
0.0031570777
0.00313643
0.0031152586
0.0030935586
0.0030713085
0.0030484587
0.0030249957
0.0030008959
0.0029761293
0.0029506675
0.00292448
0.0028975336
0.0028697999
0.002841228
0.0028117622
0.0027813652
0.0027499873
0.0027175731
0.0026840699
0.0026494103
0.0026135417
0.0025763885
0.0025378474
0.0024978457
0.0024562916
0.0024130819
0.0023681115
0.0023212594
0.0022724064
0.002221406
0.0021680846
0.0021122849
0.0020538187
0.0019924856
0.0019280635
0.0018603313
0.0017890092
0.0017138101
0.0016347484
0.0015524062
0.001468823
0.0013862859
0.0013053766
0.0012259545
0.0011480104
0.0010715638
0.00099664672
0.00092332221
0.00085170187
0.00078192514
0.00071416235
0.00064864986
0.00058571419
0.00052576027
0.00046940876
0.00041730642
0.00037098872
0.00033093291
0.00030305132
0.00028066707
0.00042086975
-0.00037525751
0.011592172
0.011697897
0.011917663
0.012195407
0.012534096
0.012932911
0.01338874
0.013900768
0.014470543
0.015101331
0.01579811
0.016568035
0.017420968
0.018370969
0.019436715
0.020647964
0.022039674
0.023690589
0.025651649
0.028227601
0.031300605
0.036649286
0.041683236
0.082897165
0.052004856
0.0012348911
0.00052229474
0.0016277675
0.0021569447
0.0025880986
0.0028605898
0.0030587375
0.003204322
0.0033073351
0.0033808029
0.0034344281
0.0034738384
0.0035026477
0.0035233221
0.0035378878
0.0035477297
0.0035537802
0.003556778
0.0035573299
0.0035558565
0.0035526516
0.0035480037
0.003542114
0.003535167
0.003527294
0.0035185745
0.0035091035
0.003498954
0.0034881872
0.0034768673
0.0034650245
0.0034526734
0.0034398457
0.0034265644
0.0034128455
0.0033987039
0.0033841601
0.0033692112
0.0033538472
0.0033380755
0.0033218959
0.0033053071
0.0032883057
0.0032708894
0.0032530594
0.0032347944
0.0032160731
0.0031968903
0.0031772336
0.0031570865
0.0031364384
0.0031152666
0.0030935663
0.0030713158
0.0030484657
0.0030250023
0.0030009022
0.0029761354
0.0029506733
0.0029244855
0.0028975389
0.0028698049
0.0028412328
0.0028117668
0.0027813696
0.0027499916
0.0027175771
0.0026840738
0.002649414
0.0026135452
0.0025763919
0.0025378505
0.0024978488
0.0024562944
0.0024130846
0.0023681142
0.0023212619
0.0022724087
0.0022214082
0.0021680867
0.0021122869
0.0020538205
0.0019924874
0.0019280652
0.0018603329
0.0017890107
0.0017138115
0.0016347498
0.0015524075
0.0014688241
0.001386287
0.0013053776
0.0012259555
0.0011480113
0.0010715647
0.00099664755
0.000923323
0.00085170262
0.00078192585
0.00071416304
0.00064865052
0.00058571483
0.00052576088
0.00046940935
0.00041730699
0.00037098928
0.00033093345
0.00030305187
0.00028066762
0.00042087035
-0.00037525713
0.011592172
0.011697897
0.011917663
0.012195407
0.012534096
0.012932911
0.01338874
0.013900769
0.014470543
0.015101332
0.01579811
0.016568036
0.017420968
0.018370969
0.019436716
0.020647966
0.022039677
0.023690592
0.025651653
0.028227608
0.031300615
0.036649303
0.041683285
0.082892412
0.052022739
0.0012399047
0.00052432839
0.0016287391
0.0021575343
0.0025885136
0.002860903
0.0030589855
0.0032045245
0.0033075044
0.0033809471
0.0034345528
0.0034739473
0.0035027439
0.0035234078
0.0035379646
0.003547799
0.0035538431
0.0035568353
0.0035573824
0.0035559047
0.0035526961
0.0035480448
0.0035421522
0.0035352025
0.003527327
0.0035186054
0.0035091324
0.0034989811
0.0034882126
0.0034768912
0.003465047
0.0034526946
0.0034398657
0.0034265834
0.0034128634
0.0033987209
0.0033841761
0.0033692264
0.0033538617
0.0033380893
0.003321909
0.0033053195
0.0032883175
0.0032709007
0.0032530702
0.0032348046
0.0032160829
0.0031968996
0.0031772424
0.003157095
0.0031364465
0.0031152743
0.0030935737
0.0030713228
0.0030484724
0.0030250088
0.0030009084
0.0029761413
0.0029506789
0.0029244909
0.002897544
0.0028698098
0.0028412375
0.0028117713
0.0027813739
0.0027499956
0.002717581
0.0026840775
0.0026494176
0.0026135486
0.0025763951
0.0025378536
0.0024978517
0.0024562972
0.0024130873
0.0023681167
0.0023212643
0.002272411
0.0022214104
0.0021680888
0.0021122889
0.0020538224
0.0019924891
0.0019280668
0.0018603344
0.0017890122
0.0017138129
0.0016347511
0.0015524087
0.0014688252
0.0013862881
0.0013053786
0.0012259564
0.0011480122
0.0010715655
0.00099664835
0.00092332376
0.00085170335
0.00078192655
0.00071416371
0.00064865116
0.00058571544
0.00052576148
0.00046940992
0.00041730755
0.00037098982
0.00033093398
0.0003030524
0.00028066813
0.00042087094
-0.00037525678
0.011592172
0.011697897
0.011917663
0.012195407
0.012534097
0.012932911
0.01338874
0.013900769
0.014470544
0.015101332
0.015798111
0.016568036
0.017420969
0.018370971
0.019436718
0.020647967
0.022039679
0.023690595
0.025651658
0.028227616
0.031300625
0.036649322
0.041683339
0.082887259
0.052041729
0.0012456279
0.00052641152
0.0016297399
0.0021581417
0.0025889413
0.0028612257
0.0030592411
0.0032047331
0.0033076788
0.0033810956
0.0034346812
0.0034740596
0.0035028431
0.003523496
0.0035380438
0.0035478704
0.0035539079
0.0035568943
0.0035574365
0.0035559544
0.0035527419
0.0035480871
0.0035421914
0.003535239
0.003527361
0.0035186371
0.0035091621
0.003499009
0.0034882387
0.0034769158
0.0034650702
0.0034527164
0.0034398864
0.0034266029
0.0034128819
0.0033987383
0.0033841927
0.0033692421
0.0033538766
0.0033381034
0.0033219225
0.0033053323
0.0032883297
0.0032709123
0.0032530812
0.0032348152
0.0032160929
0.0031969092
0.0031772516
0.0031571037
0.0031364548
0.0031152823
0.0030935813
0.0030713301
0.0030484794
0.0030250154
0.0030009147
0.0029761474
0.0029506847
0.0029244965
0.0028975493
0.0028698149
0.0028412423
0.0028117759
0.0027813783
0.0027499999
0.0027175851
0.0026840813
0.0026494212
0.0026135521
0.0025763984
0.0025378568
0.0024978547
0.0024563001
0.00241309
0.0023681193
0.0023212668
0.0022724134
0.0022214126
0.0021680909
0.0021122909
0.0020538243
0.0019924909
0.0019280685
0.001860336
0.0017890137
0.0017138143
0.0016347524
0.0015524099
0.0014688264
0.0013862892
0.0013053796
0.0012259574
0.0011480131
0.0010715664
0.00099664918
0.00092332455
0.0008517041
0.00078192727
0.00071416439
0.00064865182
0.00058571607
0.00052576209
0.00046941051
0.00041730812
0.00037099038
0.00033093452
0.00030305295
0.00028066865
0.00042087154
-0.00037525643
0.011592172
0.011697897
0.011917663
0.012195407
0.012534097
0.012932912
0.01338874
0.013900769
0.014470544
0.015101332
0.015798111
0.016568037
0.01742097
0.018370972
0.019436719
0.02064797
0.022039682
0.0236906
0.025651663
0.028227626
0.031300638
0.036649344
0.041683401
0.082881523
0.052061516
0.0012529029
0.00052863605
0.0016308058
0.0021587888
0.0025893968
0.0028615695
0.0030595133
0.0032049554
0.0033078646
0.0033812539
0.003434818
0.0034741792
0.0035029487
0.0035235901
0.0035381281
0.0035479465
0.0035539769
0.0035569572
0.0035574941
0.0035560073
0.0035527906
0.0035481322
0.0035422333
0.0035352779
0.0035273973
0.003518671
0.0035091938
0.0034990387
0.0034882666
0.0034769421
0.0034650949
0.0034527397
0.0034399084
0.0034266236
0.0034129015
0.0033987569
0.0033842103
0.0033692589
0.0033538925
0.0033381185
0.0033219368
0.003305346
0.0032883427
0.0032709247
0.003253093
0.0032348264
0.0032161037
0.0031969194
0.0031772614
0.003157113
0.0031364637
0.0031152908
0.0030935894
0.0030713379
0.0030484868
0.0030250225
0.0030009215
0.0029761538
0.0029506909
0.0029245024
0.0028975549
0.0028698203
0.0028412475
0.0028117808
0.002781383
0.0027500043
0.0027175893
0.0026840854
0.0026494251
0.0026135558
0.002576402
0.0025378602
0.0024978579
0.0024563032
0.0024130929
0.0023681221
0.0023212694
0.0022724159
0.002221415
0.0021680931
0.002112293
0.0020538263
0.0019924928
0.0019280703
0.0018603377
0.0017890153
0.0017138158
0.0016347538
0.0015524112
0.0014688276
0.0013862904
0.0013053807
0.0012259584
0.0011480141
0.0010715673
0.00099665006
0.00092332539
0.0008517049
0.00078192803
0.00071416513
0.00064865252
0.00058571675
0.00052576273
0.00046941114
0.00041730872
0.00037099097
0.0003309351
0.00030305354
0.00028066921
0.00042087218
-0.00037525604
0.011592172
0.011697897
0.011917663
0.012195407
0.012534097
0.012932912
0.01338874
0.013900769
0.014470544
0.015101333
0.015798112
0.016568038
0.017420971
0.018370973
0.019436721
0.020647972
0.022039686
0.023690605
0.02565167
0.028227638
0.031300653
0.036649372
0.041683473
0.082875107
0.052082355
0.0012609191
0.00053103131
0.0016319526
0.0021594852
0.0025898871
0.0028619395
0.0030598063
0.0032051946
0.0033080645
0.0033814242
0.0034349652
0.003474308
0.0035030623
0.0035236913
0.0035382189
0.0035480284
0.0035540512
0.003557025
0.003557556
0.0035560643
0.0035528432
0.0035481808
0.0035422783
0.0035353198
0.0035274363
0.0035187074
0.0035092279
0.0034990706
0.0034882966
0.0034769703
0.0034651215
0.0034527648
0.003439932
0.003426646
0.0034129227
0.003398777
0.0033842293
0.0033692769
0.0033539096
0.0033381348
0.0033219523
0.0033053607
0.0032883567
0.003270938
0.0032531057
0.0032348385
0.0032161152
0.0031969304
0.0031772719
0.003157123
0.0031364733
0.0031152999
0.0030935981
0.0030713462
0.0030484948
0.0030250301
0.0030009287
0.0029761608
0.0029506975
0.0029245087
0.002897561
0.0028698261
0.002841253
0.0028117861
0.002781388
0.0027500092
0.002717594
0.0026840898
0.0026494293
0.0026135598
0.0025764058
0.0025378638
0.0024978614
0.0024563065
0.0024130961
0.002368125
0.0023212722
0.0022724186
0.0022214175
0.0021680955
0.0021122953
0.0020538285
0.0019924948
0.0019280723
0.0018603395
0.001789017
0.0017138174
0.0016347553
0.0015524126
0.001468829
0.0013862916
0.0013053819
0.0012259596
0.0011480151
0.0010715683
0.00099665102
0.0009233263
0.00085170577
0.00078192886
0.00071416592
0.00064865328
0.00058571747
0.00052576343
0.00046941181
0.00041730938
0.00037099161
0.00033093573
0.00030305417
0.00028066981
0.00042087287
-0.00037525563
0.011592172
0.011697897
0.011917663
0.012195407
0.012534097
0.012932912
0.013388741
0.01390077
0.014470545
0.015101334
0.015798113
0.016568039
0.017420972
0.018370975
0.019436724
0.020647976
0.02203969
0.023690611
0.025651679
0.028227652
0.031300673
0.036649406
0.041683555
0.082867867
0.052104518
0.0012695103
0.00053362719
0.0016331959
0.0021602404
0.0025904188
0.0028623408
0.0030601241
0.003205454
0.0033082813
0.0033816089
0.0034351248
0.0034744476
0.0035031856
0.0035238011
0.0035383173
0.0035481172
0.0035541318
0.0035570984
0.0035576233
0.003556126
0.0035529001
0.0035482335
0.0035423272
0.0035353652
0.0035274786
0.003518747
0.0035092649
0.0034991053
0.0034883292
0.0034770009
0.0034651503
0.003452792
0.0034399577
0.0034266702
0.0034129456
0.0033987987
0.0033842499
0.0033692964
0.0033539281
0.0033381524
0.003321969
0.0033053766
0.0032883719
0.0032709524
0.0032531195
0.0032348516
0.0032161277
0.0031969424
0.0031772833
0.0031571339
0.0031364836
0.0031153098
0.0030936076
0.0030713553
0.0030485034
0.0030250384
0.0030009366
0.0029761683
0.0029507047
0.0029245156
0.0028975676
0.0028698324
0.002841259
0.0028117919
0.0027813935
0.0027500144
0.002717599
0.0026840946
0.0026494339
0.0026135641
0.0025764099
0.0025378678
0.0024978651
0.00245631
0.0024130995
0.0023681283
0.0023212753
0.0022724215
0.0022214203
0.0021680982
0.0021122978
0.0020538308
0.0019924971
0.0019280744
0.0018603415
0.0017890189
0.0017138192
0.0016347569
0.0015524142
0.0014688304
0.001386293
0.0013053832
0.0012259608
0.0011480163
0.0010715694
0.00099665205
0.00092332728
0.0008517067
0.00078192975
0.00071416677
0.0006486541
0.00058571826
0.00052576419
0.00046941255
0.00041731009
0.0003709923
0.00033093641
0.00030305485
0.00028067046
0.00042087363
-0.00037525518
0.011592172
0.011697897
0.011917663
0.012195408
0.012534097
0.012932912
0.013388741
0.01390077
0.014470545
0.015101334
0.015798114
0.01656804
0.017420974
0.018370977
0.019436727
0.02064798
0.022039695
0.023690619
0.02565169
0.02822767
0.031300696
0.03664945
0.041683651
0.08285962
0.052128233
0.0012788342
0.00053646168
0.0016345538
0.0021610656
0.0025909997
0.0028627792
0.0030604713
0.0032057374
0.0033085183
0.0033818108
0.0034352993
0.0034746002
0.0035033203
0.003523921
0.0035384249
0.0035482143
0.0035542198
0.0035571787
0.0035576967
0.0035561936
0.0035529624
0.003548291
0.0035423806
0.0035354148
0.0035275249
0.0035187902
0.0035093053
0.0034991432
0.0034883648
0.0034770344
0.0034651818
0.0034528217
0.0034399857
0.0034266968
0.0034129707
0.0033988225
0.0033842724
0.0033693178
0.0033539484
0.0033381717
0.0033219874
0.0033053941
0.0032883885
0.0032709682
0.0032531345
0.003234866
0.0032161414
0.0031969554
0.0031772957
0.0031571458
0.003136495
0.0031153207
0.0030936179
0.0030713651
0.0030485129
0.0030250474
0.0030009453
0.0029761766
0.0029507126
0.0029245231
0.0028975748
0.0028698393
0.0028412656
0.0028117981
0.0027813995
0.0027500201
0.0027176044
0.0026840998
0.0026494388
0.0026135689
0.0025764144
0.0025378721
0.0024978693
0.002456314
0.0024131032
0.0023681318
0.0023212787
0.0022724247
0.0022214233
0.002168101
0.0021123005
0.0020538334
0.0019924995
0.0019280766
0.0018603437
0.0017890209
0.0017138211
0.0016347587
0.0015524159
0.001468832
0.0013862945
0.0013053846
0.0012259621
0.0011480175
0.0010715706
0.00099665318
0.00092332835
0.00085170773
0.00078193073
0.00071416771
0.000648655
0.00058571912
0.00052576502
0.00046941335
0.00041731087
0.00037099306
0.00033093715
0.0003030556
0.00028067118
0.00042087445
-0.00037525469
0.011592172
0.011697897
0.011917663
0.012195408
0.012534097
0.012932913
0.013388741
0.013900771
0.014470546
0.015101335
0.015798115
0.016568042
0.017420976
0.01837098
0.019436731
0.020647985
0.022039702
0.023690629
0.025651703
0.028227692
0.031300726
0.036649505
0.041683762
0.082850147
0.052153714
0.0012890546
0.0005395774
0.0016360469
0.0021619732
0.0025916387
0.0028632615
0.0030608532
0.0032060492
0.0033087789
0.0033820328
0.0034354912
0.003474768
0.0035034686
0.003524053
0.0035385433
0.0035483211
0.0035543167
0.003557267
0.0035577776
0.0035562678
0.0035530308
0.0035483544
0.0035424393
0.0035354694
0.0035275758
0.0035188377
0.0035093498
0.0034991849
0.0034884039
0.0034770712
0.0034652165
0.0034528544
0.0034400166
0.0034267259
0.0034129983
0.0033988486
0.0033842972
0.0033693413
0.0033539707
0.0033381929
0.0033220075
0.0033054132
0.0032884067
0.0032709856
0.0032531511
0.0032348818
0.0032161564
0.0031969698
0.0031773094
0.0031571589
0.0031365075
0.0031153326
0.0030936293
0.003071376
0.0030485233
0.0030250573
0.0030009548
0.0029761856
0.0029507213
0.0029245314
0.0028975827
0.0028698468
0.0028412728
0.0028118051
0.0027814061
0.0027500264
0.0027176104
0.0026841056
0.0026494443
0.0026135741
0.0025764194
0.0025378768
0.0024978738
0.0024563183
0.0024131073
0.0023681357
0.0023212824
0.0022724282
0.0022214267
0.0021681042
0.0021123035
0.0020538362
0.0019925022
0.0019280792
0.0018603461
0.0017890231
0.0017138232
0.0016347607
0.0015524177
0.0014688338
0.0013862961
0.0013053862
0.0012259636
0.0011480189
0.0010715719
0.00099665442
0.00092332954
0.00085170886
0.00078193181
0.00071416874
0.00064865598
0.00058572008
0.00052576594
0.00046941423
0.00041731172
0.0003709939
0.00033093797
0.00030305643
0.00028067196
0.00042087535
-0.00037525415
0.011592172
0.011697897
0.011917663
0.012195408
0.012534098
0.012932913
0.013388742
0.013900771
0.014470547
0.015101337
0.015798117
0.016568044
0.017420979
0.018370984
0.019436735
0.020647991
0.022039711
0.023690641
0.025651719
0.028227719
0.031300762
0.036649574
0.041683892
0.082839189
0.052181163
0.0013003212
0.00054302089
0.0016376975
0.002162977
0.0025923454
0.0028637949
0.0030612757
0.0032063942
0.0033090673
0.0033822784
0.0034357035
0.0034749537
0.0035036325
0.003524199
0.0035386742
0.0035484392
0.0035544239
0.0035573647
0.003557867
0.00355635
0.0035531066
0.0035484245
0.0035425043
0.0035355299
0.0035276321
0.0035188903
0.003509399
0.003499231
0.0034884473
0.0034771119
0.0034652549
0.0034528906
0.0034400508
0.0034267582
0.0034130289
0.0033988776
0.0033843247
0.0033693673
0.0033539954
0.0033382164
0.0033220298
0.0033054345
0.0032884269
0.0032710049
0.0032531694
0.0032348993
0.0032161731
0.0031969857
0.0031773246
0.0031571734
0.0031365213
0.0031153458
0.003093642
0.0030713881
0.0030485348
0.0030250684
0.0030009653
0.0029761957
0.0029507309
0.0029245406
0.0028975915
0.0028698552
0.0028412808
0.0028118127
0.0027814134
0.0027500334
0.0027176171
0.0026841119
0.0026494504
0.0026135799
0.002576425
0.0025378821
0.0024978788
0.002456323
0.0024131118
0.00236814
0.0023212865
0.0022724321
0.0022214303
0.0021681077
0.0021123068
0.0020538394
0.0019925051
0.001928082
0.0018603487
0.0017890256
0.0017138255
0.0016347629
0.0015524198
0.0014688357
0.0013862979
0.0013053879
0.0012259652
0.0011480204
0.0010715734
0.0009966558
0.00092333085
0.00085171011
0.000781933
0.00071416988
0.00064865708
0.00058572113
0.00052576695
0.00046941521
0.00041731267
0.00037099482
0.00033093887
0.00030305734
0.00028067284
0.00042087636
-0.00037525355
0.011592172
0.011697897
0.011917664
0.012195408
0.012534098
0.012932914
0.013388743
0.013900772
0.014470548
0.015101338
0.015798118
0.016568046
0.017420982
0.018370988
0.019436741
0.020647999
0.022039721
0.023690655
0.025651739
0.028227752
0.031300806
0.036649658
0.041684042
0.082826434
0.052210768
0.0013127954
0.00054684343
0.0016395303
0.0021640922
0.0025931305
0.0028643876
0.0030617451
0.0032067774
0.0033093877
0.0033825514
0.0034359395
0.00347516
0.0035038147
0.0035243612
0.0035388197
0.0035485706
0.003554543
0.0035574733
0.0035579665
0.0035564414
0.0035531909
0.0035485024
0.0035425766
0.0035355971
0.0035276947
0.0035189488
0.0035094537
0.0034992823
0.0034884955
0.0034771572
0.0034652975
0.0034529308
0.0034400888
0.0034267941
0.0034130628
0.0033989097
0.0033843552
0.0033693963
0.0033540229
0.0033382425
0.0033220547
0.0033054581
0.0032884494
0.0032710263
0.0032531898
0.0032349187
0.0032161917
0.0031970034
0.0031773415
0.0031571895
0.0031365367
0.0031153605
0.003093656
0.0030714015
0.0030485476
0.0030250806
0.003000977
0.0029762069
0.0029507416
0.0029245508
0.0028976013
0.0028698645
0.0028412897
0.0028118212
0.0027814216
0.0027500412
0.0027176245
0.002684119
0.0026494571
0.0026135863
0.0025764311
0.0025378879
0.0024978844
0.0024563283
0.0024131169
0.0023681448
0.002321291
0.0022724364
0.0022214345
0.0021681116
0.0021123105
0.0020538429
0.0019925084
0.0019280851
0.0018603516
0.0017890284
0.0017138281
0.0016347654
0.0015524221
0.0014688378
0.0013863
0.0013053898
0.001225967
0.0011480221
0.001071575
0.00099665733
0.00092333231
0.0008517115
0.00078193433
0.00071417115
0.0006486583
0.0005857223
0.00052576808
0.0004694163
0.00041731373
0.00037099586
0.00033093988
0.00030305836
0.00028067381
0.00042087748
-0.00037525288
0.011592172
0.011697898
0.011917664
0.012195409
0.012534099
0.012932914
0.013388743
0.013900773
0.01447055
0.01510134
0.015798121
0.016568049
0.017420986
0.018370993
0.019436748
0.020648008
0.022039733
0.023690673
0.025651762
0.028227791
0.031300859
0.03664976
0.041684217
0.082811509
0.052242691
0.0013266592
0.00055110192
0.0016415729
0.0021653356
0.002594006
0.0028650486
0.0030622685
0.0032072048
0.003309745
0.0033828558
0.0034362026
0.0034753901
0.003504018
0.0035245422
0.003538982
0.003548717
0.0035546759
0.0035575944
0.0035580774
0.0035565433
0.0035532848
0.0035485893
0.0035426572
0.003535672
0.0035277646
0.0035190141
0.0035095148
0.0034993396
0.0034885492
0.0034772078
0.0034653451
0.0034529757
0.0034401311
0.0034268342
0.0034131007
0.0033989456
0.0033843892
0.0033694286
0.0033540536
0.0033382716
0.0033220824
0.0033054844
0.0032884745
0.0032710502
0.0032532126
0.0032349404
0.0032162124
0.0031970231
0.0031773603
0.0031572075
0.0031365539
0.0031153769
0.0030936717
0.0030714165
0.0030485619
0.0030250943
0.00300099
0.0029762194
0.0029507535
0.0029245622
0.0028976122
0.002869875
0.0028412997
0.0028118307
0.0027814306
0.0027500498
0.0027176328
0.0026841269
0.0026494647
0.0026135935
0.0025764379
0.0025378945
0.0024978906
0.0024563343
0.0024131225
0.0023681502
0.0023212961
0.0022724413
0.002221439
0.002168116
0.0021123146
0.0020538468
0.0019925121
0.0019280886
0.0018603549
0.0017890315
0.001713831
0.0016347681
0.0015524246
0.0014688402
0.0013863022
0.0013053919
0.001225969
0.001148024
0.0010715768
0.00099665905
0.00092333394
0.00085171305
0.00078193582
0.00071417258
0.00064865966
0.00058572361
0.00052576934
0.00046941752
0.00041731491
0.00037099701
0.00033094101
0.0003030595
0.0002806749
0.00042087873
-0.00037525213
0.011592172
0.011697898
0.011917664
0.012195409
0.012534099
0.012932915
0.013388744
0.013900775
0.014470551
0.015101342
0.015798124
0.016568053
0.017420991
0.018370999
0.019436756
0.020648019
0.022039748
0.023690694
0.025651791
0.028227838
0.031300922
0.036649883
0.041684422
0.082793965
0.052277057
0.0013421185
0.00055585977
0.0016438557
0.0021667262
0.0025949851
0.0028657878
0.0030628539
0.0032076828
0.0033101446
0.0033831963
0.0034364969
0.0034756475
0.0035042453
0.0035247447
0.0035391636
0.0035488809
0.0035548246
0.00355773
0.0035582015
0.0035566573
0.00355339
0.0035486866
0.0035427474
0.0035357559
0.0035278428
0.0035190871
0.0035095831
0.0034994037
0.0034886094
0.0034772644
0.0034653984
0.003453026
0.0034401786
0.0034268791
0.0034131432
0.0033989858
0.0033844273
0.0033694647
0.0033540879
0.0033383042
0.0033221134
0.0033055139
0.0032885026
0.0032710769
0.0032532381
0.0032349647
0.0032162355
0.0031970452
0.0031773814
0.0031572276
0.0031365731
0.0031153953
0.0030936892
0.0030714332
0.0030485779
0.0030251096
0.0030010047
0.0029762333
0.0029507669
0.002924575
0.0028976244
0.0028698866
0.0028413108
0.0028118414
0.0027814408
0.0027500595
0.0027176421
0.0026841357
0.0026494731
0.0026136016
0.0025764456
0.0025379018
0.0024978975
0.0024563409
0.0024131288
0.0023681562
0.0023213018
0.0022724467
0.0022214442
0.0021681208
0.0021123192
0.0020538511
0.0019925162
0.0019280925
0.0018603586
0.0017890349
0.0017138343
0.0016347711
0.0015524275
0.0014688429
0.0013863047
0.0013053943
0.0012259712
0.0011480262
0.0010715788
0.00099666097
0.00092333577
0.0008517148
0.00078193748
0.00071417417
0.00064866119
0.00058572508
0.00052577076
0.00046941889
0.00041731624
0.00037099831
0.00033094228
0.00030306078
0.00028067612
0.00042088013
-0.00037525129
0.011592172
0.011697898
0.011917665
0.01219541
0.0125341
0.012932916
0.013388746
0.013900776
0.014470553
0.015101345
0.015798127
0.016568057
0.017420996
0.018371007
0.019436766
0.020648032
0.022039766
0.023690719
0.025651824
0.028227893
0.031300996
0.036650028
0.041684662
0.082773263
0.052313936
0.0013594071
0.00056118781
0.001646413
0.0021682849
0.0025960826
0.0028666164
0.0030635103
0.0032082187
0.0033105927
0.003383578
0.003436827
0.0034759362
0.0035045002
0.0035249717
0.0035393672
0.0035490646
0.0035549913
0.003557882
0.0035583406
0.0035567852
0.0035535079
0.0035487956
0.0035428486
0.00353585
0.0035279305
0.003519169
0.0035096598
0.0034994755
0.0034886769
0.0034773279
0.0034654582
0.0034530823
0.0034402318
0.0034269294
0.0034131908
0.0033990309
0.0033844701
0.0033695053
0.0033541264
0.0033383408
0.0033221482
0.003305547
0.0032885341
0.0032711069
0.0032532667
0.003234992
0.0032162615
0.00319707
0.0031774051
0.0031572502
0.0031365947
0.0031154159
0.0030937089
0.003071452
0.0030485959
0.0030251267
0.0030010211
0.002976249
0.0029507819
0.0029245893
0.002897638
0.0028698997
0.0028413233
0.0028118533
0.0027814522
0.0027500704
0.0027176525
0.0026841457
0.0026494826
0.0026136106
0.0025764542
0.00253791
0.0024979054
0.0024563483
0.0024131359
0.0023681629
0.0023213082
0.0022724528
0.00222145
0.0021681263
0.0021123244
0.002053856
0.0019925209
0.0019280968
0.0018603627
0.0017890388
0.0017138379
0.0016347745
0.0015524307
0.0014688459
0.0013863076
0.001305397
0.0012259738
0.0011480286
0.0010715811
0.00099666312
0.00092333782
0.00085171676
0.00078193936
0.00071417596
0.00064866291
0.00058572673
0.00052577235
0.00046942043
0.00041731773
0.00037099976
0.0003309437
0.00030306222
0.00028067749
0.00042088171
-0.00037525034
0.011592172
0.011697899
0.011917665
0.01219541
0.012534101
0.012932917
0.013388747
0.013900778
0.014470556
0.015101348
0.015798131
0.016568062
0.017421003
0.018371015
0.019436777
0.020648047
0.022039786
0.023690749
0.025651863
0.028227958
0.031301082
0.036650197
0.041684915
0.082748752
0.052353326
0.0013787934
0.00056716537
0.0016492831
0.0021700354
0.0025973152
0.0028675472
0.0030642474
0.0032088207
0.003311096
0.0033840068
0.0034371977
0.0034762604
0.0035047866
0.0035252267
0.003539596
0.0035492711
0.0035551786
0.0035580528
0.003558497
0.003556929
0.0035536404
0.0035489182
0.0035429623
0.0035359558
0.0035280291
0.0035192611
0.003509746
0.0034995563
0.0034887527
0.0034773992
0.0034655254
0.0034531457
0.0034402917
0.0034269859
0.0034132443
0.0033990816
0.0033845181
0.0033695509
0.0033541697
0.0033383819
0.0033221873
0.0033055843
0.0032885695
0.0032711407
0.0032532988
0.0032350226
0.0032162908
0.0031970979
0.0031774317
0.0031572756
0.0031366189
0.003115439
0.003093731
0.0030714732
0.0030486161
0.003025146
0.0030010395
0.0029762667
0.0029507987
0.0029246054
0.0028976534
0.0028699144
0.0028413374
0.0028118667
0.002781465
0.0027500827
0.0027176641
0.0026841568
0.0026494932
0.0026136208
0.0025764639
0.0025379192
0.0024979142
0.0024563567
0.0024131439
0.0023681705
0.0023213154
0.0022724596
0.0022214564
0.0021681324
0.0021123302
0.0020538615
0.0019925261
0.0019281018
0.0018603674
0.0017890432
0.001713842
0.0016347784
0.0015524343
0.0014688493
0.0013863108
0.0013054
0.0012259766
0.0011480313
0.0010715836
0.00099666555
0.00092334013
0.00085171896
0.00078194146
0.00071417798
0.00064866485
0.00058572859
0.00052577414
0.00046942216
0.00041731941
0.0003710014
0.00033094531
0.00030306384
0.00028067904
0.00042088349
-0.00037524928
0.011592172
0.011697899
0.011917666
0.012195411
0.012534102
0.012932918
0.013388749
0.01390078
0.014470558
0.015101351
0.015798135
0.016568068
0.017421011
0.018371026
0.01943679
0.020648065
0.02203981
0.023690782
0.025651909
0.028228032
0.031301182
0.036650393
0.041685154
0.082719654
0.052395126
0.0014005888
0.00057388157
0.001652509
0.0021720044
0.0025987016
0.0028685942
0.0030650767
0.0032094979
0.0033116622
0.0033844892
0.0034376147
0.0034766252
0.0035051088
0.0035255137
0.0035398534
0.0035495034
0.0035553894
0.003558245
0.003558673
0.0035570907
0.0035537896
0.0035490562
0.0035430903
0.0035360748
0.00352814
0.0035193647
0.003509843
0.0034996473
0.0034888381
0.0034774795
0.0034656011
0.0034532171
0.003440359
0.0034270496
0.0034133046
0.0033991387
0.0033845722
0.0033696022
0.0033542185
0.0033384283
0.0033222313
0.0033056262
0.0032886094
0.0032711787
0.003253335
0.0032350571
0.0032163237
0.0031971293
0.0031774617
0.0031573042
0.0031366463
0.0031154651
0.0030937559
0.003071497
0.0030486388
0.0030251678
0.0030010603
0.0029762865
0.0029508177
0.0029246236
0.0028976708
0.002869931
0.0028413532
0.0028118819
0.0027814795
0.0027500965