/*--------------------------------*- C++ -*----------------------------------*\
| =========                 |                                                 |
| \\      /  F ield         | OpenFOAM: The Open Source CFD Toolbox           |
|  \\    /   O peration     | Version:  2206                                  |
|   \\  /    A nd           | Website:  www.openfoam.com                      |
|    \\/     M anipulation  |                                                 |
\*---------------------------------------------------------------------------*/
FoamFile
{
    version     2.0;
    format      ascii;
    arch        "LSB;label=32;scalar=64";
    class       surfaceScalarField;
    location    "900";
    object      phi;
}
// * * * * * * * * * * * * * * * * * * * * * * * * * * * * * * * * * * * * * //

dimensions      [0 3 -1 0 0 0 0];

oriented        oriented;

internalField   nonuniform List<scalar> 
25880
(
2.0046392e-06
1.4918994e-11
2.0046057e-06
3.3568386e-11
2.0045653e-06
4.0360653e-11
2.0045197e-06
4.5598413e-11
2.0044669e-06
5.2846182e-11
2.0044058e-06
6.1071371e-11
2.0043353e-06
7.0436553e-11
2.0042539e-06
8.147129e-11
2.0041592e-06
9.4640812e-11
2.0040488e-06
1.1046414e-10
2.0039191e-06
1.2963566e-10
2.0037659e-06
1.5321115e-10
2.0035834e-06
1.825352e-10
2.0033632e-06
2.2020821e-10
2.0030947e-06
2.6852547e-10
2.0027581e-06
3.3654531e-10
2.0023344e-06
4.237276e-10
2.001757e-06
5.7738368e-10
2.0010138e-06
7.4319141e-10
1.9997797e-06
1.2341019e-09
1.9982304e-06
1.5493197e-09
1.994508e-06
3.7223913e-09
1.9935823e-06
9.2567325e-10
1.0011614e-06
9.924209e-07
4.4261194e-09
9.967353e-07
2.1277796e-09
2.2983399e-09
1.6174273e-09
5.103523e-10
1.3711726e-09
2.4625467e-10
1.2204802e-09
1.5069237e-10
1.1134165e-09
1.070637e-10
1.0318647e-09
8.155183e-11
9.6665815e-10
6.5206508e-11
9.1289969e-10
5.3758459e-11
8.6750563e-10
4.539405e-11
8.2843315e-10
3.9072484e-11
7.9429925e-10
3.4133896e-11
7.641232e-10
3.0176046e-11
7.3717793e-10
2.6945268e-11
7.1290948e-10
2.4268449e-11
6.9088947e-10
2.2020004e-11
6.7078112e-10
2.0108346e-11
6.5231389e-10
1.8467227e-11
6.3526742e-10
1.7046473e-11
6.1946063e-10
1.5806787e-11
6.0474401e-10
1.4716615e-11
5.9099163e-10
1.375238e-11
5.780962e-10
1.2895426e-11
5.6596679e-10
1.212941e-11
5.5452543e-10
1.144136e-11
5.4370475e-10
1.0820673e-11
5.3344596e-10
1.0258789e-11
5.2369758e-10
9.7483791e-12
5.1441438e-10
9.2831979e-12
5.0555648e-10
8.8579027e-12
4.970887e-10
8.4677773e-12
4.8897971e-10
8.1089924e-12
4.8120129e-10
7.7784166e-12
4.7372814e-10
7.4731467e-12
4.6653754e-10
7.1906013e-12
4.5960891e-10
6.9286285e-12
4.5292364e-10
6.6852712e-12
4.4646497e-10
6.4586697e-12
4.4021762e-10
6.247351e-12
4.3416746e-10
6.0501542e-12
4.2830157e-10
5.8658887e-12
4.2260812e-10
5.6934455e-12
4.1707624e-10
5.5318876e-12
4.1169584e-10
5.3803966e-12
4.0645766e-10
5.2381806e-12
4.0135323e-10
5.1044256e-12
3.9637467e-10
4.9785555e-12
3.9151451e-10
4.860166e-12
3.8676578e-10
4.7487285e-12
3.8212204e-10
4.6437349e-12
3.7757727e-10
4.5447746e-12
3.7312578e-10
4.4514809e-12
3.6876225e-10
4.3635332e-12
3.6448175e-10
4.2805008e-12
3.6027971e-10
4.2020399e-12
3.5615166e-10
4.1280443e-12
3.5209335e-10
4.0583108e-12
3.481008e-10
3.9925499e-12
3.4417024e-10
3.9305632e-12
3.4029807e-10
3.8721689e-12
3.3648086e-10
3.8172083e-12
3.3271533e-10
3.7655282e-12
3.2899844e-10
3.716885e-12
3.2532729e-10
3.6711512e-12
3.2169895e-10
3.6283407e-12
3.1811062e-10
3.5883356e-12
3.1455962e-10
3.5509902e-12
3.110434e-10
3.5162268e-12
3.0755942e-10
3.4839728e-12
3.0410525e-10
3.4541703e-12
3.0067856e-10
3.4266956e-12
2.972771e-10
3.401457e-12
2.938986e-10
3.3784943e-12
2.9054081e-10
3.3577947e-12
2.8720152e-10
3.3392919e-12
2.8387856e-10
3.3229582e-12
2.8056977e-10
3.3087871e-12
2.7727299e-10
3.2967758e-12
2.7398613e-10
3.2868604e-12
2.707071e-10
3.2790323e-12
2.6743371e-10
3.2733846e-12
2.6416377e-10
3.269942e-12
2.6089507e-10
3.2687012e-12
2.5762534e-10
3.2697243e-12
2.5435231e-10
3.2730381e-12
2.5107368e-10
3.2786243e-12
2.4778697e-10
3.2867084e-12
2.4449037e-10
3.2966046e-12
2.4118285e-10
3.3075142e-12
2.380019e-10
3.1809558e-12
2.3501472e-10
2.9871697e-12
2.3220405e-10
2.8106699e-12
2.2955562e-10
2.6484314e-12
2.2705554e-10
2.500082e-12
2.2469057e-10
2.3649715e-12
2.2244885e-10
2.2417146e-12
2.2031981e-10
2.1290368e-12
2.1829394e-10
2.025872e-12
2.1636266e-10
1.9312803e-12
2.1451823e-10
1.8444307e-12
2.1275351e-10
1.7647192e-12
2.110618e-10
1.6917112e-12
2.0943665e-10
1.6251514e-12
2.078718e-10
1.5648457e-12
2.0636034e-10
1.5114589e-12
2.0489563e-10
1.4647099e-12
2.0346603e-10
1.4296012e-12
2.0206766e-10
1.3983667e-12
2.0065648e-10
1.4111786e-12
1.9931111e-10
1.3453722e-12
1.9776558e-10
1.5455297e-12
9.2895944e-13
2.0345128e-06
3.0145808e-11
2.0344786e-06
6.7839172e-11
2.0344374e-06
8.157571e-11
2.0343908e-06
9.2163631e-11
2.0343368e-06
1.0681102e-10
2.0342745e-06
1.2343234e-10
2.0342025e-06
1.4235585e-10
2.0341194e-06
1.6465146e-10
2.0340227e-06
1.9125893e-10
2.03391e-06
2.2322654e-10
2.0337777e-06
2.6195661e-10
2.0336213e-06
3.0958144e-10
2.033435e-06
3.6881631e-10
2.0332103e-06
4.4491282e-10
2.0329363e-06
5.4250548e-10
2.032593e-06
6.798877e-10
2.0321607e-06
8.559638e-10
2.0315719e-06
1.1662774e-09
2.0308139e-06
1.5011077e-09
2.0295556e-06
2.4923979e-09
2.027976e-06
3.1289808e-09
2.0241814e-06
7.5170162e-09
2.0232344e-06
1.8726709e-09
1.0225165e-06
1.9931387e-06
1.3504536e-08
2.0057473e-06
6.5103806e-09
9.2924958e-09
4.9489739e-09
2.0717589e-09
4.1954433e-09
9.9978527e-10
3.7342991e-09
6.1183655e-10
3.4066636e-09
4.3469924e-10
3.1570996e-09
3.3111577e-10
2.9575562e-09
2.6474989e-10
2.7930452e-09
2.1826947e-10
2.6541313e-09
1.8430796e-10
2.5345628e-09
1.5864103e-10
2.4301072e-09
1.3858944e-10
2.3377633e-09
1.2251996e-10
2.255306e-09
1.0940253e-10
2.1810402e-09
9.853427e-11
2.1136549e-09
8.9405286e-11
2.0521195e-09
8.1643724e-11
1.9956062e-09
7.4980595e-11
1.9434405e-09
6.9212148e-11
1.8950684e-09
6.4178868e-11
1.8500324e-09
5.975266e-11
1.807947e-09
5.5837748e-11
1.768484e-09
5.2358412e-11
1.7313651e-09
4.9248289e-11
1.6963518e-09
4.6454724e-11
1.6632378e-09
4.3934658e-11
1.6318432e-09
4.1653336e-11
1.6020106e-09
3.9581002e-11
1.5736015e-09
3.7692303e-11
1.5464938e-09
3.5965544e-11
1.52058e-09
3.438158e-11
1.4957642e-09
3.2924861e-11
1.4719599e-09
3.1582673e-11
1.4490898e-09
3.0343229e-11
1.4270844e-09
2.919605e-11
1.4058806e-09
2.8132397e-11
1.3854216e-09
2.7144325e-11
1.3656559e-09
2.6224284e-11
1.346537e-09
2.5366294e-11
1.3280215e-09
2.4565639e-11
1.3100699e-09
2.3817486e-11
1.292646e-09
2.3117334e-11
1.2757165e-09
2.2461378e-11
1.2592506e-09
2.1846294e-11
1.24322e-09
2.1268867e-11
1.2275986e-09
2.0725795e-11
1.2123624e-09
2.0214736e-11
1.1974885e-09
1.9734049e-11
1.1829557e-09
1.9281587e-11
1.1687441e-09
1.885529e-11
1.1548354e-09
1.8453488e-11
1.1412122e-09
1.8074693e-11
1.1278581e-09
1.7717604e-11
1.1147581e-09
1.7380472e-11
1.1018983e-09
1.7061902e-11
1.0892649e-09
1.6761461e-11
1.0768448e-09
1.6478325e-11
1.0646261e-09
1.6211318e-11
1.052597e-09
1.5959636e-11
1.0407466e-09
1.5722539e-11
1.0290645e-09
1.5499384e-11
1.0175404e-09
1.5289549e-11
1.0061653e-09
1.5092044e-11
9.9493007e-10
1.4906352e-11
9.8382588e-10
1.4732529e-11
9.7284412e-10
1.4570098e-11
9.6197664e-10
1.4418465e-11
9.5121555e-10
1.4277316e-11
9.4055317e-10
1.4146356e-11
9.2998199e-10
1.402535e-11
9.1949489e-10
1.3913796e-11
9.0908502e-10
1.3811321e-11
8.9874543e-10
1.3718087e-11
8.8846918e-10
1.3634043e-11
8.7824955e-10
1.3558918e-11
8.6807991e-10
1.3492602e-11
8.5795363e-10
1.3435067e-11
8.478641e-10
1.3386301e-11
8.3780492e-10
1.3346046e-11
8.2776968e-10
1.3314268e-11
8.1775172e-10
1.3291343e-11
8.0774429e-10
1.3277373e-11
7.9774065e-10
1.3272344e-11
7.8773386e-10
1.3276509e-11
7.7771692e-10
1.3289976e-11
7.6768288e-10
1.3312673e-11
7.5762407e-10
1.3345516e-11
7.4753495e-10
1.3385718e-11
7.3741241e-10
1.3430054e-11
7.2767714e-10
1.2916226e-11
7.1853489e-10
1.2129418e-11
7.0993276e-10
1.1412804e-11
7.0182709e-10
1.0754095e-11
6.941754e-10
1.0151773e-11
6.8693718e-10
9.6031965e-12
6.8007615e-10
9.1027446e-12
6.7355994e-10
8.645243e-12
6.6735945e-10
8.2263644e-12
6.6144843e-10
7.8422932e-12
6.5580321e-10
7.489656e-12
6.5040193e-10
7.1660007e-12
6.4522408e-10
6.8695625e-12
6.4024992e-10
6.5993064e-12
6.3546032e-10
6.354443e-12
6.3083411e-10
6.1376733e-12
6.2635096e-10
5.947853e-12
6.2197527e-10
5.8052979e-12
6.1769517e-10
5.678464e-12
6.1337585e-10
5.7305018e-12
6.092585e-10
5.4627124e-12
6.0452368e-10
6.2803581e-12
3.7656201e-12
2.0947053e-06
4.5935181e-11
2.0946697e-06
1.0338961e-10
2.094627e-06
1.2434327e-10
2.0945787e-06
1.4048491e-10
2.0945227e-06
1.6280854e-10
2.094458e-06
1.8813801e-10
2.0943833e-06
2.169731e-10
2.094297e-06
2.5094382e-10
2.0941968e-06
2.9148161e-10
2.0940799e-06
3.4018288e-10
2.0939426e-06
3.9918316e-10
2.0937805e-06
4.7172953e-10
2.0935873e-06
5.6195651e-10
2.0933544e-06
6.778611e-10
2.0930704e-06
8.264988e-10
2.0927146e-06
1.0357262e-09
2.0922667e-06
1.3038651e-09
2.0916565e-06
1.7764028e-09
2.0908714e-06
2.2862245e-09
2.0895683e-06
3.7955213e-09
2.0879324e-06
4.764835e-09
2.0840036e-06
1.1445858e-08
2.0830197e-06
2.8565949e-09
1.0594962e-06
3.0166622e-06
2.3350002e-08
3.0418935e-06
1.1282094e-08
2.1360403e-08
8.5763495e-09
4.7775037e-09
7.2704208e-09
2.3057139e-09
6.4711477e-09
1.4111096e-09
5.9032751e-09
1.0025718e-09
5.470717e-09
7.6367395e-10
5.1248575e-09
6.1060935e-10
4.8397168e-09
5.0341018e-10
4.5989423e-09
4.2508249e-10
4.3916982e-09
3.6588509e-10
4.2106487e-09
3.1963895e-10
4.0505915e-09
2.8257714e-10
3.9076701e-09
2.5232388e-10
3.7789465e-09
2.2725796e-10
3.6621483e-09
2.0620343e-10
3.5554894e-09
1.8830266e-10
3.4575347e-09
1.7293526e-10
3.3671156e-09
1.5963125e-10
3.2832717e-09
1.4802279e-10
3.2052099e-09
1.3781448e-10
3.1322623e-09
1.2878535e-10
3.0638599e-09
1.2076081e-10
2.9995204e-09
1.1358779e-10
2.9388302e-09
1.0714486e-10
2.8814322e-09
1.0133271e-10
2.8270143e-09
9.6071179e-11
2.7753037e-09
9.1291642e-11
2.7260604e-09
8.6935624e-11
2.6790728e-09
8.2953094e-11
2.6341545e-09
7.9299897e-11
2.5911392e-09
7.5940171e-11
2.5498773e-09
7.2844589e-11
2.5102345e-09
6.998597e-11
2.4720904e-09
6.7340143e-11
2.4353359e-09
6.4886956e-11
2.3998721e-09
6.2608083e-11
2.3656103e-09
6.0486115e-11
2.3324693e-09
5.8507257e-11
2.3003743e-09
5.6660633e-11
2.2692567e-09
5.4935097e-11
2.2390538e-09
5.3320267e-11
2.2097078e-09
5.1807368e-11
2.1811654e-09
5.0388736e-11
2.1533773e-09
4.9056954e-11
2.1262987e-09
4.7804406e-11
2.0998877e-09
4.6625692e-11
2.0741047e-09
4.5517027e-11
2.0489129e-09
4.447346e-11
2.0242779e-09
4.3490236e-11
2.0001679e-09
4.2563509e-11
1.9765527e-09
4.1689846e-11
1.9534041e-09
4.0866242e-11
1.9306959e-09
4.0088668e-11
1.9084039e-09
3.9353906e-11
1.8865044e-09
3.8660955e-11
1.8649748e-09
3.8007917e-11
1.843794e-09
3.739208e-11
1.8229421e-09
3.6811586e-11
1.8023999e-09
3.6264734e-11
1.7821492e-09
3.5750037e-11
1.7621727e-09
3.5266059e-11
1.7424543e-09
3.4810522e-11
1.7229784e-09
3.4382232e-11
1.7037296e-09
3.3981317e-11
1.684693e-09
3.3606674e-11
1.6658545e-09
3.3256939e-11
1.6472005e-09
3.2931385e-11
1.6287175e-09
3.2629332e-11
1.6103926e-09
3.2350238e-11
1.5922135e-09
3.2092944e-11
1.5741682e-09
3.1856593e-11
1.5562447e-09
3.1641557e-11
1.538431e-09
3.1447717e-11
1.5207155e-09
3.1274452e-11
1.5030866e-09
3.1121503e-11
1.4855329e-09
3.098881e-11
1.4680428e-09
3.0876346e-11
1.4506053e-09
3.0783513e-11
1.4332094e-09
3.0710233e-11
1.4158433e-09
3.0657377e-11
1.3984955e-09
3.0625179e-11
1.3811543e-09
3.0613606e-11
1.3638075e-09
3.0623243e-11
1.3464432e-09
3.0654341e-11
1.3290491e-09
3.0706734e-11
1.3116121e-09
3.0782542e-11
1.2941225e-09
3.0875328e-11
1.2765748e-09
3.0977691e-11
1.2596984e-09
2.9792657e-11
1.2438499e-09
2.797798e-11
1.2289374e-09
2.6325212e-11
1.2148855e-09
2.4805997e-11
1.2016205e-09
2.3416812e-11
1.1890721e-09
2.2151572e-11
1.1771776e-09
2.0997314e-11
1.1658807e-09
1.9942111e-11
1.1551311e-09
1.8975983e-11
1.1448832e-09
1.8090132e-11
1.1350961e-09
1.7276779e-11
1.1257318e-09
1.6530271e-11
1.1167549e-09
1.5846537e-11
1.108131e-09
1.5223193e-11
1.099827e-09
1.4658417e-11
1.0918062e-09
1.4158443e-11
1.0840335e-09
1.3720629e-11
1.0764469e-09
1.3391834e-11
1.0690261e-09
1.3099313e-11
1.0615372e-09
1.3219378e-11
1.0543987e-09
1.2601204e-11
1.0461863e-09
1.4492756e-11
8.6793102e-12
2.1861136e-06
6.2557951e-11
2.1860762e-06
1.4083438e-10
2.1860311e-06
1.6940769e-10
2.1859802e-06
1.91404e-10
2.1859212e-06
2.2181336e-10
2.185853e-06
2.5631317e-10
2.1857744e-06
2.9558333e-10
2.1856835e-06
3.4184325e-10
2.1855779e-06
3.9704152e-10
2.1854548e-06
4.6335081e-10
2.1853103e-06
5.4367729e-10
2.1851396e-06
6.4243978e-10
2.1849362e-06
7.6526424e-10
2.1846911e-06
9.2303312e-10
2.1843922e-06
1.1253447e-09
2.1840178e-06
1.4101065e-09
2.1835467e-06
1.7750189e-09
2.182905e-06
2.4180573e-09
2.1820795e-06
3.1117509e-09
2.1807097e-06
5.1652813e-09
2.1789903e-06
6.4842348e-09
2.1748619e-06
1.557432e-08
2.1738235e-06
3.8949956e-09
1.1129593e-06
4.0775264e-06
3.4545022e-08
4.1203078e-06
1.6728177e-08
3.9177248e-08
1.2716302e-08
8.7893793e-09
1.0779773e-08
4.2422429e-09
9.5944107e-09
2.5964716e-09
8.7522237e-09
1.8447587e-09
8.1107072e-09
1.4051905e-09
7.5977702e-09
1.1235463e-09
7.1748811e-09
9.2629927e-10
6.8177894e-09
7.8217421e-10
6.5104256e-09
6.7324889e-10
6.2419099e-09
5.8815464e-10
6.0045269e-09
5.1996013e-10
5.7925572e-09
4.6429356e-10
5.6016434e-09
4.1817176e-10
5.4284158e-09
3.7943102e-10
5.2702252e-09
3.4649328e-10
5.1249435e-09
3.1821698e-10
4.9908375e-09
2.9373729e-10
4.8664828e-09
2.7237745e-10
4.7507034e-09
2.5359393e-10
4.6425086e-09
2.3698008e-10
4.5410548e-09
2.2221468e-10
4.4456265e-09
2.0901609e-10
4.3556105e-09
1.9716087e-10
4.2704769e-09
1.8646629e-10
4.1897632e-09
1.7678485e-10
4.1130646e-09
1.6799028e-10
4.0400252e-09
1.59975e-10
3.9703314e-09
1.5264693e-10
3.9037064e-09
1.4592485e-10
3.8399038e-09
1.3974277e-10
3.7787017e-09
1.340467e-10
3.719901e-09
1.2878666e-10
3.663323e-09
1.2391815e-10
3.6088058e-09
1.1940411e-10
3.5562031e-09
1.1521081e-10
3.505383e-09
1.1130623e-10
3.4562253e-09
1.0766497e-10
3.4086189e-09
1.0426702e-10
3.3624621e-09
1.0109188e-10
3.3176619e-09
9.8120443e-11
3.2741327e-09
9.5336562e-11
3.2317953e-09
9.2726137e-11
3.1905768e-09
9.0275519e-11
3.1504105e-09
8.7970696e-11
3.1112344e-09
8.5801734e-11
3.0729898e-09
8.3761662e-11
3.0356219e-09
8.1841375e-11
2.99908e-09
8.0032125e-11
2.9633167e-09
7.8326829e-11
2.9282873e-09
7.6719178e-11
2.8939499e-09
7.5203638e-11
2.8602658e-09
7.3772796e-11
2.827199e-09
7.2420731e-11
2.7947143e-09
7.1145603e-11
2.7627783e-09
6.9943919e-11
2.7313597e-09
6.8810687e-11
2.7004288e-09
6.7742491e-11
2.6699574e-09
6.67362e-11
2.6399183e-09
6.5789077e-11
2.6102859e-09
6.4898482e-11
2.5810362e-09
6.406022e-11
2.5521463e-09
6.3272097e-11
2.5235933e-09
6.253435e-11
2.495355e-09
6.1844947e-11
2.4674106e-09
6.1201379e-11
2.4397397e-09
6.0602308e-11
2.4123225e-09
6.0046485e-11
2.3851398e-09
5.953291e-11
2.3581733e-09
5.9059453e-11
2.3314054e-09
5.8624535e-11
2.3048181e-09
5.8228845e-11
2.2783937e-09
5.7872162e-11
2.2521148e-09
5.7553341e-11
2.2259644e-09
5.7271911e-11
2.1999254e-09
5.7027758e-11
2.1739809e-09
5.6820835e-11
2.1481144e-09
5.6650042e-11
2.1223094e-09
5.6515235e-11
2.0965488e-09
5.6418019e-11
2.0708151e-09
5.6358825e-11
2.0450911e-09
5.6337595e-11
2.019359e-09
5.6355405e-11
1.9936006e-09
5.6412722e-11
1.9677981e-09
5.6509241e-11
1.9419317e-09
5.6648883e-11
1.9159873e-09
5.681978e-11
1.8899566e-09
5.7008391e-11
1.8649213e-09
5.4827957e-11
1.8414104e-09
5.1488831e-11
1.819288e-09
4.8447665e-11
1.7984417e-09
4.565224e-11
1.7787625e-09
4.3096034e-11
1.7601462e-09
4.0767861e-11
1.7424996e-09
3.864388e-11
1.7257396e-09
3.6702151e-11
1.7097913e-09
3.492432e-11
1.6945872e-09
3.32942e-11
1.6800665e-09
3.1797482e-11
1.666173e-09
3.0423765e-11
1.652854e-09
2.9165566e-11
1.6400587e-09
2.8018495e-11
1.6277379e-09
2.6979209e-11
1.6158371e-09
2.6059179e-11
1.6043042e-09
2.525355e-11
1.5930475e-09
2.4648545e-11
1.5820365e-09
2.4110352e-11
1.5709244e-09
2.4331425e-11
1.560332e-09
2.3193644e-11
1.5481442e-09
2.6680584e-11
1.5967552e-11
2.3100999e-06
8.0308197e-11
2.3100599e-06
1.8084231e-10
2.3100118e-06
2.175803e-10
2.3099573e-06
2.4583859e-10
2.3098942e-06
2.848878e-10
2.3098214e-06
3.2918341e-10
2.3097374e-06
3.7959704e-10
2.3096402e-06
4.3897715e-10
2.3095274e-06
5.0982397e-10
2.3093959e-06
5.9492442e-10
2.3092415e-06
6.9800604e-10
2.3090592e-06
8.2473643e-10
2.3088422e-06
9.8233067e-10
2.3085805e-06
1.1847462e-09
2.3082615e-06
1.4442888e-09
2.307862e-06
1.8095769e-09
2.3073594e-06
2.2776369e-09
2.3066751e-06
3.1023746e-09
2.3057949e-06
3.9919568e-09
2.304335e-06
6.6252053e-09
2.3025025e-06
8.3166802e-09
2.298104e-06
1.9972855e-08
2.2969919e-06
5.0071251e-09
1.1840473e-06
5.190471e-06
4.7747779e-08
5.2566073e-06
2.3174155e-08
6.3750872e-08
1.761618e-08
1.4347355e-08
1.4933066e-08
6.9253562e-09
1.3290488e-08
4.2390501e-09
1.2123445e-08
3.0118018e-09
1.123446e-08
2.2941757e-09
1.0523651e-08
1.8343553e-09
9.937621e-09
1.5123289e-09
9.4427681e-09
1.2770271e-09
9.0168251e-09
1.0991919e-09
8.6447152e-09
9.6026451e-10
8.3157468e-09
8.4892852e-10
8.0219944e-09
7.58046e-10
7.7574197e-09
6.827464e-10
7.5173535e-09
6.194973e-10
7.2981244e-09
5.6572232e-10
7.0967837e-09
5.1955767e-10
6.9109296e-09
4.7959141e-10
6.7385884e-09
4.4471861e-10
6.5781304e-09
4.1405196e-10
6.4281829e-09
3.8692758e-10
6.2875766e-09
3.6282095e-10
6.1553204e-09
3.4127234e-10
6.0305643e-09
3.2191693e-10
5.9125742e-09
3.044564e-10
5.8007091e-09
2.8864993e-10
5.694408e-09
2.7429139e-10
5.5931779e-09
2.6120512e-10
5.496584e-09
2.4924083e-10
5.404243e-09
2.3826588e-10
5.3158132e-09
2.2817254e-10
5.2309872e-09
2.1887269e-10
5.1494892e-09
2.102847e-10
5.0710714e-09
2.0233596e-10
4.9955096e-09
1.9496592e-10
4.9226008e-09
1.8811954e-10
4.8521625e-09
1.8174452e-10
4.7840281e-09
1.7579942e-10
4.7180435e-09
1.7025157e-10
4.6540679e-09
1.6506748e-10
4.5919724e-09
1.6021597e-10
4.5316383e-09
1.5567067e-10
4.4729559e-09
1.5140856e-10
4.415824e-09
1.4740737e-10
4.3601505e-09
1.4364421e-10
4.3058494e-09
1.4010286e-10
4.2528391e-09
1.3677196e-10
4.2010439e-09
1.3363662e-10
4.1503934e-09
1.3068256e-10
4.100822e-09
1.2789824e-10
4.0522679e-09
1.2527333e-10
4.0046727e-09
1.2279882e-10
3.9579829e-09
1.2046259e-10
3.9121486e-09
1.1825498e-10
3.8671213e-09
1.1617298e-10
3.8228543e-09
1.142109e-10
3.7793044e-09
1.1236059e-10
3.7364304e-09
1.1061645e-10
3.6941932e-09
1.089734e-10
3.6525553e-09
1.0742695e-10
3.611481e-09
1.0597279e-10
3.5709372e-09
1.0460408e-10
3.530892e-09
1.0331724e-10
3.4913137e-09
1.0211265e-10
3.4521717e-09
1.00987e-10
3.4134369e-09
9.9936184e-11
3.3750812e-09
9.8958026e-11
3.3370772e-09
9.8050488e-11
3.2993981e-09
9.7211936e-11
3.2620187e-09
9.6438887e-11
3.2249145e-09
9.5728768e-11
3.1880606e-09
9.5082709e-11
3.1514324e-09
9.4500346e-11
3.1150059e-09
9.3979812e-11
3.0787575e-09
9.3520336e-11
3.0426635e-09
9.3121736e-11
3.0067004e-09
9.2783935e-11
2.9708453e-09
9.2505136e-11
2.9350755e-09
9.2285109e-11
2.899367e-09
9.2126478e-11
2.8636959e-09
9.2029944e-11
2.8280381e-09
9.1995419e-11
2.7923688e-09
9.2024663e-11
2.7566631e-09
9.2118444e-11
2.7208961e-09
9.227627e-11
2.6850404e-09
9.250458e-11
2.6490762e-09
9.2783952e-11
2.6129922e-09
9.3092425e-11
2.5782874e-09
8.9532678e-11
2.5456953e-09
8.4080944e-11
2.5150272e-09
7.9115768e-11
2.4861277e-09
7.4551777e-11
2.4588454e-09
7.0378271e-11
2.4330363e-09
6.6576996e-11
2.4085711e-09
6.3109053e-11
2.3853346e-09
5.9938643e-11
2.3632231e-09
5.7035812e-11
2.3421432e-09
5.4374139e-11
2.3220104e-09
5.1930268e-11
2.302747e-09
4.9687232e-11
2.2842797e-09
4.7632814e-11
2.2665383e-09
4.5759857e-11
2.2494546e-09
4.4062909e-11
2.2329531e-09
4.2560713e-11
2.2169613e-09
4.1245348e-11
2.2013523e-09
4.0257593e-11
2.1860835e-09
3.9379082e-11
2.1706746e-09
3.97404e-11
2.1559853e-09
3.7882922e-11
2.1390825e-09
4.3583343e-11
2.6072104e-11
2.468512e-06
9.951148e-11
2.4684687e-06
2.2415565e-10
2.4684165e-06
2.697633e-10
2.4683575e-06
3.0480943e-10
2.4682892e-06
3.5321317e-10
2.4682102e-06
4.0811107e-10
2.4681193e-06
4.705814e-10
2.4680141e-06
5.4415274e-10
2.467892e-06
6.3192128e-10
2.4677496e-06
7.3733721e-10
2.4675826e-06
8.650146e-10
2.4673853e-06
1.0219691e-09
2.4671505e-06
1.2171304e-09
2.4668675e-06
1.4677747e-09
2.4665227e-06
1.7891274e-09
2.4660909e-06
2.2413667e-09
2.4655477e-06
2.8207763e-09
2.4648085e-06
3.8416212e-09
2.4638579e-06
4.9425478e-09
2.462282e-06
8.2011453e-09
2.4603041e-06
1.0294577e-08
2.4555582e-06
2.4718744e-08
2.4543508e-06
6.2145128e-09
1.2742213e-06
6.3706004e-06
6.3730492e-08
6.4670981e-06
3.1005259e-08
9.6476104e-08
2.3568683e-08
2.1783932e-08
1.9978264e-08
1.0515775e-08
1.7779893e-08
6.4374208e-09
1.6217945e-08
4.57375e-09
1.5028115e-08
3.4840058e-09
1.407675e-08
2.78572e-09
1.3292383e-08
2.2966956e-09
1.2630045e-08
1.9393656e-09
1.2059935e-08
1.6693022e-09
1.1561874e-08
1.4583252e-09
1.1121553e-08
1.2892494e-09
1.0728364e-08
1.1512345e-09
1.0374227e-08
1.0368837e-09
1.0052892e-08
9.408328e-10
9.7594446e-09
8.5916939e-10
9.4899394e-09
7.8906294e-10
9.2411613e-09
7.2836946e-10
9.0104691e-09
6.7541085e-10
8.7956815e-09
6.2883953e-10
8.5949614e-09
5.8764765e-10
8.4067439e-09
5.5103849e-10
8.2297023e-09
5.1831391e-10
8.0626993e-09
4.8891995e-10
7.9047521e-09
4.6240357e-10
7.755003e-09
4.3839903e-10
7.6127011e-09
4.1659333e-10
7.4771865e-09
3.9671971e-10
7.3478774e-09
3.7854995e-10
7.2242606e-09
3.6188263e-10
7.1058791e-09
3.4655412e-10
6.9923211e-09
3.3243063e-10
6.8832176e-09
3.1938818e-10
6.7782371e-09
3.0731651e-10
6.6770793e-09
2.9612367e-10
6.5794728e-09
2.8572608e-10
6.485173e-09
2.7604432e-10
6.393957e-09
2.6701546e-10
6.3056187e-09
2.5858986e-10
6.2199695e-09
2.5071669e-10
6.1368369e-09
2.4334858e-10
6.056062e-09
2.3644551e-10
5.977498e-09
2.2997252e-10
5.9010097e-09
2.2389575e-10
5.8264734e-09
2.1818048e-10
5.7537742e-09
2.1280209e-10
5.6828029e-09
2.0774326e-10
5.613458e-09
2.0298145e-10
5.5456456e-09
1.9849495e-10
5.4792777e-09
1.9426621e-10
5.4142714e-09
1.9027958e-10
5.3505489e-09
1.8652135e-10
5.2880384e-09
1.8297313e-10
5.2266731e-09
1.7962024e-10
5.1663879e-09
1.7645813e-10
5.1071207e-09
1.7347814e-10
5.0488134e-09
1.7066789e-10
4.991411e-09
1.680189e-10
4.9348609e-09
1.6552342e-10
4.8791132e-09
1.6317466e-10
4.8241199e-09
1.6096607e-10
4.7698368e-09
1.5888725e-10
4.7162212e-09
1.5693278e-10
4.6632306e-09
1.5510324e-10
4.610824e-09
1.5339359e-10
4.5589626e-09
1.517976e-10
4.5076087e-09
1.5031196e-10
4.4567256e-09
1.4893359e-10
4.4062775e-09
1.4766001e-10
4.3562305e-09
1.4648591e-10
4.3065519e-09
1.4540739e-10
4.2572084e-09
1.4442619e-10
4.208167e-09
1.4354175e-10
4.1593956e-09
1.4275121e-10
4.1108625e-09
1.4205344e-10
4.0625361e-09
1.4144813e-10
4.0143848e-09
1.4093519e-10
3.9663781e-09
1.4051189e-10
3.9184853e-09
1.4017787e-10
3.8706747e-09
1.3993713e-10
3.8229139e-09
1.3979074e-10
3.7751707e-09
1.3973857e-10
3.7274121e-09
1.3978329e-10
3.6796044e-09
1.399261e-10
3.6317145e-09
1.4016624e-10
3.5837054e-09
1.4051358e-10
3.5355509e-09
1.4093853e-10
3.4872353e-09
1.41408e-10
3.4407657e-09
1.3600225e-10
3.3971239e-09
1.2772281e-10
3.3560572e-09
1.2018244e-10
3.3173577e-09
1.1325128e-10
3.280823e-09
1.0691298e-10
3.2462601e-09
1.0113984e-10
3.2134964e-09
9.5872832e-11
3.1823774e-09
9.1057636e-11
3.1527644e-09
8.6648781e-11
3.1245324e-09
8.2606154e-11
3.0975683e-09
7.8894304e-11
3.0717681e-09
7.548748e-11
3.0470338e-09
7.2367139e-11
3.0232712e-09
6.9522425e-11
3.000389e-09
6.6945076e-11
2.9782862e-09
6.466358e-11
2.9568656e-09
6.2665929e-11
2.9359573e-09
6.116593e-11
2.9155042e-09
5.9832157e-11
2.8948629e-09
6.0381701e-11
2.8751841e-09
5.7561696e-11
2.8525397e-09
6.6227749e-11
3.9606171e-11
2.6637104e-06
1.2053454e-10
2.6636629e-06
2.7161287e-10
2.6636057e-06
3.2697814e-10
2.663541e-06
3.6947249e-10
2.6634661e-06
4.2812693e-10
2.6633796e-06
4.9463801e-10
2.6632799e-06
5.7030916e-10
2.6631646e-06
6.5941299e-10
2.6630308e-06
7.6569721e-10
2.6628748e-06
8.9333637e-10
2.6626919e-06
1.0479126e-09
2.662476e-06
1.2379132e-09
2.662219e-06
1.4741397e-09
2.6619092e-06
1.7774913e-09
2.661532e-06
2.1663771e-09
2.6610598e-06
2.7135952e-09
2.6604659e-06
3.4145992e-09
2.659658e-06
4.649542e-09
2.6586195e-06
5.9811039e-09
2.6568986e-06
9.9219836e-09
2.6547391e-06
1.2454118e-08
2.6495597e-06
2.9898156e-08
2.6482325e-06
7.5416791e-09
1.3853056e-06
7.6335273e-06
8.3423428e-08
7.7689803e-06
4.0689428e-08
1.392101e-07
3.0929323e-08
3.1544037e-08
2.6216501e-08
1.5228597e-08
2.3330381e-08
9.3235412e-09
2.1279753e-08
6.6243774e-09
1.971762e-08
5.0461389e-09
1.8468555e-08
4.0347853e-09
1.7438729e-08
3.3265216e-09
1.6569107e-08
2.8089871e-09
1.5820569e-08
2.41784e-09
1.5166624e-08
2.1122711e-09
1.4588482e-08
1.8673906e-09
1.407222e-08
1.6674968e-09
1.3607227e-08
1.5018765e-09
1.3185299e-08
1.3627608e-09
1.2799985e-08
1.2444832e-09
1.2446105e-08
1.1429436e-09
1.2119437e-08
1.0550376e-09
1.1816513e-08
9.78334e-10
1.1534472e-08
9.1088117e-10
1.12709e-08
8.5121991e-10
1.1023742e-08
7.9819581e-10
1.0791258e-08
7.5079794e-10
1.0571954e-08
7.0822397e-10
1.036454e-08
6.698177e-10
1.016789e-08
6.3504945e-10
9.9810171e-09
6.0346588e-10
9.8030562e-09
5.7468064e-10
9.6332429e-09
5.4836321e-10
9.4709036e-09
5.2422187e-10
9.3154382e-09
5.0201961e-10
9.1663062e-09
4.8156264e-10
9.0230229e-09
4.6267142e-10
8.8851532e-09
4.4518625e-10
8.7523029e-09
4.2897397e-10
8.6241155e-09
4.1391349e-10
8.50027e-09
3.9988983e-10
8.3804736e-09
3.8681181e-10
8.2644559e-09
3.7460755e-10
8.1519692e-09
3.6320342e-10
8.0427869e-09
3.5253083e-10
7.9367006e-09
3.425318e-10
7.8335175e-09
3.331557e-10
7.7330597e-09
3.2435348e-10
7.6351653e-09
3.1607487e-10
7.5396832e-09
3.082842e-10
7.4464701e-09
3.009564e-10
7.3553928e-09
2.9405879e-10
7.2663277e-09
2.8755996e-10
7.1791595e-09
2.8143448e-10
7.0937794e-09
2.7565969e-10
7.010085e-09
2.7021573e-10
6.9279822e-09
2.6507594e-10
6.8473833e-09
2.6021909e-10
6.7682029e-09
2.5563858e-10
6.6903591e-09
2.5132187e-10
6.613776e-09
2.4725101e-10
6.5383811e-09
2.4341376e-10
6.4641057e-09
2.3979886e-10
6.3908839e-09
2.3639649e-10
6.3186528e-09
2.3319716e-10
6.2473542e-09
2.301858e-10
6.1769324e-09
2.2735458e-10
6.1073314e-09
2.2470432e-10
6.0384972e-09
2.2222773e-10
5.970379e-09
2.199158e-10
5.9029272e-09
2.1776374e-10
5.8360938e-09
2.1576706e-10
5.7698316e-09
2.1392219e-10
5.7040961e-09
2.1222143e-10
5.6388443e-09
2.1065915e-10
5.5740326e-09
2.0923786e-10
5.5096176e-09
2.0795676e-10
5.4455571e-09
2.0681171e-10
5.3818095e-09
2.0580106e-10
5.3183332e-09
2.049244e-10
5.2550869e-09
2.0418156e-10
5.1920302e-09
2.035686e-10
5.129123e-09
2.0308503e-10
5.0663235e-09
2.0273664e-10
5.0035892e-09
2.0252498e-10
4.9408779e-09
2.0244987e-10
4.878146e-09
2.0251521e-10
4.8153494e-09
2.0272273e-10
4.7524443e-09
2.0307137e-10
4.6893823e-09
2.0357554e-10
4.6261286e-09
2.0419222e-10
4.5626627e-09
2.0487396e-10
4.5016202e-09
1.9704473e-10
4.4442905e-09
1.8505248e-10
4.390342e-09
1.74131e-10
4.3395014e-09
1.6409181e-10
4.2915034e-09
1.5491103e-10
4.2460946e-09
1.4654862e-10
4.2030482e-09
1.3891916e-10
4.1621619e-09
1.3194403e-10
4.1232532e-09
1.2555742e-10
4.0861581e-09
1.1970124e-10
4.0507283e-09
1.1432417e-10
4.0168268e-09
1.0938896e-10
3.9843252e-09
1.0486876e-10
3.9530997e-09
1.0074787e-10
3.9230304e-09
9.701436e-11
3.8939845e-09
9.3709534e-11
3.8658344e-09
9.0816034e-11
3.8383567e-09
8.8643575e-11
3.8114764e-09
8.6712452e-11
3.7843481e-09
8.7510011e-11
3.7584823e-09
8.3427529e-11
3.728719e-09
9.599107e-11
5.7392197e-11
2.898604e-06
1.4379685e-10
2.8985514e-06
3.2417595e-10
2.898488e-06
3.9039967e-10
2.8984163e-06
4.4115783e-10
2.8983333e-06
5.1116746e-10
2.8982374e-06
5.9053687e-10
2.8981269e-06
6.8081734e-10
2.8979992e-06
7.87104e-10
2.897851e-06
9.1386425e-10
2.8976783e-06
1.066072e-09
2.8974758e-06
1.2503773e-09
2.8972369e-06
1.4768911e-09
2.8969525e-06
1.7584785e-09
2.89661e-06
2.1200352e-09
2.8961929e-06
2.5834769e-09
2.8956709e-06
3.2355212e-09
2.8950149e-06
4.0706811e-09
2.8941226e-06
5.5417716e-09
2.8929761e-06
7.1275977e-09
2.8910777e-06
1.1820466e-08
2.8886955e-06
1.4836323e-08
2.882985e-06
3.5608565e-08
2.8815097e-06
9.0170452e-09
1.5195409e-06
8.9954961e-06
1.0796736e-07
9.1805539e-06
5.2805246e-08
1.9437222e-07
4.0137641e-08
4.4211641e-08
3.4020041e-08
2.1346197e-08
3.0272889e-08
1.3070694e-08
2.7610436e-08
9.2868304e-09
2.5582154e-08
7.0744216e-09
2.3960337e-08
5.656602e-09
2.2623161e-08
4.6636972e-09
2.1493986e-08
3.9381627e-09
2.0522021e-08
3.3898046e-09
1.9672872e-08
2.9614205e-09
1.8922144e-08
2.6181178e-09
1.8251759e-08
2.3378824e-09
1.764794e-08
2.1056952e-09
1.7100036e-08
1.910665e-09
1.6599671e-08
1.7448479e-09
1.6140119e-08
1.6024956e-09
1.57159e-08
1.4792571e-09
1.5322511e-08
1.3717229e-09
1.4956235e-08
1.2771568e-09
1.4613941e-08
1.1935146e-09
1.429296e-08
1.1191767e-09
1.3991031e-08
1.0527264e-09
1.3706216e-08
9.9303881e-10
1.343684e-08
9.3919398e-10
1.318144e-08
8.9044934e-10
1.2938737e-08
8.461694e-10
1.2707605e-08
8.0581251e-10
1.2487053e-08
7.6891534e-10
1.2276206e-08
7.3506893e-10
1.2074284e-08
7.0394098e-10
1.1880587e-08
6.7525981e-10
1.1694485e-08
6.4877374e-10
1.1515412e-08
6.242589e-10
1.1342857e-08
6.0152858e-10
1.1176358e-08
5.8041305e-10
1.1015497e-08
5.607511e-10
1.0859894e-08
5.4241491e-10
1.0709197e-08
5.253037e-10
1.0563087e-08
5.0931425e-10
1.0421267e-08
4.9435041e-10
1.0283468e-08
4.803309e-10
1.0149439e-08
4.6718472e-10
1.0018949e-08
4.5484313e-10
9.8917885e-09
4.4323562e-10
9.7677605e-09
4.3231222e-10
9.6466791e-09
4.2203777e-10
9.5283714e-09
4.1236644e-10
9.4126772e-09
4.0325422e-10
9.2994462e-09
3.9466545e-10
9.1885375e-09
3.8656836e-10
9.0798181e-09
3.7893511e-10
8.9731658e-09
3.7172831e-10
8.8684667e-09
3.6491818e-10
8.7656097e-09
3.5849555e-10
8.6644888e-09
3.5244277e-10
8.5650051e-09
3.467347e-10
8.4670647e-09
3.4135415e-10
8.3705782e-09
3.3628538e-10
8.2754601e-09
3.3151462e-10
8.1816287e-09
3.2702852e-10
8.0890085e-09
3.2280597e-10
7.9975271e-09
3.1883603e-10
7.9071116e-09
3.1511984e-10
7.8176922e-09
3.1164716e-10
7.7292026e-09
3.0840538e-10
7.6415786e-09
3.0538776e-10
7.5547576e-09
3.0258805e-10
7.4686785e-09
3.0000122e-10
7.3832835e-09
2.9761646e-10
7.2985168e-09
2.9542589e-10
7.2143215e-09
2.9343308e-10
7.1306414e-09
2.9163687e-10