/*--------------------------------*- C++ -*----------------------------------*\
| =========                 |                                                 |
| \\      /  F ield         | OpenFOAM: The Open Source CFD Toolbox           |
|  \\    /   O peration     | Version:  2206                                  |
|   \\  /    A nd           | Website:  www.openfoam.com                      |
|    \\/     M anipulation  |                                                 |
\*---------------------------------------------------------------------------*/
FoamFile
{
    version     2.0;
    format      ascii;
    arch        "LSB;label=32;scalar=64";
    class       volVectorField;
    location    "900";
    object      U;
}
// * * * * * * * * * * * * * * * * * * * * * * * * * * * * * * * * * * * * * //

dimensions      [0 1 -1 0 0 0 0];

internalField   nonuniform List<vector> 
13056
(
(1 1.8579342e-10 4.2127816e-25)
(0.999986 4.7443455e-10 0)
(0.99996683 6.4728848e-10 0)
(0.99994585 8.2965789e-10 0)
(0.99992155 1.090516e-09 0)
(0.99989336 1.4286761e-09 0)
(0.99986088 1.8669142e-09 0)
(0.99982339 2.4447937e-09 0)
(0.99977994 3.2123135e-09 0)
(0.99972937 4.2358264e-09 0)
(0.99967021 5.6072385e-09 0)
(0.9996006 7.4605475e-09 0)
(0.99951802 9.981667e-09 0)
(0.99941927 1.3480475e-08 0)
(0.99929929 1.8330204e-08 0)
(0.99915247 2.5492793e-08 0)
(0.99896507 3.5403357e-08 0)
(0.99873115 5.2824953e-08 0)
(0.9983923 7.3805735e-08 0)
(0.99799021 1.316724e-07 0)
(0.99717113 1.7549133e-07 0)
(0.99643707 4.4168189e-07 0)
(0.99348709 1.1396126e-07 -4.777178e-21)
(0.99545192 0.00012398807 7.8176416e-18)
(0.0031705056 0.00012441123 0)
(0.0012366345 6.5291143e-08 -1.0389806e-20)
(0.00088474501 4.6260548e-08 3.4151157e-18)
(0.0007282797 5.288765e-09 0)
(0.00063931421 3.2097487e-09 0)
(0.00057805545 2.2601783e-09 0)
(0.00053256355 1.7061355e-09 0)
(0.00049673378 1.351413e-09 0)
(0.00046753644 1.1033925e-09 0)
(0.00044312039 9.224757e-10 0)
(0.00042226299 7.8592582e-10 0)
(0.00040415043 6.7940204e-10 0)
(0.00038821777 5.9417077e-10 0)
(0.00037405213 5.2470693e-10 0)
(0.00036134143 4.6723887e-10 0)
(0.00034984537 4.1903698e-10 0)
(0.00033937709 3.7811457e-10 0)
(0.00032978761 3.4302915e-10 0)
(0.00032095612 3.1269835e-10 0)
(0.00031278365 2.8626162e-10 2.0934249e-25)
(0.00030518861 2.6303708e-10 0)
(0.0002981035 2.4252218e-10 0)
(0.00029147019 2.2430379e-10 0)
(0.00028523982 2.0803254e-10 0)
(0.00027937056 1.9342888e-10 0)
(0.00027382648 1.8026406e-10 0)
(0.00026857632 1.6835254e-10 0)
(0.0002635927 1.5753604e-10 0)
(0.00025885165 1.4768014e-10 0)
(0.00025433202 1.3867023e-10 0)
(0.00025001519 1.3040605e-10 0)
(0.00024588471 1.2280522e-10 0)
(0.00024192576 1.1579935e-10 0)
(0.00023812501 1.0932613e-10 0)
(0.00023447056 1.033306e-10 0)
(0.00023095165 9.7766285e-11 0)
(0.00022755851 9.2591429e-11 0)
(0.00022428235 8.7767393e-11 0)
(0.00022111524 8.3262555e-11 0)
(0.00021804987 7.9050762e-11 0)
(0.00021507946 7.510651e-11 0)
(0.00021219788 7.1406504e-11 0)
(0.00020939949 6.7930632e-11 0)
(0.00020667906 6.4661111e-11 0)
(0.00020403177 6.1581238e-11 0)
(0.0002014532 5.8674834e-11 0)
(0.00019893933 5.5929273e-11 0)
(0.00019648631 5.3334326e-11 0)
(0.00019409052 5.0878785e-11 0)
(0.00019174865 4.8552229e-11 0)
(0.00018945759 4.634573e-11 0)
(0.00018721443 4.4251196e-11 0)
(0.00018501642 4.2261372e-11 0)
(0.00018286098 4.0368213e-11 0)
(0.00018074578 3.856498e-11 0)
(0.00017866859 3.6847464e-11 0)
(0.0001766272 3.52106e-11 0)
(0.00017461955 3.3648836e-11 0)
(0.00017264374 3.2157698e-11 0)
(0.00017069791 3.0733033e-11 0)
(0.00016878033 2.9371054e-11 0)
(0.00016688931 2.8068172e-11 0)
(0.00016502326 2.6820312e-11 0)
(0.00016318074 2.5624501e-11 0)
(0.00016136029 2.4478834e-11 0)
(0.00015956044 2.3380519e-11 0)
(0.00015777987 2.2326755e-11 0)
(0.00015601725 2.1315307e-11 0)
(0.00015427133 2.0344059e-11 0)
(0.00015254085 1.9411075e-11 0)
(0.00015082462 1.8514108e-11 0)
(0.00014912151 1.7651248e-11 0)
(0.00014743041 1.6821373e-11 0)
(0.00014575017 1.6023044e-11 0)
(0.00014407967 1.525464e-11 0)
(0.00014241782 1.4514811e-11 0)
(0.00014076356 1.3802342e-11 0)
(0.00013911579 1.3116074e-11 0)
(0.00013747344 1.2454649e-11 0)
(0.00013583549 1.1817008e-11 0)
(0.00013420087 1.1202494e-11 0)
(0.00013256846 1.0610178e-11 0)
(0.00013093718 1.0039086e-11 0)
(0.0001293059 9.4884866e-12 0)
(0.00012767348 8.9575569e-12 0)
(0.00012603877 8.445388e-12 0)
(0.00012440063 7.951784e-12 0)
(0.00012275769 7.4742586e-12 0)
(0.00012110953 7.0107299e-12 0)
(0.00011949265 6.5727349e-12 0)
(0.00011795668 6.1735628e-12 0)
(0.00011651242 5.8100759e-12 0)
(0.00011515254 5.4758737e-12 0)
(0.00011387013 5.1701751e-12 0)
(0.00011265826 4.8916747e-12 0)
(0.00011151065 4.6375424e-12 0)
(0.00011042175 4.4051785e-12 0)
(0.00010938656 4.1924031e-12 0)
(0.00010840058 3.9972861e-12 0)
(0.00010745976 3.8181265e-12 0)
(0.00010656043 3.6536941e-12 0)
(0.00010569914 3.503102e-12 0)
(0.00010487265 3.3658352e-12 0)
(0.00010407776 3.2415092e-12 0)
(0.00010331143 3.1315164e-12 0)
(0.00010256981 3.0353059e-12 0)
(0.00010185012 2.9632034e-12 0)
(0.00010114352 2.8993836e-12 0)
(0.00010045501 2.9267198e-12 0)
(9.9735585e-05 1.1607386e-11 0)
(9.91132e-05 3.1808782e-12 2.4731109e-24)
(9.819091e-05 8.0331034e-12 0)
(1 5.6179767e-10 0)
(0.99998592 1.434938e-09 0)
(0.99996664 1.9579849e-09 0)
(0.99994552 2.5096774e-09 0)
(0.99992107 3.2987024e-09 0)
(0.99989271 4.3214853e-09 0)
(0.99986003 5.6468828e-09 0)
(0.99982231 7.3945116e-09 0)
(0.99977861 9.7155299e-09 0)
(0.99972774 1.2810524e-08 0)
(0.99966824 1.6957316e-08 0)
(0.99959823 2.2560947e-08 0)
(0.99951519 3.0183355e-08 0)
(0.9994159 4.0761144e-08 0)
(0.99929527 5.542229e-08 0)
(0.99914767 7.7074065e-08 0)
(0.99895931 1.0703083e-07 0)
(0.99872421 1.5968745e-07 0)
(0.99838369 2.2309702e-07 0)
(0.99797968 3.9797157e-07 0)
(0.99715685 5.3040334e-07 0)
(0.9964194 1.3348362e-06 0)
(0.99345639 3.4282117e-07 1.7079025e-20)
(0.99542741 0.00037265169 -6.6619604e-21)
(0.0095224575 0.00037441964 0)
(0.0037281472 1.2159396e-06 0)
(0.0026673437 2.6412018e-07 2.4757158e-22)
(0.0021956576 1.2582818e-07 0)
(0.0019273983 7.6324534e-08 0)
(0.0017426901 5.3738504e-08 0)
(0.001605519 4.0553911e-08 0)
(0.0014974839 3.211687e-08 0)
(0.0014094464 2.6219175e-08 0)
(0.001335826 2.1917197e-08 0)
(0.0012729358 1.8670466e-08 0)
(0.0012183222 1.6138041e-08 0)
(0.0011702814 1.4112034e-08 0)
(0.0011275686 1.2460981e-08 0)
(0.0010892428 1.1095145e-08 0)
(0.0010545793 9.9496321e-09 0)
(0.0010230148 8.9771937e-09 0)
(0.0009941 8.1435719e-09 0)
(0.00096747069 7.4228347e-09 -6.7204946e-25)
(0.0009428285 6.7947279e-09 -3.5520696e-25)
(0.00091992732 6.2430827e-09 0)
(0.00089856368 5.7557206e-09 0)
(0.0008785623 5.3229728e-09 0)
(0.00085977588 4.9364994e-09 0)
(0.00084207826 4.589657e-09 0)
(0.00082536113 4.2770101e-09 0)
(0.00080953022 3.9941436e-09 0)
(0.00079450296 3.7372967e-09 0)
(0.00078020712 3.5032743e-09 0)
(0.00076657892 3.2893513e-09 0)
(0.00075356219 3.0931475e-09 0)
(0.00074110732 2.9127049e-09 0)
(0.00072916967 2.7463957e-09 0)
(0.00071770905 2.5927399e-09 0)
(0.00070668954 2.4504318e-09 0)
(0.00069607871 2.3183667e-09 0)
(0.00068584711 2.1955524e-09 0)
(0.00067596822 2.0810718e-09 0)
(0.00066641816 1.9741726e-09 0)
(0.00065717484 1.8742326e-09 0)
(0.00064821788 1.7806465e-09 0)
(0.00063952877 1.6928607e-09 0)
(0.00063109046 1.6103973e-09 0)
(0.00062288726 1.5328336e-09 0)
(0.00061490458 1.4597735e-09 0)
(0.00060712911 1.390833e-09 0)
(0.00059954872 1.3257108e-09 0)
(0.00059215182 1.2641638e-09 0)
(0.0005849275 1.2059266e-09 0)
(0.00057786575 1.1507513e-09 0)
(0.0005709572 1.0984257e-09 0)
(0.00056419308 1.0487577e-09 0)
(0.00055756511 1.0015745e-09 0)
(0.00055106549 9.5668654e-10 0)
(0.00054468723 9.1393333e-10 0)
(0.00053842357 8.7321294e-10 0)
(0.00053226784 8.3440628e-10 0)
(0.00052621389 7.9738191e-10 0)
(0.00052025591 7.6203311e-10 0)
(0.00051438835 7.2826125e-10 0)
(0.00050860596 6.959764e-10 0)
(0.00050290366 6.6509365e-10 0)
(0.00049727665 6.3551648e-10 0)
(0.0004917206 6.0717355e-10 0)
(0.00048623109 5.800194e-10 0)
(0.00048080373 5.5398839e-10 0)
(0.00047543447 5.2901385e-10 0)
(0.00047011935 5.0504264e-10 0)
(0.00046485456 4.8202453e-10 0)
(0.00045963635 4.5991342e-10 0)
(0.0004544611 4.386566e-10 0)
(0.00044932542 4.1820854e-10 0)
(0.00044422595 3.9854173e-10 0)
(0.00043915921 3.7962263e-10 0)
(0.00043412185 3.6141292e-10 0)
(0.0004291106 3.4388036e-10 0)
(0.0004241222 3.2699614e-10 0)
(0.00041915338 3.1073276e-10 0)
(0.0004142009 2.950582e-10 0)
(0.00040926168 2.7994723e-10 0)
(0.0004043325 2.6538393e-10 0)
(0.00039940999 2.5134655e-10 0)
(0.00039449086 2.3781195e-10 0)
(0.00038957176 2.2476266e-10 0)
(0.00038464918 2.1217911e-10 0)
(0.00037971971 2.0003979e-10 0)
(0.00037477988 1.8833874e-10 0)
(0.00036982557 1.7701903e-10 0)
(0.00036485551 1.660293e-10 0)
(0.00035997975 1.5563546e-10 0)
(0.00035534795 1.461547e-10 0)
(0.00035099266 1.3751972e-10 0)
(0.0003468918 1.2958241e-10 0)
(0.00034302455 1.2232458e-10 0)
(0.00033936997 1.1571438e-10 0)
(0.00033590917 1.0968408e-10 0)
(0.00033262538 1.0417132e-10 0)
(0.00032950355 9.9123972e-11 0)
(0.00032653011 9.4496045e-11 0)
(0.00032369285 9.0246895e-11 0)
(0.00032098069 8.6346978e-11 0)
(0.00031838324 8.2775025e-11 0)
(0.00031589071 7.951857e-11 0)
(0.0003134935 7.6568108e-11 0)
(0.0003111824 7.3956185e-11 0)
(0.00030894579 7.166903e-11 0)
(0.00030677534 6.9951467e-11 0)
(0.00030464435 6.8423402e-11 0)
(0.0003025679 6.9050923e-11 0)
(0.00030039828 6.610829e-11 0)
(0.00029852111 7.5649892e-11 -3.8278579e-24)
(0.00029573957 4.5607474e-11 2.6622821e-25)
(1 9.4862373e-10 0)
(0.99998582 2.4232555e-09 0)
(0.99996639 3.3070014e-09 0)
(0.9999451 4.2388776e-09 0)
(0.99992046 5.5714458e-09 0)
(0.99989188 7.2986989e-09 0)
(0.99985894 9.5368645e-09 0)
(0.99982094 1.2487869e-08 0)
(0.9997769 1.6406869e-08 0)
(0.99972566 2.1632429e-08 0)
(0.99966572 2.8633455e-08 0)
(0.9995952 3.8093545e-08 0)
(0.99951158 5.0961033e-08 0)
(0.99941159 6.8816501e-08 0)
(0.99929013 9.3563273e-08 0)
(0.99914155 1.3010724e-07 0)
(0.99895195 1.8066511e-07 0)
(0.99871534 2.6952661e-07 0)
(0.99837272 3.7652614e-07 0)
(0.99796626 6.7159044e-07 0)
(0.99713867 8.9505875e-07 0)
(0.99639691 2.2523523e-06 0)
(0.99341741 5.795462e-07 -9.0486855e-21)
(0.9953962 0.00062507761 5.3813179e-55)
(0.015978593 0.00062926655 -5.3806789e-55)
(0.0062749787 3.4512387e-06 0)
(0.0044895423 7.6860113e-07 -1.2881164e-22)
(0.0036956348 3.6846977e-07 0)
(0.0032440316 2.2352057e-07 0)
(0.0029330902 1.5737647e-07 0)
(0.0027021686 1.1876468e-07 0)
(0.0025202975 9.4055954e-08 0)
(0.0023720904 7.6784435e-08 0)
(0.0022481534 6.4185727e-08 0)
(0.0021422805 5.4677417e-08 0)
(0.0020503406 4.726106e-08 0)
(0.0019694657 4.132782e-08 0)
(0.0018975601 3.6492663e-08 0)
(0.0018330394 3.2492774e-08 0)
(0.0017746842 2.9138112e-08 0)
(0.0017215458 2.6290309e-08 0)
(0.0016728681 2.3849037e-08 0)
(0.0016280378 2.1738338e-08 0)
(0.0015865526 1.9898912e-08 3.8410346e-25)
(0.0015479983 1.8283415e-08 0)
(0.0015120323 1.6856162e-08 0)
(0.0014783596 1.5588849e-08 0)
(0.0014467322 1.445705e-08 0)
(0.0014169377 1.3441311e-08 0)
(0.0013887938 1.2525714e-08 0)
(0.0013621418 1.1697328e-08 0)
(0.0013368427 1.094514e-08 0)
(0.0013127749 1.0259793e-08 0)
(0.001289831 9.6333084e-09 0)
(0.0012679166 9.0587143e-09 0)
(0.001246948 8.530277e-09 0)
(0.0012268501 8.043229e-09 0)
(0.0012075552 7.5932368e-09 0)
(0.001189003 7.1764762e-09 0)
(0.0011711388 6.7897126e-09 0)
(0.0011539129 6.4300398e-09 0)
(0.0011372809 6.0947727e-09 0)
(0.0011212025 5.7817081e-09 0)
(0.0011056404 5.4890233e-09 0)
(0.0010905604 5.2149462e-09 0)
(0.0010759314 4.9578555e-09 0)
(0.0010617245 4.7163515e-09 0)
(0.0010479135 4.4891967e-09 0)
(0.0010344737 4.2752305e-09 0)
(0.0010213828 4.0733291e-09 0)
(0.0010086202 3.8826098e-09 0)
(0.00099616661 3.7023607e-09 0)
(0.00098400352 3.5318042e-09 0)
(0.00097211415 3.3702148e-09 0)
(0.00096048267 3.2169709e-09 0)
(0.00094909435 3.0715102e-09 0)
(0.00093793524 2.9333263e-09 0)
(0.00092699221 2.8018642e-09 0)
(0.00091625351 2.676654e-09 0)
(0.00090570773 2.557397e-09 0)
(0.00089534365 2.4437446e-09 0)
(0.00088515092 2.3353118e-09 0)
(0.00087511976 2.231786e-09 0)
(0.00086524084 2.1328786e-09 0)
(0.0008555053 2.0383261e-09 0)
(0.0008459046 1.9478797e-09 0)
(0.00083643066 1.861257e-09 0)
(0.00082707618 1.7782489e-09 0)
(0.00081783371 1.6987223e-09 0)
(0.00080869589 1.622485e-09 0)
(0.00079965588 1.5493418e-09 0)
(0.00079070702 1.4791369e-09 0)
(0.00078184289 1.4117235e-09 0)
(0.00077305719 1.3469662e-09 0)
(0.0007643438 1.284711e-09 0)
(0.00075569704 1.2248244e-09 0)
(0.00074711124 1.1672258e-09 0)
(0.00073858052 1.1118171e-09 0)
(0.00073009929 1.0584859e-09 0)
(0.000721662 1.0071379e-09 0)
(0.00071326317 9.5768874e-10 0)
(0.00070489731 9.1005784e-10 0)
(0.00069655895 8.6415145e-10 0)
(0.00068824291 8.1989565e-10 0)
(0.00067994376 7.7724385e-10 0)
(0.00067165585 7.3613234e-10 0)
(0.0006633736 6.9649334e-10 0)
(0.00065509139 6.582757e-10 0)
(0.00064680333 6.2142213e-10 0)
(0.00063850362 5.8586963e-10 0)
(0.00063018648 5.5160081e-10 0)
(0.00062184492 5.1844878e-10 0)
(0.00061347682 4.8626382e-10 0)
(0.00060526744 4.5582469e-10 0)
(0.00059746874 4.2805974e-10 0)
(0.00059013553 4.0277195e-10 0)
(0.00058323065 3.795274e-10 0)
(0.00057671904 3.5827254e-10 0)
(0.00057056545 3.3891409e-10 0)
(0.00056473809 3.2125372e-10 0)
(0.00055920874 3.0510894e-10 0)
(0.00055395206 2.9032707e-10 0)
(0.0005489452 2.7677346e-10 0)
(0.00054416762 2.6432911e-10 0)
(0.00053960065 2.5290751e-10 0)
(0.00053522679 2.4244637e-10 0)
(0.0005310296 2.3290921e-10 0)
(0.00052699287 2.242682e-10 0)
(0.00052310112 2.1661866e-10 0)
(0.00051933479 2.0992022e-10 0)
(0.00051567982 2.048899e-10 0)
(0.0005120913 2.0041452e-10 0)
(0.00050859455 2.0225236e-10 0)
(0.00050494101 1.9243169e-10 0)
(0.00050177957 2.2169515e-10 0)
(0.00049709548 1.3259411e-10 0)
(1 1.3528916e-09 8.6934784e-25)
(0.9999857 3.4566361e-09 0)
(0.99996608 4.7180403e-09 0)
(0.99994459 6.0476667e-09 0)
(0.9999197 7.948677e-09 0)
(0.99989085 1.0412557e-08 0)
(0.9998576 1.3605003e-08 0)
(0.99981924 1.781392e-08 0)
(0.99977479 2.3403076e-08 0)
(0.99972308 3.0855116e-08 0)
(0.9996626 4.0838445e-08 0)
(0.99959146 5.432745e-08 0)
(0.9995071 7.2673774e-08 0)
(0.99940626 9.8130103e-08 0)
(0.99928378 1.3340873e-07 0)
(0.99913398 1.8550112e-07 0)
(0.99894285 2.5756414e-07 0)
(0.99870439 3.842119e-07 0)
(0.99835916 5.3669557e-07 0)
(0.99794968 9.5714663e-07 0)
(0.99711624 1.2756027e-06 0)
(0.99636916 3.2096168e-06 0)
(0.99336938 8.2754249e-07 0)
(0.99535767 0.0008849959 -2.8075026e-55)
(0.022631951 0.0008928243 2.8071719e-55)
(0.0089150008 7.1210188e-06 0)
(0.00637839 1.5874803e-06 0)
(0.005250444 7.5989029e-07 0)
(0.0046086925 4.6099418e-07 0)
(0.0041668362 3.2457709e-07 0)
(0.0038386814 2.4494396e-07 0)
(0.0035802312 1.9398352e-07 0)
(0.0033696182 1.5836263e-07 0)
(0.0031934938 1.3237865e-07 0)
(0.0030430393 1.1276837e-07 0)
(0.0029123844 9.7472677e-08 0)
(0.0027974534 8.5235867e-08 0)
(0.002695268 7.5263783e-08 0)
(0.002603577 6.7014366e-08 0)
(0.0025206474 6.0095677e-08 0)
(0.0024451311 5.4222347e-08 0)
(0.0023759535 4.9187456e-08 0)
(0.0023122432 4.4834318e-08 0)
(0.0022532867 4.1040663e-08 0)
(0.0021984949 3.7708854e-08 0)
(0.0021473814 3.4765264e-08 0)
(0.0020995267 3.2151535e-08 0)
(0.0020545785 2.9817291e-08 0)
(0.002012235 2.7722409e-08 0)
(0.0019722371 2.5834058e-08 0)
(0.0019343593 2.4125571e-08 0)
(0.0018984041 2.2574235e-08 0)
(0.0018641986 2.1160752e-08 0)
(0.0018315904 1.9868665e-08 0)
(0.001800445 1.8683599e-08 0)
(0.0017706438 1.7593726e-08 0)
(0.0017420799 1.6589214e-08 0)
(0.0017146573 1.5661127e-08 0)
(0.0016882899 1.4801576e-08 0)
(0.0016629004 1.4003892e-08 0)
(0.001638418 1.3262079e-08 0)
(0.0016147795 1.2570602e-08 0)
(0.0015919277 1.1924916e-08 0)
(0.0015698098 1.1321261e-08 0)
(0.001548377 1.0755983e-08 0)
(0.001527585 1.0225738e-08 0)
(0.001507393 9.7276391e-09 0)
(0.0014877635 9.2591347e-09 0)
(0.0014686616 8.8178308e-09 0)
(0.0014500555 8.4014099e-09 0)
(0.0014319161 8.0080517e-09 0)
(0.0014142157 7.6362871e-09 0)
(0.0013969282 7.2845132e-09 0)
(0.0013800297 6.9512334e-09 0)
(0.0013634977 6.6351658e-09 0)
(0.0013473113 6.3351506e-09 0)
(0.0013314507 6.0501437e-09 0)
(0.0013158971 5.7789999e-09 0)
(0.0013006339 5.5207508e-09 0)
(0.0012856449 5.2747798e-09 0)
(0.0012709142 5.0403681e-09 0)
(0.0012564269 4.8167218e-09 0)
(0.0012421693 4.6031962e-09 0)
(0.001228128 4.3991957e-09 0)
(0.0012142906 4.2041772e-09 0)
(0.0012006447 4.0176276e-09 0)
(0.001187179 3.8389643e-09 0)
(0.0011738831 3.6677563e-09 0)
(0.0011607464 3.5037289e-09 0)
(0.0011477584 3.3464856e-09 0)
(0.0011349094 3.1956238e-09 0)
(0.00112219 3.0508226e-09 0)
(0.001109591 2.9117786e-09 0)
(0.0010971034 2.7782133e-09 0)
(0.0010847187 2.6498083e-09 0)
(0.0010724286 2.5262888e-09 0)
(0.0010602251 2.4074884e-09 0)
(0.0010481 2.2932047e-09 0)
(0.0010360451 2.183206e-09 0)
(0.0010240527 2.0772979e-09 0)
(0.001012115 1.975306e-09 0)
(0.0010002241 1.8770645e-09 0)
(0.00098837223 1.78238e-09 0)
(0.00097655212 1.6910999e-09 0)
(0.00096475599 1.6031281e-09 0)
(0.00095297581 1.5183334e-09 0)
(0.00094120367 1.4365758e-09 0)
(0.00092943155 1.3577499e-09 0)
(0.00091765109 1.2817375e-09 0)
(0.00090585405 1.2084088e-09 0)
(0.00089403218 1.137728e-09 0)
(0.00088217556 1.0693506e-09 0)
(0.00087028116 1.0029688e-09 0)
(0.00085861227 9.401895e-10 0)
(0.00084752696 8.8292607e-10 0)
(0.00083710317 8.3077211e-10 0)
(0.00082728805 7.8283246e-10 0)
(0.0008180318 7.3899551e-10 0)
(0.00080928434 6.9906957e-10 0)
(0.00080100053 6.6264554e-10 0)
(0.00079314023 6.2934713e-10 0)
(0.00078566746 5.9885954e-10 0)
(0.00077854976 5.7090509e-10 0)
(0.00077175789 5.4523839e-10 0)
(0.00076526537 5.2168107e-10 0)
(0.00075904731 5.0010468e-10 0)
(0.00075308034 4.8043402e-10 0)
(0.00074734142 4.6261167e-10 0)
(0.00074180856 4.4683432e-10 0)
(0.00073645392 4.3301868e-10 0)
(0.00073125757 4.2264348e-10 0)
(0.00072615562 4.1341339e-10 0)
(0.00072118404 4.1720397e-10 0)
(0.00071598961 3.9756759e-10 0)
(0.00071149424 4.5743545e-10 0)
(0.00070483459 2.7376828e-10 0)
(1 1.7815716e-09 0)
(0.99998555 4.5530127e-09 0)
(0.9999657 6.2157574e-09 0)
(0.99994396 7.9676788e-09 0)
(0.99991879 1.0471935e-08 0)
(0.9998896 1.3717399e-08 0)
(0.99985597 1.7922175e-08 0)
(0.99981717 2.346528e-08 0)
(0.99977223 3.0825558e-08 0)
(0.99971995 4.063827e-08 0)
(0.99965881 5.3783115e-08 0)
(0.99958691 7.154241e-08 0)
(0.99950167 9.5694791e-08 0)
(0.99939979 1.2920447e-07 0)
(0.99927608 1.7563984e-07 0)
(0.99912479 2.4419984e-07 0)
(0.99893182 3.3903456e-07 0)
(0.99869111 5.0568462e-07 0)
(0.99834273 7.0630763e-07 0)
(0.9979296 1.2594319e-06 0)
(0.99708908 1.6784128e-06 0)
(0.99633558 4.2226117e-06 0)
(0.99331134 1.0911884e-06 0)
(0.99531102 0.0011560826 0)
(0.029576655 0.0011688522 0)
(0.011687462 1.2379521e-05 0)
(0.0083619198 2.7536864e-06 0)
(0.0068831276 1.3177795e-06 0)
(0.0060415644 7.9950754e-07 0)
(0.0054621423 5.6291924e-07 0)
(0.0050318067 4.2481369e-07 0)
(0.00469288 3.3643173e-07 0)
(0.0044166832 2.7465451e-07 0)
(0.0041857127 2.2959005e-07 0)
(0.0039884047 1.9557942e-07 0)
(0.0038170611 1.6905178e-07 0)
(0.0036663372 1.4782929e-07 0)
(0.0035323272 1.3053457e-07 0)
(0.0034120792 1.1622748e-07 0)
(0.0033033205 1.0422828e-07 0)
(0.0032042832 9.404207e-08 0)
(0.0031135583 8.5309966e-08 0)
(0.0030300031 7.7760215e-08 0)
(0.0029526817 7.1180776e-08 0)
(0.002880822 6.5402329e-08 0)
(0.0028137858 6.0297164e-08 0)
(0.0027510232 5.5764076e-08 0)
(0.0026920721 5.1715699e-08 0)
(0.0026365368 4.8082449e-08 0)
(0.0025840775 4.4807388e-08 0)
(0.0025343985 4.1844264e-08 0)
(0.0024872408 3.9153688e-08 0)
(0.0024423777 3.6702193e-08 0)
(0.0023996093 3.4461235e-08 0)
(0.0023587593 3.2405886e-08 0)
(0.002319672 3.0515633e-08 0)
(0.0022822075 2.8773423e-08 0)
(0.0022462396 2.7163756e-08 0)
(0.0022116557 2.5672956e-08 0)
(0.0021783541 2.4289451e-08 0)
(0.0021462423 2.3002847e-08 0)
(0.0021152371 2.1803542e-08 0)
(0.0020852637 2.0683653e-08 0)
(0.0020562527 1.9636661e-08 0)
(0.0020281402 1.8656227e-08 0)
(0.0020008681 1.7736554e-08 0)
(0.001974383 1.6872633e-08 0)
(0.0019486355 1.606004e-08 0)
(0.00192358 1.5294621e-08 0)
(0.0018991748 1.457236e-08 0)
(0.0018753816 1.3890097e-08 0)
(0.0018521642 1.3245286e-08 0)
(0.0018294883 1.2635146e-08 0)
(0.0018073226 1.2057082e-08 0)
(0.0017856376 1.150887e-08 0)
(0.0017644058 1.09885e-08 0)
(0.0017436012 1.049416e-08 0)
(0.0017231995 1.0023865e-08 0)
(0.0017031785 9.5759336e-09 0)
(0.0016835172 9.1492981e-09 0)
(0.0016641946 8.742711e-09 0)
(0.0016451913 8.3547957e-09 0)
(0.0016264893 7.9844341e-09 0)
(0.001608071 7.6305933e-09 0)
(0.00158992 7.2923312e-09 0)
(0.0015720203 6.9687578e-09 0)
(0.0015543569 6.6588629e-09 0)
(0.0015369162 6.361899e-09 0)
(0.0015196843 6.0773894e-09 0)
(0.0015026475 5.8046468e-09 0)
(0.001485793 5.5429729e-09 0)
(0.0014691084 5.2918108e-09 0)
(0.0014525817 5.0506348e-09 0)
(0.0014362012 4.8189613e-09 0)
(0.0014199555 4.5962385e-09 0)
(0.001403834 4.3819894e-09 0)
(0.0013878262 4.1759261e-09 0)
(0.001371921 3.9776968e-09 0)
(0.001356108 3.7869002e-09 0)
(0.0013403769 3.6031985e-09 0)
(0.0013247175 3.42629e-09 0)
(0.0013091196 3.2558866e-09 0)
(0.0012935728 3.0916528e-09 0)
(0.0012780676 2.9333242e-09 0)
(0.0012625939 2.7807343e-09 0)
(0.001247141 2.633655e-09 0)
(0.0012316987 2.4918439e-09 0)
(0.0012162563 2.3551181e-09 0)
(0.001200803 2.2232727e-09 0)
(0.0011853278 2.0960824e-09 0)
(0.00116982 1.9734857e-09 0)
(0.0011542666 1.8548843e-09 0)
(0.0011386634 1.7397468e-09 0)
(0.001123356 1.6308622e-09 0)
(0.0011088138 1.531547e-09 0)
(0.0010951391 1.4410946e-09 0)
(0.0010822627 1.357951e-09 0)
(0.0010701192 1.2819217e-09 0)
(0.0010586429 1.2126743e-09 0)
(0.0010477747 1.1494997e-09 0)
(0.001037462 1.0917457e-09 0)
(0.0010276576 1.0388665e-09 0)
(0.0010183188 9.9038041e-10 0)
(0.0010094075 9.4586215e-10 0)
(0.0010008887 9.0500243e-10 0)
(0.00099273 8.6757859e-10 0)
(0.0009849006 8.3346025e-10 0)
(0.0009773703 8.0254799e-10 0)
(0.00097011027 7.7518306e-10 0)
(0.00096308398 7.5122115e-10 0)
(0.00095626526 7.3322683e-10 0)
(0.00094957033 7.1722085e-10 0)
(0.00094304627 7.2379944e-10 0)
(0.00093622984 6.8997242e-10 0)
(0.0009303298 7.937334e-10 -4.9311349e-24)
(0.00092159072 4.7493455e-10 3.429823e-25)
(1 2.2423769e-09 0)
(0.99998537 5.7323043e-09 0)
(0.99996525 7.8275984e-09 0)
(0.99994321 1.0034138e-08 0)
(0.99991769 1.3187459e-08 0)
(0.9998881 1.7273689e-08 0)
(0.99985401 2.2567204e-08 0)
(0.9998147 2.9544887e-08 0)
(0.99976916 3.8809156e-08 0)
(0.9997162 5.1159125e-08 0)
(0.99965428 6.7701283e-08 0)
(0.99958147 9.0048422e-08 0)
(0.99949517 1.2043732e-07 0)
(0.99939205 1.6259553e-07 0)
(0.99926686 2.2100951e-07 0)
(0.99911381 3.0724584e-07 0)
(0.99891863 4.2651766e-07 0)
(0.99867523 6.3608337e-07 0)
(0.99832308 8.883361e-07 0)
(0.9979056 1.5837095e-06 0)
(0.99705664 2.1104939e-06 0)
(0.99629547 5.3088521e-06 0)
(0.99324211 1.3754932e-06 0)
(0.99525529 0.0014420614 0)
(0.036909013 0.0014613607 0)
(0.014633568 1.9406407e-05 0)
(0.010469564 4.3353143e-06 0)
(0.0086178773 2.0748469e-06 0)
(0.0075638326 1.2589459e-06 0)
(0.0068381228 8.8640595e-07 0)
(0.0062991184 6.6894484e-07 0)
(0.0058746036 5.2977326e-07 0)
(0.0055286552 4.3249641e-07 0)
(0.0052393512 3.6153536e-07 0)
(0.0049922096 3.0797988e-07 0)
(0.0047775884 2.6620769e-07 0)
(0.0045887932 2.3278946e-07 0)
(0.0044209322 2.0555611e-07 0)
(0.004270308 1.8302722e-07 0)
(0.004134074 1.6413248e-07 0)
(0.0040100163 1.4809256e-07 0)
(0.0038963699 1.3434234e-07 0)
(0.0037917036 1.2245392e-07 0)
(0.0036948452 1.1209339e-07 5.2657989e-25)
(0.0036048278 1.0299414e-07 0)
(0.0035208518 9.4955083e-08 0)
(0.0034422287 8.7816839e-08 0)
(0.0033683797 8.1441847e-08 0)
(0.0032988091 7.5720538e-08 0)
(0.0032330914 7.0563252e-08 0)
(0.0031708562 6.5897159e-08 0)
(0.003111779 6.1660237e-08 0)
(0.0030555761 5.7799787e-08 0)
(0.0030019968 5.4270864e-08 0)
(0.0029508205 5.1034214e-08 0)
(0.0029018523 4.8057537e-08 0)
(0.0028549166 4.5313978e-08 0)
(0.0028098557 4.2779133e-08 0)
(0.0027665283 4.0431466e-08 0)
(0.0027248071 3.8252755e-08 0)
(0.0026845763 3.6226633e-08 0)
(0.0026457317 3.433798e-08 0)
(0.0026081795 3.2574386e-08 0)
(0.0025718329 3.092558e-08 0)
(0.0025366119 2.9381586e-08 0)
(0.0025024435 2.7933271e-08 0)
(0.002469261 2.6572752e-08 0)
(0.0024370025 2.5293058e-08 0)
(0.0024056108 2.4087652e-08 0)
(0.0023750336 2.2950206e-08 0)
(0.0023452232 2.187575e-08 0)
(0.0023161341 2.0860269e-08 0)
(0.0022877233 1.9899386e-08 0)
(0.0022599516 1.8989016e-08 0)
(0.0022327821 1.8125656e-08 0)
(0.0022061804 1.7306139e-08 0)
(0.0021801138 1.6527615e-08 0)
(0.0021545519 1.5786954e-08 0)
(0.002129467 1.5081513e-08 0)
(0.0021048326 1.4409608e-08 0)
(0.0020806226 1.3769275e-08 0)
(0.0020568126 1.3158347e-08 0)
(0.00203338 1.2575063e-08 0)
(0.0020103029 1.2017795e-08 0)
(0.0019875606 1.1485062e-08 0)
(0.0019651331 1.0975461e-08 0)
(0.0019430017 1.0487401e-08 0)
(0.0019211492 1.0019706e-08 0)
(0.0018995584 9.5716243e-09 0)
(0.0018782119 9.1420742e-09 0)
(0.0018570938 8.7299557e-09 0)
(0.0018361886 8.3343923e-09 0)
(0.0018154812 7.9545557e-09 0)
(0.001794957 7.5896848e-09 0)
(0.0017746017 7.23891e-09 0)
(0.0017544019 6.9014805e-09 0)
(0.0017343445 6.5769431e-09 0)
(0.0017144156 6.2647438e-09 0)
(0.0016946023 5.9642503e-09 0)
(0.0016748916 5.674931e-09 0)
(0.0016552707 5.3963105e-09 0)
(0.0016357267 5.1279353e-09 0)
(0.0016162468 4.8692767e-09 0)
(0.001596819 4.6199187e-09 0)
(0.0015774305 4.379599e-09 0)
(0.0015580681 4.1479584e-09 0)
(0.0015387189 3.9246152e-09 0)
(0.0015193695 3.7092813e-09 0)
(0.0015000063 3.5016342e-09 0)
(0.0014806157 3.301319e-09 0)
(0.0014611842 3.1082404e-09 0)
(0.0014416952 2.9214538e-09 0)
(0.0014221439 2.7401269e-09 0)
(0.0014029627 2.5686576e-09 0)
(0.0013847401 2.4122638e-09 0)
(0.0013676042 2.2698291e-09 0)
(0.001351468 2.1389025e-09 0)
(0.0013362499 2.0191767e-09 0)
(0.0013218676 1.9101279e-09 0)
(0.0013082471 1.8106407e-09 0)
(0.0012953225 1.7196885e-09 0)
(0.0012830346 1.6364122e-09 0)
(0.0012713301 1.5600537e-09 0)
(0.001260161 1.4899435e-09 0)
(0.0012494839 1.4255947e-09 0)
(0.0012392577 1.3666571e-09 0)
(0.0012294442 1.3129254e-09 0)
(0.0012200053 1.2642434e-09 0)
(0.0012109051 1.2211488e-09 0)
(0.0012020976 1.1834147e-09 0)
(0.0011935502 1.1550797e-09 0)
(0.0011851577 1.129881e-09 0)
(0.0011769791 1.1402527e-09 0)
(0.0011684341 1.086987e-09 0)
(0.0011610364 1.2505795e-09 0)
(0.0011500814 7.4800858e-10 -1.9575333e-25)
(1 2.7439284e-09 0)
(0.99998516 7.0168483e-09 0)
(0.99996472 9.5844082e-09 0)
(0.99994232 1.2286643e-08 0)
(0.99991639 1.6147215e-08 0)
(0.99988632 2.1149355e-08 0)
(0.9998517 2.7628599e-08 0)
(0.99981176 3.6168256e-08 0)
(0.99976552 4.7505092e-08 0)
(0.99971175 6.2616299e-08 0)
(0.9996489 8.2854797e-08 0)
(0.99957502 1.1019238e-07 0)
(0.99948746 1.473634e-07 0)
(0.99938287 1.9892435e-07 0)
(0.99925593 2.703581e-07 0)
(0.99910078 3.7580161e-07 0)
(0.99890299 5.2161904e-07 0)
(0.99865641 7.7778765e-07 0)
(0.99829981 1.0860862e-06 0)
(0.99787717 1.9358188e-06 0)
(0.99701825 2.5796167e-06 0)
(0.99624802 6.48773e-06 0)
(0.99316029 1.6861042e-06 0)
(0.99518936 0.0017467628 0)
(0.044728575 0.0017745179 0)
(0.017797094 2.8663792e-05 0)
(0.01273259 6.4280616e-06 0)
(0.010480393 3.0767141e-06 0)
(0.0091979964 1.8670474e-06 0)
(0.0083150735 1.3145707e-06 0)
(0.0076592724 9.9208394e-07 0)
(0.0071427656 7.8568827e-07 0)
(0.0067218438 6.4142553e-07 0)
(0.0063698372 5.3618817e-07 0)
(0.0060691279 4.5676301e-07 0)
(0.0058079851 3.9481305e-07 0)
(0.0055782638 3.4525246e-07 0)
(0.0053740123 3.0486426e-07 0)
(0.0051907322 2.7145287e-07 0)
(0.0050249603 2.4343104e-07 0)
(0.0048740029 2.1964299e-07 0)
(0.0047357128 1.9925061e-07 0)
(0.0046083486 1.8161937e-07 0)
(0.0044904841 1.6625399e-07 6.9879353e-35)
(0.0043809431 1.5275909e-07 0)
(0.0042787528 1.4083653e-07 0)
(0.0041830754 1.3024989e-07 0)
(0.0040932067 1.2079518e-07 0)
(0.0040085436 1.123099e-07 0)
(0.0039285684 1.0466109e-07 0)
(0.0038528305 9.774074e-08 0)
(0.0037809352 9.1456867e-08 0)
(0.0037125371 8.5731319e-08 0)
(0.0036473314 8.0497445e-08 0)
(0.0035850496 7.5697029e-08 0)
(0.0035254544 7.1282168e-08 0)
(0.0034683325 6.7213034e-08 0)
(0.0034134917 6.3453438e-08 0)
(0.0033607604 5.997144e-08 0)
(0.0033099834 5.6740017e-08 0)
(0.00326102 5.3734896e-08 0)
(0.0032137433 5.0933655e-08 0)
(0.0031680393 4.8317887e-08 0)
(0.0031238023 4.5872362e-08 0)
(0.0030809349 4.3582281e-08 0)
(0.0030393485 4.1434104e-08 0)
(0.0029989616 3.9416137e-08 0)
(0.0029596993 3.7518045e-08 0)
(0.0029214917 3.573013e-08 0)
(0.0028842752 3.4043009e-08 0)
(0.0028479919 3.2449311e-08 0)
(0.0028125862 3.0943081e-08 0)
(0.0027780061 2.9517828e-08 0)
(0.0027442037 2.8167493e-08 0)
(0.0027111341 2.6886882e-08 0)
(0.0026787554 2.5671299e-08 0)
(0.0026470281 2.4516514e-08 0)
(0.0026159147 2.3417887e-08 0)
(0.002585382 2.2371498e-08 0)
(0.0025553976 2.137485e-08 0)
(0.0025259295 2.0425031e-08 0)
(0.0024969483 1.9518824e-08 0)
(0.0024684263 1.8653619e-08 0)
(0.0024403369 1.7827004e-08 0)
(0.002412655 1.7036779e-08 0)
(0.0023853563 1.6280864e-08 0)
(0.0023584179 1.55569e-08 0)
(0.0023318189 1.4863142e-08 0)
(0.0023055383 1.4198478e-08 0)
(0.0022795552 1.3561301e-08 0)
(0.0022538499 1.2949979e-08 0)
(0.0022284038 1.2363214e-08 0)
(0.0022031984 1.1799777e-08 0)
(0.002178216 1.1258539e-08 0)
(0.002153439 1.073821e-08 0)
(0.0021288513 1.0237675e-08 0)
(0.0021044369 9.7562654e-09 0)
(0.002080179 9.2931572e-09 0)
(0.0020560616 8.8474127e-09 0)
(0.0020320691 8.4182438e-09 0)
(0.0020081858 8.0049453e-09 0)
(0.0019843961 7.6068443e-09 0)
(0.0019606844 7.2231569e-09 0)
(0.0019370359 6.8532659e-09 0)
(0.0019134354 6.4967826e-09 0)
(0.0018898665 6.1531741e-09 0)
(0.0018663135 5.821874e-09 0)
(0.0018427603 5.5024555e-09 0)
(0.0018191901 5.19444e-09 0)
(0.0017955864 4.8973016e-09 0)
(0.0017719327 4.6109008e-09 0)
(0.0017482089 4.3338328e-09 0)
(0.0017244091 4.0648715e-09 0)
(0.0017010595 3.8105503e-09 0)
(0.0016788761 3.5786005e-09 0)
(0.0016580148 3.3673583e-09 0)
(0.0016383701 3.173182e-09 0)
(0.0016198424 2.9956125e-09 0)
(0.0016023319 2.8338742e-09 0)
(0.0015857483 2.686314e-09 0)
(0.0015700115 2.5514107e-09 0)
(0.0015550497 2.4278908e-09 0)