/*--------------------------------*- C++ -*----------------------------------*\
| =========                 |                                                 |
| \\      /  F ield         | OpenFOAM: The Open Source CFD Toolbox           |
|  \\    /   O peration     | Version:  2206                                  |
|   \\  /    A nd           | Website:  www.openfoam.com                      |
|    \\/     M anipulation  |                                                 |
\*---------------------------------------------------------------------------*/
FoamFile
{
    version     2.0;
    format      ascii;
    arch        "LSB;label=32;scalar=64";
    class       volScalarField;
    location    "700";
    object      k;
}
// * * * * * * * * * * * * * * * * * * * * * * * * * * * * * * * * * * * * * //

dimensions      [0 2 -2 0 0 0 0];

internalField   nonuniform List<scalar> 
13056
(
0.00011190477
0.00010285623
0.00010207816
0.00010214624
0.00010219884
0.00010221263
0.00010221644
0.00010221876
0.00010222121
0.00010222412
0.00010222767
0.00010223208
0.00010223757
0.00010224447
0.00010225324
0.00010226456
0.00010227952
0.00010229952
0.00010232946
0.00010236441
0.0001024764
0.00010234872
0.00010406034
3.8620025e-05
3.1958816e-07
4.9231956e-08
2.4914831e-08
1.6792025e-08
1.2824815e-08
1.0411123e-08
8.7794473e-09
7.5881445e-09
6.6786024e-09
5.9613357e-09
5.3800746e-09
4.898698e-09
4.4931889e-09
4.1467901e-09
3.8473345e-09
3.5857625e-09
3.3553048e-09
3.150488e-09
2.9673582e-09
2.802545e-09
2.6534054e-09
2.517773e-09
2.3938617e-09
2.2801897e-09
2.1755156e-09
2.0787955e-09
1.9891396e-09
1.905784e-09
1.8280732e-09
1.7554398e-09
1.6873915e-09
1.6235006e-09
1.5633896e-09
1.5067249e-09
1.4532127e-09
1.4025923e-09
1.3546315e-09
1.3091243e-09
1.2658883e-09
1.2247592e-09
1.1855869e-09
1.1482373e-09
1.1125907e-09
1.07854e-09
1.0459885e-09
1.0148495e-09
9.8504802e-10
9.5651797e-10
9.2920126e-10
9.0304786e-10
8.7801469e-10
8.5406598e-10
8.3117331e-10
8.0931965e-10
7.8850635e-10
7.6874374e-10
7.5005056e-10
7.3245818e-10
7.1600563e-10
7.0074537e-10
6.8676488e-10
6.7417543e-10
6.6311997e-10
6.5392648e-10
6.4646486e-10
6.4224804e-10
6.4024378e-10
6.418599e-10
6.4738539e-10
6.5752882e-10
6.730001e-10
6.9448948e-10
7.2216144e-10
7.5605021e-10
7.9639671e-10
8.419251e-10
8.8891054e-10
9.3356688e-10
9.7112593e-10
1.0015484e-09
1.0244826e-09
1.0413972e-09
1.0536918e-09
1.0624415e-09
1.068446e-09
1.0721569e-09
1.0739079e-09
1.0739558e-09
1.0722951e-09
1.0689632e-09
1.0641921e-09
1.0581785e-09
1.0511691e-09
1.0434471e-09
1.0351842e-09
1.0265464e-09
1.017735e-09
1.00887e-09
9.9999612e-10
9.9117303e-10
9.8248881e-10
9.7397216e-10
9.6561378e-10
9.5739756e-10
9.4933059e-10
9.4140557e-10
9.3364923e-10
9.257058e-10
9.1815763e-10
9.0883128e-10
9.0129192e-10
8.903838e-10
0.00011189626
0.0001028441
0.0001020658
0.00010213387
0.00010218648
0.00010220027
0.00010220409
0.00010220641
0.00010220885
0.00010221176
0.00010221532
0.00010221972
0.00010222522
0.00010223212
0.00010224089
0.00010225221
0.00010226717
0.00010228718
0.00010231712
0.00010235208
0.0001024641
0.00010233634
0.00010404837
3.8616946e-05
4.927765e-08
7.5605164e-09
3.8261466e-09
2.5787335e-09
1.9694933e-09
1.5988255e-09
1.348251e-09
1.165304e-09
1.0256266e-09
9.1547683e-10
8.2621325e-10
7.5228884e-10
6.9001534e-10
6.3681934e-10
5.908324e-10
5.506632e-10
5.1527219e-10
4.8381882e-10
4.5569591e-10
4.3038585e-10
4.0748277e-10
3.8665397e-10
3.6762519e-10
3.5016882e-10
3.3409426e-10
3.1924118e-10
3.0547292e-10
2.9267216e-10
2.8073825e-10
2.6958406e-10
2.5913408e-10
2.4932263e-10
2.4009168e-10
2.3139e-10
2.2317246e-10
2.1539903e-10
2.0803404e-10
2.0104588e-10
1.9440654e-10
1.8809076e-10
1.8207552e-10
1.763402e-10
1.7086642e-10
1.6563771e-10
1.6063915e-10
1.5585741e-10
1.5128124e-10
1.4690076e-10
1.4270675e-10
1.3869151e-10
1.3484845e-10
1.311721e-10
1.2765812e-10
1.2430391e-10
1.2110964e-10
1.1807669e-10
1.1520718e-10
1.1250802e-10
1.0998576e-10
1.076474e-10
1.0550656e-10
1.0358055e-10
1.0189157e-10
1.0049011e-10
9.9355064e-11
9.8712627e-11
9.8420972e-11
9.8694696e-11
9.9574689e-11
1.0117093e-10
1.0359354e-10
1.0694916e-10
1.112625e-10
1.1653694e-10
1.2280449e-10
1.2985987e-10
1.3712254e-10
1.4401133e-10
1.4979922e-10
1.5448738e-10
1.5802407e-10
1.6063661e-10
1.6254055e-10
1.6390066e-10
1.6483868e-10
1.6542288e-10
1.6570407e-10
1.6572131e-10
1.6547348e-10
1.6496608e-10
1.6423479e-10
1.6331028e-10
1.6223094e-10
1.6104074e-10
1.5976641e-10
1.584338e-10
1.5707405e-10
1.5570575e-10
1.5433593e-10
1.5297385e-10
1.5163309e-10
1.5031811e-10
1.4902752e-10
1.4775887e-10
1.4651327e-10
1.4528959e-10
1.440919e-10
1.428657e-10
1.4170004e-10
1.4026174e-10
1.3909779e-10
1.3741365e-10
0.00011186917
0.00010280591
0.00010202692
0.00010209495
0.00010214759
0.00010216139
0.00010216521
0.00010216753
0.00010216998
0.00010217289
0.00010217645
0.00010218086
0.00010218635
0.00010219326
0.00010220204
0.00010221337
0.00010222833
0.00010224835
0.00010227831
0.00010231328
0.00010242538
0.00010229739
0.00010401048
3.8594569e-05
1.5735612e-08
2.3586112e-09
1.1936117e-09
8.0446593e-10
6.1441185e-10
4.9878252e-10
4.2061566e-10
3.6354475e-10
3.1997176e-10
2.8560994e-10
2.5776366e-10
2.3470258e-10
2.1527618e-10
1.9868166e-10
1.8433618e-10
1.7180568e-10
1.6076577e-10
1.5095422e-10
1.4218161e-10
1.3428652e-10
1.2714232e-10
1.2064525e-10
1.1470975e-10
1.0926476e-10
1.042508e-10
9.9617872e-11
9.5323282e-11
9.1330377e-11
8.7607758e-11
8.4128398e-11
8.0869123e-11
7.7809617e-11
7.4931424e-11
7.2218451e-11
6.9656633e-11
6.7233499e-11
6.4937942e-11
6.2760113e-11
6.0691293e-11
5.8723636e-11
5.6849859e-11
5.506353e-11
5.3358906e-11
5.1730735e-11
5.0174056e-11
4.868438e-11
4.7259952e-11
4.589934e-11
4.4597805e-11
4.3352967e-11
4.2162924e-11
4.102609e-11
3.9941356e-11
3.8908045e-11
3.7926129e-11
3.6994844e-11
3.6110722e-11
3.5287833e-11
3.453169e-11
3.3838672e-11
3.3214411e-11
3.2666011e-11
3.2202383e-11
3.1840687e-11
3.15702e-11
3.1429352e-11
3.1462899e-11
3.1731639e-11
3.2232988e-11
3.3010215e-11
3.4106665e-11
3.5562272e-11
3.7384506e-11
3.9567473e-11
4.209695e-11
4.4855213e-11
4.7602642e-11
5.0136275e-11
5.2240359e-11
5.3944172e-11
5.5248632e-11
5.6239975e-11
5.6994263e-11
5.7565693e-11
5.7989732e-11
5.8284771e-11
5.8466099e-11
5.8545027e-11
5.8519641e-11
5.8390061e-11
5.8168144e-11
5.7866942e-11
5.7502473e-11
5.7092115e-11
5.6647328e-11
5.6178685e-11
5.5697814e-11
5.5211949e-11
5.4724391e-11
5.4238814e-11
5.3760004e-11
5.3289729e-11
5.2827845e-11
5.2373742e-11
5.1927828e-11
5.1489884e-11
5.1060805e-11
5.0624223e-11
5.0205797e-11
4.970379e-11
4.9288511e-11
4.8686819e-11
0.00011182264
0.00010274044
0.00010196027
0.00010202823
0.00010208093
0.00010209475
0.00010209857
0.00010210089
0.00010210334
0.00010210625
0.00010210982
0.00010211423
0.00010211973
0.00010212664
0.00010213543
0.00010214677
0.00010216175
0.00010218179
0.00010221178
0.00010224676
0.00010235899
0.00010223063
0.00010394547
3.8552479e-05
7.6237969e-09
1.0405382e-09
5.2655475e-10
3.5488566e-10
2.7106385e-10
2.2007125e-10
1.8559804e-10
1.6042697e-10
1.4120845e-10
1.2605234e-10
1.1376997e-10
1.0359839e-10
9.5030314e-11
8.7711651e-11
8.1385435e-11
7.5860091e-11
7.099225e-11
6.6666155e-11
6.2798323e-11
5.9317618e-11
5.6168241e-11
5.3304438e-11
5.0688487e-11
4.8288892e-11
4.6079338e-11
4.4037847e-11
4.2145386e-11
4.0385625e-11
3.8744719e-11
3.7211183e-11
3.5775933e-11
3.4430504e-11
3.316574e-11
3.1974233e-11
3.0849825e-11
2.9787069e-11
2.8781122e-11
2.7827698e-11
2.6923015e-11
2.6063704e-11
2.5246291e-11
2.4467933e-11
2.3726118e-11
2.3018234e-11
2.2341265e-11
2.1692334e-11
2.1075576e-11
2.0495033e-11
1.9943525e-11
1.9420137e-11
1.892456e-11
1.8456591e-11
1.8016554e-11
1.7604769e-11
1.722131e-11
1.6863127e-11
1.6518289e-11
1.6223983e-11
1.5992591e-11
1.5808434e-11
1.5678716e-11
1.5612529e-11
1.5621101e-11
1.5718887e-11
1.5897148e-11
1.6106586e-11
1.6565615e-11
1.7299555e-11
1.8284054e-11
1.9569732e-11
2.1208694e-11
2.3246454e-11
2.5696093e-11
2.8553006e-11
3.1768049e-11
3.5155205e-11
3.8423913e-11
4.1338552e-11
4.3750126e-11
4.5701514e-11
4.7248966e-11
4.8490487e-11
4.9502785e-11
5.0335577e-11
5.1013003e-11
5.1548112e-11
5.1955276e-11
5.2241421e-11
5.2402154e-11
5.2432849e-11
5.2342098e-11
5.2148119e-11
5.1872459e-11
5.1536051e-11
5.1155057e-11
5.0743157e-11
5.0312575e-11
4.9871729e-11
4.9425963e-11
4.8979757e-11
4.853733e-11
4.8100831e-11
4.7671156e-11
4.7248511e-11
4.6833317e-11
4.6425889e-11
4.6025447e-11
4.5625872e-11
4.5232978e-11
4.4802997e-11
4.4420397e-11
4.3863678e-11
0.00011175536
0.00010264578
0.0001018639
0.00010193176
0.00010198454
0.00010199839
0.00010200222
0.00010200454
0.00010200699
0.00010200991
0.00010201348
0.00010201789
0.0001020234
0.00010203033
0.00010203913
0.00010205048
0.00010206549
0.00010208555
0.00010211558
0.00010215059
0.00010226299
0.0001021341
0.00010385142
3.8490141e-05
5.1673472e-09
5.564732e-10
2.8153873e-10
1.8975186e-10
1.4498105e-10
1.1775655e-10
9.9347882e-11
8.5902706e-11
7.5635433e-11
6.7537695e-11
6.0975077e-11
5.5540572e-11
5.0963574e-11
4.7054921e-11
4.3677545e-11
4.0728858e-11
3.8131587e-11
3.5823677e-11
3.3760655e-11
3.1904687e-11
3.0226059e-11
2.8700376e-11
2.7307515e-11
2.6030345e-11
2.4854658e-11
2.3768864e-11
2.2762354e-11
2.1826049e-11
2.0952572e-11
2.0136678e-11
1.9375823e-11
1.8666518e-11
1.8001842e-11
1.7377237e-11
1.6789523e-11
1.6235915e-11
1.571396e-11
1.5221509e-11
1.4756694e-11
1.4317943e-11
1.3902885e-11
1.3510036e-11
1.3138176e-11
1.278545e-11
1.2448769e-11
1.2124951e-11
1.1825559e-11
1.1561855e-11
1.1320628e-11
1.110188e-11
1.0906768e-11
1.0736548e-11
1.0593376e-11
1.0479291e-11
1.0395499e-11
1.0337068e-11
1.0281511e-11
1.0300367e-11
1.041973e-11
1.0611019e-11
1.0889649e-11
1.1275365e-11
1.1793405e-11
1.247398e-11
1.3330347e-11
1.4296627e-11
1.568965e-11
1.7567501e-11
1.9938727e-11
2.2907227e-11
2.6581537e-11
3.105537e-11
3.63624e-11
4.2501815e-11
4.9355958e-11
5.6516276e-11
6.3384707e-11
6.9459385e-11
7.4500186e-11
7.8580345e-11
8.1863438e-11
8.4549424e-11
8.6787958e-11
8.867318e-11
9.0243774e-11
9.1523261e-11
9.2540848e-11
9.33065e-11
9.3809776e-11
9.4037038e-11
9.4001355e-11
9.3743031e-11
9.3309094e-11
9.2743328e-11
9.2081591e-11
9.1353321e-11
9.0582528e-11
8.9786559e-11
8.8977785e-11
8.8165623e-11
8.7357546e-11
8.6558073e-11
8.5770002e-11
8.4994588e-11
8.4232654e-11
8.3485359e-11
8.2749451e-11
8.2024004e-11
8.1299272e-11
8.0552468e-11
7.985494e-11
7.8837261e-11
0.00011166553
0.00010251933
0.00010173517
0.0001018029
0.00010185579
0.00010186967
0.00010187351
0.00010187584
0.00010187829
0.00010188121
0.00010188478
0.00010188921
0.00010189473
0.00010190166
0.00010191048
0.00010192186
0.00010193689
0.00010195699
0.00010198707
0.00010202212
0.00010213476
0.00010200515
0.00010372578
3.8406968e-05
4.7231729e-09
3.3795134e-10
1.7086297e-10
1.1516146e-10
8.8085621e-11
7.1644879e-11
6.0520653e-11
5.2388161e-11
4.6174553e-11
4.127237e-11
3.7298879e-11
3.4008921e-11
3.1239518e-11
2.8876248e-11
2.6836533e-11
2.5057903e-11
2.3492299e-11
2.2101746e-11
2.0859571e-11
1.9743219e-11
1.8734893e-11
1.7819926e-11
1.6986201e-11
1.6222878e-11
1.5521131e-11
1.4874215e-11
1.4274905e-11
1.3717083e-11
1.3196335e-11
1.2710961e-11
1.2263182e-11
1.1852622e-11
1.1471887e-11
1.1117294e-11
1.0787139e-11
1.0479993e-11
1.0194635e-11
9.9300501e-12
9.6854178e-12
9.4602457e-12
9.2523307e-12
9.0609241e-12
8.8857042e-12
8.7251596e-12
8.5755486e-12
8.432761e-12
8.3173904e-12
8.2499619e-12
8.20972e-12
8.1980301e-12
8.2183402e-12
8.274561e-12
8.3720465e-12
8.5165929e-12
8.7135569e-12
8.9610812e-12
9.2347905e-12
9.6288705e-12
1.0186379e-11
1.0881447e-11
1.1746742e-11
1.2824377e-11
1.4168994e-11
1.5846552e-11
1.791267e-11
2.0300837e-11
2.3495014e-11
2.7634648e-11
3.2800806e-11
3.9212182e-11
4.7098318e-11
5.6657674e-11
6.7967001e-11
8.1034325e-11
9.561359e-11
1.1084524e-10
1.2547674e-10
1.3842669e-10
1.4920081e-10
1.5792611e-10
1.6496996e-10
1.7075347e-10
1.7559009e-10
1.7967738e-10
1.8309495e-10
1.8589416e-10
1.8813878e-10
1.8984873e-10
1.9100171e-10
1.9156695e-10
1.9156971e-10
1.9109666e-10
1.9024857e-10
1.8911835e-10
1.8778311e-10
1.8630574e-10
1.8473639e-10
1.8311174e-10
1.8145864e-10
1.7979709e-10
1.7814226e-10
1.7650376e-10
1.7488799e-10
1.7329803e-10
1.717356e-10
1.7020341e-10
1.6869374e-10
1.6721067e-10
1.6572237e-10
1.6421547e-10
1.6278777e-10
1.607032e-10
0.00011155092
0.00010235784
0.00010157077
0.00010163833
0.00010169135
0.00010170527
0.00010170912
0.00010171146
0.00010171391
0.00010171684
0.00010172042
0.00010172485
0.00010173038
0.00010173734
0.00010174618
0.00010175758
0.00010177265
0.00010179279
0.00010182294
0.00010185804
0.00010197098
0.00010184047
0.0001035653
3.8302437e-05
5.3512427e-09
2.2903132e-10
1.1558432e-10
7.7909392e-11
5.9764244e-11
4.8789508e-11
4.1350898e-11
3.5899185e-11
3.1727947e-11
2.8434287e-11
2.5763349e-11
2.3552564e-11
2.1693905e-11
2.0110738e-11
1.8748186e-11
1.7563811e-11
1.6523164e-11
1.5600014e-11
1.4776874e-11
1.4039203e-11
1.3375381e-11
1.2775728e-11
1.2232221e-11
1.1737015e-11
1.1283914e-11
1.0868807e-11
1.0485564e-11
1.0129133e-11
9.7966748e-12
9.4890747e-12
9.2128629e-12
8.9702138e-12
8.7521112e-12
8.5549798e-12
8.3780792e-12
8.2209037e-12
8.0831108e-12
7.9645326e-12
7.8651806e-12
7.7855592e-12
7.7233475e-12
7.6785051e-12
7.6519369e-12
7.6430942e-12
7.6485121e-12
7.6640568e-12
7.7169806e-12
7.8355459e-12
7.9959048e-12
8.2022362e-12
8.4618143e-12
8.7830811e-12
9.1769368e-12
9.655836e-12
1.0232813e-11
1.0912612e-11
1.167105e-11
1.2636981e-11
1.3881062e-11
1.5386546e-11
1.7217362e-11
1.9456157e-11
2.2210867e-11
2.561335e-11
2.9795676e-11
3.4709305e-11
4.112062e-11
4.9318278e-11
5.9519288e-11
7.2152018e-11
8.7666943e-11
1.0645459e-10
1.2867092e-10
1.5434251e-10
1.8299987e-10
2.1297586e-10
2.4182878e-10
2.6741038e-10
2.8873205e-10
3.0600633e-10
3.1996219e-10
3.314254e-10
3.4101191e-10
3.4911235e-10
3.558859e-10
3.6143825e-10
3.6589817e-10
3.6930554e-10
3.7161692e-10
3.7277103e-10
3.7281642e-10
3.7192411e-10
3.7029286e-10
3.681054e-10
3.6551397e-10
3.6264248e-10
3.5958916e-10
3.5642609e-10
3.532064e-10
3.4996946e-10
3.4674475e-10
3.4355117e-10
3.4040155e-10
3.3730218e-10
3.3425642e-10
3.3126972e-10
3.2832649e-10
3.2543779e-10
3.225354e-10
3.1961074e-10
3.1682902e-10
3.1276662e-10
0.00011140885
0.00010215741
0.00010136669
0.00010143405
0.00010148723
0.00010150121
0.00010150507
0.00010150741
0.00010150987
0.00010151281
0.0001015164
0.00010152085
0.00010152639
0.00010153337
0.00010154223
0.00010155367
0.00010156878
0.00010158898
0.00010161921
0.00010165437
0.00010176767
0.00010163604
0.00010336612
3.8176217e-05
6.7912632e-09
1.7622971e-10
8.8597276e-11
5.9728381e-11
4.6098373e-11
3.7926475e-11
3.2367207e-11
2.8270782e-11
2.5127061e-11
2.2640179e-11
2.0621263e-11
1.8950951e-11
1.7550015e-11
1.6361133e-11
1.534364e-11
1.4465091e-11
1.3696212e-11
1.3016048e-11
1.2412084e-11
1.1874315e-11
1.1394511e-11
1.0965642e-11
1.0581843e-11
1.023682e-11
9.925745e-12
9.6460866e-12
9.3914736e-12
9.1569148e-12
8.9405702e-12
8.7452064e-12
8.5805116e-12
8.4506331e-12
8.3455556e-12
8.2619256e-12
8.1998514e-12
8.1596855e-12
8.1419417e-12
8.1473282e-12
8.1767701e-12
8.2320116e-12
8.3102152e-12
8.412216e-12
8.540746e-12
8.6968265e-12
8.8777141e-12
9.0796492e-12
9.3389354e-12
9.6945058e-12
1.0119547e-11
1.0622999e-11
1.1218462e-11
1.1921909e-11
1.275353e-11
1.3736992e-11
1.4898433e-11
1.6254413e-11
1.7783569e-11
1.9670616e-11
2.2030361e-11
2.4863861e-11
2.8288102e-11
3.2454544e-11
3.7561701e-11
4.3854312e-11
5.1596885e-11
6.079481e-11
7.2660041e-11
8.7735658e-11
1.0647974e-10
1.2967791e-10
1.5815717e-10
1.9263617e-10
2.3340731e-10
2.8053246e-10
3.3317176e-10
3.8829695e-10
4.4144695e-10
4.8864438e-10
5.2803289e-10
5.599546e-10
5.8574864e-10
6.0693087e-10
6.2463537e-10
6.3958535e-10
6.5207977e-10
6.6232018e-10
6.7054829e-10
6.7683932e-10
6.811143e-10
6.8326036e-10
6.8336618e-10
6.8174663e-10
6.7876748e-10
6.7476478e-10
6.7001879e-10
6.6475747e-10
6.5916129e-10
6.5336273e-10
6.4745969e-10
6.4152455e-10
6.3561136e-10
6.2975484e-10
6.2397878e-10
6.1829481e-10
6.1270911e-10
6.0723181e-10
6.0183397e-10
5.9653765e-10
5.9121425e-10
5.8585785e-10
5.8075716e-10
5.733077e-10
0.00011123623
0.00010191348
0.0001011183
0.00010118541
0.00010123879
0.00010125284
0.00010125672
0.00010125907
0.00010126153
0.00010126447
0.00010126808
0.00010127254
0.0001012781
0.0001012851
0.000101294
0.00010130548
0.00010132065
0.00010134091
0.00010137124
0.00010140647
0.00010152022
0.00010138722
0.00010312371
3.8028321e-05
9.0305189e-09
1.596747e-10
7.9785481e-11
5.3802119e-11
4.193287e-11
3.4925233e-11
3.0129004e-11
2.6562724e-11
2.3812288e-11
2.1629839e-11
1.9854459e-11
1.838612e-11
1.7158559e-11
1.612255e-11
1.5243049e-11
1.4491728e-11
1.383863e-11
1.3263721e-11
1.2756978e-11
1.2311009e-11
1.1919347e-11
1.157621e-11
1.1276719e-11
1.1015126e-11
1.0787139e-11
1.0591311e-11
1.0419719e-11
1.0266503e-11
1.0130569e-11
1.0016667e-11
9.9380711e-12
9.9011253e-12
9.894456e-12
9.9148724e-12
9.9634483e-12
1.0041561e-11
1.0150785e-11
1.0292961e-11
1.047024e-11
1.0686147e-11
1.0936819e-11
1.1224348e-11
1.1554316e-11
1.1930276e-11
1.2350826e-11
1.2813154e-11
1.3367278e-11
1.4068059e-11
1.4884952e-11
1.5834656e-11
1.6941e-11
1.8232172e-11
1.9743466e-11
2.1516852e-11
2.3600079e-11
2.603007e-11
2.8793866e-11
3.216173e-11
3.6316995e-11
4.1293862e-11
4.7295965e-11
5.4587192e-11
6.351421e-11
7.4507381e-11
8.8052659e-11
1.0427475e-10
1.2506228e-10
1.5137604e-10
1.840841e-10
2.2455701e-10
2.742385e-10
3.3438549e-10
4.0551597e-10
4.8775462e-10
5.796668e-10
6.7601233e-10
7.6903208e-10
8.5173897e-10
9.2082873e-10
9.7683514e-10
1.0220918e-09
1.0592452e-09
1.0902806e-09
1.1164695e-09
1.1383443e-09
1.1562674e-09
1.1706679e-09
1.1816803e-09
1.189168e-09
1.1929339e-09
1.1931327e-09
1.190315e-09
1.1851204e-09
1.1781361e-09
1.1698524e-09
1.1606677e-09
1.1508973e-09
1.1407729e-09
1.1304656e-09
1.1201019e-09
1.1097763e-09
1.0995494e-09
1.0894629e-09
1.0795371e-09
1.069783e-09
1.0602181e-09
1.0507919e-09
1.0415439e-09
1.0322474e-09
1.0228979e-09
1.0139912e-09
1.0009828e-09
0.00011102958
0.00010162087
0.0001008203
0.00010088712
0.00010094072
0.00010095486
0.00010095876
0.00010096111
0.00010096359
0.00010096654
0.00010097015
0.00010097463
0.00010098022
0.00010098725
0.00010099619
0.00010100772
0.00010102294
0.00010104329
0.00010107373
0.00010110904
0.00010122332
0.0001010887
0.00010283293
3.7859281e-05
1.2185835e-08
1.7358357e-10
8.6140497e-11
5.81057e-11
4.5791177e-11
3.8660539e-11
3.3743675e-11
3.0046936e-11
2.7178929e-11
2.4894807e-11
2.3031966e-11
2.1491493e-11
2.0208046e-11
1.9131641e-11
1.822609e-11
1.7462415e-11
1.6804236e-11
1.6228538e-11
1.5726022e-11
1.5290666e-11
1.4916643e-11
1.4598374e-11
1.4331086e-11
1.4108731e-11
1.3926885e-11
1.3784979e-11
1.3671967e-11
1.3580057e-11
1.350885e-11
1.346566e-11
1.3468597e-11
1.3526881e-11
1.3627073e-11
1.3766102e-11
1.3946337e-11
1.4170567e-11
1.444186e-11
1.4763684e-11
1.5139987e-11
1.5576987e-11
1.6069107e-11
1.6620362e-11
1.7240829e-11
1.7938165e-11
1.8713434e-11
1.9565862e-11
2.0565893e-11
2.1791843e-11
2.3208865e-11
2.4846048e-11
2.6743443e-11
2.8948657e-11
3.1520995e-11
3.4531645e-11
3.8063166e-11
4.2186595e-11
4.6908059e-11
5.2624405e-11
5.9623277e-11
6.7998214e-11
7.8090838e-11
9.0344168e-11
1.0534115e-10
1.2380938e-10
1.4659503e-10
1.7405384e-10
2.0908159e-10
2.53308e-10
3.0827669e-10
3.7629146e-10
4.5978034e-10
5.6086059e-10
6.8041309e-10
8.1866922e-10
9.7325943e-10
1.1354345e-09
1.2921832e-09
1.4316974e-09
1.5483303e-09
1.6428954e-09
1.7193089e-09
1.7820219e-09
1.8343811e-09
1.878538e-09
1.9154021e-09
1.9455971e-09
1.9698549e-09
1.9884059e-09
2.0010221e-09
2.0073721e-09
2.0077164e-09
2.002982e-09
1.9942456e-09
1.9824962e-09
1.9685588e-09
1.9531045e-09
1.936664e-09
1.9196272e-09
1.9022824e-09
1.8848425e-09
1.8674664e-09
1.8502563e-09
1.8332823e-09
1.8165789e-09
1.8001641e-09
1.7840681e-09
1.7682051e-09
1.7526427e-09
1.7369979e-09
1.721267e-09
1.7062787e-09
1.6843878e-09
0.00011078501
0.00010127376
0.00010046674
0.0001005332
0.00010058708
0.00010060132
0.00010060524
0.0001006076
0.00010061009
0.00010061305
0.00010061668
0.00010062118
0.0001006268
0.00010063386
0.00010064285
0.00010065443
0.00010066973
0.00010069017
0.00010072075
0.00010075616
0.00010087106
0.00010073451
0.00010248799
3.7670332e-05
1.6474358e-08
2.2002749e-10
1.0858551e-10
7.3265549e-11
5.8259092e-11
4.9721206e-11
4.3795084e-11
3.9295769e-11
3.5787228e-11
3.2984148e-11
3.0692891e-11
2.8798032e-11
2.7223527e-11
2.5909814e-11
2.481272e-11
2.3897808e-11
2.3115404e-11
2.243511e-11
2.1846757e-11
2.1344763e-11
2.0922961e-11
2.0575e-11
2.029537e-11
2.0076874e-11
1.9914282e-11
1.9807896e-11
1.9741419e-11
1.9703749e-11
1.96953e-11
1.9726966e-11
1.982361e-11
1.9998429e-11
2.0235031e-11
2.0530537e-11
2.0889185e-11
2.1315836e-11
2.1815775e-11
2.2394904e-11
2.3059886e-11
2.3821063e-11
2.4670185e-11
2.561425e-11
2.6670393e-11
2.78529e-11
2.916726e-11
3.0616693e-11
3.2301377e-11
3.4333584e-11
3.6674383e-11
3.9372376e-11
4.2492952e-11
4.6114104e-11
5.0332695e-11
5.5265779e-11
6.105099e-11
6.7815184e-11
7.5602311e-11
8.4993072e-11
9.6432032e-11
1.1011503e-10
1.2659968e-10
1.4660947e-10
1.7109758e-10
2.0125894e-10
2.3851372e-10
2.8363238e-10
3.4099359e-10
4.1327942e-10
5.0312078e-10
6.1428428e-10
7.5074132e-10
9.1595944e-10
1.1113924e-09
1.3374472e-09
1.5903064e-09
1.855746e-09
2.1125351e-09
2.341284e-09
2.5326346e-09
2.6878052e-09
2.8131883e-09
2.9160647e-09
3.001919e-09
3.0742879e-09
3.1346784e-09
3.1841303e-09
3.2238531e-09
3.2542303e-09
3.2748913e-09
3.2852943e-09
3.2858656e-09
3.2781228e-09
3.2638287e-09
3.244602e-09
3.2217936e-09
3.1965019e-09
3.1695955e-09
3.1417128e-09
3.1133257e-09
3.0847829e-09
3.0563443e-09
3.0281772e-09
3.0003964e-09
2.9730585e-09
2.9461931e-09
2.9198492e-09
2.8938868e-09
2.8684166e-09
2.842811e-09
2.8170668e-09
2.792536e-09
2.7567081e-09
0.00011049827
0.00010086568
0.000100051
0.00010011706
0.00010017126
0.00010018561
0.00010018956
0.00010019193
0.00010019442
0.0001001974
0.00010020105
0.00010020557
0.00010021122
0.00010021833
0.00010022736
0.00010023902
0.0001002544
0.00010027496
0.00010030569
0.00010034121
0.00010045684
0.00010031805
0.00010208249
3.7463617e-05
2.2217876e-08
3.0753035e-10
1.5124738e-10
1.0206955e-10
8.1627368e-11
7.0137445e-11
6.2127002e-11
5.6005089e-11
5.1215192e-11
4.7380481e-11
4.4241142e-11
4.1644522e-11
3.949024e-11
3.7698568e-11
3.6209011e-11
3.4975901e-11
3.3927021e-11
3.3018847e-11
3.2238584e-11
3.1580229e-11
3.1036227e-11
3.0598339e-11
3.0259342e-11
3.0009882e-11
2.9843141e-11
2.9760441e-11
2.9737208e-11
2.9757113e-11
2.9821684e-11
2.9946927e-11
3.016715e-11
3.0501111e-11
3.0928476e-11
3.1446793e-11
3.2063098e-11
3.2785359e-11
3.3622205e-11
3.4583229e-11
3.5679227e-11
3.6926848e-11
3.8313795e-11
3.9851696e-11
4.156868e-11
4.348963e-11
4.5627716e-11
4.7993481e-11
5.0729762e-11
5.3997437e-11
5.7755234e-11
6.2082108e-11
6.7082572e-11
7.2881612e-11
7.9634137e-11
8.7528305e-11
9.6787715e-11
1.0762881e-10
1.2016468e-10
1.3524053e-10
1.5353527e-10
1.7541574e-10
2.0177342e-10
2.3376551e-10
2.7291813e-10
3.2115126e-10
3.8078584e-10
4.5330196e-10
5.4524856e-10
6.6094208e-10
8.0473313e-10
9.8265232e-10
1.2010604e-09
1.4655172e-09
1.7783684e-09
2.1403034e-09
2.545287e-09
2.9706534e-09
3.3824668e-09
3.7495719e-09
4.0568158e-09
4.3060002e-09
4.5073449e-09
4.6725116e-09
4.8102992e-09
4.9263955e-09
5.0232404e-09
5.1025249e-09
5.1662037e-09
5.2148992e-09
5.2480207e-09
5.2647013e-09
5.2656243e-09
5.2532221e-09
5.2303198e-09
5.1995117e-09
5.1629629e-09
5.1224339e-09
5.079317e-09
5.034635e-09
4.9891445e-09
4.9434043e-09
4.8978308e-09
4.8526923e-09
4.8081729e-09
4.764363e-09
4.7213104e-09
4.6790935e-09
4.6374879e-09
4.5966713e-09
4.5556375e-09
4.5143829e-09
4.4750717e-09
4.4176565e-09
0.00011016476
0.00010038956
9.9565829e-05
9.9631409e-05
9.968598e-05
9.9700467e-05
9.9704449e-05
9.9706832e-05
9.9709336e-05
9.9712328e-05
9.9716e-05
9.9720554e-05
9.9726239e-05
9.9733393e-05
9.9742489e-05
9.9754219e-05
9.9769705e-05
9.9790386e-05
9.9821304e-05
9.9856943e-05
9.9973412e-05
9.9832031e-05
0.00010160938
3.7242384e-05
2.9865726e-08
4.5176795e-10
2.2178143e-10
1.4968706e-10
1.2008568e-10
1.0356566e-10
9.2020013e-11
8.3163527e-11
7.6221197e-11
7.0656949e-11
6.6097635e-11
6.2325859e-11
5.919882e-11
5.6602428e-11
5.4448524e-11
5.2672518e-11
5.1166474e-11
4.9865669e-11
4.8752441e-11
4.7819411e-11
4.7056334e-11
4.6451616e-11
4.5995036e-11
4.567378e-11
4.5478412e-11
4.5411612e-11
4.5436105e-11
4.5527583e-11
4.5689239e-11
4.5944418e-11
4.6340569e-11
4.6904257e-11
4.7610123e-11
4.8456672e-11
4.9455152e-11
5.0618232e-11
5.19596e-11
5.3494452e-11
5.5239867e-11
5.7222107e-11
5.9422834e-11
6.1860825e-11
6.4581201e-11
6.7625576e-11
7.1020072e-11
7.4788016e-11
7.9132947e-11
8.4284963e-11
9.0204731e-11
9.7018e-11
1.0488916e-10
1.1401524e-10
1.2464004e-10
1.3706095e-10
1.5163434e-10
1.6871827e-10
1.8854581e-10
2.1234098e-10
2.4113101e-10
2.7556177e-10
3.170362e-10
3.6737599e-10
4.289857e-10
5.0489948e-10
5.9883549e-10
7.1344934e-10
8.58456e-10
1.0406859e-09
1.2671743e-09
1.5474235e-09
1.8914589e-09
2.308052e-09
2.8009232e-09
3.3712087e-09
4.0095015e-09
4.680234e-09
5.3300087e-09
5.9095883e-09
6.3948689e-09
6.788491e-09
7.1065366e-09
7.3673869e-09
7.5849299e-09
7.768161e-09
7.9209611e-09
8.0460296e-09
8.1464701e-09
8.2232751e-09
8.2755177e-09
8.3018321e-09
8.3032963e-09
8.2837459e-09
8.2476365e-09
8.1990591e-09
8.1414283e-09
8.0775204e-09
8.0095309e-09
7.939073e-09
7.8673398e-09
7.7952126e-09
7.7233482e-09
7.6521695e-09
7.581967e-09
7.5128833e-09
7.4449936e-09
7.3784217e-09
7.3128139e-09
7.2484503e-09
7.1837439e-09
7.1186906e-09
7.0567008e-09
6.9661627e-09
0.00010977959
9.9837668e-05
9.9003309e-05
9.9068341e-05
9.9123334e-05
9.9137978e-05
9.9141998e-05
9.9144394e-05
9.9146911e-05
9.9149921e-05
9.9153618e-05
9.9158204e-05
9.9163932e-05
9.9171142e-05
9.9180307e-05
9.9192127e-05
9.9207727e-05
9.9228553e-05
9.9259678e-05
9.9295459e-05
9.9412885e-05
9.9268517e-05
0.00010106104
3.7011191e-05
4.0033361e-08
6.7781366e-10
3.324644e-10
2.2440727e-10
1.8032546e-10
1.5581889e-10
1.3867055e-10
1.2549118e-10
1.1515071e-10
1.0685816e-10
1.0005999e-10
9.4435156e-11
8.9772909e-11
8.5904635e-11
8.2698277e-11
8.0059457e-11
7.7825292e-11
7.5898128e-11
7.4252334e-11
7.2877941e-11
7.1760233e-11
7.0882206e-11
7.0228831e-11
6.9782053e-11
6.9528388e-11
6.9472448e-11
6.9557742e-11
6.9747969e-11
7.004888e-11
7.0494391e-11
7.1150145e-11
7.2053682e-11
7.317351e-11
7.4510049e-11
7.6080911e-11
7.7905865e-11
8.0006256e-11
8.2405759e-11
8.5130981e-11
8.8222768e-11
9.1653828e-11
9.5453915e-11
9.9694213e-11
1.0444249e-10
1.0974618e-10
1.1565012e-10
1.2244394e-10
1.3045607e-10
1.3965762e-10
1.5024593e-10
1.6247645e-10
1.7665585e-10
1.9316323e-10
2.1246248e-10
2.3511351e-10
2.6169557e-10
2.9264266e-10
3.2972031e-10
3.7447208e-10
4.2799072e-10
4.9245727e-10
5.7070474e-10
6.6647509e-10
7.8450215e-10
9.3065256e-10
1.1094847e-09
1.3353249e-09
1.6188425e-09
1.9712227e-09
2.4072543e-09
2.9425446e-09
3.5907597e-09
4.3577234e-09
5.2452699e-09
6.2388959e-09
7.2834419e-09
8.2959012e-09
9.1994486e-09
9.9562647e-09
1.0570194e-08
1.1066238e-08
1.1473013e-08
1.1812164e-08
1.2097736e-08
1.2335818e-08
1.2530657e-08
1.2687115e-08
1.2806752e-08
1.2888132e-08
1.2929128e-08
1.2931419e-08
1.2900981e-08
1.2844751e-08
1.2769102e-08
1.2679353e-08
1.2579826e-08
1.2473942e-08
1.2364213e-08
1.2252497e-08
1.2140168e-08
1.2028247e-08
1.1917395e-08
1.1808062e-08
1.1700472e-08
1.1594741e-08
1.1491062e-08
1.1388885e-08
1.1288646e-08
1.1187873e-08
1.108656e-08
1.0990017e-08
1.0849014e-08
0.00010933756
9.9201683e-05
9.8354878e-05
9.8419287e-05
9.8474761e-05
9.8489585e-05
9.8493648e-05
9.849606e-05
9.8498592e-05
9.8501623e-05
9.8505347e-05
9.8509971e-05
9.8515747e-05
9.8523019e-05
9.8532264e-05
9.8544186e-05
9.8559915e-05
9.8580906e-05
9.8612266e-05
9.8648206e-05
9.876672e-05
9.8618923e-05
0.00010042919
3.6776085e-05
5.3558325e-08
1.0240421e-09
5.0210505e-10
3.3892952e-10
2.7258326e-10
2.3577499e-10
2.1000411e-10
1.9017925e-10
1.7461805e-10
1.6213538e-10
1.518995e-10
1.434291e-10
1.3640829e-10
1.3058458e-10
1.2575822e-10
1.217893e-10
1.1843162e-10
1.1553728e-10
1.1306824e-10
1.1101026e-10
1.0934159e-10
1.0803687e-10
1.0707362e-10
1.0642602e-10
1.0607452e-10
1.0602655e-10
1.0619679e-10
1.0653102e-10
1.0703899e-10
1.0776983e-10
1.0881432e-10
1.1022546e-10
1.1196458e-10
1.1403565e-10
1.1646589e-10
1.1928577e-10
1.2252818e-10
1.2622962e-10
1.3043106e-10
1.351954e-10
1.4048213e-10
1.4633775e-10
1.528732e-10
1.6019676e-10
1.6839024e-10
1.7753381e-10
1.88039e-10
2.003739e-10
2.1453541e-10
2.3082973e-10
2.4965008e-10
2.7146923e-10
2.9687099e-10
3.2657187e-10
3.6144168e-10
4.0240203e-10
4.5021501e-10
5.0742012e-10
5.7632486e-10
6.5872749e-10
7.5798685e-10
8.7846692e-10
1.0259352e-09
1.2077041e-09
1.4329215e-09
1.7091738e-09
2.0575007e-09
2.4944003e-09
3.0374236e-09
3.7093677e-09
4.5342967e-09
5.5332967e-09
6.71539e-09
8.0834918e-09
9.6154291e-09
1.1226438e-08
1.2788695e-08
1.4183517e-08
1.5352198e-08
1.6300311e-08
1.7066357e-08
1.7694457e-08
1.821802e-08
1.8658759e-08
1.9026119e-08
1.9326712e-08
1.9568074e-08
1.975263e-08
1.987817e-08
1.9941421e-08
1.9944972e-08
1.9898037e-08
1.981132e-08
1.969465e-08
1.9556228e-08
1.9402726e-08
1.9239416e-08
1.9070176e-08
1.8897871e-08
1.8724618e-08
1.8551996e-08
1.838102e-08
1.8212389e-08
1.8046445e-08
1.7883369e-08
1.7723458e-08
1.7565863e-08
1.7411257e-08
1.7255827e-08
1.7099565e-08
1.6950661e-08
1.6733181e-08
0.00010883328
9.8472689e-05
9.7611357e-05
9.767506e-05
9.7731078e-05
9.7746108e-05
9.7750221e-05
9.775265e-05
9.7755199e-05
9.7758253e-05
9.7762009e-05
9.7766675e-05
9.7772506e-05
9.7779849e-05
9.7789184e-05
9.7801222e-05
9.7817097e-05
9.7838274e-05
9.7869897e-05
9.7906011e-05
9.8025752e-05
9.7874037e-05
9.9705002e-05
3.6544749e-05
7.1578027e-08
1.5482118e-09
7.5902576e-10
5.1237674e-10
4.1226457e-10
3.5678582e-10
3.1793385e-10
2.8803258e-10
2.6455768e-10
2.4572466e-10
2.3027917e-10
2.1749616e-10
2.0689983e-10
1.9811053e-10
1.9082556e-10
1.8483641e-10
1.797715e-10
1.7540707e-10
1.7168608e-10
1.6858765e-10
1.6607929e-10
1.6412286e-10
1.626846e-10
1.6172734e-10
1.6122246e-10
1.6118166e-10
1.6147644e-10
1.6202606e-10
1.6284638e-10
1.640085e-10