/*--------------------------------*- C++ -*----------------------------------*\
| =========                 |                                                 |
| \\      /  F ield         | OpenFOAM: The Open Source CFD Toolbox           |
|  \\    /   O peration     | Version:  2206                                  |
|   \\  /    A nd           | Website:  www.openfoam.com                      |
|    \\/     M anipulation  |                                                 |
\*---------------------------------------------------------------------------*/
FoamFile
{
    version     2.0;
    format      ascii;
    arch        "LSB;label=32;scalar=64";
    class       volScalarField;
    location    "700";
    object      nut;
}
// * * * * * * * * * * * * * * * * * * * * * * * * * * * * * * * * * * * * * //

dimensions      [0 2 -1 0 0 0 0];

internalField   nonuniform List<scalar> 
13056
(
1.9596597e-07
1.9530304e-07
1.9533191e-07
1.9543057e-07
1.954844e-07
1.9550877e-07
1.9552119e-07
1.9552904e-07
1.9553496e-07
1.9554005e-07
1.9554488e-07
1.9554984e-07
1.955553e-07
1.9556168e-07
1.9556949e-07
1.9557935e-07
1.955926e-07
1.9560944e-07
1.9563992e-07
1.9565215e-07
1.9585571e-07
1.9528177e-07
1.9652417e-07
1.9953294e-09
2.6756442e-16
4.1217796e-17
2.0859103e-17
1.4058557e-17
1.0737144e-17
8.7163617e-18
7.3502964e-18
6.3529183e-18
5.5914348e-18
4.9909274e-18
4.5042861e-18
4.1012699e-18
3.761771e-18
3.4717603e-18
3.2210512e-18
3.0020588e-18
2.8091158e-18
2.6376399e-18
2.4843207e-18
2.3463364e-18
2.2214743e-18
2.1079206e-18
2.00418e-18
1.909012e-18
1.8213771e-18
1.7404015e-18
1.6653401e-18
1.5955534e-18
1.5304927e-18
1.4696828e-18
1.4127117e-18
1.3592212e-18
1.3088953e-18
1.2614547e-18
1.2166534e-18
1.1742732e-18
1.1341196e-18
1.0960202e-18
1.0598224e-18
1.0253884e-18
9.9259269e-19
9.6132303e-19
9.314791e-19
9.029713e-19
8.7571859e-19
8.4964855e-19
8.2469826e-19
8.0081243e-19
7.7794245e-19
7.5604639e-19
7.3508822e-19
7.1503796e-19
6.9587184e-19
6.775756e-19
6.6015037e-19
6.4360479e-19
6.2795455e-19
6.1322593e-19
5.9945159e-19
5.8667544e-19
5.7497076e-19
5.6443066e-19
5.5517485e-19
5.4747791e-19
5.4123092e-19
5.3770053e-19
5.3602253e-19
5.3737558e-19
5.420016e-19
5.5049385e-19
5.6344665e-19
5.8143791e-19
6.0460533e-19
6.3297756e-19
6.6675631e-19
7.0487342e-19
7.4421039e-19
7.8159741e-19
8.1304246e-19
8.3851263e-19
8.5771357e-19
8.7187475e-19
8.8216798e-19
8.8949333e-19
8.9452045e-19
8.9762723e-19
8.9909323e-19
8.9913332e-19
8.9774294e-19
8.9495344e-19
8.9095896e-19
8.8592429e-19
8.8005587e-19
8.7359096e-19
8.6667306e-19
8.5944137e-19
8.5206435e-19
8.4464239e-19
8.3721306e-19
8.2982622e-19
8.2255565e-19
8.1542537e-19
8.084276e-19
8.0154884e-19
7.9479505e-19
7.8816009e-19
7.8166636e-19
7.7501599e-19
7.6869654e-19
7.6088836e-19
7.5457629e-19
7.4544384e-19
1.9596492e-07
1.9530159e-07
1.9533047e-07
1.9542918e-07
1.9548303e-07
1.9550741e-07
1.9551985e-07
1.9552769e-07
1.9553362e-07
1.9553872e-07
1.9554354e-07
1.955485e-07
1.9555397e-07
1.9556035e-07
1.9556816e-07
1.9557802e-07
1.9559129e-07
1.9560813e-07
1.9563862e-07
1.9565085e-07
1.9585448e-07
1.9528031e-07
1.9652393e-07
2.0255202e-09
2.5158354e-16
3.8521055e-17
1.9494332e-17
1.3138725e-17
1.0034627e-17
8.1460632e-18
6.8693784e-18
5.9372576e-18
5.2255972e-18
4.6643805e-18
4.2095798e-18
3.8329327e-18
3.5156473e-18
3.2446121e-18
3.0103072e-18
2.8056438e-18
2.6253255e-18
2.4650697e-18
2.3217825e-18
2.192827e-18
2.0761351e-18
1.9700116e-18
1.8730593e-18
1.7841186e-18
1.7022181e-18
1.6265412e-18
1.5563914e-18
1.491171e-18
1.4303672e-18
1.3735362e-18
1.3202931e-18
1.2703034e-18
1.2232714e-18
1.1789359e-18
1.1370672e-18
1.0974612e-18
1.0599363e-18
1.0243312e-18
9.9050341e-19
9.5832418e-19
9.2767613e-19
8.9845428e-19
8.705649e-19
8.4392411e-19
8.1845586e-19
7.9409216e-19
7.7077586e-19
7.484568e-19
7.2708774e-19
7.0662947e-19
6.8704839e-19
6.6831654e-19
6.5041185e-19
6.3332098e-19
6.1704472e-19
6.0158972e-19
5.8696609e-19
5.7321089e-19
5.6035782e-19
5.4844123e-19
5.3753042e-19
5.2771336e-19
5.1910281e-19
5.1195518e-19
5.0616022e-19
5.0285979e-19
5.0135579e-19
5.0273595e-19
5.0720081e-19
5.1530944e-19
5.2762114e-19
5.4467689e-19
5.6659931e-19
5.9339971e-19
6.2523209e-19
6.6104206e-19
6.9787385e-19
7.3278999e-19
7.6211189e-19
7.8586258e-19
8.0377743e-19
8.1701078e-19
8.2665613e-19
8.3354785e-19
8.3830142e-19
8.4126061e-19
8.4268143e-19
8.4276165e-19
8.4149516e-19
8.3890996e-19
8.3518748e-19
8.3048348e-19
8.2499292e-19
8.1893927e-19
8.1245825e-19
8.0568118e-19
7.9876633e-19
7.9180819e-19
7.8484246e-19
7.7791612e-19
7.7109831e-19
7.6441165e-19
7.5784906e-19
7.5139805e-19
7.450642e-19
7.3884186e-19
7.327517e-19
7.2651627e-19
7.2058908e-19
7.132741e-19
7.0735534e-19
6.9879145e-19
1.9596158e-07
1.9529696e-07
1.9532587e-07
1.9542473e-07
1.9547868e-07
1.955031e-07
1.9551555e-07
1.9552341e-07
1.9552935e-07
1.9553445e-07
1.9553928e-07
1.9554425e-07
1.9554973e-07
1.9555612e-07
1.9556394e-07
1.9557381e-07
1.9558708e-07
1.9560394e-07
1.9563446e-07
1.9564668e-07
1.9585053e-07
1.9527575e-07
1.9652128e-07
2.0607253e-09
2.4534513e-16
3.6726208e-17
1.8585873e-17
1.2526437e-17
9.5670788e-18
7.7665971e-18
6.5494491e-18
5.6607894e-18
4.9823078e-18
4.4472548e-18
4.0136564e-18
3.6545692e-18
3.3520781e-18
3.0936829e-18
2.870308e-18
2.6751944e-18
2.5032909e-18
2.3505142e-18
2.2139151e-18
2.0909797e-18
1.9797366e-18
1.8785699e-18
1.7861474e-18
1.7013625e-18
1.6232887e-18
1.5511476e-18
1.4842744e-18
1.4220981e-18
1.3641298e-18
1.3099492e-18
1.2591969e-18
1.211557e-18
1.1667407e-18
1.124497e-18
1.084607e-18
1.0468763e-18
1.011132e-18
9.772208e-19
9.4500688e-19
9.1436806e-19
8.8519053e-19
8.5737395e-19
8.3082865e-19
8.0547198e-19
7.8122492e-19
7.5801581e-19
7.358256e-19
7.1463931e-19
6.943733e-19
6.7498985e-19
6.5645915e-19
6.3875581e-19
6.2186238e-19
6.0576691e-19
5.9046554e-19
5.7593535e-19
5.6209224e-19
5.4923262e-19
5.3745704e-19
5.2666204e-19
5.1693408e-19
5.0838122e-19
5.0113584e-19
4.9544524e-19
4.9105576e-19
4.882002e-19
4.8844877e-19
4.9257753e-19
5.0029719e-19
5.1226564e-19
5.2913019e-19
5.5146144e-19
5.7928176e-19
6.123125e-19
6.5000154e-19
6.9013438e-19
7.2891718e-19
7.6385678e-19
7.9238365e-19
8.1550428e-19
8.3322727e-19
8.4680735e-19
8.5730526e-19
8.6542236e-19
8.7156746e-19
8.759037e-19
8.7858932e-19
8.7975939e-19
8.7937038e-19
8.7741887e-19
8.7408139e-19
8.6955342e-19
8.6407537e-19
8.5790824e-19
8.5122406e-19
8.4418163e-19
8.3695562e-19
8.2965471e-19
8.2232843e-19
8.1503198e-19
8.0783727e-19
8.0077085e-19
7.9383054e-19
7.8700715e-19
7.8030681e-19
7.7372623e-19
7.6727889e-19
7.6071861e-19
7.5443139e-19
7.4688732e-19
7.4064721e-19
7.3160607e-19
1.9595583e-07
1.9528902e-07
1.9531797e-07
1.954171e-07
1.9547119e-07
1.9549569e-07
1.9550817e-07
1.9551605e-07
1.9552201e-07
1.9552712e-07
1.9553197e-07
1.9553695e-07
1.9554244e-07
1.9554884e-07
1.9555667e-07
1.9556656e-07
1.9557986e-07
1.9559674e-07
1.9562731e-07
1.9563952e-07
1.9584374e-07
1.9526793e-07
1.9651618e-07
2.0982957e-09
2.5964263e-16
3.546109e-17
1.7944801e-17
1.2094378e-17
9.2377325e-18
7.4998934e-18
6.325037e-18
5.4672003e-18
4.8122281e-18
4.2957046e-18
3.8771197e-18
3.5304726e-18
3.238475e-18
2.9890587e-18
2.7734672e-18
2.5851699e-18
2.4192794e-18
2.2718508e-18
2.140039e-18
2.0214198e-18
1.9140915e-18
1.8164948e-18
1.7273442e-18
1.6455637e-18
1.5702551e-18
1.5006701e-18
1.4361587e-18
1.3761628e-18
1.3202103e-18
1.2679154e-18
1.218984e-18
1.173134e-18
1.1300377e-18
1.0894374e-18
1.0511231e-18
1.0149092e-18
9.8063052e-19
9.4814102e-19
9.1731166e-19
8.8802753e-19
8.6016552e-19
8.3362727e-19
8.0832403e-19
7.8415729e-19
7.6100494e-19
7.3874939e-19
7.1762296e-19
6.9784404e-19
6.7905985e-19
6.6123207e-19
6.4434819e-19
6.2839379e-19
6.1337837e-19
5.992971e-19
5.8611513e-19
5.7360458e-19
5.6102081e-19
5.5049468e-19
5.4261538e-19
5.3632554e-19
5.318583e-19
5.2949589e-19
5.2954869e-19
5.3227259e-19
5.3631174e-19
5.3554568e-19
5.478161e-19
5.7205093e-19
6.0455108e-19
6.4697486e-19
7.0101716e-19
7.6811864e-19
8.4860046e-19
9.4206962e-19
1.0464627e-18
1.1550855e-18
1.2581623e-18
1.3487145e-18
1.4228487e-18
1.4827623e-18
1.5303387e-18
1.5687298e-18
1.6003289e-18
1.626607e-18
1.6481867e-18
1.665342e-18
1.6784421e-18
1.6876642e-18
1.6928463e-18
1.6938319e-18
1.6908963e-18
1.6846273e-18
1.6757205e-18
1.6648519e-18
1.6525433e-18
1.6392367e-18
1.6253268e-18
1.6110855e-18
1.5966854e-18
1.5822712e-18
1.567979e-18
1.5538785e-18
1.5399985e-18
1.5263455e-18
1.5129332e-18
1.4997718e-18
1.4868361e-18
1.4739282e-18
1.4612364e-18
1.4473453e-18
1.4349858e-18
1.4170017e-18
1.9594752e-07
1.9527751e-07
1.9530653e-07
1.9540605e-07
1.9546036e-07
1.9548495e-07
1.9549749e-07
1.955054e-07
1.9551138e-07
1.9551651e-07
1.9552137e-07
1.9552637e-07
1.9553187e-07
1.9553829e-07
1.9554615e-07
1.9555606e-07
1.9556939e-07
1.9558631e-07
1.9561695e-07
1.9562914e-07
1.9583389e-07
1.9525661e-07
1.9650858e-07
2.1379846e-09
3.1884585e-16
3.4651178e-17
1.753143e-17
1.1815854e-17
9.0278073e-18
7.3323639e-18
6.1859269e-18
5.3486022e-18
4.7091871e-18
4.2048867e-18
3.7961959e-18
3.45777e-18
3.1727574e-18
2.9293729e-18
2.7190873e-18
2.5355002e-18
2.3737923e-18
2.2300988e-18
2.1016507e-18
1.986092e-18
1.8815725e-18
1.786573e-18
1.6998404e-18
1.620292e-18
1.5470345e-18
1.4793503e-18
1.4165699e-18
1.3581188e-18
1.3035354e-18
1.2525279e-18
1.2050346e-18
1.160877e-18
1.1195273e-18
1.0806693e-18
1.0441043e-18
1.0096588e-18
9.7717968e-19
9.4653278e-19
9.176011e-19
8.9028566e-19
8.6440981e-19
8.3987079e-19
8.1657296e-19
7.943397e-19
7.728548e-19
7.517946e-19
7.3245829e-19
7.160615e-19
7.0109645e-19
6.8751793e-19
6.7538419e-19
6.6472355e-19
6.5565728e-19
6.4821564e-19
6.4220802e-19
6.3645029e-19
6.2716861e-19
6.2471457e-19
6.3192865e-19
6.4349167e-19
6.603257e-19
6.8359882e-19
7.147604e-19
7.5536555e-19
8.049286e-19
8.5373923e-19
9.3303327e-19
1.044655e-18
1.1855785e-18
1.3619499e-18
1.5801619e-18
1.8456477e-18
2.1601542e-18
2.5230754e-18
2.9263691e-18
3.3443841e-18
3.7410175e-18
4.0882501e-18
4.3742807e-18
4.605438e-18
4.7915739e-18
4.9444127e-18
5.0725416e-18
5.1811628e-18
5.2721727e-18
5.346595e-18
5.4059078e-18
5.4505803e-18
5.4799539e-18
5.4932147e-18
5.4911208e-18
5.4760243e-18
5.4506714e-18
5.4176194e-18
5.3789622e-18
5.3364193e-18
5.291393e-18
5.2448965e-18
5.1976523e-18
5.1502103e-18
5.1030071e-18
5.0563067e-18
5.0102724e-18
4.9649775e-18
4.92047e-18
4.8768176e-18
4.8338305e-18
4.7914538e-18
4.7491197e-18
4.7054931e-18
4.6647475e-18
4.6053007e-18
1.959364e-07
1.9526213e-07
1.9529124e-07
1.9539127e-07
1.9544587e-07
1.954706e-07
1.954832e-07
1.9549116e-07
1.9549716e-07
1.9550232e-07
1.955072e-07
1.9551222e-07
1.9551775e-07
1.9552419e-07
1.9553208e-07
1.9554203e-07
1.955554e-07
1.9557236e-07
1.956031e-07
1.9561527e-07
1.9582072e-07
1.9524149e-07
1.9649842e-07
2.180122e-09
4.6981935e-16
3.4510971e-17
1.7449109e-17
1.1760662e-17
8.9948722e-18
7.3151397e-18
6.178534e-18
5.3476068e-18
4.7127349e-18
4.2118673e-18
3.8059189e-18
3.4698512e-18
3.187018e-18
2.9457055e-18
2.7375096e-18
2.5559943e-18
2.3962184e-18
2.2543012e-18
2.1275193e-18
2.0135697e-18
1.9106352e-18
1.8172173e-18
1.7320779e-18
1.6540374e-18
1.5821552e-18
1.51576e-18
1.4540731e-18
1.3964263e-18
1.3423589e-18
1.2918557e-18
1.2455875e-18
1.2036965e-18
1.1649845e-18
1.1289254e-18
1.0953427e-18
1.0640895e-18
1.0350399e-18
1.0080877e-18
9.8314575e-19
9.601583e-19
9.3875951e-19
9.188194e-19
9.0020342e-19
8.8244835e-19
8.6454554e-19
8.4543514e-19
8.3006599e-19
8.2310091e-19
8.1906253e-19
8.1786657e-19
8.1984352e-19
8.2533289e-19
8.3485084e-19
8.4886677e-19
8.6760906e-19
8.8985751e-19
9.102549e-19
9.4475689e-19
9.9942624e-19
1.0675717e-18
1.1523773e-18
1.2579254e-18
1.3894358e-18
1.5528871e-18
1.751378e-18
1.9673884e-18
2.2694137e-18
2.6691636e-18
3.1679761e-18
3.7868938e-18
4.5479335e-18
5.4699126e-18
6.5595882e-18
7.8162997e-18
9.2135599e-18
1.0664758e-17
1.2047375e-17
1.3261593e-17
1.4266138e-17
1.5078542e-17
1.573469e-17
1.627487e-17
1.6728574e-17
1.7113864e-17
1.7437382e-17
1.770311e-17
1.791652e-17
1.8079217e-17
1.8188948e-17
1.8242735e-17
1.8242974e-17
1.8197908e-17
1.8117135e-17
1.8009497e-17
1.788234e-17
1.774165e-17
1.7592202e-17
1.7437489e-17
1.7280067e-17
1.7121842e-17
1.6964257e-17
1.6808227e-17
1.6654362e-17
1.6502955e-17
1.6354169e-17
1.6208264e-17
1.6064503e-17
1.5923272e-17
1.5781547e-17
1.5638042e-17
1.5502085e-17
1.5303578e-17
1.959222e-07
1.9524245e-07
1.9527167e-07
1.9537237e-07
1.9542734e-07
1.9545224e-07
1.9546493e-07
1.9547294e-07
1.9547898e-07
1.9548417e-07
1.9548908e-07
1.9549413e-07
1.9549969e-07
1.9550616e-07
1.9551409e-07
1.9552408e-07
1.955375e-07
1.9555453e-07
1.9558538e-07
1.9559752e-07
1.9580387e-07
1.9522213e-07
1.9648565e-07
2.2252781e-09
8.0528948e-16
3.5729481e-17
1.8034549e-17
1.2156083e-17
9.3223721e-18
7.6072949e-18
6.4445967e-18
5.5924499e-18
4.9404243e-18
4.425607e-18
4.0082401e-18
3.6629544e-18
3.3728884e-18
3.125978e-18
2.9137738e-18
2.7294409e-18
2.5674761e-18
2.4237756e-18
2.2956135e-18
2.180722e-18
2.0772884e-18
1.9838004e-18
1.8990023e-18
1.8213824e-18
1.749814e-18
1.683719e-18
1.6219734e-18
1.5636084e-18
1.5081364e-18
1.4563265e-18
1.4109746e-18
1.3731632e-18
1.3397248e-18
1.3095017e-18
1.2823693e-18
1.2582484e-18
1.2370842e-18
1.2188475e-18
1.2035354e-18
1.1912184e-18
1.1813929e-18
1.1739881e-18
1.1690212e-18
1.1660522e-18
1.1638147e-18
1.1608664e-18
1.1645095e-18
1.1821242e-18
1.2062888e-18
1.2373798e-18
1.2764764e-18
1.3247831e-18
1.3839101e-18
1.4555694e-18
1.5412493e-18
1.6400146e-18
1.7433508e-18
1.8805612e-18
2.0656442e-18
2.289587e-18
2.5618605e-18
2.8946618e-18
3.3037612e-18
3.8077488e-18
4.4212746e-18
5.1131942e-18
6.0412925e-18
7.2454346e-18
8.7436894e-18
1.0598798e-17
1.2876573e-17
1.5633548e-17
1.8891063e-17
2.2649572e-17
2.6833541e-17
3.1189343e-17
3.5354416e-17
3.9024219e-17
4.2069129e-17
4.4533206e-17
4.6524594e-17
4.8163732e-17
4.9539238e-17
5.0706047e-17
5.1685019e-17
5.2489295e-17
5.3136135e-17
5.363061e-17
5.3966105e-17
5.413361e-17
5.414014e-17
5.4010519e-17
5.3773602e-17
5.3455924e-17
5.3079588e-17
5.2662586e-17
5.2219184e-17
5.1759848e-17
5.1292291e-17
5.0822229e-17
5.0353945e-17
4.9890182e-17
4.9432805e-17
4.8982724e-17
4.8540427e-17
4.8106708e-17
4.7679301e-17
4.725981e-17
4.6838335e-17
4.6413608e-17
4.6009652e-17
4.5419722e-17
1.9590458e-07
1.9521798e-07
1.9524734e-07
1.9534887e-07
1.9540431e-07
1.9542942e-07
1.9544222e-07
1.9545029e-07
1.9545639e-07
1.9546161e-07
1.9546656e-07
1.9547164e-07
1.9547724e-07
1.9548375e-07
1.9549172e-07
1.9550176e-07
1.9551526e-07
1.9553236e-07
1.9556336e-07
1.9557546e-07
1.9578292e-07
1.9519806e-07
1.9647029e-07
2.2741806e-09
1.4806492e-15
3.9888969e-17
2.0063165e-17
1.3525474e-17
1.0430981e-17
8.5717713e-18
7.3060789e-18
6.3733113e-18
5.6573316e-18
5.0910193e-18
4.6316582e-18
4.2522338e-18
3.9348055e-18
3.6660253e-18
3.4371157e-18
3.2399738e-18
3.0675013e-18
2.9149091e-18
2.779378e-18
2.6586588e-18
2.5508997e-18
2.4545173e-18
2.3681877e-18
2.2901904e-18
2.2192623e-18
2.1548853e-18
2.0954332e-18
2.039568e-18
1.9867999e-18
1.9384202e-18
1.8985838e-18
1.8691087e-18
1.8458087e-18
1.8272567e-18
1.8134636e-18
1.8045048e-18
1.8004901e-18
1.8015713e-18
1.807946e-18
1.8199899e-18
1.83688e-18
1.8587028e-18
1.8858798e-18
1.9181155e-18
1.9537055e-18
1.9905238e-18
2.0409636e-18
2.1182576e-18
2.2110859e-18
2.3210307e-18
2.4510328e-18
2.6044655e-18
2.785671e-18
2.9995169e-18
3.2508337e-18
3.5401649e-18
3.853546e-18
4.2491138e-18
4.7587464e-18
5.3706328e-18
6.1099554e-18
7.0092178e-18
8.1106883e-18
9.4650563e-18
1.1118841e-17
1.3021876e-17
1.5528232e-17
1.874956e-17
2.2754412e-17
2.7710257e-17
3.3793017e-17
4.1154416e-17
4.9853454e-17
5.9895709e-17
7.1087131e-17
8.2761184e-17
9.3955823e-17
1.0384549e-16
1.1206818e-16
1.1872569e-16
1.2410662e-16
1.2853303e-16
1.3224316e-16
1.353861e-16
1.3802012e-16
1.4018298e-16
1.4192261e-16
1.4325334e-16
1.4415778e-16
1.4461178e-16
1.4463404e-16
1.4429117e-16
1.4366058e-16
1.4281337e-16
1.4180886e-16
1.406953e-16
1.3951086e-16
1.3828361e-16
1.3703424e-16
1.3577808e-16
1.3452657e-16
1.3328706e-16
1.3206458e-16
1.3086158e-16
1.2967939e-16
1.2852014e-16
1.2737771e-16
1.2625675e-16
1.2513008e-16
1.2399637e-16
1.2291682e-16
1.2134017e-16
1.9588315e-07
1.9518813e-07
1.9521767e-07
1.9532021e-07
1.9537622e-07
1.9540159e-07
1.9541452e-07
1.9542268e-07
1.9542883e-07
1.9543411e-07
1.954391e-07
1.9544422e-07
1.9544986e-07
1.9545643e-07
1.9546445e-07
1.9547456e-07
1.9548813e-07
1.9550533e-07
1.9553651e-07
1.9554855e-07
1.9575738e-07
1.9516868e-07
1.9645242e-07
2.32771e-09
2.7665069e-15
5.0501604e-17
2.5244748e-17
1.7023181e-17
1.3259088e-17
1.1032239e-17
9.5069798e-18
8.3726221e-18
7.4974993e-18
6.8030805e-18
6.2385362e-18
5.7722525e-18
5.3832832e-18
5.0556467e-18
4.7787694e-18
4.542823e-18
4.337786e-18
4.1572654e-18
3.9981007e-18
3.8579627e-18
3.734814e-18
3.6268297e-18
3.5324656e-18
3.4495188e-18
3.3763976e-18
3.3126882e-18
3.2556232e-18
3.2030427e-18
3.1544587e-18
3.1122282e-18
3.0832244e-18
3.0707378e-18
3.0685864e-18
3.0748391e-18
3.0898106e-18
3.1139233e-18
3.1476597e-18
3.1915818e-18
3.2463449e-18
3.3130246e-18
3.3901137e-18
3.4780911e-18
3.5783703e-18
3.6911655e-18
3.8141493e-18
3.9441177e-18
4.1037827e-18
4.3182115e-18
4.5688822e-18
4.8602878e-18
5.1996866e-18
5.5955151e-18
6.0584679e-18
6.6008464e-18
7.2356123e-18
7.9681417e-18
8.7762258e-18
9.7767643e-18
1.1039709e-17
1.2552243e-17
1.4376088e-17
1.6591029e-17
1.9301202e-17
2.2632991e-17
2.6712423e-17
3.1471921e-17
3.767395e-17
4.5599732e-17
5.5450777e-17
6.7639064e-17
8.2597803e-17
1.0070178e-16
1.2209979e-16
1.4681349e-16
1.7438041e-16
2.0318165e-16
2.308616e-16
2.5536619e-16
2.7577229e-16
2.9230061e-16
3.056593e-16
3.1664174e-16
3.2583738e-16
3.3361794e-16
3.4013201e-16
3.4547764e-16
3.497764e-16
3.5306512e-16
3.5530156e-16
3.564263e-16
3.5648542e-16
3.5564335e-16
3.5409116e-16
3.5200432e-16
3.4952925e-16
3.4678502e-16
3.4386581e-16
3.4084083e-16
3.3776121e-16
3.3466478e-16
3.315797e-16
3.2852413e-16
3.255105e-16
3.2254491e-16
3.1963059e-16
3.1677283e-16
3.1395649e-16
3.1119337e-16
3.0841579e-16
3.0562231e-16
3.0296116e-16
2.9907454e-16
1.9585745e-07
1.9515222e-07
1.9518197e-07
1.9528574e-07
1.9534244e-07
1.9536814e-07
1.9538123e-07
1.9538948e-07
1.953957e-07
1.9540104e-07
1.9540608e-07
1.9541126e-07
1.9541695e-07
1.9542357e-07
1.9543166e-07
1.9544185e-07
1.9545552e-07
1.9547283e-07
1.9550423e-07
1.955162e-07
1.9572667e-07
1.9513329e-07
1.9643219e-07
2.3869218e-09
5.1302561e-15
7.5112677e-17
3.7288084e-17
2.5152256e-17
1.9810614e-17
1.6711329e-17
1.4572535e-17
1.2964046e-17
1.1715651e-17
1.0721258e-17
9.9106296e-18
9.2410255e-18
8.6842118e-18
8.2180199e-18
7.8275129e-18
7.4989677e-18
7.2158865e-18
6.9682277e-18
6.7519702e-18
6.5645119e-18
6.4033327e-18
6.2660182e-18
6.1504939e-18
6.0535554e-18
5.9729144e-18
5.9083594e-18
5.8546831e-18
5.808002e-18
5.7678681e-18
5.7387409e-18
5.7326984e-18
5.755867e-18
5.7983654e-18
5.8573939e-18
5.9339298e-18
6.0291513e-18
6.1443535e-18
6.280996e-18
6.4407373e-18
6.626191e-18
6.8344474e-18
7.0669042e-18
7.3272689e-18
7.6171946e-18
7.9336858e-18
8.2720682e-18
8.6751413e-18
9.1909814e-18
9.7884885e-18
1.0478791e-17
1.1278677e-17
1.2207817e-17
1.3290955e-17
1.4557004e-17
1.6037538e-17
1.7751071e-17
1.9664944e-17
2.2011389e-17
2.4938437e-17
2.8440727e-17
3.2660802e-17
3.7783113e-17
4.4049044e-17
5.175422e-17
6.1209928e-17
7.2356997e-17
8.6776927e-17
1.0513059e-16
1.279408e-16
1.5616198e-16
1.9079849e-16
2.3272144e-16
2.8228209e-16
3.3954498e-16
4.0346667e-16
4.7033584e-16
5.3471598e-16
5.9180646e-16
6.3940687e-16
6.7797394e-16
7.0914345e-16
7.3475532e-16
7.5618155e-16
7.7429261e-16
7.8944263e-16
8.0186846e-16
8.1185837e-16
8.1950082e-16
8.2469894e-16
8.2731517e-16
8.2745651e-16
8.2550489e-16
8.2190405e-16
8.170615e-16
8.1131729e-16
8.0494794e-16
7.9817218e-16
7.9115068e-16
7.8400223e-16
7.7681465e-16
7.6965335e-16
7.6256047e-16
7.555649e-16
7.4868084e-16
7.4191578e-16
7.3528204e-16
7.2874439e-16
7.2233054e-16
7.1588279e-16
7.0939941e-16
7.0322218e-16
6.942002e-16
1.9582697e-07
1.9510948e-07
1.9513947e-07
1.9524473e-07
1.9530226e-07
1.9532833e-07
1.9534162e-07
1.9534999e-07
1.953563e-07
1.9536171e-07
1.9536681e-07
1.9537205e-07
1.953778e-07
1.9538449e-07
1.9539266e-07
1.9540294e-07
1.9541673e-07
1.9543417e-07
1.9546583e-07
1.9547771e-07
1.9569013e-07
1.9509111e-07
1.9640995e-07
2.4530847e-09
9.3755428e-15
1.2823888e-16
6.330804e-17
4.2715328e-17
3.394991e-17
2.8953041e-17
2.5481902e-17
2.2845704e-17
2.0789102e-17
1.9145638e-17
1.7802688e-17
1.6693107e-17
1.5772668e-17
1.5005843e-17
1.4368033e-17
1.3837334e-17
1.3383607e-17
1.2989e-17
1.264758e-17
1.235609e-17
1.2110927e-17
1.1908382e-17
1.1745223e-17
1.1616268e-17
1.1517832e-17
1.1450113e-17
1.1402867e-17
1.1368723e-17
1.1347398e-17
1.13474e-17
1.1390497e-17
1.1488132e-17
1.1623817e-17
1.1793343e-17
1.1999094e-17
1.2243846e-17
1.2530615e-17
1.2862764e-17
1.3244081e-17
1.3680446e-17
1.4166156e-17
1.4704663e-17
1.530474e-17
1.5971658e-17
1.670223e-17
1.749023e-17
1.8416544e-17
1.9572837e-17
2.0907019e-17
2.2444718e-17
2.4223013e-17
2.6285611e-17
2.868722e-17
3.1492484e-17
3.4773766e-17
3.8581838e-17
4.2875189e-17
4.8106737e-17
5.4580534e-17
6.2323851e-17
7.1651635e-17
8.297177e-17
9.6819127e-17
1.1385348e-16
1.3479757e-16
1.5969115e-16
1.917173e-16
2.3235485e-16
2.8285903e-16
3.4534419e-16
4.2203678e-16
5.1487179e-16
6.246392e-16
7.515077e-16
8.9321652e-16
1.0416154e-15
1.1846978e-15
1.3117533e-15
1.4177941e-15
1.5037333e-15
1.5731848e-15
1.6302283e-15
1.677915e-15
1.7181903e-15
1.7518568e-15
1.7794569e-15
1.8016411e-15
1.8186113e-15
1.8301547e-15
1.8359666e-15
1.8362848e-15
1.8319571e-15
1.8239685e-15
1.8132235e-15
1.8004769e-15
1.7863427e-15
1.7713063e-15
1.7557242e-15
1.7398604e-15
1.7239095e-15
1.7080168e-15
1.692276e-15
1.676751e-15
1.6614735e-15
1.6464601e-15
1.6317381e-15
1.6172293e-15
1.6029955e-15
1.5886861e-15
1.5742989e-15
1.5605902e-15
1.5405681e-15
1.9579115e-07
1.9505904e-07
1.9508931e-07
1.9519633e-07
1.9525485e-07
1.9528138e-07
1.9529489e-07
1.953034e-07
1.9530982e-07
1.9531531e-07
1.9532049e-07
1.953258e-07
1.9533163e-07
1.953384e-07
1.9534666e-07
1.9535705e-07
1.9537098e-07
1.9538857e-07
1.9542053e-07
1.9543231e-07
1.9564703e-07
1.9504127e-07
1.9638617e-07
2.5277346e-09
1.6880885e-14
2.3858742e-16
1.1737722e-16
7.9211948e-17
6.3321181e-17
5.4372974e-17
4.8129667e-17
4.3356857e-17
3.9620876e-17
3.6629136e-17
3.41805e-17
3.2156783e-17
3.0480291e-17
2.9087846e-17
2.793443e-17
2.6981573e-17
2.6171245e-17
2.5469449e-17
2.486624e-17
2.4356939e-17
2.3935668e-17
2.3596011e-17
2.3332322e-17
2.3135622e-17
2.2999504e-17
2.2924999e-17
2.2891717e-17
2.2885372e-17
2.2906184e-17
2.2970325e-17
2.3117258e-17
2.3368225e-17
2.3695238e-17
2.4091939e-17
2.4563625e-17
2.5116375e-17
2.5756763e-17
2.6492087e-17
2.7330547e-17
2.8284788e-17
2.9343651e-17
3.0515011e-17
3.1818472e-17
3.3267749e-17
3.4861378e-17
3.6592632e-17
3.8613316e-17
4.1096242e-17
4.3955747e-17
4.724816e-17
5.105266e-17
5.5462983e-17
6.0596086e-17
6.6591333e-17
7.3607668e-17
8.1770104e-17
9.1041754e-17
1.0229051e-16
1.1612654e-16
1.3267352e-16
1.5260451e-16
1.7679176e-16
2.0638098e-16
2.4279372e-16
2.8763515e-16
3.4128933e-16
4.100166e-16
4.9700887e-16
6.0512318e-16
7.3888824e-16
9.0307532e-16
1.1018382e-15
1.3368901e-15
1.6086378e-15
1.9123299e-15
2.2306381e-15
2.5379126e-15
2.81108e-15
3.0392537e-15
3.2242129e-15
3.3736807e-15
3.4964005e-15
3.5989291e-15
3.6854634e-15
3.7577553e-15
3.8169976e-15
3.8646055e-15
3.901021e-15
3.9257923e-15
3.9382672e-15
3.9389557e-15
3.9296768e-15
3.9125438e-15
3.8894972e-15
3.8621565e-15
3.8318386e-15
3.799585e-15
3.7661606e-15
3.7321315e-15
3.6979156e-15
3.6638245e-15
3.6300589e-15
3.5967563e-15
3.5639846e-15
3.5317793e-15
3.5001991e-15
3.4690762e-15
3.4385435e-15
3.4078483e-15
3.3769874e-15
3.3475808e-15
3.3046316e-15
1.9574937e-07
1.949999e-07
1.950305e-07
1.9513961e-07
1.9519931e-07
1.9522638e-07
1.9524016e-07
1.9524884e-07
1.9525537e-07
1.9526096e-07
1.9526624e-07
1.9527163e-07
1.9527755e-07
1.9528442e-07
1.9529279e-07
1.953033e-07
1.9531739e-07
1.9533516e-07
1.9536747e-07
1.9537912e-07
1.9559654e-07
1.9498274e-07
1.9636163e-07
2.6127463e-09
3.0008532e-14
4.6236648e-16
2.270551e-16
1.5324658e-16
1.2289668e-16
1.0593037e-16
9.4064273e-17
8.4959452e-17
7.7819502e-17
7.2095403e-17
6.740602e-17
6.3529301e-17
6.0319443e-17
5.7657431e-17
5.5456303e-17
5.3644754e-17
5.210885e-17
5.0781945e-17
4.9645921e-17
4.8693178e-17
4.7913193e-17
4.7294053e-17
4.6825218e-17
4.6490528e-17
4.6278369e-17
4.619145e-17
4.6189267e-17
4.6244049e-17
4.635731e-17
4.6559562e-17
4.6922162e-17
4.7484189e-17
4.8198058e-17
4.9054356e-17
5.0064306e-17
5.1240687e-17
5.2597291e-17
5.4149407e-17
5.5914199e-17
5.7918056e-17
6.0139297e-17
6.259508e-17
6.5327576e-17
6.8369298e-17
7.1725883e-17
7.5394211e-17
7.9656538e-17
8.4834963e-17
9.0792516e-17
9.7649028e-17
1.0556931e-16
1.1474917e-16
1.2543231e-16
1.3791109e-16
1.525239e-16
1.6955925e-16
1.8902881e-16
2.1257145e-16
2.4139025e-16
2.758538e-16
3.1736434e-16
3.6774014e-16
4.2937273e-16
5.0524397e-16
5.9880317e-16
7.1137213e-16
8.5505151e-16
1.0365458e-15
1.2621109e-15
1.5412e-15
1.8837771e-15
2.2985298e-15
2.7890714e-15
3.3563307e-15
3.9905508e-15
4.6557877e-15
5.2986178e-15
5.8706432e-15
6.3487795e-15
6.7364303e-15
7.0496831e-15
7.3067997e-15
7.521504e-15
7.7026104e-15
7.8538329e-15
7.9777172e-15
8.0772545e-15
8.1533863e-15
8.2051751e-15
8.2312602e-15
8.2327083e-15
8.2133217e-15
8.1775176e-15
8.1293521e-15
8.0722107e-15
8.0088457e-15
7.9414342e-15
7.8715755e-15
7.8004523e-15
7.7289386e-15
7.6576854e-15
7.5871123e-15
7.517507e-15
7.4490111e-15
7.381699e-15
7.3156934e-15
7.2506438e-15
7.1868276e-15
7.1226718e-15
7.0581708e-15
6.9967083e-15
6.9069404e-15
1.9570097e-07
1.9493096e-07
1.9496194e-07
1.9507352e-07
1.9513461e-07
1.9516231e-07
1.9517641e-07
1.9518529e-07
1.9519197e-07
1.9519767e-07
1.9520305e-07
1.9520855e-07
1.9521457e-07
1.9522155e-07
1.9523004e-07
1.9524071e-07
1.9525498e-07
1.9527296e-07
1.9530567e-07
1.9531716e-07
1.9553773e-07
1.9491436e-07
1.9633744e-07
2.7104271e-09
5.2806166e-14
9.0883412e-16
4.4592425e-16
3.0099262e-16
2.4179032e-16
2.0882792e-16
1.8574763e-16
1.6800475e-16
1.5407854e-16
1.4290772e-16
1.3375147e-16
1.2618009e-16
1.1991161e-16
1.1471609e-16
1.1042203e-16
1.0689391e-16
1.0390731e-16
1.0133055e-16
9.9129183e-17
9.7289758e-17
9.5792465e-17
9.4614419e-17
9.3735324e-17
9.3125592e-17
9.2763727e-17
9.2655813e-17
9.2721933e-17
9.2908279e-17
9.3219438e-17
9.3712546e-17
9.4515908e-17
9.5700831e-17
9.7186899e-17
9.8960805e-17
1.0104566e-16
1.0346764e-16
1.0625496e-16
1.0943892e-16
1.1305462e-16
1.1715597e-16
1.2170119e-16
1.2672651e-16
1.3232025e-16
1.3855532e-16
1.4545771e-16
1.5303936e-16
1.6182048e-16
1.7239563e-16
1.8455384e-16
1.9854396e-16
2.147024e-16
2.3342999e-16
2.5522463e-16
2.8068701e-16
3.1052077e-16
3.4536315e-16
3.8538971e-16
4.3365987e-16
4.9251457e-16
5.6289601e-16
6.4766883e-16
7.5054942e-16
8.7643146e-16
1.0314417e-15
1.2228085e-15
1.4541366e-15
1.7485167e-15
2.1197406e-15
2.5811134e-15
3.1519799e-15
3.8527381e-15
4.7011948e-15
5.7048107e-15
6.8656247e-15
8.1639531e-15
9.5266419e-15
1.0844573e-14
1.20183e-14
1.2999954e-14
1.3795956e-14
1.4439167e-14
1.4966977e-14
1.5407532e-14
1.5778966e-14
1.6088978e-14
1.6342874e-14
1.6546842e-14
1.6702839e-14
1.6808957e-14
1.6862415e-14
1.6865397e-14
1.6825694e-14
1.6752356e-14
1.6653692e-14
1.6536637e-14
1.6406832e-14
1.6268736e-14
1.6125626e-14
1.5979925e-14
1.5833423e-14
1.5687455e-14
1.554288e-14
1.5400287e-14
1.5259966e-14
1.5122071e-14
1.4986852e-14
1.4853592e-14
1.4722858e-14
1.4591429e-14
1.4459293e-14
1.4333382e-14
1.4149483e-14
1.9564521e-07
1.9485099e-07
1.9488238e-07
1.9499689e-07
1.950596e-07
1.9508805e-07
1.9510254e-07
1.9511164e-07
1.9511849e-07
1.9512433e-07
1.9512983e-07
1.9513545e-07
1.9514159e-07
1.951487e-07
1.9515734e-07
1.9516818e-07
1.9518267e-07
1.9520087e-07
1.9523405e-07
1.9524534e-07
1.9546959e-07
1.9483484e-07
1.9631511e-07
2.8236391e-09
9.2212979e-14
1.7891985e-15
8.7759334e-16
5.9239941e-16
4.7630542e-16
4.1181052e-16
3.6662872e-16
3.3186359e-16
3.0456601e-16
2.8266406e-16
2.6470681e-16
2.4985463e-16
2.3755665e-16
2.2736506e-16
2.1894031e-16
2.1202249e-16
2.0617088e-16
2.0112581e-16
1.9682062e-16
1.9323028e-16
1.9031669e-16
1.8803531e-16
1.8634666e-16
1.8519617e-16
1.8454373e-16
1.8440213e-16
1.8461491e-16
1.8507838e-16
1.8580401e-16
1.8689811e-16
1.8859002e-16
1.9100899e-16
1.9402047e-16
1.9760719e-16
2.0181583e-16
2.0669904e-16
2.1231362e-16
2.1872249e-16
2.259963e-16
2.342434e-16
2.4338388e-16
2.5349258e-16
2.6475076e-16
2.7731599e-16
2.9126492e-16
3.0665258e-16
3.2443082e-16
3.4568895e-16
3.7011801e-16
3.9822549e-16
4.306877e-16
4.6831245e-16
5.1210157e-16
5.632694e-16
6.2325274e-16
6.9341544e-16
7.7437033e-16
8.7178013e-16
9.9015507e-16
1.1317137e-15
1.3022196e-15
1.5091533e-15
1.7623748e-15
2.0742717e-15
2.4597001e-15
2.9274718e-15
3.5212384e-15
4.2689144e-15
5.1981737e-15
6.3479954e-15
7.7594951e-15
9.4686048e-15
1.1490473e-14
1.3829449e-14
1.6446361e-14
1.9194506e-14
2.1854369e-14
2.4224868e-14
2.6208449e-14
2.7817104e-14
2.9116945e-14
3.0183338e-14
3.1073117e-14
3.1822976e-14
3.2448607e-14
3.2960867e-14
3.337234e-14
3.3687025e-14
3.3901096e-14
3.4008949e-14
3.4014993e-14
3.3934941e-14
3.3787046e-14
3.3588068e-14
3.3351996e-14
3.3090205e-14
3.281169e-14
3.2523061e-14
3.2229206e-14
3.1933735e-14
3.1639338e-14
3.1347751e-14
3.1060161e-14
3.0777155e-14
3.049904e-14
3.0226322e-14
2.9957554e-14
2.9693883e-14
2.9428808e-14
2.9162311e-14
2.8908365e-14
2.8537467e-14
1.9558132e-07
1.947586e-07
1.9479047e-07
1.9490841e-07
1.9497303e-07
1.9500236e-07
1.9501729e-07
1.9502667e-07
1.9503371e-07
1.9503972e-07
1.9504536e-07
1.9505111e-07
1.9505739e-07
1.9506465e-07
1.9507346e-07
1.9508449e-07
1.9509923e-07
1.9511771e-07
1.9515142e-07
1.9516247e-07
1.9539096e-07
1.947427e-07
1.9629674e-07
2.9559604e-09
1.6013482e-13
3.509998e-15
1.7215537e-15
1.1621574e-15
9.3486565e-16
8.0875629e-16
7.20395e-16
6.5237619e-16
5.9895969e-16
5.5609732e-16
5.2094889e-16
4.9187279e-16
4.6779201e-16
4.4783434e-16
4.3132946e-16
4.1777804e-16
4.063193e-16
3.9644362e-16
3.880214e-16
3.81005e-16
3.7532052e-16
3.7088119e-16
3.6761e-16
3.6540618e-16
3.6419469e-16
3.6400153e-16
3.6452257e-16
3.6555899e-16
3.6713718e-16