/*--------------------------------*- C++ -*----------------------------------*\
| =========                 |                                                 |
| \\      /  F ield         | OpenFOAM: The Open Source CFD Toolbox           |
|  \\    /   O peration     | Version:  2206                                  |
|   \\  /    A nd           | Website:  www.openfoam.com                      |
|    \\/     M anipulation  |                                                 |
\*---------------------------------------------------------------------------*/
FoamFile
{
    version     2.0;
    format      ascii;
    arch        "LSB;label=32;scalar=64";
    class       volScalarField;
    location    "700";
    object      omega;
}
// * * * * * * * * * * * * * * * * * * * * * * * * * * * * * * * * * * * * * //

dimensions      [0 0 -1 0 0 0 0];

internalField   nonuniform List<scalar> 
13056
(
571.04185
526.64937
522.58823
522.6728
522.79795
522.8033
522.78958
522.78048
522.77712
522.77839
522.7837
522.79296
522.80642
522.82466
522.84865
522.88017
522.92119
522.97844
523.04999
523.19591
523.22399
524.1079
529.50405
19355.213
1.1944345e+09
1.1944345e+09
1.1944345e+09
1.1944345e+09
1.1944345e+09
1.1944345e+09
1.1944345e+09
1.1944345e+09
1.1944345e+09
1.1944345e+09
1.1944345e+09
1.1944345e+09
1.1944345e+09
1.1944345e+09
1.1944345e+09
1.1944345e+09
1.1944345e+09
1.1944345e+09
1.1944345e+09
1.1944345e+09
1.1944345e+09
1.1944345e+09
1.1944345e+09
1.1944345e+09
1.1944345e+09
1.1944345e+09
1.1944345e+09
1.1944345e+09
1.1944345e+09
1.1944345e+09
1.1944345e+09
1.1944345e+09
1.1944345e+09
1.1944345e+09
1.1944345e+09
1.1944345e+09
1.1944345e+09
1.1944345e+09
1.1944345e+09
1.1944345e+09
1.1944345e+09
1.1944345e+09
1.1944345e+09
1.1944345e+09
1.1944345e+09
1.1944345e+09
1.1944345e+09
1.1944345e+09
1.1944345e+09
1.1944345e+09
1.1944345e+09
1.1944345e+09
1.1944345e+09
1.1944345e+09
1.1944345e+09
1.1944345e+09
1.1944345e+09
1.1944345e+09
1.1944345e+09
1.1944345e+09
1.1944345e+09
1.1944345e+09
1.1944345e+09
1.1944345e+09
1.1944345e+09
1.1944345e+09
1.1944345e+09
1.1944345e+09
1.1944345e+09
1.1944345e+09
1.1944345e+09
1.1944345e+09
1.1944345e+09
1.1944345e+09
1.1944345e+09
1.1944345e+09
1.1944345e+09
1.1944345e+09
1.1944345e+09
1.1944345e+09
1.1944345e+09
1.1944345e+09
1.1944345e+09
1.1944345e+09
1.1944345e+09
1.1944345e+09
1.1944345e+09
1.1944345e+09
1.1944345e+09
1.1944345e+09
1.1944345e+09
1.1944345e+09
1.1944345e+09
1.1944345e+09
1.1944345e+09
1.1944345e+09
1.1944345e+09
1.1944345e+09
1.1944345e+09
1.1944345e+09
1.1944345e+09
1.1944345e+09
1.1944345e+09
1.1944345e+09
1.1944345e+09
1.1944345e+09
1.1944345e+09
1.1944345e+09
1.1944345e+09
1.1944345e+09
1.1944345e+09
1.1944345e+09
571.00148
526.59121
522.52884
522.61323
522.73838
522.74372
522.72999
522.72088
522.71752
522.71879
522.7241
522.73336
522.74681
522.76506
522.78905
522.82057
522.86161
522.91887
522.99043
523.13638
523.16446
524.04841
529.44377
19065.199
1.9586993e+08
1.9626972e+08
1.962697e+08
1.9626969e+08
1.962697e+08
1.9626972e+08
1.9626973e+08
1.9626974e+08
1.9626975e+08
1.9626976e+08
1.9626977e+08
1.9626978e+08
1.9626979e+08
1.9626979e+08
1.9626981e+08
1.9626982e+08
1.9626983e+08
1.9626984e+08
1.9626985e+08
1.9626986e+08
1.9626988e+08
1.9626989e+08
1.9626991e+08
1.9626993e+08
1.9626994e+08
1.9626997e+08
1.9626999e+08
1.9627002e+08
1.9627005e+08
1.9627008e+08
1.9627011e+08
1.9627014e+08
1.9627017e+08
1.9627021e+08
1.9627025e+08
1.9627029e+08
1.9627033e+08
1.9627038e+08
1.9627044e+08
1.962705e+08
1.9627057e+08
1.9627065e+08
1.9627074e+08
1.9627085e+08
1.96271e+08
1.9627119e+08
1.9627138e+08
1.9627153e+08
1.962717e+08
1.962719e+08
1.9627213e+08
1.9627241e+08
1.9627275e+08
1.9627316e+08
1.9627369e+08
1.9627444e+08
1.9627571e+08
1.9627684e+08
1.9627774e+08
1.9627883e+08
1.9628017e+08
1.9628184e+08
1.9628399e+08
1.9628693e+08
1.9629173e+08
1.9630248e+08
1.9630963e+08
1.9631518e+08
1.9632202e+08
1.9633045e+08
1.9634077e+08
1.963534e+08
1.9636894e+08
1.963886e+08
1.9641425e+08
1.9644722e+08
1.9648614e+08
1.965247e+08
1.9655804e+08
1.965832e+08
1.9660178e+08
1.9661504e+08
1.9662414e+08
1.9663017e+08
1.9663414e+08
1.9663691e+08
1.9663904e+08
1.9664078e+08
1.9664222e+08
1.9664337e+08
1.9664422e+08
1.9664483e+08
1.9664525e+08
1.9664552e+08
1.9664569e+08
1.9664578e+08
1.9664581e+08
1.9664579e+08
1.9664575e+08
1.9664568e+08
1.966456e+08
1.966455e+08
1.9664539e+08
1.9664527e+08
1.9664516e+08
1.9664505e+08
1.9664493e+08
1.9664487e+08
1.9664473e+08
1.9664493e+08
1.9664486e+08
1.9664472e+08
570.87296
526.40815
522.34208
522.42594
522.55108
522.55639
522.54263
522.5335
522.53013
522.53138
522.53669
522.54595
522.55941
522.57767
522.60167
522.6332
522.67426
522.73156
522.80316
522.94921
522.97727
523.86121
529.25811
18728.633
64136638
64221474
64221448
64221447
64221469
64221500
64221533
64221564
64221596
64221627
64221656
64221683
64221706
64221727
64221743
64221756
64221770
64221785
64221801
64221818
64221837
64221858
64221882
64221918
64221972
64222044
64222142
64222275
64222448
64222640
64222780
64222830
64222859
64222891
64222926
64222966
64223011
64223063
64223123
64223192
64223303
64223470
64223719
64224127
64224854
64226075
64227111
64227282
64227420
64227584
64227796
64228129
64228609
64229401
64230893
64234368
64243410
64249338
64250140
64251207
64252701
64254952
64258791
64266814
64290457
64377998
64413918
64419582
64427681
64439643
64457983
64487323
64535962
64619737
64764385
64994898
65305967
65635701
65928114
66148239
66306798
66414133
66480710
66517456
66534990
66542442
66545424
66546635
66547205
66547533
66547744
66547886
66547983
66548044
66548081
66548102
66548109
66548105
66548095
66548081
66548061
66548038
66548013
66547988
66547962
66547936
66547909
66547896
66547863
66547910
66547892
66547861
570.65227
526.09432
522.02196
522.10492
522.23004
522.2353
522.2215
522.21233
522.20893
522.21018
522.21547
522.22473
522.2382
522.25647
522.28049
522.31205
522.35315
522.41051
522.48217
522.62838
522.65643
523.5403
528.941
18373.235
29362655
29343096
29343026
29343026
29343116
29343250
29343391
29343532
29343673
29343812
29343942
29344058
29344156
29344239
29344293
29344335
29344378
29344425
29344475
29344532
29344596
29344669
29344753
29344895
29345129
29345455
29345912
29346546
29347384
29348318
29348976
29349165
29349233
29349308
29349394
29349493
29349609
29349746
29349910
29350109
29350503
29351167
29352237
29354103
29357582
29363589
29368591
29369073
29369319
29369623
29370083
29371058
29372659
29375695
29382129
29398523
29443274
29471643
29473163
29475445
29479124
29485647
29498894
29531649
29641619
30075093
30239373
30241285
30244019
30248056
30254172
30264146
30280555
30308807
30357555
30435155
30539711
30650336
30748264
30821876
30874842
30910669
30932882
30945137
30950985
30953469
30954464
30954867
30955058
30955167
30955237
30955285
30955317
30955337
30955350
30955357
30955359
30955358
30955354
30955350
30955343
30955335
30955327
30955319
30955310
30955302
30955292
30955288
30955277
30955293
30955287
30955276
570.33313
525.64055
521.55911
521.64077
521.76585
521.77105
521.75717
521.74795
521.74452
521.74574
521.75103
521.76028
521.77376
521.79204
521.81609
521.8477
521.88885
521.94629
522.01804
522.16449
522.19252
523.07626
528.48288
18003.002
16206412
16059287
16059085
16059090
16059386
16059834
16060307
16060777
16061250
16061716
16062152
16062541
16062865
16063138
16063311
16063441
16063574
16063717
16063876
16064053
16064254
16064485
16064752
16065219
16066001
16067097
16068641
16070795
16073650
16076829
16079060
16079669
16079859
16080069
16080312
16080597
16080932
16081333
16081818
16082414
16083673
16085851
16089409
16095696
16107513
16128010
16145027
16146456
16147034
16147768
16148983
16151900
16156880
16166366
16187121
16241752
16393536
16488118
16488775
16489753
16491330
16494125
16499801
16513833
16560906
16745895
16815745
16816558
16817720
16819435
16822034
16826272
16833243
16845242
16865937
16898859
16943173
16990004
17031414
17062513
17084874
17099993
17109363
17114533
17116999
17118047
17118466
17118636
17118716
17118762
17118792
17118812
17118826
17118834
17118840
17118842
17118843
17118843
17118841
17118839
17118837
17118833
17118830
17118826
17118823
17118819
17118815
17118813
17118809
17118815
17118813
17118809
569.90702
525.03438
520.9408
521.02073
521.14576
521.15086
521.13688
521.1276
521.12412
521.12531
521.13059
521.13984
521.15332
521.17163
521.19572
521.22738
521.26861
521.32616
521.39803
521.54478
521.57279
522.45635
527.8708
17616.889
10053168
9792577.2
9792074
9792089.6
9792870.8
9794054.8
9795309.4
9796561.9
9797825.4
9799066.9
9800229.5
9801262
9802115.4
9802829.3
9803265.6
9803583.4
9803905.3
9804255.9
9804644.7
9805083.2
9805583.7
9806161.1
9806833.8
9808047.8
9810118.9
9813041.3
9817185.2
9822991.3
9830705.9
9839304.1
9845299.6
9846852.3
9847244.9
9847678.4
9848186.5
9848788.5
9849509.4
9850383.3
9851456.8
9852797.9
9855911.5
9861485.4
9870773.7
9887445.1
9919140.4
9974462.4
10020156
10023026
10023313
10023677
10024279
10025726
10028194
10032897
10043183
10070243
10145280
10191903
10192227
10192709
10193486
10194864
10197661
10204574
10227758
10318673
10352900
10353299
10353868
10354709
10355982
10358058
10361474
10367351
10377486
10393600
10415276
10438164
10458388
10473566
10484475
10491848
10496417
10498937
10500139
10500650
10500855
10500938
10500977
10500999
10501014
10501023
10501030
10501034
10501037
10501038
10501039
10501038
10501038
10501037
10501035
10501034
10501032
10501030
10501029
10501027
10501025
10501024
10501022
10501025
10501024
10501022
569.36333
524.2602
520.15104
520.22878
520.35372
520.3587
520.3446
520.33523
520.33169
520.33285
520.33811
520.34736
520.36085
520.37919
520.40332
520.43505
520.47637
520.53407
520.60609
520.75323
520.78121
521.66454
527.08836
17212.427
6645116.9
6410149.8
6409049.5
6409087.1
6410840.8
6413516.1
6416367.1
6419223.4
6422109.8
6424946.2
6427596.3
6429936.5
6431847.8
6433422.9
6434331.3
6434948.3
6435566.7
6436245
6437004.4
6437868.9
6438865.5
6440026.7
6441393.4
6444015
6448636.4
6455238.1
6464695.5
6478050
6495881
6515760.5
6529432
6532518.4
6532767.9
6533004.1
6533281.1
6533609.3
6534002.3
6534478.6
6535063.8
6535794.8
6537492.7
6540530.8
6545592.8
6554675.7
6571932.9
6602014.7
6626807.7
6628360.7
6628516.3
6628713.7
6629040.8
6629825.7
6631165.5
6633717.2
6639298
6653972.7
6694608
6719792.4
6719967.5
6720227.9
6720647.7
6721392.1
6722903.4
6726638.5
6739159.6
6788184.4
6806593.1
6806807.4
6807113.7
6807566
6808251.2
6809368.3
6811205.8
6814367.5
6819818.2
6828481.7
6840129.3
6852421.1
6863276.2
6871419.2
6877270
6881223.5
6883673
6885023.9
6885668.4
6885942.2
6886051.8
6886096.2
6886117.2
6886129.2
6886137
6886142.2
6886145.8
6886148
6886149.4
6886150.1
6886150.4
6886150.3
6886149.9
6886149.4
6886148.6
6886147.8
6886146.9
6886145.9
6886145
6886144.1
6886143
6886142.6
6886141.4
6886143.1
6886142.4
6886141.3
568.68934
523.2992
519.17064
519.24564
519.37047
519.3753
519.36105
519.35156
519.34795
519.34907
519.3543
519.36355
519.37706
519.39543
519.41962
519.45144
519.49287
519.55074
519.62294
519.77058
519.79852
520.68159
526.11576
16786.801
4586679.4
4418006.1
4415917.2
4415991.7
4419370.8
4424578.5
4430174.8
4435807.4
4441504
4447081.8
4452241.9
4456704.9
4460198.8
4462907.9
4464103.3
4464570.2
4464940.9
4465336
4465777.6
4466280.3
4466859.8
4467534.9
4468329.5
4469855.5
4472542.6
4476380.5
4481876.8
4489634.6
4499985.1
4511512.3
4519427.3
4521210.2
4521354.5
4521491.4
4521651.9
4521842.1
4522069.8
4522345.8
4522684.8
4523108.4
4524092.7
4525853.1
4528786
4534047.3
4544038.9
4561437.1
4575748
4576641.7
4576731.5
4576845.5
4577034.4
4577487.7
4578261.4
4579734.9
4582957.4
4591428.3
4614858.2
4629345.5
4629446.2
4629596.1
4629837.7
4630266.2
4631136.1
4633285.9
4640491.1
4668667.4
4679221.9
4679344.8
4679520.6
4679780.1
4680173.2
4680814.2
4681868.3
4683682.1
4686808.4
4691776.1
4698452.3
4705494.4
4711711
4716372.7
4719721.3
4721983.7
4723385.2
4724158.1
4724526.8
4724683.4
4724746.1
4724771.6
4724783.5
4724790.4
4724794.9
4724797.9
4724799.9
4724801.2
4724802
4724802.4
4724802.5
4724802.5
4724802.3
4724801.9
4724801.5
4724801.1
4724800.5
4724800
4724799.4
4724798.9
4724798.3
4724798.1
4724797.4
4724798.4
4724798
4724797.3
567.87035
522.12953
517.9772
518.04886
518.17354
518.17818
518.16374
518.15412
518.15042
518.15148
518.15669
518.16593
518.17946
518.19788
518.22214
518.25406
518.29563
518.35371
518.42614
518.57437
518.60224
519.48509
524.92971
16337.225
3264231.4
3161774.8
3160478.4
3160521
3162575.8
3165742.9
3169145.7
3172569.4
3176030.7
3179418.4
3182551
3185259.1
3187378.1
3189018.3
3189743.7
3190027
3190251.9
3190491.7
3190759.7
3191064.8
3191416.4
3191826.1
3192308.3
3193235.5
3194866.3
3197195.2
3200529.8
3205234.5
3211507.8
3218487.2
3223272.1
3224347.4
3224434.6
3224517.4
3224614.6
3224729.6
3224867.4
3225034.4
3225239.6
3225495.9
3226092
3227157.5
3228932.5
3232116.2
3238160
3248674.4
3257306.6
3257843.8
3257898
3257966.8
3258080.9
3258354.5
3258821.5
3259711
3261656.1
3266768
3280893.9
3289608.8
3289669.4
3289759.7
3289905.1
3290163.1
3290686.8
3291981.1
3296318.6
3313263.1
3319595.6
3319669.4
3319775
3319930.9
3320166.9
3320551.8
3321184.8
3322274
3324150.9
3327132.9
3331139
3335363.1
3339090.9
3341885.4
3343892.5
3345248.2
3346088.1
3346551.2
3346772.1
3346866
3346903.5
3346918.8
3346926
3346930.1
3346932.7
3346934.5
3346935.7
3346936.5
3346937
3346937.2
3346937.3
3346937.3
3346937.2
3346937
3346936.7
3346936.4
3346936.1
3346935.8
3346935.5
3346935.2
3346934.8
3346934.6
3346934.2
3346934.8
3346934.6
3346934.2
566.88975
520.72621
516.54516
516.61282
516.73729
516.7417
516.72703
516.71725
516.71344
516.71443
516.7196
516.72884
516.74239
516.76086
516.7852
516.81725
516.85899
516.91733
516.99001
517.13896
517.16675
518.04947
523.50343
15861.132
2375287.8
2310975.6
2310134.7
2310158.5
2311446.6
2313432.9
2315566.6
2317712.9
2319882
2322004.3
2323966
2325661.1
2326986.7
2328011
2328465.1
2328642.5
2328783.3
2328933.4
2329101.2
2329292.2
2329512.3
2329768.8
2330070.7
2330652
2331673.3
2333131.5
2335219
2338163.3
2342087.1
2346448.6
2349434
2350103.2
2350157.6
2350209.4
2350270
2350341.9
2350428
2350532.3
2350660.5
2350820.6
2351193.3
2351859
2352968
2354956.9
2358731.5
2365292.7
2370669.5
2371002.9
2371036.7
2371079.6
2371150.7
2371321.3
2371612.5
2372167
2373379.6
2376566.1
2385364.5
2390780.8
2390818.5
2390874.6
2390965.1
2391125.6
2391451.4
2392256.7
2394955.1
2405487.4
2409414.6
2409460.4
2409526
2409622.7
2409769.3
2410008.3
2410401.2
2411077.4
2412242.5
2414093.1
2416578.6
2419198.6
2421510.2
2423242.7
2424486.7
2425327
2425847.5
2426134.5
2426271.4
2426329.5
2426352.8
2426362.3
2426366.7
2426369.3
2426370.9
2426372
2426372.8
2426373.3
2426373.6
2426373.7
2426373.8
2426373.7
2426373.7
2426373.6
2426373.4
2426373.2
2426373
2426372.8
2426372.6
2426372.4
2426372.2
2426372.1
2426371.9
2426372.2
2426372.1
2426371.8
565.72907
519.06119
514.84579
514.90867
515.03287
515.03701
515.02206
515.01208
515.00815
515.00906
515.01419
515.02342
515.037
515.05553
515.07997
515.11216
515.15409
515.21274
515.28573
515.43552
515.46321
516.34598
521.80651
15356.311
1757163.1
1715762.7
1715193
1715205.1
1716030.8
1717305.2
1718674
1720050.7
1721441.7
1722802.2
1724059.3
1725145.1
1725993.8
1726648.3
1726939.2
1727052.9
1727143.1
1727239.2
1727346.7
1727469.1
1727610.2
1727774.6
1727968
1728341.1
1728995.7
1729930.2
1731268
1733154.2
1735666.7
1738456.9
1740363.9
1740790.2
1740825
1740858.1
1740896.9
1740942.8
1740997.9
1741064.6
1741146.6
1741249
1741487.6
1741913.5
1742623
1743895.3
1746309.4
1750502.5
1753932.6
1754144.5
1754166.1
1754193.4
1754238.9
1754347.8
1754533.8
1754887.9
1755662.3
1757697.1
1763311.4
1766760.3
1766784.3
1766820.1
1766877.8
1766980.1
1767187.8
1767701.2
1769421.5
1776130.9
1778627.1
1778656.3
1778698
1778759.5
1778852.8
1779004.9
1779255
1779685.2
1780426.6
1781603.9
1783184.9
1784850.8
1786320.4
1787421.6
1788212.2
1788746.2
1789076.9
1789259.3
1789346.3
1789383.2
1789398
1789404
1789406.8
1789408.5
1789409.5
1789410.2
1789410.7
1789411
1789411.2
1789411.3
1789411.3
1789411.3
1789411.3
1789411.2
1789411.1
1789411
1789410.8
1789410.7
1789410.6
1789410.5
1789410.3
1789410.3
1789410.1
1789410.3
1789410.2
1789410.1
564.36804
517.10337
512.84716
512.9044
513.02826
513.03206
513.01679
513.00657
513.00249
513.0033
513.00838
513.0176
513.03121
513.0498
513.07436
513.10672
513.14889
513.20789
513.28125
513.43203
513.45957
514.34269
519.80486
14821.025
1316155.9
1288963
1288558.1
1288562.6
1289100.5
1289932.1
1290825.5
1291723.9
1292631.5
1293518.9
1294338.6
1295046.3
1295599.2
1296024.7
1296214.4
1296288.5
1296347.3
1296410
1296480
1296559.8
1296651.8
1296759
1296885.1
1297128.8
1297555.8
1298165.4
1299037.9
1300267.8
1301905.4
1303722.4
1304962.3
1305238.7
1305261.3
1305282.8
1305308.1
1305338
1305373.8
1305417.3
1305470.7
1305537.4
1305692.8
1305970.2
1306432.3
1307261
1308832.8
1311561.3
1313789.3
1313926.4
1313940.4
1313958.2
1313987.8
1314058.6
1314179.5
1314409.9
1314913.5
1316236.7
1319885.4
1322122
1322137.6
1322160.9
1322198.3
1322264.7
1322399.6
1322733
1323850.2
1328204.3
1329820.7
1329839.6
1329866.6
1329906.6
1329967
1330065.6
1330227.8
1330506.7
1330987.4
1331750.5
1332775.1
1333854.6
1334806.6
1335519.8
1336031.9
1336377.7
1336591.8
1336709.9
1336766.2
1336790.2
1336799.8
1336803.6
1336805.5
1336806.5
1336807.2
1336807.7
1336808
1336808.2
1336808.3
1336808.4
1336808.4
1336808.4
1336808.3
1336808.3
1336808.2
1336808.1
1336808.1
1336808
1336807.9
1336807.8
1336807.7
1336807.7
1336807.6
1336807.7
1336807.7
1336807.6
562.78476
514.81852
510.51415
510.56476
510.68818
510.69158
510.67592
510.66543
510.66116
510.66186
510.66688
510.67609
510.68973
510.70841
510.73309
510.76566
510.80809
510.8675
510.94128
511.09323
511.12056
512.00446
517.46048
14254.114
995241.17
977077.65
976773.64
976772.63
977127.17
977676.74
978267.41
978861.39
979461.37
980047.91
980589.5
981056.89
981421.86
981702.22
981827.51
981876.41
981915.24
981956.65
982002.94
982055.66
982116.44
982187.26
982270.62
982431.94
982714.24
983117.26
983694
984506.86
985588.66
986788.04
987605.17
987786.84
987801.69
987815.9
987832.57
987852.32
987875.98
987904.65
987939.89
987983.9
988086.61
988269.77
988574.88
989121.98
990159.61
991959.66
993426.89
993516.82
993526.06
993537.79
993557.31
993604.01
993683.73
993835.59
994167.7
995040.23
997444.82
998915.79
998926.07
998941.36
998966.02
999009.77
999098.6
999318.17
1000054
1002920
1003981.6
1003994.1
1004011.8
1004038.1
1004077.9
1004142.7
1004249.4
1004432.8
1004748.9
1005250.7
1005924.4
1006633.9
1007259.6
1007728.2
1008064.7
1008291.9
1008432.6
1008510.2
1008547.2
1008562.9
1008569.2
1008571.8
1008573
1008573.6
1008574.1
1008574.4
1008574.6
1008574.7
1008574.8
1008574.8
1008574.9
1008574.8
1008574.8
1008574.8
1008574.8
1008574.7
1008574.6
1008574.6
1008574.5
1008574.5
1008574.4
1008574.4
1008574.3
1008574.4
1008574.4
1008574.3
560.95578
512.16938
507.8084
507.8513
507.97415
507.97707
507.96096
507.95014
507.94566
507.94622
507.95117
507.96036
507.97404
507.99281
508.01765
508.05044
508.09318
508.15307
508.22733
508.38063
508.40768
509.29298
514.73137
13655.114
758119.05
745805.7
745562.5
745557.38
745792.71
746159.26
746553.56
746950.16
747350.77
747742.35
748103.82
748415.65
748659.02
748845.59
748929.18
748961.78
748987.67
749015.28
749046.16
749081.33
749121.9
749169.17
749224.82
749332.72
749521.29
749790.49
750175.72
750718.56
751440.7
752240.69
752784.86
752905.5
752915.38
752924.85
752935.96
752949.12
752964.9
752984.02
753007.51
753036.87
753105.44
753227.65
753431.24
753796.29
754488.54
755688.74
756665.32
756724.92
756731.08
756738.89
756751.9
756783.02
756836.15
756937.37
757158.73
757740.28
759342.18
760320.08
760326.92
760337.09
760353.51
760382.63
760441.77
760587.96
761077.9
762985.19
763690.14
763698.41
763710.23
763727.69
763754.14
763797.26
763868.19
763990.19
764200.36
764534.03
764981.84
765453.41
765869.23
766180.64
766404.2
766555.15
766648.63
766700.17
766724.76
766735.2
766739.38
766741.08
766741.88
766742.34
766742.64
766742.83
766742.97
766743.05
766743.1
766743.13
766743.14
766743.13
766743.12
766743.1
766743.07
766743.03
766743
766742.96
766742.92
766742.89
766742.84
766742.83
766742.78
766742.84
766742.82
766742.77
558.85632
509.11563
504.6884
504.72234
504.84447
504.84683
504.83018
504.81898
504.81424
504.81465
504.81951
504.82868
504.84239
504.86127
504.88628
504.91934
504.96244
505.02287
505.09768
505.25254
505.27922
506.16677
511.57136
13024.358
580811.14
572346.84
572138.62
572130.08
572286.7
572532.71
572797.76
573064.52
573334.02
573597.43
573840.54
574050.19
574213.73
574338.83
574395.02
574416.9
574434.27
574452.81
574473.56
574497.2
574524.47
574556.27
574593.71
574666.44
574793.41
574974.68
575234.06
575599.5
576085.48
576623.42
576988.76
577069.51
577076.13
577082.48
577089.95
577098.79
577109.39
577122.24
577138.04
577157.77
577203.92
577286.13
577423.09
577668.68
578134.32
578941.2
579596.59
579636.42
579640.55
579645.8
579654.54
579675.45
579711.15
579779.18
579927.95
580318.83
581394.96
582050.57
582055.15
582061.98
582073
582092.55
582132.25
582230.42
582559.43
583839.56
584311.69
584317.23
584325.16
584336.86
584354.6
584383.53
584431.1
584512.93
584653.9
584877.67
585177.95
585494.11
585772.86
585981.59
586131.42
586232.59
586295.24
586329.79
586346.26
586353.26
586356.07
586357.21
586357.74
586358.05
586358.25
586358.38
586358.47
586358.53
586358.56
586358.58
586358.58
586358.58
586358.57
586358.55
586358.53
586358.51
586358.48
586358.45
586358.43
586358.4
586358.37
586358.36
586358.33
586358.37
586358.35
586358.32
556.46052
505.61406
501.10952
501.13312
501.25433
501.25602
501.23874
501.2271
501.22206
501.22228
501.22704
501.23618
501.24994
501.26893
501.29414
501.3275
501.371
501.43206
501.50749
501.66414
501.69031
502.5813
507.93
12363.071
446986.02
441086.23
440895.77
440884.12
440988.04
441153.69
441332.67
441513.01
441695.29
441873.49
442037.93
442179.69
442290.22
442374.58
442412.54
442427.29
442438.99
442451.49
442465.49
442481.46
442499.9
442521.4
442546.73
442596.06
442682.08
442804.9
442980.63
443228.2
443557.32
443921.35
444168.18
444222.56
444227.02
444231.31
444236.34
444242.32
444249.48
444258.17
444268.85
444282.2
444313.46
444369.11
444461.84
444628.11
444943.35
445489.32
445932.01
445958.8
445961.59
445965.13
445971.04
445985.18
446009.32
446055.34
446155.98
446420.42
447148.13
447590.56
447593.66
447598.27
447605.71
447618.92
447645.75
447712.1
447934.51
448799.48
449117.8
449121.54
449126.89
449134.79
449146.77
449166.3
449198.43
449253.69
449348.88
449499.97
449702.69
449916.11
450104.25
450245.12
450346.24
450414.51
450456.79
450480.1
450491.22
450495.94
450497.84
450498.6
450498.97
450499.17
450499.31
450499.4
450499.46
450499.49
450499.51
450499.53
450499.53
450499.52
450499.51
450499.5
450499.49
450499.47
450499.45
450499.43
450499.41
450499.39
450499.37
450499.36
450499.34
450499.37
450499.36
450499.33
553.74184
501.61873
497.02417
497.03591
497.15595
497.15683
497.13882
497.12666
497.12128
497.12127
497.12591
497.13502
497.14882
497.16795
497.19338
497.22707
497.27104
497.3328
497.40892
497.56763
497.59312
498.48915
503.75251
11673.454
345235.43
341062.74
340878.11
340863.4
340931.57
341043.08
341164.19
341286.46
341410.19
341531.19
341642.86
341739.11
341814.11
341871.21
341896.95
341906.89
341914.77
341923.21
341932.69
341943.5
341956
341970.6
341987.8
342021.41
342079.96
342163.57
342283.22
342451.76
342675.74
342923.31
343090.9
343127.7
343130.71
343133.61
343137.02
343141.07
343145.93
343151.83
343159.08
343168.15
343189.42
343227.29
343290.38
343403.52
343618.01
343989.32
344289.87
344307.98
344309.86
344312.26
344316.28
344325.88
344342.29
344373.57
344442.01
344621.83
345116.48
345416.61
345418.71
345421.83
345426.88
345435.85
345454.08
345499.16
345650.3
346237.84
346453.6
346456.14
346459.76
346465.13
346473.25
346486.51
346508.32
346545.84
346610.47
346713.04
346850.64
346995.48
347123.16
347218.74
347287.36
347333.68
347362.37
347378.19
347385.73
347388.94
347390.22
347390.74
347390.99
347391.13
347391.22
347391.28
347391.32
347391.34
347391.36
347391.36
347391.36
347391.36
347391.35
347391.34
347391.33
347391.32
347391.3
347391.29
347391.27
347391.26
347391.24
347391.24
347391.22
347391.24
347391.23
347391.2
550.67349
497.08125
492.3821
492.38026
492.49883
492.49875
492.47989
492.46712
492.46134
492.46107
492.46556
492.47462
492.48847
492.50774
492.53343
492.56751
492.61198
492.67455
492.75144
492.91249
492.93708
493.8403
498.9798
10958.73
267421.77
264423.63
264236.26
264218.35
264261.9
264336.58
264418.43
264501.37
264585.47
264667.8
264743.81
264809.31
264860.31
264899.05
264916.51
264923.19
264928.48
264934.16
264940.56
264947.88
264956.37
264966.29
264978
265000.96
265040.95
265098.08
265179.84
265295.02
265448.05
265617.06
265731.29
265756.28
265758.31
265760.27
265762.58
265765.33
265768.63
265772.64
265777.58
265783.76
265798.29
265824.15
265867.24
265944.53
266091.06
266344.59
266549.46
266561.75
266563.02
266564.65
266567.39
266573.94
266585.13
266606.48
266653.2
266775.98
267113.59
267318.02
267319.45
267321.58
267325.02
267331.13
267343.56
267374.32
267477.45
267878.22
268025.07
268026.8
268029.27
268032.92
268038.46
268047.5
268062.37
268087.95
268132.02
268201.95
268295.75
268394.47
268481.5
268546.65
268593.41
268624.98
268644.53
268655.31
268660.45
268662.64
268663.52
268663.87
268664.04
268664.14
268664.2
268664.24
268664.26
268664.28
268664.28
268664.29
268664.28
268664.28
268664.27
268664.26
268664.25
268664.24
268664.23
268664.22
268664.21
268664.19
268664.18
268664.17
268664.16
268664.17
268664.16
268664.14
547.22914
491.95121
487.13082
487.11345
487.23016
487.22893
487.20909
487.19562
487.18935
487.18878
487.1931
487.2021
487.216
487.23543
487.2614
487.2959
487.34095
487.40442
487.48216
487.64587
487.66927
488.58253
493.54901
10223.162
207639.62
205448.15
205251.59
205230.14
205256.42
205305.78
205360.77
205416.87
205473.96
205529.96
205581.71
205626.31
205661
205687.28
205699.08
205703.53
205707.03
205710.82
205715.12
205720.06
205725.8
205732.54
205740.5
205756.22
205783.6
205822.73
205878.77
205957.7
206062.56
206178.3
206256.39
206273.4
206274.76
206276.08
206277.64
206279.5
206281.74
206284.47
206287.83
206292.05
206302
206319.7
206349.22
206402.18
206502.6
206676.26
206816.36
206824.71
206825.57
206826.68
206828.54
206833.02
206840.67
206855.29
206887.28
206971.38
207202.57
207342.27
207343.24
207344.69
207347.03
207351.21
207359.71
207380.76
207451.37
207725.65
207825.94
207827.12
207828.8
207831.3
207835.08
207841.27
207851.44
207868.95
207899.1
207946.95
208011.12
208078.65
208138.18
208182.73
208214.72
208236.31
208249.68
208257.06
208260.58
208262.08
208262.68
208262.92
208263.04
208263.1
208263.14
208263.17
208263.18
208263.19
208263.19
208263.19
208263.19
208263.18
208263.17
208263.17
208263.16
208263.15
208263.13
208263.12
208263.11
208263.1
208263.09
208263.08
208263.07
208263.08
208263.07
208263.05
543.38371
486.1768
481.21619
481.18102
481.29538
481.29279
481.2718
481.25751
481.25069
481.24976
481.25387
481.2628
481.27675
481.29635
481.32262
481.3576
481.40328
481.46776
481.54644
481.71315
481.73498
482.66204
487.39449
9472.0188
161542.47
159911.19
159700.33
159674.85
159688.7
159720.44
159756.87
159794.51
159833.06
159871.02
159906.16
159936.45
159959.99
159977.76
159985.68
159988.56
159990.83
159993.31
159996.14
159999.44
160003.3
160007.84
160013.25
160024
160042.76
160069.61
160108.08
160162.3
160234.31
160313.74
160367.24
160378.84
160379.74
160380.61
160381.65
160382.9
160384.42
160386.27
160388.55
160391.43
160398.25
160410.39
160430.66
160467.04
160536.01
160655.27
160751.31
160757
160757.58
160758.32
160759.59
160762.65
160767.89
160777.92
160799.88
160857.63
161016.35
161112.06
161112.72
161113.71
161115.31
161118.17
161123.99
161138.44
161186.9
161375.11
161443.79
161444.59
161445.74
161447.45
161450.04
161454.28
161461.27
161473.28
161493.98
161526.81
161570.84
161617.17
161658.01
161688.58
161710.52
161725.34
161734.51
161739.57
161741.99
161743.02
161743.43
161743.6
161743.68
161743.73
161743.75
161743.77
161743.78
161743.78
161743.78
161743.77
161743.77
161743.76
161743.75
161743.74
161743.73
161743.72
161743.71
161743.7
161743.69
161743.68
161743.67
161743.66
161743.65
161743.65
161743.64
161743.62
539.1144
479.70563
474.58321
474.52759
474.63897
474.63475
474.61243
474.59718
474.58972
474.58837
474.59223
474.60106
474.61506
474.63484
474.66145
474.69695
474.74333
474.80893
474.88864
475.05872
475.0785
476.02422
480.44833
8711.4871
125893.87
124657.24
124427.86
124397.7
124402.27
124421.5
124444.96
124469.76
124495.49
124520.99
124544.68
124565.12
124580.98
124592.89
124598.11
124599.89
124601.27
124602.83
124604.64
124606.79
124609.33
124612.37
124616
124623.34
124636.19
124654.61
124681.05
124718.33
124767.86
124822.47
124859.17
124867.07
124867.65
124868.21
124868.89
124869.72
124870.73
124871.97
124873.52
124875.47
124880.14
124888.48
124902.41
124927.43
124974.9
125056.96
125122.92
125126.8
125127.18
125127.67
125128.53
125130.62
125134.21
125141.1
125156.2
125195.93
125305.12
125370.83
125371.28
125371.94
125373.03
125374.99
125378.98
125388.91
125422.24
125551.67
125598.8
125599.34
125600.12
125601.3
125603.08
125606
125610.81
125619.08
125633.32
125655.91
125686.2
125718.07
125746.16
125767.19
125782.28
125792.48
125798.79
125802.28
125803.94
125804.65
125804.94
125805.05
125805.11
125805.14
125805.16
125805.16
125805.17
125805.16
125805.16
125805.15
125805.14
125805.14
125805.12
125805.11
125805.1
125805.09
125805.08
125805.07
125805.06
125805.05
125805.04
125805.03
125805.02
125805.01
125805
125804.98
534.40204
472.4858
467.17711
467.09784
467.20545
467.19928
467.1754
467.15905
467.15084
467.14899
467.15256
467.16127
467.1753
467.19528
467.22225
467.25832
467.30548
467.37231
467.45312
467.627
467.6441
468.61473
472.64158
7948.5324
98261.016
97308.164
97056.63
97020.944
97018.211
97028.342
97042.56
97058.318
97075.067
97091.892
97107.62
97121.219
97131.738
97139.586
97142.894
97143.875
97144.612