/*--------------------------------*- C++ -*----------------------------------*\
| =========                 |                                                 |
| \\      /  F ield         | OpenFOAM: The Open Source CFD Toolbox           |
|  \\    /   O peration     | Version:  2206                                  |
|   \\  /    A nd           | Website:  www.openfoam.com                      |
|    \\/     M anipulation  |                                                 |
\*---------------------------------------------------------------------------*/
FoamFile
{
    version     2.0;
    format      ascii;
    arch        "LSB;label=32;scalar=64";
    class       volScalarField;
    location    "700";
    object      p;
}
// * * * * * * * * * * * * * * * * * * * * * * * * * * * * * * * * * * * * * //

dimensions      [0 2 -2 0 0 0 0];

internalField   nonuniform List<scalar> 
13056
(
0.012028545
0.012131959
0.012351265
0.012631312
0.012970594
0.01336937
0.013825782
0.014339029
0.014910426
0.015543187
0.016242303
0.017014885
0.017870772
0.018823869
0.019893111
0.021107626
0.02250439
0.024158411
0.026132497
0.028711304
0.031834405
0.037228929
0.04237056
0.081390648
0.05154882
0.0023644955
0.0010556696
0.0019329266
0.0024896129
0.002929877
0.0031949861
0.0033829724
0.003524633
0.0036260328
0.0036972534
0.003747991
0.0037843242
0.0038098978
0.0038270045
0.0038376007
0.0038431239
0.0038444269
0.0038422783
0.003837357
0.0038300568
0.0038206784
0.0038095042
0.0037967415
0.0037825693
0.0037671188
0.0037504589
0.0037326684
0.0037138082
0.0036939196
0.0036730463
0.0036511947
0.0036283495
0.0036045122
0.0035796698
0.0035538026
0.0035268842
0.0034988881
0.0034697599
0.0034394233
0.0034078036
0.0033748214
0.0033404002
0.0033044554
0.0032668937
0.0032276349
0.0031865823
0.0031436209
0.0030986388
0.0030515293
0.0030021929
0.0029505668
0.0028966229
0.0028404273
0.0027820814
0.0027216402
0.0026593807
0.0025956412
0.0025308459
0.0024659551
0.0024024311
0.0023422161
0.0022884473
0.0022456403
0.0022153101
0.0022084188
0.0022298766
0.0022811155
0.0023730574
0.0025108205
0.0026981901
0.0029346492
0.0032123308
0.003527954
0.0038649009
0.0041744067
0.0044094693
0.0045498644
0.0045895513
0.0045427172
0.0044433204
0.0043155066
0.0041715269
0.0040223764
0.0038714556
0.003717365
0.0035632584
0.0034069447
0.0032450029
0.0030812452
0.0029174539
0.0027551277
0.0025965484
0.0024400158
0.0022850128
0.0021342702
0.0019874206
0.0018428641
0.0017011823
0.0015640526
0.0014312349
0.0013011232
0.0011746942
0.0010525791
0.00093687083
0.00082710776
0.00072591507
0.00062979051
0.00056769787
0.00048120475
0.00066671682
-0.00051316837
0.012028545
0.012131959
0.012351265
0.012631312
0.012970595
0.01336937
0.013825782
0.014339029
0.014910426
0.015543187
0.016242303
0.017014886
0.017870773
0.018823871
0.019893113
0.021107628
0.022504393
0.024158416
0.026132503
0.028711314
0.031834418
0.037228957
0.04237061
0.081385829
0.051560251
0.0023717762
0.0010575327
0.0019337693
0.0024901288
0.0029302397
0.0031952605
0.0033831904
0.0035248115
0.0036261823
0.0036973809
0.0037481013
0.0037844209
0.0038099833
0.0038270808
0.0038376691
0.0038431858
0.0038444832
0.0038423296
0.003837404
0.0038301001
0.0038207184
0.0038095412
0.0037967759
0.0037826013
0.0037671486
0.0037504868
0.0037326945
0.0037138327
0.0036939427
0.0036730679
0.0036512151
0.0036283687
0.0036045304
0.0035796869
0.0035538188
0.0035268996
0.0034989027
0.0034697737
0.0034394365
0.003407816
0.0033748332
0.0033404115
0.0033044661
0.0032669039
0.0032276445
0.0031865915
0.0031436296
0.003098647
0.0030515371
0.0030022002
0.0029505737
0.0028966295
0.0028404335
0.0027820872
0.0027216457
0.0026593858
0.0025956458
0.0025308502
0.0024659589
0.0024024345
0.0023422191
0.0022884498
0.0022456423
0.0022153115
0.0022084196
0.0022298766
0.0022811147
0.0023730558
0.002510818
0.0026981867
0.002934645
0.0032123258
0.0035279483
0.0038648949
0.0041744006
0.0044094637
0.0045498597
0.0045895474
0.0045427145
0.0044433185
0.0043155053
0.0041715261
0.0040223758
0.0038714552
0.0037173648
0.0035632583
0.0034069447
0.003245003
0.0030812454
0.0029174542
0.0027551281
0.0025965488
0.0024400163
0.0022850133
0.0021342707
0.0019874211
0.0018428647
0.0017011828
0.0015640531
0.0014312354
0.0013011236
0.0011746947
0.0010525796
0.0009368713
0.00082710822
0.00072591553
0.00062979097
0.00056769838
0.00048120529
0.00066671738
-0.00051316802
0.012028545
0.012131959
0.012351265
0.012631312
0.012970595
0.01336937
0.013825783
0.014339029
0.014910427
0.015543188
0.016242304
0.017014887
0.017870774
0.018823872
0.019893115
0.021107631
0.022504397
0.024158421
0.02613251
0.028711325
0.031834433
0.037228989
0.042370648
0.08138095
0.051575996
0.0023788261
0.0010597423
0.001934777
0.0024907458
0.0029306735
0.0031955885
0.0033834511
0.0035250249
0.0036263609
0.0036975333
0.0037482333
0.0037845365
0.0038100856
0.003827172
0.003837751
0.0038432598
0.0038445504
0.003842391
0.0038374603
0.0038301518
0.0038207662
0.0038095854
0.003796817
0.0037826395
0.0037671843
0.0037505201
0.0037327257
0.003713862
0.0036939702
0.0036730938
0.0036512395
0.0036283917
0.0036045521
0.0035797075
0.0035538383
0.003526918
0.0034989201
0.0034697903
0.0034394522
0.0034078309
0.0033748474
0.0033404249
0.0033044788
0.003266916
0.003227656
0.0031866024
0.00314364
0.0030986569
0.0030515464
0.0030022091
0.0029505821
0.0028966374
0.0028404409
0.0027820941
0.0027216521
0.0026593918
0.0025956513
0.0025308552
0.0024659635
0.0024024386
0.0023422226
0.0022884527
0.0022456447
0.0022153131
0.0022084205
0.0022298767
0.0022811138
0.002373054
0.0025108151
0.0026981827
0.0029346399
0.0032123199
0.0035279416
0.0038648876
0.0041743934
0.004409457
0.0045498541
0.0045895429
0.0045427113
0.0044433163
0.0043155038
0.004171525
0.0040223751
0.0038714548
0.0037173645
0.0035632583
0.0034069448
0.0032450032
0.0030812457
0.0029174545
0.0027551285
0.0025965493
0.0024400168
0.0022850139
0.0021342713
0.0019874217
0.0018428653
0.0017011834
0.0015640537
0.001431236
0.0013011242
0.0011746952
0.0010525802
0.00093687186
0.00082710877
0.00072591608
0.00062979152
0.00056769898
0.00048120592
0.00066671804
-0.00051316761
0.012028545
0.012131959
0.012351265
0.012631312
0.012970595
0.01336937
0.013825783
0.01433903
0.014910427
0.015543189
0.016242305
0.017014888
0.017870776
0.018823874
0.019893117
0.021107634
0.022504401
0.024158427
0.026132517
0.028711337
0.031834448
0.037229018
0.042370686
0.081376173
0.051593551
0.0023840509
0.0010618212
0.0019357641
0.0024913503
0.0029310985
0.0031959099
0.0033837065
0.0035252339
0.003626536
0.0036976827
0.0037483626
0.0037846498
0.0038101858
0.0038272613
0.0038378313
0.0038433323
0.0038446163
0.0038424511
0.0038375154
0.0038302026
0.003820813
0.0038096287
0.0037968572
0.003782677
0.0037672192
0.0037505528
0.0037327563
0.0037138907
0.0036939972
0.0036731192
0.0036512635
0.0036284143
0.0036045734
0.0035797276
0.0035538573
0.003526936
0.0034989372
0.0034698065
0.0034394675
0.0034078455
0.0033748612
0.0033404381
0.0033044913
0.0032669279
0.0032276673
0.0031866131
0.0031436501
0.0030986665
0.0030515555
0.0030022177
0.0029505902
0.0028966451
0.0028404482
0.0027821009
0.0027216585
0.0026593977
0.0025956568
0.0025308602
0.002465968
0.0024024426
0.0023422261
0.0022884557
0.002245647
0.0022153147
0.0022084213
0.0022298768
0.002281113
0.0023730521
0.0025108123
0.0026981788
0.002934635
0.0032123141
0.003527935
0.0038648805
0.0041743862
0.0044094504
0.0045498486
0.0045895386
0.0045427082
0.0044433141
0.0043155023
0.004171524
0.0040223744
0.0038714544
0.0037173643
0.0035632582
0.0034069448
0.0032450034
0.003081246
0.0029174549
0.0027551289
0.0025965498
0.0024400173
0.0022850144
0.0021342719
0.0019874223
0.0018428658
0.001701184
0.0015640543
0.0014312365
0.0013011248
0.0011746958
0.0010525807
0.00093687241
0.00082710932
0.00072591663
0.00062979206
0.00056769957
0.00048120652
0.0006667187
-0.00051316722
0.012028545
0.012131959
0.012351265
0.012631313
0.012970595
0.013369371
0.013825783
0.01433903
0.014910428
0.015543189
0.016242306
0.017014889
0.017870777
0.018823876
0.01989312
0.021107637
0.022504405
0.024158432
0.026132525
0.028711348
0.031834463
0.037229049
0.04237073
0.081371056
0.051612199
0.002389879
0.0010639236
0.0019367746
0.0024919692
0.0029315336
0.0031962391
0.0033839681
0.003525448
0.0036267152
0.0036978356
0.003748495
0.0037847658
0.0038102883
0.0038273528
0.0038379134
0.0038434066
0.0038446837
0.0038425127
0.0038375718
0.0038302545
0.0038208609
0.0038096731
0.0037968984
0.0037827154
0.003767255
0.0037505862
0.0037327876
0.0037139201
0.0036940248
0.0036731452
0.0036512879
0.0036284374
0.0036045952
0.0035797483
0.0035538768
0.0035269545
0.0034989547
0.0034698231
0.0034394833
0.0034078605
0.0033748754
0.0033404515
0.0033045041
0.00326694
0.0032276788
0.0031866241
0.0031436605
0.0030986764
0.0030515649
0.0030022266
0.0029505986
0.002896653
0.0028404556
0.0027821079
0.002721665
0.0026594037
0.0025956623
0.0025308653
0.0024659726
0.0024024467
0.0023422297
0.0022884586
0.0022456494
0.0022153163
0.0022084221
0.0022298768
0.0022811121
0.0023730503
0.0025108093
0.0026981748
0.00293463
0.0032123081
0.0035279283
0.0038648732
0.0041743789
0.0044094437
0.004549843
0.0045895342
0.004542705
0.0044433118
0.0043155007
0.0041715229
0.0040223737
0.0038714539
0.0037173641
0.0035632581
0.0034069449
0.0032450035
0.0030812462
0.0029174552
0.0027551293
0.0025965503
0.0024400179
0.002285015
0.0021342725
0.0019874229
0.0018428665
0.0017011846
0.0015640549
0.0014312371
0.0013011254
0.0011746964
0.0010525813
0.00093687297
0.00082710987
0.00072591719
0.00062979262
0.00056770017
0.00048120712
0.00066671936
-0.00051316683
0.012028545
0.012131959
0.012351266
0.012631313
0.012970595
0.013369371
0.013825784
0.01433903
0.014910428
0.01554319
0.016242307
0.01701489
0.017870778
0.018823877
0.019893122
0.02110764
0.022504409
0.024158438
0.026132532
0.028711361
0.031834479
0.037229081
0.042370781
0.081365376
0.051631634
0.0023971317
0.0010661594
0.0019378479
0.0024926267
0.0029319959
0.0031965887
0.0033842459
0.0035256754
0.0036269056
0.003697998
0.0037486357
0.003784889
0.0038103973
0.00382745
0.0038380007
0.0038434854
0.0038447554
0.0038425781
0.0038376318
0.0038303096
0.0038209118
0.0038097203
0.0037969422
0.0037827561
0.003767293
0.0037506218
0.0037328209
0.0037139513
0.0036940541
0.0036731728
0.0036513139
0.0036284619
0.0036046184
0.0035797702
0.0035538976
0.0035269741
0.0034989733
0.0034698407
0.0034395
0.0034078763
0.0033748905
0.0033404659
0.0033045177
0.0032669529
0.0032276911
0.0031866357
0.0031436716
0.0030986868
0.0030515748
0.003002236
0.0029506075
0.0028966614
0.0028404635
0.0027821153
0.0027216719
0.0026594101
0.0025956683
0.0025308707
0.0024659775
0.002402451
0.0023422335
0.0022884618
0.002245652
0.0022153181
0.002208423
0.0022298769
0.0022811111
0.0023730483
0.0025108062
0.0026981705
0.0029346246
0.0032123018
0.0035279212
0.0038648655
0.0041743712
0.0044094365
0.004549837
0.0045895296
0.0045427016
0.0044433094
0.0043154991
0.0041715218
0.004022373
0.0038714535
0.0037173639
0.003563258
0.003406945
0.0032450037
0.0030812465
0.0029174556
0.0027551298
0.0025965508
0.0024400184
0.0022850156
0.0021342731
0.0019874235
0.0018428671
0.0017011852
0.0015640555
0.0014312378
0.001301126
0.001174697
0.0010525819
0.00093687357
0.00082711046
0.00072591778
0.0006297932
0.00056770081
0.00048120776
0.00066672007
-0.00051316641
0.012028545
0.012131959
0.012351266
0.012631313
0.012970595
0.013369371
0.013825784
0.014339031
0.014910429
0.015543191
0.016242308
0.017014891
0.01787078
0.01882388
0.019893125
0.021107644
0.022504414
0.024158445
0.026132541
0.028711375
0.031834498
0.037229116
0.04237084
0.081359019
0.05165209
0.0024051333
0.0010685686
0.001939003
0.0024933344
0.0029324935
0.003196965
0.0033845449
0.0035259202
0.0036271105
0.0036981728
0.003748787
0.0037850216
0.0038105146
0.0038275546
0.0038380946
0.0038435703
0.0038448325
0.0038426485
0.0038376963
0.003830369
0.0038209666
0.003809771
0.0037969893
0.0037827999
0.0037673339
0.00375066
0.0037328567
0.0037139849
0.0036940857
0.0036732025
0.0036513419
0.0036284883
0.0036046433
0.0035797937
0.0035539199
0.0035269952
0.0034989933
0.0034698597
0.003439518
0.0034078934
0.0033749067
0.0033404813
0.0033045324
0.0032669668
0.0032277043
0.0031866483
0.0031436835
0.0030986981
0.0030515855
0.0030022461
0.002950617
0.0028966704
0.002840472
0.0027821232
0.0027216793
0.002659417
0.0025956746
0.0025308765
0.0024659828
0.0024024557
0.0023422375
0.0022884652
0.0022456547
0.0022153199
0.002208424
0.0022298769
0.0022811101
0.0023730461
0.0025108029
0.0026981659
0.0029346188
0.0032122949
0.0035279135
0.0038648572
0.0041743628
0.0044094288
0.0045498305
0.0045895246
0.0045426979
0.0044433069
0.0043154973
0.0041715206
0.0040223722
0.003871453
0.0037173636
0.003563258
0.003406945
0.0032450039
0.0030812468
0.002917456
0.0027551303
0.0025965514
0.002440019
0.0022850162
0.0021342738
0.0019874242
0.0018428678
0.0017011859
0.0015640562
0.0014312384
0.0013011267
0.0011746976
0.0010525825
0.00093687421
0.00082711109
0.00072591841
0.00062979383
0.0005677015
0.00048120846
0.00066672083
-0.00051316595
0.012028545
0.012131959
0.012351266
0.012631313
0.012970596
0.013369371
0.013825784
0.014339031
0.014910429
0.015543192
0.016242309
0.017014892
0.017870782
0.018823882
0.019893128
0.021107648
0.02250442
0.024158452
0.026132551
0.028711391
0.031834519
0.037229156
0.04237091
0.081351847
0.05167384
0.0024137239
0.0010711806
0.0019402554
0.0024941019
0.0029330331
0.0031973731
0.0033848692
0.0035261856
0.0036273327
0.0036983624
0.0037489512
0.0037851654
0.0038106417
0.003827668
0.0038381964
0.0038436623
0.0038449161
0.0038427248
0.0038377662
0.0038304333
0.003821026
0.003809826
0.0037970404
0.0037828475
0.0037673783
0.0037507015
0.0037328955
0.0037140213
0.0036941199
0.0036732347
0.0036513723
0.0036285169
0.0036046704
0.0035798193
0.003553944
0.0035270181
0.003499015
0.0034698803
0.0034395375
0.0034079119
0.0033749243
0.003340498
0.0033045482
0.0032669819
0.0032277186
0.0031866618
0.0031436964
0.0030987104
0.0030515971
0.003002257
0.0029506274
0.0028966802
0.0028404812
0.0027821319
0.0027216874
0.0026594245
0.0025956815
0.0025308828
0.0024659885
0.0024024608
0.002342242
0.0022884689
0.0022456576
0.0022153219
0.002208425
0.002229877
0.002281109
0.0023730438
0.0025107992
0.0026981609
0.0029346125
0.0032122876
0.0035279051
0.0038648482
0.0041743538
0.0044094205
0.0045498235
0.0045895192
0.004542694
0.0044433041
0.0043154954
0.0041715193
0.0040223713
0.0038714525
0.0037173633
0.0035632579
0.0034069451
0.0032450041
0.0030812472
0.0029174565
0.0027551308
0.002596552
0.0024400197
0.0022850169
0.0021342745
0.0019874249
0.0018428685
0.0017011867
0.0015640569
0.0014312392
0.0013011274
0.0011746984
0.0010525833
0.00093687491
0.00082711178
0.0007259191
0.00062979452
0.00056770225
0.00048120921
0.00066672166
-0.00051316546
0.012028545
0.012131959
0.012351266
0.012631313
0.012970596
0.013369372
0.013825785
0.014339032
0.01491043
0.015543193
0.01624231
0.017014894
0.017870784
0.018823885
0.019893132
0.021107653
0.022504426
0.024158461
0.026132563
0.028711409
0.031834543
0.037229201
0.042370992
0.081343684
0.051697116
0.0024230397
0.0010740321
0.0019416231
0.0024949403
0.0029336225
0.0031978188
0.0033852233
0.0035264755
0.0036275754
0.0036985695
0.0037491305
0.0037853224
0.0038107806
0.0038277918
0.0038383076
0.0038437628
0.0038450075
0.0038428081
0.0038378427
0.0038305036
0.0038210909
0.0038098861
0.0037970962
0.0037828994
0.0037674267
0.0037507468
0.0037329379
0.0037140611
0.0036941573
0.0036732699
0.0036514054
0.0036285482
0.0036046999
0.0035798472
0.0035539705
0.0035270431
0.0034990387
0.0034699027
0.0034395588
0.0034079322
0.0033749435
0.0033405162
0.0033045656
0.0032669984
0.0032277342
0.0031866767
0.0031437105
0.0030987237
0.0030516098
0.003002269
0.0029506387
0.0028966908
0.0028404912
0.0027821413
0.0027216962
0.0026594327
0.0025956891
0.0025308897
0.0024659947
0.0024024663
0.0023422468
0.0022884729
0.0022456609
0.0022153241
0.0022084262
0.0022298771
0.0022811078
0.0023730413
0.0025107953
0.0026981555
0.0029346057
0.0032122795
0.003527896
0.0038648383
0.0041743439
0.0044094113
0.0045498159
0.0045895133
0.0045426896
0.0044433011
0.0043154933
0.0041715179
0.0040223704
0.0038714519
0.003717363
0.0035632578
0.0034069452
0.0032450043
0.0030812475
0.002917457
0.0027551314
0.0025965526
0.0024400204
0.0022850177
0.0021342753
0.0019874257
0.0018428694
0.0017011875
0.0015640578
0.00143124
0.0013011282
0.0011746991
0.001052584
0.00093687567
0.00082711253
0.00072591986
0.00062979526
0.00056770307
0.00048121003
0.00066672256
-0.00051316493
0.012028545
0.012131959
0.012351266
0.012631314
0.012970596
0.013369372
0.013825785
0.014339033
0.014910431
0.015543194
0.016242312
0.017014896
0.017870787
0.018823888
0.019893136
0.021107658
0.022504433
0.024158471
0.026132576
0.02871143
0.03183457
0.037229252
0.042371088
0.081334316
0.051722128
0.002433245
0.0010771654
0.0019431264
0.0024958619
0.0029342705
0.0031983089
0.0033856127
0.0035267942
0.0036278423
0.0036987971
0.0037493275
0.003785495
0.0038109333
0.003827928
0.0038384299
0.0038438733
0.0038451078
0.0038428998
0.0038379266
0.0038305809
0.0038211622
0.0038099522
0.0037971575
0.0037829565
0.00376748
0.0037507965
0.0037329846
0.0037141049
0.0036941984
0.0036733086
0.0036514419
0.0036285826
0.0036047324
0.0035798779
0.0035539995
0.0035270706
0.0034990648
0.0034699274
0.0034395823
0.0034079544
0.0033749646
0.0033405363
0.0033045846
0.0032670165
0.0032277514
0.003186693
0.003143726
0.0030987384
0.0030516237
0.0030022822
0.0029506512
0.0028967026
0.0028405023
0.0027821516
0.0027217059
0.0026594417
0.0025956973
0.0025308973
0.0024660016
0.0024024724
0.0023422521
0.0022884774
0.0022456644
0.0022153266
0.0022084274
0.0022298772
0.0022811065
0.0023730385
0.0025107909
0.0026981495
0.0029345981
0.0032122706
0.003527886
0.0038648275
0.004174333
0.0044094013
0.0045498075
0.0045895069
0.0045426849
0.0044432977
0.004315491
0.0041715163
0.0040223694
0.0038714512
0.0037173627
0.0035632577
0.0034069452
0.0032450046
0.0030812479
0.0029174575
0.0027551321
0.0025965534
0.0024400212
0.0022850186
0.0021342762
0.0019874266
0.0018428703
0.0017011884
0.0015640587
0.0014312409
0.0013011291
0.0011747
0.0010525849
0.00093687651
0.00082711335
0.00072592069
0.00062979608
0.00056770396
0.00048121093
0.00066672355
-0.00051316434
0.012028545
0.012131959
0.012351267
0.012631314
0.012970597
0.013369373
0.013825786
0.014339034
0.014910432
0.015543195
0.016242313
0.017014898
0.017870789
0.018823892
0.019893141
0.021107665
0.022504441
0.024158483
0.026132591
0.028711453
0.031834602
0.037229311
0.042371201
0.081323488
0.051749075
0.0024444923
0.001080627
0.0019447877
0.0024968807
0.0029349868
0.0031988506
0.0033860431
0.0035271464
0.0036281372
0.0036990487
0.0037495454
0.0037856859
0.0038111021
0.0038280785
0.003838565
0.0038439955
0.0038452188
0.003843001
0.0038380195
0.0038306663
0.0038212411
0.0038100252
0.0037972253
0.0037830196
0.0037675388
0.0037508515
0.0037330361
0.0037141532
0.0036942438
0.0036733513
0.0036514821
0.0036286206
0.0036047683
0.0035799118
0.0035540316
0.003527101
0.0034990936
0.0034699547
0.0034396082
0.003407979
0.003374988
0.0033405584
0.0033046057
0.0032670365
0.0032277704
0.003186711
0.0031437431
0.0030987546
0.0030516391
0.0030022968
0.002950665
0.0028967156
0.0028405145
0.0027821631
0.0027217165
0.0026594516
0.0025957065
0.0025309057
0.0024660091
0.0024024792
0.0023422579
0.0022884823
0.0022456683
0.0022153293
0.0022084288
0.0022298772
0.002281105
0.0023730354
0.0025107861
0.0026981429
0.0029345898
0.0032122608
0.0035278749
0.0038648156
0.004174321
0.0044093903
0.0045497983
0.0045894997
0.0045426796
0.004443294
0.0043154884
0.0041715146
0.0040223682
0.0038714505
0.0037173623
0.0035632575
0.0034069453
0.0032450049
0.0030812484
0.0029174581
0.0027551328
0.0025965542
0.0024400221
0.0022850195
0.0021342772
0.0019874276
0.0018428713
0.0017011894
0.0015640597
0.0014312418
0.00130113
0.001174701
0.0010525858
0.00093687743
0.00082711426
0.0007259216
0.00062979699
0.00056770496
0.00048121192
0.00066672465
-0.00051316369
0.012028545
0.01213196
0.012351267
0.012631314
0.012970597
0.013369373
0.013825787
0.014339035
0.014910433
0.015543197
0.016242315
0.017014901
0.017870793
0.018823896
0.019893146
0.021107672
0.022504451
0.024158496
0.026132608
0.028711481
0.031834638
0.037229378
0.042371334
0.081310893
0.051778142
0.0024569424
0.0010844681
0.0019466318
0.0024980119
0.0029357821
0.0031994521
0.0033865209
0.0035275375
0.0036284646
0.003699328
0.0037497872
0.0037858977
0.0038112894
0.0038282455
0.0038387151
0.003844131
0.003845342
0.0038431135
0.0038381225
0.0038307611
0.0038213286
0.0038101062
0.0037973005
0.0037830896
0.0037676042
0.0037509126
0.0037330933
0.0037142069
0.0036942942
0.0036733988
0.0036515268
0.0036286628
0.0036048081
0.0035799495
0.0035540672
0.0035271348
0.0034991255
0.003469985
0.0034396369
0.0034080063
0.0033750139
0.003340583
0.003304629
0.0032670587
0.0032277915
0.0031867311
0.0031437621
0.0030987727
0.0030516561
0.0030023129
0.0029506802
0.00289673
0.002840528
0.0027821758
0.0027217284
0.0026594626
0.0025957167
0.002530915
0.0024660175
0.0024024867
0.0023422644
0.0022884877
0.0022456727
0.0022153322
0.0022084303
0.0022298773
0.0022811034
0.0023730319
0.0025107807
0.0026981355
0.0029345806
0.0032122499
0.0035278626
0.0038648023
0.0041743077
0.004409378
0.004549788
0.0045894917
0.0045426737
0.0044432899
0.0043154856
0.0041715127
0.0040223669
0.0038714497
0.0037173619
0.0035632574
0.0034069454
0.0032450052
0.0030812489
0.0029174587
0.0027551336
0.0025965551
0.0024400231
0.0022850205
0.0021342782
0.0019874287
0.0018428724
0.0017011905
0.0015640608
0.0014312429
0.0013011311
0.001174702
0.0010525869
0.00093687846
0.00082711527
0.00072592262
0.000629798
0.00056770606
0.00048121303
0.00066672586
-0.00051316296
0.012028545
0.01213196
0.012351267
0.012631315
0.012970598
0.013369374
0.013825788
0.014339036
0.014910435
0.015543199
0.016242318
0.017014904
0.017870797
0.018823901
0.019893153
0.021107681
0.022504462
0.024158512
0.026132628
0.028711512
0.031834679
0.037229454
0.042371489
0.081296167
0.051809489
0.0024707755
0.0010887453
0.001948686
0.0024992724
0.0029366683
0.0032001223
0.0033870533
0.0035279733
0.0036288294
0.0036996393
0.0037500567
0.0037861337
0.0038114981
0.0038284317
0.0038388822
0.0038442821
0.0038454793
0.0038432387
0.0038382374
0.0038308668
0.0038214261
0.0038101965
0.0037973844
0.0037831677
0.003767677
0.0037509807
0.003733157
0.0037142667
0.0036943504
0.0036734516
0.0036515767
0.0036287098
0.0036048525
0.0035799914
0.0035541069
0.0035271723
0.0034991612
0.0034700188
0.003439669
0.0034080367
0.0033750428
0.0033406105
0.0033046551
0.0032670834
0.003227815
0.0031867534
0.0031437832
0.0030987927
0.0030516752
0.0030023309
0.0029506973
0.002896746
0.0028405431
0.00278219
0.0027217416
0.0026594749
0.002595728
0.0025309253
0.0024660269
0.002402495
0.0023422717
0.0022884938
0.0022456775
0.0022153355
0.0022084321
0.0022298774
0.0022811016
0.0023730281
0.0025107747
0.0026981273
0.0029345703
0.0032122378
0.0035278489
0.0038647875
0.0041742928
0.0044093643
0.0045497765
0.0045894829
0.0045426672
0.0044432853
0.0043154825
0.0041715105
0.0040223655
0.0038714489
0.0037173614
0.0035632573
0.0034069456
0.0032450055
0.0030812494
0.0029174595
0.0027551345
0.0025965561
0.0024400242
0.0022850217
0.0021342794
0.0019874299
0.0018428736
0.0017011918
0.001564062
0.0014312441
0.0013011323
0.0011747032
0.001052588
0.00093687961
0.0008271164
0.00072592375
0.00062979912
0.00056770728
0.00048121426
0.00066672722
-0.00051316215
0.012028545
0.01213196
0.012351267
0.012631315
0.012970598
0.013369375
0.013825789
0.014339037
0.014910436
0.015543201
0.01624232
0.017014908
0.017870801
0.018823907
0.01989316
0.02110769
0.022504475
0.024158529
0.026132651
0.028711547
0.031834727
0.037229539
0.042371671
0.081278867
0.051843239
0.0024861955
0.0010935219
0.0019509808
0.002500681
0.0029376587
0.0032008712
0.0033876483
0.0035284602
0.0036292371
0.003699987
0.0037503577
0.0037863974
0.0038117314
0.0038286397
0.003839069
0.0038444509
0.0038456326
0.0038433787
0.0038383656
0.0038309848
0.0038215351
0.0038102974
0.003797478
0.0037832549
0.0037677583
0.0037510567
0.0037332282
0.0037143335
0.0036944132
0.0036735107
0.0036516323
0.0036287623
0.003604902
0.0035800383
0.0035541512
0.0035272143
0.003499201
0.0034700565
0.0034397047
0.0034080707
0.003375075
0.0033406411
0.0033046842
0.003267111
0.0032278413
0.0031867783
0.0031438069
0.0030988152
0.0030516964
0.0030023511
0.0029507163
0.002896764
0.00284056
0.0027822058
0.0027217564
0.0026594886
0.0025957406
0.0025309369
0.0024660374
0.0024025043
0.0023422798
0.0022885005
0.002245683
0.0022153392
0.002208434
0.0022298776
0.0022810995
0.0023730238
0.0025107681
0.0026981182
0.0029345588
0.0032122242
0.0035278336
0.003864771
0.0041742763
0.004409349
0.0045497637
0.004589473
0.0045426599
0.0044432802
0.0043154789
0.0041715082
0.004022364
0.0038714479
0.0037173609
0.0035632571
0.0034069457
0.0032450059
0.00308125
0.0029174603
0.0027551354
0.0025965572
0.0024400254
0.002285023
0.0021342808
0.0019874313
0.001842875
0.0017011931
0.0015640633
0.0014312455
0.0013011336
0.0011747045
0.0010525893
0.00093688088
0.00082711766
0.00072592501
0.00062980037
0.00056770865
0.00048121563
0.00066672873
-0.00051316125
0.012028545
0.01213196
0.012351268
0.012631316
0.012970599
0.013369376
0.01382579
0.014339039
0.014910438
0.015543203
0.016242324
0.017014912
0.017870806
0.018823914
0.019893169
0.021107702
0.02250449
0.024158549
0.026132677
0.028711587
0.03183478
0.037229634
0.042371883
0.081258464
0.051879463
0.002503434
0.0010988681
0.0019535504
0.0025022588
0.0029387681
0.0032017101
0.0033883146
0.0035290056
0.0036296937
0.0037003765
0.0037506949
0.0037866928
0.0038119926
0.0038288726
0.0038392781
0.0038446399
0.0038458044
0.0038435354
0.0038385093
0.003831117
0.0038216571
0.0038104104
0.003797583
0.0037833525
0.0037678494
0.0037511419
0.003733308
0.0037144083
0.0036944835
0.0036735769
0.0036516946
0.0036288211
0.0036049576
0.0035800908
0.0035542009
0.0035272614
0.0034992455
0.0034700988
0.0034397448
0.0034081087
0.0033751111
0.0033406754
0.0033047168
0.003267142
0.0032278706
0.0031868062
0.0031438334
0.0030988403
0.0030517202
0.0030023736
0.0029507376
0.0028967841
0.0028405789
0.0027822235
0.002721773
0.002659504
0.0025957548
0.0025309499
0.0024660491
0.0024025147
0.0023422889
0.0022885081
0.002245689
0.0022153434
0.0022084361
0.0022298777
0.0022810973
0.002373019
0.0025107606
0.0026981079
0.0029345459
0.003212209
0.0035278164
0.0038647525
0.0041742577
0.0044093319
0.0045497494
0.0045894619
0.0045426518
0.0044432745
0.004315475
0.0041715055
0.0040223622
0.0038714468
0.0037173603
0.0035632569
0.0034069458
0.0032450063
0.0030812507
0.0029174612
0.0027551366
0.0025965585
0.0024400268
0.0022850244
0.0021342823
0.0019874328
0.0018428765
0.0017011947
0.0015640649
0.001431247
0.0013011351
0.001174706
0.0010525908
0.00093688231
0.00082711907
0.00072592643
0.00062980178
0.00056771018
0.00048121717
0.00066673042
-0.00051316024
0.012028545
0.012131961
0.012351268
0.012631316
0.0129706
0.013369377
0.013825791
0.01433904
0.014910441
0.015543206
0.016242327
0.017014916
0.017870812
0.018823921
0.019893179
0.021107715
0.022504507
0.024158572
0.026132706
0.028711631
0.03183484
0.037229739
0.042372132
0.081234318
0.051918161
0.0025227569
0.0011048628
0.001956433
0.0025040294
0.002940013
0.0032026515
0.0033890624
0.0035296176
0.003630206
0.0037008136
0.0037510733
0.0037870242
0.0038122857
0.0038291339
0.0038395128
0.003844852
0.003845997
0.0038437113
0.0038386705
0.0038312653
0.003821794
0.0038105372
0.0037977007
0.0037834621
0.0037679516
0.0037512374
0.0037333975
0.0037144922
0.0036945624
0.0036736511
0.0036517646
0.003628887
0.0036050199
0.0035801497
0.0035542566
0.0035273141
0.0034992955
0.0034701462
0.0034397898
0.0034081514
0.0033751517
0.0033407139
0.0033047533
0.0032671767
0.0032279036
0.0031868375
0.0031438631
0.0030988685
0.003051747
0.0030023989
0.0029507615
0.0028968066
0.0028406002
0.0027822434
0.0027217915
0.0026595212
0.0025957707
0.0025309644
0.0024660622
0.0024025264
0.002342299
0.0022885166
0.0022456958
0.002215348
0.0022084385
0.0022298778
0.0022810947
0.0023730137
0.0025107522
0.0026980965
0.0029345314
0.003212192
0.0035277972
0.0038647317
0.0041742369
0.0044093127
0.0045497333
0.0045894495
0.0045426426
0.0044432681
0.0043154706
0.0041715025
0.0040223602
0.0038714455
0.0037173596
0.0035632567
0.003406946
0.0032450068
0.0030812515
0.0029174622
0.0027551378
0.0025965599
0.0024400283
0.0022850261
0.002134284
0.0019874345
0.0018428782
0.0017011964
0.0015640666
0.0014312487
0.0013011368
0.0011747076
0.0010525924
0.00093688392
0.00082712065
0.00072592802
0.00062980335
0.0005677119
0.0004812189
0.00066673232
-0.00051315911
0.012028545
0.012131961
0.012351269
0.012631317
0.012970601
0.013369378
0.013825793
0.014339042
0.014910443
0.015543209
0.016242331
0.017014922
0.017870819
0.01882393
0.01989319
0.021107729
0.022504526
0.024158598
0.026132739
0.028711681
0.031834908
0.037229852
0.042372422
0.081205662
0.051959234
0.0025444719
0.0011115944
0.0019596712
0.0025060195
0.0029414123
0.0032037096
0.0033899027
0.0035303053
0.0036307818
0.0037013047
0.0037514985
0.0037873966
0.003812615
0.0038294276
0.0038397765
0.0038450903
0.0038462136
0.0038439089
0.0038388517
0.003831432
0.0038219479
0.0038106796
0.0037978329
0.0037835852
0.0037680664
0.0037513447
0.003733498
0.0037145866
0.003694651
0.0036737345
0.0036518432
0.0036289611
0.0036050899
0.0035802158
0.0035543192
0.0035273734
0.0034993517
0.0034701995
0.0034398403
0.0034081993
0.0033751972
0.0033407571
0.0033047944
0.0032672157
0.0032279407
0.0031868727
0.0031438965
0.0030989002
0.003051777
0.0030024273
0.0029507883
0.002896832
0.002840624
0.0027822658
0.0027218124
0.0026595406
0.0025957886
0.0025309807
0.002466077
0.0024025396
0.0023423105
0.0022885262
0.0022457034
0.0022153532
0.0022084412
0.002229878
0.0022810918
0.0023730076
0.0025107428
0.0026980835
0.0029345152
0.0032121729
0.0035277756
0.0038647084
0.0041742135
0.0044092911
0.0045497152
0.0045894355
0.0045426323
0.0044432608