/*--------------------------------*- C++ -*----------------------------------*\
| =========                 |                                                 |
| \\      /  F ield         | OpenFOAM: The Open Source CFD Toolbox           |
|  \\    /   O peration     | Version:  2206                                  |
|   \\  /    A nd           | Website:  www.openfoam.com                      |
|    \\/     M anipulation  |                                                 |
\*---------------------------------------------------------------------------*/
FoamFile
{
    version     2.0;
    format      ascii;
    arch        "LSB;label=32;scalar=64";
    class       surfaceScalarField;
    location    "700";
    object      phi;
}
// * * * * * * * * * * * * * * * * * * * * * * * * * * * * * * * * * * * * * //

dimensions      [0 3 -1 0 0 0 0];

oriented        oriented;

internalField   nonuniform List<scalar> 
25880
(
2.0046164e-06
3.7717798e-11
2.0045247e-06
9.1683835e-11
2.0044076e-06
1.1713889e-10
2.0042747e-06
1.3291631e-10
2.0041221e-06
1.5263509e-10
2.0039468e-06
1.7520663e-10
2.0037465e-06
2.0034475e-10
2.0035175e-06
2.2904375e-10
2.003255e-06
2.6248906e-10
2.0029531e-06
3.0191134e-10
2.0026042e-06
3.4882883e-10
2.0021988e-06
4.0546774e-10
2.001724e-06
4.7477841e-10
2.0011619e-06
5.6209513e-10
2.0004891e-06
6.7276511e-10
1.9996645e-06
8.2460346e-10
1.9986456e-06
1.0189299e-09
1.9972972e-06
1.3484419e-09
1.9955884e-06
1.708708e-09
1.9928589e-06
2.729539e-09
1.9894415e-06
3.4173896e-09
1.9811797e-06
8.2617653e-09
1.9774401e-06
3.7396116e-09
9.934052e-07
9.8403493e-07
4.3826755e-09
9.8902253e-07
2.1126201e-09
2.2700553e-09
1.5986514e-09
5.1396868e-10
1.350457e-09
2.4819444e-10
1.1971743e-09
1.5328266e-10
1.08843e-09
1.087443e-10
1.0054119e-09
8.3018157e-11
9.3880167e-10
6.6610198e-11
8.8373936e-10
5.5062308e-11
8.3716914e-10
4.6570227e-11
7.9702226e-10
4.014687e-11
7.618884e-10
3.5133867e-11
7.3077374e-10
3.111466e-11
7.029448e-10
2.7828941e-11
6.7784126e-10
2.5103534e-11
6.5503154e-10
2.2809721e-11
6.3416767e-10
2.0863869e-11
6.1497494e-10
1.9192729e-11
5.9723587e-10
1.7739068e-11
5.8076417e-10
1.6471704e-11
5.6540799e-10
1.5356179e-11
5.5103915e-10
1.4368844e-11
5.375491e-10
1.3490047e-11
5.2484537e-10
1.2703724e-11
5.1284879e-10
1.1996585e-11
5.0149099e-10
1.1357801e-11
4.9071222e-10
1.0778767e-11
4.804602e-10
1.0252018e-11
4.7068909e-10
9.7711095e-12
4.6135849e-10
9.3306078e-12
4.5243281e-10
8.9256803e-12
4.4388043e-10
8.5523748e-12
4.3567292e-10
8.207514e-12
4.2778479e-10
7.888125e-12
4.2019326e-10
7.5915276e-12
4.1287781e-10
7.3154581e-12
4.0581998e-10
7.0578257e-12
3.9900338e-10
6.8166023e-12
3.9241326e-10
6.5901181e-12
3.8603606e-10
6.3771979e-12
3.7985939e-10
6.1766697e-12
3.738722e-10
5.9871942e-12
3.6806468e-10
5.807516e-12
3.624281e-10
5.6365821e-12
3.5695468e-10
5.4734202e-12
3.5163783e-10
5.3168512e-12
3.4647215e-10
5.1656747e-12
3.4145328e-10
5.0188722e-12
3.3657785e-10
4.8754343e-12
3.318435e-10
4.7343494e-12
3.272489e-10
4.5945924e-12
3.2279389e-10
4.4550195e-12
3.1847988e-10
4.3140078e-12
3.1431113e-10
4.1687483e-12
3.1029465e-10
4.0164799e-12
3.0643935e-10
3.855301e-12
3.0275647e-10
3.6828782e-12
2.9925962e-10
3.4968553e-12
2.959649e-10
3.2947126e-12
2.9289387e-10
3.0710323e-12
2.9007474e-10
2.8191284e-12
2.8754218e-10
2.5325668e-12
2.8535441e-10
2.1877696e-12
2.8354195e-10
1.8124545e-12
2.8226012e-10
1.2818349e-12
2.8157313e-10
6.8698546e-13
2.815225e-10
5.0638212e-14
2.8229552e-10
-7.7302781e-13
2.8399314e-10
-1.6976163e-12
2.8675134e-10
-2.7581926e-12
2.9068846e-10
-3.9371278e-12
2.958482e-10
-5.1597337e-12
3.0218877e-10
-6.3405718e-12
3.0966461e-10
-7.4758404e-12
3.1810093e-10
-8.4363178e-12
3.2696058e-10
-8.8596547e-12
3.3551906e-10
-8.55848e-12
3.4303168e-10
-7.512618e-12
3.4912472e-10
-6.0930375e-12
3.5383767e-10
-4.7129529e-12
3.5731763e-10
-3.4799607e-12
3.5984734e-10
-2.5297104e-12
3.6165941e-10
-1.8120763e-12
3.6292516e-10
-1.2657477e-12
3.6375758e-10
-8.3242006e-13
3.6422661e-10
-4.6902999e-13
3.6438399e-10
-1.573806e-13
3.6425218e-10
1.3180466e-13
3.6382724e-10
4.2494778e-13
3.6313459e-10
6.9264564e-13
3.6221546e-10
9.1912686e-13
3.6110244e-10
1.1130247e-12
3.5983927e-10
1.2631658e-12
3.5846359e-10
1.3756828e-12
3.5700332e-10
1.4602666e-12
3.554894e-10
1.5139214e-12
3.5394917e-10
1.5402286e-12
3.5239673e-10
1.5524415e-12
3.5084112e-10
1.5556136e-12
3.4929537e-10
1.5457502e-12
3.4776999e-10
1.5253801e-12
3.4626697e-10
1.5030209e-12
3.4478432e-10
1.4826434e-12
3.4332151e-10
1.4628159e-12
3.4187876e-10
1.4427462e-12
3.404581e-10
1.420664e-12
3.3902977e-10
1.4283296e-12
3.3761445e-10
1.4153139e-12
3.3606587e-10
1.5485817e-12
3.3451057e-10
1.5553055e-12
3.3280597e-10
1.7045971e-12
1.0213867e-12
2.0344897e-06
7.6115324e-11
2.0343963e-06
1.850443e-10
2.034277e-06
2.3644341e-10
2.0341416e-06
2.6829447e-10
2.0339862e-06
3.080952e-10
2.0338077e-06
3.5365265e-10
2.0336037e-06
4.043886e-10
2.0333704e-06
4.6230923e-10
2.0331031e-06
5.2980662e-10
2.0327956e-06
6.09364e-10
2.0324404e-06
7.0404462e-10
2.0320275e-06
8.1834e-10
2.0315441e-06
9.5820241e-10
2.0309718e-06
1.1343943e-09
2.0302869e-06
1.3577018e-09
2.0294474e-06
1.6640697e-09
2.0284102e-06
2.0561473e-09
2.0270377e-06
2.7209665e-09
2.0252986e-06
3.447772e-09
2.022521e-06
5.5071826e-09
2.0190435e-06
6.8948484e-09
2.0106372e-06
1.666805e-08
2.0068236e-06
7.5532322e-09
1.0145513e-06
1.9763072e-06
1.3371934e-08
1.9902019e-06
6.4640331e-09
9.1779557e-09
4.8916767e-09
2.0863251e-09
4.1322444e-09
1.0076267e-09
3.6632051e-09
6.2232193e-10
3.3304459e-09
4.4150354e-10
3.0764131e-09
3.370509e-10
2.8725908e-09
2.7043249e-10
2.7041045e-09
2.2354866e-10
2.5616037e-09
1.89071e-10
2.4387585e-09
1.6299206e-10
2.3312531e-09
1.4263932e-10
2.2360462e-09
1.2632153e-10
2.1508934e-09
1.1298176e-10
2.0740801e-09
1.0191683e-10
2.0042856e-09
9.2604188e-11
1.9404453e-09
8.470421e-11
1.8817185e-09
7.791955e-11
1.8274396e-09
7.2017893e-11
1.7770388e-09
6.687255e-11
1.7300513e-09
6.2343672e-11
1.6860849e-09
5.8335224e-11
1.6448075e-09
5.4767434e-11
1.6059362e-09
5.1575075e-11
1.5692286e-09
4.8704194e-11
1.5344755e-09
4.6110828e-11
1.5014943e-09
4.3760039e-11
1.4701248e-09
4.1621519e-11
1.4402268e-09
3.9669106e-11
1.4116766e-09
3.7880738e-11
1.3843655e-09
3.6236798e-11
1.3581967e-09
3.472124e-11
1.333083e-09
3.3321161e-11
1.3089466e-09
3.2024495e-11
1.2857178e-09
3.0820359e-11
1.2633337e-09
2.9699563e-11
1.2417379e-09
2.865362e-11
1.2208802e-09
2.7674295e-11
1.2007155e-09
2.6754811e-11
1.1812023e-09
2.5890394e-11
1.1623027e-09
2.5076286e-11
1.1439828e-09
2.4307051e-11
1.1262128e-09
2.357759e-11
1.1089657e-09
2.288363e-11
1.0922179e-09
2.2221223e-11
1.0759492e-09
2.1585581e-11
1.060143e-09
2.0971834e-11
1.0447861e-09
2.0375844e-11
1.029868e-09
1.9793512e-11
1.0153816e-09
1.9220733e-11
1.0013229e-09
1.8653342e-11
9.8769118e-10
1.8086697e-11
9.7449098e-10
1.7514206e-11
9.6173526e-10
1.6924468e-11
9.4944546e-10
1.6306276e-11
9.3764886e-10
1.5651902e-11
9.2637986e-10
1.4951876e-11
9.1568009e-10
1.4196632e-11
9.0559888e-10
1.3375924e-11
8.9620215e-10
1.2467758e-11
8.8757629e-10
1.144499e-11
8.7982738e-10
1.0281475e-11
8.7313362e-10
8.8815324e-12
8.6758845e-10
7.3576184e-12
8.6366701e-10
5.2032778e-12
8.6156581e-10
2.7881851e-12
8.6141196e-10
2.0449485e-13
8.6377849e-10
-3.1395573e-12
8.6897419e-10
-6.893317e-12
8.7741506e-10
-1.119906e-11
8.8946311e-10
-1.5985182e-11
9.0525185e-10
-2.0948465e-11
9.2465351e-10
-2.5742238e-11
9.4752832e-10
-3.0350645e-11
9.7334085e-10
-3.4248852e-11
1.0004478e-09
-3.5966591e-11
1.0266328e-09
-3.4743507e-11
1.049618e-09
-3.049782e-11
1.0682602e-09
-2.4735216e-11
1.0826802e-09
-1.9132923e-11
1.093328e-09
-1.4127786e-11
1.1010685e-09
-1.0270207e-11
1.1066133e-09
-7.3569133e-12
1.1104865e-09
-5.1389572e-12
1.1130338e-09
-3.3796955e-12
1.1144692e-09
-1.9044044e-12
1.1149509e-09
-6.3912364e-13
1.1145478e-09
5.3496583e-13
1.1132476e-09
1.7250925e-12
1.1111283e-09
2.8119439e-12
1.108316e-09
3.7314352e-12
1.1049104e-09
4.518618e-12
1.1010454e-09
5.1281842e-12
1.0968361e-09
5.5849922e-12
1.092368e-09
5.9283692e-12
1.0877357e-09
6.146204e-12
1.0830229e-09
6.2530243e-12
1.0782727e-09
6.3026033e-12
1.0735129e-09
6.3154675e-12
1.0687832e-09
6.2754275e-12
1.0641158e-09
6.1927436e-12
1.0595169e-09
6.1019623e-12
1.0549803e-09
6.0192225e-12
1.0505044e-09
5.9387074e-12
1.04609e-09
5.8572239e-12
1.0417431e-09
5.7675572e-12
1.0373727e-09
5.7986539e-12
1.0330424e-09
5.7456577e-12
1.0283041e-09
6.2868335e-12
1.023547e-09
6.3124881e-12
1.0183235e-09
6.9280267e-12
4.1342987e-12
2.0946814e-06
1.1578339e-10
2.0945849e-06
2.8152246e-10
2.0944616e-06
3.597595e-10
2.0943217e-06
4.0822999e-10
2.094161e-06
4.6878632e-10
2.0939765e-06
5.3809917e-10
2.0937656e-06
6.1528785e-10
2.0935246e-06
7.0340341e-10
2.0932483e-06
8.0608447e-10
2.0929305e-06
9.2710789e-10
2.0925634e-06
1.0711323e-09
2.0921368e-06
1.2449886e-09
2.0916373e-06
1.4577281e-09
2.0910459e-06
1.7257187e-09
2.0903383e-06
2.06536e-09
2.089471e-06
2.5313191e-09
2.0883996e-06
3.1276021e-09
2.0869819e-06
4.1386599e-09
2.0851858e-06
5.2438781e-09
2.0823175e-06
8.3754996e-09
2.0787267e-06
1.0485599e-08
2.0700473e-06
2.5347513e-08
2.066101e-06
1.1499437e-08
1.0512004e-06
2.9912079e-06
2.312095e-08
3.0182813e-06
1.1201939e-08
2.1096967e-08
8.4774283e-09
4.8108357e-09
7.1613478e-09
2.3237072e-09
6.3484646e-09
1.4352051e-09
5.7717614e-09
1.0182068e-09
5.3315024e-09
7.7730986e-10
4.9782662e-09
6.2366867e-10
4.6862699e-09
5.1554496e-10
4.4393087e-09
4.3603221e-10
4.2264126e-09
3.758882e-10
4.0401016e-09
3.2895032e-10
3.8751049e-09
2.9131824e-10
3.7275324e-09
2.6055421e-10
3.5944128e-09
2.3503642e-10
3.4734572e-09
2.1355986e-10
3.3628203e-09
1.9534105e-10
3.2610454e-09
1.7969442e-10
3.166979e-09
1.660843e-10
3.0796333e-09
1.5421827e-10
2.998203e-09
1.4377394e-10
2.9220085e-09
1.3452982e-10
2.850474e-09
1.2630193e-10
2.7831092e-09
1.1893985e-10
2.7194942e-09
1.1231915e-10
2.6592666e-09
1.0633845e-10
2.6021095e-09
1.0091717e-10
2.5477456e-09
9.5985418e-11
2.4959318e-09
9.1482855e-11
2.446454e-09
8.7358608e-11
2.3991233e-09
8.3567438e-11
2.3537722e-09
8.0072338e-11
2.3102498e-09
7.684355e-11
2.2684211e-09
7.3853246e-11
2.2281651e-09
7.1076333e-11
2.1893731e-09
6.8491615e-11
2.1519472e-09
6.6079516e-11
2.1158004e-09
6.3821055e-11
2.0808546e-09
6.1700596e-11
2.0470379e-09
5.9707131e-11
2.0142845e-09
5.7829685e-11
1.9825358e-09
5.6055721e-11
1.9517399e-09
5.4373484e-11
1.9218504e-09
5.2773117e-11
1.8928261e-09
5.1245513e-11
1.8646321e-09
4.9779638e-11
1.8372397e-09
4.8364253e-11
1.8106257e-09
4.6989819e-11
1.7847723e-09
4.5646884e-11
1.7596671e-09
4.4325975e-11
1.7353029e-09
4.301749e-11
1.7116789e-09
4.1710718e-11
1.6888027e-09
4.0390459e-11
1.6666967e-09
3.9030425e-11
1.6453982e-09
3.7604772e-11
1.6249544e-09
3.6095666e-11
1.605425e-09
3.4481277e-11
1.5868821e-09
3.2739537e-11
1.5694113e-09
3.0846793e-11
1.5531267e-09
2.8752324e-11
1.5381782e-09
2.6393529e-11
1.5247496e-09
2.3710074e-11
1.5131497e-09
2.0481414e-11
1.5035407e-09
1.6966558e-11
1.4967457e-09
1.1998343e-11
1.4931052e-09
6.428628e-12
1.4928401e-09
4.6965975e-13
1.4969428e-09
-7.2422593e-12
1.5059486e-09
-1.5899147e-11
1.5205783e-09
-2.5828772e-11
1.5414591e-09
-3.686598e-11
1.5688222e-09
-4.8311566e-11
1.6024463e-09
-5.9366284e-11
1.6420885e-09
-6.9992869e-11
1.6868203e-09
-7.8980712e-11
1.7337943e-09
-8.2940541e-11
1.77917e-09
-8.0119261e-11
1.8190011e-09
-7.0328922e-11
1.8513067e-09
-5.7040785e-11
1.8762958e-09
-4.4121971e-11
1.8947485e-09
-3.2580491e-11
1.9081631e-09
-2.368482e-11
1.9177728e-09
-1.6966617e-11
1.9244856e-09
-1.1851744e-11
1.9289004e-09
-7.7945706e-12
1.9313884e-09
-4.3923231e-12
1.9322236e-09
-1.4743259e-12
1.9315251e-09
1.2333856e-12
1.9292722e-09
3.9780358e-12
1.9255996e-09
6.4845544e-12
1.9207259e-09
8.6050733e-12
1.9148241e-09
1.0420429e-11
1.9081261e-09
1.1826214e-11
1.9008314e-09
1.2879698e-11
1.8930882e-09
1.3671552e-11
1.8850605e-09
1.4173923e-11
1.8768932e-09
1.4420299e-11
1.8686612e-09
1.4534632e-11
1.8604124e-09
1.4564278e-11
1.8522159e-09
1.4471949e-11
1.8441273e-09
1.4281292e-11
1.8361574e-09
1.4071929e-11
1.8282955e-09
1.3881098e-11
1.8205388e-09
1.3695389e-11
1.8128886e-09
1.3507464e-11
1.8053555e-09
1.3300658e-11
1.7977818e-09
1.3372287e-11
1.7902776e-09
1.3249908e-11
1.7820666e-09
1.4497826e-11
1.7738239e-09
1.4555201e-11
1.7647664e-09
1.5985487e-11
9.5206677e-12
2.1860887e-06
1.573392e-10
2.1859876e-06
3.8262565e-10
2.1858583e-06
4.8901984e-10
2.1857116e-06
5.5491722e-10
2.1855432e-06
6.3722781e-10
2.1853498e-06
7.3143714e-10
2.1851288e-06
8.3634678e-10
2.1848761e-06
9.5610187e-10
2.1845865e-06
1.0956467e-09
2.1842535e-06
1.260113e-09
2.1838688e-06
1.45583e-09
2.1834217e-06
1.6920776e-09
2.1828983e-06
1.981152e-09
2.1822787e-06
2.3452896e-09
2.1815373e-06
2.8067651e-09
2.1806288e-06
3.4398495e-09
2.1795064e-06
4.2499515e-09
2.1780216e-06
5.6235327e-09
2.1761406e-06
7.1248733e-09
2.1731372e-06
1.1378866e-08
2.1693777e-06
1.4245151e-08
2.160291e-06
3.4434137e-08
2.1561496e-06
1.5640844e-08
1.1042023e-06
4.0431552e-06
3.4206802e-08
4.0882769e-06
1.6609754e-08
3.8694015e-08
1.2570435e-08
8.8501544e-09
1.0619012e-08
4.2751309e-09
9.4136199e-09
2.640597e-09
8.5584462e-09
1.8733804e-09
7.9056052e-09
1.4301509e-09
7.3818128e-09
1.1474611e-09
6.9488303e-09
9.4852741e-10
6.5826284e-09
8.0223415e-10
6.2669406e-09
6.9157603e-10
5.9906749e-09
6.0521602e-10
5.746015e-09
5.3597808e-10
5.5271926e-09
4.7937669e-10
5.3298013e-09
4.3242773e-10
5.1504469e-09
3.9291422e-10
4.9863936e-09
3.5939429e-10
4.8354812e-09
3.3060688e-10
4.6959989e-09
3.0556661e-10
4.5664821e-09
2.83735e-10
4.4457369e-09
2.6451918e-10
4.3327552e-09
2.4751153e-10
4.2266835e-09
2.3237359e-10
4.1267948e-09
2.188286e-10
4.0324663e-09
2.0664764e-10
3.9431606e-09
1.9564418e-10
3.8584078e-09
1.8566996e-10
3.7777968e-09
1.7659639e-10
3.7009672e-09
1.6831245e-10
3.6276013e-09
1.6072455e-10
3.5574193e-09
1.5374946e-10
3.4901725e-09
1.4731909e-10
3.4256374e-09
1.4137869e-10
3.3636135e-09
1.3587706e-10
3.3039218e-09
1.3076803e-10
3.2464009e-09
1.2601261e-10
3.1909056e-09
1.2157478e-10
3.137307e-09
1.1741961e-10
3.0854893e-09
1.1351836e-10
3.0353457e-09
1.0985075e-10
2.9867787e-09
1.0639659e-10
2.9397016e-09
1.0313282e-10
2.8940373e-09
1.0003782e-10
2.849717e-09
9.7093436e-11
2.8066796e-09
9.4282925e-11
2.7648732e-09
9.1585986e-11
2.7242555e-09
8.8981943e-11
2.6847921e-09
8.6453243e-11
2.6464565e-09
8.3982493e-11
2.6092302e-09
8.1552264e-11
2.5731028e-09
7.9144889e-11
2.5380729e-09
7.6740657e-11
2.5041517e-09
7.4311598e-11
2.4713728e-09
7.180936e-11
2.4397912e-09
6.9186395e-11
2.409477e-09
6.6409875e-11
2.3805186e-09
6.3439644e-11
2.3530231e-09
6.0235093e-11
2.3271172e-09
5.6752664e-11
2.3029705e-09
5.2899042e-11
2.280805e-09
4.8559037e-11
2.2608935e-09
4.3621579e-11
2.2436937e-09
3.7681155e-11
2.2294469e-09
3.1213408e-11
2.2193721e-09
2.2073089e-11
2.2139751e-09
1.1825605e-11
2.213584e-09
8.6085131e-13
2.2196693e-09
-1.3327588e-11
2.2330252e-09
-2.9255033e-11
2.2547201e-09
-4.7523672e-11
2.2856838e-09
-6.7829668e-11
2.326259e-09
-8.8886779e-11
2.3761175e-09
-1.092248e-10
2.4348986e-09
-1.2877396e-10
2.5012246e-09
-1.4530671e-10
2.5708738e-09
-1.5258972e-10
2.6381525e-09
-1.4739798e-10
2.6972109e-09
-1.2938735e-10
2.745112e-09
-1.0494189e-10
2.7821648e-09
-8.1174771e-11
2.8095267e-09
-5.9942394e-11
2.8294186e-09
-4.3576676e-11
2.8436687e-09
-3.1216772e-11
2.8536233e-09
-2.1806352e-11
2.8601705e-09
-1.4341732e-11
2.8638603e-09
-8.0821289e-12
2.8650993e-09
-2.7133785e-12
2.8640642e-09
2.2685037e-12
2.860724e-09
7.3182778e-12
2.8552786e-09
1.192998e-11
2.8480522e-09
1.5831443e-11
2.8393012e-09
1.9171393e-11
2.8293696e-09
2.1757863e-11
2.8185532e-09
2.3696126e-11
2.8070717e-09
2.5152972e-11
2.7951684e-09
2.6077276e-11
2.7830581e-09
2.6530622e-11
2.7708517e-09
2.6740977e-11
2.7586205e-09
2.6795489e-11
2.7464668e-09
2.6625638e-11
2.7344732e-09
2.6274907e-11
2.7226554e-09
2.5889705e-11
2.7109979e-09
2.5538571e-11
2.6994965e-09
2.5196852e-11
2.6881529e-09
2.4851077e-11
2.676983e-09
2.4470565e-11
2.6657531e-09
2.4602152e-11
2.6546262e-09
2.4376854e-11
2.6424518e-09
2.6672189e-11
2.630231e-09
2.6775998e-11
2.6167975e-09
2.9418963e-11
1.7502669e-11
2.3100736e-06
2.0143758e-10
2.3099663e-06
4.899554e-10
2.309829e-06
6.2628017e-10
2.3096732e-06
7.1069076e-10
2.3094943e-06
8.1609976e-10
2.309289e-06
9.3674164e-10
2.3090543e-06
1.0710797e-09
2.308786e-06
1.2244194e-09
2.3084785e-06
1.4030906e-09
2.308125e-06
1.6136622e-09
2.3077166e-06
1.8642352e-09
2.307242e-06
2.166687e-09
2.3066864e-06
2.5367543e-09
2.3060288e-06
3.002898e-09
2.3052419e-06
3.5936191e-09
2.3042778e-06
4.4039822e-09
2.3030869e-06
5.4408614e-09
2.3015115e-06
7.1989176e-09
2.2995161e-06
9.1202621e-09
2.2963307e-06
1.4564265e-08
2.2923436e-06
1.8232258e-08
2.2827081e-06
4.4069659e-08
2.2783046e-06
2.004437e-08
1.1746878e-06
5.1467719e-06
4.7281485e-08
5.2156832e-06
2.3010945e-08
6.2964555e-08
1.741559e-08
1.444551e-08
1.4712129e-08
6.9785919e-09
1.3042073e-08
4.3106526e-09
1.1857237e-08
3.0582167e-09
1.0952736e-08
2.334652e-09
1.0227039e-08
1.8731582e-09
9.6271575e-09
1.5484087e-09
9.1197994e-09
1.3095923e-09
8.6824284e-09
1.1289469e-09
8.2996765e-09
9.8796796e-10
7.9607137e-09
8.7494086e-10
7.6575477e-09
7.8254271e-10
7.3840738e-09
7.0590166e-10
7.1355891e-09
6.413989e-10
6.9083036e-09
5.8667978e-10
6.6992241e-09
5.3968639e-10
6.5059803e-09
4.9881045e-10
6.3265432e-09
4.6317202e-10
6.1592586e-09
4.318038e-10
6.0027299e-09
4.0404024e-10
5.8557747e-09
3.7932884e-10
5.7173855e-09
3.572178e-10
5.5866996e-09
3.3733345e-10
5.4629725e-09
3.1937128e-10
5.3455532e-09
3.0308926e-10
5.2338722e-09
2.8827746e-10
5.1274299e-09
2.7475468e-10
5.0257864e-09
2.6236812e-10
4.9285539e-09
2.5098193e-10
4.835388e-09
2.4048495e-10
4.7459789e-09
2.307878e-10
4.6600491e-09
2.218069e-10
4.5773502e-09
2.1346688e-10
4.4976587e-09
2.057041e-10
4.4207738e-09
1.9845976e-10
4.3465165e-09
1.9167687e-10
4.2747264e-09
1.8530845e-10
4.2052557e-09
1.7932144e-10
4.1379694e-09
1.7368287e-10
4.0727472e-09
1.683551e-10
4.0094822e-09
1.6330281e-10
3.9480792e-09
1.5849641e-10
3.8884536e-09
1.5390853e-10
3.8305335e-09
1.4950605e-10
3.7742602e-09
1.4525522e-10
3.7195861e-09
1.4112738e-10
3.6664744e-09
1.3709414e-10
3.6148997e-09
1.3312704e-10
3.5648473e-09
1.2919724e-10
3.5163154e-09
1.2527256e-10
3.4693197e-09
1.2130733e-10
3.4239064e-09
1.1722264e-10
3.3801519e-09
1.1294088e-10
3.3381534e-09
1.0840843e-10
3.2980333e-09
1.0355975e-10
3.2599398e-09
9.832854e-11
3.2240488e-09
9.264363e-11
3.1905952e-09
8.6352692e-11
3.1598866e-09
7.9267662e-11
3.132301e-09
7.1207124e-11
3.1084726e-09
6.1509598e-11
3.0887363e-09
5.0949675e-11
3.0747795e-09
3.6029859e-11
3.0673035e-09
1.9301627e-11
3.0667641e-09
1.4002367e-12
3.0751972e-09
-2.1760603e-11
3.0937033e-09
-4.7761168e-11
3.1237624e-09
-7.7582787e-11
3.1666623e-09
-1.1072958e-10
3.2228778e-09
-1.4510223e-10
3.291954e-09
-1.7830107e-10
3.3733903e-09
-2.1021024e-10
3.4652769e-09
-2.3719325e-10
3.5617658e-09
-2.4907863e-10
3.6549698e-09
-2.4060199e-10
3.7367874e-09
-2.1120496e-10
3.8031496e-09
-1.7130415e-10
3.8544829e-09
-1.3250805e-10
3.8923918e-09
-9.7851269e-11
3.919952e-09
-7.1136831e-11
3.9396962e-09
-5.0960969e-11
3.9534891e-09
-3.5599309e-11
3.9625611e-09
-2.3413711e-11
3.9676743e-09
-1.3195306e-11
3.9693919e-09
-4.4310339e-12
3.9679587e-09
3.7017356e-12
3.9633317e-09
1.1945226e-11
3.955788e-09
1.947367e-11
3.9457769e-09
2.584261e-11
3.9336534e-09
3.1294828e-11
3.9198942e-09
3.5517131e-11
3.9049091e-09
3.8681251e-11
3.8890026e-09
4.1059396e-11
3.8725116e-09
4.2568294e-11
3.8557338e-09
4.3308448e-11
3.8388229e-09
4.3651842e-11
3.8218776e-09
4.3740786e-11
3.8050397e-09
4.3463556e-11
3.7884235e-09
4.2891091e-11
3.772051e-09
4.2262274e-11
3.7559005e-09
4.1689015e-11
3.7399662e-09
4.1131121e-11
3.7242507e-09
4.0566626e-11
3.7087758e-09
3.9945441e-11
3.6932181e-09
4.0159876e-11
3.677803e-09
3.9791984e-11
3.6609376e-09
4.3537524e-11
3.6440083e-09
4.3705311e-11
3.6253951e-09
4.8032203e-11
2.8557875e-11
2.4684838e-06
2.4878335e-10
2.4683685e-06
6.0523838e-10
2.4682211e-06
7.7375967e-10
2.4680537e-06
8.7807136e-10
2.4678615e-06
1.0082958e-09
2.4676409e-06
1.1573324e-09
2.4673887e-06
1.3232798e-09
2.4671004e-06
1.5126888e-09
2.4667701e-06
1.7333762e-09
2.4663903e-06
1.9934538e-09
2.4659517e-06
2.3029234e-09
2.4654419e-06
2.6764493e-09
2.4648452e-06
3.1334591e-09
2.464139e-06
3.7090917e-09
2.4632941e-06
4.4385245e-09
2.4622589e-06
5.439134e-09
2.4609805e-06
6.7193401e-09
2.4592895e-06
8.889906e-09
2.457148e-06
1.1261755e-08
2.4537301e-06
1.7982147e-08
2.4494524e-06
2.2509988e-08
2.4391159e-06
5.4406142e-08
2.4343777e-06
2.4782572e-08
1.2641043e-06
6.3170452e-06
6.3110052e-08
6.4166775e-06
3.0788371e-08
9.5286236e-08
2.3302789e-08
2.1931092e-08
1.9685622e-08
1.0595759e-08
1.7450937e-08
6.5453382e-09
1.5865514e-08
4.6436393e-09
1.4655213e-08
3.5449532e-09
1.368418e-08
2.8441911e-09
1.28815e-08
2.351089e-09
1.2202623e-08
1.9884688e-09
1.1617396e-08
1.7141736e-09
1.1105255e-08
1.5001094e-09
1.0651707e-08
1.328489e-09
1.0246057e-08
1.1881923e-09
9.8801373e-09
1.0718214e-09
9.5476545e-09
9.7388172e-10
9.2435376e-09
8.9079665e-10
8.9637814e-09
8.1944259e-10
8.7052139e-09
7.5737803e-10
8.4651205e-09
7.0326539e-10
8.2412876e-09
6.556367e-10
8.0318466e-09
6.1348127e-10
7.8352152e-09
5.7596018e-10
7.6500456e-09
5.4238743e-10
7.4751834e-09
5.1219564e-10
7.3096322e-09
4.8492246e-10
7.1525211e-09
4.6020036e-10
7.003088e-09
4.3771061e-10
6.8606646e-09
4.1717807e-10
6.724662e-09
3.9837074e-10
6.5945615e-09
3.8108234e-10
6.4699024e-09
3.6514411e-10
6.3502699e-09
3.504203e-10
6.2352927e-09
3.3678402e-10
6.1246388e-09
3.2412086e-10
6.0180087e-09
3.1233414e-10
5.9151339e-09
3.0133461e-10
5.815775e-09
2.9103573e-10
5.7197173e-09
2.813662e-10
5.6267629e-09
2.7227578e-10
5.5367314e-09
2.6371442e-10
5.4494615e-09
2.5562495e-10
5.3648106e-09
2.4795378e-10
5.282651e-09
2.4065595e-10
5.2028696e-09
2.3368992e-10
5.1253703e-09
2.270054e-10
5.0500744e-09
2.2055115e-10
4.9769181e-09
2.1428363e-10
4.9058525e-09
2.0815975e-10
4.8368433e-09
2.0213629e-10
4.769871e-09
1.9616946e-10
4.7049332e-09
1.9021037e-10
4.6420509e-09
1.841897e-10
4.5812859e-09
1.7798764e-10
4.5227404e-09
1.7148635e-10
4.4665444e-09
1.6460439e-10
4.4128619e-09
1.5724228e-10
4.3618911e-09
1.492993e-10
4.3138675e-09
1.4066729e-10
4.2691052e-09
1.3111498e-10
4.2280161e-09
1.2035677e-10
4.1911062e-09
1.0811701e-10
4.1592236e-09
9.3392236e-11
4.1328181e-09
7.7355109e-11
4.1141447e-09
5.47033e-11
4.1041426e-09
2.9303717e-11
4.1034242e-09
2.1186563e-12
4.1147105e-09
-3.3046875e-11
4.1394752e-09
-7.2525963e-11
4.1796981e-09
-1.1780561e-10
4.2371016e-09
-1.6813314e-10
4.3123211e-09
-2.2032173e-10
4.4047482e-09
-2.7072809e-10
4.5137111e-09
-3.1917318e-10
4.6366532e-09
-3.6013539e-10
4.7657515e-09
-3.7817693e-10
4.8904537e-09
-3.6530413e-10
4.999924e-09
-3.2067532e-10
5.088718e-09
-2.600981e-10
5.1574032e-09
-2.0119324e-10
5.2081283e-09
-1.4857646e-10
5.2450072e-09
-1.0801567e-10
5.2714282e-09
-7.7382011e-11
5.2898861e-09
-5.405723e-11
5.3020269e-09
-3.5554473e-11
5.3088704e-09
-2.0038825e-11
5.3111704e-09
-6.7309574e-12
5.309254e-09
5.6180804e-12
5.3030642e-09
1.8135067e-11
5.2929714e-09
2.9566447e-11
5.2795769e-09
3.9237115e-11
5.263356e-09
4.7515703e-11
5.2449462e-09
5.3926939e-11
5.2248961e-09
5.873138e-11
5.2036132e-09
6.2342263e-11
5.1815481e-09
6.4633434e-11
5.1590991e-09
6.5757438e-11
5.1364721e-09
6.6278863e-11
5.113799e-09
6.6413856e-11
5.0912695e-09
6.5992987e-11
5.0690367e-09
6.5123893e-11
5.0471299e-09
6.4169109e-11
5.0255203e-09
6.329859e-11
5.0042001e-09
6.2451396e-11
4.9831725e-09
6.1594207e-11
4.9624669e-09
6.0650977e-11
4.9416509e-09
6.0975942e-11
4.9210256e-09
6.0417281e-11
4.8984613e-09
6.6101849e-11
4.8758115e-09
6.6355072e-11
4.8509049e-09
7.2938779e-11
4.3347882e-11
2.66368e-06
3.0014517e-10
2.6635549e-06
7.3036127e-10
2.6633948e-06
9.3388665e-10
2.663213e-06
1.059818e-09
2.6630043e-06
1.2169829e-09
2.6627648e-06
1.396842e-09
2.662491e-06
1.5970974e-09
2.662178e-06
1.8256492e-09
2.6618195e-06
2.0919277e-09
2.6614072e-06
2.4057175e-09
2.6609311e-06
2.779081e-09
2.6603778e-06
3.2297036e-09
2.6597303e-06
3.7810127e-09
2.658964e-06
4.4753866e-09
2.6580473e-06
5.3552343e-09
2.6569243e-06
6.562121e-09
2.6555375e-06
8.1061104e-09
2.6537036e-06
1.0723836e-08
2.6513814e-06
1.3583881e-08
2.6476762e-06
2.1687392e-08
2.6430393e-06
2.7146925e-08
2.6318366e-06
6.560882e-08
2.626684e-06
2.993521e-08
1.3742597e-06
7.5694695e-06
8.261425e-08
7.708323e-06
4.0407169e-08
1.3749332e-07
3.058428e-08
3.175398e-08
2.5837102e-08
1.5342937e-08
2.2904023e-08
9.4784172e-09
2.0823112e-08
6.7245502e-09
1.9234567e-08
5.1334984e-09
1.7960085e-08
4.1186732e-09
1.6906569e-08
3.4046049e-09
1.6015548e-08
2.8794902e-09
1.5247445e-08
2.4822764e-09
1.4575268e-08
2.1722858e-09
1.3979996e-08
1.9237611e-09
1.3447591e-08
1.7205977e-09
1.2967331e-08
1.5520814e-09
1.2530956e-08
1.4102564e-09
1.2131812e-08
1.289941e-09
1.1764641e-08
1.1866138e-09
1.1425279e-08
1.09674e-09
1.1110164e-08
1.0183802e-09
1.081639e-08
9.4941009e-10
1.0541506e-08
8.8836571e-10
1.0283434e-08
8.3403226e-10
1.0040405e-08
7.8541634e-10
9.8109043e-09
7.4169634e-10
9.593624e-09
7.0220276e-10
9.387421e-09
6.6640334e-10
9.1912951e-09
6.3383653e-10
9.0043693e-09
6.0410391e-10
8.8258705e-09
5.7686952e-10
8.6551181e-09
5.5183469e-10
8.4915072e-09
5.2875502e-10
8.3344936e-09
5.0743391e-10
8.18359e-09
4.8768763e-10
8.0383604e-09
4.6935049e-10
7.898412e-09
4.5228252e-10
7.7633922e-09
4.3635445e-10
7.6329869e-09
4.2144099e-10
7.5069142e-09
4.0743888e-10
7.3849146e-09
3.9427538e-10
7.266751e-09
3.81878e-10
7.152212e-09
3.7016394e-10
7.0411102e-09
3.5905561e-10
6.9332782e-09
3.4848791e-10
6.8285675e-09
3.3840068e-10
6.7268518e-09
3.2872109e-10
6.628028e-09
3.1937496e-10
6.5320124e-09
3.1029924e-10
6.4387406e-09
3.0143152e-10
6.3481677e-09
2.927092e-10
6.2602683e-09
2.8406887e-10
6.1750389e-09
2.7543972e-10
6.0925073e-09
2.6672136e-10
6.0127546e-09
2.5774033e-10
5.9359149e-09
2.4832601e-10
5.8621589e-09
2.3836041e-10
5.7917017e-09
2.2769949e-10
5.7248036e-09
2.1619737e-10
5.6617736e-09
2.0369729e-10
5.6030243e-09
1.8986433e-10
5.5490962e-09
1.7428486e-10
5.5006537e-09
1.5655946e-10
5.4588095e-09
1.352365e-10
5.4241564e-09
1.1200817e-10
5.3996494e-09
7.9210276e-11
5.386523e-09
4.2430153e-11
5.3855843e-09
3.057335e-12
5.4004003e-09
-4.7862814e-11
5.4329068e-09
-1.0503246e-10
5.485701e-09
-1.7059985e-10
5.5610434e-09
-2.4347555e-10
5.6597677e-09
-3.19046e-10
5.7810754e-09
-3.9203582e-10
5.924083e-09
-4.6218075e-10
6.085433e-09
-5.2148537e-10
6.2548603e-09
-5.476043e-10
6.418517e-09
-5.2896076e-10
6.5621879e-09
-4.6434627e-10
6.6787267e-09
-3.7663686e-10
6.7688738e-09
-2.9134034e-10
6.8354521e-09
-2.1515481e-10
6.8838583e-09
-1.5642184e-10
6.9185392e-09
-1.1206287e-10
6.9427684e-09
-7.8286455e-11
6.958706e-09
-5.1492111e-11
6.9676908e-09
-2.9023635e-11
6.9707119e-09
-9.7520405e-12
6.9681989e-09
8.1311127e-12
6.9600767e-09
2.6257212e-11
6.9468318e-09
4.2811413e-11
6.9292532e-09
5.6815734e-11
6.9079649e-09
6.8803975e-11
6.8838035e-09
7.8088309e-11
6.8574892e-09
8.5045747e-11
6.8295568e-09
9.0274587e-11
6.8005977e-09
9.3592562e-11
6.7711346e-09
9.5220499e-11
6.7414379e-09
9.5975615e-11
6.7116807e-09
9.6171022e-11
6.682112e-09
9.5561688e-11
6.6529326e-09
9.4303364e-11
6.6241809e-09
9.2920758e-11
6.5958195e-09
9.1660029e-11
6.5678378e-09
9.0433076e-11
6.5402403e-09
8.919168e-11
6.5130655e-09
8.7825756e-11
6.4857461e-09
8.8295327e-11
6.4586771e-09
8.7486349e-11
6.4290651e-09
9.5713791e-11
6.399341e-09
9.6079164e-11
6.3666512e-09
1.0562866e-10
6.2757974e-11
2.898571e-06
3.5637137e-10
2.898434e-06
8.6741064e-10
2.8982585e-06
1.1093509e-09
2.8980594e-06
1.2589879e-09
2.8978307e-06
1.4456695e-09
2.8975682e-06
1.6592946e-09
2.8972682e-06
1.8971287e-09
2.8969253e-06
2.1685484e-09
2.8965325e-06
2.4847497e-09
2.8960808e-06
2.8573474e-09
2.8955593e-06
3.3006581e-09
2.8949533e-06
3.8356715e-09
2.8942441e-06
4.490189e-09
2.893405e-06
5.314507e-09
2.8924013e-06
6.3589374e-09
2.8911719e-06
7.7915059e-09
2.889654e-06
9.6240344e-09
2.887647e-06
1.2730849e-08
2.8851062e-06
1.612468e-08
2.8810532e-06
2.5740393e-08
2.8759816e-06
3.2218513e-08
2.8637311e-06
7.7859309e-08
2.8580752e-06
3.5591079e-08
1.5073749e-06
8.9201698e-06
1.0692454e-07
9.1087733e-06
5.2442565e-08
1.9197529e-07
3.9695741e-08
4.4500805e-08
3.3534679e-08
2.1503999e-08
2.9727636e-08
1.3285459e-08
2.7026674e-08
9.4255128e-09
2.4964799e-08
7.1953726e-09
2.3310593e-08
5.7728794e-09
2.1943193e-08
4.7720047e-09
2.0786705e-08
4.0359787e-09
1.9789762e-08
3.4792192e-09
1.8917329e-08
3.0447191e-09
1.8144714e-08
2.6963762e-09
1.7453696e-08
2.4116154e-09
1.683036e-08
2.1754177e-09
1.6263983e-08
1.9766329e-09
1.574593e-08
1.8079947e-09
1.5269375e-08
1.6631684e-09
1.4828914e-08
1.537201e-09
1.4419924e-08
1.4273702e-09
1.4038633e-08
1.3307008e-09
1.3681859e-08
1.2451402e-09
1.3346905e-08
1.1689857e-09
1.3031477e-08
1.1008451e-09
1.2733606e-08
1.0395667e-09
1.2451597e-08
9.8421217e-10
1.2183965e-08
9.3403541e-10
1.1929412e-08
8.8838951e-10
1.16868e-08
8.4671605e-10
1.1455125e-08
8.0854414e-10
1.1233504e-08
7.7345519e-10
1.1021153e-08
7.4110663e-10
1.0817364e-08
7.1122287e-10
1.0621505e-08
6.835464e-10
1.0433011e-08
6.5784501e-10
1.0251371e-08
6.3392248e-10
1.0076127e-08
6.1159766e-10
9.9068734e-09
5.9069496e-10
9.7432427e-09
5.7106964e-10
9.5848983e-09
5.5261972e-10
9.4315327e-09
5.3524359e-10
9.2828715e-09
5.1882521e-10
9.1386713e-09
5.0325583e-10
8.998715e-09
4.8844419e-10
8.8628097e-09
4.7430598e-10
8.7307916e-09
4.6073914e-10
8.6025269e-09
4.4763969e-10
8.4779069e-09
4.3491926e-10
8.356848e-09
4.2249036e-10
8.239292e-09
4.1026525e-10
8.1252058e-09
3.9815502e-10
8.0145851e-09
3.8606043e-10
7.9074658e-09
3.7384074e-10
7.8039532e-09
3.612529e-10
7.7042214e-09
3.4805777e-10
7.6084919e-09
3.340899e-10
7.517044e-09
3.1914745e-10
7.4302155e-09
3.0302587e-10
7.3484075e-09
2.8550525e-10
7.2721557e-09
2.6611616e-10
7.2021618e-09
2.4427873e-10
7.1392886e-09
2.194327e-10
7.0849792e-09
1.8954588e-10
7.040007e-09
1.5698033e-10
7.0082006e-09
1.1101666e-10
6.9911645e-09
5.9466269e-11
6.9899517e-09
4.2701557e-12
7.0091852e-09
-6.7096254e-11
7.0513799e-09
-1.4722719e-10