/*--------------------------------*- C++ -*----------------------------------*\
| =========                 |                                                 |
| \\      /  F ield         | OpenFOAM: The Open Source CFD Toolbox           |
|  \\    /   O peration     | Version:  2206                                  |
|   \\  /    A nd           | Website:  www.openfoam.com                      |
|    \\/     M anipulation  |                                                 |
\*---------------------------------------------------------------------------*/
FoamFile
{
    version     2.0;
    format      ascii;
    arch        "LSB;label=32;scalar=64";
    class       volVectorField;
    location    "700";
    object      U;
}
// * * * * * * * * * * * * * * * * * * * * * * * * * * * * * * * * * * * * * //

dimensions      [0 1 -1 0 0 0 0];

internalField   nonuniform List<vector> 
13056
(
(1 4.7018059e-10 5.0377709e-25)
(0.99996461 1.2969668e-09 0)
(0.99990975 1.8803391e-09 0)
(0.99984816 2.4205975e-09 0)
(0.99977769 3.1525691e-09 0)
(0.99969653 4.1023569e-09 0)
(0.9996036 5.3147749e-09 0)
(0.99949744 6.8790753e-09 0)
(0.99937598 8.9169792e-09 0)
(0.99923658 1.1586608e-08 0)
(0.99907594 1.5100453e-08 0)
(0.99888991 1.9759806e-08 0)
(0.99867297 2.598284e-08 0)
(0.99841803 3.4436089e-08 0)
(0.99811434 4.5959057e-08 0)
(0.99774928 6.250831e-08 0)
(0.99729493 8.5195177e-08 0)
(0.99673581 1.2345586e-07 0)
(0.9959562 1.6980808e-07 0)
(0.99503223 2.9142394e-07 0)
(0.99325306 3.8735121e-07 0)
(0.99160781 9.8094333e-07 0)
(0.98507588 4.5902868e-07 -5.2759158e-21)
(0.98775283 0.0001229388 8.8708794e-18)
(0.0031330008 0.00012345618 0)
(0.0012307211 7.4093024e-08 -1.2428098e-20)
(0.00087552069 4.8150618e-08 4.1167442e-18)
(0.00071876963 6.1082573e-09 0)
(0.00062815117 3.7406057e-09 0)
(0.00056596262 2.6295019e-09 0)
(0.00051972412 1.9889807e-09 0)
(0.00048317827 1.5806674e-09 0)
(0.0004532968 1.2938491e-09 0)
(0.00042826429 1.0833222e-09 0)
(0.00040685011 9.2428083e-10 0)
(0.0003882226 8.003209e-10 0)
(0.00037180736 7.0108381e-10 0)
(0.00035718797 6.2007943e-10 0)
(0.00034404948 5.5298146e-10 0)
(0.00033214813 4.9658506e-10 0)
(0.00032129736 4.4878662e-10 0)
(0.00031133661 4.0778936e-10 1.1761297e-25)
(0.00030215262 3.721845e-10 0)
(0.00029364172 3.4116236e-10 0)
(0.00028572178 3.1388572e-10 0)
(0.00027832352 2.8976364e-10 0)
(0.00027138836 2.6830883e-10 0)
(0.00026486663 2.4912425e-10 0)
(0.00025871578 2.3188253e-10 0)
(0.00025289937 2.1631677e-10 0)
(0.00024738568 2.0221287e-10 0)
(0.00024214684 1.8938639e-10 0)
(0.00023715856 1.7767925e-10 0)
(0.00023239941 1.6695816e-10 0)
(0.00022785052 1.57106e-10 0)
(0.00022349528 1.4802616e-10 0)
(0.00021931875 1.3963934e-10 0)
(0.0002153075 1.3187291e-10 0)
(0.00021144956 1.246623e-10 0)
(0.00020773417 1.1795253e-10 0)
(0.00020415161 1.1169378e-10 0)
(0.00020069321 1.0583947e-10 0)
(0.00019735128 1.003508e-10 0)
(0.0001941188 9.5198132e-11 0)
(0.00019098926 9.0353117e-11 0)
(0.00018795681 8.5786329e-11 0)
(0.00018501628 8.1470995e-11 0)
(0.00018216307 7.738457e-11 0)
(0.00017939305 7.3506765e-11 0)
(0.00017670261 6.9815599e-11 0)
(0.00017408879 6.6290232e-11 0)
(0.00017154917 6.2913526e-11 0)
(0.0001690818 5.9669565e-11 0)
(0.00016668529 5.6543523e-11 0)
(0.0001643587 5.3521594e-11 0)
(0.00016210163 5.0589713e-11 0)
(0.00015991431 4.7729858e-11 0)
(0.00015779797 4.4912993e-11 0)
(0.00015575564 4.2113781e-11 0)
(0.00015379129 3.9318909e-11 0)
(0.00015190987 3.6512503e-11 0)
(0.00015011767 3.3681027e-11 0)
(0.00014842198 3.0811924e-11 0)
(0.00014683164 2.7869057e-11 0)
(0.00014535937 2.4810243e-11 0)
(0.00014402066 2.1601995e-11 0)
(0.00014283467 1.8087573e-11 0)
(0.00014184072 1.448497e-11 0)
(0.00014102908 9.9561376e-12 -5.1883079e-25)
(0.0001405677 1.9387547e-11 0)
(0.00014034784 5.6257809e-13 0)
(0.00014052425 -5.3003658e-12 0)
(0.00014112716 -1.1219791e-11 0)
(0.00014222776 -1.7597136e-11 0)
(0.00014389055 -2.4191546e-11 0)
(0.00014616902 -3.0491245e-11 0)
(0.000149052 -3.5984976e-11 0)
(0.00015250866 -4.0689486e-11 0)
(0.00015652471 -4.399251e-11 0)
(0.00016093663 -4.4228188e-11 0)
(0.00016536691 -4.0835007e-11 0)
(0.00016947041 -3.4247266e-11 0)
(0.00017284714 -9.9569024e-11 8.5018712e-21)
(0.00017553436 -1.9476411e-11 0)
(0.00017753343 -1.3667048e-11 0)
(0.00017899349 -9.4216024e-12 0)
(0.00018004734 -6.3906259e-12 0)
(0.00018079359 -4.2206508e-12 0)
(0.00018130394 -2.6214321e-12 0)
(0.00018161865 -1.3951777e-12 0)
(0.000181767 -4.7968163e-13 0)
(0.00018177114 3.7155392e-13 0)
(0.00018163063 1.0190016e-12 0)
(0.0001813483 1.6254755e-12 0)
(0.00018094321 2.1606368e-12 0)
(0.00018043131 2.6190295e-12 0)
(0.00017983277 2.9740023e-12 0)
(0.00017917107 3.2401033e-12 0)
(0.00017846028 3.4403602e-12 0)
(0.0001777142 3.5675234e-12 0)
(0.00017694987 3.6300123e-12 0)
(0.00017617754 3.6591819e-12 0)
(0.00017540104 3.6670161e-12 0)
(0.00017462554 3.6440571e-12 0)
(0.00017385888 3.5962065e-12 0)
(0.0001731037 3.5436384e-12 0)
(0.00017235935 3.4957149e-12 0)
(0.0001716245 3.4491691e-12 0)
(0.00017089993 3.4019389e-12 0)
(0.0001701851 3.3499989e-12 0)
(0.00016948257 3.368023e-12 0)
(0.00016876006 3.3383143e-12 0)
(0.00016807062 3.6507782e-12 0)
(0.00016721483 1.3838131e-11 0)
(0.00016651981 3.9735538e-12 4.8199483e-24)
(0.00016550907 9.124616e-12 0)
(1 1.4198287e-09 0)
(0.9999645 3.9178106e-09 0)
(0.99990945 5.6806686e-09 0)
(0.99984764 7.3129736e-09 0)
(0.99977692 9.5242931e-09 0)
(0.99969548 1.2393582e-08 0)
(0.99960222 1.6056176e-08 0)
(0.99949568 2.0781627e-08 0)
(0.9993738 2.6937558e-08 0)
(0.99923393 3.5001511e-08 0)
(0.99907274 4.5615203e-08 0)
(0.99888609 5.968849e-08 0)
(0.99866844 7.8484129e-08 0)
(0.99841267 1.0401484e-07 0)
(0.99810801 1.3881536e-07 0)
(0.99774182 1.8879377e-07 0)
(0.99728608 2.5730378e-07 0)
(0.9967253 3.7283904e-07 0)
(0.99594345 5.1279604e-07 0)
(0.99501692 8.7998933e-07 0)
(0.99323305 1.1696182e-06 0)
(0.9915835 2.9618923e-06 0)
(0.9850349 1.3842294e-06 1.9585163e-20)
(0.98771132 0.00036949363 -7.6178282e-21)
(0.009410037 0.0003715327 0)
(0.0037102832 1.2150099e-06 0)
(0.0026396064 2.7131178e-07 3.6641787e-22)
(0.0021670652 1.2803575e-07 0)
(0.0018938451 7.8379899e-08 0)
(0.0017063433 5.5104518e-08 0)
(0.0015669307 4.1677987e-08 0)
(0.0014567446 3.312197e-08 0)
(0.0013666522 2.7111788e-08 0)
(0.0012911795 2.2699966e-08 0)
(0.0012266163 1.9367142e-08 0)
(0.0011704551 1.6769476e-08 0)
(0.0011209641 1.4689934e-08 0)
(0.0010768875 1.2992506e-08 0)
(0.0010372759 1.1586475e-08 0)
(0.0010013941 1.0404809e-08 0)
(0.00096867983 9.4033545e-09 -1.0073595e-24)
(0.00093864904 8.5442262e-09 -1.6087675e-25)
(0.00091096002 7.79808e-09 0)
(0.00088530039 7.1480531e-09 0)
(0.00086142245 6.5764925e-09 0)
(0.00083911732 6.0710352e-09 0)
(0.00081820844 5.6214748e-09 0)
(0.00079854599 5.2194884e-09 0)
(0.00078000174 4.8582166e-09 0)
(0.00076246582 4.5320649e-09 0)
(0.00074584254 4.2365446e-09 0)
(0.00073004791 3.9677923e-09 0)
(0.00071500871 3.7224947e-09 0)
(0.00070066031 3.4978588e-09 0)
(0.00068694582 3.2914317e-09 0)
(0.00067381518 3.1011872e-09 0)
(0.00066122334 2.9254626e-09 0)
(0.00064912981 2.7627374e-09 0)
(0.00063749848 2.6116582e-09 0)
(0.00062629692 2.4710728e-09 0)
(0.00061549583 2.3399376e-09 0)
(0.00060506907 2.2172769e-09 0)
(0.00059499345 2.1022765e-09 0)
(0.00058524782 1.9943151e-09 0)
(0.00057581253 1.8927992e-09 0)
(0.00056666998 1.797112e-09 0)
(0.00055780453 1.7066925e-09 0)
(0.00054920236 1.6210678e-09 0)
(0.000540851 1.5398124e-09 0)
(0.00053273955 1.4624669e-09 0)
(0.0005248591 1.3885942e-09 0)
(0.00051720235 1.3178337e-09 0)
(0.00050976346 1.2498514e-09 0)
(0.00050253817 1.1843365e-09 0)
(0.00049552368 1.1209991e-09 0)
(0.00048871882 1.0595447e-09 0)
(0.00048212422 9.9959459e-10 0)
(0.00047574364 9.4054058e-10 0)
(0.00046958618 8.8185121e-10 0)
(0.00046366385 8.2324242e-10 0)
(0.00045799152 7.6438313e-10 0)
(0.00045258823 7.0498928e-10 0)
(0.0004474759 6.4479553e-10 0)
(0.00044268122 5.8303975e-10 0)
(0.00043824253 5.1884601e-10 0)
(0.00043420657 4.5152853e-10 0)
(0.00043063113 3.7756931e-10 0)
(0.0004276347 3.0257718e-10 0)
(0.00042518817 2.0679404e-10 7.6084566e-25)
(0.00042379729 1.0854391e-10 5.0525953e-25)
(0.00042313511 7.4521413e-12 0)
(0.00042366748 -1.1212019e-10 0)
(0.00042548581 -2.371781e-10 0)
(0.00042880464 -3.7080674e-10 0)
(0.00043381839 -5.0885148e-10 0)
(0.00044068822 -6.4046521e-10 0)
(0.00044938047 -7.5509877e-10 0)
(0.00045980215 -8.5324089e-10 0)
(0.00047190988 -9.2172596e-10 0)
(0.00048521054 -9.255059e-10 0)
(0.00049856624 -8.5376254e-10 0)
(0.00051093657 -7.1470846e-10 0)
(0.00052111639 -5.601126e-10 -1.0594884e-25)
(0.00052921743 -4.0611855e-10 0)
(0.0005352442 -2.8475344e-10 0)
(0.0005396461 -1.9625326e-10 0)
(0.00054282338 -1.3305809e-10 0)
(0.00054507337 -8.7812254e-11 0)
(0.00054661214 -5.4458565e-11 0)
(0.00054756106 -2.8876318e-11 0)
(0.00054800844 -9.0668409e-12 0)
(0.00054802101 7.1173332e-12 0)
(0.00054759744 2.1539996e-11 0)
(0.00054674629 3.4215738e-11 0)
(0.00054552501 4.5400882e-11 0)
(0.00054398171 5.4976663e-11 0)
(0.00054217722 6.2391452e-11 0)
(0.00054018228 6.7948158e-11 0)
(0.00053803934 7.2125166e-11 0)
(0.00053579001 7.4774716e-11 0)
(0.00053348568 7.6073706e-11 0)
(0.00053115719 7.6676628e-11 0)
(0.00052881613 7.6833031e-11 0)
(0.00052647812 7.6345652e-11 0)
(0.00052416672 7.5339448e-11 0)
(0.00052188997 7.4234994e-11 0)
(0.00051964583 7.3228455e-11 0)
(0.00051743038 7.2249007e-11 0)
(0.0005152459 7.1257697e-11 0)
(0.00051309081 7.0166932e-11 0)
(0.00051097279 7.0545669e-11 0)
(0.00050879461 6.9901804e-11 0)
(0.00050671606 7.6486052e-11 0)
(0.0005041364 7.7929549e-11 0)
(0.00050204098 8.4237914e-11 -7.4555612e-24)
(0.00049899369 5.1103508e-11 1.151322e-24)
(1 2.3938103e-09 0)
(0.99996438 6.6060596e-09 0)
(0.99990912 9.5795259e-09 0)
(0.99984706 1.2332363e-08 0)
(0.99977606 1.6061349e-08 0)
(0.9996943 2.089978e-08 0)
(0.99960067 2.7075799e-08 0)
(0.99949373 3.5043827e-08 0)
(0.99937138 4.5423632e-08 0)
(0.99923097 5.9020268e-08 0)
(0.99906918 7.6915512e-08 0)
(0.99888183 1.0064311e-07 0)
(0.99866339 1.323316e-07 0)
(0.99840671 1.7537365e-07 0)
(0.99810097 2.3404135e-07 0)
(0.99773351 3.1829325e-07 0)
(0.99727623 4.3377913e-07 0)
(0.99671362 6.2852711e-07 0)
(0.99592927 8.6442211e-07 0)
(0.99499989 1.4832932e-06 0)
(0.99321081 1.971433e-06 0)
(0.9915565 4.9922054e-06 0)
(0.98498946 2.3361273e-06 -1.0376294e-20)
(0.9876653 0.00061979934 6.8188919e-55)
(0.015790282 0.00062439247 -6.8170037e-55)
(0.0062449007 3.4069653e-06 0)
(0.004443022 7.7501444e-07 -1.962298e-22)
(0.0036476997 3.7170754e-07 0)
(0.0031877921 2.2756081e-07 0)
(0.0028721732 1.5998691e-07 0)
(0.0026375007 1.210039e-07 0)
(0.0024520285 9.616209e-08 0)
(0.0023003799 7.8712803e-08 0)
(0.0021733401 6.5903948e-08 0)
(0.0020646642 5.6227645e-08 0)
(0.0019701315 4.8685812e-08 0)
(0.0018868264 4.2648313e-08 0)
(0.0018126353 3.772023e-08 0)
(0.0017459598 3.3638159e-08 0)
(0.0016855627 3.0207496e-08 0)
(0.0016304971 2.7300009e-08 0)
(0.0015799486 2.4805752e-08 0)
(0.0015333418 2.2639536e-08 0)
(0.0014901509 2.0752354e-08 0)
(0.0014499591 1.9092987e-08 0)
(0.0014124146 1.7625533e-08 0)
(0.0013772204 1.632036e-08 0)
(0.0013441242 1.5153306e-08 0)
(0.0013129101 1.4104456e-08 0)
(0.0012833934 1.3157568e-08 0)
(0.0012554127 1.229961e-08 0)
(0.0012288269 1.1519365e-08 0)
(0.0012035127 1.0807214e-08 0)
(0.0011793612 1.0155048e-08 0)
(0.0011562767 9.5557469e-09 0)
(0.001134175 9.0034277e-09 0)
(0.0011129802 8.4932626e-09 0)
(0.0010926241 8.0208376e-09 0)
(0.001073046 7.5822235e-09 0)
(0.0010541914 7.174075e-09 0)
(0.0010360108 6.7933623e-09 0)
(0.0010184603 6.4372535e-09 0)
(0.0010015008 6.1033845e-09 0)
(0.00098509675 5.7899514e-09 0)
(0.00096921508 5.4952307e-09 0)
(0.00095382615 5.2174317e-09 0)
(0.00093890365 4.9549261e-09 0)
(0.00092442429 4.7063411e-09 0)
(0.00091036711 4.470441e-09 0)
(0.00089671374 4.2458922e-09 0)
(0.00088344919 4.0314259e-09 0)
(0.00087056118 3.8259952e-09 0)
(0.00085803987 3.6286303e-09 0)
(0.00084587809 3.438429e-09 0)
(0.00083407113 3.2545492e-09 0)
(0.00082261702 3.076136e-09 0)
(0.00081151684 2.9020898e-09 0)
(0.00080077688 2.7306455e-09 0)
(0.0007904125 2.5602607e-09 0)
(0.00078044391 2.3901096e-09 0)
(0.00077089612 2.2192318e-09 0)
(0.00076180118 2.0468024e-09 0)
(0.00075319603 1.8720487e-09 0)
(0.00074512558 1.6927592e-09 0)
(0.00073765437 1.50639e-09 0)
(0.00073086111 1.3109453e-09 0)
(0.0007248431 1.0962441e-09 0)
(0.00071979971 8.7844434e-10 0)
(0.00071568236 6.0045228e-10 0)
(0.00071334128 3.1026002e-10 1.0708119e-24)
(0.00071222751 2.2003128e-11 0)
(0.00071312424 -3.2555237e-10 0)
(0.00071618564 -6.8849787e-10 0)
(0.00072177271 -1.0764408e-09 0)
(0.00073021264 -1.4772043e-09 0)
(0.0007417766 -1.8593126e-09 0)
(0.00075640793 -2.1921421e-09 0)
(0.00077395007 -2.4770571e-09 0)
(0.00079432957 -2.6758561e-09 0)
(0.0008167163 -2.6868789e-09 0)
(0.00083919539 -2.4786397e-09 0)
(0.00086001561 -2.0750782e-09 0)
(0.00087714974 -1.6004473e-09 0)
(0.00089078478 -1.1791879e-09 0)
(0.00090092895 -8.2685007e-10 0)
(0.00090833833 -5.6988793e-10 0)
(0.00091368656 -3.8639773e-10 0)
(0.00091747399 -2.5501834e-10 0)
(0.00092006428 -1.5816703e-10 0)
(0.00092166171 -8.3884418e-11 0)
(0.00092241492 -2.6449338e-11 0)
(0.00092243622 2.0742335e-11 0)
(0.00092172337 6.2508999e-11 0)
(0.00092029081 9.9314659e-11 0)
(0.00091823519 1.3179111e-10 0)
(0.00091563755 1.5959425e-10 0)
(0.00091260026 1.8112411e-10 0)
(0.00090924239 1.9725877e-10 0)
(0.00090563541 2.093867e-10 0)
(0.00090184935 2.1708071e-10 0)
(0.0008979707 2.2085381e-10 0)
(0.00089405139 2.2260496e-10 0)
(0.00089011091 2.2305925e-10 0)
(0.00088617559 2.2164515e-10 0)
(0.00088228503 2.1872496e-10 0)
(0.00087845279 2.1551856e-10 0)
(0.00087467546 2.1259614e-10 0)
(0.00087094642 2.0975225e-10 0)
(0.00086726953 2.0687427e-10 0)
(0.00086364211 2.0370713e-10 0)
(0.00086007708 2.0480524e-10 0)
(0.0008564109 2.0293214e-10 0)
(0.00085291229 2.2204734e-10 0)
(0.0008485708 2.2259503e-10 0)
(0.00084504375 2.4475996e-10 0)
(0.00083991452 1.4569234e-10 0)
(1 3.4072717e-09 1.0796374e-24)
(0.99996425 9.4042684e-09 0)
(0.99990874 1.3638853e-08 0)
(0.99984642 1.755856e-08 0)
(0.9997751 2.2867632e-08 0)
(0.99969298 2.9756097e-08 0)
(0.99959894 3.8548644e-08 0)
(0.99949153 4.9892042e-08 0)
(0.99936866 6.4668416e-08 0)
(0.99922765 8.4023572e-08 0)
(0.99906519 1.0949709e-07 0)
(0.99887707 1.4327173e-07 0)
(0.99865774 1.8837653e-07 0)
(0.99840003 2.4963949e-07 0)
(0.99809309 3.3313931e-07 0)
(0.99772422 4.5304728e-07 0)
(0.99726522 6.1739817e-07 0)
(0.99670055 8.9453729e-07 0)
(0.99591342 1.2302012e-06 0)
(0.99498087 2.1107758e-06 0)
(0.99318597 2.8053286e-06 0)
(0.99152635 7.1035359e-06 0)
(0.98493882 3.3282884e-06 0)
(0.987614 0.00087753283 -3.5574901e-55)
(0.02236575 0.00088589258 3.5565181e-55)
(0.0088723172 7.0269135e-06 0)
(0.006312638 1.5978082e-06 0)
(0.0051827392 7.6563393e-07 0)
(0.0045292752 4.6874587e-07 0)
(0.0040808259 3.2955419e-07 0)
(0.0037473875 2.4925217e-07 0)
(0.0034838612 1.9807953e-07 0)
(0.0032683938 1.6213634e-07 0)
(0.0030878915 1.3575179e-07 0)
(0.002933482 1.1581974e-07 0)
(0.0027991679 1.0028451e-07 0)
(0.0026808067 8.7848122e-08 0)
(0.0025753949 7.7697022e-08 0)
(0.0024806615 6.9288594e-08 0)
(0.0023948488 6.2222001e-08 0)
(0.002316611 5.6233035e-08 0)
(0.0022447915 5.1095275e-08 0)
(0.0021785722 4.6633271e-08 0)
(0.0021172065 4.2746e-08 0)
(0.0020601017 3.9327999e-08 0)
(0.0020067584 3.6305306e-08 0)
(0.0019567543 3.3616886e-08 0)
(0.0019097311 3.1212966e-08 0)
(0.0018653821 2.9052527e-08 0)
(0.0018234445 2.7102113e-08 0)
(0.0017836896 2.5334878e-08 0)
(0.0017459164 2.3727718e-08 0)
(0.0017099498 2.226082e-08 0)
(0.0016756354 2.091748e-08 0)
(0.0016428369 1.9683033e-08 0)
(0.0016114347 1.854536e-08 0)
(0.001581321 1.7494516e-08 0)
(0.0015523991 1.652141e-08 0)
(0.0015245825 1.5617949e-08 0)
(0.0014977938 1.477724e-08 0)
(0.0014719627 1.3993045e-08 0)
(0.0014470269 1.3259529e-08 0)
(0.0014229308 1.2571824e-08 0)
(0.0013996239 1.1926212e-08 0)
(0.0013770592 1.1319145e-08 0)
(0.0013551945 1.0746932e-08 0)
(0.0013339925 1.0206221e-08 0)
(0.0013134202 9.6941844e-09 0)
(0.0012934477 9.2082757e-09 0)
(0.0012740489 8.7457484e-09 0)
(0.0012552025 8.3039894e-09 0)
(0.0012368912 7.8808419e-09 0)
(0.0012191008 7.4743081e-09 0)
(0.0012018212 7.0825297e-09 0)
(0.0011850458 6.7037717e-09 0)
(0.0011687717 6.3362731e-09 0)
(0.0011530004 5.9777686e-09 0)
(0.001137741 5.6246234e-09 0)
(0.0011230152 5.2736604e-09 0)
(0.0011088518 4.9231775e-09 0)
(0.0010952862 4.5711973e-09 0)
(0.001082364 4.2160197e-09 0)
(0.0010701378 3.8560505e-09 0)
(0.0010586713 3.4867346e-09 0)
(0.0010480562 3.102832e-09 0)
(0.0010384045 2.7002278e-09 0)
(0.0010298544 2.2579629e-09 0)
(0.001022689 1.8092869e-09 0)
(0.00101684 1.2366799e-09 -4.3887863e-25)
(0.0010135137 6.3956176e-10 -5.8293435e-25)
(0.0010119324 4.5071446e-11 0)
(0.0010132072 -6.7076888e-10 0)
(0.0010175577 -1.4183926e-09 0)
(0.0010254968 -2.2174689e-09 0)
(0.0010374891 -3.0429318e-09 0)
(0.0010539198 -3.8299548e-09 0)
(0.0010747084 -4.5154762e-09 0)
(0.0010996325 -5.102257e-09 0)
(0.0011285871 -5.5115971e-09 0)
(0.0011603925 -5.5341936e-09 0)
(0.001192329 -5.1052196e-09 0)
(0.0012219081 -4.2740203e-09 0)
(0.0012462517 -3.2997757e-09 1.2207584e-25)
(0.0012656235 -2.4288081e-09 0)
(0.0012800363 -1.7031255e-09 0)
(0.0012905638 -1.1738616e-09 0)
(0.0012981629 -7.9592215e-10 0)
(0.0013035445 -5.2530903e-10 0)
(0.0013072252 -3.2581142e-10 0)
(0.0013094951 -1.7280246e-10 0)
(0.0013105656 -5.4483176e-11 0)
(0.0013105961 4.2701932e-11 0)
(0.0013095835 1.2874899e-10 0)
(0.0013075483 2.0456409e-10 0)
(0.0013046278 2.7146037e-10 0)
(0.0013009372 3.2872928e-10 0)
(0.0012966219 3.7307805e-10 0)
(0.0012918511 4.063123e-10 0)
(0.0012867264 4.3129268e-10 0)
(0.0012813473 4.4714113e-10 0)
(0.0012758365 4.5491391e-10 0)
(0.001270268 4.5852081e-10 0)
(0.0012646694 4.5945584e-10 0)
(0.0012590782 4.5654328e-10 0)
(0.0012535505 4.5052896e-10 0)
(0.0012481057 4.4392414e-10 0)
(0.0012427389 4.3790379e-10 0)
(0.0012374408 4.3204497e-10 0)
(0.0012322167 4.2611639e-10 0)
(0.001227063 4.1959212e-10 0)
(0.0012219979 4.2185073e-10 0)
(0.0012167892 4.1798878e-10 0)
(0.0012118184 4.573542e-10 0)
(0.0012056509 4.5890114e-10 0)
(0.0012006397 5.0436382e-10 0)
(0.0011933521 3.0006908e-10 0)
(1 4.4759748e-09 0)
(0.9999641 1.2356094e-08 0)
(0.99990833 1.7922183e-08 0)
(0.99984569 2.3073405e-08 0)
(0.99977402 3.0049707e-08 0)
(0.99969149 3.9101153e-08 0)
(0.999597 5.0654219e-08 0)
(0.99948907 6.5558478e-08 0)
(0.99936561 8.4972704e-08 0)
(0.99922393 1.1040198e-07 0)
(0.99906071 1.4386854e-07 0)
(0.99887172 1.8823928e-07 0)
(0.99865139 2.4749245e-07 0)
(0.99839253 3.2796891e-07 0)
(0.99808424 4.3765105e-07 0)
(0.99771378 5.9515033e-07 0)
(0.99725286 8.110116e-07 0)
(0.99668587 1.1749939e-06 0)
(0.99589562 1.6157968e-06 0)
(0.99495952 2.7721324e-06 0)
(0.99315811 3.6841751e-06 0)
(0.99149254 9.3284466e-06 0)
(0.98488212 4.3764096e-06 0)
(0.98755656 0.0011463429 0)
(0.029229541 0.0011597604 0)
(0.011631648 1.2228109e-05 0)
(0.0082763107 2.7722904e-06 0)
(0.0067950626 1.327853e-06 0)
(0.0059382876 8.1299537e-07 0)
(0.0053503139 5.7158271e-07 0)
(0.0049131312 4.3230377e-07 0)
(0.0045676193 3.4354676e-07 0)
(0.0042851192 2.8120684e-07 0)
(0.0040484621 2.3544544e-07 0)
(0.0038460162 2.0087501e-07 0)
(0.0036699182 1.7393061e-07 0)
(0.0035147362 1.5236102e-07 0)
(0.0033765324 1.347551e-07 0)
(0.0032523292 1.2017167e-07 0)
(0.0031398217 1.0791557e-07 0)
(0.0030372456 9.7528409e-08 0)
(0.0029430848 8.8617599e-08 0)
(0.0028562661 8.0878886e-08 0)
(0.0027758109 7.4136916e-08 0)
(0.0027009421 6.8208857e-08 0)
(0.002631005 6.2966407e-08 0)
(0.0025654458 5.830371e-08 0)
(0.0025037949 5.4134442e-08 0)
(0.00244565 5.0387462e-08 0)
(0.0023906668 4.7004744e-08 0)
(0.0023385451 4.3939723e-08 0)
(0.0022890216 4.1152331e-08 0)
(0.0022418668 3.8608204e-08 0)
(0.0021968779 3.6278373e-08 0)
(0.0021538767 3.41374e-08 0)
(0.0021127061 3.2164271e-08 0)
(0.0020732248 3.0341734e-08 0)
(0.002035306 2.8654022e-08 0)
(0.0019988364 2.7087098e-08 0)
(0.0019637143 2.5629011e-08 0)
(0.0019298479 2.4268937e-08 0)
(0.0018971552 2.2996762e-08 0)
(0.0018655634 2.1804038e-08 0)
(0.0018350062 2.0684321e-08 0)
(0.0018054221 1.9631452e-08 0)
(0.0017767559 1.8639034e-08 0)
(0.0017489585 1.7701251e-08 0)
(0.0017219866 1.6813198e-08 0)
(0.001695801 1.5970461e-08 0)
(0.0016703677 1.5168275e-08 0)
(0.0016456586 1.440211e-08 0)
(0.001621651 1.3668223e-08 0)
(0.0015983263 1.296315e-08 0)
(0.0015756715 1.2283668e-08 0)
(0.0015536775 1.1626766e-08 0)
(0.0015323408 1.0989392e-08 0)
(0.0015116634 1.0367614e-08 0)
(0.0014916571 9.7551315e-09 0)
(0.0014723503 9.1464337e-09 0)
(0.0014537808 8.5385666e-09 0)
(0.0014359953 7.9281017e-09 0)
(0.0014190533 7.3120896e-09 0)
(0.0014030237 6.6877606e-09 0)
(0.0013879902 6.0472153e-09 0)
(0.0013740731 5.3813646e-09 0)
(0.0013614191 4.6830658e-09 0)
(0.0013502096 3.9159958e-09 0)
(0.0013408154 3.1377275e-09 0)
(0.0013331484 2.1446645e-09 0)
(0.0013287869 1.1096022e-09 0)
(0.001326715 7.7840033e-11 0)
(0.0013283872 -1.1636298e-09 0)
(0.0013340922 -2.4602989e-09 0)
(0.001344502 -3.8461599e-09 0)
(0.0013602257 -5.2777532e-09 0)
(0.0013817682 -6.642664e-09 0)
(0.0014090241 -7.83154e-09 0)
(0.0014417015 -8.8490873e-09 0)
(0.0014796621 -9.5588064e-09 0)
(0.0015213593 -9.5978513e-09 0)
(0.0015632279 -8.853805e-09 0)
(0.0016020054 -7.4123396e-09 0)
(0.0016339213 -5.7257395e-09 0)
(0.0016593182 -4.2123099e-09 0)
(0.0016782147 -2.9538217e-09 0)
(0.0016920175 -2.0359275e-09 0)
(0.0017019812 -1.3804635e-09 0)
(0.0017090376 -9.1112385e-10 0)
(0.0017138638 -5.651161e-10 0)
(0.0017168404 -2.997391e-10 0)
(0.0017182444 -9.4518446e-11 0)
(0.0017182848 7.4030152e-11 0)
(0.0017169575 2.2327803e-10 0)
(0.0017142895 3.5477327e-10 0)
(0.0017104607 4.7079765e-10 0)
(0.0017056223 5.701228e-10 0)
(0.0016999648 6.4704131e-10 0)
(0.0016937101 7.0468255e-10 0)
(0.0016869913 7.4800663e-10 0)
(0.001679939 7.7549429e-10 0)
(0.0016727141 7.889768e-10 0)
(0.0016654135 7.9523247e-10 0)
(0.0016580734 7.9685323e-10 0)
(0.001650743 7.9180235e-10 0)
(0.0016434959 7.8137264e-10 0)
(0.0016363574 7.6991725e-10 0)
(0.0016293212 7.5947461e-10 0)
(0.001622375 7.4931195e-10 0)
(0.001615526 7.390288e-10 0)
(0.0016087692 7.2771268e-10 0)
(0.0016021286 7.3162347e-10 0)
(0.0015952999 7.2492227e-10 0)
(0.001588783 7.9317359e-10 0)
(0.0015806982 7.9622361e-10 0)
(0.0015741281 8.749514e-10 -9.6044251e-24)
(0.0015645734 5.2036279e-10 1.4831878e-24)
(1 5.6168648e-09 0)
(0.99996393 1.5508573e-08 0)
(0.99990785 2.249807e-08 0)
(0.99984487 2.8965235e-08 0)
(0.9997728 3.7722583e-08 0)
(0.99968982 4.9084531e-08 0)
(0.99959481 6.3586189e-08 0)
(0.99948629 8.2293603e-08 0)
(0.99936216 1.0666086e-07 0)
(0.99921973 1.3857653e-07 0)
(0.99905565 1.8057794e-07 0)
(0.99886568 2.3626209e-07 0)
(0.99864422 3.1062003e-07 0)
(0.99838406 4.1160684e-07 0)
(0.99807426 5.4923547e-07 0)
(0.99770201 7.468547e-07 0)
(0.99723891 1.0176832e-06 0)
(0.99666933 1.4743269e-06 0)
(0.99587557 2.0272875e-06 0)
(0.99493546 3.4777576e-06 0)
(0.99312675 4.621769e-06 0)
(0.99145449 1.1701803e-05 0)
(0.98481839 5.4976337e-06 0)
(0.98749201 0.0014299281 0)
(0.036476939 0.0014499757 0)
(0.014563961 1.9168675e-05 0)
(0.010363298 4.3648402e-06 0)
(0.0085087029 2.0907263e-06 0)
(0.0074358302 1.280145e-06 0)
(0.0066995576 9.0001856e-07 0)
(0.0061521047 6.8070581e-07 0)
(0.0057194534 5.4094403e-07 0)
(0.0053657073 4.427836e-07 0)
(0.0050693662 3.7072781e-07 0)
(0.0048158651 3.1629287e-07 0)
(0.0045953578 2.7386612e-07 0)
(0.0044010418 2.3990282e-07 0)
(0.0042279859 2.1218083e-07 0)
(0.0040724615 1.8921805e-07 0)
(0.0039315824 1.6991993e-07 0)
(0.0038031392 1.535645e-07 0)
(0.0036852338 1.3953376e-07 4.8358995e-25)
(0.0035765218 1.2734871e-07 0)
(0.0034757781 1.16733e-07 -8.9772315e-35)
(0.0033820297 1.0739889e-07 0)
(0.0032944565 9.9144318e-08 0)
(0.0032123653 9.1802609e-08 0)
(0.0031351679 8.5237837e-08 0)
(0.0030623607 7.9337988e-08 0)
(0.0029935123 7.4011697e-08 0)
(0.0029282472 6.9185638e-08 0)
(0.0028662355 6.4796724e-08 0)
(0.0028071896 6.0790848e-08 0)
(0.002750856 5.7122391e-08 0)
(0.0026970112 5.3751308e-08 0)
(0.0026454586 5.0644504e-08 0)
(0.0025960215 4.7774816e-08 0)
(0.0025485407 4.5117417e-08 0)
(0.0025028746 4.2650208e-08 0)
(0.0024588958 4.0354368e-08 0)
(0.0024164893 3.8212857e-08 0)
(0.0023755524 3.6209747e-08 0)
(0.0023359941 3.4331741e-08 0)
(0.0022977314 3.2568686e-08 0)
(0.0022606871 3.0910887e-08 0)
(0.002224792 2.9348272e-08 0)
(0.0021899849 2.7871683e-08 0)
(0.0021562114 2.6473397e-08 0)
(0.0021234226 2.5146462e-08 0)
(0.0020915756 2.3883378e-08 0)
(0.0020606356 2.2677011e-08 0)
(0.0020305738 2.1521468e-08 0)
(0.0020013673 2.0411293e-08 0)
(0.0019729994 1.9341412e-08 0)
(0.0019454591 1.8307084e-08 0)
(0.0019187418 1.73035e-08 0)
(0.00189285 1.6324473e-08 0)
(0.0018677985 1.536008e-08 0)
(0.001843623 1.4401648e-08 0)
(0.0018203707 1.344452e-08 0)
(0.0017981 1.2483301e-08 0)
(0.0017768856 1.1513345e-08 0)
(0.0017568137 1.0530284e-08 0)
(0.0017379891 9.5216795e-09 0)
(0.0017205626 8.4732198e-09 0)
(0.0017047177 7.373647e-09 0)
(0.0016906818 6.1658242e-09 0)
(0.001678919 4.9402012e-09 0)
(0.0016693203 3.3766785e-09 0)
(0.0016638581 1.7469909e-09 0)
(0.0016612656 1.2211922e-10 0)
(0.0016633604 -1.8325766e-09 0)
(0.0016705052 -3.8742833e-09 0)
(0.0016835411 -6.0563641e-09 0)
(0.0017032308 -8.310407e-09 0)
(0.0017302063 -1.0459444e-08 0)
(0.0017643357 -1.2331313e-08 0)
(0.0018052534 -1.3933289e-08 0)
(0.0018527851 -1.5050453e-08 0)
(0.0019049941 -1.5111745e-08 0)
(0.0019574177 -1.3940139e-08 0)
(0.0020059701 -1.1670722e-08 -9.3781322e-25)
(0.0020459342 -9.0157269e-09 0)
(0.0020777346 -6.6324205e-09 0)
(0.0021013967 -4.6510164e-09 0)
(0.002118681 -3.2057846e-09 0)
(0.0021311583 -2.1737354e-09 0)
(0.0021399951 -1.4347247e-09 0)
(0.0021460393 -8.8989709e-10 0)
(0.0021497674 -4.7203304e-10 0)
(0.0021515261 -1.4888586e-10 0)
(0.0021515773 1.1651621e-10 0)
(0.0021499159 3.5152587e-10 0)
(0.0021465754 5.585817e-10 0)
(0.0021417815 7.4127376e-10 0)
(0.0021357232 8.9766887e-10 0)
(0.0021286394 1.0187851e-09 0)
(0.0021208076 1.1095476e-09 0)
(0.0021123948 1.1777634e-09 0)
(0.0021035643 1.2210461e-09 0)
(0.0020945177 1.2422784e-09 0)
(0.0020853762 1.2521286e-09 0)
(0.0020761853 1.2546795e-09 0)
(0.0020670065 1.2467277e-09 0)
(0.002057932 1.2303077e-09 0)
(0.0020489935 1.2122702e-09 0)
(0.0020401831 1.1958258e-09 0)
(0.0020314854 1.1798221e-09 0)
(0.0020229095 1.1636292e-09 0)
(0.0020144489 1.1458104e-09 0)
(0.0020061339 1.1519568e-09 0)
(0.0019975837 1.1414031e-09 0)
(0.0019894235 1.2488245e-09 0)
(0.0019793016 1.2536442e-09 0)
(0.0019710747 1.3778628e-09 0)
(0.0019591107 8.1905298e-10 -8.4650137e-25)
(1 6.84832e-09 0)
(0.99996373 1.891285e-08 0)
(0.99990732 2.744116e-08 0)
(0.99984394 3.5330258e-08 0)
(0.99977142 4.6011508e-08 0)
(0.99968792 5.9869113e-08 0)
(0.99959232 7.7555403e-08 0)
(0.99948314 1.0037004e-07 0)
(0.99935826 1.3008584e-07 0)
(0.99921497 1.6900524e-07 0)
(0.99904992 2.2022136e-07 0)
(0.99885884 2.8811895e-07 0)
(0.99863612 3.787816e-07 0)
(0.99837448 5.0190572e-07 0)
(0.99806296 6.6969398e-07 0)
(0.9976887 9.106051e-07 0)
(0.99722314 1.2407369e-06 0)
(0.99665062 1.7973389e-06 0)
(0.9958529 2.4712593e-06 0)
(0.99490828 4.2389026e-06 0)
(0.99309132 5.633043e-06 0)
(0.99141152 1.4261294e-05 0)
(0.98474653 6.7106625e-06 0)
(0.98741928 0.0017320897 0)
(0.044206461 0.0017606735 0)
(0.017712882 2.8310969e-05 0)
(0.012604694 6.4712813e-06 0)
(0.010349206 3.1000084e-06 0)
(0.0090442254 1.8982396e-06 0)
(0.008148667 1.3345794e-06 0)
(0.0074827729 1.0093703e-06 0)
(0.0069565291 8.0211974e-07 0)
(0.0065262616 6.5656467e-07 0)
(0.0061658171 5.4971847e-07 0)
(0.0058574811 4.6900029e-07 0)
(0.0055892771 4.0608857e-07 0)
(0.0053529305 3.5572711e-07 0)
(0.0051424431 3.1462061e-07 0)
(0.0049532794 2.8057121e-07 0)
(0.0047819291 2.5195597e-07 0)
(0.0046257043 2.2770397e-07 0)
(0.0044822974 2.0689912e-07 0)
(0.004350072 1.8883131e-07 0)
(0.0042275384 1.7309035e-07 9.6837693e-35)
(0.0041135133 1.5924979e-07 0)
(0.004006999 1.4700997e-07 0)
(0.0039071524 1.3612375e-07 0)
(0.0038132581 1.2638957e-07 0)
(0.0037247036 1.1764133e-07 0)
(0.0036409642 1.0974357e-07 0)
(0.003561583 1.0258755e-07 0)
(0.003486159 9.6079719e-08 0)
(0.0034143423 9.0139855e-08 0)
(0.0033458244 8.4700315e-08 0)
(0.0032803337 7.970172e-08 0)
(0.0032176309 7.5094996e-08 0)
(0.0031575011 7.0839865e-08 0)
(0.0030997508 6.6899514e-08 0)
(0.0030442077 6.3241173e-08 0)
(0.0029907168 5.9836937e-08 0)
(0.0029391383 5.6661538e-08 0)
(0.0028893472 5.3691361e-08 0)
(0.0028412329 5.0906687e-08 0)
(0.0027946944 4.8292461e-08 0)
(0.0027496377 4.5834308e-08 0)
(0.0027059789 4.351729e-08 0)
(0.0026636433 4.132783e-08 0)
(0.0026225649 3.9254477e-08 0)
(0.0025826841 3.7286922e-08 0)
(0.002543949 3.5414045e-08 0)
(0.0025063168 3.3625267e-08 0)
(0.0024697529 3.191185e-08 0)
(0.0024342292 3.0265704e-08 0)
(0.0023997254 2.8679304e-08 0)
(0.0023662282 2.714562e-08 0)
(0.002333732 2.5657519e-08 0)
(0.0023022399 2.4205827e-08 0)
(0.0022717698 2.2775835e-08 0)
(0.0022423652 2.1354681e-08 0)
(0.0022140835 1.9935458e-08 0)
(0.0021869956 1.8510168e-08 0)
(0.0021611925 1.7071917e-08 0)
(0.002136779 1.5614219e-08 0)
(0.0021138828 1.4118633e-08 0)
(0.002092687 1.2563933e-08 0)
(0.0020734152 1.0933409e-08 0)
(0.0020563438 9.1424361e-09 0)
(0.002042037 7.3247697e-09 0)
(0.0020303645 5.0066162e-09 0)
(0.0020237195 2.5901207e-09 0)
(0.0020205684 1.8044369e-10 0)
(0.0020231173 -2.7178283e-09 0)
(0.0020318088 -5.745283e-09 0)
(0.0020476655 -8.9807835e-09 0)
(0.002071615 -1.2322921e-08 0)
(0.0021044254 -1.5509353e-08 0)
(0.002145937 -1.8284819e-08 0)
(0.0021957046 -2.0659891e-08 0)
(0.0022535149 -2.2315921e-08 0)
(0.0023170123 -2.2406554e-08 0)
(0.0023807709 -2.0669238e-08 0)
(0.0024398201 -1.7304613e-08 0)
(0.0024884287 -1.3368037e-08 0)
(0.0025271061 -9.8343691e-09 0)
(0.0025558871 -6.896607e-09 0)
(0.0025769112 -4.753693e-09 0)
(0.0025920887 -3.2233992e-09 0)
(0.0026028384 -2.127583e-09 0)
(0.0026101912 -1.3196855e-09 0)
(0.0026147268 -7.0005803e-10 0)
(0.002616867 -2.2087425e-10 0)
(0.00261693 1.7268517e-10 0)
(0.00261491 5.2117041e-10 0)
(0.0026108477 8.282052e-10 0)