/*--------------------------------*- C++ -*----------------------------------*\
| =========                 |                                                 |
| \\      /  F ield         | OpenFOAM: The Open Source CFD Toolbox           |
|  \\    /   O peration     | Version:  2206                                  |
|   \\  /    A nd           | Website:  www.openfoam.com                      |
|    \\/     M anipulation  |                                                 |
\*---------------------------------------------------------------------------*/
FoamFile
{
    version     2.0;
    format      ascii;
    arch        "LSB;label=32;scalar=64";
    class       volScalarField;
    location    "1700";
    object      k;
}
// * * * * * * * * * * * * * * * * * * * * * * * * * * * * * * * * * * * * * //

dimensions      [0 2 -2 0 0 0 0];

internalField   nonuniform List<scalar> 
13056
(
8.8587542e-05
6.51651e-05
6.3897768e-05
6.3748691e-05
6.3770698e-05
6.3785173e-05
6.3789395e-05
6.3791306e-05
6.3793434e-05
6.3796361e-05
6.3800293e-05
6.380541e-05
6.3811938e-05
6.3820191e-05
6.3830587e-05
6.3843768e-05
6.3860652e-05
6.3882312e-05
6.391405e-05
6.3942357e-05
6.4069862e-05
6.3862678e-05
6.5336461e-05
1.6962022e-05
3.1006375e-07
4.8342294e-08
2.453251e-08
1.6560863e-08
1.2662334e-08
1.0287159e-08
8.6819029e-09
7.5096084e-09
6.6136003e-09
5.9065583e-09
5.333304e-09
4.8582743e-09
4.4578843e-09
4.1156883e-09
3.8197197e-09
3.5610807e-09
3.3330546e-09
3.130453e-09
2.949107e-09
2.7859296e-09
2.6381927e-09
2.503793e-09
2.3809711e-09
2.2682662e-09
2.1644558e-09
2.0685092e-09
1.9795469e-09
1.896816e-09
1.8196691e-09
1.7475455e-09
1.6799599e-09
1.616489e-09
1.5567589e-09
1.5004402e-09
1.4472421e-09
1.3969067e-09
1.349204e-09
1.3039306e-09
1.2609053e-09
1.2199643e-09
1.1809591e-09
1.1437566e-09
1.1082377e-09
1.0742956e-09
1.0418335e-09
1.0107655e-09
9.8101596e-10
9.5251817e-10
9.2521263e-10
8.9904785e-10
8.7397887e-10
8.4996785e-10
8.2698427e-10
8.0500818e-10
7.8403651e-10
7.6407314e-10
7.4513006e-10
7.2722955e-10
7.1040251e-10
6.9469372e-10
6.8017451e-10
6.6694921e-10
6.5514249e-10
6.4494524e-10
6.3680002e-10
6.3015903e-10
6.2758394e-10
6.2699815e-10
6.3047422e-10
6.3814359e-10
6.5089907e-10
6.6953688e-10
6.9463628e-10
7.2619766e-10
7.6447021e-10
8.0915237e-10
8.5759117e-10
9.0482203e-10
9.4847951e-10
9.8132157e-10
1.0088022e-09
1.0285989e-09
1.0432429e-09
1.053902e-09
1.0614222e-09
1.0663979e-09
1.0692335e-09
1.0702284e-09
1.069411e-09
1.0668124e-09
1.0626624e-09
1.0571693e-09
1.0505758e-09
1.0431864e-09
1.0351978e-09
1.0267721e-09
1.0181197e-09
1.0093776e-09
1.0006021e-09
9.9185107e-10
9.8321215e-10
9.7472695e-10
9.6639343e-10
9.5819224e-10
9.5012931e-10
9.4220214e-10
9.3444271e-10
9.2649251e-10
9.1893853e-10
9.0958988e-10
9.0203558e-10
8.9110644e-10
8.8584837e-05
6.5159132e-05
6.3891703e-05
6.3742549e-05
6.3764534e-05
6.3779005e-05
6.3783226e-05
6.3785137e-05
6.3787264e-05
6.3790191e-05
6.3794122e-05
6.3799239e-05
6.3805767e-05
6.381402e-05
6.3824416e-05
6.3837596e-05
6.385448e-05
6.387614e-05
6.3907877e-05
6.3936182e-05
6.4063684e-05
6.3856489e-05
6.5330254e-05
1.6964418e-05
4.769998e-08
7.423852e-09
3.7674179e-09
2.5432246e-09
1.9445342e-09
1.5797828e-09
1.3332666e-09
1.1532394e-09
1.015641e-09
9.070617e-10
8.1902795e-10
7.4607843e-10
6.8459123e-10
6.3204083e-10
5.8658955e-10
5.4687089e-10
5.1185341e-10
4.8074034e-10
4.5289144e-10
4.2783265e-10
4.0514505e-10
3.8450562e-10
3.6564416e-10
3.4833638e-10
3.3239451e-10
3.1766027e-10
3.0399861e-10
2.9129388e-10
2.7944666e-10
2.6837085e-10
2.5799194e-10
2.4824488e-10
2.3907228e-10
2.3042358e-10
2.2225423e-10
2.1452454e-10
2.0719918e-10
2.002469e-10
1.9363987e-10
1.8735296e-10
1.8136335e-10
1.7565059e-10
1.7019642e-10
1.6498441e-10
1.5999971e-10
1.5522908e-10
1.5066087e-10
1.4628476e-10
1.4209205e-10
1.3807491e-10
1.3422618e-10
1.3054008e-10
1.2701194e-10
1.2363872e-10
1.2041997e-10
1.1735628e-10
1.1444931e-10
1.117017e-10
1.0911991e-10
1.0671193e-10
1.0448748e-10
1.024628e-10
1.0065729e-10
9.9100529e-11
9.7860487e-11
9.6851262e-11
9.6460286e-11
9.6391775e-11
9.6953247e-11
9.816529e-11
1.0016629e-10
1.0307958e-10
1.0699436e-10
1.119095e-10
1.1786003e-10
1.247918e-10
1.3228678e-10
1.395778e-10
1.4630785e-10
1.5136823e-10
1.5560495e-10
1.5866089e-10
1.609264e-10
1.6258065e-10
1.6375246e-10
1.6453205e-10
1.6498093e-10
1.6514469e-10
1.6502738e-10
1.6463347e-10
1.6399831e-10
1.6315432e-10
1.6213932e-10
1.6100053e-10
1.5976862e-10
1.584688e-10
1.571336e-10
1.557843e-10
1.5442966e-10
1.530787e-10
1.5174493e-10
1.504348e-10
1.4914804e-10
1.4788171e-10
1.4663672e-10
1.4541271e-10
1.4421454e-10
1.4298728e-10
1.4182072e-10
1.4037898e-10
1.3921272e-10
1.3752534e-10
8.8576195e-05
6.5140441e-05
6.3872732e-05
6.3723345e-05
6.3745263e-05
6.3759722e-05
6.376394e-05
6.3765849e-05
6.3767975e-05
6.37709e-05
6.3774831e-05
6.3779947e-05
6.3786474e-05
6.3794727e-05
6.3805122e-05
6.3818302e-05
6.3835184e-05
6.3856841e-05
6.3888575e-05
6.3916872e-05
6.4044362e-05
6.3837155e-05
6.5310712e-05
1.6967312e-05
1.4919738e-08
2.3158397e-09
1.1752316e-09
7.9335098e-10
6.0659737e-10
4.9281892e-10
4.1592161e-10
3.5976423e-10
3.1684176e-10
2.8297091e-10
2.5550897e-10
2.3275252e-10
2.1357195e-10
1.9717947e-10
1.8300169e-10
1.7061224e-10
1.5968928e-10
1.4998424e-10
1.4129744e-10
1.3348099e-10
1.2640425e-10
1.1996645e-10
1.1408332e-10
1.0868489e-10
1.0371259e-10
9.9117053e-11
9.4856125e-11
9.0893674e-11
8.7198652e-11
8.374423e-11
8.0507122e-11
7.7466996e-11
7.4605984e-11
7.1908637e-11
6.9361475e-11
6.6951814e-11
6.4668423e-11
6.2501558e-11
6.0442561e-11
5.8483612e-11
5.6617582e-11
5.4838116e-11
5.313952e-11
5.1516633e-11
4.996484e-11
4.8479868e-11
4.7057709e-11
4.5694819e-11
4.4391044e-11
4.3144518e-11
4.1951489e-11
4.0810308e-11
3.9719658e-11
3.8678834e-11
3.7687909e-11
3.6747055e-11
3.5855843e-11
3.5010785e-11
3.4223626e-11
3.3503606e-11
3.2846989e-11
3.2260387e-11
3.1751767e-11
3.1332585e-11
3.102509e-11
3.0794309e-11
3.0731556e-11
3.0865526e-11
3.1239829e-11
3.1865727e-11
3.2796474e-11
3.4079661e-11
3.5747698e-11
3.7796687e-11
4.0223891e-11
4.2970786e-11
4.5840719e-11
4.8549535e-11
5.0992975e-11
5.2834753e-11
5.4381173e-11
5.5526063e-11
5.6405765e-11
5.7080398e-11
5.7588005e-11
5.7954258e-11
5.819754e-11
5.8331069e-11
5.8354516e-11
5.8267485e-11
5.8081509e-11
5.781021e-11
5.7469594e-11
5.7078219e-11
5.6648916e-11
5.6192206e-11
5.5720272e-11
5.5241269e-11
5.4759116e-11
5.4277466e-11
5.3801134e-11
5.3332556e-11
5.2871963e-11
5.2418613e-11
5.1972878e-11
5.1534786e-11
5.1105491e-11
5.0668502e-11
5.0249691e-11
4.9746507e-11
4.9330395e-11
4.8727515e-11
8.856135e-05
6.5108424e-05
6.3840241e-05
6.3690456e-05
6.371226e-05
6.3726699e-05
6.3730912e-05
6.3732818e-05
6.3734941e-05
6.3737865e-05
6.3741793e-05
6.3746908e-05
6.3753435e-05
6.3761687e-05
6.377208e-05
6.3785258e-05
6.3802138e-05
6.3823792e-05
6.3855518e-05
6.3883802e-05
6.4011268e-05
6.3804051e-05
6.5277205e-05
1.697087e-05
6.6423125e-09
1.0212306e-09
5.1825691e-10
3.4986101e-10
2.6752498e-10
2.1736538e-10
1.8346349e-10
1.5870387e-10
1.3977864e-10
1.2484252e-10
1.1273202e-10
1.0269656e-10
9.4238716e-11
8.7011266e-11
8.0760915e-11
7.5299373e-11
7.0484462e-11
6.6206511e-11
6.2377532e-11
5.8932383e-11
5.5813496e-11
5.2976464e-11
5.0384144e-11
4.8005697e-11
4.5815308e-11
4.3791243e-11
4.1914816e-11
4.0169918e-11
3.8542781e-11
3.7021648e-11
3.5596151e-11
3.4257201e-11
3.2997017e-11
3.1809727e-11
3.0690618e-11
2.9633218e-11
2.863197e-11
2.768261e-11
2.6781382e-11
2.5924904e-11
2.5110006e-11
2.4333956e-11
2.3594293e-11
2.2888666e-11
2.221511e-11
2.1571383e-11
2.0954706e-11
2.0362626e-11
1.9802247e-11
1.9274457e-11
1.8773464e-11
1.8299089e-11
1.7851288e-11
1.743058e-11
1.7037825e-11
1.6673403e-11
1.633507e-11
1.6010315e-11
1.5729699e-11
1.5515852e-11
1.5350676e-11
1.5242381e-11
1.5201183e-11
1.5240415e-11
1.5376378e-11
1.5581235e-11
1.5834238e-11
1.6419004e-11
1.7253268e-11
1.8364272e-11
1.981138e-11
2.1650117e-11
2.3917974e-11
2.6616918e-11
2.973116e-11
3.3144291e-11
3.6583358e-11
3.9741487e-11
4.2472036e-11
4.4614854e-11
4.6380428e-11
4.7771937e-11
4.8904901e-11
4.9837664e-11
5.0597899e-11
5.1205425e-11
5.1676766e-11
5.202027e-11
5.2232674e-11
5.2308577e-11
5.2255721e-11
5.2092711e-11
5.1841632e-11
5.152457e-11
5.115886e-11
5.0758638e-11
5.0336798e-11
4.9902515e-11
4.9461695e-11
4.9018982e-11
4.857879e-11
4.8143756e-11
4.7715051e-11
4.7292892e-11
4.6877745e-11
4.6470098e-11
4.6069323e-11
4.5669282e-11
4.5275854e-11
4.4844926e-11
4.4461534e-11
4.3903634e-11
8.853988e-05
6.5062135e-05
6.3793266e-05
6.3642908e-05
6.3664547e-05
6.3678956e-05
6.3683162e-05
6.3685063e-05
6.3687183e-05
6.3690103e-05
6.369403e-05
6.3699143e-05
6.3705668e-05
6.3713919e-05
6.3724311e-05
6.3737486e-05
6.3754362e-05
6.3776009e-05
6.3807726e-05
6.3835991e-05
6.3963419e-05
6.3756193e-05
6.5228748e-05
1.6975398e-05
3.6552316e-09
5.4510149e-10
2.7664906e-10
1.8677505e-10
1.4286949e-10
1.1612946e-10
9.8052916e-11
8.4847744e-11
7.4752312e-11
6.6780776e-11
6.0316075e-11
5.4958928e-11
5.0445385e-11
4.6590493e-11
4.3258161e-11
4.0347328e-11
3.7781529e-11
3.5502087e-11
3.3462205e-11
3.162727e-11
2.9966667e-11
2.8456754e-11
2.7077752e-11
2.5813242e-11
2.4649469e-11
2.3574916e-11
2.2579385e-11
2.165391e-11
2.0791007e-11
1.9984568e-11
1.9228866e-11
1.8518813e-11
1.7850459e-11
1.7222576e-11
1.6635155e-11
1.6083e-11
1.5561947e-11
1.5069805e-11
1.4604715e-11
1.4165038e-11
1.3749015e-11
1.3355363e-11
1.2982944e-11
1.2630459e-11
1.2297071e-11
1.1981005e-11
1.1678955e-11
1.1387985e-11
1.1125565e-11
1.0895744e-11
1.0687884e-11
1.0503227e-11
1.0343211e-11
1.0210174e-11
1.0106831e-11
1.0034977e-11
9.9912961e-12
9.9517176e-12
9.975154e-12
1.0107803e-11
1.0316304e-11
1.061801e-11
1.1035168e-11
1.1596947e-11
1.2335818e-11
1.324969e-11
1.4291323e-11
1.5886165e-11
1.7948487e-11
2.056141e-11
2.3844232e-11
2.7911439e-11
3.2841675e-11
3.8649442e-11
4.5300828e-11
5.2530462e-11
5.9754357e-11
6.6360112e-11
7.1986916e-11
7.650329e-11
8.0183646e-11
8.3159402e-11
8.5628515e-11
8.7704656e-11
8.9434537e-11
9.0854576e-11
9.199755e-11
9.2875909e-11
9.3481027e-11
9.3797562e-11
9.3836421e-11
9.3638449e-11
9.3252295e-11
9.2723911e-11
9.2091199e-11
9.1384999e-11
9.0630721e-11
8.9846991e-11
8.9047194e-11
8.8241256e-11
8.74372e-11
8.6640281e-11
8.5853729e-11
8.5078966e-11
8.4316982e-11
8.3569194e-11
8.2832526e-11
8.2106122e-11
8.1380214e-11
8.0631841e-11
7.9932841e-11
7.8912911e-11
8.851122e-05
6.5000289e-05
6.3730502e-05
6.3579375e-05
6.3600794e-05
6.3615164e-05
6.3619361e-05
6.3621255e-05
6.362337e-05
6.3626287e-05
6.363021e-05
6.3635321e-05
6.3641844e-05
6.3650093e-05
6.3660482e-05
6.3673654e-05
6.3690525e-05
6.3712164e-05
6.3743867e-05
6.3772108e-05
6.3899483e-05
6.3692247e-05
6.5164003e-05
1.6981362e-05
2.3841223e-09
3.2894928e-10
1.6698766e-10
1.1277297e-10
8.636353e-11
7.0294415e-11
5.9424641e-11
5.1477544e-11
4.5398235e-11
4.0590781e-11
3.6689808e-11
3.3456893e-11
3.0735566e-11
2.8414964e-11
2.6411497e-11
2.4663268e-11
2.3123052e-11
2.1755176e-11
2.0531725e-11
1.9432127e-11
1.8438127e-11
1.7535581e-11
1.6712644e-11
1.5959491e-11
1.5267868e-11
1.4630997e-11
1.4042276e-11
1.3495681e-11
1.2986522e-11
1.2511416e-11
1.2066638e-11
1.1648755e-11
1.1255725e-11
1.0889896e-11
1.0555371e-11
1.0246283e-11
9.958232e-12
9.6900818e-12
9.4410016e-12
9.2103366e-12
8.9968984e-12
8.8002699e-12
8.6202399e-12
8.456215e-12
8.3082233e-12
8.1746264e-12
8.0510815e-12
7.933666e-12
7.8528424e-12
7.8170586e-12
7.8098282e-12
7.8346392e-12
7.8956881e-12
7.9986892e-12
8.1504022e-12
8.3570672e-12
8.6192654e-12
8.9092563e-12
9.3058399e-12
9.8793819e-12
1.0599198e-11
1.150197e-11
1.2635188e-11
1.4061708e-11
1.5852352e-11
1.8049502e-11
2.0603121e-11
2.4166029e-11
2.8682439e-11
3.4347575e-11
4.1411291e-11
5.0115356e-11
6.0627788e-11
7.2988191e-11
8.7132398e-11
1.0250211e-10
1.1786889e-10
1.3194927e-10
1.4392196e-10
1.5360128e-10
1.6146179e-10
1.6785313e-10
1.7317168e-10
1.7765731e-10
1.8140712e-10
1.8449961e-10
1.8700599e-10
1.8895145e-10
1.9031736e-10
1.9106931e-10
1.9122782e-10
1.9088055e-10
1.9013199e-10
1.890795e-10
1.8780434e-10
1.863726e-10
1.8483739e-10
1.8323795e-10
1.8160319e-10
1.799543e-10
1.7830767e-10
1.7667432e-10
1.7506151e-10
1.7347275e-10
1.7191014e-10
1.7037688e-10
1.6886557e-10
1.6738048e-10
1.6588965e-10
1.6437963e-10
1.629489e-10
1.6085967e-10
8.8474661e-05
6.4921269e-05
6.3650304e-05
6.3498192e-05
6.3519329e-05
6.3533648e-05
6.3537833e-05
6.3539719e-05
6.3541827e-05
6.3544739e-05
6.3548659e-05
6.3553767e-05
6.3560287e-05
6.3568533e-05
6.3578919e-05
6.3592087e-05
6.3608951e-05
6.363058e-05
6.3662266e-05
6.3690475e-05
6.3817781e-05
6.3610536e-05
6.5081288e-05
1.6989421e-05
1.8613433e-09
2.1918951e-10
1.1134124e-10
7.5253957e-11
5.7810705e-11
4.7224668e-11
4.0051656e-11
3.4795644e-11
3.0768652e-11
2.7573258e-11
2.4976692e-11
2.2824277e-11
2.1016202e-11
1.9479909e-11
1.8157664e-11
1.7006994e-11
1.599463e-11
1.5096346e-11
1.4294113e-11
1.3574782e-11
1.2926576e-11
1.2340283e-11
1.1808175e-11
1.1323849e-11
1.0881894e-11
1.0478105e-11
1.0107283e-11
9.764554e-12
9.4466658e-12
9.1518621e-12
8.8773922e-12
8.6205522e-12
8.3804725e-12
8.1628339e-12
7.9759159e-12
7.8123898e-12
7.6669575e-12
7.5392214e-12
7.4291528e-12
7.3369185e-12
7.2615099e-12
7.2033024e-12
7.1632685e-12
7.1419455e-12
7.1405552e-12
7.1582878e-12
7.1909013e-12
7.2345074e-12
7.3291208e-12
7.4882915e-12
7.6938688e-12
7.9532163e-12
8.2752712e-12
8.6716547e-12
9.1563604e-12
9.7437884e-12
1.0442449e-11
1.1221581e-11
1.2191319e-11
1.3460617e-11
1.5008555e-11
1.6906879e-11
1.9248817e-11
2.2158451e-11
2.5777918e-11
3.0228511e-11
3.548235e-11
4.2565889e-11
5.1495305e-11
6.2668263e-11
7.6573614e-11
9.3685907e-11
1.1433732e-10
1.3861415e-10
1.6640339e-10
1.9662751e-10
2.2689574e-10
2.5469349e-10
2.7834555e-10
2.9752193e-10
3.1307492e-10
3.257359e-10
3.362709e-10
3.4515418e-10
3.5257989e-10
3.587073e-10
3.636802e-10
3.6754902e-10
3.702776e-10
3.7179759e-10
3.7214807e-10
3.7150202e-10
3.7006558e-10
3.6803021e-10
3.6555619e-10
3.6277381e-10
3.5978718e-10
3.566733e-10
3.5348935e-10
3.5027702e-10
3.4706827e-10
3.438847e-10
3.4074078e-10
3.3764366e-10
3.3459749e-10
3.3160869e-10
3.2866221e-10
3.2576955e-10
3.2286216e-10
3.1993148e-10
3.1714384e-10
3.1307232e-10
8.8429359e-05
6.4823133e-05
6.3550692e-05
6.3397352e-05
6.3418136e-05
6.3432392e-05
6.3436562e-05
6.3438438e-05
6.3440538e-05
6.3443443e-05
6.3447359e-05
6.3452463e-05
6.345898e-05
6.3467222e-05
6.3477605e-05
6.3490767e-05
6.3507622e-05
6.3529239e-05
6.3560903e-05
6.3589074e-05
6.3716293e-05
6.3509035e-05
6.4978581e-05
1.7000462e-05
1.7739324e-09
1.626128e-10
8.2720586e-11
5.6009776e-11
4.3321763e-11
3.5667514e-11
3.0461188e-11
2.6627185e-11
2.3680013e-11
2.1327042e-11
1.9409664e-11
1.781935e-11
1.6488237e-11
1.536457e-11
1.4403289e-11
1.3571613e-11
1.284217e-11
1.2196264e-11
1.1621444e-11
1.1108853e-11
1.0650373e-11
1.0239514e-11
9.8708032e-12
9.5397319e-12
9.2424301e-12
8.9762951e-12
8.7361716e-12
8.5175003e-12
8.3180489e-12
8.1372447e-12
7.9730563e-12
7.8232927e-12
7.6879001e-12
7.5749794e-12
7.4960111e-12
7.4428902e-12
7.409885e-12
7.3973382e-12
7.4060871e-12
7.4372437e-12
7.4897087e-12
7.5648369e-12
7.6653112e-12
7.7933787e-12
7.9520787e-12
8.1420286e-12
8.3595685e-12
8.6013867e-12
8.9204522e-12
9.3379068e-12
9.8347314e-12
1.0424738e-11
1.1124757e-11
1.1956323e-11
1.2945641e-11
1.4120999e-11
1.5504866e-11
1.7063792e-11
1.8959227e-11
2.1361708e-11
2.4269579e-11
2.7814109e-11
3.2166176e-11
3.7554022e-11
4.4242389e-11
5.2490258e-11
6.2335308e-11
7.5382775e-11
9.1796556e-11
1.123197e-10
1.3784853e-10
1.6925464e-10
2.0715114e-10
2.5170606e-10
3.0273019e-10
3.582757e-10
4.1398505e-10
4.6524208e-10
5.0889523e-10
5.4434211e-10
5.7307282e-10
5.9646574e-10
6.1591977e-10
6.3231231e-10
6.4600707e-10
6.5730476e-10
6.6647542e-10
6.7361411e-10
6.7865539e-10
6.8147346e-10
6.821396e-10
6.809722e-10
6.7835072e-10
6.7462724e-10
6.700967e-10
6.6499891e-10
6.5952508e-10
6.5381677e-10
6.4797923e-10
6.4208919e-10
6.3620524e-10
6.3036707e-10
6.246014e-10
6.1892151e-10
6.1333506e-10
6.0785388e-10
6.0245005e-10
5.9714644e-10
5.9181385e-10
5.8644642e-10
5.8133489e-10
5.7386869e-10
8.8374338e-05
6.4703607e-05
6.342935e-05
6.3274506e-05
6.3294862e-05
6.3309038e-05
6.3313189e-05
6.3315053e-05
6.3317143e-05
6.3320041e-05
6.332395e-05
6.332905e-05
6.3335563e-05
6.3343801e-05
6.3354179e-05
6.3367335e-05
6.338418e-05
6.340578e-05
6.3437418e-05
6.3465544e-05
6.3592656e-05
6.338538e-05
6.4853523e-05
1.7015651e-05
2.0275086e-09
1.386555e-10
7.0710014e-11
4.8025912e-11
3.7582682e-11
3.1352988e-11
2.7086068e-11
2.3915428e-11
2.146496e-11
1.9493782e-11
1.7880915e-11
1.6541783e-11
1.5425492e-11
1.4490803e-11
1.3698121e-11
1.3019069e-11
1.2426825e-11
1.1904441e-11
1.1442632e-11
1.1035152e-11
1.0675965e-11
1.0360031e-11
1.0083057e-11
9.8415425e-12
9.6323977e-12
9.4541679e-12
9.3005347e-12
9.1664916e-12
9.0506355e-12
8.9535249e-12
8.8737314e-12
8.8094433e-12
8.7613893e-12
8.7404585e-12
8.7619528e-12
8.8168092e-12
8.8987687e-12
9.0091005e-12
9.1497913e-12
9.3232564e-12
9.528041e-12
9.7669037e-12
1.0045146e-11
1.0367673e-11
1.0740392e-11
1.116626e-11
1.1642824e-11
1.2168139e-11
1.2814713e-11
1.3615263e-11
1.4550328e-11
1.5644167e-11
1.692642e-11
1.843474e-11
2.0215271e-11
2.2319137e-11
2.4792496e-11
2.7601226e-11
3.0986651e-11
3.5214307e-11
4.0318672e-11
4.6528238e-11
5.4140762e-11
6.3554936e-11
7.5237563e-11
8.9680444e-11
1.0706261e-10
1.298552e-10
1.5850069e-10
1.943098e-10
2.3884622e-10
2.9363208e-10
3.5974209e-10
4.374814e-10
5.2654444e-10
6.2357452e-10
7.2100911e-10
8.1078761e-10
8.8731167e-10
9.4951227e-10
9.9990758e-10
1.0409383e-09
1.075041e-09
1.1037573e-09
1.127733e-09
1.1475049e-09
1.1635527e-09
1.1760463e-09
1.1848729e-09
1.1898128e-09
1.1909905e-09
1.1889626e-09
1.1843927e-09
1.1778962e-09
1.1699888e-09
1.1610897e-09
1.151533e-09
1.1415662e-09
1.1313732e-09
1.1210883e-09
1.1108137e-09
1.1006188e-09
1.0905504e-09
1.0806317e-09
1.0708762e-09
1.0613046e-09
1.0518679e-09
1.0426072e-09
1.0332946e-09
1.0239259e-09
1.0150002e-09
1.0019626e-09
8.83085e-05
6.4560091e-05
6.3283629e-05
6.3126967e-05
6.3146805e-05
6.3160886e-05
6.3165014e-05
6.3166862e-05
6.316894e-05
6.3171829e-05
6.3175731e-05
6.3180825e-05
6.3187333e-05
6.3195567e-05
6.3205938e-05
6.3219086e-05
6.3235919e-05
6.3257501e-05
6.3289108e-05
6.3317179e-05
6.3444161e-05
6.3236863e-05
6.4703415e-05
1.7036487e-05
2.6282758e-09
1.4014338e-10
7.1697958e-11
4.8888694e-11
3.8819557e-11
3.2907961e-11
2.8819329e-11
2.5743253e-11
2.3349158e-11
2.1408351e-11
1.9812658e-11
1.8486039e-11
1.7384577e-11
1.6470142e-11
1.570261e-11
1.5053737e-11
1.4492246e-11
1.3999744e-11
1.356856e-11
1.3194049e-11
1.2871248e-11
1.259569e-11
1.2363508e-11
1.2171609e-11
1.2017139e-11
1.189962e-11
1.1810178e-11
1.1742526e-11
1.1696085e-11
1.1672768e-11
1.1671775e-11
1.1691645e-11
1.1734068e-11
1.1813754e-11
1.195128e-11
1.2136159e-11
1.2361364e-11
1.2629474e-11
1.2944151e-11
1.3309744e-11
1.3724115e-11
1.4192142e-11
1.4723202e-11
1.5326382e-11
1.6012123e-11
1.6787225e-11
1.7651579e-11
1.8606038e-11
1.9752049e-11
2.1139785e-11
2.27505e-11
2.4625038e-11
2.6813391e-11
2.937885e-11
3.2399344e-11
3.5962685e-11
4.0154186e-11
4.4944257e-11
5.069444e-11
5.7813571e-11
6.6401235e-11
7.6840772e-11
8.9632098e-11
1.0544583e-10
1.2507286e-10
1.4938765e-10
1.7883777e-10
2.1716614e-10
2.653099e-10
3.2548916e-10
4.0033252e-10
4.924008e-10
6.035073e-10
7.3418033e-10
8.8393926e-10
1.0471988e-09
1.2113009e-09
1.3626853e-09
1.491811e-09
1.5968442e-09
1.6819189e-09
1.7511778e-09
1.8087143e-09
1.8571344e-09
1.8975397e-09
1.930849e-09
1.9578802e-09
1.9789244e-09
1.993794e-09
2.00212e-09
2.0041117e-09
2.0007064e-09
1.9930215e-09
1.9820928e-09
1.9687887e-09
1.953815e-09
1.9377341e-09
1.9209624e-09
1.90381e-09
1.8865026e-09
1.8692124e-09
1.8520561e-09
1.8351125e-09
1.818421e-09
1.8020041e-09
1.7858966e-09
1.770016e-09
1.7544321e-09
1.7387602e-09
1.722997e-09
1.7079768e-09
1.6860367e-09
8.8230628e-05
6.4389656e-05
6.3110536e-05
6.29517e-05
6.297092e-05
6.2984885e-05
6.2988985e-05
6.2990815e-05
6.2992878e-05
6.2995755e-05
6.2999649e-05
6.3004736e-05
6.3011239e-05
6.3019466e-05
6.3029831e-05
6.304297e-05
6.3059788e-05
6.3081348e-05
6.3112917e-05
6.3140925e-05
6.3267751e-05
6.3060425e-05
6.4525222e-05
1.7064863e-05
3.6497671e-09
1.6683755e-10
8.5607346e-11
5.858289e-11
4.7129022e-11
4.0514125e-11
3.589327e-11
3.2373241e-11
2.9615306e-11
2.7366458e-11
2.5509793e-11
2.3964406e-11
2.2684956e-11
2.1629749e-11
2.075207e-11
2.0019619e-11
1.9390881e-11
1.8842614e-11
1.8367556e-11
1.7961998e-11
1.762127e-11
1.7340734e-11
1.7116306e-11
1.6944785e-11
1.6823071e-11
1.6751689e-11
1.6717345e-11
1.6711428e-11
1.6734364e-11
1.6789916e-11
1.687811e-11
1.699793e-11
1.7152411e-11
1.7361664e-11
1.7653699e-11
1.8016041e-11
1.8440653e-11
1.8932062e-11
1.9496455e-11
2.0141113e-11
2.0862767e-11
2.1669538e-11
2.2577135e-11
2.360121e-11
2.4759328e-11
2.6064549e-11
2.7521123e-11
2.9135197e-11
3.1050083e-11
3.3342004e-11
3.599562e-11
3.9077692e-11
4.2670054e-11
4.6876102e-11
5.1823601e-11
5.7658258e-11
6.452875e-11
7.2420399e-11
8.187241e-11
9.3507015e-11
1.075366e-10
1.245869e-10
1.4547435e-10
1.7129583e-10
2.0335234e-10
2.431335e-10
2.915625e-10
3.5423204e-10
4.3292087e-10
5.3127953e-10
6.5360602e-10
8.0409013e-10
9.8570564e-10
1.1993364e-09
1.4442408e-09
1.7113644e-09
1.9800851e-09
2.2282169e-09
2.439989e-09
2.6123468e-09
2.7519231e-09
2.8655397e-09
2.9598872e-09
3.0392464e-09
3.1054399e-09
3.1599919e-09
3.2042553e-09
3.2387134e-09
3.2630625e-09
3.2766993e-09
3.2799667e-09
3.2743992e-09
3.2618258e-09
3.2439423e-09
3.2221701e-09
3.1976649e-09
3.171347e-09
3.1438983e-09
3.115826e-09
3.0874999e-09
3.0592018e-09
3.0311228e-09
3.0033919e-09
2.9760735e-09
2.9492044e-09
2.9228417e-09
2.8968505e-09
2.8713451e-09
2.8456953e-09
2.819898e-09
2.7953151e-09
2.7594066e-09
8.8139393e-05
6.4189033e-05
6.2906732e-05
6.2745318e-05
6.2763803e-05
6.2777629e-05
6.2781696e-05
6.2783504e-05
6.2785549e-05
6.2788413e-05
6.2792297e-05
6.2797376e-05
6.2803872e-05
6.2812092e-05
6.2822449e-05
6.2835576e-05
6.2852378e-05
6.2873912e-05
6.2905437e-05
6.2933372e-05
6.3060014e-05
6.2852653e-05
6.4315559e-05
1.7103138e-05
5.229461e-09
2.2370174e-10
1.1502339e-10
7.8908792e-11
6.4049805e-11
5.5576275e-11
4.9611956e-11
4.5025963e-11
4.1415815e-11
3.8463371e-11
3.6019404e-11
3.3983684e-11
3.2300555e-11
3.0917322e-11
2.9773509e-11
2.8827903e-11
2.8021137e-11
2.7320825e-11
2.6718978e-11
2.621232e-11
2.579574e-11
2.5463653e-11
2.5211063e-11
2.5034133e-11
2.4928985e-11
2.4897359e-11
2.491887e-11
2.4981167e-11
2.5086086e-11
2.5240087e-11
2.5444432e-11
2.5698819e-11
2.6008264e-11
2.6400489e-11
2.691391e-11
2.7533481e-11
2.8249997e-11
2.9070936e-11
3.0006319e-11
3.1067902e-11
3.2250624e-11
3.3567571e-11
3.5044237e-11
3.6706511e-11
3.8583039e-11
4.0696955e-11
4.3060276e-11
4.5688595e-11
4.8784912e-11
5.2464037e-11
5.6719281e-11
6.1657445e-11
6.7409592e-11
7.4141105e-11
8.2056919e-11
9.139291e-11
1.0239853e-10
1.1509268e-10
1.3027458e-10
1.4888192e-10
1.7131633e-10
1.9857824e-10
2.3197361e-10
2.7325901e-10
3.2452774e-10
3.8824173e-10
4.6613021e-10
5.6646263e-10
6.9240647e-10
8.4983294e-10
1.045624e-09
1.2864917e-09
1.5772096e-09
1.9192192e-09
2.3113923e-09
2.7393361e-09
3.1701309e-09
3.5682346e-09
3.9081699e-09
4.1849658e-09
4.4090782e-09
4.5914909e-09
4.7429143e-09
4.8702292e-09
4.9763824e-09
5.063844e-09
5.1348004e-09
5.1900358e-09
5.2290674e-09
5.25093e-09
5.256173e-09
5.2472563e-09
5.227111e-09
5.1984552e-09
5.1635668e-09
5.124298e-09
5.082124e-09
5.0381374e-09
4.9931513e-09
4.9477583e-09
4.90241e-09
4.8574126e-09
4.812973e-09
4.7691944e-09
4.7261358e-09
4.6838888e-09
4.642237e-09
4.6013641e-09
4.5602592e-09
4.5189197e-09
4.4795249e-09
4.4219805e-09
8.8033366e-05
6.3954614e-05
6.2668524e-05
6.2504072e-05
6.2521691e-05
6.2535351e-05
6.2539377e-05
6.2541159e-05
6.2543183e-05
6.2546031e-05
6.2549903e-05
6.2554972e-05
6.256146e-05
6.2569672e-05
6.2580019e-05
6.2593133e-05
6.2609915e-05
6.2631419e-05
6.2662893e-05
6.2690745e-05
6.2817171e-05
6.2609772e-05
6.4070696e-05
1.7154203e-05
7.5807859e-09
3.210442e-10
1.6527637e-10
1.1354698e-10
9.2638357e-11
8.0808642e-11
7.2443123e-11
6.5974347e-11
6.0868313e-11
5.6689586e-11
5.3226252e-11
5.0340486e-11
4.7955137e-11
4.5996945e-11
4.4382254e-11
4.3054652e-11
4.1926189e-11
4.0949415e-11
4.0114322e-11
3.9417621e-11
3.8852931e-11
3.8412762e-11
3.8090347e-11
3.7880557e-11
3.7778068e-11
3.778625e-11
3.7873707e-11
3.8022342e-11
3.8236119e-11
3.8525523e-11
3.8893783e-11
3.934182e-11
3.9877623e-11
4.0539563e-11
4.13805e-11
4.2382293e-11
4.3534588e-11
4.4849348e-11
4.6342417e-11
4.803236e-11
4.9911349e-11
5.2000043e-11
5.4338956e-11
5.6969812e-11
5.9938354e-11
6.3283712e-11
6.7031229e-11
7.1212683e-11
7.6115482e-11
8.1911355e-11
8.8611599e-11
9.6384323e-11
1.0543603e-10
1.1602706e-10
1.2848073e-10
1.4317197e-10
1.6050835e-10
1.8057409e-10
2.0454704e-10
2.3382928e-10
2.6913211e-10
3.1202996e-10
3.6457885e-10
4.2954701e-10
5.1024615e-10
6.1065552e-10
7.3383003e-10
8.9190307e-10
1.0902833e-09
1.3382558e-09
1.646665e-09
2.0260923e-09
2.4840759e-09
3.0229221e-09
3.6409319e-09
4.3155668e-09
4.9950864e-09
5.6234604e-09
6.1602441e-09
6.597494e-09
6.9514711e-09
7.2395608e-09
7.478638e-09
7.6795808e-09
7.8470703e-09
7.985038e-09
8.0969561e-09
8.1840738e-09
8.2456353e-09
8.2801203e-09
8.2883957e-09
8.2743409e-09
8.2425783e-09
8.1973943e-09
8.1423814e-09
8.0804603e-09
8.0139575e-09
7.9445959e-09
7.8736581e-09
7.8020784e-09
7.7305689e-09
7.6596127e-09
7.589536e-09
7.5205015e-09
7.4526023e-09
7.385983e-09
7.3203021e-09
7.2558498e-09
7.1910314e-09
7.1258441e-09
7.0637224e-09
6.9729806e-09
8.7911028e-05
6.3682442e-05
6.2391853e-05
6.2223845e-05
6.2240444e-05
6.2253907e-05
6.2257884e-05
6.2259635e-05
6.2261635e-05
6.2264464e-05
6.2268321e-05
6.2273379e-05
6.2279857e-05
6.228806e-05
6.2298395e-05
6.2311495e-05
6.2328253e-05
6.2349723e-05
6.2381138e-05
6.2408896e-05
6.253507e-05
6.232764e-05
6.3786542e-05
1.7221551e-05
1.1017045e-08
4.7590944e-10
2.4516373e-10
1.6855903e-10
1.3789067e-10
1.2061474e-10
1.0836722e-10
9.886785e-11
9.1359778e-11
8.5218404e-11
8.0126489e-11
7.588339e-11
7.2374964e-11
6.949406e-11
6.7120741e-11
6.5174723e-11
6.3523891e-11
6.2097206e-11
6.0880975e-11
5.9871423e-11
5.9059839e-11
5.8435526e-11
5.7988768e-11
5.7712262e-11
5.7598309e-11
5.765261e-11
5.7826937e-11
5.809455e-11
5.8462705e-11
5.8947952e-11
5.9556678e-11
6.0291914e-11
6.116613e-11
6.2232514e-11
6.3563876e-11
6.5138613e-11
6.6945557e-11
6.9003478e-11
7.1337042e-11
7.3975132e-11
7.6905712e-11
8.0160931e-11
8.3804216e-11
8.790162e-11
9.2525068e-11
9.7738811e-11
1.0359039e-10
1.1013846e-10
1.1778938e-10
1.2679864e-10
1.3721128e-10
1.4928866e-10
1.6335212e-10
1.7980646e-10
1.9915541e-10
2.219866e-10
2.4895313e-10
2.8025676e-10
3.1762542e-10
3.6314327e-10
4.1801864e-10
4.8469931e-10
5.663828e-10
6.6737792e-10
7.9285624e-10
9.4914191e-10
1.1414239e-09
1.3874086e-09
1.6960619e-09
2.0818792e-09
2.5617391e-09
3.1521173e-09
3.8647681e-09
4.7033276e-09
5.6652569e-09
6.7156649e-09
7.7741987e-09
8.7536186e-09
9.5905784e-09
1.0272565e-08
1.0824606e-08
1.1273859e-08
1.1646588e-08
1.1959771e-08
1.2220744e-08
1.2435678e-08
1.2610013e-08
1.274571e-08
1.2841602e-08
1.2895321e-08
1.2908219e-08
1.2886337e-08
1.2836876e-08
1.2766511e-08
1.2680838e-08
1.2584405e-08
1.2480836e-08
1.2372814e-08
1.2262337e-08
1.215086e-08
1.2039492e-08
1.1928986e-08
1.1819849e-08
1.1712335e-08
1.160659e-08
1.1502837e-08
1.1400546e-08
1.1300169e-08
1.1199221e-08
1.10977e-08
1.1000952e-08
1.0859631e-08
8.7770788e-05
6.3368213e-05
6.2072294e-05
6.1900146e-05
6.1915547e-05
6.1928776e-05
6.1932696e-05
6.1934409e-05
6.1936379e-05
6.1939186e-05
6.1943026e-05
6.1948071e-05
6.1954537e-05
6.1962729e-05
6.1973051e-05
6.1986134e-05
6.2002866e-05
6.2024296e-05
6.2055644e-05
6.2083296e-05
6.2209177e-05
6.2001738e-05
6.3458651e-05
1.7309337e-05
1.5987968e-08
7.1470216e-10
3.6830511e-10
2.5332191e-10
2.0751462e-10
1.8177011e-10
1.6349598e-10
1.4930061e-10
1.3807467e-10
1.2890148e-10
1.2129619e-10
1.1495899e-10
1.0971619e-10
1.054075e-10
1.0185791e-10
9.8950911e-11
9.6487297e-11
9.4359922e-11
9.2549098e-11
9.1049993e-11
8.9850091e-11
8.8933638e-11
8.828628e-11
8.7897288e-11
8.7755255e-11
8.7869303e-11
8.8165705e-11
8.8604853e-11
8.919913e-11
8.9974228e-11
9.0941599e-11
9.2107837e-11
9.3492157e-11
9.5168312e-11
9.7236598e-11
9.9671916e-11
1.0246316e-10
1.0563941e-10
1.0923865e-10
1.1330533e-10
1.1782107e-10
1.2283537e-10
1.2844646e-10
1.3475752e-10
1.4188035e-10
1.4991827e-10
1.5895496e-10
1.6909276e-10
1.8090541e-10
1.9477155e-10
2.1079574e-10
2.2938049e-10
2.5102101e-10
2.7634078e-10
3.061169e-10
3.4126057e-10
3.8280294e-10
4.3114739e-10
4.8882029e-10
5.5890646e-10
6.4340035e-10
7.4607172e-10
8.7184624e-10
1.0273664e-09
1.2206267e-09
1.4615479e-09
1.7587006e-09
2.1378297e-09
2.6134775e-09
3.208046e-09
3.9475548e-09
4.8574109e-09
5.9557638e-09
7.24828e-09
8.7311867e-09
1.035095e-08
1.1983937e-08
1.3495619e-08
1.4787818e-08
1.5841044e-08
1.6693503e-08
1.7387193e-08
1.79626e-08
1.8445957e-08
1.8848642e-08
1.9180236e-08
1.9449171e-08
1.9658496e-08
1.9806418e-08
1.988929e-08
1.9909196e-08
1.9875458e-08
1.9799179e-08
1.9690657e-08
1.9558521e-08
1.940979e-08
1.925005e-08
1.9083442e-08
1.8913047e-08
1.8741109e-08
1.8569339e-08
1.8398897e-08
1.8230568e-08
1.8064742e-08
1.7901643e-08
1.7741618e-08
1.7583847e-08
1.7429028e-08
1.7273328e-08
1.7116745e-08
1.6967524e-08
1.6749555e-08
8.7611005e-05
6.3007272e-05
6.1705051e-05
6.1528105e-05
6.1542102e-05
6.1555053e-05
6.1558904e-05
6.1560573e-05
6.1562509e-05
6.1565289e-05
6.1569109e-05
6.1574139e-05
6.1580591e-05
6.158877e-05
6.1599077e-05
6.161214e-05
6.1628842e-05
6.1650228e-05
6.1681497e-05
6.1709032e-05
6.1834576e-05
6.1627151e-05
6.3082239e-05
1.7422435e-05
2.3131805e-08
1.0773654e-09
5.5529667e-10
3.8201144e-10
3.1315025e-10
2.7449576e-10
2.4704124e-10
2.2569873e-10
2.0881757e-10
1.950391e-10
1.8361832e-10
1.7410272e-10
1.6622575e-10
1.5974555e-10
1.5440476e-10
1.5003278e-10
1.4632934e-10
1.4313268e-10
1.4041379e-10
1.3816603e-10
1.3637095e-10
1.3500504e-10
1.3404685e-10
1.3348038e-10
1.3328857e-10
1.3348564e-10
1.3395942e-10
1.3465127e-10
1.3558152e-10
1.3678964e-10
1.3829511e-10