/*--------------------------------*- C++ -*----------------------------------*\
| =========                 |                                                 |
| \\      /  F ield         | OpenFOAM: The Open Source CFD Toolbox           |
|  \\    /   O peration     | Version:  2206                                  |
|   \\  /    A nd           | Website:  www.openfoam.com                      |
|    \\/     M anipulation  |                                                 |
\*---------------------------------------------------------------------------*/
FoamFile
{
    version     2.0;
    format      ascii;
    arch        "LSB;label=32;scalar=64";
    class       volScalarField;
    location    "1700";
    object      nut;
}
// * * * * * * * * * * * * * * * * * * * * * * * * * * * * * * * * * * * * * //

dimensions      [0 2 -1 0 0 0 0];

internalField   nonuniform List<scalar> 
13056
(
1.9273991e-07
1.8912808e-07
1.8941731e-07
1.8975682e-07
1.8995737e-07
1.9005476e-07
1.9010559e-07
1.901372e-07
1.9016009e-07
1.901785e-07
1.9019451e-07
1.902094e-07
1.9022415e-07
1.9023959e-07
1.9025666e-07
1.9027619e-07
1.9030042e-07
1.9032708e-07
1.9037886e-07
1.9037022e-07
1.9069703e-07
1.9009314e-07
1.8737941e-07
8.675562e-10
2.5959042e-16
4.0472956e-17
2.0539017e-17
1.3865025e-17
1.0601112e-17
8.612577e-18
7.2686306e-18
6.2871666e-18
5.537014e-18
4.9450669e-18
4.465129e-18
4.0674265e-18
3.7322134e-18
3.4457213e-18
3.1979316e-18
2.9813948e-18
2.7904876e-18
2.6208663e-18
2.4690405e-18
2.3324257e-18
2.208738e-18
2.0962163e-18
1.9933878e-18
1.8990295e-18
1.8121177e-18
1.7317897e-18
1.657309e-18
1.5880453e-18
1.5234566e-18
1.4630736e-18
1.4064898e-18
1.3533509e-18
1.303344e-18
1.256193e-18
1.2116547e-18
1.1695131e-18
1.1295756e-18
1.091672e-18
1.0556505e-18
1.021374e-18
9.8871825e-19
9.5757169e-19
9.278347e-19
8.9941779e-19
8.7224003e-19
8.4622933e-19
8.2132255e-19
7.9746374e-19
7.746031e-19
7.5269752e-19
7.3170936e-19
7.1160694e-19
6.9236471e-19
6.7396597e-19
6.5640814e-19
6.3969449e-19
6.2383503e-19
6.0884844e-19
5.9476057e-19
5.8160891e-19
5.6945318e-19
5.5838075e-19
5.4849597e-19
5.3995867e-19
5.3313936e-19
5.2757941e-19
5.2542351e-19
5.2493307e-19
5.278433e-19
5.3426422e-19
5.4494331e-19
5.6054719e-19
5.8156082e-19
6.0798452e-19
6.4002692e-19
6.7743555e-19
7.1798931e-19
7.5753175e-19
7.9408251e-19
8.2157842e-19
8.4458562e-19
8.611598e-19
8.7342e-19
8.8234397e-19
8.8863999e-19
8.9280569e-19
8.9517968e-19
8.9601267e-19
8.9532836e-19
8.9315275e-19
8.8967832e-19
8.8507941e-19
8.7955922e-19
8.7337262e-19
8.6668448e-19
8.5963038e-19
8.523864e-19
8.4506739e-19
8.3772039e-19
8.3039389e-19
8.2316124e-19
8.160573e-19
8.0908033e-19
8.0221416e-19
7.9546374e-19
7.8882699e-19
7.8233067e-19
7.7567463e-19
7.6935032e-19
7.6152348e-19
7.5519889e-19
7.4604884e-19
1.9273952e-07
1.8912668e-07
1.894161e-07
1.8975566e-07
1.8995625e-07
1.9005367e-07
1.901045e-07
1.9013613e-07
1.9015902e-07
1.9017743e-07
1.9019345e-07
1.9020834e-07
1.9022309e-07
1.9023853e-07
1.9025561e-07
1.9027514e-07
1.9029937e-07
1.9032603e-07
1.9037781e-07
1.9036917e-07
1.9069599e-07
1.9009215e-07
1.8737923e-07
8.8075162e-10
2.4352943e-16
3.7824757e-17
1.9195112e-17
1.2957809e-17
9.907462e-18
8.0490422e-18
6.7930339e-18
5.8757896e-18
5.1747213e-18
4.6215064e-18
4.1729716e-18
3.8012914e-18
3.4880122e-18
3.2202663e-18
2.9886905e-18
2.7863227e-18
2.6079075e-18
2.4493854e-18
2.3074944e-18
2.179819e-18
2.0642249e-18
1.9590664e-18
1.8629666e-18
1.7747829e-18
1.6935585e-18
1.6184871e-18
1.5488804e-18
1.4841493e-18
1.4237873e-18
1.3673557e-18
1.3144747e-18
1.264813e-18
1.2180781e-18
1.1740127e-18
1.1323894e-18
1.0930063e-18
1.0556833e-18
1.0202611e-18
9.8659791e-19
9.5456577e-19
9.2404835e-19
8.9494152e-19
8.6715214e-19
8.4059653e-19
8.1519904e-19
7.9089217e-19
7.6761651e-19
7.4531946e-19
7.2395691e-19
7.0348903e-19
6.8387917e-19
6.650978e-19
6.4712109e-19
6.2993359e-19
6.1353294e-19
5.97922e-19
5.8310894e-19
5.6910651e-19
5.5594908e-19
5.4367821e-19
5.3234196e-19
5.2202287e-19
5.1281956e-19
5.0488232e-19
4.9855642e-19
4.9340008e-19
4.913777e-19
4.910151e-19
4.9385983e-19
5.0001437e-19
5.1018224e-19
5.249897e-19
5.4488833e-19
5.6986786e-19
6.0009866e-19
6.3529424e-19
6.7332038e-19
7.1028159e-19
7.4439494e-19
7.7002327e-19
7.9149326e-19
8.0697522e-19
8.1845492e-19
8.2683957e-19
8.327804e-19
8.3673226e-19
8.3900535e-19
8.3983035e-19
8.3922729e-19
8.3721899e-19
8.3398517e-19
8.296905e-19
8.2452703e-19
8.1873476e-19
8.124694e-19
8.0585901e-19
7.9906903e-19
7.9220748e-19
7.8531895e-19
7.7844917e-19
7.7166692e-19
7.6500494e-19
7.5846181e-19
7.5202256e-19
7.4569185e-19
7.3946781e-19
7.3337521e-19
7.2713444e-19
7.2120265e-19
7.1387019e-19
7.079397e-19
6.993593e-19
1.9273827e-07
1.891223e-07
1.894123e-07
1.8975202e-07
1.8995272e-07
1.9005021e-07
1.9010108e-07
1.9013273e-07
1.9015564e-07
1.9017407e-07
1.9019009e-07
1.9020499e-07
1.9021975e-07
1.902352e-07
1.9025228e-07
1.9027182e-07
1.9029605e-07
1.9032271e-07
1.9037451e-07
1.9036585e-07
1.9069269e-07
1.9008904e-07
1.873766e-07
8.9660293e-10
2.3265738e-16
3.6060264e-17
1.8299698e-17
1.235338e-17
9.4454111e-18
7.673749e-18
6.4763689e-18
5.6019335e-18
4.9335806e-18
4.4061703e-18
3.9785545e-18
3.6242088e-18
3.3255445e-18
3.070295e-18
2.8495312e-18
2.6566137e-18
2.4865312e-18
2.3354131e-18
2.2001499e-18
2.0784393e-18
1.9682465e-18
1.8680029e-18
1.7763959e-18
1.6923362e-18
1.6149118e-18
1.543354e-18
1.4770064e-18
1.4153061e-18
1.3577696e-18
1.3039792e-18
1.253572e-18
1.2062313e-18
1.1616789e-18
1.1196756e-18
1.0800129e-18
1.042492e-18
1.0069373e-18
9.7319688e-19
9.4113606e-19
9.10633e-19
8.8157669e-19
8.5386818e-19
8.2741858e-19
8.0214705e-19
7.7798154e-19
7.5485457e-19
7.3270162e-19
7.1146573e-19
6.9115662e-19
6.7174706e-19
6.5317032e-19
6.3540062e-19
6.1841676e-19
6.0220743e-19
5.8677273e-19
5.7211227e-19
5.5820964e-19
5.4498013e-19
5.3266921e-19
5.214558e-19
5.1122721e-19
5.0208494e-19
4.9415007e-19
4.8759304e-19
4.8273336e-19
4.7889334e-19
4.7716292e-19
4.7916325e-19
4.8492485e-19
4.9456713e-19
5.0889827e-19
5.2862157e-19
5.5417069e-19
5.8534758e-19
6.2183717e-19
6.6231143e-19
7.0342658e-19
7.4106899e-19
7.7470671e-19
7.994708e-19
8.206746e-19
8.3637382e-19
8.486244e-19
8.5820817e-19
8.6556361e-19
8.7094936e-19
8.74558e-19
8.7654587e-19
8.7688979e-19
8.7557732e-19
8.7277975e-19
8.6870102e-19
8.6358134e-19
8.576994e-19
8.5124787e-19
8.4438473e-19
8.37293e-19
8.3009519e-19
8.2285014e-19
8.1561269e-19
8.0845522e-19
8.014143e-19
7.9449338e-19
7.8768133e-19
7.8098368e-19
7.7440088e-19
7.6795028e-19
7.613839e-19
7.550909e-19
7.4752913e-19
7.4127651e-19
7.3221751e-19
1.9273613e-07
1.8911479e-07
1.8940578e-07
1.8974579e-07
1.8994668e-07
1.9004427e-07
1.9009521e-07
1.901269e-07
1.9014984e-07
1.9016829e-07
1.9018433e-07
1.9019925e-07
1.9021401e-07
1.9022948e-07
1.9024657e-07
1.9026612e-07
1.9029036e-07
1.9031703e-07
1.9036883e-07
1.9036015e-07
1.9068701e-07
1.9008371e-07
1.8737148e-07
9.1401885e-10
2.2656487e-16
3.4803539e-17
1.7662198e-17
1.1923261e-17
9.117233e-18
7.4077797e-18
6.2523927e-18
5.4085768e-18
4.7635955e-18
4.2545473e-18
3.8417975e-18
3.4997696e-18
3.2115171e-18
2.9652066e-18
2.7522001e-18
2.5660769e-18
2.4019903e-18
2.2562025e-18
2.1257151e-18
2.008308e-18
1.9020193e-18
1.8053357e-18
1.7169912e-18
1.6359351e-18
1.5612875e-18
1.4923076e-18
1.4283586e-18
1.3688894e-18
1.3134288e-18
1.2615769e-18
1.2129781e-18
1.1673206e-18
1.1243404e-18
1.0838506e-18
1.0457073e-18
1.0096763e-18
9.7555847e-19
9.4320841e-19
9.1249795e-19
8.8331183e-19
8.5554188e-19
8.2909491e-19
8.0388465e-19
7.7982588e-19
7.5684969e-19
7.3486902e-19
7.1376608e-19
6.9343773e-19
6.7425963e-19
6.5628236e-19
6.3921759e-19
6.2305784e-19
6.0779437e-19
5.9344168e-19
5.8001771e-19
5.6750167e-19
5.5570809e-19
5.4386908e-19
5.3372436e-19
5.2644016e-19
5.2079349e-19
5.1704995e-19
5.1552526e-19
5.1658316e-19
5.204567e-19
5.2456923e-19
5.2418851e-19
5.4295834e-19
5.7050494e-19
6.0717721e-19
6.549172e-19
7.1551964e-19
7.9013696e-19
8.7866385e-19
9.8022359e-19
1.0903983e-18
1.199719e-18
1.2983536e-18
1.3828753e-18
1.4484656e-18
1.5029036e-18
1.5459024e-18
1.5812293e-18
1.6106266e-18
1.6348211e-18
1.6542881e-18
1.6694507e-18
1.6805221e-18
1.6873722e-18
1.6898178e-18
1.6881063e-18
1.6828375e-18
1.6747247e-18
1.6644809e-18
1.6526661e-18
1.6397367e-18
1.6261092e-18
1.6120799e-18
1.5978396e-18
1.5835382e-18
1.5693183e-18
1.5552651e-18
1.5414163e-18
1.5277791e-18
1.5143683e-18
1.5011999e-18
1.4882534e-18
1.4753304e-18
1.4626214e-18
1.4486997e-18
1.4363146e-18
1.4182923e-18
1.9273302e-07
1.8910392e-07
1.8939634e-07
1.8973676e-07
1.8993793e-07
1.9003568e-07
1.9008671e-07
1.9011846e-07
1.9014144e-07
1.9015992e-07
1.9017599e-07
1.9019093e-07
1.9020571e-07
1.902212e-07
1.902383e-07
1.9025787e-07
1.9028212e-07
1.903088e-07
1.9036062e-07
1.9035191e-07
1.9067879e-07
1.90076e-07
1.8736383e-07
9.3295959e-10
2.2754041e-16
3.3945628e-17
1.722802e-17
1.1631186e-17
8.8969278e-18
7.2316406e-18
6.1058834e-18
5.2834989e-18
4.6547606e-18
4.1581868e-18
3.7554586e-18
3.4217299e-18
3.1405977e-18
2.9005451e-18
2.6930622e-18
2.5118315e-18
2.3520837e-18
2.2101641e-18
2.0831587e-18
1.9689123e-18
1.8655187e-18
1.7715059e-18
1.6856422e-18
1.6069052e-18
1.534438e-18
1.4675234e-18
1.4055261e-18
1.3478745e-18
1.2940911e-18
1.2437986e-18
1.196628e-18
1.1522491e-18
1.1104231e-18
1.0711551e-18
1.0345491e-18
1.0001962e-18
9.6777785e-19
9.3715597e-19
9.0821442e-19
8.8085067e-19
8.5495474e-19
8.3044581e-19
8.0723815e-19
7.8521824e-19
7.6432146e-19
7.4436894e-19
7.2500681e-19
7.059263e-19
6.890623e-19
6.7479937e-19
6.6189796e-19
6.5042615e-19
6.4042556e-19
6.3201846e-19
6.253015e-19
6.2015734e-19
6.15603e-19
6.0774022e-19
6.0499207e-19
6.130113e-19
6.2561731e-19
6.4384757e-19
6.6901646e-19
7.0279076e-19
7.4675974e-19
7.9879405e-19
8.5056995e-19
9.4470717e-19
1.0672884e-18
1.2225636e-18
1.4175825e-18
1.6590631e-18
1.951488e-18
2.2953274e-18
2.6877325e-18
3.1115403e-18
3.5308517e-18
3.9098444e-18
4.230433e-18
4.4859732e-18
4.6949116e-18
4.8641295e-18
5.0053274e-18
5.1248384e-18
5.2250081e-18
5.3075738e-18
5.374185e-18
5.4254324e-18
5.4607523e-18
5.479227e-18
5.4814868e-18
5.4699155e-18
5.4473536e-18
5.416485e-18
5.3795233e-18
5.3382695e-18
5.2942079e-18
5.2484263e-18
5.2017064e-18
5.1546281e-18
5.1076598e-18
5.0611086e-18
5.015163e-18
4.9699062e-18
4.9253957e-18
4.8817145e-18
4.8386831e-18
4.7962505e-18
4.7538477e-18
4.7101294e-18
4.6692978e-18
4.6097195e-18
1.9272887e-07
1.8908937e-07
1.8938372e-07
1.8972468e-07
1.8992622e-07
1.9002419e-07
1.9007534e-07
1.9010717e-07
1.9013021e-07
1.9014873e-07
1.9016484e-07
1.901798e-07
1.9019462e-07
1.9021012e-07
1.9022725e-07
1.9024683e-07
1.902711e-07
1.9029779e-07
1.9034964e-07
1.9034089e-07
1.9066779e-07
1.9006569e-07
1.873536e-07
9.5365174e-10
2.4249838e-16
3.3602447e-17
1.7057836e-17
1.1519673e-17
8.8215821e-18
7.1797778e-18
6.06917e-18
5.2571696e-18
4.635919e-18
4.1441457e-18
3.745008e-18
3.4142364e-18
3.1359991e-18
2.8989777e-18
2.6944757e-18
2.5160639e-18
2.3588843e-18
2.2192894e-18
2.0944293e-18
1.9822039e-18
1.8807497e-18
1.7886227e-18
1.7046134e-18
1.627718e-18
1.557093e-18
1.4920445e-18
1.4318982e-18
1.3759773e-18
1.3237501e-18
1.2748847e-18
1.2289428e-18
1.1855117e-18
1.144415e-18
1.1062668e-18
1.0719664e-18
1.040526e-18
1.0112237e-18
9.8393572e-19
9.5857556e-19
9.3507378e-19
9.133066e-19
8.9322648e-19
8.7474011e-19
8.5762594e-19
8.418192e-19
8.2680752e-19
8.1139812e-19
7.9454464e-19
7.8352666e-19
7.7990285e-19
7.7915499e-19
7.8159573e-19
7.8759629e-19
7.976995e-19
8.124976e-19
8.3235086e-19
8.5640533e-19
8.7896301e-19
9.13064e-19
9.6930572e-19
1.039878e-18
1.1283556e-18
1.2393389e-18
1.3788166e-18
1.5530587e-18
1.7625338e-18
1.9913711e-18
2.3342033e-18
2.7703217e-18
3.3172794e-18
3.9990986e-18
4.8389044e-18
5.852433e-18
7.042502e-18
8.4007603e-18
9.8696612e-18
1.1327389e-17
1.2651367e-17
1.3771017e-17
1.4671509e-17
1.5404409e-17
1.6001059e-17
1.6499618e-17
1.6922155e-17
1.7276934e-17
1.7570414e-17
1.7808684e-17
1.7993784e-17
1.8123783e-17
1.8195349e-17
1.8210417e-17
1.8177329e-17
1.8106033e-17
1.8005798e-17
1.7884362e-17
1.7748016e-17
1.7601819e-17
1.7449506e-17
1.7293832e-17
1.7136812e-17
1.6980007e-17
1.6824469e-17
1.6670886e-17
1.6519592e-17
1.6370789e-17
1.6224782e-17
1.6080865e-17
1.5939442e-17
1.5797476e-17
1.5653674e-17
1.5517429e-17
1.5318478e-17
1.9272359e-07
1.8907076e-07
1.8936757e-07
1.8970923e-07
1.8991125e-07
1.9000949e-07
1.9006081e-07
1.9009273e-07
1.9011584e-07
1.9013442e-07
1.9015057e-07
1.9016558e-07
1.9018042e-07
1.9019595e-07
1.9021311e-07
1.9023271e-07
1.90257e-07
1.9028371e-07
1.9033559e-07
1.9032678e-07
1.9065371e-07
1.900525e-07
1.8734079e-07
9.7644733e-10
2.8625504e-16
3.4230925e-17
1.738784e-17
1.1751796e-17
9.0265217e-18
7.372159e-18
6.2510616e-18
5.4295161e-18
4.7997192e-18
4.2981219e-18
3.8901747e-18
3.5520451e-18
3.268717e-18
3.028887e-18
2.8229509e-18
2.643878e-18
2.4863442e-18
2.3465529e-18
2.2216942e-18
2.1097197e-18
2.0087945e-18
1.917483e-18
1.8345792e-18
1.7590828e-18
1.6901465e-18
1.6271073e-18
1.5691533e-18
1.5152787e-18
1.464764e-18
1.4173817e-18
1.3724661e-18
1.3293397e-18
1.2879888e-18
1.2507936e-18
1.2209829e-18
1.1958804e-18
1.1735705e-18
1.153962e-18
1.137048e-18
1.1228509e-18
1.1112123e-18
1.1021836e-18
1.0958383e-18
1.0920848e-18
1.091023e-18
1.0921316e-18
1.0938817e-18
1.094839e-18
1.1057752e-18
1.1297265e-18
1.1607087e-18
1.1997907e-18
1.2482579e-18
1.3078189e-18
1.380457e-18
1.467937e-18
1.5700945e-18
1.6774573e-18
1.8142436e-18
2.003078e-18
2.2333361e-18
2.5156455e-18
2.8637588e-18
3.2957717e-18
3.8314121e-18
4.4808732e-18
5.2156975e-18
6.2535722e-18
7.5651638e-18
9.2060923e-18
1.1247912e-17
1.37598e-17
1.6789378e-17
2.0346906e-17
2.4410601e-17
2.8813406e-17
3.3196359e-17
3.7193222e-17
4.0578983e-17
4.33127e-17
4.5533591e-17
4.734327e-17
4.8854007e-17
5.0132844e-17
5.1205605e-17
5.2092965e-17
5.2814132e-17
5.3375563e-17
5.3771625e-17
5.3992255e-17
5.4043088e-17
5.3949225e-17
5.3740597e-17
5.3445004e-17
5.3085718e-17
5.2681657e-17
5.2247939e-17
5.1795746e-17
5.1333378e-17
5.086689e-17
5.0400924e-17
4.9938615e-17
4.9482064e-17
4.903231e-17
4.8589955e-17
4.8155931e-17
4.7728053e-17
4.7307986e-17
4.6885786e-17
4.6460183e-17
4.6055369e-17
4.5464114e-17
1.9271704e-07
1.8904759e-07
1.8934747e-07
1.8969001e-07
1.8989262e-07
1.899912e-07
1.9004272e-07
1.9007478e-07
1.9009798e-07
1.9011662e-07
1.9013283e-07
1.9014788e-07
1.9016276e-07
1.9017833e-07
1.9019552e-07
1.9021515e-07
1.9023947e-07
1.9026619e-07
1.9031811e-07
1.9030925e-07
1.906362e-07
1.9003608e-07
1.8732542e-07
1.0017954e-09
3.9385012e-16
3.6914423e-17
1.8777124e-17
1.2712794e-17
9.8291994e-18
8.0882307e-18
6.9036037e-18
6.0309629e-18
5.3589114e-18
4.8158751e-18
4.3721117e-18
4.0041324e-18
3.6985413e-18
3.4437163e-18
3.2274039e-18
3.0407841e-18
2.8771895e-18
2.7323281e-18
2.6033933e-18
2.4883956e-18
2.3855118e-18
2.2932842e-18
2.2104813e-18
2.1360873e-18
2.0692281e-18
2.0093097e-18
1.9551722e-18
1.9055307e-18
1.8596492e-18
1.8174314e-18
1.7781467e-18
1.7409962e-18
1.7060645e-18
1.6768036e-18
1.6579964e-18
1.6461672e-18
1.6388114e-18
1.6359699e-18
1.6378243e-18
1.6446157e-18
1.6560952e-18
1.6725531e-18
1.694483e-18
1.7221445e-18
1.7560689e-18
1.7958124e-18
1.8392541e-18
1.8842886e-18
1.9492051e-18
2.0403275e-18
2.1488333e-18
2.2776772e-18
2.4304327e-18
2.6117207e-18
2.827033e-18
3.081802e-18
3.3782463e-18
3.6998746e-18
4.0954502e-18
4.6143124e-18
5.242259e-18
6.0075442e-18
6.946827e-18
8.108634e-18
9.5471458e-18
1.1301609e-17
1.3327599e-17
1.6109993e-17
1.9617175e-17
2.4001964e-17
2.945533e-17
3.6162336e-17
4.4251405e-17
5.3753085e-17
6.4615448e-17
7.6402773e-17
8.8166551e-17
9.8927185e-17
1.0805799e-16
1.1544705e-16
1.2144415e-16
1.2633091e-16
1.3040575e-16
1.3385033e-16
1.3673636e-16
1.3912204e-16
1.4106079e-16
1.425708e-16
1.4363739e-16
1.442336e-16
1.4437445e-16
1.4412727e-16
1.4357237e-16
1.4278426e-16
1.4182535e-16
1.4074639e-16
1.3958786e-16
1.383797e-16
1.371442e-16
1.3589758e-16
1.3465226e-16
1.3341663e-16
1.3219635e-16
1.3099422e-16
1.2981187e-16
1.2865179e-16
1.2750809e-16
1.263856e-16
1.2525698e-16
1.2412094e-16
1.230391e-16
1.214589e-16
1.9270909e-07
1.8901929e-07
1.8932295e-07
1.8966656e-07
1.8986989e-07
1.8996889e-07
1.9002066e-07
1.9005287e-07
1.9007618e-07
1.9009491e-07
1.9011118e-07
1.9012629e-07
1.9014122e-07
1.9015683e-07
1.9017406e-07
1.9019373e-07
1.9021809e-07
1.9024483e-07
1.9029679e-07
1.9028785e-07
1.9061484e-07
1.9001602e-07
1.8730761e-07
1.0302428e-09
6.3078069e-16
4.3962715e-17
2.2418652e-17
1.5225514e-17
1.1910879e-17
9.9320377e-18
8.576132e-18
7.5682622e-18
6.7879207e-18
6.1531212e-18
5.6322102e-18
5.1996463e-18
4.8415537e-18
4.54508e-18
4.2954842e-18
4.0822462e-18
3.8963597e-18
3.7323936e-18
3.5874182e-18
3.459468e-18
3.3466459e-18
3.2473659e-18
3.1602749e-18
3.0842676e-18
3.0183651e-18
2.9620962e-18
2.9134718e-18
2.870582e-18
2.8326698e-18
2.7999261e-18
2.7715136e-18
2.7464115e-18
2.7249219e-18
2.7126476e-18
2.7174773e-18
2.7343786e-18
2.7597169e-18
2.7938368e-18
2.8373486e-18
2.8909928e-18
2.9543082e-18
3.0281342e-18
3.1139565e-18
3.2129113e-18
3.326576e-18
3.454881e-18
3.5948047e-18
3.7432388e-18
3.9336299e-18
4.1792029e-18
4.4661326e-18
4.8017562e-18
5.1949809e-18
5.6572015e-18
6.2021306e-18
6.8440234e-18
7.5918421e-18
8.4171503e-18
9.4195666e-18
1.0704514e-17
1.2255795e-17
1.4142663e-17
1.6455118e-17
1.9312779e-17
2.2851414e-17
2.718638e-17
3.2263715e-17
3.9117537e-17
4.7745471e-17
5.8530127e-17
7.1941333e-17
8.8435126e-17
1.0832984e-16
1.3170625e-16
1.5844842e-16
1.8750467e-16
2.1656083e-16
2.4320287e-16
2.6584177e-16
2.8419062e-16
2.9907348e-16
3.1119868e-16
3.2129919e-16
3.2982718e-16
3.369647e-16
3.4286078e-16
3.4765096e-16
3.5138196e-16
3.5401833e-16
3.5549382e-16
3.5584538e-16
3.552393e-16
3.5387377e-16
3.5193265e-16
3.4957e-16
3.4691109e-16
3.4405573e-16
3.4107783e-16
3.3803239e-16
3.3495947e-16
3.3188965e-16
3.2884364e-16
3.2583542e-16
3.2287196e-16
3.1995723e-16
3.1709745e-16
3.1427798e-16
3.1151105e-16
3.0872868e-16
3.0592944e-16
3.0326264e-16
2.9936728e-16
1.9269958e-07
1.8898519e-07
1.8929343e-07
1.8963833e-07
1.8984254e-07
1.8994205e-07
1.8999411e-07
1.9002651e-07
1.9004995e-07
1.9006878e-07
1.9008514e-07
1.9010031e-07
1.9011531e-07
1.9013097e-07
1.9014824e-07
1.9016796e-07
1.9019235e-07
1.9021912e-07
1.9027115e-07
1.9026211e-07
1.9058915e-07
1.8999186e-07
1.8728758e-07
1.0624495e-09
1.1212295e-15
6.0771999e-17
3.1090404e-17
2.119829e-17
1.6827621e-17
1.4259504e-17
1.2482562e-17
1.1145205e-17
1.0102504e-17
9.2480111e-18
8.5433257e-18
7.9571605e-18
7.4735079e-18
7.0762525e-18
6.7451844e-18
6.4660489e-18
6.2246203e-18
6.0128414e-18
5.8273919e-18
5.6662676e-18
5.5273289e-18
5.4086483e-18
5.3085552e-18
5.2257074e-18
5.158863e-18
5.1077925e-18
5.06867e-18
5.0382795e-18
5.0158765e-18
5.0022752e-18
4.9964999e-18
4.9971684e-18
5.0050538e-18
5.0298885e-18
5.0854961e-18
5.1639846e-18
5.2596797e-18
5.3735997e-18
5.5072919e-18
5.6625917e-18
5.8385712e-18
6.0372768e-18
6.2624217e-18
6.5171937e-18
6.805563e-18
7.128639e-18
7.4822575e-18
7.8620839e-18
8.3309156e-18
8.9159267e-18
9.5951004e-18
1.0385464e-17
1.1307746e-17
1.2388327e-17
1.3659211e-17
1.5154682e-17
1.6900729e-17
1.8850186e-17
2.1204158e-17
2.41815e-17
2.7772749e-17
3.2137844e-17
3.7484878e-17
4.4091258e-17
5.227575e-17
6.2336998e-17
7.4248167e-17
9.0131854e-17
1.1011086e-16
1.3508256e-16
1.6613554e-16
2.0432769e-16
2.5040088e-16
3.0455234e-16
3.6653525e-16
4.3395126e-16
5.0147519e-16
5.6350671e-16
6.1627897e-16
6.5910066e-16
6.9381769e-16
7.2209626e-16
7.4563325e-16
7.654861e-16
7.8208716e-16
7.9579256e-16
8.0692401e-16
8.1559345e-16
8.2172012e-16
8.2515065e-16
8.2597089e-16
8.2456707e-16
8.2139954e-16
8.1689525e-16
8.11412e-16
8.0524073e-16
7.9861316e-16
7.9170095e-16
7.8463181e-16
7.7749881e-16
7.703729e-16
7.6330221e-16
7.563192e-16
7.4944006e-16
7.4267406e-16
7.3603561e-16
7.294907e-16
7.23068e-16
7.1660911e-16
7.1011238e-16
7.0392201e-16
6.9487974e-16
1.9268835e-07
1.8894453e-07
1.8925826e-07
1.8960471e-07
1.8980996e-07
1.8991008e-07
1.8996249e-07
1.8999512e-07
1.9001872e-07
1.9003768e-07
1.9005413e-07
1.9006939e-07
1.9008445e-07
1.9010018e-07
1.9011751e-07
1.9013727e-07
1.9016172e-07
1.9018852e-07
1.9024061e-07
1.9023147e-07
1.9055856e-07
1.8996306e-07
1.8726569e-07
1.0992151e-09
2.100924e-15
9.7417773e-17
4.9986502e-17
3.4205011e-17
2.7510829e-17
2.3641552e-17
2.0937455e-17
1.8876797e-17
1.7259493e-17
1.592692e-17
1.4823314e-17
1.3903999e-17
1.3147176e-17
1.2529283e-17
1.201887e-17
1.159403e-17
1.1229516e-17
1.0911627e-17
1.0636119e-17
1.0400827e-17
1.0203036e-17
1.0040044e-17
9.9094692e-18
9.8094347e-18
9.7381176e-18
9.6957802e-18
9.6746976e-18
9.6690229e-18
9.6781631e-18
9.7042533e-18
9.7462105e-18
9.8021185e-18
9.8737454e-18
9.978531e-18
1.0141316e-17
1.0349154e-17
1.0592841e-17
1.0874843e-17
1.1198692e-17
1.1568546e-17
1.198249e-17
1.2445137e-17
1.2965013e-17
1.3549885e-17
1.4208963e-17
1.4946486e-17
1.575733e-17
1.6636265e-17
1.7701428e-17
1.9007484e-17
2.0519947e-17
2.2276514e-17
2.4323171e-17
2.6718274e-17
2.9533039e-17
3.284536e-17
3.6721194e-17
4.1086708e-17
4.6340459e-17
5.2924979e-17
6.0864432e-17
7.0512216e-17
8.2328539e-17
9.6928352e-17
1.1502516e-16
1.3733442e-16
1.639704e-16
1.9915948e-16
2.4339601e-16
2.9868679e-16
3.674437e-16
4.5201294e-16
5.5404603e-16
6.7399779e-16
8.113609e-16
9.6089139e-16
1.1108578e-15
1.2488389e-15
1.3663365e-15
1.4617667e-15
1.5391079e-15
1.602094e-15
1.6544831e-15
1.6986357e-15
1.735529e-15
1.7659718e-15
1.7906906e-15
1.8099404e-15
1.8235445e-15
1.8311636e-15
1.8329884e-15
1.8298763e-15
1.8228492e-15
1.8128548e-15
1.8006874e-15
1.7869927e-15
1.7722851e-15
1.7569455e-15
1.7412576e-15
1.7254278e-15
1.7096137e-15
1.6939221e-15
1.678425e-15
1.6631584e-15
1.6481429e-15
1.6334104e-15
1.6188855e-15
1.604632e-15
1.5902979e-15
1.5758811e-15
1.5621432e-15
1.5420761e-15
1.926752e-07
1.8889643e-07
1.892167e-07
1.8956499e-07
1.8977148e-07
1.8987233e-07
1.8992516e-07
1.8995806e-07
1.8998185e-07
1.9000095e-07
1.9001752e-07
1.9003288e-07
1.9004803e-07
1.9006383e-07
1.9008123e-07
1.9010105e-07
1.9012555e-07
1.9015239e-07
1.9020456e-07
1.9019529e-07
1.9052245e-07
1.8992898e-07
1.8724252e-07
1.1415136e-09
4.0128781e-15
1.7383074e-16
8.9382318e-17
6.1315766e-17
4.9759367e-17
4.3163831e-17
3.8519364e-17
3.494694e-17
3.2130131e-17
2.9803924e-17
2.7872521e-17
2.6262263e-17
2.4937675e-17
2.3859257e-17
2.297323e-17
2.2242551e-17
2.1619427e-17
2.1078471e-17
2.0613453e-17
2.0221821e-17
1.9899608e-17
1.9642481e-17
1.9446553e-17
1.9308825e-17
1.9226257e-17
1.9200115e-17
1.9214625e-17
1.9258762e-17
1.9332477e-17
1.9440646e-17
1.9582295e-17
1.9754817e-17
1.9962038e-17
2.0235507e-17
2.0620121e-17
2.1094255e-17
2.1642797e-17
2.2271238e-17
2.2987218e-17
2.3799697e-17
2.4704731e-17
2.5712251e-17
2.684089e-17
2.8108269e-17
2.953473e-17
3.1132056e-17
3.2895663e-17
3.4821413e-17
3.7129911e-17
3.9929068e-17
4.3167081e-17
4.6924573e-17
5.1300074e-17
5.6418372e-17
6.2432455e-17
6.9512325e-17
7.7813193e-17
8.7228568e-17
9.853454e-17
1.1260698e-16
1.2957288e-16
1.5018749e-16
1.7543505e-16
2.0663329e-16
2.4532311e-16
2.9313002e-16
3.5060398e-16
4.2596752e-16
5.20666e-16
6.3903001e-16
7.8622611e-16
9.6728418e-16
1.1857559e-15
1.4426471e-15
1.7369415e-15
2.0575312e-15
2.3794061e-15
2.675936e-15
2.9286472e-15
3.13405e-15
3.3004709e-15
3.4359812e-15
3.5486282e-15
3.6435005e-15
3.7227254e-15
3.7880707e-15
3.8411172e-15
3.8824231e-15
3.9116148e-15
3.9279658e-15
3.9318857e-15
3.9252142e-15
3.9101435e-15
3.8887069e-15
3.8626083e-15
3.833233e-15
3.8016847e-15
3.7687805e-15
3.7351288e-15
3.7011726e-15
3.66725e-15
3.6335899e-15
3.600347e-15
3.5675986e-15
3.5353888e-15
3.5037862e-15
3.4726287e-15
3.4420538e-15
3.4113056e-15
3.3803811e-15
3.3509119e-15
3.3078661e-15
1.9265994e-07
1.8883992e-07
1.8916792e-07
1.895184e-07
1.8972635e-07
1.8982805e-07
1.8988138e-07
1.8991459e-07
1.8993861e-07
1.8995788e-07
1.8997459e-07
1.8999006e-07
1.9000531e-07
1.900212e-07
1.9003868e-07
1.9005858e-07
1.9008315e-07
1.9011002e-07
1.9016229e-07
1.9015287e-07
1.9048012e-07
1.8988895e-07
1.8721886e-07
1.1905407e-09
7.6832295e-15
3.2903772e-16
1.6940033e-16
1.1637628e-16
9.4929681e-17
8.2786377e-17
7.4195595e-17
6.755044e-17
6.2297447e-17
5.7959999e-17
5.4354979e-17
5.1348352e-17
4.8874412e-17
4.6860709e-17
4.5209977e-17
4.3855812e-17
4.2705225e-17
4.1709203e-17
4.0857436e-17
4.0146529e-17
3.9569946e-17
3.9120012e-17
3.8789779e-17
3.8573954e-17
3.8467025e-17
3.8472295e-17
3.8557702e-17
3.8702176e-17
3.890718e-17
3.9183173e-17
3.9529983e-17
3.9944315e-17
4.043417e-17
4.1056592e-17
4.1892502e-17
4.2905715e-17
4.4071526e-17
4.5401623e-17
4.6911981e-17
4.8621306e-17
5.0521561e-17
5.2633484e-17
5.499648e-17
5.7648829e-17
6.063394e-17
6.3980749e-17
6.7690082e-17
7.1765038e-17
7.6613614e-17
8.2445621e-17
8.9188583e-17
9.7010522e-17
1.0611709e-16
1.1676837e-16
1.2928441e-16
1.4402534e-16
1.6133872e-16
1.8109024e-16
2.0476919e-16
2.3408068e-16
2.6941714e-16
3.1235212e-16
3.6493746e-16
4.2992465e-16
5.1055212e-16
6.1037381e-16
7.3106995e-16
8.8836292e-16
1.0859402e-15
1.3328971e-15
1.6400195e-15
2.0178151e-15
2.4737232e-15
3.0098987e-15
3.6243444e-15
4.294093e-15
4.9671448e-15
5.5878667e-15
6.1172191e-15
6.5477428e-15
6.8964794e-15
7.1804029e-15
7.4163096e-15
7.6148785e-15
7.7806109e-15
7.9172594e-15
8.0281668e-15
8.1145202e-15
8.1755477e-15
8.2097335e-15
8.2179347e-15
8.2039968e-15
8.1725025e-15
8.1277015e-15
8.0731556e-15
8.0117606e-15
7.9458231e-15
7.8770513e-15
7.8067168e-15
7.7357458e-15
7.6648446e-15
7.5944921e-15
7.5250115e-15
7.4565643e-15
7.3892428e-15
7.3231903e-15
7.2580683e-15
7.194164e-15
7.1298972e-15
7.0652634e-15
7.0036701e-15
6.9137002e-15
1.9264235e-07
1.8877387e-07
1.8911097e-07
1.8946406e-07
1.896737e-07
1.897764e-07
1.8983032e-07
1.898639e-07
1.8988819e-07
1.8990766e-07
1.8992453e-07
1.8994014e-07
1.8995551e-07
1.899715e-07
1.8998907e-07
1.9000905e-07
1.900337e-07
1.9006063e-07
1.90113e-07
1.9010341e-07
1.9043079e-07
1.8984215e-07
1.8719587e-07
1.2477756e-09
1.4642619e-14
6.389014e-16
3.2916079e-16
2.2630473e-16
1.8510128e-16
1.618747e-16
1.4540241e-16
1.3262241e-16
1.225081e-16
1.1416838e-16
1.0723602e-16
1.0145416e-16
9.6692781e-17
9.2812748e-17
8.9633145e-17
8.7031303e-17
8.4824908e-17
8.2917916e-17
8.129184e-17
7.9941567e-17
7.8855394e-17
7.801896e-17
7.7419195e-17
7.7046224e-17
7.6889613e-17
7.6956742e-17
7.7183064e-17
7.7528236e-17
7.7997437e-17
7.8612338e-17
7.937536e-17
8.0283056e-17
8.1351787e-17
8.2684234e-17
8.4425422e-17
8.6515268e-17
8.8913938e-17
9.1645621e-17
9.4742963e-17
9.8244165e-17
1.0213304e-16
1.0645199e-16
1.1128238e-16
1.1670494e-16
1.2281003e-16
1.2966401e-16
1.3728588e-16
1.4570172e-16
1.5565935e-16
1.6756196e-16
1.8132031e-16
1.972777e-16
2.1585486e-16
2.3758324e-16
2.631189e-16
2.9320769e-16
3.2860088e-16
3.6917402e-16
4.177525e-16
4.7761468e-16
5.4978034e-16
6.3746429e-16
7.4486058e-16
8.7760102e-16
1.0423502e-15
1.2466579e-15
1.4948843e-15
1.8167113e-15
2.2208428e-15
2.7259866e-15
3.3542164e-15
4.1270492e-15
5.0597532e-15
6.1568351e-15
7.4144248e-15
8.7859076e-15
1.0165235e-14
1.1438484e-14
1.2524933e-14
1.340901e-14
1.4124998e-14
1.470785e-14
1.5191933e-14
1.55992e-14
1.5938969e-14
1.6219028e-14
1.6446293e-14
1.662323e-14
1.6748274e-14
1.6818324e-14
1.6835139e-14
1.6806597e-14
1.6742085e-14
1.6650312e-14
1.6538575e-14
1.6412805e-14
1.6277728e-14
1.6136844e-14
1.5992758e-14
1.5847368e-14
1.5702121e-14
1.5557997e-14
1.5415659e-14
1.5275439e-14
1.5137524e-14
1.5002209e-14
1.48688e-14
1.4737886e-14
1.4606229e-14
1.4473822e-14
1.4347642e-14
1.416333e-14
1.9262221e-07
1.8869702e-07
1.8904479e-07
1.8940098e-07
1.8961258e-07
1.8971645e-07
1.8977106e-07
1.8980508e-07
1.8982967e-07
1.8984939e-07
1.8986645e-07
1.8988222e-07
1.8989772e-07
1.8991384e-07
1.8993152e-07
1.8995159e-07
1.8997634e-07
1.9000332e-07
1.9005581e-07
1.9004602e-07
1.9037356e-07
1.8978769e-07
1.8717505e-07
1.3150625e-09
2.7710792e-14
1.2500776e-15
6.4430207e-16
4.4314854e-16
3.6296757e-16
3.1787624e-16
2.8585841e-16
2.6098024e-16
2.4128311e-16
2.250724e-16
2.1160141e-16
2.0036735e-16
1.9110684e-16
1.835478e-16
1.7734964e-16
1.7228272e-16
1.6798996e-16
1.6428278e-16
1.6112653e-16
1.5851269e-16
1.5641934e-16
1.5481891e-16
1.5368625e-16
1.5300246e-16
1.5274741e-16
1.5293658e-16
1.5344135e-16
1.5418463e-16
1.5518014e-16
1.5647181e-16
1.5806888e-16
1.5996967e-16
1.6220709e-16
1.6496502e-16
1.6850181e-16
1.7271899e-16
1.7755367e-16
1.8305493e-16
1.8928839e-16
1.9633083e-16
2.0415001e-16
2.128312e-16
2.2253956e-16
2.334416e-16
2.4572197e-16
2.5952635e-16
2.7492202e-16
2.9199507e-16
3.12106e-16
3.360229e-16
3.6366501e-16
3.9572306e-16
4.3304455e-16
4.7669895e-16
5.2801001e-16
5.8849567e-16
6.5973789e-16
7.4174281e-16
8.398249e-16
9.6022946e-16
1.1053806e-15
1.2817469e-15
1.4977707e-15
1.7648021e-15
2.0963341e-15
2.5080554e-15
3.0103385e-15
3.6587052e-15
4.4726851e-15
5.4901373e-15
6.7555429e-15
8.3122838e-15
1.0191203e-14
1.240155e-14
1.4935904e-14
1.7701007e-14
2.0483801e-14
2.30546e-14
2.5249314e-14
2.7036021e-14
2.8482784e-14
2.9660402e-14
3.0638125e-14
3.1460357e-14
3.2146058e-14
3.2711108e-14
3.3169574e-14
3.3526492e-14
3.3778729e-14
3.3920044e-14
3.3953981e-14
3.3896434e-14
3.3766339e-14
3.3581257e-14
3.3355906e-14
3.3102252e-14
3.2829826e-14
3.2545686e-14
3.2255088e-14
3.1961858e-14
3.1668915e-14
3.1378239e-14
3.1091164e-14
3.0808359e-14
3.0530204e-14
3.0257293e-14
2.9988225e-14
2.972419e-14
2.9458656e-14
2.919161e-14
2.8937123e-14
2.8565391e-14
1.9259931e-07
1.8860796e-07
1.8896819e-07
1.8932806e-07
1.8954191e-07
1.8964716e-07
1.8970257e-07
1.8973711e-07
1.8976206e-07
1.8978205e-07
1.8979934e-07
1.898153e-07
1.8983096e-07
1.8984721e-07
1.8986502e-07
1.8988521e-07
1.8991006e-07
1.899371e-07
1.8998974e-07
1.899797e-07
1.9030748e-07
1.8972447e-07
1.8715846e-07
1.3947185e-09
5.2054785e-14
2.444869e-15
1.2604524e-15
8.6711929e-16
7.1073367e-16
6.2289865e-16
5.6049432e-16
5.1197082e-16
4.7355078e-16
4.4199248e-16
4.1578018e-16
3.9392435e-16
3.7589002e-16
3.6114278e-16
3.4903898e-16
3.3914659e-16
3.3076924e-16
3.2353769e-16
3.1738578e-16
3.1229826e-16
3.0823324e-16
3.0513732e-16
3.0296173e-16
3.0166995e-16
3.0122293e-16
3.0165209e-16
3.0270347e-16
3.0423033e-16
3.062651e-16
3.0889554e-16
3.1214707e-16
3.1602501e-16
3.2059473e-16