/*--------------------------------*- C++ -*----------------------------------*\
| =========                 |                                                 |
| \\      /  F ield         | OpenFOAM: The Open Source CFD Toolbox           |
|  \\    /   O peration     | Version:  2206                                  |
|   \\  /    A nd           | Website:  www.openfoam.com                      |
|    \\/     M anipulation  |                                                 |
\*---------------------------------------------------------------------------*/
FoamFile
{
    version     2.0;
    format      ascii;
    arch        "LSB;label=32;scalar=64";
    class       volScalarField;
    location    "1700";
    object      omega;
}
// * * * * * * * * * * * * * * * * * * * * * * * * * * * * * * * * * * * * * //

dimensions      [0 0 -1 0 0 0 0];

internalField   nonuniform List<scalar> 
13056
(
459.62221
344.5554
337.33859
335.94941
335.71058
335.6147
335.54719
335.50144
335.47225
335.45517
335.4476
335.44824
335.45656
335.47271
335.49725
335.53208
335.5781
335.6449
335.72032
335.88425
335.97724
335.95467
348.68539
19551.496
1.1944345e+09
1.1944345e+09
1.1944345e+09
1.1944345e+09
1.1944345e+09
1.1944345e+09
1.1944345e+09
1.1944345e+09
1.1944345e+09
1.1944345e+09
1.1944345e+09
1.1944345e+09
1.1944345e+09
1.1944345e+09
1.1944345e+09
1.1944345e+09
1.1944345e+09
1.1944345e+09
1.1944345e+09
1.1944345e+09
1.1944345e+09
1.1944345e+09
1.1944345e+09
1.1944345e+09
1.1944345e+09
1.1944345e+09
1.1944345e+09
1.1944345e+09
1.1944345e+09
1.1944345e+09
1.1944345e+09
1.1944345e+09
1.1944345e+09
1.1944345e+09
1.1944345e+09
1.1944345e+09
1.1944345e+09
1.1944345e+09
1.1944345e+09
1.1944345e+09
1.1944345e+09
1.1944345e+09
1.1944345e+09
1.1944345e+09
1.1944345e+09
1.1944345e+09
1.1944345e+09
1.1944345e+09
1.1944345e+09
1.1944345e+09
1.1944345e+09
1.1944345e+09
1.1944345e+09
1.1944345e+09
1.1944345e+09
1.1944345e+09
1.1944345e+09
1.1944345e+09
1.1944345e+09
1.1944345e+09
1.1944345e+09
1.1944345e+09
1.1944345e+09
1.1944345e+09
1.1944345e+09
1.1944345e+09
1.1944345e+09
1.1944345e+09
1.1944345e+09
1.1944345e+09
1.1944345e+09
1.1944345e+09
1.1944345e+09
1.1944345e+09
1.1944345e+09
1.1944345e+09
1.1944345e+09
1.1944345e+09
1.1944345e+09
1.1944345e+09
1.1944345e+09
1.1944345e+09
1.1944345e+09
1.1944345e+09
1.1944345e+09
1.1944345e+09
1.1944345e+09
1.1944345e+09
1.1944345e+09
1.1944345e+09
1.1944345e+09
1.1944345e+09
1.1944345e+09
1.1944345e+09
1.1944345e+09
1.1944345e+09
1.1944345e+09
1.1944345e+09
1.1944345e+09
1.1944345e+09
1.1944345e+09
1.1944345e+09
1.1944345e+09
1.1944345e+09
1.1944345e+09
1.1944345e+09
1.1944345e+09
1.1944345e+09
1.1944345e+09
1.1944345e+09
1.1944345e+09
1.1944345e+09
459.60909
344.52639
337.30872
335.91909
335.68011
335.58419
335.51665
335.4709
335.4417
335.42461
335.41703
335.41767
335.42599
335.44214
335.46667
335.5015
335.54752
335.61432
335.68973
335.85366
335.94668
335.92387
348.65259
19261.296
1.9586947e+08
1.9626966e+08
1.9626965e+08
1.9626965e+08
1.9626966e+08
1.9626967e+08
1.9626968e+08
1.9626969e+08
1.962697e+08
1.9626971e+08
1.9626972e+08
1.9626973e+08
1.9626974e+08
1.9626974e+08
1.9626975e+08
1.9626976e+08
1.9626977e+08
1.9626978e+08
1.9626979e+08
1.962698e+08
1.9626982e+08
1.9626983e+08
1.9626984e+08
1.9626986e+08
1.9626987e+08
1.9626989e+08
1.9626991e+08
1.9626992e+08
1.9626995e+08
1.9626997e+08
1.9627e+08
1.9627003e+08
1.9627007e+08
1.962701e+08
1.9627014e+08
1.9627017e+08
1.9627021e+08
1.9627025e+08
1.962703e+08
1.9627035e+08
1.9627041e+08
1.9627047e+08
1.9627054e+08
1.9627063e+08
1.9627073e+08
1.9627085e+08
1.9627101e+08
1.9627122e+08
1.9627142e+08
1.9627159e+08
1.9627178e+08
1.9627201e+08
1.9627229e+08
1.9627263e+08
1.9627304e+08
1.9627357e+08
1.9627431e+08
1.9627557e+08
1.962768e+08
1.9627773e+08
1.9627887e+08
1.9628029e+08
1.9628208e+08
1.9628441e+08
1.9628769e+08
1.9629357e+08
1.9630579e+08
1.9631122e+08
1.9631734e+08
1.9632494e+08
1.9633433e+08
1.963459e+08
1.9636015e+08
1.9637798e+08
1.9640109e+08
1.964315e+08
1.964693e+08
1.9651051e+08
1.96546e+08
1.9657618e+08
1.9659669e+08
1.9661185e+08
1.9662219e+08
1.9662901e+08
1.9663342e+08
1.9663643e+08
1.9663871e+08
1.9664054e+08
1.9664205e+08
1.9664326e+08
1.9664415e+08
1.966448e+08
1.9664524e+08
1.9664553e+08
1.9664571e+08
1.9664581e+08
1.9664584e+08
1.9664583e+08
1.9664579e+08
1.9664572e+08
1.9664564e+08
1.9664553e+08
1.9664542e+08
1.9664531e+08
1.9664519e+08
1.9664508e+08
1.9664496e+08
1.966449e+08
1.9664476e+08
1.9664496e+08
1.9664489e+08
1.9664475e+08
459.56723
344.43554
337.21534
335.82432
335.58488
335.48883
335.42124
335.37545
335.34622
335.32911
335.32152
335.32215
335.33046
335.3466
335.37113
335.40596
335.45196
335.51876
335.59417
335.75808
335.85117
335.82766
348.55319
18923.997
64127510
64221375
64221366
64221369
64221383
64221402
64221421
64221440
64221462
64221509
64221560
64221610
64221649
64221671
64221685
64221696
64221707
64221718
64221730
64221743
64221757
64221772
64221789
64221808
64221829
64221852
64221879
64221918
64221979
64222061
64222178
64222341
64222551
64222743
64222824
64222857
64222892
64222933
64222979
64223032
64223093
64223163
64223261
64223428
64223682
64224116
64224928
64226310
64227185
64227327
64227487
64227680
64227978
64228424
64229143
64230496
64233650
64242314
64249304
64250135
64251254
64252847
64255312
64259704
64269621
64303065
64404745
64415471
64422002
64431550
64446031
64468920
64506656
64571356
64685570
64880031
65167737
65512841
65822297
66087157
66263989
66389050
66467291
66511134
66532377
66541478
66545089
66546510
66547150
66547504
66547728
66547879
66547980
66548046
66548086
66548108
66548116
66548113
66548103
66548089
66548070
66548046
66548021
66547995
66547969
66547944
66547916
66547903
66547870
66547917
66547900
66547868
459.49533
344.27992
337.0554
335.66203
335.42182
335.32555
335.25786
335.212
335.18273
335.16558
335.15797
335.15858
335.16687
335.183
335.20752
335.24234
335.28834
335.35513
335.43053
335.5944
335.68761
335.66291
348.38389
18567.308
29317486
29342723
29342718
29342730
29342782
29342852
29342925
29343000
29343096
29343316
29343562
29343806
29343987
29344082
29344129
29344160
29344191
29344223
29344258
29344296
29344338
29344385
29344438
29344499
29344568
29344649
29344743
29344897
29345161
29345535
29346079
29346866
29347888
29348812
29349147
29349228
29349312
29349410
29349526
29349663
29349827
29350025
29350346
29350996
29352077
29354051
29357946
29364750
29368876
29369153
29369442
29369808
29370604
29372019
29374663
29380359
29395055
29437811
29471578
29473153
29475552
29479514
29486786
29502346
29544010
29702915
30207144
30239897
30242102
30245324
30250206
30257893
30270669
30292493
30330998
30396499
30493273
30609141
30712845
30801459
30860546
30902299
30928405
30943029
30950113
30953148
30954352
30954826
30955039
30955157
30955232
30955282
30955316
30955338
30955351
30955359
30955361
30955360
30955357
30955352
30955346
30955338
30955330
30955321
30955312
30955304
30955295
30955290
30955279
30955295
30955289
30955279
459.39134
344.05493
336.82418
335.4274
335.18607
335.08948
335.02164
334.9757
334.94636
334.92916
334.92151
334.92209
334.93036
334.94647
334.97098
335.00579
335.05177
335.11855
335.19394
335.35776
335.45115
335.42474
348.13949
18195.212
16064099
16058076
16058088
16058126
16058295
16058522
16058760
16059007
16059325
16060071
16060908
16061737
16062352
16062668
16062815
16062912
16063003
16063100
16063205
16063321
16063450
16063595
16063760
16063949
16064167
16064423
16064721
16065227
16066108
16067366
16069209
16071883
16075367
16078507
16079618
16079845
16080082
16080360
16080691
16081089
16081571
16082161
16083165
16085285
16088874
16095519
16108752
16131975
16145950
16146642
16147329
16148223
16150527
16154866
16163133
16181340
16230096
16374953
16488074
16488771
16489799
16491497
16494613
16501280
16519126
16587116
16802055
16815968
16816905
16818274
16820349
16823615
16829043
16838313
16854664
16882463
16923497
16972571
17016442
17053889
17078840
17096461
17107475
17113643
17116631
17117911
17118419
17118619
17118709
17118758
17118790
17118811
17118825
17118835
17118840
17118843
17118844
17118844
17118843
17118841
17118838
17118835
17118831
17118827
17118824
17118820
17118816
17118815
17118810
17118816
17118814
17118810
459.25251
343.75432
336.51521
335.11389
334.87105
334.77403
334.70601
334.65994
334.63051
334.61325
334.60555
334.60609
334.61433
334.63042
334.65491
334.6897
334.73567
334.80244
334.8778
335.04156
335.13518
335.10649
347.81292
17806.67
9831497.9
9789444.4
9789498.2
9789598.2
9790027.3
9790611.4
9791230.2
9791874.3
9792715.4
9794728.5
9796990.6
9799231.5
9800884.8
9801718.7
9802091.4
9802321.7
9802537.8
9802766.8
9803016.8
9803294
9803605.1
9803957.5
9804360.4
9804825.3
9805366.7
9806005.9
9806755.3
9808069.9
9810402.8
9813762.6
9818714.2
9825930
9835352.1
9843824.6
9846736.7
9847215.5
9847704.4
9848287.4
9848990.6
9849850.1
9850907
9852226.9
9854629.6
9860027.2
9869367.8
9886976.4
9922479.8
9985173.5
10022432
10023118
10023459
10023902
10025045
10027196
10031294
10040318
10064470
10136099
10191881
10192225
10192732
10193568
10195104
10198389
10207182
10240656
10346199
10353010
10353469
10354140
10355156
10356757
10359416
10363957
10371966
10385575
10405653
10429646
10451077
10469358
10481532
10490126
10495496
10498504
10499960
10500584
10500832
10500929
10500973
10500997
10501013
10501023
10501030
10501034
10501037
10501039
10501039
10501039
10501038
10501037
10501036
10501034
10501033
10501031
10501029
10501027
10501025
10501025
10501022
10501026
10501024
10501022
459.07542
343.37023
336.12041
334.71325
334.46849
334.37092
334.30266
334.25643
334.22689
334.20955
334.20178
334.20227
334.21047
334.22653
334.25099
334.28577
334.33172
334.39847
334.47379
334.63748
334.73139
334.69981
347.39519
17399.219
6502395
6403259.9
6403397
6403613.1
6404538.4
6405812.4
6407176.5
6408608.8
6410510.8
6415187.6
6420455.2
6425672.2
6429495.8
6431375.2
6432157.1
6432593.9
6432991.1
6433413.8
6433879.6
6434400.8
6434991.5
6435667.6
6436448.7
6437359.9
6438432.6
6439713.8
6441233.6
6444064.9
6449275.2
6456879
6468205.2
6484837.8
6506634.7
6526123.7
6532373
6532751.8
6533018.3
6533336
6533719.4
6534187.9
6534763.9
6535483.4
6536793.5
6539735.5
6544825.7
6554418.5
6573746.7
6607827.6
6628039
6628410.8
6628595.6
6628836.1
6629456.2
6630623.5
6632847
6637742.9
6650840.9
6689637.5
6719780.8
6719966.4
6720240.2
6720692.2
6721521.8
6723296.7
6728046.4
6746120.6
6802992.3
6806651.9
6806898.9
6807260
6807806.8
6808668
6810098.7
6812541.8
6816849.2
6824167.4
6834958.8
6847846.9
6859352.6
6869161.6
6875691.4
6880300
6883179.4
6884791.5
6885572.3
6885906.8
6886039.4
6886091.6
6886115.1
6886128.2
6886136.4
6886141.9
6886145.7
6886148.1
6886149.5
6886150.4
6886150.7
6886150.6
6886150.2
6886149.7
6886149
6886148.1
6886147.2
6886146.2
6886145.3
6886144.3
6886143.3
6886142.8
6886141.6
6886143.4
6886142.7
6886141.6
458.85594
342.8932
335.62999
334.21555
333.96841
333.87015
333.80159
333.75516
333.72548
333.70803
333.70018
333.70061
333.70876
333.72478
333.74921
333.78396
333.82989
333.89662
333.97191
334.13549
334.22976
334.19462
346.87541
16969.994
4504079.8
4405129.3
4405391.6
4405780.1
4407455.9
4409804.3
4412360.5
4415080.3
4418810.3
4428487.3
4439425.5
4450240
4458037.8
4461624.8
4462809.7
4463195.3
4463442.4
4463689.4
4463960.3
4464263.4
4464606.9
4465000
4465454.2
4465984
4466607.8
4467352.7
4468236.3
4469883.6
4472912.8
4477332.6
4483913.7
4493572.6
4506219
4517511.5
4521126.1
4521345.2
4521499.6
4521683.7
4521905.8
4522177.3
4522511
4522927.8
4523687.3
4525391.9
4528340.9
4533897.1
4545086.3
4564792.5
4576456.4
4576670.6
4576777.3
4576916.1
4577274.3
4577948.3
4579232.3
4582059
4589619.7
4611992
4629338.8
4629445.6
4629603.2
4629863.3
4630340.8
4631362.3
4634095.9
4644494.2
4677159.6
4679255.6
4679397.3
4679604.5
4679918.2
4680412.3
4681233.1
4682634.7
4685105.4
4689302.3
4695488.8
4702874
4709464.2
4715080.2
4718817.8
4721455.2
4723102.7
4724025.1
4724471.8
4724663.2
4724739.1
4724768.9
4724782.4
4724789.8
4724794.5
4724797.7
4724799.8
4724801.2
4724802.1
4724802.5
4724802.7
4724802.6
4724802.4
4724802.1
4724801.7
4724801.2
4724800.7
4724800.2
4724799.6
4724799.1
4724798.5
4724798.2
4724797.5
4724798.5
4724798.1
4724797.5
458.58936
342.3122
335.03254
333.60919
333.35913
333.26002
333.19109
333.14442
333.11456
333.09698
333.08904
333.08939
333.09749
333.11346
333.13786
333.17257
333.21847
333.28517
333.36041
333.52388
333.61859
333.57914
346.24072
16516.157
3214284.5
3153933.9
3154070.6
3154304.8
3155324
3156752.9
3158308.2
3159962.9
3162229.1
3168112.8
3174759.9
3181328.4
3186062.4
3188239.5
3188958.5
3189192.5
3189342.4
3189492.3
3189656.7
3189840.6
3190049.1
3190287.6
3190563.2
3190884.8
3191263.3
3191715.3
3192251.5
3193252
3195090.2
3197771.8
3201763.7
3207619.6
3215280.9
3222113.6
3224296.6
3224428.9
3224522.3
3224633.7
3224768.1
3224932.4
3225134.4
3225386.6
3225846.5
3226878.1
3228662.7
3232024.5
3238791.7
3250698.1
3257732.4
3257861.2
3257925.6
3258009.4
3258225.6
3258632.5
3259407.4
3261113.5
3265675.9
3279165.2
3289604.8
3289669.1
3289763.9
3289920.5
3290208
3290823
3292468.6
3298726.9
3318359.6
3319615.8
3319701
3319825.4
3320013.8
3320310.5
3320803.4
3321645
3323128.5
3325647.9
3329360.7
3333791.3
3337743.6
3341110.5
3343350.9
3344931.5
3345918.8
3346471.5
3346739.2
3346853.8
3346899.3
3346917.2
3346925.3
3346929.7
3346932.5
3346934.4
3346935.7
3346936.5
3346937
3346937.3
3346937.4
3346937.4
3346937.3
3346937.1
3346936.8
3346936.5
3346936.2
3346935.9
3346935.6
3346935.3
3346934.9
3346934.7
3346934.3
3346934.9
3346934.7
3346934.3
458.27032
341.61456
334.31498
332.88085
332.62727
332.52714
332.45775
332.4108
332.38073
332.36299
332.35492
332.35518
332.36321
332.37913
332.40348
332.43816
332.48402
332.55069
332.62588
332.78921
332.88443
332.83985
345.47628
16035.102
2344101.6
2306051.8
2306112.1
2306256.5
2306895.2
2307791.4
2308767.2
2309805.2
2311224.8
2314914
2319080.3
2323195.5
2326160.2
2327523.3
2327973.4
2328119.9
2328213.7
2328307.5
2328410.4
2328525.6
2328656.1
2328805.5
2328978
2329179.3
2329416.3
2329699.3
2330035
2330662
2331812.9
2333491.7
2335990.2
2339654
2344443.9
2348710.9
2350071.6
2350154
2350212.4
2350282
2350365.9
2350468.6
2350594.7
2350752.3
2351039.8
2351684.3
2352799.1
2354899.1
2359124.8
2366553
2370933.7
2371013.7
2371053.9
2371106.1
2371240.9
2371494.6
2371977.7
2373041.2
2375884.9
2384287.2
2390778.3
2390818.2
2390877.2
2390974.7
2391153.5
2391536.1
2392559.8
2396452.4
2408648.9
2409427.2
2409480
2409557.2
2409674.2
2409858.4
2410164.4
2410686.9
2411607.7
2413171.4
2415475.3
2418223.7
2420674.8
2422762.2
2424151
2425130.7
2425742.6
2426085.1
2426251
2426322
2426350.2
2426361.3
2426366.3
2426369.1
2426370.8
2426372
2426372.8
2426373.3
2426373.6
2426373.8
2426373.8
2426373.8
2426373.7
2426373.6
2426373.5
2426373.3
2426373.1
2426372.9
2426372.7
2426372.5
2426372.3
2426372.2
2426371.9
2426372.3
2426372.1
2426371.9
457.8929
340.78603
333.46252
332.0155
331.75772
331.65635
331.58643
331.53912
331.5088
331.49087
331.48267
331.48282
331.49076
331.50661
331.53091
331.56555
331.61137
331.678
331.75312
331.91629
332.01212
331.96152
344.5651
15524.59
1737220
1712598.7
1712609.3
1712699.1
1713108
1713683
1714309.1
1714975.3
1715885
1718251.8
1720923.8
1723562.1
1725462.3
1726335.7
1726624.1
1726717.9
1726778
1726838.1
1726904
1726977.8
1727061.4
1727157.1
1727267.7
1727396.7
1727548.5
1727729.8
1727944.9
1728347.1
1729084.7
1730160.5
1731761.3
1734107.8
1737173.7
1739901.8
1740770.1
1740822.6
1740860
1740904.5
1740958.2
1741023.8
1741104.5
1741205.3
1741389.3
1741801.6
1742514.7
1743857.9
1746560.1
1751306.4
1754100.5
1754151.4
1754177
1754210.4
1754296.5
1754458.4
1754766.9
1755446.1
1757261.8
1762623.5
1766758.7
1766784.2
1766821.8
1766883.9
1766997.9
1767241.8
1767894.4
1770375.5
1778141
1778635.1
1778668.7
1778717.9
1778792.3
1778909.5
1779104.3
1779436.7
1780022.7
1781017.5
1782483
1784230.9
1785789.3
1787116.2
1787998.9
1788621.4
1789010.3
1789227.9
1789333.3
1789378.4
1789396.3
1789403.4
1789406.6
1789408.3
1789409.4
1789410.2
1789410.7
1789411
1789411.2
1789411.3
1789411.4
1789411.3
1789411.3
1789411.2
1789411.1
1789411
1789410.9
1789410.8
1789410.6
1789410.5
1789410.4
1789410.3
1789410.1
1789410.4
1789410.3
1789410.1
457.45063
339.81072
332.45866
330.99634
330.73358
330.63075
330.56018
330.51246
330.48183
330.46368
330.4553
330.45532
330.46316
330.47894
330.50317
330.53776
330.58353
330.65013
330.72518
330.88817
330.98469
330.92712
343.48801
14982.86
1303169.6
1286894
1286869.7
1286925
1287190.9
1287565.8
1287974.4
1288409.3
1289002.4
1290547.2
1292290.8
1294012
1295251.3
1295820.8
1296008.8
1296070
1296109.1
1296148.3
1296191.3
1296239.4
1296293.9
1296356.3
1296428.4
1296512.5
1296611.5
1296729.7
1296870
1297132.5
1297613.6
1298315.3
1299359.1
1300888.8
1302886.2
1304661.6
1305225.6
1305259.7
1305284
1305313
1305348
1305390.7
1305443.2
1305508.8
1305628.7
1305897.2
1306361.7
1307236.3
1308995.5
1312083.3
1313897.9
1313930.9
1313947.6
1313969.2
1314025.2
1314130.5
1314331.1
1314772.7
1315953.3
1319438
1322121
1322137.5
1322161.9
1322202.3
1322276.3
1322434.6
1322858.4
1324469.3
1329506.3
1329825.9
1329847.7
1329879.5
1329927.8
1330003.8
1330130.1
1330345.6
1330725.5
1331370.4
1332320.3
1333452.9
1334462.5
1335322
1335893.7
1336296.9
1336548.7
1336689.6
1336757.9
1336787.1
1336798.7
1336803.2
1336805.3
1336806.4
1336807.2
1336807.6
1336808
1336808.2
1336808.3
1336808.4
1336808.4
1336808.4
1336808.4
1336808.3
1336808.2
1336808.2
1336808.1
1336808
1336807.9
1336807.8
1336807.7
1336807.7
1336807.6
1336807.8
1336807.7
1336807.6
456.93654
338.67105
331.28515
329.80476
329.53615
329.43157
329.36024
329.31203
329.28105
329.26263
329.25405
329.25391
329.26164
329.27732
329.30148
329.33601
329.38173
329.44827
329.52324
329.68603
329.78334
329.71783
342.2235
14408.75
986666.6
975706.39
975655.53
975688.37
975862.93
976110.37
976380.38
976667.91
977059.51
978081.21
979234.16
980371.99
981191.08
981567.42
981691.6
981731.97
981757.82
981783.67
981812.05
981843.8
981879.81
981921.03
981968.66
982024.23
982089.66
982167.8
982260.49
982434.22
982752.24
983216.01
983905.9
984916.63
986235.7
987406.9
987778.19
987800.64
987816.68
987835.8
987858.87
987887.07
987921.75
987965.06
988044.25
988221.5
988528.12
989105.52
990266.62
992303.28
993498.11
993519.77
993530.75
993545.04
993581.97
993651.4
993783.66
994074.83
994853.23
997149.73
998915.11
998925.99
998942.06
998968.61
999017.35
999121.63
999400.7
1000461.5
1003775.4
1003985
1003999.4
1004020.3
1004052.1
1004102.1
1004185.1
1004326.8
1004576.7
1005000.8
1005625.3
1006369.8
1007033.4
1007598.2
1007973.9
1008238.8
1008404.2
1008496.8
1008541.7
1008560.9
1008568.5
1008571.5
1008572.8
1008573.6
1008574.1
1008574.4
1008574.6
1008574.7
1008574.8
1008574.9
1008574.9
1008574.9
1008574.8
1008574.8
1008574.8
1008574.7
1008574.7
1008574.6
1008574.6
1008574.5
1008574.4
1008574.4
1008574.3
1008574.4
1008574.4
1008574.3
456.34321
337.34776
329.92191
328.42031
328.14483
328.03819
327.96596
327.91717
327.88577
327.86704
327.85823
327.85791
327.86549
327.88107
327.90515
327.93961
327.98526
328.05176
328.12663
328.2892
328.3874
328.31297
340.74759
13801.801
752395.78
744887.15
744814.5
744832.11
744947.17
745111.78
745291.81
745483.71
745744.83
746427.37
747197.5
747957.4
748504.32
748755.54
748838.4
748865.3
748882.52
748899.74
748918.65
748939.83
748963.85
748991.35
749023.13
749060.22
749103.9
749156.06
749217.94
749334.09
749546.49
749856.23
750316.95
750991.77
751872
752652.72
752899.72
752914.65
752925.33
752938.08
752953.46
752972.27
752995.39
753024.28
753077.14
753195.39
753399.95
753785.17
754559.67
755917.36
756712.51
756726.88
756734.19
756743.71
756768.32
756814.59
756902.72
757096.78
757615.53
759145.41
760319.62
760326.86
760337.56
760355.23
760387.67
760457.09
760642.88
761349.12
763553.37
763692.4
763701.93
763715.86
763736.97
763770.21
763825.42
763919.7
764085.82
764367.8
764783
765277.9
765718.93
766094.24
766343.86
766519.87
766629.78
766691.3
766721.09
766733.85
766738.91
766740.9
766741.8
766742.3
766742.61
766742.82
766742.97
766743.06
766743.11
766743.14
766743.15
766743.15
766743.13
766743.11
766743.08
766743.05
766743.01
766742.97
766742.93
766742.9
766742.86
766742.84
766742.79
766742.85
766742.83
766742.78
455.66285
335.81988
328.34703
326.82062
326.53713
326.42807
326.35479
326.30532
326.27343
326.25433
326.24524
326.24471
326.25213
326.26758
326.29156
326.32595
326.37152
326.43797
326.51274
326.67507
326.77425
326.68998
339.03371
13162.369
576958.17
571726.22
571634.22
571641.08
571716.7
571826.67
571947.4
572076.32
572251.68
572711.17
573229.62
573741.12
574109.19
574278.2
574333.89
574351.93
574363.47
574375.01
574387.7
574401.92
574418.05
574436.54
574457.91
574482.85
574512.23
574547.32
574588.96
574667.23
574810.23
575018.77
575328.92
575783.11
576375.28
576899.95
577065.6
577075.6
577082.78
577091.34
577101.68
577114.32
577129.86
577149.28
577184.85
577264.39
577401.99
577661.1
578181.98
579094.56
579628.11
579637.73
579642.64
579649.03
579665.56
579696.65
579755.88
579886.28
580234.89
581262.65
582050.25
582055.11
582062.29
582074.15
582095.93
582142.53
582267.27
582741.45
584220.2
584313.2
584319.59
584328.93
584343.08
584365.38
584402.41
584465.64
584577.06
584766.18
585044.6
585376.42
585672.09
585923.66
586090.98
586208.95
586282.61
586323.84
586343.8
586352.36
586355.75
586357.09
586357.69
586358.02
586358.23
586358.37
586358.47
586358.53
586358.56
586358.58
586358.59
586358.58
586358.57
586358.56
586358.54
586358.51
586358.49
586358.46
586358.44
586358.41
586358.38
586358.37
586358.34
586358.38
586358.36
586358.33
454.88743
334.06475
326.53671
324.98144
324.68862
324.57672
324.5022
324.45195
324.41948
324.39995
324.39054
324.38976
324.39699
324.4123
324.43616
324.47046
324.51595
324.58234
324.65699
324.81907
324.91932
324.82447
337.05256
12491.722
444374.22
440663.84
440553.46
440552.36
440601.4
440674.84
440756.01
440842.96
440961.31
441272.45
441623.55
441969.92
442219.12
442333.49
442371.12
442383.26
442391.01
442398.77
442407.32
442416.9
442427.79
442440.27
442454.72
442471.58
442491.46
442515.21
442543.39
442596.45
442693.33
442834.61
443044.72
443352.35
443753.25
444108.09
444219.88
444226.62
444231.47
444237.25
444244.24
444252.78
444263.29
444276.43
444300.52
444354.36
444447.5
444622.9
444975.48
445592.85
445953.2
445959.67
445962.98
445967.3
445978.48
445999.5
446039.56
446127.76
446363.57
447058.56
447590.34
447593.62
447598.47
447606.48
447621.19
447652.69
447737
448057.49
449056.19
449118.82
449123.13
449129.44
449138.99
449154.05
449179.05
449221.75
449296.99
449424.68
449612.66
449836.66
450036.24
450206.02
450318.94
450398.55
450448.26
450476.08
450489.56
450495.33
450497.62
450498.52
450498.93
450499.15
450499.3
450499.39
450499.45
450499.49
450499.52
450499.53
450499.53
450499.53
450499.52
450499.51
450499.49
450499.47
450499.46
450499.44
450499.42
450499.4
450499.38
450499.37
450499.35
450499.37
450499.36
450499.33
454.00876
332.05801
324.46532
322.87661
322.57292
322.4577
322.38174
322.33056
322.29742
322.27739
322.2676
322.26654
322.27354
322.28868
322.31241
322.34661
322.39201
322.45833
322.53286
322.69469
322.79608
322.69022
334.77204
11792.117
343454.87
340773.34
340644.62
340637.19
340668.01
340716.72
340771.22
340829.91
340910
341121.57
341360.4
341596.03
341765.51
341843.23
341868.74
341876.91
341882.1
341887.31
341893.07
341899.54
341906.9
341915.36
341925.15
341936.6
341950.09
341966.23
341985.39
342021.53
342087.47
342183.65
342326.69
342536.08
342808.84
343050.02
343125.84
343130.39
343133.67
343137.59
343142.33
343148.13
343155.27
343164.2
343180.59
343217.21
343280.58
343399.92
343639.78
344059.56
344304.18
344308.55
344310.79
344313.72
344321.32
344335.6
344362.83
344422.8
344583.13
345055.53
345416.45
345418.68
345421.96
345427.4
345437.39
345458.79
345516.07
345733.82
346411.89
346454.29
346457.21
346461.49
346467.97
346478.19
346495.16
346524.15
346575.23
346661.92
346789.52
346941.55
347076.99
347192.2
347268.83
347322.85
347356.58
347375.46
347384.6
347388.52
347390.08
347390.69
347390.96
347391.12
347391.21
347391.28
347391.32
347391.34
347391.36
347391.37
347391.37
347391.36
347391.35
347391.34
347391.33
347391.32
347391.31
347391.29
347391.28
347391.26
347391.25
347391.24
347391.22
347391.24
347391.23
347391.21
453.01874
329.77377
322.10542
320.47808
320.16175
320.04266
319.96502
319.91276
319.87884
319.85823
319.848
319.8466
319.85335
319.86829
319.89187
319.92596
319.97125
320.03752
320.11191
320.27349
320.37608
320.25933
332.15715
11066.854
266201.99
264224.02
264076.3
264063.46
264081.52
264113.28
264149.59
264189.09
264243.29
264387.55
264550.52
264711.33
264826.96
264879.92
264897.21
264902.68
264906.13
264909.61
264913.47
264917.82
264922.8
264928.52
264935.16
264942.94
264952.13
264963.12
264976.18
265000.88
265045.93
265111.64
265209.39
265352.47
265538.77
265703.33
265754.95
265758.03
265760.26
265762.92
265766.14
265770.09
265774.95
265781.03
265792.22
265817.23
265860.5
265942.02
266105.85
266392.44
266559.15
266562.12
266563.64
266565.63
266570.81
266580.55
266599.13
266640.07
266749.52
267071.94
267317.91
267319.43
267321.66
267325.36
267332.17
267346.76
267385.84
267534.41
267996.72
268025.54
268027.53
268030.44
268034.85
268041.82
268053.39
268073.16
268107.99
268167.09
268254.08
268357.71
268450.03
268528.55
268580.77
268617.59
268640.58
268653.45
268659.68
268662.35
268663.41
268663.83
268664.02
268664.13
268664.19
268664.23
268664.26
268664.28
268664.29
268664.29
268664.29
268664.28
268664.27
268664.26
268664.25
268664.24
268664.23
268664.22
268664.21
268664.2
268664.18
268664.18
268664.16
268664.17
268664.17
268664.15
451.90959
327.1847
319.42791
317.75606
317.42506
317.30144
317.22184
317.16833
317.1335
317.11221
317.10147
317.09968
317.10614
317.12085
317.14426
317.17821
317.22339
317.2896
317.36385
317.52519
317.629
317.50238
329.17004
10320.286
206800.38
205309.43
205141.56
205123.71
205132.56
205152.5
205176.28
205202.6
205239.15
205337.63
205449.02
205558.99
205638.03
205674.14
205685.84
205689.46
205691.7
205693.98
205696.54
205699.44
205702.78
205706.64
205711.13
205716.41
205722.66
205730.15
205739.06
205755.97
205786.83
205831.86
205898.85
205996.9
206124.54
206237.17
206272.41
206274.49
206276
206277.8
206279.99
206282.68
206285.99
206290.14
206297.8
206314.92
206344.56
206400.41
206512.67
206708.94
206822.93
206824.94
206825.97
206827.33
206830.86
206837.53
206850.24
206878.27
206953.23
207174
207342.19
207343.21
207344.74
207347.26
207351.92
207361.9
207388.64
207490.34
207806.6
207826.25
207827.61
207829.59
207832.61
207837.38
207845.3
207858.82
207882.65
207923.09
207982.6
208053.49
208116.64
208170.35
208206.07
208231.25
208246.98
208255.78
208260.05
208261.88
208262.6
208262.89
208263.02
208263.09
208263.14
208263.16
208263.18
208263.19
208263.19
208263.19
208263.19
208263.18
208263.18
208263.17
208263.16
208263.15
208263.14
208263.13
208263.12
208263.11
208263.09
208263.09
208263.08
208263.08
208263.07
208263.05
450.67413
324.26229
316.40219
314.67913
314.33112
314.20224
314.12035
314.06538
314.0295
314.00743
313.99609
313.99386
313.99997
314.01442
314.03763
314.07144
314.1165
314.18265
314.25674
314.41788
314.52288
314.38854
325.77028
9557.7883
160962.69
159813.87
159624.35
159601.48
159603.41
159614.94
159629.93
159647.11
159671.52
159738.68
159814.83
159890.08
159944.12
159968.71
159976.56
159978.88
159980.28
159981.72
159983.36
159985.26
159987.46
159990.03
159993.05
159996.61
160000.84
160005.94
160012.01
160023.6
160044.77
160075.68
160121.69
160189.04
160276.69
160353.96
160378.06
160379.46
160380.47
160381.69
160383.17
160384.99
160387.24
160390.08
160395.32
160407.07
160427.42
160465.77
160542.87
160677.63
160755.76
160757.13
160757.82
160758.74
160761.15
160765.72
160774.44
160793.67
160845.14
160996.7
161112
161112.69
161113.73
161115.45
161118.64
161125.48
161143.83
161213.63
161430.55
161443.99
161444.91
161446.27
161448.34
161451.61
161457.04
161466.33
161482.68
161510.43
161551.27
161599.9
161643.23
161680.07
161704.58
161721.86
161732.65
161738.69
161741.62
161742.88
161743.38
161743.58
161743.67
161743.72
161743.75
161743.77
161743.78
161743.78
161743.78
161743.77
161743.77
161743.76
161743.75
161743.74
161743.73
161743.72
161743.71
161743.7
161743.69
161743.68
161743.67
161743.66
161743.65
161743.65
161743.64
161743.63
449.30622
320.97723
312.99648
311.21457
310.84688
310.71187
310.62732
310.57066
310.53355
310.51057
310.49854
310.49578
310.5015
310.51565
310.53863
310.57228
310.6172
310.6833
310.75724
310.91822
311.0243
310.88552
321.91548
8785.6632
125491.7
124588.1
124375.13
124346.94
124343.36
124348.71
124357.42
124368.15
124384.11
124429.74
124481.69
124533.1
124569.99
124586.64
124591.81
124593.21
124593.99
124594.83
124595.83
124597.01
124598.42
124600.09
124602.08
124604.45
124607.29
124610.73
124614.85
124622.78
124637.31
124658.55
124690.19
124736.53
124796.82
124849.91
124866.42
124867.35
124868.01
124868.82
124869.81
124871.03
124872.56
124874.48
124878.07
124886.14
124900.12
124926.51
124979.57
125072.27
125125.93
125126.85
125127.31
125127.92
125129.57
125132.7
125138.69
125151.91
125187.31
125291.58
125370.77
125371.24
125371.94
125373.12
125375.3
125380
125392.61
125440.61
125589.72
125598.93
125599.56
125600.49
125601.91
125604.15
125607.89
125614.28
125625.54
125644.63
125672.72
125706.18
125735.99
125761.33
125778.19
125790.08
125797.51
125801.67
125803.68
125804.55
125804.9
125805.04
125805.1
125805.13
125805.15
125805.16
125805.17
125805.16
125805.16
125805.15
125805.15
125805.14
125805.13
125805.12
125805.1
125805.09
125805.08
125805.07
125805.06
125805.05
125805.04
125805.03
125805.02
125805.01
125805
125804.98
447.80119
317.29986
309.17818
307.32872
306.93828
306.79613
306.70847
306.64985
306.61132
306.58728
306.57446
306.57109
306.57635
306.59015
306.61287
306.64635
306.69112
306.75718
306.83096
306.99187
307.09882
306.96031
317.56145
8010.9979
97980.864
97258.18
97019.791
96985.665
96977.399
96977.994
96982.06
96988.13
96998.141
97028.852
97064.082