/*--------------------------------*- C++ -*----------------------------------*\
| =========                 |                                                 |
| \\      /  F ield         | OpenFOAM: The Open Source CFD Toolbox           |
|  \\    /   O peration     | Version:  2206                                  |
|   \\  /    A nd           | Website:  www.openfoam.com                      |
|    \\/     M anipulation  |                                                 |
\*---------------------------------------------------------------------------*/
FoamFile
{
    version     2.0;
    format      ascii;
    arch        "LSB;label=32;scalar=64";
    class       volScalarField;
    location    "1700";
    object      p;
}
// * * * * * * * * * * * * * * * * * * * * * * * * * * * * * * * * * * * * * //

dimensions      [0 2 -2 0 0 0 0];

internalField   nonuniform List<scalar> 
13056
(
0.012025804
0.012130044
0.012350438
0.012631517
0.012972099
0.013372462
0.013830719
0.014346074
0.014919873
0.015555361
0.016257564
0.017033641
0.01789348
0.018851087
0.019925424
0.021145972
0.02254929
0.024212415
0.026193865
0.028792089
0.031912599
0.037399627
0.042479236
0.08051815
0.050944832
0.0023157073
0.0009810025
0.0018539998
0.0024035349
0.0028521607
0.0031274949
0.0033206529
0.0034677902
0.0035745076
0.0036501244
0.0037045465
0.0037441436
0.0037725173
0.0037921042
0.0038049246
0.0038123835
0.0038154535
0.0038149345
0.0038114873
0.0038055459
0.003797421
0.0037874162
0.0037757552
0.0037626259
0.0037481531
0.0037324304
0.0037155437
0.0036975541
0.0036785181
0.0036584787
0.0036374397
0.0036154007
0.0035923656
0.0035683271
0.0035432673
0.0035171662
0.0034899974
0.0034617045
0.0034322191
0.0034014729
0.0033693923
0.0033359034
0.0033009223
0.0032643627
0.0032261406
0.0031861537
0.0031442808
0.0031004015
0.0030544029
0.0030061647
0.002955606
0.0029026578
0.0028473338
0.0027896577
0.0027295992
0.0026673325
0.002603045
0.0025370161
0.0024699862
0.0024031009
0.0023380754
0.0022772681
0.0022247176
0.0021851882
0.002155787
0.0021584625
0.0021965941
0.0022620392
0.0023739807
0.0025370533
0.0027535188
0.0030197783
0.0033266355
0.0036704637
0.004011748
0.0042970001
0.004479289
0.0045749843
0.0045647215
0.0044633276
0.0043433478
0.0042032348
0.0040530272
0.0038998382
0.0037434899
0.003586884
0.0034285477
0.0032646495
0.0030993451
0.002934426
0.0027709085
0.0026108747
0.0024536183
0.0022974854
0.0021454843
0.001997625
0.0018522703
0.0017097077
0.0015715307
0.0014378441
0.0013071599
0.0011800391
0.0010571851
0.00094079474
0.00083056268
0.00072893704
0.00063233927
0.00056991739
0.00048281312
0.00066803943
-0.00051355133
0.012025804
0.012130044
0.012350438
0.012631517
0.0129721
0.013372462
0.013830719
0.014346075
0.014919874
0.015555362
0.016257565
0.017033641
0.017893481
0.018851088
0.019925425
0.021145973
0.022549292
0.024212417
0.026193868
0.028792093
0.031912604
0.037399637
0.042479263
0.08051336
0.050956048
0.0023228961
0.00098284305
0.0018548332
0.0024040455
0.0028525198
0.0031277663
0.0033208687
0.0034679669
0.0035746557
0.0036502507
0.003704656
0.0037442395
0.0037726021
0.0037921799
0.0038049926
0.0038124449
0.0038155093
0.0038149855
0.0038115341
0.0038055889
0.0037974607
0.003787453
0.0037757894
0.0037626577
0.0037481828
0.0037324582
0.0037155697
0.0036975785
0.003678541
0.0036585003
0.00363746
0.0036154198
0.0035923837
0.0035683442
0.0035432835
0.0035171816
0.003490012
0.0034617183
0.0034322322
0.0034014854
0.0033694041
0.0033359146
0.003300933
0.0032643728
0.0032261502
0.0031861629
0.0031442895
0.0031004097
0.0030544107
0.0030061721
0.002955613
0.0029026645
0.00284734
0.0027896636
0.0027296047
0.0026673376
0.0026030497
0.0025370205
0.0024699902
0.0024031045
0.0023380785
0.0022772708
0.0022247198
0.0021851899
0.0021557881
0.0021584629
0.0021965938
0.0022620381
0.0023739787
0.0025370504
0.0027535149
0.0030197737
0.0033266302
0.0036704577
0.0040117417
0.0042969941
0.0044792838
0.0045749799
0.0045647185
0.0044633254
0.0043433462
0.0042032337
0.0040530264
0.0038998377
0.0037434896
0.0035868839
0.0034285477
0.0032646496
0.0030993453
0.0029344263
0.0027709088
0.0026108751
0.0024536188
0.0022974858
0.0021454848
0.0019976255
0.0018522708
0.0017097082
0.0015715312
0.0014378446
0.0013071604
0.0011800396
0.0010571856
0.0009407952
0.00083056314
0.00072893751
0.00063233973
0.00056991789
0.00048281365
0.00066803999
-0.00051355098
0.012025804
0.012130044
0.012350438
0.012631517
0.0129721
0.013372462
0.013830719
0.014346075
0.014919874
0.015555362
0.016257565
0.017033642
0.017893482
0.018851089
0.019925426
0.021145975
0.022549294
0.024212419
0.026193871
0.028792098
0.031912609
0.037399648
0.042479282
0.080508528
0.05097145
0.0023298775
0.00098502585
0.0018558296
0.0024046561
0.0028529491
0.0031280909
0.0033211267
0.0034681782
0.0035748326
0.0036504017
0.0037047868
0.0037443541
0.0037727035
0.0037922704
0.0038050738
0.0038125184
0.0038155761
0.0038150464
0.00381159
0.0038056403
0.0037975082
0.003787497
0.0037758302
0.0037626957
0.0037482182
0.0037324913
0.0037156008
0.0036976077
0.0036785684
0.003658526
0.0036374843
0.0036154428
0.0035924054
0.0035683647
0.0035433029
0.0035171999
0.0034900294
0.0034617348
0.0034322479
0.0034015002
0.0033694182
0.003335928
0.0033009457
0.0032643849
0.0032261617
0.0031861738
0.0031442999
0.0031004196
0.0030544201
0.003006181
0.0029556214
0.0029026724
0.0028473475
0.0027896706
0.0027296113
0.0026673438
0.0026030554
0.0025370257
0.0024699949
0.0024031088
0.0023380823
0.002277274
0.0022247224
0.002185192
0.0021557894
0.0021584633
0.0021965934
0.0022620367
0.0023739763
0.0025370469
0.0027535104
0.0030197681
0.0033266237
0.0036704505
0.0040117342
0.004296987
0.0044792775
0.0045749747
0.0045647148
0.0044633227
0.0043433444
0.0042032325
0.0040530256
0.0038998372
0.0037434893
0.0035868838
0.0034285477
0.0032646497
0.0030993455
0.0029344266
0.0027709092
0.0026108756
0.0024536193
0.0022974864
0.0021454854
0.0019976261
0.0018522714
0.0017097088
0.0015715318
0.0014378452
0.001307161
0.0011800401
0.0010571861
0.00094079577
0.00083056369
0.00072893806
0.00063234028
0.0005699185
0.00048281429
0.00066804066
-0.00051355056
0.012025804
0.012130044
0.012350438
0.012631517
0.0129721
0.013372462
0.013830719
0.014346075
0.014919874
0.015555363
0.016257566
0.017033643
0.017893482
0.01885109
0.019925427
0.021145976
0.022549296
0.024212422
0.026193874
0.028792102
0.031912614
0.037399657
0.0424793
0.080503822
0.050988637
0.0023350341
0.00098707946
0.0018568057
0.0024052543
0.0028533698
0.003128409
0.0033213795
0.0034683853
0.003575006
0.0036505497
0.003704915
0.0037444664
0.0037728029
0.003792359
0.0038051535
0.0038125904
0.0038156415
0.0038151061
0.0038116447
0.0038056907
0.0037975547
0.0037875401
0.0037758702
0.003762733
0.003748253
0.0037325238
0.0037156312
0.0036976362
0.0036785953
0.0036585513
0.0036375081
0.0036154652
0.0035924266
0.0035683847
0.0035433219
0.0035172179
0.0034900464
0.003461751
0.0034322632
0.0034015148
0.0033694321
0.0033359412
0.0033009582
0.0032643968
0.003226173
0.0031861845
0.0031443101
0.0031004292
0.0030544292
0.0030061897
0.0029556297
0.0029026802
0.0028473548
0.0027896775
0.0027296177
0.0026673498
0.002603061
0.0025370308
0.0024699996
0.002403113
0.002338086
0.0022772772
0.002224725
0.002185194
0.0021557907
0.0021584637
0.0021965931
0.0022620354
0.002373974
0.0025370435
0.0027535059
0.0030197626
0.0033266174
0.0036704435
0.0040117269
0.00429698
0.0044792713
0.0045749698
0.0045647113
0.0044633201
0.0043433426
0.0042032312
0.0040530248
0.0038998366
0.003743489
0.0035868836
0.0034285477
0.0032646498
0.0030993458
0.0029344269
0.0027709096
0.002610876
0.0024536198
0.0022974869
0.0021454859
0.0019976267
0.001852272
0.0017097094
0.0015715324
0.0014378458
0.0013071615
0.0011800407
0.0010571867
0.00094079631
0.00083056423
0.00072893861
0.00063234082
0.00056991909
0.00048281489
0.00066804131
-0.00051355017
0.012025804
0.012130044
0.012350438
0.012631517
0.0129721
0.013372462
0.013830719
0.014346075
0.014919875
0.015555363
0.016257566
0.017033643
0.017893483
0.018851091
0.019925428
0.021145978
0.022549298
0.024212424
0.026193877
0.028792106
0.031912619
0.037399665
0.042479322
0.080498784
0.051006929
0.002340753
0.0009891564
0.001857805
0.0024058668
0.0028538006
0.0031287346
0.0033216384
0.0034685972
0.0035751836
0.0036507012
0.0037050462
0.0037445814
0.0037729046
0.0037924498
0.003805235
0.0038126641
0.0038157085
0.0038151673
0.0038117008
0.0038057423
0.0037976024
0.0037875842
0.0037759112
0.0037627711
0.0037482886
0.0037325571
0.0037156624
0.0036976655
0.0036786228
0.0036585772
0.0036375325
0.0036154882
0.0035924483
0.0035684053
0.0035433413
0.0035172363
0.0034900639
0.0034617675
0.0034322789
0.0034015297
0.0033694462
0.0033359546
0.003300971
0.0032644089
0.0032261846
0.0031861955
0.0031443205
0.0031004391
0.0030544386
0.0030061986
0.0029556381
0.0029026881
0.0028473623
0.0027896845
0.0027296243
0.0026673559
0.0026030667
0.0025370361
0.0024700044
0.0024031173
0.0023380898
0.0022772805
0.0022247277
0.0021851961
0.0021557919
0.0021584641
0.0021965927
0.0022620341
0.0023739716
0.00253704
0.0027535013
0.003019757
0.0033266109
0.0036704364
0.0040117194
0.0042969728
0.004479265
0.0045749649
0.0045647076
0.0044633174
0.0043433408
0.00420323
0.0040530239
0.0038998361
0.0037434886
0.0035868835
0.0034285477
0.0032646499
0.003099346
0.0029344272
0.00277091
0.0026108765
0.0024536203
0.0022974875
0.0021454865
0.0019976273
0.0018522726
0.00170971
0.0015715329
0.0014378464
0.0013071621
0.0011800413
0.0010571873
0.00094079688
0.00083056479
0.00072893916
0.00063234137
0.00056991969
0.00048281549
0.00066804198
-0.00051354978
0.012025804
0.012130044
0.012350438
0.012631517
0.0129721
0.013372462
0.01383072
0.014346076
0.014919875
0.015555363
0.016257567
0.017033644
0.017893484
0.018851092
0.01992543
0.021145979
0.0225493
0.024212427
0.02619388
0.02879211
0.031912625
0.037399672
0.042479347
0.08049319
0.051026
0.0023478848
0.00099136506
0.0018588664
0.0024065174
0.0028542582
0.0031290806
0.0033219133
0.0034688224
0.0035753722
0.0036508622
0.0037051856
0.0037447036
0.0037730127
0.0037925462
0.0038053216
0.0038127423
0.0038157796
0.0038152322
0.0038117603
0.0038057971
0.003797653
0.003787631
0.0037759547
0.0037628116
0.0037483264
0.0037325924
0.0037156955
0.0036976965
0.003678652
0.0036586047
0.0036375584
0.0036155127
0.0035924714
0.0035684271
0.003543362
0.0035172559
0.0034900824
0.0034617851
0.0034322956
0.0034015456
0.0033694613
0.0033359689
0.0033009846
0.0032644218
0.0032261968
0.0031862072
0.0031443316
0.0031004496
0.0030544486
0.003006208
0.002955647
0.0029026965
0.0028473703
0.002789692
0.0027296313
0.0026673625
0.0026030727
0.0025370416
0.0024700095
0.0024031218
0.0023380938
0.0022772839
0.0022247305
0.0021851983
0.0021557933
0.0021584646
0.0021965924
0.0022620326
0.0023739691
0.0025370364
0.0027534965
0.0030197511
0.0033266041
0.0036704288
0.0040117115
0.0042969652
0.0044792583
0.0045749596
0.0045647037
0.0044633145
0.0043433388
0.0042032286
0.004053023
0.0038998355
0.0037434883
0.0035868833
0.0034285477
0.0032646501
0.0030993462
0.0029344276
0.0027709104
0.002610877
0.0024536209
0.0022974881
0.0021454871
0.0019976279
0.0018522732
0.0017097106
0.0015715336
0.001437847
0.0013071627
0.0011800419
0.0010571879
0.00094079747
0.00083056538
0.00072893975
0.00063234196
0.00056992033
0.00048281614
0.00066804268
-0.00051354936
0.012025804
0.012130044
0.012350438
0.012631517
0.0129721
0.013372462
0.01383072
0.014346076
0.014919875
0.015555364
0.016257567
0.017033645
0.017893485
0.018851093
0.019925431
0.021145981
0.022549302
0.02421243
0.026193883
0.028792115
0.03191263
0.037399679
0.042479377
0.080486931
0.051046073
0.0023557689
0.00099374497
0.0018600086
0.0024072178
0.0028547507
0.0031294529
0.0033222093
0.0034690648
0.0035755751
0.0036510354
0.0037053356
0.003744835
0.003773129
0.0037926499
0.0038054148
0.0038128266
0.0038158562
0.0038153021
0.0038118244
0.0038058561
0.0037977074
0.0037876815
0.0037760015
0.0037628552
0.0037483671
0.0037326305
0.0037157311
0.00369773
0.0036786834
0.0036586342
0.0036375863
0.003615539
0.0035924962
0.0035684506
0.0035433842
0.0035172769
0.0034901024
0.003461804
0.0034323135
0.0034015626
0.0033694774
0.0033359843
0.0033009992
0.0032644357
0.00322621
0.0031862197
0.0031443435
0.0031004609
0.0030544593
0.0030062182
0.0029556566
0.0029027056
0.0028473789
0.0027897
0.0027296389
0.0026673695
0.0026030792
0.0025370476
0.0024700149
0.0024031267
0.0023380982
0.0022772876
0.0022247335
0.0021852007
0.0021557947
0.002158465
0.0021965919
0.0022620311
0.0023739664
0.0025370324
0.0027534912
0.0030197447
0.0033265967
0.0036704206
0.0040117029
0.0042969571
0.004479251
0.0045749539
0.0045646995
0.0044633114
0.0043433367
0.0042032272
0.004053022
0.0038998348
0.0037434879
0.0035868831
0.0034285477
0.0032646502
0.0030993465
0.0029344279
0.0027709109
0.0026108775
0.0024536215
0.0022974887
0.0021454878
0.0019976286
0.0018522739
0.0017097113
0.0015715343
0.0014378477
0.0013071634
0.0011800425
0.0010571885
0.00094079812
0.00083056601
0.00072894039
0.00063234259
0.00056992102
0.00048281683
0.00066804345
-0.00051354891
0.012025804
0.012130044
0.012350438
0.012631517
0.0129721
0.013372463
0.01383072
0.014346076
0.014919876
0.015555364
0.016257568
0.017033645
0.017893486
0.018851095
0.019925433
0.021145983
0.022549304
0.024212433
0.026193887
0.02879212
0.031912637
0.037399686
0.042479414
0.080479873
0.051067421
0.0023642353
0.00099632532
0.0018612471
0.0024079774
0.0028552849
0.0031298567
0.0033225302
0.0034693276
0.0035757953
0.0036512232
0.0037054983
0.0037449776
0.0037732551
0.0037927624
0.0038055159
0.0038129179
0.0038159392
0.003815378
0.0038118939
0.00380592
0.0037977665
0.0037877362
0.0037760523
0.0037629025
0.0037484112
0.0037326717
0.0037157697
0.0036977662
0.0036787175
0.0036586663
0.0036376165
0.0036155675
0.0035925232
0.003568476
0.0035434083
0.0035172998
0.003490124
0.0034618245
0.003432333
0.0034015811
0.003369495
0.003336001
0.003301015
0.0032644508
0.0032262243
0.0031862333
0.0031443564
0.0031004732
0.0030544709
0.0030062292
0.002955667
0.0029027155
0.0028473881
0.0027897088
0.0027296471
0.0026673771
0.0026030863
0.0025370541
0.0024700208
0.0024031321
0.0023381029
0.0022772917
0.0022247368
0.0021852032
0.0021557963
0.0021584656
0.0021965915
0.0022620294
0.0023739635
0.0025370281
0.0027534855
0.0030197378
0.0033265887
0.0036704117
0.0040116936
0.0042969482
0.0044792432
0.0045749478
0.004564695
0.0044633081
0.0043433344
0.0042032256
0.0040530209
0.0038998342
0.0037434875
0.003586883
0.0034285477
0.0032646503
0.0030993468
0.0029344283
0.0027709114
0.0026108781
0.0024536221
0.0022974894
0.0021454885
0.0019976293
0.0018522746
0.0017097121
0.001571535
0.0014378484
0.0013071641
0.0011800432
0.0010571892
0.00094079881
0.0008305667
0.00072894108
0.00063234327
0.00056992177
0.00048281758
0.00066804427
-0.00051354841
0.012025804
0.012130044
0.012350439
0.012631517
0.012972101
0.013372463
0.01383072
0.014346077
0.014919876
0.015555365
0.016257569
0.017033646
0.017893487
0.018851096
0.019925435
0.021145985
0.022549307
0.024212436
0.026193891
0.028792125
0.031912644
0.037399692
0.042479457
0.080471844
0.051090271
0.0023734159
0.0009991422
0.0018625996
0.002408807
0.0028558683
0.0031302978
0.0033228807
0.0034696147
0.0035760357
0.0036514284
0.003705676
0.0037451333
0.0037733929
0.0037928853
0.0038056263
0.0038130177
0.0038160299
0.0038154607
0.0038119698
0.0038059899
0.003797831
0.0037877959
0.0037761078
0.0037629541
0.0037484594
0.0037327168
0.0037158119
0.0036978058
0.0036787547
0.0036587013
0.0036376495
0.0036155986
0.0035925526
0.0035685038
0.0035434346
0.0035173247
0.0034901476
0.003461847
0.0034323543
0.0034016013
0.0033695142
0.0033360192
0.0033010323
0.0032644673
0.00322624
0.0031862482
0.0031443705
0.0031004866
0.0030544836
0.0030062412
0.0029556784
0.0029027263
0.0028473983
0.0027897183
0.002729656
0.0026673854
0.002603094
0.0025370612
0.0024700273
0.0024031379
0.002338108
0.0022772961
0.0022247404
0.002185206
0.002155798
0.0021584661
0.002196591
0.0022620276
0.0023739603
0.0025370234
0.0027534793
0.0030197302
0.0033265799
0.003670402
0.0040116835
0.0042969385
0.0044792347
0.004574941
0.0045646901
0.0044633045
0.0043433319
0.0042032239
0.0040530198
0.0038998334
0.0037434871
0.0035868827
0.0034285477
0.0032646505
0.0030993471
0.0029344288
0.0027709119
0.0026108787
0.0024536228
0.0022974901
0.0021454893
0.0019976301
0.0018522754
0.0017097129
0.0015715358
0.0014378492
0.0013071649
0.001180044
0.00105719
0.00094079957
0.00083056745
0.00072894183
0.00063234402
0.00056992259
0.0004828184
0.00066804518
-0.00051354788
0.012025804
0.012130044
0.012350439
0.012631518
0.012972101
0.013372463
0.013830721
0.014346077
0.014919877
0.015555366
0.01625757
0.017033648
0.017893488
0.018851098
0.019925437
0.021145988
0.02254931
0.02421244
0.026193896
0.028792131
0.031912652
0.037399698
0.042479509
0.080462636
0.051114832
0.0023834727
0.0010022374
0.0018640862
0.0024097191
0.0028565098
0.0031307827
0.0033232661
0.0034699303
0.0035763
0.003651654
0.0037058714
0.0037453045
0.0037735443
0.0037930204
0.0038057477
0.0038131274
0.0038161296
0.0038155518
0.0038120532
0.0038060667
0.0037979019
0.0037878616
0.0037761688
0.0037630109
0.0037485123
0.0037327663
0.0037158583
0.0036978494
0.0036787956
0.0036587398
0.0036376858
0.0036156329
0.0035925849
0.0035685344
0.0035434636
0.0035173521
0.0034901736
0.0034618716
0.0034323776
0.0034016235
0.0033695353
0.0033360392
0.0033010514
0.0032644853
0.0032262572
0.0031862645
0.003144386
0.0031005013
0.0030544976
0.0030062544
0.002955691
0.0029027381
0.0028474094
0.0027897288
0.0027296658
0.0026673946
0.0026031025
0.002537069
0.0024700344
0.0024031443
0.0023381137
0.0022773009
0.0022247443
0.0021852091
0.0021557999
0.0021584667
0.0021965905
0.0022620256
0.0023739567
0.0025370182
0.0027534725
0.0030197219
0.0033265703
0.0036703913
0.0040116724
0.0042969279
0.0044792253
0.0045749337
0.0045646846
0.0044633005
0.0043433292
0.004203222
0.0040530185
0.0038998326
0.0037434866
0.0035868825
0.0034285477
0.0032646507
0.0030993474
0.0029344292
0.0027709125
0.0026108794
0.0024536236
0.0022974909
0.0021454901
0.001997631
0.0018522763
0.0017097138
0.0015715367
0.0014378501
0.0013071658
0.0011800449
0.0010571909
0.00094080041
0.00083056827
0.00072894266
0.00063234484
0.00056992349
0.00048281931
0.00066804617
-0.00051354729
0.012025804
0.012130044
0.012350439
0.012631518
0.012972101
0.013372464
0.013830721
0.014346078
0.014919878
0.015555367
0.016257571
0.017033649
0.01789349
0.0188511
0.019925439
0.021145991
0.022549314
0.024212445
0.026193901
0.028792137
0.031912661
0.037399703
0.042479571
0.080451998
0.051141302
0.0023945568
0.0010056569
0.0018657291
0.0024107273
0.0028572189
0.0031313188
0.0033236921
0.0034702792
0.0035765922
0.0036519033
0.0037060873
0.0037454937
0.0037737117
0.0037931697
0.0038058818
0.0038132486
0.0038162398
0.0038156523
0.0038121454
0.0038061515
0.0037979802
0.0037879341
0.0037762362
0.0037630737
0.0037485709
0.003732821
0.0037159096
0.0036978975
0.0036788408
0.0036587824
0.0036377259
0.0036156707
0.0035926207
0.0035685682
0.0035434955
0.0035173824
0.0034902023
0.0034618988
0.0034324035
0.003401648
0.0033695586
0.0033360614
0.0033010724
0.0032645053
0.0032262761
0.0031862825
0.0031444031
0.0031005176
0.003054513
0.0030062691
0.0029557048
0.0029027512
0.0028474218
0.0027897404
0.0027296767
0.0026674047
0.0026031119
0.0025370776
0.0024700423
0.0024031513
0.0023381199
0.0022773063
0.0022247487
0.0021852125
0.0021558019
0.0021584674
0.0021965899
0.0022620233
0.0023739528
0.0025370125
0.002753465
0.0030197127
0.0033265597
0.0036703795
0.0040116601
0.0042969161
0.0044792149
0.0045749255
0.0045646786
0.004463296
0.0043433262
0.0042032199
0.0040530171
0.0038998317
0.0037434861
0.0035868823
0.0034285476
0.0032646508
0.0030993478
0.0029344298
0.0027709132
0.0026108802
0.0024536244
0.0022974919
0.0021454911
0.001997632
0.0018522773
0.0017097148
0.0015715377
0.0014378511
0.0013071668
0.0011800458
0.0010571918
0.00094080134
0.00083056918
0.00072894358
0.00063234575
0.00056992448
0.0004828203
0.00066804727
-0.00051354663
0.012025804
0.012130044
0.012350439
0.012631518
0.012972101
0.013372464
0.013830722
0.014346078
0.014919878
0.015555368
0.016257572
0.01703365
0.017893492
0.018851102
0.019925442
0.021145994
0.022549318
0.02421245
0.026193907
0.028792144
0.03191267
0.037399705
0.042479646
0.080439635
0.051169866
0.0024068266
0.0010094513
0.0018675527
0.0024118468
0.0028580061
0.0031319139
0.003324165
0.0034706665
0.0035769165
0.0036521801
0.003706327
0.0037457038
0.0037738975
0.0037933355
0.0038060307
0.0038133832
0.0038163621
0.003815764
0.0038122478
0.0038062457
0.0037980672
0.0037880147
0.003776311
0.0037631433
0.0037486359
0.0037328818
0.0037159665
0.0036979509
0.003678891
0.0036588296
0.0036377704
0.0036157127
0.0035926603
0.0035686057
0.003543531
0.003517416
0.0034902342
0.003461929
0.0034324322
0.0034016752
0.0033695844
0.0033360859
0.0033010957
0.0032645275
0.0032262972
0.0031863026
0.0031444222
0.0031005356
0.0030545301
0.0030062853
0.0029557202
0.0029027657
0.0028474355
0.0027897532
0.0027296887
0.0026674159
0.0026031223
0.0025370872
0.002470051
0.0024031592
0.0023381268
0.0022773122
0.0022247535
0.0021852163
0.0021558042
0.0021584682
0.0021965892
0.0022620209
0.0023739485
0.0025370062
0.0027534566
0.0030197024
0.0033265479
0.0036703665
0.0040116464
0.0042969031
0.0044792034
0.0045749164
0.004564672
0.0044632911
0.0043433228
0.0042032176
0.0040530155
0.0038998307
0.0037434855
0.003586882
0.0034285476
0.0032646511
0.0030993482
0.0029344304
0.0027709139
0.0026108811
0.0024536253
0.0022974929
0.0021454921
0.001997633
0.0018522784
0.0017097159
0.0015715388
0.0014378521
0.0013071678
0.0011800469
0.0010571928
0.00094080236
0.00083057019
0.0007289446
0.00063234675
0.00056992558
0.00048282141
0.00066804849
-0.00051354591
0.012025804
0.012130045
0.012350439
0.012631518
0.012972102
0.013372465
0.013830722
0.014346079
0.014919879
0.015555369
0.016257573
0.017033652
0.017893494
0.018851105
0.019925445
0.021145998
0.022549323
0.024212456
0.026193914
0.028792151
0.03191268
0.037399705
0.042479735
0.080425187
0.051200683
0.0024204597
0.0010136766
0.0018695841
0.0024130941
0.0028588834
0.0031325771
0.003324692
0.003471098
0.0035772779
0.0036524884
0.0037065941
0.0037459378
0.0037741046
0.0037935202
0.0038061966
0.0038135332
0.0038164983
0.0038158884
0.0038123618
0.0038063507
0.0037981641
0.0037881045
0.0037763943
0.0037632209
0.0037487083
0.0037329495
0.0037160299
0.0036980104
0.0036789469
0.0036588822
0.00363782
0.0036157595
0.0035927045
0.0035686475
0.0035435706
0.0035174535
0.0034902697
0.0034619627
0.0034324641
0.0034017056
0.0033696132
0.0033361133
0.0033011218
0.0032645522
0.0032263207
0.0031863249
0.0031444434
0.0031005557
0.0030545492
0.0030063034
0.0029557373
0.0029027819
0.0028474507
0.0027897676
0.0027297021
0.0026674284
0.0026031339
0.0025370979
0.0024700607
0.0024031679
0.0023381345
0.0022773189
0.0022247589
0.0021852205
0.0021558068
0.002158469
0.0021965884
0.0022620181
0.0023739436
0.0025369991
0.0027534473
0.003019691
0.0033265347
0.0036703519
0.0040116312
0.0042968885
0.0044791905
0.0045749063
0.0045646645
0.0044632857
0.0043433191
0.004203215
0.0040530138
0.0038998295
0.0037434848
0.0035868817
0.0034285476
0.0032646513
0.0030993486
0.002934431
0.0027709148
0.002610882
0.0024536264
0.002297494
0.0021454933
0.0019976342
0.0018522796
0.0017097171
0.00157154
0.0014378533
0.001307169
0.0011800481
0.001057194
0.0009408035
0.00083057132
0.00072894573
0.00063234788
0.00056992681
0.00048282264
0.00066804984
-0.0005135451
0.012025804
0.012130045
0.012350439
0.012631519
0.012972102
0.013372465
0.013830723
0.01434608
0.01491988
0.01555537
0.016257575
0.017033654
0.017893497
0.018851108
0.019925449
0.021146003
0.022549328
0.024212462
0.026193921
0.028792159
0.031912691
0.0373997
0.042479842
0.080408225
0.051233878
0.002435657
0.001018395
0.0018718535
0.0024144881
0.0028598638
0.0031333182
0.0033252808
0.0034715802
0.0035776818
0.003652833
0.0037068926
0.0037461993
0.0037743359
0.0037937265
0.003806382
0.0038137007
0.0038166506
0.0038160274
0.0038124893
0.003806468
0.0037982724
0.0037882047
0.0037764875
0.0037633076
0.0037487892
0.0037330251
0.0037161008
0.0036980769
0.0036790094
0.003658941
0.0036378754
0.0036158118
0.0035927539
0.0035686942
0.0035436148
0.0035174953
0.0034903094
0.0034620003
0.0034324998
0.0034017395
0.0033696454
0.0033361439
0.0033011508
0.0032645799
0.003226347
0.0031863498
0.0031444671
0.0031005782
0.0030545705
0.0030063236
0.0029557564
0.0029027999
0.0028474677
0.0027897836
0.0027297171
0.0026674424
0.0026031468
0.0025371098
0.0024700716
0.0024031777
0.0023381432
0.0022773262
0.0022247649
0.0021852252
0.0021558096
0.00215847
0.0021965876
0.002262015
0.0023739382
0.0025369912
0.0027534369
0.0030196783
0.00332652
0.0036703356
0.0040116142
0.0042968723
0.0044791762
0.004574895
0.0045646562
0.0044632796
0.0043433149
0.0042032121
0.0040530118
0.0038998283
0.003743484
0.0035868813
0.0034285476
0.0032646516
0.0030993491
0.0029344317
0.0027709157
0.0026108831
0.0024536276
0.0022974952
0.0021454946
0.0019976356
0.001852281
0.0017097185
0.0015715414
0.0014378547
0.0013071703
0.0011800494
0.0010571953
0.00094080478
0.00083057258
0.00072894699
0.00063234913
0.00056992818
0.00048282402
0.00066805136
-0.0005135442
0.012025804
0.012130045
0.01235044
0.012631519
0.012972103
0.013372466
0.013830724
0.014346081
0.014919882
0.015555372
0.016257577
0.017033656
0.017893499
0.018851111
0.019925453
0.021146008
0.022549334
0.024212469
0.026193929
0.028792167
0.031912703
0.037399689
0.042479969
0.080388232
0.051269525
0.0024526469
0.0010236762
0.0018743947
0.0024160496
0.002860962
0.0031341484
0.0033259404
0.0034721203
0.0035781341
0.003653219
0.0037072268
0.0037464922
0.003774595
0.0037939576
0.0038065896
0.0038138884
0.0038168211
0.0038161831
0.003812632
0.0038065993
0.0037983937
0.0037883171
0.0037765918
0.0037634047
0.0037488798
0.0037331098
0.0037161801
0.0036981513
0.0036790794
0.0036590069
0.0036379375
0.0036158703
0.0035928092
0.0035687465
0.0035436643
0.0035175422
0.0034903538
0.0034620425
0.0034325398
0.0034017774
0.0033696815
0.0033361782
0.0033011834
0.0032646108
0.0032263764
0.0031863777
0.0031444936
0.0031006034
0.0030545944
0.0030063462
0.0029557778
0.0029028202
0.0028474868
0.0027898015
0.0027297339
0.0026674581
0.0026031613
0.0025371232
0.0024700838
0.0024031886
0.0023381528
0.0022773345
0.0022247716
0.0021852305
0.0021558128
0.002158471
0.0021965867
0.0022620116
0.0023739322
0.0025369823
0.0027534252
0.0030196641
0.0033265036
0.0036703174
0.0040115951
0.0042968541
0.0044791601
0.0045748824
0.0045646469
0.0044632727
0.0043433102
0.0042032089
0.0040530096
0.0038998268
0.0037434832
0.003586881
0.0034285476
0.0032646519
0.0030993497
0.0029344325
0.0027709167
0.0026108843
0.0024536289
0.0022974967
0.0021454961
0.0019976371
0.0018522825
0.00170972
0.0015715429
0.0014378562
0.0013071718
0.0011800508
0.0010571967
0.00094080621
0.00083057399
0.00072894841
0.00063235053
0.00056992971
0.00048282556
0.00066805305
-0.00051354319
0.012025804
0.012130045
0.01235044
0.01263152
0.012972103
0.013372466
0.013830725
0.014346082
0.014919883
0.015555373
0.016257579
0.017033659
0.017893503
0.018851115
0.019925458
0.021146014
0.022549341
0.024212477
0.026193937
0.028792174
0.031912714
0.037399668
0.042480121
0.080364584
0.051307632
0.002471691
0.0010295979
0.0018772453
0.0024178019
0.0028621944
0.00313508
0.0033266805
0.0034727264
0.0035786416
0.0036536521
0.0037076019
0.0037468208
0.0037748857
0.003794217
0.0038068225
0.0038140989
0.0038170125
0.0038163578
0.0038127921
0.0038067467
0.0037985298
0.0037884431
0.0037767088
0.0037635137
0.0037489814
0.0037332049
0.0037162692
0.0036982349
0.0036791579
0.0036590808
0.0036380071
0.003615936
0.0035928713
0.0035688052
0.0035437198
0.0035175948
0.0034904036
0.0034620898
0.0034325847
0.00340182
0.0033697219
0.0033362166
0.0033012199
0.0032646455
0.0032264094
0.0031864091
0.0031445233
0.0031006317
0.0030546212
0.0030063716
0.0029558019
0.0029028429
0.0028475082
0.0027898217
0.0027297528
0.0026674756
0.0026031776
0.0025371381
0.0024700974
0.0024032009
0.0023381636
0.0022773438
0.0022247792
0.0021852364
0.0021558164
0.0021584722
0.0021965856
0.0022620077
0.0023739254
0.0025369724
0.0027534121
0.0030196481
0.0033264851
0.0036702969
0.0040115738
0.0042968337
0.0044791421
0.0045748682
0.0045646365
0.0044632651
0.004343305
0.0042032052
0.0040530072
0.0038998253
0.0037434823
0.0035868805
0.0034285475
0.0032646522
0.0030993504
0.0029344335
0.0027709178
0.0026108856
0.0024536304
0.0022974982
0.0021454977
0.0019976388
0.0018522842
0.0017097217
0.0015715446
0.0014378579
0.0013071735
0.0011800525
0.0010571984
0.00094080782
0.00083057557
0.00072895
0.00063235211
0.00056993143
0.00048282729
0.00066805496
-0.00051354205
0.012025804
0.012130045
0.01235044
0.01263152
0.012972104
0.013372467
0.013830726
0.014346083
0.014919885
0.015555375
0.016257581
0.017033662
0.017893506
0.018851119
0.019925463
0.02114602
0.022549348
0.024212485
0.026193945
0.02879218
0.031912726
0.037399634
0.042480303
0.080336533
0.051348107
0.0024930925
0.0010362475
0.0018804477
0.0024197713
0.0028635795
0.003136127
0.0033275123
0.0034734075
0.003579212
0.0036541387
0.0037080233
0.00374719
0.0037752124
0.0037945083
0.0038070843
0.0038143355
0.0038172275
0.0038165541
0.0038129721
0.0038069123
0.0037986827
0.0037885847
0.0037768403
0.0037636361
0.0037490956
0.0037333117
0.0037163692
0.0036983287
0.0036792461
0.0036591638
0.0036380853
0.0036160099
0.003592941
0.0035688711
0.0035437822
0.0035176539
0.0034904597
0.0034621429
0.0034326351
0.0034018679
0.0033697674
0.0033362598
0.0033012609
0.0032646845
0.0032264464
0.0031864443
0.0031445568
0.0031006634
0.0030546513
0.0030064002
0.0029558289
0.0029028684
0.0028475323
0.0027898443
0.0027297739
0.0026674954
0.0026031959
0.002537155
0.0024701127
0.0024032147
0.0023381758
0.0022773543
0.0022247877
0.002185243
0.0021558205
0.0021584735
0.0021965844
0.0022620033
0.0023739177
0.0025369612
0.0027533973
0.0030196301
0.0033264643
0.0036702739
0.0040115498
0.0042968108
0.0044791219
0.0045748523
0.0045646248