/*--------------------------------*- C++ -*----------------------------------*\
| =========                 |                                                 |
| \\      /  F ield         | OpenFOAM: The Open Source CFD Toolbox           |
|  \\    /   O peration     | Version:  2206                                  |
|   \\  /    A nd           | Website:  www.openfoam.com                      |
|    \\/     M anipulation  |                                                 |
\*---------------------------------------------------------------------------*/
FoamFile
{
    version     2.0;
    format      ascii;
    arch        "LSB;label=32;scalar=64";
    class       surfaceScalarField;
    location    "1700";
    object      phi;
}
// * * * * * * * * * * * * * * * * * * * * * * * * * * * * * * * * * * * * * //

dimensions      [0 3 -1 0 0 0 0];

oriented        oriented;

internalField   nonuniform List<scalar> 
25880
(
2.0045821e-06
7.2025756e-11
2.0043902e-06
1.9188663e-10
2.0041271e-06
2.6314063e-10
2.0038232e-06
3.0385411e-10
2.0034752e-06
3.4805691e-10
2.0030779e-06
3.9725409e-10
2.002627e-06
4.509066e-10
2.0021164e-06
5.106613e-10
2.0015376e-06
5.7872934e-10
2.0008803e-06
6.5737156e-10
2.000131e-06
7.4922041e-10
1.9992729e-06
8.5809298e-10
1.9982841e-06
9.8884226e-10
1.9971335e-06
1.1506553e-09
1.995782e-06
1.3514908e-09
1.9941593e-06
1.6226355e-09
1.9921996e-06
1.9597443e-09
1.9896745e-06
2.5250777e-09
1.9865588e-06
3.1156718e-09
1.9817845e-06
4.7743713e-09
1.9759177e-06
5.8667426e-09
1.9619006e-06
1.4017164e-08
1.9519004e-06
1.0000108e-08
9.7970389e-07
9.7219655e-07
4.3243894e-09
9.753795e-07
2.0946607e-09
2.2297287e-09
1.5869175e-09
5.0774325e-10
1.3414823e-09
2.4543519e-10
1.1897884e-09
1.5169387e-10
1.082143e-09
1.076454e-10
9.9999943e-10
8.2143611e-11
9.3407462e-10
6.592481e-11
8.7954818e-10
5.452644e-11
8.3341788e-10
4.6130306e-11
7.9363876e-10
3.9779112e-11
7.5881419e-10
3.4824574e-11
7.2796313e-10
3.0851065e-11
7.0036124e-10
2.7601881e-11
6.7545498e-10
2.4906266e-11
6.5281547e-10
2.2639511e-11
6.3210539e-10
2.0710075e-11
6.1304939e-10
1.9056007e-11
5.954303e-10
1.7619085e-11
5.7906921e-10
1.6361093e-11
5.6381119e-10
1.5258024e-11
5.4953106e-10
1.4280127e-11
5.3612151e-10
1.3409554e-11
5.2349113e-10
1.2630374e-11
5.1156161e-10
1.192952e-11
5.0026514e-10
1.1296469e-11
4.8954255e-10
1.0722595e-11
4.7934209e-10
1.0200458e-11
4.6961832e-10
9.7237684e-12
4.6033126e-10
9.2870647e-12
4.5144565e-10
8.8856025e-12
4.4293007e-10
8.5155892e-12
4.3475625e-10
8.1738189e-12
4.2689894e-10
7.8573083e-12
4.193355e-10
7.5634383e-12
4.1204553e-10
7.2899741e-12
4.0501071e-10
7.0348125e-12
3.9821473e-10
6.795983e-12
3.916428e-10
6.5719313e-12
3.8528133e-10
6.3614662e-12
3.7911796e-10
6.163372e-12
3.7314162e-10
5.9763443e-12
3.6734242e-10
5.7991948e-12
3.617115e-10
5.6309187e-12
3.5624098e-10
5.4705201e-12
3.5092414e-10
5.3168468e-12
3.4575533e-10
5.1688019e-12
3.4072985e-10
5.02548e-12
3.3584391e-10
4.8859417e-12
3.3109468e-10
4.749231e-12
3.2648029e-10
4.6143956e-12
3.2199996e-10
4.4803291e-12
3.1765445e-10
4.345507e-12
3.1344709e-10
4.2073633e-12
3.0938358e-10
4.0635103e-12
3.0547125e-10
3.9123218e-12
3.017195e-10
3.7517508e-12
2.9813987e-10
3.5796283e-12
2.9474653e-10
3.3933455e-12
2.9155824e-10
3.1882934e-12
2.8860055e-10
2.9576866e-12
2.8590532e-10
2.695227e-12
2.8351429e-10
2.3910347e-12
2.8150431e-10
2.0099747e-12
2.7987348e-10
1.6308354e-12
2.7884621e-10
1.0272598e-12
2.7849115e-10
3.5506017e-13
2.7880225e-10
-3.1109791e-13
2.8002396e-10
-1.2217116e-12
2.8225468e-10
-2.2307206e-12
2.8565323e-10
-3.3985458e-12
2.9032529e-10
-4.6720643e-12
2.9627288e-10
-5.9475929e-12
3.0344572e-10
-7.1728342e-12
3.1175643e-10
-8.31071e-12
3.2084137e-10
-9.0849423e-12
3.2993272e-10
-9.091347e-12
3.3835154e-10
-8.418818e-12
3.4530233e-10
-6.9507929e-12
3.5067548e-10
-5.3731485e-12
3.5483883e-10
-4.1633511e-12
3.578396e-10
-3.000772e-12
3.6002862e-10
-2.1890181e-12
3.6159384e-10
-1.5652181e-12
3.6266687e-10
-1.0730311e-12
3.6333757e-10
-6.7069917e-13
3.636683e-10
-3.307271e-13
3.6368861e-10
-2.030793e-14
3.6339872e-10
2.8989358e-13
3.6282142e-10
5.7729511e-13
3.6199895e-10
8.2246785e-13
3.6096541e-10
1.0335384e-12
3.5976603e-10
1.1993853e-12
3.5844237e-10
1.3236601e-12
3.5702411e-10
1.4182568e-12
3.5554251e-10
1.4816003e-12
3.5402711e-10
1.5154057e-12
3.524944e-10
1.5327057e-12
3.5095422e-10
1.5401833e-12
3.4941934e-10
1.5348781e-12
3.4790131e-10
1.5180251e-12
3.4640388e-10
1.4974316e-12
3.449254e-10
1.4784858e-12
3.4346489e-10
1.460503e-12
3.4202292e-10
1.4419735e-12
3.4060238e-10
1.4205387e-12
3.3917376e-10
1.4286221e-12
3.377579e-10
1.415864e-12
3.3620739e-10
1.5505075e-12
3.346493e-10
1.5580862e-12
3.3294208e-10
1.707221e-12
1.0229334e-12
2.0344549e-06
1.4517776e-10
2.03426e-06
3.8680884e-10
2.0339926e-06
5.3048249e-10
2.0336839e-06
6.1257436e-10
2.0333303e-06
7.0168822e-10
2.0329267e-06
8.0086669e-10
2.0324686e-06
9.090244e-10
2.0319497e-06
1.0294805e-09
2.0313618e-06
1.1666917e-09
2.0306939e-06
1.3252151e-09
2.0299328e-06
1.5103563e-09
2.0290611e-06
1.7298087e-09
2.0280566e-06
1.993353e-09
2.0268877e-06
2.3195055e-09
2.0255149e-06
2.7243048e-09
2.0238667e-06
3.2708097e-09
2.0218762e-06
3.9502536e-09
2.0193116e-06
5.089669e-09
2.0161473e-06
6.2799705e-09
2.0112988e-06
9.622885e-09
2.0053411e-06
1.1824439e-08
1.9911071e-06
2.8251194e-08
1.9809459e-06
2.016133e-08
1.00057e-06
1.9525724e-06
1.3194568e-08
1.9627549e-06
6.4090809e-09
9.0152154e-09
4.8557743e-09
2.0610499e-09
4.1047843e-09
9.9642525e-10
3.6406076e-09
6.158705e-10
3.311211e-09
4.37042e-10
3.0598537e-09
3.3350096e-10
2.8581284e-09
2.6765011e-10
2.6912816e-09
2.2137324e-10
2.5501267e-09
1.8728517e-10
2.4284066e-09
1.6149918e-10
2.3218475e-09
1.4138375e-10
2.227447e-09
1.2525149e-10
2.1429889e-09
1.1206002e-10
2.0667791e-09
1.0111602e-10
1.9975055e-09
9.1913204e-11
1.9341356e-09
8.4079927e-11
1.8758271e-09
7.7364527e-11
1.8219154e-09
7.1530775e-11
1.7718529e-09
6.6423553e-11
1.7251658e-09
6.1945207e-11
1.6814708e-09
5.7975076e-11
1.6404397e-09
5.4440668e-11
1.6017928e-09
5.1277304e-11
1.5652903e-09
4.8431941e-11
1.530725e-09
4.5861847e-11
1.4979155e-09
4.3532007e-11
1.4667038e-09
4.1412206e-11
1.4369506e-09
3.947692e-11
1.4085337e-09
3.7703971e-11
1.3813452e-09
3.6074099e-11
1.3552889e-09
3.4571905e-11
1.3302784e-09
3.3184372e-11
1.3062363e-09
3.1899391e-11
1.2830934e-09
3.0706327e-11
1.2607873e-09
2.9596108e-11
1.2392619e-09
2.8560194e-11
1.2184673e-09
2.7590589e-11
1.1983582e-09
2.6680979e-11
1.1788932e-09
2.5826528e-11
1.1600342e-09
2.5022302e-11
1.1417476e-09
2.4263003e-11
1.124003e-09
2.3543808e-11
1.1067733e-09
2.2860638e-11
1.0900343e-09
2.2209448e-11
1.0737656e-09
2.1585563e-11
1.0579499e-09
2.098453e-11
1.0425727e-09
2.040267e-11
1.0276225e-09
1.9836171e-11
1.0130905e-09
1.928115e-11
9.989712e-10
1.8733741e-11
9.8526208e-10
1.8189452e-11
9.7196549e-10
1.7642092e-11
9.5909161e-10
1.7081246e-11
9.466579e-10
1.6497222e-11
9.3468681e-10
1.588341e-11
9.2320705e-10
1.5231506e-11
9.1225398e-10
1.4532699e-11
9.0187094e-10
1.3776387e-11
8.9211538e-10
1.2943857e-11
8.830655e-10
1.200756e-11
8.7481881e-10
1.0941919e-11
8.6750304e-10
9.7068039e-12
8.6135338e-10
8.1596397e-12
8.5636395e-10
6.6202602e-12
8.5322166e-10
4.1695444e-12
8.5213628e-10
1.4404437e-12
8.530893e-10
-1.2641141e-12
8.5682885e-10
-4.9612687e-12
8.6365589e-10
-9.0577613e-12
8.740562e-10
-1.3798857e-11
8.8835303e-10
-1.8968894e-11
9.0655244e-10
-2.4147e-11
9.2850054e-10
-2.9120936e-11
9.5392933e-10
-3.3739504e-11
9.8172593e-10
-3.6881545e-11
1.0095414e-09
-3.6906794e-11
1.0352991e-09
-3.4176555e-11
1.0565654e-09
-2.821706e-11
1.073005e-09
-2.1812766e-11
1.0857437e-09
-1.6901999e-11
1.0949254e-09
-1.2182543e-11
1.1016235e-09
-8.8871117e-12
1.106413e-09
-6.354699e-12
1.1096965e-09
-4.3565121e-12
1.1117489e-09
-2.7231319e-12
1.1127611e-09
-1.342876e-12
1.1128233e-09
-8.257965e-14
1.1119364e-09
1.1767986e-12
1.1101701e-09
2.3436439e-12
1.1076535e-09
3.3390241e-12
1.1044911e-09
4.1959251e-12
1.1008213e-09
4.869247e-12
1.0967711e-09
5.3737967e-12
1.0924316e-09
5.7578221e-12
1.0878982e-09
6.0149868e-12
1.0832614e-09
6.1522476e-12
1.0785716e-09
6.2224819e-12
1.0738589e-09
6.252826e-12
1.0691625e-09
6.231288e-12
1.0645177e-09
6.1628813e-12
1.0599358e-09
6.0792722e-12
1.055412e-09
6.0023446e-12
1.0509432e-09
5.9293169e-12
1.046531e-09
5.8540853e-12
1.0421845e-09
5.7670484e-12
1.0378133e-09
5.7998418e-12
1.0334813e-09
5.7478904e-12
1.0287371e-09
6.2946522e-12
1.0239715e-09
6.3237738e-12
1.01874e-09
6.9386871e-12
4.1405643e-12
2.0946457e-06
2.2055448e-10
2.0944448e-06
5.8769958e-10
2.0941692e-06
8.0605479e-10
2.093851e-06
9.3081614e-10
2.0934865e-06
1.0662267e-09
2.0930704e-06
1.2169236e-09
2.0925982e-06
1.3812601e-09
2.0920634e-06
1.5642778e-09
2.0914573e-06
1.7727476e-09
2.0907689e-06
2.0135921e-09
2.0899844e-06
2.2948715e-09
2.089086e-06
2.6282724e-09
2.0880507e-06
3.0286517e-09
2.086846e-06
3.5241373e-09
2.0854312e-06
4.1390896e-09
2.0837328e-06
4.9693014e-09
2.0816816e-06
6.0014402e-09
2.0790389e-06
7.7322933e-09
2.0757785e-06
9.5403979e-09
2.0707831e-06
1.461828e-08
2.0646452e-06
1.7962396e-08
2.0499808e-06
4.2915519e-08
2.0395063e-06
3.0635847e-08
1.0367283e-06
2.9553504e-06
2.2814947e-08
2.9766683e-06
1.110671e-08
2.0723453e-08
8.4152133e-09
4.7525466e-09
7.1137619e-09
2.2978766e-09
6.3093069e-09
1.4203256e-09
5.7384313e-09
1.0079176e-09
5.302808e-09
7.6912426e-10
4.9532055e-09
6.1725261e-10
4.6640503e-09
5.1052843e-10
4.4194213e-09
4.3191421e-10
4.2084747e-09
3.7244576e-10
4.0238034e-09
3.2605508e-10
3.8602041e-09
2.8885079e-10
3.7138354e-09
2.5842874e-10
3.5817616e-09
2.3318982e-10
3.4617084e-09
2.1196643e-10
3.3518867e-09
1.939016e-10
3.2508366e-09
1.7841457e-10
3.1574065e-09
1.6496091e-10
3.0706471e-09
1.5318297e-10
2.9897372e-09
1.428551e-10
2.914013e-09
1.3369933e-10
2.8429052e-09
1.2554842e-10
2.7759293e-09
1.182532e-10
2.7126699e-09
1.1169134e-10
2.6527675e-09
1.057643e-10
2.5959081e-09
1.0039133e-10
2.5418176e-09
9.5502745e-11
2.4902548e-09
9.1039678e-11
2.4410078e-09
8.6950987e-11
2.3938897e-09
8.3192257e-11
2.3487336e-09
7.9727973e-11
2.3053898e-09
7.6528115e-11
2.2637245e-09
7.3564756e-11
2.2236174e-09
7.0813375e-11
2.1849605e-09
6.8253045e-11
2.1476566e-09
6.5864076e-11
2.1116192e-09
6.3628026e-11
2.0767698e-09
6.1530337e-11
2.0430365e-09
5.9559854e-11
2.0103536e-09
5.7705194e-11
1.9786625e-09
5.5954144e-11
1.9479107e-09
5.429558e-11
1.9180512e-09
5.2720094e-11
1.8890423e-09
5.1218361e-11
1.8608483e-09
4.9779596e-11
1.8334393e-09
4.8393531e-11
1.8067903e-09
4.7051684e-11
1.7808812e-09
4.5745259e-11
1.755697e-09
4.4465304e-11
1.7312279e-09
4.3202901e-11
1.7074696e-09
4.1947687e-11
1.6844263e-09
4.0685387e-11
1.6621156e-09
3.9391985e-11
1.6405677e-09
3.8045133e-11
1.6198215e-09
3.6629576e-11
1.5999269e-09
3.5126168e-11
1.580945e-09
3.3514586e-11
1.562951e-09
3.1770357e-11
1.5460445e-09
2.9850329e-11
1.5303611e-09
2.7690962e-11
1.5160698e-09
2.5233262e-11
1.5033919e-09
2.238465e-11
1.4927351e-09
1.8816463e-11
1.4840893e-09
1.5266027e-11
1.4786448e-09
9.6140575e-12
1.4767651e-09
3.3201705e-12
1.4784183e-09
-2.9173017e-12
1.4849007e-09
-1.1443662e-11
1.4967339e-09
-2.0890959e-11
1.5147595e-09
-3.1824466e-11
1.5395375e-09
-4.374692e-11
1.5710784e-09
-5.5687845e-11
1.6091152e-09
-6.7157789e-11
1.6531829e-09
-7.7807134e-11
1.7013524e-09
-8.5051055e-11
1.7495537e-09
-8.5108099e-11
1.7941888e-09
-7.8811734e-11
1.8310412e-09
-6.5069429e-11
1.8595299e-09
-5.0301483e-11
1.8816055e-09
-3.8977526e-11
1.8975177e-09
-2.8094742e-11
1.9091258e-09
-2.0495219e-11
1.9174263e-09
-1.4655279e-11
1.923117e-09
-1.0047183e-11
1.9266743e-09
-6.2803837e-12
1.9284286e-09
-3.0972575e-12
1.9285368e-09
-1.9074318e-13
1.927e-09
2.7136063e-12
1.923939e-09
5.4046027e-12
1.9195779e-09
7.7001398e-12
1.9140976e-09
9.6762739e-12
1.9077378e-09
1.1229077e-11
1.9007189e-09
1.2392669e-11
1.8931984e-09
1.327826e-11
1.8853421e-09
1.3871322e-11
1.8773065e-09
1.4187896e-11
1.8691791e-09
1.4349867e-11
1.8610121e-09
1.4419824e-11
1.8528732e-09
1.4370157e-11
1.8448237e-09
1.4212423e-11
1.8368833e-09
1.4019605e-11
1.8290435e-09
1.3842178e-11
1.8212991e-09
1.3673732e-11
1.8136529e-09
1.3500223e-11
1.8061205e-09
1.3299485e-11
1.7985453e-09
1.3375027e-11
1.7910382e-09
1.3255057e-11
1.782817e-09
1.4515856e-11
1.7745595e-09
1.4581221e-11
1.7654881e-09
1.6010081e-11
9.5351022e-12
2.1860515e-06
2.9929088e-10
2.1858416e-06
7.9759198e-10
2.1855536e-06
1.0940273e-09
2.185221e-06
1.2633985e-09
2.1848401e-06
1.4471925e-09
2.1844053e-06
1.6517244e-09
2.1839118e-06
1.8747622e-09
2.1833529e-06
2.1231469e-09
2.1827196e-06
2.406066e-09
2.1820003e-06
2.7329136e-09
2.1811805e-06
3.1146262e-09
2.1802417e-06
3.567061e-09
2.17916e-06
4.1103762e-09
2.1779014e-06
4.7827376e-09
2.1764233e-06
5.6171938e-09
2.1746489e-06
6.7437255e-09
2.1725061e-06
8.1442194e-09
2.1697456e-06
1.0492751e-08
2.16634e-06
1.2946029e-08
2.1611226e-06
1.9835662e-08
2.1547122e-06
2.4372852e-08
2.1393973e-06
5.8230389e-08
2.128451e-06
4.1582152e-08
1.0890184e-06
3.994783e-06
3.3755094e-08
4.0319316e-06
1.646856e-08
3.8009987e-08
1.2478193e-08
8.7429143e-09
1.0548458e-08
4.2276109e-09
9.3555647e-09
2.6132192e-09
8.5090324e-09
1.8544498e-09
7.8630638e-09
1.4150929e-09
7.3446585e-09
1.1356579e-09
6.9158884e-09
9.392986e-10
6.553144e-09
7.9465859e-10
6.2403464e-09
6.852433e-10
5.9665116e-09
5.998899e-10
5.7239235e-09
5.3143892e-10
5.5068856e-09
4.7546664e-10
5.3110447e-09
4.2903067e-10
5.1330284e-09
3.899828e-10
4.9701835e-09
3.5674646e-10
4.8203457e-09
3.2825241e-10
4.6818068e-09
3.0349976e-10
4.5531592e-09
2.8183056e-10
4.4331855e-09
2.6282884e-10
4.3209011e-09
2.4598373e-10
4.2154621e-09
2.309874e-10
4.1161499e-09
2.175654e-10
4.0223485e-09
2.0549269e-10
3.9335249e-09
1.9458795e-10
3.8492136e-09
1.847026e-10
3.7690079e-09
1.7570843e-10
3.6925505e-09
1.6749715e-10
3.6195268e-09
1.5997466e-10
3.5496598e-09
1.5305925e-10
3.4827022e-09
1.4668557e-10
3.4184319e-09
1.4079839e-10
3.3566503e-09
1.3534633e-10
3.2971794e-09
1.3028427e-10
3.2398588e-09
1.2557371e-10
3.1845444e-09
1.2117843e-10
3.1311079e-09
1.170645e-10
3.0794331e-09
1.1320514e-10
3.0294132e-09
1.095798e-10
2.9809508e-09
1.0616756e-10
2.933959e-09
1.0294595e-10
2.8883601e-09
9.9894495e-11
2.8440843e-09
9.6995887e-11
2.8010697e-09
9.4232971e-11
2.7592634e-09
9.1585909e-11
2.7186211e-09
8.9035809e-11
2.6791057e-09
8.656706e-11
2.6406875e-09
8.416348e-11
2.6033442e-09
8.1808599e-11
2.5670611e-09
7.9486004e-11
2.5318322e-09
7.7176631e-11
2.4976633e-09
7.485421e-11
2.4645808e-09
7.2474568e-11
2.4326293e-09
6.9996587e-11
2.4018667e-09
6.7392186e-11
2.3723667e-09
6.4626149e-11
2.3442202e-09
6.1661074e-11
2.3175387e-09
5.84519e-11
2.2924698e-09
5.4919232e-11
2.2692146e-09
5.0946163e-11
2.2480237e-09
4.6424122e-11
2.2292256e-09
4.1182747e-11
2.2134245e-09
3.4617601e-11
2.2006059e-09
2.8084568e-11
2.1925342e-09
1.7685807e-11
2.1897486e-09
6.1058106e-12
2.1922022e-09
-5.3709215e-12
2.2018165e-09
-2.1057982e-11
2.2193652e-09
-3.8439688e-11
2.2460959e-09
-5.8555125e-11
2.2828386e-09
-8.0489634e-11
2.3296087e-09
-1.0245795e-10
2.3860103e-09
-1.2355936e-10
2.4513525e-09
-1.4314934e-10
2.5227748e-09
-1.5647342e-10
2.5942433e-09
-1.5657659e-10
2.6604237e-09
-1.4499212e-10
2.7150655e-09
-1.1971117e-10
2.757307e-09
-9.2543079e-11
2.7900397e-09
-7.171021e-11
2.8136347e-09
-5.1689707e-11
2.8308477e-09
-3.7708238e-11
2.8431565e-09
-2.6964038e-11
2.8515953e-09
-1.8485966e-11
2.8568706e-09
-1.1555712e-11
2.8594725e-09
-5.6992137e-12
2.8596334e-09
-3.5158078e-13
2.857355e-09
4.9920021e-12
2.8528165e-09
9.9431092e-12
2.84635e-09
1.4166585e-11
2.838224e-09
1.7802334e-11
2.8287938e-09
2.0659271e-11
2.8183863e-09
2.280012e-11
2.8072352e-09
2.4429418e-11
2.7955859e-09
2.5520559e-11
2.7836708e-09
2.6103054e-11
2.7716196e-09
2.6401058e-11
2.7595097e-09
2.6529735e-11
2.7474415e-09
2.6438363e-11
2.7355057e-09
2.6148199e-11
2.7237319e-09
2.5793446e-11
2.7121071e-09
2.5466972e-11
2.7006238e-09
2.5157008e-11
2.6892863e-09
2.4837751e-11
2.6781173e-09
2.4468406e-11
2.6668852e-09
2.4607195e-11
2.6557539e-09
2.4386329e-11
2.6435644e-09
2.6705357e-11
2.6313218e-09
2.6823862e-11
2.6178676e-09
2.9464222e-11
1.7529212e-11
2.3100344e-06
3.8257627e-10
2.3098123e-06
1.0196676e-09
2.3095076e-06
1.3987775e-09
2.3091556e-06
1.6153818e-09
2.3087524e-06
1.8503825e-09
2.3082922e-06
2.1118838e-09
2.30777e-06
2.3970368e-09
2.3071785e-06
2.714585e-09
2.3065083e-06
3.0762723e-09
2.3057471e-06
3.4941068e-09
2.3048797e-06
3.9820671e-09
2.3038863e-06
4.5604212e-09
2.3027418e-06
5.2549325e-09
2.3014101e-06
6.1143828e-09
2.2998463e-06
7.1810058e-09
2.2979691e-06
8.6209389e-09
2.2957023e-06
1.0410998e-08
2.2927823e-06
1.341275e-08
2.2891801e-06
1.654828e-08
2.283662e-06
2.5353684e-08
2.2768825e-06
3.1152392e-08
2.2606865e-06
7.4426376e-08
2.249102e-06
5.3166647e-08
1.1585568e-06
5.0853282e-06
4.66586e-08
5.1438298e-06
2.2815355e-08
6.1853231e-08
1.7287812e-08
1.4270457e-08
1.4614395e-08
6.9010278e-09
1.2961656e-08
4.2659586e-09
1.1788791e-08
3.0273144e-09
1.0893809e-08
2.3100749e-09
1.0175574e-08
1.853893e-09
9.5815277e-09
1.533345e-09
9.0789588e-09
1.2972275e-09
8.6455913e-09
1.1186108e-09
8.2662065e-09
9.7927475e-10
7.9301132e-09
8.6753212e-10
7.6294191e-09
7.7616078e-10
7.3580928e-09
7.0035702e-10
7.1114615e-09
6.3661402e-10
6.8858496e-09
5.8235842e-10
6.6782586e-09
5.3584343e-10
6.4863218e-09
4.9543652e-10
6.3080885e-09
4.6006383e-10
6.1418726e-09
4.2904481e-10
5.9863097e-09
4.0154655e-10
5.8402309e-09
3.7706628e-10
5.7026403e-09
3.55156e-10
5.5726846e-09
3.3544834e-10
5.4496253e-09
3.1764729e-10
5.3328176e-09
3.0151031e-10
5.2216979e-09
2.8682812e-10
5.1157711e-09
2.7342393e-10
5.0146016e-09
2.6114413e-10
4.9178055e-09
2.4985535e-10
4.8250402e-09
2.394509e-10
4.735998e-09
2.2984061e-10
4.6504037e-09
2.2094062e-10
4.5680107e-09
2.1267727e-10
4.4885967e-09
2.0498772e-10
4.4119623e-09
1.9781284e-10
4.3379296e-09
1.9109724e-10
4.2663375e-09
1.8479719e-10
4.1970381e-09
1.7887919e-10
4.1298966e-09
1.7330904e-10
4.0647925e-09
1.6805007e-10
4.0016181e-09
1.6306887e-10
3.9402768e-09
1.5833718e-10
3.8806828e-09
1.5382699e-10
3.8227628e-09
1.4950593e-10
3.7664555e-09
1.4534315e-10
3.7117093e-09
1.4131317e-10
3.6584833e-09
1.3738957e-10
3.6067464e-09
1.3354547e-10
3.5564783e-09
1.2975406e-10
3.5076707e-09
1.2598422e-10
3.4603319e-09
1.2219307e-10
3.4144979e-09
1.1830851e-10
3.3702311e-09
1.1426343e-10
3.3276113e-09
1.1001195e-10
3.2867409e-09
1.0549661e-10
3.2477456e-09
1.0065633e-10
3.21078e-09
9.5417496e-11
3.1760487e-09
8.96505e-11
3.1438304e-09
8.3164491e-11
3.1144723e-09
7.5782187e-11
3.0884296e-09
6.7225446e-11
3.0665393e-09
5.6507967e-11
3.0487819e-09
4.5841903e-11
3.0376008e-09
2.8866926e-11
3.0337436e-09
9.9630293e-12
3.0371459e-09
-8.7732658e-12
3.0504688e-09
-3.4380817e-11
3.0747845e-09
-6.2755416e-11
3.1118209e-09
-9.5591502e-11
3.1627277e-09
-1.3139643e-10
3.227526e-09
-1.6725631e-10
3.305667e-09
-2.017003e-10
3.3961921e-09
-2.3367445e-10
3.4951381e-09
-2.5541938e-10
3.5941467e-09
-2.5558524e-10
3.6858288e-09
-2.3667423e-10
3.7615275e-09
-1.9540983e-10
3.8200487e-09
-1.5106427e-10
3.8653966e-09
-1.1705813e-10
3.8980866e-09
-8.4379716e-11
3.921935e-09
-6.1556662e-11
3.9389891e-09
-4.4018105e-11
3.9506815e-09
-3.0178417e-11
3.9579912e-09
-1.8865363e-11
3.9615969e-09
-9.3049684e-12
3.9618205e-09
-5.7517283e-13
3.9586646e-09
8.1479144e-12
3.9523773e-09
1.6230401e-11
3.9434189e-09
2.3125011e-11
3.9321612e-09
2.9060078e-11
3.9190966e-09
3.3723863e-11
3.904678e-09
3.7218691e-11
3.8892291e-09
3.9878332e-11
3.8730901e-09
4.1659545e-11
3.8565826e-09
4.2610509e-11
3.8398867e-09
4.3096989e-11
3.8231094e-09
4.3306996e-11
3.80639e-09
4.3157856e-11
3.7898539e-09
4.2684254e-11
3.7735422e-09
4.2105153e-11
3.757437e-09
4.157215e-11
3.7415279e-09
4.1066079e-11
3.7258208e-09
4.0544866e-11
3.7103473e-09
3.994192e-11
3.6947864e-09
4.0168112e-11
3.6793653e-09
3.9807455e-11
3.662479e-09
4.3591658e-11
3.6455194e-09
4.3783427e-11
3.6268775e-09
4.8106095e-11
2.860119e-11
2.4684421e-06
4.7167315e-10
2.4682044e-06
1.2573079e-09
2.4678782e-06
1.7249623e-09
2.4675015e-06
1.9921515e-09
2.4670699e-06
2.2819657e-09
2.4665773e-06
2.6044409e-09
2.4660183e-06
2.9560705e-09
2.4653853e-06
3.3476326e-09
2.4646679e-06
3.7936057e-09
2.4638532e-06
4.3087941e-09
2.4629249e-06
4.9104304e-09
2.4618618e-06
5.6234999e-09
2.460637e-06
6.4797602e-09
2.459212e-06
7.5393472e-09
2.4575387e-06
8.8543144e-09
2.4555302e-06
1.0629471e-08
2.453105e-06
1.2836193e-08
2.4499811e-06
1.6536573e-08
2.4461277e-06
2.0401724e-08
2.4402256e-06
3.1255787e-08
2.4329745e-06
3.8403456e-08
2.4156529e-06
9.1747978e-08
2.4032533e-06
6.5566318e-08
1.2467732e-06
6.2418083e-06
6.228075e-08
6.3283223e-06
3.0526708e-08
9.3607273e-08
2.3131849e-08
2.1665316e-08
1.9554874e-08
1.0478003e-08
1.7343358e-08
6.4774743e-09
1.5773954e-08
4.5967193e-09
1.4576386e-08
3.5076427e-09
1.3615335e-08
2.814944e-09
1.282046e-08
2.3282196e-09
1.214799e-08
1.9696975e-09
1.1568119e-08
1.6984823e-09
1.1060481e-08
1.4869121e-09
1.0610772e-08
1.3172417e-09
1.0208429e-08
1.1785038e-09
9.8453818e-09
1.063404e-09
9.5153785e-09
9.6661731e-10
9.2135e-09
8.8423695e-10
8.9357349e-09
8.136085e-10
8.6789162e-09
7.5225527e-10
8.4404329e-09
6.9854712e-10
8.2180295e-09
6.5144817e-10
8.0098806e-09
6.096955e-10
7.8144216e-09
5.7252528e-10
7.6303203e-09
5.3925732e-10
7.4564348e-09
5.0933376e-10
7.2917769e-09
4.8230518e-10
7.135484e-09
4.5780328e-10
6.9868018e-09
4.355103e-10
6.845068e-09
4.1515778e-10
6.7096996e-09
3.9651253e-10
6.5801829e-09
3.7937202e-10
6.4560595e-09
3.6357425e-10
6.3369178e-09
3.4898232e-10
6.2223896e-09
3.3546887e-10
6.1121448e-09
3.2292209e-10
6.0058859e-09
3.1124655e-10
5.9033463e-09
3.0035246e-10
5.8042878e-09
2.9015575e-10
5.708495e-09
2.8059002e-10
5.6157698e-09
2.7160436e-10
5.525932e-09
2.6314687e-10
5.4388202e-09
2.5516186e-10
5.3542905e-09
2.4759861e-10
5.2722134e-09
2.4041421e-10
5.1924743e-09
2.3356613e-10
5.114975e-09
2.2700522e-10
5.0396335e-09
2.2068464e-10
4.966381e-09
2.1456571e-10
4.8951623e-09
2.086083e-10
4.8259361e-09
2.0277158e-10
4.7586753e-09
1.9701486e-10
4.6933687e-09
1.9129089e-10
4.6300272e-09
1.8553452e-10
4.5686994e-09
1.7963634e-10
4.5094684e-09
1.7349442e-10
4.4524413e-09
1.6703908e-10
4.3977548e-09
1.6018309e-10
4.3455774e-09
1.5283368e-10
4.2961159e-09
1.44879e-10
4.2496442e-09
1.3612223e-10
4.2065351e-09
1.2627359e-10
4.1672535e-09
1.150638e-10
4.1324084e-09
1.0207051e-10
4.1031197e-09
8.5796739e-11
4.0793622e-09
6.9599398e-11
4.0644037e-09
4.3825448e-11
4.0592453e-09
1.512141e-11
4.0638017e-09
-1.3329661e-11
4.0816317e-09
-5.2210863e-11
4.114171e-09
-9.5294736e-11
4.1637306e-09
-1.4515107e-10
4.2318484e-09
-1.9951427e-10
4.3185528e-09
-2.5396063e-10
4.4231083e-09
-3.0625584e-10
4.544231e-09
-3.5479712e-10
4.6766173e-09
-3.8780575e-10
4.8090862e-09
-3.8805408e-10
4.9317517e-09
-3.5933975e-10
5.0330344e-09
-2.9669257e-10
5.111336e-09
-2.2936584e-10
5.1720122e-09
-1.7773431e-10
5.2157541e-09
-1.2812157e-10
5.2476657e-09
-9.3468324e-11
5.2704865e-09
-6.6838849e-11
5.2861331e-09
-4.582506e-11
5.2959153e-09
-2.864757e-11
5.3007414e-09
-1.4131044e-11
5.3010418e-09
-8.7555804e-13
5.2968201e-09
1.2369598e-11
5.2884083e-09
2.4642206e-11
5.2764222e-09
3.5111052e-11
5.2613596e-09
4.4122752e-11
5.2438792e-09
5.1204267e-11
5.224587e-09
5.6510842e-11
5.2039162e-09
6.0549111e-11
5.1823221e-09
6.3253699e-11
5.1602348e-09
6.4697769e-11
5.1378954e-09
6.5436456e-11
5.1154471e-09
6.5755259e-11
5.0930761e-09
6.5528845e-11
5.0709505e-09
6.4809847e-11
5.0491251e-09
6.3930565e-11
5.0275761e-09
6.3121171e-11
5.0062895e-09
6.2352642e-11
4.9852732e-09
6.1561161e-11
4.9645695e-09
6.0645637e-11
4.9437492e-09
6.0988455e-11
4.9231158e-09
6.0440779e-11
4.9005235e-09
6.6184029e-11
4.8778332e-09
6.6473656e-11
4.8528883e-09
7.3050988e-11
4.3413639e-11
2.6636351e-06
5.6793758e-10
2.6633783e-06
1.5141496e-09
2.6630256e-06
2.0775956e-09
2.6626183e-06
2.3995078e-09
2.6621517e-06
2.7485868e-09
2.6616191e-06
3.1369768e-09
2.6610147e-06
3.5604641e-09
2.6603303e-06
4.0320241e-09
2.6595549e-06
4.5690896e-09
2.6586742e-06
5.1894862e-09
2.6576706e-06
5.9139613e-09
2.6565215e-06
6.7725955e-09
2.6551977e-06
7.8036205e-09
2.6536576e-06
9.079436e-09
2.6518492e-06
1.0662698e-08
2.6496787e-06
1.279999e-08
2.6470581e-06
1.5456789e-08
2.6436829e-06
1.9911786e-08
2.6395196e-06
2.4564966e-08
2.6331439e-06
3.7631529e-08
2.6253114e-06
4.6235967e-08
2.6066019e-06
1.1045747e-07
2.5931965e-06
7.8971657e-08
1.3554534e-06
7.4795514e-06
8.1531631e-08
7.6022441e-06
4.0063815e-08
1.3507509e-07
3.0359978e-08
3.1369154e-08
2.5665536e-08
1.5172444e-08
2.2762866e-08
9.380144e-09
2.0702977e-08
6.6566091e-09
1.9131139e-08
5.0794808e-09
1.7869753e-08
4.0763291e-09
1.682648e-08
3.3714933e-09
1.5943864e-08
2.8523129e-09
1.5182788e-08
2.4595587e-09
1.4516521e-08
2.1531789e-09
1.3926285e-08
1.9074773e-09
1.3398218e-08
1.7065707e-09
1.2921728e-08
1.5398947e-09
1.2488607e-08
1.3997384e-09
1.2092399e-08
1.2804449e-09
1.172784e-08
1.1781672e-09
1.1390773e-08
1.0893221e-09
1.1077771e-08
1.0115496e-09
1.0785873e-08
9.4334587e-10
1.0512684e-08
8.8288461e-10
1.025615e-08
8.2905914e-10
1.0014523e-08
7.8088448e-10
9.7863037e-09
7.3755285e-10
9.5701955e-09
6.9841339e-10
9.365066e-09
6.6293276e-10
9.1699255e-09
6.3065084e-10
8.9839044e-09
6.0117886e-10
8.8062378e-09
5.7417914e-10
8.6362514e-09
5.4935842e-10
8.4733435e-09
5.2648212e-10
8.3169739e-09
5.0535194e-10
8.1666593e-09
4.8578349e-10
8.0219665e-09
4.6761486e-10
7.8825052e-09
4.5070784e-10
7.7479252e-09
4.3493244e-10
7.6179141e-09
4.2016691e-10
7.492189e-09
4.0631509e-10
7.3704901e-09
3.9330326e-10
7.2525807e-09
3.8105626e-10
7.1382491e-09
3.6949345e-10
7.0273064e-09
3.5854137e-10
6.9195827e-09
3.481379e-10
6.8149274e-09
3.3822144e-10
6.7132118e-09
3.2872083e-10
6.6143281e-09
3.1956826e-10
6.5181862e-09
3.1070768e-10
6.4247135e-09
3.0208099e-10
6.333856e-09
2.9362907e-10
6.2455779e-09
2.8529298e-10
6.1598645e-09
2.7700428e-10
6.0767304e-09
2.6866865e-10
5.996239e-09
2.6012765e-10
5.9184997e-09
2.5123371e-10
5.8436529e-09
2.4188589e-10
5.7718782e-09
2.3195786e-10
5.7033966e-09
2.2131525e-10
5.6384796e-09
2.0979599e-10
5.5774868e-09
1.9711504e-10
5.5209076e-09
1.8285274e-10
5.4693524e-09
1.6661904e-10
5.4236206e-09
1.4780229e-10
5.3851817e-09
1.2423563e-10
5.354004e-09
1.0077716e-10
5.3343742e-09
6.3455186e-11
5.3276076e-09
2.1888073e-11
5.3335928e-09
-1.9314926e-11
5.3569988e-09
-7.5616862e-11
5.3997108e-09
-1.3800669e-10
5.4647606e-09
-2.1020091e-10
5.5541664e-09
-2.8892009e-10
5.6679652e-09
-3.6775937e-10
5.8051909e-09
-4.4348153e-10
5.9641558e-09
-5.1376208e-10
6.1378991e-09
-5.6154906e-10
6.311749e-09
-5.6190398e-10
6.4727325e-09
-5.2032318e-10
6.6056568e-09
-4.2961688e-10
6.708423e-09
-3.3213208e-10
6.7880578e-09
-2.5736908e-10
6.84547e-09
-1.8553379e-10
6.8873556e-09
-1.3535395e-10
6.9173099e-09
-9.679312e-11
6.9378483e-09
-6.6363418e-11
6.9506896e-09
-4.1488879e-11
6.9570258e-09
-2.046731e-11
6.9574219e-09
-1.2716554e-12
6.9518827e-09
1.7908827e-11
6.9408438e-09
3.5681166e-11
6.9251135e-09
5.0841329e-11
6.9053451e-09
6.3891119e-11
6.8824034e-09
7.414598e-11
6.8570837e-09
8.1830533e-11
6.8299546e-09
8.7678207e-11
6.8016136e-09
9.1594747e-11
6.7726252e-09
9.3686124e-11
6.7433058e-09
9.4755858e-11
6.7138436e-09
9.5217422e-11
6.6844829e-09
9.488962e-11
6.6554441e-09
9.3848622e-11
6.6267993e-09
9.2575372e-11
6.5985173e-09
9.1403156e-11
6.5705799e-09
9.0290079e-11
6.5429972e-09
8.9143816e-11
6.5158248e-09
8.7818034e-11
6.4884998e-09
8.831346e-11
6.4614202e-09
8.752039e-11
6.4317715e-09
9.5832771e-11
6.4019943e-09
9.6250845e-11
6.3692541e-09
1.0579117e-10
6.2853187e-11
2.8985224e-06
6.7284128e-10
2.8982424e-06
1.7941459e-09
2.8978578e-06
2.4621341e-09
2.8974136e-06
2.8437659e-09
2.8969047e-06
3.25748e-09
2.8963239e-06
3.7177451e-09
2.8956648e-06
4.2195803e-09
2.8949185e-06
4.7783545e-09
2.8940728e-06
5.4147201e-09
2.8931125e-06
6.1497945e-09
2.8920183e-06
7.0081549e-09
2.8907655e-06
8.0254325e-09
2.8893222e-06
9.2469107e-09
2.8876433e-06
1.075835e-08
2.885672e-06
1.2633951e-08
2.8833062e-06
1.5165807e-08
2.8804501e-06
1.8312948e-08
2.8767718e-06
2.3590022e-08
2.8722352e-06
2.9101599e-08
2.8652887e-06
4.4578027e-08
2.8567556e-06
5.4769099e-08
2.8363739e-06
1.308391e-07
2.8217557e-06
9.3589907e-08
1.4867916e-06
8.8145155e-06
1.0552754e-07
8.9835081e-06
5.1997034e-08
1.886056e-07
3.9404692e-08
4.3961495e-08
3.3312058e-08
2.1265079e-08
2.9544482e-08
1.3147719e-08
2.68708e-08
9.3302912e-09
2.4830603e-08
7.1196786e-09
2.3193389e-08
5.7135422e-09
2.1839279e-08
4.7256034e-09
2.0693697e-08
3.9978949e-09
1.9705871e-08
3.4473853e-09
1.8841105e-08
3.0179447e-09
1.8075025e-08
2.6735578e-09
1.7389636e-08
2.3919594e-09
1.677119e-08
2.1583405e-09
1.6209035e-08
1.9618931e-09
1.5694791e-08
1.7946894e-09
1.5221626e-08
1.6513323e-09
1.4784143e-08
1.5268047e-09
1.4377893e-08
1.4177994e-09
1.3999036e-08
1.3222029e-09
1.3644462e-08
1.2374594e-09
1.3311504e-08
1.1620168e-09
1.2997894e-08
1.0944945e-09
1.2701686e-08
1.0337603e-09
1.2421198e-08
9.7890202e-10
1.2154959e-08
9.2917199e-10
1.1901684e-08
8.8392529e-10
1.1660246e-08
8.4261708e-10
1.1429651e-08
8.0477401e-10
1.1209024e-08
7.699851e-10
1.0997585e-08
7.3792151e-10
1.0794632e-08
7.083053e-10
1.0599537e-08
6.8087803e-10
1.0411739e-08
6.5541277e-10
1.0230731e-08
6.3171581e-10
1.0056059e-08
6.0960493e-10
9.887316e-09
5.8890953e-10
9.7241363e-09
5.694948e-10
9.5661821e-09
5.5125742e-10
9.4131464e-09
5.3409203e-10
9.2647542e-09
5.178856e-10
9.1207604e-09
5.0253518e-10
8.9809446e-09
4.8795368e-10
8.8451113e-09
4.740548e-10
8.7130933e-09
4.6073878e-10
8.584751e-09
4.479106e-10
8.459967e-09
4.3549167e-10
8.3386474e-09
4.2340057e-10
8.2207221e-09
4.1155442e-10
8.1061444e-09
3.9987059e-10
7.9948956e-09
3.8825313e-10
7.8869944e-09
3.7656986e-10
7.7825233e-09
3.6459876e-10
7.681624e-09
3.5213298e-10
7.5844789e-09
3.3903098e-10
7.491321e-09
3.2511572e-10
7.4024375e-09
3.1019881e-10
7.3181806e-09
2.940529e-10
7.2390172e-09
2.7627844e-10
7.1655827e-09
2.562872e-10
7.0986695e-09
2.3353231e-10
7.0393154e-09
2.0715638e-10
6.9894274e-09
1.7412363e-10
6.9489657e-09
1.4123886e-10
6.9234918e-09
8.8929089e-11
6.914714e-09
3.0665884e-11
6.9224891e-09
-2.7090055e-11
6.952874e-09
-1.0600175e-10