/*--------------------------------*- C++ -*----------------------------------*\
| =========                 |                                                 |
| \\      /  F ield         | OpenFOAM: The Open Source CFD Toolbox           |
|  \\    /   O peration     | Version:  2206                                  |
|   \\  /    A nd           | Website:  www.openfoam.com                      |
|    \\/     M anipulation  |                                                 |
\*---------------------------------------------------------------------------*/
FoamFile
{
    version     2.0;
    format      ascii;
    arch        "LSB;label=32;scalar=64";
    class       volVectorField;
    location    "1700";
    object      U;
}
// * * * * * * * * * * * * * * * * * * * * * * * * * * * * * * * * * * * * * //

dimensions      [0 1 -1 0 0 0 0];

internalField   nonuniform List<vector> 
13056
(
(0.99999999 8.9858727e-10 5.0791092e-25)
(0.99993243 2.7170427e-09 0)
(0.99981189 4.2281196e-09 0)
(0.99967115 5.5389964e-09 0)
(0.99951 7.1958117e-09 0)
(0.99932534 9.3104135e-09 0)
(0.9991152 1.1973173e-08 0)
(0.99887713 1.5351753e-08 0)
(0.99860755 1.9678541e-08 0)
(0.99830179 2.5252005e-08 0)
(0.997954 3.2463271e-08 0)
(0.99755689 4.1856467e-08 0)
(0.99710082 5.4165281e-08 0)
(0.99657363 7.0557592e-08 0)
(0.99595669 9.2408276e-08 0)
(0.99522951 1.231116e-07 0)
(0.99434342 1.6400217e-07 0)
(0.99327916 2.3138089e-07 0)
(0.99183511 3.0988932e-07 0)
(0.99017118 5.1015996e-07 0)
(0.98710388 6.6551492e-07 0)
(0.98429167 1.665634e-06 0)
(0.97322948 1.2269176e-06 -5.1013907e-21)
(0.97413309 0.00012145637 8.8190734e-18)
(0.0030861697 0.00012175453 0)
(0.00121956 7.2284998e-08 -1.2254467e-20)
(0.00086878244 4.7569911e-08 4.0668812e-18)
(0.00071380872 6.0411527e-09 0)
(0.00062416233 3.7022774e-09 0)
(0.00056258562 2.6032044e-09 0)
(0.00051683104 1.9682375e-09 0)
(0.00048067327 1.5645863e-09 0)
(0.00045108717 1.2813949e-09 0)
(0.00042629368 1.0732019e-09 0)
(0.0004050792 9.1591406e-10 0)
(0.00038661874 7.9336017e-10 0)
(0.00037034491 6.9521594e-10 0)
(0.000355847 6.1508242e-10 0)
(0.00034281349 5.4869011e-10 0)
(0.00033100392 4.9293143e-10 0)
(0.0003202311 4.4552504e-10 0)
(0.00031034586 4.0492264e-10 4.6289175e-25)
(0.00030122268 3.6969791e-10 0)
(0.00029277064 3.388963e-10 0)
(0.00028490218 3.1190336e-10 0)
(0.00027755034 2.8799602e-10 0)
(0.00027065724 2.6672715e-10 0)
(0.00026417374 2.4770312e-10 0)
(0.00025805782 2.3060177e-10 0)
(0.00025227338 2.151627e-10 0)
(0.0002467889 2.0117175e-10 0)
(0.00024157687 1.8844535e-10 0)
(0.0002366132 1.7682874e-10 0)
(0.00023187666 1.6618836e-10 0)
(0.00022734859 1.56409e-10 0)
(0.0002230125 1.4739709e-10 0)
(0.00021885352 1.3907294e-10 0)
(0.00021485833 1.313639e-10 0)
(0.00021101507 1.2420658e-10 0)
(0.00020731302 1.1754658e-10 0)
(0.00020374253 1.1133397e-10 0)
(0.00020029501 1.0552319e-10 0)
(0.00019696276 1.0007723e-10 0)
(0.00019373873 9.4966185e-11 0)
(0.00019061642 9.016103e-11 0)
(0.00018759 8.5632849e-11 0)
(0.00018465426 8.1355801e-11 0)
(0.00018180455 7.7307925e-11 0)
(0.00017903667 7.3468464e-11 0)
(0.00017634697 6.9815727e-11 0)
(0.00017373239 6.6330102e-11 0)
(0.00017119038 6.2995629e-11 0)
(0.00016871879 5.9796928e-11 0)
(0.000166316 5.6719464e-11 0)
(0.00016398081 5.3749881e-11 0)
(0.00016171255 5.0874056e-11 0)
(0.00015951113 4.8074579e-11 0)
(0.00015737741 4.5324435e-11 0)
(0.00015531387 4.2601409e-11 0)
(0.00015332374 3.9893906e-11 0)
(0.00015141113 3.7187528e-11 0)
(0.0001495813 3.4469026e-11 0)
(0.00014784054 3.1723458e-11 0)
(0.00014619673 2.8920267e-11 0)
(0.00014466076 2.6014552e-11 0)
(0.00014324731 2.2972922e-11 0)
(0.00014197354 1.973974e-11 0)
(0.00014086407 1.6061226e-11 0)
(0.00013997151 1.2625328e-11 0)
(0.0001392393 2.8881199e-11 0)
(0.00013895444 2.8003779e-12 -6.6226964e-25)
(0.00013888907 -2.3232007e-12 0)
(0.00013927304 -8.0736127e-12 0)
(0.00014011699 -1.4237634e-11 0)
(0.00014150979 -2.089082e-11 0)
(0.00014352083 -2.7615748e-11 0)
(0.0001461856 -3.3758539e-11 0)
(0.0001494692 -3.9039737e-11 0)
(0.0001533569 -4.3329835e-11 0)
(0.00015777483 -4.5329861e-11 0)
(0.00016242892 -4.3356178e-11 0)
(0.00016684228 -3.8330057e-11 0)
(0.00017082083 -1.1350683e-10 9.6995756e-21)
(0.00017375339 -2.2171133e-11 0)
(0.00017617015 -1.6328644e-11 0)
(0.0001778907 -1.1153673e-11 0)
(0.00017915278 -7.702928e-12 0)
(0.00018006586 -5.2056663e-12 0)
(0.00018070728 -3.3680662e-12 0)
(0.00018113042 -1.9846865e-12 0)
(0.00018137115 -9.2374322e-13 0)
(0.00018145558 -7.9038149e-14 0)
(0.00018138633 7.0068586e-13 0)
(0.00018116587 1.3550097e-12 0)
(0.0001808132 1.9341168e-12 0)
(0.00018034531 2.4328391e-12 0)
(0.00017978206 2.8247119e-12 0)
(0.00017914871 3.1183023e-12 0)
(0.00017846147 3.3419926e-12 0)
(0.00017773375 3.4918609e-12 0)
(0.00017698331 3.5719042e-12 0)
(0.00017622186 3.612978e-12 0)
(0.00017545417 3.6308984e-12 0)
(0.00017468525 3.6186345e-12 0)
(0.00017392285 3.5790282e-12 0)
(0.00017317075 3.5305913e-12 0)
(0.0001724289 3.4860255e-12 0)
(0.00017169569 3.4437775e-12 0)
(0.00017097179 3.4001684e-12 0)
(0.00017025707 3.349773e-12 0)
(0.00016955455 3.3687664e-12 0)
(0.00016883173 3.3396607e-12 0)
(0.00016814206 3.6553485e-12 0)
(0.00016728458 1.386289e-11 0)
(0.00016658847 3.9797241e-12 4.8296005e-24)
(0.0001655762 9.1384415e-12 0)
(0.99999999 2.7101859e-09 0)
(0.99993238 8.1959197e-09 0)
(0.99981172 1.2755119e-08 0)
(0.99967083 1.671015e-08 0)
(0.9995095 2.1708472e-08 0)
(0.99932464 2.8087693e-08 0)
(0.99911427 3.612044e-08 0)
(0.99887595 4.6312414e-08 0)
(0.99860609 5.9364541e-08 0)
(0.99830001 7.6177057e-08 0)
(0.99795187 9.7929638e-08 0)
(0.99755437 1.262634e-07 0)
(0.99709787 1.633911e-07 0)
(0.9965702 2.1283502e-07 0)
(0.99595271 2.7874144e-07 0)
(0.99522492 3.7134716e-07 0)
(0.99433811 4.9467583e-07 0)
(0.99327304 6.9788886e-07 0)
(0.99182796 9.3466288e-07 0)
(0.99016289 1.5386356e-06 0)
(0.98709378 2.007149e-06 0)
(0.98427994 5.0233829e-06 0)
(0.97321151 3.6996502e-06 1.8935941e-20)
(0.97411043 0.00036505031 -7.0134552e-21)
(0.0092697835 0.00036640714 0)
(0.0036766329 1.1941303e-06 0)
(0.0026192924 2.6802349e-07 3.9111594e-22)
(0.0021521089 1.2661174e-07 0)
(0.0018818199 7.756714e-08 0)
(0.0016961632 5.4547465e-08 0)
(0.0015582093 4.1238788e-08 0)
(0.0014491931 3.2781026e-08 0)
(0.0013599911 2.6847835e-08 0)
(0.0012852389 2.2485451e-08 0)
(0.0012212777 1.9189661e-08 0)
(0.0011656202 1.6621789e-08 0)
(0.0011165554 1.4565433e-08 0)
(0.001072845 1.2886453e-08 0)
(0.0010335498 1.1495387e-08 0)
(0.00099794477 1.0327132e-08 0)
(0.0009654655 9.3340073e-09 0)
(0.00093566219 8.4833325e-09 -7.0615193e-25)
(0.00090815665 7.7453133e-09 -1.118234e-24)
(0.0008826744 7.1000338e-09 0)
(0.00085895163 6.5344382e-09 0)
(0.00083678647 6.0335353e-09 0)
(0.00081600437 5.587918e-09 0)
(0.00079645717 5.1893385e-09 0)
(0.00077801823 4.831046e-09 0)
(0.00076057865 4.5075814e-09 0)
(0.00074404344 4.2144572e-09 0)
(0.00072832965 3.9478286e-09 0)
(0.00071336465 3.7044516e-09 0)
(0.0006990844 3.4815285e-09 0)
(0.0006854327 3.2766464e-09 0)
(0.00067235977 3.0878427e-09 0)
(0.00065982082 2.9134473e-09 0)
(0.00064777572 2.7519396e-09 0)
(0.00063618862 2.6019908e-09 0)
(0.00062502729 2.462461e-09 0)
(0.0006142626 2.3323045e-09 0)
(0.00060386863 2.210567e-09 0)
(0.0005938222 2.0964723e-09 0)
(0.00058410205 1.9893933e-09 0)
(0.00057468857 1.8887225e-09 0)
(0.00056556417 1.7938538e-09 0)
(0.00055671316 1.7042459e-09 0)
(0.00054812154 1.6194382e-09 0)
(0.00053977662 1.5389961e-09 0)
(0.00053166741 1.4624655e-09 0)
(0.00052378469 1.389435e-09 0)
(0.00051612074 1.3195693e-09 0)
(0.00050866911 1.2525459e-09 0)
(0.00050142488 1.1880606e-09 0)
(0.00049438447 1.1258325e-09 0)
(0.00048754585 1.0655664e-09 0)
(0.00048090876 1.006896e-09 0)
(0.00047447578 9.4925616e-10 0)
(0.00046825438 8.9218118e-10 0)
(0.00046225431 8.3542319e-10 0)
(0.00045648795 7.7868344e-10 0)
(0.00045097119 7.2168371e-10 0)
(0.00044572296 6.6410663e-10 0)
(0.00044076705 6.053115e-10 0)
(0.00043613631 5.4435808e-10 0)
(0.00043187499 4.8054128e-10 0)
(0.00042803485 4.1267028e-10 0)
(0.00042469016 3.3555273e-10 0)
(0.0004219994 2.6312982e-10 0)
(0.00041979251 1.6239124e-10 1.0316546e-24)
(0.00041893378 5.3185783e-11 2.072331e-24)
(0.00041873745 -4.4956604e-11 0)
(0.00041989564 -1.7069042e-10 0)
(0.00042244076 -2.9989133e-10 0)
(0.0004266406 -4.3923766e-10 0)
(0.00043270429 -5.7992843e-10 0)
(0.00044073878 -7.0829663e-10 0)
(0.00045063883 -8.1865951e-10 0)
(0.00046235988 -9.080097e-10 0)
(0.00047567889 -9.4905811e-10 0)
(0.00048970939 -9.0693472e-10 0)
(0.00050301406 -8.0095453e-10 0)
(0.00051500748 -6.3901623e-10 -2.242503e-24)
(0.0005238487 -4.6303162e-10 -3.1580769e-24)
(0.0005311342 -3.4069032e-10 0)
(0.00053632144 -2.3281433e-10 0)
(0.0005401265 -1.6074896e-10 0)
(0.0005428794 -1.0859831e-10 0)
(0.00054481329 -7.020803e-11 0)
(0.00054608914 -4.1299958e-11 0)
(0.00054681501 -1.9123509e-11 0)
(0.00054706963 -1.0791024e-12 0)
(0.00054686091 1.4689401e-11 0)
(0.00054619629 2.8517408e-11 0)
(0.00054513306 4.0625829e-11 0)
(0.00054372244 5.1049895e-11 0)
(0.00054202434 5.9240495e-11 0)
(0.00054011486 6.5378106e-11 0)
(0.00053804293 7.004978e-11 0)
(0.00053584895 7.3177963e-11 0)
(0.00053358649 7.4847381e-11 0)
(0.00053129079 7.5701626e-11 0)
(0.0005289763 7.6070727e-11 0)
(0.00052665813 7.5808518e-11 0)
(0.00052435959 7.4976055e-11 0)
(0.0005220921 7.3958841e-11 0)
(0.00051985551 7.3023026e-11 0)
(0.00051764501 7.2134725e-11 0)
(0.00051546254 7.1219497e-11 0)
(0.00051330778 7.0160695e-11 0)
(0.00051118981 7.0560076e-11 0)
(0.00050901069 6.9928934e-11 0)
(0.00050693143 7.6581155e-11 0)
(0.00050434669 7.8068874e-11 0)
(0.00050224798 8.4367532e-11 -7.4704853e-24)
(0.00049919607 5.118091e-11 1.1583503e-24)
(0.99999999 4.5635966e-09 0)
(0.99993232 1.3802049e-08 0)
(0.99981153 2.1481438e-08 0)
(0.99967047 2.8142989e-08 0)
(0.99950894 3.6561111e-08 0)
(0.99932386 4.7304671e-08 0)
(0.99911324 6.0832822e-08 0)
(0.99887463 7.7997088e-08 0)
(0.99860445 9.997774e-08 0)
(0.99829803 1.2829065e-07 0)
(0.9979495 1.6492217e-07 0)
(0.99755157 2.1263561e-07 0)
(0.99709459 2.7515669e-07 0)
(0.99656638 3.5841601e-07 0)
(0.99594829 4.6939444e-07 0)
(0.99521981 6.2532793e-07 0)
(0.99433221 8.3298902e-07 0)
(0.99326622 1.1751508e-06 0)
(0.99182 1.5738123e-06 0)
(0.99015368 2.5906957e-06 0)
(0.98708256 3.3795081e-06 0)
(0.9842669 8.4579416e-06 0)
(0.97319158 6.2313344e-06 -1.0032288e-20)
(0.97408535 0.00061236162 6.7441327e-55)
(0.015555497 0.00061578095 -6.7417397e-55)
(0.0061882613 3.3474882e-06 0)
(0.0044088319 7.6562541e-07 -2.0929996e-22)
(0.0036225265 3.6757561e-07 0)
(0.0031675525 2.2520174e-07 0)
(0.00285504 1.5837024e-07 0)
(0.0026228226 1.1972954e-07 0)
(0.0024393191 9.5172768e-08 0)
(0.0022891692 7.7946864e-08 0)
(0.0021633421 6.5281505e-08 0)
(0.0020556794 5.5712678e-08 0)
(0.0019619942 4.8257289e-08 0)
(0.0018794065 4.2287069e-08 0)
(0.0018058317 3.7412515e-08 0)
(0.0017396887 3.3373865e-08 0)
(0.0016797573 2.9982108e-08 0)
(0.0016250873 2.7098819e-08 0)
(0.0015749215 2.4629071e-08 0)
(0.0015286237 2.2486411e-08 0)
(0.0014857313 2.0613028e-08 0)
(0.0014458006 1.8970963e-08 0)
(0.0014084917 1.7516723e-08 0)
(0.0013735108 1.6222992e-08 0)
(0.0013406086 1.5065823e-08 0)
(0.0013095718 1.4025617e-08 0)
(0.0012802172 1.3086526e-08 0)
(0.0012523848 1.223552e-08 0)
(0.001225935 1.1461437e-08 0)
(0.0012007456 1.0754859e-08 0)
(0.0011767088 1.0107663e-08 0)
(0.00115373 9.512845e-09 0)
(0.0011317255 8.9647062e-09 0)
(0.0011106197 8.4583982e-09 0)
(0.0010903451 7.9895057e-09 0)
(0.0010708415 7.5541715e-09 0)
(0.0010520545 7.149086e-09 0)
(0.0010339352 6.7712135e-09 0)
(0.0010164399 6.4177836e-09 0)
(0.00099952951 6.0865425e-09 0)
(0.00098316836 5.7756695e-09 0)
(0.0009673234 5.483401e-09 0)
(0.00095196502 5.2079774e-09 0)
(0.00093706683 4.9478269e-09 0)
(0.00092260523 4.7016125e-09 0)
(0.00090855889 4.4680724e-09 0)
(0.00089490928 4.2458886e-09 0)
(0.00088164091 4.0338664e-09 0)
(0.00086874079 3.8310323e-09 0)
(0.00085619802 3.6364503e-09 0)
(0.00084400437 3.4492369e-09 0)
(0.00083215378 3.2685764e-09 0)
(0.00082064285 3.0936118e-09 0)
(0.00080947114 2.9232799e-09 0)
(0.00079864298 2.75594e-09 0)
(0.00078817099 2.5902406e-09 0)
(0.00077807152 2.4254612e-09 0)
(0.00076836545 2.2607351e-09 0)
(0.00075907953 2.0952541e-09 0)
(0.00075024561 1.9280952e-09 0)
(0.00074190375 1.7573987e-09 0)
(0.00073410927 1.5804345e-09 0)
(0.00072693665 1.3951556e-09 0)
(0.00072047305 1.1981047e-09 0)
(0.0007148435 9.7420519e-10 0)
(0.00071031469 7.6397226e-10 0)
(0.0007066008 4.639607e-10 2.1868247e-24)
(0.0007051555 1.5493569e-10 -1.0982323e-24)
(0.00070482602 -1.3113699e-10 0)
(0.00070677618 -4.9553644e-10 0)
(0.00071106105 -8.7063166e-10 0)
(0.00071813116 -1.2751741e-09 0)
(0.00072833842 -1.6836218e-09 0)
(0.00074186276 -2.0563009e-09 0)
(0.00075852709 -2.3767035e-09 0)
(0.0007782561 -2.6360706e-09 0)
(0.00080067407 -2.755233e-09 0)
(0.00082428894 -2.6329684e-09 0)
(0.00084668204 -2.3253721e-09 0)
(0.00086686765 -1.8257157e-09 0)
(0.00088174916 -1.3443387e-09 0)
(0.00089401129 -9.8920835e-10 0)
(0.00090274255 -6.759968e-10 0)
(0.00090914733 -4.6676102e-10 0)
(0.00091378121 -3.15345e-10 0)
(0.00091703653 -2.0387819e-10 0)
(0.00091918423 -1.199442e-10 0)
(0.00092040618 -5.5553692e-11 0)
(0.00092083489 -3.2077591e-12 0)
(0.00092048369 4.2642334e-11 0)
(0.00091936507 8.2774787e-11 0)
(0.00091757548 1.1793163e-10 0)
(0.00091520116 1.4819716e-10 0)
(0.00091234295 1.7197875e-10 0)
(0.00090912891 1.8979965e-10 0)
(0.00090564145 2.0336321e-10 0)
(0.00090194855 2.1244627e-10 0)
(0.00089814038 2.1729449e-10 0)
(0.00089427626 2.1977519e-10 0)
(0.0008903805 2.2084685e-10 0)
(0.00088647857 2.2008619e-10 0)
(0.00088260967 2.1767025e-10 0)
(0.00087879301 2.1471719e-10 0)
(0.00087502839 2.1200006e-10 0)
(0.00087130769 2.0942059e-10 0)
(0.00086763417 2.067634e-10 0)
(0.00086400729 2.0368918e-10 0)
(0.00086044235 2.0484721e-10 0)
(0.0008567746 2.03011e-10 0)
(0.00085327478 2.223235e-10 0)
(0.00084892476 2.22993e-10 0)
(0.00084539218 2.4513656e-10 0)
(0.00084025515 1.4591319e-10 0)
(0.99999999 6.4867259e-09 1.088476e-24)
(0.99993226 1.962039e-08 0)
(0.99981132 3.0539677e-08 0)
(0.99967007 4.0011398e-08 0)
(0.99950832 5.197963e-08 0)
(0.99932298 6.7253579e-08 0)
(0.99911208 8.6486023e-08 0)
(0.99887316 1.1088733e-07 0)
(0.99860263 1.4213515e-07 0)
(0.99829581 1.8238416e-07 0)
(0.99794685 2.3445772e-07 0)
(0.99754843 3.0228343e-07 0)
(0.99709092 3.9115666e-07 0)
(0.99656211 5.0950658e-07 0)
(0.99594333 6.6725443e-07 0)
(0.99521409 8.8889737e-07 0)
(0.9943256 1.1840576e-06 0)
(0.9932586 1.6703773e-06 0)
(0.99181109 2.2369862e-06 0)
(0.99014338 3.6822022e-06 0)
(0.98707001 4.8032721e-06 0)
(0.98425233 1.202102e-05 0)
(0.97316937 8.8593684e-06 0)
(0.97405746 0.00086702213 -3.518489e-55)
(0.022034008 0.00087368105 3.5172489e-55)
(0.0087918489 6.9015367e-06 0)
(0.0062640664 1.5784483e-06 0)
(0.0051469764 7.571233e-07 0)
(0.0045005222 4.6388605e-07 0)
(0.0040564869 3.2622401e-07 0)
(0.0037265362 2.4662755e-07 0)
(0.0034658065 1.9604187e-07 0)
(0.0032524682 1.6055873e-07 0)
(0.0030736886 1.3446978e-07 0)
(0.0029207183 1.147591e-07 0)
(0.0027876082 9.9401908e-08 0)
(0.002670266 8.7104089e-08 0)
(0.0025657298 7.7063239e-08 0)
(0.002471753 6.874424e-08 0)
(0.0023866017 6.1757762e-08 0)
(0.002308926 5.581869e-08 0)
(0.0022376499 5.073137e-08 0)
(0.0021718698 4.6317848e-08 0)
(0.0021109279 4.2459056e-08 0)
(0.0020541941 3.9076668e-08 0)
(0.0020011854 3.6081193e-08 0)
(0.0019514845 3.3416337e-08 0)
(0.0019047368 3.1032778e-08 0)
(0.0018606396 2.8890144e-08 0)
(0.0018189324 2.6955789e-08 0)
(0.001779388 2.5202873e-08 0)
(0.0017418081 2.3608405e-08 0)
(0.001706019 2.2152984e-08 0)
(0.0016718674 2.0819881e-08 0)
(0.0016392191 1.9594668e-08 0)
(0.0016079549 1.8465605e-08 0)
(0.0015779677 1.7422706e-08 0)
(0.0015491615 1.6456876e-08 0)
(0.0015214507 1.5560169e-08 0)
(0.0014947581 1.472577e-08 0)
(0.0014690141 1.3947424e-08 0)
(0.0014441567 1.3219427e-08 0)
(0.0014201304 1.2537134e-08 0)
(0.0013968844 1.1896795e-08 0)
(0.0013743718 1.1294778e-08 0)
(0.0013525506 1.0727459e-08 0)
(0.0013313831 1.0191599e-08 0)
(0.001310836 9.6844445e-09 0)
(0.0012908789 9.2033968e-09 0)
(0.0012714855 8.745741e-09 0)
(0.0012526337 8.3090163e-09 0)
(0.0012343051 7.8912173e-09 0)
(0.0012164842 7.4904159e-09 0)
(0.0011991594 7.1047919e-09 0)
(0.001182322 6.7326654e-09 0)
(0.0011659671 6.3722706e-09 0)
(0.0011500943 6.0214174e-09 0)
(0.0011347095 5.676727e-09 0)
(0.0011198308 5.335416e-09 0)
(0.0011054814 4.9959986e-09 0)
(0.001091691 4.6566907e-09 0)
(0.0010784975 4.3158265e-09 0)
(0.0010659462 3.9715025e-09 0)
(0.0010540941 3.6198881e-09 0)
(0.0010430197 3.25536e-09 0)
(0.0010328289 2.8736999e-09 0)
(0.0010236457 2.4677842e-09 0)
(0.0010156476 2.0065755e-09 0)
(0.0010092134 1.5734838e-09 0)
(0.0010039377 9.5647155e-10 -1.1906755e-24)
(0.0010018844 3.188974e-10 0)
(0.0010014176 -2.7025737e-10 0)
(0.0010041892 -1.0209317e-09 0)
(0.0010102783 -1.7935672e-09 0)
(0.0010203246 -2.6268251e-09 0)
(0.0010348281 -3.4681061e-09 0)
(0.0010540442 -4.2357026e-09 0)
(0.0010777213 -4.8956088e-09 0)
(0.0011057522 -5.4297234e-09 0)
(0.0011376025 -5.6750276e-09 0)
(0.0011711525 -5.4231132e-09 0)
(0.0012029667 -4.7895192e-09 0)
(0.001231644 -3.7642055e-09 2.588002e-24)
(0.0012527874 -2.7689644e-09 0)
(0.0012702084 -2.0375106e-09 0)
(0.0012826139 -1.3924179e-09 0)
(0.001291714 -9.6144445e-10 0)
(0.0012982981 -6.4956506e-10 0)
(0.0013029236 -4.1996553e-10 0)
(0.0013059753 -2.4707752e-10 0)
(0.0013077117 -1.1444274e-10 0)
(0.0013083211 -6.6106532e-12 0)
(0.0013078223 8.7825484e-11 0)
(0.0013062331 1.704954e-10 0)
(0.0013036905 2.4291301e-10 0)
(0.0013003172 3.0525394e-10 0)
(0.0012962564 3.5424053e-10 0)
(0.0012916899 3.9094837e-10 0)
(0.001286735 4.188858e-10 0)
(0.0012814882 4.3759515e-10 0)
(0.0012760776 4.4758243e-10 0)
(0.0012705875 4.5269217e-10 0)
(0.0012650525 4.5489889e-10 0)
(0.0012595087 4.533321e-10 0)
(0.0012540118 4.4835637e-10 0)
(0.0012485891 4.4227354e-10 0)
(0.0012432404 4.3667604e-10 0)
(0.0012379541 4.3136177e-10 0)
(0.0012327348 4.2588793e-10 0)
(0.0012275818 4.1955511e-10 0)
(0.0012225168 4.2193719e-10 0)
(0.0012173059 4.1815122e-10 0)
(0.0012123334 4.5792297e-10 0)
(0.0012061538 4.597215e-10 0)
(0.0012011347 5.0513976e-10 0)
(0.001193836 3.0052408e-10 0)
(0.99999999 8.5085283e-09 0)
(0.99993219 2.5738755e-08 0)
(0.99981109 4.006684e-08 0)
(0.99966962 5.249502e-08 0)
(0.99950762 6.8197414e-08 0)
(0.999322 8.8236334e-08 0)
(0.99911078 1.1346822e-07 0)
(0.9988715 1.4548068e-07 0)
(0.99860057 1.8647431e-07 0)
(0.99829331 2.3927536e-07 0)
(0.99794386 3.075871e-07 0)
(0.99754491 3.9656103e-07 0)
(0.99708679 5.1314249e-07 0)
(0.9965573 6.6838694e-07 0)
(0.99593777 8.7530593e-07 0)
(0.99520766 1.1660289e-06 0)
(0.99431817 1.553171e-06 0)
(0.99325004 2.1910245e-06 0)
(0.99180109 2.9341633e-06 0)
(0.99013181 4.8295608e-06 0)
(0.98705593 6.2998245e-06 0)
(0.98423597 1.5766126e-05 0)
(0.9731445 1.162349e-05 0)
(0.97402628 0.0011326408 0)
(0.028797109 0.0011437794 0)
(0.011526159 1.2011633e-05 0)
(0.0082126398 2.7386966e-06 0)
(0.0067481808 1.3130937e-06 0)
(0.005900596 8.0456607e-07 0)
(0.0053184101 5.658069e-07 0)
(0.0048857991 4.2775235e-07 0)
(0.0045439528 3.4001309e-07 0)
(0.0042642436 2.7847091e-07 0)
(0.0040298448 2.3322223e-07 0)
(0.0038292853 1.9903571e-07 0)
(0.0036547654 1.7240004e-07 0)
(0.0035009193 1.5107075e-07 0)
(0.0033638632 1.3365602e-07 0)
(0.0032406516 1.1922767e-07 0)
(0.0031290111 1.0711046e-07 0)
(0.003027172 9.6809929e-08 0)
(0.0029337231 8.7986523e-08 0)
(0.0028474804 8.0331821e-08 0)
(0.0027675807 7.3639343e-08 0)
(0.0026931982 6.7773004e-08 0)
(0.0026236998 6.2577754e-08 0)
(0.0025585379 5.7955921e-08 0)
(0.0024972482 5.3821962e-08 0)
(0.0024394334 5.010586e-08 0)
(0.0023847521 4.6750989e-08 0)
(0.0023329064 4.3710801e-08 0)
(0.0022836363 4.0945419e-08 0)
(0.002236714 3.8421195e-08 0)
(0.0021919387 3.6109116e-08 0)
(0.0021491343 3.3984157e-08 0)
(0.0021081445 3.2025959e-08 0)
(0.0020688291 3.0217199e-08 0)
(0.002031062 2.8542104e-08 0)
(0.0019947311 2.6986896e-08 0)
(0.0019597351 2.553975e-08 0)
(0.0019259827 2.4189822e-08 0)
(0.0018933928 2.2927215e-08 0)
(0.0018618925 2.1743878e-08 0)
(0.0018314152 2.0633305e-08 0)
(0.0018018995 1.9589195e-08 0)
(0.0017732901 1.8605262e-08 0)
(0.001745538 1.7675891e-08 0)
(0.0017185991 1.6796306e-08 0)
(0.0016924338 1.5961999e-08 0)
(0.0016670074 1.5168262e-08 0)
(0.0016422913 1.4410828e-08 0)
(0.001618261 1.3686217e-08 0)
(0.0015948965 1.2991086e-08 0)
(0.0015721822 1.2322277e-08 0)
(0.001550107 1.1676877e-08 0)
(0.0015286645 1.1051823e-08 0)
(0.0015078538 1.0443316e-08 0)
(0.0014876832 9.8454982e-09 0)
(0.001468176 9.2535411e-09 0)
(0.0014493627 8.6648663e-09 0)
(0.0014312823 8.0763807e-09 0)
(0.0014139846 7.4851939e-09 0)
(0.0013975288 6.8880009e-09 0)
(0.0013819898 6.2781579e-09 0)
(0.0013674705 5.6459122e-09 0)
(0.0013541098 4.9839448e-09 0)
(0.0013420701 4.2798987e-09 0)
(0.0013315844 3.4799709e-09 0)
(0.0013231492 2.728747e-09 0)
(0.0013162336 1.6594853e-09 0)
(0.0013135418 5.5279401e-10 0)
(0.0013129313 -4.6901596e-10 0)
(0.0013165663 -1.7709798e-09 0)
(0.0013245509 -3.1110226e-09 0)
(0.0013377237 -4.5561515e-09 0)
(0.0013567399 -6.0151653e-09 0)
(0.0013819344 -7.3463754e-09 0)
(0.0014129775 -8.4907879e-09 0)
(0.0014497278 -9.4169302e-09 0)
(0.0014914843 -9.842155e-09 0)
(0.0015354682 -9.4051511e-09 0)
(0.0015771763 -8.30627e-09 0)
(0.0016147714 -6.5315323e-09 0)
(0.0016424919 -4.8022202e-09 0)
(0.0016653308 -3.5336795e-09 0)
(0.0016815957 -2.4149616e-09 0)
(0.0016935269 -1.667514e-09 0)
(0.0017021597 -1.1266143e-09 0)
(0.0017082245 -7.284059e-10 0)
(0.001712226 -4.2855428e-10 0)
(0.001714503 -1.9851264e-10 0)
(0.0017153023 -1.1483578e-11 0)
(0.0017146486 1.5230254e-10 0)
(0.0017125653 2.956875e-10 0)
(0.001709232 4.2128814e-10 0)
(0.0017048095 5.2940978e-10 0)
(0.0016994856 6.1437137e-10 0)
(0.0016934988 6.7803726e-10 0)
(0.0016870026 7.264897e-10 0)
(0.0016801238 7.5893864e-10 0)
(0.0016730302 7.7626174e-10 0)
(0.0016658323 7.8512401e-10 0)
(0.0016585756 7.8895028e-10 0)
(0.0016513073 7.8623311e-10 0)
(0.0016441005 7.7760455e-10 0)
(0.0016369911 7.6705471e-10 0)
(0.0016299786 7.5734545e-10 0)
(0.0016230479 7.4812703e-10 0)
(0.0016162052 7.3863245e-10 0)
(0.0016094494 7.2764851e-10 0)
(0.0016028089 7.3177347e-10 0)
(0.0015959773 7.2520406e-10 0)
(0.0015894581 7.9415988e-10 0)
(0.0015813574 7.9764684e-10 0)
(0.001574777 8.7629741e-10 -9.6236506e-24)
(0.0015652079 5.2115198e-10 1.4922418e-24)
(0.99999999 1.065959e-08 0)
(0.99993212 3.2250047e-08 0)
(0.99981082 5.0208043e-08 0)
(0.99966911 6.5784204e-08 0)
(0.99950683 8.5461759e-08 0)
(0.99932089 1.1057283e-07 0)
(0.99910931 1.4219064e-07 0)
(0.99886963 1.8230421e-07 0)
(0.99859825 2.3367046e-07 0)
(0.9982905 2.9983019e-07 0)
(0.9979405 3.8542277e-07 0)
(0.99754093 4.9690176e-07 0)
(0.99708213 6.4296756e-07 0)
(0.99655188 8.3746937e-07 0)
(0.99593149 1.0967054e-06 0)
(0.99520041 1.4609237e-06 0)
(0.9943098 1.9459199e-06 0)
(0.99324038 2.7449699e-06 0)
(0.99178982 3.6758829e-06 0)
(0.99011877 6.0500884e-06 0)
(0.98704006 7.8917347e-06 0)
(0.98421755 1.9749707e-05 0)
(0.97311654 1.4565851e-05 0)
(0.97399132 0.0014128749 0)
(0.035938779 0.0014300044 0)
(0.01443189 1.8830973e-05 0)
(0.010283587 4.3119452e-06 0)
(0.0084500085 2.0674896e-06 0)
(0.007388643 1.2668721e-06 0)
(0.0066596183 8.9092431e-07 0)
(0.0061178886 6.735405e-07 0)
(0.0056898258 5.3538085e-07 0)
(0.0053395739 4.384762e-07 0)
(0.0050460598 3.6722772e-07 0)
(0.0047949203 3.1339723e-07 0)
(0.0045763885 2.714565e-07 0)
(0.0043837448 2.3787151e-07 0)
(0.0042121256 2.1045052e-07 0)
(0.0040578425 1.8773188e-07 0)
(0.0039180489 1.6865237e-07 0)
(0.0037905283 1.5243349e-07 0)
(0.0036735137 1.3854023e-07 1.996254e-24)
(0.0035655233 1.2648733e-07 0)
(0.0034654748 1.1594972e-07 -8.9168916e-35)
(0.0033723352 1.0671271e-07 0)
(0.0032853111 9.8532444e-08 0)
(0.0032037173 9.1255067e-08 0)
(0.0031269721 8.4745883e-08 0)
(0.003054578 7.8894647e-08 0)
(0.0029861077 7.3612196e-08 0)
(0.0029211881 6.8825233e-08 0)
(0.0028594935 6.447097e-08 0)
(0.0028007388 6.0496427e-08 0)
(0.0027446726 5.685592e-08 0)
(0.0026910741 5.3510047e-08 0)
(0.002639748 5.042675e-08 0)
(0.0025905184 4.7578751e-08 0)
(0.0025432276 4.4941218e-08 0)
(0.0024977351 4.2492452e-08 0)
(0.0024539141 4.0213837e-08 0)
(0.0024116504 3.8088298e-08 0)
(0.0023708422 3.6100254e-08 0)
(0.0023313985 3.4237025e-08 0)
(0.0022932357 3.2488366e-08 0)
(0.002256277 3.0844358e-08 0)
(0.0022204532 2.9295101e-08 0)
(0.0021857027 2.7831757e-08 0)
(0.0021519706 2.6446802e-08 0)
(0.0021192071 2.513314e-08 0)
(0.0020873689 2.3883359e-08 0)
(0.00205642 2.2690738e-08 0)
(0.0020263299 2.1549799e-08 0)
(0.0019970734 2.0455278e-08 0)
(0.0019686312 1.9402202e-08 0)
(0.0019409891 1.8385983e-08 0)
(0.0019141393 1.7401799e-08 0)
(0.0018880807 1.6443667e-08 0)
(0.0018628235 1.5502365e-08 0)
(0.001838397 1.4570292e-08 0)
(0.0018148395 1.3643384e-08 0)
(0.0017921996 1.2716774e-08 0)
(0.0017705397 1.1785907e-08 0)
(0.0017499342 1.0845574e-08 0)
(0.0017304767 9.8853135e-09 0)
(0.0017122961 8.8897697e-09 0)
(0.0016955663 7.8474138e-09 0)
(0.0016804909 6.7387866e-09 0)
(0.0016673616 5.4792127e-09 0)
(0.0016567998 4.2962289e-09 0)
(0.0016481418 2.6127549e-09 0)
(0.0016447714 8.7003908e-10 0)
(0.001644009 -7.3897757e-10 0)
(0.0016485618 -2.7889645e-09 0)
(0.0016585615 -4.8989665e-09 0)
(0.0016750577 -7.1743458e-09 0)
(0.0016988705 -9.4715457e-09 0)
(0.0017304193 -1.1567504e-08 0)
(0.001769291 -1.3369292e-08 0)
(0.0018153082 -1.4827251e-08 0)
(0.0018675923 -1.5496471e-08 0)
(0.0019226642 -1.4808265e-08 0)
(0.0019748865 -1.3078021e-08 0)
(0.0020219583 -1.0284334e-08 0)
(0.002056669 -7.5611898e-09 -2.3223231e-24)
(0.0020852658 -5.5638818e-09 0)
(0.0021056328 -3.8025514e-09 0)
(0.0021205733 -2.6256656e-09 0)
(0.0021313837 -1.773998e-09 0)
(0.0021389786 -1.1469904e-09 0)
(0.0021439898 -6.7485001e-10 0)
(0.0021468417 -3.1262496e-10 0)
(0.002147843 -1.8123861e-11 0)
(0.002147025 2.3977475e-10 0)
(0.0021444168 4.6555151e-10 0)
(0.0021402432 6.6332232e-10 0)
(0.0021347057 8.3356753e-10 0)
(0.0021280394 9.673471e-10 0)
(0.0021205431 1.0675958e-09 0)
(0.002112409 1.143886e-09 0)
(0.0021037957 1.1949796e-09 0)
(0.0020949134 1.2222587e-09 0)
(0.0020859006 1.2362134e-09 0)
(0.002076814 1.2422368e-09 0)
(0.002067713 1.237959e-09 0)
(0.0020586891 1.2243747e-09 0)
(0.0020497869 1.2077634e-09 0)
(0.0020410062 1.1924737e-09 0)
(0.0020323279 1.1779564e-09 0)
(0.0020237598 1.1630049e-09 0)
(0.0020153006 1.1457094e-09 0)
(0.0020069857 1.1521931e-09 0)
(0.0019984319 1.1418469e-09 0)
(0.0019902688 1.2503772e-09 0)
(0.001980127 1.2558848e-09 0)
(0.0019718872 1.3799825e-09 0)
(0.0019599051 8.2029535e-10 -8.5166875e-25)
(0.99999999 1.2972585e-08 0)
(0.99993203 3.9253656e-08 0)
(0.99981052 6.1118702e-08 0)
(0.99966854 8.0082889e-08 0)
(0.99950594 1.0403762e-07 0)
(0.99931964 1.3460577e-07 0)
(0.99910764 1.7309383e-07 0)
(0.99886751 2.2192241e-07 0)
(0.99859562 2.844467e-07 0)
(0.99828731 3.6497582e-07 0)
(0.99793668 4.6915567e-07 0)
(0.99753642 6.0483969e-07 0)
(0.99707685 7.8261511e-07 0)
(0.99654575 1.0193345e-06 0)
(0.99592438 1.3348289e-06 0)
(0.99519221 1.7780737e-06 0)
(0.99430033 2.3682804e-06 0)
(0.99322946 3.3406309e-06 0)
(0.99177707 4.4734032e-06 0)
(0.99010403 7.3622722e-06 0)
(0.98702213 9.6031001e-06 0)
(0.98419674 2.4031983e-05 0)
(0.97308501 1.7731546e-05 0)
(0.97395204 0.0017114844 0)
(0.043556219 0.0017364357 0)
(0.017552276 2.7812614e-05 0)
(0.012507765 6.3928567e-06 0)
(0.010277831 3.0655581e-06 0)
(0.0089868453 1.8785581e-06 0)
(0.0081001032 1.3210949e-06 0)
(0.0074411683 9.987477e-07 0)
(0.0069205034 7.9387211e-07 0)
(0.006494485 6.5017857e-07 0)
(0.006137478 5.4452947e-07 0)
(0.0058320134 4.6470747e-07 0)
(0.0055662115 4.0251626e-07 0)
(0.0053318983 3.5271566e-07 0)
(0.0051231577 3.1205539e-07 0)
(0.0049355034 2.7836793e-07 0)
(0.0047654729 2.5007667e-07 0)
(0.0046103702 2.2602738e-07 0)
(0.0044680458 2.0542619e-07 0)
(0.0043366983 1.8755411e-07 0)
(0.0042150099 1.7192919e-07 9.6186804e-35)
(0.004101725 1.582325e-07 0)
(0.0039958784 1.4610284e-07 0)
(0.0038966367 1.3531199e-07 0)
(0.0038032922 1.2566022e-07 0)
(0.0037152401 1.1698406e-07 0)
(0.0036319604 1.0915129e-07 0)
(0.0035529993 1.0205322e-07 0)
(0.0034779609 9.5596768e-08 0)
(0.0034064982 8.9703358e-08 0)
(0.0033383055 8.4305254e-08 0)
(0.0032731143 7.9344035e-08 0)
(0.0032106869 7.4772161e-08 0)
(0.0031508094 7.0549184e-08 0)
(0.0030932902 6.6638284e-08 0)
(0.0030379581 6.3007288e-08 0)
(0.0029846592 5.9628589e-08 0)
(0.0029332543 5.647687e-08 0)
(0.0028836197 5.3529029e-08 0)
(0.0028356447 5.0766263e-08 0)
(0.0027892277 4.817338e-08 0)
(0.0027442751 4.5735671e-08 0)
(0.002700703 4.3438459e-08 0)
(0.0026584363 4.1268636e-08 0)
(0.0026174082 3.9215048e-08 0)
(0.0025775582 3.7267171e-08 0)
(0.0025388337 3.5414017e-08 0)
(0.0025011907 3.364562e-08 0)
(0.0024645924 3.1953857e-08 0)
(0.0024290078 3.0330919e-08 0)
(0.0023944137 2.8769436e-08 0)
(0.0023607928 2.7262602e-08 0)
(0.0023281355 2.5803266e-08 0)
(0.0022964405 2.4382557e-08 0)
(0.0022657202 2.2986804e-08 0)
(0.0022360104 2.1604735e-08 0)
(0.0022073574 2.0230323e-08 0)
(0.0021798205 1.8856349e-08 0)
(0.0021534757 1.7476059e-08 0)
(0.0021284133 1.608172e-08 0)
(0.0021047471 1.4657818e-08 0)
(0.0020826343 1.3181585e-08 0)
(0.0020622862 1.1635918e-08 0)
(0.0020439505 9.9919611e-09 0)
(0.002027982 8.1242197e-09 0)
(0.0020151365 6.369895e-09 0)
(0.0020046076 3.8736569e-09 0)
(0.0020005086 1.2895609e-09 0)
(0.0019995836 -1.0964674e-09 0)
(0.0020051226 -4.136091e-09 0)
(0.0020172872 -7.2648159e-09 0)
(0.0020373532 -1.0638626e-08 0)
(0.002066318 -1.4044732e-08 0)
(0.0021046913 -1.7152432e-08 0)
(0.0021519712 -1.9823865e-08 0)
(0.0022079407 -2.198525e-08 0)
(0.0022715305 -2.2977091e-08 0)
(0.0023385094 -2.1956474e-08 0)
(0.0024020229 -1.9390918e-08 0)
(0.0024592715 -1.5248707e-08 0)
(0.0025014896 -1.1211403e-08 -2.7033224e-24)
(0.0025362701 -8.2499356e-09 0)
(0.0025610432 -5.6384913e-09 0)
(0.0025792161 -3.893433e-09 0)
(0.0025923657 -2.6306017e-09 0)
(0.0026016043 -1.7008709e-09 0)
(0.0026077004 -1.0007739e-09 0)
(0.00261117 -4.6365196e-10 0)
(0.0026123886 -2.6948613e-11 0)