# Region        : all region0
# Cells         : 13056
# Volume        : 2.33333000e+00
# Time          	max(U)
1               	(1.00005164e+00 1.58762538e-04 1.74810766e-15)
2               	(1.00011465e+00 3.63561097e-04 1.75490165e-15)
3               	(1.00015718e+00 5.26162483e-04 3.98764201e-16)
4               	(1.00019891e+00 6.38549143e-04 1.52455317e-18)
5               	(1.00026584e+00 7.27224196e-04 1.49772140e-18)
6               	(1.00034548e+00 8.12925339e-04 1.46457039e-18)
7               	(1.00042565e+00 9.01575012e-04 3.05887450e-16)
8               	(1.00050309e+00 9.91511218e-04 2.04985290e-16)
9               	(1.00057707e+00 1.08064160e-03 1.90038332e-16)
10              	(1.00064839e+00 1.16869302e-03 1.76999007e-16)
11              	(1.00072132e+00 1.25648541e-03 1.66640816e-16)
12              	(1.00079288e+00 1.34486869e-03 1.58762504e-16)
13              	(1.00086392e+00 1.43432086e-03 1.52422593e-16)
14              	(1.00093399e+00 1.52509264e-03 1.46820450e-16)
15              	(1.00100340e+00 1.61733438e-03 1.41585682e-16)
16              	(1.00107250e+00 1.71117790e-03 1.36636050e-16)
17              	(1.00114446e+00 1.80691001e-03 1.31978890e-16)
18              	(1.00121725e+00 1.90457820e-03 1.27613956e-16)
19              	(1.00129042e+00 2.00436909e-03 1.23520726e-16)
20              	(1.00136426e+00 2.10655591e-03 1.19672824e-16)
21              	(1.00143897e+00 2.21107619e-03 1.16047883e-16)
22              	(1.00151474e+00 2.31803493e-03 1.12628540e-16)
23              	(1.00159168e+00 2.42787590e-03 1.09400014e-16)
24              	(1.00166987e+00 2.54039838e-03 1.06348363e-16)
25              	(1.00174941e+00 2.65564776e-03 1.03460124e-16)
26              	(1.00183034e+00 2.77388290e-03 1.00722592e-16)
27              	(1.00191266e+00 2.89546784e-03 9.81241223e-17)
28              	(1.00199636e+00 3.02002605e-03 9.56541529e-17)
29              	(1.00208140e+00 3.14762588e-03 9.33031075e-17)
30              	(1.00216775e+00 3.27867053e-03 9.10622665e-17)
31              	(1.00225535e+00 3.41350546e-03 8.89237046e-17)
32              	(1.00234412e+00 3.55155597e-03 8.68802447e-17)
33              	(1.00243398e+00 3.69288375e-03 8.49253483e-17)
34              	(1.00252481e+00 3.83771142e-03 8.30530500e-17)
35              	(1.00261649e+00 3.98712748e-03 8.12579052e-17)
36              	(1.00270889e+00 4.13991540e-03 7.95349436e-17)
37              	(1.00280187e+00 4.29612861e-03 7.78796218e-17)
38              	(1.00289528e+00 4.45583661e-03 7.62877806e-17)
39              	(1.00298897e+00 4.61970931e-03 7.47556057e-17)
40              	(1.00308285e+00 4.78822906e-03 7.32795928e-17)
41              	(1.00317682e+00 4.96019930e-03 7.18565168e-17)
42              	(1.00327075e+00 5.13563385e-03 7.04834052e-17)
43              	(1.00336449e+00 5.31458665e-03 6.91575127e-17)
44              	(1.00346589e+00 5.49697537e-03 6.78763006e-17)
45              	(1.00356967e+00 5.68489680e-03 6.66374172e-17)
46              	(1.00367311e+00 5.87643622e-03 6.54386808e-17)
47              	(1.00377647e+00 6.07132515e-03 6.42780648e-17)
48              	(1.00387980e+00 6.26948816e-03 6.31536833e-17)
49              	(1.00398304e+00 6.47094879e-03 6.20637792e-17)
50              	(1.00408613e+00 6.67560710e-03 6.10067128e-17)
51              	(1.00419598e+00 6.88384038e-03 5.99809530e-17)
52              	(1.00431725e+00 7.09726176e-03 5.89850673e-17)
53              	(1.00443905e+00 7.31361951e-03 5.80177140e-17)
54              	(1.00456128e+00 7.53304351e-03 5.70776356e-17)
55              	(1.00468382e+00 7.75529659e-03 5.61636512e-17)
56              	(1.00480654e+00 7.98025168e-03 5.52746512e-17)
57              	(1.00492929e+00 8.20795080e-03 5.44095916e-17)
58              	(1.00505191e+00 8.43822411e-03 5.35674892e-17)
59              	(1.00517430e+00 8.67086536e-03 5.27474171e-17)
60              	(1.00529633e+00 8.90602570e-03 5.19485004e-17)
61              	(1.00541780e+00 9.14630618e-03 5.11699131e-17)
62              	(1.00553855e+00 9.38870608e-03 5.04108746e-17)
63              	(1.00565843e+00 9.63316816e-03 4.96706456e-17)
64              	(1.00577738e+00 9.87959008e-03 4.89485256e-17)
65              	(1.00589533e+00 1.01278728e-02 4.82438513e-17)
66              	(1.00601204e+00 1.03781228e-02 4.75559929e-17)
67              	(1.00612736e+00 1.06300764e-02 4.68843525e-17)
68              	(1.00624123e+00 1.08836073e-02 4.62283622e-17)
69              	(1.00635357e+00 1.11387662e-02 4.55874826e-17)
70              	(1.00646418e+00 1.13952643e-02 4.49611996e-17)
71              	(1.00657267e+00 1.16529643e-02 4.43490233e-17)
72              	(1.00667895e+00 1.19117623e-02 4.37504870e-17)
73              	(1.00678305e+00 1.21715578e-02 4.31651451e-17)
74              	(1.00688539e+00 1.24322332e-02 4.25925738e-17)
75              	(1.00698559e+00 1.26965056e-02 4.20323683e-17)
76              	(1.00708351e+00 1.29619782e-02 4.14841418e-17)
77              	(1.00717925e+00 1.32281207e-02 4.09475234e-17)
78              	(1.00727268e+00 1.34948754e-02 4.04221577e-17)
79              	(1.00736371e+00 1.37621986e-02 3.99077054e-17)
80              	(1.00745191e+00 1.40301085e-02 3.94038412e-17)
81              	(1.00753732e+00 1.42985735e-02 3.89102560e-17)
82              	(1.00762000e+00 1.45674911e-02 3.84266524e-17)
83              	(1.00770001e+00 1.48367130e-02 3.79527433e-17)
84              	(1.00777730e+00 1.51060705e-02 3.74882526e-17)
85              	(1.00785177e+00 1.53754550e-02 3.70329132e-17)
86              	(1.00792344e+00 1.56447960e-02 3.65864733e-17)
87              	(1.00799238e+00 1.59140064e-02 3.61486937e-17)
88              	(1.00805899e+00 1.61831770e-02 3.57193413e-17)
89              	(1.00812323e+00 1.64522755e-02 3.52981889e-17)
90              	(1.00818501e+00 1.67210928e-02 3.48850153e-17)
91              	(1.00824425e+00 1.69895825e-02 3.44796042e-17)
92              	(1.00830867e+00 1.72577023e-02 3.40817630e-17)
93              	(1.00837091e+00 1.75254226e-02 3.36913058e-17)
94              	(1.00843039e+00 1.77926670e-02 3.33080456e-17)
95              	(1.00848742e+00 1.80593745e-02 3.29317960e-17)
96              	(1.00854213e+00 1.83254802e-02 3.25623732e-17)
97              	(1.00859459e+00 1.85909429e-02 3.21996056e-17)
98              	(1.00864488e+00 1.88557202e-02 3.18433457e-17)
99              	(1.00869315e+00 1.91197282e-02 3.14934464e-17)
100             	(1.00873949e+00 1.93829523e-02 3.11497541e-17)
101             	(1.00878402e+00 1.96484190e-02 3.08121165e-17)
102             	(1.00882692e+00 1.99134336e-02 3.04803555e-17)
103             	(1.00886812e+00 2.01776334e-02 3.01543575e-17)
104             	(1.00890739e+00 2.04408860e-02 2.98340154e-17)
105             	(1.00894458e+00 2.07033759e-02 2.95192067e-17)
106             	(1.00897905e+00 2.09650675e-02 2.92098032e-17)
107             	(1.00901100e+00 2.12258690e-02 2.89056224e-17)
108             	(1.00904041e+00 2.14857109e-02 2.86065553e-17)
109             	(1.00906718e+00 2.17436922e-02 2.83125291e-17)
110             	(1.00909137e+00 2.19996693e-02 2.80234581e-17)
111             	(1.00911310e+00 2.22546029e-02 2.84678943e-17)
112             	(1.00913251e+00 2.25086701e-02 2.89189076e-17)
113             	(1.00914931e+00 2.27618906e-02 2.93751025e-17)
114             	(1.00916350e+00 2.30141949e-02 2.98348870e-17)
115             	(1.00917530e+00 2.32654773e-02 3.02962699e-17)
116             	(1.00918481e+00 2.35156127e-02 3.07600926e-17)
117             	(1.00919210e+00 2.37646636e-02 3.12231144e-17)
118             	(1.00919704e+00 2.40126697e-02 3.16884609e-17)
119             	(1.00919965e+00 2.42595740e-02 3.21558529e-17)
120             	(1.00919999e+00 2.45053409e-02 3.26059076e-17)
121             	(1.00919821e+00 2.47499181e-02 3.30528390e-17)
122             	(1.00919451e+00 2.49932673e-02 3.35025154e-17)
123             	(1.00918901e+00 2.52353505e-02 3.39588571e-17)
124             	(1.00918176e+00 2.54761507e-02 3.44176965e-17)
125             	(1.00917263e+00 2.57157201e-02 3.48772027e-17)
126             	(1.00916164e+00 2.59541024e-02 3.53443574e-17)
127             	(1.00914880e+00 2.61912102e-02 3.58133526e-17)
128             	(1.00913448e+00 2.64270067e-02 3.62815233e-17)
129             	(1.00911941e+00 2.66614648e-02 3.67495673e-17)
130             	(1.00910379e+00 2.68946299e-02 3.72173975e-17)
131             	(1.00908761e+00 2.71264697e-02 3.76844587e-17)
132             	(1.00907066e+00 2.73569704e-02 3.81472420e-17)
133             	(1.00905274e+00 2.75861262e-02 3.86076977e-17)
134             	(1.00903371e+00 2.78139679e-02 3.90691030e-17)
135             	(1.00901399e+00 2.80407174e-02 3.95325402e-17)
136             	(1.00899307e+00 2.82661651e-02 3.99764438e-17)
137             	(1.00897093e+00 2.84902414e-02 4.04115242e-17)
138             	(1.00894759e+00 2.87129288e-02 4.08447477e-17)
139             	(1.00892309e+00 2.89342280e-02 4.12774813e-17)
140             	(1.00889738e+00 2.91541494e-02 4.17093033e-17)
141             	(1.00887024e+00 2.93727015e-02 4.21399168e-17)
142             	(1.00884177e+00 2.95898815e-02 4.25719115e-17)
143             	(1.00881215e+00 2.98056916e-02 4.30071021e-17)
144             	(1.00878125e+00 3.00201349e-02 4.34482194e-17)
145             	(1.00874893e+00 3.02331907e-02 4.38863339e-17)
146             	(1.00871520e+00 3.04448431e-02 4.43203604e-17)
147             	(1.00868011e+00 3.06550895e-02 4.47527075e-17)
148             	(1.00864386e+00 3.08639084e-02 4.51871212e-17)
149             	(1.00860649e+00 3.10713135e-02 4.56210711e-17)
150             	(1.00856802e+00 3.12773215e-02 4.60527585e-17)
151             	(1.00852843e+00 3.14819452e-02 4.64798958e-17)
152             	(1.00848775e+00 3.16851905e-02 4.69048757e-17)
153             	(1.00844606e+00 3.18871097e-02 4.73048781e-17)
154             	(1.00840354e+00 3.20876810e-02 4.77055526e-17)
155             	(1.00836013e+00 3.22892639e-02 4.81101175e-17)
156             	(1.00831576e+00 3.24898662e-02 4.85150376e-17)
157             	(1.00827058e+00 3.26891818e-02 4.89147151e-17)
158             	(1.00822454e+00 3.28871569e-02 4.93138165e-17)
159             	(1.00817757e+00 3.30837829e-02 4.97160753e-17)
160             	(1.00812984e+00 3.32791159e-02 5.01170176e-17)
161             	(1.00808158e+00 3.34732052e-02 5.05156373e-17)
162             	(1.00803320e+00 3.36660690e-02 5.09113387e-17)
163             	(1.00798468e+00 3.38576990e-02 5.13049348e-17)
164             	(1.00793581e+00 3.40480743e-02 5.16954301e-17)
165             	(1.00788648e+00 3.42371533e-02 5.20863874e-17)
166             	(1.00783659e+00 3.44249421e-02 5.24748696e-17)
167             	(1.00778609e+00 3.46114245e-02 5.28617743e-17)
168             	(1.00773491e+00 3.47965928e-02 5.32471190e-17)
169             	(1.00768308e+00 3.49804684e-02 5.36287835e-17)
170             	(1.00763126e+00 3.51631208e-02 5.39894910e-17)
171             	(1.00757995e+00 3.53445309e-02 5.43466954e-17)
172             	(1.00752925e+00 3.55246893e-02 5.47009439e-17)
173             	(1.00747906e+00 3.57035942e-02 5.50531839e-17)
174             	(1.00742912e+00 3.58812489e-02 5.54026770e-17)
175             	(1.00737918e+00 3.60576530e-02 5.57476306e-17)
176             	(1.00732901e+00 3.62328154e-02 5.60902747e-17)
177             	(1.00727841e+00 3.64067373e-02 5.64322723e-17)
178             	(1.00722728e+00 3.65794314e-02 5.67740228e-17)
179             	(1.00717555e+00 3.67508987e-02 5.71153684e-17)
180             	(1.00713294e+00 3.69211466e-02 5.74551606e-17)
181             	(1.00712326e+00 3.70901762e-02 5.77941638e-17)
182             	(1.00712367e+00 3.72580570e-02 5.81347337e-17)
183             	(1.00712391e+00 3.74248469e-02 5.84732870e-17)
184             	(1.00712410e+00 3.75905301e-02 5.88087307e-17)
185             	(1.00712424e+00 3.77550728e-02 5.91418049e-17)
186             	(1.00713180e+00 3.79184458e-02 5.94716078e-17)
187             	(1.00717780e+00 3.80807486e-02 5.97994539e-17)
188             	(1.00719725e+00 3.82418381e-02 6.01286015e-17)
189             	(1.00720718e+00 3.84017403e-02 6.04394359e-17)
190             	(1.00721347e+00 3.85604045e-02 6.07505107e-17)
191             	(1.00721847e+00 3.87178623e-02 6.10602769e-17)
192             	(1.00722314e+00 3.88741248e-02 6.13694234e-17)
193             	(1.00722787e+00 3.90291924e-02 6.16768789e-17)
194             	(1.00723297e+00 3.91830802e-02 6.19782096e-17)
195             	(1.00723890e+00 3.93357895e-02 6.22725121e-17)
196             	(1.00724512e+00 3.94873143e-02 6.25620438e-17)
197             	(1.00725092e+00 3.96376610e-02 6.28489673e-17)
198             	(1.00725619e+00 3.97868375e-02 6.31320984e-17)
199             	(1.00726071e+00 3.99348494e-02 6.34130861e-17)
200             	(1.00726514e+00 4.00816910e-02 6.36924863e-17)
201             	(1.00726973e+00 4.02274204e-02 6.39705048e-17)
202             	(1.00727477e+00 4.03720243e-02 6.42462791e-17)
203             	(1.00727993e+00 4.05155050e-02 6.45206170e-17)
204             	(1.00728538e+00 4.06578704e-02 6.47928283e-17)
205             	(1.00729061e+00 4.07991185e-02 6.50640140e-17)
206             	(1.00729548e+00 4.09392441e-02 6.53364476e-17)
207             	(1.00730014e+00 4.10782609e-02 6.56091114e-17)
208             	(1.00730480e+00 4.12161860e-02 6.58781667e-17)
209             	(1.00730943e+00 4.13530301e-02 6.61417532e-17)
210             	(1.00731334e+00 4.14887968e-02 6.64075643e-17)
211             	(1.00731684e+00 4.16235043e-02 6.66737045e-17)
212             	(1.00732010e+00 4.17571704e-02 6.69350475e-17)
213             	(1.00732271e+00 4.18898452e-02 6.71850745e-17)
214             	(1.00732422e+00 4.20215278e-02 6.74298837e-17)
215             	(1.00732453e+00 4.21522004e-02 6.76718590e-17)
216             	(1.00732371e+00 4.22818558e-02 6.79121991e-17)
217             	(1.00732202e+00 4.24104984e-02 6.81497174e-17)
218             	(1.00731972e+00 4.25381331e-02 6.83835614e-17)
219             	(1.00731688e+00 4.26647678e-02 6.86124867e-17)
220             	(1.00731354e+00 4.27904063e-02 6.88374814e-17)
221             	(1.00730997e+00 4.29150489e-02 6.90607417e-17)
222             	(1.00730656e+00 4.30387178e-02 6.92800122e-17)
223             	(1.00730341e+00 4.31614097e-02 6.94974852e-17)
224             	(1.00730050e+00 4.32831264e-02 6.97126095e-17)
225             	(1.00729093e+00 4.34038838e-02 6.99256580e-17)
226             	(1.00727834e+00 4.35237108e-02 7.01372286e-17)
227             	(1.00726575e+00 4.36425768e-02 7.03504945e-17)
228             	(1.00725385e+00 4.37605665e-02 7.05572502e-17)
229             	(1.00724266e+00 4.38777222e-02 7.07580433e-17)
230             	(1.00723170e+00 4.39940090e-02 7.09568624e-17)
231             	(1.00722077e+00 4.41093899e-02 7.11514863e-17)
232             	(1.00720963e+00 4.42238444e-02 7.13432856e-17)
233             	(1.00719825e+00 4.43373700e-02 7.15319779e-17)
234             	(1.00718690e+00 4.44499301e-02 7.17199689e-17)
235             	(1.00717561e+00 4.45615408e-02 7.19069152e-17)
236             	(1.00716427e+00 4.46722534e-02 7.20911612e-17)
237             	(1.00715259e+00 4.47820109e-02 7.22740698e-17)
238             	(1.00714047e+00 4.48907848e-02 7.24569884e-17)
239             	(1.00712804e+00 4.49986127e-02 7.26392875e-17)
240             	(1.00711541e+00 4.51055390e-02 7.28212146e-17)
241             	(1.00710264e+00 4.52115918e-02 7.30026888e-17)
242             	(1.00708982e+00 4.53168440e-02 7.31841666e-17)
243             	(1.00707706e+00 4.54213062e-02 7.33646710e-17)
244             	(1.00706438e+00 4.55249353e-02 7.35434521e-17)
245             	(1.00705186e+00 4.56277193e-02 7.37190527e-17)
246             	(1.00703936e+00 4.57296686e-02 7.38930625e-17)
247             	(1.00702658e+00 4.58308125e-02 7.40590353e-17)
248             	(1.00701327e+00 4.59311412e-02 7.42254168e-17)
249             	(1.00699956e+00 4.60306599e-02 7.43919906e-17)
250             	(1.00698555e+00 4.61293796e-02 7.45585060e-17)
251             	(1.00697131e+00 4.62273098e-02 7.47247379e-17)
252             	(1.00695686e+00 4.63244636e-02 7.48899508e-17)
253             	(1.00694229e+00 4.64208413e-02 7.50541125e-17)
254             	(1.00692764e+00 4.65164401e-02 7.52171503e-17)
255             	(1.00691290e+00 4.66112537e-02 7.53782499e-17)
256             	(1.00689801e+00 4.67052942e-02 7.55381070e-17)
257             	(1.00688288e+00 4.67985767e-02 7.56967953e-17)
258             	(1.00686745e+00 4.68911165e-02 7.58546592e-17)
259             	(1.00685172e+00 4.69829241e-02 7.60122514e-17)
260             	(1.00683599e+00 4.70740065e-02 7.61695005e-17)
261             	(1.00681988e+00 4.71643708e-02 7.63250975e-17)
262             	(1.00680302e+00 4.72540185e-02 7.64793796e-17)
263             	(1.00678590e+00 4.73429470e-02 7.66328542e-17)
264             	(1.00676860e+00 4.74311627e-02 7.67840895e-17)
265             	(1.00675116e+00 4.75186661e-02 7.69363269e-17)
266             	(1.00673368e+00 4.76054616e-02 7.70894784e-17)
267             	(1.00671620e+00 4.76915685e-02 7.72423816e-17)
268             	(1.00669878e+00 4.77770015e-02 7.73944570e-17)
269             	(1.00669460e+00 4.78617526e-02 7.75457197e-17)
270             	(1.00669002e+00 4.79458104e-02 7.76974015e-17)
271             	(1.00667930e+00 4.80297925e-02 7.78478859e-17)
272             	(1.00666741e+00 4.81141055e-02 7.79966091e-17)
273             	(1.00665591e+00 4.81977468e-02 7.81449587e-17)
274             	(1.00664501e+00 4.82807634e-02 7.82952629e-17)
275             	(1.00665520e+00 4.83631607e-02 7.84416679e-17)
276             	(1.00666568e+00 4.84449123e-02 7.85844609e-17)
277             	(1.00667314e+00 4.85259961e-02 7.87242408e-17)
278             	(1.00667898e+00 4.86064054e-02 7.88612072e-17)
279             	(1.00668324e+00 4.86861702e-02 7.89953801e-17)
280             	(1.00668624e+00 4.87652252e-02 7.91253856e-17)
281             	(1.00668827e+00 4.88434925e-02 7.92517708e-17)
282             	(1.00668952e+00 4.89210058e-02 7.93758833e-17)
283             	(1.00669010e+00 4.89978367e-02 7.94986160e-17)
284             	(1.00669012e+00 4.90740185e-02 7.96201094e-17)
285             	(1.00668965e+00 4.91495572e-02 7.97407700e-17)
286             	(1.00668878e+00 4.92244548e-02 7.98605256e-17)
287             	(1.00668765e+00 4.92987125e-02 7.99790699e-17)
288             	(1.00668634e+00 4.93723330e-02 8.00964601e-17)
289             	(1.00668493e+00 4.94453236e-02 8.02123813e-17)
290             	(1.00668341e+00 4.95176917e-02 8.03269280e-17)
291             	(1.00668055e+00 4.95894473e-02 8.04405177e-17)
292             	(1.00667566e+00 4.96606010e-02 8.05522221e-17)
293             	(1.00666997e+00 4.97311545e-02 8.06614964e-17)
294             	(1.00666393e+00 4.98011187e-02 8.07688152e-17)
295             	(1.00665773e+00 4.98704978e-02 8.08746984e-17)
296             	(1.00665142e+00 4.99392870e-02 8.09797536e-17)
297             	(1.00664502e+00 5.00073065e-02 8.10800773e-17)
298             	(1.00663845e+00 5.00746484e-02 8.11793033e-17)
299             	(1.00663163e+00 5.01413574e-02 8.12784437e-17)
300             	(1.00662450e+00 5.02074682e-02 8.13769049e-17)
301             	(1.00661699e+00 5.02729955e-02 8.14756064e-17)
302             	(1.00660919e+00 5.03379498e-02 8.15736995e-17)
303             	(1.00660129e+00 5.04023387e-02 8.16708294e-17)
304             	(1.00659351e+00 5.04661658e-02 8.17667560e-17)
305             	(1.00658597e+00 5.05294346e-02 8.18614288e-17)
306             	(1.00657870e+00 5.05921353e-02 8.19546680e-17)
307             	(1.00657167e+00 5.06542642e-02 8.20467283e-17)
308             	(1.00656482e+00 5.07158377e-02 8.21379423e-17)
309             	(1.00655808e+00 5.07768775e-02 8.22284582e-17)
310             	(1.00655139e+00 5.08373871e-02 8.23180831e-17)
311             	(1.00654472e+00 5.08973709e-02 8.24058880e-17)
312             	(1.00653797e+00 5.09568304e-02 8.18596040e-17)
313             	(1.00653110e+00 5.10156294e-02 8.17211666e-17)
314             	(1.00652392e+00 5.10738026e-02 8.16125031e-17)
315             	(1.00651621e+00 5.11314021e-02 8.15034795e-17)
316             	(1.00650804e+00 5.11884615e-02 8.13954146e-17)
317             	(1.00649950e+00 5.12450030e-02 8.12883423e-17)
318             	(1.00649284e+00 5.13010399e-02 8.11819997e-17)
319             	(1.00649791e+00 5.13565817e-02 8.10734973e-17)
320             	(1.00650298e+00 5.14116312e-02 8.09650567e-17)
321             	(1.00650830e+00 5.14661920e-02 8.08569516e-17)
322             	(1.00651373e+00 5.15202692e-02 8.07491410e-17)
323             	(1.00651917e+00 5.15738680e-02 8.06422357e-17)
324             	(1.00652453e+00 5.16269936e-02 8.05360947e-17)
325             	(1.00652981e+00 5.16796499e-02 8.04338065e-17)
326             	(1.00653502e+00 5.17318474e-02 8.03328608e-17)
327             	(1.00654018e+00 5.17835911e-02 8.02319397e-17)
328             	(1.00654529e+00 5.18347969e-02 8.01345415e-17)
329             	(1.00655033e+00 5.18854608e-02 8.00377564e-17)
330             	(1.00655528e+00 5.19356134e-02 7.99404792e-17)
331             	(1.00656014e+00 5.19852805e-02 7.98437372e-17)
332             	(1.00656489e+00 5.20344794e-02 7.97476879e-17)
333             	(1.00656954e+00 5.20832218e-02 7.96522558e-17)
334             	(1.00657462e+00 5.21315173e-02 7.95561120e-17)
335             	(1.00658003e+00 5.21793752e-02 7.94592610e-17)
336             	(1.00658561e+00 5.22267978e-02 7.93633005e-17)
337             	(1.00659126e+00 5.22737888e-02 7.92673619e-17)
338             	(1.00659695e+00 5.23203526e-02 7.91714768e-17)
339             	(1.00660268e+00 5.23664937e-02 7.90762190e-17)
340             	(1.00660845e+00 5.24122169e-02 7.89814353e-17)
341             	(1.00661430e+00 5.24575267e-02 7.88872351e-17)
342             	(1.00661997e+00 5.25024102e-02 7.87938711e-17)
343             	(1.00662465e+00 5.25468155e-02 7.87016407e-17)
344             	(1.00663268e+00 5.25907558e-02 7.86089962e-17)
345             	(1.00665570e+00 5.26342511e-02 7.85167319e-17)
346             	(1.00667863e+00 5.26773180e-02 7.84253662e-17)
347             	(1.00670148e+00 5.27199686e-02 7.83351102e-17)
348             	(1.00672424e+00 5.27622140e-02 7.82459519e-17)
349             	(1.00674693e+00 5.28040632e-02 7.81565843e-17)
350             	(1.00676953e+00 5.28455213e-02 7.80683912e-17)
351             	(1.00679205e+00 5.28865940e-02 7.79817079e-17)
352             	(1.00681449e+00 5.29272887e-02 7.78954470e-17)
353             	(1.00683685e+00 5.29676111e-02 7.78097145e-17)
354             	(1.00685913e+00 5.30075671e-02 7.77235044e-17)
355             	(1.00688132e+00 5.30471595e-02 7.76375785e-17)
356             	(1.00690343e+00 5.30863636e-02 7.75520208e-17)
357             	(1.00692546e+00 5.31251544e-02 7.74626687e-17)
358             	(1.00694741e+00 5.31635444e-02 7.73735639e-17)
359             	(1.00696928e+00 5.32015446e-02 7.72856408e-17)
360             	(1.00699106e+00 5.32391648e-02 7.71988005e-17)
361             	(1.00701276e+00 5.32764172e-02 7.71107683e-17)
362             	(1.00703438e+00 5.33133118e-02 7.70222082e-17)
363             	(1.00705591e+00 5.33498553e-02 7.69341241e-17)
364             	(1.00707736e+00 5.33860522e-02 7.68460890e-17)
365             	(1.00709873e+00 5.34219068e-02 7.67575883e-17)
366             	(1.00712002e+00 5.34574232e-02 7.66691354e-17)
367             	(1.00714123e+00 5.34926053e-02 7.65810823e-17)
368             	(1.00716235e+00 5.35274571e-02 7.64936069e-17)
369             	(1.00718339e+00 5.35619500e-02 7.64074085e-17)
370             	(1.00720434e+00 5.35960853e-02 7.63216769e-17)
371             	(1.00722522e+00 5.36298732e-02 7.62364031e-17)
372             	(1.00724601e+00 5.36633235e-02 7.61517159e-17)
373             	(1.00726672e+00 5.36964459e-02 7.60662874e-17)
374             	(1.00728735e+00 5.37292442e-02 7.59814539e-17)
375             	(1.00730789e+00 5.37617227e-02 7.58968347e-17)
376             	(1.00732836e+00 5.37938852e-02 7.58130760e-17)
377             	(1.00734874e+00 5.38257369e-02 7.57307459e-17)
378             	(1.00736904e+00 5.38572848e-02 7.56488759e-17)
379             	(1.00738927e+00 5.38885346e-02 7.55674941e-17)
380             	(1.00740941e+00 5.39194807e-02 7.54867161e-17)
381             	(1.00742947e+00 5.39501126e-02 7.54064890e-17)
382             	(1.00744945e+00 5.39804343e-02 7.53259678e-17)
383             	(1.00746935e+00 5.40104518e-02 7.52452215e-17)
384             	(1.00748917e+00 5.40401698e-02 7.51651042e-17)
385             	(1.00750892e+00 5.40695980e-02 7.50859281e-17)
386             	(1.00752858e+00 5.40987446e-02 7.50074633e-17)
387             	(1.00754816e+00 5.41276095e-02 7.49305325e-17)
388             	(1.00756767e+00 5.41561967e-02 7.48582880e-17)
389             	(1.00758709e+00 5.41845124e-02 7.47863601e-17)
390             	(1.00760644e+00 5.42125625e-02 7.47121884e-17)
391             	(1.00762571e+00 5.42403392e-02 7.46355643e-17)
392             	(1.00764490e+00 5.42678355e-02 7.45590063e-17)
393             	(1.00766401e+00 5.42950520e-02 7.44823827e-17)
394             	(1.00768304e+00 5.43219922e-02 7.44055356e-17)
395             	(1.00770200e+00 5.43486602e-02 7.43285384e-17)
396             	(1.00772088e+00 5.43750616e-02 7.42518584e-17)
397             	(1.00773968e+00 5.44012017e-02 7.41755786e-17)
398             	(1.00775841e+00 5.44270861e-02 7.40994684e-17)
399             	(1.00777706e+00 5.44527204e-02 7.40233763e-17)
400             	(1.00779563e+00 5.44781099e-02 7.39473356e-17)
401             	(1.00781412e+00 5.45032505e-02 7.38718671e-17)
402             	(1.00783254e+00 5.45281453e-02 7.37963157e-17)
403             	(1.00785088e+00 5.45527977e-02 7.37217193e-17)
404             	(1.00786914e+00 5.45772117e-02 7.36455614e-17)
405             	(1.00788733e+00 5.46013916e-02 7.35695112e-17)
406             	(1.00790543e+00 5.46253395e-02 7.34936230e-17)
407             	(1.00792347e+00 5.46490580e-02 7.34175411e-17)
408             	(1.00794142e+00 5.46725500e-02 7.33397241e-17)
409             	(1.00795930e+00 5.46958102e-02 7.32609043e-17)
410             	(1.00797711e+00 5.47188236e-02 7.31812481e-17)
411             	(1.00799484e+00 5.47415903e-02 7.31016471e-17)
412             	(1.00801249e+00 5.47641148e-02 7.30219280e-17)
413             	(1.00803007e+00 5.47864012e-02 7.29430332e-17)
414             	(1.00804757e+00 5.48084513e-02 7.28730197e-17)
415             	(1.00806500e+00 5.48302683e-02 7.28042532e-17)
416             	(1.00808235e+00 5.48518578e-02 7.27338414e-17)
417             	(1.00809963e+00 5.48732188e-02 7.26624774e-17)
418             	(1.00811683e+00 5.48943496e-02 7.25902590e-17)
419             	(1.00813396e+00 5.49152490e-02 7.25179651e-17)
420             	(1.00815101e+00 5.49359231e-02 7.24464635e-17)
421             	(1.00816799e+00 5.49563836e-02 7.23793648e-17)
422             	(1.00818489e+00 5.49766410e-02 7.23194082e-17)
423             	(1.00820172e+00 5.49967057e-02 7.22609154e-17)
424             	(1.00821848e+00 5.50165829e-02 7.22019141e-17)
425             	(1.00823516e+00 5.50362793e-02 7.21462036e-17)
426             	(1.00825176e+00 5.50557885e-02 7.20914399e-17)
427             	(1.00826830e+00 5.50751029e-02 7.20359250e-17)
428             	(1.00828475e+00 5.50942230e-02 7.19795724e-17)
429             	(1.00830114e+00 5.51131511e-02 7.19228361e-17)
430             	(1.00831746e+00 5.51318875e-02 7.18660996e-17)
431             	(1.00833370e+00 5.51504318e-02 7.18096416e-17)
432             	(1.00834987e+00 5.51687822e-02 7.17536664e-17)
433             	(1.00836597e+00 5.51869398e-02 7.16982015e-17)
434             	(1.00838200e+00 5.52049068e-02 7.16432536e-17)
435             	(1.00839796e+00 5.52226862e-02 7.15887650e-17)
436             	(1.00841384e+00 5.52402808e-02 7.15347149e-17)
437             	(1.00842966e+00 5.52576935e-02 7.14810636e-17)
438             	(1.00844541e+00 5.52749269e-02 7.14277860e-17)
439             	(1.00846109e+00 5.52919818e-02 7.13749918e-17)
440             	(1.00847669e+00 5.53088531e-02 7.13229761e-17)
441             	(1.00849223e+00 5.53255424e-02 7.12691242e-17)
442             	(1.00850770e+00 5.53420524e-02 7.12155991e-17)
443             	(1.00852310e+00 5.53583849e-02 7.11628289e-17)
444             	(1.00853843e+00 5.53745424e-02 7.11110493e-17)
445             	(1.00855369e+00 5.53905279e-02 7.10602086e-17)
446             	(1.00856888e+00 5.54063445e-02 7.10101407e-17)
447             	(1.00858400e+00 5.54219961e-02 7.09606090e-17)
448             	(1.00859912e+00 5.54374866e-02 7.09111932e-17)
449             	(1.00861425e+00 5.54528177e-02 7.08620727e-17)
450             	(1.00862932e+00 5.54679908e-02 7.08133802e-17)
451             	(1.00864431e+00 5.54830065e-02 7.07651545e-17)
452             	(1.00865924e+00 5.54978664e-02 7.07172800e-17)
453             	(1.00867411e+00 5.55125720e-02 7.06691324e-17)
454             	(1.00868890e+00 5.55271248e-02 7.06199884e-17)
455             	(1.00870362e+00 5.55415258e-02 7.05700334e-17)
456             	(1.00871828e+00 5.55557749e-02 7.05194663e-17)
457             	(1.00873287e+00 5.55698725e-02 7.04683486e-17)
458             	(1.00874739e+00 5.55838232e-02 7.04173080e-17)
459             	(1.00876184e+00 5.55976307e-02 7.03670982e-17)
460             	(1.00877622e+00 5.56112961e-02 7.03173470e-17)
461             	(1.00879054e+00 5.56248208e-02 7.02674553e-17)
462             	(1.00880479e+00 5.56382067e-02 7.02173496e-17)
463             	(1.00881897e+00 5.56514551e-02 7.01671267e-17)
464             	(1.00883309e+00 5.56645670e-02 7.01173458e-17)
465             	(1.00884713e+00 5.56775541e-02 7.00696005e-17)
466             	(1.00886112e+00 5.56904228e-02 7.00219664e-17)
467             	(1.00887503e+00 5.57031736e-02 6.99744274e-17)