/*--------------------------------*- C++ -*----------------------------------*\
| =========                 |                                                 |
| \\      /  F ield         | OpenFOAM: The Open Source CFD Toolbox           |
|  \\    /   O peration     | Version:  2206                                  |
|   \\  /    A nd           | Website:  www.openfoam.com                      |
|    \\/     M anipulation  |                                                 |
\*---------------------------------------------------------------------------*/
FoamFile
{
    version     2.0;
    format      ascii;
    arch        "LSB;label=32;scalar=64";
    class       volScalarField;
    location    "1000";
    object      epsilon;
}
// * * * * * * * * * * * * * * * * * * * * * * * * * * * * * * * * * * * * * //

dimensions      [0 2 -3 0 0 0 0];

internalField   nonuniform List<scalar> 
13056
(
0.0084784067
0.0084017849
0.0083599282
0.0083387562
0.0083259725
0.0083171185
0.0083105702
0.0083055715
0.0083016869
0.0082986376
0.0082962378
0.0082943632
0.008292933
0.0082919017
0.0082912588
0.0082910294
0.0082913153
0.0082922593
0.0082944429
0.0082981064
0.0083073176
0.008324013
0.0083474018
0.010870243
0.030339754
0.0017916072
0.0050422696
0.0003615008
0.0018901786
0.00017865169
0.0010855412
0.00011213521
0.00072977963
0.00057026172
0.00053037988
0.00045107867
0.00040685943
0.00036132817
0.00032636551
0.00029558956
0.00026953847
0.00024690942
0.00022719915
0.00020987635
0.00019456506
0.0001809462
0.00016876835
0.00015782508
0.00014794669
0.00013899261
0.00013084503
0.00012340463
0.0001165874
0.00011032166
0.00010454617
9.9208296e-05
9.426229e-05
8.9668313e-05
8.5391688e-05
8.1402001e-05
7.7672458e-05
7.4179477e-05
7.090225e-05
6.7822141e-05
6.4922499e-05
6.2188478e-05
5.9606816e-05
5.7165559e-05
5.4853913e-05
5.26622e-05
5.0581699e-05
4.8604389e-05
4.6722969e-05
4.4930833e-05
4.3221937e-05
4.159076e-05
4.0032219e-05
3.854165e-05
3.7114849e-05
3.574785e-05
3.4436894e-05
3.317845e-05
3.1968917e-05
3.0805603e-05
2.9686885e-05
2.8610285e-05
2.7573521e-05
2.6574506e-05
2.5611249e-05
2.4681877e-05
2.3784671e-05
2.2918021e-05
2.2080421e-05
2.1270459e-05
2.0486811e-05
1.9728277e-05
1.8993701e-05
1.8281975e-05
1.759208e-05
1.6923056e-05
1.6273997e-05
1.564405e-05
1.5032413e-05
1.443835e-05
1.3861143e-05
1.3300115e-05
1.2754633e-05
1.2224099e-05
1.1707939e-05
1.1205626e-05
1.0716666e-05
1.0240504e-05
9.7769868e-06
9.3357214e-06
8.9285566e-06
8.5561421e-06
8.2145865e-06
7.9004898e-06
7.6107341e-06
7.3426166e-06
7.0938018e-06
6.8622562e-06
6.6462025e-06
6.4440866e-06
6.2545361e-06
6.0763157e-06
5.9083114e-06
5.7494871e-06
5.5988968e-06
5.4554889e-06
5.3184835e-06
5.1860126e-06
5.0588108e-06
4.9278398e-06
4.81568e-06
4.6542969e-06
0.0084769464
0.0084002224
0.0083583045
0.0083370986
0.0083242934
0.0083154239
0.0083088635
0.0083038553
0.0082999625
0.008296906
0.0082944995
0.0082926181
0.0082911806
0.008290141
0.0082894878
0.0082892452
0.0082895127
0.0082904307
0.0082925712
0.0082961745
0.008305236
0.0083217653
0.0083441287
0.010867144
0.02977031
0.0017766435
0.0049651017
0.00036475428
0.0018762945
0.00019022238
0.0010855406
0.00014416911
0.00073495804
0.00057886109
0.00053788653
0.00046007215
0.00041581203
0.00037081679
0.00033602331
0.00030545696
0.00027953057
0.00025699829
0.0002373522
0.00022007105
0.00020478272
0.00019117228
0.00017899106
0.00016803505
0.00015813636
0.0001491559
0.00014097702
0.00013350135
0.00012664565
0.00012033886
0.00011452024
0.0001091376
0.0001041455
9.9504408e-05
9.5179868e-05
9.1141662e-05
8.7363192e-05
8.382099e-05
8.0494349e-05
7.7364719e-05
7.4415506e-05
7.163187e-05
6.9000644e-05
6.6509917e-05
6.4148929e-05
6.1908019e-05
5.9778485e-05
5.7752322e-05
5.5822231e-05
5.3981612e-05
5.2224419e-05
5.0545129e-05
4.8938651e-05
4.7400311e-05
4.5925887e-05
4.4511405e-05
4.3153102e-05
4.1847488e-05
4.0591311e-05
3.9382141e-05
3.8217709e-05
3.7095528e-05
3.6013303e-05
3.4968935e-05
3.3960425e-05
3.2985886e-05
3.2043588e-05
3.1131905e-05
3.0249322e-05
2.939441e-05
2.8565834e-05
2.7762387e-05
2.6982897e-05
2.6226242e-05
2.5491387e-05
2.4777353e-05
2.4083222e-05
2.3408123e-05
2.2751237e-05
2.211181e-05
2.1489089e-05
2.0882393e-05
2.0291076e-05
1.971452e-05
1.9152135e-05
1.8603376e-05
1.8067734e-05
1.7544664e-05
1.703395e-05
1.6546618e-05
1.6096096e-05
1.5683256e-05
1.5303918e-05
1.4954405e-05
1.4631346e-05
1.4331826e-05
1.4053326e-05
1.3793658e-05
1.3550905e-05
1.3323392e-05
1.3109636e-05
1.2908304e-05
1.271819e-05
1.2538175e-05
1.2367235e-05
1.220421e-05
1.2048253e-05
1.1897235e-05
1.1752132e-05
1.1602403e-05
1.1474594e-05
1.1288538e-05
0.0084723091
0.00839527
0.0083531636
0.0083318542
0.0083189833
0.0083100668
0.0083034708
0.0082984343
0.0082945186
0.0082914427
0.0082890193
0.0082871225
0.0082856702
0.0082846154
0.0082839456
0.0082836832
0.0082839251
0.008284809
0.0082868948
0.0082904235
0.0082992989
0.0083156366
0.0083366437
0.010857648
0.029204868
0.0017615516
0.0048866776
0.00036789201
0.0018615075
0.00020172993
0.0010848269
0.00017618461
0.00073954526
0.0005868289
0.00054490903
0.0004685619
0.00042432772
0.00037987727
0.00034528322
0.00031494397
0.00028916145
0.00026674221
0.00024717535
0.00022994963
0.00021469692
0.00020110657
0.00018893282
0.00017797413
0.00016806454
0.00015906648
0.00015086454
0.00014336135
0.00013647449
0.00013013355
0.00012427836
0.00011885714
0.00011382486
0.00010914227
0.00010477518
0.00010069358
9.6871084e-05
9.3284362e-05
8.9912818e-05
8.6738001e-05
8.3743388e-05
8.0914156e-05
7.8237242e-05
7.5700792e-05
7.3294082e-05
7.1007481e-05
6.8832313e-05
6.6760593e-05
6.4785037e-05
6.2899052e-05
6.1096603e-05
5.9372166e-05
5.7720657e-05
5.6137398e-05
5.461817e-05
5.3159009e-05
5.1756186e-05
5.0406298e-05
4.9106306e-05
4.7853669e-05
4.6645862e-05
4.5480387e-05
4.4354941e-05
4.3267415e-05
4.2215804e-05
4.119821e-05
4.0212889e-05
3.9258209e-05
3.8332639e-05
3.7434742e-05
3.656317e-05
3.5716709e-05
3.4894176e-05
3.4094434e-05
3.3316431e-05
3.2559176e-05
3.1821735e-05
3.1103222e-05
3.0402803e-05
2.9719704e-05
2.905314e-05
2.8402429e-05
2.7766907e-05
2.7145943e-05
2.6538927e-05
2.59453e-05
2.5364537e-05
2.4796104e-05
2.4239723e-05
2.3707802e-05
2.3215304e-05
2.2763318e-05
2.2347383e-05
2.1963557e-05
2.1608222e-05
2.1278259e-05
2.0970975e-05
2.0684029e-05
2.0415373e-05
2.0163213e-05
1.9925963e-05
1.9702193e-05
1.9490608e-05
1.9290013e-05
1.9099305e-05
1.8917219e-05
1.8742846e-05
1.8573803e-05
1.84113e-05
1.824333e-05
1.8100312e-05
1.7890246e-05
0.0084643494
0.0083867716
0.0083443431
0.0083228571
0.0083098742
0.0083008778
0.0082942213
0.0082891373
0.0082851831
0.0082820755
0.008279625
0.0082777043
0.0082762302
0.0082751541
0.0082744624
0.0082741758
0.0082743882
0.0082752344
0.0082772617
0.0082807127
0.0082893943
0.0083055486
0.0083250486
0.010841705
0.028635708
0.0017460871
0.0048056327
0.00037081503
0.001845325
0.000213073
0.0010831181
0.00020796079
0.00074334914
0.00059401998
0.00055130075
0.00047642491
0.00043228953
0.00038840482
0.00035404728
0.00032395974
0.00029834576
0.00027606069
0.00025659232
0.0002394394
0.00022423812
0.00021068232
0.0001985293
0.00018758016
0.00017767099
0.00016866586
0.00016045066
0.00015292912
0.00014601967
0.00013965266
0.00013376848
0.00012831586
0.00012325018
0.00011853252
0.00011412897
0.00011000979
0.0001061488
0.00010252284
9.9111444e-05
9.5896275e-05
9.2860898e-05
8.9990523e-05
8.7272203e-05
8.4694151e-05
8.2245693e-05
7.9917238e-05
7.7700144e-05
7.5586456e-05
7.3568914e-05
7.1640942e-05
6.9796519e-05
6.8030137e-05
6.6336722e-05
6.4711608e-05
6.3150588e-05
6.1649726e-05
6.0205339e-05
5.8814096e-05
5.7473023e-05
5.6179434e-05
5.4930704e-05
5.3724333e-05
5.2558009e-05
5.1429616e-05
5.0337145e-05
4.9278689e-05
4.8252497e-05
4.7256925e-05
4.6290436e-05
4.535158e-05
4.4439e-05
4.355148e-05
4.2687823e-05
4.184688e-05
4.1027586e-05
4.0228935e-05
3.944998e-05
3.8689823e-05
3.7947614e-05
3.7222561e-05
3.6513846e-05
3.5820788e-05
3.5142708e-05
3.4478959e-05
3.3828917e-05
3.3192005e-05
3.2567683e-05
3.1955431e-05
3.1354908e-05
3.0779867e-05
3.0246763e-05
2.9756893e-05
2.9305528e-05
2.8888469e-05
2.8501864e-05
2.8142396e-05
2.7807202e-05
2.7493801e-05
2.7200013e-05
2.6923933e-05
2.6663875e-05
2.6418315e-05
2.6185874e-05
2.5965283e-05
2.5755364e-05
2.5554751e-05
2.5362472e-05
2.5175899e-05
2.4996473e-05
2.4810755e-05
2.4652941e-05
2.4419493e-05
0.008452839
0.0083744826
0.0083315888
0.0083098475
0.0082967027
0.0082875911
0.0082808473
0.008275695
0.008271686
0.0082685331
0.0082660446
0.0082640909
0.0082625871
0.0082614834
0.0082607641
0.0082604483
0.0082606268
0.0082614313
0.0082633961
0.0082667656
0.0082752443
0.0082912234
0.0083090501
0.010818897
0.028055819
0.0017300172
0.0047206351
0.00037341636
0.0018272438
0.0002241349
0.0010801152
0.00023924284
0.00074615965
0.00060026844
0.00055689767
0.00048351965
0.00043956323
0.00039627723
0.00036220064
0.00033239674
0.00030698182
0.00028485719
0.00026551095
0.00024845206
0.00023332142
0.00021981761
0.00020770126
0.0001967763
0.00018688102
0.00017788125
0.00016966434
0.00016213518
0.00015521318
0.00014882948
0.00014292512
0.00013744938
0.0001323581
0.00012761274
0.00012317973
0.00011902958
0.0001151364
0.00011147719
0.00010803165
0.00010478158
0.00010171065
9.8804131e-05
9.6049198e-05
9.3434148e-05
9.0948371e-05
8.8582328e-05
8.6327424e-05
8.4175745e-05
8.2120061e-05
8.0153828e-05
7.8271049e-05
7.6466237e-05
7.4734339e-05
7.3070713e-05
7.1471172e-05
6.9931816e-05
6.8449e-05
6.7019433e-05
6.5640129e-05
6.4308306e-05
6.3021303e-05
6.1776618e-05
6.0571937e-05
5.9405138e-05
5.8274213e-05
5.7177248e-05
5.6112484e-05
5.5078273e-05
5.4073068e-05
5.3095415e-05
5.2143945e-05
5.1217442e-05
5.0314701e-05
4.9434558e-05
4.8575937e-05
4.7737822e-05
4.6919253e-05
4.6119318e-05
4.5337155e-05
4.4571956e-05
4.3822871e-05
4.3089219e-05
4.2370309e-05
4.1665478e-05
4.0974087e-05
4.0295545e-05
3.9629297e-05
3.8974836e-05
3.8331758e-05
3.7715124e-05
3.714283e-05
3.6616378e-05
3.6130785e-05
3.5681603e-05
3.5264758e-05
3.4876742e-05
3.4514534e-05
3.4175513e-05
3.3857378e-05
3.3558115e-05
3.3275943e-05
3.300925e-05
3.2756575e-05
3.2516577e-05
3.2288008e-05
3.2069402e-05
3.1859731e-05
3.1656125e-05
3.1460252e-05
3.1257276e-05
3.1085079e-05
3.0828874e-05
0.0084374694
0.0083580725
0.0083145564
0.0082924738
0.0082791126
0.0082698469
0.0082629867
0.0082577433
0.0082536612
0.0082504485
0.0082479099
0.0082459132
0.0082443714
0.0082432327
0.0082424797
0.0082421294
0.0082422691
0.0082430274
0.0082449251
0.008248209
0.0082564745
0.0082722868
0.0082882569
0.010788663
0.027458839
0.0017131195
0.0046303746
0.00037557824
0.0018067431
0.0002347789
0.0010754973
0.00026973239
0.00074774443
0.00060538374
0.00056151432
0.00048968222
0.00044599352
0.00040335123
0.00036960794
0.00034012723
0.00031494806
0.00029301559
0.00027381988
0.00025688042
0.00024184329
0.00022841217
0.00021635135
0.00020546781
0.00019560226
0.00018662245
0.00017841734
0.0001708931
0.00016397021
0.0001575807
0.00015166636
0.00014617707
0.00014106919
0.00013630462
0.00013185017
0.00012767663
0.00012375845
0.00012007283
0.00011659965
0.00011332089
0.00011022034
0.00010728333
0.00010449721
0.00010185037
9.9332277e-05
9.6933455e-05
9.4645373e-05
9.2460171e-05
9.0370663e-05
8.8370343e-05
8.645325e-05
8.4613931e-05
8.2847363e-05
8.1148933e-05
7.9514482e-05
7.7940144e-05
7.6422304e-05
7.4957682e-05
7.3543264e-05
7.2176217e-05
7.0853872e-05
6.957373e-05
6.8333477e-05
6.713099e-05
6.5964264e-05
6.4831381e-05
6.3730579e-05
6.2660206e-05
6.1618711e-05
6.0604634e-05
5.9616602e-05
5.8653397e-05
5.7713806e-05
5.6796658e-05
5.5900865e-05
5.50254e-05
5.4169293e-05
5.3331623e-05
5.2511516e-05
5.1708146e-05
5.0920634e-05
5.0148303e-05
4.9390447e-05
4.864639e-05
4.791548e-05
4.7197112e-05
4.6490716e-05
4.5795797e-05
4.5111892e-05
4.4455322e-05
4.3845373e-05
4.3283748e-05
4.2765222e-05
4.2285114e-05
4.1839136e-05
4.1423602e-05
4.1035338e-05
4.0671595e-05
4.0329953e-05
4.0008297e-05
3.9704754e-05
3.9417629e-05
3.9145381e-05
3.8886605e-05
3.8639982e-05
3.8403954e-05
3.8177434e-05
3.7957321e-05
3.7745507e-05
3.7525793e-05
3.733965e-05
3.7061348e-05
0.0084178542
0.0083371269
0.0082928145
0.0082702951
0.008256657
0.0082471942
0.008240185
0.0082348252
0.00823065
0.0082273612
0.0082247591
0.0082227083
0.0082211191
0.0082199375
0.0082191439
0.008218753
0.0082188485
0.0082195558
0.0082213812
0.0082245747
0.0082326158
0.0082482709
0.0082621826
0.010750302
0.026839036
0.0016951822
0.0045335604
0.00037717053
0.0017832821
0.00024484524
0.001068919
0.00029908213
0.00074784663
0.00060914884
0.00056494156
0.00049472442
0.00045140193
0.0004094605
0.00037611132
0.00034700131
0.00032210117
0.00030039838
0.00028138666
0.00026459648
0.00024967972
0.00023634557
0.00022436234
0.00021354035
0.00020372297
0.00019478011
0.00018660246
0.00017909767
0.00017218741
0.00016580469
0.00015989215
0.00015440035
0.00014928623
0.00014451223
0.00014004553
0.00013585734
0.0001319224
0.0001282182
0.00012472484
0.00012142448
0.00011830107
0.00011534006
0.00011252894
0.00010985624
0.00010731152
0.00010488539
0.00010256939
0.00010035574
9.8237302e-05
9.6207625e-05
9.4260794e-05
9.2391399e-05
9.0594457e-05
8.8865389e-05
8.7200071e-05
8.5594668e-05
8.4045586e-05
8.2549547e-05
8.1103515e-05
7.9704642e-05
7.8350263e-05
7.7037886e-05
7.5765202e-05
7.453009e-05
7.3330553e-05
7.2164673e-05
7.1030687e-05
6.9926945e-05
6.8851891e-05
6.7804065e-05
6.6782089e-05
6.5784751e-05
6.4810829e-05
6.3859146e-05
6.2928605e-05
6.2018172e-05
6.1126869e-05
6.0253764e-05
5.9397974e-05
5.8558659e-05
5.7734912e-05
5.6926058e-05
5.6131381e-05
5.5350192e-05
5.4581827e-05
5.3825666e-05
5.3081128e-05
5.2347729e-05
5.1624949e-05
5.0930312e-05
5.0284437e-05
4.9689225e-05
4.9139223e-05
4.8629532e-05
4.8155666e-05
4.7713771e-05
4.7300529e-05
4.691307e-05
4.6548864e-05
4.62057e-05
4.5881619e-05
4.5574846e-05
4.528377e-05
4.5006918e-05
4.474291e-05
4.4490098e-05
4.4247339e-05
4.4011311e-05
4.3784118e-05
4.3548251e-05
4.3348647e-05
4.3048991e-05
0.0083935313
0.00831115
0.0082658465
0.0082427834
0.0082288006
0.0082190926
0.008211898
0.0082063935
0.0082021026
0.0081987194
0.0081960388
0.0081939213
0.0081922743
0.0081910409
0.008190199
0.0081897608
0.0081898061
0.0081904567
0.0081922041
0.0081953024
0.0082031066
0.0082186154
0.0082302459
0.01070299
0.026191319
0.001676006
0.0044289263
0.0003780503
0.0017563016
0.00025415011
0.0010600111
0.00032689513
0.00074618509
0.00061132051
0.00056694658
0.00049843376
0.00045558677
0.0004144156
0.00038153028
0.00035284675
0.00032827586
0.00030684643
0.00028805754
0.00027145127
0.000256686
0.0002434769
0.00023159675
0.00022085957
0.00021111167
0.00020222535
0.00019409326
0.00018662467
0.00017974259
0.00017338116
0.00016748395
0.00016200232
0.00015689389
0.00015212165
0.00014765329
0.00014346043
0.00013951821
0.00013580442
0.0001322994
0.00012898556
0.00012584705
0.00012286942
0.00012004038
0.0001173486
0.00011478376
0.00011233658
0.00010999868
0.00010776237
0.00010562058
0.00010356694
0.00010159558
9.9701151e-05
9.7878712e-05
9.6123733e-05
9.4432122e-05
9.2800079e-05
9.1224028e-05
8.9700695e-05
8.8227042e-05
8.6800223e-05
8.5417587e-05
8.4076655e-05
8.2775128e-05
8.1510893e-05
8.0281964e-05
7.9086426e-05
7.7922522e-05
7.6788603e-05
7.5683118e-05
7.4604605e-05
7.3551687e-05
7.2523157e-05
7.1517791e-05
7.0534406e-05
6.95719e-05
6.8629234e-05
6.7705422e-05
6.6799526e-05
6.5910654e-05
6.5037956e-05
6.4180496e-05
6.3337605e-05
6.2508557e-05
6.1692652e-05
6.0889214e-05
6.0097612e-05
5.9317253e-05
5.8547664e-05
5.7788271e-05
5.7057736e-05
5.6377938e-05
5.5750974e-05
5.5171185e-05
5.463347e-05
5.4133159e-05
5.3666243e-05
5.3229275e-05
5.2819267e-05
5.2433592e-05
5.2069948e-05
5.1726298e-05
5.1400793e-05
5.1091751e-05
5.0797644e-05
5.051703e-05
5.0248175e-05
4.9989889e-05
4.9738632e-05
4.9496719e-05
4.924538e-05
4.9032881e-05
4.8712739e-05
0.0083639654
0.0082795668
0.0082330531
0.0082093259
0.008194922
0.0081849143
0.0081774934
0.0081718123
0.0081673802
0.0081638821
0.008161106
0.0081589079
0.0081571911
0.0081558959
0.0081549971
0.008154504
0.0081544922
0.0081550801
0.0081567432
0.0081597405
0.0081672945
0.00818267
0.0081917726
0.010645778
0.025511287
0.0016554075
0.0043152454
0.00037806271
0.001725229
0.00026248676
0.0010483838
0.00035272885
0.00074245689
0.00061163194
0.00056727491
0.00050057557
0.00045832487
0.00041800571
0.00038566333
0.00035747059
0.00033328641
0.0003121804
0.00029365884
0.00027727614
0.00026269796
0.00024964607
0.00023789819
0.00022727242
0.00021761837
0.00020881099
0.00020074513
0.00019333188
0.00018649576
0.00018017219
0.00017430579
0.00016884883
0.00016375969
0.00015900203
0.00015454409
0.00015035798
0.00014641929
0.00014270615
0.00013919923
0.00013588119
0.00013273642
0.00012975063
0.00012691177
0.00012420866
0.00012163113
0.00011917002
0.0001168171
0.00011456474
0.00011240598
0.00011033452
0.00010834458
0.00010643086
0.00010458848
0.00010281297
0.00010110027
9.9446626e-05
9.7848476e-05
9.6302566e-05
9.4805869e-05
9.3355557e-05
9.1949003e-05
9.0583745e-05
8.9257501e-05
8.7968171e-05
8.6713782e-05
8.5492433e-05
8.4302373e-05
8.3141961e-05
8.2009651e-05
8.0903987e-05
7.9823593e-05
7.8767273e-05
7.7733802e-05
7.6721997e-05
7.5730751e-05
7.4759022e-05
7.3805821e-05
7.2870206e-05
7.1951278e-05
7.1048177e-05
7.0159944e-05
6.9285914e-05
6.8425356e-05
6.757756e-05
6.6741837e-05
6.591755e-05
6.5104091e-05
6.4301002e-05
6.3507656e-05
6.2743772e-05
6.2032412e-05
6.137586e-05
6.0768274e-05
6.0204375e-05
5.9679324e-05
5.9188973e-05
5.8729756e-05
5.8298584e-05
5.7892739e-05
5.7509835e-05
5.7147765e-05
5.6804613e-05
5.6478634e-05
5.6168247e-05
5.5871955e-05
5.5587944e-05
5.5314977e-05
5.5049315e-05
5.4793468e-05
5.4527471e-05
5.4302755e-05
5.396317e-05
0.0083285497
0.0082417251
0.0081937538
0.0081692263
0.0081543151
0.0081439463
0.0081362528
0.0081303588
0.0081257569
0.0081221205
0.00811923
0.0081169353
0.0081151354
0.0081137669
0.0081128013
0.0081122448
0.0081121684
0.0081126866
0.0081142584
0.0081171487
0.0081244378
0.008139695
0.0081459964
0.01057761
0.024795315
0.0016332247
0.0041913536
0.00037704322
0.0016894877
0.00026962857
0.0010336332
0.00037610364
0.00073634238
0.00060979749
0.00056565465
0.00050089701
0.00045937538
0.00042000223
0.00038829142
0.00036066243
0.00033692981
0.00031620387
0.00029799994
0.00028188565
0.00026753487
0.00025467655
0.00024309396
0.00023260974
0.00022307712
0.00021437405
0.00020639784
0.00019906162
0.00019229161
0.00018602466
0.00018020662
0.00017479077
0.00016973636
0.00016500781
0.000160574
0.0001564076
0.00015248471
0.00014878389
0.00014528613
0.00014197444
0.00013883347
0.00013584914
0.00013300965
0.00013030402
0.00012772226
0.00012525536
0.00012289522
0.00012063434
0.00011846587
0.0001163836
0.00011438184
0.00011245537
0.00011059938
0.00010880946
0.00010708161
0.00010541209
0.00010379741
0.00010223432
0.00010071983
9.9251137e-05
9.7825647e-05
9.6440923e-05
9.5094707e-05
9.3784916e-05
9.2509601e-05
9.1266873e-05
9.0054997e-05
8.8872343e-05
8.7717376e-05
8.6588649e-05
8.5484794e-05
8.4404625e-05
8.3346922e-05
8.2310503e-05
8.1294263e-05
8.0297159e-05
7.9318202e-05
7.8356447e-05
7.7410992e-05
7.648097e-05
7.5565399e-05
7.4663625e-05
7.377491e-05
7.2898536e-05
7.2033807e-05
7.1180075e-05
7.0336725e-05
6.9503308e-05
6.8679154e-05
6.788494e-05
6.7144811e-05
6.6461237e-05
6.5828219e-05
6.524032e-05
6.4692556e-05
6.418066e-05
6.3700959e-05
6.3250277e-05
6.2825812e-05
6.242511e-05
6.2045999e-05
6.1686503e-05
6.1344822e-05
6.1019327e-05
6.0708474e-05
6.0410375e-05
6.012375e-05
5.9844674e-05
5.9575842e-05
5.9296177e-05
5.9060063e-05
5.8702301e-05
0.0082866084
0.0081968974
0.0081471888
0.0081217072
0.0081061908
0.0080953915
0.0080873728
0.0080812252
0.0080764208
0.0080726198
0.0080695931
0.0080671839
0.0080652858
0.0080638311
0.0080627877
0.0080621581
0.0080620084
0.0080624493
0.0080639219
0.0080666986
0.0080737069
0.0080888633
0.0080920597
0.01049733
0.024040652
0.001609324
0.0040561826
0.00037482106
0.0016485117
0.00027533425
0.0010153508
0.00039651512
0.00072751257
0.00060551964
0.0005618027
0.00049913307
0.00045848536
0.00042016419
0.00038918307
0.00036219939
0.0003389906
0.00031870795
0.00030087782
0.00028508205
0.0002710037
0.00025837964
0.00024699929
0.00023669032
0.00022731004
0.00021873971
0.0002108794
0.00020364452
0.00019696324
0.000190774
0.00018502403
0.00017966775
0.00017466543
0.00016998233
0.00016558809
0.00016145599
0.00015756273
0.00015388734
0.00015041124
0.0001471178
0.00014399198
0.00014101995
0.00013819021
0.00013549203
0.0001329156
0.0001304521
0.00012809357
0.00012583269
0.00012366272
0.00012157758
0.00011957166
0.00011763985
0.00011577743
0.00011398004
0.00011224376
0.0001105649
0.00010894002
0.0001073659
0.00010583961
0.00010435838
0.00010291966
0.00010152103
0.00010016028
9.8835339e-05
9.7544296e-05
9.6285282e-05
9.5056578e-05
9.3856575e-05
9.2683751e-05
9.1536673e-05
9.0413986e-05
8.931452e-05
8.8237062e-05
8.7180437e-05
8.6143542e-05
8.512534e-05
8.4124843e-05
8.3141108e-05
8.2173232e-05
8.1220344e-05
8.0281445e-05
7.935589e-05
7.8442938e-05
7.7541867e-05
7.6651974e-05
7.5772604e-05
7.4903135e-05
7.4043128e-05
7.3191873e-05
7.2370895e-05
7.1605301e-05
7.0897744e-05
7.0242096e-05
6.9632792e-05
6.906473e-05
6.8533537e-05
6.8035457e-05
6.7567237e-05
6.7126009e-05
6.6709259e-05
6.6314758e-05
6.5940482e-05
6.5584582e-05
6.5245392e-05
6.4921322e-05
6.4610421e-05
6.4311373e-05
6.4020083e-05
6.3739415e-05
6.3447277e-05
6.3200759e-05
6.2826361e-05
0.0082373984
0.0081442827
0.0080925211
0.0080659111
0.0080496791
0.0080383705
0.0080299672
0.0080235196
0.0080184759
0.0080144804
0.0080112931
0.0080087489
0.0080067354
0.00800518
0.0080040463
0.0080033327
0.0080031
0.0080034548
0.0080048195
0.0080074752
0.0080141853
0.0080292615
0.0080290158
0.010403692
0.023245544
0.0015836092
0.003908804
0.000371224
0.0016017635
0.000279355
0.00099313582
0.00041345016
0.00071563902
0.00059849817
0.00055543315
0.00049501459
0.00045539728
0.00041824543
0.00038810129
0.00036185277
0.00033924726
0.00031947755
0.00030208313
0.00028666116
0.00027290495
0.00026056008
0.00024942283
0.00023932641
0.00023013267
0.00022172657
0.00021401125
0.00020690471
0.00020033724
0.00019424913
0.00018858912
0.00018331296
0.00017838204
0.0001737626
0.00016942511
0.00016534358
0.00016149538
0.00015786007
0.00015441957
0.00015115766
0.00014805968
0.0001451121
0.00014230375
0.00013962416
0.00013706377
0.00013461397
0.00013226698
0.00013001566
0.00012785342
0.0001257743
0.00012377284
0.00012184403
0.00011998324
0.00011818621
0.00011644908
0.00011476826
0.00011314033
0.00011156217
0.00011003087
0.00010854373
0.00010709823
0.00010569203
0.00010432292
0.00010298889
0.00010168804
0.00010041855
9.9178711e-05
9.7966948e-05
9.6781757e-05
9.5621725e-05
9.4485512e-05
9.3371971e-05
9.22799e-05
9.1208133e-05
9.0155578e-05
8.9121205e-05
8.810403e-05
8.7103118e-05
8.6117569e-05
8.514651e-05
8.4188927e-05
8.3244191e-05
8.2311558e-05
8.1390303e-05
8.0479722e-05
7.9579154e-05
7.8687971e-05
7.7805747e-05
7.6931735e-05
7.6088175e-05
7.5301002e-05
7.4573038e-05
7.3898065e-05
7.3270421e-05
7.2684912e-05
7.2137088e-05
7.1623124e-05
7.113971e-05
7.0683925e-05
7.0253207e-05
6.9845286e-05
6.9458097e-05
6.9089753e-05
6.8738554e-05
6.8402878e-05
6.8080719e-05
6.7770729e-05
6.7468667e-05
6.7177546e-05
6.6874378e-05
6.6618653e-05
6.622948e-05
0.0081801128
0.0080830101
0.0080288387
0.0080009036
0.0079838309
0.0079719239
0.0079630688
0.0079562688
0.0079509441
0.0079467203
0.0079433445
0.0079406423
0.007938494
0.0079368214
0.0079355831
0.0079347732
0.0079344466
0.0079347055
0.0079359526
0.0079384792
0.0079448721
0.0079598917
0.00795583
0.010295377
0.02240936
0.0015560326
0.0037484833
0.00036608446
0.0015487579
0.00028144355
0.0009666113
0.00042640588
0.0007004063
0.00058844151
0.00054626783
0.00048827819
0.00044985844
0.00041400357
0.00038481217
0.00035939631
0.00033748026
0.00031829917
0.00030140776
0.00028641974
0.00027303981
0.00026102315
0.00025017357
0.00024033044
0.00023136063
0.00022315322
0.00021561475
0.00020866611
0.00020223998
0.00019627869
0.0001907327
0.00018555925
0.00018072097
0.00017618522
0.00017192341
0.0001679104
0.00016412427
0.00016054522
0.00015715572
0.00015394003
0.00015088394
0.00014797424
0.00014520016
0.00014255153
0.00014001906
0.00013759438
0.00013526995
0.00013303881
0.00013089455
0.00012883137
0.00012684396
0.00012492744
0.00012307729
0.00012128935
0.00011955986
0.00011788531
0.00011626236
0.00011468797
0.00011315929
0.00011167369
0.00011022871
0.00010882204
0.00010745154
0.00010611524
0.00010481128
0.00010353787
0.00010229335
0.00010107615
9.9884815e-05
9.871795e-05
9.7574238e-05
9.6452557e-05
9.5351722e-05
9.4270585e-05
9.3208065e-05
9.2163144e-05
9.113485e-05
9.0122257e-05
8.9124471e-05
8.8140624e-05
8.7169692e-05
8.621106e-05
8.5263988e-05
8.4327754e-05
8.340165e-05
8.2485014e-05
8.1577216e-05
8.0677841e-05
7.9786115e-05
7.8924836e-05
7.8120606e-05
7.7376407e-05
7.668597e-05
7.6043572e-05
7.5443958e-05
7.4882628e-05
7.4355713e-05
7.3859862e-05
7.339212e-05
7.2949892e-05
7.2530877e-05
7.2132982e-05
7.1754292e-05
7.1393087e-05
7.1047717e-05
7.0716134e-05
7.0396964e-05
7.0085846e-05
6.978592e-05
6.9473443e-05
6.9209943e-05
6.8808223e-05
0.0081138843
0.0080121418
0.0079551588
0.0079256761
0.0079076215
0.0078950156
0.0078856328
0.0078784211
0.0078727681
0.0078682779
0.0078646822
0.0078617958
0.0078594908
0.0078576824
0.0078563235
0.0078554033
0.0078549705
0.0078551225
0.0078562411
0.0078586297
0.0078646845
0.0078796745
0.0078713837
0.010171008
0.021532711
0.0015266079
0.0035747452
0.00035924686
0.0014890907
0.00028136511
0.0009354432
0.00043491113
0.00068152696
0.00057508048
0.00053404895
0.00047867821
0.0004416322
0.00040721079
0.00037909517
0.00035461617
0.00033348161
0.00031497012
0.00029865384
0.0002841643
0.0002712188
0.00025958301
0.00024906908
0.00023952313
0.00023081758
0.00022284603
0.00021551885
0.00020876008
0.00020250508
0.00019669844
0.00019129257
0.00018624631
0.00018152376
0.00017709348
0.00017292796
0.00016900298
0.00016529747
0.00016179232
0.00015847062
0.00015531721
0.00015231834
0.00014946123
0.00014673552
0.00014413138
0.00014163986
0.00013925286
0.00013696308
0.00013476378
0.00013264878
0.00013061246
0.00012864966
0.00012675566
0.00012492607
0.00012315688
0.00012144441
0.00011978526
0.00011817619
0.00011661425
0.00011509667
0.00011362088
0.00011218451
0.00011078531
0.00010942119
0.00010809023
0.00010679063
0.00010552063
0.00010427862
0.00010306309
0.00010187258
0.00010070575
9.956131e-05
9.8438163e-05
9.7335151e-05
9.6251144e-05
9.5185083e-05
9.4135965e-05
9.3102835e-05
9.2084779e-05
9.1080916e-05
9.0090386e-05
8.9112161e-05
8.8145644e-05
8.7190103e-05
8.6244818e-05
8.5309085e-05
8.4382245e-05
8.3463667e-05
8.2552946e-05
8.164929e-05
8.0775882e-05
7.9959802e-05
7.9204181e-05
7.8502739e-05
7.7849736e-05
7.7239891e-05
7.6668684e-05
7.6132224e-05
7.5627147e-05
7.5150477e-05
7.4699604e-05
7.4272212e-05
7.3866193e-05
7.3479615e-05
7.3110748e-05
7.2757928e-05
7.2419074e-05
7.2092796e-05
7.1774644e-05
7.1467854e-05
7.11481e-05
7.0878517e-05
7.0466884e-05
0.008037791
0.0079306793
0.0078704327
0.007839152
0.0078199562
0.007806538
0.0077965416
0.0077888515
0.007782817
0.0077780172
0.0077741663
0.0077710663
0.0077685797
0.0077666143
0.0077651168
0.0077640707
0.0077635177
0.0077635505
0.0077645285
0.0077667692
0.007772463
0.0077874544
0.0077744794
0.010029175
0.020617552
0.0014954255
0.0033874476
0.0003505762
0.001422472
0.00027890995
0.00089936318
0.00043855019
0.00065875924
0.00055818422
0.00051855406
0.00046600072
0.00043051124
0.00039766643
0.00037075521
0.00034732245
0.00032706608
0.00030930943
0.00029364426
0.00027972132
0.00026727171
0.00025607253
0.00024594507
0.00023674287
0.00022834439
0.00022064825
0.000213569
0.00020703416
0.00020098207
0.00019535981
0.00019012191
0.00018522908
0.00018064695
0.00017634549
0.00017229836
0.00016848238
0.0001648774
0.00016146513
0.00015822934
0.00015515549
0.00015223039
0.00014944174
0.00014677962
0.00014423463
0.00014179815
0.0001394624
0.00013722037
0.00013506559
0.00013299209
0.00013099447
0.00012906778
0.00012720745
0.00012540926
0.00012366933
0.00012198413
0.00012035036
0.00011876492
0.00011722493
0.00011572774
0.00011427086
0.000112852
0.00011146897
0.00011011978
0.00010880255
0.00010751555
0.00010625707
0.00010502555
0.00010381951
0.00010263756
0.00010147838
0.00010034071
9.9223515e-05
9.8125646e-05
9.7046006e-05
9.598356e-05
9.4937328e-05
9.3906377e-05
9.288981e-05
9.1886763e-05
9.0896389e-05
8.9917664e-05
8.8950011e-05
8.799271e-05
8.7045049e-05
8.610633e-05
8.5175901e-05
8.4253135e-05
8.3337635e-05
8.2428606e-05
8.154941e-05
8.0727402e-05
7.9965839e-05
7.9258482e-05
7.8599615e-05
7.7983972e-05
7.7407044e-05
7.6864951e-05
7.6354333e-05
7.587222e-05
7.5416003e-05
7.4983368e-05
7.4572205e-05
7.4180581e-05
7.3806767e-05
7.3449093e-05
7.3105465e-05
7.2774487e-05
7.2451647e-05
7.2140254e-05
7.1815587e-05
7.1541893e-05
7.1123421e-05
0.0079508644
0.0078375714
0.0077735541
0.0077401936
0.0077196775
0.0077053193
0.0076946131
0.0076863693
0.0076798934
0.0076747353
0.0076705893
0.0076672425
0.0076645465
0.0076624005
0.0076607438
0.0076595541
0.0076588653
0.0076587651
0.0076595889
0.0076616708
0.0076669787
0.0076820065
0.0076638499
0.0098684563
0.019667243
0.0014626688
0.0031868648
0.00033996784
0.0013487652
0.00027390751
0.00085819482
0.00043698817
0.00063192735
0.00053757852
0.00049961304
0.00045007946
0.00041633261
0.00038521128
0.0003596363
0.00033736238
0.00031808385
0.00030117006
0.00028623463
0.00027294886
0.0002610589
0.00025035429
0.00024066621
0.00023185627
0.00022380956
0.00021643017
0.00020963718
0.00020336197
0.00019754612
0.00019213944
0.00018709884
0.00018238701
0.00017797135
0.00017382333
0.00016991793
0.00016623311
0.00016274976
0.00015945045
0.00015631975
0.00015334381
0.00015051006
0.00014780673
0.00014522443
0.00014275418
0.00014038776
0.00013811776
0.00013593749
0.00013384075
0.00013182186
0.00012987566
0.00012799739
0.00012618269
0.00012442754
0.00012272821
0.00012108131
0.0001194837
0.00011793238
0.00011642462
0.00011495787
0.00011352974
0.00011213802
0.00011078064
0.00010945565
0.00010816128
0.00010689583