/*--------------------------------*- C++ -*----------------------------------*\
| =========                 |                                                 |
| \\      /  F ield         | OpenFOAM: The Open Source CFD Toolbox           |
|  \\    /   O peration     | Version:  2206                                  |
|   \\  /    A nd           | Website:  www.openfoam.com                      |
|    \\/     M anipulation  |                                                 |
\*---------------------------------------------------------------------------*/
FoamFile
{
    version     2.0;
    format      ascii;
    arch        "LSB;label=32;scalar=64";
    class       volScalarField;
    location    "1000";
    object      k;
}
// * * * * * * * * * * * * * * * * * * * * * * * * * * * * * * * * * * * * * //

dimensions      [0 2 -2 0 0 0 0];

internalField   nonuniform List<scalar> 
13056
(
0.00013506992
0.00012886551
0.00012668183
0.0001256049
0.00012493381
0.00012446573
0.00012412033
0.00012385671
0.00012365075
0.00012348697
0.00012335488
0.00012324717
0.00012315852
0.00012308503
0.00012302372
0.00012297237
0.00012292909
0.00012289297
0.00012286145
0.00012284029
0.00012280095
0.00012289119
0.0001222912
0.00012527828
1.7922801e-05
2.7178327e-06
5.4174842e-06
9.3492463e-07
2.8163363e-06
5.8436593e-07
1.9457383e-06
4.2836943e-07
1.4930974e-06
1.2665554e-06
1.2068862e-06
1.0832792e-06
1.0112893e-06
9.3431556e-07
8.7301525e-07
8.172076e-07
7.6844009e-07
7.2478701e-07
6.8566591e-07
6.5033923e-07
6.1829699e-07
5.8908311e-07
5.6233359e-07
5.3774191e-07
5.1505063e-07
4.9404235e-07
4.7453094e-07
4.5635631e-07
4.3938064e-07
4.2348414e-07
4.0856281e-07
3.9452596e-07
3.8129323e-07
3.6879353e-07
3.5696412e-07
3.4574913e-07
3.350986e-07
3.2496802e-07
3.1531767e-07
3.0611138e-07
2.9731635e-07
2.8890302e-07
2.8084468e-07
2.7311694e-07
2.656975e-07
2.585662e-07
2.5170472e-07
2.4509589e-07
2.387239e-07
2.3257434e-07
2.2663386e-07
2.2089014e-07
2.1533169e-07
2.0994786e-07
2.0472906e-07
1.9966602e-07
1.9474979e-07
1.8997183e-07
1.8532324e-07
1.8079566e-07
1.7638718e-07
1.7209213e-07
1.6790483e-07
1.638201e-07
1.5983287e-07
1.5593829e-07
1.521319e-07
1.4840948e-07
1.4476703e-07
1.4120074e-07
1.3770702e-07
1.3428263e-07
1.3092435e-07
1.2762904e-07
1.2439379e-07
1.2121581e-07
1.1809245e-07
1.1502114e-07
1.1199944e-07
1.0902513e-07
1.0609593e-07
1.0320966e-07
1.0036424e-07
9.7557661e-08
9.4787932e-08
9.2053195e-08
8.9351677e-08
8.6681131e-08
8.4041503e-08
8.1489596e-08
7.909903e-08
7.68805e-08
7.4817356e-08
7.2894712e-08
7.1098363e-08
6.9415765e-08
6.7835903e-08
6.6349034e-08
6.4946506e-08
6.3620646e-08
6.2364574e-08
6.1171968e-08
6.0037013e-08
5.8954149e-08
5.7918186e-08
5.6922969e-08
5.5964012e-08
5.5028935e-08
5.4123531e-08
5.3183328e-08
5.2371489e-08
5.1192368e-08
0.00013505714
0.00012884451
0.0001266577
0.00012557912
0.00012490697
0.00012443814
0.00012409217
0.00012382812
0.00012362182
0.00012345776
0.00012332545
0.00012321755
0.00012312874
0.00012305512
0.0001229937
0.00012294225
0.00012289888
0.00012286269
0.0001228311
0.0001228099
0.00012277048
0.00012286083
0.00012226005
0.00012525168
1.7900562e-05
2.679572e-06
5.2961575e-06
9.1857608e-07
2.7625869e-06
5.8051016e-07
1.9144877e-06
4.5149322e-07
1.4729509e-06
1.2536021e-06
1.1931924e-06
1.0732799e-06
1.0021872e-06
9.2708785e-07
8.6692112e-07
8.1226775e-07
7.6444008e-07
7.2162652e-07
6.832384e-07
6.4856157e-07
6.1709648e-07
5.8839844e-07
5.6211162e-07
5.379367e-07
5.1562214e-07
4.9495544e-07
4.7575467e-07
4.5786329e-07
4.4114653e-07
4.2548721e-07
4.107836e-07
3.9694694e-07
3.8389859e-07
3.7156897e-07
3.5989663e-07
3.4882688e-07
3.3831084e-07
3.2830487e-07
3.1877006e-07
3.0967095e-07
3.0097538e-07
2.9265429e-07
2.8468156e-07
2.770333e-07
2.6968762e-07
2.6262472e-07
2.5582664e-07
2.4927653e-07
2.4295885e-07
2.3685946e-07
2.3096523e-07
2.2526404e-07
2.197446e-07
2.1439639e-07
2.0920995e-07
2.0417615e-07
1.9928615e-07
1.9453165e-07
1.8990464e-07
1.8539902e-07
1.8101057e-07
1.7673339e-07
1.7256188e-07
1.6849094e-07
1.6451559e-07
1.6063103e-07
1.5683289e-07
1.5311699e-07
1.4947938e-07
1.4591632e-07
1.4242425e-07
1.3899998e-07
1.3564033e-07
1.3234218e-07
1.2910266e-07
1.25919e-07
1.2278857e-07
1.1970882e-07
1.1667733e-07
1.1369188e-07
1.1075017e-07
1.0785006e-07
1.0498947e-07
1.021664e-07
9.9378856e-08
9.6624975e-08
9.3902981e-08
9.1210668e-08
8.8547894e-08
8.5972287e-08
8.3558513e-08
8.1317615e-08
7.9232934e-08
7.7289523e-08
7.5473109e-08
7.3771093e-08
7.2172416e-08
7.06673e-08
6.9247059e-08
6.7903991e-08
6.6631189e-08
6.5422307e-08
6.4271507e-08
6.3173211e-08
6.2122207e-08
6.1112292e-08
6.0138953e-08
5.9189632e-08
5.8270356e-08
5.7315487e-08
5.6491773e-08
5.5291695e-08
0.00013501611
0.00012877839
0.00012658204
0.00012549846
0.00012482309
0.00012435197
0.00012400428
0.00012373891
0.00012353157
0.00012336666
0.00012323367
0.00012312519
0.00012303591
0.00012296188
0.00012290012
0.00012284837
0.00012280475
0.00012276833
0.00012273654
0.00012271519
0.00012267554
0.00012276619
0.00012216308
0.00012516762
1.7881403e-05
2.6411892e-06
5.174226e-06
9.0194723e-07
2.7078381e-06
5.7634684e-07
1.8821996e-06
4.7502363e-07
1.4517925e-06
1.2394876e-06
1.1785577e-06
1.0622617e-06
9.9215641e-07
9.1891921e-07
8.5991907e-07
8.0643236e-07
7.5956333e-07
7.1760499e-07
6.7996547e-07
6.4595341e-07
6.1507978e-07
5.8691135e-07
5.6110049e-07
5.3735512e-07
5.1542961e-07
4.9511644e-07
4.7623787e-07
4.5864095e-07
4.4219398e-07
4.2678242e-07
4.1230681e-07
3.9868037e-07
3.8582617e-07
3.7367616e-07
3.6217021e-07
3.5125482e-07
3.4088217e-07
3.3100955e-07
3.2159885e-07
3.1261533e-07
3.0402749e-07
2.9580675e-07
2.8792764e-07
2.8036671e-07
2.7310254e-07
2.6611571e-07
2.5938859e-07
2.5290467e-07
2.4664871e-07
2.4060682e-07
2.347661e-07
2.2911469e-07
2.2364145e-07
2.1833609e-07
2.1318929e-07
2.0819212e-07
2.0333599e-07
1.98613e-07
1.9401599e-07
1.8953928e-07
1.8517753e-07
1.8092485e-07
1.7677574e-07
1.7272518e-07
1.6876825e-07
1.6490026e-07
1.6111688e-07
1.5741399e-07
1.5378773e-07
1.5023438e-07
1.4675044e-07
1.4333276e-07
1.3997822e-07
1.3668372e-07
1.3344642e-07
1.3026359e-07
1.2713262e-07
1.2405097e-07
1.2101626e-07
1.1802627e-07
1.1507868e-07
1.1217139e-07
1.0930234e-07
1.0646953e-07
1.0367097e-07
1.009048e-07
9.8169247e-08
9.5462147e-08
9.2783278e-08
9.0190937e-08
8.7760617e-08
8.5503655e-08
8.3403408e-08
8.1444892e-08
7.9613794e-08
7.7897483e-08
7.6284879e-08
7.4766186e-08
7.3332705e-08
7.1976717e-08
7.0691307e-08
6.9470116e-08
6.8307293e-08
6.7197261e-08
6.6134799e-08
6.5113666e-08
6.412934e-08
6.3169122e-08
6.2239253e-08
6.1273149e-08
6.0440556e-08
5.9223963e-08
0.0001349456
0.00012866506
0.00012645247
0.00012536035
0.00012467949
0.00012420446
0.00012385387
0.00012358624
0.00012337712
0.00012321078
0.00012307661
0.00012296717
0.00012287707
0.00012280236
0.00012274001
0.00012268775
0.00012264369
0.00012260689
0.00012257476
0.00012255314
0.00012251311
0.00012260427
0.0001219972
0.00012502346
1.7865748e-05
2.6023071e-06
5.0500705e-06
8.8481114e-07
2.6512649e-06
5.7169814e-07
1.8483255e-06
4.9866803e-07
1.4292171e-06
1.2238917e-06
1.1626598e-06
1.0499485e-06
9.8093394e-07
9.095723e-07
8.5178737e-07
7.9949596e-07
7.5361762e-07
7.1254222e-07
6.7567752e-07
6.423546e-07
6.1209527e-07
5.8447788e-07
5.591632e-07
5.358665e-07
5.143482e-07
4.9440582e-07
4.7586589e-07
4.5857916e-07
4.4241704e-07
4.272677e-07
4.13034e-07
3.9963116e-07
3.8698403e-07
3.750261e-07
3.6369863e-07
3.529493e-07
3.4273142e-07
3.330032e-07
3.2372734e-07
3.148699e-07
3.0639999e-07
2.982896e-07
2.9051384e-07
2.8304982e-07
2.7587652e-07
2.6897493e-07
2.623278e-07
2.5591895e-07
2.4973345e-07
2.4375767e-07
2.3797901e-07
2.323858e-07
2.2696716e-07
2.2171299e-07
2.1661419e-07
2.1166208e-07
2.0684835e-07
2.0216552e-07
1.976069e-07
1.9316668e-07
1.8883908e-07
1.8461827e-07
1.8049887e-07
1.7647594e-07
1.7254465e-07
1.6870038e-07
1.6493888e-07
1.6125611e-07
1.5764823e-07
1.5411162e-07
1.5064281e-07
1.4723871e-07
1.4389623e-07
1.4061234e-07
1.3738421e-07
1.3420915e-07
1.3108457e-07
1.2800798e-07
1.24977e-07
1.2198943e-07
1.1904295e-07
1.1613549e-07
1.1326501e-07
1.1042952e-07
1.0762704e-07
1.0485573e-07
1.021138e-07
9.9399157e-08
9.671149e-08
9.4109607e-08
9.1669603e-08
8.9403053e-08
8.729336e-08
8.532553e-08
8.3485239e-08
8.1759854e-08
8.0138293e-08
7.8610767e-08
7.7168579e-08
7.5804014e-08
7.4510159e-08
7.328066e-08
7.2109668e-08
7.099162e-08
6.9921295e-08
6.8892439e-08
6.7900526e-08
6.6932758e-08
6.5995574e-08
6.5021658e-08
6.4183162e-08
6.2954484e-08
0.00013484365
0.00012850128
0.00012626525
0.00012516082
0.00012447202
0.00012399137
0.00012363656
0.00012336569
0.00012315399
0.00012298559
0.00012284973
0.00012273888
0.00012264762
0.00012257191
0.00012250871
0.00012245573
0.00012241104
0.00012237369
0.00012234106
0.00012231906
0.00012227848
0.00012237036
0.00012175761
0.00012481506
1.7853965e-05
2.5625845e-06
4.9221769e-06
8.6694847e-07
2.5920711e-06
5.6637937e-07
1.812324e-06
5.220732e-07
1.4048173e-06
1.2064833e-06
1.14517e-06
1.0360533e-06
9.6824708e-07
8.9879825e-07
8.4229241e-07
7.9124053e-07
7.4639777e-07
7.0624466e-07
6.7019127e-07
6.375911e-07
6.0797721e-07
5.8093983e-07
5.561484e-07
5.3332575e-07
5.1223853e-07
4.9268946e-07
4.745095e-07
4.5755319e-07
4.4169517e-07
4.2682639e-07
4.1285212e-07
3.9968966e-07
3.8726569e-07
3.7551533e-07
3.6438123e-07
3.5381232e-07
3.4376307e-07
3.3419266e-07
3.2506466e-07
3.1634588e-07
3.0800616e-07
3.0001802e-07
2.9235723e-07
2.850014e-07
2.7793001e-07
2.7112447e-07
2.6456789e-07
2.5824447e-07
2.521396e-07
2.4623995e-07
2.4053318e-07
2.3500789e-07
2.2965347e-07
2.2446003e-07
2.1941871e-07
2.1452109e-07
2.0975919e-07
2.051258e-07
2.0061444e-07
1.9621913e-07
1.9193398e-07
1.8775327e-07
1.836717e-07
1.7968444e-07
1.7578677e-07
1.7197413e-07
1.6824235e-07
1.6458745e-07
1.6100569e-07
1.5749349e-07
1.5404744e-07
1.5066452e-07
1.4734167e-07
1.4407592e-07
1.4086447e-07
1.3770467e-07
1.3459397e-07
1.315299e-07
1.2851011e-07
1.2553243e-07
1.2259452e-07
1.1969436e-07
1.1682994e-07
1.1399929e-07
1.1120043e-07
1.0843153e-07
1.0569083e-07
1.0297628e-07
1.002875e-07
9.7683633e-08
9.5241139e-08
9.2971779e-08
9.085903e-08
8.8887923e-08
8.7044157e-08
8.531512e-08
8.3689759e-08
8.2158311e-08
8.0712104e-08
7.9343445e-08
7.804544e-08
7.6811755e-08
7.5636557e-08
7.4514311e-08
7.3439816e-08
7.2406814e-08
7.1410795e-08
7.04389e-08
6.9497742e-08
6.8519504e-08
6.7678129e-08
6.6441882e-08
0.00013470764
0.00012828269
0.00012601535
0.00012489447
0.00012419509
0.00012370692
0.00012334649
0.00012307127
0.00012285615
0.00012268498
0.00012254686
0.00012243415
0.00012234132
0.00012226429
0.00012219996
0.000122146
0.00012210046
0.00012206238
0.00012202909
0.00012200659
0.00012196526
0.0001220581
0.0001214378
0.00012453685
1.7846684e-05
2.5217196e-06
4.7891322e-06
8.4814761e-07
2.5294869e-06
5.6019692e-07
1.7736591e-06
5.4481419e-07
1.3781828e-06
1.1869202e-06
1.1257525e-06
1.020278e-06
9.5381253e-07
8.8633598e-07
8.311881e-07
7.8143488e-07
7.3768503e-07
6.9850481e-07
6.6330926e-07
6.3147441e-07
6.0254523e-07
5.7612419e-07
5.5188979e-07
5.2957273e-07
5.0894613e-07
4.8981811e-07
4.7202428e-07
4.554231e-07
4.3989259e-07
4.2532661e-07
4.1163294e-07
3.9873106e-07
3.8654957e-07
3.7502527e-07
3.6410228e-07
3.5373085e-07
3.4386666e-07
3.344699e-07
3.2550504e-07
3.1693973e-07
3.0874452e-07
3.0089254e-07
2.9336021e-07
2.8612573e-07
2.7916905e-07
2.7247202e-07
2.6601819e-07
2.5979211e-07
2.5377953e-07
2.4796744e-07
2.423438e-07
2.368975e-07
2.3161817e-07
2.2649621e-07
2.21523e-07
2.1669037e-07
2.1199061e-07
2.0741673e-07
2.0296233e-07
1.9862133e-07
1.9438789e-07
1.9025642e-07
1.8622173e-07
1.8227907e-07
1.7842383e-07
1.7465156e-07
1.7095815e-07
1.6733971e-07
1.6379257e-07
1.6031321e-07
1.568983e-07
1.5354486e-07
1.5024992e-07
1.4701053e-07
1.4382394e-07
1.4068755e-07
1.3759885e-07
1.345554e-07
1.3155489e-07
1.2859517e-07
1.2567389e-07
1.227891e-07
1.1993881e-07
1.1712105e-07
1.143339e-07
1.1157553e-07
1.0884419e-07
1.061379e-07
1.0345621e-07
1.0085841e-07
9.8421074e-08
9.6156095e-08
9.4047063e-08
9.2079066e-08
9.0237861e-08
8.8510893e-08
8.6887163e-08
8.5356961e-08
8.3911662e-08
8.2543612e-08
8.1245958e-08
8.0012402e-08
7.8837143e-08
7.771469e-08
7.6639874e-08
7.5606457e-08
7.4609953e-08
7.363749e-08
7.269583e-08
7.1716893e-08
7.0875766e-08
6.9636634e-08
0.00013453431
0.0001280038
0.00012569646
0.00012455457
0.00012384166
0.00012334388
0.00012297627
0.00012269551
0.000122476
0.00012230131
0.00012216031
0.00012204521
0.00012195038
0.00012187166
0.00012180588
0.00012175068
0.00012170406
0.00012166504
0.00012163091
0.00012160777
0.00012156548
0.00012165954
0.00012102963
0.00012418185
1.7844822e-05
2.479455e-06
4.6496289e-06
8.2820608e-07
2.4627718e-06
5.5294795e-07
1.7318029e-06
5.6638763e-07
1.348902e-06
1.1648513e-06
1.1040657e-06
1.0023149e-06
9.3733798e-07
8.7191383e-07
8.1821733e-07
7.6983609e-07
7.2724847e-07
6.8910261e-07
6.5482109e-07
6.2380285e-07
5.9560554e-07
5.6984435e-07
5.4620735e-07
5.2443343e-07
5.0430252e-07
4.8562845e-07
4.6825165e-07
4.5203474e-07
4.3685928e-07
4.2262221e-07
4.0923395e-07
3.9661625e-07
3.8469975e-07
3.7342302e-07
3.6273176e-07
3.5257759e-07
3.4291746e-07
3.3371264e-07
3.2492855e-07
3.1653374e-07
3.084995e-07
3.0079961e-07
2.9341121e-07
2.8631307e-07
2.7948568e-07
2.7291138e-07
2.6657413e-07
2.6045891e-07
2.5455183e-07
2.4884023e-07
2.4331239e-07
2.379575e-07
2.3276548e-07
2.27727e-07
2.2283368e-07
2.1807763e-07
2.1345134e-07
2.0894799e-07
2.0456122e-07
2.00285e-07
1.9611358e-07
1.9204151e-07
1.880637e-07
1.8417553e-07
1.8037249e-07
1.7665023e-07
1.7300473e-07
1.694322e-07
1.6592903e-07
1.6249178e-07
1.591172e-07
1.5580238e-07
1.525444e-07
1.4934036e-07
1.4618759e-07
1.4308351e-07
1.4002567e-07
1.3701167e-07
1.3403923e-07
1.3110623e-07
1.2821035e-07
1.2534967e-07
1.2252224e-07
1.1972613e-07
1.1695942e-07
1.1422033e-07
1.1150713e-07
1.088179e-07
1.0615212e-07
1.0356904e-07
1.0114508e-07
9.8892185e-08
9.6794113e-08
9.483605e-08
9.3003848e-08
9.1285044e-08
8.9668727e-08
8.8145265e-08
8.6706106e-08
8.5343658e-08
8.4051127e-08
8.282227e-08
8.1651335e-08
8.0532892e-08
7.9461822e-08
7.8431924e-08
7.7438753e-08
7.6469469e-08
7.5530955e-08
7.4555126e-08
7.3717524e-08
7.2480433e-08
0.00013431981
0.00012765811
0.00012530106
0.00012413305
0.00012340334
0.00012289364
0.00012251711
0.00012222946
0.00012200451
0.00012182544
0.00012168086
0.00012156279
0.00012146548
0.00012138466
0.00012131709
0.00012126034
0.00012121238
0.00012117219
0.00012113701
0.00012111307
0.0001210696
0.00012116517
0.00012052338
0.00012374174
1.7849618e-05
2.4355838e-06
4.5024783e-06
8.0693293e-07
2.3912222e-06
5.4442176e-07
1.6862413e-06
5.8621129e-07
1.3165672e-06
1.1399216e-06
1.0797669e-06
9.8185149e-07
9.1852599e-07
8.552534e-07
8.0311562e-07
7.5619307e-07
7.1484844e-07
6.7780871e-07
6.4450666e-07
6.1436466e-07
5.8695397e-07
5.6190305e-07
5.3891014e-07
5.1772275e-07
4.98128e-07
4.7994573e-07
4.630215e-07
4.4722233e-07
4.3243351e-07
4.1855523e-07
4.0550072e-07
3.9319417e-07
3.8156834e-07
3.7056371e-07
3.6012762e-07
3.5021317e-07
3.4077865e-07
3.317865e-07
3.2320315e-07
3.1499807e-07
3.071434e-07
2.9961357e-07
2.9238651e-07
2.854416e-07
2.7875991e-07
2.7232428e-07
2.6611914e-07
2.601299e-07
2.5434309e-07
2.487464e-07
2.4332847e-07
2.3807879e-07
2.3298761e-07
2.2804587e-07
2.2324544e-07
2.1857867e-07
2.1403825e-07
2.096175e-07
2.0531016e-07
2.0111028e-07
1.9701226e-07
1.9301079e-07
1.8910092e-07
1.8527814e-07
1.8153805e-07
1.7787642e-07
1.7428933e-07
1.7077307e-07
1.6732414e-07
1.6393918e-07
1.60615e-07
1.5734878e-07
1.5413766e-07
1.5097883e-07
1.4786964e-07
1.4480759e-07
1.4179026e-07
1.3881532e-07
1.3588054e-07
1.3298382e-07
1.3012284e-07
1.2729577e-07
1.2450068e-07
1.2173569e-07
1.1899892e-07
1.1628859e-07
1.1360302e-07
1.1094036e-07
1.0830003e-07
1.05741e-07
1.0333925e-07
1.0110674e-07
9.9027414e-08
9.7086609e-08
9.5270318e-08
9.3566211e-08
9.1963495e-08
9.045265e-08
8.9025221e-08
8.7673705e-08
8.6391387e-08
8.51721e-08
8.4010159e-08
8.2900214e-08
8.1837213e-08
8.0815014e-08
7.9829228e-08
7.8867097e-08
7.7935595e-08
7.6966906e-08
7.6136287e-08
7.4906459e-08
0.00013405971
0.00012723808
0.00012482043
0.00012362061
0.00012287043
0.00012234619
0.0001219588
0.00012166277
0.00012143119
0.00012124677
0.00012109783
0.00012097616
0.00012087582
0.00012079244
0.00012072268
0.00012066406
0.00012061446
0.00012057285
0.00012053639
0.00012051148
0.00012046658
0.00012056396
0.00011990778
0.0001232069
1.7862672e-05
2.3899586e-06
4.3466328e-06
7.8415239e-07
2.3141843e-06
5.3440319e-07
1.6364834e-06
6.0363079e-07
1.2807825e-06
1.1117804e-06
1.0525185e-06
9.5857682e-07
8.9708035e-07
8.3607576e-07
7.8561704e-07
7.4025225e-07
7.0024201e-07
6.6438986e-07
6.3214135e-07
6.0294305e-07
5.7638084e-07
5.5209716e-07
5.29801e-07
5.0924904e-07
4.9023603e-07
4.7258818e-07
4.5615648e-07
4.4081263e-07
4.264459e-07
4.1295994e-07
4.0027096e-07
3.8830573e-07
3.769993e-07
3.6629417e-07
3.5613943e-07
3.4648977e-07
3.3730492e-07
3.2854853e-07
3.2018814e-07
3.1219421e-07
3.0453976e-07
2.9719998e-07
2.9015357e-07
2.8338062e-07
2.768628e-07
2.7058349e-07
2.6452762e-07
2.5868108e-07
2.5303083e-07
2.4756495e-07
2.4227246e-07
2.3714318e-07
2.3216767e-07
2.2733717e-07
2.2264381e-07
2.1808017e-07
2.1363914e-07
2.0931419e-07
2.0509919e-07
2.0098834e-07
1.9697621e-07
1.9305762e-07
1.8922777e-07
1.854823e-07
1.8181692e-07
1.7822752e-07
1.747103e-07
1.7126166e-07
1.6787817e-07
1.6455657e-07
1.6129378e-07
1.5808704e-07
1.5493358e-07
1.5183065e-07
1.4877568e-07
1.4576622e-07
1.4279991e-07
1.3987448e-07
1.3698775e-07
1.3413766e-07
1.3132191e-07
1.2853874e-07
1.2578628e-07
1.2306267e-07
1.2036608e-07
1.1769477e-07
1.150471e-07
1.1242128e-07
1.0981669e-07
1.0729179e-07
1.0492178e-07
1.0271857e-07
1.0066636e-07
9.8750681e-08
9.6957716e-08
9.527531e-08
9.3692826e-08
9.220089e-08
9.0791172e-08
8.9456286e-08
8.818962e-08
8.6985103e-08
8.5837139e-08
8.4740478e-08
8.3690152e-08
8.2680101e-08
8.1706011e-08
8.075526e-08
7.9834875e-08
7.8877609e-08
7.8057633e-08
7.684062e-08
0.00013374906
0.00012673519
0.00012424473
0.00012300669
0.00012223192
0.00012169023
0.00012128979
0.00012098369
0.00012074415
0.00012055333
0.00012039915
0.00012027314
0.00012016917
0.00012008272
0.00012001034
0.00011994946
0.00011989789
0.00011985459
0.00011981659
0.00011979051
0.00011974389
0.00011984345
0.00011917007
0.00012256648
1.7885996e-05
2.3425022e-06
4.1812165e-06
7.5970876e-07
2.2310727e-06
5.2267803e-07
1.5820761e-06
6.1793452e-07
1.2411754e-06
1.080092e-06
1.0219986e-06
9.3219136e-07
8.7271497e-07
8.1411001e-07
7.6546238e-07
7.2176554e-07
6.831907e-07
6.4861627e-07
6.1750323e-07
5.8932321e-07
5.6367787e-07
5.4022431e-07
5.1868307e-07
4.9882053e-07
4.8043952e-07
4.6337307e-07
4.4747796e-07
4.3263084e-07
4.1872524e-07
4.0566849e-07
3.9337999e-07
3.8178926e-07
3.7083382e-07
3.6045828e-07
3.5061367e-07
3.4125632e-07
3.3234751e-07
3.2385221e-07
3.1573913e-07
3.0797979e-07
3.005482e-07
2.9342031e-07
2.8657571e-07
2.7999519e-07
2.7366108e-07
2.6755736e-07
2.6166949e-07
2.5598388e-07
2.5048793e-07
2.4517016e-07
2.4001997e-07
2.3502755e-07
2.301838e-07
2.2548025e-07
2.2090931e-07
2.1646378e-07
2.1213676e-07
2.0792192e-07
2.0381329e-07
1.9980524e-07
1.9589252e-07
1.9207014e-07
1.8833344e-07
1.846782e-07
1.8110027e-07
1.7759568e-07
1.7416075e-07
1.7079198e-07
1.6748606e-07
1.6423984e-07
1.6105031e-07
1.5791483e-07
1.548307e-07
1.5179524e-07
1.4880597e-07
1.458605e-07
1.4295655e-07
1.400919e-07
1.3726444e-07
1.3447215e-07
1.3171277e-07
1.289846e-07
1.2628584e-07
1.2361467e-07
1.209693e-07
1.1834806e-07
1.1574932e-07
1.1317139e-07
1.1061361e-07
1.0813365e-07
1.0580561e-07
1.0364127e-07
1.0162514e-07
9.9743014e-08
9.7981308e-08
9.632809e-08
9.4772923e-08
9.3306613e-08
9.1920991e-08
9.0608811e-08
8.9363594e-08
8.8179386e-08
8.7050705e-08
8.5972419e-08
8.4939667e-08
8.3946495e-08
8.2988679e-08
8.2053791e-08
8.1148878e-08
8.0207577e-08
7.940211e-08
7.8203809e-08
0.00013338248
0.00012614003
0.00012356301
0.00012227956
0.00012147558
0.00012091316
0.00012049723
0.00012017917
0.00011993018
0.00011973176
0.00011957136
0.0001194402
0.00011933193
0.00011924182
0.00011916633
0.00011910276
0.00011904887
0.00011900354
0.00011896373
0.00011893626
0.00011888759
0.00011898972
0.00011829604
0.00012180842
1.7922061e-05
2.2932211e-06
4.0055647e-06
7.3347246e-07
2.1413937e-06
5.0904068e-07
1.5226209e-06
6.2837672e-07
1.1974112e-06
1.0445498e-06
9.879132e-07
9.0241903e-07
8.4516529e-07
7.8910428e-07
7.4240973e-07
7.0050043e-07
6.6347023e-07
6.3027115e-07
6.0038227e-07
5.7330128e-07
5.4864681e-07
5.2609148e-07
5.0536811e-07
4.8625339e-07
4.685588e-07
4.5212457e-07
4.3681369e-07
4.2250809e-07
4.0910583e-07
3.9651819e-07
3.8466795e-07
3.734876e-07
3.6291725e-07
3.5290384e-07
3.434004e-07
3.3436508e-07
3.2576078e-07
3.175539e-07
3.097144e-07
3.0221496e-07
2.9503061e-07
2.8813817e-07
2.8151814e-07
2.751521e-07
2.6902307e-07
2.6311567e-07
2.5741595e-07
2.5191084e-07
2.4658825e-07
2.4143716e-07
2.3644737e-07
2.3160947e-07
2.2691469e-07
2.2235491e-07
2.1792279e-07
2.1361139e-07
2.0941407e-07
2.0532468e-07
2.0133746e-07
1.97447e-07
1.9364823e-07
1.8993635e-07
1.8630687e-07
1.8275571e-07
1.7927891e-07
1.7587262e-07
1.7253328e-07
1.6925753e-07
1.6604219e-07
1.6288419e-07
1.5978065e-07
1.5672903e-07
1.5372671e-07
1.5077113e-07
1.4785985e-07
1.4499058e-07
1.4216112e-07
1.3936932e-07
1.3661313e-07
1.3389059e-07
1.3119947e-07
1.2853818e-07
1.2590495e-07
1.2329803e-07
1.2071569e-07
1.1815629e-07
1.1561828e-07
1.1310004e-07
1.1060088e-07
1.0817741e-07
1.0590223e-07
1.0378696e-07
1.0181646e-07
9.9976839e-08
9.8254822e-08
9.6638747e-08
9.511842e-08
9.3684865e-08
9.2330109e-08
9.1047079e-08
8.9829453e-08
8.8671424e-08
8.7567642e-08
8.651312e-08
8.550312e-08
8.4531826e-08
8.3595121e-08
8.2680834e-08
8.1795983e-08
8.0875439e-08
8.0088549e-08
7.8915192e-08
0.00013295415
0.00012544229
0.0001227633
0.00012142637
0.00012058801
0.00012000119
0.00011956703
0.0001192349
0.00011897479
0.00011876742
0.00011859971
0.0001184625
0.00011834915
0.00011825475
0.0001181756
0.00011810887
0.00011805223
0.00011800453
0.00011796257
0.00011793348
0.00011788241
0.00011798755
0.00011727011
0.00012091956
1.797385e-05
2.242222e-06
3.8192716e-06
7.0534729e-07
2.0447749e-06
4.9330388e-07
1.4577971e-06
6.3420864e-07
1.1492112e-06
1.0048926e-06
9.5001174e-07
8.6902211e-07
8.1420233e-07
7.6083919e-07
7.1624733e-07
6.7625248e-07
6.4088254e-07
6.0916232e-07
5.8059164e-07
5.546953e-07
5.3111021e-07
5.0952536e-07
4.8968666e-07
4.7138177e-07
4.5443134e-07
4.3868331e-07
4.2400723e-07
4.102907e-07
3.9743661e-07
3.8536042e-07
3.7398856e-07
3.6325667e-07
3.5310764e-07
3.4349088e-07
3.3436158e-07
3.2567982e-07
3.1741026e-07
3.0952079e-07
3.0198275e-07
2.9477005e-07
2.878588e-07
2.8122681e-07
2.748555e-07
2.687273e-07
2.62826e-07
2.571369e-07
2.5164665e-07
2.4634278e-07
2.4121372e-07
2.3624894e-07
2.3143868e-07
2.2677395e-07
2.2224634e-07
2.1784808e-07
2.1357212e-07
2.0941181e-07
2.0536075e-07
2.0141305e-07
1.9756319e-07
1.9380597e-07
1.9013653e-07
1.8655029e-07
1.8304293e-07
1.7961054e-07
1.7624933e-07
1.729556e-07
1.6972595e-07
1.6655714e-07
1.6344613e-07
1.6038997e-07
1.573859e-07
1.5443147e-07
1.515242e-07
1.4866159e-07
1.4584132e-07
1.4306118e-07
1.4031904e-07
1.3761285e-07
1.3494063e-07
1.3230048e-07
1.2969022e-07
1.2710835e-07
1.2455317e-07
1.22023e-07
1.1951616e-07
1.1703108e-07
1.1456627e-07
1.1212019e-07
1.0969213e-07
1.0733733e-07
1.0512653e-07
1.0307106e-07
1.0115626e-07
9.9368583e-08
9.7695134e-08
9.6124575e-08
9.4647003e-08
9.3253701e-08
9.1936929e-08
9.068982e-08
8.9506237e-08
8.8380548e-08
8.7307561e-08
8.6282454e-08
8.5300639e-08
8.4356462e-08
8.3445935e-08
8.2557206e-08
8.1697222e-08
8.080245e-08
8.0038379e-08
7.88965e-08
0.00013245795
0.00012463089
0.00012183264
0.00012043321
0.00011955468
0.00011893937
0.00011848392
0.00011813536
0.00011786227
0.00011764445
0.0001174682
0.00011732392
0.00011720465
0.00011710525
0.00011702182
0.00011695142
0.00011689157
0.0001168411
0.00011679664
0.00011676564
0.00011671178
0.0001168204
0.00011607539
0.00011988567
1.8044902e-05
2.1897327e-06
3.6222456e-06
6.7527873e-07
1.9409991e-06
4.7531071e-07
1.3873869e-06
6.3471687e-07
1.096374e-06
9.6092525e-07
9.081057e-07
8.3181874e-07
7.7964923e-07
7.2914371e-07
6.8680877e-07
6.4885988e-07
6.1526992e-07
5.8513586e-07
5.5798092e-07
5.3335813e-07
5.1092394e-07
4.9038465e-07
4.7150006e-07
4.5406947e-07
4.3792326e-07
4.2291757e-07
4.0892896e-07
3.9585099e-07
3.8359174e-07
3.7207112e-07
3.6121942e-07
3.5097565e-07
3.4128568e-07
3.3210155e-07
3.2338075e-07
3.1508543e-07
3.0718209e-07
2.9964028e-07
2.9243275e-07
2.8553475e-07
2.7892357e-07
2.7257804e-07
2.6648063e-07
2.6061463e-07
2.5496466e-07
2.4951672e-07
2.4425816e-07
2.3917711e-07
2.3426258e-07
2.2950454e-07
2.2489373e-07
2.2042156e-07
2.1608005e-07
2.1186178e-07
2.0776003e-07
2.0376845e-07
1.9988095e-07
1.9609188e-07
1.9239599e-07
1.8878833e-07
1.8526429e-07
1.8181946e-07
1.7844976e-07
1.7515146e-07
1.7192093e-07
1.6875466e-07
1.6564939e-07
1.6260206e-07
1.5960973e-07
1.5666961e-07
1.5377906e-07
1.5093576e-07
1.4813733e-07
1.4538138e-07
1.426657e-07
1.3998817e-07
1.3734676e-07
1.347395e-07
1.321645e-07
1.2961993e-07
1.2710368e-07
1.2461434e-07
1.2215028e-07
1.197099e-07
1.1729159e-07
1.1489385e-07
1.1251524e-07
1.1015433e-07
1.0781041e-07
1.0553699e-07
1.0340256e-07
1.0141811e-07
9.9569474e-08
9.7843574e-08
9.6227933e-08
9.4711598e-08
9.328501e-08
9.1939754e-08
9.0668361e-08
8.9464204e-08
8.8321364e-08
8.723441e-08
8.6198334e-08
8.5208505e-08
8.4260505e-08
8.3348873e-08
8.246977e-08
8.1611735e-08
8.0781588e-08
7.9917777e-08
7.9180897e-08
7.8077272e-08
0.00013188754
0.00012369403
0.00012075721
0.00011928521
0.00011836007
0.0001177117
0.00011723157
0.00011686395
0.00011657582
0.00011634588
0.00011615974
0.00011600727
0.00011588114
0.00011577593
0.00011568754
0.00011561287
0.00011554932
0.00011549563
0.00011544827
0.00011541506
0.00011535798
0.00011547061
0.00011469384
0.00011869156
1.813935e-05
2.1361267e-06
3.4147688e-06
6.4326326e-07
1.8300436e-06
4.5494845e-07
1.3113058e-06
6.2926754e-07
1.0387997e-06
9.1254033e-07
8.6208951e-07
7.9070287e-07
7.4140016e-07
6.9391327e-07
6.5399036e-07
6.1822022e-07
5.865311e-07
5.5809176e-07
5.3245129e-07
5.0919211e-07
4.8799151e-07
4.6857397e-07
4.5071402e-07
4.3422326e-07
4.1894236e-07
4.0473616e-07
3.9148859e-07
3.7909962e-07
3.6748275e-07
3.5656265e-07
3.4627372e-07
3.3655854e-07
3.2736613e-07
3.1865134e-07
3.1037411e-07
3.0249879e-07
2.9499384e-07
2.8783054e-07
2.809832e-07
2.7442846e-07
2.681449e-07
2.6211245e-07
2.5631463e-07
2.5073572e-07
2.4536117e-07
2.4017779e-07
2.3517361e-07
2.3033743e-07
2.2565887e-07
2.2112845e-07
2.1673741e-07
2.1247763e-07
2.0834157e-07
2.0432217e-07
2.0041309e-07
1.9660831e-07
1.9290204e-07
1.8928895e-07
1.8576407e-07
1.8232271e-07
1.7896049e-07
1.7567327e-07
1.7245717e-07
1.6930864e-07
1.6622428e-07
1.6320073e-07
1.6023494e-07
1.5732397e-07
1.5446506e-07
1.5165556e-07
1.4889296e-07
1.4617508e-07
1.4349965e-07
1.4086442e-07
1.3826727e-07
1.357062e-07
1.3317927e-07
1.3068463e-07
1.2822046e-07
1.2578503e-07
1.2337629e-07
1.2099294e-07
1.1863343e-07
1.1629624e-07
1.1397985e-07
1.1168282e-07
1.0940378e-07
1.0714143e-07
1.0489502e-07
1.0271605e-07
1.0067031e-07
9.8768367e-08
9.6996657e-08
9.5342607e-08
9.3794242e-08
9.2341056e-08
9.0973881e-08
8.968465e-08
8.8466206e-08
8.7312197e-08
8.6216955e-08
8.5175275e-08
8.4182364e-08
8.3233804e-08
8.2325371e-08
8.1451828e-08
8.0609507e-08
7.9787404e-08
7.8992162e-08
7.8164604e-08
7.7459362e-08
7.6400917e-08
0.00013123646
0.00012261936
0.00011952244
0.00011796669
0.00011698779
0.00011630131
0.00011579272
0.00011540315
0.00011509767
0.00011485378
0.00011465624
0.00011449433
0.0001143603
0.00011424841
0.00011415431
0.00011407472
0.00011400689
0.0001139495
0.00011389881
0.00011386306
0.00011380226
0.00011391947
0.00011310638
0.00011732123
1.8261936e-05
2.0819546e-06
3.197559e-06
6.0935804e-07
1.7121218e-06
4.3216395e-07
1.2296351e-06
6.1735457e-07
9.7651717e-07
8.5974359e-07
8.1196381e-07
7.4566637e-07
6.9944119e-07
6.5512971e-07
6.1777023e-07
5.8430882e-07
5.5463905e-07
5.2800102e-07
5.0397216e-07
4.8216533e-07
4.6227985e-07
4.4405929e-07
4.2729371e-07
4.1180761e-07
3.9745251e-07
3.8410241e-07
3.7164905e-07
3.599991e-07
3.4907185e-07
3.3879695e-07
3.2911315e-07
3.199668e-07
3.1131028e-07
3.0310138e-07
2.9530266e-07
2.8788077e-07
2.8080626e-07
2.7405226e-07
2.675947e-07
2.6141174e-07
2.5548328e-07
2.4979044e-07
2.443179e-07
2.3905091e-07
2.3397586e-07
2.2908038e-07
2.2435325e-07
2.1978398e-07
2.1536281e-07
2.1108087e-07
2.0692993e-07
2.0290236e-07
1.9899107e-07
1.9518946e-07
1.9149153e-07
1.8789163e-07
1.8438433e-07
1.8096462e-07
1.7762782e-07
1.7436954e-07
1.7118566e-07
1.6807228e-07
1.6502576e-07
1.6204279e-07
1.5912013e-07
1.5625466e-07
1.5344349e-07
1.5068386e-07
1.4797318e-07
1.4530895e-07
1.4268882e-07
1.4011073e-07
1.3757256e-07
1.3507218e-07
1.326076e-07
1.3017693e-07
1.2777835e-07
1.2541009e-07
1.2307047e-07
1.2075784e-07
1.1847022e-07
1.1620642e-07
1.13965e-07
1.1174452e-07
1.0954353e-07
1.0736069e-07
1.0519472e-07
1.030444e-07
1.0090901e-07
9.8837659e-08
9.6893014e-08
9.5085165e-08
9.34012e-08
9.182914e-08
9.0357581e-08
8.8976519e-08
8.7677233e-08
8.645205e-08
8.5294163e-08
8.4197533e-08
8.3156772e-08
8.2166935e-08
8.1223468e-08
8.0322189e-08
7.9459094e-08
7.8629201e-08
7.782903e-08
7.704811e-08
7.6292847e-08
7.5506843e-08
7.4837677e-08
7.3831368e-08
0.00013049833
0.00012139409
0.00011811322
0.00011646133
0.00011542076
0.0001146906
0.00011414939
0.00011373467
0.00011340933
0.00011314946
0.00011293887
0.00011276615
0.00011262307
0.00011250353
0.00011240289
0.00011231767
0.00011224495
0.00011218332
0.00011212881
0.00011209015
0.00011202512
0.00011214753
0.00011129316
0.00011575797
1.8417996e-05
2.0279816e-06
2.9718286e-06
5.7369086e-07
1.5877269e-06
4.0697993e-07
1.1426563e-06
5.9864948e-07
9.0971198e-07
8.0267991e-07
7.578601e-07
6.9682225e-07
6.5387248e-07
6.1288248e-07
5.7822861e-07
5.4719831e-07
5.1965975e-07
4.9492394e-07
4.7259882e-07
4.5232866e-07
4.3383596e-07
4.1688416e-07
4.0127954e-07
3.8686013e-07
3.7348879e-07
3.610491e-07
3.4944099e-07
3.3857817e-07
3.2838597e-07
3.1879929e-07
3.0976145e-07