/*--------------------------------*- C++ -*----------------------------------*\
| =========                 |                                                 |
| \\      /  F ield         | OpenFOAM: The Open Source CFD Toolbox           |
|  \\    /   O peration     | Version:  2206                                  |
|   \\  /    A nd           | Website:  www.openfoam.com                      |
|    \\/     M anipulation  |                                                 |
\*---------------------------------------------------------------------------*/
FoamFile
{
    version     2.0;
    format      ascii;
    arch        "LSB;label=32;scalar=64";
    class       volScalarField;
    location    "1000";
    object      nut;
}
// * * * * * * * * * * * * * * * * * * * * * * * * * * * * * * * * * * * * * //

dimensions      [0 2 -1 0 0 0 0];

internalField   nonuniform List<scalar> 
13056
(
6.5899323e-09
6.043593e-09
5.8667466e-09
5.7806254e-09
5.7269105e-09
5.6895124e-09
5.6619847e-09
5.6410099e-09
5.6246287e-09
5.611587e-09
5.6010373e-09
5.5923831e-09
5.5851877e-09
5.5791197e-09
5.5739113e-09
5.5693391e-09
5.5651602e-09
5.5611928e-09
5.5568066e-09
5.5523693e-09
5.5425019e-09
5.5394697e-09
5.4690228e-09
4.3936191e-09
3.1804068e-11
1.2383977e-11
1.7483703e-11
7.2626436e-12
1.2604452e-11
5.7413157e-12
1.0475567e-11
4.9152165e-12
9.1756713e-12
8.449412e-12
8.2489312e-12
7.8141198e-12
7.5501846e-12
7.2566491e-12
7.0143895e-12
6.7861877e-12
6.5803526e-12
6.39047e-12
6.2153821e-12
6.0529294e-12
5.9017176e-12
5.760398e-12
5.6278913e-12
5.5032624e-12
5.3857096e-12
5.2745431e-12
5.169159e-12
5.0690268e-12
4.9736819e-12
4.8827128e-12
4.7957564e-12
4.712492e-12
4.6326293e-12
4.5559069e-12
4.4820911e-12
4.4109705e-12
4.3423531e-12
4.2760655e-12
4.2119519e-12
4.149867e-12
4.0896769e-12
4.0312597e-12
3.9745041e-12
3.9193066e-12
3.8655712e-12
3.8132106e-12
3.7621448e-12
3.7122969e-12
3.6635949e-12
3.6159726e-12
3.5693678e-12
3.5237225e-12
3.4789812e-12
3.4350922e-12
3.392009e-12
3.3496859e-12
3.308077e-12
3.2671408e-12
3.2268394e-12
3.1870708e-12
3.1478555e-12
3.109175e-12
3.0709974e-12
3.0332935e-12
2.9960334e-12
2.9591876e-12
2.9227289e-12
2.8866307e-12
2.850867e-12
2.8154126e-12
2.7802427e-12
2.7453351e-12
2.7106666e-12
2.6762131e-12
2.6419521e-12
2.607861e-12
2.5739176e-12
2.5400993e-12
2.5063838e-12
2.4727499e-12
2.4391747e-12
2.405635e-12
2.3721078e-12
2.3385693e-12
2.3049947e-12
2.2713595e-12
2.2376385e-12
2.203799e-12
2.169835e-12
2.1364883e-12
2.1047722e-12
2.0749059e-12
2.0467413e-12
2.0201422e-12
1.9949708e-12
1.9711026e-12
1.9484264e-12
1.9268419e-12
1.9062584e-12
1.8865943e-12
1.8677749e-12
1.8497297e-12
1.8323923e-12
1.8156967e-12
1.7995796e-12
1.7839596e-12
1.7687785e-12
1.7538491e-12
1.7392714e-12
1.7240028e-12
1.7107074e-12
1.6912189e-12
6.5898177e-09
6.0427324e-09
5.8656322e-09
5.7793811e-09
5.7255831e-09
5.6881265e-09
5.6605555e-09
5.6395476e-09
5.6231408e-09
5.6100788e-09
5.5995133e-09
5.5908467e-09
5.5836421e-09
5.5775678e-09
5.5723561e-09
5.5677842e-09
5.5636103e-09
5.559654e-09
5.5552912e-09
5.5508904e-09
5.5411182e-09
5.5382078e-09
5.4683711e-09
4.3929977e-09
3.233208e-11
1.2139136e-11
1.6969035e-11
6.9483271e-12
1.2217664e-11
5.3211597e-12
1.0141767e-11
4.2469494e-12
8.8667993e-12
8.1544945e-12
7.9502725e-12
7.5205774e-12
7.2552342e-12
6.9619802e-12
6.7179974e-12
6.4878107e-12
6.2792401e-12
6.0861685e-12
5.9074532e-12
5.74101e-12
5.5854918e-12
5.4395943e-12
5.302272e-12
5.1726193e-12
5.049859e-12
4.9333225e-12
4.8224238e-12
4.7166476e-12
4.6155427e-12
4.5187085e-12
4.4257921e-12
4.3364814e-12
4.2504936e-12
4.1675738e-12
4.0874938e-12
4.0100472e-12
3.9350455e-12
3.8623195e-12
3.7917168e-12
3.7230952e-12
3.6563233e-12
3.5912817e-12
3.5278608e-12
3.4659585e-12
3.40548e-12
3.3463391e-12
3.2884573e-12
3.231758e-12
3.1761698e-12
3.1216268e-12
3.0680672e-12
3.0154328e-12
2.9636681e-12
2.9127206e-12
2.8625438e-12
2.8130903e-12
2.7643124e-12
2.716164e-12
2.6685962e-12
2.6215627e-12
2.5750631e-12
2.5290664e-12
2.4835408e-12
2.4384574e-12
2.3937864e-12
2.3494981e-12
2.3055654e-12
2.2619618e-12
2.2186619e-12
2.1756405e-12
2.1328733e-12
2.0903388e-12
2.0480146e-12
2.0058776e-12
1.9639064e-12
1.9220798e-12
1.8803774e-12
1.8387784e-12
1.7972628e-12
1.7558126e-12
1.7144087e-12
1.6730309e-12
1.6316607e-12
1.5902791e-12
1.5488669e-12
1.5074061e-12
1.4658795e-12
1.4242603e-12
1.3825606e-12
1.3416856e-12
1.3028782e-12
1.2664148e-12
1.2321164e-12
1.1998169e-12
1.1693459e-12
1.1405483e-12
1.1132843e-12
1.0874273e-12
1.0628623e-12
1.0394855e-12
1.0172017e-12
9.9592148e-13
9.7556053e-13
9.5603566e-13
9.3726766e-13
9.1915755e-13
9.0163366e-13
8.8447927e-13
8.6780288e-13
8.504297e-13
8.3536342e-13
8.1343795e-13
6.5894117e-09
6.0400455e-09
5.8621739e-09
5.7755275e-09
5.7214768e-09
5.683842e-09
5.6561387e-09
5.6350295e-09
5.6185432e-09
5.6054181e-09
5.5948016e-09
5.5860939e-09
5.5788562e-09
5.5727558e-09
5.5675244e-09
5.5629392e-09
5.5587595e-09
5.5548065e-09
5.5504631e-09
5.5460997e-09
5.5364343e-09
5.5336821e-09
5.4645411e-09
4.3909135e-09
3.2887612e-11
1.1894893e-11
1.6456594e-11
6.6418931e-12
1.1831434e-11
4.9458991e-12
9.809007e-12
3.8468811e-12
8.560455e-12
7.8636551e-12
7.6564779e-12
7.2334727e-12
6.9680184e-12
6.6766924e-12
6.4326422e-12
6.2022889e-12
5.9928957e-12
5.7986652e-12
5.6184587e-12
5.4502709e-12
5.2927977e-12
5.1447795e-12
5.0052033e-12
4.8731924e-12
4.7479938e-12
4.6289595e-12
4.5155209e-12
4.4071782e-12
4.3034928e-12
4.2040758e-12
4.108584e-12
4.0167143e-12
3.9281915e-12
3.8427674e-12
3.7602199e-12
3.6803481e-12
3.602968e-12
3.5279149e-12
3.4550406e-12
3.3842064e-12
3.3152844e-12
3.2481583e-12
3.1827213e-12
3.1188741e-12
3.0565243e-12
2.9955882e-12
2.9359894e-12
2.8776539e-12
2.8205121e-12
2.7645003e-12
2.7095586e-12
2.6556309e-12
2.6026636e-12
2.5506061e-12
2.4994138e-12
2.4490417e-12
2.3994442e-12
2.3505791e-12
2.3024068e-12
2.2549007e-12
2.2080435e-12
2.1618045e-12
2.1161545e-12
2.0710678e-12
2.0265175e-12
1.9824772e-12
1.9389232e-12
1.8958324e-12
1.8531831e-12
1.8109541e-12
1.7691252e-12
1.7276789e-12
1.6865975e-12
1.6458625e-12
1.6054574e-12
1.5653664e-12
1.5255744e-12
1.4860663e-12
1.4468284e-12
1.4078487e-12
1.3691144e-12
1.330613e-12
1.2923329e-12
1.2542632e-12
1.2163927e-12
1.1787122e-12
1.1412131e-12
1.1038795e-12
1.0667298e-12
1.0305691e-12
9.9647759e-13
9.6466459e-13
9.3493931e-13
9.0712575e-13
8.8104892e-13
8.5655084e-13
8.3349053e-13
8.117413e-13
7.9118927e-13
7.717322e-13
7.5327744e-13
7.3573889e-13
7.1903658e-13
7.0309308e-13
6.8783566e-13
6.7317683e-13
6.590527e-13
6.4528409e-13
6.3195535e-13
6.1812792e-13
6.0619579e-13
5.8887165e-13
6.5887074e-09
6.0354487e-09
5.8562627e-09
5.7689428e-09
5.7144614e-09
5.6765228e-09
5.648594e-09
5.6273117e-09
5.6106895e-09
5.5974558e-09
5.5867515e-09
5.5779722e-09
5.5706759e-09
5.5645277e-09
5.5592583e-09
5.554644e-09
5.5504449e-09
5.5464835e-09
5.5421494e-09
5.5378161e-09
5.5282495e-09
5.5256697e-09
5.4571851e-09
4.387199e-09
3.3482638e-11
1.1649512e-11
1.5940666e-11
6.3415207e-12
1.1441676e-11
4.6073634e-12
9.4740312e-12
3.5915967e-12
8.2538327e-12
7.5741884e-12
7.3649134e-12
6.9501135e-12
6.6858226e-12
6.3979303e-12
6.1553177e-12
5.9263944e-12
5.7178266e-12
5.524146e-12
5.3442106e-12
5.1760936e-12
5.0185291e-12
4.8703003e-12
4.7304237e-12
4.5980492e-12
4.4724455e-12
4.3529828e-12
4.2391079e-12
4.1303337e-12
4.0262328e-12
3.9264254e-12
3.8305763e-12
3.7383891e-12
3.6495943e-12
3.5639486e-12
3.4812343e-12
3.4012539e-12
3.3238267e-12
3.2487904e-12
3.1759993e-12
3.1053166e-12
3.0366159e-12
2.9697822e-12
2.9047102e-12
2.8413016e-12
2.779465e-12
2.7191175e-12
2.6601833e-12
2.602589e-12
2.5462655e-12
2.4911498e-12
2.4371822e-12
2.3843072e-12
2.3324716e-12
2.2816255e-12
2.2317247e-12
2.1827253e-12
2.1345837e-12
2.087261e-12
2.0407234e-12
1.9949452e-12
1.9499002e-12
1.9055578e-12
1.8618891e-12
1.8188688e-12
1.7764706e-12
1.7346687e-12
1.69344e-12
1.652762e-12
1.6126136e-12
1.5729744e-12
1.533825e-12
1.4951484e-12
1.4569277e-12
1.4191455e-12
1.381786e-12
1.3448342e-12
1.3082759e-12
1.2720972e-12
1.2362851e-12
1.2008285e-12
1.1657155e-12
1.1309347e-12
1.0964757e-12
1.0623286e-12
1.0284835e-12
9.94932e-13
9.6166668e-13
9.2867383e-13
8.9596917e-13
8.6425835e-13
8.3447659e-13
8.0678804e-13
7.8100741e-13
7.5696486e-13
7.3449418e-13
7.1344641e-13
6.9368941e-13
6.7510518e-13
6.5758821e-13
6.4104426e-13
6.2538839e-13
6.1054222e-13
5.9643342e-13
5.8299273e-13
5.7015542e-13
5.578449e-13
5.4600508e-13
5.3448365e-13
5.2335073e-13
5.1182093e-13
5.0189793e-13
4.8748202e-13
6.5876949e-09
6.0288121e-09
5.8477288e-09
5.7594371e-09
5.7043343e-09
5.6659574e-09
5.6377031e-09
5.6161709e-09
5.5993524e-09
5.5859615e-09
5.5751298e-09
5.5662461e-09
5.5588639e-09
5.5526449e-09
5.5473177e-09
5.5426576e-09
5.5384246e-09
5.5344424e-09
5.530107e-09
5.5257963e-09
5.5163202e-09
5.513928e-09
5.4460616e-09
4.3817333e-09
3.4129698e-11
1.1401505e-11
1.5416135e-11
6.0456419e-12
1.1044678e-11
4.2988498e-12
9.1338701e-12
3.4219181e-12
7.9443732e-12
7.283631e-12
7.0731854e-12
6.6680687e-12
6.4062031e-12
6.123146e-12
5.8833615e-12
5.657297e-12
5.451003e-12
5.259341e-12
5.0811619e-12
4.9146161e-12
4.7584717e-12
4.6115524e-12
4.4729021e-12
4.3416947e-12
4.2172184e-12
4.0988593e-12
3.9860776e-12
3.8783971e-12
3.7753994e-12
3.6767124e-12
3.5820071e-12
3.4909921e-12
3.4034022e-12
3.3189975e-12
3.2375631e-12
3.1589039e-12
3.082841e-12
3.0092137e-12
2.9378772e-12
2.8686956e-12
2.801543e-12
2.7363045e-12
2.6728753e-12
2.6111574e-12
2.5510595e-12
2.4924984e-12
2.4353981e-12
2.3796851e-12
2.3252902e-12
2.27215e-12
2.2202046e-12
2.1693983e-12
2.1196778e-12
2.0709932e-12
2.0233002e-12
1.9765557e-12
1.9307172e-12
1.8857476e-12
1.8416142e-12
1.7982881e-12
1.7557388e-12
1.7139352e-12
1.6728481e-12
1.6324518e-12
1.5927195e-12
1.5536253e-12
1.5151457e-12
1.477258e-12
1.4399407e-12
1.4031733e-12
1.366936e-12
1.3312116e-12
1.2959829e-12
1.2612323e-12
1.2269437e-12
1.193102e-12
1.1596926e-12
1.1267014e-12
1.0941152e-12
1.0619225e-12
1.0301107e-12
9.9866851e-13
9.6758527e-13
9.3685074e-13
9.0645467e-13
8.7638826e-13
8.4664365e-13
8.1720771e-13
7.8809248e-13
7.5992431e-13
7.3352751e-13
7.0903732e-13
6.862794e-13
6.6509441e-13
6.4532792e-13
6.2684216e-13
6.0951541e-13
5.9323944e-13
5.7791777e-13
5.6346449e-13
5.4980246e-13
5.3686079e-13
5.2457426e-13
5.1288087e-13
5.017228e-13
4.9103214e-13
4.8075911e-13
4.7077053e-13
4.6112755e-13
4.5114814e-13
4.4257468e-13
4.3009859e-13
6.5863632e-09
6.0199608e-09
5.8363436e-09
5.7467548e-09
5.6908224e-09
5.6518606e-09
5.6231718e-09
5.6013061e-09
5.5842253e-09
5.5706245e-09
5.5596223e-09
5.5505986e-09
5.5431007e-09
5.5367859e-09
5.5313795e-09
5.5266552e-09
5.5223725e-09
5.5183562e-09
5.5140078e-09
5.5097116e-09
5.5003171e-09
5.4981294e-09
5.4308409e-09
4.3743519e-09
3.4843346e-11
1.1149665e-11
1.4878471e-11
5.752959e-12
1.0637111e-11
4.0148461e-12
8.7858495e-12
3.3052881e-12
7.6297753e-12
6.9897675e-12
6.7791482e-12
6.3851677e-12
6.1269848e-12
5.8500869e-12
5.6144338e-12
5.3925294e-12
5.1898053e-12
5.0014497e-12
4.8263049e-12
4.6625972e-12
4.5091268e-12
4.364756e-12
4.2285544e-12
4.0997188e-12
3.9775555e-12
3.8614651e-12
3.75092e-12
3.6454542e-12
3.5446572e-12
3.4481636e-12
3.35565e-12
3.2668291e-12
3.1814395e-12
3.0992442e-12
3.0200306e-12
2.9436053e-12
2.8697913e-12
2.7984289e-12
2.7293739e-12
2.6624911e-12
2.5976549e-12
2.5347502e-12
2.4736726e-12
2.4143244e-12
2.3566142e-12
2.3004586e-12
2.2457814e-12
2.1925089e-12
2.1405716e-12
2.0899061e-12
2.0404523e-12
1.9921542e-12
1.9449587e-12
1.8988158e-12
1.8536814e-12
1.8095128e-12
1.7662685e-12
1.7239114e-12
1.6824085e-12
1.6417276e-12
1.6018366e-12
1.5627039e-12
1.5243001e-12
1.4865989e-12
1.4495733e-12
1.4131972e-12
1.3774467e-12
1.3422989e-12
1.307732e-12
1.2737251e-12
1.2402583e-12
1.207314e-12
1.1748748e-12
1.1429227e-12
1.1114415e-12
1.0804156e-12
1.0498302e-12
1.019671e-12
9.8992443e-13
9.6057847e-13
9.3161999e-13
9.0303763e-13
8.7482039e-13
8.4695765e-13
8.1943881e-13
7.9225461e-13
7.6539667e-13
7.3885225e-13
7.1263027e-13
6.872941e-13
6.6358196e-13
6.4160965e-13
6.2121485e-13
6.0224939e-13
5.8457053e-13
5.6805136e-13
5.5258006e-13
5.3805747e-13
5.2439541e-13
5.1151551e-13
4.9934757e-13
4.8782723e-13
4.7689539e-13
4.6649619e-13
4.5657752e-13
4.4707841e-13
4.3795415e-13
4.2908589e-13
4.2052862e-13
4.1167535e-13
4.0407976e-13
3.9300322e-13
6.5847017e-09
6.0086773e-09
5.8218221e-09
5.7305763e-09
5.6735849e-09
5.6338763e-09
5.6046329e-09
5.5823414e-09
5.5649257e-09
5.5510567e-09
5.5398365e-09
5.5306336e-09
5.5229872e-09
5.5165488e-09
5.5110398e-09
5.506231e-09
5.5018813e-09
5.4978159e-09
5.4934419e-09
5.4891511e-09
5.4798285e-09
5.4778636e-09
5.4111088e-09
4.3648477e-09
3.5640642e-11
1.0893103e-11
1.4323766e-11
5.4624505e-12
1.0216049e-11
3.7507924e-12
8.4276106e-12
3.2216812e-12
7.3080096e-12
6.6906387e-12
6.4809116e-12
6.099501e-12
5.8462577e-12
5.5767824e-12
5.3464957e-12
5.1299534e-12
4.9319774e-12
4.7480764e-12
4.5770861e-12
4.4173082e-12
4.2675739e-12
4.1267837e-12
3.9940329e-12
3.8685405e-12
3.7496306e-12
3.6367185e-12
3.5292885e-12
3.4268844e-12
3.3291041e-12
3.2355888e-12
3.1460206e-12
3.0601168e-12
2.9776197e-12
2.8982955e-12
2.8219342e-12
2.7483446e-12
2.6773517e-12
2.6087971e-12
2.5425377e-12
2.4784393e-12
2.416377e-12
2.3562357e-12
2.2979123e-12
2.2413095e-12
2.1863362e-12
2.1329093e-12
2.0809528e-12
2.0303933e-12
1.9811616e-12
1.9331943e-12
1.8864318e-12
1.8408183e-12
1.7963011e-12
1.7528307e-12
1.7103632e-12
1.6688565e-12
1.6282695e-12
1.5885652e-12
1.5497093e-12
1.5116683e-12
1.4744094e-12
1.4379011e-12
1.4021138e-12
1.3670213e-12
1.3325965e-12
1.2988133e-12
1.2656478e-12
1.2330771e-12
1.2010794e-12
1.1696337e-12
1.1387202e-12
1.1083212e-12
1.0784192e-12
1.0489963e-12
1.0200361e-12
9.9152302e-13
9.6344221e-13
9.3577924e-13
9.0852046e-13
8.8165362e-13
8.5516523e-13
8.2904408e-13
8.0327901e-13
7.7785924e-13
7.5277402e-13
7.2801386e-13
7.0357009e-13
6.7943043e-13
6.5560135e-13
6.3259487e-13
6.1107987e-13
5.9115827e-13
5.7267949e-13
5.5550608e-13
5.3950617e-13
5.2456279e-13
5.1057312e-13
4.9744613e-13
4.8510101e-13
4.7346605e-13
4.624771e-13
4.5207544e-13
4.4220725e-13
4.3282183e-13
4.2387191e-13
4.1530216e-13
4.0707211e-13
3.9907419e-13
3.9135882e-13
3.8337702e-13
3.7653704e-13
3.6653912e-13
6.5827035e-09
5.9947036e-09
5.8038246e-09
5.7105214e-09
5.6522154e-09
5.61158e-09
5.5816484e-09
5.5588286e-09
5.5409974e-09
5.5267954e-09
5.5153044e-09
5.5058788e-09
5.4980475e-09
5.4914548e-09
5.4858169e-09
5.4809014e-09
5.4764654e-09
5.4723345e-09
5.4679206e-09
5.4636251e-09
5.4543634e-09
5.4526411e-09
5.3863707e-09
4.3529711e-09
3.6541775e-11
1.0631285e-11
1.3748778e-11
5.1733677e-12
9.7790088e-12
3.5028901e-12
8.057139e-12
3.1575142e-12
6.9773402e-12
6.3845547e-12
6.1768524e-12
5.8094235e-12
5.5623763e-12
5.3015364e-12
5.0777938e-12
4.8677349e-12
4.6755898e-12
4.4971812e-12
4.3313423e-12
4.1764502e-12
4.0313681e-12
3.8950353e-12
3.7665735e-12
3.6452248e-12
3.5303321e-12
3.4213258e-12
3.3177028e-12
3.2190179e-12
3.1248779e-12
3.0349315e-12
2.9488672e-12
2.8664074e-12
2.787299e-12
2.7113125e-12
2.6382409e-12
2.5678961e-12
2.5001059e-12
2.4347142e-12
2.3715794e-12
2.3105692e-12
2.2515602e-12
2.194438e-12
2.1391013e-12
2.085454e-12
2.0334061e-12
1.9828753e-12
1.9337866e-12
1.8860672e-12
1.8396491e-12
1.7944695e-12
1.7504697e-12
1.7075946e-12
1.6657923e-12
1.6250143e-12
1.5852173e-12
1.5463597e-12
1.5084009e-12
1.4713041e-12
1.4350344e-12
1.3995577e-12
1.3648417e-12
1.3308551e-12
1.2975688e-12
1.2649566e-12
1.2329919e-12
1.201649e-12
1.1709043e-12
1.1407351e-12
1.1111199e-12
1.0820381e-12
1.0534701e-12
1.0253984e-12
9.9780578e-13
9.706745e-13
9.4398843e-13
9.1773216e-13
8.9189098e-13
8.6645065e-13
8.4139765e-13
8.1671973e-13
7.9240332e-13
7.6843752e-13
7.4481126e-13
7.2151379e-13
6.9853445e-13
6.7586374e-13
6.5349292e-13
6.3141028e-13
6.0962041e-13
5.8859201e-13
5.6893606e-13
5.5074396e-13
5.3387617e-13
5.1820527e-13
5.0360936e-13
4.8998051e-13
4.7722401e-13
4.6525613e-13
4.5400264e-13
4.4339768e-13
4.3338247e-13
4.2390323e-13
4.1491071e-13
4.0635868e-13
3.9820403e-13
3.9039621e-13
3.8289832e-13
3.7561216e-13
3.6858449e-13
3.6131361e-13
3.5508941e-13
3.4596942e-13
6.580369e-09
5.9777435e-09
5.7819599e-09
5.686151e-09
5.6262449e-09
5.5844818e-09
5.553713e-09
5.5302504e-09
5.5119137e-09
5.4973066e-09
5.4854862e-09
5.4757892e-09
5.4677325e-09
5.4609512e-09
5.4551554e-09
5.4501081e-09
5.4455642e-09
5.4413495e-09
5.4368798e-09
5.4325683e-09
5.4233548e-09
5.4218968e-09
5.3560554e-09
4.3384307e-09
3.7570847e-11
1.0364078e-11
1.3151005e-11
4.8852273e-12
9.3240077e-12
3.2679563e-12
7.6728068e-12
3.1027524e-12
6.6363531e-12
6.0701171e-12
5.8656327e-12
5.5135674e-12
5.2739676e-12
5.0229275e-12
4.8068549e-12
4.6043302e-12
4.4190182e-12
4.2470483e-12
4.087257e-12
3.938098e-12
3.7984693e-12
3.6673501e-12
3.5438907e-12
3.4273579e-12
3.3171149e-12
3.2126087e-12
3.1133506e-12
3.0189075e-12
2.9288965e-12
2.8429754e-12
2.76084e-12
2.6822195e-12
2.6068664e-12
2.5345563e-12
2.4650868e-12
2.3982739e-12
2.3339492e-12
2.2719597e-12
2.2121666e-12
2.1544401e-12
2.0986593e-12
2.0447114e-12
1.9924977e-12
1.9419241e-12
1.8929024e-12
1.8453521e-12
1.7991993e-12
1.7543731e-12
1.7108068e-12
1.6684391e-12
1.6272126e-12
1.5870735e-12
1.5479713e-12
1.5098584e-12
1.4726927e-12
1.4364333e-12
1.4010405e-12
1.3664777e-12
1.3327101e-12
1.2997043e-12
1.2674284e-12
1.2358521e-12
1.2049468e-12
1.174687e-12
1.1450468e-12
1.116001e-12
1.0875267e-12
1.0596018e-12
1.0322053e-12
1.0053173e-12
9.7891844e-13
9.5299198e-13
9.275209e-13
9.0248808e-13
8.7787778e-13
8.5367495e-13
8.2986527e-13
8.0643487e-13
7.8337056e-13
7.6066031e-13
7.3829065e-13
7.1625116e-13
6.9453103e-13
6.7311975e-13
6.5200691e-13
6.3118314e-13
6.1063985e-13
5.9036598e-13
5.7036468e-13
5.5106692e-13
5.3303362e-13
5.1634774e-13
5.0088007e-13
4.8651256e-13
4.7313247e-13
4.6064017e-13
4.4894831e-13
4.3797978e-13
4.2766626e-13
4.179472e-13
4.0876857e-13
4.0008102e-13
3.9183936e-13
3.8400132e-13
3.7652742e-13
3.693713e-13
3.6249918e-13
3.558209e-13
3.4938016e-13
3.4271558e-13
3.3701606e-13
3.286442e-13
6.5777101e-09
5.9574657e-09
5.7557875e-09
5.6569706e-09
5.5951447e-09
5.5520292e-09
5.5202567e-09
5.4960237e-09
5.4770811e-09
5.4619884e-09
5.4497728e-09
5.4397504e-09
5.431423e-09
5.424415e-09
5.4184287e-09
5.4132217e-09
5.408546e-09
5.4042269e-09
5.3996837e-09
5.3953434e-09
5.3861638e-09
5.3849933e-09
5.3195183e-09
4.3208933e-09
3.8756869e-11
1.0091799e-11
1.2528778e-11
4.5978038e-12
8.8496329e-12
3.0433217e-12
7.2734266e-12
3.0494579e-12
6.2839976e-12
5.7462522e-12
5.5462291e-12
5.2108649e-12
4.9799495e-12
4.7398226e-12
4.5324928e-12
4.3384873e-12
4.1609374e-12
3.9962717e-12
3.8433382e-12
3.7006691e-12
3.5672005e-12
3.4419541e-12
3.3241116e-12
3.2129667e-12
3.1079052e-12
3.008393e-12
2.9139576e-12
2.8241801e-12
2.7386895e-12
2.6571543e-12
2.5792796e-12
2.5048024e-12
2.4334825e-12
2.3651021e-12
2.2994646e-12
2.2363911e-12
2.1757184e-12
2.1172975e-12
2.0609935e-12
2.0066802e-12
1.95424e-12
1.9035629e-12
1.8545533e-12
1.8071199e-12
1.7611772e-12
1.7166469e-12
1.6734574e-12
1.6315399e-12
1.5908298e-12
1.5512677e-12
1.5127979e-12
1.4753687e-12
1.4389309e-12
1.4034388e-12
1.3688511e-12
1.3351284e-12
1.302232e-12
1.2701259e-12
1.2387763e-12
1.2081507e-12
1.1782184e-12
1.14895e-12
1.1203179e-12
1.0922975e-12
1.0648638e-12
1.0379926e-12
1.0116618e-12
9.8585012e-13
9.6053735e-13
9.3570421e-13
9.1133226e-13
8.8740531e-13
8.6390695e-13
8.4082078e-13
8.1813159e-13
7.9582492e-13
7.7388697e-13
7.523044e-13
7.3106452e-13
7.1015564e-13
6.8956458e-13
6.6928151e-13
6.4929602e-13
6.2959797e-13
6.1017732e-13
5.9102501e-13
5.7213268e-13
5.5349002e-13
5.3509901e-13
5.1735689e-13
5.0077985e-13
4.8544376e-13
4.7122913e-13
4.5802667e-13
4.457322e-13
4.3425373e-13
4.2351072e-13
4.1343214e-13
4.0395509e-13
3.9502386e-13
3.8658878e-13
3.7860449e-13
3.7102949e-13
3.6382508e-13
3.5695505e-13
3.5037679e-13
3.4405935e-13
3.379197e-13
3.3199883e-13
3.2587106e-13
3.206357e-13
3.1292652e-13
6.5747564e-09
5.9335074e-09
5.7248215e-09
5.6224334e-09
5.5583302e-09
5.5136113e-09
5.480649e-09
5.4555031e-09
5.4358426e-09
5.4201746e-09
5.4074909e-09
5.3970828e-09
5.3884343e-09
5.3811571e-09
5.374944e-09
5.3695464e-09
5.364712e-09
5.3602656e-09
5.3556289e-09
5.3512453e-09
5.3420834e-09
5.3412256e-09
5.2760464e-09
4.2999845e-09
4.0135025e-11
9.8152758e-12
1.1881379e-11
4.3111246e-12
8.3551305e-12
2.8267651e-12
6.8583198e-12
2.9910634e-12
5.919638e-12
5.4122569e-12
5.2179735e-12
4.9005841e-12
4.6795624e-12
4.4514026e-12
4.2538309e-12
4.0692625e-12
3.9003324e-12
3.7437613e-12
3.5984174e-12
3.4629145e-12
3.3362312e-12
3.2174347e-12
3.1057414e-12
3.0004749e-12
2.9010462e-12
2.8069426e-12
2.7177103e-12
2.6329465e-12
2.5522945e-12
2.4754352e-12
2.4020846e-12
2.3319894e-12
2.2649181e-12
2.200661e-12
2.1390285e-12
2.0798483e-12
2.0229633e-12
1.96823e-12
1.9155182e-12
1.8647062e-12
1.8156808e-12
1.7683353e-12
1.7225785e-12
1.6783224e-12
1.6354848e-12
1.5939905e-12
1.5537705e-12
1.5147588e-12
1.4768935e-12
1.4401174e-12
1.4043774e-12
1.3696236e-12
1.3358089e-12
1.3028896e-12
1.2708258e-12
1.2395796e-12
1.2091137e-12
1.1793935e-12
1.1503863e-12
1.122061e-12
1.0943883e-12
1.0673401e-12
1.0408901e-12
1.0150146e-12
9.8968983e-13
9.6489282e-13
9.4060239e-13
9.1679827e-13
8.9346125e-13
8.7057295e-13
8.481158e-13
8.2607441e-13
8.0443317e-13
7.8317643e-13
7.6228973e-13
7.4175928e-13
7.2157193e-13
7.0171501e-13
6.821764e-13
6.6294492e-13
6.4400779e-13
6.2535585e-13
6.069792e-13
5.8886816e-13
5.7101315e-13
5.5340554e-13
5.360373e-13
5.1889888e-13
5.0199139e-13
4.8568099e-13
4.7044294e-13
4.5634679e-13
4.4328229e-13
4.3114845e-13
4.1984913e-13
4.0929952e-13
3.9942546e-13
3.9016157e-13
3.8145002e-13
3.7323957e-13
3.6548459e-13
3.5814343e-13
3.5117799e-13
3.4455283e-13
3.382348e-13
3.3218471e-13
3.2637417e-13
3.2072673e-13
3.1528082e-13
3.0964351e-13
3.0483177e-13
2.977289e-13
6.5715625e-09
5.9054778e-09
5.6885339e-09
5.5819444e-09
5.5151646e-09
5.4685623e-09
5.4342033e-09
5.4079859e-09
5.3874831e-09
5.3711401e-09
5.357907e-09
5.3470461e-09
5.3380205e-09
5.3304269e-09
5.3239469e-09
5.3183241e-09
5.3133013e-09
5.3087021e-09
5.3039498e-09
5.2995069e-09
5.2903444e-09
5.2898261e-09
5.224864e-09
4.2752878e-09
4.1748271e-11
9.5359286e-12
1.1209163e-11
4.0254692e-12
7.8405077e-12
2.6164794e-12
6.4273982e-12
2.9220406e-12
5.5431194e-12
5.0678579e-12
4.8806068e-12
4.5823782e-12
4.3724138e-12
4.1572033e-12
3.9703374e-12
3.7960514e-12
3.6365249e-12
3.4887637e-12
3.351666e-12
3.2239301e-12
3.1045827e-12
2.9927396e-12
2.8876556e-12
2.7886876e-12
2.6952749e-12
2.6069288e-12
2.5232164e-12
2.4437538e-12
2.3682003e-12
2.2962514e-12
2.2276359e-12
2.1621116e-12
2.0994576e-12
2.0394734e-12
1.981978e-12
1.9268068e-12
1.8738099e-12
1.8228504e-12
1.7738036e-12
1.7265537e-12
1.6809922e-12
1.6370171e-12
1.5945417e-12
1.5534823e-12
1.5137608e-12
1.4753052e-12
1.4380501e-12
1.4019326e-12
1.3668937e-12
1.3328794e-12
1.2998389e-12
1.2677248e-12
1.2364927e-12
1.2061005e-12
1.1765106e-12
1.1476866e-12
1.1195931e-12
1.092197e-12
1.0654675e-12
1.0393748e-12
1.0138914e-12
9.8899063e-13
9.6464765e-13
9.4084004e-13
9.1754535e-13
8.9474187e-13
8.7240959e-13
8.5052941e-13
8.290832e-13
8.0805361e-13
7.874241e-13
7.6718018e-13
7.4730711e-13
7.2779017e-13
7.0861569e-13
6.8977067e-13
6.7124272e-13
6.5301988e-13
6.3509075e-13
6.1744469e-13
6.0006946e-13
5.8295664e-13
5.6609687e-13
5.4948103e-13
5.331001e-13
5.1694588e-13
5.0101082e-13
4.8528612e-13
4.6977221e-13
4.5480606e-13
4.4082449e-13
4.2789132e-13
4.159051e-13
4.0477279e-13
3.9440589e-13
3.8472644e-13
3.756663e-13
3.6716546e-13
3.5917084e-13
3.5163545e-13
3.4451745e-13
3.3777867e-13
3.3138419e-13
3.2530167e-13
3.1950075e-13
3.139455e-13
3.0860992e-13
3.0342371e-13
2.9842288e-13
2.9324523e-13
2.8883005e-13
2.8229668e-13
6.5682175e-09
5.872964e-09
5.6463601e-09
5.5348657e-09
5.4649648e-09
5.416168e-09
5.3801825e-09
5.3527178e-09
5.3312347e-09
5.3141063e-09
5.300234e-09
5.2888462e-09
5.2793818e-09
5.2714195e-09
5.2646282e-09
5.2587421e-09
5.253498e-09
5.2487178e-09
5.2438253e-09
5.239305e-09
5.2301214e-09
5.2299716e-09
5.1651394e-09
4.2463445e-09
4.364938e-11
9.255863e-12
1.0513692e-11
3.7413731e-12
7.306645e-12
2.4110618e-12
5.9812564e-12
2.8378007e-12
5.1548429e-12
4.7132813e-12
4.5343433e-12
4.256346e-12
4.0585344e-12
3.8571676e-12
3.6818744e-12
3.5186342e-12
3.3692146e-12
3.2308994e-12
3.1026272e-12
2.9831842e-12
2.8716503e-12
2.767194e-12
2.6691123e-12
2.5767986e-12
2.4897233e-12
2.4074248e-12
2.3294939e-12
2.2555673e-12
2.1853229e-12
2.1184725e-12
2.0547595e-12
1.9939545e-12
1.9358486e-12
1.880252e-12
1.8269934e-12
1.775917e-12
1.7268814e-12
1.679757e-12
1.6344259e-12
1.5907785e-12
1.5487122e-12
1.5081303e-12
1.4689512e-12
1.4310963e-12
1.3944916e-12
1.3590695e-12
1.324768e-12
1.2915281e-12
1.2592942e-12
1.2280154e-12
1.1976439e-12
1.1681352e-12
1.1394472e-12
1.1115405e-12
1.0843795e-12
1.0579299e-12
1.0321582e-12
1.0070335e-12
9.8252672e-13
9.5861002e-13
9.3525747e-13
9.1244422e-13
8.9014697e-13
8.6834472e-13
8.4701646e-13
8.2614191e-13
8.0570236e-13
7.8567996e-13
7.6605774e-13
7.4681953e-13
7.2794986e-13
7.0943525e-13
6.9126194e-13
6.7341616e-13
6.5588515e-13
6.3865676e-13
6.2171942e-13
6.0506198e-13
5.8867377e-13
5.7254483e-13
5.566635e-13
5.4102212e-13
5.2561197e-13
5.1042452e-13
4.9545135e-13
4.806848e-13
4.6611779e-13
4.5174231e-13
4.3755829e-13
4.2387474e-13
4.1109176e-13
3.9926774e-13
3.8830975e-13
3.7813239e-13
3.6865455e-13
3.5980484e-13
3.5152087e-13
3.4374778e-13
3.3643704e-13
3.295457e-13
3.2303554e-13
3.168717e-13
3.1102231e-13
3.0545793e-13
3.001509e-13
2.9506834e-13
2.9018656e-13
2.8544112e-13
2.8086564e-13
2.7612746e-13
2.7209087e-13
2.6610347e-13
6.5648567e-09
5.8355379e-09
5.5977053e-09
5.4805232e-09
5.4070082e-09
5.3556727e-09
5.3178068e-09
5.288901e-09
5.2662856e-09
5.2482501e-09
5.2336398e-09
5.2216437e-09
5.2116723e-09
5.2032839e-09
5.1961324e-09
5.1899411e-09
5.1844396e-09
5.1794474e-09
5.1743877e-09
5.16977e-09
5.1605427e-09
5.1607919e-09
5.0959946e-09
4.212654e-09
4.5903538e-11
8.9779987e-12
9.797869e-12
3.4596352e-12
6.7554121e-12
2.2095218e-12
5.5212709e-12
2.7347334e-12
4.7558497e-12
4.3493312e-12
4.1799434e-12
3.9231001e-12
3.7384432e-12
3.5517062e-12
3.3887549e-12
3.2372288e-12
3.0985288e-12
2.9702091e-12
2.8512591e-12
2.7405561e-12
2.6372389e-12
2.5405319e-12
2.4497785e-12
2.3644116e-12
2.2839361e-12
2.2079197e-12
2.1359792e-12
2.0677747e-12
2.0030043e-12
1.9413981e-12
1.8827156e-12
1.8267419e-12
1.7732812e-12
1.7221558e-12
1.6732053e-12
1.6262837e-12
1.5812591e-12
1.5380099e-12
1.4964257e-12
1.4564042e-12
1.4178492e-12
1.3806698e-12
1.3447903e-12
1.3101374e-12
1.276642e-12
1.2442409e-12
1.2128764e-12
1.1824933e-12
1.15304e-12
1.1244688e-12
1.0967353e-12
1.069798e-12
1.0436176e-12
1.0181574e-12
9.9338414e-13
9.6926582e-13
9.4577135e-13
9.2287184e-13
9.0054027e-13
8.787509e-13
8.5747964e-13
8.3670346e-13
8.1640076e-13
7.9655204e-13
7.7713786e-13
7.5813946e-13
7.395395e-13
7.2132146e-13
7.0346966e-13
6.8596912e-13
6.6880555e-13
6.5196653e-13
6.3543931e-13
6.1921118e-13
6.0327031e-13
5.8760547e-13
5.7220598e-13
5.570615e-13
5.4216218e-13
5.2749876e-13
5.1306028e-13
4.9883982e-13
4.8482935e-13
4.7102098e-13
4.5740691e-13
4.4398008e-13
4.3073391e-13
4.1766119e-13
4.0476147e-13
3.9231663e-13
3.8069121e-13
3.6993839e-13
3.5997345e-13
3.5071846e-13
3.4209949e-13
3.3405146e-13
3.2651762e-13
3.1944803e-13
3.1279856e-13
3.0653016e-13
3.0060809e-13
2.9500069e-13
2.89679e-13
2.8461639e-13
2.7978776e-13
2.7516319e-13
2.7072121e-13
2.6640308e-13
2.6223996e-13
2.5792804e-13
2.5425811e-13
2.4880189e-13
6.5616769e-09
5.7927648e-09
5.5419535e-09
5.4182159e-09
5.3405425e-09
5.2862894e-09
5.2462642e-09
5.2157045e-09
5.1917902e-09
5.1727147e-09
5.1572582e-09
5.1445646e-09
5.1340119e-09
5.1251349e-09
5.1175697e-09
5.1110275e-09
5.105229e-09
5.0999909e-09
5.0947344e-09
5.0899975e-09
5.0807016e-09
5.0813818e-09
5.0165169e-09
4.1736738e-09
4.8591634e-11
8.7062351e-12
9.0660413e-12
3.1813255e-12
6.1897765e-12
2.0113005e-12
5.0496967e-12
2.6103258e-12
4.3479047e-12
3.9774691e-12
3.8187883e-12
3.583839e-12
3.4132151e-12
3.2417624e-12
3.0918044e-12
2.9525494e-12
2.8250774e-12
2.7072053e-12
2.5979827e-12
2.4963813e-12
2.4016038e-12
2.312934e-12
2.2297649e-12
2.1515722e-12
2.0778977e-12
2.0083411e-12
1.9425476e-12
1.8802022e-12
1.8210254e-12
1.7647669e-12
1.7112041e-12
1.6601377e-12
1.6113863e-12
1.5647854e-12
1.5201864e-12
1.4774542e-12
1.4364668e-12
1.3971117e-12
1.3592867e-12
1.322897e-12
1.2878538e-12
1.2540725e-12
1.2214837e-12
1.1900195e-12
1.1596163e-12
1.1302158e-12
1.1017647e-12
1.0742121e-12
1.0475102e-12
1.0216153e-12
9.9648633e-13
9.7208493e-13
9.48375e-13
9.2532265e-13
9.0289709e-13
8.8106893e-13
8.5980952e-13
8.3909231e-13
8.1889245e-13
7.9918633e-13
7.7995184e-13
7.6116786e-13
7.4281457e-13
7.2487407e-13
7.0732856e-13
6.9016085e-13
6.7335506e-13
6.5689605e-13
6.4076946e-13
6.2496159e-13
6.0945936e-13
5.9425144e-13
5.7932617e-13
5.6467191e-13
5.502778e-13
5.3613359e-13
5.2222949e-13
5.0855605e-13
4.9510426e-13
4.8186559e-13
4.6882983e-13
4.5599084e-13
4.4334127e-13
4.3087392e-13
4.1858164e-13
4.0645798e-13
3.9449691e-13
3.8269202e-13
3.7104255e-13
3.5980386e-13
3.4930571e-13
3.3959614e-13
3.3059849e-13
3.2224212e-13
3.1446008e-13
3.071935e-13
3.0039104e-13
2.940076e-13
2.8800331e-13
2.8234289e-13
2.76995e-13
2.7193106e-13
2.6712495e-13
2.6255271e-13
2.5819177e-13
2.5401507e-13
2.5000327e-13
2.4610323e-13
2.423436e-13
2.38449e-13
2.3513742e-13
2.3020289e-13
6.5589558e-09
5.7442159e-09
5.478479e-09
5.3472282e-09
5.2647986e-09
5.2072131e-09
5.164724e-09
5.1322785e-09
5.1068842e-09
5.086624e-09
5.0702039e-09
5.0567161e-09
5.0455016e-09
5.0360679e-09
5.0280313e-09
5.0210886e-09
5.0149503e-09
5.0094297e-09
5.0039443e-09
4.9990642e-09
4.9896729e-09
4.990817e-09
4.9257748e-09
4.1288209e-09
5.18144e-11
8.4456747e-12
8.3240766e-12
2.9077905e-12
5.6138902e-12
1.8162921e-12
4.5697514e-12
2.4633155e-12
3.933572e-12
3.599887e-12
3.4529486e-12
3.2404129e-12
3.0845442e-12
2.9288729e-12
2.7924188e-12
2.6658617e-12
2.5500057e-12
2.4429221e-12
2.3437292e-12
2.2514959e-12
2.1654926e-12
2.0850658e-12
2.0096611e-12
1.9387995e-12
1.872062e-12
1.8090825e-12
1.7495363e-12
1.6931353e-12