/*--------------------------------*- C++ -*----------------------------------*\
| =========                 |                                                 |
| \\      /  F ield         | OpenFOAM: The Open Source CFD Toolbox           |
|  \\    /   O peration     | Version:  2206                                  |
|   \\  /    A nd           | Website:  www.openfoam.com                      |
|    \\/     M anipulation  |                                                 |
\*---------------------------------------------------------------------------*/
FoamFile
{
    version     2.0;
    format      ascii;
    arch        "LSB;label=32;scalar=64";
    class       volScalarField;
    location    "1000";
    object      p;
}
// * * * * * * * * * * * * * * * * * * * * * * * * * * * * * * * * * * * * * //

dimensions      [0 2 -2 0 0 0 0];

internalField   nonuniform List<scalar> 
13056
(
0.011672502
0.011778597
0.011999133
0.012277751
0.012617523
0.013017624
0.013474897
0.013988512
0.014560018
0.015192686
0.015891498
0.016663618
0.017518918
0.018471479
0.019539989
0.020754257
0.022149207
0.02380382
0.025768577
0.02834964
0.03142545
0.036783786
0.041809148
0.082987937
0.052089387
0.0013809923
0.0006686985
0.0017641034
0.0022884872
0.0027136751
0.002981557
0.0031756231
0.0033175684
0.0034173383
0.0034878742
0.0035387993
0.0035757117
0.0036021882
0.003620665
0.0036331569
0.0036410304
0.0036452105
0.003646413
0.0036452364
0.0036421135
0.0036373192
0.0036311338
0.0036237584
0.0036153722
0.0036061025
0.0035960259
0.0035852348
0.0035737993
0.0035617785
0.0035492344
0.0035361946
0.0035226726
0.0035086983
0.0034942935
0.0034794726
0.0034642498
0.003448644
0.0034326508
0.0034162598
0.0033994776
0.0033823029
0.003364734
0.0033467664
0.0033283978
0.0033096283
0.0032904351
0.0032707976
0.0032507098
0.0032301586
0.0032091275
0.0031876047
0.0031655681
0.0031430117
0.0031199124
0.0030962222
0.0030719265
0.0030470012
0.0030214159
0.0029951421
0.0029681482
0.0029404019
0.0029118734
0.0028825103
0.0028522585
0.0028210794
0.002788923
0.0027557332
0.0027214569
0.0026860268
0.0026493889
0.0026114666
0.0025721572
0.0025313875
0.0024890644
0.0024450847
0.0023993423
0.0023517161
0.002302086
0.0022503049
0.0021962
0.0021396137
0.0020803575
0.0020182332
0.0019530196
0.0018844986
0.0018123961
0.0017364295
0.0016566541
0.0015736265
0.0014892981
0.001405957
0.0013242161
0.0012439499
0.0011651626
0.001087883
0.001012151
0.00093803547
0.00086565339
0.00079514869
0.00072669545
0.00066053692
0.0005970023
0.00053650267
0.00047966942
0.00042714898
0.00038049537
0.00034015413
0.00031214879
0.00028938748
0.00042960254
-0.00038270959
0.011672502
0.011778597
0.011999133
0.012277751
0.012617523
0.013017624
0.013474897
0.013988512
0.014560018
0.015192687
0.015891498
0.016663618
0.017518919
0.01847148
0.01953999
0.020754258
0.022149209
0.023803822
0.02576858
0.028349646
0.031425459
0.036783803
0.041809198
0.082982686
0.052101221
0.0013886407
0.0006706934
0.0017649661
0.0022890122
0.0027140452
0.0029818368
0.0031758448
0.0033177496
0.0034174899
0.0034880035
0.003538911
0.0035758095
0.0036022746
0.003620742
0.003633226
0.0036410928
0.0036452671
0.0036464647
0.0036452837
0.003642157
0.0036373593
0.0036311709
0.0036237928
0.0036154043
0.0036061324
0.0035960538
0.0035852609
0.0035738238
0.0035618015
0.0035492561
0.003536215
0.0035226918
0.0035087165
0.0034943107
0.0034794888
0.0034642652
0.0034486586
0.0034326646
0.003416273
0.0033994901
0.0033823148
0.0033647453
0.0033467771
0.0033284081
0.0033096381
0.0032904444
0.0032708065
0.0032507183
0.0032301667
0.0032091352
0.0031876121
0.0031655752
0.0031430184
0.0031199188
0.0030962283
0.0030719324
0.0030470068
0.0030214213
0.0029951472
0.0029681531
0.0029404066
0.0029118779
0.0028825146
0.0028522626
0.0028210833
0.0027889267
0.0027557368
0.0027214603
0.0026860301
0.002649392
0.0026114696
0.00257216
0.0025313902
0.0024890669
0.0024450871
0.0023993446
0.0023517183
0.0023020881
0.0022503068
0.0021962019
0.0021396154
0.0020803592
0.0020182347
0.0019530211
0.0018845
0.0018123974
0.0017364308
0.0016566553
0.0015736276
0.0014892991
0.001405958
0.001324217
0.0012439508
0.0011651634
0.0010878838
0.0010121517
0.00093803618
0.00086565407
0.00079514934
0.00072669607
0.00066053752
0.00059700288
0.00053650322
0.00047966995
0.0004271495
0.00038049588
0.00034015463
0.0003121493
0.00028938802
0.00042960309
-0.00038270923
0.011672502
0.011778597
0.011999133
0.012277751
0.012617523
0.013017624
0.013474897
0.013988512
0.014560018
0.015192687
0.015891498
0.016663619
0.017518919
0.018471481
0.019539991
0.02075426
0.022149211
0.023803825
0.025768585
0.028349653
0.031425468
0.036783821
0.041809244
0.082977797
0.052117365
0.0013957495
0.00067289017
0.0017659744
0.0022896259
0.0027144779
0.0029821638
0.0031761041
0.0033179615
0.0034176671
0.0034881545
0.0035390417
0.0035759239
0.0036023757
0.003620832
0.0036333068
0.0036411657
0.0036453333
0.003646525
0.003645339
0.0036422078
0.0036374062
0.0036312142
0.0036238331
0.0036154417
0.0036061673
0.0035960864
0.0035852914
0.0035738524
0.0035618284
0.0035492814
0.0035362388
0.0035227143
0.0035087377
0.0034943307
0.0034795078
0.0034642832
0.0034486757
0.0034326808
0.0034162883
0.0033995047
0.0033823287
0.0033647586
0.0033467897
0.0033284201
0.0033096496
0.0032904553
0.0032708168
0.0032507282
0.0032301762
0.0032091442
0.0031876207
0.0031655834
0.0031430263
0.0031199263
0.0030962355
0.0030719392
0.0030470134
0.0030214276
0.0029951532
0.0029681588
0.002940412
0.0029118832
0.0028825196
0.0028522674
0.0028210879
0.0027889311
0.0027557409
0.0027214643
0.0026860338
0.0026493956
0.002611473
0.0025721633
0.0025313933
0.0024890699
0.0024450899
0.0023993473
0.0023517208
0.0023020906
0.0022503092
0.0021962041
0.0021396175
0.0020803612
0.0020182366
0.0019530228
0.0018845017
0.001812399
0.0017364322
0.0016566566
0.0015736289
0.0014893003
0.0014059591
0.0013242181
0.0012439518
0.0011651644
0.0010878847
0.0010121526
0.00093803701
0.00086565486
0.00079515009
0.00072669679
0.00066053821
0.00059700355
0.00053650387
0.00047967058
0.0004271501
0.00038049647
0.00034015521
0.00031214988
0.0002893886
0.00042960374
-0.00038270883
0.011672502
0.011778597
0.011999133
0.012277751
0.012617523
0.013017624
0.013474897
0.013988513
0.014560019
0.015192687
0.015891499
0.016663619
0.01751892
0.018471482
0.019539992
0.020754261
0.022149213
0.023803828
0.025768589
0.02834966
0.031425477
0.036783838
0.041809291
0.082973049
0.052135244
0.0014007784
0.00067493171
0.0017669517
0.0022902207
0.0027148974
0.0029824808
0.0031763553
0.0033181668
0.0034178389
0.0034883009
0.0035391684
0.0035760347
0.0036024736
0.0036209192
0.0036333851
0.0036412363
0.0036453974
0.0036465835
0.0036453926
0.003642257
0.0036374517
0.0036312563
0.0036238721
0.003615478
0.0036062011
0.003596118
0.003585321
0.0035738802
0.0035618545
0.0035493059
0.0035362619
0.003522736
0.0035087583
0.0034943502
0.0034795263
0.0034643006
0.0034486922
0.0034326965
0.0034163032
0.0033995188
0.0033823422
0.0033647714
0.0033468019
0.0033284317
0.0033096606
0.0032904658
0.0032708269
0.0032507378
0.0032301854
0.003209153
0.0031876291
0.0031655914
0.003143034
0.0031199336
0.0030962425
0.0030719459
0.0030470197
0.0030214337
0.002995159
0.0029681644
0.0029404174
0.0029118882
0.0028825245
0.002852272
0.0028210923
0.0027889353
0.002755745
0.0027214681
0.0026860375
0.0026493991
0.0026114764
0.0025721665
0.0025313964
0.0024890728
0.0024450927
0.0023993499
0.0023517233
0.0023020929
0.0022503114
0.0021962062
0.0021396195
0.0020803631
0.0020182384
0.0019530245
0.0018845033
0.0018124005
0.0017364336
0.001656658
0.0015736301
0.0014893015
0.0014059602
0.0013242191
0.0012439528
0.0011651653
0.0010878856
0.0010121534
0.00093803782
0.00086565563
0.00079515083
0.0007266975
0.00066053889
0.0005970042
0.00053650449
0.00047967118
0.00042715069
0.00038049704
0.00034015577
0.00031215045
0.00028938915
0.00042960436
-0.00038270846
0.011672502
0.011778597
0.011999133
0.012277751
0.012617523
0.013017625
0.013474897
0.013988513
0.014560019
0.015192688
0.015891499
0.01666362
0.017518921
0.018471482
0.019539993
0.020754263
0.022149216
0.023803832
0.025768593
0.028349668
0.031425488
0.036783856
0.041809343
0.082967902
0.052154224
0.0014065519
0.00067702287
0.0017679584
0.0022908336
0.0027153295
0.0029828073
0.0031766142
0.0033183783
0.0034180159
0.0034884518
0.0035392988
0.0035761489
0.0036025745
0.0036210091
0.0036334657
0.0036413092
0.0036454635
0.0036466438
0.0036454478
0.0036423078
0.0036374985
0.0036312996
0.0036239123
0.0036155154
0.003606236
0.0035961506
0.0035853515
0.0035739087
0.0035618813
0.0035493311
0.0035362857
0.0035227585
0.0035087795
0.0034943702
0.0034795452
0.0034643186
0.0034487092
0.0034327127
0.0034163186
0.0033995334
0.0033823561
0.0033647846
0.0033468145
0.0033284437
0.0033096721
0.0032904767
0.0032708373
0.0032507477
0.0032301948
0.003209162
0.0031876377
0.0031655996
0.0031430418
0.0031199412
0.0030962497
0.0030719528
0.0030470263
0.0030214399
0.002995165
0.0029681701
0.0029404228
0.0029118935
0.0028825295
0.0028522768
0.0028210969
0.0027889396
0.0027557491
0.0027214721
0.0026860413
0.0026494027
0.0026114798
0.0025721698
0.0025313995
0.0024890758
0.0024450955
0.0023993526
0.0023517259
0.0023020953
0.0022503137
0.0021962084
0.0021396216
0.0020803651
0.0020182403
0.0019530263
0.001884505
0.001812402
0.0017364351
0.0016566593
0.0015736314
0.0014893027
0.0014059613
0.0013242202
0.0012439538
0.0011651663
0.0010878865
0.0010121543
0.00093803864
0.00086565642
0.00079515159
0.00072669822
0.00066053958
0.00059700486
0.00053650514
0.00047967181
0.0004271513
0.00038049764
0.00034015635
0.00031215104
0.00028938971
0.00042960501
-0.00038270808
0.011672502
0.011778597
0.011999133
0.012277751
0.012617523
0.013017625
0.013474897
0.013988513
0.014560019
0.015192688
0.0158915
0.016663621
0.017518922
0.018471484
0.019539995
0.020754265
0.022149218
0.023803836
0.025768599
0.028349677
0.0314255
0.036783877
0.041809402
0.082962174
0.052174001
0.0014138625
0.00067925591
0.0017690305
0.0022914865
0.0027157898
0.0029831552
0.00317689
0.0033186036
0.0034182043
0.0034886125
0.0035394378
0.0035762705
0.0036026819
0.0036211049
0.0036335516
0.0036413867
0.0036455339
0.003646708
0.0036455066
0.0036423618
0.0036375483
0.0036313457
0.0036239551
0.0036155552
0.0036062731
0.0035961853
0.003585384
0.0035739392
0.0035619099
0.003549358
0.003536311
0.0035227824
0.0035088021
0.0034943916
0.0034795654
0.0034643377
0.0034487274
0.0034327299
0.003416335
0.003399549
0.0033823708
0.0033647987
0.0033468279
0.0033284564
0.0033096842
0.0032904883
0.0032708484
0.0032507582
0.0032302049
0.0032091716
0.0031876469
0.0031656084
0.0031430502
0.0031199492
0.0030962573
0.0030719601
0.0030470333
0.0030214466
0.0029951714
0.0029681762
0.0029404287
0.002911899
0.0028825348
0.0028522819
0.0028211018
0.0027889443
0.0027557535
0.0027214763
0.0026860453
0.0026494066
0.0026114835
0.0025721733
0.0025314028
0.002489079
0.0024450985
0.0023993555
0.0023517286
0.0023020979
0.0022503162
0.0021962107
0.0021396238
0.0020803671
0.0020182422
0.0019530282
0.0018845067
0.0018124037
0.0017364367
0.0016566608
0.0015736328
0.001489304
0.0014059626
0.0013242214
0.0012439549
0.0011651673
0.0010878875
0.0010121552
0.00093803953
0.00086565726
0.00079515239
0.00072669899
0.00066054032
0.00059700558
0.00053650583
0.00047967247
0.00042715194
0.00038049827
0.00034015697
0.00031215166
0.00028939031
0.00042960569
-0.00038270767
0.011672502
0.011778598
0.011999133
0.012277751
0.012617523
0.013017625
0.013474898
0.013988513
0.01456002
0.015192688
0.0158915
0.016663621
0.017518923
0.018471485
0.019539997
0.020754268
0.022149222
0.023803841
0.025768606
0.028349688
0.031425514
0.036783903
0.041809471
0.082955767
0.052194829
0.0014218926
0.00068166023
0.0017701839
0.002292189
0.0027162851
0.0029835296
0.0031771868
0.0033188461
0.0034184072
0.0034887854
0.0035395874
0.0035764014
0.0036027976
0.0036212079
0.0036336441
0.0036414702
0.0036456097
0.0036467771
0.0036455699
0.00364242
0.003637602
0.0036313954
0.0036240011
0.003615598
0.0036063131
0.0035962226
0.0035854189
0.003573972
0.0035619407
0.003549387
0.0035363383
0.0035228081
0.0035088264
0.0034944146
0.0034795872
0.0034643583
0.0034487469
0.0034327485
0.0034163526
0.0033995657
0.0033823868
0.0033648138
0.0033468423
0.0033284702
0.0033096973
0.0032905008
0.0032708603
0.0032507696
0.0032302157
0.003209182
0.0031876568
0.0031656179
0.0031430592
0.0031199578
0.0030962656
0.0030719679
0.0030470408
0.0030214538
0.0029951783
0.0029681828
0.0029404349
0.002911905
0.0028825405
0.0028522873
0.002821107
0.0027889493
0.0027557583
0.0027214809
0.0026860497
0.0026494107
0.0026114874
0.002572177
0.0025314064
0.0024890824
0.0024451018
0.0023993586
0.0023517315
0.0023021007
0.0022503188
0.0021962132
0.0021396262
0.0020803694
0.0020182444
0.0019530302
0.0018845086
0.0018124055
0.0017364383
0.0016566624
0.0015736343
0.0014893054
0.0014059639
0.0013242226
0.0012439561
0.0011651684
0.0010878885
0.0010121562
0.00093804048
0.00086565817
0.00079515326
0.00072669983
0.00066054112
0.00059700634
0.00053650657
0.00047967319
0.00042715264
0.00038049895
0.00034015764
0.00031215234
0.00028939095
0.00042960643
-0.00038270723
0.011672502
0.011778598
0.011999133
0.012277752
0.012617523
0.013017625
0.013474898
0.013988514
0.01456002
0.015192689
0.015891501
0.016663623
0.017518924
0.018471487
0.019539999
0.020754271
0.022149226
0.023803847
0.025768614
0.028349702
0.031425533
0.036783936
0.04180955
0.082948536
0.05221698
0.0014304973
0.00068426572
0.0017714342
0.0022929508
0.0027168222
0.0029839355
0.0031775085
0.003319109
0.0034186271
0.0034889729
0.0035397496
0.0035765433
0.003602923
0.0036213196
0.0036337443
0.0036415607
0.0036456918
0.003646852
0.0036456385
0.0036424831
0.0036376602
0.0036314492
0.0036240511
0.0036156445
0.0036063564
0.0035962631
0.0035854568
0.0035740075
0.0035619741
0.0035494184
0.0035363679
0.003522836
0.0035088527
0.0034944395
0.0034796108
0.0034643807
0.0034487681
0.0034327686
0.0034163717
0.0033995839
0.003382404
0.0033648302
0.0033468579
0.0033284851
0.0033097115
0.0032905143
0.0032708732
0.0032507819
0.0032302275
0.0032091932
0.0031876675
0.0031656281
0.003143069
0.0031199671
0.0030962745
0.0030719765
0.003047049
0.0030214616
0.0029951857
0.0029681899
0.0029404417
0.0029119115
0.0028825467
0.0028522933
0.0028211127
0.0027889547
0.0027557635
0.0027214858
0.0026860544
0.0026494152
0.0026114917
0.0025721811
0.0025314103
0.0024890861
0.0024451053
0.0023993619
0.0023517347
0.0023021038
0.0022503217
0.002196216
0.0021396288
0.0020803718
0.0020182467
0.0019530323
0.0018845107
0.0018124074
0.0017364402
0.0016566641
0.0015736359
0.0014893069
0.0014059653
0.0013242239
0.0012439574
0.0011651696
0.0010878897
0.0010121573
0.00093804151
0.00086565915
0.0007951542
0.00072670073
0.00066054199
0.00059700718
0.00053650737
0.00047967396
0.00042715339
0.00038049968
0.00034015836
0.00031215307
0.00028939165
0.00042960723
-0.00038270675
0.011672502
0.011778598
0.011999133
0.012277752
0.012617524
0.013017625
0.013474898
0.013988514
0.014560021
0.01519269
0.015891502
0.016663624
0.017518926
0.018471489
0.019540002
0.020754275
0.022149232
0.023803855
0.025768624
0.028349719
0.031425555
0.036783978
0.041809643
0.082940301
0.052240683
0.0014398369
0.00068711043
0.0017727997
0.0022937829
0.0027174089
0.0029843789
0.00317786
0.0033193962
0.0034188674
0.0034891777
0.0035399267
0.0035766983
0.0036030599
0.0036214416
0.0036338538
0.0036416595
0.0036457815
0.0036469339
0.0036457134
0.003642552
0.0036377238
0.0036315081
0.0036241057
0.0036156953
0.0036064037
0.0035963073
0.0035854982
0.0035740463
0.0035620105
0.0035494527
0.0035364002
0.0035228665
0.0035088815
0.0034944667
0.0034796365
0.0034644051
0.0034487913
0.0034327905
0.0034163925
0.0033996037
0.0033824229
0.0033648482
0.003346875
0.0033285013
0.003309727
0.0032905291
0.0032708873
0.0032507954
0.0032302403
0.0032092055
0.0031876792
0.0031656393
0.0031430797
0.0031199773
0.0030962843
0.0030719858
0.0030470579
0.0030214701
0.0029951939
0.0029681977
0.0029404492
0.0029119186
0.0028825535
0.0028522998
0.0028211189
0.0027889606
0.0027557691
0.0027214912
0.0026860595
0.0026494201
0.0026114964
0.0025721856
0.0025314146
0.0024890901
0.0024451091
0.0023993656
0.0023517382
0.0023021071
0.0022503248
0.0021962189
0.0021396316
0.0020803745
0.0020182492
0.0019530347
0.0018845129
0.0018124095
0.0017364422
0.0016566659
0.0015736376
0.0014893085
0.0014059668
0.0013242254
0.0012439587
0.0011651709
0.0010878909
0.0010121585
0.00093804264
0.00086566023
0.00079515523
0.00072670171
0.00066054293
0.00059700809
0.00053650825
0.00047967481
0.00042715421
0.00038050049
0.00034015915
0.00031215387
0.00028939242
0.00042960811
-0.00038270623
0.011672502
0.011778598
0.011999134
0.012277752
0.012617524
0.013017626
0.013474899
0.013988515
0.014560022
0.015192691
0.015891504
0.016663625
0.017518928
0.018471492
0.019540006
0.02075428
0.022149238
0.023803864
0.025768637
0.02834974
0.031425584
0.03678403
0.041809751
0.082930841
0.05226615
0.001450074
0.00069023702
0.0017743008
0.002294698
0.0027180541
0.0029848665
0.0031782466
0.0033197121
0.0034191316
0.003489403
0.0035401216
0.0035768688
0.0036032106
0.0036215759
0.0036339743
0.0036417683
0.0036458802
0.0036470239
0.0036457959
0.0036426278
0.0036377937
0.0036315728
0.0036241657
0.0036157511
0.0036064558
0.003596356
0.0035855437
0.003574089
0.0035620507
0.0035494905
0.0035364358
0.0035229001
0.0035089132
0.0034944967
0.0034796649
0.0034644319
0.0034488167
0.0034328147
0.0034164155
0.0033996255
0.0033824436
0.0033648679
0.0033468938
0.0033285192
0.0033097441
0.0032905454
0.0032709028
0.0032508102
0.0032302545
0.0032092189
0.0031876921
0.0031656516
0.0031430914
0.0031199886
0.003096295
0.0030719961
0.0030470677
0.0030214795
0.0029952028
0.0029682063
0.0029404574
0.0029119265
0.002882561
0.0028523069
0.0028211257
0.0027889671
0.0027557754
0.0027214971
0.0026860652
0.0026494255
0.0026115015
0.0025721905
0.0025314192
0.0024890946
0.0024451134
0.0023993696
0.002351742
0.0023021107
0.0022503283
0.0021962222
0.0021396347
0.0020803774
0.002018252
0.0019530373
0.0018845154
0.0018124119
0.0017364443
0.001656668
0.0015736396
0.0014893103
0.0014059685
0.001324227
0.0012439603
0.0011651724
0.0010878923
0.0010121598
0.00093804388
0.00086566141
0.00079515636
0.0007267028
0.00066054397
0.00059700909
0.00053650921
0.00047967575
0.00042715512
0.00038050137
0.00034016002
0.00031215474
0.00028939326
0.00042960908
-0.00038270566
0.011672502
0.011778598
0.011999134
0.012277752
0.012617524
0.013017626
0.013474899
0.013988515
0.014560022
0.015192692
0.015891505
0.016663627
0.017518931
0.018471495
0.01954001
0.020754286
0.022149246
0.023803876
0.025768652
0.028349766
0.031425618
0.036784095
0.041809876
0.082919899
0.052293584
0.0014613576
0.00069369203
0.0017759599
0.0022957098
0.0027187674
0.0029854057
0.003178674
0.0033200613
0.0034194238
0.0034896521
0.003540337
0.0035770573
0.0036033772
0.0036217243
0.0036341075
0.0036418885
0.0036459894
0.0036471235
0.0036458871
0.0036427116
0.003637871
0.0036316443
0.0036242321
0.0036158129
0.0036065134
0.0035964098
0.0035855941
0.0035741363
0.003562095
0.0035495322
0.0035364751
0.0035229372
0.0035089483
0.0034945298
0.0034796962
0.0034644616
0.0034488449
0.0034328414
0.0034164409
0.0033996496
0.0033824666
0.0033648897
0.0033469146
0.003328539
0.0033097629
0.0032905634
0.00327092
0.0032508266
0.0032302701
0.0032092339
0.0031877063
0.0031656652
0.0031431044
0.003120001
0.0030963069
0.0030720074
0.0030470785
0.0030214899
0.0029952127
0.0029682157
0.0029404664
0.0029119351
0.0028825693
0.0028523148
0.0028211332
0.0027889743
0.0027557822
0.0027215037
0.0026860715
0.0026494315
0.0026115072
0.0025721959
0.0025314244
0.0024890995
0.0024451181
0.0023993741
0.0023517463
0.0023021147
0.0022503321
0.0021962258
0.0021396381
0.0020803807
0.002018255
0.0019530402
0.0018845181
0.0018124144
0.0017364468
0.0016566703
0.0015736417
0.0014893123
0.0014059704
0.0013242288
0.001243962
0.001165174
0.0010878938
0.0010121612
0.00093804525
0.00086566272
0.00079515762
0.000726704
0.00066054513
0.0005970102
0.00053651028
0.00047967678
0.00042715612
0.00038050236
0.00034016098
0.00031215572
0.00028939419
0.00042961014
-0.00038270502
0.011672502
0.011778598
0.011999134
0.012277752
0.012617525
0.013017627
0.0134749
0.013988516
0.014560024
0.015192693
0.015891507
0.01666363
0.017518934
0.0184715
0.019540016
0.020754293
0.022149256
0.02380389
0.025768671
0.028349797
0.03142566
0.036784175
0.041810023
0.082907163
0.052323173
0.0014738492
0.00069752677
0.0017778019
0.0022968336
0.0027195597
0.0029860046
0.0031791487
0.0033204492
0.0034197484
0.0034899287
0.0035405763
0.0035772667
0.0036035622
0.0036218892
0.0036342554
0.0036420221
0.0036461106
0.0036472341
0.0036459884
0.0036428047
0.0036379569
0.0036317238
0.0036243059
0.0036158815
0.0036065774
0.0035964695
0.0035856501
0.0035741888
0.0035621444
0.0035495786
0.0035365188
0.0035229784
0.0035089872
0.0034945666
0.0034797311
0.0034644946
0.0034488762
0.0034328711
0.0034164691
0.0033996764
0.0033824921
0.003364914
0.0033469377
0.0033285611
0.0033097839
0.0032905834
0.003270939
0.0032508448
0.0032302875
0.0032092505
0.0031877222
0.0031656803
0.0031431189
0.0031200148
0.0030963201
0.00307202
0.0030470906
0.0030215014
0.0029952238
0.0029682263
0.0029404765
0.0029119447
0.0028825784
0.0028523236
0.0028211416
0.0027889823
0.0027557899
0.002721511
0.0026860784
0.0026494382
0.0026115136
0.002572202
0.0025314302
0.002489105
0.0024451233
0.002399379
0.002351751
0.0023021192
0.0022503363
0.0021962299
0.0021396419
0.0020803843
0.0020182584
0.0019530435
0.0018845211
0.0018124173
0.0017364494
0.0016566728
0.0015736441
0.0014893146
0.0014059725
0.0013242308
0.0012439638
0.0011651758
0.0010878955
0.0010121628
0.00093804678
0.00086566418
0.00079515901
0.00072670533
0.00066054641
0.00059701143
0.00053651147
0.00047967793
0.00042715724
0.00038050345
0.00034016205
0.0003121568
0.00028939523
0.00042961133
-0.00038270431
0.011672502
0.011778598
0.011999134
0.012277753
0.012617525
0.013017627
0.013474901
0.013988517
0.014560025
0.015192695
0.015891509
0.016663633
0.017518938
0.018471505
0.019540023
0.020754302
0.022149268
0.023803907
0.025768694
0.028349835
0.031425711
0.036784272
0.041810194
0.082892262
0.052355079
0.0014877307
0.00070179814
0.0017798542
0.0022980862
0.0027204428
0.0029866721
0.0031796779
0.0033208816
0.0034201101
0.0034902371
0.0035408431
0.0035775002
0.0036037685
0.003622073
0.0036344204
0.003642171
0.0036462458
0.0036473574
0.0036461013
0.0036429086
0.0036380527
0.0036318124
0.0036243881
0.003615958
0.0036066487
0.0035965362
0.0035857125
0.0035742473
0.0035621993
0.0035496303
0.0035365676
0.0035230244
0.0035090306
0.0034946077
0.0034797699
0.0034645315
0.0034489111
0.0034329043
0.0034165005
0.0033997063
0.0033825205
0.0033649411
0.0033469635
0.0033285856
0.0033098073
0.0032906057
0.0032709603
0.0032508651
0.0032303069
0.003209269
0.0031877398
0.0031656972
0.003143135
0.0031200302
0.0030963348
0.0030720341
0.003047104
0.0030215142
0.002995236
0.002968238
0.0029404877
0.0029119555
0.0028825887
0.0028523334
0.002821151
0.0027889913
0.0027557984
0.0027215192
0.0026860862
0.0026494456
0.0026115206
0.0025722087
0.0025314366
0.0024891111
0.0024451291
0.0023993845
0.0023517562
0.0023021242
0.0022503411
0.0021962344
0.0021396462
0.0020803883
0.0020182622
0.001953047
0.0018845245
0.0018124205
0.0017364524
0.0016566756
0.0015736467
0.001489317
0.0014059749
0.001324233
0.0012439659
0.0011651777
0.0010878974
0.0010121646
0.00093804848
0.00086566581
0.00079516057
0.00072670683
0.00066054784
0.00059701281
0.0005365128
0.00047967922
0.00042715849
0.00038050467
0.00034016324
0.00031215801
0.00028939639
0.00042961266
-0.00038270352
0.011672502
0.011778599
0.011999135
0.012277753
0.012617526
0.013017628
0.013474902
0.013988519
0.014560027
0.015192697
0.015891512
0.016663636
0.017518942
0.018471511
0.019540031
0.020754313
0.022149283
0.023803928
0.025768722
0.02834988
0.031425771
0.036784388
0.041810392
0.082874746
0.052389425
0.0015032077
0.0007065695
0.0017821473
0.0022994865
0.0027214301
0.0029874184
0.0031802695
0.0033213651
0.0034205146
0.003490582
0.0035411414
0.0035777612
0.0036039991
0.0036222785
0.0036346048
0.0036423375
0.003646397
0.0036474952
0.0036462276
0.0036430247
0.0036381598
0.0036319116
0.0036244801
0.0036160436
0.0036067285
0.0035966107
0.0035857823
0.0035743127
0.0035622608
0.0035496882
0.0035366221
0.0035230758
0.0035090792
0.0034946536
0.0034798134
0.0034645726
0.0034489502
0.0034329413
0.0034165357
0.0033997398
0.0033825523
0.0033649713
0.0033469923
0.0033286131
0.0033098335
0.0032906306
0.0032709841
0.0032508878
0.0032303285
0.0032092897
0.0031877596
0.0031657161
0.0031431531
0.0031200474
0.0030963513
0.0030720498
0.0030471191
0.0030215286
0.0029952498
0.0029682512
0.0029405003
0.0029119675
0.0028826002
0.0028523443
0.0028211614
0.0027890013
0.002755808
0.0027215283
0.0026860949
0.0026494539
0.0026115286
0.0025722162
0.0025314438
0.0024891179
0.0024451356
0.0023993907
0.0023517621
0.0023021298
0.0022503464
0.0021962394
0.0021396509
0.0020803928
0.0020182665
0.0019530511
0.0018845283
0.0018124241
0.0017364558
0.0016566788
0.0015736497
0.0014893198
0.0014059775
0.0013242355
0.0012439683
0.00116518
0.0010878995
0.0010121666
0.00093805039
0.00086566763
0.00079516231
0.00072670849
0.00066054944
0.00059701435
0.00053651428
0.00047968065
0.00042715988
0.00038050603
0.00034016458
0.00031215936
0.00028939768
0.00042961415
-0.00038270264
0.011672502
0.011778599
0.011999135
0.012277754
0.012617526
0.013017629
0.013474903
0.01398852
0.014560029
0.0151927
0.015891515
0.016663641
0.017518948
0.018471518
0.01954004
0.020754326
0.0221493
0.023803952
0.025768754
0.028349933
0.031425841
0.036784525
0.041810621
0.082854078
0.052426284
0.0015205138
0.00071191166
0.0017847155
0.0023010556
0.0027225363
0.0029882547
0.0031809324
0.0033219068
0.0034209678
0.0034909683
0.0035414756
0.0035780537
0.0036042576
0.0036225088
0.0036348115
0.0036425241
0.0036465664
0.0036476497
0.0036463691
0.0036431548
0.0036382799
0.0036320227
0.0036245832
0.0036161395
0.0036068179
0.0035966943
0.0035858605
0.0035743861
0.0035623297
0.003549753
0.0035366832
0.0035231334
0.0035091336
0.0034947051
0.0034798621
0.0034646188
0.0034489939
0.0034329829
0.0034165752
0.0033997773
0.003382588
0.0033650053
0.0033470246
0.0033286438
0.0033098628
0.0032906586
0.0032710108
0.0032509132
0.0032303528
0.0032093129
0.0031877818
0.0031657373
0.0031431733
0.0031200668
0.0030963697
0.0030720675
0.003047136
0.0030215447
0.0029952652
0.0029682659
0.0029405143
0.0029119809
0.002882613
0.0028523566
0.0028211732
0.0027890125
0.0027558187
0.0027215385
0.0026861047
0.0026494632
0.0026115374
0.0025722247
0.0025314518
0.0024891256
0.0024451429
0.0023993977
0.0023517687
0.002302136
0.0022503523
0.002196245
0.0021396563
0.0020803979
0.0020182713
0.0019530556
0.0018845326
0.0018124281
0.0017364596
0.0016566823
0.001573653
0.001489323
0.0014059804
0.0013242382
0.0012439709
0.0011651824
0.0010879018
0.0010121689
0.00093805253
0.00086566968
0.00079516426
0.00072671037
0.00066055124
0.00059701608
0.00053651595
0.00047968227
0.00042716145
0.00038050756
0.00034016608
0.00031216088
0.00028939914
0.00042961582
-0.00038270164
0.011672502
0.011778599
0.011999136
0.012277755
0.012617527
0.01301763
0.013474904
0.013988522
0.014560031
0.015192703
0.015891519
0.016663646
0.017518954
0.018471527
0.019540051
0.020754341
0.02214932
0.02380398
0.025768791
0.028349994
0.031425924
0.036784685
0.041810887
0.082829608
0.052465652
0.0015399171
0.00071790392
0.0017875972
0.0023028172
0.0027237782
0.0029891936
0.0031816766
0.003322515
0.0034214767
0.0034914022
0.0035418508
0.0035783821
0.0036045478
0.0036227674
0.0036350435
0.0036427337
0.0036467566
0.0036478233
0.0036465281
0.0036433009
0.0036384147
0.0036321474
0.003624699
0.0036162472
0.0036069183
0.0035967881
0.0035859484
0.0035744685
0.0035624072
0.0035498259
0.0035367518
0.0035231982
0.0035091948
0.0034947629
0.0034799168
0.0034646706
0.0034490431
0.0034330295
0.0034166195
0.0033998194
0.003382628
0.0033650434
0.0033470609
0.0033286784
0.0033098958
0.00329069
0.0032710408
0.0032509418
0.0032303801
0.0032093389
0.0031878067
0.003165761
0.003143196
0.0031200885
0.0030963905
0.0030720873
0.0030471549
0.0030215629
0.0029952825
0.0029682824
0.0029405302
0.002911996
0.0028826275
0.0028523704
0.0028211864
0.0027890251
0.0027558307
0.00272155
0.0026861156
0.0026494736
0.0026115474
0.0025722342
0.0025314609
0.0024891342
0.0024451511
0.0023994055
0.0023517761
0.0023021431
0.002250359
0.0021962513
0.0021396623
0.0020804035
0.0020182766
0.0019530606
0.0018845374
0.0018124326
0.0017364638
0.0016566863
0.0015736567
0.0014893265
0.0014059837
0.0013242413
0.0012439738
0.0011651852
0.0010879045
0.0010121714
0.00093805494
0.00086567197
0.00079516646
0.00072671247
0.00066055326
0.00059701803
0.00053651783
0.00047968409
0.00042716321
0.00038050929
0.00034016777
0.00031216259
0.00028940078
0.0004296177
-0.00038270053
0.011672502
0.0117786
0.011999136
0.012277755
0.012617528
0.013017631
0.013474906
0.013988524
0.014560034
0.015192706
0.015891524
0.016663652
0.017518962
0.018471536
0.019540064
0.020754358
0.022149343
0.023804013
0.025768835
0.028350064
0.031426019
0.036784869
0.041811196
0.082800558
0.052507428
0.0015617283
0.00072463529
0.0017908352
0.0023047978
0.0027251745
0.0029902492
0.0031825134
0.0033231989
0.0034220489
0.0034918899
0.0035422728
0.0035787513
0.0036048741
0.0036230581
0.0036353045
0.0036429693
0.0036469705
0.0036480184
0.0036467068
0.0036434653
0.0036385663
0.0036322877
0.0036248292
0.0036163683
0.0036070313
0.0035968937
0.0035860472
0.0035745612
0.0035624942
0.0035499078
0.003536829
0.003523271
0.0035092635
0.0034948279
0.0034799784
0.003464729
0.0034490984
0.003433082
0.0034166694
0.0033998668
0.0033826731
0.0033650863
0.0033471018
0.0033287173
0.0033099329
0.0032907254
0.0032710745
0.003250974
0.0032304109
0.0032093683
0.0031878347
0.0031657878
0.0031432216
0.0031201129
0.0030964138
0.0030721096
0.0030471762
0.0030215832
0.002995302
0.0029683011
0.002940548
0.0029120131
0.0028826437
0.002852386
0.0028212012
0.0027890392