/*--------------------------------*- C++ -*----------------------------------*\
| =========                 |                                                 |
| \\      /  F ield         | OpenFOAM: The Open Source CFD Toolbox           |
|  \\    /   O peration     | Version:  2206                                  |
|   \\  /    A nd           | Website:  www.openfoam.com                      |
|    \\/     M anipulation  |                                                 |
\*---------------------------------------------------------------------------*/
FoamFile
{
    version     2.0;
    format      ascii;
    arch        "LSB;label=32;scalar=64";
    class       surfaceScalarField;
    location    "1000";
    object      phi;
}
// * * * * * * * * * * * * * * * * * * * * * * * * * * * * * * * * * * * * * //

dimensions      [0 3 -1 0 0 0 0];

oriented        oriented;

internalField   nonuniform List<scalar> 
25880
(
2.0046367e-06
1.7476591e-11
2.004597e-06
3.9624515e-11
2.0045491e-06
4.7943865e-11
2.0044949e-06
5.4210579e-11
2.0044321e-06
6.2771995e-11
2.0043597e-06
7.2444653e-11
2.0042763e-06
8.3412227e-11
2.00418e-06
9.6290984e-11
2.0040684e-06
1.116169e-10
2.0039384e-06
1.2998288e-10
2.0037862e-06
1.5218022e-10
2.0036068e-06
1.7941197e-10
2.0033936e-06
2.1320421e-10
2.0031371e-06
2.5651658e-10
2.0028251e-06
3.1192969e-10
2.0024354e-06
3.897534e-10
2.0019462e-06
4.8920016e-10
2.0012821e-06
6.6408048e-10
2.0004302e-06
8.5188465e-10
1.9990231e-06
1.4071593e-09
1.9972586e-06
1.7644279e-09
1.9930358e-06
4.2228116e-09
1.9918989e-06
1.1368659e-09
1.0004024e-06
9.914965e-07
4.4195356e-09
9.9598291e-07
2.1212239e-09
2.2983117e-09
1.6088843e-09
5.1233964e-10
1.361174e-09
2.4771032e-10
1.209119e-09
1.5205497e-10
1.1009248e-09
1.0819421e-10
1.0183916e-09
8.2533155e-11
9.5233211e-10
6.6059529e-11
8.9782227e-10
5.4509842e-11
8.5175625e-10
4.6066013e-11
8.120755e-10
3.968075e-11
7.7738576e-10
3.4689746e-11
7.4669751e-10
3.0688243e-11
7.1927696e-10
2.7420558e-11
6.9456479e-10
2.4712165e-11
6.7212837e-10
2.2436418e-11
6.5162758e-10
2.0500793e-11
6.3278919e-10
1.8838385e-11
6.1538943e-10
1.7399761e-11
5.992464e-10
1.6143037e-11
5.8420936e-10
1.5037035e-11
5.701497e-10
1.4059663e-11
5.5695945e-10
1.3190246e-11
5.4454655e-10
1.24129e-11
5.3283209e-10
1.1714464e-11
5.217479e-10
1.1084189e-11
5.1123444e-10
1.0513454e-11
5.0123959e-10
9.9948521e-12
4.9171753e-10
9.5220634e-12
4.8262783e-10
9.0896947e-12
4.7393487e-10
8.6929623e-12
4.6560689e-10
8.3279823e-12
4.5761529e-10
7.9916003e-12
4.4993441e-10
7.6808833e-12
4.4254119e-10
7.3932142e-12
4.3541478e-10
7.1264146e-12
4.2853628e-10
6.878498e-12
4.218887e-10
6.6475787e-12
4.1545653e-10
6.432173e-12
4.0922542e-10
6.2311065e-12
4.0318225e-10
6.0431705e-12
3.9731501e-10
5.8672423e-12
3.9161263e-10
5.7023757e-12
3.8606489e-10
5.5477421e-12
3.8066237e-10
5.4025216e-12
3.7539648e-10
5.2658915e-12
3.7025919e-10
5.1372904e-12
3.6524288e-10
5.0163023e-12
3.603405e-10
4.9023813e-12
3.5554548e-10
4.7950194e-12
3.5085168e-10
4.6937998e-12
3.4625333e-10
4.5983531e-12
3.4174497e-10
4.5083555e-12
3.3732163e-10
4.423344e-12
3.3297865e-10
4.342981e-12
3.2871145e-10
4.2671952e-12
3.2451569e-10
4.1957615e-12
3.2038732e-10
4.1283733e-12
3.1632248e-10
4.0648398e-12
3.123175e-10
4.0049805e-12
3.0836886e-10
3.9486353e-12
3.0447323e-10
3.8956307e-12
3.0062751e-10
3.8457213e-12
2.968287e-10
3.7988074e-12
2.930738e-10
3.7548993e-12
2.8935994e-10
3.713863e-12
2.8568438e-10
3.6755586e-12
2.8204447e-10
3.6399095e-12
2.7843762e-10
3.6068472e-12
2.7486131e-10
3.5763172e-12
2.7131314e-10
3.5481672e-12
2.6779082e-10
3.5223197e-12
2.6429197e-10
3.4988542e-12
2.6081423e-10
3.4777372e-12
2.5735534e-10
3.4588938e-12
2.5391302e-10
3.4423121e-12
2.5048503e-10
3.4279895e-12
2.4706911e-10
3.4159239e-12
2.4366306e-10
3.4060469e-12
2.4026469e-10
3.3983679e-12
2.3687169e-10
3.3930015e-12
2.3348172e-10
3.389972e-12
2.3009243e-10
3.3892883e-12
2.267014e-10
3.3910371e-12
2.2330613e-10
3.3952659e-12
2.1990415e-10
3.4019822e-12
2.1649254e-10
3.4116064e-12
2.1306935e-10
3.4231941e-12
2.0963303e-10
3.4363187e-12
2.0632505e-10
3.3079772e-12
2.0321447e-10
3.1105833e-12
2.0028324e-10
2.931227e-12
1.9751703e-10
2.7662099e-12
1.9490204e-10
2.6149911e-12
1.9242505e-10
2.4769868e-12
1.9007419e-10
2.3508671e-12
1.8783876e-10
2.2354233e-12
1.8570914e-10
2.1296238e-12
1.8367661e-10
2.0325325e-12
1.8173326e-10
1.9433451e-12
1.7987176e-10
1.8614967e-12
1.7808519e-10
1.7865725e-12
1.7636684e-10
1.7183546e-12
1.7471015e-10
1.6566901e-12
1.731078e-10
1.6023493e-12
1.7155272e-10
1.5550793e-12
1.7003252e-10
1.5201962e-12
1.6854272e-10
1.4898037e-12
1.6703579e-10
1.5069243e-12
1.6559259e-10
1.4432019e-12
1.6394079e-10
1.6517971e-12
9.8734044e-13
2.0345102e-06
3.5297441e-11
2.0344698e-06
8.0039661e-11
2.0344209e-06
9.6854419e-11
2.0343656e-06
1.0951572e-10
2.0343016e-06
1.2680969e-10
2.0342277e-06
1.4634709e-10
2.0341426e-06
1.6849863e-10
2.0340444e-06
1.9450886e-10
2.0339305e-06
2.2546003e-10
2.033798e-06
2.6254918e-10
2.0336428e-06
3.0737386e-10
2.0334598e-06
3.6236285e-10
2.0332424e-06
4.3059686e-10
2.0329809e-06
5.1805092e-10
2.0326629e-06
6.2993381e-10
2.0322656e-06
7.8705917e-10
2.0317669e-06
9.8783206e-10
2.0310901e-06
1.3408834e-09
2.030222e-06
1.7200015e-09
2.0287883e-06
2.840879e-09
2.0269906e-06
3.5621258e-09
2.0226889e-06
8.5245439e-09
2.021527e-06
2.2986941e-09
1.0217383e-06
1.9912853e-06
1.3484482e-08
2.0042367e-06
6.4903855e-09
9.2924086e-09
4.9229235e-09
2.0798016e-09
4.1649552e-09
1.0056786e-09
3.6996558e-09
6.1735438e-10
3.3685721e-09
4.3927791e-10
3.1160146e-09
3.3509066e-10
2.9138688e-09
2.6820535e-10
2.7470652e-09
2.2131337e-10
2.606101e-09
1.8703027e-10
2.4846763e-09
1.611054e-10
2.3785246e-09
1.4084152e-10
2.2846176e-09
1.2459523e-10
2.2007098e-09
1.1132832e-10
2.1250898e-09
1.0033217e-10
2.0564336e-09
9.10926e-11
1.9937005e-09
8.3233953e-11
1.9360543e-09
7.648458e-11
1.8828103e-09
7.0643754e-11
1.8334118e-09
6.5541456e-11
1.7873978e-09
6.105111e-11
1.7443745e-09
5.7082983e-11
1.7040115e-09
5.3553157e-11
1.6660273e-09
5.039714e-11
1.6301803e-09
4.7561494e-11
1.5962619e-09
4.5002585e-11
1.5640899e-09
4.2685404e-11
1.5335049e-09
4.0579883e-11
1.5043666e-09
3.8660362e-11
1.4765513e-09
3.6904945e-11
1.4499501e-09
3.5294213e-11
1.4244657e-09
3.3812395e-11
1.4000106e-09
3.2446682e-11
1.3765063e-09
3.1185169e-11
1.3538823e-09
3.0017231e-11
1.3320747e-09
2.8934021e-11
1.3110257e-09
2.7927477e-11
1.2906833e-09
2.6989941e-11
1.2710001e-09
2.6115392e-11
1.2519322e-09
2.5299058e-11
1.2334393e-09
2.4536033e-11
1.2154848e-09
2.3821761e-11
1.1980348e-09
2.3152398e-11
1.1810579e-09
2.2524581e-11
1.1645255e-09
2.1934981e-11
1.1484111e-09
2.1380259e-11
1.1326903e-09
2.0858134e-11
1.1173397e-09
2.0366917e-11
1.1023376e-09
1.9904393e-11
1.0876642e-09
1.9468499e-11
1.0733004e-09
1.9057543e-11
1.0592287e-09
1.8670024e-11
1.0454325e-09
1.8304629e-11
1.0318963e-09
1.7959478e-11
1.0186061e-09
1.76332e-11
1.0055478e-09
1.7325505e-11
9.9270809e-10
1.7035479e-11
9.8007459e-10
1.6761879e-11
9.676355e-10
1.6503929e-11
9.5537958e-10
1.6260896e-11
9.4329609e-10
1.603213e-11
9.3137479e-10
1.5816927e-11
9.1960622e-10
1.5614292e-11
9.0798121e-10
1.5423818e-11
8.9649056e-10
1.5245548e-11
8.8512548e-10
1.5078937e-11
8.7387762e-10
1.4923419e-11
8.6273885e-10
1.477868e-11
8.5170126e-10
1.4644445e-11
8.4075708e-10
1.4520491e-11
8.2989905e-10
1.4406201e-11
8.1912011e-10
1.4301258e-11
8.0841298e-10
1.4205987e-11
7.9777046e-10
1.4120252e-11
7.8718561e-10
1.4043747e-11
7.7665149e-10
1.3976426e-11
7.6616121e-10
1.3918277e-11
7.5570784e-10
1.3869292e-11
7.4528469e-10
1.3829193e-11
7.3488504e-10
1.379802e-11
7.2450181e-10
1.3776236e-11
7.1412784e-10
1.376394e-11
7.0375596e-10
1.376117e-11
6.9337872e-10
1.3768277e-11
6.8298853e-10
1.3785454e-11
6.7257778e-10
1.3812732e-11
6.6213756e-10
1.385182e-11
6.5166188e-10
1.389888e-11
6.41146e-10
1.3952195e-11
6.3102284e-10
1.3431137e-11
6.2150372e-10
1.2629703e-11
6.1253344e-10
1.1901511e-11
6.0406811e-10
1.1231541e-11
5.9606551e-10
1.0617591e-11
5.8848521e-10
1.0057288e-11
5.8129084e-10
9.5452354e-12
5.7444974e-10
9.0765253e-12
5.6793239e-10
8.6469702e-12
5.6171215e-10
8.2527697e-12
5.5576484e-10
7.8906591e-12
5.5006799e-10
7.5583447e-12
5.4460042e-10
7.2541425e-12
5.3934161e-10
6.9771684e-12
5.342715e-10
6.7268012e-12
5.2936768e-10
6.5061686e-12
5.2460851e-10
6.3142415e-12
5.199561e-10
6.1726071e-12
5.1539671e-10
6.049192e-12
5.1078493e-10
6.1187121e-12
5.0636874e-10
5.859391e-12
5.0130923e-10
6.7113003e-12
4.0021781e-12
2.0947026e-06
5.37554e-11
2.0946608e-06
1.2191358e-10
2.0946101e-06
1.4754418e-10
2.0945527e-06
1.6683471e-10
2.0944864e-06
1.9317692e-10
2.0944098e-06
2.2293399e-10
2.0943216e-06
2.5667e-10
2.0942198e-06
2.9628008e-10
2.0941019e-06
3.4341197e-10
2.0939646e-06
3.9988788e-10
2.0938038e-06
4.6813951e-10
2.0936143e-06
5.5186389e-10
2.0933891e-06
6.5575002e-10
2.0931183e-06
7.8889268e-10
2.092789e-06
9.5921841e-10
2.0923777e-06
1.1984083e-09
2.0918615e-06
1.5040247e-09
2.0911609e-06
2.0414147e-09
2.0902625e-06
2.6184322e-09
2.088779e-06
4.3243386e-09
2.0869191e-06
5.4221054e-09
2.0824691e-06
1.2974489e-08
2.0812634e-06
3.5044368e-09
1.0586867e-06
3.013862e-06
2.3315412e-08
3.039608e-06
1.1247599e-08
2.1360221e-08
8.5314222e-09
4.7959783e-09
7.2178421e-09
2.3192587e-09
6.4114021e-09
1.4237944e-09
5.8375803e-09
1.0130997e-09
5.3998562e-09
7.728147e-10
5.0495052e-09
6.1855639e-10
4.7604074e-09
5.1041119e-10
4.5160934e-09
4.3134424e-10
4.305645e-09
3.7155379e-10
4.121667e-09
3.2481955e-10
3.958911e-09
2.8735121e-10
3.8134851e-09
2.5675421e-10
3.6824231e-09
2.3139419e-10
3.5634304e-09
2.1008535e-10
3.454703e-09
1.919613e-10
3.354792e-09
1.7639556e-10
3.2625107e-09
1.6292511e-10
3.1768942e-09
1.511579e-10
3.0971433e-09
1.4080207e-10
3.0225757e-09
1.3165056e-10
2.952619e-09
1.2350988e-10
2.8867848e-09
1.1623131e-10
2.8246547e-09
1.0969159e-10
2.7658672e-09
1.0379009e-10
2.7101065e-09
9.8446074e-11
2.6570962e-09
9.3590199e-11
2.6065933e-09
8.9163284e-11
2.5583834e-09
8.5114834e-11
2.5122776e-09
8.1400063e-11
2.4681074e-09
7.79826e-11
2.4257211e-09
7.4832904e-11
2.3849828e-09
7.1923518e-11
2.3457701e-09
6.9229936e-11
2.3079723e-09
6.6731762e-11
2.2714894e-09
6.4410395e-11
2.2362312e-09
6.2248182e-11
2.2021153e-09
6.0231231e-11
2.1690659e-09
5.8348537e-11
2.1370131e-09
5.6588789e-11
2.1058934e-09
5.4941475e-11
2.0756481e-09
5.3397735e-11
2.0462228e-09
5.194981e-11
2.0175678e-09
5.0590021e-11
1.9896374e-09
4.9310673e-11
1.962389e-09
4.8106502e-11
1.9357823e-09
4.6973613e-11
1.9097798e-09
4.5906896e-11
1.8843467e-09
4.4901595e-11
1.8594504e-09
4.3953806e-11
1.8350604e-09
4.3060073e-11
1.8111477e-09
4.221736e-11
1.7876858e-09
4.1421336e-11
1.7646502e-09
4.0668841e-11
1.7420165e-09
3.9959201e-11
1.7197616e-09
3.9290313e-11
1.6978642e-09
3.8659305e-11
1.6763037e-09
3.8064391e-11
1.6550608e-09
3.7503881e-11
1.6341166e-09
3.6976275e-11
1.6134536e-09
3.6479949e-11
1.5930553e-09
3.6012607e-11
1.5729058e-09
3.5573315e-11
1.5529892e-09
3.5162167e-11
1.5332902e-09
3.4777909e-11
1.5137944e-09
3.4419234e-11
1.4944876e-09
3.4085421e-11
1.4753563e-09
3.3775832e-11
1.4563868e-09
3.3489956e-11
1.4375666e-09
3.3226366e-11
1.4188835e-09
3.2984338e-11
1.4003249e-09
3.2764615e-11
1.3818783e-09
3.2566884e-11
1.3635316e-09
3.2390445e-11
1.3452728e-09
3.2235184e-11
1.32709e-09
3.210108e-11
1.3089712e-09
3.1988112e-11
1.2909048e-09
3.189564e-11
1.272879e-09
3.1823754e-11
1.2548817e-09
3.1773524e-11
1.2369005e-09
3.1745182e-11
1.2189229e-09
3.1738809e-11
1.2009359e-09
3.1755219e-11
1.1829265e-09
3.1794858e-11
1.1648814e-09
3.1857799e-11
1.1467853e-09
3.1947984e-11
1.1286276e-09
3.205656e-11
1.1104002e-09
3.2179593e-11
1.0928534e-09
3.0977909e-11
1.0763536e-09
2.9129561e-11
1.0608049e-09
2.7450146e-11
1.0461315e-09
2.590502e-11
1.03226e-09
2.448908e-11
1.0191204e-09
2.3196859e-11
1.0066497e-09
2.201591e-11
9.9479133e-10
2.0934917e-11
9.8349407e-10
1.9944224e-11
9.7271178e-10
1.9035067e-11
9.6240252e-10
1.8199918e-11
9.5252738e-10
1.7433488e-11
9.4304962e-10
1.6731893e-11
9.339337e-10
1.6093095e-11
9.2514484e-10
1.5515663e-11
9.1664419e-10
1.500681e-11
9.0839428e-10
1.4564161e-11
9.0032938e-10
1.4237504e-11
8.924257e-10
1.3952867e-11
8.844312e-10
1.4113218e-11
8.7677599e-10
1.3514598e-11
8.6800223e-10
1.5485061e-11
9.2237813e-12
2.1861108e-06
7.3160369e-11
2.1860668e-06
1.6595433e-10
2.1860134e-06
2.0087524e-10
2.1859531e-06
2.2714312e-10
2.1858833e-06
2.6300245e-10
2.1858027e-06
3.0350661e-10
2.18571e-06
3.4942249e-10
2.1856029e-06
4.0332897e-10
2.1854789e-06
4.6746787e-10
2.1853345e-06
5.443179e-10
2.1851654e-06
6.371866e-10
2.1849662e-06
7.5110258e-10
2.1847295e-06
8.9244311e-10
2.1844448e-06
1.0735784e-09
2.1840987e-06
1.3052865e-09
2.1836665e-06
1.6306581e-09
2.1831241e-06
2.0463613e-09
2.1823883e-06
2.7772861e-09
2.1814447e-06
3.5620283e-09
2.1798871e-06
5.8819477e-09
2.1779342e-06
7.3749457e-09
2.1732632e-06
1.7645498e-08
2.1719925e-06
4.7751382e-09
1.1121056e-06
4.0737489e-06
3.4494033e-08
4.1172195e-06
1.6677365e-08
3.9176889e-08
1.2650154e-08
8.8231897e-09
1.0702363e-08
4.2670492e-09
9.5064476e-09
2.6197102e-09
8.655496e-09
1.8640513e-09
8.0063668e-09
1.4219439e-09
7.4868094e-09
1.1381137e-09
7.0580867e-09
9.3913388e-10
6.6957765e-09
7.9365444e-10
6.3836878e-09
6.8364253e-10
6.1108535e-09
5.9765388e-10
5.8694903e-09
5.2871436e-10
5.6538267e-09
4.7241783e-10
5.4594639e-09
4.2575702e-10
5.282999e-09
3.8655015e-10
5.1217572e-09
3.5320315e-10
4.9735894e-09
3.2456332e-10
4.836736e-09
2.9977855e-10
4.7097663e-09
2.7812765e-10
4.5914946e-09
2.590737e-10
4.4809097e-09
2.4223552e-10
4.3771623e-09
2.272572e-10
4.2795286e-09
2.1386509e-10
4.1873877e-09
2.0183242e-10
4.1002038e-09
1.9097404e-10
4.0175085e-09
1.8114137e-10
3.9388918e-09
1.7220684e-10
3.8639936e-09
1.6406157e-10
3.7924957e-09
1.5661264e-10
3.7241181e-09
1.4977767e-10
3.658611e-09
1.4348971e-10
3.5957495e-09
1.3769443e-10
3.5353317e-09
1.323413e-10
3.4771764e-09
1.2738523e-10
3.4211195e-09
1.227887e-10
3.3670124e-09
1.1851748e-10
3.3147215e-09
1.145391e-10
3.2641247e-09
1.1082798e-10
3.2151094e-09
1.073639e-10
3.1675722e-09
1.0412602e-10
3.1214186e-09
1.0109501e-10
3.0765618e-09
9.8254578e-11
3.0329211e-09
9.5590437e-11
2.9904227e-09
9.3088461e-11
2.9489989e-09
9.0734491e-11
2.9085865e-09
8.8518845e-11
2.8691258e-09
8.643435e-11
2.8305611e-09
8.447161e-11
2.7928408e-09
8.2621872e-11
2.7559167e-09
8.0877953e-11
2.7197432e-09
7.9233494e-11
2.6842777e-09
7.7682911e-11
2.6494808e-09
7.6218233e-11
2.615316e-09
7.4833647e-11
2.5817473e-09
7.3527912e-11
2.5487404e-09
7.2297158e-11
2.5162636e-09
7.1136104e-11
2.4842866e-09
7.0041462e-11
2.4527803e-09
6.9010121e-11
2.4217173e-09
6.8039325e-11
2.3910711e-09
6.712608e-11
2.3608176e-09
6.6266168e-11
2.330933e-09
6.5457868e-11
2.3013938e-09
6.4701352e-11
2.2721774e-09
6.3994315e-11
2.2432623e-09
6.3334349e-11
2.2146276e-09
6.2720132e-11
2.186253e-09
6.2150487e-11
2.1581184e-09
6.1624475e-11
2.1302053e-09
6.113947e-11
2.1024955e-09
6.069414e-11
2.0749703e-09
6.0289853e-11
2.0476112e-09
5.9926035e-11
2.0204002e-09
5.9601393e-11
1.9933197e-09
5.9315724e-11
1.9663518e-09
5.9068987e-11
1.9394787e-09
5.8861141e-11
1.9126834e-09
5.8691012e-11
1.8859483e-09
5.8558766e-11
1.8592555e-09
5.8466373e-11
1.8325864e-09
5.8414257e-11
1.8059227e-09
5.8402573e-11
1.7792451e-09
5.8432817e-11
1.7525341e-09
5.8505811e-11
1.7257702e-09
5.8621694e-11
1.6989305e-09
5.8787728e-11
1.6719994e-09
5.8987615e-11
1.6449648e-09
5.9214158e-11
1.6189396e-09
5.7003149e-11
1.5944669e-09
5.3602218e-11
1.5714049e-09
5.0512162e-11
1.5496407e-09
4.7669206e-11
1.5290659e-09
4.5063928e-11
1.5095765e-09
4.2686271e-11
1.4910791e-09
4.0513333e-11
1.4734897e-09
3.8524304e-11
1.4567325e-09
3.6701418e-11
1.440739e-09
3.5028551e-11
1.4254471e-09
3.3491856e-11
1.4107989e-09
3.2081604e-11
1.3967402e-09
3.079065e-11
1.383218e-09
2.9615247e-11
1.3701809e-09
2.8552762e-11
1.3575713e-09
2.761647e-11
1.3453334e-09
2.6802006e-11
1.33337e-09
2.6200969e-11
1.3216456e-09
2.5677282e-11
1.3097864e-09
2.597239e-11
1.2984303e-09
2.4870659e-11
1.285413e-09
2.8502397e-11
1.6966864e-11
2.310097e-06
9.3846962e-11
2.31005e-06
2.1292786e-10
2.3099931e-06
2.5778163e-10
2.3099288e-06
2.9149815e-10
2.3098543e-06
3.3750926e-10
2.3097683e-06
3.8947446e-10
2.3096693e-06
4.4837618e-10
2.3095551e-06
5.1752193e-10
2.3094228e-06
5.9978633e-10
2.3092688e-06
6.9834697e-10
2.3090885e-06
8.1744367e-10
2.3088761e-06
9.6352233e-10
2.3086238e-06
1.1447568e-09
2.3083204e-06
1.3770032e-09
2.3079516e-06
1.6740726e-09
2.307491e-06
2.0911988e-09
2.3069133e-06
2.6240858e-09
2.3061296e-06
3.5609926e-09
2.3051249e-06
4.5667586e-09
2.3034669e-06
7.5399196e-09
2.3013884e-06
9.4534771e-09
2.2964182e-06
2.2615695e-08
2.2950596e-06
6.1337562e-09
1.1831355e-06
5.185673e-06
4.7677642e-08
5.2526774e-06
2.3104378e-08
6.3750152e-08
1.7525399e-08
1.4402169e-08
1.4826838e-08
6.9656101e-09
1.3169773e-08
4.2767759e-09
1.1990691e-08
3.0431331e-09
1.1091245e-08
2.3213893e-09
1.0371337e-08
1.858022e-09
9.7772879e-09
1.5331832e-09
9.2752598e-09
1.2956825e-09
8.8428192e-09
1.1160831e-09
8.4647698e-09
9.7570327e-10
8.1303268e-09
8.6315735e-10
7.831493e-09
7.7125165e-10
7.5621735e-09
6.9507656e-10
7.3176533e-09
6.3107028e-10
7.0942261e-09
5.766304e-10
6.8889141e-09
5.2987528e-10
6.6992793e-09
4.8941337e-10
6.5233394e-09
4.5406755e-10
6.3594515e-09
4.229616e-10
6.2062143e-09
3.9547272e-10
6.0624514e-09
3.7102014e-10
5.9271594e-09
3.4915706e-10
5.7994785e-09
3.2951331e-10
5.6786659e-09
3.117866e-10
5.5640729e-09
2.9573439e-10
5.4551314e-09
2.811484e-10
5.351342e-09
2.6785089e-10
5.2522645e-09
2.5569017e-10
5.1575104e-09
2.4453175e-10
5.0667338e-09
2.3426636e-10
4.979623e-09
2.2480526e-10
4.8958983e-09
2.1606598e-10
4.8153086e-09
2.0797492e-10
4.7376265e-09
2.0047081e-10
4.6626462e-09
1.9349778e-10
4.5901824e-09
1.8700282e-10
4.5200662e-09
1.8094419e-10
4.4521413e-09
1.7528883e-10
4.3862646e-09
1.7000277e-10
4.3223051e-09
1.6505443e-10
4.2601425e-09
1.6041721e-10
4.1996651e-09
1.5606779e-10
4.1407705e-09
1.5198311e-10
4.0833649e-09
1.4814007e-10
4.0273609e-09
1.4452284e-10
3.9726755e-09
1.4111972e-10
3.9192318e-09
1.3791537e-10
3.8669582e-09
1.348955e-10
3.8157877e-09
1.3204839e-10
3.7656576e-09
1.2936366e-10
3.7165083e-09
1.2683217e-10
3.6682856e-09
1.2444094e-10
3.6209388e-09
1.2218046e-10
3.574418e-09
1.2004871e-10
3.5286758e-09
1.1803937e-10
3.483668e-09
1.1614382e-10
3.4393528e-09
1.143567e-10
3.39569e-09
1.1267292e-10
3.3526413e-09
1.1108798e-10
3.3101704e-09
1.09597e-10
3.2682435e-09
1.0819309e-10
3.2268279e-09
1.0687345e-10
3.1858909e-09
1.0563835e-10
3.1454012e-09
1.0448403e-10
3.105329e-09
1.0340655e-10
3.0656454e-09
1.0240377e-10
3.0263221e-09
1.0147376e-10
2.9873316e-09
1.0061499e-10
2.9486479e-09
9.9823166e-11
2.9102459e-09
9.909612e-11
2.8720997e-09
9.8436085e-11
2.8341836e-09
9.7842125e-11
2.7964728e-09
9.7312129e-11
2.7589428e-09
9.6845764e-11
2.7215688e-09
9.6442967e-11
2.6843263e-09
9.6103672e-11
2.6471913e-09
9.582596e-11
2.61014e-09
9.5610105e-11
2.573147e-09
9.5459326e-11
2.536187e-09
9.5374315e-11
2.4992342e-09
9.5355327e-11
2.4622622e-09
9.5404809e-11
2.4252439e-09
9.5524105e-11
2.3881522e-09
9.5713448e-11
2.3509552e-09
9.5984717e-11
2.3136315e-09
9.6311281e-11
2.2761642e-09
9.6681472e-11
2.2400954e-09
9.3071935e-11
2.206178e-09
8.7519619e-11
2.1742153e-09
8.2474915e-11
2.1440508e-09
7.7833637e-11
2.1155344e-09
7.3580346e-11
2.0885221e-09
6.9698618e-11
2.0628843e-09
6.6151078e-11
2.0385049e-09
6.2903765e-11
2.0152786e-09
5.9927682e-11
1.9931107e-09
5.7196509e-11
1.9719149e-09
5.4687645e-11
1.9516113e-09
5.2385213e-11
1.9321243e-09
5.0277555e-11
1.913381e-09
4.8358556e-11
1.8953099e-09
4.6623923e-11
1.877831e-09
4.5095335e-11
1.8608673e-09
4.3765674e-11
1.8442838e-09
4.2784472e-11
1.8280315e-09
4.1929642e-11
1.8115922e-09
4.241164e-11
1.7958497e-09
4.0613161e-11
1.7778031e-09
4.6549054e-11
2.7698442e-11
2.4685088e-06
1.1618327e-10
2.4684581e-06
2.6367869e-10
2.4683966e-06
3.1929504e-10
2.468327e-06
3.6106782e-10
2.4682465e-06
4.1804828e-10
2.4681535e-06
4.8239401e-10
2.4680466e-06
5.5531934e-10
2.4679232e-06
6.4091815e-10
2.4677802e-06
7.4274768e-10
2.4676138e-06
8.6473892e-10
2.4674192e-06
1.0121365e-09
2.4671898e-06
1.1929137e-09
2.4669173e-06
1.4171802e-09
2.4665898e-06
1.704549e-09
2.4661918e-06
2.0720962e-09
2.4656948e-06
2.5881425e-09
2.4650716e-06
3.2473372e-09
2.4642263e-06
4.406225e-09
2.463143e-06
5.650105e-09
2.461356e-06
9.3269082e-09
2.4591159e-06
1.1693577e-08
2.4537613e-06
2.7970338e-08
2.4522892e-06
7.6058123e-09
1.2732363e-06
6.3647259e-06
6.3637447e-08
6.4622762e-06
3.0912929e-08
9.647467e-08
2.3448653e-08
2.1866445e-08
1.9837823e-08
1.0576441e-08
1.7620292e-08
6.4943071e-09
1.6042409e-08
4.6210156e-09
1.4838728e-08
3.5250707e-09
1.3875309e-08
2.8214402e-09
1.3080317e-08
2.3281761e-09
1.2408469e-08
1.9675305e-09
1.1829745e-08
1.6948063e-09
1.132381e-08
1.4816384e-09
1.087623e-08
1.3107373e-09
1.0476304e-08
1.1711785e-09
1.0115873e-08
1.0555067e-09
9.7886305e-09
9.583132e-10
9.4896147e-09
8.7564623e-10
9.214841e-09
8.0464893e-10
8.9610471e-09
7.4320733e-10
8.7255802e-09
6.8953444e-10
8.5062416e-09
6.423002e-10
8.3011562e-09
6.0055814e-10
8.1087496e-09
5.6342669e-10
7.9276793e-09
5.302274e-10
7.7567944e-09
5.0039814e-10
7.5951011e-09
4.7347989e-10
7.4417312e-09
4.4910435e-10
7.2959243e-09
4.2695525e-10
7.1570125e-09
4.0676268e-10
7.0244064e-09
3.8829634e-10
6.8975861e-09
3.7135198e-10
6.7760888e-09
3.557637e-10
6.6594974e-09
3.4139671e-10
6.5474375e-09
3.2812581e-10
6.4395732e-09
3.1583924e-10
6.3356001e-09
3.0444395e-10
6.2352427e-09
2.9385511e-10
6.1382533e-09
2.8399222e-10
6.0444056e-09
2.747919e-10
5.9534905e-09
2.6620395e-10
5.8653165e-09
2.5817678e-10
5.7797085e-09
2.5066246e-10
5.6965051e-09
2.4362056e-10
5.6155572e-09
2.370157e-10
5.5367275e-09
2.3081285e-10
5.4598906e-09
2.2497693e-10
5.3849295e-09
2.1948392e-10
5.3117332e-09
2.1431604e-10
5.2401986e-09
2.0944999e-10
5.17023e-09
2.0486408e-10
5.1017379e-09
2.0054051e-10
5.0346381e-09
1.9646352e-10
4.968851e-09
1.9261924e-10
4.904304e-09
1.8898794e-10
4.8409293e-09
1.8555519e-10
4.77866e-09
1.8231793e-10
4.7174329e-09
1.7926656e-10
4.6571887e-09
1.7638798e-10
4.5978714e-09
1.7367405e-10
4.5394272e-09
1.7111705e-10
4.481805e-09
1.6871016e-10
4.4249561e-09
1.6644595e-10
4.3688352e-09
1.6431396e-10
4.3133988e-09
1.6230993e-10
4.2586028e-09
1.604343e-10
4.2044055e-09
1.5868133e-10
4.150767e-09
1.5704507e-10
4.0976485e-09
1.5552224e-10
4.0450124e-09
1.5410992e-10
3.9928216e-09
1.5280579e-10
3.9410414e-09
1.5160333e-10
3.8896383e-09
1.5049924e-10
3.8385774e-09
1.4949693e-10
3.7878246e-09
1.4859497e-10
3.7373466e-09
1.4779015e-10
3.6871104e-09
1.4708197e-10
3.637083e-09
1.4647034e-10
3.5872315e-09
1.4595515e-10
3.537524e-09
1.455335e-10
3.4879283e-09
1.452058e-10
3.4384107e-09
1.4497694e-10
3.388937e-09
1.4484799e-10
3.339473e-09
1.4481932e-10
3.2899831e-09
1.4489467e-10
3.2404312e-09
1.4507607e-10
3.1907807e-09
1.4536389e-10
3.1409892e-09
1.4577622e-10
3.0910279e-09
1.4627257e-10
3.040874e-09
1.4683537e-10
2.9925917e-09
1.4135425e-10
2.9471887e-09
1.3292267e-10
2.9044015e-09
1.2526208e-10
2.864021e-09
1.1821414e-10
2.825846e-09
1.1175531e-10
2.789684e-09
1.0586063e-10
2.7553617e-09
1.0047337e-10
2.7227235e-09
9.5541998e-11
2.6916287e-09
9.102248e-11
2.6619503e-09
8.687486e-11
2.6335732e-09
8.3064827e-11
2.6063901e-09
7.9568286e-11
2.5803001e-09
7.6367538e-11
2.5552054e-09
7.3453308e-11
2.5310102e-09
7.081909e-11
2.5076077e-09
6.8497816e-11
2.4848947e-09
6.6478695e-11
2.4626904e-09
6.4988788e-11
2.440929e-09
6.3690971e-11
2.4189173e-09
6.4423418e-11
2.3978371e-09
6.1693284e-11
2.3736711e-09
7.0715097e-11
4.2066297e-11
2.663707e-06
1.4058109e-10
2.6636515e-06
3.1915402e-10
2.6635842e-06
3.8657506e-10
2.6635081e-06
4.3716527e-10
2.66342e-06
5.0613788e-10
2.6633184e-06
5.8401407e-10
2.6632015e-06
6.7226037e-10
2.6630666e-06
7.7582912e-10
2.6629103e-06
8.9902237e-10
2.6627284e-06
1.0465925e-09
2.6625157e-06
1.2248793e-09
2.6622651e-06
1.443521e-09
2.6619675e-06
1.7147362e-09
2.6616098e-06
2.0622325e-09
2.6611753e-06
2.5066407e-09
2.6606329e-06
3.1305439e-09
2.6599528e-06
3.9274216e-09
2.6590308e-06
5.3282328e-09
2.6578494e-06
6.8315208e-09
2.6559016e-06
1.1274744e-08
2.65346e-06
1.413509e-08
2.6476264e-06
3.3803948e-08
2.6460121e-06
9.2201867e-09
1.3842306e-06
7.6265074e-06
8.3302527e-08
7.7632043e-06
4.056987e-08
1.3920733e-07
3.0774046e-08
3.1662268e-08
2.603484e-08
1.5315647e-08
2.3123924e-08
9.4052228e-09
2.1052657e-08
6.6922829e-09
1.9472572e-08
5.1051558e-09
1.8207878e-08
4.086134e-09
1.7164269e-08
3.3717847e-09
1.6282311e-08
2.8494892e-09
1.5522596e-08
2.4545205e-09
1.485843e-08
2.1458044e-09
1.4270866e-08
1.8983013e-09
1.3745856e-08
1.6961892e-09
1.3272692e-08
1.5286706e-09
1.2843092e-08
1.3879127e-09
1.2450546e-08
1.2681923e-09
1.2089822e-08
1.1653729e-09
1.1756638e-08
1.0763913e-09
1.1447513e-08
9.9866017e-10
1.1159558e-08
9.3025474e-10
1.0890314e-08
8.6980242e-10
1.0637713e-08
8.1602732e-10
1.0399994e-08
7.6794686e-10
1.0175645e-08
7.2474694e-10
9.963362e-09
6.8576278e-10
9.7620054e-09
6.50461e-10
9.570577e-09
6.1838359e-10
9.3882001e-09
5.8913966e-10
9.2141007e-09
5.6239568e-10
9.0475968e-09
5.3785589e-10
8.8880805e-09
5.1527999e-10
8.7350044e-09
4.944728e-10
8.5878772e-09
4.7525299e-10
8.4462577e-09
4.5745872e-10
8.3097465e-09
4.4095522e-10
8.1779819e-09
4.2561964e-10
8.0506387e-09
4.1133542e-10
7.9274199e-09
3.9801077e-10
7.8080509e-09
3.8557297e-10
7.6922803e-09
3.739473e-10
7.5798784e-09
3.6306436e-10
7.4706334e-09
3.5286561e-10
7.3643493e-09
3.432998e-10
7.2608459e-09
3.343162e-10
7.1599589e-09
3.2586399e-10
7.0615344e-09
3.1790843e-10
6.9654267e-09
3.1042373e-10
6.8715005e-09
3.0337615e-10
6.7796303e-09
2.967343e-10
6.6896984e-09
2.9047239e-10
6.6015944e-09
2.8456757e-10
6.5152138e-09
2.789998e-10
6.4304613e-09
2.7374047e-10
6.3472478e-09
2.6876871e-10
6.2654856e-09
2.6408006e-10
6.1850916e-09
2.5966064e-10
6.1059881e-09
2.5549147e-10
6.0281013e-09
2.5156076e-10
5.9513611e-09
2.4785734e-10
5.8756999e-09
2.4437133e-10
5.8010539e-09
2.4109194e-10
5.7273638e-09
2.3800406e-10
5.6545722e-09
2.3510153e-10
5.5826215e-09
2.3238495e-10
5.5114568e-09
2.2984603e-10
5.4410258e-09
2.2747614e-10
5.3712775e-09
2.2527055e-10
5.3021624e-09
2.2322502e-10
5.233632e-09
2.2133619e-10
5.1656407e-09
2.1959462e-10
5.0981444e-09
2.1799553e-10
5.0310974e-09
2.1654387e-10
4.9644548e-09
2.1523757e-10
4.898173e-09
2.1407197e-10
4.8322086e-09
2.1304636e-10
4.7665184e-09
2.121606e-10
4.701059e-09
2.1141455e-10
4.6357885e-09
2.1080399e-10
4.5706647e-09
2.1032955e-10
4.5056434e-09
2.099983e-10
4.4406796e-09
2.0981177e-10
4.3757284e-09
2.0977055e-10
4.310743e-09
2.0988003e-10
4.2456759e-09
2.1014318e-10
4.1804792e-09
2.1056056e-10
4.115097e-09
2.1115843e-10
4.0494915e-09
2.1187808e-10
3.9836326e-09
2.1269427e-10
3.9202305e-09
2.0475631e-10
3.8606084e-09
1.9254478e-10
3.8044204e-09
1.8145016e-10
3.7513916e-09
1.7124286e-10
3.7012583e-09
1.6188861e-10
3.6537677e-09
1.5335129e-10
3.6086923e-09
1.4554877e-10
3.5658278e-09
1.3840643e-10
3.5249898e-09
1.3186056e-10
3.4860113e-09
1.2585327e-10
3.4487413e-09
1.2033491e-10
3.4130389e-09
1.1527061e-10
3.3787717e-09
1.1063473e-10
3.3458112e-09
1.0641387e-10
3.3140316e-09
1.0259862e-10
3.2832927e-09
9.9236711e-11
3.2534589e-09
9.631254e-11
3.2242927e-09
9.4154942e-11
3.1957078e-09
9.2275885e-11
3.1667935e-09
9.3337709e-11
3.139101e-09
8.938587e-11
3.1073547e-09
1.024614e-10
6.0938475e-11
2.8986003e-06
1.6750802e-10
2.8985391e-06
3.8043256e-10
2.8984647e-06
4.6094525e-10
2.8983806e-06
5.2128983e-10
2.8982832e-06
6.0351127e-10
2.8981709e-06
6.9633017e-10
2.8980417e-06
8.0148989e-10
2.8978926e-06
9.2488967e-10
2.89772e-06
1.0716525e-09
2.8975191e-06
1.2474354e-09
2.8972842e-06
1.4597837e-09
2.8970076e-06
1.7201688e-09
2.8966792e-06
2.0431302e-09
2.8962845e-06
2.4568824e-09
2.8958052e-06
2.9859648e-09
2.8952071e-06
3.7286598e-09
2.8944574e-06
4.6771343e-09
2.8934413e-06
6.3442519e-09
2.8921399e-06
8.132969e-09
2.8899953e-06
1.3419296e-08
2.8873075e-06
1.6822897e-08
2.8808887e-06
4.0222806e-08
2.8790987e-06
1.1010121e-08
1.518357e-06
8.9872491e-06
1.0781224e-07
9.1737491e-06
5.2652513e-08
1.9436705e-07
3.9939508e-08
4.4375273e-08
3.3788276e-08
2.1466879e-08
3.0009473e-08
1.3184026e-08
2.7320645e-08
9.3811115e-09
2.5269405e-08
7.156395e-09
2.3627594e-08
5.7279458e-09
2.2272778e-08
4.7266008e-09
2.1127806e-08
3.9944603e-09
2.0141529e-08
3.4407981e-09
1.9279288e-08
3.008045e-09
1.8516489e-08
2.6611009e-09
1.7834893e-08
2.377785e-09
1.7220602e-08
2.1429612e-09
1.6662865e-08
1.9456499e-09
1.6153229e-08
1.7778281e-09
1.5684903e-08
1.6336989e-09
1.5252329e-08
1.5089657e-09
1.4850986e-08
1.4000027e-09
1.4477127e-08
1.3041137e-09
1.4127558e-08
1.2193721e-09
1.3799594e-08
1.1439904e-09
1.349095e-08
1.0765914e-09
1.3199663e-08
1.0160338e-09
1.292404e-08
9.6138578e-10
1.2662601e-08
9.1189953e-10
1.2414052e-08
8.669331e-10
1.2177253e-08
8.2593857e-10
1.19512e-08
7.8844842e-10
1.1735008e-08
7.5404806e-10
1.1527887e-08
7.2240065e-10
1.1329128e-08
6.9323256e-10
1.1138091e-08
6.6628964e-10
1.0954205e-08
6.4134502e-10
1.077695e-08
6.1820979e-10
1.0605858e-08
5.9671173e-10
1.0440506e-08
5.7668747e-10
1.0280509e-08
5.5800833e-10
1.0125509e-08
5.4057237e-10
9.9751816e-09
5.2427485e-10
9.8292274e-09
5.0901849e-10
9.6873718e-09
4.9472123e-10
9.5493604e-09
4.8131124e-10
9.4149592e-09
4.6871738e-10
9.2839547e-09
4.5686845e-10
9.1561474e-09
4.4571573e-10
9.0313481e-09
4.3522306e-10
8.9093811e-09
4.2534316e-10
8.7900834e-09
4.1603202e-10
8.6733023e-09
4.0725348e-10
8.5588943e-09
3.9897554e-10
8.446724e-09
3.9117008e-10
8.3366675e-09
3.8379699e-10
8.2286092e-09
3.7682704e-10
8.1224353e-09
3.7025398e-10
8.0180376e-09
3.6405833e-10
7.9153155e-09
3.582135e-10
7.8141733e-09
3.5270295e-10
7.7145196e-09
3.4751105e-10
7.616267e-09
3.4262392e-10
7.5193325e-09
3.3802645e-10
7.4236391e-09
3.3369745e-10
7.3291124e-09
3.2962831e-10
7.2356775e-09
3.2581985e-10
7.143263e-09
3.2226045e-10
7.0518011e-09
3.1893804e-10
6.9612257e-09
3.1584595e-10
6.8714725e-09
3.1297828e-10
6.7824784e-09
3.103303e-10
6.6941842e-09
3.0788876e-10
6.6065328e-09
3.0564699e-10
6.5194647e-09
3.0361193e-10
6.4329216e-09
3.0178067e-10