/*--------------------------------*- C++ -*----------------------------------*\
| =========                 |                                                 |
| \\      /  F ield         | OpenFOAM: The Open Source CFD Toolbox           |
|  \\    /   O peration     | Version:  2206                                  |
|   \\  /    A nd           | Website:  www.openfoam.com                      |
|    \\/     M anipulation  |                                                 |
\*---------------------------------------------------------------------------*/
FoamFile
{
    version     2.0;
    format      ascii;
    arch        "LSB;label=32;scalar=64";
    class       volVectorField;
    location    "1000";
    object      U;
}
// * * * * * * * * * * * * * * * * * * * * * * * * * * * * * * * * * * * * * //

dimensions      [0 1 -1 0 0 0 0];

internalField   nonuniform List<vector> 
13056
(
(1 2.1771725e-10 4.2275033e-25)
(0.9999836 5.6022789e-10 0)
(0.99996086 7.6918905e-10 0)
(0.99993591 9.8672141e-10 0)
(0.99990702 1.2958193e-09 0)
(0.99987356 1.6953554e-09 0)
(0.99983505 2.2116282e-09 0)
(0.99979069 2.8905264e-09 0)
(0.99973939 3.7898365e-09 0)
(0.99967981 4.9859887e-09 0)
(0.99961026 6.5845832e-09 0)
(0.99952863 8.7392554e-09 0)
(0.99943203 1.166251e-08 0)
(0.99931682 1.5708113e-08 0)
(0.99917721 2.1299652e-08 0)
(0.99900687 2.9532119e-08 0)
(0.99879012 4.0885764e-08 0)
(0.99852041 6.0774235e-08 0)
(0.9981313 8.4623592e-08 0)
(0.99767106 1.5017712e-07 0)
(0.99673877 1.9991011e-07 0)
(0.9959023 5.0119365e-07 0)
(0.99255933 1.3984509e-07 -4.7736048e-21)
(0.9946988 0.00012387246 7.807248e-18)
(0.0031665741 0.00012431698 0)
(0.0012340039 6.5434829e-08 -1.0372917e-20)
(0.00088082991 4.6434894e-08 3.42836e-18)
(0.00072366845 5.3170383e-09 0)
(0.00063394679 3.2365283e-09 0)
(0.0005720853 2.2820632e-09 0)
(0.00052606856 1.7250294e-09 0)
(0.00048978485 1.3677229e-09 0)
(0.00046019063 1.1176485e-09 0)
(0.000435422 9.351191e-10 0)
(0.00041424692 7.9726876e-10 0)
(0.0003958453 6.896703e-10 0)
(0.00037964723 6.0353984e-10 0)
(0.00036523607 5.3331224e-10 0)
(0.00035229677 4.7518772e-10 0)
(0.00034058668 4.264153e-10 0)
(0.00032991703 3.8498826e-10 0)
(0.00032013743 3.4945909e-10 9.1627736e-26)
(0.00031112579 3.1874324e-10 0)
(0.00030278103 2.9194086e-10 0)
(0.00029502286 2.6838495e-10 0)
(0.00028778122 2.4758345e-10 0)
(0.00028099789 2.2909528e-10 0)
(0.00027462342 2.1257731e-10 0)
(0.00026861545 1.9774616e-10 0)
(0.00026293763 1.8437036e-10 0)
(0.00025755832 1.7226299e-10 0)
(0.00025244978 1.6126417e-10 0)
(0.00024758776 1.5123796e-10 0)
(0.00024295081 1.4206869e-10 0)
(0.00023852006 1.3365483e-10 0)
(0.00023427884 1.2591297e-10 0)
(0.00023021215 1.1877413e-10 0)
(0.00022630646 1.1217537e-10 0)
(0.0002225497 1.0606104e-10 0)
(0.00021893096 1.0038413e-10 0)
(0.00021544033 9.5102309e-11 0)
(0.00021206888 9.0176446e-11 0)
(0.00020880859 8.5574659e-11 0)
(0.00020565201 8.1270476e-11 0)
(0.00020259228 7.7238041e-11 0)
(0.00019962316 7.345378e-11 0)
(0.00019673891 6.9897359e-11 0)
(0.00019393424 6.6550779e-11 0)
(0.00019120424 6.3396909e-11 0)
(0.00018854442 6.0419402e-11 0)
(0.0001859507 5.7605718e-11 0)
(0.00018341916 5.4945406e-11 0)
(0.00018094612 5.2427001e-11 0)
(0.0001785282 5.0040013e-11 0)
(0.00017616225 4.7775385e-11 0)
(0.0001738453 4.5624931e-11 0)
(0.00017157454 4.3581296e-11 0)
(0.00016934735 4.163609e-11 0)
(0.00016716138 3.9782587e-11 0)
(0.00016501434 3.8016819e-11 0)
(0.00016290396 3.6333471e-11 0)
(0.00016082816 3.4726805e-11 0)
(0.00015878499 3.3192356e-11 0)
(0.00015677255 3.1725934e-11 0)
(0.00015478906 3.0323694e-11 0)
(0.00015283281 2.8981843e-11 0)
(0.00015090218 2.769627e-11 0)
(0.00014899569 2.6464158e-11 0)
(0.00014711183 2.5283512e-11 0)
(0.00014524911 2.4151396e-11 0)
(0.00014340616 2.3065009e-11 0)
(0.00014158163 2.2022079e-11 0)
(0.00013977421 2.102047e-11 0)
(0.00013798261 2.0058223e-11 0)
(0.00013620561 1.9132896e-11 0)
(0.00013444206 1.8242627e-11 0)
(0.0001326908 1.7386445e-11 0)
(0.00013095061 1.656276e-11 0)
(0.00012922036 1.5769871e-11 0)
(0.00012749891 1.5006457e-11 0)
(0.00012578514 1.4271273e-11 0)
(0.00012407791 1.3563116e-11 0)
(0.00012237611 1.2880569e-11 0)
(0.00012067866 1.22226e-11 0)
(0.00011898443 1.1588567e-11 0)
(0.00011729224 1.0977487e-11 0)
(0.00011560093 1.0388371e-11 0)
(0.00011390931 9.8204993e-12 0)
(0.00011221614 9.2730372e-12 0)
(0.00011052016 8.7450727e-12 0)
(0.00010882013 8.2367824e-12 0)
(0.00010711437 7.7449716e-12 0)
(0.00010540263 7.2682171e-12 0)
(0.00010372216 6.8201732e-12 0)
(0.00010212387 6.4139464e-12 0)
(0.0001006188 6.0449246e-12 0)
(9.9199453e-05 5.7053693e-12 0)
(9.7859008e-05 5.3941539e-12 0)
(9.6590533e-05 5.1100923e-12 0)
(9.5387772e-05 4.8504561e-12 0)
(9.4245124e-05 4.6127743e-12 0)
(9.3157538e-05 4.3949342e-12 0)
(9.2120444e-05 4.1950114e-12 0)
(9.1129724e-05 4.0113597e-12 0)
(9.0181611e-05 3.8428274e-12 0)
(8.9272549e-05 3.6885661e-12 0)
(8.8399186e-05 3.5481373e-12 0)
(8.7558184e-05 3.4212388e-12 0)
(8.6746342e-05 3.3094688e-12 0)
(8.5959554e-05 3.212337e-12 0)
(8.5194874e-05 3.1407872e-12 0)
(8.4442883e-05 3.0786983e-12 0)
(8.3708539e-05 3.114679e-12 0)
(8.2939423e-05 1.243929e-11 0)
(8.2269126e-05 3.3890692e-12 2.5339813e-24)
(8.1288681e-05 8.5294082e-12 0)
(1 6.5801303e-10 0)
(0.99998353 1.6935513e-09 0)
(0.99996067 2.3254853e-09 0)
(0.99993558 2.9831923e-09 0)
(0.99990655 3.917644e-09 0)
(0.99987291 5.1254501e-09 0)
(0.99983421 6.6860813e-09 0)
(0.99978962 8.7382176e-09 0)
(0.99973806 1.1456487e-08 0)
(0.99967819 1.5071844e-08 0)
(0.9996083 1.9903376e-08 0)
(0.99952628 2.6415297e-08 0)
(0.99942922 3.5249669e-08 0)
(0.99931347 4.7475328e-08 0)
(0.99917323 6.4371947e-08 0)
(0.99900213 8.9247683e-08 0)
(0.99878444 1.2355273e-07 0)
(0.99851358 1.836421e-07 0)
(0.99812285 2.5569389e-07 0)
(0.99766074 4.5372511e-07 0)
(0.99672485 6.0397321e-07 0)
(0.99588512 1.5141108e-06 0)
(0.99252975 4.2096138e-07 1.7066277e-20)
(0.99467432 0.00037230477 -6.6530668e-21)
(0.0095106698 0.00037413725 0)
(0.0037202385 1.2157173e-06 0)
(0.0026555805 2.6514602e-07 2.3318896e-22)
(0.0021818032 1.265702e-07 0)
(0.0019112721 7.7013082e-08 0)
(0.0017247526 5.4304775e-08 0)
(0.0015860041 4.1040946e-08 0)
(0.0014766045 3.2536218e-08 0)
(0.0013873739 2.6584957e-08 0)
(0.0013126935 2.2241044e-08 0)
(0.0012488482 1.8960601e-08 0)
(0.0011933654 1.6400376e-08 0)
(0.0011445266 1.4351149e-08 0)
(0.0011010755 1.2680404e-08 0)
(0.0010620622 1.129766e-08 0)
(0.0010267552 1.013747e-08 0)
(0.00099458507 9.1521044e-09 0)
(0.00096509853 8.3069729e-09 -1.561852e-25)
(0.00093792748 7.5764198e-09 0)
(0.00091276709 6.9390309e-09 0)
(0.00088937531 6.378791e-09 0)
(0.00086754089 5.8841187e-09 0)
(0.00084708833 5.444473e-09 0)
(0.0008278685 5.051692e-09 0)
(0.00080975366 4.6990377e-09 0)
(0.00079263427 4.3810036e-09 0)
(0.0007764149 4.0931385e-09 0)
(0.00076101192 3.8316407e-09 0)
(0.0007463522 3.5932764e-09 0)
(0.00073237109 3.375293e-09 0)
(0.00071901169 3.1752771e-09 0)
(0.00070622374 2.9912439e-09 0)
(0.00069396199 2.821551e-09 0)
(0.0006821857 2.6647022e-09 0)
(0.00067085843 2.5193737e-09 0)
(0.0006599473 2.384447e-09 0)
(0.00064942242 2.2589154e-09 0)
(0.0006392569 2.1418492e-09 0)
(0.00062942652 2.0324891e-09 0)
(0.00061990882 1.9302046e-09 0)
(0.00061068315 1.8343819e-09 0)
(0.00060173067 1.7444598e-09 0)
(0.0005930341 1.6599549e-09 0)
(0.00058457746 1.5804387e-09 0)
(0.00057634594 1.5055045e-09 0)
(0.00056832605 1.434764e-09 0)
(0.00056050544 1.3679176e-09 0)
(0.00055287231 1.3047167e-09 0)
(0.00054541556 1.2448895e-09 0)
(0.00053812504 1.1881863e-09 0)
(0.00053099117 1.1343914e-09 0)
(0.00052400504 1.0833104e-09 0)
(0.00051715821 1.0347681e-09 0)
(0.00051044273 9.8856593e-10 0)
(0.00050385155 9.4454371e-10 0)
(0.00049737774 9.0260567e-10 0)
(0.00049101445 8.6262638e-10 0)
(0.00048475544 8.2446955e-10 0)
(0.00047859479 7.880288e-10 0)
(0.00047252681 7.5320444e-10 0)
(0.00046654614 7.1990502e-10 0)
(0.00046064757 6.8804075e-10 0)
(0.00045482626 6.5751394e-10 0)
(0.00044907774 6.2825693e-10 0)
(0.00044339746 6.0022235e-10 0)
(0.00043778092 5.7334081e-10 0)
(0.00043222397 5.4754557e-10 0)
(0.00042672255 5.2278253e-10 0)
(0.00042127273 4.99001e-10 0)
(0.00041587065 4.761542e-10 0)
(0.00041051254 4.5418465e-10 0)
(0.000405195 4.3304785e-10 0)
(0.00039991451 4.127201e-10 0)
(0.0003946674 3.9316409e-10 0)
(0.00038945026 3.7433946e-10 0)
(0.00038425967 3.5621464e-10 0)
(0.00037909222 3.3876011e-10 0)
(0.00037394451 3.2194726e-10 0)
(0.00036881313 3.0574257e-10 0)
(0.00036369489 2.9012133e-10 0)
(0.00035858636 2.7506818e-10 0)
(0.00035348397 2.6055992e-10 0)
(0.00034838423 2.4657297e-10 0)
(0.00034328356 2.3309017e-10 0)
(0.00033817818 2.2009167e-10 0)
(0.00033306437 2.075558e-10 0)
(0.00032793832 1.9548584e-10 0)
(0.000322795 1.8380711e-10 0)
(0.00031763363 1.7248599e-10 0)
(0.00031256651 1.6184157e-10 0)
(0.00030774721 1.5218452e-10 0)
(0.00030320894 1.4341e-10 0)
(0.00029892917 1.3533697e-10 0)
(0.00029488727 1.2793897e-10 0)
(0.00029106238 1.2118744e-10 0)
(0.00028743562 1.150173e-10 0)
(0.00028399011 1.0936944e-10 0)
(0.00028071062 1.0419341e-10 0)
(0.00027758337 9.9443386e-11 0)
(0.00027459594 9.508005e-11 0)
(0.00027173699 9.107576e-11 0)
(0.00026899578 8.7410222e-11 0)
(0.00026636221 8.4072792e-11 0)
(0.00026382621 8.1055986e-11 0)
(0.00026137814 7.8397496e-11 0)
(0.00025900561 7.6084939e-11 0)
(0.00025669975 7.4378462e-11 0)
(0.00025443215 7.289159e-11 0)
(0.00025221775 7.3729792e-11 0)
(0.00024989858 7.0909454e-11 0)
(0.00024787719 8.0843352e-11 -3.9209614e-24)
(0.00024492064 4.8471483e-11 2.7355972e-25)
(1 1.1105163e-09 0)
(0.99998343 2.8584784e-09 0)
(0.99996042 3.9255518e-09 0)
(0.99993517 5.035876e-09 0)
(0.99990594 6.6132083e-09 0)
(0.99987208 8.6518613e-09 0)
(0.99983313 1.1285918e-08 0)
(0.99978825 1.474938e-08 0)
(0.99973637 1.9336892e-08 0)
(0.99967611 2.5438113e-08 0)
(0.9996058 3.3591369e-08 0)
(0.99952327 4.4579804e-08 0)
(0.99942564 5.9486532e-08 0)
(0.9993092 8.0114571e-08 0)
(0.99916815 1.0862238e-07 0)
(0.99899608 1.5059017e-07 0)
(0.99877718 2.0846285e-07 0)
(0.99850485 3.0982725e-07 0)
(0.99811207 4.3136275e-07 0)
(0.9976476 7.6537279e-07 0)
(0.99670714 1.0188056e-06 0)
(0.99586325 2.5538556e-06 0)
(0.99249218 7.112539e-07 -9.0419339e-21)
(0.99464316 0.00062449674 5.3888702e-55)
(0.015958852 0.00062879323 -5.3882026e-55)
(0.0062617211 3.4505661e-06 0)
(0.0044698377 7.7157591e-07 -1.211965e-22)
(0.0036724283 3.7063615e-07 0)
(0.0032170203 2.2553151e-07 0)
(0.0029030438 1.5903037e-07 0)
(0.0026694785 1.2018731e-07 0)
(0.0024853201 9.5280979e-08 0)
(0.0023351129 7.7853046e-08 0)
(0.0022093988 6.513188e-08 0)
(0.0021019244 5.5525115e-08 0)
(0.0020085271 4.8027562e-08 0)
(0.0019263139 4.20265e-08 0)
(0.0018531701 3.713382e-08 0)
(0.0017874967 3.3084542e-08 0)
(0.001728062 2.9687004e-08 0)
(0.001673908 2.6801438e-08 0)
(0.0016242712 2.4326538e-08 0)
(0.0015785322 2.2187167e-08 0)
(0.0015361778 2.0320624e-08 0)
(0.0014968005 1.8680012e-08 0)
(0.0014600448 1.7231403e-08 0)
(0.0014256152 1.5943936e-08 0)
(0.0013932607 1.4793708e-08 0)
(0.0013627663 1.3760987e-08 0)
(0.0013339476 1.2829649e-08 0)
(0.0013066439 1.1986657e-08 0)
(0.0012807144 1.1220879e-08 0)
(0.0012560361 1.0522846e-08 0)
(0.0012325002 9.8844957e-09 0)
(0.0012100107 9.2987621e-09 0)
(0.0011884833 8.7598326e-09 0)
(0.0011678416 8.2628969e-09 0)
(0.0011480171 7.8035738e-09 0)
(0.0011289485 7.3779869e-09 0)
(0.0011105804 6.9828606e-09 0)
(0.0010928625 6.6152469e-09 0)
(0.0010757495 6.2724238e-09 0)
(0.0010592006 5.9521671e-09 0)
(0.0010431782 5.6526309e-09 0)
(0.0010276472 5.3720171e-09 0)
(0.0010125762 5.1086831e-09 0)
(0.00099793602 4.8612126e-09 0)
(0.00098369969 4.6283514e-09 0)
(0.00096984232 4.4089081e-09 0)
(0.0009563412 4.2017457e-09 0)
(0.00094317555 4.005987e-09 0)
(0.00093032549 3.8209041e-09 0)
(0.00091777235 3.6457005e-09 0)
(0.00090549903 3.4796453e-09 0)
(0.00089348941 3.322107e-09 0)
(0.00088172851 3.1725164e-09 0)
(0.00087020209 3.03036e-09 0)
(0.0008588968 2.8950565e-09 0)
(0.00084780074 2.7661371e-09 0)
(0.00083690226 2.643321e-09 0)
(0.00082618983 2.526241e-09 0)
(0.00081565295 2.414498e-09 0)
(0.00080528164 2.3077805e-09 0)
(0.00079506635 2.2057965e-09 0)
(0.00078499802 2.1082783e-09 0)
(0.0007750679 2.0149628e-09 0)
(0.00076526784 1.9255642e-09 0)
(0.00075559032 1.8398841e-09 0)
(0.00074602766 1.7577839e-09 0)
(0.00073657232 1.6790603e-09 0)
(0.00072721729 1.6035179e-09 0)
(0.00071795574 1.5309984e-09 0)
(0.00070878105 1.4613532e-09 0)
(0.00069968671 1.3944454e-09 0)
(0.00069066641 1.3301066e-09 0)
(0.0006817144 1.2682066e-09 0)
(0.00067282475 1.2086758e-09 0)
(0.00066399131 1.1514052e-09 0)
(0.00065520831 1.0962763e-09 0)
(0.00064646999 1.043197e-09 0)
(0.00063777064 9.9208053e-10 0)
(0.0006291045 9.4284332e-10 0)
(0.00062046588 8.9538711e-10 0)
(0.00061184935 8.4963958e-10 0)
(0.00060324916 8.055557e-10 0)
(0.00059465931 7.6306759e-10 0)
(0.00058607392 7.2210619e-10 0)
(0.00057748694 6.8262121e-10 0)
(0.00056889203 6.4455454e-10 0)
(0.00056028292 6.0784276e-10 0)
(0.00055165319 5.7249548e-10 0)
(0.00054299438 5.3829392e-10 0)
(0.00053430516 5.0514011e-10 0)
(0.00052577457 4.7396835e-10 0)
(0.00051766117 4.4568797e-10 0)
(0.00051002082 4.1999227e-10 0)
(0.00050281563 3.9635105e-10 0)
(0.00049601086 3.7468659e-10 0)
(0.00048957139 3.5491507e-10 0)
(0.00048346545 3.3684607e-10 0)
(0.00047766463 3.2030647e-10 0)
(0.00047214328 3.0514852e-10 0)
(0.00046687822 2.9123811e-10 0)
(0.00046184855 2.7846006e-10 0)
(0.00045703514 2.6673346e-10 0)
(0.00045241995 2.5599886e-10 0)
(0.00044798596 2.4622512e-10 0)
(0.00044371624 2.373903e-10 0)
(0.00043959452 2.2960479e-10 0)
(0.00043559998 2.2283229e-10 0)
(0.00043171766 2.1783463e-10 0)
(0.00042789977 2.1347988e-10 0)
(0.00042417139 2.1593423e-10 0)
(0.00042026671 2.0638539e-10 0)
(0.00041686307 2.3688361e-10 0)
(0.00041188513 1.4091327e-10 0)
(1 1.5828091e-09 8.7234106e-25)
(0.9999833 4.0748647e-09 0)
(0.99996012 5.5968215e-09 0)
(0.99993465 7.1799916e-09 0)
(0.99990519 9.4287281e-09 0)
(0.99987106 1.2334986e-08 0)
(0.99983179 1.6089814e-08 0)
(0.99978656 2.102667e-08 0)
(0.99973427 2.7565398e-08 0)
(0.99967355 3.6261193e-08 0)
(0.9996027 4.7881035e-08 0)
(0.99951955 6.3540652e-08 0)
(0.9994212 8.478303e-08 0)
(0.99930392 1.1417665e-07 0)
(0.99916187 1.5479595e-07 0)
(0.9989886 2.1458971e-07 0)
(0.99876821 2.970383e-07 0)
(0.99849407 4.4143644e-07 0)
(0.99809875 6.1455439e-07 0)
(0.99763136 1.090285e-06 0)
(0.99668527 1.4512734e-06 0)
(0.99583627 3.6375579e-06 0)
(0.99244589 1.0149552e-06 0)
(0.99460469 0.00088417507 -2.8114425e-55)
(0.022604066 0.00089215406 2.8110968e-55)
(0.0088962774 7.1215668e-06 0)
(0.00635059 1.593604e-06 0)
(0.0052177066 7.6434457e-07 0)
(0.0045705879 4.6512973e-07 0)
(0.0041244477 3.2797894e-07 0)
(0.0037925603 2.4787044e-07 0)
(0.0035308801 1.9650373e-07 0)
(0.003317442 1.605612e-07 0)
(0.003138807 1.3432538e-07 0)
(0.0029860899 1.145126e-07 0)
(0.0028533757 9.9049895e-08 0)
(0.0027365537 8.6673576e-08 0)
(0.0026326185 7.6583161e-08 0)
(0.0025392983 6.8232141e-08 0)
(0.002454843 6.1225247e-08 0)
(0.0023778911 5.5274228e-08 0)
(0.0023073579 5.0170147e-08 0)
(0.0022423631 4.5758025e-08 0)
(0.0021821778 4.1908578e-08 0)
(0.0021262227 3.8525086e-08 0)
(0.0020739926 3.553756e-08 0)
(0.0020250679 3.2882361e-08 0)
(0.0019790917 3.0510196e-08 0)
(0.0019357586 2.8380371e-08 0)
(0.0018948065 2.645963e-08 0)
(0.0018560072 2.4721088e-08 0)
(0.0018191606 2.3141787e-08 0)
(0.0017840919 2.1702197e-08 0)
(0.0017506464 2.0385693e-08 0)
(0.0017186879 1.9177703e-08 0)
(0.0016880964 1.8066238e-08 0)
(0.0016587635 1.7041378e-08 0)
(0.0016305918 1.6094087e-08 0)
(0.0016034941 1.5216372e-08 0)
(0.0015773919 1.4401477e-08 0)
(0.0015522136 1.3643322e-08 0)
(0.0015278948 1.2936294e-08 0)
(0.0015043777 1.2275806e-08 0)
(0.0014816086 1.165805e-08 0)
(0.0014595379 1.1079318e-08 0)
(0.0014381208 1.0536223e-08 0)
(0.0014173158 1.0025845e-08 0)
(0.0013970847 9.5455953e-09 0)
(0.0013773921 9.0930182e-09 0)
(0.0013582058 8.6657688e-09 0)
(0.0013394961 8.262038e-09 0)
(0.0013212349 7.8803241e-09 0)
(0.0013033957 7.518985e-09 0)
(0.001285954 7.1765129e-09 0)
(0.0012688871 6.851606e-09 0)
(0.0012521736 6.5430898e-09 0)
(0.0012357933 6.2499057e-09 0)
(0.0012197272 5.9708549e-09 0)
(0.0012039585 5.7049705e-09 0)
(0.0011884705 5.4516732e-09 0)
(0.0011732469 5.2102058e-09 0)
(0.0011582727 4.9797455e-09 0)
(0.0011435338 4.7596495e-09 0)
(0.0011290167 4.5493159e-09 0)
(0.0011147083 4.3481923e-09 0)
(0.0011005964 4.1557365e-09 0)
(0.0010866693 3.9713586e-09 0)
(0.0010729163 3.79465e-09 0)
(0.0010593266 3.6253243e-09 0)
(0.0010458893 3.4629627e-09 0)
(0.0010325946 3.307162e-09 0)
(0.0010194328 3.1575955e-09 0)
(0.0010063943 3.0139572e-09 0)
(0.00099347007 2.8759644e-09 0)
(0.00098065102 2.7432699e-09 0)
(0.00096792902 2.6156053e-09 0)
(0.00095529563 2.4928271e-09 0)
(0.00094274211 2.3747101e-09 0)
(0.00093026027 2.2610105e-09 0)
(0.00091784192 2.1515377e-09 0)
(0.00090547894 2.0461134e-09 0)
(0.00089316314 1.9445648e-09 0)
(0.00088088644 1.8466895e-09 0)
(0.00086864113 1.7523382e-09 0)
(0.00085641903 1.6614181e-09 0)
(0.00084421161 1.5737891e-09 0)
(0.00083201052 1.4893089e-09 0)
(0.00081980715 1.4078738e-09 0)
(0.0008075925 1.3293639e-09 0)
(0.00079535764 1.2536484e-09 0)
(0.00078309346 1.1807473e-09 0)
(0.00077078791 1.1102092e-09 0)
(0.00075843911 1.0418328e-09 0)
(0.0007463157 9.7754483e-10 0)
(0.00073478509 9.192201e-10 0)
(0.00072392668 8.6622643e-10 0)
(0.00071368661 8.1747032e-10 0)
(0.00070401553 7.7279038e-10 0)
(0.00069486353 7.3201434e-10 0)
(0.00068618548 6.947493e-10 0)
(0.000677941 6.6063833e-10 0)
(0.00067009367 6.2937675e-10 0)
(0.00066261054 6.0068797e-10 0)
(0.0006554619 5.7433451e-10 0)
(0.00064862058 5.5014951e-10 0)
(0.00064206094 5.280104e-10 0)
(0.0006357588 5.0785292e-10 0)
(0.00062969009 4.896319e-10 0)
(0.0006238317 4.7357498e-10 0)
(0.00061815403 4.5960728e-10 0)
(0.00061263581 4.4929982e-10 0)
(0.00060720914 4.403185e-10 0)
(0.00060190964 4.4537958e-10 0)
(0.00059635962 4.2635166e-10 0)
(0.00059152124 4.8871554e-10 0)
(0.00058444563 2.9092347e-10 0)
(1 2.0828567e-09 0)
(0.99998316 5.3633439e-09 0)
(0.99995974 7.3678157e-09 0)
(0.99993403 9.4521588e-09 0)
(0.99990428 1.2412255e-08 0)
(0.99986982 1.6237618e-08 0)
(0.99983016 2.1179564e-08 0)
(0.9997845 2.7676799e-08 0)
(0.99973172 3.6281645e-08 0)
(0.99967043 4.7724422e-08 0)
(0.99959893 6.3013965e-08 0)
(0.99951504 8.3617755e-08 0)
(0.99941581 1.1156507e-07 0)
(0.99929752 1.5023379e-07 0)
(0.99915425 2.0366654e-07 0)
(0.99897952 2.8231618e-07 0)
(0.99875733 3.9075588e-07 0)
(0.998481 5.8065682e-07 0)
(0.99808262 8.0830452e-07 0)
(0.9976117 1.4338204e-06 0)
(0.9966588 1.9085005e-06 0)
(0.99580363 4.7830044e-06 0)
(0.99238996 1.3373291e-06 0)
(0.99455813 0.0011550126 0)
(0.029540335 0.001167977 0)
(0.011663111 1.2380019e-05 0)
(0.0083258123 2.7642494e-06 0)
(0.0068406134 1.3254662e-06 0)
(0.0059920803 8.066466e-07 0)
(0.005407091 5.687935e-07 0)
(0.0049719026 4.2986797e-07 0)
(0.0046287752 3.4078496e-07 0)
(0.0043489035 2.7845257e-07 0)
(0.0041146664 2.3295332e-07 0)
(0.0039144142 1.9859306e-07 0)
(0.0037403906 1.7177702e-07 0)
(0.0035872053 1.5031361e-07 0)
(0.0034509178 1.3281452e-07 0)
(0.0033285487 1.1833194e-07 0)
(0.0032178036 1.0618039e-07 0)
(0.0031168971 9.5859976e-08 0)
(0.0030244072 8.7008358e-08 0)
(0.0029391792 7.9356716e-08 0)
(0.0028602576 7.2680877e-08 0)
(0.0027868828 6.6813143e-08 0)
(0.0027183924 6.1632072e-08 0)
(0.0026542361 5.7027332e-08 0)
(0.002593946 5.2913434e-08 0)
(0.0025371216 4.9219806e-08 0)
(0.0024834193 4.5888777e-08 0)
(0.0024325399 4.287372e-08 0)
(0.002384221 4.013482e-08 0)
(0.0023382332 3.7638208e-08 0)
(0.002294374 3.5355056e-08 0)
(0.0022524646 3.3260091e-08 0)
(0.0022123476 3.1332522e-08 0)
(0.0021738811 2.9555145e-08 0)
(0.0021369372 2.7912292e-08 0)
(0.0021014016 2.6390097e-08 0)
(0.0020671713 2.4976847e-08 0)
(0.0020341525 2.3661997e-08 0)
(0.0020022609 2.2435813e-08 0)
(0.0019714204 2.129034e-08 0)
(0.0019415607 2.0218975e-08 0)
(0.001912617 1.9215286e-08 0)
(0.0018845302 1.8273401e-08 0)
(0.0018572461 1.7388254e-08 0)
(0.0018307146 1.6555358e-08 0)
(0.0018048892 1.5770452e-08 0)
(0.0017797276 1.5029471e-08 0)
(0.0017551912 1.4329278e-08 0)
(0.0017312427 1.3667267e-08 0)
(0.0017078476 1.3040591e-08 0)
(0.0016849739 1.2446636e-08 0)
(0.0016625916 1.1883143e-08 0)
(0.0016406727 1.1348076e-08 0)
(0.0016191907 1.0839599e-08 0)
(0.0015981208 1.0355633e-08 0)
(0.0015774408 9.8945005e-09 0)
(0.001557129 9.4551981e-09 0)
(0.0015371638 9.0364121e-09 0)
(0.0015175258 8.6367153e-09 0)
(0.0014981963 8.2549933e-09 0)
(0.0014791576 7.8902021e-09 0)
(0.0014603927 7.541384e-09 0)
(0.0014418854 7.207598e-09 0)
(0.0014236204 6.8878218e-09 0)
(0.0014055837 6.5813466e-09 0)
(0.0013877612 6.2876756e-09 0)
(0.0013701386 6.0060823e-09 0)
(0.0013527029 5.7358679e-09 0)
(0.0013354414 5.4764657e-09 0)
(0.0013183418 5.2273447e-09 0)
(0.0013013919 4.988015e-09 0)
(0.00128458 4.7578744e-09 0)
(0.0012678953 4.5364571e-09 0)
(0.0012513269 4.3235147e-09 0)
(0.0012348631 4.1186564e-09 0)
(0.0012184934 3.9214595e-09 0)
(0.0012022069 3.7315934e-09 0)
(0.001185993 3.5487487e-09 0)
(0.001169841 3.372626e-09 0)
(0.0011537402 3.202874e-09 0)
(0.0011376806 3.0392341e-09 0)
(0.0011216514 2.8815451e-09 0)
(0.0011056415 2.7295643e-09 0)
(0.0010896398 2.5830447e-09 0)
(0.0010736351 2.4418064e-09 0)
(0.0010576156 2.3056417e-09 0)
(0.0010415695 2.1743238e-09 0)
(0.001025485 2.0478874e-09 0)
(0.0010093461 1.9255494e-09 0)
(0.00099315046 1.806962e-09 0)
(0.0009772503 1.6954678e-09 0)
(0.00096212746 1.5943167e-09 0)
(0.00094788608 1.5024124e-09 0)
(0.00093445549 1.4178574e-09 0)
(0.00092177102 1.3403711e-09 0)
(0.00090976721 1.2696544e-09 0)
(0.0008983849 1.2050263e-09 0)
(0.00088757116 1.1458678e-09 0)
(0.00087727822 1.0916508e-09 0)
(0.00086746286 1.0418956e-09 0)
(0.00085808616 9.9619033e-10 0)
(0.00084911247 9.5424584e-10 0)
(0.00084050817 9.1584957e-10 0)
(0.00083224155 8.8089016e-10 0)
(0.00082428102 8.4928933e-10 0)
(0.00081659632 8.2144191e-10 0)
(0.00080914858 7.9721818e-10 0)
(0.00080190991 7.7934246e-10 0)
(0.00079479129 7.6376791e-10 0)
(0.00078783934 7.7254707e-10 0)
(0.00078055883 7.397945e-10 0)
(0.00077421103 8.4785413e-10 -5.0510731e-24)
(0.00076492927 5.0461832e-10 3.5242831e-25)
(1 2.6194092e-09 0)
(0.99998298 6.7466603e-09 0)
(0.9999593 9.270035e-09 0)
(0.99993329 1.1892833e-08 0)
(0.99990319 1.5616861e-08 0)
(0.99986833 2.0429087e-08 0)
(0.99982822 2.6645431e-08 0)
(0.99978204 3.4817472e-08 0)
(0.99972867 4.5639574e-08 0)
(0.99966671 6.0029781e-08 0)
(0.99959443 7.9256148e-08 0)
(0.99950964 1.051631e-07 0)
(0.99940937 1.4030093e-07 0)
(0.99928985 1.8891463e-07 0)
(0.99914513 2.5608367e-07 0)
(0.99896867 3.5494301e-07 0)
(0.99874432 4.9123393e-07 0)
(0.99846537 7.2988249e-07 0)
(0.99806333 1.0159329e-06 0)
(0.9975882 1.8018293e-06 0)
(0.99662719 2.3982643e-06 0)
(0.99576464 6.0095721e-06 0)
(0.99232325 1.6843296e-06 0)
(0.99450252 0.0014407298 0)
(0.036863875 0.0014602695 0)
(0.014603384 1.9405622e-05 0)
(0.010424882 4.3518199e-06 0)
(0.0085652774 2.0868703e-06 0)
(0.0075026096 1.270118e-06 0)
(0.0067700057 8.9560236e-07 0)
(0.0062249887 6.7685942e-07 0)
(0.0057952672 5.365913e-07 0)
(0.0054447623 4.3844581e-07 0)
(0.0051514074 3.6680427e-07 0)
(0.0049006137 3.1270149e-07 0)
(0.0046826678 2.7047781e-07 0)
(0.0044908185 2.3668234e-07 0)
(0.0043201312 2.0912897e-07 0)
(0.0041668746 1.8632527e-07 0)
(0.0040281751 1.6719191e-07 0)
(0.0039017972 1.5094178e-07 0)
(0.0037859597 1.370044e-07 4.8944838e-25)
(0.0036792164 1.2495637e-07 0)
(0.0035803714 1.1444478e-07 -6.635882e-35)
(0.0034884726 1.0520568e-07 0)
(0.003402691 9.7047704e-08 0)
(0.0033223371 8.9797196e-08 0)
(0.0032468251 8.3319544e-08 0)
(0.0031756536 7.7503631e-08 0)
(0.003108392 7.2258647e-08 0)
(0.0030446656 6.7511176e-08 0)
(0.0029841461 6.3198528e-08 0)
(0.002926546 5.9267376e-08 0)
(0.0028716116 5.5672327e-08 0)
(0.0028191192 5.2373591e-08 0)
(0.0027688716 4.9338432e-08 0)
(0.002720691 4.6539756e-08 0)
(0.0026744173 4.3952896e-08 0)
(0.0026299075 4.1556021e-08 0)
(0.0025870324 3.9330687e-08 0)
(0.0025456745 3.7260289e-08 0)
(0.0025057283 3.5329504e-08 0)
(0.0024670987 3.3525805e-08 0)
(0.0024296974 3.1838793e-08 0)
(0.0023934432 3.0258343e-08 0)
(0.0023582624 2.8775208e-08 0)
(0.0023240868 2.738141e-08 0)
(0.0022908537 2.6069888e-08 0)
(0.0022585051 2.483393e-08 0)
(0.0022269879 2.3667137e-08 0)
(0.0021962535 2.2564567e-08 0)
(0.0021662557 2.1522118e-08 0)
(0.0021369509 2.0535309e-08 0)
(0.002108299 1.9600021e-08 0)
(0.0020802627 1.8712699e-08 0)
(0.0020528068 1.7870138e-08 0)
(0.0020258981 1.7069445e-08 0)
(0.0019995055 1.6307348e-08 0)
(0.0019736012 1.5581206e-08 0)
(0.0019481581 1.4889437e-08 0)
(0.0019231492 1.4229974e-08 0)
(0.00189855 1.360057e-08 0)
(0.0018743373 1.2999469e-08 0)
(0.0018504887 1.2425029e-08 0)
(0.0018269831 1.187574e-08 0)
(0.0018038001 1.1350122e-08 0)
(0.0017809206 1.0846564e-08 0)
(0.0017583272 1.0363952e-08 0)
(0.0017360018 9.9015011e-09 0)
(0.0017139269 9.4580689e-09 0)
(0.0016920862 9.0325548e-09 0)
(0.0016704636 8.6240665e-09 0)
(0.0016490438 8.231768e-09 0)
(0.0016278115 7.8548878e-09 0)
(0.001606752 7.4924774e-09 0)
(0.0015858519 7.1438038e-09 0)
(0.0015650973 6.8084758e-09 0)
(0.0015444739 6.4858779e-09 0)
(0.0015239682 6.1753444e-09 0)
(0.0015035668 5.876355e-09 0)
(0.0014832563 5.5884225e-09 0)
(0.0014630233 5.3110752e-09 0)
(0.0014428544 5.0437601e-09 0)
(0.0014227371 4.78607e-09 0)
(0.0014026579 4.5377512e-09 0)
(0.0013826027 4.2984214e-09 0)
(0.0013625578 4.0676916e-09 0)
(0.0013425091 3.8452789e-09 0)
(0.0013224418 3.6308559e-09 0)
(0.0013023412 3.4240657e-09 0)
(0.0012821924 3.2249639e-09 0)
(0.0012619753 3.0323159e-09 0)
(0.0012416871 2.8455766e-09 0)
(0.0012217689 2.6700119e-09 0)
(0.0012028242 2.5107374e-09 0)
(0.0011849834 2.3660256e-09 0)
(0.0011681581 2.2328864e-09 0)
(0.0011522672 2.1108767e-09 0)
(0.0011372288 1.9995249e-09 0)
(0.0011229688 1.8977592e-09 0)
(0.0011094209 1.8046055e-09 0)
(0.0010965253 1.7192323e-09 0)
(0.0010842279 1.6408843e-09 0)
(0.00107248 1.5689136e-09 0)
(0.0010612368 1.5028647e-09 0)
(0.0010504563 1.4424032e-09 0)
(0.0010400987 1.3873538e-09 0)
(0.0010301246 1.3375935e-09 0)
(0.0010204958 1.2937442e-09 0)
(0.0010111639 1.2556018e-09 0)
(0.0010020938 1.2274559e-09 0)
(0.000993174 1.2029365e-09 0)
(0.00098446282 1.2167672e-09 0)
(0.00097534001 1.1651973e-09 0)
(0.00096738473 1.3355296e-09 0)
(0.0009557544 7.9458883e-10 -2.0114469e-25)
(1 3.2021809e-09 0)
(0.99998277 8.2501406e-09 0)
(0.99995877 1.1338626e-08 0)
(0.9999324 1.4547163e-08 0)
(0.99990189 1.9101762e-08 0)
(0.99986656 2.4986723e-08 0)
(0.99982591 3.2588059e-08 0)
(0.99977912 4.2579862e-08 0)
(0.99972505 5.581064e-08 0)
(0.99966228 7.3402103e-08 0)
(0.99958908 9.6903476e-08 0)
(0.99950323 1.2856798e-07 0)
(0.99940172 1.7151082e-07 0)
(0.99928075 2.3091704e-07 0)
(0.99913431 3.1298967e-07 0)
(0.99895579 4.3377073e-07 0)
(0.9987289 6.0026447e-07 0)
(0.99844684 8.9176154e-07 0)
(0.99804048 1.2411081e-06 0)
(0.99756036 2.2007659e-06 0)
(0.99658977 2.9291444e-06 0)
(0.99571851 7.3385952e-06 0)
(0.9922444 2.0626281e-06 0)
(0.99443676 0.001745154 0)
(0.044674141 0.0017731965 0)
(0.017760829 2.8663197e-05 0)
(0.012679016 6.4523051e-06 0)
(0.01041734 3.094397e-06 0)
(0.0091246077 1.8834879e-06 0)
(0.0082334118 1.3281108e-06 0)
(0.0075703906 1.0037402e-06 0)
(0.0070476287 7.9573188e-07 0)
(0.0066212308 6.5019113e-07 0)
(0.0062643543 5.4395223e-07 0)
(0.0059592536 4.6372141e-07 0)
(0.0056941122 4.011067e-07 0)
(0.0054607172 3.5099062e-07 0)
(0.0052530654 3.101311e-07 0)
(0.0050666179 2.7631494e-07 0)
(0.0048978791 2.4794163e-07 0)
(0.0047441293 2.2384386e-07 0)
(0.0046032019 2.0317583e-07 0)
(0.0044733374 1.853094e-07 0)
(0.0043530814 1.6972135e-07 7.158148e-35)
(0.0042412754 1.5602044e-07 0)
(0.0041369108 1.4392264e-07 0)
(0.0040391492 1.3317054e-07 0)
(0.0039472779 1.2356453e-07 0)
(0.0038606867 1.1493981e-07 0)
(0.0037788521 1.0716174e-07 0)
(0.0037013182 1.0012144e-07 0)
(0.0036276855 9.3725939e-08 0)
(0.0035576044 8.7896165e-08 0)
(0.0034907661 8.2564807e-08 0)
(0.0034268988 7.767286e-08 0)
(0.0033657623 7.3171777e-08 0)
(0.0033071404 6.9021381e-08 0)
(0.0032508383 6.5185092e-08 0)
(0.0031966821 6.1630539e-08 0)
(0.0031445146 5.8330368e-08 0)
(0.003094193 5.5259959e-08 0)
(0.0030455888 5.2396587e-08 0)
(0.0029985862 4.9721677e-08 0)
(0.0029530781 4.7219807e-08 0)
(0.0029089655 4.4875963e-08 0)
(0.0028661586 4.2676432e-08 0)
(0.0028245748 4.0609385e-08 0)
(0.0027841377 3.8664348e-08 0)
(0.0027447766 3.683137e-08 0)
(0.002706427 3.5100961e-08 0)
(0.0026690298 3.3465794e-08 0)
(0.0026325287 3.1919785e-08 0)
(0.0025968706 3.0456287e-08 0)
(0.0025620071 2.9069194e-08 0)
(0.0025278923 2.7753235e-08 0)
(0.0024944838 2.6503655e-08 0)
(0.002461741 2.5316165e-08 0)
(0.0024296261 2.4185912e-08 0)
(0.0023981054 2.3108982e-08 0)
(0.0023671457 2.2083027e-08 0)
(0.0023367143 2.1104982e-08 0)
(0.0023067813 2.0171514e-08 0)
(0.0022773186 1.9280021e-08 0)
(0.0022482989 1.8428066e-08 0)
(0.0022196965 1.7613413e-08 0)
(0.0021914866 1.6833862e-08 0)
(0.002163646 1.6087028e-08 0)
(0.0021361534 1.5371258e-08 0)
(0.0021089869 1.4685389e-08 0)
(0.0020821252 1.4027725e-08 0)
(0.0020555484 1.3396634e-08 0)
(0.0020292371 1.2790795e-08 0)
(0.0020031724 1.2208965e-08 0)
(0.0019773358 1.1650003e-08 0)
(0.0019517095 1.1112501e-08 0)
(0.0019262772 1.0595371e-08 0)
(0.0019010219 1.0098035e-08 0)
(0.0018759261 9.6195782e-09 0)
(0.0018509736 9.1590148e-09 0)
(0.001826148 8.7155725e-09 0)
(0.0018014329 8.2885292e-09 0)
(0.0017768121 7.877185e-09 0)
(0.0017522693 7.4807199e-09 0)
(0.0017277892 7.0985302e-09 0)
(0.0017033553 6.7302395e-09 0)
(0.0016789508 6.3752809e-09 0)
(0.0016545587 6.0330777e-09 0)
(0.0016301619 5.7032101e-09 0)
(0.0016057424 5.385193e-09 0)
(0.0015812822 5.078497e-09 0)
(0.0015567633 4.7832061e-09 0)
(0.0015321612 4.4974872e-09 0)
(0.0015074724 4.2205358e-09 0)
(0.0014832336 3.9601666e-09 0)
(0.0014601792 3.7239633e-09 0)
(0.0014384678 3.5093609e-09 0)
(0.0014179917 3.3119214e-09 0)
(0.0013986524 3.1309838e-09 0)
(0.0013803503 2.9658496e-09 0)
(0.0013629952 2.8149295e-09 0)
(0.0013465065 2.6767798e-09 0)