# y+ ()         
# Time          	patch           	min             	max             	average         
2000            	bottom	2.03613108e-03	1.44895586e-02	3.53887971e-03
