# Region            : all region0
# Cells             : 3000
# Volume            : 1.395979868100e-03
# Time              	max(p)	max(k)	max(omega)	max(nut)	max(epsilon)	max(nuTilda)
1                   	4.467730903525e-01	1.398064012854e-05	5.121949254062e-05
2                   	4.444407971465e-01	1.521410174187e-05	5.260979348845e-05
3                   	3.526707944638e-01	1.719078638545e-05	5.472743538260e-05
4                   	3.098664715837e-01	2.940759443393e-05	6.600670038600e-05
5                   	3.205830652402e-01	4.182213629189e-05	7.596636214731e-05
6                   	3.242527627272e-01	5.658435961180e-05	8.716494758371e-05
7                   	3.499116253471e-01	7.142209622126e-05	9.831876159194e-05
8                   	3.615558460718e-01	8.675199336264e-05	1.100488715198e-04
9                   	3.917439177942e-01	1.023613860090e-04	1.223597806582e-04
10                  	4.089300276758e-01	1.182759489479e-04	1.353488629376e-04
11                  	4.403129000256e-01	1.347128462191e-04	1.492231226657e-04
12                  	4.603041810568e-01	1.516772951462e-04	1.639874561862e-04
13                  	4.908170136021e-01	1.693613877371e-04	1.797913568000e-04
14                  	5.113736104392e-01	1.878322429327e-04	1.966697987636e-04
15                  	5.394231632770e-01	2.072053217539e-04	2.146988570013e-04
16                  	5.584892372280e-01	2.274936980640e-04	2.338598556504e-04
17                  	5.825084829071e-01	2.486806775806e-04	2.541053751682e-04
18                  	5.991294119454e-01	2.706272778984e-04	2.752709899417e-04
19                  	6.180332019757e-01	2.933162156596e-04	2.973108660254e-04
20                  	6.291799162864e-01	3.168888509351e-04	3.203391131275e-04
21                  	6.419996806800e-01	3.405104269462e-04	3.435169257810e-04
22                  	6.489872290343e-01	3.643407608252e-04	3.669792676277e-04
23                  	6.573051210930e-01	3.883042553989e-04	3.906357332449e-04
24                  	6.618298894215e-01	4.116708160048e-04	4.137510292863e-04
25                  	6.669160125444e-01	4.350798736753e-04	4.369465078881e-04
26                  	6.699467980298e-01	4.571596876603e-04	4.588533284874e-04
27                  	6.726321562707e-01	4.786990703156e-04	4.802459145862e-04
28                  	6.747048273804e-01	4.987199004166e-04	5.001466236069e-04
29                  	6.756057109884e-01	5.170216508531e-04	5.183503103239e-04
30                  	6.770477172549e-01	5.344276051111e-04	5.356720252462e-04
31                  	6.766392727204e-01	5.500444978199e-04	5.512199315053e-04
32                  	6.776617772378e-01	5.639348363451e-04	5.650535915029e-04
33                  	6.763178709994e-01	5.762479570637e-04	5.773198096633e-04
34                  	6.770869032780e-01	5.870354325071e-04	5.880685636888e-04
35                  	6.751039007667e-01	5.966369675771e-04	5.976373636564e-04
36                  	6.757487378544e-01	6.050402594729e-04	6.060132596955e-04
37                  	6.733399089121e-01	6.122440506702e-04	6.131944474998e-04
38                  	6.739673358511e-01	6.182600891236e-04	6.191922048119e-04
39                  	6.712859270516e-01	6.232862703396e-04	6.242035124442e-04
40                  	6.719624796515e-01	6.273221412033e-04	6.282276953577e-04
41                  	6.691268265321e-01	6.305604028302e-04	6.314567390245e-04
42                  	6.698966611600e-01	6.329852402918e-04	6.338747654609e-04
43                  	6.670056460133e-01	6.347850182867e-04	6.356695379957e-04
44                  	6.678855909563e-01	6.359410403869e-04	6.368223671792e-04
45                  	6.650114264781e-01	6.366306702056e-04	6.375101004425e-04
46                  	6.660066997728e-01	6.368255760129e-04	6.377044713430e-04
47                  	6.631978487547e-01	6.366988042922e-04	6.375780474841e-04
48                  	6.643099753107e-01	6.362045251844e-04	6.370851266449e-04
49                  	6.615948513826e-01	6.354975909944e-04	6.363801405491e-04
50                  	6.628203776889e-01	6.345144241818e-04	6.353996937634e-04
51                  	6.602129259177e-01	6.333980861226e-04	6.342864593710e-04
52                  	6.615457559706e-01	6.320734279776e-04	6.329655052004e-04
53                  	6.590502352435e-01	6.306813061492e-04	6.315773009008e-04
54                  	6.604819941777e-01	6.291375096294e-04	6.300378788560e-04
55                  	6.580950440738e-01	6.275889650762e-04	6.284937543558e-04
56                  	6.596164651570e-01	6.259509888455e-04	6.268604888070e-04
57                  	6.573288783425e-01	6.243612502752e-04	6.252753573045e-04
58                  	6.589296763579e-01	6.227042651961e-04	6.236232113672e-04
59                  	6.567318639837e-01	6.211325232890e-04	6.220560950953e-04
60                  	6.583986878755e-01	6.195377018423e-04	6.204660028373e-04
61                  	6.562784658709e-01	6.180654642804e-04	6.189981631330e-04
62                  	6.580006660383e-01	6.165885329960e-04	6.175256750615e-04
63                  	6.559454145511e-01	6.152679550634e-04	6.162090967853e-04
64                  	6.577115057925e-01	6.139792906319e-04	6.149243599753e-04
65                  	6.557093225522e-01	6.128758338663e-04	6.138242858335e-04
66                  	6.575089520791e-01	6.118177876815e-04	6.127695000721e-04
67                  	6.555483589049e-01	6.109487962019e-04	6.119031989664e-04
68                  	6.573734369103e-01	6.101121119610e-04	6.110691158207e-04
69                  	6.554440122405e-01	6.094558981996e-04	6.104149495182e-04
70                  	6.572867467910e-01	6.088117904673e-04	6.097728578390e-04
71                  	6.553802809444e-01	6.083380680944e-04	6.093006222547e-04
72                  	6.572345965249e-01	6.078587945805e-04	6.088228564490e-04
73                  	6.553443881627e-01	6.075368398423e-04	6.085019165029e-04
74                  	6.572054645706e-01	6.071964581560e-04	6.081626094252e-04
75                  	6.553262427014e-01	6.070000435628e-04	6.079668157394e-04
76                  	6.571906129725e-01	6.067691904687e-04	6.077366931819e-04
77                  	6.553180221902e-01	6.066666335669e-04	6.076344610867e-04
78                  	6.571829761966e-01	6.065204794208e-04	6.074887701048e-04
79                  	6.553151591134e-01	6.065037848632e-04	6.074721284736e-04
80                  	6.571790168070e-01	6.064231019373e-04	6.073917013954e-04
81                  	6.553136682623e-01	6.064442709847e-04	6.074128033054e-04
82                  	6.571752672274e-01	6.063953620522e-04	6.073640494976e-04
83                  	6.553115961367e-01	6.064414215198e-04	6.074099628772e-04
84                  	6.571704198019e-01	6.064117716676e-04	6.073804070624e-04
85                  	6.553080301718e-01	6.064717780201e-04	6.074402231129e-04
86                  	6.571640316469e-01	6.064520909808e-04	6.074205985023e-04
87                  	6.553032118625e-01	6.065184747119e-04	6.074867717512e-04
88                  	6.571560057385e-01	6.065026137388e-04	6.074709610621e-04
89                  	6.552966465757e-01	6.065705941287e-04	6.075387259613e-04
90                  	6.571467293097e-01	6.065548296021e-04	6.075230114003e-04
91                  	6.552887626219e-01	6.066216438764e-04	6.075896139339e-04
92                  	6.571361743879e-01	6.066039627210e-04	6.075719888050e-04
93                  	6.552800478469e-01	6.066682729890e-04	6.076360953153e-04
94                  	6.571250308085e-01	6.066478268874e-04	6.076157139873e-04
95                  	6.552705412314e-01	6.067092227209e-04	6.076769153374e-04
96                  	6.571136994948e-01	6.066858966312e-04	6.076536631309e-04
97                  	6.552606063809e-01	6.067445101893e-04	6.077120910523e-04
98                  	6.571022308122e-01	6.067185905318e-04	6.076862534791e-04
99                  	6.552507460332e-01	6.067748281768e-04	6.077423130397e-04
100                 	6.570910071883e-01	6.067467767456e-04	6.077143504311e-04
101                 	6.552411370722e-01	6.068011355456e-04	6.077685371192e-04
102                 	6.570800721854e-01	6.067714525613e-04	6.077389481121e-04
103                 	6.552318402956e-01	6.068244210102e-04	6.077917488709e-04
104                 	6.570694807752e-01	6.067935620327e-04	6.077609875830e-04
105                 	6.552229300550e-01	6.068455550455e-04	6.078128160112e-04
106                 	6.570592818282e-01	6.068138915866e-04	6.077812527785e-04
107                 	6.552145737592e-01	6.068652351157e-04	6.078324337948e-04
108                 	6.570494558000e-01	6.068330468427e-04	6.078003473995e-04
109                 	6.552065477678e-01	6.068839751014e-04	6.078511144748e-04
110                 	6.570402615500e-01	6.068514529000e-04	6.078186951986e-04
111                 	6.551987843690e-01	6.069021178207e-04	6.078691997836e-04
112                 	6.570314860135e-01	6.068693790239e-04	6.078365645884e-04
113                 	6.551913953452e-01	6.069198645939e-04	6.078868904042e-04
114                 	6.570230810061e-01	6.068869710131e-04	6.078541009059e-04
115                 	6.551843052153e-01	6.069373189478e-04	6.079042895356e-04
116                 	6.570150445528e-01	6.069042918900e-04	6.078713669737e-04
117                 	6.551775039081e-01	6.069545055884e-04	6.079214218052e-04
118                 	6.570072962056e-01	6.069213393659e-04	6.078883605101e-04
119                 	6.551709234538e-01	6.069714057527e-04	6.079382685092e-04
120                 	6.569998316250e-01	6.069380796751e-04	6.079050478561e-04
121                 	6.551645578570e-01	6.069879736172e-04	6.079547839689e-04
122                 	6.569926483678e-01	6.069544596224e-04	6.079213759846e-04
123                 	6.551584223641e-01	6.070041528006e-04	6.079709119810e-04
124                 	6.569857497295e-01	6.069704229330e-04	6.079372887983e-04
125                 	6.551525085528e-01	6.070198894833e-04	6.079865988959e-04
126                 	6.569791007479e-01	6.069859199373e-04	6.079527367847e-04
127                 	6.551467695430e-01	6.070351395085e-04	6.080018006959e-04
128                 	6.569726422611e-01	6.070009130385e-04	6.079676824652e-04
129                 	6.551411764511e-01	6.070498722973e-04	6.080164868985e-04
130                 	6.569663712799e-01	6.070153790286e-04	6.079821027052e-04
131                 	6.551357536484e-01	6.070640722715e-04	6.080306419746e-04
132                 	6.569603163530e-01	6.070293092636e-04	6.079959888875e-04
133                 	6.551305315855e-01	6.070777368215e-04	6.080442633224e-04
134                 	6.569544997115e-01	6.070427069669e-04	6.080093442250e-04
135                 	6.551255187834e-01	6.070908741197e-04	6.080573590880e-04
136                 	6.569489105759e-01	6.070555848977e-04	6.080221814363e-04
137                 	6.551206988950e-01	6.071035008699e-04	6.080699459223e-04
138                 	6.569436395140e-01	6.070679630964e-04	6.080345204979e-04
139                 	6.551160319749e-01	6.071156396110e-04	6.080820462924e-04
140                 	6.569385635607e-01	6.070798660574e-04	6.080463858267e-04
141                 	6.551116072617e-01	6.071273162822e-04	6.080936860554e-04
142                 	6.569336237958e-01	6.070913202002e-04	6.080578037583e-04
143                 	6.551071866569e-01	6.071385592261e-04	6.081048934640e-04
144                 	6.569289731788e-01	6.071023567021e-04	6.080688053713e-04
145                 	6.551030701210e-01	6.071493969240e-04	6.081156969093e-04
146                 	6.569244570179e-01	6.071129985751e-04	6.080794136047e-04
147                 	6.550990854430e-01	6.071598529206e-04	6.081261198614e-04
148                 	6.569201210785e-01	6.071232727398e-04	6.080896552937e-04
149                 	6.550952725685e-01	6.071699530358e-04	6.081361880585e-04
150                 	6.569159664182e-01	6.071332016165e-04	6.080995527878e-04
151                 	6.550916233529e-01	6.071797187141e-04	6.081459228770e-04
152                 	6.569119513998e-01	6.071428054565e-04	6.081091262740e-04
153                 	6.550881190268e-01	6.071891663456e-04	6.081553406551e-04
154                 	6.569080947679e-01	6.071520985650e-04	6.081183900120e-04
155                 	6.550847979562e-01	6.071983107097e-04	6.081644561255e-04
156                 	6.569043632975e-01	6.071610951203e-04	6.081273581355e-04
157                 	6.550815908784e-01	6.072071641398e-04	6.081732815822e-04
158                 	6.569007463039e-01	6.071698058712e-04	6.081360413589e-04
159                 	6.550784859916e-01	6.072157365875e-04	6.081818269457e-04
160                 	6.568972496800e-01	6.071782403734e-04	6.081444492078e-04
161                 	6.550755673610e-01	6.072240372051e-04	6.081901013389e-04
162                 	6.568938266529e-01	6.071864066139e-04	6.081525896437e-04
163                 	6.550725840607e-01	6.072320749050e-04	6.081981136460e-04
164                 	6.568906281667e-01	6.071943171670e-04	6.081604752011e-04
165                 	6.550698348812e-01	6.072398603944e-04	6.082058745404e-04
166                 	6.568874975627e-01	6.072019773511e-04	6.081681111816e-04
167                 	6.550671538304e-01	6.072473995338e-04	6.082133898639e-04
168                 	6.568844765994e-01	6.072093959673e-04	6.081755063583e-04
169                 	6.550645734231e-01	6.072547016879e-04	6.082206689516e-04
170                 	6.568815674328e-01	6.072165816728e-04	6.081826693610e-04
171                 	6.550620904056e-01	6.072617746054e-04	6.082277195276e-04
172                 	6.568787647740e-01	6.072235416444e-04	6.081896073437e-04
173                 	6.550596957746e-01	6.072686252655e-04	6.082345485489e-04
174                 	6.568760607351e-01	6.072302828181e-04	6.081963272206e-04
175                 	6.550573912610e-01	6.072752605823e-04	6.082411629079e-04
176                 	6.568734605704e-01	6.072368120664e-04	6.082028358422e-04
177                 	6.550551776056e-01	6.072816873652e-04	6.082475693923e-04
178                 	6.568709607471e-01	6.072431361231e-04	6.082091399211e-04
179                 	6.550530524986e-01	6.072879122375e-04	6.082537746044e-04
180                 	6.568685610055e-01	6.072492614647e-04	6.082152459132e-04
181                 	6.550510136108e-01	6.072939415001e-04	6.082597848252e-04
182                 	6.568662549039e-01	6.072551941954e-04	6.082211599034e-04
183                 	6.550490525616e-01	6.072997810729e-04	6.082656059558e-04
184                 	6.568640274197e-01	6.072609400393e-04	6.082268875977e-04
185                 	6.550471603827e-01	6.073054366593e-04	6.082712436815e-04
186                 	6.568618760377e-01	6.072665048830e-04	6.082324348639e-04
187                 	6.550453331815e-01	6.073109143271e-04	6.082767040510e-04
188                 	6.568597979963e-01	6.072718950548e-04	6.082378080105e-04
189                 	6.550435633833e-01	6.073162206764e-04	6.082819936434e-04
190                 	6.568577878575e-01	6.072771174619e-04	6.082430139226e-04
191                 	6.550418554064e-01	6.073213629575e-04	6.082871196862e-04
192                 	6.568558415177e-01	6.072821795498e-04	6.082480600224e-04
193                 	6.550401917117e-01	6.073263485058e-04	6.082920894915e-04
194                 	6.568539460568e-01	6.072870885869e-04	6.082529535552e-04
195                 	6.550385771895e-01	6.073311845145e-04	6.082969102298e-04
196                 	6.568521058553e-01	6.072918506809e-04	6.082577006092e-04
197                 	6.550370082252e-01	6.073358757690e-04	6.083015866713e-04
198                 	6.568503232167e-01	6.072964700482e-04	6.082623053877e-04
199                 	6.550354919633e-01	6.073404256398e-04	6.083061221758e-04
200                 	6.568485997305e-01	6.073009487616e-04	6.082667699568e-04
201                 	6.550340239110e-01	6.073448327039e-04	6.083105153249e-04
202                 	6.568469384900e-01	6.073052861491e-04	6.082710936466e-04
203                 	6.550326146095e-01	6.073491020219e-04	6.083147711631e-04
204                 	6.568453279295e-01	6.073094849132e-04	6.082752791511e-04
205                 	6.550312438278e-01	6.073532323354e-04	6.083188884359e-04
206                 	6.568437716532e-01	6.073135453863e-04	6.082793268015e-04
207                 	6.550299166062e-01	6.073572248143e-04	6.083228683095e-04
208                 	6.568422571888e-01	6.073174683939e-04	6.082832374208e-04
209                 	6.550286371804e-01	6.073610818665e-04	6.083267131843e-04
210                 	6.568407972913e-01	6.073212583782e-04	6.082870154371e-04
211                 	6.550273996351e-01	6.073648079059e-04	6.083304274601e-04
212                 	6.568393834306e-01	6.073249198883e-04	6.082906653851e-04
213                 	6.550262012589e-01	6.073684082895e-04	6.083340164771e-04
214                 	6.568380122207e-01	6.073284588886e-04	6.082941932104e-04
215                 	6.550250411061e-01	6.073718896140e-04	6.083374868110e-04
216                 	6.568366821194e-01	6.073318820188e-04	6.082976055316e-04
217                 	6.550239134199e-01	6.073752581109e-04	6.083408446737e-04
218                 	6.568353899418e-01	6.073351956379e-04	6.083009086877e-04
219                 	6.550228241974e-01	6.073785203762e-04	6.083440966403e-04
220                 	6.568341424348e-01	6.073384057980e-04	6.083041087117e-04
221                 	6.550217729943e-01	6.073816816850e-04	6.083472479693e-04
222                 	6.568329364631e-01	6.073415175245e-04	6.083072106129e-04
223                 	6.550207574972e-01	6.073847467924e-04	6.083503034007e-04
224                 	6.568317696925e-01	6.073445351177e-04	6.083102186783e-04
225                 	6.550197761684e-01	6.073877197877e-04	6.083532670110e-04
226                 	6.568306411656e-01	6.073474622436e-04	6.083131365621e-04
227                 	6.550188277020e-01	6.073906037770e-04	6.083561418963e-04
228                 	6.568295510994e-01	6.073503020442e-04	6.083159673965e-04
229                 	6.550179116229e-01	6.073934019343e-04	6.083589312207e-04
230                 	6.568285000471e-01	6.073530576432e-04	6.083187142953e-04
231                 	6.550170344896e-01	6.073961178027e-04	6.083616385161e-04
232                 	6.568274867295e-01	6.073557323317e-04	6.083213805390e-04
233                 	6.550161863753e-01	6.073987540970e-04	6.083642664887e-04
234                 	6.568265103461e-01	6.073583293869e-04	6.083239693948e-04
235                 	6.550153708691e-01	6.074013145363e-04	6.083668188458e-04
236                 	6.568255703728e-01	6.073608521742e-04	6.083264842172e-04
237                 	6.550145892539e-01	6.074038024269e-04	6.083692988834e-04
238                 	6.568246702168e-01	6.073633043617e-04	6.083289286628e-04
239                 	6.550138424862e-01	6.074062215388e-04	6.083717103594e-04
240                 	6.568238059176e-01	6.073656892114e-04	6.083313059833e-04
241                 	6.550131242785e-01	6.074085745359e-04	6.083740559294e-04
242                 	6.568229730206e-01	6.073680092815e-04	6.083336187288e-04
243                 	6.550124342795e-01	6.074108638570e-04	6.083763380245e-04
244                 	6.568221720671e-01	6.073702665681e-04	6.083358688890e-04
245                 	6.550117708286e-01	6.074130910545e-04	6.083785581921e-04
246                 	6.568214001636e-01	6.073724622597e-04	6.083380576489e-04
247                 	6.550111319964e-01	6.074152570205e-04	6.083807173216e-04
248                 	6.568206557118e-01	6.073745970245e-04	6.083401856742e-04
249                 	6.550105161695e-01	6.074173622393e-04	6.083828158957e-04
250                 	6.568199367351e-01	6.073766713033e-04	6.083422534048e-04
251                 	6.550099223922e-01	6.074194072371e-04	6.083848544389e-04
252                 	6.568192414493e-01	6.073786853558e-04	6.083442610991e-04
253                 	6.550093461082e-01	6.074213917991e-04	6.083868327372e-04
254                 	6.568185677799e-01	6.073806392563e-04	6.083462088314e-04
255                 	6.550087912483e-01	6.074233166795e-04	6.083887515422e-04
256                 	6.568179170541e-01	6.073825333882e-04	6.083480969838e-04
257                 	6.550082537271e-01	6.074251815368e-04	6.083906105138e-04
258                 	6.568172869475e-01	6.073843677302e-04	6.083499255351e-04
259                 	6.550077348450e-01	6.074269869107e-04	6.083924101895e-04
260                 	6.568166771957e-01	6.073861427153e-04	6.083516949170e-04
261                 	6.550072316487e-01	6.074287328966e-04	6.083941506649e-04
262                 	6.568160853407e-01	6.073878584069e-04	6.083534051926e-04
263                 	6.550067365330e-01	6.074304196742e-04	6.083958321189e-04
264                 	6.568155143603e-01	6.073895154581e-04	6.083550570129e-04
265                 	6.550062734030e-01	6.074320485173e-04	6.083974558213e-04
266                 	6.568149559285e-01	6.073911144293e-04	6.083566509366e-04
267                 	6.550058124666e-01	6.074336195501e-04	6.083990218958e-04
268                 	6.568144136549e-01	6.073926566315e-04	6.083581882706e-04
269                 	6.550053658352e-01	6.074351344862e-04	6.084005320507e-04
270                 	6.568138884580e-01	6.073941433993e-04	6.083596703452e-04
271                 	6.550049343818e-01	6.074365948025e-04	6.084019877582e-04
272                 	6.568133803890e-01	6.073955764449e-04	6.083610988672e-04
273                 	6.550045171675e-01	6.074380024454e-04	6.084033909587e-04
274                 	6.568128888763e-01	6.073969580844e-04	6.083624761454e-04
275                 	6.550041147280e-01	6.074393600023e-04	6.084047442312e-04
276                 	6.568124138007e-01	6.073982907342e-04	6.083638045885e-04
277                 	6.550037254984e-01	6.074406695160e-04	6.084060496122e-04
278                 	6.568119543467e-01	6.073995764781e-04	6.083650862739e-04
279                 	6.550033196260e-01	6.074419342300e-04	6.084073103347e-04
280                 	6.568115344294e-01	6.074008183219e-04	6.083663241977e-04
281                 	6.550029996085e-01	6.074431526076e-04	6.084085248672e-04
282                 	6.568110822259e-01	6.074020140116e-04	6.083675161132e-04
283                 	6.550026374881e-01	6.074443289691e-04	6.084096975163e-04
284                 	6.568106678480e-01	6.074031698624e-04	6.083686683155e-04
285                 	6.550023014730e-01	6.074454650323e-04	6.084108299942e-04
286                 	6.568102689187e-01	6.074042851945e-04	6.083697801271e-04
287                 	6.550019772895e-01	6.074465613883e-04	6.084119228903e-04
288                 	6.568098842054e-01	6.074053620565e-04	6.083708535901e-04
289                 	6.550016631313e-01	6.074476202373e-04	6.084129783978e-04
290                 	6.568095120222e-01	6.074064026831e-04	6.083718909319e-04
291                 	6.550013641129e-01	6.074486444704e-04	6.084139993986e-04
292                 	6.568091528640e-01	6.074074095280e-04	6.083728945988e-04
293                 	6.550010723178e-01	6.074496355369e-04	6.084149873375e-04
294                 	6.568088049715e-01	6.074083843452e-04	6.083738663390e-04
295                 	6.550007901862e-01	6.074505954179e-04	6.084159441893e-04
296                 	6.568084678870e-01	6.074093287394e-04	6.083748077523e-04
297                 	6.550005178728e-01	6.074515256710e-04	6.084168715067e-04
298                 	6.568081418970e-01	6.074102438814e-04	6.083757200057e-04
299                 	6.550002428951e-01	6.074524268160e-04	6.084177698080e-04
300                 	6.568078325677e-01	6.074111305242e-04	6.083766038500e-04
301                 	6.550000037410e-01	6.074532996819e-04	6.084186399193e-04
302                 	6.568075213549e-01	6.074119885343e-04	6.083774591519e-04
303                 	6.549997538330e-01	6.074541444190e-04	6.084194819907e-04
304                 	6.568072270257e-01	6.074128194213e-04	6.083782874163e-04
305                 	6.549995166097e-01	6.074549619906e-04	6.084202969823e-04
306                 	6.568069409797e-01	6.074136227251e-04	6.083790881845e-04
307                 	6.549992864139e-01	6.074557523695e-04	6.084210848669e-04
308                 	6.568066645924e-01	6.074143993879e-04	6.083798623959e-04
309                 	6.549990648121e-01	6.074565163095e-04	6.084218463962e-04
310                 	6.568063979739e-01	6.074151499154e-04	6.083806105545e-04
311                 	6.549988509179e-01	6.074572543975e-04	6.084225821550e-04
312                 	6.568061410706e-01	6.074158749079e-04	6.083813332588e-04
313                 	6.549986459413e-01	6.074579672987e-04	6.084232928065e-04
314                 	6.568059128717e-01	6.074165747220e-04	6.083820308640e-04
315                 	6.549984329747e-01	6.074586551576e-04	6.084239784948e-04
316                 	6.568056519511e-01	6.074172513803e-04	6.083827053866e-04
317                 	6.549982554670e-01	6.074593208320e-04	6.084246420685e-04
318                 	6.568054235226e-01	6.074179043123e-04	6.083833562577e-04
319                 	6.549980731795e-01	6.074599625121e-04	6.084252817238e-04
320                 	6.568052007051e-01	6.074185343857e-04	6.083839843425e-04
321                 	6.549978969350e-01	6.074605821617e-04	6.084258994179e-04
322                 	6.568049871626e-01	6.074191430257e-04	6.083845910615e-04
323                 	6.549977278986e-01	6.074611806882e-04	6.084264960557e-04
324                 	6.568047812775e-01	6.074197309887e-04	6.083851771687e-04
325                 	6.549975655968e-01	6.074617590611e-04	6.084270726035e-04
326                 	6.568045833742e-01	6.074202991424e-04	6.083857435292e-04
327                 	6.549974090549e-01	6.074623178574e-04	6.084276296365e-04
328                 	6.568043921300e-01	6.074208482089e-04	6.083862908627e-04
329                 	6.549972584091e-01	6.074628580934e-04	6.084281681677e-04
330                 	6.568042098360e-01	6.074213792204e-04	6.083868201982e-04
331                 	6.549971131937e-01	6.074633803786e-04	6.084286888048e-04
332                 	6.568040304378e-01	6.074218921674e-04	6.083873315262e-04
333                 	6.549969731604e-01	6.074638850972e-04	6.084291919308e-04
334                 	6.568038580652e-01	6.074223880679e-04	6.083878258615e-04
335                 	6.549968356051e-01	6.074643727420e-04	6.084296780368e-04
336                 	6.568036910464e-01	6.074228672492e-04	6.083883035304e-04
337                 	6.549967076021e-01	6.074648443352e-04	6.084301481418e-04
338                 	6.568035295231e-01	6.074233303040e-04	6.083887651238e-04
339                 	6.549965797241e-01	6.074652995757e-04	6.084306019458e-04
340                 	6.568033827703e-01	6.074237774466e-04	6.083892108550e-04
341                 	6.549964497839e-01	6.074657389848e-04	6.084310399683e-04
342                 	6.568032219369e-01	6.074242090406e-04	6.083896410869e-04
343                 	6.549963343795e-01	6.074661633581e-04	6.084314630025e-04
344                 	6.568030735426e-01	6.074246253971e-04	6.083900561293e-04
345                 	6.549962203584e-01	6.074665724264e-04	6.084318707799e-04
346                 	6.568029291598e-01	6.074250265402e-04	6.083904560063e-04
347                 	6.549961070370e-01	6.074669665220e-04	6.084322636319e-04
348                 	6.568027884508e-01	6.074254130920e-04	6.083908413381e-04
349                 	6.549959961441e-01	6.074673460882e-04	6.084326420004e-04
350                 	6.568026511629e-01	6.074257852047e-04	6.083912122764e-04
351                 	6.549958576107e-01	6.074677123825e-04	6.084330071389e-04
352                 	6.568025412614e-01	6.074261440963e-04	6.083915700352e-04
353                 	6.549957896326e-01	6.074680621630e-04	6.084333558157e-04
354                 	6.568023901974e-01	6.074264865012e-04	6.083919113594e-04
355                 	6.549956827374e-01	6.074683993934e-04	6.084336919819e-04
356                 	6.568022611481e-01	6.074268171855e-04	6.083922410000e-04
357                 	6.549955819871e-01	6.074687237813e-04	6.084340153462e-04
358                 	6.568021383191e-01	6.074271348480e-04	6.083925576599e-04
359                 	6.549954746555e-01	6.074690352264e-04	6.084343258085e-04
360                 	6.568020245580e-01	6.074274401012e-04	6.083928619498e-04
361                 	6.549953955201e-01	6.074693345865e-04	6.084346242240e-04
362                 	6.568019040892e-01	6.074277329660e-04	6.083931538902e-04
363                 	6.549953014305e-01	6.074696221302e-04	6.084349108604e-04
364                 	6.568017922925e-01	6.074280149748e-04	6.083934350090e-04
365                 	6.549952141680e-01	6.074698990063e-04	6.084351868628e-04
366                 	6.568016861692e-01	6.074282864759e-04	6.083937056532e-04
367                 	6.549951302081e-01	6.074701655603e-04	6.084354525757e-04
368                 	6.568015820631e-01	6.074285477138e-04	6.083939660666e-04
369                 	6.549950505467e-01	6.074704222998e-04	6.084357085051e-04
370                 	6.568014827206e-01	6.074287996604e-04	6.083942172181e-04
371                 	6.549949678240e-01	6.074706697814e-04	6.084359552057e-04
372                 	6.568013886033e-01	6.074290428936e-04	6.083944596835e-04
373                 	6.549949018986e-01	6.074709092975e-04	6.084361939661e-04
374                 	6.568012940641e-01	6.074292778449e-04	6.083946938933e-04
375                 	6.549948283618e-01	6.074711405294e-04	6.084364244683e-04
376                 	6.568012044855e-01	6.074295052333e-04	6.083949205640e-04
377                 	6.549947561907e-01	6.074713642578e-04	6.084366474907e-04
378                 	6.568011181197e-01	6.074297254857e-04	6.083951401213e-04
379                 	6.549946938252e-01	6.074715816099e-04	6.084368641570e-04
380                 	6.568010348003e-01	6.074299390939e-04	6.083953530554e-04
381                 	6.549946291648e-01	6.074717921041e-04	6.084370739870e-04
382                 	6.568009538173e-01	6.074301463403e-04	6.083955596476e-04