/*--------------------------------*- C++ -*----------------------------------*\
| =========                 |                                                 |
| \\      /  F ield         | OpenFOAM: The Open Source CFD Toolbox           |
|  \\    /   O peration     | Version:  2206                                  |
|   \\  /    A nd           | Website:  www.openfoam.com                      |
|    \\/     M anipulation  |                                                 |
\*---------------------------------------------------------------------------*/
FoamFile
{
    version     2.0;
    format      ascii;
    arch        "LSB;label=32;scalar=64";
    class       volScalarField;
    location    "1800";
    object      epsilon;
}
// * * * * * * * * * * * * * * * * * * * * * * * * * * * * * * * * * * * * * //

dimensions      [0 2 -3 0 0 0 0];

internalField   nonuniform List<scalar> 
13056
(
0.0072828356
0.0071240454
0.007032721
0.0069844338
0.0069544258
0.0069332996
0.0069174864
0.0069052748
0.0068956602
0.0068879908
0.0068818238
0.0068768534
0.0068728695
0.0068697343
0.0068673744
0.0068657768
0.0068650323
0.0068652976
0.0068672278
0.0068712012
0.0068810926
0.0069039528
0.0069077618
0.0085894612
0.029702436
0.0017632991
0.0049578677
0.00035330106
0.0018385241
0.00017298563
0.0010426662
0.00010756003
0.00069252408
0.00052027704
0.00050005715
0.00041490936
0.00037819964
0.0003312249
0.00029896516
0.00026870012
0.00024390844
0.00022212836
0.00020330321
0.00018677225
0.0001722028
0.00015927524
0.00014774556
0.00013741133
0.00012810702
0.00011969549
0.00011206189
0.00010510953
9.8756727e-05
9.293383e-05
8.758141e-05
8.2648422e-05
7.8090513e-05
7.3869146e-05
6.9950792e-05
6.6306066e-05
6.2909105e-05
5.9737207e-05
5.677032e-05
5.39905e-05
5.1381772e-05
4.8929907e-05
4.6622163e-05
4.4447081e-05
4.2394335e-05
4.0454696e-05
3.8619813e-05
3.6882022e-05
3.5234381e-05
3.3670606e-05
3.2184949e-05
3.0772175e-05
2.9427469e-05
2.814644e-05
2.6925136e-05
2.5759837e-05
2.4647082e-05
2.3583737e-05
2.2566898e-05
2.1593875e-05
2.066218e-05
1.9769499e-05
1.891372e-05
1.8092885e-05
1.7305126e-05
1.6548712e-05
1.5822049e-05
1.5123639e-05
1.445209e-05
1.3806092e-05
1.3184426e-05
1.2585987e-05
1.20097e-05
1.1454546e-05
1.0919595e-05
1.0403963e-05
9.9068265e-06
9.4274022e-06
8.9649606e-06
8.518836e-06
8.0883765e-06
7.6729643e-06
7.2720293e-06
6.8850314e-06
6.511452e-06
6.1508126e-06
5.8026672e-06
5.4664562e-06
5.1421439e-06
4.8374427e-06
4.5600743e-06
4.3083785e-06
4.0789827e-06
3.8693925e-06
3.6772601e-06
3.5005967e-06
3.3376795e-06
3.187012e-06
3.0472909e-06
2.91738e-06
2.7962752e-06
2.6830761e-06
2.5769754e-06
2.4772229e-06
2.3831454e-06
2.2939963e-06
2.2092491e-06
2.1276315e-06
2.0496597e-06
1.9694487e-06
1.9014944e-06
1.8019529e-06
0.0072816451
0.0071227651
0.0070313842
0.0069830655
0.0069530373
0.0069318965
0.0069160722
0.0069038516
0.0068942296
0.0068865538
0.006880381
0.006875405
0.0068714155
0.0068682742
0.0068659074
0.0068643013
0.0068635456
0.006863796
0.0068657027
0.006869645
0.0068794644
0.0069022478
0.0069055998
0.008587121
0.029123636
0.0017475491
0.0048673456
0.00034982449
0.001809199
0.00017135251
0.0010273419
0.00010662588
0.00068296457
0.00051352271
0.00049351908
0.00040967242
0.00037347648
0.00032718846
0.00029537819
0.00026553686
0.00024108331
0.00021959755
0.00020102243
0.00018470833
0.00017032736
0.00015756495
0.00014618074
0.00013597536
0.00012678571
0.00011847668
0.00011093507
0.0001040656
9.7787752e-05
9.2032846e-05
8.6742297e-05
8.1865767e-05
7.7359517e-05
7.3185539e-05
6.931076e-05
6.570619e-05
6.2346313e-05
5.9208729e-05
5.6273652e-05
5.3523374e-05
5.0942126e-05
4.8515867e-05
4.6232016e-05
4.4079263e-05
4.2047413e-05
4.0127353e-05
3.8310837e-05
3.6590297e-05
3.4958878e-05
3.3410372e-05
3.1939103e-05
3.0539898e-05
2.9208003e-05
2.7939077e-05
2.6729218e-05
2.557475e-05
2.4472252e-05
2.3418629e-05
2.2411009e-05
2.1446736e-05
2.052335e-05
1.9638562e-05
1.8790288e-05
1.797659e-05
1.7195622e-05
1.6445673e-05
1.5725166e-05
1.5032621e-05
1.4366662e-05
1.3725992e-05
1.3109407e-05
1.2515814e-05
1.1944149e-05
1.1393406e-05
1.0862664e-05
1.0351049e-05
9.8577451e-06
9.381979e-06
8.9230287e-06
8.4802355e-06
8.0529544e-06
7.6405741e-06
7.2425306e-06
6.8582893e-06
6.4873373e-06
6.1292009e-06
5.7834387e-06
5.4494969e-06
5.1273407e-06
4.8246309e-06
4.5490444e-06
4.2989423e-06
4.0709791e-06
3.8626801e-06
3.6717152e-06
3.496111e-06
3.3341576e-06
3.1843694e-06
3.0454531e-06
2.9162804e-06
2.7958547e-06
2.6832819e-06
2.5777606e-06
2.4785456e-06
2.3849682e-06
2.2962869e-06
2.2119782e-06
2.1307767e-06
2.0531993e-06
1.9733741e-06
1.9057501e-06
1.8066924e-06
0.0072778677
0.0071187068
0.0070271507
0.0069787346
0.0069486443
0.0069274591
0.0069116009
0.0068993536
0.00688971
0.006882016
0.0068758277
0.006870838
0.0068668356
0.0068636819
0.0068613021
0.0068596817
0.0068589086
0.0068591374
0.0068610116
0.0068649121
0.0068746342
0.0068973237
0.0069000279
0.0085799502
0.028549009
0.0017318012
0.0047763846
0.00034631088
0.0017796443
0.00016969835
0.0010118752
0.00010567853
0.00067330763
0.00050669241
0.00048691039
0.00040437592
0.00036869973
0.00032310477
0.00029174888
0.00026233553
0.00023822378
0.0002170355
0.00019871316
0.00018261832
0.00016842795
0.00015583258
0.00014459552
0.00013452049
0.00012544685
0.00011724154
0.00010979303
0.00010300745
9.6805455e-05
9.1119373e-05
8.5891456e-05
8.1072084e-05
7.661814e-05
7.2492146e-05
6.8661491e-05
6.5097587e-05
6.1775267e-05
5.8672439e-05
5.5769582e-05
5.3049228e-05
5.0495819e-05
4.80955e-05
4.5835857e-05
4.3705729e-05
4.1695052e-05
3.9794832e-05
3.799693e-05
3.6293874e-05
3.4678896e-05
3.3145867e-05
3.1689182e-05
3.0303733e-05
2.8984824e-05
2.772817e-05
2.6529915e-05
2.5386429e-05
2.4294334e-05
2.3250569e-05
2.2252301e-05
2.1296903e-05
2.0381944e-05
1.9505165e-05
1.8664504e-05
1.7858047e-05
1.708397e-05
1.6340582e-05
1.5626324e-05
1.4939732e-05
1.4279447e-05
1.3644187e-05
1.3032761e-05
1.2444089e-05
1.1877119e-05
1.1330856e-05
1.0804389e-05
1.0296855e-05
9.8074466e-06
9.3353986e-06
8.8799971e-06
8.4405909e-06
8.0165416e-06
7.607245e-06
7.2121429e-06
6.8307065e-06
6.4624283e-06
6.1068399e-06
5.7635044e-06
5.4318737e-06
5.1119142e-06
4.8112338e-06
4.5374639e-06
4.2889871e-06
4.0624853e-06
3.8555035e-06
3.6657303e-06
3.4912075e-06
3.3302382e-06
3.1813483e-06
3.0432541e-06
2.9148359e-06
2.7951045e-06
2.6831722e-06
2.5782435e-06
2.4795785e-06
2.3865132e-06
2.2983109e-06
2.2144515e-06
2.1336765e-06
2.0565032e-06
1.9770754e-06
1.9097906e-06
1.8112298e-06
0.0072713847
0.0071117428
0.0070198869
0.0069713044
0.0069411081
0.0069198471
0.0069039313
0.0068916388
0.0068819587
0.0068742346
0.0068680208
0.006863009
0.0068589868
0.0068558144
0.0068534163
0.0068517767
0.0068509818
0.0068511845
0.0068530211
0.0068568745
0.0068664871
0.0068890801
0.0068910193
0.0085678948
0.027970859
0.0017158413
0.0046837509
0.00034271129
0.0017494544
0.00016799989
0.00099605218
0.00010470414
0.00066341913
0.00049969036
0.00048013891
0.00039894559
0.0003638025
0.00031891643
0.00028802619
0.00025905101
0.00023528949
0.00021440596
0.00019634268
0.00018047257
0.00016647757
0.00015405345
0.00014296728
0.00013302591
0.00012407127
0.00011597233
0.00010861932
0.00010191981
9.579565e-05
9.018019e-05
8.5016545e-05
8.0255835e-05
7.5855575e-05
7.1778834e-05
6.7993474e-05
6.4471317e-05
6.1187557e-05
5.8120413e-05
5.525064e-05
5.2561015e-05
5.0036196e-05
4.7662518e-05
4.5427739e-05
4.332085e-05
4.1331924e-05
3.9452087e-05
3.7673308e-05
3.5988217e-05
3.4390132e-05
3.2873008e-05
3.1431311e-05
3.0059999e-05
2.8754439e-05
2.7510399e-05
2.6324073e-05
2.5191878e-05
2.4110477e-05
2.3076851e-05
2.2088198e-05
2.1141927e-05
2.0235637e-05
1.9367096e-05
1.8534267e-05
1.7735261e-05
1.6968275e-05
1.6231638e-05
1.5523811e-05
1.4843347e-05
1.4188903e-05
1.3559213e-05
1.29531e-05
1.2369497e-05
1.1807363e-05
1.1265716e-05
1.0743655e-05
1.0240326e-05
9.754933e-06
9.2867182e-06
8.8349765e-06
8.3990638e-06
7.978349e-06
7.5722345e-06
7.1801686e-06
6.8016284e-06
6.4361118e-06
6.0831558e-06
5.7423282e-06
5.4130868e-06
5.0953991e-06
4.7968185e-06
4.5249293e-06
4.2781356e-06
4.0531478e-06
3.8475311e-06
3.6589934e-06
3.485592e-06
3.3256437e-06
3.1776861e-06
3.0404456e-06
2.9128112e-06
2.7938012e-06
2.6825349e-06
2.5782225e-06
2.4801298e-06
2.3875975e-06
2.299894e-06
2.2165028e-06
2.1361726e-06
2.0594205e-06
1.9804092e-06
1.9134789e-06
1.8154373e-06
0.0072620099
0.0071016727
0.0070093834
0.0069605604
0.0069302111
0.0069088406
0.0068928417
0.006880484
0.0068707515
0.0068629844
0.0068567345
0.0068516916
0.006847642
0.0068444445
0.0068420223
0.0068403584
0.0068395367
0.0068397084
0.0068415018
0.0068453023
0.0068547917
0.0068772856
0.0068783321
0.0085506338
0.02738219
0.0016994695
0.0045882637
0.00033897766
0.0017182357
0.00016623405
0.000979664
0.00010368892
0.00065316743
0.0004924222
0.00047311387
0.00039330813
0.00035871873
0.00031456669
0.00028415961
0.00025563861
0.00023224043
0.000211673
0.00019387852
0.0001782416
0.00016444939
0.00015220303
0.00014127351
0.00013147094
0.00012263985
0.0001146514
0.00010739759
0.00010078748
9.4744181e-05
8.9202096e-05
8.4105236e-05
7.9405486e-05
7.5061017e-05
7.1035468e-05
6.7297189e-05
6.381843e-05
6.0574755e-05
5.7544711e-05
5.4709338e-05
5.2051667e-05
4.9556578e-05
4.7210607e-05
4.5001689e-05
4.2918973e-05
4.0952672e-05
3.909404e-05
3.7335158e-05
3.5668758e-05
3.4088252e-05
3.2587679e-05
3.116158e-05
2.9804983e-05
2.8513317e-05
2.7282408e-05
2.6108501e-05
2.4988063e-05
2.3917799e-05
2.289473e-05
2.1916092e-05
2.0979329e-05
2.0082069e-05
1.9222111e-05
1.8397443e-05
1.7606201e-05
1.6846606e-05
1.6117006e-05
1.5415884e-05
1.474181e-05
1.4093458e-05
1.3469578e-05
1.2869007e-05
1.2290691e-05
1.1733605e-05
1.1196775e-05
1.0679313e-05
1.0180377e-05
9.6991772e-06
9.2349671e-06
8.7870497e-06
8.3547885e-06
7.9375599e-06
7.5347734e-06
7.1458839e-06
6.7703744e-06
6.407749e-06
6.0575498e-06
5.7193498e-06
5.3926127e-06
5.0773071e-06
4.7809298e-06
4.5110148e-06
4.2659889e-06
4.0425918e-06
3.8384103e-06
3.6511718e-06
3.4789503e-06
3.3200769e-06
3.1731011e-06
3.0367601e-06
2.9099519e-06
2.7917029e-06
2.6811392e-06
2.5774775e-06
2.4799894e-06
2.3880204e-06
2.3008445e-06
2.2179487e-06
2.1380895e-06
2.0617835e-06
1.9832154e-06
1.9166614e-06
1.819171e-06
0.0072494915
0.0070882255
0.006995357
0.0069462126
0.0069156587
0.006894142
0.0068780322
0.0068655876
0.0068557853
0.006847961
0.0068416634
0.0068365797
0.0068324944
0.0068292646
0.006826812
0.006825118
0.0068242641
0.0068243995
0.0068261436
0.0068298848
0.0068392363
0.0068616279
0.0068616418
0.0085277359
0.026776653
0.0016824981
0.0044887874
0.00033506233
0.0016856033
0.00016437772
0.00096250481
0.00010261894
0.00064242216
0.00048479417
0.0004657451
0.00038739055
0.00035338262
0.00030999893
0.00028009871
0.00025205365
0.00022903658
0.00020880063
0.00019128815
0.00017589588
0.00016231647
0.00015025667
0.00013949159
0.00012983474
0.00012113339
0.00011326096
0.00010611133
9.9595127e-05
9.3636767e-05
8.8171769e-05
8.3145079e-05
7.8509383e-05
7.4223545e-05
7.0251797e-05
6.6563004e-05
6.3129862e-05
5.9928327e-05
5.6937288e-05
5.4138083e-05
5.1514011e-05
4.9050187e-05
4.6733355e-05
4.4551637e-05
4.2494347e-05
4.0551848e-05
3.8715523e-05
3.6977575e-05
3.5330842e-05
3.3768836e-05
3.2285681e-05
3.0875999e-05
2.9534891e-05
2.8257852e-05
2.7040767e-05
2.5879937e-05
2.4771878e-05
2.3713343e-05
2.2701394e-05
2.1733307e-05
2.0806559e-05
1.9918815e-05
1.9067901e-05
1.8251834e-05
1.7468777e-05
1.6716972e-05
1.5994794e-05
1.5300741e-05
1.4633407e-05
1.3991482e-05
1.3373731e-05
1.2779009e-05
1.2206275e-05
1.1654517e-05
1.1122775e-05
1.0610171e-05
1.0115875e-05
9.6391065e-06
9.1791296e-06
8.7352556e-06
8.3068564e-06
7.8933162e-06
7.4940519e-06
7.1085253e-06
6.7362258e-06
6.3766636e-06
6.0293867e-06
5.693973e-06
5.369893e-06
5.0571163e-06
4.7630793e-06
4.4952628e-06
4.2521169e-06
4.0304123e-06
3.8277585e-06
3.6419039e-06
3.4709398e-06
3.3132124e-06
3.1672841e-06
3.0319032e-06
2.9059774e-06
2.7885415e-06
2.6787291e-06
2.5757637e-06
2.4789227e-06
2.3875571e-06
2.3009467e-06
2.2185822e-06
2.1392287e-06
2.0634017e-06
1.9853115e-06
1.9191625e-06
1.8222652e-06
0.007233514
0.0070710617
0.0069774527
0.0069278973
0.0068970817
0.0068753782
0.0068591266
0.0068465709
0.0068366797
0.0068287826
0.0068224243
0.006817289
0.0068131588
0.0068098888
0.0068073988
0.0068056684
0.0068047763
0.0068048696
0.0068065576
0.0068102325
0.0068194298
0.0068417159
0.0068405429
0.0084986643
0.026148521
0.0016647515
0.0043842277
0.00033091772
0.0016511796
0.00016240759
0.00094437073
0.00010148004
0.00063105351
0.00047671247
0.00045794241
0.00038111967
0.00034772812
0.00030515624
0.00027579276
0.00024825113
0.00022563759
0.00020575254
0.0001885387
0.00017340554
0.00016005157
0.00014818944
0.00013759862
0.0001280962
0.00011953238
0.00011178295
0.00010474379
9.8327162e-05
9.2458888e-05
8.7075652e-05
8.2123397e-05
7.7555657e-05
7.3332026e-05
6.9417366e-05
6.5781087e-05
6.2396359e-05
5.9239552e-05
5.6289916e-05
5.3529108e-05
5.0940707e-05
4.851008e-05
4.622419e-05
4.4071358e-05
4.2041073e-05
4.0123855e-05
3.8311228e-05
3.659552e-05
3.4969685e-05
3.3427335e-05
3.196269e-05
3.0570457e-05
2.9245813e-05
2.7984321e-05
2.6781934e-05
2.5635008e-05
2.4540114e-05
2.3494052e-05
2.249393e-05
2.1537066e-05
2.0620975e-05
1.9743355e-05
1.8902066e-05
1.8095155e-05
1.732081e-05
1.6577302e-05
1.5863025e-05
1.5176503e-05
1.4516349e-05
1.388127e-05
1.3270052e-05
1.2681565e-05
1.2114782e-05
1.1568706e-05
1.104239e-05
1.053497e-05
1.0045625e-05
9.5735875e-06
9.1181307e-06
8.6785759e-06
8.2543033e-06
7.8447055e-06
7.4492074e-06
7.067278e-06
6.6984136e-06
6.342131e-06
5.9979841e-06
5.6655565e-06
5.3443253e-06
5.0342617e-06
4.7427371e-06
4.4771751e-06
4.23605e-06
4.0161659e-06
3.8151561e-06
3.6307916e-06
3.4611822e-06
3.3046901e-06
3.1598917e-06
3.025547e-06
2.9005742e-06
2.784017e-06
2.6750171e-06
2.572805e-06
2.4766647e-06
2.3859529e-06
2.2999556e-06
2.2181676e-06
2.1393631e-06
2.0640563e-06
1.9864873e-06
1.9207793e-06
1.8245279e-06
0.0072137
0.0070497751
0.0069552454
0.006905179
0.0068740381
0.0068521022
0.0068356745
0.0068229809
0.0068129791
0.0068049917
0.0067985583
0.0067933594
0.006789174
0.006785855
0.0067833198
0.0067815459
0.006780609
0.0067806537
0.0067822781
0.006785879
0.0067949043
0.0068170815
0.0068145508
0.0084627822
0.025492701
0.0016460666
0.0042735343
0.00032649609
0.0016145934
0.00016030002
0.00092505943
0.00010025771
0.00061893182
0.00046808297
0.00044961532
0.00037442184
0.00034168875
0.00029998121
0.00027119051
0.00024418555
0.0002220026
0.00020249192
0.00018559683
0.00017074026
0.00015762698
0.00014597595
0.00013557125
0.00012623382
0.00011781694
0.00011019895
0.00010327784
9.6967659e-05
9.1195688e-05
8.589987e-05
8.1027208e-05
7.6532141e-05
7.2375042e-05
6.8521446e-05
6.4941345e-05
6.1608413e-05
5.8499464e-05
5.5594132e-05
5.2874416e-05
5.0324195e-05
4.7929101e-05
4.5676336e-05
4.3554429e-05
4.155306e-05
3.9662915e-05
3.7875667e-05
3.6183779e-05
3.4580328e-05
3.3059037e-05
3.1614224e-05
3.0240687e-05
2.8933685e-05
2.7688858e-05
2.6502225e-05
2.5370205e-05
2.4289425e-05
2.3256738e-05
2.2269301e-05
2.1324474e-05
2.0419815e-05
1.9553058e-05
1.8722098e-05
1.7925013e-05
1.716002e-05
1.6425417e-05
1.5719626e-05
1.5041193e-05
1.438875e-05
1.3761029e-05
1.3156831e-05
1.2575045e-05
1.201466e-05
1.1474695e-05
1.0954216e-05
1.0452374e-05
9.968358e-06
9.5014141e-06
9.0508254e-06
8.6159236e-06
8.1960983e-06
7.7907508e-06
7.3993147e-06
7.0212666e-06
6.6561102e-06
6.3033693e-06
5.9626044e-06
5.6334049e-06
5.3152553e-06
5.008128e-06
4.7193248e-06
4.4562065e-06
4.2172733e-06
3.9993647e-06
3.8001401e-06
3.6173947e-06
3.4492581e-06
3.29411e-06
3.1505414e-06
3.0173255e-06
2.8933914e-06
2.7777925e-06
2.6696793e-06
2.5682899e-06
2.4729154e-06
2.3829187e-06
2.2975923e-06
2.2164357e-06
2.1382331e-06
2.0634967e-06
1.9865013e-06
1.9212779e-06
1.8257364e-06
0.0071896119
0.0070238944
0.0069282422
0.0068775523
0.0068460146
0.0068237952
0.0068071527
0.0067942909
0.0067841544
0.0067760572
0.0067695325
0.0067642563
0.0067600042
0.0067566262
0.0067540371
0.0067522119
0.0067512227
0.0067512115
0.0067527641
0.0067562825
0.0067651161
0.0067871812
0.0067831031
0.0084193585
0.024804783
0.0016262941
0.0041557078
0.00032174951
0.0015754819
0.00015803095
0.00090437052
9.8937083e-05
0.0006059277
0.00045881119
0.00044067299
0.0003672229
0.00033519744
0.00029441581
0.00026624011
0.00023981078
0.00021809015
0.00019898136
0.00018242862
0.00016786914
0.00015501447
0.0001435903
0.00013338566
0.00012422561
0.00011596672
0.00010849009
0.00010169597
9.5500286e-05
8.9831927e-05
8.4630176e-05
7.9843171e-05
7.5426323e-05
7.1340844e-05
6.755299e-05
6.4033375e-05
6.0756219e-05
5.7698811e-05
5.4841199e-05
5.2165747e-05
4.9656657e-05
4.7299848e-05
4.5082775e-05
4.2994197e-05
4.1023992e-05
3.916303e-05
3.7403142e-05
3.5736936e-05
3.4157621e-05
3.265904e-05
3.1235616e-05
2.9882246e-05
2.8594277e-05
2.7367428e-05
2.6197794e-05
2.508186e-05
2.4016315e-05
2.2998067e-05
2.2024324e-05
2.1092496e-05
2.0200182e-05
1.9345159e-05
1.8525357e-05
1.7738889e-05
1.6984003e-05
1.6259027e-05
1.556241e-05
1.4892722e-05
1.4248621e-05
1.3628858e-05
1.3032256e-05
1.2457723e-05
1.1904265e-05
1.1370916e-05
1.0856761e-05
1.036096e-05
9.8827206e-06
9.4212984e-06
8.9759889e-06
8.5461348e-06
8.1311358e-06
7.7304026e-06
7.3433782e-06
6.9695474e-06
6.6084219e-06
6.259533e-06
5.9224482e-06
5.5967634e-06
5.2819708e-06
4.9780444e-06
4.6922099e-06
4.4317594e-06
4.1952207e-06
3.9794716e-06
3.7821997e-06
3.6012261e-06
3.4347025e-06
3.2810271e-06
3.1388071e-06
3.0068297e-06
2.8840361e-06
2.7694903e-06
2.662352e-06
2.5618677e-06
2.4673363e-06
2.3781274e-06
2.2935408e-06
2.2130809e-06
2.135543e-06
2.0614367e-06
1.9850772e-06
1.9203902e-06
1.8256348e-06
0.0071607537
0.0069928852
0.0068958833
0.0068444434
0.0068124283
0.0067898679
0.006772967
0.006759903
0.0067496046
0.0067413754
0.0067347412
0.0067293725
0.0067250407
0.0067215925
0.0067189396
0.0067170542
0.0067160045
0.0067159294
0.0067174008
0.0067208274
0.0067294476
0.0067513976
0.0067455608
0.0083675743
0.024081115
0.0016053017
0.0040298135
0.00031662992
0.0015334935
0.00015557594
0.00088210675
9.7502874e-05
0.00059191259
0.00044880265
0.00043102456
0.00035944837
0.00032818678
0.00028840156
0.00026088921
0.00023508018
0.00021385826
0.00019518295
0.00017899962
0.00016476078
0.0001521853
0.0001410061
0.00013101754
0.0001220491
0.00011396093
0.00010663706
9.9980191e-05
9.3908296e-05
8.8351966e-05
8.3251936e-05
7.8557573e-05
7.4225335e-05
7.0217337e-05
6.6500615e-05
6.3046454e-05
5.9829662e-05
5.6828041e-05
5.4022087e-05
5.1394557e-05
4.8930003e-05
4.6614654e-05
4.4436239e-05
4.2383761e-05
4.0447318e-05
3.8617973e-05
3.6887731e-05
3.5249357e-05
3.3696203e-05
3.2222237e-05
3.0822002e-05
2.9490498e-05
2.8223167e-05
2.7015818e-05
2.5864623e-05
2.476614e-05
2.3717123e-05
2.2714543e-05
2.1755663e-05
2.0837945e-05
1.9959035e-05
1.9116752e-05
1.8309069e-05
1.7534134e-05
1.6790229e-05
1.6075714e-05
1.5389066e-05
1.4728886e-05
1.4093855e-05
1.3482747e-05
1.2894409e-05
1.2327768e-05
1.1781848e-05
1.1255703e-05
1.0748432e-05
1.0259214e-05
9.7872681e-06
9.3318643e-06
8.8923111e-06
8.4679628e-06
8.05823e-06
7.6625338e-06
7.2803271e-06
6.9111039e-06
6.5543844e-06
6.209708e-06
5.8766498e-06
5.5548128e-06
5.2436976e-06
4.9432798e-06
4.660702e-06
4.4031805e-06
4.1692721e-06
3.9558968e-06
3.7607726e-06
3.5817492e-06
3.417002e-06
3.2649494e-06
3.1242166e-06
2.9936059e-06
2.8720717e-06
2.7586893e-06
2.6526289e-06
2.5531462e-06
2.4595484e-06
2.3712124e-06
2.287446e-06
2.2077591e-06
2.1309594e-06
2.0575531e-06
1.981902e-06
1.9178124e-06
1.8239321e-06
0.0071265719
0.0069561513
0.006857544
0.0068052113
0.006772628
0.0067496619
0.0067324535
0.0067191488
0.0067086579
0.0067002717
0.0066935073
0.006688029
0.0066836029
0.0066800719
0.0066773442
0.0066753886
0.006674269
0.0066741208
0.006675501
0.0066788253
0.0066872084
0.0067090404
0.0067012096
0.0083065291
0.023318904
0.0015829775
0.0038950029
0.00031108936
0.0014882932
0.00015291023
0.00085807637
9.5939426e-05
0.00057676003
0.00043796366
0.00042057986
0.00035102399
0.00032058943
0.00028187986
0.00025508526
0.00022994683
0.00020926461
0.00019105837
0.000175275
0.00016138338
0.00014911032
0.00013819654
0.00012844217
0.00011968144
0.00011177837
0.00010462017
9.8112173e-05
9.2174569e-05
8.6739799e-05
8.1750163e-05
7.7156357e-05
7.2915971e-05
6.89921e-05
6.5352621e-05
6.1969549e-05
5.8818327e-05
5.5877311e-05
5.3127485e-05
5.0552031e-05
4.813588e-05
4.5865596e-05
4.3729205e-05
4.1715978e-05
3.9816247e-05
3.8021287e-05
3.6323292e-05
3.4715195e-05
3.3190502e-05
3.1743322e-05
3.0368322e-05
2.9060617e-05
2.7815753e-05
2.6629632e-05
2.5498514e-05
2.4419036e-05
2.3388024e-05
2.2402512e-05
2.1459826e-05
2.0557483e-05
1.9693182e-05
1.8864789e-05
1.8070319e-05
1.730796e-05
1.6576032e-05
1.5872929e-05
1.5197162e-05
1.4547358e-05
1.3922227e-05
1.3320571e-05
1.2741258e-05
1.2183238e-05
1.1645557e-05
1.1127285e-05
1.0627542e-05
1.0145523e-05
9.6804621e-06
9.231645e-06
8.7983935e-06
8.3800751e-06
7.9761119e-06
7.5859366e-06
7.2090125e-06
6.8448439e-06
6.49296e-06
6.1529093e-06
5.8242751e-06
5.5066679e-06
5.1995976e-06
4.9030416e-06
4.6240509e-06
4.3697583e-06
4.1387514e-06
3.9279962e-06
3.7352439e-06
3.5583758e-06
3.3955928e-06
3.2453361e-06
3.10625e-06
2.9771535e-06
2.8570155e-06
2.7449239e-06
2.6400603e-06
2.5416903e-06
2.4491303e-06
2.3617654e-06
2.2789122e-06
2.2000865e-06
2.1241096e-06
2.0514841e-06
1.9766252e-06
1.9132032e-06
1.820301e-06
0.0070864578
0.0069130365
0.0068125361
0.0067591498
0.006725896
0.0067024509
0.0066848796
0.006671291
0.006660573
0.0066520018
0.0066450841
0.0066394766
0.0066349398
0.0066313119
0.0066284968
0.0066264599
0.0066252598
0.0066250285
0.006626306
0.0066295167
0.0066376365
0.006659348
0.0066492618
0.0082352493
0.022516341
0.0015592356
0.0037505409
0.00030508039
0.00143957
0.00015000888
0.00083209657
9.4230787e-05
0.0005603476
0.00042620257
0.00040925059
0.00034187664
0.0003123389
0.00027479268
0.00024877606
0.00022436399
0.00020426695
0.00018656932
0.00017121985
0.00015770498
0.0001457602
0.00013513461
0.00012563459
0.00011709952
0.00010939759
0.00010241945
9.60733e-05
9.0281719e-05
8.4979152e-05
8.01096e-05
7.5625195e-05
7.1484761e-05
6.7652448e-05
6.409705e-05
6.0791372e-05
5.7711546e-05
5.4836533e-05
5.2147841e-05
4.9629117e-05
4.7265701e-05
4.5044524e-05
4.2953932e-05
4.0983488e-05
3.9123781e-05
3.7366312e-05
3.570348e-05
3.4128404e-05
3.2634756e-05
3.1216798e-05
2.9869331e-05
2.8587597e-05
2.7367253e-05
2.6204305e-05
2.5095108e-05
2.4036381e-05
2.3025032e-05
2.2058163e-05
2.1133169e-05
2.0247627e-05
1.9399292e-05
1.858608e-05
1.7806056e-05
1.7057449e-05
1.633862e-05
1.5648002e-05
1.4984139e-05
1.4345691e-05
1.3731399e-05
1.3140091e-05
1.2570663e-05
1.2022087e-05
1.1493433e-05
1.0983792e-05
1.0492303e-05
1.0018178e-05
9.5606717e-06
9.1190833e-06
8.6927503e-06
8.2810544e-06
7.8834302e-06
7.499323e-06
7.1282079e-06
6.7695998e-06
6.4230382e-06
6.0880813e-06
5.7643214e-06
5.4513772e-06
5.1487686e-06
4.8564751e-06
4.5814469e-06
4.3307236e-06
4.1029262e-06
3.8950709e-06
3.7049457e-06
3.530466e-06
3.3698613e-06
3.2215972e-06
3.0843394e-06
2.9569253e-06
2.8383395e-06
2.727684e-06
2.6241526e-06
2.527022e-06
2.4356189e-06
2.3493372e-06
2.2675031e-06
2.1896392e-06
2.1145822e-06
2.0428298e-06
1.9688588e-06
1.9061846e-06
1.8143783e-06
0.0070397491
0.0068628271
0.0067601101
0.0067054893
0.0066714497
0.0066474434
0.0066294469
0.0066155256
0.0066045415
0.0065957536
0.0065886565
0.006582898
0.006578232
0.006574491
0.0065715746
0.0065694438
0.0065681516
0.0065678259
0.006568988
0.0065720726
0.0065799005
0.0066014893
0.0065888577
0.0081526965
0.021672726
0.001534022
0.0035958434
0.00029855677
0.0013870477
0.00014684708
0.00080399837
9.2360855e-05
0.0005425597
0.00041343165
0.00039695206
0.00033193565
0.00030337074
0.00026708346
0.0002419106
0.00021828584
0.00019882373
0.00018167801
0.00016679963
0.00015369393
0.00014210581
0.00013179344
0.00012256994
0.00011428026
0.00010679713
0.0001000149
9.3844898e-05
8.8212272e-05
8.305365e-05
7.8314872e-05
7.3949636e-05
6.9918095e-05
6.6185553e-05
6.2721795e-05
5.9500483e-05
5.6498498e-05
5.3695458e-05
5.1073442e-05
4.8616599e-05
4.6310718e-05
4.4143124e-05
4.2102517e-05
4.0178773e-05
3.8362758e-05
3.6646225e-05
3.5021794e-05
3.3482783e-05
3.2023049e-05
3.0637017e-05
2.9319638e-05
2.8066287e-05
2.6872746e-05
2.5735132e-05
2.4649902e-05
2.3613871e-05
2.2624029e-05
2.1677556e-05
2.0771919e-05
1.9904765e-05
1.9073905e-05
1.8277315e-05
1.7513109e-05
1.6779565e-05
1.6075087e-05
1.5398148e-05
1.4747331e-05
1.4121332e-05
1.3518925e-05
1.2938966e-05
1.2380382e-05
1.184217e-05
1.1323424e-05
1.0823259e-05
1.0340835e-05
9.8753845e-06
9.4261794e-06
8.9925378e-06
8.5738134e-06
8.1694031e-06
7.7787555e-06
7.4013295e-06
7.036613e-06
6.6841326e-06
6.343439e-06
6.014101e-06
5.6957206e-06
5.3879257e-06
5.090247e-06
4.8026663e-06
4.5320224e-06
4.2852513e-06
4.0610101e-06
3.8563699e-06
3.6691589e-06
3.4973303e-06
3.3391449e-06
3.1930954e-06
3.0578707e-06
2.9323287e-06
2.8154713e-06
2.7064158e-06
2.6043696e-06
2.5086218e-06
2.41851e-06
2.3334382e-06
2.2527433e-06
2.1759552e-06
2.1019277e-06
2.0311529e-06
1.9581781e-06
1.8963427e-06
1.8057656e-06
0.006985733
0.0068047547
0.0066994585
0.0066433997
0.0066084448
0.0065837849
0.0065652931
0.0065509844
0.0065396904
0.0065306502
0.0065233443
0.0065174103
0.0065125941
0.0065087223
0.0065056888
0.00650345
0.0065020525
0.0065016199
0.0065026525
0.0065055972
0.006513102
0.0065345667
0.0065190696
0.0080577792
0.020788599
0.0015073233
0.0034305211
0.00029147434
0.0013304979
0.00014340049
0.00077363315
9.0313582e-05
0.00052329134
0.00039956959
0.00038360564
0.00032113468
0.00029362421
0.00025869854
0.00023444026
0.0002116685
0.00019289503
0.00017634799
0.00016198094
0.0001493195
0.0001381188
0.00012814678
0.00011922388
0.00011120104
0.00010395589
9.7386836e-05
9.1408532e-05
8.5948949e-05
8.0947068e-05
7.6350726e-05
7.2115314e-05
6.820243e-05
6.4578627e-05
6.1214767e-05
5.8085443e-05
5.5168348e-05
5.2443812e-05
4.9894537e-05
4.7505217e-05
4.5262129e-05
4.3153025e-05
4.1166988e-05
3.9294237e-05
3.7525942e-05
3.5854124e-05
3.4271647e-05
3.2772046e-05
3.1349376e-05
2.9998242e-05
2.8713756e-05
2.7491441e-05
2.6327212e-05
2.5217308e-05
2.41583e-05
2.3147103e-05
2.21808e-05
2.1256652e-05
2.0372209e-05
1.952519e-05
1.8713472e-05
1.7935091e-05
1.7188217e-05
1.6471181e-05
1.5782433e-05
1.5120493e-05
1.4483984e-05
1.3871642e-05
1.3282274e-05
1.2714772e-05
1.2168091e-05
1.164126e-05
1.1133397e-05
1.0643643e-05
1.0171182e-05
9.7152678e-06
9.2751926e-06
8.8502937e-06
8.4399428e-06
8.0435534e-06
7.6605898e-06
7.2905253e-06
6.9328619e-06
6.5871391e-06
6.2529198e-06
5.9297843e-06
5.6173453e-06
5.3152408e-06
5.0230131e-06
4.7406466e-06
4.4748571e-06
4.2324652e-06
4.0121667e-06
3.8110931e-06
3.627117e-06
3.458233e-06
3.3027363e-06
3.1591494e-06
3.0261869e-06
2.9027292e-06
2.7877972e-06
2.6805252e-06
2.5801356e-06
2.485931e-06
2.3972615e-06
2.3135416e-06
2.2341204e-06
2.1585359e-06
2.085661e-06
2.0159812e-06
1.944124e-06
1.8832297e-06
1.7940316e-06
0.0069236505
0.0067380011
0.00662972
0.0065719952
0.0065359797
0.0065105626
0.006491497
0.0064767394
0.0064650865
0.006455754
0.0064482064
0.0064420692
0.0064370796
0.0064330568
0.0064298886
0.006427526
0.0064260087
0.0064254551
0.0064263429
0.0064291325
0.0064362802
0.0064576202
0.0064389061
0.0079493666
0.019865852
0.0014791754
0.0032544335
0.00028379216
0.0012697569
0.00013964583
0.00074088085
8.8073282e-05
0.00050245307
0.00038454486
0.00036914186
0.0003094142
0.0002830444
0.000249589
0.0002263204
0.0002044714
0.00018644372
0.00017054521
0.0001567324
0.00014455271
0.00013377233
0.00012416972
0.0001155732
0.00010784021
0.00010085366
9.4516302e-05
8.8746433e-05
8.3475053e-05
7.8643694e-05
7.4202353e-05
7.0108254e-05
6.6324562e-05
6.281918e-05
5.9564139e-05
5.6535039e-05
5.3710457e-05
5.1071492e-05
4.8601523e-05
4.6285837e-05
4.4111235e-05
4.2065938e-05
4.0139445e-05
3.8322347e-05
3.660614e-05
3.4983143e-05
3.3446478e-05
3.1989919e-05
3.0607737e-05
2.9294732e-05
2.8046192e-05
2.6857799e-05
2.5725614e-05
2.4646008e-05
2.3615676e-05
2.2631644e-05
2.1691093e-05
2.0791376e-05
1.9930129e-05
1.9105151e-05
1.8314392e-05
1.7555953e-05
1.6828065e-05
1.6129116e-05
1.5457608e-05
1.4812109e-05
1.4191288e-05
1.3593923e-05
1.3018859e-05
1.2465024e-05
1.1931409e-05
1.1417073e-05
1.0921162e-05
1.0442845e-05
9.981331e-06
9.535899e-06
9.1058626e-06
8.6905803e-06
8.2894431e-06
7.901883e-06
7.5273809e-06
7.1654262e-06
6.8155362e-06
6.4772645e-06
6.1501873e-06
5.8338974e-06
5.5280194e-06
5.2322018e-06
4.9460003e-06
4.6694017e-06
4.4089858e-06
4.1714451e-06
3.9555169e-06
3.7583989e-06
3.5780126e-06
3.4123981e-06
3.2598885e-06
3.1190392e-06
2.988593e-06
2.867455e-06
2.7546672e-06
2.6493824e-06
2.5508399e-06
2.4583569e-06
2.3712971e-06
2.2890872e-06
2.2110894e-06
2.1368508e-06
2.0652654e-06
1.9968112e-06
1.926207e-06
1.8663676e-06
1.7787157e-06
0.0068527021
0.0066617042
0.0065499864
0.0064903406
0.0064531024
0.006426812
0.0064070848
0.0063918096
0.0063797428
0.0063700735
0.0063622473
0.0063558762
0.0063506869
0.0063464906
0.0063431681
0.0063406642
0.0063390107
0.0063383206
0.0063390466
0.0063416648
0.0063484185
0.0063696342
0.0063473206
0.0078263056
0.018907805
0.0014496747
0.0030677487
0.00027547398
0.0012047453
0.00013556152
0.00070566014
8.5625019e-05
0.00047997704
0.0003682999
0.00035350445
0.00029672465
0.0002715851
0.00023971297
0.0002175124
0.00019665911
0.00017943709
0.0001642394
0.00015102595
0.00013936747
0.00012904207
0.00011983955
0.00011159668
0.00010417788
9.7471748e-05
9.1385744e-05
8.5842066e-05
8.0774994e-05
7.6128808e-05
7.1855838e-05
6.7915287e-05
6.4272012e-05
6.0895377e-05
5.7758674e-05
5.4838595e-05
5.2114668e-05
4.9568831e-05
4.7185191e-05
4.4949676e-05
4.284966e-05
4.087387e-05
3.9012252e-05
3.7255803e-05
3.5596375e-05
3.4026603e-05
3.2539896e-05
3.1130284e-05
2.9792272e-05
2.8520872e-05
2.7311561e-05
2.6160197e-05
2.5062998e-05
2.401648e-05
2.301747e-05
2.2063115e-05
2.1150706e-05
2.0277689e-05
1.9441801e-05
1.8640924e-05
1.7873088e-05
1.7136464e-05
1.6429351e-05
1.5750197e-05
1.5097561e-05
1.4470065e-05