/*--------------------------------*- C++ -*----------------------------------*\
| =========                 |                                                 |
| \\      /  F ield         | OpenFOAM: The Open Source CFD Toolbox           |
|  \\    /   O peration     | Version:  2206                                  |
|   \\  /    A nd           | Website:  www.openfoam.com                      |
|    \\/     M anipulation  |                                                 |
\*---------------------------------------------------------------------------*/
FoamFile
{
    version     2.0;
    format      ascii;
    arch        "LSB;label=32;scalar=64";
    class       volScalarField;
    location    "1800";
    object      k;
}
// * * * * * * * * * * * * * * * * * * * * * * * * * * * * * * * * * * * * * //

dimensions      [0 2 -2 0 0 0 0];

internalField   nonuniform List<scalar> 
13056
(
0.000124764
0.00011227261
0.00010776425
0.00010547723
0.000104029
0.00010300971
0.00010225257
0.00010167123
0.00010121426
0.00010084845
0.00010055124
0.00010030676
0.0001001035
9.9932954e-05
9.9788622e-05
9.9665626e-05
9.9559811e-05
9.9469169e-05
9.9387959e-05
9.9328052e-05
9.9231266e-05
9.9378687e-05
9.8289731e-05
0.00010349888
1.7671042e-05
2.6891856e-06
5.3571537e-06
9.2080533e-07
2.765146e-06
5.7202053e-07
1.8945341e-06
4.1671502e-07
1.4422122e-06
1.191868e-06
1.1607872e-06
1.0249626e-06
9.635784e-07
8.8203974e-07
8.2379678e-07
7.6721706e-07
7.1926843e-07
6.7578591e-07
6.3704385e-07
6.0202532e-07
5.7029561e-07
5.4138402e-07
5.1493162e-07
4.9063099e-07
4.682257e-07
4.4749876e-07
4.2826436e-07
4.1036286e-07
3.9365682e-07
3.7802676e-07
3.6336906e-07
3.4959324e-07
3.3661915e-07
3.2437597e-07
3.1280117e-07
3.0183905e-07
2.9143983e-07
2.8155927e-07
2.7215778e-07
2.631993e-07
2.5465127e-07
2.4648436e-07
2.3867193e-07
2.3118972e-07
2.2401557e-07
2.1712954e-07
2.1051337e-07
2.0414998e-07
1.9802373e-07
1.9212036e-07
1.8642662e-07
1.8093036e-07
1.7562023e-07
1.7048579e-07
1.6551769e-07
1.6070688e-07
1.5604481e-07
1.5152374e-07
1.4713639e-07
1.4287596e-07
1.3873609e-07
1.3471079e-07
1.307946e-07
1.2698243e-07
1.2326928e-07
1.1965046e-07
1.1612168e-07
1.1267881e-07
1.0931801e-07
1.0603559e-07
1.0282811e-07
9.9692488e-08
9.6625603e-08
9.3624441e-08
9.0686268e-08
8.7808436e-08
8.4988453e-08
8.2223902e-08
7.9512515e-08
7.6852247e-08
7.4240996e-08
7.1676724e-08
6.9157547e-08
6.6681636e-08
6.4247166e-08
6.1852442e-08
5.9495857e-08
5.7174882e-08
5.4890507e-08
5.2700092e-08
5.0665829e-08
4.8783861e-08
4.7036453e-08
4.5411054e-08
4.3895063e-08
4.2477658e-08
4.1149256e-08
3.9901365e-08
3.8726445e-08
3.7617801e-08
3.6569392e-08
3.5575651e-08
3.4631457e-08
3.3731866e-08
3.2872323e-08
3.2047308e-08
3.1253064e-08
3.0478492e-08
2.9729213e-08
2.894844e-08
2.8278637e-08
2.7282887e-08
0.0001247547
0.00011225608
0.00010774502
0.0001054566
0.00010400749
0.00010298757
0.00010222995
0.00010164826
0.00010119101
0.00010082496
0.00010052757
0.00010028293
0.00010007955
9.990889e-05
9.9764465e-05
9.9641388e-05
9.9535502e-05
9.9444799e-05
9.9363533e-05
9.9303582e-05
9.9206734e-05
9.9354226e-05
9.8264706e-05
0.00010347675
1.7618517e-05
2.6650439e-06
5.2460791e-06
9.1108523e-07
2.7124546e-06
5.6545563e-07
1.8605062e-06
4.1204398e-07
1.4176493e-06
1.1726376e-06
1.1419119e-06
1.0088076e-06
9.4854513e-07
8.6857806e-07
8.1140936e-07
7.5588047e-07
7.0880252e-07
6.661026e-07
6.2804675e-07
5.9364113e-07
5.6245944e-07
5.3404131e-07
5.080351e-07
4.8413964e-07
4.6210363e-07
4.4171444e-07
4.2278996e-07
4.051737e-07
3.8873095e-07
3.7334454e-07
3.5891288e-07
3.4534726e-07
3.3256905e-07
3.2050879e-07
3.0910514e-07
2.9830346e-07
2.8805487e-07
2.7831599e-07
2.6904797e-07
2.6021541e-07
2.5178635e-07
2.43732e-07
2.3602624e-07
2.2864523e-07
2.2156721e-07
2.147726e-07
2.0824346e-07
2.0196302e-07
1.9591592e-07
1.9008812e-07
1.8446664e-07
1.7903952e-07
1.7379561e-07
1.6872464e-07
1.6381745e-07
1.5906513e-07
1.5445928e-07
1.4999227e-07
1.4565698e-07
1.414467e-07
1.3735519e-07
1.3337655e-07
1.2950542e-07
1.2573679e-07
1.2206574e-07
1.1848766e-07
1.1499831e-07
1.1159366e-07
1.0826992e-07
1.0502345e-07
1.0185087e-07
9.8749153e-08
9.5715222e-08
9.274611e-08
8.9839128e-08
8.6991667e-08
8.4201275e-08
8.1465572e-08
7.8782324e-08
7.6149518e-08
7.3565084e-08
7.1027013e-08
6.8533448e-08
6.6082588e-08
6.3672635e-08
6.1301917e-08
5.896885e-08
5.6670939e-08
5.4409169e-08
5.2240308e-08
5.0225958e-08
4.8362353e-08
4.6631951e-08
4.502233e-08
4.3521024e-08
4.2117318e-08
4.0801731e-08
3.9565853e-08
3.8402224e-08
3.7304216e-08
3.6265848e-08
3.5281608e-08
3.4346429e-08
3.3455414e-08
3.2604053e-08
3.1786883e-08
3.1000178e-08
3.0232945e-08
2.9490777e-08
2.8717274e-08
2.8053766e-08
2.7067481e-08
0.0001247247
0.00011220391
0.00010768462
0.00010539198
0.00010394016
0.00010291834
0.00010215931
0.00010157652
0.0001011184
0.00010075167
0.0001004537
0.0001002086
0.00010000482
9.9833832e-05
9.9689122e-05
9.9565799e-05
9.9459699e-05
9.9368808e-05
9.9287371e-05
9.9227286e-05
9.9130245e-05
9.9277935e-05
9.8186783e-05
0.00010340675
1.7568947e-05
2.6408977e-06
5.134989e-06
9.0128582e-07
2.6595869e-06
5.5882555e-07
1.826309e-06
4.0732211e-07
1.3929379e-06
1.1532699e-06
1.1229071e-06
9.9253215e-07
9.3339858e-07
8.5500981e-07
7.9892174e-07
7.4444923e-07
6.9824723e-07
6.5633461e-07
6.1896932e-07
5.8518059e-07
5.5455063e-07
5.2662939e-07
5.0107255e-07
4.7758521e-07
4.5592125e-07
4.3587238e-07
4.1726021e-07
3.9993145e-07
3.8375408e-07
3.6861331e-07
3.5440957e-07
3.4105589e-07
3.2847523e-07
3.1659946e-07
3.0536845e-07
2.9472859e-07
2.8463198e-07
2.7503605e-07
2.6590269e-07
2.571972e-07
2.488882e-07
2.4094746e-07
2.3334935e-07
2.2607049e-07
2.1908951e-07
2.1238719e-07
2.0594593e-07
1.9974924e-07
1.9378204e-07
1.8803057e-07
1.8248206e-07
1.7712476e-07
1.7194772e-07
1.6694087e-07
1.6209518e-07
1.5740196e-07
1.5285289e-07
1.484405e-07
1.441578e-07
1.3999819e-07
1.3595554e-07
1.3202405e-07
1.2819846e-07
1.2447382e-07
1.2084531e-07
1.173084e-07
1.1385892e-07
1.104929e-07
1.0720662e-07
1.0399649e-07
1.008592e-07
9.7791755e-08
9.4791143e-08
9.1854439e-08
8.8978997e-08
8.6162252e-08
8.3401787e-08
8.0695263e-08
7.8040479e-08
7.5435455e-08
7.2878151e-08
7.0366589e-08
6.7898942e-08
6.5473433e-08
6.3088291e-08
6.0741871e-08
5.8432611e-08
5.615805e-08
5.3919165e-08
5.177213e-08
4.9777946e-08
4.7932941e-08
4.6219763e-08
4.4626124e-08
4.3139693e-08
4.1749867e-08
4.0447261e-08
3.9223555e-08
3.8071367e-08
3.6984136e-08
3.5955943e-08
3.4981332e-08
3.4055287e-08
3.3172964e-08
3.2329896e-08
3.1520677e-08
3.0741615e-08
2.9981824e-08
2.9246864e-08
2.8480748e-08
2.7823626e-08
2.6846941e-08
0.0001246731
0.00011211445
0.00010758117
0.00010528131
0.00010382491
0.00010279984
0.00010203838
0.00010145373
0.00010099415
0.00010062623
0.0001003273
0.0001000814
9.9876955e-05
9.9705396e-05
9.9560201e-05
9.943646e-05
9.9329993e-05
9.9238783e-05
9.9157055e-05
9.9096742e-05
9.899937e-05
9.9147389e-05
9.8053491e-05
0.0001032867
1.7521972e-05
2.6164259e-06
5.0223986e-06
8.9127481e-07
2.6058328e-06
5.5204098e-07
1.7914807e-06
4.0248548e-07
1.3677438e-06
1.1335009e-06
1.1035144e-06
9.759143e-07
9.1793247e-07
8.4114989e-07
7.8616356e-07
7.3276729e-07
6.8745844e-07
6.4634849e-07
6.0968755e-07
5.765281e-07
5.4646109e-07
5.1904695e-07
4.9394879e-07
4.7087813e-07
4.4959404e-07
4.2989272e-07
4.1159955e-07
3.9456447e-07
3.7865824e-07
3.6376845e-07
3.4979761e-07
3.3666054e-07
3.2428179e-07
3.1259461e-07
3.0154007e-07
2.9106567e-07
2.8112444e-07
2.7167468e-07
2.6267904e-07
2.5410349e-07
2.4591729e-07
2.3809275e-07
2.3060476e-07
2.234304e-07
2.165487e-07
2.099408e-07
2.0358944e-07
1.9747845e-07
1.9159302e-07
1.8591965e-07
1.804458e-07
1.7515996e-07
1.7005136e-07
1.6511013e-07
1.6032741e-07
1.5569466e-07
1.5120372e-07
1.4684725e-07
1.4261838e-07
1.3851065e-07
1.3451803e-07
1.3063481e-07
1.2685583e-07
1.2317625e-07
1.195913e-07
1.1609655e-07
1.1268791e-07
1.0936145e-07
1.0611353e-07
1.0294063e-07
9.9839475e-08
9.6807144e-08
9.3840664e-08
9.0937162e-08
8.8094036e-08
8.5308762e-08
8.2578964e-08
7.990234e-08
7.7276727e-08
7.4700176e-08
7.217068e-08
6.9686292e-08
6.7245214e-08
6.4845696e-08
6.2485995e-08
6.0164491e-08
5.7879645e-08
5.5629032e-08
5.3413622e-08
5.1288977e-08
4.9315484e-08
4.7489563e-08
4.5794061e-08
4.4216823e-08
4.2745658e-08
4.1370077e-08
4.0080795e-08
3.8869583e-08
3.7729138e-08
3.6652971e-08
3.5635223e-08
3.4670497e-08
3.3753832e-08
3.2880433e-08
3.2045881e-08
3.1244826e-08
3.0473614e-08
2.9721467e-08
2.8993908e-08
2.8235395e-08
2.7584835e-08
2.6618015e-08
0.00012459849
0.00011198517
0.00010743168
0.00010512142
0.00010365838
0.00010262863
0.00010186369
0.00010127635
0.00010081465
0.00010044503
0.0001001447
9.9897649e-05
9.9692239e-05
9.9519863e-05
9.9373968e-05
9.9249623e-05
9.9142629e-05
9.9050959e-05
9.896881e-05
9.8908167e-05
9.8810318e-05
9.8958803e-05
9.7860974e-05
0.00010311317
1.7477172e-05
2.5913292e-06
4.9069158e-06
8.8092368e-07
2.5505166e-06
5.4501449e-07
1.7555787e-06
3.9747122e-07
1.3417447e-06
1.1130753e-06
1.0834841e-06
9.5873888e-07
9.0194654e-07
8.2681833e-07
7.7296906e-07
7.2068261e-07
6.7629562e-07
6.3601404e-07
6.000803e-07
5.6757064e-07
5.3808508e-07
5.1119481e-07
4.8657062e-07
4.6393057e-07
4.4303916e-07
4.2369714e-07
4.057338e-07
3.8900241e-07
3.733766e-07
3.5874642e-07
3.450165e-07
3.3210355e-07
3.199337e-07
3.0844167e-07
2.9756977e-07
2.8726661e-07
2.7748621e-07
2.6818775e-07
2.5933468e-07
2.5089366e-07
2.4283459e-07
2.3513037e-07
2.2775641e-07
2.2069026e-07
2.1391138e-07
2.0740127e-07
2.0114303e-07
1.951208e-07
1.8932007e-07
1.8372759e-07
1.783311e-07
1.7311927e-07
1.6808158e-07
1.6320832e-07
1.5849084e-07
1.5392075e-07
1.4949003e-07
1.451915e-07
1.4101842e-07
1.3696445e-07
1.3302366e-07
1.2919048e-07
1.2545981e-07
1.2182691e-07
1.1828712e-07
1.1483607e-07
1.1146974e-07
1.081843e-07
1.0497614e-07
1.0184183e-07
9.8778146e-08
9.5782217e-08
9.2851126e-08
8.9982049e-08
8.717243e-08
8.4419791e-08
8.1721795e-08
7.9076182e-08
7.6480824e-08
7.3933806e-08
7.1433156e-08
6.8976958e-08
6.6563445e-08
6.4190895e-08
6.1857593e-08
5.9561945e-08
5.7302438e-08
5.5076682e-08
5.288564e-08
5.078424e-08
4.8832232e-08
4.7026129e-08
4.5348982e-08
4.3788778e-08
4.2333469e-08
4.0972683e-08
3.9697242e-08
3.8499008e-08
3.7370763e-08
3.630609e-08
3.5299193e-08
3.4344739e-08
3.3437819e-08
3.2573693e-08
3.1747991e-08
3.0955421e-08
3.0192367e-08
2.9448164e-08
2.8728297e-08
2.7977703e-08
2.7333966e-08
2.6377401e-08
0.00012449896
0.00011181262
0.00010723214
0.00010490799
0.0001034361
0.0001024001
0.0001016305
0.00010103958
0.00010057504
0.00010020315
9.9900969e-05
9.9652376e-05
9.9445678e-05
9.9272211e-05
9.9125382e-05
9.9000232e-05
9.8892534e-05
9.8800249e-05
9.8717539e-05
9.8656456e-05
9.855797e-05
9.8707067e-05
9.7604026e-05
0.00010288152
1.7434364e-05
2.5653295e-06
4.7872327e-06
8.7010671e-07
2.4929922e-06
5.3765978e-07
1.7181763e-06
3.92217e-07
1.3146279e-06
1.091744e-06
1.0625724e-06
9.4079562e-07
8.85245e-07
8.1183885e-07
7.5917567e-07
7.0804596e-07
6.6462065e-07
6.2520316e-07
5.900283e-07
5.5819683e-07
5.2931831e-07
5.029751e-07
4.7884597e-07
4.5665578e-07
4.3617466e-07
4.1720812e-07
3.9958952e-07
3.831756e-07
3.6784296e-07
3.5348423e-07
3.4000626e-07
3.2732768e-07
3.1537635e-07
3.0408846e-07
2.9340763e-07
2.8328362e-07
2.7367151e-07
2.6453138e-07
2.558275e-07
2.4752727e-07
2.3960127e-07
2.3202298e-07
2.2476839e-07
2.1781552e-07
2.1114427e-07
2.0473654e-07
1.9857579e-07
1.9264649e-07
1.8693445e-07
1.8142669e-07
1.7611118e-07
1.7097687e-07
1.6601342e-07
1.6121136e-07
1.565622e-07
1.5205773e-07
1.4769009e-07
1.4345224e-07
1.3933759e-07
1.3533992e-07
1.3145344e-07
1.2767266e-07
1.239926e-07
1.2040862e-07
1.1691613e-07
1.1351086e-07
1.1018886e-07
1.0694638e-07
1.0377989e-07
1.0068601e-07
9.7661589e-08
9.4703805e-08
9.1809798e-08
8.8976798e-08
8.6202296e-08
8.348386e-08
8.0819198e-08
7.8206089e-08
7.5642447e-08
7.3126391e-08
7.0655982e-08
6.8229342e-08
6.5844733e-08
6.3500462e-08
6.1194847e-08
5.8926319e-08
5.669339e-08
5.4493711e-08
5.2328234e-08
5.0251226e-08
4.8321766e-08
4.6536462e-08
4.4878581e-08
4.3336257e-08
4.1897593e-08
4.0552339e-08
3.9291427e-08
3.8106819e-08
3.6991384e-08
3.5938779e-08
3.4943278e-08
3.3999609e-08
3.3102924e-08
3.2248537e-08
3.1432129e-08
3.0648471e-08
2.9893986e-08
2.915813e-08
2.8446341e-08
2.770408e-08
2.7067514e-08
2.6121725e-08
0.00012437216
0.0001115925
0.00010697753
0.00010463564
0.00010315244
0.00010210846
0.00010133291
0.0001007374
0.00010026926
9.9894461e-05
9.9589912e-05
9.9339356e-05
9.9131013e-05
9.8956153e-05
9.8808133e-05
9.8681954e-05
9.8573358e-05
9.8480288e-05
9.8396863e-05
9.8335218e-05
9.8235921e-05
9.8385786e-05
9.727613e-05
0.00010258599
1.7393609e-05
2.5381703e-06
4.6621231e-06
8.5870033e-07
2.4326418e-06
5.2989124e-07
1.6788606e-06
3.8666068e-07
1.2860894e-06
1.0692636e-06
1.0405414e-06
9.2187821e-07
8.6763554e-07
7.96038e-07
7.4462326e-07
6.947101e-07
6.5229716e-07
6.1378921e-07
5.794135e-07
5.4829635e-07
5.200574e-07
4.9429071e-07
4.7068343e-07
4.4896753e-07
4.2891906e-07
4.1034855e-07
3.930936e-07
3.7701462e-07
3.6199132e-07
3.4791906e-07
3.3470701e-07
3.2227584e-07
3.1055519e-07
2.9948283e-07
2.8900375e-07
2.7906893e-07
2.6963454e-07
2.6066163e-07
2.5211533e-07
2.4396383e-07
2.3617839e-07
2.2873315e-07
2.2160467e-07
2.1477149e-07
2.0821398e-07
2.0191444e-07
1.9585671e-07
1.9002563e-07
1.8440731e-07
1.7898908e-07
1.7375917e-07
1.6870679e-07
1.6382182e-07
1.59095e-07
1.5451805e-07
1.5008296e-07
1.45782e-07
1.4160829e-07
1.375554e-07
1.3361727e-07
1.2978819e-07
1.2606281e-07
1.2243626e-07
1.1890399e-07
1.1546151e-07
1.1210465e-07
1.0882953e-07
1.0563249e-07
1.0251005e-07
9.9458931e-08
9.6476028e-08
9.3558584e-08
9.0703797e-08
8.7908954e-08
8.5171595e-08
8.2489338e-08
7.9859936e-08
7.7281213e-08
7.4751124e-08
7.2267826e-08
6.9829417e-08
6.7434053e-08
6.5080031e-08
6.276569e-08
6.0489379e-08
5.8249558e-08
5.6044766e-08
5.3872694e-08
5.1734287e-08
4.968311e-08
4.7777531e-08
4.6014258e-08
4.4376786e-08
4.2853403e-08
4.1432372e-08
4.0103574e-08
3.8858058e-08
3.7687888e-08
3.6586026e-08
3.554621e-08
3.4562786e-08
3.3630548e-08
3.2744709e-08
3.1900645e-08
3.1094089e-08
3.0319878e-08
2.9574477e-08
2.8847471e-08
2.8144245e-08
2.7410833e-08
2.6781872e-08
2.584751e-08
0.00012421529
0.00011131968
0.00010666184
0.00010429791
0.00010280068
0.00010174678
0.00010096385
0.00010036267
9.9890037e-05
9.9511634e-05
9.9204142e-05
9.8951151e-05
9.8740767e-05
9.8564179e-05
9.8414681e-05
9.8287225e-05
9.8177513e-05
9.8083471e-05
9.7999158e-05
9.7936816e-05
9.7836514e-05
9.7987319e-05
9.6869496e-05
0.00010221969
1.7355239e-05
2.5096199e-06
4.5304483e-06
8.4658295e-07
2.3688764e-06
5.2162367e-07
1.6372339e-06
3.8074005e-07
1.2558338e-06
1.0453958e-06
1.0171579e-06
9.017841e-07
8.4892914e-07
7.7924491e-07
7.2915386e-07
6.8052954e-07
6.3919019e-07
6.016467e-07
5.6811883e-07
5.3775965e-07
5.1019957e-07
4.85045e-07
4.6199194e-07
4.4077987e-07
4.211911e-07
4.0304143e-07
3.8617301e-07
3.7045008e-07
3.5575569e-07
3.4198805e-07
3.2905881e-07
3.168908e-07
3.0541555e-07
2.9457249e-07
2.8430807e-07
2.7457456e-07
2.6532931e-07
2.5653437e-07
2.4815579e-07
2.4016261e-07
2.3252681e-07
2.2522321e-07
2.18229e-07
2.1152328e-07
2.0508687e-07
1.9890255e-07
1.9295453e-07
1.8722804e-07
1.8170954e-07
1.7638666e-07
1.7124793e-07
1.662828e-07
1.6148142e-07
1.5683475e-07
1.5233473e-07
1.4797353e-07
1.437436e-07
1.3963822e-07
1.3565114e-07
1.3177642e-07
1.280085e-07
1.2434215e-07
1.2077261e-07
1.1729544e-07
1.1390625e-07
1.1060096e-07
1.073758e-07
1.0422716e-07
1.0115168e-07
9.814612e-08
9.5207463e-08
9.233301e-08
8.9520024e-08
8.6765847e-08
8.4068078e-08
8.1424385e-08
7.8832569e-08
7.6290503e-08
7.3796185e-08
7.1347812e-08
6.8943521e-08
6.6581509e-08
6.4260105e-08
6.1977685e-08
5.9732628e-08
5.7523428e-08
5.5348653e-08
5.3206035e-08
5.1096511e-08
4.90729e-08
4.719281e-08
4.5453055e-08
4.3837368e-08
4.2334206e-08
4.0932001e-08
3.9620772e-08
3.8391694e-08
3.723694e-08
3.6149574e-08
3.5123415e-08
3.4152889e-08
3.3232859e-08
3.2358606e-08
3.1525568e-08
3.0729536e-08
2.9965417e-08
2.9229719e-08
2.851217e-08
2.781809e-08
2.7094147e-08
2.6473313e-08
2.5551159e-08
0.00012402517
0.00011098824
0.00010627816
0.00010388738
0.00010237304
0.00010130707
0.00010051516
9.9907051e-05
9.9428966e-05
9.9046177e-05
9.8735104e-05
9.8479147e-05
9.826628e-05
9.8087589e-05
9.7936292e-05
9.7807283e-05
9.7696215e-05
9.7600989e-05
9.7515596e-05
9.7452407e-05
9.7350883e-05
9.7502823e-05
9.6375105e-05
0.00010177465
1.7319884e-05
2.4794763e-06
4.3911692e-06
8.3363521e-07
2.3011413e-06
5.1277235e-07
1.5929151e-06
3.7439284e-07
1.2235753e-06
1.0199084e-06
9.9219494e-07
8.8031512e-07
8.2894061e-07
7.6129169e-07
7.1261196e-07
6.6536081e-07
6.2516644e-07
5.8865151e-07
5.5602828e-07
5.2647803e-07
4.9964273e-07
4.7514189e-07
4.5268088e-07
4.3200718e-07
4.1290972e-07
3.9520993e-07
3.7875478e-07
3.6341261e-07
3.4907001e-07
3.3562824e-07
3.230016e-07
3.1111518e-07
2.9990256e-07
2.8930494e-07
2.792703e-07
2.6975233e-07
2.6070957e-07
2.521052e-07
2.4390625e-07
2.3608261e-07
2.2860709e-07
2.2145522e-07
2.1460485e-07
2.0803566e-07
2.01729e-07
1.9566812e-07
1.8983767e-07
1.8422326e-07
1.7881172e-07
1.7359102e-07
1.6855e-07
1.6367838e-07
1.5896658e-07
1.5440581e-07
1.4998825e-07
1.4570626e-07
1.4155245e-07
1.3752033e-07
1.3360378e-07
1.2979704e-07
1.2609468e-07
1.2249162e-07
1.1898319e-07
1.1556509e-07
1.1223303e-07
1.0898304e-07
1.0581143e-07
1.027147e-07
9.9689558e-08
9.6732853e-08
9.384164e-08
9.1013289e-08
8.8245128e-08
8.5534564e-08
8.2879254e-08
8.0276921e-08
7.7725421e-08
7.5222675e-08
7.2766729e-08
7.0355823e-08
6.7988137e-08
6.5661909e-08
6.3375507e-08
6.1127341e-08
5.8915828e-08
5.6739495e-08
5.459694e-08
5.2485942e-08
5.040743e-08
4.841342e-08
4.6560705e-08
4.4846209e-08
4.3253924e-08
4.1772484e-08
4.0390503e-08
3.9098151e-08
3.7886734e-08
3.6748546e-08
3.5676755e-08
3.4665273e-08
3.3708607e-08
3.2801698e-08
3.1939898e-08
3.1118711e-08
3.0333991e-08
2.958072e-08
2.8855455e-08
2.8148072e-08
2.7463824e-08
2.6750074e-08
2.6137981e-08
2.5228953e-08
0.00012379823
0.0001105915
0.00010581864
0.00010339559
0.00010186072
0.00010078027
9.9977569e-05
9.9361161e-05
9.887653e-05
9.8488479e-05
9.8173109e-05
9.7913597e-05
9.7697751e-05
9.7516538e-05
9.7363083e-05
9.7232212e-05
9.7119517e-05
9.7022872e-05
9.6936184e-05
9.687198e-05
9.6768996e-05
9.6922285e-05
9.5782755e-05
0.0001012419
1.7288516e-05
2.4475755e-06
4.2433673e-06
8.1974079e-07
2.2289234e-06
5.0325334e-07
1.545545e-06
3.6755691e-07
1.1890412e-06
9.9257758e-07
9.6543348e-07
8.5727906e-07
8.0748995e-07
7.4201463e-07
6.9484562e-07
6.4906338e-07
6.1009508e-07
5.7468157e-07
5.4302758e-07
5.1434425e-07
4.88286e-07
4.644863e-07
4.4266047e-07
4.2256451e-07
4.0399442e-07
3.8677765e-07
3.707663e-07
3.5583312e-07
3.4186846e-07
3.2877684e-07
3.1647538e-07
3.0489165e-07
2.9396136e-07
2.8362763e-07
2.7384009e-07
2.645539e-07
2.5572895e-07
2.4732958e-07
2.3932386e-07
2.3168264e-07
2.2437958e-07
2.1739098e-07
2.1069542e-07
2.0427318e-07
1.981062e-07
1.921782e-07
1.864743e-07
1.8098055e-07
1.7568417e-07
1.7057348e-07
1.6563766e-07
1.6086673e-07
1.5625139e-07
1.5178312e-07
1.4745435e-07
1.4325767e-07
1.3918585e-07
1.352326e-07
1.3139203e-07
1.2765851e-07
1.2402677e-07
1.2049186e-07
1.1704927e-07
1.1369479e-07
1.1042427e-07
1.0723385e-07
1.0411993e-07
1.0107912e-07
9.8108214e-08
9.5204145e-08
9.2364049e-08
8.9585371e-08
8.6865509e-08
8.4201942e-08
8.1592386e-08
7.9034627e-08
7.6526576e-08
7.4066209e-08
7.1651623e-08
6.9281105e-08
6.6952881e-08
6.4665232e-08
6.2416568e-08
6.020534e-08
5.8030001e-08
5.5889115e-08
5.3781315e-08
5.1704426e-08
4.9659371e-08
4.7697302e-08
4.5874131e-08
4.4186897e-08
4.2619872e-08
4.1161879e-08
3.9801732e-08
3.8529758e-08
3.733741e-08
3.6217108e-08
3.5162136e-08
3.4166504e-08
3.3224807e-08
3.2332069e-08
3.1483718e-08
3.0675332e-08
2.9902832e-08
2.9161279e-08
2.8447285e-08
2.7750885e-08
2.7077258e-08
2.6374533e-08
2.5771885e-08
2.4877039e-08
0.00012353062
0.00011012208
0.00010527456
0.00010281319
0.00010125395
0.0001001563
9.9340798e-05
9.871454e-05
9.8222143e-05
9.7827851e-05
9.7507385e-05
9.7243656e-05
9.7024278e-05
9.6840074e-05
9.6684061e-05
9.6550981e-05
9.6436358e-05
9.633803e-05
9.6249809e-05
9.6184402e-05
9.6079691e-05
9.6234569e-05
9.5081106e-05
0.00010061147
1.7262502e-05
2.4138025e-06
4.0862731e-06
8.0478779e-07
2.151764e-06
4.929842e-07
1.494793e-06
3.6017061e-07
1.1519763e-06
9.6319096e-07
9.3666573e-07
8.3249235e-07
7.8440482e-07
7.2125632e-07
6.7570829e-07
6.315013e-07
5.938492e-07
5.5961817e-07
5.2900536e-07
5.0125358e-07
4.7603068e-07
4.5298501e-07
4.3184254e-07
4.1236831e-07
3.9436592e-07
3.7766925e-07
3.6213588e-07
3.4764328e-07
3.3408584e-07
3.213716e-07
3.0942067e-07
2.9816327e-07
2.8753744e-07
2.774883e-07
2.6796729e-07
2.5893116e-07
2.5034121e-07
2.4216305e-07
2.3436587e-07
2.2692154e-07
2.1980465e-07
2.1299231e-07
2.0646389e-07
2.0020034e-07
1.9418418e-07
1.8839968e-07
1.8283247e-07
1.7746905e-07
1.7229706e-07
1.6730521e-07
1.6248303e-07
1.5782088e-07
1.5330975e-07
1.4894143e-07
1.4470859e-07
1.4060409e-07
1.3662086e-07
1.3275286e-07
1.2899438e-07
1.2533999e-07
1.2178457e-07
1.1832332e-07
1.1495188e-07
1.1166618e-07
1.0846218e-07
1.0533614e-07
1.022846e-07
9.9304235e-08
9.6391958e-08
9.3544793e-08
9.0759963e-08
8.8034991e-08
8.5367353e-08
8.2754602e-08
8.0194523e-08
7.7684968e-08
7.5223907e-08
7.2809376e-08
7.0439528e-08
6.8112699e-08
6.5827165e-08
6.3581256e-08
6.1373425e-08
5.9202166e-08
5.7065976e-08
5.4963457e-08
5.2893276e-08
5.0853313e-08
4.8844481e-08
4.6917001e-08
4.5125828e-08
4.3468125e-08
4.1928461e-08
4.0495871e-08
3.9159378e-08
3.7909485e-08
3.6737799e-08
3.563688e-08
3.4600135e-08
3.3621681e-08
3.2696208e-08
3.1818829e-08
3.0985058e-08
3.019055e-08
2.9431297e-08
2.8702449e-08
2.8000674e-08
2.7316185e-08
2.6654073e-08
2.5963315e-08
2.5370912e-08
2.4491442e-08
0.00012321819
0.0001095719
0.00010463642
0.00010212992
0.00010054199
9.9424111e-05
9.8593564e-05
9.7955726e-05
9.7454201e-05
9.7052574e-05
9.6726121e-05
9.6457436e-05
9.6233909e-05
9.6046191e-05
9.5887172e-05
9.5751499e-05
9.563461e-05
9.5534307e-05
9.5444285e-05
9.5377468e-05
9.5270735e-05
9.5427466e-05
9.425774e-05
9.9872484e-05
1.724365e-05
2.3781066e-06
3.919304e-06
7.8867081e-07
2.0692741e-06
4.8188508e-07
1.4403668e-06
3.5217356e-07
1.1121496e-06
9.3155277e-07
9.0569992e-07
8.0578396e-07
7.5952403e-07
6.9886866e-07
6.5506158e-07
6.1254565e-07
5.7630804e-07
5.4334799e-07
5.1385496e-07
4.8710545e-07
4.6278174e-07
4.4054808e-07
4.2014181e-07
4.0133764e-07
3.8394725e-07
3.6781143e-07
3.5279365e-07
3.3877643e-07
3.2565849e-07
3.1335161e-07
3.0177917e-07
2.9087419e-07
2.8057722e-07
2.7083556e-07
2.6160255e-07
2.5283666e-07
2.4450072e-07
2.365617e-07
2.2899001e-07
2.217586e-07
2.1484304e-07
2.0822135e-07
2.0187374e-07
1.9578188e-07
1.8992892e-07
1.8429971e-07
1.7888042e-07
1.7365805e-07
1.686207e-07
1.6375748e-07
1.5905832e-07
1.5451392e-07
1.5011561e-07
1.4585549e-07
1.4172655e-07
1.3772185e-07
1.3383455e-07
1.3005886e-07
1.263893e-07
1.228206e-07
1.1934784e-07
1.1596639e-07
1.1267202e-07
1.0946081e-07
1.0632887e-07
1.0327259e-07
1.0028861e-07
9.7373738e-08
9.4524984e-08
9.1739476e-08
8.9014531e-08
8.6347756e-08
8.3736713e-08
8.1179035e-08
7.8672581e-08
7.6215273e-08
7.3805148e-08
7.1440306e-08
6.911896e-08
6.68395e-08
6.4600256e-08
6.2399611e-08
6.0236066e-08
5.8108161e-08
5.6014438e-08
5.3953541e-08
5.1924178e-08
4.9924286e-08
4.7954767e-08
4.6064832e-08
4.4308399e-08
4.2682759e-08
4.1172807e-08
3.9767803e-08
3.8457e-08
3.723109e-08
3.6081848e-08
3.5001985e-08
3.3985043e-08
3.3025251e-08
3.2117407e-08
3.1256719e-08
3.0438791e-08
2.9659366e-08
2.891451e-08
2.8199471e-08
2.7510979e-08
2.6839436e-08
2.6189841e-08
2.5512103e-08
2.4930838e-08
2.4068085e-08
0.0001228566
0.0001089323
0.00010389392
0.00010133467
9.9713243e-05
9.8571762e-05
9.7723657e-05
9.7072314e-05
9.6560144e-05
9.6149965e-05
9.5816531e-05
9.5542071e-05
9.5313706e-05
9.5121894e-05
9.4959372e-05
9.4820676e-05
9.4701149e-05
9.4598544e-05
9.4506426e-05
9.4437967e-05
9.4328888e-05
9.4487763e-05
9.3299236e-05
9.9013183e-05
1.7234268e-05
2.3405206e-06
3.7421092e-06
7.7129383e-07
1.9811559e-06
4.698803e-07
1.3820251e-06
3.4350762e-07
1.0693626e-06
8.9749022e-07
8.7236658e-07
7.7700069e-07
7.3270244e-07
6.747172e-07
6.3277907e-07
5.9207799e-07
5.573601e-07
5.257659e-07
4.9747706e-07
4.7180581e-07
4.4845e-07
4.2709085e-07
4.0747779e-07
3.8939583e-07
3.7266535e-07
3.5713448e-07
3.42673e-07
3.2916885e-07
3.1652539e-07
3.0465843e-07
2.9349482e-07
2.8297062e-07
2.7302904e-07
2.6361974e-07
2.546981e-07
2.4622444e-07
2.3816323e-07
2.304829e-07
2.2315516e-07
2.1615414e-07
2.0945648e-07
2.0304116e-07
1.968893e-07
1.9098333e-07
1.8530709e-07
1.7984606e-07
1.7458698e-07
1.695174e-07
1.6462589e-07
1.5990204e-07
1.5533616e-07
1.5091935e-07
1.4664328e-07
1.4250042e-07
1.3848407e-07
1.3458757e-07
1.3080424e-07
1.2712862e-07
1.2355544e-07
1.2007965e-07
1.1669652e-07
1.1340157e-07
1.1019078e-07
1.0706035e-07
1.0400656e-07
1.0102592e-07
9.8115222e-08
9.5271384e-08
9.2491533e-08
8.9772908e-08
8.7112927e-08
8.450929e-08
8.195965e-08
7.9461728e-08
7.7013463e-08
7.4612853e-08
7.2258009e-08
6.9947098e-08
6.76784e-08
6.5450362e-08
6.3261374e-08
6.1109876e-08
5.8994422e-08
5.69136e-08
5.4866003e-08
5.2850322e-08
5.0865306e-08
4.8908954e-08
4.6982158e-08
4.5133032e-08
4.3414365e-08
4.1823586e-08
4.0345943e-08
3.8970939e-08
3.7688076e-08
3.6488251e-08
3.5363424e-08
3.4306466e-08
3.3311068e-08
3.2371583e-08
3.148292e-08
3.0640396e-08
2.9839711e-08
2.90767e-08
2.8347517e-08
2.7647509e-08
2.6973475e-08
2.6316027e-08
2.5680057e-08
2.5016504e-08
2.4447368e-08
2.3602814e-08
0.00012244138
0.00010819406
0.00010303609
0.0001004156
9.8755318e-05
9.7586474e-05
9.6718026e-05
9.6051039e-05
9.5526542e-05
9.5106462e-05
9.4764947e-05
9.4483801e-05
9.4249839e-05
9.4053288e-05
9.3886713e-05
9.374452e-05
9.362194e-05
9.3516673e-05
9.3422133e-05
9.3351777e-05
9.3239997e-05
9.3401334e-05
9.2191277e-05
9.8021023e-05
1.7237208e-05
2.3011863e-06
3.554623e-06
7.5257395e-07
1.8872274e-06
4.569005e-07
1.3195939e-06
3.3411835e-07
1.023461e-06
8.6086191e-07
8.3652677e-07
7.4601404e-07
7.038172e-07
6.4868659e-07
6.0875138e-07
5.6999487e-07
5.3690724e-07
5.0677871e-07
4.7978301e-07
4.5527026e-07
4.3295501e-07
4.1253656e-07
3.9377717e-07
3.7647283e-07
3.6045316e-07
3.4557416e-07
3.3171236e-07
3.1876148e-07
3.0662985e-07
2.9523757e-07
2.8451525e-07
2.7440217e-07
2.648444e-07
2.5579413e-07
2.4720892e-07
2.3905107e-07
2.3128684e-07
2.2388621e-07
2.1682228e-07
2.1007046e-07
2.0360852e-07
1.9741649e-07
1.9147647e-07
1.857717e-07
1.8028676e-07
1.7500781e-07
1.6992221e-07
1.6501808e-07
1.6028453e-07
1.5571162e-07
1.5129012e-07
1.4701153e-07
1.4286791e-07
1.3885211e-07
1.3495779e-07
1.3117853e-07
1.275079e-07
1.2394074e-07
1.2047205e-07
1.1709699e-07
1.1381102e-07
1.1060988e-07
1.0748971e-07
1.0444688e-07
1.0147784e-07
9.8579247e-08
9.5748028e-08
9.2981243e-08
9.0276139e-08
8.7630073e-08
8.5040575e-08
8.2505445e-08
8.0022436e-08
7.7589363e-08
7.5204252e-08
7.2865183e-08
7.0570346e-08
6.8317985e-08
6.6106448e-08
6.3934246e-08
6.1799836e-08
5.9701717e-08
5.76385e-08
5.5608829e-08
5.3611349e-08
5.1644801e-08
4.9707982e-08
4.7798957e-08
4.5918607e-08
4.4113855e-08
4.2436263e-08
4.0883403e-08
3.9440906e-08
3.809854e-08
3.6846078e-08
3.5674639e-08
3.4576381e-08
3.3544354e-08
3.2572407e-08
3.1655028e-08
3.0787248e-08
2.9964499e-08
2.918259e-08
2.8437456e-08
2.7725339e-08
2.7041701e-08
2.6383415e-08
2.574132e-08
2.5120191e-08
2.4472103e-08
2.3916181e-08
2.3091451e-08
0.00012196805
0.00010734756
0.00010205138
9.93602e-05
9.765513e-05
9.6454764e-05
9.5562892e-05
9.4877899e-05
9.4339219e-05
9.3907748e-05
9.3556939e-05
9.3268105e-05
9.3027705e-05
9.2825706e-05
9.2654473e-05
9.250826e-05
9.2382172e-05
9.2273848e-05
9.2176525e-05
9.2103992e-05
9.1989123e-05
9.2153267e-05
9.0918745e-05
9.6882816e-05
1.7255904e-05
2.2603862e-06
3.3571235e-06
7.3244618e-07
1.7874514e-06
4.4288541e-07
1.2529845e-06
3.2395686e-07
9.7434776e-07
8.2156817e-07
7.9808215e-07
7.1272871e-07
6.7277557e-07
6.2068757e-07
5.828924e-07
5.4621355e-07
5.1486988e-07
4.8630991e-07
4.6069926e-07
4.3742808e-07
4.1622877e-07
3.9681982e-07
3.7897706e-07
3.6250811e-07
3.4725242e-07
3.3307437e-07
3.1985767e-07
3.0750221e-07
2.959216e-07
2.8504056e-07
2.7479365e-07
2.6512364e-07
2.5597965e-07
2.4731654e-07
2.3909422e-07
2.3127712e-07
2.2383339e-07
2.1673469e-07
2.0995561e-07
2.0347292e-07
1.9726561e-07
1.9131483e-07
1.8560374e-07
1.8011645e-07
1.7483831e-07
1.6975623e-07
1.6485823e-07
1.6013304e-07
1.5557036e-07
1.5116074e-07
1.4689545e-07
1.4276642e-07
1.3876613e-07
1.3488786e-07
1.3112563e-07
1.2747332e-07
1.2392469e-07
1.2047497e-07
1.1711944e-07
1.1385347e-07
1.1067275e-07
1.0757322e-07
1.0455122e-07
1.016033e-07
9.8726087e-08
9.59164e-08
9.3171317e-08
9.048804e-08
8.7863954e-08
8.5296542e-08
8.2783455e-08
8.03226e-08
7.7911839e-08
7.5549089e-08
7.3232468e-08
7.096015e-08
6.8730407e-08
6.6541564e-08
6.4392047e-08
6.2280437e-08
6.0205259e-08
5.8165078e-08
5.6158569e-08
5.4184433e-08
5.2241376e-08
5.032819e-08
4.8443724e-08
4.6586117e-08
4.4756235e-08
4.2999711e-08
4.1366768e-08
3.9855134e-08
3.8450854e-08
3.7143982e-08
3.5924584e-08
3.4784023e-08
3.3714669e-08
3.2709766e-08
3.1763337e-08
3.0870014e-08
3.0024962e-08
2.9223737e-08
2.8462266e-08
2.7736593e-08
2.7043057e-08
2.6377244e-08
2.5736106e-08
2.5110729e-08
2.450576e-08
2.3874524e-08
2.3332995e-08
2.2529857e-08
0.00012143222
0.00010638289
0.0001009278
9.8155485e-05
9.6399067e-05
9.5162597e-05
9.4243914e-05
9.353832e-05
9.2983416e-05
9.2538921e-05
9.2177487e-05
9.1879865e-05
9.163211e-05
9.1423886e-05
9.124733e-05
9.1096526e-05
9.0966431e-05
9.0854615e-05
9.0754118e-05
9.0679104e-05
9.0560727e-05
9.0728049e-05
8.9465921e-05
9.5584865e-05
1.7294381e-05
2.2185832e-06
3.1502936e-06
7.1086931e-07
1.6819687e-06
4.277873e-07
1.1822164e-06
3.1298215e-07
9.2199881e-07
7.7956322e-07
7.5698696e-07
6.7709284e-07
6.395244e-07
5.906653e-07
5.5514696e-07
5.2067886e-07
4.9119329e-07
4.6430547e-07
4.4017267e-07
4.1822715e-07
3.982203e-07
3.7989085e-07
3.6302892e-07
3.4745439e-07
3.330171e-07
3.1959033e-07
3.0706539e-07
2.953487e-07
2.8435951e-07
2.7402741e-07
2.6429118e-07
2.5509728e-07