/*--------------------------------*- C++ -*----------------------------------*\
| =========                 |                                                 |
| \\      /  F ield         | OpenFOAM: The Open Source CFD Toolbox           |
|  \\    /   O peration     | Version:  2206                                  |
|   \\  /    A nd           | Website:  www.openfoam.com                      |
|    \\/     M anipulation  |                                                 |
\*---------------------------------------------------------------------------*/
FoamFile
{
    version     2.0;
    format      ascii;
    arch        "LSB;label=32;scalar=64";
    class       volScalarField;
    location    "1800";
    object      nut;
}
// * * * * * * * * * * * * * * * * * * * * * * * * * * * * * * * * * * * * * //

dimensions      [0 2 -1 0 0 0 0];

internalField   nonuniform List<scalar> 
13056
(
6.5448481e-09
5.4001372e-09
5.034404e-09
4.853776e-09
4.7402067e-09
4.6608543e-09
4.602301e-09
4.5575701e-09
4.5225282e-09
4.4945277e-09
4.4717819e-09
4.4530352e-09
4.4373747e-09
4.424114e-09
4.4127127e-09
4.4027373e-09
4.3937546e-09
4.3854822e-09
4.3769848e-09
4.3690809e-09
4.3541116e-09
4.3525788e-09
4.2541401e-09
3.7883063e-09
3.1580202e-11
1.231893e-11
1.7387508e-11
7.2084423e-12
1.2491784e-11
5.6814858e-12
1.0339854e-11
4.849255e-12
9.0214537e-12
8.20113e-12
8.0935199e-12
7.6052603e-12
7.3740136e-12
7.0551109e-12
6.8182012e-12
6.5798887e-12
6.3709586e-12
6.1753791e-12
5.9957505e-12
5.8286246e-12
5.6729448e-12
5.5272754e-12
5.3905493e-12
5.2618152e-12
5.1402659e-12
5.0252046e-12
4.9160202e-12
4.8121769e-12
4.713205e-12
4.6186875e-12
4.5282579e-12
4.4415911e-12
4.3583926e-12
4.2783977e-12
4.2013694e-12
4.1270932e-12
4.0553738e-12
3.9860361e-12
3.9189215e-12
3.8538821e-12
3.7907824e-12
3.7294989e-12
3.6699179e-12
3.6119341e-12
3.5554496e-12
3.5003764e-12
3.4466326e-12
3.3941395e-12
3.3428239e-12
3.2926186e-12
3.24346e-12
3.1952892e-12
3.1480495e-12
3.1016889e-12
3.0561607e-12
3.0114182e-12
2.9674153e-12
2.9241109e-12
2.8814652e-12
2.8394403e-12
2.798e-12
2.7571094e-12
2.7167366e-12
2.6768514e-12
2.6374223e-12
2.5984193e-12
2.5598145e-12
2.52158e-12
2.4836894e-12
2.4461159e-12
2.4088342e-12
2.3718213e-12
2.3350523e-12
2.298502e-12
2.2621467e-12
2.2259626e-12
2.1899259e-12
2.1540126e-12
2.1181984e-12
2.082461e-12
2.0467753e-12
2.0111156e-12
1.9754562e-12
1.9397706e-12
1.9040304e-12
1.8682067e-12
1.8322699e-12
1.7961736e-12
1.7599237e-12
1.7244493e-12
1.6908375e-12
1.6591358e-12
1.6291485e-12
1.6007508e-12
1.5738029e-12
1.5481832e-12
1.5237812e-12
1.5004967e-12
1.4782386e-12
1.4569243e-12
1.4364772e-12
1.4168238e-12
1.3978944e-12
1.3796176e-12
1.3619253e-12
1.3447249e-12
1.3279555e-12
1.311395e-12
1.2951737e-12
1.2780522e-12
1.2631788e-12
1.2407381e-12
6.5449439e-09
5.3995076e-09
5.0335513e-09
4.8528149e-09
4.7391781e-09
4.6597791e-09
4.6011916e-09
4.5564349e-09
4.521373e-09
4.4933569e-09
4.4705986e-09
4.4518423e-09
4.4361742e-09
4.4229081e-09
4.4115032e-09
4.4015265e-09
4.392545e-09
4.3842771e-09
4.3757901e-09
4.3679026e-09
4.3529746e-09
4.3514972e-09
4.2532949e-09
3.7877116e-09
3.2016685e-11
1.2207778e-11
1.698404e-11
7.1271913e-12
1.2215069e-11
5.6047366e-12
1.0120496e-11
4.7826879e-12
8.8387789e-12
8.0430322e-12
7.9362059e-12
7.4615844e-12
7.2360822e-12
6.9258023e-12
6.6950165e-12
6.4629558e-12
6.259402e-12
6.0688163e-12
5.8937054e-12
5.7307341e-12
5.5788746e-12
5.4367391e-12
5.3032915e-12
5.1776076e-12
5.058903e-12
4.9465007e-12
4.8398073e-12
4.7383024e-12
4.6415296e-12
4.5490843e-12
4.4606104e-12
4.3757922e-12
4.2943438e-12
4.216008e-12
4.1405545e-12
4.0677747e-12
3.997479e-12
3.9294974e-12
3.8636758e-12
3.7998705e-12
3.7379499e-12
3.6777941e-12
3.619293e-12
3.5623444e-12
3.5068531e-12
3.4527333e-12
3.3999055e-12
3.348293e-12
3.2978246e-12
3.248435e-12
3.2000624e-12
3.1526491e-12
3.1061403e-12
3.0604851e-12
3.0156385e-12
2.971555e-12
2.9281895e-12
2.8855019e-12
2.8434538e-12
2.8020082e-12
2.7611298e-12
2.7207844e-12
2.6809412e-12
2.6415704e-12
2.6026415e-12
2.5641251e-12
2.5259938e-12
2.4882206e-12
2.4507795e-12
2.4136443e-12
2.3767902e-12
2.3401947e-12
2.3038335e-12
2.2676816e-12
2.2317159e-12
2.1959129e-12
2.1602492e-12
2.124701e-12
2.0892446e-12
2.0538578e-12
2.0185158e-12
1.983193e-12
1.9478641e-12
1.9125027e-12
1.8770805e-12
1.8415687e-12
1.8059379e-12
1.7701416e-12
1.7341855e-12
1.6989901e-12
1.6656346e-12
1.6341678e-12
1.6043964e-12
1.5761971e-12
1.549432e-12
1.5239807e-12
1.4997342e-12
1.4765931e-12
1.4544675e-12
1.4332756e-12
1.4129416e-12
1.3933927e-12
1.3745599e-12
1.3563724e-12
1.3387627e-12
1.3216387e-12
1.3049399e-12
1.2884451e-12
1.2722846e-12
1.2552202e-12
1.240393e-12
1.2180198e-12
6.5451969e-09
5.3975339e-09
5.0309004e-09
4.8498349e-09
4.7359933e-09
4.6564523e-09
4.5977608e-09
4.5529252e-09
4.5178019e-09
4.4897371e-09
4.4669397e-09
4.4481518e-09
4.4324582e-09
4.4191716e-09
4.4077507e-09
4.3977623e-09
4.3887737e-09
4.380504e-09
4.3720238e-09
4.3641523e-09
4.3492714e-09
4.3478728e-09
4.2499393e-09
3.7857283e-09
3.2477627e-11
1.209657e-11
1.6582223e-11
7.0454617e-12
1.1938564e-11
5.5274318e-12
9.9009256e-12
4.7155967e-12
8.6557084e-12
7.8844082e-12
7.7783961e-12
7.3173653e-12
7.0976082e-12
6.7959318e-12
6.5712678e-12
6.3454532e-12
6.1472754e-12
5.9616835e-12
5.7910923e-12
5.6322786e-12
5.4842433e-12
5.3456462e-12
5.2154824e-12
5.0928544e-12
4.9770005e-12
4.8672634e-12
4.7630672e-12
4.6639069e-12
4.5693398e-12
4.4789731e-12
4.3924613e-12
4.3094981e-12
4.2298061e-12
4.1531356e-12
4.079263e-12
4.0079858e-12
3.9391199e-12
3.8725002e-12
3.8079773e-12
3.7454118e-12
3.6846759e-12
3.6256534e-12
3.5682377e-12
3.5123296e-12
3.4578366e-12
3.4046754e-12
3.3527685e-12
3.3020416e-12
3.2524254e-12
3.2038562e-12
3.1562741e-12
3.109623e-12
3.0638496e-12
3.0189042e-12
2.9747436e-12
2.9313234e-12
2.8885996e-12
2.8465331e-12
2.8050867e-12
2.7642245e-12
2.723912e-12
2.684116e-12
2.6448063e-12
2.6059541e-12
2.5675293e-12
2.5295035e-12
2.4918499e-12
2.4545419e-12
2.4175542e-12
2.3808614e-12
2.344439e-12
2.3082651e-12
2.2723156e-12
2.2365663e-12
2.2009944e-12
2.1655768e-12
2.1302905e-12
2.095112e-12
2.0600179e-12
2.0249864e-12
1.9899928e-12
1.955012e-12
1.9200188e-12
1.8849869e-12
1.8498882e-12
1.8146942e-12
1.7793753e-12
1.7438854e-12
1.7082297e-12
1.6733202e-12
1.6402279e-12
1.6090028e-12
1.579454e-12
1.5514599e-12
1.5248842e-12
1.4996081e-12
1.4755236e-12
1.4525326e-12
1.4305462e-12
1.4094834e-12
1.3892692e-12
1.3698316e-12
1.3511022e-12
1.3330109e-12
1.3154907e-12
1.2984501e-12
1.2818291e-12
1.2654076e-12
1.2493155e-12
1.232317e-12
1.2175437e-12
1.1952504e-12
6.5456213e-09
5.3941552e-09
5.0263679e-09
4.8447418e-09
4.7305512e-09
4.6507685e-09
4.5918998e-09
4.5469296e-09
4.5117013e-09
4.4835531e-09
4.4606886e-09
4.4418459e-09
4.4261074e-09
4.4127842e-09
4.4013336e-09
4.3913218e-09
4.3823163e-09
4.3740366e-09
4.3655564e-09
4.3576967e-09
4.3428603e-09
4.3415546e-09
4.2438737e-09
3.7822185e-09
3.297195e-11
1.198386e-11
1.6176742e-11
6.9621801e-12
1.1658616e-11
5.448564e-12
9.6782339e-12
4.6471204e-12
8.4698148e-12
7.7231445e-12
7.6179897e-12
7.1706803e-12
6.9567464e-12
6.6637685e-12
6.4453064e-12
6.225816e-12
6.0330865e-12
5.8525558e-12
5.6865475e-12
5.5319506e-12
5.3877954e-12
5.2527898e-12
5.1259599e-12
5.0064354e-12
4.8934771e-12
4.786448e-12
4.6847898e-12
4.5880129e-12
4.4956884e-12
4.4074355e-12
4.3229196e-12
4.2418436e-12
4.1639388e-12
4.0889632e-12
4.0166998e-12
3.9469522e-12
3.879542e-12
3.8143093e-12
3.7511093e-12
3.6898068e-12
3.6302779e-12
3.5724101e-12
3.5161005e-12
3.4612531e-12
3.4077778e-12
3.3555939e-12
3.3046262e-12
3.2548024e-12
3.2060553e-12
3.1583231e-12
3.1115475e-12
3.0656741e-12
3.020651e-12
2.9764302e-12
2.9329698e-12
2.890227e-12
2.8481583e-12
2.8067261e-12
2.7658944e-12
2.7256282e-12
2.6858941e-12
2.6466596e-12
2.6078953e-12
2.5695732e-12
2.5316641e-12
2.4941401e-12
2.4569752e-12
2.4201435e-12
2.3836201e-12
2.3473804e-12
2.3114002e-12
2.2756583e-12
2.2401311e-12
2.2047948e-12
2.1696271e-12
2.1346051e-12
2.0997065e-12
2.064908e-12
2.0301867e-12
1.9955208e-12
1.9608863e-12
1.926258e-12
1.8916111e-12
1.8569197e-12
1.8221556e-12
1.7872906e-12
1.7522952e-12
1.7171235e-12
1.6817806e-12
1.6471692e-12
1.6143518e-12
1.58338e-12
1.554065e-12
1.526287e-12
1.4999115e-12
1.474821e-12
1.4509088e-12
1.4280779e-12
1.4062407e-12
1.3853168e-12
1.3652322e-12
1.3459155e-12
1.3272991e-12
1.3093134e-12
1.2918922e-12
1.2749447e-12
1.2584112e-12
1.2420728e-12
1.226059e-12
1.2091374e-12
1.1944279e-12
1.1722301e-12
6.5462406e-09
5.389277e-09
5.0198242e-09
4.8373892e-09
4.7226952e-09
4.6425636e-09
4.5834393e-09
4.5382748e-09
4.502895e-09
4.4746264e-09
4.4516645e-09
4.4327423e-09
4.4169384e-09
4.4035611e-09
4.3920662e-09
4.3820186e-09
4.3729856e-09
4.3646871e-09
4.3561999e-09
4.3483476e-09
4.3335529e-09
4.3323553e-09
4.2349115e-09
3.7770722e-09
3.3508834e-11
1.1868304e-11
1.5762706e-11
6.8763152e-12
1.1371814e-11
5.3671585e-12
9.4496805e-12
4.5764243e-12
8.2787995e-12
7.5572295e-12
7.4529877e-12
7.0196948e-12
6.8117349e-12
6.5276564e-12
6.3155535e-12
6.1025438e-12
5.915403e-12
5.7400639e-12
5.5787592e-12
5.4284914e-12
5.2883213e-12
5.1570057e-12
5.0336024e-12
4.9172686e-12
4.8072884e-12
4.703045e-12
4.6039982e-12
4.5096743e-12
4.4196585e-12
4.3335823e-12
4.2511218e-12
4.17199e-12
4.0959266e-12
4.0226977e-12
3.9520929e-12
3.8839223e-12
3.8180132e-12
3.7542109e-12
3.6923753e-12
3.6323757e-12
3.5740923e-12
3.5174161e-12
3.4622483e-12
3.4084958e-12
3.3560714e-12
3.3048967e-12
3.254899e-12
3.2060081e-12
3.1581589e-12
3.1112915e-12
3.0653494e-12
3.0202798e-12
2.9760324e-12
2.9325608e-12
2.8898244e-12
2.8477821e-12
2.8063913e-12
2.7656153e-12
2.7254197e-12
2.6857705e-12
2.6466351e-12
2.6079821e-12
2.5697828e-12
2.53201e-12
2.4946353e-12
2.4576316e-12
2.4209734e-12
2.3846357e-12
2.3485942e-12
2.3128246e-12
2.2773038e-12
2.2420107e-12
2.2069224e-12
2.1720155e-12
2.1372683e-12
2.1026584e-12
2.0681636e-12
2.0337612e-12
1.9994287e-12
1.9651446e-12
1.9308852e-12
1.8966257e-12
1.8623416e-12
1.8280069e-12
1.7935941e-12
1.7590749e-12
1.7244201e-12
1.689584e-12
1.6545715e-12
1.6202758e-12
1.5877505e-12
1.5570482e-12
1.5279828e-12
1.5004361e-12
1.4742755e-12
1.449385e-12
1.425659e-12
1.4030019e-12
1.3813271e-12
1.3605553e-12
1.3406129e-12
1.3214297e-12
1.3029387e-12
1.285071e-12
1.267761e-12
1.2509187e-12
1.2344847e-12
1.2182417e-12
1.2023185e-12
1.1854877e-12
1.1708539e-12
1.1487705e-12
6.5470889e-09
5.3827726e-09
5.0110947e-09
4.8275796e-09
4.7122138e-09
4.6316168e-09
4.5721513e-09
4.5267276e-09
4.4911456e-09
4.462716e-09
4.4396241e-09
4.4205954e-09
4.4047037e-09
4.3912536e-09
4.3796984e-09
4.3696015e-09
4.3605295e-09
4.3522026e-09
4.3437007e-09
4.3358509e-09
4.3210953e-09
4.3200216e-09
4.2227992e-09
3.7701404e-09
3.4099018e-11
1.1748662e-11
1.5335623e-11
6.7868709e-12
1.1074962e-11
5.2822669e-12
9.2126774e-12
4.5026945e-12
8.0804778e-12
7.38474e-12
7.2814793e-12
6.8626495e-12
6.6608827e-12
6.3860028e-12
6.1804888e-12
5.9741897e-12
5.7928419e-12
5.6228844e-12
5.4664584e-12
5.3206821e-12
5.1846485e-12
5.0571648e-12
4.9373213e-12
4.8243034e-12
4.7174189e-12
4.6160722e-12
4.5197417e-12
4.4279701e-12
4.3403569e-12
4.2565465e-12
4.1762263e-12
4.0991193e-12
4.0249742e-12
3.9535651e-12
3.884689e-12
3.8181622e-12
3.7538181e-12
3.6915073e-12
3.6310949e-12
3.5724544e-12
3.5154704e-12
3.4600379e-12
3.4060618e-12
3.3534524e-12
3.3021253e-12
3.2520046e-12
3.20302e-12
3.1551037e-12
3.1081927e-12
3.0622291e-12
3.0171581e-12
2.9729288e-12
2.9294925e-12
2.8868042e-12
2.8448253e-12
2.8035159e-12
2.7628343e-12
2.7227451e-12
2.6832155e-12
2.6442123e-12
2.6057041e-12
2.5676602e-12
2.5300529e-12
2.4928559e-12
2.4560415e-12
2.4195834e-12
2.383457e-12
2.3476377e-12
2.3121021e-12
2.2768265e-12
2.2417884e-12
2.2069671e-12
2.1723406e-12
2.1378857e-12
2.1035813e-12
2.0694055e-12
2.0353365e-12
2.0013522e-12
1.9674304e-12
1.9335499e-12
1.8996874e-12
1.8658185e-12
1.8319189e-12
1.7979631e-12
1.7639236e-12
1.7297727e-12
1.6954811e-12
1.6610036e-12
1.6263448e-12
1.5923879e-12
1.5601768e-12
1.5297653e-12
1.50097e-12
1.4736742e-12
1.4477475e-12
1.4230752e-12
1.3995533e-12
1.3770873e-12
1.3555917e-12
1.3349882e-12
1.3152042e-12
1.2961702e-12
1.2778199e-12
1.2600854e-12
1.2429015e-12
1.2261792e-12
1.2098596e-12
1.1937269e-12
1.1779093e-12
1.1611855e-12
1.1466418e-12
1.1246953e-12
6.5482125e-09
5.3744846e-09
4.9999617e-09
4.8150668e-09
4.698843e-09
4.6176519e-09
4.5577511e-09
4.5119965e-09
4.4761565e-09
4.4475214e-09
4.4242633e-09
4.4050985e-09
4.3890943e-09
4.3755507e-09
4.3639177e-09
4.3537566e-09
4.344633e-09
4.3362673e-09
4.3277422e-09
4.3198896e-09
4.3051698e-09
4.3042373e-09
4.2072197e-09
3.7612361e-09
3.4755147e-11
1.1623813e-11
1.4891387e-11
6.6928837e-12
1.0765083e-11
5.192963e-12
8.9647832e-12
4.4251346e-12
7.8727734e-12
7.2038357e-12
7.1016366e-12
6.6978558e-12
6.5025641e-12
6.2372735e-12
6.0386454e-12
5.8393554e-12
5.6640649e-12
5.499735e-12
5.3484137e-12
5.2073388e-12
5.0756371e-12
4.9521683e-12
4.8360564e-12
4.7265154e-12
4.6228783e-12
4.5245712e-12
4.4310919e-12
4.3420001e-12
4.2569104e-12
4.1754804e-12
4.0974094e-12
4.0224307e-12
3.9503026e-12
3.8808074e-12
3.8137496e-12
3.7489523e-12
3.6862551e-12
3.6255145e-12
3.5666003e-12
3.5093912e-12
3.4537758e-12
3.3996534e-12
3.3469331e-12
3.2955286e-12
3.2453581e-12
3.1963488e-12
3.1484326e-12
3.1015443e-12
3.0556231e-12
3.0106131e-12
2.9664615e-12
2.9231191e-12
2.8805389e-12
2.8386779e-12
2.797499e-12
2.7569639e-12
2.7170316e-12
2.6776684e-12
2.6388427e-12
2.6005227e-12
2.5626778e-12
2.5252784e-12
2.4882977e-12
2.4517102e-12
2.4154892e-12
2.3796091e-12
2.3440462e-12
2.3087766e-12
2.2737775e-12
2.2390261e-12
2.2045002e-12
2.1701802e-12
2.1360442e-12
2.10207e-12
2.0682367e-12
2.0345231e-12
2.0009079e-12
1.9673693e-12
1.9338857e-12
1.9004363e-12
1.8669982e-12
1.8335474e-12
1.8000599e-12
1.7665106e-12
1.7328724e-12
1.6991177e-12
1.6652176e-12
1.6311275e-12
1.5968514e-12
1.5632621e-12
1.5313928e-12
1.5012984e-12
1.4727982e-12
1.4457776e-12
1.4201081e-12
1.3956766e-12
1.3723804e-12
1.3501264e-12
1.3288305e-12
1.3084153e-12
1.288809e-12
1.2699431e-12
1.2517521e-12
1.2341689e-12
1.2171292e-12
1.2005446e-12
1.1843569e-12
1.1683522e-12
1.1526579e-12
1.1360604e-12
1.1216236e-12
1.0998402e-12
6.5496729e-09
5.3642267e-09
4.9861662e-09
4.7995573e-09
4.6822685e-09
4.6003401e-09
4.5398992e-09
4.4937344e-09
4.4575742e-09
4.4286843e-09
4.4052199e-09
4.3858862e-09
4.3697421e-09
4.356082e-09
4.3443518e-09
4.33411e-09
4.3249208e-09
4.3165046e-09
4.3079469e-09
4.3000856e-09
4.2853982e-09
4.2846255e-09
4.1877942e-09
3.7501351e-09
3.5492218e-11
1.1492773e-11
1.4426313e-11
6.5934233e-12
1.0439425e-11
5.098342e-12
8.7037116e-12
4.3429647e-12
7.6537241e-12
7.0127627e-12
6.9117177e-12
6.5236973e-12
6.3352212e-12
6.0799939e-12
5.8886109e-12
5.696692e-12
5.5277789e-12
5.3693745e-12
5.2234319e-12
5.0873126e-12
4.9601796e-12
4.8409476e-12
4.7287751e-12
4.6229066e-12
4.5227007e-12
4.4276064e-12
4.3371418e-12
4.2508845e-12
4.1684647e-12
4.0895543e-12
4.0138645e-12
3.9411397e-12
3.8711482e-12
3.8036811e-12
3.7385505e-12
3.6755867e-12
3.614636e-12
3.5555606e-12
3.4982361e-12
3.4425458e-12
3.3883831e-12
3.3356517e-12
3.284265e-12
3.2341402e-12
3.1851987e-12
3.1373703e-12
3.0905898e-12
3.0447943e-12
2.9999254e-12
2.9559295e-12
2.9127558e-12
2.870357e-12
2.8286879e-12
2.7877073e-12
2.7473801e-12
2.7076696e-12
2.6685354e-12
2.6299457e-12
2.5918702e-12
2.5542784e-12
2.5171408e-12
2.4804288e-12
2.4441167e-12
2.4081797e-12
2.3725922e-12
2.3373295e-12
2.3023685e-12
2.2676864e-12
2.2332611e-12
2.1990704e-12
2.165093e-12
2.1313097e-12
2.0976994e-12
2.0642405e-12
2.0309127e-12
1.9976952e-12
1.9645675e-12
1.9315083e-12
1.8984963e-12
1.8655113e-12
1.8325308e-12
1.7995313e-12
1.7664892e-12
1.7333798e-12
1.7001764e-12
1.6668518e-12
1.6333774e-12
1.5997091e-12
1.5658509e-12
1.5326636e-12
1.5011691e-12
1.4714232e-12
1.4432484e-12
1.4165319e-12
1.3911474e-12
1.3669834e-12
1.3439388e-12
1.3219219e-12
1.3008499e-12
1.2806464e-12
1.2612408e-12
1.2425653e-12
1.2245554e-12
1.207145e-12
1.1902703e-12
1.1738443e-12
1.1578091e-12
1.1419531e-12
1.1264024e-12
1.1099536e-12
1.0956432e-12
1.0740533e-12
6.5515505e-09
5.3517861e-09
4.9694101e-09
4.7807128e-09
4.6621274e-09
4.579302e-09
4.5182041e-09
4.4715403e-09
4.4349909e-09
4.4057912e-09
4.3820761e-09
4.3625367e-09
4.3462223e-09
4.3324201e-09
4.3205711e-09
4.3102303e-09
4.30096e-09
4.2924802e-09
4.2838794e-09
4.2760028e-09
4.2613436e-09
4.2607514e-09
4.1640855e-09
3.7365767e-09
3.6328159e-11
1.1354734e-11
1.3937179e-11
6.4875986e-12
1.0095496e-11
4.9975238e-12
8.4273531e-12
4.2554238e-12
7.4214979e-12
6.809866e-12
6.7100793e-12
6.3386409e-12
6.1573732e-12
5.9127576e-12
5.7290355e-12
5.544907e-12
5.3827423e-12
5.230609e-12
5.0903628e-12
4.9594944e-12
4.8372052e-12
4.7224678e-12
4.6144769e-12
4.5125082e-12
4.4159475e-12
4.3242678e-12
4.2370085e-12
4.1537661e-12
4.0741872e-12
3.9979584e-12
3.924804e-12
3.85448e-12
3.7867648e-12
3.7214592e-12
3.658383e-12
3.5973744e-12
3.5382864e-12
3.4809878e-12
3.4253597e-12
3.3712907e-12
3.3186792e-12
3.2674333e-12
3.2174714e-12
3.1687142e-12
3.1210863e-12
3.0745204e-12
3.0289542e-12
2.9843276e-12
2.9405846e-12
2.8976738e-12
2.8555467e-12
2.814158e-12
2.7734643e-12
2.7334266e-12
2.694012e-12
2.6551851e-12
2.6169063e-12
2.5791457e-12
2.5418748e-12
2.5050642e-12
2.4686855e-12
2.4327114e-12
2.397117e-12
2.3618788e-12
2.3269719e-12
2.2923728e-12
2.2580592e-12
2.2240091e-12
2.1902012e-12
2.1566143e-12
2.1232277e-12
2.0900229e-12
2.0569795e-12
2.0240767e-12
1.9912947e-12
1.9586135e-12
1.926013e-12
1.8934725e-12
1.8609713e-12
1.8284898e-12
1.7960061e-12
1.7634969e-12
1.7309394e-12
1.6983091e-12
1.66558e-12
1.6327251e-12
1.5997165e-12
1.5665106e-12
1.5331111e-12
1.5003664e-12
1.4692852e-12
1.4399248e-12
1.4121107e-12
1.385732e-12
1.3606649e-12
1.3367996e-12
1.3140367e-12
1.292286e-12
1.2714661e-12
1.2515018e-12
1.2323233e-12
1.213864e-12
1.1960606e-12
1.1788476e-12
1.1621623e-12
1.1459186e-12
1.1300595e-12
1.1143759e-12
1.0989925e-12
1.0827178e-12
1.0685559e-12
1.0471941e-12
6.553949e-09
5.3369261e-09
4.9493582e-09
4.7581522e-09
4.6380108e-09
4.5541097e-09
4.4922244e-09
4.4449627e-09
4.4079471e-09
4.3783761e-09
4.3543606e-09
4.3345749e-09
4.3180563e-09
4.3040836e-09
4.2920917e-09
4.2816314e-09
4.2722626e-09
4.2637049e-09
4.2550492e-09
4.2471498e-09
4.2325141e-09
4.2321248e-09
4.1356015e-09
3.7202647e-09
3.7284558e-11
1.1209119e-11
1.3421318e-11
6.374568e-12
9.7311099e-12
4.889659e-12
8.1338118e-12
4.1617739e-12
7.1744218e-12
6.5936125e-12
6.4951992e-12
6.1412566e-12
5.9676351e-12
5.7342435e-12
5.558647e-12
5.3827787e-12
5.227778e-12
5.0823036e-12
4.9481108e-12
4.8228252e-12
4.7056896e-12
4.5957375e-12
4.4922011e-12
4.3943889e-12
4.3017152e-12
4.2136783e-12
4.12984e-12
4.0498166e-12
3.9732723e-12
3.899909e-12
3.829465e-12
3.7617081e-12
3.6964281e-12
3.6334354e-12
3.5725584e-12
3.5136432e-12
3.4565505e-12
3.4011555e-12
3.3473454e-12
3.2950146e-12
3.2440664e-12
3.194414e-12
3.1459809e-12
3.0986914e-12
3.0524737e-12
3.0072635e-12
2.9630017e-12
2.9196308e-12
2.8770976e-12
2.8353532e-12
2.7943512e-12
2.7540485e-12
2.714404e-12
2.6753807e-12
2.6369481e-12
2.5990726e-12
2.5617147e-12
2.5248471e-12
2.488443e-12
2.4524743e-12
2.4169138e-12
2.3817354e-12
2.3469153e-12
2.312431e-12
2.278259e-12
2.2443764e-12
2.2107622e-12
2.1773952e-12
2.144255e-12
2.1113212e-12
2.078574e-12
2.0459957e-12
2.0135667e-12
1.9812667e-12
1.949077e-12
1.9169779e-12
1.8849502e-12
1.8529738e-12
1.8210287e-12
1.7890957e-12
1.7571535e-12
1.7251796e-12
1.6931516e-12
1.6610456e-12
1.6288361e-12
1.5964967e-12
1.5639999e-12
1.5313028e-12
1.4984093e-12
1.4661536e-12
1.4355303e-12
1.4065977e-12
1.3791846e-12
1.3531825e-12
1.32847e-12
1.3049393e-12
1.2824926e-12
1.2610413e-12
1.2405057e-12
1.2208117e-12
1.2018907e-12
1.1836773e-12
1.1661089e-12
1.1491215e-12
1.1326531e-12
1.116619e-12
1.1009628e-12
1.0854784e-12
1.0702888e-12
1.054217e-12
1.0402289e-12
1.0191341e-12
6.5570016e-09
5.3193888e-09
4.9256412e-09
4.7314546e-09
4.6094668e-09
4.5242901e-09
4.4614719e-09
4.4135019e-09
4.3759342e-09
4.3459238e-09
4.3215526e-09
4.3014752e-09
4.2847148e-09
4.2705399e-09
4.2583783e-09
4.2477759e-09
4.2382893e-09
4.2296376e-09
4.2209139e-09
4.2129833e-09
4.1983658e-09
4.1982039e-09
4.1017986e-09
3.7008674e-09
3.8387598e-11
1.1055655e-11
1.2876717e-11
6.2535565e-12
9.3444617e-12
4.7739403e-12
7.8214576e-12
4.0613089e-12
6.9110223e-12
6.3626251e-12
6.2657098e-12
5.9302465e-12
5.7647455e-12
5.5432408e-12
5.3762747e-12
5.2091776e-12
5.061794e-12
4.9234018e-12
4.7956525e-12
4.6763131e-12
4.5646706e-12
4.4598229e-12
4.3610412e-12
4.2676681e-12
4.1791478e-12
4.0950054e-12
4.0148261e-12
3.9382474e-12
3.8649517e-12
3.7946577e-12
3.7271177e-12
3.6621126e-12
3.599444e-12
3.5389323e-12
3.4804153e-12
3.4237474e-12
3.3687972e-12
3.3154471e-12
3.2635906e-12
3.213128e-12
3.1639683e-12
3.1160299e-12
3.0692415e-12
3.0235318e-12
2.9788322e-12
2.9350821e-12
2.8922252e-12
2.8502073e-12
2.8089778e-12
2.7684906e-12
2.7287017e-12
2.6895704e-12
2.6510575e-12
2.6131289e-12
2.5757564e-12
2.538908e-12
2.5025447e-12
2.4666417e-12
2.4311744e-12
2.3961158e-12
2.36144e-12
2.3271223e-12
2.29314e-12
2.2594719e-12
2.2260955e-12
2.1929892e-12
2.1601329e-12
2.1275065e-12
2.0950905e-12
2.0628654e-12
2.0308125e-12
1.9989148e-12
1.9671536e-12
1.9355094e-12
1.9039641e-12
1.8724991e-12
1.8410957e-12
1.8097346e-12
1.7783964e-12
1.7470627e-12
1.7157129e-12
1.684325e-12
1.6528773e-12
1.6213466e-12
1.5897079e-12
1.5579356e-12
1.5260027e-12
1.4938673e-12
1.461533e-12
1.4298188e-12
1.3997035e-12
1.3712465e-12
1.3442803e-12
1.3186985e-12
1.2943828e-12
1.271227e-12
1.2491353e-12
1.2280211e-12
1.2078061e-12
1.1884176e-12
1.1697882e-12
1.1518537e-12
1.1345529e-12
1.1178226e-12
1.1016021e-12
1.0858079e-12
1.0703847e-12
1.0551296e-12
1.0401636e-12
1.0243268e-12
1.0105403e-12
9.8975588e-13
6.5608786e-09
5.2988991e-09
4.8978589e-09
4.7001622e-09
4.5760034e-09
4.4893284e-09
4.4254149e-09
4.3766141e-09
4.3383988e-09
4.3078732e-09
4.2830851e-09
4.2626657e-09
4.2456216e-09
4.2312096e-09
4.2188488e-09
4.2080789e-09
4.1984532e-09
4.1896897e-09
4.1808836e-09
4.1729124e-09
4.158307e-09
4.1583991e-09
4.0620864e-09
3.6780185e-09
3.9669238e-11
1.0894478e-11
1.2302161e-11
6.1238783e-12
8.9342119e-12
4.6496188e-12
7.4889949e-12
3.953367e-12
6.6300811e-12
6.1157278e-12
6.0204439e-12
5.7044864e-12
5.5476048e-12
5.3386844e-12
5.1808823e-12
5.0230975e-12
4.8838119e-12
4.7529519e-12
4.6320619e-12
4.5190566e-12
4.4132704e-12
4.3138692e-12
4.2201645e-12
4.1315343e-12
4.0474544e-12
3.9674777e-12
3.8912147e-12
3.8183245e-12
3.7485094e-12
3.681505e-12
3.6170793e-12
3.5550266e-12
3.4951607e-12
3.4373132e-12
3.3813311e-12
3.3270781e-12
3.2744311e-12
3.22328e-12
3.1735252e-12
3.1250732e-12
3.0778389e-12
3.0317461e-12
2.9867298e-12
2.9427225e-12
2.8996596e-12
2.8574838e-12
2.8161424e-12
2.7755841e-12
2.7357617e-12
2.6966316e-12
2.6581526e-12
2.6202863e-12
2.582996e-12
2.5462504e-12
2.510024e-12
2.4742864e-12
2.4389988e-12
2.4041397e-12
2.3696862e-12
2.335613e-12
2.3018956e-12
2.2685103e-12
2.2354361e-12
2.202653e-12
2.1701396e-12
2.1378756e-12
2.105842e-12
2.0740198e-12
2.0423906e-12
2.010936e-12
1.9796381e-12
1.948481e-12
1.9174468e-12
1.8865169e-12
1.8556742e-12
1.8249009e-12
1.7941789e-12
1.76349e-12
1.7328154e-12
1.7021376e-12
1.6714365e-12
1.6406911e-12
1.6098803e-12
1.5789817e-12
1.547971e-12
1.5168233e-12
1.4855123e-12
1.4539971e-12
1.4222815e-12
1.3911675e-12
1.3616162e-12
1.3336881e-12
1.3072197e-12
1.2821071e-12
1.2582348e-12
1.2354989e-12
1.2138057e-12
1.1930703e-12
1.1732163e-12
1.1541725e-12
1.1358727e-12
1.1182539e-12
1.1012565e-12
1.0848185e-12
1.0688801e-12
1.0533597e-12
1.0382027e-12
1.0232101e-12
1.0085005e-12
9.9293427e-13
9.7938025e-13
9.5895396e-13
6.5657978e-09
5.2751697e-09
4.865584e-09
4.6637847e-09
4.5370928e-09
4.4486718e-09
4.383483e-09
4.3337155e-09
4.2947472e-09
4.2636225e-09
4.2383498e-09
4.2175329e-09
4.2001591e-09
4.1854714e-09
4.1728785e-09
4.1619137e-09
4.1521252e-09
4.1432303e-09
4.1343257e-09
4.1263036e-09
4.1117036e-09
4.1120783e-09
4.0158335e-09
3.6513179e-09
4.116872e-11
1.0726268e-11
1.1697384e-11
5.984969e-12
8.4995973e-12
4.5160252e-12
7.135548e-12
3.8373474e-12
6.3307042e-12
5.8520048e-12
5.7584924e-12
5.4630773e-12
5.315325e-12
5.1197005e-12
4.9716105e-12
4.8236952e-12
4.6930043e-12
4.5701424e-12
4.4565435e-12
4.3502762e-12
4.2507254e-12
4.1571287e-12
4.068839e-12
3.9852711e-12
3.9059336e-12
3.8304088e-12
3.7583334e-12
3.68939e-12
3.6233009e-12
3.5598204e-12
3.4987321e-12
3.4398451e-12
3.3829859e-12
3.3279977e-12
3.2747375e-12
3.2230786e-12
3.1729066e-12
3.1241197e-12
3.0766252e-12
3.0303365e-12
2.9851745e-12
2.9410692e-12
2.8979618e-12
2.8557891e-12
2.8144904e-12
2.7740122e-12
2.7343054e-12
2.6953221e-12
2.6570183e-12
2.6193534e-12
2.5822889e-12
2.545789e-12
2.5098197e-12
2.4743528e-12
2.4393659e-12
2.4048299e-12
2.370706e-12
2.3369765e-12
2.3036208e-12
2.2706148e-12
2.2379356e-12
2.205561e-12
2.1734713e-12
2.1416479e-12
2.1100708e-12
2.0787211e-12
2.0475808e-12
2.0166323e-12
1.9858583e-12
1.9552414e-12
1.924765e-12
1.8944139e-12
1.8641715e-12
1.8340201e-12
1.8039435e-12
1.7739248e-12
1.7439469e-12
1.7139924e-12
1.6840436e-12
1.6540835e-12
1.624093e-12
1.5940521e-12
1.5639403e-12
1.5337361e-12
1.503416e-12
1.4729561e-12
1.4423308e-12
1.4115004e-12
1.3804688e-12
1.3500194e-12
1.3210937e-12
1.2937532e-12
1.2678387e-12
1.243249e-12
1.2198717e-12
1.1976052e-12
1.176358e-12
1.1560473e-12
1.1365989e-12
1.1179426e-12
1.100014e-12
1.0827515e-12
1.0660969e-12
1.0499896e-12
1.0343711e-12
1.0191613e-12
1.0043069e-12
9.8961307e-13
9.7519595e-13
9.5993892e-13
9.4665104e-13
9.2663496e-13
6.5720365e-09
5.2479068e-09
4.8283683e-09
4.6218048e-09
4.4921777e-09
4.4017361e-09
4.3350732e-09
4.284189e-09
4.2443514e-09
4.2125356e-09
4.186704e-09
4.1654286e-09
4.1476746e-09
4.1326687e-09
4.1198081e-09
4.1086178e-09
4.0986408e-09
4.0895929e-09
4.0805723e-09
4.0724878e-09
4.0578857e-09
4.0585736e-09
3.9623753e-09
3.6203321e-09
4.2934476e-11
1.0552424e-11
1.1063251e-11
5.8364256e-12
8.0405556e-12
4.3725988e-12
6.7607617e-12
3.7127331e-12
6.0124049e-12
5.5708715e-12
5.4792758e-12
5.2054094e-12
5.0672905e-12
4.8856633e-12
4.7478306e-12
4.6103404e-12
4.488742e-12
4.3743468e-12
4.2684745e-12
4.169354e-12
4.0764239e-12
3.9889967e-12
3.9064675e-12
3.828289e-12
3.7540042e-12
3.683226e-12
3.6156185e-12
3.5508885e-12
3.48878e-12
3.4290661e-12
3.3715475e-12
3.3160482e-12
3.2624085e-12
3.2104834e-12
3.1601405e-12
3.1112633e-12
3.0637468e-12
3.0174974e-12
2.9724302e-12
2.9284655e-12
2.8855308e-12
2.8435625e-12
2.8025084e-12
2.76231e-12
2.7229106e-12
2.6842606e-12
2.6463147e-12
2.6090287e-12
2.5723619e-12
2.5362768e-12
2.5007381e-12
2.4657125e-12
2.4311689e-12
2.3970828e-12
2.3634348e-12
2.3301972e-12
2.297331e-12
2.264823e-12
2.2326546e-12
2.2008034e-12
2.1692478e-12
2.1379676e-12
2.1069443e-12
2.0761608e-12
2.0455987e-12
2.0152404e-12
1.9850694e-12
1.9550691e-12
1.9252236e-12
1.8955169e-12
1.8659332e-12
1.8364588e-12
1.8070779e-12
1.777774e-12
1.748532e-12
1.7193358e-12
1.6901697e-12
1.6610169e-12
1.6318608e-12
1.6026853e-12
1.5734725e-12
1.544203e-12
1.5148574e-12
1.4854152e-12
1.4558538e-12
1.4261501e-12
1.3962797e-12
1.3662041e-12
1.3359274e-12
1.3062125e-12
1.2779793e-12
1.2512901e-12
1.2259904e-12
1.201982e-12
1.1791555e-12
1.1574122e-12
1.1366629e-12
1.1168268e-12
1.097832e-12
1.07961e-12
1.0620978e-12
1.0452355e-12
1.0289664e-12
1.0132315e-12
9.9797343e-13
9.8311429e-13
9.6860183e-13
9.5424618e-13
9.4016027e-13
9.2525426e-13
9.1226881e-13
8.9271903e-13
6.5799474e-09
5.2168192e-09
4.7857491e-09
4.5736854e-09
4.4406777e-09
4.3479132e-09
4.2795576e-09
4.2273923e-09
4.1865582e-09
4.1539505e-09
4.1274787e-09
4.1056785e-09
4.0874891e-09
4.0721189e-09
4.0589516e-09
4.0475028e-09
4.0373093e-09
4.0280849e-09
4.0189292e-09
4.0107698e-09
3.9961576e-09
3.9971909e-09
3.9010198e-09
3.5845996e-09
4.5026537e-11
1.0375296e-11
1.0401935e-11
5.6780572e-12
7.5578638e-12
4.2189228e-12
6.3649159e-12
3.579119e-12
5.6752002e-12
5.2721575e-12
5.1826271e-12
4.9312384e-12
4.8032304e-12
4.6362623e-12
4.5092081e-12
4.3826762e-12
4.2706509e-12
4.1651767e-12
4.0674559e-12
3.9758826e-12
3.8899522e-12
3.8090552e-12
3.7326293e-12
3.6601661e-12
3.5912437e-12
3.5255071e-12
3.4626489e-12
3.4024011e-12
3.34453e-12
3.2888286e-12
3.2351153e-12
3.1832295e-12
3.1330259e-12
3.084372e-12
3.0371464e-12
2.9912431e-12
2.946567e-12
2.9030334e-12
2.8605653e-12
2.8190903e-12
2.7785429e-12
2.738866e-12
2.700015e-12
2.6619357e-12
2.6245757e-12
2.5878896e-12
2.5518359e-12
2.5163745e-12
2.481468e-12
2.4470825e-12
2.4131856e-12
2.3797471e-12
2.3467387e-12
2.3141402e-12
2.2819354e-12
2.2500976e-12
2.2185877e-12
2.1873974e-12
2.1565105e-12
2.1259061e-12
2.0955643e-12
2.0654664e-12
2.0355958e-12
2.0059368e-12
1.9764727e-12
1.9471873e-12
1.9180656e-12
1.8890924e-12
1.8602532e-12
1.8315331e-12
1.802918e-12
1.7743949e-12
1.7459494e-12
1.7175664e-12
1.6892316e-12
1.6609303e-12
1.6326476e-12
1.6043681e-12
1.5760762e-12
1.5477568e-12
1.5193929e-12
1.4909663e-12
1.4624587e-12
1.4338505e-12
1.4051204e-12
1.3762463e-12
1.3472047e-12
1.3179589e-12
1.288513e-12
1.2596077e-12
1.2321385e-12
1.206169e-12
1.1815495e-12
1.1581848e-12
1.1359692e-12
1.1148068e-12
1.0946107e-12
1.0753028e-12
1.0568134e-12
1.0390756e-12
1.0220282e-12
1.0056131e-12
9.8977527e-13
9.7445728e-13
9.5960335e-13
9.451376e-13
9.3100916e-13
9.1703362e-13
9.0332037e-13
8.8880997e-13
8.7616563e-13
8.571419e-13
6.5899785e-09
5.1816283e-09
4.7372599e-09
4.5188793e-09
4.3820005e-09
4.2865813e-09
4.216294e-09
4.1626686e-09
4.1206997e-09
4.0871908e-09
4.0599908e-09
4.0375938e-09
4.0189096e-09
4.0031253e-09
3.9896092e-09
3.9778662e-09
3.9674259e-09
3.9579999e-09
3.9486884e-09
3.9404405e-09
3.9258095e-09
3.9272218e-09
3.8310608e-09
3.5436335e-09
4.7519566e-11
1.0198482e-11
9.7170917e-12
5.5099473e-12
7.0532796e-12
4.0547673e-12
5.9490476e-12
3.4362458e-12
5.3197167e-12
4.9562004e-12
4.8688856e-12
4.6407712e-12
4.5233011e-12
4.3715796e-12
4.255776e-12
4.1406881e-12
4.0386778e-12
3.9425451e-12
3.8533717e-12
3.7697214e-12
3.6911489e-12
3.617125e-12
3.54713e-12
3.4806946e-12
3.4174335e-12
3.3570242e-12
3.2991888e-12
3.2436852e-12
3.190303e-12
3.1388555e-12