/*--------------------------------*- C++ -*----------------------------------*\
| =========                 |                                                 |
| \\      /  F ield         | OpenFOAM: The Open Source CFD Toolbox           |
|  \\    /   O peration     | Version:  2206                                  |
|   \\  /    A nd           | Website:  www.openfoam.com                      |
|    \\/     M anipulation  |                                                 |
\*---------------------------------------------------------------------------*/
FoamFile
{
    version     2.0;
    format      ascii;
    arch        "LSB;label=32;scalar=64";
    class       volScalarField;
    location    "1800";
    object      p;
}
// * * * * * * * * * * * * * * * * * * * * * * * * * * * * * * * * * * * * * //

dimensions      [0 2 -2 0 0 0 0];

internalField   nonuniform List<scalar> 
13056
(
0.011697624
0.011804159
0.012025595
0.012305014
0.012646
0.013047802
0.01350717
0.014023281
0.014597735
0.015233849
0.015936635
0.016713299
0.017573743
0.01853212
0.019607111
0.02082877
0.022231641
0.023896099
0.025869323
0.028466534
0.031541625
0.036946566
0.041878562
0.082668402
0.051978997
0.0015062053
0.00077034497
0.0018585525
0.0023719012
0.0027946509
0.0030608989
0.0032523435
0.0033922068
0.0034900609
0.0035585886
0.0036074494
0.0036422952
0.003666667
0.0036830448
0.00369346
0.0036992874
0.003701401
0.0037005682
0.0036974103
0.0036923223
0.0036856008
0.0036775254
0.003668298
0.0036580979
0.0036470459
0.0036352239
0.0036227243
0.0036096146
0.0035959554
0.0035818063
0.0035671903
0.0035521243
0.0035366365
0.0035207476
0.0035044705
0.00348782
0.0034708132
0.0034534424
0.0034356994
0.0034175894
0.0033991099
0.0033802591
0.0033610309
0.003341424
0.0033214369
0.0033010442
0.0032802279
0.0032589805
0.0032372882
0.0032151347
0.0031925071
0.0031693841
0.0031457587
0.0031216057
0.0030968794
0.0030715651
0.0030456378
0.003019067
0.0029918249
0.0029638788
0.0029351977
0.002905751
0.0028754853
0.0028443497
0.0028123048
0.0027793004
0.002745282
0.0027101964
0.002673977
0.0026365704
0.0025979011
0.00255787
0.002516404
0.0024734111
0.0024287917
0.0023824418
0.0023342402
0.0022840738
0.0022318021
0.0021772544
0.0021202798
0.0020606984
0.001998321
0.0019329344
0.0018643406
0.0017922861
0.0017165027
0.0016371129
0.0015546381
0.001470889
0.0013881347
0.0013070151
0.0012274131
0.0011493486
0.0010728543
0.00099797764
0.00092479712
0.00085342498
0.00078401027
0.00071672998
0.00065182085
0.0005896133
0.00053051678
0.00047515688
0.00042415722
0.00037907765
0.00034026918
0.00031364553
0.00029264984
0.00043752701
-0.00039442508
0.011697624
0.011804159
0.012025595
0.012305014
0.012646
0.013047802
0.01350717
0.014023281
0.014597736
0.01523385
0.015936636
0.016713299
0.017573744
0.018532121
0.019607112
0.020828772
0.022231642
0.023896101
0.025869326
0.028466539
0.03154163
0.036946578
0.041878603
0.082663184
0.051990731
0.001513805
0.00077233561
0.0018594155
0.0023724282
0.0027950233
0.0030611808
0.0032525674
0.0033923899
0.0034902144
0.0035587196
0.0036075628
0.0036423946
0.0036667549
0.0036831232
0.0036935304
0.0036993511
0.0037014589
0.003700621
0.0036974586
0.0036923668
0.0036856419
0.0036775634
0.0036683333
0.0036581308
0.0036470767
0.0036352526
0.0036227512
0.0036096398
0.0035959792
0.0035818286
0.0035672114
0.0035521442
0.0035366553
0.0035207654
0.0035044873
0.003487836
0.0034708284
0.0034534568
0.0034357131
0.0034176023
0.0033991222
0.0033802709
0.0033610421
0.0033414347
0.0033214471
0.003301054
0.0032802371
0.0032589893
0.0032372967
0.0032151427
0.0031925149
0.0031693915
0.0031457657
0.0031216125
0.0030968859
0.0030715712
0.0030456436
0.0030190727
0.0029918303
0.002963884
0.0029352026
0.0029057557
0.0028754898
0.002844354
0.0028123089
0.0027793043
0.0027452857
0.0027102
0.0026739804
0.0026365736
0.0025979042
0.002557873
0.0025164068
0.0024734138
0.0024287942
0.0023824443
0.0023342426
0.002284076
0.0022318042
0.0021772564
0.0021202816
0.0020607002
0.0019983227
0.001932936
0.0018643421
0.0017922875
0.001716504
0.0016371142
0.0015546392
0.0014708901
0.0013881357
0.001307016
0.001227414
0.0011493494
0.0010728552
0.00099797844
0.00092479788
0.00085342571
0.00078401097
0.00071673065
0.00065182149
0.00058961392
0.00053051738
0.00047515746
0.00042415779
0.00037907821
0.00034026973
0.00031364609
0.00029265044
0.00043752762
-0.00039442468
0.011697624
0.011804159
0.012025595
0.012305014
0.012646001
0.013047802
0.01350717
0.014023281
0.014597736
0.01523385
0.015936636
0.016713299
0.017573744
0.018532122
0.019607113
0.020828773
0.022231644
0.023896104
0.025869329
0.028466544
0.031541637
0.03694659
0.041878638
0.082658326
0.052006725
0.0015208747
0.00077452777
0.0018604243
0.0023730442
0.0027954586
0.0030615103
0.003252829
0.003392604
0.0034903937
0.0035588726
0.0036076953
0.0036425107
0.0036668576
0.0036832148
0.0036936127
0.0036994254
0.0037015264
0.0037006827
0.0036975152
0.0036924189
0.0036856899
0.0036776079
0.0036683746
0.0036581693
0.0036471125
0.0036352861
0.0036227826
0.0036096693
0.0035960069
0.0035818547
0.003567236
0.0035521674
0.0035366773
0.0035207861
0.003504507
0.0034878546
0.0034708461
0.0034534736
0.0034357291
0.0034176175
0.0033991367
0.0033802846
0.0033610552
0.0033414472
0.003321459
0.0033010653
0.003280248
0.0032589997
0.0032373066
0.0032151522
0.0031925239
0.0031694001
0.003145774
0.0031216203
0.0030968934
0.0030715784
0.0030456505
0.0030190793
0.0029918366
0.00296389
0.0029352083
0.0029057612
0.002875495
0.002844359
0.0028123137
0.0027793089
0.0027452901
0.0027102041
0.0026739844
0.0026365774
0.0025979078
0.0025578764
0.0025164101
0.002473417
0.0024287972
0.0023824471
0.0023342453
0.0022840786
0.0022318066
0.0021772587
0.0021202838
0.0020607023
0.0019983247
0.0019329379
0.0018643439
0.0017922892
0.0017165055
0.0016371156
0.0015546406
0.0014708914
0.0013881369
0.0013070172
0.0012274151
0.0011493505
0.0010728562
0.00099797938
0.00092479878
0.00085342657
0.00078401179
0.00071673144
0.00065182225
0.00058961465
0.00053051809
0.00047515815
0.00042415845
0.00037907886
0.00034027037
0.00031364674
0.00029265109
0.00043752834
-0.00039442424
0.011697624
0.011804159
0.012025595
0.012305015
0.012646001
0.013047803
0.013507171
0.014023281
0.014597736
0.01523385
0.015936636
0.0167133
0.017573745
0.018532122
0.019607114
0.020828774
0.022231646
0.023896106
0.025869332
0.028466549
0.031541643
0.036946602
0.041878672
0.08265361
0.052024444
0.0015258873
0.00077656494
0.0018614019
0.0023736412
0.0027958805
0.0030618297
0.0032530826
0.0033928115
0.0034905675
0.003559021
0.0036078238
0.0036426232
0.0036669572
0.0036833036
0.0036936925
0.0036994975
0.0037015919
0.0037007425
0.00369757
0.0036924693
0.0036857365
0.003677651
0.0036684147
0.0036582066
0.0036471473
0.0036353187
0.0036228131
0.0036096979
0.0035960338
0.00358188
0.0035672599
0.00355219
0.0035366985
0.0035208063
0.0035045261
0.0034878727
0.0034708632
0.0034534899
0.0034357445
0.0034176323
0.0033991507
0.003380298
0.0033610679
0.0033414593
0.0033214705
0.0033010763
0.0032802585
0.0032590097
0.0032373161
0.0032151613
0.0031925326
0.0031694085
0.003145782
0.003121628
0.0030969007
0.0030715854
0.0030456572
0.0030190856
0.0029918427
0.0029638958
0.0029352139
0.0029057665
0.0028755001
0.0028443639
0.0028123183
0.0027793133
0.0027452944
0.0027102082
0.0026739883
0.0026365811
0.0025979113
0.0025578798
0.0025164133
0.00247342
0.0024288001
0.0023824499
0.0023342479
0.0022840811
0.002231809
0.002177261
0.0021202859
0.0020607043
0.0019983266
0.0019329396
0.0018643456
0.0017922908
0.001716507
0.001637117
0.0015546419
0.0014708927
0.0013881381
0.0013070183
0.0012274162
0.0011493515
0.0010728571
0.00099798029
0.00092479965
0.0008534274
0.00078401259
0.0007167322
0.00065182299
0.00058961536
0.00053051877
0.00047515881
0.0004241591
0.00037907949
0.00034027099
0.00031364737
0.0002926517
0.00043752903
-0.00039442383
0.011697624
0.011804159
0.012025595
0.012305015
0.012646001
0.013047803
0.013507171
0.014023281
0.014597736
0.01523385
0.015936637
0.0167133
0.017573745
0.018532123
0.019607115
0.020828776
0.022231647
0.023896108
0.025869335
0.028466554
0.03154165
0.036946614
0.041878711
0.082648498
0.052043266
0.0015316498
0.00077865159
0.001862409
0.0023742564
0.0027963152
0.0030621587
0.0032533438
0.0033930253
0.0034907466
0.0035591738
0.0036079562
0.0036427392
0.0036670597
0.0036833951
0.0036937747
0.0036995718
0.0037016594
0.0037008041
0.0036976264
0.0036925212
0.0036857845
0.0036776955
0.0036684559
0.003658245
0.0036471832
0.0036353522
0.0036228445
0.0036097274
0.0035960615
0.0035819061
0.0035672844
0.0035522132
0.0035367205
0.003520827
0.0035045457
0.0034878914
0.0034708809
0.0034535067
0.0034357605
0.0034176474
0.0033991651
0.0033803117
0.003361081
0.0033414718
0.0033214824
0.0033010877
0.0032802693
0.0032590201
0.003237326
0.0032151708
0.0031925416
0.0031694171
0.0031457902
0.0031216358
0.0030969082
0.0030715926
0.0030456641
0.0030190922
0.0029918489
0.0029639018
0.0029352197
0.002905772
0.0028755054
0.0028443689
0.0028123231
0.0027793179
0.0027452987
0.0027102124
0.0026739923
0.0026365849
0.0025979149
0.0025578832
0.0025164166
0.0024734231
0.0024288031
0.0023824527
0.0023342506
0.0022840837
0.0022318114
0.0021772633
0.0021202881
0.0020607063
0.0019983285
0.0019329415
0.0018643473
0.0017922924
0.0017165086
0.0016371185
0.0015546433
0.001470894
0.0013881393
0.0013070195
0.0012274173
0.0011493525
0.0010728581
0.00099798123
0.00092480054
0.00085342826
0.00078401341
0.00071673299
0.00065182374
0.00058961609
0.00053051948
0.00047515949
0.00042415976
0.00037908015
0.00034027163
0.00031364802
0.00029265233
0.00043752975
-0.00039442341
0.011697624
0.011804159
0.012025595
0.012305015
0.012646001
0.013047803
0.013507171
0.014023281
0.014597737
0.015233851
0.015936637
0.016713301
0.017573746
0.018532124
0.019607116
0.020828777
0.02223165
0.023896112
0.025869339
0.028466561
0.031541659
0.036946627
0.041878755
0.082642809
0.052062879
0.0015389348
0.00078087976
0.0018634814
0.0023749117
0.0027967782
0.0030625092
0.0032536221
0.003393253
0.0034909373
0.0035593366
0.0036080972
0.0036428627
0.003667169
0.0036834925
0.0036938622
0.0036996508
0.0037017313
0.0037008697
0.0036976866
0.0036925766
0.0036858356
0.0036777428
0.0036684999
0.0036582859
0.0036472213
0.0036353879
0.0036228779
0.0036097588
0.003596091
0.0035819339
0.0035673106
0.0035522379
0.0035367438
0.0035208491
0.0035045667
0.0034879112
0.0034708997
0.0034535246
0.0034357775
0.0034176636
0.0033991805
0.0033803263
0.0033610949
0.003341485
0.0033214951
0.0033010998
0.0032802808
0.0032590311
0.0032373365
0.0032151808
0.0031925512
0.0031694263
0.003145799
0.0031216442
0.0030969162
0.0030716002
0.0030456714
0.0030190992
0.0029918556
0.0029639082
0.0029352258
0.0029057779
0.0028755109
0.0028443742
0.0028123282
0.0027793228
0.0027453034
0.0027102168
0.0026739965
0.002636589
0.0025979188
0.0025578869
0.0025164201
0.0024734265
0.0024288063
0.0023824557
0.0023342534
0.0022840864
0.002231814
0.0021772657
0.0021202905
0.0020607085
0.0019983306
0.0019329435
0.0018643492
0.0017922942
0.0017165102
0.00163712
0.0015546447
0.0014708953
0.0013881406
0.0013070207
0.0012274184
0.0011493536
0.0010728592
0.00099798222
0.00092480149
0.00085342917
0.00078401428
0.00071673383
0.00065182455
0.00058961687
0.00053052023
0.00047516022
0.00042416047
0.00037908084
0.00034027232
0.00031364871
0.000292653
0.00043753051
-0.00039442296
0.011697624
0.011804159
0.012025595
0.012305015
0.012646001
0.013047803
0.013507171
0.014023282
0.014597737
0.015233851
0.015936638
0.016713302
0.017573747
0.018532125
0.019607117
0.020828779
0.022231652
0.023896115
0.025869344
0.028466568
0.031541669
0.036946644
0.041878806
0.082636446
0.052083535
0.0015469258
0.00078327872
0.0018646352
0.0023756168
0.0027972763
0.0030628863
0.0032539215
0.003393498
0.0034911426
0.0035595118
0.0036082488
0.0036429956
0.0036672865
0.0036835974
0.0036939563
0.0036997359
0.0037018086
0.0037009402
0.0036977513
0.0036926361
0.0036858905
0.0036777937
0.0036685471
0.0036583299
0.0036472624
0.0036354263
0.0036229139
0.0036097925
0.0035961227
0.0035819638
0.0035673388
0.0035522645
0.003536769
0.0035208729
0.0035045892
0.0034879325
0.00347092
0.0034535438
0.0034357957
0.003417681
0.003399197
0.0033803421
0.0033611099
0.0033414993
0.0033215087
0.0033011128
0.0032802933
0.0032590429
0.0032373478
0.0032151916
0.0031925616
0.0031694361
0.0031458084
0.0031216532
0.0030969249
0.0030716085
0.0030456793
0.0030191067
0.0029918628
0.0029639151
0.0029352324
0.0029057841
0.002875517
0.00284438
0.0028123337
0.002779328
0.0027453084
0.0027102216
0.0026740011
0.0026365933
0.002597923
0.0025578909
0.0025164239
0.0024734301
0.0024288097
0.002382459
0.0023342565
0.0022840893
0.0022318168
0.0021772684
0.002120293
0.0020607109
0.0019983329
0.0019329456
0.0018643512
0.0017922961
0.001716512
0.0016371217
0.0015546463
0.0014708968
0.001388142
0.001307022
0.0012274197
0.0011493548
0.0010728603
0.0009979833
0.00092480252
0.00085343015
0.00078401522
0.00071673473
0.00065182542
0.0005896177
0.00053052104
0.000475161
0.00042416123
0.00037908159
0.00034027305
0.00031364946
0.00029265371
0.00043753133
-0.00039442248
0.011697624
0.011804159
0.012025595
0.012305015
0.012646001
0.013047803
0.013507171
0.014023282
0.014597737
0.015233852
0.015936638
0.016713303
0.017573748
0.018532127
0.019607119
0.020828782
0.022231656
0.02389612
0.02586935
0.028466578
0.031541681
0.036946665
0.041878866
0.08262927
0.052105505
0.0015554881
0.00078587826
0.0018658857
0.0023763811
0.0027978164
0.0030632951
0.0032542461
0.0033937636
0.003491365
0.0035597017
0.0036084132
0.0036431396
0.0036674139
0.003683711
0.0036940584
0.0036998282
0.0037018924
0.0037010167
0.0036978214
0.0036927006
0.0036859501
0.0036778489
0.0036685984
0.0036583776
0.0036473069
0.0036354679
0.0036229529
0.0036098291
0.0035961571
0.0035819962
0.0035673693
0.0035522933
0.0035367962
0.0035208987
0.0035046136
0.0034879557
0.0034709419
0.0034535647
0.0034358155
0.0034176998
0.003399215
0.0033803591
0.0033611262
0.0033415148
0.0033215235
0.0033011269
0.0032803067
0.0032590557
0.0032373601
0.0032152033
0.0031925727
0.0031694468
0.0031458186
0.003121663
0.0030969342
0.0030716174
0.0030456878
0.0030191149
0.0029918706
0.0029639226
0.0029352395
0.002905791
0.0028755235
0.0028443862
0.0028123397
0.0027793337
0.0027453138
0.0027102268
0.002674006
0.002636598
0.0025979275
0.0025578952
0.0025164279
0.002473434
0.0024288134
0.0023824625
0.0023342599
0.0022840925
0.0022318198
0.0021772712
0.0021202957
0.0020607135
0.0019983353
0.0019329479
0.0018643533
0.0017922981
0.0017165139
0.0016371235
0.001554648
0.0014708984
0.0013881435
0.0013070234
0.001227421
0.0011493561
0.0010728615
0.00099798446
0.00092480363
0.00085343121
0.00078401624
0.00071673571
0.00065182636
0.00058961861
0.00053052191
0.00047516185
0.00042416206
0.0003790824
0.00034027385
0.00031365027
0.00029265449
0.00043753222
-0.00039442196
0.011697624
0.011804159
0.012025595
0.012305015
0.012646001
0.013047803
0.013507172
0.014023282
0.014597738
0.015233853
0.015936639
0.016713304
0.01757375
0.018532129
0.019607122
0.020828785
0.02223166
0.023896126
0.025869358
0.028466589
0.031541697
0.036946691
0.041878937
0.082621098
0.052129015
0.0015647821
0.00078871625
0.0018672513
0.002377216
0.0027984062
0.0030637417
0.0032546005
0.0033940536
0.003491608
0.003559909
0.0036085928
0.0036432969
0.0036675531
0.0036838351
0.0036941699
0.0036999289
0.0037019839
0.0037011003
0.003697898
0.0036927711
0.0036860152
0.0036779091
0.0036686543
0.0036584297
0.0036473555
0.0036355133
0.0036229955
0.0036098691
0.0035961947
0.0035820315
0.0035674027
0.0035523248
0.0035368259
0.0035209268
0.0035046402
0.003487981
0.0034709659
0.0034535874
0.0034358372
0.0034177204
0.0033992345
0.0033803778
0.003361144
0.0033415318
0.0033215396
0.0033011423
0.0032803214
0.0032590698
0.0032373735
0.0032152161
0.003192585
0.0031694585
0.0031458298
0.0031216736
0.0030969444
0.0030716272
0.0030456971
0.0030191238
0.0029918791
0.0029639307
0.0029352473
0.0029057984
0.0028755306
0.002844393
0.0028123462
0.0027793399
0.0027453197
0.0027102324
0.0026740114
0.0026366032
0.0025979324
0.0025578999
0.0025164324
0.0024734382
0.0024288175
0.0023824664
0.0023342636
0.002284096
0.0022318231
0.0021772744
0.0021202986
0.0020607163
0.0019983379
0.0019329504
0.0018643557
0.0017923003
0.001716516
0.0016371255
0.0015546499
0.0014709002
0.0013881452
0.001307025
0.0012274225
0.0011493575
0.0010728628
0.00099798573
0.00092480484
0.00085343237
0.00078401735
0.00071673677
0.00065182738
0.0005896196
0.00053052287
0.00047516278
0.00042416296
0.00037908328
0.00034027472
0.00031365115
0.00029265534
0.00043753319
-0.00039442139
0.011697624
0.011804159
0.012025595
0.012305015
0.012646002
0.013047804
0.013507172
0.014023283
0.014597738
0.015233853
0.01593664
0.016713305
0.017573751
0.018532131
0.019607125
0.020828789
0.022231665
0.023896133
0.025869367
0.028466604
0.031541716
0.036946724
0.041879022
0.082611716
0.052154278
0.0015749685
0.00079183514
0.0018687523
0.0023781339
0.0027990547
0.0030642326
0.0032549903
0.0033943725
0.0034918751
0.003560137
0.0036087902
0.0036434698
0.003667706
0.0036839715
0.0036942924
0.0037000396
0.0037020845
0.0037011921
0.0036979822
0.0036928486
0.0036860867
0.0036779754
0.0036687159
0.003658487
0.003647409
0.0036355633
0.0036230423
0.003609913
0.003596236
0.0035820704
0.0035674393
0.0035523594
0.0035368587
0.0035209578
0.0035046695
0.0034880087
0.0034709922
0.0034536125
0.003435861
0.003417743
0.0033992561
0.0033803983
0.0033611635
0.0033415504
0.0033215574
0.0033011592
0.0032803375
0.0032590852
0.0032373882
0.0032152302
0.0031925984
0.0031694713
0.003145842
0.0031216854
0.0030969556
0.0030716379
0.0030457074
0.0030191336
0.0029918885
0.0029639397
0.0029352558
0.0029058066
0.0028755384
0.0028444005
0.0028123533
0.0027793467
0.0027453263
0.0027102387
0.0026740174
0.0026366088
0.0025979378
0.002557905
0.0025164373
0.0024734429
0.0024288219
0.0023824706
0.0023342676
0.0022840998
0.0022318267
0.0021772778
0.0021203019
0.0020607194
0.0019983409
0.0019329531
0.0018643583
0.0017923028
0.0017165183
0.0016371277
0.0015546519
0.0014709021
0.001388147
0.0013070267
0.0012274241
0.001149359
0.0010728643
0.00099798713
0.00092480618
0.00085343364
0.00078401857
0.00071673795
0.00065182851
0.00058962069
0.00053052392
0.0004751638
0.00042416395
0.00037908425
0.00034027567
0.00031365212
0.00029265628
0.00043753426
-0.00039442076
0.011697624
0.01180416
0.012025595
0.012305015
0.012646002
0.013047804
0.013507173
0.014023284
0.014597739
0.015233854
0.015936642
0.016713307
0.017573754
0.018532134
0.019607128
0.020828794
0.022231671
0.023896142
0.025869378
0.028466621
0.03154174
0.036946764
0.041879123
0.082600867
0.052181494
0.0015861955
0.00079528128
0.0018704111
0.0023791486
0.0027997715
0.0030647752
0.003255421
0.003394725
0.0034921703
0.003560389
0.0036090084
0.0036436609
0.0036678751
0.0036841223
0.0036944278
0.003700162
0.0037021957
0.0037012937
0.0036980753
0.0036929342
0.0036861658
0.0036780486
0.0036687839
0.0036585503
0.003647468
0.0036356185
0.0036230941
0.0036099616
0.0035962817
0.0035821134
0.0035674799
0.0035523976
0.0035368948
0.003520992
0.0035047019
0.0034880394
0.0034710214
0.0034536401
0.0034358873
0.003417768
0.0033992798
0.0033804209
0.003361185
0.0033415709
0.003321577
0.0033011779
0.0032803554
0.0032591022
0.0032374045
0.0032152457
0.0031926132
0.0031694855
0.0031458556
0.0031216983
0.003096968
0.0030716497
0.0030457187
0.0030191444
0.0029918989
0.0029639496
0.0029352653
0.0029058156
0.0028755471
0.0028444088
0.0028123612
0.0027793543
0.0027453335
0.0027102455
0.0026740239
0.0026366151
0.0025979438
0.0025579107
0.0025164427
0.0024734481
0.0024288268
0.0023824753
0.002334272
0.002284104
0.0022318307
0.0021772816
0.0021203055
0.0020607228
0.0019983441
0.0019329562
0.0018643612
0.0017923055
0.0017165209
0.00163713
0.0015546541
0.0014709042
0.001388149
0.0013070286
0.0012274259
0.0011493607
0.0010728659
0.00099798867
0.00092480765
0.00085343505
0.00078401992
0.00071673924
0.00065182976
0.00058962189
0.00053052508
0.00047516493
0.00042416505
0.00037908533
0.00034027673
0.00031365319
0.00029265731
0.00043753543
-0.00039442006
0.011697624
0.01180416
0.012025596
0.012305016
0.012646002
0.013047805
0.013507173
0.014023284
0.01459774
0.015233856
0.015936643
0.016713309
0.017573756
0.018532137
0.019607133
0.0208288
0.022231679
0.023896152
0.025869392
0.028466643
0.031541768
0.036946814
0.041879243
0.082588246
0.052210851
0.0015986233
0.00079910568
0.0018722523
0.0023802753
0.0028005674
0.0030653777
0.0032558993
0.0033951163
0.0034924981
0.0035606687
0.0036092506
0.0036438731
0.0036680628
0.0036842897
0.0036945782
0.0037002979
0.0037023192
0.0037014064
0.0036981786
0.0036930293
0.0036862535
0.0036781299
0.0036688593
0.0036586206
0.0036475336
0.0036356798
0.0036231515
0.0036100155
0.0035963324
0.0035821611
0.0035675248
0.0035524401
0.0035369349
0.0035210299
0.0035047379
0.0034880735
0.0034710537
0.0034536708
0.0034359164
0.0034177957
0.0033993063
0.003380446
0.003361209
0.0033415937
0.0033215988
0.0033011986
0.0032803752
0.0032591211
0.0032374225
0.0032152629
0.0031926297
0.0031695013
0.0031458706
0.0031217127
0.0030969817
0.0030716629
0.0030457313
0.0030191564
0.0029919104
0.0029639606
0.0029352758
0.0029058257
0.0028755567
0.0028444179
0.00281237
0.0027793626
0.0027453415
0.0027102532
0.0026740312
0.0026366221
0.0025979504
0.002557917
0.0025164488
0.0024734538
0.0024288323
0.0023824805
0.002334277
0.0022841087
0.0022318352
0.0021772858
0.0021203095
0.0020607266
0.0019983477
0.0019329596
0.0018643644
0.0017923085
0.0017165237
0.0016371327
0.0015546566
0.0014709065
0.0013881512
0.0013070307
0.0012274279
0.0011493626
0.0010728677
0.00099799039
0.00092480929
0.00085343662
0.00078402142
0.00071674068
0.00065183114
0.00058962322
0.00053052637
0.00047516618
0.00042416627
0.00037908652
0.0003402779
0.00031365437
0.00029265846
0.00043753674
-0.00039441929
0.011697624
0.01180416
0.012025596
0.012305016
0.012646003
0.013047805
0.013507174
0.014023285
0.014597742
0.015233857
0.015936645
0.016713311
0.01757376
0.018532141
0.019607138
0.020828807
0.022231688
0.023896165
0.025869409
0.028466668
0.031541802
0.036946873
0.041879384
0.082573485
0.052242511
0.0016124328
0.00080336496
0.0018743034
0.0023815308
0.0028014542
0.003066049
0.0032564322
0.0033955523
0.0034928633
0.0035609804
0.0036095205
0.0036441096
0.0036682719
0.0036844762
0.0036947457
0.0037004493
0.0037024567
0.0037015319
0.0036982937
0.0036931352
0.0036863513
0.0036782204
0.0036689434
0.0036586988
0.0036476067
0.0036357482
0.0036232155
0.0036100756
0.0035963888
0.0035822143
0.003567575
0.0035524874
0.0035369796
0.0035210722
0.0035047779
0.0034881115
0.0034710898
0.003453705
0.0034359489
0.0034178266
0.0033993357
0.0033804741
0.0033612357
0.0033416192
0.003321623
0.0033012218
0.0032803973
0.0032591422
0.0032374427
0.0032152822
0.0031926481
0.0031695188
0.0031458874
0.0031217288
0.0030969971
0.0030716775
0.0030457453
0.0030191698
0.0029919232
0.0029639728
0.0029352875
0.0029058369
0.0028755674
0.0028444282
0.0028123797
0.002779372
0.0027453504
0.0027102617
0.0026740393
0.0026366298
0.0025979578
0.0025579241
0.0025164555
0.0024734602
0.0024288384
0.0023824862
0.0023342825
0.0022841139
0.0022318401
0.0021772905
0.002120314
0.0020607308
0.0019983517
0.0019329633
0.0018643679
0.0017923119
0.0017165269
0.0016371357
0.0015546594
0.0014709092
0.0013881537
0.001307033
0.0012274301
0.0011493647
0.0010728697
0.0009979923
0.00092481111
0.00085343836
0.00078402309
0.00071674229
0.00065183268
0.00058962471
0.00053052781
0.00047516757
0.00042416762
0.00037908785
0.00034027921
0.0003136557
0.00029265974
0.0004375382
-0.00039441843
0.011697624
0.01180416
0.012025596
0.012305017
0.012646003
0.013047806
0.013507175
0.014023286
0.014597743
0.015233859
0.015936648
0.016713314
0.017573764
0.018532146
0.019607145
0.020828815
0.0222317
0.02389618
0.025869428
0.028466698
0.031541843
0.036946944
0.041879551
0.08255614
0.052276598
0.0016278281
0.00080812213
0.0018765948
0.0023829338
0.0028024452
0.0030667991
0.0032570276
0.0033960395
0.0034932714
0.0035613286
0.0036098221
0.0036443737
0.0036685055
0.0036846846
0.0036949329
0.0037006184
0.0037026104
0.0037016722
0.0036984223
0.0036932535
0.0036864606
0.0036783216
0.0036690374
0.0036587863
0.0036476883
0.0036358245
0.003623287
0.0036101427
0.0035964519
0.0035822737
0.0035676309
0.0035525402
0.0035370296
0.0035211195
0.0035048227
0.0034881539
0.00347113
0.0034537433
0.0034359853
0.0034178612
0.0033993685
0.0033805053
0.0033612655
0.0033416476
0.0033216501
0.0033012476
0.0032804219
0.0032591657
0.0032374651
0.0032153036
0.0031926686
0.0031695384
0.0031459061
0.0031217467
0.0030970142
0.0030716939
0.0030457609
0.0030191848
0.0029919375
0.0029639865
0.0029353006
0.0029058494
0.0028755793
0.0028444396
0.0028123906
0.0027793824
0.0027453603
0.0027102712
0.0026740484
0.0026366385
0.002597966
0.0025579319
0.002516463
0.0024734673
0.0024288452
0.0023824927
0.0023342886
0.0022841198
0.0022318457
0.0021772958
0.0021203189
0.0020607355
0.0019983561
0.0019329676
0.0018643719
0.0017923156
0.0017165304
0.001637139
0.0015546625
0.0014709121
0.0013881564
0.0013070357
0.0012274326
0.0011493671
0.001072872
0.00099799443
0.00092481315
0.00085344031
0.00078402496
0.00071674408
0.00065183441
0.00058962637
0.00053052941
0.00047516913
0.00042416914
0.00037908934
0.00034028067
0.00031365718
0.00029266117
0.00043753983
-0.00039441747
0.011697624
0.01180416
0.012025597
0.012305017
0.012646004
0.013047807
0.013507176
0.014023288
0.014597745
0.015233861
0.015936651
0.016713318
0.017573768
0.018532152
0.019607153
0.020828825
0.022231713
0.023896198
0.025869451
0.028466733
0.03154189
0.036947025
0.041879748
0.082535679
0.052313183
0.0016450412
0.00081344759
0.0018791605
0.0023845055
0.0028035552
0.0030676394
0.0032576946
0.0033965852
0.0034937284
0.0035617187
0.0036101598
0.0036446696
0.0036687672
0.003684918
0.0036951425
0.0037008079
0.0037027825
0.0037018293
0.0036985663
0.0036933861
0.0036865829
0.0036784349
0.0036691426
0.0036588843
0.0036477797
0.00363591
0.0036233671
0.0036102179
0.0035965226
0.0035823402
0.0035676937
0.0035525994
0.0035370855
0.0035211724
0.0035048728
0.0034882015
0.0034711751
0.0034537861
0.0034360259
0.0034178999
0.0033994054
0.0033805404
0.0033612989
0.0033416794
0.0033216804
0.0033012766
0.0032804496
0.0032591921
0.0032374903
0.0032153277
0.0031926916
0.0031695604
0.0031459271
0.0031217667
0.0030970334
0.0030717122
0.0030457784
0.0030192016
0.0029919535
0.0029640018
0.0029353152
0.0029058634
0.0028755927
0.0028444524
0.0028124029
0.0027793941
0.0027453715
0.0027102818
0.0026740586
0.0026366482
0.0025979753
0.0025579408
0.0025164714
0.0024734753
0.0024288528
0.0023824999
0.0023342955
0.0022841263
0.0022318519
0.0021773017
0.0021203245
0.0020607408
0.0019983611
0.0019329723
0.0018643764
0.0017923198
0.0017165343
0.0016371427
0.001554666
0.0014709154
0.0013881595
0.0013070386
0.0012274354
0.0011493697
0.0010728745
0.00099799682
0.00092481543
0.00085344249
0.00078402705
0.00071674608
0.00065183634
0.00058962823
0.00053053121
0.00047517087
0.00042417083
0.000379091
0.0003402823
0.00031365883
0.00029266276
0.00043754165
-0.0003944164
0.011697624
0.011804161
0.012025597
0.012305018
0.012646005
0.013047808
0.013507177
0.014023289
0.014597747
0.015233864
0.015936654
0.016713322
0.017573774
0.018532159
0.019607162
0.020828837
0.022231728
0.023896219
0.025869478
0.028466774
0.031541944
0.036947119
0.041879979
0.082511463
0.052352268
0.0016643381
0.00081942018
0.0018820387
0.0023862694
0.0028048009
0.0030685823
0.003258443
0.0033971976
0.0034942413
0.0035621563
0.0036105388
0.0036450015
0.0036690608
0.0036851798
0.0036953777
0.0037010204
0.0037029756
0.0037020056
0.0036987279
0.0036935348
0.0036867202
0.0036785621
0.0036692607
0.0036589942
0.0036478823
0.0036360059
0.0036234569
0.0036103022
0.0035966018
0.0035824148
0.003567764
0.0035526658
0.0035371483
0.0035212318
0.0035049291
0.0034882548
0.0034712257
0.0034538341
0.0034360716
0.0034179433
0.0033994467
0.0033805797
0.0033613363
0.0033417151
0.0033217145
0.003301309
0.0032804805
0.0032592217
0.0032375186
0.0032153547
0.0031927174
0.003169585
0.0031459507
0.0031217892
0.0030970549
0.0030717328
0.0030457981
0.0030192204
0.0029919715
0.002964019
0.0029353317
0.0029058791
0.0028756077
0.0028444667
0.0028124166
0.0027794072
0.002745384
0.0027102938
0.00267407
0.002636659
0.0025979856
0.0025579506
0.0025164808
0.0024734843
0.0024288613
0.0023825081
0.0023343032
0.0022841337
0.0022318588
0.0021773083
0.0021203308
0.0020607467
0.0019983667
0.0019329776
0.0018643814
0.0017923245
0.0017165388
0.0016371468
0.0015546699
0.0014709191
0.001388163
0.0013070419
0.0012274385
0.0011493727
0.0010728773
0.0009979995
0.00092481799
0.00085344494
0.00078402939
0.00071674834
0.0006518385
0.00058963032
0.00053053323
0.00047517283
0.00042417274
0.00037909286
0.00034028414
0.00031366069
0.00029266456
0.0004375437
-0.00039441519
0.011697624
0.011804161
0.012025598
0.012305018
0.012646005
0.013047809
0.013507179
0.014023291
0.014597749
0.015233867
0.015936658
0.016713327
0.01757378
0.018532168
0.019607172
0.020828851
0.022231745
0.023896243
0.025869509
0.028466819
0.031542007
0.036947223
0.041880251
0.08248272
0.052393753
0.0016860274
0.00082612839
0.0018852721
0.002388252
0.0028062009
0.0030696421
0.003259284
0.0033978857
0.0034948176
0.0035626481
0.0036109646
0.0036453745
0.0036693907
0.003685474
0.0036956419
0.0037012592
0.0037031926
0.0037022037
0.0036989095
0.0036937019
0.0036868745
0.0036787049
0.0036693934
0.0036591177
0.0036479975
0.0036361136
0.0036235579
0.0036103969
0.0035966909
0.0035824987
0.0035678431
0.0035527405
0.0035372188
0.0035212985
0.0035049923
0.0034883147
0.0034712825
0.0034538881
0.0034361229
0.003417992
0.0033994931
0.0033806239
0.0033613784
0.0033417552
0.0033217527
0.0033013455
0.0032805154
0.0032592549
0.0032375503
0.003215385
0.0031927463
0.0031696127
0.0031459771
0.0031218145
0.0030970791
0.0030717559
0.0030458202
0.0030192415
0.0029919917
0.0029640383
0.0029353502
0.0029058967
0.0028756246
0.0028444828
0.002812432
0.0027794219
0.002745398