/*--------------------------------*- C++ -*----------------------------------*\
| =========                 |                                                 |
| \\      /  F ield         | OpenFOAM: The Open Source CFD Toolbox           |
|  \\    /   O peration     | Version:  2206                                  |
|   \\  /    A nd           | Website:  www.openfoam.com                      |
|    \\/     M anipulation  |                                                 |
\*---------------------------------------------------------------------------*/
FoamFile
{
    version     2.0;
    format      ascii;
    arch        "LSB;label=32;scalar=64";
    class       surfaceScalarField;
    location    "1800";
    object      phi;
}
// * * * * * * * * * * * * * * * * * * * * * * * * * * * * * * * * * * * * * //

dimensions      [0 3 -1 0 0 0 0];

oriented        oriented;

internalField   nonuniform List<scalar> 
25880
(
2.0046185e-06
3.5653791e-11
2.004534e-06
8.4467379e-11
2.0044282e-06
1.0579689e-10
2.0043081e-06
1.2016719e-10
2.0041694e-06
1.3864402e-10
2.0040102e-06
1.5918967e-10
2.0038282e-06
1.820719e-10
2.0036196e-06
2.0852169e-10
2.0033801e-06
2.3958211e-10
2.0031037e-06
2.7635295e-10
2.0027834e-06
3.2027527e-10
2.0024099e-06
3.735427e-10
2.001971e-06
4.3887102e-10
2.0014494e-06
5.2164061e-10
2.0008232e-06
6.2617439e-10
2.0000519e-06
7.7128064e-10
1.9990983e-06
9.5360046e-10
1.9978274e-06
1.2709169e-09
1.9962248e-06
1.6025966e-09
1.9936494e-06
2.5754299e-09
1.9904448e-06
3.2045555e-09
1.9829098e-06
7.5350225e-09
1.9797635e-06
3.1463158e-09
9.9458133e-07
9.8518214e-07
4.3906854e-09
9.9019065e-07
2.109191e-09
2.2814943e-09
1.5979368e-09
5.1125423e-10
1.3501289e-09
2.4780784e-10
1.1974967e-09
1.5263227e-10
1.0886577e-09
1.0883902e-10
1.0054933e-09
8.3164381e-11
9.3882413e-10
6.6669142e-11
8.8373019e-10
5.509394e-11
8.3711024e-10
4.6619948e-11
7.9690302e-10
4.0207227e-11
7.6171125e-10
3.5191761e-11
7.3054335e-10
3.1167904e-11
7.0266332e-10
2.7880035e-11
6.7750983e-10
2.5153484e-11
6.5464949e-10
2.2860337e-11
6.3373987e-10
2.0909628e-11
6.1450505e-10
1.9234812e-11
5.9672295e-10
1.7782108e-11
5.8021022e-10
1.6512728e-11
5.6481358e-10
1.5396635e-11
5.5040477e-10
1.4408811e-11
5.3687495e-10
1.3529819e-11
5.241314e-10
1.2743554e-11
5.1209464e-10
1.2036755e-11
5.0069598e-10
1.1398663e-11
4.8987538e-10
1.0820606e-11
4.7958027e-10
1.0295107e-11
4.6976444e-10
9.8158246e-12
4.6038713e-10
9.3773132e-12
4.5141237e-10
8.9747626e-12
4.4280807e-10
8.6042982e-12
4.3454534e-10
8.2627287e-12
4.2659826e-10
7.9470856e-12
4.1894351e-10
7.654746e-12
4.1155999e-10
7.3835163e-12
4.0442863e-10
7.1313637e-12
3.9753223e-10
6.8963951e-12
3.9085508e-10
6.6771539e-12
3.8438264e-10
6.4724372e-12
3.7810163e-10
6.2810124e-12
3.7199988e-10
6.1017545e-12
3.6606616e-10
5.9337142e-12
3.602901e-10
5.7760588e-12
3.5466218e-10
5.6279213e-12
3.491737e-10
5.4884815e-12
3.4381648e-10
5.3572233e-12
3.3858278e-10
5.2337016e-12
3.3346543e-10
5.1173458e-12
3.2845777e-10
5.0076574e-12
3.2355356e-10
4.9042171e-12
3.187469e-10
4.8066542e-12
3.1403228e-10
4.7146234e-12
3.0940463e-10
4.6276445e-12
3.0485922e-10
4.5454118e-12
3.0039136e-10
4.4678652e-12
2.9599661e-10
4.39475e-12
2.9167085e-10
4.3257584e-12
2.8741014e-10
4.2607054e-12
2.8321073e-10
4.1994115e-12
2.7906901e-10
4.1417203e-12
2.7498159e-10
4.0874197e-12
2.7094532e-10
4.0362761e-12
2.6695707e-10
3.9882418e-12
2.6301377e-10
3.9432996e-12
2.5911248e-10
3.9012968e-12
2.5525036e-10
3.8621129e-12
2.5142469e-10
3.8256695e-12
2.4763279e-10
3.7919031e-12
2.4387203e-10
3.7607589e-12
2.4013996e-10
3.7320685e-12
2.3643419e-10
3.7057765e-12
2.327522e-10
3.6819855e-12
2.2909155e-10
3.6606492e-12
2.2544986e-10
3.6416976e-12
2.2182473e-10
3.6251265e-12
2.1821379e-10
3.6109439e-12
2.1461462e-10
3.5991655e-12
2.110249e-10
3.5897184e-12
2.0744228e-10
3.5826263e-12
2.0386424e-10
3.5780368e-12
2.0028825e-10
3.5759928e-12
1.9671172e-10
3.5765231e-12
1.9313197e-10
3.5797558e-12
1.8954617e-10
3.5858004e-12
1.8595145e-10
3.5947124e-12
1.8234423e-10
3.6072202e-12
1.7872219e-10
3.6220453e-12
1.7508326e-10
3.6389261e-12
1.7157579e-10
3.5074726e-12
1.6827159e-10
3.3042008e-12
1.6515097e-10
3.1206239e-12
1.621991e-10
2.9518676e-12
1.5940212e-10
2.7969761e-12
1.5674677e-10
2.6553514e-12
1.5422109e-10
2.5256844e-12
1.5181426e-10
2.4068302e-12
1.4951647e-10
2.2977891e-12
1.4731882e-10
2.197647e-12
1.4521318e-10
2.1056445e-12
1.431919e-10
2.0212752e-12
1.4124772e-10
1.9441778e-12
1.393735e-10
1.8742225e-12
1.3756219e-10
1.8113141e-12
1.3580578e-10
1.7564029e-12
1.3409652e-10
1.7092651e-12
1.3242082e-10
1.6756935e-12
1.3077307e-10
1.647759e-12
1.2910306e-10
1.6700054e-12
1.2749066e-10
1.6124016e-12
1.2565509e-10
1.8355667e-12
1.0855424e-12
2.0344918e-06
7.1905708e-11
2.0344059e-06
1.7036528e-10
2.0342983e-06
2.1339867e-10
2.0341761e-06
2.423867e-10
2.0340351e-06
2.7965457e-10
2.0338732e-06
3.2109449e-10
2.033688e-06
3.6724604e-10
2.0334759e-06
4.2059177e-10
2.0332323e-06
4.8323524e-10
2.0329512e-06
5.5739422e-10
2.0326255e-06
6.4597461e-10
2.0322457e-06
7.533998e-10
2.0317994e-06
8.8514587e-10
2.031269e-06
1.0520622e-09
2.0306323e-06
1.2628647e-09
2.0298481e-06
1.5554799e-09
2.0288786e-06
1.9231287e-09
2.0275865e-06
2.5629867e-09
2.0259573e-06
3.2317837e-09
2.0233394e-06
5.1933461e-09
2.020082e-06
6.4619157e-09
2.0124233e-06
1.5193761e-08
2.0092205e-06
6.3490808e-09
1.0157876e-06
1.978615e-06
1.339665e-08
1.9925816e-06
6.4536101e-09
9.2245342e-09
4.8894911e-09
2.0753732e-09
4.1312379e-09
1.0060611e-09
3.6641855e-09
6.1968461e-10
3.3311398e-09
4.4188477e-10
3.0766602e-09
3.3764398e-10
2.8726573e-09
2.7067201e-10
2.7040739e-09
2.2367736e-10
2.5614212e-09
1.8927261e-10
2.4383916e-09
1.6323688e-10
2.3307091e-09
1.4287418e-10
2.2353395e-09
1.2653755e-10
2.1500305e-09
1.1318905e-10
2.0730645e-09
1.0211949e-10
2.0031153e-09
9.2809532e-11
1.939135e-09
8.48899e-11
1.8802795e-09
7.8090317e-11
1.8258691e-09
7.2192509e-11
1.7753428e-09
6.7039034e-11
1.7282316e-09
6.2507841e-11
1.684143e-09
5.8497415e-11
1.642744e-09
5.4928837e-11
1.6037508e-09
5.1736719e-11
1.5669203e-09
4.8867222e-11
1.5320423e-09
4.627667e-11
1.4989331e-09
4.3929848e-11
1.4674318e-09
4.1796406e-11
1.437397e-09
3.9850596e-11
1.408704e-09
3.807031e-11
1.3812428e-09
3.6436021e-11
1.3549151e-09
3.4931997e-11
1.3296325e-09
3.3545281e-11
1.3053158e-09
3.2263823e-11
1.2818935e-09
3.1076972e-11
1.2593012e-09
2.9975824e-11
1.2374805e-09
2.8952127e-11
1.2163787e-09
2.7998194e-11
1.1959477e-09
2.7108113e-11
1.1761432e-09
2.6276998e-11
1.1569243e-09
2.5499845e-11
1.138254e-09
2.4772088e-11
1.1200978e-09
2.4089873e-11
1.1024241e-09
2.3449819e-11
1.0852036e-09
2.2848406e-11
1.0684098e-09
2.2282305e-11
1.0520176e-09
2.1749419e-11
1.0360033e-09
2.1247942e-11
1.0203451e-09
2.0775558e-11
1.0050225e-09
2.0330241e-11
9.9001646e-10
1.9910292e-11
9.7530891e-10
1.9514203e-11
9.6088296e-10
1.9140573e-11
9.4672315e-10
1.8787454e-11
9.3281496e-10
1.8453604e-11
9.1914404e-10
1.8138779e-11
9.0569685e-10
1.7841943e-11
8.9246076e-10
1.7561849e-11
8.7942372e-10
1.7297745e-11
8.6657423e-10
1.7048903e-11
8.5390126e-10
1.6814686e-11
8.4139445e-10
1.6594235e-11
8.2904412e-10
1.6386601e-11
8.1684077e-10
1.619159e-11
8.0477494e-10
1.6009133e-11
7.9283763e-10
1.5838609e-11
7.8102021e-10
1.5679529e-11
7.6931431e-10
1.5531575e-11
7.5771172e-10
1.539449e-11
7.4620443e-10
1.5268049e-11
7.3478493e-10
1.5151571e-11
7.2344587e-10
1.5044831e-11
7.1217961e-10
1.4948243e-11
7.0097864e-10
1.4861622e-11
6.8983566e-10
1.4784682e-11
6.7874338e-10
1.4717406e-11
6.6769449e-10
1.4659827e-11
6.5668165e-10
1.4612009e-11
6.4569771e-10
1.4573655e-11
6.3473548e-10
1.4544863e-11
6.2378728e-10
1.452623e-11
6.1284535e-10
1.4517932e-11
6.0190178e-10
1.4520085e-11
5.9094833e-10
1.4533209e-11
5.7997638e-10
1.4557749e-11
5.6897717e-10
1.459393e-11
5.5793968e-10
1.4644708e-11
5.4685683e-10
1.4704894e-11
5.3572232e-10
1.4773437e-11
5.2499002e-10
1.4239766e-11
5.1487972e-10
1.3414506e-11
5.0533114e-10
1.2669207e-11
4.9629892e-10
1.1984085e-11
4.8774064e-10
1.1355251e-11
4.7961572e-10
1.0780278e-11
4.7188755e-10
1.0253851e-11
4.6452306e-10
9.7713222e-12
4.5749222e-10
9.3286322e-12
4.5076779e-10
8.9220704e-12
4.4432488e-10
8.5485534e-12
4.3814013e-10
8.206025e-12
4.3219129e-10
7.8930181e-12
4.2645651e-10
7.6090057e-12
4.2091422e-10
7.3536005e-12
4.1553997e-10
7.13066e-12
4.1030996e-10
6.9392729e-12
4.0518269e-10
6.8029577e-12
4.0014094e-10
6.6895119e-12
3.9503116e-10
6.7797857e-12
3.900983e-10
6.5452585e-12
3.8447751e-10
7.4563599e-12
4.4000641e-12
2.0946837e-06
1.0931771e-10
2.094595e-06
2.5903027e-10
2.0944839e-06
3.244845e-10
2.0943577e-06
3.6856663e-10
2.0942122e-06
4.2523264e-10
2.094045e-06
4.8824084e-10
2.0938539e-06
5.5841079e-10
2.0936349e-06
6.395165e-10
2.0933834e-06
7.3475592e-10
2.0930933e-06
8.4750025e-10
2.0927571e-06
9.8216649e-10
2.092365e-06
1.1454783e-09
2.0919044e-06
1.3457591e-09
2.091357e-06
1.5995002e-09
2.0906999e-06
1.9199473e-09
2.0898906e-06
2.3647505e-09
2.0888902e-06
2.9235932e-09
2.087557e-06
3.896186e-09
2.085876e-06
4.9127173e-09
2.0831753e-06
7.8940999e-09
2.079815e-06
9.8222242e-09
2.0719147e-06
2.3094071e-08
2.0686056e-06
9.6581035e-09
1.0525161e-06
2.9947046e-06
2.3163849e-08
3.0219339e-06
1.1183975e-08
2.1204409e-08
8.473642e-09
4.7857057e-09
7.1596011e-09
2.320102e-09
6.3501551e-09
1.4291306e-09
5.7729595e-09
1.0190804e-09
5.3319272e-09
7.7867628e-10
4.9783778e-09
6.2422133e-10
4.6862132e-09
5.1584201e-10
4.4389891e-09
4.3649675e-10
4.2257736e-09
3.7645237e-10
4.0391561e-09
3.2949165e-10
3.8738775e-09
2.9181617e-10
3.7260345e-09
2.6103201e-10
3.5926505e-09
2.3550355e-10
3.4714269e-09
2.1403314e-10
3.3605476e-09
1.9576917e-10
3.2585498e-09
1.8008812e-10
3.1642555e-09
1.6648677e-10
3.0766925e-09
1.546021e-10
2.9950479e-09
1.4415242e-10
2.9186415e-09
1.3490375e-10
2.8468963e-09
1.2667405e-10
2.7793205e-09
1.1931253e-10
2.7154927e-09
1.1269504e-10
2.6550485e-09
1.0672083e-10
2.5976697e-09
1.013087e-10
2.5430774e-09
9.6388665e-11
2.4910267e-09
9.1901336e-11
2.4413013e-09
8.7795729e-11
2.3937105e-09
8.4026816e-11
2.3480842e-09
8.0558316e-11
2.3042691e-09
7.7360343e-11
2.2621278e-09
7.440511e-11
2.2215367e-09
7.1668058e-11
2.1823839e-09
6.9128649e-11
2.1445682e-09
6.6767852e-11
2.1079984e-09
6.4567945e-11
2.0725912e-09
6.2515288e-11
2.0382696e-09
6.0598615e-11
2.0049631e-09
5.8806387e-11
1.9726071e-09
5.7128074e-11
1.9411422e-09
5.5554787e-11
1.9105133e-09
5.4078727e-11
1.8806699e-09
5.2691781e-11
1.8515659e-09
5.1386271e-11
1.823158e-09
5.015736e-11
1.7954051e-09
4.9000882e-11
1.7682691e-09
4.7911494e-11
1.7417148e-09
4.688453e-11
1.7157091e-09
4.5916065e-11
1.6902206e-09
4.5002627e-11
1.6652202e-09
4.4140982e-11
1.640681e-09
4.3326639e-11
1.6165779e-09
4.2556734e-11
1.592886e-09
4.1830701e-11
1.5695818e-09
4.1146155e-11
1.5466434e-09
4.0500218e-11
1.52405e-09
3.9891156e-11
1.5017816e-09
3.9317289e-11
1.4798191e-09
3.8777152e-11
1.4581446e-09
3.826876e-11
1.4367413e-09
3.7789927e-11
1.4155927e-09
3.7340205e-11
1.3946824e-09
3.6919431e-11
1.3739948e-09
3.6526179e-11
1.353515e-09
3.6159317e-11
1.3332285e-09
3.5818115e-11
1.313121e-09
3.5501976e-11
1.2931787e-09
3.5210386e-11
1.2733885e-09
3.4941772e-11
1.2537377e-09
3.4695614e-11
1.234213e-09
3.4472869e-11
1.2148016e-09
3.4273107e-11
1.1954906e-09
3.4095672e-11
1.1762674e-09
3.3940526e-11
1.1571195e-09
3.380774e-11
1.1380341e-09
3.3697465e-11
1.1189987e-09
3.3609016e-11
1.100001e-09
3.3542618e-11
1.0810275e-09
3.3499649e-11
1.062065e-09
3.3480512e-11
1.0430996e-09
3.3485477e-11
1.024117e-09
3.3515743e-11
1.0051025e-09
3.3572336e-11
9.8604061e-10
3.3655775e-11
9.6691244e-10
3.3772876e-11
9.4770566e-10
3.3911672e-11
9.2840934e-10
3.4069761e-11
9.0981005e-10
3.2839048e-11
8.922887e-10
3.0935862e-11
8.7574083e-10
2.9217078e-11
8.6008783e-10
2.7637083e-11
8.4525618e-10
2.6186901e-11
8.3117553e-10
2.4860927e-11
8.1778247e-10
2.3646908e-11
8.0501967e-10
2.2534123e-11
7.9283509e-10
2.1513211e-11
7.8118155e-10
2.0575616e-11
7.7001588e-10
1.9714226e-11
7.592976e-10
1.8924299e-11
7.4898817e-10
1.8202451e-11
7.3904971e-10
1.7547466e-11
7.2944486e-10
1.695845e-11
7.2013122e-10
1.6444296e-11
7.1106759e-10
1.6002901e-11
7.0218206e-10
1.5688495e-11
6.9344475e-10
1.5426821e-11
6.8458966e-10
1.5634871e-11
6.760416e-10
1.5093317e-11
6.6629777e-10
1.7200193e-11
1.0139425e-11
2.1860911e-06
1.4847506e-10
2.1859982e-06
3.5185572e-10
2.1858819e-06
4.4080628e-10
2.1857498e-06
5.0069802e-10
2.1855973e-06
5.7767474e-10
2.1854223e-06
6.6326456e-10
2.1852222e-06
7.5857929e-10
2.1849929e-06
8.6874453e-10
2.1847296e-06
9.9810357e-10
2.1844258e-06
1.1512344e-09
2.1840739e-06
1.334135e-09
2.1836634e-06
1.5559354e-09
2.1831812e-06
1.8279373e-09
2.1826082e-06
2.1725345e-09
2.1819204e-06
2.6077096e-09
2.1810734e-06
3.211747e-09
2.1800264e-06
3.9706183e-09
2.1786313e-06
5.2913018e-09
2.1768725e-06
6.6715685e-09
2.1740469e-06
1.0719634e-08
2.1705315e-06
1.3337628e-08
2.1622672e-06
3.1358357e-08
2.158799e-06
1.3126326e-08
1.1056194e-06
4.0478842e-06
3.4270303e-08
4.093283e-06
1.6583258e-08
3.8891454e-08
1.2564819e-08
8.8041445e-09
1.0616417e-08
4.2685042e-09
9.4161114e-09
2.6294358e-09
8.5602137e-09
1.8749781e-09
7.906228e-09
1.432662e-09
7.3819713e-09
1.1484781e-09
6.9487392e-09
9.4907407e-10
6.5821479e-09
8.0308804e-10
6.2659871e-09
6.9261318e-10
5.9892674e-09
6.0621135e-10
5.7441899e-09
5.368937e-10
5.5249666e-09
4.802553e-10
5.3271834e-09
4.3328673e-10
5.1474321e-09
3.9378447e-10
4.9830195e-09
3.6018174e-10
4.8317766e-09
3.31331e-10
4.6919567e-09
3.063067e-10
4.5621178e-09
2.8444102e-10
4.4410549e-09
2.6521532e-10
4.3277593e-09
2.4819931e-10
4.2213753e-09
2.3305807e-10
4.1211737e-09
2.1951413e-10
4.0265297e-09
2.0733908e-10
3.9369029e-09
1.9634758e-10
3.8518214e-09
1.863902e-10
3.7708719e-09
1.7733819e-10
3.6936909e-09
1.6908228e-10
3.619958e-09
1.6152868e-10
3.5493903e-09
1.5459455e-10
3.4817355e-09
1.4821312e-10
3.4167664e-09
1.4232941e-10
3.3542792e-09
1.368923e-10
3.2940906e-09
1.3185661e-10
3.2360347e-09
1.2718455e-10
3.1799615e-09
1.228411e-10
3.1257358e-09
1.1879366e-10
3.0732339e-09
1.1501714e-10
3.0223418e-09
1.114908e-10
2.9729547e-09
1.0819342e-10
2.9249772e-09
1.0510562e-10
2.8783209e-09
1.0221105e-10
2.8329043e-09
9.949536e-11
2.7886524e-09
9.6943625e-11
2.745497e-09
9.4541721e-11
2.7033736e-09
9.2280745e-11
2.6622215e-09
9.015303e-11
2.6219842e-09
8.814875e-11
2.5826094e-09
8.625932e-11
2.544048e-09
8.4477517e-11
2.5062536e-09
8.2796954e-11
2.4691829e-09
8.121168e-11
2.4327961e-09
7.9713434e-11
2.3970559e-09
7.8296949e-11
2.3619255e-09
7.6961177e-11
2.3273699e-09
7.5701734e-11
2.2933568e-09
7.4513327e-11
2.2598552e-09
7.339276e-11
2.2268355e-09
7.2336948e-11
2.1942695e-09
7.1343193e-11
2.1621304e-09
7.0407842e-11
2.1303934e-09
6.9526877e-11
2.0990342e-09
6.8699469e-11
2.0680283e-09
6.7925321e-11
2.0373526e-09
6.7201807e-11
2.0069851e-09
6.6526848e-11
1.9769041e-09
6.5899097e-11
1.9470887e-09
6.5317458e-11
1.9175181e-09
6.4780985e-11
1.888173e-09
6.4286784e-11
1.8590348e-09
6.3833899e-11
1.8300835e-09
6.3424089e-11
1.8013001e-09
6.3056564e-11
1.7726656e-09
6.2730117e-11
1.7441615e-09
6.2444675e-11
1.7157689e-09
6.2200375e-11
1.6874688e-09
6.1997488e-11
1.6592431e-09
6.1834761e-11
1.6310731e-09
6.1712602e-11
1.6029392e-09
6.1633548e-11
1.5748214e-09
6.1598341e-11
1.5466994e-09
6.1607478e-11
1.518552e-09
6.1663162e-11
1.490357e-09
6.1767285e-11
1.462092e-09
6.1920799e-11
1.4337286e-09
6.2136242e-11
1.4052487e-09
6.2391605e-11
1.3766359e-09
6.2682494e-11
1.3490568e-09
6.0418219e-11
1.323076e-09
5.6916661e-11
1.2985387e-09
5.3754374e-11
1.2753283e-09
5.0847457e-11
1.2533358e-09
4.8179376e-11
1.2324569e-09
4.5739815e-11
1.2125976e-09
4.350623e-11
1.1936728e-09
4.1458896e-11
1.1756055e-09
3.9580593e-11
1.1583255e-09
3.7855576e-11
1.141769e-09
3.6270761e-11
1.1258758e-09
3.4817423e-11
1.110589e-09
3.3489334e-11
1.0958522e-09
3.2284257e-11
1.0816101e-09
3.1200544e-11
1.0677998e-09
3.0254556e-11
1.0543603e-09
2.9442418e-11
1.0411849e-09
2.8863881e-11
1.0282294e-09
2.8382372e-11
1.0150994e-09
2.8764837e-11
1.0024249e-09
2.7767831e-11
9.8797494e-10
3.1650136e-11
1.8646991e-11
2.3100762e-06
1.8999748e-10
2.3099777e-06
4.5031895e-10
2.3098543e-06
5.6422337e-10
2.3097141e-06
6.4089439e-10
2.3095523e-06
7.394185e-10
2.3093666e-06
8.4896313e-10
2.3091543e-06
9.7094904e-10
2.3089111e-06
1.1119349e-09
2.3086317e-06
1.2774783e-09
2.3083095e-06
1.4734365e-09
2.3079362e-06
1.7074828e-09
2.3075008e-06
1.9912977e-09
2.3069894e-06
2.3393388e-09
2.3063817e-06
2.7802552e-09
2.3056523e-06
3.337047e-09
2.3047542e-06
4.1098671e-09
2.3036441e-06
5.0807392e-09
2.3021651e-06
6.7703232e-09
2.3003006e-06
8.5360108e-09
2.297306e-06
1.3714264e-08
2.2935804e-06
1.7063213e-08
2.2848229e-06
4.011586e-08
2.2811391e-06
1.681017e-08
1.1762316e-06
5.1527916e-06
4.7369182e-08
5.2221454e-06
2.2974431e-08
6.3286206e-08
1.74078e-08
1.4370776e-08
1.4708523e-08
6.9677808e-09
1.30455e-08
4.2924588e-09
1.1859669e-08
3.0608087e-09
1.0953586e-08
2.3387456e-09
1.0227246e-08
1.8748183e-09
9.6270188e-09
1.5493009e-09
9.1191222e-09
1.3109846e-09
8.6810969e-09
1.1306385e-09
8.2977167e-09
9.8959159e-10
7.9581758e-09
8.764346e-10
7.654455e-09
7.8397611e-10
7.3804386e-09
7.0730312e-10
7.1314045e-09
6.4281855e-10
6.9036214e-09
5.8796486e-10
6.6940843e-09
5.4086808e-10
6.5003731e-09
5.0001787e-10
6.3204899e-09
4.6432423e-10
6.1527654e-09
4.3293983e-10
5.995802e-09
4.0516268e-10
5.8484141e-09
3.8044592e-10
5.7095916e-09
3.5833665e-10
5.5784688e-09
3.3846196e-10
5.454297e-09
3.2051933e-10
5.3364224e-09
3.0426483e-10
5.2242723e-09
2.8948824e-10
5.1173434e-09
2.7601123e-10
5.0151914e-09
2.6368067e-10
4.9174246e-09
2.5236133e-10
4.8236935e-09
2.4194425e-10
4.7336833e-09
2.3233964e-10
4.6471115e-09
2.2346407e-10
4.5637243e-09
2.1524377e-10
4.4832918e-09
2.0761706e-10
4.4056061e-09
2.0052678e-10
4.3304801e-09
1.9391972e-10
4.2577423e-09
1.8775491e-10
4.1872346e-09
1.8199849e-10
4.1188122e-09
1.7661583e-10
4.0523425e-09
1.7157529e-10
3.9877034e-09
1.6685017e-10
3.9247817e-09
1.6241707e-10
3.8634737e-09
1.582516e-10
3.8036847e-09
1.5433072e-10
3.7453256e-09
1.506399e-10
3.688312e-09
1.471666e-10
3.6325659e-09
1.438948e-10
3.5780148e-09
1.4081049e-10
3.5245904e-09
1.3790186e-10
3.4722289e-09
1.351585e-10
3.4208699e-09
1.3257069e-10
3.3704584e-09
1.3012495e-10
3.3209426e-09
1.2781267e-10
3.2722716e-09
1.2563215e-10
3.2243971e-09
1.2357623e-10
3.1772742e-09
1.2163627e-10
3.1308599e-09
1.1980705e-10
3.0851133e-09
1.1808354e-10
3.0399952e-09
1.1646133e-10
2.9954686e-09
1.1493446e-10
2.9514991e-09
1.1349637e-10
2.9080528e-09
1.1214571e-10
2.8650962e-09
1.1088198e-10
2.8225971e-09
1.0970092e-10
2.7805248e-09
1.0859911e-10
2.7388495e-09
1.0757437e-10
2.6975421e-09
1.066249e-10
2.6565739e-09
1.0574916e-10
2.6159183e-09
1.0494243e-10
2.575549e-09
1.0420314e-10
2.5354389e-09
1.0353417e-10
2.4955613e-09
1.0293422e-10
2.4558901e-09
1.0240133e-10
2.4163994e-09
1.0193537e-10
2.3770632e-09
1.0153658e-10
2.3378553e-09
1.0120539e-10
2.2987503e-09
1.0093975e-10
2.2597226e-09
1.0074034e-10
2.2207448e-09
1.006113e-10
2.1817893e-09
1.0055383e-10
2.142828e-09
1.0056875e-10
2.1038315e-09
1.0065965e-10
2.0647692e-09
1.0082963e-10
2.0256098e-09
1.0108023e-10
1.9863141e-09
1.0143192e-10
1.9468569e-09
1.0184878e-10
1.9072157e-09
1.0232369e-10
1.8690064e-09
9.8627499e-11
1.8330116e-09
9.2911481e-11
1.7990167e-09
8.7749293e-11
1.7668601e-09
8.3004008e-11
1.7363909e-09
7.864861e-11
1.7074645e-09
7.4666246e-11
1.6799506e-09
7.1020119e-11
1.6537315e-09
6.7678027e-11
1.6287002e-09
6.461186e-11
1.6047598e-09
6.1795914e-11
1.5818218e-09
5.9208835e-11
1.5598028e-09
5.6836373e-11
1.5386238e-09
5.4668365e-11
1.5182069e-09
5.2701153e-11
1.4984754e-09
5.0932048e-11
1.4793422e-09
4.9387745e-11
1.4607227e-09
4.8061924e-11
1.4424692e-09
4.7117363e-11
1.4245203e-09
4.6331239e-11
1.4063302e-09
4.695498e-11
1.3887711e-09
4.532691e-11
1.3687504e-09
5.1670827e-11
3.0431823e-11
2.4684866e-06
2.3455135e-10
2.4683809e-06
5.5601115e-10
2.4682484e-06
6.9674094e-10
2.4680979e-06
7.9143548e-10
2.4679242e-06
9.1309296e-10
2.4677248e-06
1.0483533e-09
2.4674968e-06
1.1989676e-09
2.4672357e-06
1.3730319e-09
2.4669358e-06
1.5774066e-09
2.4665899e-06
1.819321e-09
2.4661891e-06
2.1082449e-09
2.4657218e-06
2.4585934e-09
2.4651729e-06
2.8882076e-09
2.4645208e-06
3.4324441e-09
2.4637381e-06
4.119679e-09
2.4627745e-06
5.0735161e-09
2.4615835e-06
6.271727e-09
2.4599969e-06
8.3568687e-09
2.4579972e-06
1.0535753e-08
2.4547859e-06
1.6925525e-08
2.4507911e-06
2.1058049e-08
2.4414019e-06
4.9505085e-08
2.4374413e-06
2.0770733e-08
1.2658038e-06
6.3244291e-06
6.3226907e-08
6.4247223e-06
3.0739778e-08
9.5773335e-08
2.3292346e-08
2.1818208e-08
1.9680777e-08
1.0579349e-08
1.7455482e-08
6.5177546e-09
1.5868742e-08
4.6475486e-09
1.4656328e-08
3.551159e-09
1.3684436e-08
2.8467109e-09
1.2881294e-08
2.3524429e-09
1.2201698e-08
1.9905802e-09
1.1615597e-08
1.7167393e-09
1.1102616e-08
1.5025726e-09
1.0648295e-08
1.3307554e-09
1.0241904e-08
1.1903673e-09
9.8752595e-09
1.073948e-09
9.5420423e-09
9.7603566e-10
9.23726e-09
8.9274724e-10
8.9568918e-09
8.2123623e-10
8.6976995e-09
7.5921018e-10
8.4570094e-09
7.0501437e-10
8.2325881e-09
6.5736105e-10
8.0225658e-09
6.1518506e-10
7.8253558e-09
5.776559e-10
7.6396066e-09
5.4408588e-10
7.4641597e-09
5.1390881e-10
7.2980137e-09
4.8666535e-10
7.1402935e-09
4.6198506e-10
6.9902329e-09
4.395488e-10
6.8471583e-09
4.1908578e-10
6.7104755e-09
4.0036349e-10
6.5796602e-09
3.8317662e-10
6.4542448e-09
3.673597e-10
6.333808e-09
3.5277642e-10
6.217972e-09
3.3930007e-10
6.1063971e-09
3.2681866e-10
5.9987756e-09
3.1523854e-10
5.8948295e-09
3.0447292e-10
5.7943082e-09
2.9444101e-10
5.6969825e-09
2.8508059e-10
5.6026407e-09
2.7634026e-10
5.5110891e-09
2.6816742e-10
5.4221504e-09
2.6051406e-10
5.3356609e-09
2.5333962e-10
5.2514694e-09
2.4660856e-10
5.1694372e-09
2.4028387e-10
5.0894373e-09
2.3433056e-10
5.0113507e-09
2.2872655e-10
4.9350644e-09
2.2345283e-10
4.8604742e-09
2.1848506e-10
4.7874827e-09
2.1380195e-10
4.715999e-09
2.093856e-10
4.6459373e-09
2.0522019e-10
4.577217e-09
2.0129095e-10
4.5097646e-09
1.9757743e-10
4.4435107e-09
1.9406657e-10
4.3783871e-09
1.9075575e-10
4.3143292e-09
1.8763412e-10
4.2512769e-09
1.8468855e-10
4.1891728e-09
1.8191114e-10
4.1279621e-09
1.7929422e-10
4.0675923e-09
1.7683112e-10
4.008014e-09
1.7451278e-10
3.9491811e-09
1.7232924e-10
3.8910484e-09
1.7027845e-10
3.8335707e-09
1.6835967e-10
3.7767052e-09
1.6656638e-10
3.7204109e-09
1.6489345e-10
3.6646478e-09
1.6333752e-10
3.6093768e-09
1.6189588e-10
3.5545597e-09
1.6056619e-10
3.5001609e-09
1.5934129e-10
3.4461452e-09
1.5821879e-10
3.3924764e-09
1.5720305e-10
3.3391185e-09
1.5629211e-10
3.2860368e-09
1.5548299e-10
3.2331966e-09
1.5477551e-10
3.1805632e-09
1.5417e-10
3.1281015e-09
1.5366714e-10
3.0757774e-09
1.5326382e-10
3.0235567e-09
1.5296106e-10
2.9714029e-09
1.5276513e-10
2.9192788e-09
1.5267788e-10
2.867147e-09
1.5270054e-10
2.8149681e-09
1.5283857e-10
2.7627011e-09
1.5309666e-10
2.7103041e-09
1.5347718e-10
2.6577249e-09
1.5401118e-10
2.6049295e-09
1.5464414e-10
2.5518879e-09
1.5536531e-10
2.5007622e-09
1.4975319e-10
2.4525996e-09
1.4107411e-10
2.4071129e-09
1.3323595e-10
2.3640861e-09
1.2603086e-10
2.3233169e-09
1.1941777e-10
2.2846121e-09
1.1337108e-10
2.2477973e-09
1.0783491e-10
2.2127149e-09
1.0276038e-10
2.179222e-09
9.8104801e-11
2.1471887e-09
9.3829145e-11
2.1164966e-09
8.9900988e-11
2.0870343e-09
8.629869e-11
2.0586958e-09
8.3006819e-11
2.0313772e-09
8.0019817e-11
2.0049756e-09
7.7333597e-11
1.9793747e-09
7.4988678e-11
1.9544611e-09
7.2975468e-11
1.9300375e-09
7.1541026e-11
1.9060215e-09
7.0347251e-11
1.8816832e-09
7.1293277e-11
1.8581892e-09
6.8820857e-11
1.8313998e-09
7.8460196e-11
4.6199175e-11
2.6636831e-06
2.8286346e-10
2.6635684e-06
6.7067096e-10
2.6634246e-06
8.4055324e-10
2.6632612e-06
9.5481656e-10
2.6630727e-06
1.1015754e-09
2.6628563e-06
1.2647364e-09
2.6626089e-06
1.446407e-09
2.6623256e-06
1.65635e-09
2.6620002e-06
1.9028385e-09
2.6616249e-06
2.1945885e-09
2.6611901e-06
2.5430162e-09
2.6606832e-06
2.9655e-09
2.6600879e-06
3.4835457e-09
2.6593805e-06
4.1397777e-09
2.6585318e-06
4.9683924e-09
2.6574869e-06
6.1184027e-09
2.6561957e-06
7.56295e-09
2.6544759e-06
1.0076663e-08
2.6523085e-06
1.2703132e-08
2.648829e-06
2.0405099e-08
2.6445007e-06
2.5386345e-08
2.6343293e-06
5.9676474e-08
2.6300248e-06
2.5075173e-08
1.3761484e-06
7.5783056e-06
8.276685e-08
7.7181038e-06
4.0343752e-08
1.3819643e-07
3.0570539e-08
3.1591421e-08
2.583071e-08
1.5319179e-08
2.2909927e-08
9.4385373e-09
2.0827306e-08
6.7301697e-09
1.9235997e-08
5.1424683e-09
1.7960388e-08
4.12232e-09
1.6906267e-08
3.4065636e-09
1.6014304e-08
2.882543e-09
1.5245056e-08
2.4859871e-09
1.457178e-08
2.1758492e-09
1.3975495e-08
1.9270402e-09
1.3442118e-08
1.7237447e-09
1.2960907e-08
1.5551586e-09
1.252357e-08
1.4133728e-09
1.2123552e-08
1.2927646e-09
1.1755579e-08
1.1892101e-09
1.1415398e-08
1.0993912e-09
1.10995e-08
1.020912e-09
1.0804955e-08
9.5190617e-10
1.0529308e-08
8.9083216e-10
1.0270476e-08
8.3648712e-10
1.0026687e-08
7.8787525e-10
9.7964193e-09
7.4417667e-10
9.5783584e-09
7.0472617e-10
9.3713561e-09
6.6898736e-10
9.1744069e-09
6.3649805e-10
8.9866265e-09
6.0686613e-10
8.8072351e-09
5.7975493e-10
8.6355446e-09
5.5486715e-10
8.4709411e-09
5.3196315e-10
8.312872e-09
5.1084554e-10
8.1608412e-09
4.9133085e-10
8.014403e-09
4.7325691e-10
7.8731534e-09
4.5648809e-10
7.7367276e-09
4.4089873e-10
7.6047968e-09
4.2637183e-10
7.4770601e-09
4.1281731e-10
7.3532396e-09
4.0016071e-10
7.2330812e-09
3.8832588e-10
7.116352e-09
3.7724327e-10
7.0028374e-09
3.668542e-10
6.8923388e-09
3.5710715e-10
6.7846741e-09
3.4794857e-10
6.6796769e-09
3.3932778e-10
6.5771906e-09
3.312128e-10
6.4770674e-09
3.2357609e-10
6.37917e-09
3.1638241e-10
6.283371e-09
3.0960095e-10
6.1895508e-09
3.0320578e-10
6.0975971e-09
2.9717397e-10
6.0074038e-09
2.9148417e-10
5.9188745e-09
2.8610674e-10
5.8319183e-09
2.8102279e-10
5.7464456e-09
2.762285e-10
5.6623715e-09
2.7170816e-10
5.5796173e-09
2.6744279e-10
5.4981075e-09
2.634209e-10
5.4177703e-09
2.5963143e-10
5.3385367e-09
2.5606469e-10
5.2603419e-09
2.5270758e-10
5.1831255e-09
2.4954568e-10
5.106828e-09
2.46576e-10
5.0313901e-09
2.4379747e-10
4.9567559e-09
2.4120068e-10
4.8828711e-09
2.3877816e-10
4.8096836e-09
2.3652507e-10
4.737142e-09
2.3443749e-10
4.6651962e-09
2.3251202e-10
4.5937992e-09
2.3073827e-10
4.5229051e-09
2.2911283e-10
4.4524662e-09
2.2764198e-10
4.3824354e-09
2.2632289e-10
4.3127672e-09
2.2515124e-10
4.2434159e-09
2.2412677e-10
4.174336e-09
2.2324996e-10
4.1054813e-09
2.2252179e-10
4.0368074e-09
2.2193777e-10
3.9682691e-09
2.2149936e-10
3.8998185e-09
2.2121566e-10
3.8314071e-09
2.2108933e-10
3.7629855e-09
2.2112216e-10
3.694502e-09
2.2132206e-10
3.6259028e-09
2.2169581e-10
3.5571332e-09
2.2224684e-10
3.4881242e-09
2.2302011e-10
3.4188317e-09
2.2393673e-10
3.3492158e-09
2.2498118e-10
3.2821145e-09
2.168545e-10
3.2189022e-09
2.0428644e-10
3.159202e-09
1.929361e-10
3.1027303e-09
1.8250258e-10
3.0492217e-09
1.7292634e-10
2.9984225e-09
1.6417028e-10
2.9501039e-09
1.561535e-10
2.9040591e-09
1.4880519e-10
2.8601003e-09
1.4206355e-10
2.8180574e-09
1.3587206e-10
2.7777747e-09
1.3018376e-10
2.739106e-09
1.2496732e-10
2.7019125e-09
1.2020039e-10
2.6660574e-09
1.1587491e-10
2.631406e-09
1.1198495e-10
2.5978055e-09
1.0858918e-10
2.5651073e-09
1.056737e-10
2.5330522e-09
1.0359612e-10
2.5015322e-09
1.0186724e-10
2.46959e-09
1.0323544e-10
2.4387559e-09
9.9654981e-11
2.403595e-09
1.1362113e-10
6.6892739e-11
2.8985744e-06
3.3573654e-10
2.8984488e-06
7.9622295e-10
2.8982913e-06
9.9809325e-10
2.8981123e-06
1.1338052e-09
2.8979058e-06
1.3080569e-09
2.8976688e-06
1.5017728e-09
2.8973978e-06
1.7174485e-09
2.8970874e-06
1.9666705e-09
2.896731e-06
2.2592577e-09
2.8963201e-06
2.605552e-09
2.895844e-06
3.0190979e-09
2.895289e-06
3.5205135e-09
2.8946372e-06
4.135311e-09
2.8938629e-06
4.9140607e-09
2.892934e-06
5.8973167e-09
2.8917905e-06
7.2618755e-09
2.8903777e-06
8.9757857e-09
2.8884963e-06
1.1958076e-08
2.8861256e-06
1.5073791e-08
2.8823208e-06
2.4209881e-08
2.8775884e-06
3.0118757e-08
2.8664695e-06
7.079543e-08
2.8617463e-06
2.9798347e-08
1.5094912e-06
8.9305607e-06
1.0712145e-07
9.1204736e-06
5.236075e-08
1.9295713e-07
3.9677848e-08
4.4274323e-08
3.3526329e-08
2.1470698e-08
2.9735208e-08
1.3229658e-08
2.7032053e-08
9.4333251e-09
2.4966602e-08
7.2079186e-09
2.3310936e-08
5.7779864e-09
2.1942753e-08
4.7747461e-09
2.0785047e-08
4.0402497e-09
1.9786621e-08
3.4844126e-09
1.8912762e-08
3.0497077e-09
1.8138835e-08
2.7009676e-09
1.7446558e-08
2.4160221e-09
1.6821989e-08
2.1797271e-09
1.6254365e-08
1.9809967e-09
1.5735179e-08
1.8119504e-09
1.5257584e-08
1.6668059e-09
1.4816061e-08
1.540914e-09
1.4406055e-08
1.4309176e-09
1.4023764e-08
1.3341979e-09
1.3666e-08
1.248596e-09
1.3330061e-08
1.1724255e-09
1.3013646e-08
1.1042907e-09
1.271478e-08
1.0430424e-09
1.2431758e-08
9.8774841e-10
1.2163089e-08
9.3765668e-10
1.1907467e-08
8.9211948e-10
1.1663746e-08
8.5058723e-10
1.1430913e-08
8.1258804e-10
1.1208075e-08
7.7770522e-10
1.0994435e-08
7.4560291e-10
1.0789276e-08
7.1600438e-10
1.0591955e-08
6.8865251e-10
1.0401892e-08
6.6332002e-10
1.0218563e-08
6.3981678e-10
1.0041495e-08
6.1796667e-10
9.8702611e-09
5.9760574e-10
9.7044707e-09
5.7860769e-10
9.5437633e-09
5.6086816e-10
9.3878087e-09
5.4428043e-10
9.236305e-09
5.2874702e-10
9.0889735e-09
5.1418566e-10
8.9455565e-09
5.0052417e-10
8.8058176e-09
4.8768747e-10
8.6695408e-09
4.7560456e-10
8.536523e-09
4.6423059e-10
8.4065721e-09
4.5352697e-10
8.2795102e-09
4.4344429e-10
8.1551718e-09
4.3393938e-10
8.0334017e-09
4.2497589e-10
7.914054e-09
4.165217e-10
7.7969913e-09
4.0854685e-10
7.6820882e-09
4.0100984e-10
7.5692268e-09
3.9388417e-10
7.4582908e-09
3.8716449e-10
7.3491702e-09
3.8082877e-10
7.2417626e-09
3.7485042e-10
7.1359701e-09
3.6921334e-10
7.0316996e-09
3.6390202e-10
6.9288614e-09
3.5890286e-10
6.8273714e-09
3.5419753e-10
6.7271513e-09
3.4976582e-10
6.6281238e-09
3.4560353e-10
6.5302121e-09
3.4170914e-10
6.4333433e-09
3.3806947e-10
6.3374474e-09
3.3467407e-10
6.2424563e-09
3.3151615e-10
6.1483036e-09
3.285902e-10
6.0549242e-09
3.2589145e-10
5.9622571e-09
3.2340539e-10
5.8702427e-09
3.2112718e-10
5.7788191e-09
3.1906564e-10
5.6879251e-09