/*--------------------------------*- C++ -*----------------------------------*\
| =========                 |                                                 |
| \\      /  F ield         | OpenFOAM: The Open Source CFD Toolbox           |
|  \\    /   O peration     | Version:  2206                                  |
|   \\  /    A nd           | Website:  www.openfoam.com                      |
|    \\/     M anipulation  |                                                 |
\*---------------------------------------------------------------------------*/
FoamFile
{
    version     2.0;
    format      ascii;
    arch        "LSB;label=32;scalar=64";
    class       volVectorField;
    location    "1800";
    object      U;
}
// * * * * * * * * * * * * * * * * * * * * * * * * * * * * * * * * * * * * * //

dimensions      [0 1 -1 0 0 0 0];

internalField   nonuniform List<vector> 
13056
(
(1 4.4462728e-10 4.2450299e-25)
(0.99996655 1.1955591e-09 0)
(0.99991675 1.6992897e-09 0)
(0.99986134 2.1897387e-09 0)
(0.99979739 2.8653177e-09 0)
(0.99972362 3.7295637e-09 0)
(0.99963922 4.8329093e-09 0)
(0.99954269 6.2664246e-09 0)
(0.999432 8.1435862e-09 0)
(0.99930462 1.0611903e-08 0)
(0.99915739 1.3872366e-08 0)
(0.99898635 1.821433e-08 0)
(0.99878619 2.4031224e-08 0)
(0.9985502 3.1975343e-08 0)
(0.99826782 4.2799509e-08 0)
(0.99792779 5.8497412e-08 0)
(0.99750153 7.9774394e-08 0)
(0.99697921 1.1641734e-07 0)
(0.99624016 1.5934125e-07 0)
(0.99538084 2.7510017e-07 0)
(0.99369044 3.6339445e-07 0)
(0.99216855 8.950687e-07 0)
(0.98623174 3.8622727e-07 -4.7539745e-21)
(0.98891471 0.00012308295 7.7588342e-18)
(0.0031443222 0.00012359424 0)
(0.0012275407 6.4843062e-08 -1.0307569e-20)
(0.00087529198 4.6331197e-08 3.4210167e-18)
(0.00071828488 5.3159e-09 0)
(0.00062830978 3.2468924e-09 0)
(0.00056612557 2.2940869e-09 0)
(0.00051978815 1.7367974e-09 0)
(0.00048319535 1.3790367e-09 0)
(0.00045330205 1.1284611e-09 0)
(0.00042824979 9.4529975e-10 0)
(0.00040680572 8.0687057e-10 0)
(0.00038814787 6.9875239e-10 0)
(0.00037170521 6.1214112e-10 0)
(0.00035706012 5.4147022e-10 0)
(0.00034389636 4.8294669e-10 0)
(0.00033197045 4.3379596e-10 0)
(0.00032109371 3.9203591e-10 0)
(0.00031111333 3.5622084e-10 1.6352947e-25)
(0.00030190697 3.2519108e-10 0)
(0.00029337549 2.9810433e-10 0)
(0.00028543521 2.7430855e-10 0)
(0.00027801692 2.5326398e-10 0)
(0.00027106191 2.345497e-10 0)
(0.00026452035 2.1781872e-10 0)
(0.00025834959 2.0278592e-10 0)
(0.00025251302 1.8921962e-10 0)
(0.00024697872 1.7693182e-10 0)
(0.00024171874 1.6576135e-10 0)
(0.0002367086 1.5557185e-10 0)
(0.00023192668 1.4624664e-10 0)
(0.00022735395 1.376837e-10 0)
(0.00022297356 1.2979968e-10 0)
(0.00021877036 1.2252488e-10 0)
(0.00021473069 1.1579572e-10 0)
(0.00021084233 1.0955636e-10 0)
(0.00020709426 1.0375947e-10 0)
(0.00020347645 9.8361985e-11 0)
(0.0001999799 9.3324605e-11 0)
(0.00019659646 8.861572e-11 0)
(0.0001933186 8.4208375e-11 0)
(0.00019013937 8.0076325e-11 0)
(0.00018705245 7.6195899e-11 0)
(0.00018405203 7.2546641e-11 0)
(0.00018113273 6.9110428e-11 0)
(0.00017828956 6.586952e-11 0)
(0.00017551802 6.2807552e-11 0)
(0.00017281394 5.9912426e-11 0)
(0.00017017332 5.7173289e-11 0)
(0.00016759245 5.4578359e-11 0)
(0.00016506789 5.2117194e-11 0)
(0.00016259642 4.9780658e-11 0)
(0.00016017504 4.7560493e-11 0)
(0.00015780088 4.5449084e-11 0)
(0.00015547129 4.3437858e-11 0)
(0.00015318388 4.1520348e-11 0)
(0.0001509363 3.9692605e-11 0)
(0.00014872624 3.7949006e-11 0)
(0.00014655158 3.6283778e-11 0)
(0.00014441031 3.4692456e-11 0)
(0.00014230053 3.3170811e-11 0)
(0.00014022039 3.1714981e-11 0)
(0.00013816813 3.0320856e-11 0)
(0.00013614214 2.8984385e-11 0)
(0.00013414087 2.7703064e-11 0)
(0.00013216277 2.6474655e-11 0)
(0.00013020631 2.5296064e-11 0)
(0.00012827007 2.4164575e-11 0)
(0.00012635267 2.3077861e-11 0)
(0.00012445275 2.203377e-11 0)
(0.00012256899 2.1030295e-11 0)
(0.0001207001 2.0064881e-11 0)
(0.00011884492 1.9135736e-11 0)
(0.00011700221 1.8241941e-11 0)
(0.00011517071 1.7381799e-11 0)
(0.00011334923 1.6553587e-11 0)
(0.00011153658 1.5755961e-11 0)
(0.00010973157 1.4987667e-11 0)
(0.00010793299 1.4247521e-11 0)
(0.00010613966 1.3534026e-11 0)
(0.00010435042 1.2846132e-11 0)
(0.00010256407 1.2183249e-11 0)
(0.00010077932 1.1544379e-11 0)
(9.8994891e-05 1.0928507e-11 0)
(9.7209485e-05 1.0334943e-11 0)
(9.54217e-05 9.7629201e-12 0)
(9.3630115e-05 9.211519e-12 0)
(9.1833274e-05 8.6814815e-12 0)
(9.0029005e-05 8.1686565e-12 0)
(8.8217217e-05 7.6718093e-12 0)
(8.6436739e-05 7.2074953e-12 0)
(8.4740708e-05 6.7898469e-12 0)
(8.314021e-05 6.4126561e-12 0)
(8.1627329e-05 6.0658947e-12 0)
(8.0195195e-05 5.7476215e-12 0)
(7.8836847e-05 5.4566112e-12 0)
(7.7546009e-05 5.1901724e-12 0)
(7.6317026e-05 4.945953e-12 0)
(7.5144767e-05 4.7218984e-12 0)
(7.4024572e-05 4.5161306e-12 0)
(7.2952222e-05 4.3270893e-12 0)
(7.1923816e-05 4.1537344e-12 0)
(7.0935639e-05 3.9953251e-12 0)
(6.9984152e-05 3.8515951e-12 0)
(6.9065768e-05 3.7223512e-12 0)
(6.8177043e-05 3.6095429e-12 0)
(6.7313442e-05 3.5127316e-12 0)
(6.6471747e-05 3.4437655e-12 0)
(6.5641635e-05 3.3865568e-12 0)
(6.4827823e-05 3.4320151e-12 0)
(6.3975476e-05 1.3874128e-11 0)
(6.3219614e-05 3.7463821e-12 2.5902982e-24)
(6.2141321e-05 9.3627653e-12 0)
(1 1.3417995e-09 0)
(0.99996649 3.6083727e-09 0)
(0.99991659 5.1290364e-09 0)
(0.99986106 6.6094425e-09 0)
(0.99979697 8.6485459e-09 0)
(0.99972304 1.125707e-08 0)
(0.99963846 1.4587203e-08 0)
(0.99954173 1.8913778e-08 0)
(0.99943081 2.4579246e-08 0)
(0.99930317 3.2028748e-08 0)
(0.99915564 4.1868808e-08 0)
(0.99898426 5.4972576e-08 0)
(0.99878371 7.2527228e-08 0)
(0.99854727 9.6501057e-08 0)
(0.99826435 1.2916554e-07 0)
(0.9979237 1.7653648e-07 0)
(0.99749667 2.4074133e-07 0)
(0.99697343 3.5131078e-07 0)
(0.99623313 4.8082833e-07 0)
(0.9953724 8.3010187e-07 0)
(0.99367939 1.0965121e-06 0)
(0.99215514 2.7007326e-06 0)
(0.98620948 1.164309e-06 1.6996127e-20)
(0.98889257 0.00036993433 -6.5350179e-21)
(0.0094439975 0.0003719612 0)
(0.0037007662 1.2069231e-06 0)
(0.0026389133 2.6458234e-07 2.1346094e-22)
(0.0021656073 1.2661877e-07 0)
(0.0018943193 7.7303972e-08 0)
(0.0017068328 5.4627176e-08 0)
(0.0015671224 4.1353773e-08 0)
(0.0014567952 3.2835568e-08 0)
(0.0013666667 2.6869039e-08 0)
(0.0012911346 2.2507798e-08 0)
(0.0012264814 1.9211553e-08 0)
(0.0011702289 1.6637162e-08 0)
(0.0011206552 1.4574957e-08 0)
(0.0010765012 1.2892427e-08 0)
(0.0010368134 1.1498996e-08 0)
(0.0010008578 1.0328617e-08 0)
(0.00096806526 9.3342545e-09 0)
(0.00093797522 8.481438e-09 -2.4112501e-25)
(0.0009102189 7.7425833e-09 -2.9273252e-25)
(0.00088449723 7.0976392e-09 0)
(0.000860558 6.5310487e-09 0)
(0.00083819254 6.0299698e-09 0)
(0.00081722384 5.58438e-09 0)
(0.00079750164 5.1860146e-09 0)
(0.00077889738 4.8280866e-09 0)
(0.00076130068 4.5050777e-09 0)
(0.0007446153 4.2125093e-09 0)
(0.00072875695 3.9465456e-09 0)
(0.00071365188 3.7039389e-09 0)
(0.00069923486 3.481911e-09 0)
(0.00068544852 3.2780343e-09 0)
(0.00067224209 3.0903225e-09 0)
(0.00065956984 2.9171154e-09 0)
(0.00064739062 2.7569e-09 0)
(0.0006356676 2.6083469e-09 0)
(0.00062436754 2.4703288e-09 0)
(0.0006134602 2.3418202e-09 0)
(0.00060291844 2.2218864e-09 0)
(0.00059271773 2.1097737e-09 0)
(0.00058283529 2.0048401e-09 0)
(0.00057325023 1.9064612e-09 0)
(0.00056394347 1.8140732e-09 0)
(0.00055489749 1.7271893e-09 0)
(0.00054609608 1.6453777e-09 0)
(0.00053752421 1.5682162e-09 0)
(0.00052916829 1.4953157e-09 0)
(0.00052101575 1.4263873e-09 0)
(0.00051305455 1.3611725e-09 0)
(0.00050527347 1.2993913e-09 0)
(0.00049766218 1.240795e-09 0)
(0.00049021095 1.1851658e-09 0)
(0.00048291071 1.1323074e-09 0)
(0.00047575286 1.0820382e-09 0)
(0.00046872936 1.0341545e-09 0)
(0.00046183306 9.885024e-10 0)
(0.00045505683 9.4498699e-10 0)
(0.0004483937 9.0347509e-10 0)
(0.00044183731 8.6382914e-10 0)
(0.00043538161 8.2594276e-10 0)
(0.00042902081 7.8971532e-10 0)
(0.00042274939 7.5505483e-10 0)
(0.00041656204 7.2186344e-10 0)
(0.00041045386 6.900449e-10 0)
(0.00040442024 6.5953935e-10 0)
(0.00039845645 6.302934e-10 0)
(0.00039255791 6.0223363e-10 0)
(0.00038672034 5.7529529e-10 0)
(0.00038093955 5.4942295e-10 0)
(0.00037521149 5.2456545e-10 0)
(0.00036953214 5.0067485e-10 0)
(0.00036389762 4.7769049e-10 0)
(0.00035830443 4.5556975e-10 0)
(0.00035274884 4.3429048e-10 0)
(0.00034722705 4.1381247e-10 0)
(0.00034173547 3.9409466e-10 0)
(0.0003362705 3.7510505e-10 0)
(0.00033082856 3.568138e-10 0)
(0.00032540603 3.3919262e-10 0)
(0.00031999929 3.2220598e-10 0)
(0.00031460493 3.0582895e-10 0)
(0.00030921924 2.9004728e-10 0)
(0.00030383838 2.7483732e-10 0)
(0.00029845851 2.6017491e-10 0)
(0.00029307568 2.4604359e-10 0)
(0.00028768568 2.3242507e-10 0)
(0.00028228423 2.1929755e-10 0)
(0.00027686692 2.066786e-10 0)
(0.00027142723 1.9446918e-10 0)
(0.00026596486 1.8264143e-10 0)
(0.00026059689 1.7158794e-10 0)
(0.00025548351 1.6164372e-10 0)
(0.00025065816 1.5266301e-10 0)
(0.00024609698 1.4440733e-10 0)
(0.00024177923 1.3682996e-10 0)
(0.00023768394 1.2990159e-10 0)
(0.00023379219 1.2355819e-10 0)
(0.00023008693 1.1774377e-10 0)
(0.00022655269 1.1240941e-10 0)
(0.00022317541 1.0751039e-10 0)
(0.00021994238 1.0300956e-10 0)
(0.00021684184 9.8882155e-11 0)
(0.00021386259 9.5110488e-11 0)
(0.00021099396 9.1688216e-11 0)
(0.00020822514 8.8610679e-11 0)
(0.00020554573 8.5924363e-11 0)
(0.00020294208 8.3618305e-11 0)
(0.00020040449 8.1975928e-11 0)
(0.00019790183 8.0609207e-11 0)
(0.00019544831 8.1697546e-11 0)
(0.00019287872 7.9211081e-11 0)
(0.00019059986 8.9822757e-11 -4.0065165e-24)
(0.00018734891 5.3288555e-11 2.5122854e-25)
(1 2.2608803e-09 0)
(0.99996641 6.0804219e-09 0)
(0.99991638 8.6434664e-09 0)
(0.99986069 1.1138366e-08 0)
(0.99979643 1.4574627e-08 0)
(0.9997223 1.8970405e-08 0)
(0.99963749 2.4582106e-08 0)
(0.99954051 3.1872795e-08 0)
(0.99942929 4.1419467e-08 0)
(0.99930131 5.3972112e-08 0)
(0.9991534 7.0552599e-08 0)
(0.99898159 9.2631982e-08 0)
(0.99878054 1.222103e-07 0)
(0.99854352 1.6260356e-07 0)
(0.99825992 2.1763822e-07 0)
(0.99791847 2.9744892e-07 0)
(0.99749046 4.0561812e-07 0)
(0.99696605 5.9189432e-07 0)
(0.99622416 8.1008429e-07 0)
(0.99536164 1.3984573e-06 0)
(0.99366531 1.8472492e-06 0)
(0.99213808 4.5496914e-06 0)
(0.98618119 1.9630476e-06 -9.0047806e-21)
(0.98886446 0.0006205247 5.3717477e-55)
(0.01584721 0.00062513641 -5.370865e-55)
(0.0062289798 3.4252634e-06 0)
(0.0044418514 7.699259e-07 -1.1075631e-22)
(0.0036452505 3.7077245e-07 0)
(0.003188585 2.2637834e-07 0)
(0.0028729944 1.5997044e-07 0)
(0.0026378217 1.2109994e-07 0)
(0.0024521121 9.6154515e-08 0)
(0.0023004025 7.8682225e-08 0)
(0.0021732628 6.5910616e-08 0)
(0.0020644356 5.6257806e-08 0)
(0.0019697492 4.8718961e-08 0)
(0.0018863052 4.2680059e-08 0)
(0.0018119839 3.7753003e-08 0)
(0.0017451803 3.3672552e-08 0)
(0.0016846588 3.0245289e-08 0)
(0.0016294617 2.7333482e-08 0)
(0.0015788134 2.483615e-08 0)
(0.0015320935 2.2672547e-08 0)
(0.0014887982 2.0783964e-08 0)
(0.0014485033 1.912481e-08 0)
(0.0014108573 1.7657499e-08 0)
(0.0013755624 1.6352678e-08 0)
(0.0013423656 1.5186146e-08 0)
(0.0013110506 1.4138027e-08 0)
(0.0012814315 1.3192162e-08 0)
(0.0012533464 1.2335436e-08 0)
(0.0012266534 1.1556617e-08 0)
(0.0012012283 1.0846193e-08 0)
(0.0011769613 1.0196031e-08 0)
(0.0011537559 9.5990213e-09 0)
(0.0011315266 9.0493474e-09 0)
(0.0011101965 8.542147e-09 0)
(0.0010896962 8.0729904e-09 0)
(0.0010699638 7.6379843e-09 0)
(0.0010509434 7.2338276e-09 0)
(0.001032584 6.8575174e-09 0)
(0.0010148399 6.506317e-09 0)
(0.0009976699 6.1780193e-09 0)
(0.00098103563 5.8707436e-09 0)
(0.00096490188 5.5826621e-09 0)
(0.00094923659 5.3121239e-09 0)
(0.00093401025 5.0577031e-09 0)
(0.00091919556 4.8181352e-09 0)
(0.00090476725 4.5921843e-09 0)
(0.00089070242 4.3787109e-09 0)
(0.00087697994 4.176869e-09 0)
(0.00086357951 3.9859016e-09 0)
(0.00085048226 3.8049886e-09 0)
(0.0008376708 3.6334018e-09 0)
(0.00082512876 3.4705038e-09 0)
(0.00081284088 3.3157195e-09 0)
(0.00080079266 3.1685167e-09 0)
(0.00078897059 3.0282998e-09 0)
(0.00077736261 2.8946175e-09 0)
(0.00076595674 2.767192e-09 0)
(0.00075474124 2.6456333e-09 0)
(0.00074370541 2.5295387e-09 0)
(0.00073283907 2.4185965e-09 0)
(0.00072213246 2.3125123e-09 0)
(0.00071157629 2.2110165e-09 0)
(0.00070116162 2.1138226e-09 0)
(0.00069088023 2.0206489e-09 0)
(0.00068072434 1.93132e-09 0)
(0.00067068597 1.8456795e-09 0)
(0.00066075744 1.7635125e-09 0)
(0.00065093155 1.6846293e-09 0)
(0.00064120122 1.6088677e-09 0)
(0.00063155964 1.5360779e-09 0)
(0.00062200005 1.4661194e-09 0)
(0.00061251592 1.3988146e-09 0)
(0.00060310136 1.3340388e-09 0)
(0.00059375009 1.271727e-09 0)
(0.00058445571 1.2117615e-09 0)
(0.00057521218 1.1540221e-09 0)
(0.00056601343 1.0984151e-09 0)
(0.00055685347 1.0448531e-09 0)
(0.00054772616 9.9325325e-10 0)
(0.00053862543 9.4351152e-10 0)
(0.00052954554 8.9555489e-10 0)
(0.00052048025 8.4934164e-10 0)
(0.00051142308 8.0480249e-10 0)
(0.00050236758 7.6186675e-10 0)
(0.00049330711 7.2048619e-10 0)
(0.00048423456 6.8060724e-10 0)
(0.00047514273 6.421661e-10 0)
(0.00046602422 6.0521415e-10 0)
(0.00045686802 5.6946142e-10 0)
(0.00044767366 5.3482675e-10 0)
(0.00043863817 5.0245921e-10 0)
(0.00043003123 4.7333934e-10 0)
(0.00042190911 4.4704096e-10 0)
(0.00041423164 4.2286592e-10 0)
(0.00040696393 4.0067724e-10 0)
(0.00040007066 3.8038897e-10 0)
(0.00039351999 3.6181367e-10 0)
(0.00038728322 3.4478733e-10 0)
(0.00038133431 3.2916675e-10 0)
(0.00037564962 3.1482094e-10 0)
(0.00037020772 3.0164115e-10 0)
(0.00036498884 2.8955481e-10 0)
(0.00035997412 2.7851013e-10 0)
(0.00035514559 2.6848853e-10 0)
(0.00035048507 2.5947634e-10 0)
(0.00034597506 2.5160965e-10 0)
(0.00034159258 2.4485629e-10 0)
(0.00033732128 2.4004613e-10 0)
(0.00033310883 2.3604285e-10 0)
(0.00032897908 2.3922756e-10 0)
(0.00032465411 2.305049e-10 0)
(0.00032081829 2.6313773e-10 0)
(0.00031534621 1.5490401e-10 0)
(1 3.2162352e-09 8.7591753e-25)
(0.99996631 8.6506871e-09 0)
(0.99991611 1.2298199e-08 0)
(0.99986024 1.5848225e-08 0)
(0.99979576 2.0737372e-08 0)
(0.99972139 2.6991628e-08 0)
(0.99963629 3.4975703e-08 0)
(0.99953899 4.5348318e-08 0)
(0.99942741 5.8930251e-08 0)
(0.99929902 7.6788336e-08 0)
(0.99915064 1.0037609e-07 0)
(0.99897829 1.3178591e-07 0)
(0.99877661 1.738625e-07 0)
(0.99853888 2.3132226e-07 0)
(0.99825444 3.0960716e-07 0)
(0.997912 4.2313147e-07 0)
(0.99748278 5.769877e-07 0)
(0.99695693 8.4193075e-07 0)
(0.99621308 1.1522507e-06 0)
(0.99534834 1.98902e-06 0)
(0.99364793 2.6272903e-06 0)
(0.99211701 6.4706696e-06 0)
(0.98614635 2.7943758e-06 0)
(0.9888298 0.00087855749 -2.802508e-55)
(0.022446286 0.00088696697 2.8020502e-55)
(0.0088498327 7.0696747e-06 0)
(0.0063109676 1.5901784e-06 0)
(0.0051792643 7.6461434e-07 0)
(0.0045303932 4.6686531e-07 0)
(0.0040819874 3.2990877e-07 0)
(0.0037478403 2.49745e-07 0)
(0.0034839769 1.9829862e-07 0)
(0.0032684227 1.6226541e-07 0)
(0.0030877786 1.3592622e-07 0)
(0.0029331543 1.16019e-07 0)
(0.0027986222 1.0047157e-07 0)
(0.0026800637 8.8017577e-08 0)
(0.0025744671 7.7856575e-08 0)
(0.0024795519 6.944153e-08 0)
(0.0023935625 6.2373567e-08 0)
(0.0023151381 5.6368646e-08 0)
(0.0022431767 5.1218459e-08 0)
(0.0021767969 4.6756528e-08 0)
(0.0021152828 4.2861797e-08 0)
(0.0020580316 3.9440182e-08 0)
(0.0020045441 3.6414208e-08 0)
(0.001954397 3.3723331e-08 0)
(0.001907231 3.1317642e-08 0)
(0.0018627386 2.9156153e-08 0)
(0.0018206557 2.7205541e-08 0)
(0.0017807524 2.5438755e-08 0)
(0.0017428269 2.3832633e-08 0)
(0.0017067028 2.236756e-08 0)
(0.0016722243 2.1026762e-08 0)
(0.001639254 1.9795578e-08 0)
(0.0016076706 1.8662013e-08 0)
(0.0015773647 1.7616039e-08 0)
(0.0015482379 1.664852e-08 0)
(0.0015202021 1.5751429e-08 0)
(0.0014931778 1.4917957e-08 0)
(0.0014670928 1.4141911e-08 0)
(0.001441882 1.3417648e-08 0)
(0.0014174868 1.2740617e-08 0)
(0.0013938528 1.2106938e-08 0)
(0.0013709299 1.1512842e-08 0)
(0.0013486727 1.0954925e-08 0)
(0.001327039 1.0430245e-08 0)
(0.0013059903 9.9361968e-09 0)
(0.0012854905 9.4702297e-09 0)
(0.0012655072 9.0299947e-09 0)
(0.0012460102 8.6137465e-09 0)
(0.0012269709 8.2199241e-09 0)
(0.0012083623 7.8468365e-09 0)
(0.0011901597 7.4929819e-09 0)
(0.00117234 7.1570456e-09 0)
(0.0011548813 6.8378417e-09 0)
(0.0011377632 6.5342729e-09 0)
(0.0011209663 6.2451107e-09 0)
(0.0011044737 5.9694247e-09 0)
(0.0010882682 5.7066416e-09 0)
(0.0010723332 5.4559572e-09 0)
(0.0010566534 5.2165412e-09 0)
(0.0010412145 4.9877509e-09 0)
(0.0010260025 4.7689787e-09 0)
(0.0010110043 4.559669e-09 0)
(0.00099620705 4.359231e-09 0)
(0.00098159921 4.1670836e-09 0)
(0.00096716968 3.9828652e-09 0)
(0.00095290713 3.8062531e-09 0)
(0.00093880064 3.6368043e-09 0)
(0.00092483997 3.4741275e-09 0)
(0.00091101508 3.3178882e-09 0)
(0.00089731628 3.1677773e-09 0)
(0.00088373397 3.0235053e-09 0)
(0.00087025889 2.8847061e-09 0)
(0.00085688264 2.7511223e-09 0)
(0.00084359632 2.6226198e-09 0)
(0.00083039081 2.498956e-09 0)
(0.00081725756 2.3798829e-09 0)
(0.00080418794 2.2652074e-09 0)
(0.00079117342 2.1547491e-09 0)
(0.0007782053 2.0483372e-09 0)
(0.00076527494 1.9457574e-09 0)
(0.00075237418 1.8468588e-09 0)
(0.00073949417 1.7515555e-09 0)
(0.00072662569 1.6597046e-09 0)
(0.0007137596 1.5711603e-09 0)
(0.00070088643 1.4858232e-09 0)
(0.0006879961 1.4035828e-09 0)
(0.00067507838 1.3243076e-09 0)
(0.00066212275 1.2481033e-09 0)
(0.00064911358 1.1743722e-09 0)
(0.00063605018 1.1029474e-09 0)
(0.00062321249 1.0361978e-09 0)
(0.00061098368 9.7614484e-10 0)
(0.00059944373 9.2191053e-10 0)
(0.00058853553 8.7205572e-10 0)
(0.00057820952 8.262969e-10 0)
(0.00056841552 7.8445739e-10 0)
(0.00055910829 7.4615044e-10 0)
(0.00055024705 7.1103781e-10 0)
(0.0005417948 6.7882417e-10 0)
(0.00053371795 6.4923942e-10 0)
(0.00052598608 6.2205925e-10 0)
(0.00051857106 5.9713399e-10 0)
(0.00051144612 5.7435683e-10 0)
(0.00050458573 5.5368944e-10 0)
(0.00049796404 5.3510359e-10 0)
(0.00049155623 5.1887986e-10 0)
(0.0004853296 5.0495188e-10 0)
(0.00047926097 4.9503066e-10 0)
(0.00047327598 4.8677336e-10 0)
(0.00046740849 4.9333625e-10 0)
(0.00046126387 4.76091e-10 0)
(0.0004558139 5.4277189e-10 0)
(0.00044803912 3.1977015e-10 0)
(1 4.2228395e-09 0)
(0.99996619 1.135962e-08 0)
(0.9999158 1.6150965e-08 0)
(0.9998597 2.081346e-08 0)
(0.99979495 2.7234161e-08 0)
(0.99972027 3.5447438e-08 0)
(0.99963483 4.5932086e-08 0)
(0.99953714 5.9552961e-08 0)
(0.99942512 7.7387687e-08 0)
(0.99929623 1.0083688e-07 0)
(0.99914728 1.3180874e-07 0)
(0.99897428 1.7305013e-07 0)
(0.99877185 2.2829537e-07 0)
(0.99853325 3.0373571e-07 0)
(0.9982478 4.0651419e-07 0)
(0.99790415 5.5555202e-07 0)
(0.99747348 7.5752972e-07 0)
(0.99694588 1.1053233e-06 0)
(0.99619965 1.512661e-06 0)
(0.99533224 2.6109713e-06 0)
(0.9936269 3.4487492e-06 0)
(0.99209152 8.4934657e-06 0)
(0.98610423 3.6715976e-06 0)
(0.98878791 0.0011476833 0)
(0.029334639 0.0011611873 0)
(0.01160235 1.2290149e-05 0)
(0.0082741084 2.7582587e-06 0)
(0.0067905114 1.3259021e-06 0)
(0.00593974 8.0962617e-07 0)
(0.0053518284 5.7211517e-07 0)
(0.004913719 4.3309737e-07 0)
(0.0045677656 3.43879e-07 0)
(0.0042851515 2.813916e-07 0)
(0.0040483088 2.3571496e-07 0)
(0.0038455818 2.011924e-07 0)
(0.0036691983 1.7423064e-07 0)
(0.003513758 1.5263356e-07 0)
(0.0033753121 1.3501292e-07 0)
(0.0032508706 1.2042006e-07 0)
(0.0031381317 1.0816326e-07 0)
(0.0030353113 9.7749969e-08 0)
(0.0029409643 8.8818845e-08 0)
(0.0028539355 8.1081282e-08 0)
(0.0027732858 7.4327376e-08 0)
(0.0026982252 6.8393867e-08 0)
(0.0026280991 6.3146461e-08 0)
(0.0025623525 5.8480159e-08 0)
(0.0025005144 5.4308407e-08 0)
(0.0024421815 5.0560131e-08 0)
(0.0023870079 4.7177542e-08 0)
(0.0023346916 4.4113728e-08 0)
(0.0022849685 4.1328525e-08 0)
(0.0022376072 3.878792e-08 0)
(0.0021924033 3.6462821e-08 0)
(0.0021491768 3.4327806e-08 0)
(0.0021077687 3.2362074e-08 0)
(0.0020680354 3.0548235e-08 0)
(0.002029848 2.8870447e-08 0)
(0.001993091 2.7314788e-08 0)
(0.0019576602 2.5869451e-08 0)
(0.0019234607 2.4523699e-08 0)
(0.0018904075 2.3267745e-08 0)
(0.0018584236 2.2093696e-08 0)
(0.0018274376 2.0994824e-08 0)
(0.0017973841 1.9964594e-08 0)
(0.0017682031 1.8997101e-08 0)
(0.0017398398 1.8087248e-08 0)
(0.0017122434 1.7230511e-08 0)
(0.0016853666 1.6422471e-08 0)
(0.001659167 1.5659053e-08 0)
(0.001633605 1.4937232e-08 0)
(0.001608643 1.4254299e-08 0)
(0.0015842457 1.3607322e-08 0)
(0.0015603808 1.2993698e-08 0)
(0.0015370177 1.2411146e-08 0)
(0.0015141281 1.185761e-08 0)
(0.0014916849 1.1331186e-08 0)
(0.001469663 1.0829746e-08 0)
(0.0014480399 1.0351675e-08 0)
(0.0014267932 9.8959792e-09 0)
(0.0014059012 9.4612637e-09 0)
(0.0013853439 9.0460889e-09 0)
(0.0013651022 8.6493402e-09 0)
(0.0013451582 8.269964e-09 0)
(0.0013254943 7.9069969e-09 0)
(0.001306094 7.5594143e-09 0)
(0.001286942 7.2262088e-09 0)
(0.0012680238 6.9067529e-09 0)
(0.0012493245 6.6004872e-09 0)
(0.0012308298 6.3066433e-09 0)
(0.0012125263 6.024543e-09 0)
(0.0011944008 5.7536059e-09 0)
(0.0011764406 5.4932963e-09 0)
(0.0011586331 5.2431119e-09 0)
(0.0011409663 5.0024181e-09 0)
(0.0011234289 4.7707683e-09 0)
(0.0011060095 4.5479301e-09 0)
(0.0010886961 4.3334826e-09 0)
(0.0010714774 4.1269962e-09 0)
(0.0010543421 3.9281354e-09 0)
(0.001037279 3.7365879e-09 0)
(0.0010202768 3.5520574e-09 0)
(0.0010033241 3.3741719e-09 0)
(0.00098641018 3.2026704e-09 0)
(0.00096952347 3.0374033e-09 0)
(0.00095265188 2.8781231e-09 0)
(0.00093578341 2.724577e-09 0)
(0.00091890567 2.5765925e-09 0)
(0.00090200543 2.433978e-09 0)
(0.00088506927 2.2965054e-09 0)
(0.00086808342 2.1643582e-09 0)
(0.00085102736 2.0364998e-09 0)
(0.00083390021 1.9126418e-09 0)
(0.00081706895 1.7968908e-09 0)
(0.000801036 1.6927512e-09 0)
(0.00078590619 1.5987018e-09 0)
(0.00077160467 1.5122476e-09 0)
(0.00075806644 1.4328966e-09 0)
(0.00074522572 1.360342e-09 0)
(0.00073302319 1.2939132e-09 0)
(0.00072140539 1.2330238e-09 0)
(0.0007103238 1.1771614e-09 0)
(0.0006997344 1.1258579e-09 0)
(0.00068959729 1.078724e-09 0)
(0.0006798756 1.0355004e-09 0)
(0.00067053423 9.9600174e-10 0)
(0.00066153972 9.601615e-10 0)
(0.00065285817 9.2793069e-10 0)
(0.00064445703 8.9979574e-10 0)
(0.00063629348 8.7564152e-10 0)
(0.00062833707 8.584343e-10 0)
(0.00062049039 8.4411307e-10 0)
(0.00061279774 8.5548381e-10 0)
(0.00060474209 8.2584386e-10 0)
(0.00059759674 9.4134619e-10 -5.1612874e-24)
(0.00058740336 5.545181e-10 3.2366315e-25)
(1 5.2967275e-09 0)
(0.99996605 1.4250627e-08 0)
(0.99991542 2.0263799e-08 0)
(0.99985904 2.6114077e-08 0)
(0.99979398 3.4169638e-08 0)
(0.99971894 4.4473969e-08 0)
(0.99963309 5.7627532e-08 0)
(0.99953493 7.4715078e-08 0)
(0.99942239 9.7088221e-08 0)
(0.9992929 1.2650359e-07 0)
(0.99914326 1.6535432e-07 0)
(0.99896948 2.1708521e-07 0)
(0.99876616 2.8637915e-07 0)
(0.99852652 3.8100005e-07 0)
(0.99823984 5.0990421e-07 0)
(0.99789477 6.9681815e-07 0)
(0.99746234 9.501126e-07 0)
(0.99693266 1.3862476e-06 0)
(0.99618359 1.8970178e-06 0)
(0.99531298 3.2741175e-06 0)
(0.99360176 4.324564e-06 0)
(0.99206106 1.0649873e-05 0)
(0.98605399 4.6091391e-06 0)
(0.98873794 0.0014316003 0)
(0.036607869 0.0014517823 0)
(0.014527507 1.9264239e-05 0)
(0.010360521 4.3422877e-06 0)
(0.0085030077 2.0874896e-06 0)
(0.0074376293 1.2747463e-06 0)
(0.0067014412 9.0078013e-07 0)
(0.0061528316 6.8189922e-07 0)
(0.005719628 5.4142387e-07 0)
(0.0053657393 4.4303908e-07 0)
(0.0050691662 3.711221e-07 0)
(0.0048153139 3.1676686e-07 0)
(0.0045944495 2.7431629e-07 0)
(0.0043998105 2.4031249e-07 0)
(0.0042264518 2.1256957e-07 0)
(0.0040706294 1.8959379e-07 0)
(0.0039294608 1.7029608e-07 0)
(0.003800712 1.5390098e-07 0)
(0.0036825734 1.3983937e-07 6.4635662e-25)
(0.0035735987 1.2765702e-07 0)
(0.0034726116 1.1702347e-07 -6.7278259e-35)
(0.003378623 1.0768151e-07 0)
(0.0032908133 9.941981e-08 0)
(0.0032084876 9.207302e-08 0)
(0.0031310558 8.550487e-08 0)
(0.0030580133 7.9603461e-08 0)
(0.0029889266 7.4277803e-08 0)
(0.0029234178 6.9454036e-08 0)
(0.0028611561 6.5068924e-08 0)
(0.0028018518 6.1068914e-08 0)
(0.0027452489 5.7408204e-08 0)
(0.0026911221 5.4046771e-08 0)
(0.0026392722 5.0951864e-08 0)
(0.0025895194 4.8096099e-08 0)
(0.0025417024 4.5454538e-08 0)
(0.0024956764 4.3005261e-08 0)
(0.002451311 4.0729678e-08 0)
(0.0024084875 3.8610885e-08 0)
(0.0023670993 3.6633474e-08 0)
(0.0023270501 3.4785016e-08 0)
(0.0022882504 3.3054918e-08 0)
(0.0022506183 3.1432893e-08 0)
(0.0022140788 2.9909644e-08 0)
(0.0021785631 2.8477142e-08 0)
(0.0021440077 2.7128269e-08 0)
(0.0021103534 2.5856066e-08 0)
(0.002077547 2.4654119e-08 0)
(0.0020455391 2.3517662e-08 0)
(0.0020142824 2.2442431e-08 0)
(0.0019837328 2.1423811e-08 0)
(0.0019538499 2.0457702e-08 0)
(0.0019245953 1.9540514e-08 0)
(0.0018959336 1.866901e-08 0)
(0.0018678309 1.7840192e-08 0)
(0.0018402557 1.705071e-08 0)
(0.0018131799 1.629802e-08 0)
(0.0017865754 1.5580558e-08 0)
(0.001760415 1.4896128e-08 0)
(0.0017346737 1.4242464e-08 0)
(0.0017093277 1.361781e-08 0)
(0.0016843543 1.3020508e-08 0)
(0.0016597318 1.2449041e-08 0)
(0.0016354393 1.1901796e-08 0)
(0.0016114577 1.1377187e-08 0)
(0.0015877688 1.0874226e-08 0)
(0.0015643541 1.0392031e-08 0)
(0.0015411955 9.9293936e-09 0)
(0.0015182763 9.4852458e-09 0)
(0.0014955801 9.0586737e-09 0)
(0.0014730908 8.6488337e-09 0)
(0.0014507928 8.2549353e-09 0)
(0.0014286708 7.875979e-09 0)
(0.001406711 7.5112622e-09 0)
(0.0013848989 7.1604183e-09 0)
(0.0013632195 6.8227851e-09 0)
(0.0013416587 6.497686e-09 0)
(0.0013202023 6.184593e-09 0)
(0.0012988364 5.8830142e-09 0)
(0.0012775466 5.5924831e-09 0)
(0.0012563189 5.3124144e-09 0)
(0.0012351397 5.0423966e-09 0)
(0.0012139946 4.7821945e-09 0)
(0.0011928684 4.5314184e-09 0)
(0.0011717462 4.2896702e-09 0)
(0.0011506123 4.0566783e-09 0)
(0.0011294502 3.8321412e-09 0)
(0.0011082432 3.6156996e-09 0)
(0.0010869739 3.4076422e-09 0)
(0.0010656167 3.2063377e-09 0)
(0.0010441705 3.011333e-09 0)
(0.0010230948 2.8290916e-09 0)
(0.0010030187 2.6651295e-09 0)
(0.00098407353 2.5170539e-09 0)
(0.0009661655 2.3809372e-09 0)
(0.00094921325 2.2560045e-09 0)
(0.00093313439 2.1417721e-09 0)
(0.00091785466 2.0371844e-09 0)
(0.0009033071 1.9413179e-09 0)
(0.00088943099 1.8533661e-09 0)
(0.00087617118 1.7725917e-09 0)
(0.00086347772 1.6983823e-09 0)
(0.00085130444 1.6303291e-09 0)
(0.00083960739 1.5681403e-09 0)
(0.00082834467 1.5117113e-09 0)
(0.00081747386 1.4609648e-09 0)
(0.00080695418 1.4166663e-09 0)
(0.00079673202 1.3786348e-09 0)
(0.00078676927 1.3515386e-09 0)
(0.000776944 1.3289878e-09 0)
(0.00076731155 1.3468718e-09 0)
(0.00075722508 1.300184e-09 0)
(0.00074827782 1.4822033e-09 0)
(0.00073551389 8.7286205e-10 -1.8472808e-25)
(1 6.45527e-09 0)
(0.99996589 1.737083e-08 0)
(0.99991497 2.4704133e-08 0)
(0.99985827 3.1837067e-08 0)
(0.99979283 4.1657576e-08 0)
(0.99971736 5.4219207e-08 0)
(0.99963102 7.025363e-08 0)
(0.99953231 9.1082802e-08 0)
(0.99941914 1.1835389e-07 0)
(0.99928894 1.5420752e-07 0)
(0.9991385 2.0155976e-07 0)
(0.99896379 2.6460805e-07 0)
(0.9987594 3.4905803e-07 0)
(0.99851853 4.643691e-07 0)
(0.99823042 6.2145196e-07 0)
(0.99788364 8.4921342e-07 0)
(0.99744914 1.1578428e-06 0)
(0.996917 1.6892227e-06 0)
(0.99616457 2.3114892e-06 0)
(0.99529018 3.9890555e-06 0)
(0.99357201 5.2687156e-06 0)
(0.99202502 1.297421e-05 0)
(0.98599461 5.6227288e-06 0)
(0.98867893 0.0017341134 0)
(0.044364815 0.0017628933 0)
(0.017668841 2.845487e-05 0)
(0.012601287 6.4379878e-06 0)
(0.010342281 3.0951916e-06 0)
(0.0090463861 1.8902354e-06 0)
(0.0081509396 1.3356926e-06 0)
(0.0074836435 1.0111308e-06 0)
(0.006956729 8.0282607e-07 0)
(0.0065262881 6.5693922e-07 0)
(0.0061655624 5.5029897e-07 0)
(0.0058568001 4.6969948e-07 0)
(0.0055881626 4.06753e-07 0)
(0.0053514236 3.5633193e-07 0)
(0.0051405683 3.151947e-07 0)
(0.0049510427 2.8112627e-07 0)
(0.0047793406 2.5251173e-07 0)
(0.0046227447 2.2820132e-07 0)
(0.0044790539 2.0735085e-07 0)
(0.0043465095 1.89287e-07 0)
(0.0042236801 1.7351987e-07 7.2573281e-35)
(0.004109363 1.5966775e-07 0)
(0.0040025612 1.4741745e-07 0)
(0.0039024295 1.3652377e-07 0)
(0.0038082503 1.2678466e-07 0)
(0.0037194096 1.1803418e-07 0)
(0.0036353803 1.1013741e-07 0)
(0.0035557029 1.0298484e-07 0)
(0.0034799748 9.6482697e-08 0)
(0.0034078438 9.0551574e-08 0)
(0.0033389985 8.5123559e-08 0)
(0.0032731648 8.0139307e-08 0)
(0.0032101004 7.5550254e-08 0)
(0.0031495867 7.1315795e-08 0)
(0.0030914275 6.7398952e-08 0)
(0.0030354467 6.3767222e-08 0)
(0.0029814856 6.0393043e-08 0)
(0.0029293999 5.7251348e-08 0)
(0.0028790599 5.4319291e-08 0)
(0.0028303485 5.1578443e-08 0)
(0.002783157 4.9013096e-08 0)
(0.0027373854 4.6607996e-08 0)
(0.0026929429 4.4349359e-08 0)
(0.0026497456 4.2225281e-08 0)
(0.0026077162 4.0225204e-08 0)
(0.0025667829 3.8338811e-08 0)
(0.0025268808 3.6556594e-08 0)
(0.0024879499 3.4871482e-08 0)
(0.0024499327 3.3277155e-08 0)
(0.0024127756 3.176677e-08 0)
(0.0023764292 3.0334246e-08 0)
(0.0023408472 2.8974261e-08 0)
(0.0023059863 2.7682015e-08 0)
(0.0022718052 2.6453064e-08 0)
(0.0022382658 2.5282437e-08 0)
(0.0022053337 2.4166368e-08 0)
(0.0021729749 2.3102531e-08 0)
(0.0021411563 2.2087674e-08 0)
(0.0021098473 2.1118435e-08 0)
(0.0020790192 2.0192213e-08 0)
(0.0020486443 1.9306547e-08 0)
(0.0020186961 1.8459188e-08 0)
(0.0019891494 1.7647745e-08 0)
(0.0019599807 1.6869867e-08 0)
(0.0019311681 1.6124087e-08 0)
(0.001902689 1.5409099e-08 0)
(0.0018745214 1.472311e-08 0)
(0.001846645 1.4064538e-08 0)
(0.0018190397 1.3432026e-08 0)
(0.0017916861 1.2824324e-08 0)
(0.0017645652 1.2240259e-08 0)
(0.0017376584 1.1678351e-08 0)
(0.0017109489 1.1137557e-08 0)
(0.0016844189 1.0617333e-08 0)
(0.0016580504 1.0116697e-08 0)
(0.0016318261 9.6346471e-09 0)
(0.0016057288 9.1703991e-09 0)
(0.0015797416 8.7232242e-09 0)
(0.001553847 8.2924306e-09 0)
(0.0015280278 7.8771504e-09 0)
(0.0015022677 7.4767735e-09 0)
(0.001476549 7.0909511e-09 0)
(0.0014508534 6.7191053e-09 0)
(0.0014251625 6.3606458e-09 0)
(0.0013994574 6.0151699e-09 0)
(0.0013737181 5.6822306e-09 0)
(0.0013479241 5.3612953e-09 0)
(0.0013220544 5.0527915e-09 0)
(0.0012960777 4.7543013e-09 0)
(0.0012699928 4.4651543e-09 0)
(0.0012443585 4.1949318e-09 0)
(0.0012199399 3.9518103e-09 0)
(0.001196897 3.7322449e-09 0)
(0.0011751155 3.5304138e-09 0)
(0.0011544965 3.3451663e-09 0)
(0.0011349398 3.1757848e-09 0)