/*--------------------------------*- C++ -*----------------------------------*\
| =========                 |                                                 |
| \\      /  F ield         | OpenFOAM: The Open Source CFD Toolbox           |
|  \\    /   O peration     | Version:  2206                                  |
|   \\  /    A nd           | Website:  www.openfoam.com                      |
|    \\/     M anipulation  |                                                 |
\*---------------------------------------------------------------------------*/
FoamFile
{
    version     2.0;
    format      ascii;
    arch        "LSB;label=32;scalar=64";
    class       volScalarField;
    location    "1700";
    object      k;
}
// * * * * * * * * * * * * * * * * * * * * * * * * * * * * * * * * * * * * * //

dimensions      [0 2 -2 0 0 0 0];

internalField   nonuniform List<scalar> 
7480
(
0.011445187
0.014109533
0.011691106
0.0076599513
0.0045418838
0.0027812154
0.0019369698
0.001525871
0.0012980763
0.0011497712
0.001035217
0.00093697209
0.00085137899
0.00077732246
0.00071310263
0.00065717237
0.00060831128
0.00056538861
0.00052720835
0.00049299459
0.00046227563
0.00043454271
0.00040932909
0.00038634013
0.00036534249
0.00034608396
0.00032834056
0.00031196969
0.00029685858
0.00028287833
0.00026991671
0.0002579005
0.00024676523
0.00023643898
0.00022686141
0.00021799157
0.00020979201
0.0002022261
0.00019526907
0.00018890854
0.00018313406
0.00017793484
0.00017331123
0.00016926238
0.00016579216
0.00016300195
0.00016079457
0.00015930187
0.00015851119
0.00015839908
0.00015894252
0.0001601124
0.00016184718
0.00016403432
0.00016656372
0.00016935943
0.00017225417
0.00017499919
0.00017735747
0.00017913673
0.00018033623
0.00018095811
0.00018105731
0.00018071083
0.00018001561
0.00017905985
0.00017792134
0.00017666224
0.00017532716
0.0001739492
0.0001725535
0.0001711549
0.00016976285
0.0001683873
0.00016703076
0.00016569462
0.00016437942
0.00016303082
0.00016165349
0.00016026376
0.00015886822
0.00015747016
0.0001560642
0.00015464824
0.00015322187
0.00015178484
0.00015033944
0.00014888627
0.00014742862
0.00014596758
0.00014450537
0.000143043
0.00014158372
0.00014011944
0.0001386742
0.00013716098
0.00013583845
0.00013394034
0.00013287061
0.00012997167
0.0014157377
0.0025665303
0.0028348272
0.0024741978
0.0020072603
0.0015609339
0.0011995527
0.00093131527
0.00073510703
0.00059092498
0.00048471937
0.0004059797
0.00034687003
0.00030174687
0.00026654539
0.0002384323
0.00021550153
0.0001964424
0.00018032647
0.00016652356
0.0001546082
0.00014425771
0.00013521784
0.00012729806
0.00012021663
0.00011383364
0.00010806347
0.00010285549
9.8176368e-05
9.3997e-05
9.0294493e-05
8.705493e-05
8.4268258e-05
8.1925291e-05
8.0020803e-05
7.8554961e-05
7.7532027e-05
7.6963587e-05
7.687285e-05
7.7295563e-05
7.8278401e-05
7.9879384e-05
8.2170765e-05
8.5237435e-05
8.9185939e-05
9.4127012e-05
0.00010013777
0.00010728821
0.00011559753
0.00012505726
0.00013563439
0.00014733296
0.00015989056
0.00017301034
0.00018640417
0.00019964138
0.00021208307
0.00022314525
0.00023247023
0.00024000473
0.00024589674
0.00025040549
0.00025379515
0.00025615899
0.00025771754
0.00025866987
0.00025917365
0.00025934545
0.00025927048
0.00025901078
0.00025860939
0.00025809286
0.00025748498
0.00025680414
0.00025605724
0.00025524532
0.00025434871
0.0002531622
0.00025177191
0.00025024861
0.0002486151
0.00024687788
0.00024503898
0.0002431055
0.00024108416
0.00023898501
0.0002368181
0.00023459347
0.00023232216
0.00023001316
0.00022767549
0.00022531715
0.00022294598
0.00022056666
0.00021818313
0.00021579394
0.00021343559
0.0002107641
0.0002088478
0.00020445617
0.00021000362
0.00055719721
0.00084137298
0.00095106124
0.00092901162
0.00084361862
0.00075624501
0.00069805302
0.00065932855
0.00062435519
0.00059313642
0.0005640723
0.00053578222
0.00050885262
0.00048354614
0.00045988702
0.00043793591
0.00041770928
0.00039921026
0.0003824477
0.00036741043
0.00035405585
0.00034233632
0.00033218767
0.00032245399
0.0003132644
0.00030473376
0.00029699165
0.00029016554
0.00028437405
0.00027973585
0.00027636834
0.00027438073
0.00027387852
0.00027497215
0.00027777712
0.00028242065
0.00028907062
0.00029795276
0.00030935306
0.00032361645
0.0003411529
0.00036244434
0.00038804293
0.00041861987
0.00045475402
0.00049693645
0.0005454045
0.00060016611
0.00066106189
0.00072755542
0.00079921313
0.00087482802
0.00095267523
0.0010310741
0.0011074789
0.0011784209
0.0012409655
0.0012935653
0.001336239
0.0013699667
0.0013963113
0.0014160886
0.0014304049
0.0014405433
0.0014475466
0.0014522171
0.001455139
0.0014567377
0.0014573215
0.001457101
0.0014562055
0.0014547591
0.0014528536
0.0014505229
0.001447768
0.0014444726
0.0014394561
0.0014332807
0.0014263333
0.0014187268
0.0014104922
0.0014016467
0.0013922334
0.0013822919
0.0013718804
0.0013610541
0.0013498704
0.0013383893
0.001326662
0.0013147379
0.0013026631
0.0012904797
0.0012782251
0.0012658937
0.0012535825
0.0012411831
0.0012276429
0.0012173965
0.0011948886
3.6611927e-05
0.00011641017
0.00022888106
0.00032889881
0.0003896962
0.00041115121
0.0004081912
0.00039504889
0.00038064254
0.00036978077
0.00036655448
0.00037468619
0.00038617001
0.00039597915
0.0004041545
0.00041043411
0.00041542549
0.00041962881
0.00042336298
0.00042688823
0.00043042088
0.0004341486
0.00043822674
0.00044276254
0.0004475939
0.00045253523
0.00045763389
0.00046310326
0.00046922075
0.00047628768
0.00048462249
0.00049455737
0.00050643258
0.00052059855
0.00053742013
0.00055727416
0.00058057691
0.00060785939
0.00063978097
0.00067711834
0.00072075662
0.00077169334
0.00083104317
0.00090003164
0.00098005862
0.0010721181
0.0011767181
0.0012938417
0.001422996
0.0015632902
0.0017132765
0.0018698857
0.0020312415
0.0021937877
0.002354216
0.0025071645
0.0026462033
0.0027669193
0.0028678603
0.0029500388
0.0030159471
0.0030680432
0.0031079371
0.0031383882
0.0031616725
0.0031795568
0.0031933715
0.0032040756
0.00321236
0.0032187214
0.0032234925
0.0032268764
0.0032290893
0.0032302812
0.0032305005
0.0032297314
0.0032277803
0.0032223182
0.0032146569
0.0032054659
0.0031949081
0.0031830371
0.0031698976
0.0031555753
0.0031401547
0.0031237472
0.0031064586
0.0030883969
0.0030696726
0.0030503833
0.0030306177
0.0030104666
0.0029900055
0.0029693158
0.002948364
0.0029274274
0.0029059688
0.0028832363
0.0028646503
0.0028272556
1.2523614e-05
2.757242e-05
5.8624042e-05
9.9471406e-05
0.00013897599
0.00016942401
0.00018920754
0.00020026471
0.0002054853
0.00020735066
0.00020802944
0.00020959045
0.00021294995
0.00021861055
0.00022750506
0.00024061415
0.00025525796
0.00027042384
0.00028569052
0.00030132223
0.00031746785
0.00033431099
0.00035192497
0.00037024121
0.00038898252
0.00040784294
0.00042730158
0.00044780745
0.00046968641
0.00049321679
0.00051867867
0.00054638386
0.00057669001
0.0006100022
0.00064676614
0.00068746364
0.00073269466
0.00078331912
0.00084037232
0.00090499537
0.00097843124
0.0010620318
0.0011572601
0.001265686
0.001389042
0.0015277609
0.0016814392
0.0018493949
0.0020306828
0.0022239405
0.0024271562
0.0026371034
0.0028490818
0.0030590878
0.0032640097
0.0034558876
0.0036269863
0.003773981
0.0038971197
0.0039986113
0.0040810914
0.0041474023
0.0042005111
0.0042431954
0.0042778134
0.0043062196
0.004329819
0.0043496373
0.0043664172
0.0043806946
0.0043928229
0.0044030211
0.0044115543
0.0044185827
0.0044241436
0.0044281946
0.0044305526
0.0044302493
0.0044274722
0.004422518
0.0044155476
0.0044066546
0.0043959285
0.0043834993
0.0043695024
0.004354096
0.0043374299
0.0043196522
0.0043009109
0.004281339
0.0042610523
0.0042401745
0.0042188021
0.0041970464
0.0041748674
0.0041526438
0.004129564
0.0041056754
0.0040847899
0.0040463606
9.3805524e-06
1.1752202e-05
1.8504934e-05
3.0344819e-05
4.5489316e-05
6.1118072e-05
7.520589e-05
8.6933517e-05
9.6285592e-05
0.00010357853
0.00010921009
0.00011368808
0.0001175059
0.00012111404
0.00012501942
0.00012979624
0.00013572082
0.0001430688
0.00015226581
0.00016376021
0.00017687549
0.00019189288
0.00020809354
0.00022549891
0.00024419073
0.00026422634
0.00028583361
0.00030931495
0.00033500568
0.00036328467
0.00039457086
0.00042932278
0.00046804185
0.0005112648
0.00055957613
0.00061369166
0.00067460834
0.00074335024
0.00082093446
0.00090845365
0.0010071165
0.0011182528
0.0012433048
0.0013838444
0.0015415456
0.0017146269
0.0019011297
0.0021002544
0.002311341
0.0025332063
0.0027638039
0.0029998164
0.0032364368
0.0034694004
0.00369549
0.003903706
0.0040871905
0.0042456886
0.0043808165
0.0044950982
0.0045915387
0.0046728426
0.0047414437
0.0047996255
0.004849426
0.0048924853
0.004930094
0.0049632425
0.0049926674
0.0050189103
0.0050423258
0.0050631391
0.0050816829
0.0050981148
0.0051124541
0.0051246365
0.0051345182
0.0051414461
0.0051453776
0.0051464985
0.0051449862
0.005140982
0.0051346277
0.0051260999
0.0051155853
0.0051032868
0.0050893946
0.0050740923
0.0050575612
0.0050399654
0.005021442
0.0050021431
0.0049821823
0.0049616927
0.0049406402
0.0049194522
0.0048971933
0.004874491
0.0048537723
0.0048171303
8.9899117e-06
9.2310214e-06
1.0391883e-05
1.306628e-05
1.7352142e-05
2.2791304e-05
2.8760937e-05
3.479354e-05
4.0619099e-05
4.6096291e-05
5.1142279e-05
5.5725904e-05
5.9865924e-05
6.3618131e-05
6.7086483e-05
7.0427718e-05
7.3807577e-05
7.7400574e-05
8.1419017e-05
8.6119494e-05
9.1688762e-05
9.8402822e-05
0.0001065017
0.0001161927
0.00012734803
0.0001401744
0.00015491978
0.00017143418
0.00018974461
0.00021021851
0.0002332943
0.00025949219
0.00028942318
0.00032377068
0.00036330112
0.00040892516
0.00046182152
0.00052346138
0.00059538751
0.00067925199
0.00077680238
0.00088986273
0.0010203178
0.0011701687
0.0013415263
0.0015226418
0.001715901
0.0019248227
0.0021498599
0.0023894633
0.0026405182
0.0028983106
0.0031567215
0.0034117437
0.0036608956
0.0038824659
0.0040753047
0.0042463605
0.0043981676
0.0045327668
0.0046521983
0.0047579902
0.00485152
0.0049343905
0.0050081674
0.0050741332
0.0051334315
0.0051870362
0.0052356988
0.0052800057
0.0053204082
0.0053572339
0.0053907797
0.005421225
0.005448602
0.0054728633
0.0054939242
0.005511372
0.0055250923
0.0055352123
0.0055419347
0.0055454615
0.0055460001
0.0055437857
0.0055390656
0.0055320954
0.0055231124
0.0055123427
0.0055000084
0.0054863111
0.0054714289
0.005455533
0.0054387555
0.0054212522
0.00540301
0.0053844701
0.0053647069
0.0053446166
0.0053258206
0.0052923043
8.9408841e-06
8.8619272e-06
8.945376e-06
9.3733993e-06
1.0288182e-05
1.1705103e-05
1.3541074e-05
1.5692701e-05
1.8076256e-05
2.0625844e-05
2.3279838e-05
2.5979699e-05
2.8675302e-05
3.1326055e-05
3.3907599e-05
3.6417902e-05
3.8874283e-05
4.1309562e-05
4.3776248e-05
4.6350161e-05
4.911857e-05
5.2190702e-05
5.569457e-05
5.9776006e-05
6.4567319e-05
7.0246557e-05
7.7054042e-05
8.5135566e-05
9.4556694e-05
0.00010555697
0.00011844472
0.00013359757
0.00015136462
0.00017186453
0.00019573055
0.00022373336
0.00025684719
0.00029631755
0.00034367951
0.00040076428
0.00046973767
0.00055311137
0.00065370181
0.00077455188
0.00091878091
0.0010825426
0.001263124
0.0014615925
0.0016783165
0.0019124146
0.0021612518
0.0024201409
0.0026829028
0.0029480071
0.0032140184
0.0034581273
0.0036785645
0.0038797125
0.0040624581
0.004229609
0.0043829797
0.0045230423
0.0046504569
0.0047665228
0.0048723591
0.0049688272
0.0050569834
0.0051377902
0.0052119793
0.0052802059
0.0053430393
0.0054009038
0.0054541383
0.0055029717
0.0055474579
0.0055875936
0.0056233705
0.0056545963
0.0056811911
0.005703261
0.0057210282
0.0057347482
0.0057446956
0.0057511697
0.0057544837
0.0057549514
0.0057528632
0.0057484949
0.0057421188
0.0057339815
0.0057243006
0.0057132805
0.0057010812
0.0056878867
0.0056737172
0.0056590095
0.0056429345
0.0056264431
0.0056107954
0.0055810426
8.9328877e-06
8.8092369e-06
8.7106502e-06
8.6774479e-06
8.7584217e-06
8.9872428e-06
9.3743851e-06
9.9171663e-06
1.0610593e-05
1.1449563e-05
1.2426023e-05
1.3526808e-05
1.4735249e-05
1.6031876e-05
1.7396965e-05
1.8813738e-05
2.0270051e-05
2.1758419e-05
2.3278101e-05
2.4837371e-05
2.6453074e-05
2.8151529e-05
2.9970129e-05
3.1958501e-05
3.4175267e-05
3.6693139e-05
3.9606682e-05
4.3020257e-05
4.704308e-05
5.1819679e-05
5.7544337e-05
6.4406796e-05
7.2622545e-05
8.2434874e-05
9.4189652e-05
0.00010833041
0.00012543532
0.00014625604
0.00017148561
0.00020217704
0.00023989823
0.00028665586
0.00034499541
0.00041809824
0.00050987679
0.00062314298
0.00075703918
0.00091183737
0.0010885695
0.0012875786
0.0015078975
0.0017466578
0.0019991386
0.0022629612
0.002535446
0.0028005305
0.0030435434
0.0032702405
0.0034830018
0.0036834031
0.003872517
0.0040490622
0.0042131481
0.0043661433
0.0045084316
0.0046402079
0.00476245
0.0048759176
0.0049811065
0.0050787029
0.0051693287
0.0052534294
0.0053313584
0.005403388
0.0054695485
0.0055298827
0.0055844728
0.0056333082
0.0056763982
0.0057138723
0.0057459731
0.0057729972
0.0057952814
0.005813189
0.0058271009
0.005837395
0.0058444205
0.0058485123
0.0058500039
0.0058491963
0.0058463581
0.0058417374
0.0058355323
0.0058279634
0.0058190966
0.0058093591
0.0057980689
0.0057861199
0.0057746766
0.0057492485
8.9301923e-06
8.8000206e-06
8.6732813e-06
8.5571578e-06
8.4633043e-06
8.4039491e-06
8.3885911e-06
8.4241733e-06
8.5168123e-06
8.6724645e-06
8.8963077e-06
9.19168e-06
9.5600028e-06
1.0000519e-05
1.0510705e-05
1.1086898e-05
1.1724705e-05
1.2419464e-05
1.3167155e-05
1.3965335e-05
1.4813721e-05
1.5714711e-05
1.6674577e-05
1.7704581e-05
1.8821076e-05
2.0046341e-05
2.141069e-05
2.295259e-05
2.4718482e-05
2.6766498e-05
2.9172117e-05
3.2026947e-05
3.5443367e-05
3.9560179e-05
4.4559467e-05
5.0635529e-05
5.806329e-05
6.7210881e-05
7.8508056e-05
9.2517744e-05
0.00011002594
0.00013209864
0.00016016965
0.00019615317
0.00024248865
0.00030213734
0.00037785189
0.00047161183
0.0005858487
0.00072283035
0.00088424562
0.0010706115
0.0012807117
0.0015124895
0.0017632939
0.0020239466
0.0022815913
0.0025301931
0.0027635941
0.0029862931
0.0032002953
0.0034055654
0.0036018925
0.0037895436
0.003967598
0.0041349495
0.0042927996
0.0044413501
0.0045805846
0.0047111905
0.004833614
0.0049481756
0.0050551689
0.0051548947
0.0052471876
0.0053320991
0.0054097999
0.0054803824
0.0055439329
0.0056006318
0.005650741
0.0056945803
0.0057325359
0.0057650235
0.0057924826
0.0058153578
0.0058340586
0.0058489848
0.0058605379
0.0058690834
0.0058749519
0.0058784476
0.0058798186
0.0058793326
0.0058771132
0.0058735832
0.005868234
0.0058618605
0.005855676
0.0058352577
8.9286005e-06
8.7969503e-06
8.6657189e-06
8.5358999e-06
8.4097067e-06
8.29016e-06
8.1804967e-06
8.0839569e-06
8.0039527e-06
7.9441782e-06
7.9084819e-06
7.9006164e-06
7.9240617e-06
7.9818173e-06
8.0763316e-06
8.2094924e-06
8.3825716e-06
8.5962607e-06
8.8508375e-06
9.1464023e-06
9.4831044e-06
9.8614154e-06
1.0282439e-05
1.0748371e-05
1.1262905e-05
1.1831695e-05
1.2463034e-05
1.3168532e-05
1.3963586e-05
1.4868312e-05
1.5909133e-05
1.71198e-05
1.8543208e-05
2.0233771e-05
2.2261892e-05
2.4714417e-05
2.7705121e-05
3.1386923e-05
3.5957344e-05
4.1653212e-05
4.8811756e-05
5.7895141e-05
6.9540602e-05
8.4629136e-05
0.00010436074
0.00013036127
0.00016466649
0.00020949311
0.0002674523
0.00034149678
0.00043478324
0.00055036229
0.00069067702
0.00085726619
0.0010506412
0.0012681063
0.0015025007
0.0017455504
0.0019879135
0.0022268803
0.0024573836
0.0026782717
0.0028930434
0.0031022893
0.0033055029
0.0035017342
0.0036909333
0.0038721669
0.0040442512
0.0042080128
0.0043633688
0.004510422
0.0046491891
0.0047795316
0.0049011674
0.0050141697
0.0051187031
0.0052148294
0.005302652
0.0053823721
0.0054542347
0.0055185482
0.0055757186
0.0056261794
0.0056703982
0.0057088805
0.0057420951
0.0057705025
0.0057945708
0.0058147324
0.0058313895
0.0058449118
0.0058556141
0.0058638206
0.0058697249
0.0058737574
0.0058755966
0.005875935
0.0058761142
0.0058615414
8.9276011e-06
8.7952701e-06
8.6629891e-06
8.5308018e-06
8.399042e-06
8.2682857e-06
8.1393282e-06
8.0131596e-06
7.8909718e-06
7.7741665e-06
7.6643364e-06
7.5632296e-06
7.4727139e-06
7.3947211e-06
7.3311925e-06
7.2840434e-06
7.2551187e-06
7.2461375e-06
7.2586752e-06
7.2941767e-06
7.3539785e-06
7.439357e-06
7.5515687e-06
7.691972e-06
7.8621708e-06
8.0641766e-06
8.3007006e-06
8.5754821e-06
8.8935277e-06
9.2614162e-06
9.6878192e-06
1.0184161e-05
1.0765366e-05
1.1450733e-05
1.2265394e-05
1.3241659e-05
1.4421434e-05
1.5860192e-05
1.7631127e-05
1.9828577e-05
2.2580055e-05
2.6061355e-05
3.0515124e-05
3.627349e-05
4.3811861e-05
5.380258e-05
6.7173048e-05
8.5131139e-05
0.00010924582
0.0001415241
0.00018447091
0.00024109077
0.00031477284
0.00040907116
0.00052741906
0.00067221382
0.00084339224
0.001038088
0.0012503174
0.0014743871
0.0017031998
0.0019315111
0.00215832
0.0023798714
0.0025941895
0.0028046707
0.003011429
0.0032140776
0.0034113332
0.0036028843
0.0037875513
0.0039646178
0.004134043
0.0042950131
0.0044469513
0.0045898606
0.0047236735
0.0048482265
0.004963515
0.0050696508
0.005166777
0.0052551255
0.005335062
0.005406977
0.0054713234
0.0055286409
0.0055794289
0.0056241946
0.0056634669
0.0056977393
0.0057274895
0.0057531596
0.005775141
0.0057938264
0.0058094918
0.0058225905
0.0058329943
0.0058413093
0.0058490533
0.0058413307
8.9270517e-06
8.7943412e-06
8.6616571e-06
8.5289422e-06
8.396223e-06
8.2635739e-06
8.1311533e-06
7.9992223e-06
7.8681421e-06
7.7383654e-06
7.6104289e-06
7.4849548e-06
7.3626565e-06
7.2443389e-06
7.130891e-06
7.0232802e-06
6.9225426e-06
6.8297645e-06
6.7460672e-06
6.6725963e-06
6.6105095e-06
6.5609671e-06
6.5251367e-06
6.5042057e-06
6.4994e-06
6.5120146e-06
6.5434947e-06
6.5955467e-06
6.6702253e-06
6.7700151e-06
6.8980504e-06
7.058356e-06
7.2560986e-06
7.4980248e-06
7.7929823e-06
8.1523261e-06
8.5907669e-06
9.1276343e-06
9.7884737e-06
1.0606779e-05
1.1627263e-05
1.2910883e-05
1.4541484e-05
1.663521e-05
1.9357065e-05
2.2944775e-05
2.7737862e-05
3.4209334e-05
4.3022879e-05
5.5097512e-05
7.1693039e-05
9.4507947e-05
0.00012577314
0.00016831073
0.00022553414
0.0003012339
0.00039895447
0.00052116111
0.00066822136
0.00083857393
0.001028333
0.0012323354
0.0014463487
0.0016649043
0.0018835265
0.0021019402
0.0023175398
0.0025278903
0.0027358273
0.002941358
0.0031441516
0.0033424254
0.0035356966
0.0037230165
0.0039025147
0.0040740469
0.0042370973
0.0043909896
0.0045353839
0.0046701328
0.0047951476
0.0049104425
0.0050162443
0.0051128102
0.0052005077
0.0052798603
0.0053513352
0.0054154528
0.0054727807
0.0055238507
0.0055692098
0.0056093675
0.005644793
0.0056759557
0.0057032206
0.0057270772
0.0057475931
0.0057653096
0.0057819603
0.0057822893
8.926744e-06
8.7938024e-06
8.6609188e-06
8.528051e-06
8.3951892e-06
8.2623262e-06
8.1294866e-06
7.9967467e-06
7.8642301e-06
7.7320967e-06
7.6005329e-06
7.4697522e-06
7.3400022e-06
7.2115712e-06
7.084793e-06
6.9600499e-06
6.8377765e-06
6.7184592e-06
6.6026352e-06
6.4908915e-06
6.3838622e-06
6.2822238e-06
6.1866936e-06
6.0980295e-06
6.0170293e-06
5.9445319e-06
5.8814321e-06
5.8287022e-06
5.7874153e-06
5.7587768e-06
5.7441866e-06
5.7453125e-06
5.764169e-06
5.80327e-06
5.8658261e-06
5.9558836e-06
6.0785924e-06
6.2406267e-06
6.4507484e-06
6.7205565e-06
7.065356e-06
7.5055694e-06
8.0689783e-06
8.7937979e-06
9.7336118e-06
1.0965322e-05
1.2600069e-05
1.4797805e-05
1.7790075e-05
2.191236e-05
2.764883e-05
3.5694324e-05
4.7045588e-05
6.3106117e-05
8.5807155e-05
0.0001177056
0.00016196456
0.00022211469
0.00030152311
0.00040283635
0.00052727213
0.00067423728
0.00084181409
0.0010264408
0.0012235821
0.0014298758
0.0016411163
0.0018530426
0.0020657272
0.0022772206
0.0024851822
0.0026912059
0.0028955108
0.0030977796
0.0032962102
0.00348986
0.0036778351
0.0038581841
0.0040300899
0.0041931069
0.0043466389
0.0044901936
0.004623758
0.0047472953
0.0048609464
0.0049651362
0.0050601795
0.0051465433
0.0052247854
0.0052954241
0.0053590504
0.0054162148
0.0054674511
0.005513302
0.0055542179
0.005590732
0.0056231041
0.0056518303
0.0056789029
0.0056887004
8.9265664e-06
8.7934381e-06
8.6603966e-06
8.5274295e-06
8.3945353e-06
8.2617033e-06
8.1289369e-06
7.9962701e-06
7.8637648e-06
7.7315006e-06
7.5995658e-06
7.4680539e-06
7.3370669e-06
7.206719e-06
7.0771397e-06
6.9484772e-06
6.8209016e-06
6.6946072e-06
6.5698152e-06
6.4467759e-06
6.3257705e-06
6.2071119e-06
6.0911463e-06
5.9782539e-06
5.8688503e-06
5.7633862e-06
5.6623503e-06
5.5662744e-06
5.4757373e-06
5.3913726e-06
5.3138852e-06
5.2440716e-06
5.1828413e-06
5.1312564e-06
5.0905926e-06
5.0624046e-06
5.048605e-06
5.0515876e-06
5.0744118e-06
5.1210779e-06
5.1967715e-06
5.3082749e-06
5.4646666e-06
5.6782845e-06
5.9663072e-06
6.3528519e-06
6.8723716e-06
7.5747668e-06
8.5330125e-06
9.8547539e-06
1.1699806e-05
1.4305859e-05
1.8028807e-05
2.3401369e-05
3.1214371e-05
4.2620817e-05
5.9259606e-05
8.3333395e-05
0.00011758634
0.00016514345
0.00022916673
0.00031236736
0.00041663217
0.00054253879
0.00068910298
0.00085438615
0.0010352985
0.0012277423
0.0014289061
0.0016353425
0.0018430335
0.0020519952
0.0022603431
0.0024656327
0.0026700131
0.0028734589
0.0030750849
0.0032729927
0.0034660489
0.0036531943
0.0038324984
0.0040027654
0.0041638108
0.00431492
0.0044557848
0.0045866535
0.0047074434
0.0048184726
0.0049202046
0.0050130416
0.005097569
0.0051743176
0.0052438506
0.0053067629
0.0053635666
0.0054148361
0.0054610089
0.005502546
0.0055417537
0.0055626694
8.9264981e-06
8.7932047e-06
8.6600091e-06
8.5269258e-06
8.3939687e-06
8.2611375e-06
8.1284384e-06
7.9958972e-06
7.8635591e-06
7.7314815e-06
7.5997261e-06
7.4683553e-06
7.3374321e-06
7.2070219e-06
7.0771943e-06
6.9480234e-06
6.8195901e-06
6.6919831e-06
6.5653009e-06
6.4396525e-06
6.3151603e-06
6.1919607e-06
6.0702064e-06
5.9500676e-06
5.8317342e-06
5.7154168e-06
5.6013486e-06
5.4897875e-06
5.3810185e-06
5.2753553e-06
5.1731456e-06
5.0747767e-06
4.9806818e-06
4.8913496e-06
4.8073416e-06
4.7293126e-06
4.6580353e-06
4.594436e-06
4.5396491e-06
4.4950943e-06
4.4625679e-06
4.4443674e-06
4.4434959e-06
4.4639392e-06
4.5111413e-06
4.592586e-06
4.7187643e-06
4.9047261e-06
5.1725298e-06
5.5548013e-06
6.1000523e-06
6.8815363e-06
8.0111103e-06
9.6611149e-06
1.2098293e-05
1.5734477e-05
2.1200741e-05
2.944006e-05
4.1801952e-05
6.0110493e-05
8.6683781e-05
0.00012423316
0.00017566591
0.00024375346
0.00033070997
0.00043793399
0.00056568203
0.00071279333
0.00087736634
0.0010566222
0.0012467561
0.0014452406
0.0016487357
0.0018534862
0.002059913
0.0022657167
0.0024692896
0.0026721463
0.0028747333
0.0030751538
0.0032715441
0.0034627245
0.0036476245
0.0038239147
0.0039908201
0.0041484005
0.0042956424
0.0044326726
0.0045597115
0.0046768454
0.004784582
0.0048833134
0.0049735697
0.005055948
0.0051309692
0.0051992306
0.0052613137
0.0053176395
0.0053708983
0.0054048233
8.926535e-06
8.7931019e-06
8.6597637e-06
8.5265552e-06
8.393504e-06
8.2606218e-06
8.1279219e-06
7.9954307e-06
7.8631885e-06
7.7312452e-06
7.5996546e-06
7.4684709e-06
7.3377479e-06
7.2075395e-06
7.0779001e-06
6.9488848e-06
6.8205501e-06
6.6929538e-06
6.5661561e-06
6.4402197e-06
6.3152111e-06
6.191201e-06
6.0682653e-06
5.9464862e-06
5.8259533e-06
5.7067647e-06
5.5890284e-06
5.4728635e-06
5.3584018e-06
5.245789e-06
5.1351869e-06
5.0267757e-06
4.9207561e-06
4.817353e-06
4.7168195e-06
4.619444e-06
4.525557e-06
4.4355417e-06
4.3498497e-06
4.2690221e-06
4.1937175e-06
4.1247496e-06
4.063145e-06
4.0102254e-06
3.9677265e-06
3.9379831e-06
3.9242067e-06
3.9309049e-06
3.9645997e-06
4.0348651e-06
4.1558442e-06
4.3489229e-06
4.6470667e-06
5.1016391e-06
5.7932204e-06
6.8498318e-06
8.4753985e-06
1.0992873e-05
1.4902692e-05
2.0956226e-05
3.0239984e-05
4.4250298e-05
6.4919826e-05
9.4595485e-05
0.00013590884
0.00019157007
0.00026406967
0.00035528998
0.00046630503
0.00059714153
0.00074647525
0.00091236584
0.0010920104
0.0012817148
0.0014792787
0.0016809687
0.0018840746
0.0020889209
0.0022925452
0.0024945857
0.0026959472
0.0028971592
0.0030954992
0.0032893158
0.0034773793
0.0036587517
0.0038304974
0.0039928802
0.0041455512
0.0042879175
0.0044203586
0.0045428922
0.0046559273
0.0047599656
0.00485544
0.0049429326
0.0050231026
0.0050963087
0.0051656994
0.0052147491
8.9266684e-06
8.7931234e-06
8.6596631e-06
8.5263366e-06
8.393182e-06
8.2602218e-06
8.1274763e-06
7.9949747e-06
7.8627558e-06
7.7308665e-06
7.5993572e-06
7.4682793e-06
7.3376846e-06
7.2076243e-06
7.0781501e-06
6.949313e-06
6.8211643e-06
6.6937545e-06
6.5671345e-06
6.4413546e-06
6.3164657e-06
6.1925186e-06
6.0695649e-06
5.9476573e-06
5.8268497e-06
5.7071983e-06
5.5887617e-06
5.4716019e-06
5.3557852e-06
5.2413826e-06
5.1284712e-06
5.0171352e-06
4.9074673e-06
4.7995695e-06
4.6935556e-06
4.5895529e-06
4.4877048e-06
4.3881743e-06
4.2911481e-06
4.1968433e-06
4.1055149e-06
4.0174671e-06
3.9330692e-06
3.8527792e-06
3.7771756e-06
3.7070083e-06
3.6432786e-06
3.5873534e-06
3.5411543e-06
3.5074504e-06
3.4903038e-06
3.4957965e-06
3.5332733e-06
3.6173102e-06
3.7708411e-06
4.0307118e-06
4.4570456e-06
5.1473471e-06
6.2591549e-06
8.0433327e-06
1.0891486e-05
1.5397369e-05
2.2427689e-05
3.319551e-05
4.9318824e-05
7.2823235e-05
0.00010608604
0.00015169889
0.00021224623
0.00029002794
0.00038666567
0.00050294223
0.00063856025
0.0007919048
0.00096093493
0.0011425279
0.0013333048
0.0015312939
0.001731898
0.0019339995
0.002137342
0.0023388648
0.0025390038
0.0027391359
0.0029380325
0.0031333191
0.0033235354
0.0035075237
0.0036835974
0.003849986
0.004007066
0.0041539948
0.0042909883
0.00441827
0.0045360222
0.0046447476
0.0047450599
0.0048372189
0.0049248713
0.0049913258
8.9268865e-06
8.7932551e-06
8.6596957e-06
8.5262665e-06
8.393014e-06
8.2599689e-06
8.1271585e-06
7.9946147e-06
7.8623769e-06
7.7304898e-06
7.599002e-06
7.4679638e-06
7.3374257e-06
7.2074387e-06
7.0780536e-06
6.9493211e-06
6.8212917e-06
6.694015e-06
6.56754e-06
6.441915e-06
6.3171872e-06
6.1934032e-06
6.0706084e-06
5.9488475e-06
5.8281645e-06
5.7086029e-06
5.5902055e-06
5.4730152e-06
5.3570751e-06
5.2424288e-06
5.129121e-06
5.0171977e-06
4.9067072e-06
4.7977006e-06
4.6902323e-06
4.5843614e-06
4.4801523e-06
4.3776762e-06
4.2770124e-06
4.1782506e-06
4.081493e-06
3.9868577e-06
3.8944832e-06
3.8045352e-06
3.717215e-06
3.6327736e-06
3.5515335e-06
3.4739198e-06
3.4005106e-06
3.3321154e-06
3.2698981e-06
3.215573e-06
3.1717324e-06
3.1423881e-06
3.1338561e-06
3.1562818e-06
3.2263691e-06
3.3715335e-06
3.6370188e-06
4.0974598e-06
4.8742781e-06
6.1617144e-06
8.2643602e-06
1.1648066e-05
1.7004046e-05
2.531879e-05
3.7940312e-05
5.6626903e-05
8.3517253e-05
0.00012106686
0.00017187693
0.00023845204
0.00032290493
0.00042654797
0.00054980903
0.00069189365
0.0008508629
0.0010245383
0.0012091913
0.0014019396
0.001600602
0.0018003864
0.0020015368
0.0022025066
0.0024020987
0.0026000284
0.0027985761
0.0029944159
0.0031859076
0.003371663
0.0035507181
0.0037204108
0.0038808749
0.0040317422
0.0041726735
0.0043040071
0.0044260795
0.0045390124
0.0046468803
0.0047330596
8.9271766e-06
8.7934809e-06
8.6598435e-06
8.5263289e-06
8.3929896e-06
8.2598634e-06
8.1269833e-06
7.9943846e-06
7.8621072e-06
7.7301953e-06
7.5986962e-06
7.467659e-06
7.3371338e-06
7.2071711e-06
7.0778214e-06
6.9491356e-06
6.8211638e-06
6.693956e-06
6.5675609e-06
6.4420269e-06
6.3174008e-06
6.1937286e-06
6.0710548e-06
5.9494228e-06
5.8288744e-06
5.7094502e-06
5.5911892e-06
5.4741294e-06
5.3583072e-06
5.243758e-06
5.1305163e-06
5.0186154e-06
4.9080885e-06
4.7989681e-06
4.691287e-06
4.585078e-06
4.4803752e-06
4.3772137e-06
4.2756306e-06
4.1756657e-06
4.0773624e-06
3.9807687e-06
3.8859384e-06
3.7929333e-06
3.7018259e-06
3.6127026e-06
3.52567e-06
3.4408635e-06
3.3584605e-06
3.2787012e-06
3.2019214e-06
3.1286046e-06
3.0594669e-06
2.995599e-06
2.9387033e-06
2.8914973e-06
2.8584315e-06
2.8468692e-06
2.8690953e-06
2.9457623e-06
3.1113345e-06
3.4227529e-06
3.9734649e-06
4.9134883e-06
6.4797676e-06
9.0383352e-06
1.3140821e-05
1.95937e-05
2.9527234e-05
4.4459703e-05
6.6331652e-05
9.7436072e-05
0.00014034767
0.00019768797
0.0002718695
0.00036473214
0.00047717639
0.00060917332
0.00075921717
0.00092501374
0.0011040356
0.0012921541
0.001487088
0.0016852082
0.0018844309
0.0020843767
0.0022827973
0.0024799138
0.002676554
0.0028720959
0.00306406
0.003250925
0.0034315955
0.003604235
0.0037675057
0.0039215856
0.0040660791
0.0042009706
0.0043304847
0.0044385105
8.9275272e-06
8.7937848e-06
8.6600876e-06
8.5265037e-06
8.3930903e-06
8.2598907e-06
8.1269431e-06
7.9942861e-06
7.8619607e-06
7.7300111e-06
7.598484e-06
7.4674278e-06
7.3368919e-06
7.2069264e-06
7.0775818e-06
6.9489085e-06
6.8209568e-06
6.6937765e-06
6.5674167e-06
6.4419256e-06
6.3173504e-06
6.1937371e-06
6.0711304e-06
5.9495735e-06
5.8291084e-06
5.7097751e-06
5.5916124e-06
5.4746572e-06
5.3589447e-06
5.2445086e-06
5.1313808e-06
5.0195915e-06
4.9091694e-06
4.8001419e-06
4.6925348e-06
4.5863727e-06
4.4816792e-06
4.3784772e-06
4.2767886e-06
4.1766354e-06
4.0780393e-06
3.9810227e-06
3.8856087e-06
3.791822e-06
3.6996895e-06
3.6092418e-06
3.5205142e-06
3.4335497e-06
3.3484024e-06
3.2651429e-06
3.1838674e-06
3.1047105e-06
3.0278681e-06
2.953633e-06
2.882456e-06
2.8150498e-06
2.7525712e-06
2.6969322e-06
2.6513346e-06
2.6211985e-06
2.6157319e-06
2.6505051e-06
2.7518243e-06
2.9633299e-06
3.3566466e-06
4.0481312e-06
5.222533e-06
7.1692084e-06
1.0331168e-05
1.5369784e-05
2.3240856e-05
3.5262809e-05
5.3177625e-05
7.9149305e-05
0.00011567419
0.00016545101
0.00023108283
0.00031481307
0.00041803085
0.00054104959
0.00068316171
0.00084207831
0.0010152391
0.0011991387
0.0013905338
0.0015871794
0.0017843502
0.0019825222
0.0021797986
0.0023758654
0.0025706427
0.0027653496
0.0029572055
0.0031447381
0.0033265668
0.0035014189
0.0036671902
0.003823967
0.0039755397
0.0041068887
8.9279283e-06
8.7941532e-06
8.6604109e-06
8.5267717e-06
8.3932959e-06
8.2600318e-06
8.1270217e-06
7.9943074e-06
7.8619316e-06
7.7299389e-06
7.5983758e-06
7.4672903e-06
7.3367314e-06
7.2067489e-06
7.0773929e-06
6.9487136e-06
6.8207613e-06
6.6935856e-06
6.5672356e-06
6.4417594e-06
6.3172044e-06
6.1936166e-06
6.0710409e-06
5.9495207e-06
5.829098e-06
5.7098131e-06
5.5917049e-06
5.4748102e-06
5.3591644e-06
5.244801e-06
5.1317516e-06
5.020046e-06
4.909712e-06
4.8007759e-06
4.693262e-06
4.5871926e-06
4.4825888e-06
4.3794695e-06
4.2778526e-06
4.177754e-06
4.0791888e-06
3.9821706e-06
3.8867122e-06
3.7928257e-06
3.7005226e-06
3.6098143e-06
3.5207129e-06
3.4332312e-06
3.3473847e-06
3.2631922e-06
3.1806789e-06
3.0998794e-06