/*--------------------------------*- C++ -*----------------------------------*\
| =========                 |                                                 |
| \\      /  F ield         | OpenFOAM: The Open Source CFD Toolbox           |
|  \\    /   O peration     | Version:  2206                                  |
|   \\  /    A nd           | Website:  www.openfoam.com                      |
|    \\/     M anipulation  |                                                 |
\*---------------------------------------------------------------------------*/
FoamFile
{
    version     2.0;
    format      ascii;
    arch        "LSB;label=32;scalar=64";
    class       volScalarField;
    location    "1700";
    object      nut;
}
// * * * * * * * * * * * * * * * * * * * * * * * * * * * * * * * * * * * * * //

dimensions      [0 2 -1 0 0 0 0];

internalField   nonuniform List<scalar> 
7480
(
1.5120927e-06
1.8587645e-06
1.5441734e-06
1.0161574e-06
6.045717e-07
3.7092388e-07
2.5856883e-07
2.037829e-07
1.7340401e-07
1.5361772e-07
1.3832993e-07
1.2521561e-07
1.1378782e-07
1.0389856e-07
9.5321558e-08
8.7850695e-08
8.1323339e-08
7.5588714e-08
7.0487237e-08
6.5915381e-08
6.1810228e-08
5.8103878e-08
5.4734021e-08
5.166133e-08
4.8854663e-08
4.628034e-08
4.390845e-08
4.1719956e-08
3.9699797e-08
3.783076e-08
3.6097854e-08
3.4491299e-08
3.3002488e-08
3.1621811e-08
3.034121e-08
2.9155213e-08
2.8058819e-08
2.7047136e-08
2.6116855e-08
2.5266324e-08
2.449415e-08
2.3798891e-08
2.31806e-08
2.2639162e-08
2.2175098e-08
2.1801968e-08
2.1506778e-08
2.130716e-08
2.1201422e-08
2.1186428e-08
2.1259103e-08
2.1415551e-08
2.1647542e-08
2.1940025e-08
2.2278277e-08
2.265214e-08
2.3039244e-08
2.3406322e-08
2.3721682e-08
2.3959612e-08
2.4120014e-08
2.4203175e-08
2.421644e-08
2.4170107e-08
2.407714e-08
2.3949333e-08
2.3797086e-08
2.3628713e-08
2.345018e-08
2.3265912e-08
2.3079271e-08
2.2892242e-08
2.2706088e-08
2.252214e-08
2.2340733e-08
2.2162054e-08
2.1986175e-08
2.1805829e-08
2.162164e-08
2.1435792e-08
2.1249166e-08
2.1062205e-08
2.0874185e-08
2.0684826e-08
2.0494076e-08
2.0301899e-08
2.0108603e-08
1.9914266e-08
1.9719331e-08
1.952394e-08
1.9328394e-08
1.9132824e-08
1.8937668e-08
1.8741842e-08
1.8548562e-08
1.834619e-08
1.816932e-08
1.7915471e-08
1.7772409e-08
1.738471e-08
1.4111622e-06
1.6301552e-06
1.538566e-06
1.2881041e-06
1.0362381e-06
8.1134204e-07
6.4381944e-07
5.1802368e-07
4.21459e-07
3.4678597e-07
2.8966801e-07
2.4639118e-07
2.1352619e-07
1.8823016e-07
1.6835006e-07
1.5236285e-07
1.3922632e-07
1.2820682e-07
1.1880191e-07
1.1067866e-07
1.0360974e-07
9.7418876e-08
9.1972108e-08
8.7171143e-08
8.2844701e-08
7.8912356e-08
7.5330492e-08
7.2077274e-08
6.9139389e-08
6.6504992e-08
6.4166501e-08
6.2121494e-08
6.0368759e-08
5.8907169e-08
5.773826e-08
5.6866765e-08
5.629964e-08
5.6048981e-08
5.6135203e-08
5.6587516e-08
5.7442794e-08
5.8746218e-08
6.055342e-08
6.2928969e-08
6.595398e-08
6.9711341e-08
7.425951e-08
7.9651157e-08
8.5899301e-08
9.2996808e-08
1.0091538e-07
1.0965169e-07
1.1901436e-07
1.2878153e-07
1.3873887e-07
1.4856704e-07
1.5779363e-07
1.6599084e-07
1.7290083e-07
1.7849216e-07
1.8287979e-07
1.8625818e-07
1.8881808e-07
1.9063019e-07
1.918586e-07
1.9264787e-07
1.93112e-07
1.9333449e-07
1.933763e-07
1.9328176e-07
1.9308152e-07
1.9279425e-07
1.9243709e-07
1.9202326e-07
1.9155744e-07
1.9104042e-07
1.90457e-07
1.8965468e-07
1.8869838e-07
1.8764076e-07
1.8649879e-07
1.8527724e-07
1.8397763e-07
1.8260555e-07
1.8116601e-07
1.7966665e-07
1.7811491e-07
1.7651829e-07
1.7488503e-07
1.7322177e-07
1.7153526e-07
1.6983145e-07
1.6811614e-07
1.6639302e-07
1.6466451e-07
1.6293162e-07
1.6121724e-07
1.5926713e-07
1.5789966e-07
1.5465081e-07
1.1014222e-06
1.4048264e-06
1.4358937e-06
1.341022e-06
1.2076713e-06
1.0741471e-06
9.669537e-07
8.8449096e-07
8.2038399e-07
7.681098e-07
7.2392893e-07
6.7966259e-07
6.3734104e-07
6.0220612e-07
5.7247278e-07
5.4693144e-07
5.2489913e-07
5.0588436e-07
4.8952744e-07
4.7559069e-07
4.639103e-07
4.5434845e-07
4.4680702e-07
4.4119469e-07
4.3359672e-07
4.2646201e-07
4.199614e-07
4.1430372e-07
4.096949e-07
4.06333e-07
4.0442955e-07
4.0420447e-07
4.0587056e-07
4.0964155e-07
4.1574665e-07
4.2442676e-07
4.3594335e-07
4.5063101e-07
4.6892287e-07
4.9135298e-07
5.1855452e-07
5.5127341e-07
5.9038185e-07
6.3687196e-07
6.9194246e-07
7.5665552e-07
8.3190818e-07
9.1821383e-07
1.015661e-06
1.1240255e-06
1.2423135e-06
1.3697033e-06
1.504283e-06
1.6430959e-06
1.7832197e-06
1.9203144e-06
2.0484729e-06
2.1626393e-06
2.260043e-06
2.3405951e-06
2.4059098e-06
2.4586821e-06
2.4998963e-06
2.531628e-06
2.5561606e-06
2.5752821e-06
2.5903539e-06
2.6023475e-06
2.6119619e-06
2.6196996e-06
2.6258986e-06
2.6307591e-06
2.6344798e-06
2.6372089e-06
2.6389918e-06
2.6398275e-06
2.6394932e-06
2.6357128e-06
2.6295768e-06
2.6218462e-06
2.612753e-06
2.6023632e-06
2.5907116e-06
2.5778893e-06
2.5639743e-06
2.5490804e-06
2.5333126e-06
2.5167784e-06
2.4995912e-06
2.4818439e-06
2.463631e-06
2.4450373e-06
2.4261402e-06
2.4070169e-06
2.3876388e-06
2.3682624e-06
2.3485392e-06
2.3266003e-06
2.3112039e-06
2.2731609e-06
5.084793e-07
9.5918037e-07
1.1798321e-06
1.2285009e-06
1.2004479e-06
1.1429254e-06
1.080427e-06
1.0213774e-06
9.6990966e-07
9.3010621e-07
9.0614926e-07
9.0236229e-07
9.0575847e-07
8.5765166e-07
8.2194183e-07
7.9452089e-07
7.7451192e-07
7.6001269e-07
7.4999791e-07
7.4383181e-07
7.4111216e-07
7.4155329e-07
7.4498639e-07
7.5125231e-07
7.5982158e-07
7.7018049e-07
7.8219432e-07
7.9608092e-07
8.1223113e-07
8.3112362e-07
8.5330781e-07
8.7939938e-07
9.1007106e-07
9.4605475e-07
9.8814862e-07
1.0372087e-06
1.094204e-06
1.1604069e-06
1.2374088e-06
1.3271068e-06
1.4317002e-06
1.5537103e-06
1.6960086e-06
1.8618171e-06
2.0547612e-06
2.2781595e-06
2.5343047e-06
2.8248145e-06
3.1501796e-06
3.5098105e-06
3.9017536e-06
4.3200773e-06
4.7614542e-06
5.2181855e-06
5.681825e-06
6.1407265e-06
6.5797718e-06
6.9850197e-06
7.3474493e-06
7.6642352e-06
7.9378993e-06
8.1723234e-06
8.3701366e-06
8.5383189e-06
8.6832948e-06
8.810358e-06
8.9236587e-06
9.0262464e-06
9.1203015e-06
9.2073633e-06
9.2884622e-06
9.3641966e-06
9.4350797e-06
9.5015064e-06
9.5635804e-06
9.6212325e-06
9.6739824e-06
9.7001859e-06
9.7153242e-06
9.7241982e-06
9.7275301e-06
9.7255836e-06
9.7185226e-06
9.7066746e-06
9.690343e-06
9.6699323e-06
9.6458189e-06
9.618382e-06
9.5880152e-06
9.5550497e-06
9.5198064e-06
9.4825945e-06
9.4436785e-06
9.4033662e-06
9.3615092e-06
9.3192684e-06
9.2746704e-06
9.2242247e-06
9.1898397e-06
9.0978943e-06
2.2507491e-07
4.2726468e-07
6.9864849e-07
8.9332703e-07
9.8970422e-07
1.0235315e-06
1.0250522e-06
1.0107629e-06
9.8913237e-07
9.6536724e-07
9.4377933e-07
9.2877023e-07
9.2201708e-07
9.2305796e-07
9.3201494e-07
9.4898705e-07
9.6928775e-07
9.5329124e-07
9.2966688e-07
9.1681928e-07
9.1363356e-07
9.1846223e-07
9.3038661e-07
9.4877969e-07
9.7328188e-07
1.0037251e-06
1.0384462e-06
1.0775023e-06
1.121436e-06
1.17078e-06
1.2261372e-06
1.2882421e-06
1.3580048e-06
1.436547e-06
1.5252342e-06
1.6256799e-06
1.7395231e-06
1.8683962e-06
2.0150571e-06
2.1828363e-06
2.3755349e-06
2.5974271e-06
2.8532959e-06
3.1484676e-06
3.4887283e-06
3.8789632e-06
4.32123e-06
4.8166843e-06
5.3660258e-06
5.9691199e-06
6.6242746e-06
7.3264635e-06
8.066324e-06
8.8341953e-06
9.6194032e-06
1.040815e-05
1.1176637e-05
1.1901621e-05
1.2568378e-05
1.3170931e-05
1.3707999e-05
1.4182251e-05
1.4600003e-05
1.4969652e-05
1.52998e-05
1.5598112e-05
1.5871044e-05
1.612367e-05
1.6359778e-05
1.6582132e-05
1.679256e-05
1.6992024e-05
1.7181689e-05
1.7362321e-05
1.7534085e-05
1.7696785e-05
1.7849552e-05
1.7986591e-05
1.8107851e-05
1.8214857e-05
1.830868e-05
1.838992e-05
1.8458924e-05
1.8516268e-05
1.8562592e-05
1.8598702e-05
1.8625423e-05
1.8643571e-05
1.8654008e-05
1.8657497e-05
1.8654697e-05
1.8646338e-05
1.8633064e-05
1.8615528e-05
1.8593773e-05
1.8569398e-05
1.8540966e-05
1.8499847e-05
1.8478774e-05
1.8402077e-05
1.7530503e-07
2.1588448e-07
3.1856545e-07
4.6494397e-07
6.052453e-07
7.1032941e-07
7.7986771e-07
8.2291076e-07
8.4802133e-07
8.6128169e-07
8.6697816e-07
8.6869375e-07
8.6922999e-07
8.7061785e-07
8.7461782e-07
8.8290799e-07
8.9633e-07
9.1552713e-07
9.4160515e-07
9.7582547e-07
1.0156171e-06
1.0618063e-06
1.057047e-06
1.0562531e-06
1.067089e-06
1.088245e-06
1.1196974e-06
1.1617539e-06
1.214899e-06
1.2798398e-06
1.3575462e-06
1.4493479e-06
1.5571715e-06
1.684045e-06
1.8350421e-06
2.0181943e-06
2.2359921e-06
2.475197e-06
2.7407937e-06
3.0384589e-06
3.3739842e-06
3.753481e-06
4.1836944e-06
4.672509e-06
5.2299328e-06
5.855256e-06
6.5391672e-06
7.279577e-06
8.0782107e-06
8.9362124e-06
9.8526127e-06
1.0822837e-05
1.1837058e-05
1.2881886e-05
1.3946066e-05
1.4997482e-05
1.6005287e-05
1.6954224e-05
1.7837772e-05
1.8655421e-05
1.940933e-05
2.0102583e-05
2.073987e-05
2.1327408e-05
2.1871833e-05
2.2379597e-05
2.2856808e-05
2.330863e-05
2.3739097e-05
2.4151345e-05
2.4546469e-05
2.4924004e-05
2.5288783e-05
2.5641514e-05
2.5981995e-05
2.6309529e-05
2.6622424e-05
2.6918854e-05
2.7195615e-05
2.7451314e-05
2.7685866e-05
2.789952e-05
2.8092492e-05
2.8265346e-05
2.8418868e-05
2.8554126e-05
2.8672308e-05
2.8774643e-05
2.8862478e-05
2.8937072e-05
2.899889e-05
2.9049674e-05
2.909068e-05
2.9122958e-05
2.9146955e-05
2.9164331e-05
2.9175429e-05
2.9165047e-05
2.9174865e-05
2.9133688e-05
1.6890575e-07
1.748006e-07
1.962242e-07
2.4158633e-07
3.0835424e-07
3.8392574e-07
4.5671538e-07
5.2094469e-07
5.7519723e-07
6.1994194e-07
6.5622902e-07
6.8539377e-07
7.0890735e-07
7.2821972e-07
7.4478563e-07
7.6008263e-07
7.7544769e-07
7.9211873e-07
8.1142885e-07
8.3487878e-07
8.6342647e-07
8.9843179e-07
9.4048103e-07
9.8983525e-07
1.0450009e-06
1.1061262e-06
1.1741624e-06
1.2083492e-06
1.2332966e-06
1.2729401e-06
1.3285667e-06
1.4020668e-06
1.4959067e-06
1.6131004e-06
1.7575803e-06
1.934843e-06
2.1514448e-06
2.4125182e-06
2.7238896e-06
3.092757e-06
3.527734e-06
4.0392375e-06
4.6406805e-06
5.3514878e-06
6.2043144e-06
6.9692404e-06
7.8046454e-06
8.7621787e-06
9.8394916e-06
1.1030325e-05
1.2321844e-05
1.3690678e-05
1.5103502e-05
1.656369e-05
1.8073256e-05
1.9177921e-05
2.0095457e-05
2.100327e-05
2.1904344e-05
2.2797705e-05
2.367821e-05
2.4540868e-05
2.5382069e-05
2.6199238e-05
2.699083e-05
2.7757355e-05
2.8500611e-05
2.9222213e-05
2.9923749e-05
3.0606973e-05
3.1273128e-05
3.1922481e-05
3.2555516e-05
3.3172311e-05
3.3772052e-05
3.4353431e-05
3.4913995e-05
3.5452018e-05
3.5964434e-05
3.6448322e-05
3.6902026e-05
3.732486e-05
3.7716578e-05
3.807752e-05
3.8408459e-05
3.8710608e-05
3.8985429e-05
3.9234522e-05
3.9459738e-05
3.9662879e-05
3.9845653e-05
4.0009813e-05
4.0156999e-05
4.0288709e-05
4.0406048e-05
4.0510438e-05
4.0604946e-05
4.0668288e-05
4.0744782e-05
4.0789934e-05
1.6818094e-07
1.6866159e-07
1.7195725e-07
1.8125871e-07
1.9895104e-07
2.2489502e-07
2.5727349e-07
2.9356815e-07
3.3180062e-07
3.7051334e-07
4.0854406e-07
4.4498116e-07
4.7922223e-07
5.1094861e-07
5.4013817e-07
5.6705257e-07
5.9214817e-07
6.1600729e-07
6.393555e-07
6.6308186e-07
6.8811319e-07
7.1551091e-07
7.463541e-07
7.8171162e-07
8.2234416e-07
8.6919453e-07
9.2357251e-07
9.8585222e-07
1.0558694e-06
1.134816e-06
1.2243968e-06
1.3267557e-06
1.427648e-06
1.4948859e-06
1.5857103e-06
1.7048143e-06
1.8584736e-06
2.0547502e-06
2.3034173e-06
2.6161334e-06
3.0069486e-06
3.4927154e-06
4.0933879e-06
4.83241e-06
5.7384118e-06
6.7097866e-06
7.707566e-06
8.8170596e-06
1.0049729e-05
1.1405712e-05
1.2869738e-05
1.4406899e-05
1.5971669e-05
1.7626795e-05
1.93927e-05
2.0669701e-05
2.1768337e-05
2.2849561e-05
2.3923895e-05
2.4999927e-05
2.6079931e-05
2.7164827e-05
2.8249816e-05
2.9329488e-05
3.0400381e-05
3.1461296e-05
3.2510706e-05
3.3546442e-05
3.4567937e-05
3.5575486e-05
3.656866e-05
3.7546683e-05
3.8508625e-05
3.9453195e-05
4.0378112e-05
4.128092e-05
4.2158172e-05
4.3006765e-05
4.38236e-05
4.4605196e-05
4.5348555e-05
4.6051688e-05
4.6713452e-05
4.7333552e-05
4.7912419e-05
4.8451102e-05
4.895103e-05
4.9413935e-05
4.9842001e-05
5.0237448e-05
5.0602687e-05
5.0939905e-05
5.125118e-05
5.1538419e-05
5.1803507e-05
5.2047443e-05
5.227623e-05
5.246458e-05
5.265188e-05
5.2845283e-05
1.6814552e-07
1.6787287e-07
1.6803222e-07
1.693464e-07
1.7271263e-07
1.7877094e-07
1.8775295e-07
1.9960419e-07
2.1418703e-07
2.3138442e-07
2.5106252e-07
2.7272827e-07
2.9591295e-07
3.2014388e-07
3.4498489e-07
3.700863e-07
3.9520055e-07
4.2018128e-07
4.4500786e-07
4.6980663e-07
4.9483256e-07
5.2047314e-07
5.4724892e-07
5.7580613e-07
6.0684959e-07
6.4118581e-07
6.7980149e-07
7.2367223e-07
7.7368943e-07
8.3101338e-07
8.9719333e-07
9.7366111e-07
1.0619309e-06
1.1633647e-06
1.2801721e-06
1.4152255e-06
1.572319e-06
1.7565956e-06
1.9284993e-06
2.1214051e-06
2.373133e-06
2.7010155e-06
3.1275937e-06
3.6821984e-06
4.401849e-06
5.3211797e-06
6.2975397e-06
7.3655259e-06
8.5759347e-06
9.9380357e-06
1.145347e-05
1.3111474e-05
1.488819e-05
1.6777171e-05
1.8775083e-05
2.0624308e-05
2.190903e-05
2.3189306e-05
2.4437609e-05
2.5674638e-05
2.6932875e-05
2.8216703e-05
2.9508234e-05
3.0809596e-05
3.2126824e-05
3.3455428e-05
3.4789805e-05
3.6126631e-05
3.7465217e-05
3.8803404e-05
4.0137362e-05
4.1465001e-05
4.2784477e-05
4.409239e-05
4.5383643e-05
4.6653832e-05
4.7897674e-05
4.9109926e-05
5.0286507e-05
5.1423286e-05
5.2516081e-05
5.356158e-05
5.4557432e-05
5.5502223e-05
5.6395632e-05
5.7238136e-05
5.8030674e-05
5.8774722e-05
5.9472483e-05
6.0126317e-05
6.0738923e-05
6.13129e-05
6.1850696e-05
6.235453e-05
6.2827061e-05
6.3268766e-05
6.3688281e-05
6.4058792e-05
6.4408556e-05
6.482021e-05
1.6818982e-07
1.6781411e-07
1.6749271e-07
1.6735557e-07
1.6761805e-07
1.6851577e-07
1.7024546e-07
1.7296119e-07
1.7680239e-07
1.819093e-07
1.8841314e-07
1.9639284e-07
2.0588037e-07
2.1685853e-07
2.293413e-07
2.4328023e-07
2.5850526e-07
2.7485746e-07
2.9220891e-07
3.1047057e-07
3.2960173e-07
3.4962233e-07
3.7062521e-07
3.9278952e-07
4.1637877e-07
4.4175025e-07
4.6938337e-07
4.9986937e-07
5.3389153e-07
5.7227085e-07
6.1603541e-07
6.6637755e-07
7.2468101e-07
7.925184e-07
8.7184551e-07
9.6462592e-07
1.0735948e-06
1.2023414e-06
1.3546434e-06
1.535406e-06
1.751629e-06
2.0126747e-06
2.3307554e-06
2.7215141e-06
3.186545e-06
3.76612e-06
4.5195269e-06
5.3774215e-06
6.3846817e-06
7.5557852e-06
8.9030985e-06
1.0432857e-05
1.2141459e-05
1.4023587e-05
1.6074831e-05
1.8246284e-05
2.0452849e-05
2.2482953e-05
2.3872624e-05
2.5254643e-05
2.6659175e-05
2.8073413e-05
2.948778e-05
3.0934334e-05
3.2433632e-05
3.3954638e-05
3.5497254e-05
3.7070918e-05
3.8671984e-05
4.029312e-05
4.1929865e-05
4.3582097e-05
4.5245187e-05
4.6912598e-05
4.8575532e-05
5.0226825e-05
5.1857937e-05
5.346128e-05
5.5031095e-05
5.6561485e-05
5.8046729e-05
5.9482201e-05
6.0863906e-05
6.2188718e-05
6.3455071e-05
6.46623e-05
6.5810223e-05
6.6899532e-05
6.7931893e-05
6.8909346e-05
6.983443e-05
7.0709829e-05
7.1538151e-05
7.2321745e-05
7.3063899e-05
7.3764498e-05
7.4434227e-05
7.504684e-05
7.5615702e-05
7.6319557e-05
1.6824336e-07
1.6785075e-07
1.6745955e-07
1.6708837e-07
1.6677816e-07
1.6658688e-07
1.6657928e-07
1.6682269e-07
1.673902e-07
1.6836376e-07
1.6983284e-07
1.7188828e-07
1.7461805e-07
1.7810256e-07
1.8241806e-07
1.8763171e-07
1.9379129e-07
2.0092762e-07
2.090595e-07
2.1819968e-07
2.2838816e-07
2.3970942e-07
2.5218205e-07
2.6581274e-07
2.80653e-07
2.9680927e-07
3.1445182e-07
3.3382881e-07
3.5527285e-07
3.7920776e-07
4.0617483e-07
4.3684981e-07
4.720695e-07
5.1285937e-07
5.6049644e-07
6.1648623e-07
6.8271424e-07
7.616047e-07
8.5609993e-07
9.6955057e-07
1.106548e-06
1.2731347e-06
1.4772722e-06
1.7294039e-06
2.04275e-06
2.4337971e-06
2.9207663e-06
3.5196226e-06
4.2476881e-06
5.1234961e-06
6.1662115e-06
7.3938693e-06
8.8205228e-06
1.0456284e-05
1.2308509e-05
1.4364312e-05
1.6579508e-05
1.8900293e-05
2.1256762e-05
2.363423e-05
2.5604732e-05
2.7112433e-05
2.8629571e-05
3.0182057e-05
3.1768138e-05
3.3370884e-05
3.5017608e-05
3.6740908e-05
3.850761e-05
4.0312621e-05
4.216756e-05
4.407388e-05
4.6017492e-05
4.7988576e-05
4.9979343e-05
5.197887e-05
5.3974635e-05
5.595821e-05
5.7921199e-05
5.9854048e-05
6.1749228e-05
6.3600247e-05
6.5400367e-05
6.7144141e-05
6.8828016e-05
7.0449243e-05
7.2005828e-05
7.3496913e-05
7.4922755e-05
7.6284358e-05
7.7583509e-05
7.8822403e-05
8.0003473e-05
8.1128839e-05
8.2202152e-05
8.32226e-05
8.4202244e-05
8.5116765e-05
8.596339e-05
8.7033297e-05
1.6834507e-07
1.6795291e-07
1.6755445e-07
1.6715105e-07
1.6674919e-07
1.6636032e-07
1.660003e-07
1.6568874e-07
1.6544947e-07
1.6531138e-07
1.6530878e-07
1.6548106e-07
1.6587225e-07
1.6653001e-07
1.6750512e-07
1.6885087e-07
1.7062138e-07
1.7286996e-07
1.7564839e-07
1.7900705e-07
1.8299739e-07
1.8767568e-07
1.9309675e-07
1.9931433e-07
2.0638612e-07
2.1437937e-07
2.2338334e-07
2.3355922e-07
2.4511023e-07
2.5819837e-07
2.7302153e-07
2.8986639e-07
3.091248e-07
3.3131287e-07
3.57104e-07
3.8734233e-07
4.230893e-07
4.6570753e-07
5.169353e-07
5.7893263e-07
6.5450198e-07
7.4733763e-07
8.6230548e-07
1.0057491e-06
1.1861803e-06
1.4147542e-06
1.7053823e-06
2.0737497e-06
2.5373858e-06
3.1155835e-06
3.8292257e-06
4.7002962e-06
5.7508171e-06
7.0020694e-06
8.4744399e-06
1.0180924e-05
1.2116867e-05
1.4259992e-05
1.6566233e-05
1.9000511e-05
2.1510622e-05
2.4054018e-05
2.6628281e-05
2.880466e-05
3.0459045e-05
3.2132313e-05
3.3854056e-05
3.5626637e-05
3.7434248e-05
3.9301643e-05
4.1270363e-05
4.331354e-05
4.5416186e-05
4.7585297e-05
4.9809704e-05
5.2071896e-05
5.4361608e-05
5.6671141e-05
5.8985918e-05
6.1292465e-05
6.3582322e-05
6.5844881e-05
6.8069353e-05
7.0247901e-05
7.2373815e-05
7.444087e-05
7.644441e-05
7.8380987e-05
8.0248395e-05
8.2045719e-05
8.3773171e-05
8.5431656e-05
8.7022796e-05
8.8547975e-05
9.0010781e-05
9.1409451e-05
9.2756751e-05
9.4030858e-05
9.521384e-05
9.6720365e-05
1.6852021e-07
1.681711e-07
1.6780848e-07
1.6743188e-07
1.6704269e-07
1.6664362e-07
1.6623872e-07
1.6583341e-07
1.6543451e-07
1.6505051e-07
1.6469195e-07
1.6437172e-07
1.6410536e-07
1.6391124e-07
1.6381064e-07
1.6382784e-07
1.6399005e-07
1.643272e-07
1.6487162e-07
1.6565799e-07
1.6672327e-07
1.6810703e-07
1.6985129e-07
1.7200049e-07
1.7460174e-07
1.7770573e-07
1.8136924e-07
1.8566211e-07
1.9067016e-07
1.9649039e-07
2.0323648e-07
2.1104857e-07
2.2010521e-07
2.3068027e-07
2.4315246e-07
2.5787265e-07
2.7527134e-07
2.9595195e-07
3.2073242e-07
3.506959e-07
3.8726523e-07
4.3232178e-07
4.8837865e-07
5.5881064e-07
6.4823311e-07
7.6298805e-07
9.116113e-07
1.1050808e-06
1.357263e-06
1.6850369e-06
2.1082511e-06
2.6493468e-06
3.3325879e-06
4.1831003e-06
5.2263385e-06
6.4861992e-06
7.9802773e-06
9.7158882e-06
1.1684688e-05
1.3870232e-05
1.6241512e-05
1.8760276e-05
2.140099e-05
2.4120537e-05
2.6879808e-05
2.968238e-05
3.2156899e-05
3.398755e-05
3.5841467e-05
3.7757237e-05
3.9739402e-05
4.1769093e-05
4.3878652e-05
4.6121591e-05
4.8443097e-05
5.0833874e-05
5.3307052e-05
5.5843394e-05
5.8420072e-05
6.1027827e-05
6.3656053e-05
6.6285712e-05
6.8903739e-05
7.1500074e-05
7.4062502e-05
7.658052e-05
7.9045938e-05
8.1451299e-05
8.3790891e-05
8.606088e-05
8.8258715e-05
9.0382932e-05
9.243336e-05
9.4409843e-05
9.6315176e-05
9.8146115e-05
9.9915369e-05
0.00010160347
0.00010318028
0.00010518857
1.6867637e-07
1.6839176e-07
1.6809266e-07
1.677776e-07
1.6744647e-07
1.6709995e-07
1.6673935e-07
1.6636645e-07
1.6598333e-07
1.6559234e-07
1.6519629e-07
1.6479869e-07
1.6440397e-07
1.6401775e-07
1.6364699e-07
1.6330022e-07
1.6298765e-07
1.6272137e-07
1.6251541e-07
1.6238586e-07
1.6235094e-07
1.6243112e-07
1.6264919e-07
1.6303043e-07
1.6360262e-07
1.6439627e-07
1.6544512e-07
1.6678725e-07
1.6846633e-07
1.7053233e-07
1.7304319e-07
1.760673e-07
1.7968667e-07
1.8400634e-07
1.891642e-07
1.9532622e-07
2.0269514e-07
2.115296e-07
2.2218302e-07
2.3521095e-07
2.5122413e-07
2.7093386e-07
2.953623e-07
3.2595104e-07
3.6473011e-07
4.1455424e-07
4.7943369e-07
5.6495326e-07
6.7884537e-07
8.3165349e-07
1.0374074e-06
1.3141946e-06
1.6845526e-06
2.1750055e-06
2.8148654e-06
3.6341099e-06
4.6600784e-06
5.9139395e-06
7.4076727e-06
9.1455057e-06
1.1122381e-05
1.3324156e-05
1.5734692e-05
1.8326672e-05
2.1065304e-05
2.3930422e-05
2.6887691e-05
2.9894479e-05
3.2959145e-05
3.5736127e-05
3.7768486e-05
3.9817484e-05
4.193588e-05
4.413348e-05
4.6390885e-05
4.8759246e-05
5.1283168e-05
5.3894102e-05
5.6590669e-05
5.9382732e-05
6.2240736e-05
6.5140743e-05
6.8075734e-05
7.1028845e-05
7.3980009e-05
7.6916446e-05
7.982448e-05
8.2691395e-05
8.550742e-05
8.8264472e-05
9.0955704e-05
9.3575957e-05
9.6121958e-05
9.8590789e-05
0.0001009833
0.00010329388
0.00010553416
0.00010768627
0.00010971224
0.0001122801
1.6876854e-07
1.6852888e-07
1.6827891e-07
1.6801683e-07
1.6774171e-07
1.6745318e-07
1.671514e-07
1.6683692e-07
1.6651039e-07
1.6617246e-07
1.6582374e-07
1.6546488e-07
1.6509677e-07
1.6472057e-07
1.6433791e-07
1.6395098e-07
1.6356261e-07
1.6317646e-07
1.6279708e-07
1.6243008e-07
1.6208224e-07
1.6176166e-07
1.6147786e-07
1.6124197e-07
1.6106683e-07
1.6096714e-07
1.6095967e-07
1.6106353e-07
1.6130056e-07
1.616957e-07
1.6227763e-07
1.630796e-07
1.6414035e-07
1.6550612e-07
1.6723356e-07
1.6939202e-07
1.7206638e-07
1.7536215e-07
1.7941473e-07
1.8440937e-07
1.9058297e-07
1.9823416e-07
2.0775843e-07
2.1971393e-07
2.3499175e-07
2.5463192e-07
2.8005271e-07
3.1339206e-07
3.5780526e-07
4.1789285e-07
5.0028904e-07
6.1449009e-07
7.7395146e-07
9.9727712e-07
1.3091534e-06
1.7403765e-06
2.3262104e-06
3.1017537e-06
4.0958209e-06
5.3271074e-06
6.8040221e-06
8.527274e-06
1.0494949e-05
1.2700542e-05
1.5130663e-05
1.7771782e-05
2.060151e-05
2.3585759e-05
2.6707422e-05
2.9937121e-05
3.322864e-05
3.6593278e-05
3.9598681e-05
4.1819874e-05
4.4076059e-05
4.641894e-05
4.8850961e-05
5.1350751e-05
5.4012372e-05
5.6839644e-05
5.9757095e-05
6.2780483e-05
6.590855e-05
6.9102588e-05
7.2342529e-05
7.5617607e-05
7.8902932e-05
8.2182523e-05
8.5442343e-05
8.8667861e-05
9.1846751e-05
9.4968705e-05
9.8025931e-05
0.00010101107
0.00010392155
0.00010674815
0.00010949995
0.00011215946
0.00011468552
0.00011786079
1.6881483e-07
1.6859851e-07
1.6837557e-07
1.6814459e-07
1.6790458e-07
1.6765488e-07
1.6739519e-07
1.6712557e-07
1.6684622e-07
1.665573e-07
1.6625892e-07
1.6595105e-07
1.6563364e-07
1.653067e-07
1.6497028e-07
1.6462459e-07
1.6427e-07
1.6390714e-07
1.6353694e-07
1.6316072e-07
1.6278022e-07
1.6239775e-07
1.6201625e-07
1.6163939e-07
1.6127171e-07
1.6091868e-07
1.6058689e-07
1.6028419e-07
1.6001982e-07
1.5980465e-07
1.5965143e-07
1.5957511e-07
1.5959318e-07
1.5972623e-07
1.5999881e-07
1.6044037e-07
1.6108647e-07
1.6198033e-07
1.6317549e-07
1.6474021e-07
1.6676168e-07
1.6935112e-07
1.7265309e-07
1.7686098e-07
1.8225033e-07
1.891909e-07
1.9818856e-07
2.0996851e-07
2.2570768e-07
2.4708344e-07
2.763417e-07
3.1699875e-07
3.7446229e-07
4.5693697e-07
5.7668958e-07
7.5169947e-07
1.0073741e-06
1.3771996e-06
1.9007388e-06
2.6179152e-06
3.5615604e-06
4.7514247e-06
6.1949593e-06
7.8921291e-06
9.8400028e-06
1.2037092e-05
1.4479863e-05
1.7156723e-05
2.0055944e-05
2.3157717e-05
2.6426875e-05
2.9847584e-05
3.3386914e-05
3.699887e-05
4.0697051e-05
4.3788191e-05
4.6218276e-05
4.8700528e-05
5.1289856e-05
5.397149e-05
5.6741139e-05
5.9728848e-05
6.2878316e-05
6.6135691e-05
6.9512929e-05
7.2992348e-05
7.6533341e-05
8.0126253e-05
8.374984e-05
8.7380358e-05
9.1000977e-05
9.4594237e-05
9.8146981e-05
0.00010164532
0.00010508203
0.00010844262
0.00011173173
0.00011493095
0.00011799799
0.00012181431
1.6883656e-07
1.68631e-07
1.6842089e-07
1.6820525e-07
1.6798335e-07
1.6775458e-07
1.6751858e-07
1.6727527e-07
1.6702474e-07
1.6676705e-07
1.6650223e-07
1.662302e-07
1.6595079e-07
1.6566381e-07
1.6536905e-07
1.650663e-07
1.6475534e-07
1.6443604e-07
1.641083e-07
1.6377212e-07
1.6342763e-07
1.6307511e-07
1.6271504e-07
1.6234817e-07
1.6197554e-07
1.615986e-07
1.6121921e-07
1.6083978e-07
1.6046334e-07
1.6009369e-07
1.5973543e-07
1.5939421e-07
1.5907685e-07
1.5879155e-07
1.5854819e-07
1.5835867e-07
1.5823736e-07
1.5820165e-07
1.5827276e-07
1.584769e-07
1.5884683e-07
1.5942369e-07
1.6025991e-07
1.6142347e-07
1.6300533e-07
1.6512804e-07
1.6795902e-07
1.7173243e-07
1.7679701e-07
1.8366723e-07
1.9308612e-07
2.0617964e-07
2.2481941e-07
2.5184356e-07
2.9143701e-07
3.5040446e-07
4.3954274e-07
5.7543257e-07
7.8240151e-07
1.093713e-06
1.550558e-06
2.1972895e-06
3.0726903e-06
4.2024347e-06
5.5967293e-06
7.2559582e-06
9.1781867e-06
1.1362182e-05
1.3809481e-05
1.6519541e-05
1.9481139e-05
2.2682572e-05
2.6101398e-05
2.9700286e-05
3.3464189e-05
3.7345623e-05
4.1311691e-05
4.5376461e-05
4.838877e-05
5.1037395e-05
5.3766583e-05
5.6619159e-05
5.9560809e-05
6.2674482e-05
6.6008616e-05
6.9494492e-05
7.3114744e-05
7.6867847e-05
8.0718421e-05
8.4635005e-05
8.8600342e-05
9.2586142e-05
9.6574909e-05
0.000100544
0.00010448126
0.0001083648
0.00011219288
0.00011594513
0.00011957364
0.00012404398
1.6884608e-07
1.6864514e-07
1.6844063e-07
1.6823194e-07
1.6801852e-07
1.6779992e-07
1.6757583e-07
1.6734618e-07
1.67111e-07
1.6687039e-07
1.6662438e-07
1.6637295e-07
1.6611601e-07
1.6585343e-07
1.6558503e-07
1.6531061e-07
1.6502997e-07
1.6474288e-07
1.644491e-07
1.6414841e-07
1.6384058e-07
1.6352542e-07
1.6320279e-07
1.6287257e-07
1.6253475e-07
1.6218941e-07
1.6183676e-07
1.6147721e-07
1.6111134e-07
1.6074003e-07
1.6036448e-07
1.5998627e-07
1.5960747e-07
1.5923071e-07
1.5885931e-07
1.584974e-07
1.5815012e-07
1.5782382e-07
1.575263e-07
1.5726725e-07
1.5705867e-07
1.5691553e-07
1.5685666e-07
1.5690603e-07
1.5709462e-07
1.5746326e-07
1.5806668e-07
1.5897976e-07
1.6030885e-07
1.6220822e-07
1.6490346e-07
1.687325e-07
1.7422844e-07
1.822282e-07
1.9403613e-07
2.1176513e-07
2.3914683e-07
2.8178017e-07
3.4877405e-07
4.5464259e-07
6.2133555e-07
8.8002573e-07
1.271208e-06
1.8415638e-06
2.6365522e-06
3.6906014e-06
5.0215694e-06
6.63321e-06
8.523838e-06
1.0693994e-05
1.314609e-05
1.5884591e-05
1.8909028e-05
2.2205924e-05
2.5761991e-05
2.9545382e-05
3.3519689e-05
3.7670964e-05
4.1925841e-05
4.6278654e-05
5.0561296e-05
5.345713e-05
5.6338067e-05
5.933836e-05
6.2462694e-05
6.5692629e-05
6.9202872e-05
7.2909089e-05
7.6787138e-05
8.0811894e-05
8.4965059e-05
8.9205981e-05
9.3515385e-05
9.7861536e-05
0.0001022274
0.00010658129
0.00011091377
0.00011520175
0.00011937852
0.00012448555
1.6884965e-07
1.6865047e-07
1.6844819e-07
1.6824238e-07
1.6803269e-07
1.6781875e-07
1.6760034e-07
1.6737737e-07
1.671499e-07
1.6691801e-07
1.6668176e-07
1.6644119e-07
1.6619627e-07
1.6594695e-07
1.6569313e-07
1.6543472e-07
1.6517157e-07
1.6490355e-07
1.6463048e-07
1.643522e-07
1.6406851e-07
1.637792e-07
1.6348408e-07
1.6318293e-07
1.6287553e-07
1.625617e-07
1.6224126e-07
1.6191407e-07
1.6158001e-07
1.6123908e-07
1.6089133e-07
1.6053693e-07
1.6017623e-07
1.5980974e-07
1.5943822e-07
1.5906273e-07
1.586847e-07
1.5830599e-07
1.5792904e-07
1.5755696e-07
1.5719368e-07
1.5684423e-07
1.5651495e-07
1.5621393e-07
1.5595152e-07
1.5574114e-07
1.5560051e-07
1.5555338e-07
1.5563252e-07
1.5588426e-07
1.5637553e-07
1.5720521e-07
1.5852465e-07
1.6057039e-07
1.6371604e-07
1.6856631e-07
1.7615041e-07
1.8815053e-07
2.0736634e-07
2.3868664e-07
2.8979158e-07
3.7289472e-07
5.0707723e-07
7.2033426e-07
1.0508786e-06
1.5457684e-06
2.2554481e-06
3.2242713e-06
4.4807944e-06
6.036481e-06
7.8919908e-06
1.0047256e-05
1.2506904e-05
1.5276467e-05
1.8361856e-05
2.1758081e-05
2.5447809e-05
2.9415147e-05
3.3611554e-05
3.8006125e-05
4.2576704e-05
4.723542e-05
5.2005718e-05
5.590039e-05
5.9013643e-05
6.2165551e-05
6.547251e-05
6.8883317e-05
7.2538879e-05
7.6451456e-05
8.0568547e-05
8.4866901e-05
8.9315379e-05
9.3886031e-05
9.8550358e-05
0.00010326848
0.00010802152
0.0001127827
0.00011745374
0.00012313203
1.6885037e-07
1.6865166e-07
1.6845004e-07
1.6824526e-07
1.6803704e-07
1.678251e-07
1.6760927e-07
1.6738949e-07
1.6716578e-07
1.6693824e-07
1.6670692e-07
1.6647188e-07
1.6623314e-07
1.6599069e-07
1.6574451e-07
1.6549455e-07
1.6524075e-07
1.6498305e-07
1.6472135e-07
1.6445556e-07
1.6418558e-07
1.6391128e-07
1.6363252e-07
1.6334917e-07
1.6306105e-07
1.6276801e-07
1.6246987e-07
1.6216643e-07
1.6185751e-07
1.6154294e-07
1.6122253e-07
1.6089612e-07
1.605636e-07
1.6022487e-07
1.5987992e-07
1.595288e-07
1.5917169e-07
1.5880888e-07
1.5844088e-07
1.5806839e-07
1.5769241e-07
1.5731431e-07
1.5693589e-07
1.5655955e-07
1.5618842e-07
1.5582658e-07
1.5547944e-07
1.5515423e-07
1.5486077e-07
1.5461272e-07
1.5442952e-07
1.5433951e-07
1.5438519e-07
1.5463206e-07
1.551832e-07
1.5620472e-07
1.5797396e-07
1.6095476e-07
1.6593038e-07
1.7425784e-07
1.8821941e-07
2.1163035e-07
2.5108922e-07
3.1682187e-07
4.2499656e-07
6.0018178e-07
8.7733903e-07
1.3023144e-06
1.9285219e-06
2.8087702e-06
3.9845153e-06
5.4775952e-06
7.294677e-06
9.4360382e-06
1.19058e-05
1.471233e-05
1.7862646e-05
2.1361775e-05
2.5194244e-05
2.9337509e-05
3.3767426e-05
3.8421234e-05
4.3277467e-05
4.8270879e-05
5.3369109e-05
5.8448624e-05
6.1818436e-05
6.5166646e-05
6.8625725e-05
7.2228735e-05
7.6024838e-05
8.0145973e-05
8.4481549e-05
8.9066118e-05
9.3829111e-05
9.874301e-05
0.00010377083
0.00010888256
0.00011395664
0.00012006563
1.6884979e-07
1.6865098e-07
1.6844935e-07
1.6824473e-07
1.6803693e-07
1.6782573e-07
1.67611e-07
1.6739267e-07
1.6717077e-07
1.6694536e-07
1.667165e-07
1.6648426e-07
1.6624867e-07
1.6600974e-07
1.6576749e-07
1.6552191e-07
1.6527297e-07
1.6502067e-07
1.6476496e-07
1.6450581e-07
1.6424317e-07
1.6397698e-07
1.6370718e-07
1.6343369e-07
1.6315643e-07
1.6287531e-07
1.6259021e-07
1.6230103e-07
1.6200762e-07
1.6170987e-07
1.614076e-07
1.6110068e-07
1.6078894e-07
1.6047221e-07
1.6015034e-07
1.5982318e-07
1.5949058e-07
1.5915246e-07
1.5880873e-07
1.5845941e-07
1.5810457e-07
1.5774438e-07
1.5737916e-07
1.5700939e-07
1.5663578e-07
1.5625934e-07
1.5588146e-07
1.5550404e-07
1.5512974e-07
1.5476227e-07
1.5440692e-07
1.5407139e-07
1.5376716e-07
1.5351177e-07
1.5333269e-07
1.5327395e-07
1.5340832e-07
1.5385796e-07
1.5483062e-07
1.5668604e-07
1.6004559e-07
1.6597788e-07
1.7634592e-07
1.9427139e-07
2.2495914e-07
2.7727724e-07
3.6476449e-07
5.0867623e-07
7.4046928e-07
1.1035745e-06
1.652525e-06
2.4466556e-06
3.5392529e-06
4.9661442e-06
6.7423441e-06
8.8714849e-06
1.1356146e-05
1.4206269e-05
1.7431379e-05
2.1036566e-05
2.5020242e-05
2.9353336e-05
3.4009e-05
3.8935785e-05
4.4086331e-05
4.9436074e-05
5.4877597e-05
6.0442523e-05
6.4717034e-05
6.8303228e-05
7.1944536e-05
7.5746508e-05
7.968714e-05
8.4021419e-05
8.8610652e-05
9.3485804e-05
9.8572894e-05
0.0001038393