/*--------------------------------*- C++ -*----------------------------------*\
| =========                 |                                                 |
| \\      /  F ield         | OpenFOAM: The Open Source CFD Toolbox           |
|  \\    /   O peration     | Version:  2206                                  |
|   \\  /    A nd           | Website:  www.openfoam.com                      |
|    \\/     M anipulation  |                                                 |
\*---------------------------------------------------------------------------*/
FoamFile
{
    version     2.0;
    format      ascii;
    arch        "LSB;label=32;scalar=64";
    class       volScalarField;
    location    "1700";
    object      omega;
}
// * * * * * * * * * * * * * * * * * * * * * * * * * * * * * * * * * * * * * //

dimensions      [0 0 -1 0 0 0 0];

internalField   nonuniform List<scalar> 
7480
(
7569.1038
7590.8125
7571.1099
7538.1542
7512.5644
7498.0759
7491.1188
7487.7286
7485.8494
7484.6257
7483.6803
7482.8695
7482.163
7481.5516
7481.0215
7480.5597
7480.1563
7479.8019
7479.4866
7479.2041
7478.9504
7478.7214
7478.5132
7478.3233
7478.1499
7477.9909
7477.8443
7477.7091
7477.5843
7477.4688
7477.3618
7477.2625
7477.1706
7477.0853
7477.0062
7476.9329
7476.8652
7476.8027
7476.7452
7476.6927
7476.645
7476.602
7476.5638
7476.5304
7476.5017
7476.4787
7476.4605
7476.4481
7476.4416
7476.4407
7476.4452
7476.4548
7476.4692
7476.4872
7476.5081
7476.5312
7476.5552
7476.5778
7476.5973
7476.612
7476.6219
7476.6271
7476.6279
7476.625
7476.6193
7476.6114
7476.602
7476.5916
7476.5806
7476.5692
7476.5577
7476.5461
7476.5346
7476.5233
7476.512
7476.501
7476.4901
7476.479
7476.4676
7476.4561
7476.4446
7476.4331
7476.4215
7476.4098
7476.398
7476.3861
7476.3742
7476.3622
7476.3501
7476.338
7476.326
7476.3139
7476.3018
7476.2897
7476.2778
7476.2653
7476.2544
7476.2387
7476.2299
7476.2059
1003.2423
1574.4085
1842.5126
1920.8058
1937.0648
1923.8913
1863.1818
1797.8237
1744.1958
1704.0049
1673.3617
1647.7039
1624.4847
1603.074
1583.2806
1564.8978
1547.8505
1532.2305
1517.8752
1504.5679
1492.2168
1480.7983
1470.2048
1460.3234
1451.1082
1442.5326
1434.5249
1427.0169
1419.9774
1413.3826
1407.1905
1401.3657
1395.8918
1390.7525
1385.9234
1381.3861
1377.1318
1373.1487
1369.4232
1365.9473
1362.7193
1359.7366
1356.9963
1354.5023
1352.245
1350.2396
1348.4841
1346.9761
1345.7331
1344.7479
1344.0408
1343.6452
1343.456
1343.4406
1343.5612
1343.7798
1344.0534
1344.3227
1344.5293
1344.6233
1344.5813
1344.4
1344.1253
1343.7483
1343.2681
1342.7081
1342.0899
1341.434
1340.7562
1340.0684
1339.3793
1338.6958
1338.0216
1337.3596
1336.7126
1336.0802
1335.4652
1334.8587
1334.2558
1333.6581
1333.0655
1332.4782
1331.8955
1331.3149
1330.7361
1330.1579
1329.5805
1329.0038
1328.4279
1327.8537
1327.281
1326.7104
1326.1426
1325.5764
1325.0161
1324.4449
1323.9005
1323.3371
1322.6615
1322.0504
190.66587
396.63064
585.95772
709.20627
769.25864
785.38464
782.09019
789.21443
803.68286
812.84627
819.32963
823.54756
825.04723
824.15068
821.42331
817.40483
811.94323
805.29015
797.70364
789.40192
780.59746
771.49445
762.23652
752.92764
743.67258
734.56579
725.62325
716.84524
708.24787
699.85466
691.68006
683.73401
676.03014
668.5809
661.39353
654.47597
647.83796
641.47965
635.39823
629.59434
624.07411
618.8452
613.91511
609.29505
604.99232
601.00535
597.34531
593.9842
590.91185
588.12004
585.64559
583.49361
581.55815
579.80502
578.20921
576.71751
575.26802
573.81993
572.36314
570.89712
569.41732
567.91047
566.45893
565.01385
563.55745
562.09243
560.62498
559.16399
557.7178
556.29336
554.89613
553.53054
552.19974
550.90576
549.65041
548.43282
547.25375
546.13542
545.06136
544.01867
543.00072
542.00434
541.02768
540.06715
539.12082
538.18638
537.2626
536.34853
535.4433
534.54692
533.6586
532.77842
531.90649
531.04119
530.18644
529.32582
528.49155
527.65525
526.73696
525.65068
72.002788
121.36421
193.9946
267.7237
324.62567
359.73581
377.80544
386.78054
392.45155
397.56832
404.51888
415.2281
426.20981
437.93377
452.28078
470.55217
485.14296
496.53473
505.30514
511.86436
516.53661
519.61352
521.3542
522.02813
521.95106
521.36931
520.01205
517.82727
514.90294
511.36323
507.32729
502.89895
498.16906
493.21807
488.12056
482.95091
477.75671
472.521
467.24339
461.94103
456.64016
451.36845
446.15128
441.01305
435.98273
431.05059
426.20114
421.39865
416.63151
411.90832
407.25137
402.75961
398.33463
393.98776
389.75451
385.58987
381.45843
377.40483
373.5151
369.85818
366.45362
363.3185
360.48743
357.88521
355.46221
353.18297
351.02047
348.95592
346.97649
345.07344
343.2407
341.47471
339.77334
338.13424
336.55579
335.03541
333.57221
332.19138
330.88519
329.63807
328.43981
327.28495
326.17073
325.09334
324.0499
323.03714
322.05234
321.09318
320.15725
319.24306
318.34866
317.47288
316.6145
315.77158
314.94537
314.12631
313.32313
312.57221
311.71928
310.75934
55.641982
64.53241
83.910639
111.34937
140.42174
165.52886
184.58332
198.13222
207.74297
214.78941
220.42169
225.66448
230.96096
236.83296
244.10023
253.5484
263.34591
273.14989
282.74616
292.00413
300.83043
309.30531
317.72214
326.71415
337.34638
349.83419
359.69428
366.92612
372.2081
375.99052
378.57966
380.19667
381.01999
381.21727
380.97944
380.51791
379.81064
378.46545
376.47859
373.93492
370.9297
367.54548
363.85019
359.90511
355.78395
351.48654
346.94929
342.14965
337.11478
331.88974
326.52327
321.07561
315.61999
310.16641
304.75106
299.32798
293.92268
288.65828
283.65385
278.98874
274.72622
270.88075
267.41196
264.26324
261.3809
258.71843
256.23626
253.90332
251.69596
249.59639
247.59182
245.67422
243.83633
242.07233
240.37818
238.75002
237.1868
235.69137
234.26654
232.90826
231.61077
230.36962
229.18217
228.04514
226.95562
225.91023
224.90574
223.93911
223.00718
222.10743
221.23749
220.39509
219.57804
218.78406
218.01261
217.25841
216.51774
215.84987
215.10113
214.2823
53.509888
54.437457
58.088328
65.265539
75.158479
86.041872
96.434163
105.64149
113.54147
120.26092
125.96637
130.87245
135.1839
139.11275
142.94177
147.00992
151.41836
156.26932
161.70877
167.81711
174.15569
180.72306
187.52484
194.61316
202.10016
210.06934
218.05173
225.6895
232.80845
239.34753
245.32031
250.80631
255.97652
261.16105
266.97004
274.12379
281.53727
286.10734
288.75374
290.08347
290.45058
290.07219
289.10105
287.68335
285.9992
284.19781
281.83286
278.80979
275.22998
271.20162
266.82479
262.1976
257.42038
252.52461
247.56253
242.60674
237.7118
232.96118
228.43524
224.18473
220.23102
216.58114
213.21809
210.11363
207.23788
204.56051
202.05245
199.68958
197.45172
195.32234
193.28888
191.34309
189.47756
187.68634
185.96518
184.31016
182.72036
181.19068
179.72258
178.31763
176.97491
175.69245
174.46861
173.30098
172.18711
171.12401
170.10862
169.13782
168.20828
167.3171
166.46151
165.63887
164.84662
164.08229
163.34449
162.62981
161.93114
161.30257
160.63131
159.88981
53.224428
52.808865
52.95923
54.085345
56.273401
59.363835
62.973436
66.789318
70.617689
74.35582
77.933584
81.304947
84.448163
87.361175
90.07489
92.657976
95.180601
97.713348
100.3403
103.15209
106.19174
109.52732
113.24173
117.3859
121.86404
126.7255
131.94068
137.42564
143.08364
148.83074
154.59439
160.31747
165.96882
171.55842
177.14184
182.82508
188.52904
193.80431
198.43875
202.38742
205.68693
208.42473
210.75269
212.95011
215.48148
218.48031
219.85637
219.67399
218.49298
216.62675
214.29569
211.69957
209.00592
205.97726
202.55872
199.05408
195.61651
192.29288
189.04256
185.87445
182.81575
179.88039
177.06944
174.38506
171.82761
169.38992
167.06241
164.83823
162.70807
160.66295
158.69583
156.80188
154.97721
153.21908
151.52508
149.89227
148.32034
146.8051
145.34528
143.94252
142.59799
141.31171
140.08325
138.91118
137.79366
136.72839
135.71282
134.74419
133.81934
132.93543
132.08953
131.27903
130.50141
129.75426
129.03586
128.34352
127.67072
127.05831
126.43633
125.73411
53.16229
52.542653
52.020928
51.712821
51.712131
52.046962
52.632995
53.455054
54.479272
55.668291
56.982441
58.383818
59.83717
61.309601
62.775788
64.22315
65.649587
67.060183
68.469338
69.901114
71.381527
72.941868
74.62218
76.468105
78.516176
80.817993
83.430419
86.357331
89.553401
93.016812
96.737205
100.69493
104.86698
109.2338
113.78638
118.52533
123.4307
128.40991
133.35885
138.18121
142.79627
147.14205
151.17534
154.88027
158.27912
161.33786
163.88105
165.7687
167.00116
167.67165
167.93285
167.98486
167.97887
167.24578
165.73341
163.88481
162.05749
160.27684
158.32099
156.29176
154.25169
152.20032
150.13331
148.07261
146.03504
144.02439
142.04701
140.11509
138.22707
136.3835
134.586
132.83588
131.13377
129.48265
127.88316
126.33377
124.83578
123.38756
121.98714
120.63536
119.33381
118.08364
116.88547
115.73888
114.6427
113.5956
112.59591
111.64156
110.7298
109.85829
109.02444
108.22587
107.46046
106.726
106.02085
105.34265
104.68671
104.08109
103.48904
102.80722
53.125934
52.475644
51.839167
51.240818
50.710951
50.272393
49.929362
49.684159
49.538913
49.48286
49.49374
49.598114
49.79589
50.077098
50.428193
50.836084
51.290544
51.783408
52.309415
52.867222
53.458636
54.088341
54.765076
55.50219
56.315877
57.226997
58.26213
59.447158
60.80357
62.357214
64.138168
66.149089
68.387259
70.859015
73.575775
76.546397
79.777273
83.261075
86.97513
90.888678
94.965871
99.166234
103.44577
107.7584
112.06414
116.26342
120.2119
123.798
126.93304
129.56068
131.65421
133.21598
134.27681
134.88336
135.04313
134.79438
134.37567
133.84646
132.99644
132.01315
130.99211
129.84595
128.5458
127.16298
125.72315
124.22575
122.69305
121.14382
119.58486
118.02558
116.47533
114.94163
113.4297
111.9519
110.51042
109.10339
107.7354
106.40606
105.11326
103.85823
102.64259
101.46783
100.33518
99.245108
98.196965
97.190766
96.226066
95.301625
94.415207
93.56535
92.750208
91.967878
91.217026
90.495726
89.8027
89.135993
88.492815
87.891361
87.317767
86.64786
53.095915
52.439097
51.783038
51.131597
50.491604
49.870403
49.27351
48.70557
48.171364
47.674664
47.217023
46.802521
46.434745
46.115408
45.829971
45.572541
45.35577
45.185109
45.060756
44.981187
44.944305
44.947676
44.990401
45.073966
45.201815
45.379355
45.614505
45.917177
46.298697
46.772429
47.354612
48.061264
48.908922
49.917048
51.109361
52.492399
54.083058
55.899997
57.954779
60.256209
62.813493
65.633379
68.72006
72.075016
75.698186
79.568918
83.604301
87.702226
91.758482
95.665815
99.318863
102.61921
105.48253
107.85326
109.69284
110.92377
111.55371
111.76025
111.74297
111.56235
111.32387
110.96041
110.41909
109.77109
109.01415
108.09198
107.0681
105.96718
104.79466
103.57208
102.3159
101.04156
99.759436
98.501798
97.26341
96.041752
94.840233
93.660701
92.503343
91.369713
90.261676
89.181027
88.129691
87.109075
86.118661
85.160094
84.23554
83.344532
82.485495
81.657697
80.86024
80.091882
79.352536
78.640427
77.954903
77.294592
76.658251
76.057172
75.492394
74.827416
53.069557
52.409359
51.748131
51.08614
50.424509
49.764784
49.108729
48.458377
47.816135
47.18461
46.566271
45.963673
45.379396
44.815849
44.273749
43.753224
43.255668
42.782871
42.336453
41.917579
41.521874
41.139041
40.773875
40.435875
40.131068
39.862957
39.634161
39.446961
39.303838
39.208881
39.168191
39.189213
39.280674
39.452864
39.718169
40.089164
40.580845
41.211567
42.00134
42.961361
44.111738
45.474482
47.073655
48.935437
51.088356
53.562916
56.377839
59.52147
62.964202
66.653077
70.510594
74.43495
78.30341
81.985744
85.35893
88.28173
90.623964
92.355733
93.519112
94.222673
94.586774
94.755634
94.784449
94.709326
94.545254
94.222441
93.782202
93.224322
92.518617
91.713118
90.828084
89.89231
88.91564
87.932696
86.937084
85.929871
84.91685
83.901998
82.888417
81.87994
80.879888
79.891405
78.917931
77.962274
77.026115
76.111835
75.221951
74.357688
73.519364
72.707283
71.921495
71.161741
70.427997
69.719582
69.036459
68.377637
67.74318
67.139659
66.577159
65.91251
53.031555
52.367476
51.702532
51.036482
50.369313
49.701067
49.032008
48.362729
47.694149
47.027411
46.36376
45.704503
45.051018
44.404737
43.766976
43.138914
42.521743
41.916697
41.32503
40.747986
40.186248
39.639431
39.107695
38.592168
38.094474
37.616383
37.158996
36.716522
36.283788
35.869383
35.483718
35.133985
34.825307
34.561689
34.346839
34.185933
34.086028
34.056121
34.107029
34.250232
34.499597
34.872264
35.387835
36.066143
36.935246
38.029631
39.388849
41.051791
43.054476
45.424591
48.174467
51.292675
54.735324
58.421466
62.236451
66.026801
69.60481
72.797241
75.47385
77.597232
79.179479
80.298895
81.053675
81.521931
81.793935
81.93539
81.957927
81.883637
81.676141
81.357297
80.922092
80.393163
79.790309
79.121313
78.393988
77.621816
76.815208
75.980334
75.123656
74.251977
73.370664
72.484761
71.599512
70.719107
69.846963
68.986695
68.141495
67.313761
66.505206
65.717111
64.950422
64.205741
63.483576
62.784026
62.107475
61.453313
60.822621
60.219092
59.658397
58.995169
52.973181
52.294009
51.616325
50.939774
50.263934
49.588302
48.912512
48.236494
47.560465
46.884831
46.210083
45.536755
44.865424
44.196718
43.531305
42.869883
42.213185
41.561985
40.917091
40.279351
39.64959
39.028511
38.416762
37.815043
37.224141
36.644933
36.078305
35.524463
34.983058
34.454688
33.941004
33.444225
32.966501
32.503972
32.049778
31.613768
31.208359
30.841609
30.519128
30.244947
30.024031
29.864059
29.77502
29.768957
29.861271
30.07226
30.42729
30.95641
31.698262
32.698104
34.00593
35.672169
37.740381
40.235882
43.153375
46.442284
49.992558
53.64009
57.187781
60.458535
63.315101
65.68855
67.583263
69.024348
70.07217
70.814408
71.307914
71.624562
71.814894
71.886392
71.858956
71.721467
71.492558
71.182145
70.77073
70.28362
69.734125
69.127093
68.470918
67.775454
67.048385
66.296606
65.527559
64.747184
63.960818
63.173922
62.390803
61.615167
60.850156
60.098152
59.361163
58.640735
57.938103
57.254169
56.589884
55.945178
55.321975
54.722227
54.164942
53.50521
52.922315
52.222285
51.524671
50.829498
50.136554
49.445413
48.755657
48.067062
47.379638
46.693565
46.009101
45.326526
44.646136
43.968236
43.293145
42.621192
41.952728
41.288118
40.627748
39.972024
39.321375
38.676233
38.037038
37.404242
36.778319
36.159774
35.549143
34.946929
34.353543
33.769414
33.195103
32.631343
32.079002
31.538424
31.009177
30.491981
29.988842
29.502381
29.033489
28.572464
28.123715
27.702589
27.318917
26.978892
26.687162
26.450874
26.28115
26.192972
26.206374
26.347945
26.651853
27.160609
27.927646
29.014234
30.483573
32.389114
34.755758
37.557823
40.704162
44.047466
47.406409
50.602628
53.500515
56.00803
58.085187
59.75138
61.035972
61.986114
62.675388
63.14834
63.468156
63.657743
63.737079
63.736204
63.644553
63.469101
63.222107
62.887716
62.475009
61.999524
61.468764
60.888891
60.270507
59.6212
58.948032
58.25897
57.559579
56.855162
56.150594
55.449535
54.755328
54.070614
53.397544
52.737945
52.093458
51.4647
50.854366
50.263455
49.712971
49.060184
52.892359
52.177632
51.46454
50.753425
50.044412
49.337392
48.632179
47.928661
47.226871
46.526966
45.829179
45.13377
44.44101
43.751179
43.064559
42.381432
41.702082
41.026795
40.355854
39.689545
39.028152
38.37196
37.721247
37.076289
36.437362
35.804738
35.178691
34.559496
33.947416
33.342709
32.745642
32.156515
31.575668
31.003424
30.440018
29.885732
29.341031
28.806602
28.283139
27.770161
27.267764
26.777801
26.302983
25.84399
25.389433
24.949158
24.539565
24.170258
23.848203
23.582011
23.386093
23.280861
23.294493
23.465263
23.843173
24.489424
25.47474
26.866542
28.708858
31.000586
33.681068
36.631562
39.69835
42.717766
45.543475
48.075435
50.253525
52.054388
53.502212
54.625912
55.465209
56.075742
56.498035
56.77478
56.94783
57.030404
57.039854
56.97034
56.821887
56.605908
56.311659
55.940531
55.511152
55.028913
54.501232
53.939942
53.350687
52.740762
52.117301
51.4853
50.849832
50.214828
49.583594
48.959115
48.343851
47.739273
47.148855
46.573201
46.034644
45.393715
52.877451
52.154699
51.432693
50.711866
49.992493
49.274662
48.558374
47.843649
47.130581
46.419348
45.710187
45.003364
44.299164
43.597881
42.899814
42.20526
41.51452
40.827893
40.145674
39.468155
38.795625
38.128365
37.466652
36.810752
36.160926
35.517423
34.880484
34.250337
33.627201
33.011275
32.40275
31.801806
31.208614
30.623334
30.046109
29.477073
28.916366
28.364159
27.820655
27.285958
26.760153
26.243508
25.736555
25.23982
24.752445
24.274879
23.809469
23.359342
22.916942
22.481479
22.07431
21.708402
21.393637
21.143211
20.978865
20.931872
21.045549
21.376756
21.992476
22.961207
24.338708
26.146508
28.356265
30.88564
33.608727
36.382042
39.066808
41.546007
43.74595
45.627219
47.177583
48.42069
49.382693
50.095752
50.615782
50.980473
51.217428
51.359876
51.43152
51.433801
51.363746
51.220446
51.016733
50.73594
50.386333
49.98722
49.538173
49.050063
48.532755
47.991764
47.434516
46.866274
46.291792
45.715563
45.140994
44.570669
44.008918
43.456372
42.936592
42.31399
52.870867
52.144042
51.417398
50.691373
49.966284
49.242303
48.519526
47.798043
47.077987
46.359548
45.642959
44.928485
44.216408
43.507024
42.800632
42.097539
41.398051
40.702475
40.011115
39.324273
38.642249
37.965335
37.29382
36.627985
35.968104
35.314444
34.667262
34.026804
33.393307
32.766995
32.148077
31.536752
30.9332
30.33759
29.750068
29.170767
28.5998
28.037265
27.48325
26.93782
26.401016
25.872877
25.353471
24.842889
24.341085
23.848058
23.364073
22.889706
22.424585
21.968345
21.523267
21.092883
20.67022
20.257175
19.878121
19.548358
19.282308
19.103669
19.047371
19.160627
19.502647
20.138583
21.128008
22.509686
24.283619
26.40176
28.771443
31.26952
33.76702
36.147587
38.317844
40.223209
41.837238
43.154964
44.204827
45.01113
45.60633
46.035342
46.337258
46.527223
46.632544
46.680527
46.663536
46.578547
46.428398
46.226438
45.945176
45.607968
45.225825
44.801298
44.345743
43.864876
43.365261
42.853277
42.333291
41.809417
41.286939
40.766923
40.274501
39.678356
52.868676
52.139798
51.410773
50.682032
49.953909
49.226613
48.500289
47.775066
47.051097
46.328571
45.607715
44.888784
44.172049
43.457795
42.746317
42.037912
41.332881
40.631525
39.934146
39.241043
38.552511
37.868843
37.190326
36.517243
35.84987
35.188477
34.533326
33.884671
33.242758
32.607824
31.980095
31.359786
30.747102
30.142234
29.54536
28.956644
28.376233
27.804259
27.240836
26.68606
26.140008
25.602737
25.074288
24.554692
24.043952
23.542052
23.048999
22.564843
22.089575
21.623136
21.165741
20.717979
20.279544
19.850442
19.433706
19.033879
18.637276
18.267244
17.94616
17.691551
17.529153
17.496499
17.642816
18.025718
18.705802
19.732078
21.126072
22.869604
24.900313
27.120638
29.412979
31.662271
33.770125
35.661871
37.300492
38.670268
39.776766
40.649182
41.308606
41.790315
42.130403
42.365417
42.500526
42.572738
42.588897
42.54584
42.439321
42.278071
42.060782
41.778041
41.45087
41.081023
40.677739
40.249357
39.800741
39.338167
38.867787
38.391628
37.936913
37.377234
52.868849
52.138931
51.408661
50.678469
49.948697
49.219582
48.491302
47.764012
47.03788
46.313096
45.589883
44.868483
44.149159
43.432186
42.717845
42.006426
41.298219
40.593517
39.892612
39.195794
38.50335
37.815566
37.132719
36.455086
35.782935
35.116529
34.456126
33.801975
33.154317
32.513388
31.879412
31.252607
30.63318
30.021328
29.41724
28.821091
28.233045
27.653256
27.081861
26.518985
25.96474
25.419218
24.882499
24.354647
23.835708
23.325716
22.824691
22.332654
21.849615
21.375573
20.910549
20.454621
20.007818
19.570159
19.142023
18.724275
18.31599
17.919341
17.539099
17.166691
16.819944
16.524006
16.298031
16.170362
16.180789
16.37942
16.821629
17.562698
18.638939
20.055867
21.778653
23.733052
25.818134
27.921899
29.942999
31.799387
33.435605
34.830296
35.975464
36.887203
37.593376
38.115178
38.48686
38.746882
38.91458
38.993472
39.03225
39.015545
38.943011
38.815644
38.643458
38.407451
38.123693
37.801299
37.443689
37.060425
36.65763
36.23911
35.834304
35.323462
52.870341
52.139902
51.408971
50.677974
49.947261
49.217092
48.487671
47.759179
47.031797
46.30572
45.581169
44.858381
44.137612
43.419128
42.703203
41.990118
41.280155
40.573599
39.870733
39.171839
38.477196
37.78708
37.101761
36.421506
35.746576
35.077225
34.4137
33.756243
33.105088
32.46046
31.822577
31.191649
30.567878
29.951455
29.342565
28.74138
28.148066
27.562776
26.985653
26.41683
25.856428
25.304556
24.76131
24.226776
23.701027
23.184124
22.676117
22.177052
21.686968
21.205896
20.733869
20.270925
19.8171
19.372432
18.936993
18.510948
18.09432
17.687387
17.290958
16.904619
16.530359
16.173261
15.824912
15.508678
15.246636
15.059329
14.978043
15.045291
15.310811
15.828886
16.647358
17.788111
19.239738
20.950315
22.835047
24.790916
26.713646
28.51698
30.134548
31.530071
32.695284
33.63125
34.361715
34.911487
35.309394
35.579813
35.765203
35.86796
35.910879
35.91128
35.861833
35.761256
35.616473
35.423021
35.176662
34.893647
34.576357
34.232145
33.89145
33.444805
52.8726
52.141915
51.410633
50.679173
49.947892
49.217069
48.486932
47.757683
47.029518
46.302642
45.577276
44.853656
44.132034
43.412671
42.695837
41.981806
41.270854
40.563261
39.859304
39.159259
38.463399
37.771992
37.085304
36.403593
35.727114
35.056113
34.390831
33.731501
33.078349
32.431594
31.791444
31.158102
30.53176
29.912605
29.30081
28.696543
28.099962
27.511213
26.930437
26.357761
25.793304
25.237176
24.689475
24.150289
23.619696
23.097766
22.58456
22.080131
21.584529
21.097797
20.619979
20.151116
19.691253
19.240433
18.798705
18.366133
17.942777
17.528714
17.124097
16.728985
16.343667
15.969027
15.604695
15.253557
14.921138
14.59958
14.317548
14.093854
13.95219
13.927274
14.063845
14.412657
15.025099
15.937778
17.156376
18.649753
20.348702
22.160151
23.981513
25.719483
27.30436
28.687653
29.852071
30.797855
31.541155
32.105693
32.515093
32.800123
32.991003
33.107091
33.154178
33.164589
33.130749
33.05116
32.928869
32.768057
32.553903
32.303043
32.042555
31.678621
52.875323
52.144543
51.41308
50.681346
49.949703
49.218446
48.487823
47.758055
47.029354
46.301934
45.576022
44.851854
44.129682
43.409763
42.692364
41.977756
41.266213
40.558008
39.853417
39.15271
38.456156
37.76402
37.076563
36.394039
35.716697
35.044779
34.378521
33.71815
33.063887
32.415944
31.774524
31.139824
30.512029
29.891319
29.277861
28.671815
28.073333
27.482555
26.899613
26.324631
25.75772
25.198985
24.64852
24.106408
23.572726
23.04754
22.530908
22.022883
21.523511
21.032834
20.550891
20.07772
19.613359
19.157846
18.711222
18.273531
17.844819
17.425134
17.014528
16.613045
16.220745
15.837776
15.464204
15.100456
14.747623
14.405557
14.078187
13.766494
13.476916
13.232631
13.052608
12.965015
13.008754
13.230721
13.682506
14.409712
15.431984
16.73555
18.267077
19.941793
21.6618
23.330333
24.870386
26.229186
27.381123
28.324605
29.067293
29.635053
30.049445
30.340455
30.531965
30.653639
30.708542
30.7214
30.698826
30.635187
30.532273
30.393746
30.229589
29.968738
52.878337
52.147547
51.415999
50.684102
49.952217
49.220653
48.489675
47.759522
47.030421
46.302597
45.576281
44.851714
44.129147
43.408837
42.691051
41.976055
41.264123
40.555525
39.850533
39.149417
38.452441
37.759869
37.071957
36.388959
35.711118
35.038676
34.371863
33.710904
33.056016
32.407406
31.765276
31.129817
30.501209
29.879628
29.265237
28.658191
28.058635
27.466706
26.88253
26.306225
25.737897
25.177646
24.62556
24.081719
23.546192
23.019042
22.500322
21.990079
21.488351
20.995176
20.510583
20.034601
19.567257
19.108576
18.658586
18.217314
17.78479
17.361043
16.946101
16.539986
16.142717
15.75432
15.374813
15.00426
14.642848
14.290707
13.948477
13.61683
13.29726
12.994386
12.706135
12.451571
12.248488
12.119264
12.097159
12.225291
12.553566
13.13128
13.991108
15.131912
16.514843
18.064574
19.686193
21.282752
22.772015
24.098101
25.227437
26.155406
26.888979
27.45062
27.86288
28.152188
28.342758
28.463777
28.524578
28.538524
28.525148
28.47412
28.405718
28.265991
52.881538
52.150786
51.419211
50.687216
49.955165
49.223372
48.49212
47.761663
47.032241
46.304091
45.57745
44.852565
44.129686
43.409074
42.690992
41.975707
41.26349
40.554611
39.849339
39.147943
38.450686
37.757828
37.069625
36.386328
35.70818
35.035417
34.368271
33.706963
33.051708
32.402712
31.760173
31.124278
30.495208
29.873132
29.258213
28.650602
28.05044
27.457862
26.872989
26.295935
25.726804
25.16569
24.612679
24.067845
23.531254
23.002964
22.483024
21.971475
21.468352
20.973682
20.487489
20.009793
19.54061
19.079955
18.62784
18.184278
17.749282
17.322864
16.905033
16.495797
16.095155
15.703104
15.319635
14.944742
14.578434
14.220734
13.871734
13.531602
13.200676
12.879879
12.569697
12.273327
11.99461
11.736682
11.520105
11.363675
11.295585
11.354786
11.589027
12.048945
12.775511
13.778965
15.032189
16.469189
17.998504
19.524044
20.959442
22.244316
23.342982
24.246883
24.963679
25.511585
25.916195
26.197572
26.384939
26.502335
26.566942
26.58569
26.592851
26.548072
52.884865
52.154177
51.422609
50.690558
49.958386
49.226417
48.494944
47.764235
47.034543
46.306115
45.579197
44.854039
44.130895
43.410027
42.691698
41.976175
41.263729
40.554627
39.849138
39.147529
38.450063
37.756998
37.068589
36.385084
35.706727
35.033752
34.366389
33.704859
33.049373
32.400138
31.757348
31.121191
30.491844
29.869477
29.254249
28.646309
28.045797
27.452845
26.867572
26.29009
25.7205
25.158894
24.605354
24.059953
23.522753
22.99381
22.473169
21.960867
21.456935
20.961396
20.474268
19.995565
19.525295
19.063463
18.610073
18.165126
17.72862
17.300555
16.880925
16.469722
16.066934
15.672541
15.286518
14.908839
14.539472
14.178389
13.825574
13.481028
13.144794
12.817027
12.497921
12.18808
11.888555
11.600693
11.328703
11.073603
10.851214
10.678504
10.5795
10.589216
10.752674
11.120728
11.739035
12.628332
13.770571
15.108202
16.553269
18.009282
19.388492
20.627229
21.689263
22.562555
23.256368
23.784179
24.174209
24.445073
24.627716
24.742533
24.822544
24.849907
52.888275
52.157665
51.426126
50.694045
49.961785
49.229675
48.498017
47.767091
47.037164
46.30849
45.581325
44.855922
44.132541
43.411443
42.692895
41.977162
41.264515
40.555221
39.849548
39.147762
38.450124
37.756893
37.068322
36.384658
35.706144
35.033013
34.365494
33.703807
33.048163
32.398766
31.755811
31.119484
30.489961
29.867411
29.25199
28.643849
28.043125
27.449948
26.864437
26.286701
25.716842
25.154948
24.6011
24.05537
23.517818
22.988497
22.46745
21.954713
21.450313
20.954272
20.466603
19.987315
19.516412
19.053895
18.599759
18.153996
17.716599
17.287555
16.866849
16.454461
16.050369
15.654543
15.266946
14.887538
14.516274
14.153107
13.797988
13.450871
13.111721
12.78052
12.457277
12.142078
11.835134
11.536805
11.247993
10.9696
10.704762
10.456737
10.233329
10.051577
9.9322268
9.9067344
10.017353
10.314578
10.846749
11.642605
12.691748
13.942942
15.311549
16.701117
18.023679
19.213321
20.234282
21.071618
21.735411
22.239004
22.611751
22.871445
23.062009
23.178304
52.891741
52.161217
51.429718
50.697624
49.965298
49.233072
48.501257
47.770142
47.040004
46.311108
45.583715
44.858087
44.134485
43.413175
42.694422
41.978495
41.265662
40.556192
39.850352
39.148407
38.450618
37.757242
37.068531
36.384734
35.706089
35.032833
34.36519
33.703382
33.047617
32.398101
31.755026
31.118578
30.488932
29.866257
29.250708
28.642434
28.041573
27.448252
26.862591
26.284698
25.714672
25.152603
24.598569
24.05264
23.514878
22.985332
22.464046
21.951053
21.446379
20.950044
20.462059
19.98243
19.51116
19.048243
18.593672
18.147435
17.709517
17.2799
16.858562
16.445477
16.040614
15.643934
15.255395
14.874947
14.502537
14.138106
13.781594
13.432937
13.092074
12.758944
12.433495
12.115688
11.805518
11.503022
11.208353
10.921762
10.643902
10.375795
10.119466
9.879243
9.6584275
9.4727991
9.3408564
9.290986
9.3630402
9.6064919
10.071462
10.792185
11.764348
12.941554
14.24196
15.56925
16.835868
17.974465
18.949583
19.746537
20.377459
20.855141
21.224037
21.473867
52.895244
52.164808
51.433355
50.701261
49.968884
49.236561
48.504609
47.773326
47.042997
46.313897
45.586293
44.860453
44.136642
43.415129
42.696182
41.980068
41.267059
40.557422
39.851424
39.149329
38.451398
37.757888
37.06905
36.385131
35.706371
35.033004
34.365255
33.703343
33.047479
32.397865
31.754695
31.118152
30.488413
29.865644
29.250002
28.641633
28.040675
27.447255
26.861493
26.283495
25.71336
25.151177
24.597024
24.050971
23.513077
22.983392
22.46196
21.948811
21.443972
20.94746
20.459287
19.979457
19.507969
19.044817
18.589991
18.143477
17.705254
17.275303
16.853596
16.440102
16.034786
15.637604
15.248509
14.867446
14.494354
14.129169
13.771824
13.422247
13.080364
12.746101
12.419385
12.100144
11.788312
11.483837
11.18669
10.896878
10.614492
10.339749
10.073116
9.8156097
9.568576
9.3355794
9.1201385
8.934651
8.7959643
8.7300882
8.7747422
8.9782806
9.3918882
10.053524
10.963512
12.078729
13.31938
14.588941
15.80013
16.88562
17.813291
18.567958
19.181121
19.637131
52.898769
52.168421
51.437017
50.704929
49.972514
49.240109
48.508037
47.776603
47.046099
46.316809
45.589007
44.862965
44.138955
43.417247
42.698111
41.981817
41.268636
40.558837
39.852685
39.150444
38.452376
37.758737
37.069777
36.385744
35.706875
35.033404
34.365557
33.703552
33.047599
32.397899
31.754646
31.118024
30.488207
29.865362
29.249644
28.641201
28.040169
27.446675
26.860838
26.282765
25.712553
25.150291
24.596057
24.04992
23.511939
22.982164
22.460637
21.94739
21.442447
20.945826
20.457537
19.977584
19.505966
19.042673
18.587696
18.141017
17.702615
17.272466
16.850542
16.436808
16.031225
15.633748
15.244325
14.862898
14.489403
14.123772
13.765932
13.415806
13.073317
12.738382
12.41092
12.090846
11.778077
11.472534
11.174141
10.882831
10.598557
10.321306
10.051127
9.7882019
9.5328681
9.2859272
9.048572
8.8237147
8.6152657
8.4323788
8.291124
8.2153766
8.2413114
8.4160584
8.7916842
9.4082595
10.269882
11.334617
12.523484
13.738961
14.897161
15.929276
16.828367
17.550144
52.902305
52.172042
51.44069
50.708613
49.976167
49.243692
48.511513
47.779941
47.049277
46.31981
45.59182
44.865587
44.141385
43.419488
42.700168
41.983698
41.270348
40.560388
39.854084
39.151701
38.453498
37.759731
37.070652
36.386506
35.707532
35.033961
34.36602
33.703926
33.047889
32.398109
31.75478
31.118085
30.488199
29.865286
29.249504
28.640997
28.039904
27.44635
26.860453
26.282321