/*--------------------------------*- C++ -*----------------------------------*\
| =========                 |                                                 |
| \\      /  F ield         | OpenFOAM: The Open Source CFD Toolbox           |
|  \\    /   O peration     | Version:  2206                                  |
|   \\  /    A nd           | Website:  www.openfoam.com                      |
|    \\/     M anipulation  |                                                 |
\*---------------------------------------------------------------------------*/
FoamFile
{
    version     2.0;
    format      ascii;
    arch        "LSB;label=32;scalar=64";
    class       volScalarField;
    location    "1700";
    object      p;
}
// * * * * * * * * * * * * * * * * * * * * * * * * * * * * * * * * * * * * * //

dimensions      [0 2 -2 0 0 0 0];

internalField   nonuniform List<scalar> 
7480
(
0.05473488
0.042479321
0.028356284
0.016548132
0.0059414577
0.00049541778
-0.00075946332
0.00025706378
0.001810158
0.0028404932
0.0033158878
0.0035186835
0.0036095049
0.0036380635
0.0036395339
0.0036434647
0.003651078
0.0036447192
0.0036279253
0.0036097071
0.0035888786
0.0035612815
0.0035297664
0.0034976954
0.0034638078
0.0034257101
0.0033848188
0.0033426844
0.0032984243
0.0032512344
0.0032022259
0.0031521621
0.0031004234
0.0030468175
0.0029922014
0.0029371716
0.0028817669
0.0028266494
0.0027730536
0.0027219932
0.0026743097
0.0026315617
0.0025962598
0.0025707939
0.0025595228
0.0025659891
0.0025954292
0.0026471167
0.0027194733
0.0028132969
0.0029268456
0.0030572637
0.0032000891
0.0033490344
0.0035019206
0.0036523412
0.003782238
0.0038788059
0.0039339419
0.0039510395
0.0039320034
0.0038829808
0.0038132344
0.0037298819
0.0036380662
0.0035418177
0.0034444906
0.0033473613
0.0032513324
0.0031569414
0.0030643032
0.0029729184
0.0028828001
0.0027939322
0.0027055316
0.0026181768
0.0025309494
0.0024417164
0.0023509056
0.0022586469
0.0021657442
0.0020717935
0.0019756213
0.0018783036
0.0017789447
0.0016781775
0.0015758247
0.0014719407
0.0013671578
0.0012610617
0.0011549584
0.0010485434
0.00094363349
0.00083961361
0.0007432741
0.00064129723
0.00058951591
0.0003073673
0.00083533868
-0.00087442762
0.049758327
0.039243752
0.027290832
0.016399426
0.0065422059
0.0012964377
-5.2727183e-05
0.00072651212
0.0020369985
0.0029643665
0.0033935966
0.0035778829
0.0036603398
0.0036820792
0.0036795981
0.0036821091
0.0036836062
0.0036718433
0.0036519916
0.0036313782
0.0036083656
0.0035787905
0.0035456517
0.0035121867
0.0034770217
0.0034377654
0.0033958732
0.003352844
0.0033077501
0.0032597972
0.0032101078
0.0031594196
0.0031070949
0.0030529468
0.0029978323
0.0029423358
0.0028864884
0.002830953
0.0027769599
0.0027255158
0.0026774584
0.0026343464
0.0025986874
0.0025728658
0.0025612933
0.0025677752
0.0025966282
0.0026477904
0.0027198242
0.0028133405
0.0029266153
0.0030567986
0.0031994298
0.0033482315
0.0035010324
0.0036514194
0.0037813376
0.0038780073
0.0039332969
0.0039505569
0.0039317241
0.0038828786
0.0038132753
0.0037300363
0.0036383031
0.0035421102
0.0034448175
0.0033477063
0.0032516843
0.0031572925
0.0030646482
0.0029732541
0.0028831246
0.0027942441
0.0027058308
0.0026184636
0.0025312301
0.0024419964
0.0023511823
0.0022589176
0.0021660082
0.002072051
0.0019758732
0.0018785504
0.0017791865
0.0016784143
0.0015760563
0.0014721672
0.0013673788
0.0012612771
0.0011551681
0.0010487473
0.00094383176
0.00083980613
0.0007434622
0.00064147731
0.00058976428
0.00030835225
0.00083755562
-0.00087391952
0.045699193
0.037563201
0.026927849
0.016673949
0.0079168883
0.0028248967
0.001120002
0.001388214
0.0023733066
0.0031486458
0.0035145301
0.0036787551
0.0037484922
0.0037552015
0.0037437159
0.0037391965
0.0037320818
0.0037129912
0.0036883441
0.0036640138
0.0036373859
0.0036044236
0.0035687318
0.0035331296
0.0034959171
0.003454819
0.0034114505
0.0033671534
0.0033208571
0.0032718087
0.0032211874
0.0031696633
0.0031165458
0.0030616717
0.003005911
0.0029498178
0.0028934061
0.0028373503
0.0027828768
0.0027309758
0.0026824761
0.0026389416
0.0026028767
0.002576657
0.0025647212
0.0025713308
0.0025996656
0.0026500378
0.0027216921
0.0028148211
0.0029277297
0.003057569
0.0031998768
0.0033483923
0.0035009782
0.0036511987
0.003780974
0.0038776059
0.0039329922
0.0039503503
0.0039317317
0.0038830794
0.0038136423
0.003730544
0.0036389156
0.0035427932
0.0034455425
0.003348449
0.003252428
0.0031580253
0.0030653619
0.0029739435
0.0028837869
0.0027948776
0.0027064345
0.0026190382
0.0025317757
0.0024425198
0.0023516895
0.0022594071
0.0021664804
0.0020725068
0.0019763141
0.0018789783
0.0017796021
0.0016788185
0.0015764493
0.001472549
0.0013677497
0.0012616369
0.0011555172
0.0010490855
0.00094415965
0.00084012315
0.00074377189
0.00064177014
0.00059016741
0.00030993369
0.00084148217
-0.00087331506
0.042978557
0.036261866
0.026573292
0.016973687
0.0092032409
0.0042874521
0.0022015346
0.0020818524
0.0027650858
0.003386014
0.0036964131
0.0038362934
0.0038829241
0.0038600048
0.0038280006
0.003811648
0.0037939485
0.0037643735
0.0037331185
0.0037044665
0.003673372
0.0036358614
0.0035969551
0.0035587681
0.0035189302
0.0034754006
0.0034302344
0.0033844808
0.0033367642
0.0032864317
0.003234808
0.0031824256
0.0031284795
0.0030728644
0.003016489
0.0029598478
0.0029029251
0.002846434
0.0027916017
0.0027393821
0.0026905866
0.002646796
0.0026105098
0.0025840946
0.0025718945
0.0025790368
0.0026072884
0.0026567808
0.0027281277
0.0028208967
0.0029333891
0.0030627677
0.003204558
0.0033525252
0.0035045919
0.00365428
0.0037835161
0.0038796296
0.0039348269
0.0039519625
0.0039332729
0.0038846344
0.0038152368
0.0037321936
0.0036406089
0.0035445089
0.0034472585
0.0033501413
0.0032540798
0.0031596244
0.0030668996
0.0029754136
0.0028851879
0.0027962079
0.0027076934
0.0026202271
0.0025328637
0.0024435088
0.0023526219
0.0022602922
0.0021673219
0.0020733074
0.0019770772
0.0018797092
0.0017803029
0.0016794924
0.0015770977
0.0014731735
0.0013683515
0.0012622166
0.0011560762
0.0010496241
0.00094467918
0.00084062303
0.00074425803
0.00064222883
0.00059078782
0.00031243746
0.00084791857
-0.00087229121
0.040509477
0.034668331
0.025948598
0.017325992
0.010271028
0.0054937278
0.0032402353
0.0028502747
0.0032411757
0.0036848203
0.0039182189
0.0040075165
0.0040221681
0.0039813714
0.0039384258
0.0039123997
0.0038818129
0.0038365424
0.003794336
0.0037588391
0.0037212798
0.0036774132
0.0036342534
0.0035929391
0.0035498506
0.0035031274
0.0034556315
0.0034080021
0.0033583871
0.0033063268
0.0032534191
0.0031999753
0.0031450025
0.0030885029
0.0030314589
0.0029742613
0.0029168308
0.0028599572
0.0028048878
0.0027525075
0.002703591
0.0026597466
0.0026234644
0.0025970811
0.0025849452
0.0025927423
0.0026210192
0.002669912
0.0027409511
0.0028332849
0.0029452212
0.0030739248
0.0032148955
0.0033619456
0.0035131321
0.0036619747
0.0037902258
0.0038852173
0.0039398708
0.0039563541
0.0039371523
0.0038882696
0.003818716
0.0037355819
0.003643926
0.0035477539
0.0034504238
0.0033532091
0.0032570383
0.0031624649
0.0030696144
0.0029779982
0.0028876442
0.0027985359
0.0027098927
0.0026223002
0.0025347719
0.0024452557
0.0023542604
0.0022618355
0.0021687781
0.0020746821
0.0019783768
0.0018809431
0.0017814762
0.0016806114
0.0015781662
0.0014741954
0.0013693301
0.0012631538
0.0011569751
0.0010504859
0.00094550692
0.00084141658
0.00074502534
0.00064295529
0.00059173942
0.00031615744
0.00085744746
-0.00087030226
0.038195919
0.033076023
0.025360223
0.017637697
0.011155707
0.0065906039
0.0042391884
0.0035975377
0.0037388414
0.004007343
0.0041527395
0.0041899196
0.0041736867
0.0041186341
0.0040623693
0.0040178177
0.0039717649
0.0039166765
0.0038676654
0.0038262391
0.0037810982
0.0037293228
0.003680238
0.0036346978
0.0035875228
0.0035369023
0.003486707
0.0034369929
0.003385212
0.0033311469
0.0032767928
0.003222162
0.0031660239
0.0031085769
0.0030509498
0.0029933786
0.002935558
0.0028783469
0.0028231172
0.0027706906
0.0027217932
0.0026780727
0.0026420094
0.0026158801
0.0026040977
0.0026123148
0.0026404027
0.0026889345
0.0027594384
0.0028510686
0.002962187
0.0030899342
0.0032297521
0.0033755125
0.003525477
0.0036730971
0.0037998643
0.0038932753
0.0039471906
0.0039627479
0.0039427401
0.0038935144
0.0038237263
0.0037404349
0.0036486452
0.0035523421
0.0034548786
0.0033575141
0.0032611843
0.0031664441
0.0030734171
0.002981622
0.0028910976
0.0028018192
0.0027130038
0.0026252406
0.0025375267
0.002447837
0.0023566946
0.0022641262
0.0021709354
0.0020767136
0.0019802912
0.0018827535
0.0017831899
0.0016822384
0.0015797126
0.0014756676
0.0013707338
0.0012644923
0.0011582536
0.0010517074
0.00094667596
0.00084253442
0.00074610022
0.00064397721
0.00059306014
0.00032122127
0.00087018035
-0.00086689231
0.036094694
0.031597343
0.024807408
0.017866979
0.011913508
0.0075886646
0.0051751021
0.004305716
0.0042230709
0.0043381988
0.0043985272
0.0043856925
0.0043374501
0.0042643636
0.0041906607
0.0041273388
0.0040674024
0.004004225
0.003947119
0.0038959849
0.003842421
0.0037853942
0.0037322019
0.0036827241
0.0036309274
0.0035758951
0.0035224213
0.0034700143
0.0034155467
0.0033591275
0.0033031698
0.0032472605
0.0031898373
0.0031313691
0.0030731818
0.0030152841
0.0029571126
0.0028996617
0.0028444467
0.002792192
0.002743561
0.0027002713
0.0026648178
0.0026395069
0.0026279085
0.0026355494
0.0026634002
0.002711821
0.0027818878
0.0028728285
0.0029830046
0.0031095013
0.0032478059
0.0033920197
0.0035396629
0.0036843211
0.0038089226
0.0039008388
0.0039544017
0.0039692404
0.0039485704
0.0038992286
0.0038293802
0.0037460572
0.0036542144
0.0035578304
0.0034602622
0.0033627576
0.0032662679
0.0031713531
0.0030781366
0.0029861453
0.002895431
0.0028059595
0.0027169451
0.0026289822
0.0025410597
0.0024511768
0.0023598594
0.0022671122
0.0021737509
0.0020793656
0.0019827886
0.0018851119
0.0017854179
0.0016843485
0.0015817128
0.0014775667
0.0013725394
0.0012662094
0.0011598894
0.0010532663
0.00094816397
0.00084395431
0.0007474592
0.0006452733
0.00059472649
0.00032757388
0.00088576321
-0.00086194844
0.034195969
0.03021539
0.024240525
0.018010333
0.01256002
0.0084796986
0.0060377298
0.0049830355
0.0047052396
0.0046790887
0.0046544594
0.004590387
0.0045079888
0.0044134912
0.0043219523
0.0042419263
0.004168587
0.0040959468
0.0040290819
0.0039679628
0.0039071497
0.0038454513
0.0037874678
0.0037324007
0.003675794
0.0036175958
0.0035615524
0.0035064621
0.0034490236
0.003389969
0.0033321498
0.0032747148
0.0032155909
0.0031556303
0.0030965169
0.0030379365
0.0029791295
0.0029213197
0.0028661092
0.0028140787
0.0027658111
0.0027231232
0.0026885459
0.0026644084
0.0026530441
0.0026598283
0.0026873245
0.0027357168
0.0028054724
0.0028957818
0.0030049163
0.0031298674
0.003266426
0.0034091577
0.0035535223
0.0036937305
0.0038157874
0.0039065851
0.0039602579
0.0039747723
0.0039538102
0.0039046954
0.0038350575
0.0037519178
0.003660186
0.0035638436
0.0034662575
0.0033686679
0.0032720552
0.0031769911
0.0030836023
0.0029914212
0.0029005136
0.0028108394
0.0027216108
0.0026334303
0.0025452773
0.0024551797
0.0023636678
0.0022707176
0.002177159
0.0020825811
0.0019858191
0.0018879745
0.0017881214
0.0016869069
0.0015841353
0.0014798636
0.00137472
0.0012682804
0.0011618599
0.0010551415
0.00094995049
0.0008456567
0.00074908274
0.00064682573
0.00059670558
0.00033509082
0.00090366406
-0.00085558647
0.032475232
0.02892383
0.023665925
0.01808945
0.013109924
0.0092704712
0.0068316163
0.0056319715
0.0051838856
0.0050262065
0.0049180114
0.004801866
0.0046844064
0.0045668463
0.0044567099
0.0043601572
0.004272949
0.0041897529
0.0041133009
0.004043158
0.0039751827
0.003908
0.0038444636
0.0037837821
0.0037229186
0.0036616484
0.0036024827
0.0035440478
0.0034837818
0.0034227368
0.0033633185
0.0033042226
0.0032431782
0.0031815392
0.0031213095
0.0030618459
0.0030021802
0.0029436759
0.002888009
0.0028357304
0.0027873798
0.0027448785
0.0027108003
0.0026873712
0.002676549
0.002683251
0.002710364
0.0027583407
0.0028274846
0.0029169814
0.0030250121
0.0031484766
0.0032834296
0.0034247543
0.0035663367
0.0037023499
0.0038214969
0.0039111312
0.0039647996
0.003979195
0.0039582596
0.0039096144
0.0038403754
0.0037576095
0.0036661664
0.0035700016
0.0034725031
0.0033749111
0.003278242
0.0031830786
0.0030895534
0.0029972097
0.0029061292
0.0028162639
0.002726824
0.0026384245
0.0025500324
0.0024597098
0.0023679955
0.0022748307
0.0021810607
0.0020862729
0.0019893063
0.0018912741
0.0017912412
0.0016898618
0.0015869342
0.0014825174
0.0013772391
0.0012706722
0.0011641348
0.001057305
0.00095200995
0.00084761798
0.00075094833
0.00064861392
0.00059895437
0.00034362348
0.00092329684
-0.00084783687
0.030911872
0.027723997
0.023095024
0.018114433
0.013571139
0.0099678706
0.0075588448
0.0062489295
0.0056537284
0.0053756909
0.0051874659
0.0050197036
0.0048666711
0.0047246749
0.0045952876
0.0044818543
0.0043805883
0.0042862411
0.0041997455
0.0041207092
0.0040453366
0.0039721531
0.0039031528
0.0038372994
0.0037721412
0.0037073007
0.0036447193
0.003583075
0.0035202252
0.0034571549
0.0033956813
0.0033345168
0.0032717592
0.0032088826
0.0031476593
0.0030872007
0.0030265201
0.0029671165
0.0029107941
0.0028580332
0.0028092728
0.0027665244
0.0027324036
0.0027089733
0.0026981933
0.0027047186
0.0027313454
0.0027786385
0.0028469373
0.0029354753
0.0030424099
0.0031645953
0.0032981312
0.0034379849
0.0035776889
0.0037109627
0.0038276125
0.0039151897
0.0039678329
0.003982223
0.0039615525
0.0039134991
0.0038448361
0.0037626743
0.0036717178
0.0035758559
0.0034785651
0.0033810903
0.0032844563
0.0031892638
0.0030956653
0.0030032156
0.0029120097
0.0028219882
0.0027323618
0.0026437616
0.0025551397
0.0024645987
0.0023726889
0.0022793118
0.0021853306
0.0020903298
0.0019931519
0.0018949241
0.0017947016
0.0016931465
0.001590051
0.0014854768
0.0013800513
0.0012733442
0.0011666775
0.0010597241
0.00095431254
0.00084981099
0.00075303059
0.00065061471
0.00060142401
0.0003530253
0.00094408902
-0.00083861786
0.029488451
0.026613618
0.022532755
0.01809011
0.013950915
0.010578775
0.0082208552
0.0068311553
0.0061116859
0.0057254194
0.0054616094
0.0052431579
0.0050542598
0.0048867619
0.0047374991
0.0046069251
0.0044912998
0.0043853843
0.0042887098
0.004200638
0.0041177723
0.0040383308
0.0039634924
0.0038924262
0.0038229146
0.0037542627
0.0036882802
0.0036236169
0.0035581185
0.0034927065
0.0034290507
0.0033659946
0.0033016871
0.0032375289
0.0031749713
0.0031133061
0.0030517088
0.0029915651
0.0029346781
0.0028813982
0.0028321219
0.002788935
0.0027545108
0.0027307281
0.0027194829
0.002725363
0.0027511958
0.0027974914
0.0028645656
0.0029517577
0.0030572613
0.0031779195
0.0033098496
0.0034481158
0.0035863023
0.0037180094
0.003833107
0.0039187897
0.0039705217
0.0039849072
0.0039638038
0.0039159175
0.0038480572
0.0037667321
0.0036763852
0.0035809596
0.0034840532
0.0033868502
0.0032903389
0.0031952003
0.003101627
0.0030091507
0.0029178793
0.0028277533
0.002737984
0.0026492182
0.0025603937
0.0024696605
0.0023775792
0.0022840076
0.0021898315
0.0020946299
0.001997248
0.0018988301
0.0017984197
0.0016966888
0.0015934228
0.0014886869
0.0013831086
0.0012762541
0.0011694507
0.0010623653
0.00095682816
0.00085220851
0.00075530426
0.00065280513
0.00060406413
0.00036316098
0.00096550481
-0.00082779699
0.028189737
0.025587797
0.021982846
0.018022893
0.014257785
0.011110424
0.0088199662
0.0073772043
0.0065553505
0.006073119
0.0057386887
0.0054709952
0.0052463774
0.0050527361
0.0048831177
0.0047352329
0.0046050122
0.0044872041
0.0043801992
0.004282949
0.0041923723
0.0041064426
0.0040256584
0.0039492905
0.0038753114
0.0038028587
0.0037332154
0.0036652851
0.0035971782
0.0035293408
0.0034634921
0.003398615
0.0033327073
0.0032670715
0.0032031173
0.0031403966
0.0030779756
0.0030170644
0.0029594297
0.0029055346
0.002855807
0.0028121993
0.0027774161
0.0027531949
0.0027413767
0.0027464285
0.0027712222
0.0028162243
0.0028816919
0.0029671026
0.0030707104
0.0031893636
0.0033192356
0.003455552
0.0035919874
0.0037220187
0.0038356302
0.0039204274
0.0039721413
0.0039867321
0.0039655397
0.0039180043
0.0038509202
0.0037698624
0.0036798057
0.0035850241
0.0034887049
0.00339185
0.0032955515
0.0032005985
0.0031071762
0.0030147404
0.0029234647
0.0028333069
0.0027434479
0.0026545629
0.0025655838
0.0024747044
0.0023824915
0.0022887599
0.0021944226
0.0020990473
0.0020014828
0.0019028939
0.0018023099
0.0017004141
0.0015969848
0.0014920913
0.0013863616
0.0012793589
0.0011724164
0.001065195
0.00095952703
0.00085478382
0.00075774474
0.00065516296
0.00060682439
0.00037390406
0.00098703334
-0.00081521482
0.027002369
0.024640737
0.021448644
0.01791955
0.014499576
0.011569319
0.0093587256
0.0078860381
0.0069822854
0.006416344
0.0060168473
0.0057019966
0.0054422845
0.0052222501
0.0050319508
0.0048666336
0.0047216451
0.0045916616
0.0044741537
0.0043676007
0.0042691185
0.0041765102
0.0040896916
0.0040079162
0.0039293271
0.0038529415
0.0037795428
0.0037082781
0.0036374714
0.0035672832
0.003499111
0.0034321401
0.00336463
0.0032975267
0.0032321778
0.003168393
0.0031051137
0.0030433455
0.002984938
0.0029305229
0.0028803874
0.0028363106
0.0028010749
0.0027763909
0.0027640277
0.0027682382
0.0027919141
0.0028354768
0.0028991451
0.0029825255
0.0030839293
0.0032002019
0.0033275868
0.0034614989
0.003595719
0.0037236386
0.0038354795
0.0039194215
0.003970955
0.0039859656
0.0039657223
0.0039194118
0.0038531891
0.0037724421
0.0036829436
0.0035888718
0.0034926571
0.0033958021
0.0032998776
0.0032052763
0.0031120387
0.0030196933
0.0029285184
0.0028384267
0.0027485254
0.0026595834
0.0025705237
0.0024795516
0.0023872572
0.0022934174
0.0021989659
0.0021034547
0.0020057423
0.0019070148
0.0018062824
0.0017042432
0.0016006677
0.0014956294
0.0013897578
0.0012826126
0.0011755346
0.0010681782
0.00096237797
0.00085750917
0.00076032674
0.0006576656
0.00060965421
0.00038512996
0.0010081553
-0.00080069684
0.025914585
0.023766316
0.020932559
0.017786249
0.014683306
0.011961531
0.0098400095
0.0083571273
0.007390363
0.0067528641
0.0062943593
0.0059349804
0.0056412057
0.0053948693
0.0051837317
0.0050009273
0.0048410678
0.004698689
0.0045705256
0.0044545664
0.0043480164
0.00424855
0.0041555864
0.0040682974
0.0039849659
0.0039045087
0.0038273051
0.0037526457
0.0036790319
0.0036064101
0.0035358429
0.0034667255
0.0033975677
0.0033290143
0.0032622592
0.0031972153
0.0031329869
0.0030704188
0.0030112379
0.0029562725
0.0029057018
0.0028611131
0.0028254352
0.002800332
0.0027874045
0.0027907206
0.002813204
0.0028552854
0.0029171432
0.0029984349
0.0030975083
0.0032112118
0.0033358687
0.0034670734
0.003598716
0.0037241338
0.0038338177
0.0039165669
0.0039675549
0.0039828382
0.0039636488
0.0039186955
0.0038536227
0.0037740099
0.003685653
0.003592307
0.0034961733
0.0033995347
0.0033040654
0.0032093863
0.0031159794
0.0030238411
0.0029328971
0.0028428896
0.0027530042
0.002664116
0.0025750595
0.0024840374
0.0023917291
0.0022978475
0.0022033283
0.0021077271
0.0020099137
0.0019110885
0.0018102416
0.0017080911
0.0016043951
0.0014992335
0.0013932376
0.0012859634
0.0011787599
0.0010712752
0.00096534635
0.00086035407
0.00076302275
0.00066028877
0.00061250235
0.00039670905
0.0010282994
-0.0007840726
0.024915992
0.022958394
0.020436065
0.017628569
0.014815579
0.012292923
0.010266969
0.0087904408
0.0077778222
0.0070806414
0.0065695416
0.006168713
0.005842284
0.0055700701
0.0053381358
0.0051378812
0.0049631251
0.0048082014
0.0046692588
0.0045438062
0.0044290503
0.0043225611
0.0042233423
0.0041304441
0.0040422492
0.0039575943
0.003876523
0.0037983938
0.0037218665
0.003646714
0.0035737184
0.0035024243
0.0034315447
0.0033614847
0.0032932814
0.0032269326
0.003161724
0.0030983616
0.0030384144
0.0029827566
0.0029316704
0.0028866
0.002850466
0.002824958
0.0028114202
0.0028137767
0.0028350588
0.0028756732
0.0029357104
0.0030148563
0.0031115046
0.0032225634
0.0033444299
0.003472822
0.0036017172
0.0037244198
0.0038316818
0.0039129369
0.0039630068
0.0039783002
0.0039601542
0.0039163006
0.0038524021
0.0037740437
0.0036868042
0.0035943241
0.003498908
0.0034029904
0.003307956
0.0032131342
0.0031197472
0.0030278666
0.0029367481
0.0028465321
0.0027567927
0.0026680581
0.0025790101
0.0024880038
0.0023957913
0.0023019283
0.0022073787
0.0021117539
0.0020138925
0.0019150094
0.0018140893
0.0017118672
0.0016080828
0.0015028278
0.0013967341
0.0012893518
0.0011820404
0.0010744404
0.00096839225
0.00086328349
0.00076580149
0.00066300524
0.00061531676
0.00040850151
0.001046796
-0.00076519328
0.023997388
0.022211035
0.019959886
0.017451511
0.014902601
0.012569067
0.010642862
0.0091863484
0.0081432421
0.0073978085
0.0068407549
0.0064019403
0.0060446213
0.0057472757
0.0054947968
0.0052772343
0.005087635
0.0049200894
0.0047702778
0.0046352643
0.0045121903
0.0043985349
0.0042929576
0.0041943617
0.0041011915
0.0040122197
0.0039272098
0.0038455387
0.0037659997
0.0036882304
0.0036127668
0.0035392487
0.0034665669
0.0033949404
0.0033252564
0.0032575823
0.0031913518
0.0031271516
0.0030664091
0.0030100231
0.0029583888
0.002912881
0.0028761705
0.002850146
0.002836056
0.0028374584
0.0028575092
0.0028966137
0.0029547782
0.0030317224
0.0031259073
0.0032343017
0.0033533478
0.0034788548
0.0036048891
0.0037247932
0.003829555
0.0039091912
0.0039581851
0.003973336
0.0039559811
0.0039129919
0.0038501115
0.0037728685
0.0036866745
0.0035951223
0.0035005282
0.0034052716
0.0033107156
0.0032162575
0.0031233311
0.0030316671
0.0029403162
0.0028500799
0.0027604499
0.0026714709
0.0025822503
0.0024914001
0.0023993329
0.0023054967
0.0022109966
0.0021154445
0.002017576
0.0019186746
0.0018177347
0.0017154805
0.0016116433
0.0015063329
0.0014001743
0.0012927112
0.0011853165
0.0010776208
0.00097146899
0.00086625622
0.00076862639
0.00066578335
0.00061804487
0.00042035402
0.0010628426
-0.0007439493
0.023150609
0.021518637
0.019504165
0.017259443
0.014950129
0.012795223
0.010970992
0.0095455809
0.0084855554
0.0077027019
0.0071064437
0.006633422
0.0062472963
0.00592586
0.0056533005
0.005418689
0.0052143844
0.0050342151
0.0048734878
0.0047288707
0.004597395
0.0044764537
0.0043644231
0.0042600481
0.0041618004
0.0040684003
0.0039793795
0.0038940982
0.003811456
0.0037309855
0.0036530067
0.0035772155
0.003502658
0.0034294099
0.0033582124
0.0032891818
0.0032218776
0.0031567937
0.0030952272
0.0030380945
0.0029858818
0.002939899
0.0029026196
0.0028759657
0.0028612699
0.0028617807
0.0028805365
0.0029180561
0.0029743113
0.0030490209
0.0031406842
0.0032463745
0.0033625867
0.0034851534
0.0036082674
0.0037253494
0.003827581
0.0039055288
0.0039533814
0.0039683075
0.0039516301
0.0039094076
0.0038474487
0.0037710995
0.0036858163
0.0035950924
0.0035012462
0.0034065785
0.0033125338
0.0032185182
0.0031259799
0.0030345565
0.002943416
0.0028535116
0.0027639091
0.0026746688
0.0025854725
0.0024946186
0.0024022993
0.0023084604
0.002214152
0.0021186697
0.0020208272
0.0019219896
0.0018210903
0.0017188371
0.0016149979
0.001509674
0.0014034842
0.0012959719
0.0011885236
0.0010807568
0.00097452286
0.00086922395
0.0007714545
0.00066858582
0.0006206344
0.00043209841
0.0010755034
-0.00072028892
0.022368399
0.020876002
0.019068611
0.017056106
0.01496345
0.012976354
0.011254677
0.0098691779
0.0088040397
0.0079938774
0.0073651526
0.0068619422
0.0064493689
0.0061051517
0.0058131853
0.0055619119
0.00534313
0.0051504138
0.0049787746
0.0048245414
0.0046846101
0.0045562889
0.0044377218
0.0043274944
0.0042240781
0.004126148
0.0040330442
0.0039440869
0.0038582551
0.0037750008
0.0036944564
0.0036163446
0.003539843
0.0034649171
0.0033921694
0.0033217475
0.0032533205
0.0031873104
0.0031248918
0.0030669867
0.0030141561
0.0029676543
0.0029297822
0.0029024623
0.0028871126
0.0028867069
0.0029041221
0.0029400013
0.0029943151
0.0030667515
0.0031558536
0.0032588007
0.0033721271
0.0034916964
0.0036118332
0.0037260481
0.0038257334
0.0039019459
0.0039486538
0.0039633385
0.0039472874
0.0039057891
0.0038446935
0.0037691931
0.0036847944
0.0035947135
0.0035015041
0.0034073336
0.0033137153
0.0032200512
0.003127842
0.0030366899
0.0029458136
0.0028561416
0.00276664
0.0026775542
0.0025886065
0.00249763
0.0024051228
0.0023114444
0.0022170535
0.0021213001
0.0020235753
0.0019248844
0.0018240275
0.0017218401
0.0016180781
0.001512777
0.0014065924
0.0012990679
0.0011915962
0.0010837862
0.00097749508
0.00087213273
0.00077423695
0.00067136945
0.00062303467
0.00044355307
0.0010837847
-0.00069423519
0.021644302
0.020278363
0.018652626
0.016844645
0.014947377
0.01311713
0.011497206
0.010158426
0.0090982937
0.0082701187
0.0076155409
0.0070863243
0.0066498932
0.0062844456
0.0059739491
0.0057065357
0.0054735994
0.0052684938
0.0050860026
0.004922176
0.0047737667
0.0046379991
0.0045128276
0.0043966851
0.004288021
0.0041854692
0.0040882123
0.0039955159
0.003906414
0.0038202962
0.0037371344
0.0036566554
0.0035781441
0.0035014828
0.0034271462
0.0033552983
0.0032857016
0.0032187219
0.0031554205
0.0030967139
0.0030432259
0.0029961637
0.0029576695
0.0029296559
0.0029135994
0.0029122335
0.002928276
0.0029624778
0.0030148122
0.0030849326
0.0031714281
0.0032715764
0.0033819567
0.003498475
0.0036155865
0.0037269058
0.0038240444
0.0038984106
0.003943992
0.0039584352
0.003942929
0.0039021412
0.0038418802
0.003767324
0.0036838015
0.0035943175
0.003501593
0.003407951
0.0033146962
0.0032212244
0.0031292361
0.0030382842
0.0029476026
0.0028581091
0.0027687447
0.0026798329
0.0025910061
0.0025000799
0.0024077955
0.0023143471
0.0022197552
0.0021238828
0.0020262459
0.0019273954
0.0018264733
0.0017244687
0.0016207785
0.0015155379
0.0014094238
0.0013019323
0.001194468
0.0010866501
0.00098032609
0.00087492854
0.00077692207
0.00067408723
0.00062519924
0.00045452831
0.0010868229
-0.00066589579
0.020972571
0.01972138
0.018255413
0.016627669
0.014906243
0.013221919
0.01170181
0.010414806
0.0093682124
0.0085304442
0.0078563989
0.0073054462
0.0068479311
0.0064630132
0.0061350541
0.00585216
0.005605491
0.0053882361
0.0051950139
0.0050216568
0.0048647812
0.0047215305
0.0045897047
0.0044675969
0.0043536186
0.0042463646
0.0041448884
0.0040483931
0.0039559464
0.0038668896
0.0037810577
0.0036981649
0.0036175812
0.0035391272
0.0034631619
0.0033898528
0.0033190402
0.0032510466
0.0031868293
0.0031272912
0.0030731068
0.0030254421
0.0029862954
0.0029575544
0.0029407376
0.0029383687
0.00295301
0.0029854951
0.0030358065
0.0031035673
0.0031874106
0.0032847079
0.0033920899
0.0035055088
0.0036195471
0.0037279315
0.0038225026
0.0038949464
0.0039393941
0.0039535805
0.0039385712
0.003898481
0.0038390485
0.0037654336
0.0036827345
0.0035940434
0.0035016619
0.003408612
0.0033156618
0.0032223393
0.0031305039
0.0030396404
0.0029490459
0.0028596503
0.002770365
0.0026815696
0.0025928258
0.0025020085
0.0024099186
0.0023165898
0.0022220738
0.0021264351
0.0020288114
0.0019297986
0.0018289669
0.0017269152
0.0016229968
0.0015179038
0.0014119044
0.0013044631
0.001197065
0.0010892865
0.00098295676
0.00087756297
0.00077945947
0.00067669278
0.00062709208
0.00046483572
0.0010840923
-0.00063546011
0.020348083
0.019201133
0.017876052
0.01640731
0.014843907
0.013294781
0.011871632
0.010639946
0.0096139571
0.0087741055
0.0080866601
0.0075182551
0.0070425646
0.0066401127
0.0062959327
0.0059983541
0.0057384752
0.005509395
0.0053056277
0.0051228482
0.0049575544
0.0048068153
0.004668307
0.0045401981
0.0044208531
0.0043088286
0.0042030723
0.0041027225
0.0040068631
0.003914796
0.0038262414
0.0037408887
0.003658173
0.00357787
0.0035002351
0.0034254289
0.0033533547
0.0032843024
0.0032191348
0.003158734
0.0031038138
0.0030555036
0.003015671
0.0029861669
0.0029685375
0.0029651233
0.0029783322
0.0030090594
0.0030573033
0.0031226623
0.0032038088
0.0032982044
0.0034025368
0.003512807
0.0036237223
0.0037291375
0.0038210675
0.0038915916
0.0039348804
0.003948776
0.0039342102
0.0038948029
0.0038362067
0.0037635316
0.003681645
0.0035937504
0.0035017894
0.0034092732
0.0033166208
0.0032235236
0.0031318137
0.0030409796
0.0029504339
0.002861055
0.0027717402
0.0026829692
0.0025942447
0.0025034914
0.0024115448
0.0023183239
0.0022239502
0.0021284572
0.0020308928
0.0019320306
0.0018314195
0.0017292121
0.0016252124
0.0015201964
0.0014140378
0.0013066059
0.0011993468
0.001091601
0.00098532162
0.00087998105
0.00078179684
0.00067914145
0.00062869618
0.00047430204
0.0010754988
-0.00060319844
0.019766275
0.018714093
0.017513566
0.016185297
0.014763778
0.013339461
0.012009706
0.010835579
0.0098359219
0.0090005816
0.0083054103
0.0077237789
0.0072329072
0.0068149997
0.0064559956
0.00614466
0.005872196
0.005631699
0.0054176403
0.0052255955
0.0050519708
0.0048937716
0.0047485765
0.0046144478
0.0044896986
0.0043728487
0.004262759
0.0041585044
0.0040591707
0.0039640274
0.0038726981
0.0037848405
0.0036999367
0.0036177292
0.003538383
0.0034620431
0.0033886628
0.0033185066
0.0032523528
0.0031910569
0.003135361
0.0030863614
0.0030458073
0.0030155033
0.0029970096
0.0029925059
0.0030042488
0.0030331773
0.00307931
0.0031422251
0.0032206302
0.0033120743
0.0034133057
0.0035203779
0.0036281218
0.0037305344
0.0038197535
0.0038883595
0.0039304567
0.0039440246
0.003929849
0.0038911091
0.0038333457
0.003761608
0.0036805536
0.0035933636
0.0035020319
0.003409946
0.0033175835
0.0032247364
0.0031331522
0.0030423955
0.002951915
0.0028624937
0.0027730954
0.0026842916
0.0025954929
0.0025047095
0.0024128307
0.0023196747
0.0022254128
0.0021300239
0.0020325513
0.0019338366
0.0018333379
0.0017311998
0.0016274263
0.0015224055
0.0014161306
0.0013087555
0.001201407
0.0010935456
0.00098740639
0.00088208982
0.00078386195
0.00068137492
0.00062999645
0.00048279021
0.0010613405
-0.00056948841
0.019223076
0.018257095
0.01716696
0.01596301
0.014668841
0.013359392
0.012118939
0.011003506
0.0100347
0.0092095669
0.0085118936
0.0079211381
0.007418116
0.0069869377
0.0066146387
0.0062905968
0.0060062731
0.0057548521
0.0055308251
0.0053297248
0.0051478981
0.0049823025
0.0048304434
0.0046902952
0.0045601208
0.0044384049
0.0043239375
0.0042157339
0.0041128717
0.0040145922
0.0039204383
0.0038300318
0.0037428869
0.0036587214
0.0035776217
0.0034997111
0.0034249808
0.0033536758
0.0032864988
0.0032242738
0.0031677619
0.0031180284
0.0030767152
0.0030455729
0.0030261635
0.0030205243
0.0030307665
0.0030578556
0.0031018336
0.0031622624
0.0032378821