/*--------------------------------*- C++ -*----------------------------------*\
| =========                 |                                                 |
| \\      /  F ield         | OpenFOAM: The Open Source CFD Toolbox           |
|  \\    /   O peration     | Version:  2206                                  |
|   \\  /    A nd           | Website:  www.openfoam.com                      |
|    \\/     M anipulation  |                                                 |
\*---------------------------------------------------------------------------*/
FoamFile
{
    version     2.0;
    format      ascii;
    arch        "LSB;label=32;scalar=64";
    class       surfaceScalarField;
    location    "1700";
    object      phi;
}
// * * * * * * * * * * * * * * * * * * * * * * * * * * * * * * * * * * * * * //

dimensions      [0 3 -1 0 0 0 0];

oriented        oriented;

internalField   nonuniform List<scalar> 
14782
(
0.0006177065
8.7780815e-05
-0.00070548731
0.00051031192
0.00010739458
0.0004001398
0.00011017212
0.00030667468
9.3465117e-05
0.0002399986
6.6676082e-05
0.0001992581
4.0740497e-05
0.0001753413
2.3916804e-05
0.00016117116
1.417014e-05
0.00015176305
9.4081076e-06
0.00014419572
7.5673336e-06
0.00013732585
6.8698645e-06
0.00013096421
6.3616394e-06
0.00012515525
5.8089678e-06
0.00011986221
5.2930306e-06
0.00011502764
4.8345738e-06
0.00011062505
4.4025936e-06
0.00010661888
4.0061711e-06
0.00010292718
3.6916957e-06
9.9499316e-05
3.4278637e-06
9.631573e-05
3.1835869e-06
9.3354106e-05
2.9616231e-06
9.0579617e-05
2.77449e-06
8.7970937e-05
2.6086792e-06
8.5518663e-05
2.4522743e-06
8.3209985e-05
2.3086783e-06
8.1026333e-05
2.1836517e-06
7.8956748e-05
2.0695849e-06
7.6996443e-05
1.9603047e-06
7.5138106e-05
1.8583377e-06
7.3372286e-05
1.7658194e-06
7.1693865e-05
1.6784214e-06
7.0100489e-05
1.5933757e-06
6.8587962e-05
1.5125272e-06
6.7151584e-05
1.4363777e-06
6.5789168e-05
1.3624164e-06
6.4499803e-05
1.2893644e-06
6.3281753e-05
1.2180502e-06
6.2134011e-05
1.1477417e-06
6.1057514e-05
1.0764975e-06
6.0053995e-05
1.0035189e-06
5.9124658e-05
9.2933715e-07
5.8271206e-05
8.5345147e-07
5.7496824e-05
7.7438291e-07
5.680379e-05
6.9303376e-07
5.6201056e-05
6.0273358e-07
5.5692055e-05
5.0900136e-07
5.5286009e-05
4.0604593e-07
5.4990993e-05
2.9501603e-07
5.4805555e-05
1.8543752e-07
5.4727975e-05
7.7580173e-08
5.475387e-05
-2.5894984e-08
5.4876415e-05
-1.2254452e-07
5.5083392e-05
-2.0697732e-07
5.535497e-05
-2.7157813e-07
5.5678024e-05
-3.2305346e-07
5.6039758e-05
-3.6173425e-07
5.6406891e-05
-3.6713324e-07
5.6742206e-05
-3.3531464e-07
5.700979e-05
-2.6758396e-07
5.7195673e-05
-1.8588372e-07
5.7296371e-05
-1.0069724e-07
5.7314673e-05
-1.8302347e-08
5.7260711e-05
5.396145e-08
5.7147881e-05
1.1283017e-07
5.6989652e-05
1.582293e-07
5.6797987e-05
1.9166459e-07
5.6583652e-05
2.1433543e-07
5.6354466e-05
2.2918605e-07
5.6116281e-05
2.3818475e-07
5.5873548e-05
2.4273346e-07
5.56295e-05
2.4404796e-07
5.538584e-05
2.4365969e-07
5.5144068e-05
2.4177242e-07
5.490544e-05
2.386281e-07
5.4669868e-05
2.3557129e-07
5.4437964e-05
2.3190433e-07
5.4206425e-05
2.3153929e-07
5.397078e-05
2.3564442e-07
5.3732333e-05
2.3844692e-07
5.3492427e-05
2.3990653e-07
5.3251969e-05
2.4045796e-07
5.3010871e-05
2.4109748e-07
5.2767859e-05
2.4301179e-07
5.2523114e-05
2.4474512e-07
5.2276061e-05
2.4705339e-07
5.2026962e-05
2.4909926e-07
5.1775892e-05
2.5106934e-07
5.1522957e-05
2.5293493e-07
5.1268684e-05
2.542733e-07
5.1012918e-05
2.5576574e-07
5.0756237e-05
2.5668147e-07
5.0498505e-05
2.5773144e-07
5.0239887e-05
2.5861871e-07
4.9980061e-05
2.5982581e-07
4.9718273e-05
2.6178836e-07
4.9454503e-05
2.6376914e-07
4.9209386e-05
2.451169e-07
4.8806698e-05
4.0268817e-07
4.8815748e-05
-9.0498695e-09
8.3890095e-07
0.00079176866
9.1061743e-05
-0.00079504958
0.00077879264
0.0001203706
0.00075195287
0.00013701189
0.00070880239
0.00013661559
0.00065526468
0.00012021379
0.0006011786
9.4826586e-05
0.0005530879
7.2007501e-05
0.00051315616
5.4101879e-05
0.00048029493
4.2269342e-05
0.00045279816
3.5064101e-05
0.0004291695
3.049852e-05
0.00040850732
2.7023826e-05
0.00039019843
2.4117855e-05
0.00037375807
2.1733387e-05
0.00035884239
1.9750261e-05
0.00034524744
1.7997539e-05
0.0003328009
1.6452713e-05
0.00032132609
1.516651e-05
0.00031068808
1.4065869e-05
0.00030079658
1.3075088e-05
0.00029157364
1.2184568e-05
0.00028293759
1.1410532e-05
0.00027482611
1.0720168e-05
0.00026719325
1.0085135e-05
0.00025999554
9.5063841e-06
0.00025318939
8.9898029e-06
0.00024674206
8.5169107e-06
0.00024063085
8.07152e-06
0.00023483328
7.6559006e-06
0.00022932613
7.2729697e-06
0.00022409261
6.9119472e-06
0.00021912131
6.5646769e-06
0.00021440044
6.2333934e-06
0.00020991854
5.9182815e-06
0.00020566826
5.612694e-06
0.00020164542
5.3122053e-06
0.00019784623
5.0172384e-06
0.00019426903
4.7249362e-06
0.00019091614
4.4293946e-06
0.00018779247
4.1271859e-06
0.00018490345
3.8183538e-06
0.00018225641
3.5004901e-06
0.00017986169
3.1691083e-06
0.00017772956
2.8251598e-06
0.00017588258
2.4497174e-06
0.00017433715
2.0544321e-06
0.00017311103
1.6321668e-06
0.00017222085
1.1851981e-06
0.00017166596
7.4032095e-07
0.00017143771
3.0583684e-07
0.0001715197
-1.078916e-07
0.00017188779
-4.9063418e-07
0.00017250309
-8.2227968e-07
0.00017331056
-1.0790453e-06
0.00017426216
-1.2746498e-06
0.00017530299
-1.4025621e-06
0.00017633952
-1.4036649e-06
0.00017726909
-1.2648863e-06
0.00017800109
-9.995897e-07
0.0001784942
-6.7898683e-07
0.00017874012
-3.4661939e-07
0.00017875041
-2.8594491e-08
0.00017855272
2.5165342e-07
0.0001781844
4.8114699e-07
0.00017768408
6.5855233e-07
0.00017708638
7.8936875e-07
0.00017642144
8.792747e-07
0.00017571224
9.3838733e-07
0.00017497611
9.7430991e-07
0.00017422613
9.9271372e-07
0.00017347167
9.9850734e-07
0.00017271839
9.9694173e-07
0.00017197087
9.8928667e-07
0.00017123256
9.7694501e-07
0.00017050404
9.6408372e-07
0.00016978607
9.4987467e-07
0.00016906773
9.4988645e-07
0.0001683372
9.6617437e-07
0.00016759876
9.7688778e-07
0.00016685668
9.8198713e-07
0.00016611274
9.8439222e-07
0.00016536628
9.875598e-07
0.00016461456
9.9473432e-07
0.00016385722
1.0020791e-06
0.00016309317
1.011107e-06
0.00016232283
1.0194348e-06
0.00016154654
1.0273584e-06
0.00016076483
1.0346436e-06
0.00015997894
1.0401701e-06
0.00015918904
1.0456681e-06
0.00015839635
1.0493652e-06
0.00015760118
1.0529056e-06
0.00015680354
1.0562607e-06
0.00015600413
1.059233e-06
0.00015519709
1.0688231e-06
0.00015439557
1.0652932e-06
0.00015358658
1.0541094e-06
0.00015257179
1.417479e-06
0.00015201331
5.4942959e-07
2.5175002e-06
0.00083158714
8.6589935e-05
-0.00082711533
0.00083710315
0.00011485459
0.00084163091
0.00013248413
0.00084053533
0.00013771117
0.00083141953
0.00012932959
0.00081413544
0.00011211068
0.0007912913
9.4851642e-05
0.00076530037
8.0092808e-05
0.00073806233
6.9507384e-05
0.00071108805
6.2038382e-05
0.00068521694
5.6369633e-05
0.00066074589
5.149487e-05
0.00063768293
4.7180817e-05
0.0006159255
4.3490816e-05
0.00059540849
4.026727e-05
0.00057610244
3.7303592e-05
0.0005579482
3.4606951e-05
0.00054085178
3.2262934e-05
0.00052472909
3.0188557e-05
0.00050951496
2.8289218e-05
0.00049514405
2.6555476e-05
0.00048154263
2.5011952e-05
0.00046865042
2.3612379e-05
0.00045641993
2.231562e-05
0.000444805
2.1121315e-05
0.00043375723
2.0037568e-05
0.00042323774
1.9036407e-05
0.00041321663
1.8092626e-05
0.00040366519
1.7207344e-05
0.00039455528
1.6382874e-05
0.00038586552
1.560171e-05
0.00037758012
1.4850079e-05
0.00036968406
1.412945e-05
0.00036216381
1.3438535e-05
0.00035501062
1.2765877e-05
0.00034821991
1.2102923e-05
0.00034178885
1.1448297e-05
0.00033571777
1.0796009e-05
0.00033001176
1.0135406e-05
0.00032467963
9.4593184e-06
0.00031973211
8.7658778e-06
0.00031518316
8.0494371e-06
0.00031105058
7.3016911e-06
0.00030735435
6.5213808e-06
0.00030412489
5.6791795e-06
0.00030139038
4.7889419e-06
0.00029917019
3.8523606e-06
0.00029747654
2.8788445e-06
0.00029630574
1.9111228e-06
0.00029563966
9.7191975e-07
0.00029544719
8.4575759e-08
0.00029568526
-7.2870292e-07
0.00029629216
-1.4291847e-06
0.00029718709
-1.9739674e-06
0.00029829191
-2.3794763e-06
0.00029951157
-2.6222241e-06
0.00030070822
-2.6003073e-06
0.00030174044
-2.2971072e-06
0.00030249297
-1.7521217e-06
0.00030291202
-1.0980335e-06
0.00030298852
-4.2311942e-07
0.00030274027
2.1964903e-07
0.00030220632
7.8560915e-07
0.0003014388
1.2486672e-06
0.00030049068
1.6066659e-06
0.00029940963
1.8704264e-06
0.00029823698
2.0519191e-06
0.00029700517
2.1701971e-06
0.00029573904
2.2404429e-06
0.00029445736
2.274392e-06
0.00029317359
2.2822771e-06
0.00029189635
2.274182e-06
0.00029063249
2.2531441e-06
0.00028938689
2.2225458e-06
0.00028816083
2.1901418e-06
0.00028695447
2.1562409e-06
0.00028575052
2.1538309e-06
0.00028453405
2.1826511e-06
0.00028331272
2.1982087e-06
0.00028209118
2.2035318e-06
0.00028087009
2.2054839e-06
0.00027964761
2.210041e-06
0.00027841998
2.2223617e-06
0.00027718585
2.2362128e-06
0.00027594357
2.2533862e-06
0.00027469331
2.2696943e-06
0.00027343538
2.2852886e-06
0.0002721705
2.2995235e-06
0.00027090014
2.3105285e-06
0.00026962481
2.3209948e-06
0.00026834594
2.3282373e-06
0.00026706427
2.3345741e-06
0.00026577955
2.3409803e-06
0.00026449359
2.3451977e-06
0.00026319589
2.3665145e-06
0.00026191184
2.3493454e-06
0.00026058333
2.3826226e-06
0.00025909997
2.9008375e-06
0.00025782596
1.8234424e-06
4.5897753e-06
0.00086138452
8.2259427e-05
-0.00085705401
0.00086792052
0.00010831858
0.00087521104
0.00012519362
0.00088223707
0.00013068513
0.00088614523
0.00012542144
0.00088513009
0.00011312581
0.00088104402
9.893772e-05
0.00087432071
8.6816111e-05
0.00086523468
7.8593421e-05
0.00085403115
7.3241906e-05
0.00084104014
6.9360651e-05
0.00082646237
6.6072635e-05
0.00081066262
6.2980564e-05
0.00079423018
5.9923258e-05
0.0007775043
5.6993154e-05
0.00076071053
5.4097364e-05
0.00074398744
5.1330039e-05
0.00072742287
4.8827504e-05
0.00071110167
4.650975e-05
0.00069510268
4.4288214e-05
0.00067948108
4.2177072e-05
0.00066426392
4.0229119e-05
0.0006494728
3.8403498e-05
0.00063512598
3.6662436e-05
0.00062123231
3.5014988e-05
0.00060778847
3.3481401e-05
0.0005947914
3.2033482e-05
0.00058223894
3.0645088e-05
0.0005701247
2.9321581e-05
0.00055843917
2.8068407e-05
0.00054717598
2.6864897e-05
0.00053633131
2.5694744e-05
0.00052590043
2.4560335e-05
0.00051587918
2.3459782e-05
0.00050626758
2.237748e-05
0.00049706953
2.1300968e-05
0.00048828993
2.0227905e-05
0.00047993515
1.9150789e-05
0.00047201534
1.8055214e-05
0.00046454422
1.6930438e-05
0.00045753783
1.5772272e-05
0.00045101577
1.4571491e-05
0.00044500133
1.3316132e-05
0.00043952173
1.2000984e-05
0.00043460881
1.0592092e-05
0.00043029042
9.107335e-06
0.00042657823
7.5645469e-06
0.00042346964
5.9874419e-06
0.00042095301
4.427746e-06
0.00041900581
2.9191273e-06
0.00041759369
1.4966968e-06
0.00041666711
1.9787488e-07
0.00041615536
-9.1744233e-07
0.00041597508
-1.7936838e-06
0.00041604009
-2.4444828e-06
0.00041623264
-2.8147764e-06
0.00041640104
-2.7687054e-06
0.00041641201
-2.308075e-06
0.00041617138
-1.5114937e-06
0.00041563916
-5.6581566e-07
0.00041481098
4.0506062e-07
0.00041370619
1.3244381e-06
0.00041236168
2.1301228e-06
0.00041082239
2.7879547e-06
0.0004091338
3.2952583e-06
0.00040733776
3.6664635e-06
0.00040547167
3.9180074e-06
0.00040356582
4.0760475e-06
0.00040164407
4.1621949e-06
0.00039972475
4.1937121e-06
0.00039782103
4.1859924e-06
0.00039594177
4.1534408e-06
0.00039409419
4.1007247e-06
0.00039228312
4.0336247e-06
0.0003905096
3.9636618e-06
0.00038877236
3.893472e-06
0.00038706606
3.8601308e-06
0.00038538324
3.8654736e-06
0.00038371919
3.8622586e-06
0.00038206995
3.8527738e-06
0.00038043262
3.8428159e-06
0.00037880372
3.8389384e-06
0.00037717844
3.8476392e-06
0.00037555414
3.8605178e-06
0.00037392824
3.8792838e-06
0.00037230001
3.8979229e-06
0.0003706691
3.916199e-06
0.00036903571
3.9329094e-06
0.00036740086
3.9453865e-06
0.00036576476
3.9570906e-06
0.00036412845
3.9645513e-06
0.00036249261
3.97041e-06
0.00036085643
3.9771591e-06
0.00035922222
3.979405e-06
0.00035757627
4.0124676e-06
0.00035595031
3.9753032e-06
0.00035426218
4.0707587e-06
0.00035246838
4.6946365e-06
0.00035066113
3.6306904e-06
6.8098048e-06
0.00089167729
7.8534343e-05
-0.00088795221
0.00089771028
0.00010228559
0.0009049173
0.00011798659
0.00091182285
0.00012377959
0.00091698979
0.0001202545
0.00091991834
0.00011019726
0.00092055913
9.8296928e-05
0.00091941615
8.7959094e-05
0.00091752893
8.0480636e-05
0.00091497739
7.5793445e-05
0.00091168764
7.26504e-05
0.00090743973
7.0320547e-05
0.00090198864
6.8431658e-05
0.00089527353
6.6638364e-05
0.00088736744
6.489925e-05
0.00087829218
6.3172625e-05
0.00086819818
6.1424035e-05
0.00085737357
5.9652115e-05
0.00084598109
5.7902229e-05
0.00083414169
5.6127616e-05
0.00082195378
5.4364982e-05
0.00080949574
5.2687162e-05
0.00079684534
5.1053899e-05
0.00078408134
4.9426435e-05
0.00077127285
4.7823479e-05
0.0007584759
4.627835e-05
0.0007457433
4.4766083e-05
0.00073312244
4.3265948e-05
0.00072065112
4.1792892e-05
0.00070835966
4.0359874e-05
0.00069627702
3.8947538e-05
0.00068443036
3.7541401e-05
0.00067284266
3.6148036e-05
0.00066153505
3.4767386e-05
0.00065053131
3.3381219e-05
0.00063985748
3.1974798e-05
0.0006295341
3.0551293e-05
0.00061957729
2.9107598e-05
0.00061000651
2.7625991e-05
0.00060084475
2.6092195e-05
0.00059211691
2.4500113e-05
0.00058385071
2.2837695e-05
0.00057607651
2.1090332e-05
0.00056883151
1.9245979e-05
0.00056214638
1.7277228e-05
0.00055603103
1.522268e-05
0.00055048177
1.3113807e-05
0.00054549262
1.0976593e-05
0.00054105759
8.8627795e-06
0.00053716356
6.81316e-06
0.00053378717
4.8730789e-06
0.00053088778
3.0972707e-06
0.00052840224
1.5680916e-06
0.00052626652
3.4203627e-07
0.00052438919
-5.6715343e-07
0.00052262382
-1.0494037e-06
0.00052083595
-9.8083895e-07
0.00051895077
-4.2288919e-07
0.0005169306
5.086751e-07
0.00051476516
1.5996205e-06
0.00051245839
2.7118315e-06
0.00051002293
3.7599026e-06
0.00050747862
4.6744277e-06
0.00050484931
5.417271e-06
0.00050216005
5.9845146e-06
0.0004994353
6.3912104e-06
0.00049669849
6.6548168e-06
0.00049396952
6.8050185e-06
0.00049126482
6.8668958e-06
0.00048859737
6.8611658e-06
0.00048597649
6.8068696e-06
0.00048340894
6.7209948e-06
0.00048090048
6.6091828e-06
0.00047845428
6.4798247e-06
0.00047607003
6.3479127e-06
0.00047374489
6.2186142e-06
0.00047148002
6.124994e-06
0.00046927383
6.0716705e-06
0.00046711583
6.0202586e-06
0.00046499597
5.9726315e-06
0.00046290778
5.9310014e-06
0.0004608459
5.9008208e-06
0.00045880431
5.8892261e-06
0.00045677901
5.8858215e-06
0.00045476624
5.8920528e-06
0.00045276399
5.9001705e-06
0.00045077079
5.9094033e-06
0.0004487858
5.9178986e-06
0.00044680904
5.9221469e-06
0.00044483995
5.9261751e-06
0.00044287875
5.9257574e-06
0.00044092558
5.9235785e-06
0.00043897875
5.9239847e-06
0.00043704049
5.9176713e-06
0.00043509476
5.958192e-06
0.00043317558
5.8944843e-06
0.00043119022
6.056124e-06
0.00042913988
6.744972e-06
0.00042690317
5.8674029e-06
9.12713e-06
0.00092307172
7.5203317e-05
-0.00091974069
0.00092859132
9.6765996e-05
0.00093516475
0.00011141317
0.00094158423
0.00011736011
0.00094673479
0.00011510394
0.00094997878
0.00010695326
0.00095156698
9.6708735e-05
0.00095194217
8.75839e-05
0.00095160341
8.0819393e-05
0.00095109187
7.6304989e-05
0.00095044421
7.3298061e-05
0.00094959456
7.1170191e-05
0.00094844388
6.9582342e-05
0.00094686543
6.8216813e-05
0.00094478223
6.698245e-05
0.00094205864
6.5896216e-05
0.00093855391
6.4928767e-05
0.00093422651
6.3979513e-05
0.00092908218
6.3046558e-05
0.00092310021
6.2109582e-05
0.00091633414
6.1131057e-05
0.00090891138
6.0109919e-05
0.00090090786
5.9057423e-05
0.00089238232
5.7951973e-05
0.00088338707
5.6818727e-05
0.00087397466
5.569076e-05
0.00086420164
5.4539105e-05
0.00085412217
5.3345419e-05
0.00084378883
5.2126224e-05
0.00083325319
5.0895516e-05
0.00082256779
4.963294e-05
0.00081178369
4.8325498e-05
0.00080094717
4.6984555e-05
0.00079010114
4.5613425e-05
0.00077928847
4.4193884e-05
0.00076855211
4.2711164e-05
0.00075793393
4.1169467e-05
0.0007474756
3.9565928e-05
0.00073721882
3.7882768e-05
0.00072720505
3.6105972e-05
0.00071747518
3.4229983e-05
0.00070807167
3.2241206e-05
0.00069903921
3.0122783e-05
0.00069043581
2.7849387e-05
0.00068226878
2.5444256e-05
0.00067451522
2.2976238e-05
0.00066719763
2.04314e-05
0.00066034781
1.7826411e-05
0.00065398396
1.5226628e-05
0.000648106
1.2691122e-05
0.00064269623
1.0282847e-05
0.00063771584
8.0776605e-06
0.00063311431
6.1696258e-06
0.00062886361
4.5927327e-06
0.00062483436
3.4620955e-06
0.00062083621
2.9487513e-06
0.00061681732
3.0380445e-06
0.00061280302
3.5914088e-06
0.00060880854
4.5031577e-06
0.00060483903
5.5691283e-06
0.00060089726
6.6536022e-06
0.00059698499
7.6721762e-06
0.0005931041
8.5553209e-06
0.00058925876
9.2626105e-06
0.00058545518
9.7880869e-06
0.00058170069
1.0145708e-05
0.00057800382
1.0351678e-05
0.0005743726
1.0436247e-05
0.0005708143
1.0425188e-05
0.00056733524
1.0340234e-05
0.00056394049
1.0201619e-05
0.00056063318
1.0028298e-05
0.00055741537
9.8269985e-06
0.00055428757
9.6076216e-06
0.00055124763
9.3878582e-06
0.00054829152
9.1747207e-06
0.00054541752
8.9989957e-06
0.00054262417
8.8650229e-06
0.00053990459
8.7398383e-06
0.0005372488
8.6284175e-06
0.00053464869
8.5311129e-06
0.00053209741
8.452097e-06
0.00052958788
8.3987559e-06
0.00052711487
8.358831e-06
0.00052467345
8.3334754e-06
0.00052226026
8.3133616e-06
0.00051987251
8.2971542e-06
0.00051750809
8.2823161e-06
0.00051516576
8.2644779e-06
0.00051284405
8.2478802e-06
0.00051054218
8.2276292e-06
0.00050825922
8.2065395e-06
0.00050599234
8.1908611e-06
0.00050374317
8.1668431e-06
0.0005014941
8.207269e-06
0.00049927876
8.1098204e-06
0.00049700017
8.3347163e-06
0.00049469121
9.0539244e-06
0.00049206215
8.4964654e-06
1.1573472e-05
0.00095545115
7.2203145e-05
-0.00095245098
0.00096053623
9.1680909e-05
0.00096660647
0.00010534293
0.00097257675
0.00011138983
0.00097746043
0.00011022025
0.00098070775
0.00010370594
0.00098246063
9.4955855e-05
0.00098322118
8.6823352e-05
0.000983432
8.0608573e-05
0.00098341756
7.6319428e-05
0.00098332857
7.3387056e-05
0.00098321373
7.128503e-05
0.0009830693
6.9726771e-05
0.00098283115
6.8454965e-05
0.00098245359
6.7360002e-05
0.00098189922
6.6450587e-05
0.00098111828
6.5709712e-05
0.00098004767
6.5050125e-05
0.00097863671
6.4457509e-05
0.00097679876
6.3947537e-05
0.00097444103
6.3488783e-05
0.00097152211
6.3028841e-05
0.00096802062
6.255892e-05
0.00096390461
6.206798e-05
0.00095918871
6.1534623e-05
0.00095392358
6.095589e-05
0.00094813742
6.0325264e-05
0.00094185503
5.962781e-05
0.00093509943
5.8881831e-05
0.00092789663
5.8098309e-05
0.00092027987
5.7249699e-05
0.00091228513
5.6320241e-05
0.00090394391
5.5325772e-05
0.00089528828
5.4269055e-05
0.00088635666
5.3125509e-05
0.00087718853
5.1879295e-05
0.00086782586
5.0532133e-05
0.00085831583
4.907596e-05
0.00084870806
4.7490538e-05
0.00083905319
4.5760843e-05
0.00082940264
4.3880526e-05
0.00081981013
4.1833724e-05
0.00081033284
3.9600067e-05
0.00080103127
3.715096e-05
0.00079195472
3.4520809e-05
0.00078312651
3.1804448e-05
0.0007745637
2.8994208e-05
0.00076629795
2.6092165e-05
0.00075835997
2.3164602e-05
0.00075076938
2.0281716e-05
0.00074353053
1.7521696e-05
0.00073662871
1.4979481e-05
0.00073004933
1.2749005e-05
0.0007237992
1.0842857e-05
0.00071779687
9.4644292e-06
0.00071190336
8.8422661e-06
0.00070607974
8.8616646e-06
0.00070034579
9.3253538e-06
0.00069471313
1.0135814e-05
0.00068918793
1.1094334e-05
0.00068377803
1.2063497e-05
0.00067848636
1.2963854e-05
0.00067331102
1.3730654e-05
0.00066825199
1.4321647e-05
0.00066330996
1.4730109e-05
0.0006584846
1.4971071e-05
0.00065377639
1.5059886e-05
0.00064918628
1.5026358e-05
0.00064471539
1.4896083e-05
0.00064036477
1.4690847e-05
0.00063613593
1.4430459e-05
0.00063202898
1.4135246e-05
0.00062804287
1.3813115e-05
0.00062417568
1.3474809e-05
0.00062042337
1.3140164e-05
0.00061678092
1.2817178e-05
0.00061324403
1.2535888e-05
0.00060980959
1.2299457e-05
0.00060647286
1.2076573e-05
0.00060322558
1.1875695e-05
0.00060005976
1.1696936e-05
0.00059696795
1.1543907e-05
0.00059394232
1.1424386e-05
0.00059097667
1.132448e-05
0.00058806499
1.1245148e-05
0.00058520266
1.1175691e-05
0.00058238554
1.1114276e-05
0.00057961015
1.1057707e-05
0.00057687386
1.100077e-05
0.00057417404
1.0947702e-05
0.0005715087
1.0892968e-05
0.00056887569
1.0839553e-05
0.00056627095
1.0795601e-05
0.00056369519
1.0742598e-05
0.00056112954
1.0772922e-05
0.00055860612
1.0633241e-05
0.00055602564
1.0915188e-05
0.00055344634
1.1633229e-05
0.00055044003
1.1502771e-05
1.417955e-05
0.00098885662
6.9472727e-05
-0.0009861262
0.0009935354
8.7002127e-05
0.00099916684
9.9711496e-05
0.0010047493
0.00010580733
0.0010094074
0.00010556215
0.0010126322
0.00010048123
0.0010144815
9.31065e-05
0.0010153812
8.59237e-05
0.0010157677
8.0222018e-05
0.0010159404
7.6146748e-05
0.0010160389
7.328854e-05
0.0010161091
7.1214826e-05
0.0010161786
6.9657317e-05
0.0010162326
6.8400903e-05
0.0010162432
6.7349468e-05
0.0010162071
6.6486614e-05
0.0010161204
6.5796438e-05
0.0010159566
6.5213901e-05
0.0010156946
6.4719555e-05
0.00101531
6.4332125e-05
0.0010147675
6.4031236e-05
0.0010140263
6.3770125e-05
0.001013046
6.3539198e-05
0.0010117654
6.334852e-05
0.0010101218
6.3178248e-05
0.0010080777
6.3000033e-05
0.0010056012
6.2801703e-05
0.0010026616
6.2567439e-05
0.00099925839
6.2285048e-05
0.0009954054
6.19513e-05
0.00099110492
6.1550177e-05
0.00098635853
6.1066635e-05
0.00098117092
6.051338e-05
0.00097555101
5.9888968e-05
0.00096951086
5.9165653e-05
0.00096306462
5.8325534e-05
0.00095622775
5.7369008e-05
0.00094901682
5.6286891e-05
0.00094145062
5.5056735e-05
0.00093355463
5.3656836e-05
0.00092536011
5.2075041e-05
0.00091690279
5.0291048e-05
0.00090822516
4.8277698e-05
0.00089936576
4.6010353e-05
0.00089040451
4.3482065e-05
0.00088143645
4.0772504e-05
0.00087249532
3.793534e-05
0.00086360248
3.4985002e-05
0.00085479153
3.197555e-05
0.00084610187
2.8971383e-05
0.00083757405
2.6049517e-05
0.000829245
2.3308529e-05
0.00082114323
2.0850771e-05
0.00081327646
1.8709631e-05
0.00080568814
1.7052746e-05
0.0007983603
1.6170103e-05
0.0007912125
1.6009467e-05
0.00078420906
1.6328798e-05
0.00077731726
1.7027616e-05
0.00077053823
1.7873357e-05
0.00076388721
1.8714519e-05
0.00075737064
1.9480422e-05
0.00075099297
2.0108322e-05
0.00074476444
2.0550181e-05
0.00073869142
2.0803132e-05
0.00073277435
2.0888143e-05
0.00072701433
2.0819901e-05
0.00072141239
2.0628295e-05
0.00071596788
2.0340596e-05
0.00071067943
1.9979298e-05
0.0007055466
1.9563292e-05
0.00070056827
1.9113579e-05
0.00069574221
1.8639169e-05
0.00069106503
1.8151986e-05
0.0006865312
1.7674001e-05
0.00068213482
1.721356e-05
0.00067787022
1.6800487e-05
0.00067373273
1.6436945e-05
0.00066971802
1.609128e-05
0.00066581924
1.5774478e-05
0.00066202921
1.5486963e-05
0.00065834056
1.5232555e-05
0.00065474507
1.5019882e-05
0.00065123577
1.4833774e-05
0.00064780571
1.4675208e-05
0.00064444905
1.4532358e-05
0.0006411603
1.440302e-05
0.00063793459
1.4283419e-05
0.00063476782
1.4167543e-05
0.0006316559
1.4059622e-05
0.00062859543
1.3953429e-05
0.00062558302
1.3851968e-05
0.00062261334
1.3765282e-05
0.00061968598
1.3669955e-05
0.00061678087
1.3678031e-05
0.00061392817
1.3485941e-05
0.00061102647
1.3816895e-05
0.00060815627
1.4503426e-05
0.00060476758
1.4891461e-05
1.697607e-05
0.0010233253
6.6956389e-05
-0.001020809
0.0010276233
8.2704141e-05
0.0010328409
9.4493875e-05
0.0010380633
0.00010058496
0.0010425154
0.00010111005
0.0010457198
9.7276795e-05
0.0010476701
9.1156221e-05
0.0010487059
8.4887941e-05
0.0010492164
7.9711441e-05
0.001049486
7.5877148e-05
0.0010496637
7.3110915e-05
0.0010498104
7.1068122e-05
0.001049951
6.9516714e-05
0.0010500768
6.8275113e-05
0.0010501798
6.7246447e-05
0.0010502624
6.6404037e-05
0.0010503351
6.5723703e-05
0.0010503882
6.5160755e-05
0.0010504044
6.4703362e-05
0.0010503864
6.4350147e-05
0.0010503307
6.4086936e-05
0.0010502208
6.3880045e-05
0.0010500412
6.371878e-05
0.0010497733
6.3616402e-05
0.0010493917
6.3559886e-05
0.0010488674
6.3524302e-05
0.0010481685
6.3500669e-05
0.0010472491
6.3486753e-05
0.0010460645
6.3469712e-05
0.0010445836
6.3432213e-05
0.0010427721
6.3361595e-05
0.0010405999
6.3238895e-05
0.0010380598
6.3053514e-05
0.0010351482
6.2800527e-05
0.0010318545
6.2459396e-05
0.0010281666
6.2013372e-05
0.0010240734
6.1462249e-05
0.0010195674
6.0792865e-05
0.0010146449
5.9979244e-05
0.0010093018
5.8999977e-05
0.0010035331
5.7843682e-05
0.0009973351
5.6489053e-05
0.00099070716
5.4905642e-05
0.00098364538
5.3072131e-05
0.00097615924
5.0968212e-05
0.00096830986
4.8621877e-05
0.00096016668
4.6078518e-05
0.00095177441
4.337728e-05
0.00094317472
4.0575236e-05
0.000934414
3.7732107e-05
0.00092554826
3.4915256e-05
0.00091664461
3.2212172e-05
0.00090776609
2.9729295e-05
0.00089893882
2.7536898e-05
0.00089026301
2.5728557e-05
0.00088187799
2.455513e-05
0.00087378017
2.4107285e-05
0.00086584195
2.4267018e-05
0.00085798536
2.4884202e-05
0.00085023038
2.5628341e-05
0.00084257934
2.6365552e-05
0.00083502946
2.7030305e-05
0.00082759906
2.7538719e-05
0.00082031239
2.7836857e-05
0.00081318003
2.793549e-05
0.00080620771
2.786046e-05
0.00079940613
2.7621485e-05
0.00079278217
2.7252255e-05
0.00078633691
2.6785852e-05
0.00078007113
2.6245076e-05
0.00077398659
2.5647835e-05
0.00076808296
2.5017212e-05
0.00076235827
2.4363859e-05
0.00075680935
2.3700902e-05
0.00075143056
2.3052794e-05
0.00074621611
2.242801e-05
0.00074116042
2.185618e-05
0.00073625831
2.1339048e-05
0.0007315054
2.0844191e-05
0.00072689566
2.0384218e-05
0.00072242291
1.9959719e-05
0.00071808024
1.9575222e-05
0.00071385941
1.9240717e-05
0.000709753
1.8940179e-05
0.00070575326
1.8674947e-05
0.00070185329
1.8432331e-05
0.00069804637
1.8209936e-05
0.00069432625
1.8003544e-05
0.00069068736
1.7806432e-05
0.0006871241
1.7622884e-05
0.00068363156
1.7445968e-05
0.00068020495
1.7278576e-05
0.00067683764
1.7132591e-05
0.00067352795
1.6979645e-05
0.00067025459
1.695139e-05
0.00066704563
1.6694901e-05
0.00066379707
1.7065453e-05
0.00066061006
1.7690439e-05
0.00065682115
1.8680372e-05
1.9993562e-05
0.0010588866
6.461442e-05
-0.0010565446
0.0010628334
7.8757317e-05
0.0010676619
8.966534e-05
0.0010725459
9.5700973e-05
0.0010767941
9.686185e-05
0.0010799639
9.4106979e-05
0.0010820022
8.9118006e-05
0.0010831724
8.3717736e-05
0.0010838125
7.9071342e-05
0.0010841827
7.5506937e-05
0.0010844311
7.2862509e-05
0.0010846271
7.0872059e-05
0.001084803
6.9340818e-05
0.0010849617
6.8116479e-05
0.0010851013
6.7106815e-05
0.0010852259
6.627946e-05
0.0010853389
6.5610653e-05
0.0010854366
6.506313e-05
0.0010855191
6.4620859e-05
0.0010855893
6.4279905e-05
0.0010856528
6.4023435e-05
0.0010857044
6.3828495e-05
0.0010857295
6.369367e-05
0.0010857278
6.3618086e-05
0.0010856979
6.3589748e-05
0.0010856285
6.3593705e-05
0.0010855086
6.3620553e-05
0.0010853232
6.3672185e-05
0.0010850523
6.3740587e-05
0.0010846747
6.3809806e-05
0.001084164
6.3872305e-05
0.001083485
6.3917947e-05
0.0010826037
6.393482e-05
0.0010814945
6.3909721e-05
0.0010801241
6.3829779e-05
0.0010784653
6.3672181e-05
0.0010765056
6.3421939e-05
0.0010742279
6.3070599e-05
0.0010716137
6.2593355e-05
0.0010686426
6.1971082e-05
0.0010652915
6.1194782e-05
0.0010615361
6.0244523e-05
0.0010573502
5.9091468e-05
0.0010527046
5.7717758e-05
0.0010475613
5.6111565e-05
0.0010419
5.4283112e-05
0.0010357302
5.2248355e-05
0.0010290685
5.0039005e-05
0.0010219326
4.7711119e-05
0.0010143465
4.5318179e-05
0.0010063457
4.2916016e-05
0.0009979822
4.057572e-05
0.00098932404
3.8387449e-05
0.0009804329
3.6428044e-05
0.00097140109
3.4760367e-05
0.00096242204
3.3534172e-05
0.00095363388
3.2895454e-05
0.00094503801
3.2862882e-05
0.00093661177
3.3310442e-05
0.00092829421
3.3945903e-05
0.00092000237
3.4657391e-05
0.00091173186
3.5300815e-05
0.00090353456
3.5736022e-05
0.00089543025
3.5941161e-05
0.00088742507
3.5940676e-05
0.00087954291
3.5742621e-05
0.00087181066
3.5353729e-05
0.00086424026
3.4822657e-05
0.00085683846
3.4187648e-05
0.00084961603
3.3467506e-05
0.00084258159
3.268228e-05
0.0008357378
3.1861e-05
0.00082908603
3.1015628e-05
0.00082262677
3.0160168e-05
0.00081635684
2.9322716e-05
0.00081027288
2.8511969e-05
0.00080437173
2.7757336e-05
0.00079864939
2.7061386e-05
0.00079310203
2.6391549e-05
0.00078772465
2.5761599e-05
0.00078251224
2.5172123e-05
0.00077745874
2.4628724e-05
0.00077255633
2.4143126e-05
0.0007677976
2.3698909e-05
0.00076317431
2.3298244e-05
0.00075867877
2.2927863e-05
0.0007543033
2.2585413e-05
0.00075004039
2.2266449e-05
0.00074588314
2.1963682e-05
0.00074182447
2.1681553e-05
0.00073785797
2.141247e-05
0.00073397739
2.1159154e-05
0.00073017473
2.0935252e-05
0.00072644695
2.070743e-05
0.00072277148
2.0626861e-05
0.00071917432
2.0292059e-05
0.00071554833
2.0691445e-05
0.00071201419
2.1224575e-05
0.00070779807
2.2896494e-05
2.3263044e-05
0.0010955744
6.2418639e-05
-0.0010933786
0.0010992023
7.5129394e-05
0.0011036677
8.5199945e-05
0.0011082337
9.1134908e-05
0.0011122802
9.2815352e-05
0.0011153999
9.0987371e-05
0.0011175064
8.7011503e-05
0.0011187971
8.2426967e-05
0.0011195611
7.8307326e-05
0.0011200345
7.5033595e-05
0.0011203605
7.2536531e-05
0.0011206122
7.0620281e-05
0.0011208267
6.9126328e-05
0.0011210145
6.7928678e-05
0.0011211782
6.6943114e-05
0.0011213236
6.6134107e-05
0.0011214556
6.5478606e-05
0.0011215745
6.4944308e-05
0.0011216818
6.4513475e-05
0.0011217813
6.4180486e-05
0.0011218738
6.3930887e-05
0.001121957
6.3745252e-05
0.0011220312
6.3619485e-05
0.0011220978
6.3551468e-05
0.0011221572
6.3530419e-05
0.0011222114
6.3539497e-05
0.0011222494
6.358254e-05
0.0011222629
6.3658647e-05
0.0011222546
6.3748961e-05
0.0011222161
6.3848288e-05
0.0011221391
6.3949246e-05
0.0011220117
6.4045369e-05
0.0011218173
6.4129263e-05
0.0011215395
6.4187471e-05
0.0011211559
6.4213363e-05
0.0011206381
6.4190001e-05
0.00111996
6.4100053e-05
0.0011190977
6.3932879e-05
0.0011180202
6.3670852e-05
0.0011167019
6.3289434e-05
0.0011151252
6.2771434e-05
0.0011132638
6.2105905e-05
0.0011110871
6.12682e-05
0.001108561
6.0243881e-05
0.0011056445
5.9028024e-05
0.0011022921
5.7635547e-05
0.0010984614
5.6079066e-05
0.0010941171
5.4383257e-05
0.0010892282
5.2600067e-05