/*--------------------------------*- C++ -*----------------------------------*\
| =========                 |                                                 |
| \\      /  F ield         | OpenFOAM: The Open Source CFD Toolbox           |
|  \\    /   O peration     | Version:  2206                                  |
|   \\  /    A nd           | Website:  www.openfoam.com                      |
|    \\/     M anipulation  |                                                 |
\*---------------------------------------------------------------------------*/
FoamFile
{
    version     2.0;
    format      ascii;
    arch        "LSB;label=32;scalar=64";
    class       volVectorField;
    location    "1700";
    object      U;
}
// * * * * * * * * * * * * * * * * * * * * * * * * * * * * * * * * * * * * * //

dimensions      [0 1 -1 0 0 0 0];

internalField   nonuniform List<vector> 
7480
(
(0.82757666 0.011162913 0)
(0.70301928 0.020212315 0)
(0.56656913 0.021426691 0)
(0.43055081 0.014559281 0)
(0.33055936 0.0062886406 0)
(0.26658276 0.0019091928 0)
(0.23007603 0.0022246762 0)
(0.20853514 -0.00029145533 0)
(0.19447639 -0.00043016147 0)
(0.18414817 -0.00017542863 0)
(0.17532458 8.7308876e-07 0)
(0.16713622 5.4052494e-05 0)
(0.15956522 6.473318e-05 0)
(0.15266412 6.668626e-05 0)
(0.14637509 0.00024523377 0)
(0.14063921 0.00022035464 0)
(0.13540755 8.5392301e-05 0)
(0.13062118 5.3077921e-05 0)
(0.12619447 4.5624254e-05 0)
(0.12207975 4.0818134e-05 0)
(0.1182555 3.7237536e-05 0)
(0.11468579 3.5236828e-05 0)
(0.1113339 3.2998589e-05 0)
(0.10818185 3.0327239e-05 0)
(0.105217 2.8011727e-05 0)
(0.10241918 2.6302541e-05 0)
(0.099769178 2.4506331e-05 0)
(0.097257796 2.2552502e-05 0)
(0.094878425 2.0842978e-05 0)
(0.092620095 1.9417776e-05 0)
(0.090473211 1.7960705e-05 0)
(0.088433611 1.6474179e-05 0)
(0.086497626 1.5151779e-05 0)
(0.084659363 1.3967843e-05 0)
(0.082914275 1.2789589e-05 0)
(0.081260741 1.1630124e-05 0)
(0.079697204 1.0566355e-05 0)
(0.07822171 9.5525749e-06 0)
(0.076834144 8.5332386e-06 0)
(0.075536446 7.5250223e-06 0)
(0.074330557 6.5719662e-06 0)
(0.073217958 5.6564046e-06 0)
(0.072202133 4.7329352e-06 0)
(0.071285859 3.859891e-06 0)
(0.070472043 1.5361729e-05 0)
(0.069787468 8.7359272e-06 0)
(0.069209099 7.5042322e-07 0)
(0.068771558 -2.309388e-07 0)
(0.068473713 -9.9065e-07 0)
(0.068311886 -1.67331e-06 0)
(0.068282426 -2.3834889e-06 0)
(0.068378896 -2.889674e-06 0)
(0.068590494 -3.2507722e-06 0)
(0.068895035 -3.3594852e-06 0)
(0.069270835 -3.4603579e-06 0)
(0.069706091 -3.5719627e-06 0)
(0.070171566 -3.271331e-06 0)
(0.070620077 -2.7527064e-06 0)
(0.071004949 -2.5735993e-06 0)
(0.071286625 -5.1340007e-06 0)
(0.071464603 -1.1515143e-06 0)
(0.071536148 -5.8868047e-07 0)
(0.071509794 -2.0196121e-07 0)
(0.071401052 -2.7986896e-09 0)
(0.0712277 1.1961884e-07 0)
(0.071005718 2.0041164e-07 0)
(0.070749462 2.3444571e-07 0)
(0.070470558 2.5432222e-07 0)
(0.070177345 2.6268369e-07 0)
(0.069876076 2.6166975e-07 0)
(0.069571612 2.5292423e-07 0)
(0.069266832 2.4678934e-07 0)
(0.0689635 2.3732785e-07 0)
(0.068663616 2.2314612e-07 0)
(0.068367678 2.1901147e-07 0)
(0.068076041 2.0892719e-07 0)
(0.067789163 2.192645e-07 0)
(0.067497549 2.4883594e-07 0)
(0.06720102 2.5523676e-07 0)
(0.066902271 2.6076697e-07 0)
(0.066602458 2.5962952e-07 0)
(0.066302238 2.5691837e-07 0)
(0.066000299 2.6320408e-07 0)
(0.065696014 2.6063017e-07 0)
(0.065389161 2.6317607e-07 0)
(0.065079495 2.6136829e-07 0)
(0.064767373 2.5986467e-07 0)
(0.064452746 2.588735e-07 0)
(0.064136209 2.5433222e-07 0)
(0.063817855 2.5370205e-07 0)
(0.063498061 2.4835533e-07 0)
(0.063176926 2.4740795e-07 0)
(0.062855112 2.4150401e-07 0)
(0.062530529 2.4823335e-07 0)
(0.06220906 2.2362447e-07 0)
(0.061869017 3.047965e-07 0)
(0.061574934 9.0889086e-07 0)
(0.061137803 1.1351571e-05 0)
(0.060897549 1.9117195e-05 0)
(0.060226206 1.0976578e-05 0)
(0.95867936 0.028038809 0)
(0.94944008 0.038590177 0)
(0.93031332 0.041835908 0)
(0.88514027 0.039313334 0)
(0.82442896 0.032448417 0)
(0.75685027 0.023971149 0)
(0.69439283 0.015507594 0)
(0.64141617 0.0094014747 0)
(0.59779006 0.006029291 0)
(0.56173701 0.0043628923 0)
(0.53124899 0.0035596438 0)
(0.50479343 0.0030815783 0)
(0.48145526 0.0027033833 0)
(0.4606145 0.0023890491 0)
(0.44178347 0.0021307586 0)
(0.42463936 0.0018762941 0)
(0.40897571 0.001654548 0)
(0.39458536 0.0014826837 0)
(0.38127648 0.0013367613 0)
(0.36891318 0.0012053738 0)
(0.35740111 0.0010889925 0)
(0.34664413 0.0009899261 0)
(0.33655331 0.00090285023 0)
(0.32706572 0.00082389771 0)
(0.31812736 0.00075329361 0)
(0.30968648 0.00069143906 0)
(0.30169595 0.00063570026 0)
(0.29412295 0.00058420285 0)
(0.2869419 0.00053728335 0)
(0.28012476 0.00049507887 0)
(0.27364645 0.00045624454 0)
(0.26749059 0.00041995512 0)
(0.26164407 0.00038644421 0)
(0.25609246 0.00035561042 0)
(0.25082387 0.00032675139 0)
(0.24583175 0.00029949609 0)
(0.24111156 0.00027389112 0)
(0.23665966 0.0002496636 0)
(0.23247619 0.00022636602 0)
(0.22856602 0.00020381334 0)
(0.2249357 0.00018206295 0)
(0.22159231 0.0001609696 0)
(0.21854732 0.00014028061 0)
(0.21581211 0.00012006921 0)
(0.21340319 0.00010059518 0)
(0.21136331 9.4943725e-05 0)
(0.20967979 5.7300761e-05 0)
(0.20840146 3.7765754e-05 0)
(0.20753443 1.8574656e-05 0)
(0.20706887 7.6873371e-07 0)
(0.20698949 -1.5054836e-05 0)
(0.20727305 -2.8801003e-05 0)
(0.20788408 -3.9749667e-05 0)
(0.20876082 -4.7166568e-05 0)
(0.20983918 -5.2078678e-05 0)
(0.21106627 -5.4585915e-05 0)
(0.21235066 -5.2568135e-05 0)
(0.21356601 -4.6046549e-05 0)
(0.21458955 -3.6554912e-05 0)
(0.21533068 -2.523574e-05 0)
(0.2157724 -1.4369241e-05 0)
(0.21591922 -4.9135768e-06 0)
(0.21579451 2.8370797e-06 0)
(0.21543943 8.7780408e-06 0)
(0.21490281 1.3004399e-05 0)
(0.21422937 1.5806949e-05 0)
(0.2134586 1.7441879e-05 0)
(0.21262258 1.8266441e-05 0)
(0.21174525 1.8520811e-05 0)
(0.21084448 1.8374915e-05 0)
(0.20993393 1.7966535e-05 0)
(0.20902211 1.7434211e-05 0)
(0.20811468 1.680618e-05 0)
(0.20721708 1.6115294e-05 0)
(0.20633126 1.5455397e-05 0)
(0.20545819 1.4791218e-05 0)
(0.2045977 1.4462707e-05 0)
(0.20372228 1.4449161e-05 0)
(0.2028332 1.4267816e-05 0)
(0.20193854 1.3974654e-05 0)
(0.20104118 1.3630708e-05 0)
(0.20014193 1.3300643e-05 0)
(0.1992377 1.3040198e-05 0)
(0.19832673 1.2773891e-05 0)
(0.19740812 1.2535739e-05 0)
(0.19648144 1.2285135e-05 0)
(0.19554744 1.2031939e-05 0)
(0.19460632 1.1774335e-05 0)
(0.19365959 1.1496926e-05 0)
(0.19270781 1.1228284e-05 0)
(0.19175208 1.0941015e-05 0)
(0.19079288 1.066292e-05 0)
(0.189832 1.0386748e-05 0)
(0.18886506 1.0121721e-05 0)
(0.18790478 9.9114993e-06 0)
(0.18690396 9.6330019e-06 0)
(0.18600609 1.1259852e-05 0)
(0.18477237 3.98035e-05 0)
(0.18403224 6.5054024e-05 0)
(0.18205818 3.4390381e-05 0)
(0.96804507 0.029706439 0)
(0.97313281 0.037719598 0)
(0.98241901 0.041542998 0)
(0.98427963 0.041014278 0)
(0.97940792 0.037120259 0)
(0.96364658 0.030597634 0)
(0.93928651 0.024146396 0)
(0.91013985 0.019116489 0)
(0.87838034 0.015500317 0)
(0.84618396 0.012897156 0)
(0.81518619 0.01095727 0)
(0.78578583 0.0094044022 0)
(0.75805175 0.0081185031 0)
(0.73190187 0.0070809025 0)
(0.7072327 0.0062333768 0)
(0.68398841 0.0055124563 0)
(0.662132 0.0048984537 0)
(0.64157075 0.0043848334 0)
(0.62219301 0.0039454009 0)
(0.60391029 0.003558105 0)
(0.58665129 0.0032169631 0)
(0.57033333 0.0029219547 0)
(0.55487602 0.0026627471 0)
(0.54021661 0.0024303344 0)
(0.5263029 0.0022226091 0)
(0.51307889 0.0020389693 0)
(0.50049228 0.0018740058 0)
(0.48850346 0.0017232847 0)
(0.47707964 0.0015860435 0)
(0.46618712 0.0014617321 0)
(0.45579619 0.0013476406 0)
(0.44588574 0.0012417528 0)
(0.43643853 0.001143835 0)
(0.42743753 0.001053362 0)
(0.41886921 0.00096886219 0)
(0.41072611 0.00088931498 0)
(0.40300419 0.00081443584 0)
(0.39570173 0.00074350221 0)
(0.38882166 0.00067548448 0)
(0.38237249 0.00060979622 0)
(0.37636591 0.00054633146 0)
(0.37081581 0.00048468931 0)
(0.36574168 0.00042429672 0)
(0.36116384 0.00036527638 0)
(0.35711084 0.00030380562 0)
(0.35363066 0.00027104721 0)
(0.35073052 0.0001900191 0)
(0.34844605 0.00012854303 0)
(0.34678116 7.4095715e-05 0)
(0.34571975 2.4052542e-05 0)
(0.34523356 -2.0721875e-05 0)
(0.34527851 -5.9386071e-05 0)
(0.34579765 -9.0492799e-05 0)
(0.34670077 -0.00011246881 0)
(0.34789522 -0.00012693938 0)
(0.34929008 -0.00013379479 0)
(0.3507439 -0.00012950612 0)
(0.35208288 -0.00011302567 0)
(0.35314945 -8.6988495e-05 0)
(0.35383669 -5.8629737e-05 0)
(0.3541199 -3.0428177e-05 0)
(0.35400867 -5.0990334e-06 0)
(0.35353538 1.5969452e-05 0)
(0.35275709 3.2102733e-05 0)
(0.35173843 4.3615737e-05 0)
(0.35053878 5.1254237e-05 0)
(0.34921058 5.5723328e-05 0)
(0.34779696 5.7909105e-05 0)
(0.34633096 5.8473072e-05 0)
(0.34483751 5.7897963e-05 0)
(0.34333549 5.6571539e-05 0)
(0.34183703 5.4847348e-05 0)
(0.34035057 5.2839727e-05 0)
(0.33888367 5.0657843e-05 0)
(0.33743939 4.852183e-05 0)
(0.33601888 4.641179e-05 0)
(0.33462049 4.5195172e-05 0)
(0.33320418 4.4791252e-05 0)
(0.3317773 4.4008188e-05 0)
(0.3303496 4.294632e-05 0)
(0.32892262 4.1799565e-05 0)
(0.32749586 4.0718485e-05 0)
(0.32606495 3.9814788e-05 0)
(0.32462698 3.894243e-05 0)
(0.32318014 3.8143425e-05 0)
(0.32172358 3.7332929e-05 0)
(0.3202579 3.6519865e-05 0)
(0.31878335 3.5696461e-05 0)
(0.31730175 3.4831973e-05 0)
(0.31581393 3.3980082e-05 0)
(0.31432131 3.3093743e-05 0)
(0.3128246 3.2219116e-05 0)
(0.31132621 3.1363702e-05 0)
(0.3098208 3.0508389e-05 0)
(0.3083238 2.9881678e-05 0)
(0.30677719 2.8825706e-05 0)
(0.30535585 3.12142e-05 0)
(0.30351466 7.2457358e-05 0)
(0.30231335 0.00011334829 0)
(0.29932175 5.5708884e-05 0)
(0.97008876 0.027083696 0)
(0.97643876 0.034265779 0)
(0.98549682 0.03837949 0)
(0.99346299 0.039213207 0)
(1.0016672 0.036176955 0)
(1.0025541 0.031201785 0)
(0.99959643 0.026293172 0)
(0.99335708 0.022247141 0)
(0.984228 0.019368075 0)
(0.97253741 0.017346007 0)
(0.95871385 0.015775645 0)
(0.94315493 0.01434925 0)
(0.92573684 0.013014137 0)
(0.90739395 0.011779788 0)
(0.88857974 0.010668773 0)
(0.86957967 0.0096631083 0)
(0.85059557 0.0087597416 0)
(0.83175169 0.0079704198 0)
(0.81313834 0.0072746369 0)
(0.79484769 0.0066463928 0)
(0.77695988 0.0060785882 0)
(0.75952011 0.0055727486 0)
(0.74255248 0.0051176621 0)
(0.72607723 0.0047029997 0)
(0.71011259 0.004326687 0)
(0.69466057 0.0039882877 0)
(0.67971555 0.0036809876 0)
(0.6652745 0.0033987271 0)
(0.65133353 0.0031400504 0)
(0.63788289 0.0029037734 0)
(0.62491264 0.0026858122 0)
(0.61241734 0.0024829851 0)
(0.60039262 0.0022945217 0)
(0.58883294 0.0021193275 0)
(0.57773531 0.001955041 0)
(0.56710216 0.0017998965 0)
(0.55693936 0.0016532639 0)
(0.54725279 0.0015139694 0)
(0.53805131 0.0013803115 0)
(0.52934863 0.0012512186 0)
(0.52116175 0.0011263319 0)
(0.5135104 0.0010049135 0)
(0.50641982 0.00088603425 0)
(0.49991595 0.00076957639 0)
(0.49403582 0.0006533608 0)
(0.48881818 0.00054671066 0)
(0.48428023 0.00042404923 0)
(0.48043087 0.00031408605 0)
(0.4772606 0.00021026338 0)
(0.47474963 0.00011563837 0)
(0.47286657 3.1365728e-05 0)
(0.47156518 -4.1307919e-05 0)
(0.47077918 -9.9919741e-05 0)
(0.47041243 -0.00014225739 0)
(0.47037782 -0.00017104836 0)
(0.47056623 -0.0001856792 0)
(0.47081182 -0.00017822868 0)
(0.47094344 -0.00015103957 0)
(0.47083093 -0.0001058947 0)
(0.47039482 -6.1071068e-05 0)
(0.46961974 -1.503014e-05 0)
(0.46851611 2.6156897e-05 0)
(0.46711758 6.0165369e-05 0)
(0.46547237 8.6034771e-05 0)
(0.46363374 0.00010425869 0)
(0.46165147 0.00011601991 0)
(0.45957082 0.0001224813 0)
(0.45743024 0.00012505976 0)
(0.45526011 0.00012485892 0)
(0.45308393 0.00012271033 0)
(0.45091959 0.00011929256 0)
(0.44877863 0.00011518582 0)
(0.44666987 0.0001106004 0)
(0.4446008 0.00010575185 0)
(0.44257422 0.00010100418 0)
(0.44059067 9.640504e-05 0)
(0.43864599 9.2974573e-05 0)
(0.43673159 9.075804e-05 0)
(0.43484046 8.8386721e-05 0)
(0.43296827 8.5832647e-05 0)
(0.43111089 8.3273602e-05 0)
(0.4292655 8.0898136e-05 0)
(0.42742663 7.8857433e-05 0)
(0.42559004 7.69353e-05 0)
(0.42375278 7.5168246e-05 0)
(0.42191292 7.3420507e-05 0)
(0.42007022 7.1691978e-05 0)
(0.41822425 6.9962952e-05 0)
(0.4163762 6.818537e-05 0)
(0.41452653 6.6434296e-05 0)
(0.41267614 6.4645352e-05 0)
(0.4108255 6.2875377e-05 0)
(0.4089768 6.1159821e-05 0)
(0.40712411 5.9424696e-05 0)
(0.40528335 5.8180854e-05 0)
(0.40339289 5.5970468e-05 0)
(0.40163273 5.9118897e-05 0)
(0.39944891 0.00010735968 0)
(0.39791698 0.00015831587 0)
(0.39438561 9.0316613e-05 0)
(0.97244751 0.02556372 0)
(0.97780648 0.032400848 0)
(0.98589667 0.036408701 0)
(0.99420471 0.037070265 0)
(1.0012853 0.034669816 0)
(1.0056383 0.030636641 0)
(1.0079769 0.026372989 0)
(1.0071275 0.022757517 0)
(1.0053189 0.020141718 0)
(1.0028104 0.018353292 0)
(0.99960361 0.017016891 0)
(0.9955987 0.015923377 0)
(0.9903064 0.014971318 0)
(0.98363613 0.014078552 0)
(0.9756025 0.013225607 0)
(0.96632921 0.012373088 0)
(0.95571589 0.011537265 0)
(0.94421415 0.010747004 0)
(0.93202043 0.010009815 0)
(0.91927723 0.0093175197 0)
(0.90610075 0.0086713645 0)
(0.89259392 0.0080776092 0)
(0.87883397 0.0075279518 0)
(0.86490694 0.007012646 0)
(0.8508971 0.006531158 0)
(0.83687262 0.0060856948 0)
(0.82289168 0.005670826 0)
(0.80900891 0.0052815853 0)
(0.79527169 0.0049180398 0)
(0.78171654 0.0045801755 0)
(0.76837475 0.0042640263 0)
(0.75527707 0.0039663911 0)
(0.74245123 0.0036867312 0)
(0.72992067 0.0034238666 0)
(0.71770886 0.003174861 0)
(0.70584368 0.0029374632 0)
(0.69435377 0.0027113612 0)
(0.68325601 0.0024955857 0)
(0.67256902 0.0022879584 0)
(0.66231636 0.0020868686 0)
(0.65252454 0.0018916339 0)
(0.64322201 0.0017011714 0)
(0.63444145 0.0015142653 0)
(0.62621528 0.0013303278 0)
(0.61859395 0.0011473248 0)
(0.61159635 0.00096803091 0)
(0.60521962 0.00079065246 0)
(0.5994599 0.00062339369 0)
(0.59431069 0.00046697668 0)
(0.58976295 0.00032334798 0)
(0.58579746 0.00019481753 0)
(0.58238224 8.3551568e-05 0)
(0.57945972 -6.9574236e-06 0)
(0.57694716 -7.4353195e-05 0)
(0.57479217 -0.00012059818 0)
(0.57284461 -0.00014183067 0)
(0.57092687 -0.00013404618 0)
(0.5689287 -0.00010052711 0)
(0.566798 -4.3518484e-05 0)
(0.56450517 9.1499969e-06 0)
(0.56205406 6.4699448e-05 0)
(0.55945388 0.00011397423 0)
(0.55672267 0.0001540746 0)
(0.55388457 0.00018391854 0)
(0.55096738 0.00020415333 0)
(0.54799839 0.00021622351 0)
(0.54500419 0.00022155663 0)
(0.54200877 0.0002219187 0)
(0.53903202 0.00021871221 0)
(0.53608996 0.00021302178 0)
(0.53319493 0.00020575259 0)
(0.53035472 0.00019764508 0)
(0.52757661 0.00018897724 0)
(0.52486593 0.00018007193 0)
(0.52222375 0.00017142481 0)
(0.5196491 0.0001631618 0)
(0.51713608 0.00015644031 0)
(0.51469295 0.00015123506 0)
(0.51230863 0.00014606832 0)
(0.50997062 0.00014101916 0)
(0.50766991 0.00013621049 0)
(0.50540106 0.00013179824 0)
(0.50315742 0.0001279407 0)
(0.50093346 0.0001243524 0)
(0.49872495 0.000121055 0)
(0.49652867 0.00011786003 0)
(0.49434303 0.00011475134 0)
(0.49216648 0.00011169159 0)
(0.489999 0.00010861245 0)
(0.48784015 0.0001056031 0)
(0.48568983 0.00010258144 0)
(0.48354783 9.960734e-05 0)
(0.48141559 9.6749654e-05 0)
(0.47928643 9.3863564e-05 0)
(0.47717572 9.1782169e-05 0)
(0.47502115 8.8159697e-05 0)
(0.47299698 9.1887811e-05 0)
(0.47057619 0.00014292312 0)
(0.4687825 0.00019866118 0)
(0.46490028 0.00015100903 0)
(0.97463735 0.024511588 0)
(0.97933013 0.030794499 0)
(0.98640327 0.034469432 0)
(0.99381626 0.035113771 0)
(1.0002127 0.033234818 0)
(1.0048394 0.029796296 0)
(1.0073327 0.025982735 0)
(1.0083184 0.022699489 0)
(1.0079946 0.020248219 0)
(1.0074416 0.018529045 0)
(1.0068114 0.017262904 0)
(1.0060544 0.016264277 0)
(1.0050232 0.015424105 0)
(1.0036038 0.014654184 0)
(1.0016822 0.013929861 0)
(0.99919277 0.013259763 0)
(0.99589959 0.012639349 0)
(0.99174924 0.01204568 0)
(0.98672666 0.011471146 0)
(0.98084584 0.010899339 0)
(0.97404062 0.010331398 0)
(0.96650085 0.009784947 0)
(0.9583137 0.0092602362 0)
(0.9495439 0.0087551126 0)
(0.94024864 0.0082717938 0)
(0.93048416 0.0078133423 0)
(0.92030979 0.0073755294 0)
(0.90978192 0.0069544959 0)
(0.89895761 0.0065514656 0)
(0.88789303 0.0061676569 0)
(0.87664264 0.0058000418 0)
(0.86526141 0.0054465177 0)
(0.8538018 0.005107949 0)
(0.84231047 0.0047841488 0)
(0.83083206 0.00447262 0)
(0.81941195 0.0041714373 0)
(0.80809516 0.0038803803 0)
(0.79692631 0.0035987729 0)
(0.78594912 0.0033249506 0)
(0.77520761 0.0030575832 0)
(0.76474534 0.0027961522 0)
(0.75460585 0.0025394907 0)
(0.74483585 0.0022863059 0)
(0.73548203 0.0020349764 0)
(0.72662224 0.0017873287 0)
(0.71819447 0.0015462907 0)
(0.71020769 0.0013130072 0)
(0.70270368 0.0010881122 0)
(0.69570933 0.00087613891 0)
(0.68923412 0.00068106394 0)
(0.68326871 0.00050582225 0)
(0.6777847 0.00035357526 0)
(0.6727277 0.0002283375 0)
(0.66804357 0.000130743 0)
(0.66373215 6.5021076e-05 0)
(0.65951434 3.5366422e-05 0)
(0.65526214 3.9557383e-05 0)
(0.65100103 7.0105253e-05 0)
(0.64676077 0.00012691079 0)
(0.6425415 0.0001746407 0)
(0.63835183 0.00022739979 0)
(0.63419358 0.00027387172 0)
(0.63006734 0.00031075078 0)
(0.62597557 0.00033685549 0)
(0.6219244 0.00035280277 0)
(0.61792109 0.00036005735 0)
(0.61397422 0.0003600823 0)
(0.61009276 0.00035477123 0)
(0.60628501 0.00034563952 0)
(0.60255813 0.00033388016 0)
(0.59891826 0.00032050504 0)
(0.59536985 0.00030637749 0)
(0.59191532 0.00029182458 0)
(0.58855655 0.00027722257 0)
(0.58529235 0.00026316543 0)
(0.58212 0.00024984281 0)
(0.57903316 0.00023825989 0)
(0.57603428 0.000228419 0)
(0.57311858 0.00021910177 0)
(0.57027563 0.00021039512 0)
(0.56749511 0.00020229803 0)
(0.5647699 0.00019490276 0)
(0.56209236 0.00018835644 0)
(0.55945593 0.00018230304 0)
(0.55685527 0.0001767425 0)
(0.55428592 0.00017143266 0)
(0.5517449 0.00016633549 0)
(0.54922935 0.00016139093 0)
(0.54673788 0.00015650637 0)
(0.54426883 0.00015177404 0)
(0.54182133 0.00014709449 0)
(0.53939394 0.00014252881 0)
(0.53698687 0.00013817915 0)
(0.53459266 0.00013381415 0)
(0.53222542 0.00013061697 0)
(0.52982374 0.00012530046 0)
(0.52755171 0.00012920497 0)
(0.52491608 0.00018027113 0)
(0.52288886 0.00023809866 0)
(0.51869756 0.00019035088 0)
(0.97661005 0.023525675 0)
(0.98077109 0.029152546 0)
(0.98702944 0.032517825 0)
(0.99364748 0.033276435 0)
(0.99945722 0.031816019 0)
(1.0037712 0.028881651 0)
(1.0063185 0.025505147 0)
(1.0074731 0.022522582 0)
(1.0077894 0.020236566 0)
(1.007768 0.018571505 0)
(1.0076699 0.017318399 0)
(1.0075652 0.016318257 0)
(1.0074448 0.015484406 0)
(1.0072638 0.01474469 0)
(1.0069601 0.014071198 0)
(1.0064942 0.013463376 0)
(1.0058205 0.012910118 0)
(1.004884 0.012387457 0)
(1.003625 0.011890607 0)
(1.0019895 0.011424161 0)
(0.99984783 0.010983757 0)
(0.99714621 0.010556636 0)
(0.99385961 0.010137804 0)
(0.98996297 0.0097195669 0)
(0.98541241 0.009303636 0)
(0.98028746 0.0088980788 0)
(0.9746156 0.0085014025 0)
(0.96842218 0.0081121744 0)
(0.96173165 0.0077328838 0)
(0.95456919 0.0073648985 0)
(0.94696445 0.0070050387 0)
(0.9389535 0.0066513281 0)
(0.93057355 0.0063056756 0)
(0.92185342 0.0059685281 0)
(0.91283046 0.0056373896 0)
(0.903545 0.0053107894 0)
(0.8940372 0.0049896595 0)
(0.88435418 0.0046740018 0)
(0.87454558 0.0043621451 0)
(0.86466276 0.0040530042 0)
(0.85475802 0.0037465627 0)
(0.84488504 0.0034420537 0)
(0.83510041 0.0031384983 0)
(0.82546397 0.0028344642 0)
(0.81604026 0.0025306066 0)
(0.80686796 0.0022356763 0)
(0.79795157 0.0019528221 0)
(0.78932315 0.0016801717 0)
(0.78101705 0.0014212165 0)
(0.77306048 0.0011801344 0)
(0.76546654 0.00096102019 0)
(0.75823078 0.00076845198 0)
(0.75132702 0.0006069085 0)
(0.74475077 0.00047561859 0)
(0.73852403 0.00038102356 0)
(0.73245407 0.00033323957 0)
(0.72644522 0.00032709378 0)
(0.72051851 0.00034769553 0)
(0.71469634 0.00039387669 0)
(0.70897584 0.0004299141 0)
(0.70337185 0.00047110205 0)
(0.69789045 0.0005062293 0)
(0.69252931 0.00053225285 0)
(0.68728639 0.00054790361 0)
(0.68216332 0.00055371386 0)
(0.67716011 0.00055114643 0)
(0.67227634 0.00054161005 0)
(0.66751291 0.0005269862 0)
(0.66287119 0.00050878285 0)
(0.65835211 0.00048821412 0)
(0.65395692 0.00046630957 0)
(0.64968726 0.00044395946 0)
(0.64554196 0.00042150944 0)
(0.64151999 0.00039938521 0)
(0.63761811 0.00037824766 0)
(0.63383189 0.00035830947 0)
(0.63015494 0.00034048028 0)
(0.62658463 0.0003247299 0)
(0.62311798 0.00030995614 0)
(0.61974764 0.0002963064 0)
(0.61646439 0.00028371333 0)
(0.61326082 0.00027221358 0)
(0.61012884 0.00026193585 0)
(0.6070612 0.0002524536 0)
(0.60405172 0.00024374106 0)
(0.60109484 0.00023550237 0)
(0.59818632 0.00022767338 0)
(0.595322 0.00022016675 0)
(0.59249909 0.0002128612 0)
(0.58971464 0.00020584497 0)
(0.58696671 0.0001989965 0)
(0.58425261 0.0001923724 0)
(0.58157124 0.00018610805 0)
(0.57891428 0.00017987512 0)
(0.57629433 0.00017521782 0)
(0.57365136 0.00016789409 0)
(0.57113855 0.00017155171 0)
(0.56829322 0.00022095664 0)
(0.56604957 0.00028019896 0)
(0.56156672 0.00023306611 0)
(0.97841009 0.022612328 0)
(0.98211275 0.027631666 0)
(0.98765889 0.030750981 0)
(0.99359964 0.031604408 0)
(0.99890736 0.030476922 0)
(1.0029446 0.02799434 0)
(1.0054692 0.025028405 0)
(1.0067159 0.02231536 0)
(1.0071984 0.020161537 0)
(1.0073675 0.018543124 0)
(1.007459 0.017305573 0)
(1.0075395 0.016311361 0)
(1.0076038 0.015478744 0)
(1.0076744 0.014744589 0)
(1.0077132 0.014082175 0)
(1.0076994 0.013485858 0)
(1.0076414 0.012946591 0)
(1.0075225 0.012446748 0)
(1.0073172 0.011980991 0)
(1.007003 0.01155096 0)
(1.0065508 0.011149654 0)
(1.0059226 0.010765294 0)
(1.0050794 0.010395572 0)
(1.0039758 0.010043106 0)
(1.0025331 0.0097050481 0)
(1.0007091 0.0093748823 0)
(0.99847471 0.0090481726 0)
(0.99579167 0.0087207744 0)
(0.99263626 0.0083946469 0)
(0.98903497 0.0080729279 0)
(0.98498961 0.0077538659 0)
(0.98049994 0.0074361124 0)
(0.97556887 0.0071210864 0)
(0.97020508 0.0068093898 0)
(0.96441778 0.0064988141 0)
(0.95822022 0.0061878081 0)
(0.95162694 0.0058770593 0)
(0.94465553 0.0055664104 0)
(0.93732113 0.0052543042 0)
(0.92964511 0.0049396334 0)
(0.92165668 0.0046224382 0)
(0.91338938 0.0043020547 0)
(0.90488062 0.0039774322 0)
(0.896177 0.0036472217 0)
(0.88730728 0.0033138935 0)
(0.87840581 0.0029866124 0)
(0.86952285 0.0026675422 0)
(0.86067404 0.0023574401 0)
(0.85188794 0.0020603818 0)
(0.84320199 0.0017807941 0)
(0.83465705 0.0015233486 0)
(0.82629257 0.0012935272 0)
(0.81814229 0.0010968025 0)
(0.81022833 0.00093241546 0)
(0.80254453 0.00080742712 0)
(0.79518575 0.00073744882 0)
(0.78801427 0.00071353558 0)
(0.78101101 0.0007161633 0)
(0.77412816 0.00074367364 0)
(0.76734372 0.00076368464 0)
(0.76068293 0.00078784196 0)
(0.75415553 0.00080636566 0)
(0.7477617 0.00081654724 0)
(0.74151007 0.00081688314 0)
(0.73541187 0.00080795486 0)
(0.72946859 0.00079140147 0)
(0.72367988 0.00076853272 0)
(0.71804777 0.00074116245 0)
(0.71257258 0.00071080448 0)
(0.70725265 0.00067865839 0)
(0.70208695 0.00064568795 0)
(0.69707548 0.00061279178 0)
(0.69221625 0.00058033996 0)
(0.68750681 0.00054876684 0)
(0.68294251 0.00051877355 0)
(0.67851761 0.00049056058 0)
(0.67422571 0.00046498968 0)
(0.67006173 0.00044196681 0)
(0.6660222 0.00042038024 0)
(0.66210149 0.00040043923 0)
(0.65829194 0.00038204886 0)
(0.65458675 0.00036521129 0)
(0.65097788 0.00035004298 0)
(0.64745769 0.00033605079 0)
(0.64401936 0.00032318278 0)
(0.64065642 0.00031109041 0)
(0.63736347 0.00029968102 0)
(0.63413512 0.00028883649 0)
(0.63096724 0.00027840298 0)
(0.62785552 0.00026845629 0)
(0.6247966 0.00025884959 0)
(0.62178662 0.00024963256 0)
(0.61882325 0.00024096895 0)
(0.61589729 0.00023242552 0)
(0.61301964 0.00022590856 0)
(0.61013172 0.00021622775 0)
(0.60737645 0.00021925184 0)
(0.60431597 0.00026603844 0)
(0.60186148 0.00032701935 0)
(0.59708615 0.00027863998 0)
(0.98005459 0.021775017 0)
(0.98336598 0.026246638 0)
(0.98827802 0.029130935 0)
(0.99360461 0.030040282 0)
(0.99845303 0.029192513 0)
(1.0022461 0.027113081 0)
(1.0047397 0.024524089 0)
(1.0060856 0.022065762 0)
(1.0066961 0.020047232 0)
(1.0069703 0.018486466 0)
(1.0071399 0.017269859 0)
(1.0072863 0.016282742 0)
(1.0074234 0.015451688 0)
(1.0075538 0.014722089 0)
(1.0076652 0.014066581 0)
(1.0077551 0.013475025 0)
(1.0078236 0.0129387 0)
(1.0078916 0.012443688 0)
(1.0079263 0.011985773 0)
(1.0079234 0.01156414 0)
(1.0078902 0.011172526 0)
(1.0078144 0.010802925 0)
(1.0076797 0.010452588 0)
(1.0074694 0.010122384 0)
(1.0071631 0.0098085859 0)
(1.0067342 0.009505588 0)
(1.0061561 0.0092119078 0)
(1.0053903 0.0089278506 0)
(1.0043869 0.008651355 0)
(1.0031122 0.0083791149 0)
(1.0015417 0.0081073503 0)
(0.99963104 0.007833239 0)
(0.99736628 0.0075589049 0)
(0.99475073 0.0072854239 0)
(0.99177413 0.0070107839 0)
(0.9884241 0.0067336178 0)
(0.98469013 0.0064542718 0)
(0.98056267 0.0061720775 0)
(0.97603704 0.0058852733 0)
(0.97110974 0.0055929571 0)
(0.96577633 0.0052951051 0)
(0.96003271 0.0049907999 0)
(0.95387555 0.0046785396 0)
(0.94730679 0.0043576983 0)
(0.94031591 0.0040293849 0)
(0.93293505 0.0036982409 0)
(0.92524819 0.0033683955 0)
(0.91730334 0.0030440214 0)
(0.90913945 0.0027303589 0)
(0.90079714 0.0024316791 0)
(0.89232494 0.002152484 0)
(0.8837818 0.0018982637 0)
(0.87523795 0.0016743241 0)
(0.86674369 0.0014815554 0)
(0.85829785 0.0013267027 0)
(0.85009855 0.0012219079 0)
(0.84221072 0.0011653384 0)
(0.83455993 0.0011457136 0)
(0.8269789 0.0011538236 0)
(0.8194822 0.0011574629 0)
(0.81209479 0.0011637166 0)
(0.80480062 0.0011646434 0)
(0.7976075 0.0011571477 0)
(0.79054336 0.0011397521 0)
(0.783626 0.0011135455 0)
(0.77685797 0.0010804118 0)
(0.77024811 0.0010414728 0)
(0.76380756 0.00099860303 0)
(0.75753863 0.0009534975 0)
(0.75144103 0.00090731794 0)
(0.74551657 0.00086092735 0)
(0.73976664 0.00081526074 0)
(0.73418945 0.00077071532 0)
(0.72878296 0.00072772509 0)
(0.72354278 0.00068702849 0)
(0.71846304 0.00064879635 0)
(0.71353806 0.00061384844 0)
(0.70876257 0.00058202745 0)
(0.70413262 0.00055216624 0)
(0.69964323 0.00052450731 0)
(0.69528814 0.00049893208 0)
(0.69106149 0.00047542613 0)
(0.68695569 0.00045410578 0)
(0.68296311 0.00043441826 0)
(0.6790765 0.00041628853 0)
(0.6752887 0.00039931737 0)
(0.67159338 0.00038338238 0)
(0.66798405 0.00036833241 0)
(0.66445532 0.00035397777 0)
(0.66100162 0.00034037773 0)
(0.65761818 0.00032735519 0)
(0.6542999 0.00031494554 0)
(0.6510432 0.00030333658 0)
(0.64783801 0.000291985 0)
(0.64469353 0.00028315585 0)
(0.6415524 0.00027072323 0)
(0.6385485 0.00027273104 0)
(0.63526307 0.00031632701 0)
(0.6325964 0.00037989824 0)
(0.62751855 0.00032775476 0)
(0.9815568 0.020999699 0)
(0.98453131 0.024975206 0)
(0.98888278 0.027626284 0)
(0.99365207 0.028568796 0)
(0.9980745 0.027961601 0)
(1.0016302 0.026237169 0)
(1.0040764 0.023990925 0)
(1.005503 0.021778181 0)
(1.0062352 0.019901356 0)
(1.006615 0.018408621 0)
(1.0068576 0.017220525 0)
(1.0070507 0.016244429 0)
(1.0072205 0.01541689 0)
(1.0073752 0.014691013 0)
(1.0075143 0.014039874 0)
(1.0076369 0.013451987 0)
(1.0077459 0.012918317 0)
(1.0078444 0.012427452 0)
(1.0079274 0.011974114 0)
(1.0079986 0.011555264 0)
(1.0080567 0.011165759 0)
(1.0081153 0.010799038 0)
(1.0081533 0.010453592 0)
(1.0081619 0.010129243 0)
(1.008149 0.0098221993 0)
(1.0081052 0.0095290205 0)
(1.0080207 0.0092480005 0)
(1.007882 0.008978067 0)
(1.0076742 0.0087172485 0)
(1.0073773 0.008462878 0)
(1.0069724 0.0082140473 0)
(1.0064269 0.0079700372 0)
(1.0057075 0.0077291235 0)
(1.0047871 0.0074894086 0)
(1.0036452 0.0072477844 0)
(1.0022382 0.0070021973 0)
(1.0005597 0.006753743 0)
(0.99859442 0.0065023769 0)
(0.99632561 0.0062466722 0)
(0.99373489 0.0059852716 0)
(0.99080225 0.0057178002 0)
(0.98750592 0.0054434122 0)
(0.98382232 0.0051604792 0)
(0.97972621 0.0048684771 0)
(0.97518739 0.0045673432 0)
(0.97016806 0.0042601097 0)
(0.96466732 0.0039502168 0)
(0.95870293 0.003641008 0)
(0.95228933 0.0033376331 0)
(0.94544465 0.003044523 0)
(0.9381954 0.0027659244 0)
(0.93058098 0.0025067208 0)
(0.92265891 0.00227233 0)
(0.91449845 0.0020662505 0)
(0.9061439 0.0018922592 0)
(0.89772512 0.0017605148 0)
(0.88947158 0.0016737618 0)
(0.88140571 0.001622822 0)
(0.87351223 0.0016038016 0)
(0.86575821 0.0015902443 0)
(0.85806346 0.0015818153 0)
(0.85035958 0.0015678892 0)
(0.84270522 0.0015434839 0)
(0.83513827 0.0015086502 0)
(0.8276562 0.0014652216 0)
(0.82027345 0.001414711 0)
(0.81302058 0.0013583231 0)
(0.80591616 0.0012984398 0)
(0.79896393 0.0012369716 0)
(0.79217275 0.0011749475 0)
(0.78555379 0.0011132258 0)
(0.77911164 0.0010529264 0)
(0.77284686 0.00099445434 0)
(0.7667614 0.00093821984 0)
(0.76085385 0.00088504215 0)
(0.75512031 0.00083506119 0)
(0.74955795 0.00078904478 0)
(0.74416352 0.00074680321 0)
(0.73893352 0.00070712111 0)
(0.73386383 0.00067024663 0)
(0.72894962 0.00063602837 0)
(0.72418618 0.00060444824 0)
(0.71956672 0.00057563217 0)
(0.71508412 0.00054897616 0)
(0.7107311 0.0005243895 0)
(0.70650008 0.00050142482 0)
(0.70238414 0.00047993007 0)
(0.69837596 0.00045972047 0)
(0.69446908 0.00044056818 0)
(0.69065683 0.00042251304 0)
(0.68693315 0.00040534318 0)
(0.68329174 0.00038907285 0)
(0.67972782 0.00037390853 0)
(0.67623042 0.00035919273 0)
(0.67280708 0.00034754423 0)
(0.66940143 0.00033191385 0)
(0.66613957 0.00033250014 0)
(0.66261705 0.00037248382 0)
(0.65973219 0.00043972411 0)
(0.65433651 0.00038096362 0)
(0.98293008 0.020275219 0)
(0.98561201 0.023805835 0)
(0.98947066 0.026233021 0)
(0.99373768 0.027193298 0)
(0.99776624 0.026790234 0)
(1.0010897 0.025374602 0)
(1.0034711 0.023437965 0)
(1.0049529 0.021458835 0)
(1.0057883 0.019724625 0)
(1.0062661 0.018305923 0)
(1.0065823 0.017152921 0)
(1.0068264 0.016193367 0)
(1.0070309 0.015373744 0)
(1.0072094 0.014653842 0)
(1.0073667 0.014008161 0)
(1.0075049 0.013424484 0)
(1.0076282 0.012893884 0)
(1.0077402 0.012406255 0)
(1.0078416 0.011955684 0)
(1.007934 0.011538807 0)
(1.0080195 0.011150827 0)
(1.0080991 0.0107864 0)
(1.0081697 0.010443701 0)
(1.0082328 0.010121253 0)
(1.0082887 0.0098160616 0)
(1.0083384 0.0095245404 0)
(1.0083873 0.00924608 0)
(1.0084065 0.0089804101 0)
(1.0084102 0.0087245545 0)
(1.0083909 0.0084769798 0)
(1.0083417 0.0082368523 0)
(1.0082522 0.0080023871 0)
(1.0081107 0.0077720934 0)
(1.0079018 0.0075445229 0)