/*--------------------------------*- C++ -*----------------------------------*\
| =========                 |                                                 |
| \\      /  F ield         | OpenFOAM: The Open Source CFD Toolbox           |
|  \\    /   O peration     | Version:  2206                                  |
|   \\  /    A nd           | Website:  www.openfoam.com                      |
|    \\/     M anipulation  |                                                 |
\*---------------------------------------------------------------------------*/
FoamFile
{
    version     2.0;
    format      ascii;
    arch        "LSB;label=32;scalar=64";
    class       volScalarField;
    location    "1100";
    object      k;
}
// * * * * * * * * * * * * * * * * * * * * * * * * * * * * * * * * * * * * * //

dimensions      [0 2 -2 0 0 0 0];

internalField   nonuniform List<scalar> 
13056
(
9.9377058e-05
8.4432752e-05
8.339205e-05
8.3402549e-05
8.3459253e-05
8.3476765e-05
8.3481497e-05
8.3484082e-05
8.3486788e-05
8.3490097e-05
8.3494232e-05
8.3499417e-05
8.3505923e-05
8.3514117e-05
8.3524496e-05
8.3537799e-05
8.3555161e-05
8.3577985e-05
8.3611829e-05
8.3646975e-05
8.3779856e-05
8.35823e-05
8.5389428e-05
2.4108038e-05
3.1498903e-07
4.8811792e-08
2.4737576e-08
1.6685985e-08
1.2750228e-08
1.0353977e-08
8.7344044e-09
7.5518727e-09
6.6485253e-09
5.9359626e-09
5.3584082e-09
4.8799751e-09
4.4768396e-09
4.1323934e-09
3.8345596e-09
3.5743485e-09
3.3450235e-09
3.1412321e-09
2.9589509e-09
2.7948818e-09
2.646393e-09
2.5113322e-09
2.3879261e-09
2.2747026e-09
2.1704288e-09
2.0740671e-09
1.9847325e-09
1.9016661e-09
1.8242164e-09
1.751819e-09
1.6839848e-09
1.6202882e-09
1.5603534e-09
1.5038488e-09
1.4504819e-09
1.3999933e-09
1.352152e-09
1.306753e-09
1.2636146e-09
1.2225727e-09
1.1834779e-09
1.1461967e-09
1.1106096e-09
1.0766096e-09
1.0441001e-09
1.0129946e-09
9.8321794e-10
9.5470386e-10
9.273936e-10
9.0123645e-10
8.761885e-10
8.5221303e-10
8.2928072e-10
8.0737324e-10
7.8648999e-10
7.6663846e-10
7.4783441e-10
7.3010498e-10
7.134857e-10
6.9802591e-10
6.8380528e-10
6.7093263e-10
6.5955152e-10
6.4988e-10
6.4223189e-10
6.3688685e-10
6.3452144e-10
6.3522125e-10
6.3982091e-10
6.4887729e-10
6.6316391e-10
6.8342244e-10
7.1000396e-10
7.4292231e-10
7.8241754e-10
8.2763429e-10
8.7533809e-10
9.209491e-10
9.6123041e-10
9.9307387e-10
1.0177243e-09
1.0359121e-09
1.0492196e-09
1.0587943e-09
1.0654557e-09
1.06971e-09
1.07192e-09
1.0723678e-09
1.071063e-09
1.0680405e-09
1.0635339e-09
1.0577439e-09
1.0509139e-09
1.0433348e-09
1.0351891e-09
1.0266415e-09
1.0178971e-09
1.0090838e-09
1.0002512e-09
9.9145835e-10
9.8279318e-10
9.742898e-10
9.6594211e-10
9.5773238e-10
9.4966706e-10
9.4174143e-10
9.3398422e-10
9.2603816e-10
9.1848799e-10
9.091524e-10
9.0160697e-10
8.906904e-10
9.9371634e-05
8.4423773e-05
8.3382933e-05
8.339338e-05
8.345008e-05
8.3467593e-05
8.3472325e-05
8.347491e-05
8.3477616e-05
8.3480924e-05
8.348506e-05
8.3490245e-05
8.3496752e-05
8.3504946e-05
8.3515326e-05
8.3528629e-05
8.3545993e-05
8.3568818e-05
8.3602664e-05
8.3637809e-05
8.3770699e-05
8.35731e-05
8.5380339e-05
2.410981e-05
4.8478303e-08
7.4959736e-09
3.798918e-09
2.5624443e-09
1.9580356e-09
1.590047e-09
1.3413317e-09
1.1597319e-09
1.0210062e-09
9.1157897e-10
8.2288476e-10
7.4941243e-10
6.8750349e-10
6.3460745e-10
5.8886963e-10
5.4890948e-10
5.1369247e-10
4.8239662e-10
4.5440406e-10
4.292083e-10
4.0640519e-10
3.856642e-10
3.6671303e-10
3.4932557e-10
3.3331251e-10
3.185145e-10
3.0479562e-10
2.9203934e-10
2.8014557e-10
2.6902766e-10
2.586105e-10
2.4882877e-10
2.3962483e-10
2.3094772e-10
2.2275249e-10
2.1499929e-10
2.0765265e-10
2.006811e-10
1.9405672e-10
1.8775432e-10
1.8175098e-10
1.7602616e-10
1.7056151e-10
1.6534061e-10
1.6034859e-10
1.5557211e-10
1.5099959e-10
1.4662125e-10
1.4242817e-10
1.3841228e-10
1.3456688e-10
1.3088634e-10
1.2736618e-10
1.2400362e-10
1.2079856e-10
1.1775206e-10
1.1486606e-10
1.1214461e-10
1.0959635e-10
1.0722701e-10
1.050489e-10
1.0307894e-10
1.0133944e-10
9.9864091e-11
9.8700684e-11
9.7887886e-11
9.7534381e-11
9.7665942e-11
9.8402073e-11
9.9829512e-11
1.0206823e-10
1.0523295e-10
1.0937742e-10
1.1450218e-10
1.2063984e-10
1.2765026e-10
1.3502716e-10
1.4206514e-10
1.4827347e-10
1.5318044e-10
1.5698128e-10
1.5978975e-10
1.6184963e-10
1.6333688e-10
1.6437623e-10
1.650444e-10
1.6539654e-10
1.6547565e-10
1.6528289e-10
1.6482338e-10
1.6413304e-10
1.6324312e-10
1.6219153e-10
1.6102342e-10
1.5976722e-10
1.5844854e-10
1.5709915e-10
1.5573883e-10
1.5437538e-10
1.5301797e-10
1.5168015e-10
1.5036721e-10
1.4907827e-10
1.4781063e-10
1.4656527e-10
1.453415e-10
1.4414368e-10
1.4291706e-10
1.4175109e-10
1.4031137e-10
1.3914648e-10
1.3746103e-10
9.9354354e-05
8.4395573e-05
8.3354329e-05
8.3364615e-05
8.3421303e-05
8.3438817e-05
8.344355e-05
8.3446135e-05
8.3448841e-05
8.345215e-05
8.3456286e-05
8.3461472e-05
8.346798e-05
8.3476176e-05
8.3486558e-05
8.3499863e-05
8.3517229e-05
8.3540057e-05
8.3573906e-05
8.3609048e-05
8.3741959e-05
8.3544248e-05
8.5351639e-05
2.4108445e-05
1.5222942e-08
2.3384076e-09
1.185089e-09
7.9936655e-10
6.1082436e-10
4.9603339e-10
4.1844823e-10
3.6179889e-10
3.1852371e-10
2.8438801e-10
2.5671983e-10
2.3379971e-10
2.144871e-10
1.9798642e-10
1.8371894e-10
1.7125389e-10
1.6026846e-10
1.5050621e-10
1.4177441e-10
1.339151e-10
1.268022e-10
1.2033262e-10
1.1442141e-10
1.0899805e-10
1.0400348e-10
9.9387913e-11
9.5108938e-11
9.1130178e-11
8.7420382e-11
8.3952488e-11
8.0703107e-11
7.7652135e-11
7.4782005e-11
7.2076626e-11
6.9521707e-11
6.7104812e-11
6.4814889e-11
6.2642141e-11
6.0577875e-11
5.861426e-11
5.674413e-11
5.4961022e-11
5.3259228e-11
5.1633617e-11
5.0079397e-11
4.8592042e-11
4.7167709e-11
4.5805851e-11
4.450416e-11
4.325864e-11
4.2067332e-11
4.0928618e-11
3.9841295e-11
3.8804716e-11
3.7818931e-11
3.6883829e-11
3.5997317e-11
3.5160108e-11
3.4393187e-11
3.3688143e-11
3.3049451e-11
3.2484041e-11
3.200085e-11
3.1612323e-11
3.1332443e-11
3.1151955e-11
3.1130862e-11
3.1344784e-11
3.178907e-11
3.2499898e-11
3.3524228e-11
3.4905672e-11
3.6662917e-11
3.8790666e-11
4.1279394e-11
4.403645e-11
4.6841252e-11
4.9441506e-11
5.1696107e-11
5.3478682e-11
5.487486e-11
5.5934146e-11
5.6742734e-11
5.7358914e-11
5.7819173e-11
5.814473e-11
5.8352185e-11
5.8454064e-11
5.8449206e-11
5.8337553e-11
5.8130934e-11
5.7842563e-11
5.7488362e-11
5.7086137e-11
5.6647945e-11
5.6184354e-11
5.5707242e-11
5.5224253e-11
5.4738959e-11
5.425503e-11
5.3777263e-11
5.3307705e-11
5.2846378e-11
5.2392604e-11
5.1946766e-11
5.1508779e-11
5.1079633e-11
5.0642895e-11
5.0224332e-11
4.9721841e-11
4.9306226e-11
4.8704059e-11
9.9324678e-05
8.4347245e-05
8.3305317e-05
8.3315329e-05
8.3371994e-05
8.3389512e-05
8.3394247e-05
8.3396831e-05
8.3399537e-05
8.3402847e-05
8.3406984e-05
8.3412171e-05
8.3418681e-05
8.3426879e-05
8.3437264e-05
8.3450573e-05
8.3467943e-05
8.3490775e-05
8.352463e-05
8.3559767e-05
8.369271e-05
8.3494817e-05
8.5302409e-05
2.4104026e-05
6.8939671e-09
1.0314041e-09
5.2270352e-10
3.5257872e-10
2.6943872e-10
2.1882404e-10
1.8461289e-10
1.596318e-10
1.4054769e-10
1.2549359e-10
1.1329131e-10
1.031818e-10
9.4664204e-11
8.7387812e-11
8.109689e-11
7.5601164e-11
7.0757987e-11
6.6454183e-11
6.2604824e-11
5.9140308e-11
5.6005082e-11
5.3153698e-11
5.0548714e-11
4.8159039e-11
4.5958638e-11
4.3925352e-11
4.2040389e-11
4.0287651e-11
3.8653269e-11
3.712523e-11
3.5693335e-11
3.4349516e-11
3.3087235e-11
3.189885e-11
3.0777273e-11
2.9717018e-11
2.871326e-11
2.7761735e-11
2.6858672e-11
2.6000697e-11
2.518461e-11
2.4407428e-11
2.3666695e-11
2.2960151e-11
2.2285302e-11
2.163916e-11
2.1019406e-11
2.0432784e-11
1.9879734e-11
1.9354433e-11
1.8856491e-11
1.8385713e-11
1.7942248e-11
1.7526626e-11
1.7139374e-11
1.677965e-11
1.643993e-11
1.611914e-11
1.5874556e-11
1.5677137e-11
1.5531578e-11
1.5446629e-11
1.543331e-11
1.5505009e-11
1.5670509e-11
1.5884113e-11
1.6232189e-11
1.6906432e-11
1.7824272e-11
1.9033487e-11
2.0589232e-11
2.2541772e-11
2.491512e-11
2.7707293e-11
3.0883348e-11
3.4286672e-11
3.7632633e-11
4.0647795e-11
4.319903e-11
4.5242226e-11
4.6876977e-11
4.8184346e-11
4.9249137e-11
5.012529e-11
5.0838327e-11
5.1404099e-11
5.1838024e-11
5.214797e-11
5.2330199e-11
5.2379858e-11
5.2305194e-11
5.2124459e-11
5.1859316e-11
5.1531133e-11
5.1156587e-11
5.0749581e-11
5.0322642e-11
4.9884525e-11
4.9440818e-11
4.8996074e-11
4.8554588e-11
4.8118713e-11
4.7689463e-11
4.7267039e-11
4.6851879e-11
4.6444382e-11
4.6043825e-11
4.5644076e-11
4.5250984e-11
4.4820624e-11
4.4437712e-11
4.3880529e-11
9.9281762e-05
8.4277371e-05
8.3234454e-05
8.3244072e-05
8.3300703e-05
8.3318227e-05
8.3322963e-05
8.3325547e-05
8.3328253e-05
8.3331563e-05
8.3335701e-05
8.334089e-05
8.3347403e-05
8.3355605e-05
8.3365994e-05
8.3379308e-05
8.3396684e-05
8.3419522e-05
8.3453384e-05
8.3488513e-05
8.3621501e-05
8.342335e-05
8.5231205e-05
2.4096748e-05
3.9806825e-09
5.510595e-10
2.7926062e-10
1.8838101e-10
1.4401008e-10
1.1700676e-10
9.8751107e-11
8.5417039e-11
7.5228822e-11
6.7191018e-11
6.0674983e-11
5.527387e-11
5.0724813e-11
4.6840882e-11
4.348448e-11
4.0553392e-11
3.7970799e-11
3.5676086e-11
3.3624047e-11
3.1777684e-11
3.010743e-11
2.8589073e-11
2.7202657e-11
2.5931614e-11
2.4762062e-11
2.3681777e-11
2.2680522e-11
2.174956e-11
2.0881326e-11
2.0069267e-11
1.9308175e-11
1.8595362e-11
1.7929798e-11
1.7306332e-11
1.6719619e-11
1.6166741e-11
1.5645243e-11
1.515298e-11
1.4688089e-11
1.4248967e-11
1.383381e-11
1.3440822e-11
1.3068896e-11
1.2716918e-11
1.2382934e-11
1.2063553e-11
1.1756406e-11
1.1478408e-11
1.1232867e-11
1.1009241e-11
1.0808497e-11
1.0631892e-11
1.0481242e-11
1.035893e-11
1.0267085e-11
1.0205058e-11
1.0159218e-11
1.0126968e-11
1.0220313e-11
1.0385359e-11
1.06326e-11
1.0980793e-11
1.1453977e-11
1.2082067e-11
1.2892045e-11
1.3844727e-11
1.5057388e-11
1.6817103e-11
1.9051999e-11
2.1865002e-11
2.536974e-11
2.9669734e-11
3.4818724e-11
4.0822127e-11
4.7598135e-11
5.4798938e-11
6.1827379e-11
6.8128566e-11
7.342423e-11
7.7698522e-11
8.1146896e-11
8.3959322e-11
8.6298307e-11
8.8266223e-11
8.9904932e-11
9.1243504e-11
9.231305e-11
9.3125147e-11
9.3670561e-11
9.3935184e-11
9.3931096e-11
9.3698534e-11
9.3284975e-11
9.2735033e-11
9.2085476e-11
9.1366399e-11
9.0602451e-11
8.9811548e-11
8.9006496e-11
8.8196934e-11
8.7390552e-11
8.6592172e-11
8.5804775e-11
8.5029674e-11
8.4267758e-11
8.3520305e-11
8.2784129e-11
8.2058328e-11
8.1333153e-11
8.0585736e-11
7.9887635e-11
7.886908e-11
9.9224467e-05
8.4184025e-05
8.3139784e-05
8.3148875e-05
8.320546e-05
8.3222991e-05
8.322773e-05
8.3230314e-05
8.323302e-05
8.323633e-05
8.324047e-05
8.3245662e-05
8.3252178e-05
8.3260385e-05
8.327078e-05
8.32841e-05
8.3301484e-05
8.332433e-05
8.33582e-05
8.3393319e-05
8.3526365e-05
8.3327873e-05
8.5136073e-05
2.4086956e-05
2.8612032e-09
3.3360198e-10
1.6904095e-10
1.1405367e-10
8.7291046e-11
7.1022506e-11
6.0016747e-11
5.1970646e-11
4.5819386e-11
4.0964432e-11
3.7026954e-11
3.3758677e-11
3.100871e-11
2.866477e-11
2.6641966e-11
2.4877516e-11
2.3323774e-11
2.194376e-11
2.0710437e-11
1.9601785e-11
1.8600129e-11
1.7690947e-11
1.6862258e-11
1.610412e-11
1.5408184e-11
1.4766484e-11
1.4172409e-11
1.362041e-11
1.310569e-11
1.2624109e-11
1.2172925e-11
1.175315e-11
1.1368179e-11
1.1013252e-11
1.0682676e-11
1.0374747e-11
1.0088228e-11
9.8220902e-12
9.5755091e-12
9.3479164e-12
9.1380395e-12
8.9446355e-12
8.7675575e-12
8.6065167e-12
8.4596956e-12
8.322717e-12
8.1926842e-12
8.0991881e-12
8.0494262e-12
8.0270681e-12
8.0351241e-12
8.0773667e-12
8.1586125e-12
8.2848693e-12
8.4624627e-12
8.6948189e-12
8.9693964e-12
9.2848196e-12
9.7915516e-12
1.0432198e-11
1.123234e-11
1.2231797e-11
1.3482072e-11
1.5048588e-11
1.6999171e-11
1.9317154e-11
2.2193216e-11
2.6086791e-11
3.0966584e-11
3.7051707e-11
4.4581733e-11
5.3775533e-11
6.475052e-11
7.7527553e-11
9.1938505e-11
1.0725202e-10
1.2221444e-10
1.3565113e-10
1.4694581e-10
1.5608762e-10
1.6347557e-10
1.6952371e-10
1.7457025e-10
1.788299e-10
1.8238926e-10
1.8531148e-10
1.8766437e-10
1.8947118e-10
1.9071213e-10
1.9135544e-10
1.9142419e-10
1.910048e-10
1.9019911e-10
1.8910176e-10
1.8779169e-10
1.863333e-10
1.8477808e-10
1.8316385e-10
1.8151834e-10
1.7986208e-10
1.7821071e-10
1.7657442e-10
1.7495997e-10
1.7337059e-10
1.7180817e-10
1.7027564e-10
1.6876539e-10
1.6728158e-10
1.6579232e-10
1.6428421e-10
1.6285534e-10
1.6076897e-10
9.9151366e-05
8.4064787e-05
8.3018847e-05
8.3027265e-05
8.308379e-05
8.310133e-05
8.3106072e-05
8.3108656e-05
8.3111361e-05
8.3114672e-05
8.3118814e-05
8.312401e-05
8.313053e-05
8.3138743e-05
8.3149145e-05
8.3162474e-05
8.3179867e-05
8.3202723e-05
8.3236605e-05
8.3271709e-05
8.3404828e-05
8.3205903e-05
8.5014557e-05
2.4075188e-05
2.5664942e-09
2.2418532e-10
1.1356549e-10
7.6666332e-11
5.8858542e-11
4.8067491e-11
4.075432e-11
3.5394665e-11
3.1291176e-11
2.8048934e-11
2.5416583e-11
2.3224913e-11
2.1384928e-11
1.9822712e-11
1.8479003e-11
1.731041e-11
1.6283005e-11
1.5371444e-11
1.4558141e-11
1.382896e-11
1.3172423e-11
1.2579009e-11
1.2040842e-11
1.1551404e-11
1.1105185e-11
1.069621e-11
1.0319277e-11
9.9702062e-12
9.6455774e-12
9.3424875e-12
9.0597049e-12
8.8014218e-12
8.575314e-12
8.3762016e-12
8.1971681e-12
8.0372637e-12
7.8961014e-12
7.7734698e-12
7.6693668e-12
7.5841373e-12
7.5166204e-12
7.466214e-12
7.4340113e-12
7.4209377e-12
7.4259842e-12
7.4448393e-12
7.4748524e-12
7.5548728e-12
7.6966412e-12
7.8820098e-12
8.1174938e-12
8.4111346e-12
8.7729349e-12
9.2152795e-12
9.7521015e-12
1.0394672e-11
1.1134673e-11
1.1974883e-11
1.3123513e-11
1.4523212e-11
1.6227319e-11
1.8313842e-11
2.0884102e-11
2.4068239e-11
2.8009584e-11
3.2739583e-11
3.8587946e-11
4.6305359e-11
5.5946163e-11
6.7940753e-11
8.2758803e-11
1.0083041e-10
1.2238998e-10
1.4748828e-10
1.7580856e-10
2.0593509e-10
2.3542556e-10
2.6196491e-10
2.8429866e-10
3.0239831e-10
3.1703008e-10
3.2901428e-10
3.3901378e-10
3.4745273e-10
3.5450435e-10
3.602977e-10
3.6496966e-10
3.6856669e-10
3.7105034e-10
3.7235741e-10
3.7253201e-10
3.7174473e-10
3.7019645e-10
3.6807327e-10
3.6553102e-10
3.6269656e-10
3.5967083e-10
3.5652809e-10
3.533232e-10
3.5009654e-10
3.4687856e-10
3.4368927e-10
3.405422e-10
3.3744394e-10
3.3439819e-10
3.3141082e-10
3.2846643e-10
3.2557628e-10
3.2267199e-10
3.1974501e-10
3.1696099e-10
3.1289506e-10
9.9060757e-05
8.3916749e-05
8.2868686e-05
8.2876267e-05
8.2932714e-05
8.2950266e-05
8.2955012e-05
8.2957595e-05
8.29603e-05
8.2963612e-05
8.2967757e-05
8.2972956e-05
8.2979483e-05
8.2987703e-05
8.2998113e-05
8.3011453e-05
8.3028857e-05
8.3051725e-05
8.3085621e-05
8.3120708e-05
8.3253914e-05
8.3054453e-05
8.4863707e-05
2.4062245e-05
2.7965885e-09
1.6942722e-10
8.5774764e-11
5.7974752e-11
4.4805453e-11
3.6881925e-11
3.1491274e-11
2.7519323e-11
2.4468724e-11
2.2052882e-11
2.0087299e-11
1.8442428e-11
1.7066809e-11
1.5907011e-11
1.4915826e-11
1.4059278e-11
1.3308884e-11
1.2644714e-11
1.2054411e-11
1.152835e-11
1.1058499e-11
1.0638046e-11
1.0261323e-11
9.9236709e-12
9.6211014e-12
9.348866e-12
9.101759e-12
8.875939e-12
8.6688981e-12
8.478655e-12
8.3050412e-12
8.1545263e-12
8.0379915e-12
7.9501782e-12
7.8834833e-12
7.8376699e-12
7.8131628e-12
7.8105822e-12
7.8308216e-12
7.875325e-12
7.9427272e-12
8.0332222e-12
8.1497206e-12
8.2950001e-12
8.4694276e-12
8.6691757e-12
8.892366e-12
9.1903341e-12
9.5815647e-12
1.0046716e-11
1.0598117e-11
1.1250895e-11
1.2023716e-11
1.2939685e-11
1.402563e-11
1.5306391e-11
1.6782244e-11
1.8464994e-11
2.0653654e-11
2.3294103e-11
2.648704e-11
3.03753e-11
3.5144852e-11
4.1036152e-11
4.8322929e-11
5.7131318e-11
6.8027974e-11
8.2224331e-11
9.9941974e-11
1.2197084e-10
1.4917279e-10
1.8233844e-10
2.2190291e-10
2.679709e-10
3.1998134e-10
3.7536725e-10
4.2967119e-10
4.7862647e-10
5.1986739e-10
5.5331474e-10
5.8035405e-10
6.0249734e-10
6.2096334e-10
6.3653681e-10
6.4954276e-10
6.6022606e-10
6.6884363e-10
6.7548295e-10
6.8007423e-10
6.8250117e-10
6.8284426e-10
6.8141751e-10
6.7859067e-10
6.7470596e-10
6.7005019e-10
6.6485683e-10
6.5931126e-10
6.5354999e-10
6.4767408e-10
6.4175777e-10
6.3585691e-10
6.3000827e-10
6.2423685e-10
6.1855491e-10
6.1296923e-10
6.0749068e-10
6.0209072e-10
5.9679173e-10
5.9146485e-10
5.8610419e-10
5.809993e-10
5.7354337e-10
9.8950672e-05
8.3736516e-05
8.2685848e-05
8.2692409e-05
8.2748759e-05
8.2766325e-05
8.2771075e-05
8.2773657e-05
8.2776361e-05
8.2779675e-05
8.2783823e-05
8.2789027e-05
8.279556e-05
8.2803789e-05
8.281421e-05
8.2827562e-05
8.284498e-05
8.2867863e-05
8.2901775e-05
8.2936842e-05
8.3070152e-05
8.2870038e-05
8.4680086e-05
2.4049257e-05
3.4785749e-09
1.4908333e-10
7.5400644e-11
5.1064883e-11
3.9900015e-11
3.3268771e-11
2.8727124e-11
2.5349611e-11
2.2741954e-11
2.0669244e-11
1.8977566e-11
1.7554802e-11
1.637004e-11
1.53796e-11
1.4540741e-11
1.3823376e-11
1.3198817e-11
1.2648446e-11
1.2162721e-11
1.1734686e-11
1.1358179e-11
1.102775e-11
1.0738815e-11
1.0487656e-11
1.0271018e-11
1.0084846e-11
9.9226882e-12
9.7802122e-12
9.6555788e-12
9.5476274e-12
9.4572001e-12
9.3932956e-12
9.3705308e-12
9.3834574e-12
9.4235815e-12
9.4914969e-12
9.5886197e-12
9.7166301e-12
9.8776187e-12
1.0074583e-11
1.0305618e-11
1.0572042e-11
1.0879576e-11
1.1233915e-11
1.1637676e-11
1.208806e-11
1.2584787e-11
1.3197957e-11
1.3956319e-11
1.4839526e-11
1.5869318e-11
1.70723e-11
1.8481213e-11
2.0136626e-11
2.2086498e-11
2.4378324e-11
2.7028715e-11
3.0066677e-11
3.3927784e-11
3.8569097e-11
4.4169077e-11
5.0976455e-11
5.9315592e-11
6.9607789e-11
8.2343e-11
9.7821514e-11
1.1699379e-10
1.4177533e-10
1.7269416e-10
2.1112862e-10
2.5858281e-10
3.1643849e-10
3.8546128e-10
4.6584841e-10
5.5664899e-10
6.5342779e-10
7.484396e-10
8.3421238e-10
9.0653188e-10
9.6521504e-10
1.0126532e-09
1.0514915e-09
1.0838615e-09
1.1111424e-09
1.1339121e-09
1.1526094e-09
1.1676904e-09
1.1793112e-09
1.1873515e-09
1.191608e-09
1.1922212e-09
1.1897403e-09
1.1848116e-09
1.1780334e-09
1.1699073e-09
1.1608412e-09
1.1511593e-09
1.1410999e-09
1.13084e-09
1.1205092e-09
1.1102051e-09
1.099992e-09
1.0899135e-09
1.0799913e-09
1.0702372e-09
1.0606702e-09
1.0512403e-09
1.0419876e-09
1.032685e-09
1.0233281e-09
1.0144141e-09
1.0013943e-09
9.8818887e-05
8.3520215e-05
8.2466388e-05
8.2471723e-05
8.2527952e-05
8.2545533e-05
8.2550289e-05
8.255287e-05
8.2555574e-05
8.2558889e-05
8.256304e-05
8.256825e-05
8.2574791e-05
8.258303e-05
8.2593464e-05
8.2606832e-05
8.2624266e-05
8.2647165e-05
8.2681098e-05
8.2716139e-05
8.2849573e-05
8.2648677e-05
8.445977e-05
2.4037778e-05
4.6504507e-09
1.5666087e-10
7.9140825e-11
5.3726446e-11
4.2526326e-11
3.5987783e-11
3.1470573e-11
2.8070922e-11
2.5428971e-11
2.3319526e-11
2.1591707e-11
2.0133085e-11
1.8923248e-11
1.7920277e-11
1.7079333e-11
1.6369618e-11
1.5756786e-11
1.5219964e-11
1.4750775e-11
1.434379e-11
1.3993663e-11
1.3695335e-11
1.3444492e-11
1.3237706e-11
1.3071877e-11
1.2943268e-11
1.2842742e-11
1.2764603e-11
1.2707603e-11
1.26715e-11
1.2658355e-11
1.2680551e-11
1.2757799e-11
1.2884248e-11
1.3050076e-11
1.3257002e-11
1.3507827e-11
1.3805744e-11
1.4154595e-11
1.4559707e-11
1.5018203e-11
1.553311e-11
1.611455e-11
1.6772834e-11
1.7514283e-11
1.8338148e-11
1.9247196e-11
2.0339242e-11
2.1658505e-11
2.3184412e-11
2.4953645e-11
2.701103e-11
2.9411683e-11
3.2223984e-11
3.5529725e-11
3.9413307e-11
4.3920907e-11
4.9112058e-11
5.5621526e-11
6.3434056e-11
7.2852605e-11
8.4294595e-11
9.8304994e-11
1.1559404e-10
1.3700047e-10
1.6312861e-10
1.9553339e-10
2.3718643e-10
2.8914964e-10
3.5373996e-10
4.3348651e-10
5.3071522e-10
6.4672163e-10
7.8185612e-10
9.3455838e-10
1.0974324e-09
1.2575012e-09
1.4021663e-09
1.5242272e-09
1.6233114e-09
1.7034045e-09
1.7689613e-09
1.8235726e-09
1.8695707e-09
1.9079428e-09
1.9394415e-09
1.9648447e-09
1.9844195e-09
1.9979655e-09
2.005141e-09
2.0061826e-09
2.0020148e-09
1.993726e-09
1.9823233e-09
1.9686511e-09
1.9533965e-09
1.9371047e-09
1.9201775e-09
1.9029124e-09
1.8855278e-09
1.868188e-09
1.851001e-09
1.8340406e-09
1.8173431e-09
1.8009284e-09
1.7848287e-09
1.7689595e-09
1.7533892e-09
1.7377342e-09
1.7219908e-09
1.7069902e-09
1.6850803e-09
9.8662932e-05
8.3263486e-05
8.2205864e-05
8.2209743e-05
8.2265822e-05
8.228342e-05
8.2288182e-05
8.2290762e-05
8.2293464e-05
8.2296781e-05
8.2300936e-05
8.2306153e-05
8.2312704e-05
8.2320955e-05
8.2331404e-05
8.2344789e-05
8.2362243e-05
8.2385163e-05
8.2419117e-05
8.245413e-05
8.2587707e-05
8.2385886e-05
8.4198348e-05
2.4029874e-05
6.4296237e-09
1.9305554e-10
9.7431533e-11
6.6279825e-11
5.3040395e-11
4.5438062e-11
4.0142701e-11
3.6112911e-11
3.2962749e-11
3.0437534e-11
2.8363012e-11
2.6609014e-11
2.515795e-11
2.3962136e-11
2.2967735e-11
2.2138591e-11
2.1428252e-11
2.0809652e-11
2.0274198e-11
1.9817179e-11
1.9433186e-11
1.9116686e-11
1.8862896e-11
1.8668094e-11
1.8528805e-11
1.8441347e-11
1.8391963e-11
1.8372489e-11
1.8382346e-11
1.8422541e-11
1.8496807e-11
1.8622264e-11
1.8825759e-11
1.9100847e-11
1.9435871e-11
1.9834201e-11
2.0300676e-11
2.0840754e-11
2.1460916e-11
2.2170048e-11
2.2963682e-11
2.3847518e-11
2.4838542e-11
2.5954339e-11
2.7207277e-11
2.8600504e-11
3.0142294e-11
3.1970443e-11
3.4152259e-11
3.6669047e-11
3.9580835e-11
4.2960946e-11
4.6899497e-11
5.1508427e-11
5.6922767e-11
6.3285898e-11
7.0695299e-11
7.9262277e-11
8.9907355e-11
1.0267307e-10
1.1805818e-10
1.3674418e-10
1.5962162e-10
1.8785415e-10
2.228323e-10
2.6567136e-10
3.1886199e-10
3.8694358e-10
4.7187427e-10
5.7744208e-10
7.0778307e-10
8.6670447e-10
1.0563359e-09
1.2772748e-09
1.5270216e-09
1.7935643e-09
2.0557435e-09
2.292909e-09
2.4931335e-09
2.6557181e-09
2.7871341e-09
2.8946752e-09
2.984223e-09
3.05961e-09
3.1224708e-09
3.1740572e-09
3.2156547e-09
3.2477075e-09
3.2698897e-09
3.2816434e-09
3.2833557e-09
3.27654e-09
3.2629783e-09
3.244319e-09
3.2219444e-09
3.1969795e-09
3.1703165e-09
3.1426132e-09
3.1143565e-09
3.0859042e-09
3.0575249e-09
3.0293957e-09
3.0016372e-09
2.974309e-09
2.9474437e-09
2.9210938e-09
2.8951212e-09
2.8696381e-09
2.8440159e-09
2.8182512e-09
2.7937003e-09
2.7578412e-09
9.8480105e-05
8.2961483e-05
8.1899336e-05
8.1901495e-05
8.195739e-05
8.1975008e-05
8.1979777e-05
8.1982355e-05
8.1985056e-05
8.1988374e-05
8.1992534e-05
8.1997759e-05
8.2004321e-05
8.2012587e-05
8.2023053e-05
8.2036459e-05
8.2053935e-05
8.2076878e-05
8.2110859e-05
8.2145837e-05
8.2279579e-05
8.207668e-05
8.389092e-05
2.4028224e-05
9.0130837e-09
2.6498211e-10
1.3364958e-10
9.1041989e-11
7.3379572e-11
6.3358118e-11
5.6337056e-11
5.0952174e-11
4.6725781e-11
4.3328927e-11
4.0533194e-11
3.8170332e-11
3.6217675e-11
3.4613079e-11
3.3285315e-11
3.2187344e-11
3.1251997e-11
3.0440943e-11
2.9743953e-11
2.915634e-11
2.8671742e-11
2.8283198e-11
2.7984622e-11
2.7771365e-11
2.7638979e-11
2.758366e-11
2.758426e-11
2.7628616e-11
2.7717086e-11
2.7852548e-11
2.8041173e-11
2.8306735e-11
2.8686035e-11
2.9171939e-11
2.9750455e-11
3.0427448e-11
3.1210833e-11
3.2109489e-11
3.3133913e-11
3.4298425e-11
3.559607e-11
3.7036736e-11
3.8648047e-11
4.0458935e-11
4.2491539e-11
4.4756029e-11
4.7270234e-11
5.0228764e-11
5.3733155e-11
5.7770915e-11
6.2438152e-11
6.7852223e-11
7.4157353e-11
8.1532868e-11
9.0196521e-11
1.0038453e-10
1.1228047e-10
1.2608079e-10
1.4311251e-10
1.6352739e-10
1.8812814e-10
2.1800454e-10
2.5458169e-10
2.997258e-10
3.556879e-10
4.2441892e-10
5.0984148e-10
6.1880827e-10
7.5474178e-10
9.2370666e-10
1.1323265e-09
1.3867029e-09
1.6902608e-09
2.0439896e-09
2.4439556e-09
2.8710356e-09
3.2914274e-09
3.6720003e-09
3.9934507e-09
4.2545381e-09
4.4655643e-09
4.6382194e-09
4.7819355e-09
4.902874e-09
5.0036803e-09
5.0863862e-09
5.1530689e-09
5.2044489e-09
5.2400076e-09
5.2588522e-09
5.261603e-09
5.250686e-09
5.228957e-09
5.199058e-09
5.1632042e-09
5.1231988e-09
5.0804719e-09
5.0360773e-09
4.9907957e-09
4.9452005e-09
4.8997222e-09
4.8546444e-09
4.8101607e-09
4.7663665e-09
4.723314e-09
4.6810875e-09
4.6394656e-09
4.5986284e-09
4.5575678e-09
4.5162805e-09
4.476937e-09
4.4194719e-09
9.8267486e-05
8.2608869e-05
8.1541353e-05
8.1541499e-05
8.1597169e-05
8.1614808e-05
8.1619585e-05
8.162216e-05
8.162486e-05
8.162818e-05
8.1632345e-05
8.1637579e-05
8.1644154e-05
8.1652436e-05
8.1662923e-05
8.1676352e-05
8.1693854e-05
8.1716824e-05
8.1750834e-05
8.1785772e-05
8.1919703e-05
8.1715565e-05
8.3532091e-05
2.403623e-05
1.2694658e-08
3.8539113e-10
1.9431951e-10
1.3247256e-10
1.0720099e-10
9.2964823e-11
8.2957228e-11
7.5247016e-11
6.9181931e-11
6.4300333e-11
6.0278998e-11
5.6885044e-11
5.4080513e-11
5.1777363e-11
4.9875749e-11
4.831049e-11
4.6981482e-11
4.5832055e-11
4.4848606e-11
4.4025769e-11
4.3355151e-11
4.2827147e-11
4.2433292e-11
4.2167212e-11
4.2022706e-11
4.1995772e-11
4.2053796e-11
4.2178404e-11
4.2371402e-11
4.2638603e-11
4.2989804e-11
4.3458084e-11
4.4094032e-11
4.4889922e-11
4.5828994e-11
4.6920929e-11
4.8178295e-11
4.9615154e-11
5.1248113e-11
5.3099765e-11
5.5159333e-11
5.7443247e-11
5.9995487e-11
6.2862546e-11
6.6082123e-11
6.9676558e-11
7.3679688e-11
7.8366225e-11
8.3888239e-11
9.0247347e-11
9.7594916e-11
1.0611576e-10
1.16037e-10
1.2764128e-10
1.4127363e-10
1.5731469e-10
1.7608895e-10
1.9792974e-10
2.247402e-10
2.568659e-10
2.9557681e-10
3.4258827e-10
4.001447e-10
4.7119053e-10
5.593048e-10
6.6777776e-10
8.0270599e-10
9.7434356e-10
1.1884584e-09
1.4546059e-09
1.7832246e-09
2.1839368e-09
2.6621596e-09
3.2194949e-09
3.8498369e-09
4.5231988e-09
5.1864211e-09
5.7872095e-09
6.2948721e-09
6.7072914e-09
7.040621e-09
7.3132962e-09
7.5401995e-09
7.7310732e-09
7.890123e-09
8.0205871e-09
8.125764e-09
8.2068011e-09
8.2628857e-09
8.2926113e-09
8.2969565e-09
8.2797474e-09
8.2454875e-09
8.1983433e-09
8.1418082e-09
8.0787257e-09
8.0113512e-09
7.9413464e-09
7.8699427e-09
7.7980442e-09
7.7263297e-09
7.6552468e-09
7.5851007e-09
7.5160417e-09
7.4481522e-09
7.3815653e-09
7.3159317e-09
7.2515357e-09
7.1867871e-09
7.1216821e-09
7.0596414e-09
6.9690247e-09
9.8021958e-05
8.2199816e-05
8.1125957e-05
8.1123757e-05
8.1179154e-05
8.1196815e-05
8.12016e-05
8.1204173e-05
8.120687e-05
8.1210192e-05
8.1214363e-05
8.1219607e-05
8.1226197e-05
8.1234498e-05
8.1245008e-05
8.1258464e-05
8.1275996e-05
8.1298996e-05
8.133304e-05
8.1367933e-05
8.1502075e-05
8.1296535e-05
8.3115971e-05
2.405811e-05
1.7896245e-08
5.7528184e-10
2.9002639e-10
1.9779894e-10
1.6039938e-10
1.3941363e-10
1.2463563e-10
1.1322332e-10
1.0423603e-10
9.6997601e-11
9.1032765e-11
8.600714e-11
8.1852629e-11
7.8439154e-11
7.5622503e-11
7.3309258e-11
7.1348564e-11
6.9655177e-11
6.8209774e-11
6.7005466e-11
6.6030389e-11
6.5270601e-11
6.4713778e-11
6.4350707e-11
6.4172356e-11
6.4174577e-11
6.430723e-11
6.4542487e-11
6.4884488e-11
6.5343676e-11
6.5935274e-11
6.6705338e-11
6.7723456e-11
6.8981725e-11
7.0460369e-11
7.2174901e-11
7.4144921e-11
7.6392342e-11
7.8943024e-11
8.1832111e-11
8.5043011e-11
8.8602305e-11
9.2578963e-11
9.7046446e-11
1.0206695e-10
1.0768321e-10
1.1395527e-10
1.2127032e-10
1.2985489e-10
1.3973826e-10
1.5115588e-10
1.6439523e-10
1.7980954e-10
1.978388e-10
2.1902243e-10
2.4396372e-10
2.7321334e-10
3.0732125e-10
3.4900601e-10
3.9894301e-10
4.591153e-10
5.3219008e-10
6.2165898e-10
7.3210957e-10
8.6915406e-10
1.0381972e-09
1.2486173e-09
1.5156597e-09
1.8487934e-09
2.2628889e-09
2.7741952e-09
3.3976989e-09
4.1418588e-09
5.0092248e-09
5.9904173e-09
7.0389614e-09
8.0722574e-09
9.0087947e-09
9.8004396e-09
1.0443678e-08
1.0963547e-08
1.1388758e-08
1.1742501e-08
1.2039984e-08
1.2287802e-08
1.2491044e-08
1.2654878e-08
1.2781104e-08
1.2868465e-08
1.2914771e-08
1.2921548e-08
1.2894754e-08
1.2841404e-08
1.2767987e-08
1.2679943e-08
1.2581702e-08
1.2476775e-08
1.2367752e-08
1.225655e-08
1.2144576e-08
1.2032889e-08
1.1922186e-08
1.1812941e-08
1.1705389e-08
1.1599659e-08
1.1495957e-08
1.1393739e-08
1.129345e-08
1.1192611e-08
1.1091218e-08
1.0994596e-08
1.085347e-08
9.7740235e-05
8.1728004e-05
8.0646678e-05
8.0641758e-05
8.0696825e-05
8.0714508e-05
8.0719303e-05
8.0721871e-05
8.0724565e-05
8.0727888e-05
8.0732066e-05
8.0737322e-05
8.0743928e-05
8.0752251e-05
8.0762787e-05
8.0776275e-05
8.079384e-05
8.0816875e-05
8.0850955e-05
8.0885796e-05
8.1020176e-05
8.0813055e-05
8.2636203e-05
2.4098998e-05
2.521436e-08
8.6695777e-10
4.3705644e-10
2.9813711e-10
2.4202311e-10
2.1060161e-10
1.8845643e-10
1.7133504e-10
1.5784497e-10
1.4697706e-10
1.3802083e-10
1.3048759e-10
1.2425654e-10
1.1913206e-10
1.149029e-10
1.1143296e-10
1.0849437e-10
1.0595823e-10
1.0379619e-10
1.019987e-10
1.0054839e-10
9.9424558e-11
9.8608859e-11
9.8087657e-11
9.784753e-11
9.7884429e-11
9.8121663e-11
9.8517158e-11
9.9078813e-11
9.982437e-11
1.0077718e-10
1.0200136e-10
1.0359261e-10
1.055438e-10
1.0783225e-10
1.1048237e-10
1.1352435e-10
1.1699197e-10
1.2092505e-10
1.253777e-10
1.3032454e-10
1.358078e-10
1.4193442e-10
1.4881903e-10
1.5656199e-10
1.6523944e-10
1.7495343e-10
1.86249e-10
1.9946221e-10
2.1467247e-10
2.3224251e-10
2.5261518e-10
2.7633471e-10
3.0407936e-10
3.3668377e-10
3.7509205e-10
4.2021265e-10
4.7293414e-10
5.3712961e-10
6.1401932e-10
7.0666852e-10
8.1918528e-10
9.5694983e-10
1.1270402e-09
1.3381627e-09
1.599022e-09
1.9239297e-09
2.3354482e-09
2.8488199e-09
3.4869669e-09
4.2749399e-09
5.235856e-09
6.3827919e-09
7.7197534e-09
9.2324467e-09
1.0849493e-08
1.2443745e-08
1.3889394e-08
1.5111752e-08
1.6105113e-08
1.6907931e-08
1.7564493e-08
1.8110582e-08
1.85697e-08
1.8952081e-08
1.9265635e-08
1.9518369e-08
1.9713084e-08
1.9847847e-08
1.9919285e-08
1.9929751e-08
1.9888436e-08
1.9806159e-08
1.9692928e-08
1.9557138e-08
1.9405617e-08
1.9243784e-08
1.9075632e-08
1.8904118e-08
1.8731415e-08
1.8559153e-08
1.8388407e-08
1.8219911e-08
1.8054027e-08
1.7890951e-08
1.7731005e-08
1.7573348e-08
1.7418664e-08
1.7263132e-08
1.7106747e-08
1.6957721e-08
1.6740052e-08
9.7418902e-05
8.1186639e-05
8.0096542e-05
8.0088481e-05
8.0143149e-05
8.0160854e-05
8.0165659e-05
8.0168222e-05
8.0170912e-05
8.0174236e-05
8.0178422e-05
8.0183691e-05
8.0190316e-05
8.0198663e-05
8.0209228e-05
8.0222751e-05
8.0240353e-05
8.0263428e-05
8.0297548e-05
8.033233e-05
8.0466973e-05
8.0258074e-05
8.2085957e-05
2.4165004e-05
3.5485769e-08
1.3091455e-09
6.5997685e-10
4.5025253e-10
3.6570851e-10
3.1842005e-10
2.8507976e-10
2.5928886e-10
2.3896393e-10
2.2258845e-10
2.0909429e-10
1.9776177e-10
1.8838252e-10
1.8066068e-10
1.7428497e-10
1.690556e-10
1.6462879e-10
1.6080967e-10
1.5755599e-10
1.5485399e-10
1.5267781e-10
1.5099641e-10
1.497823e-10
1.4901508e-10
1.4867465e-10
1.4875761e-10
1.4914727e-10
1.4978021e-10
1.5067034e-10
1.5184682e-10
1.5334517e-10
1.5525462e-10