/*--------------------------------*- C++ -*----------------------------------*\
| =========                 |                                                 |
| \\      /  F ield         | OpenFOAM: The Open Source CFD Toolbox           |
|  \\    /   O peration     | Version:  2206                                  |
|   \\  /    A nd           | Website:  www.openfoam.com                      |
|    \\/     M anipulation  |                                                 |
\*---------------------------------------------------------------------------*/
FoamFile
{
    version     2.0;
    format      ascii;
    arch        "LSB;label=32;scalar=64";
    class       volScalarField;
    location    "1100";
    object      nut;
}
// * * * * * * * * * * * * * * * * * * * * * * * * * * * * * * * * * * * * * //

dimensions      [0 2 -1 0 0 0 0];

internalField   nonuniform List<scalar> 
13056
(
1.9430831e-07
1.9275734e-07
1.9282409e-07
1.9301252e-07
1.9311944e-07
1.9316817e-07
1.9319301e-07
1.9320851e-07
1.9321999e-07
1.9322955e-07
1.9323828e-07
1.9324688e-07
1.9325597e-07
1.9326613e-07
1.9327809e-07
1.9329263e-07
1.9331159e-07
1.9333429e-07
1.933768e-07
1.9338118e-07
1.936711e-07
1.9295514e-07
1.9290232e-07
1.2334038e-09
2.6371395e-16
4.0866028e-17
2.0710702e-17
1.3969779e-17
1.0674699e-17
8.668518e-18
7.3125858e-18
6.3225509e-18
5.5662538e-18
4.9696846e-18
4.4861467e-18
4.0855947e-18
3.7480831e-18
3.4597072e-18
3.2103558e-18
2.9925028e-18
2.8005082e-18
2.6298907e-18
2.4772819e-18
2.3399206e-18
2.2156033e-18
2.1025282e-18
1.9992107e-18
1.9044181e-18
1.8171184e-18
1.7364428e-18
1.6616504e-18
1.5921059e-18
1.5272637e-18
1.4666514e-18
1.4098595e-18
1.3565317e-18
1.3063533e-18
1.2590467e-18
1.2143671e-18
1.1720972e-18
1.1320437e-18
1.0940349e-18
1.0579187e-18
1.0235578e-18
9.9082703e-19
9.5961458e-19
9.2982044e-19
9.0135513e-19
8.7413762e-19
8.4809559e-19
8.2316609e-19
7.9929364e-19
7.7642904e-19
7.5452985e-19
7.335593e-19
7.1348664e-19
6.9428734e-19
6.7594604e-19
6.5846224e-19
6.4184221e-19
6.2609916e-19
6.1125579e-19
5.9734186e-19
5.8439867e-19
5.7249293e-19
5.6171573e-19
5.5218728e-19
5.4409013e-19
5.3768701e-19
5.3321205e-19
5.3123169e-19
5.3181759e-19
5.3566849e-19
5.4325065e-19
5.5521164e-19
5.7217241e-19
5.9442689e-19
6.2198667e-19
6.5505272e-19
6.9290892e-19
7.3284732e-19
7.710336e-19
8.0475777e-19
8.3141763e-19
8.5205535e-19
8.6728248e-19
8.7842375e-19
8.8643989e-19
8.9201686e-19
8.9557867e-19
8.9742889e-19
8.9780382e-19
8.9671138e-19
8.941809e-19
8.9040796e-19
8.8556047e-19
8.7984226e-19
8.7349691e-19
8.666772e-19
8.5952096e-19
8.5220008e-19
8.4482138e-19
8.3742659e-19
8.3006509e-19
8.2281047e-19
8.156913e-19
8.0870248e-19
8.0182916e-19
7.9507675e-19
7.8844128e-19
7.8194681e-19
7.7529424e-19
7.6897312e-19
7.6115721e-19
7.5484006e-19
7.4570052e-19
1.9430756e-07
1.9275596e-07
1.9282274e-07
1.9301123e-07
1.9311819e-07
1.9316694e-07
1.9319178e-07
1.9320729e-07
1.9321877e-07
1.9322834e-07
1.9323707e-07
1.9324567e-07
1.9325476e-07
1.9326493e-07
1.9327689e-07
1.9329144e-07
1.9331039e-07
1.933331e-07
1.9337562e-07
1.9338e-07
1.9366996e-07
1.929539e-07
1.9290197e-07
1.2520829e-09
2.4750317e-16
3.8192213e-17
1.9355604e-17
1.3055732e-17
9.9762508e-18
8.1013373e-18
6.8341248e-18
5.9088686e-18
5.2020565e-18
4.6445214e-18
4.1926216e-18
3.8182778e-18
3.5028498e-18
3.2333428e-18
3.0003072e-18
2.7967089e-18
2.6172772e-18
2.4578238e-18
2.3152008e-18
2.1868276e-18
2.0706451e-18
1.964969e-18
1.8684122e-18
1.7798225e-18
1.6982354e-18
1.622839e-18
1.5529408e-18
1.4879471e-18
1.4273479e-18
1.3707017e-18
1.3176258e-18
1.2677875e-18
1.220893e-18
1.1766828e-18
1.1349277e-18
1.0954249e-18
1.0579934e-18
1.022473e-18
9.8872139e-19
9.5661033e-19
9.2602296e-19
8.9685459e-19
8.6901179e-19
8.4241088e-19
8.1697601e-19
7.9263921e-19
7.6934142e-19
7.4703316e-19
7.2566884e-19
7.0520732e-19
6.8561435e-19
6.6686123e-19
6.4892513e-19
6.3179181e-19
6.1546073e-19
5.9993707e-19
5.8523013e-19
5.713605e-19
5.5837499e-19
5.4630078e-19
5.3520031e-19
5.2515966e-19
5.1629217e-19
5.0876889e-19
5.0283159e-19
4.9866956e-19
4.9684324e-19
4.9750007e-19
5.0123317e-19
5.0848327e-19
5.1985993e-19
5.3594548e-19
5.5701055e-19
5.8305267e-19
6.1422939e-19
6.4981692e-19
6.8723494e-19
7.229083e-19
7.543682e-19
7.7922637e-19
7.9848165e-19
8.1270885e-19
8.2314542e-19
8.3068258e-19
8.3595081e-19
8.3933662e-19
8.4111809e-19
8.415128e-19
8.4052625e-19
8.3818447e-19
8.3467017e-19
8.3014201e-19
8.2479254e-19
8.1885118e-19
8.1246231e-19
8.0575606e-19
7.9889389e-19
7.9197635e-19
7.8504301e-19
7.7814042e-19
7.7133756e-19
7.6466131e-19
7.581071e-19
7.5166117e-19
7.453286e-19
7.3910578e-19
7.3301493e-19
7.2677742e-19
7.2084864e-19
7.1352642e-19
7.076029e-19
6.9903237e-19
1.9430517e-07
1.9275159e-07
1.9281848e-07
1.9300716e-07
1.9311423e-07
1.9316303e-07
1.931879e-07
1.9320343e-07
1.9321492e-07
1.9322449e-07
1.9323323e-07
1.9324185e-07
1.9325094e-07
1.9326111e-07
1.9327309e-07
1.9328764e-07
1.933066e-07
1.9332932e-07
1.9337186e-07
1.9337622e-07
1.936663e-07
1.9295004e-07
1.928989e-07
1.2743301e-09
2.3738067e-16
3.6411647e-17
1.8453177e-17
1.2447042e-17
9.5112241e-18
7.7237963e-18
6.5157058e-18
5.6336101e-18
4.9597655e-18
4.428233e-18
3.9974072e-18
3.640513e-18
3.3397928e-18
3.0828585e-18
2.860698e-18
2.6666035e-18
2.4955484e-18
2.3435394e-18
2.2075757e-18
2.0851975e-18
1.9744418e-18
1.8737031e-18
1.7816589e-18
1.697211e-18
1.6194398e-18
1.5475697e-18
1.4809403e-18
1.4189853e-18
1.3612178e-18
1.3072162e-18
1.2566166e-18
1.2091068e-18
1.1644149e-18
1.1222895e-18
1.0825068e-18
1.0448733e-18
1.0092168e-18
9.7538479e-19
9.4324186e-19
9.1266606e-19
8.8354581e-19
8.5578007e-19
8.2927975e-19
8.0396462e-19
7.7975907e-19
7.5659061e-19
7.3439811e-19
7.1318483e-19
6.9291638e-19
6.7352243e-19
6.5497233e-19
6.372404e-19
6.2030746e-19
6.0416285e-19
5.8880507e-19
5.7422642e-19
5.6037305e-19
5.4725174e-19
5.3530453e-19
5.2432325e-19
5.1437212e-19
5.055571e-19
4.9801279e-19
4.9191987e-19
4.8744481e-19
4.8418087e-19
4.8330448e-19
4.8658641e-19
4.9342683e-19
5.0437528e-19
5.2013842e-19
5.4135045e-19
5.68219e-19
6.0049727e-19
6.3773058e-19
6.7807031e-19
7.1791822e-19
7.5385034e-19
7.8463706e-19
8.0879033e-19
8.2780431e-19
8.4232875e-19
8.5358867e-19
8.6234497e-19
8.6901693e-19
8.7380398e-19
8.7687919e-19
8.7839314e-19
8.7831226e-19
8.7662999e-19
8.7352233e-19
8.6918712e-19
8.6386334e-19
8.5781839e-19
8.5123331e-19
8.4426678e-19
8.3709726e-19
8.2983956e-19
8.2254731e-19
8.1527561e-19
8.0809657e-19
8.0104093e-19
7.9410899e-19
7.8729054e-19
7.8059136e-19
7.7401012e-19
7.6756178e-19
7.6099916e-19
7.5470988e-19
7.4715854e-19
7.4091338e-19
7.318651e-19
1.9430105e-07
1.9274408e-07
1.9281116e-07
1.9300016e-07
1.9310743e-07
1.9315632e-07
1.9318124e-07
1.9319679e-07
1.932083e-07
1.9321789e-07
1.9322665e-07
1.9323527e-07
1.9324438e-07
1.9325456e-07
1.9326655e-07
1.9328111e-07
1.9330009e-07
1.9332282e-07
1.9336539e-07
1.9336972e-07
1.9366002e-07
1.9294344e-07
1.9289306e-07
1.2985728e-09
2.3509628e-16
3.5150068e-17
1.7813656e-17
1.2015825e-17
9.1824049e-18
7.4574435e-18
6.291517e-18
5.4401536e-18
4.7897597e-18
4.2767093e-18
3.8608483e-18
3.5162969e-18
3.2260083e-18
2.9780303e-18
2.7636415e-18
2.5763534e-18
2.4113035e-18
2.2646347e-18
2.1334526e-18
2.0153853e-18
1.9085395e-18
1.8113664e-18
1.72259e-18
1.6411507e-18
1.5661612e-18
1.4968625e-18
1.4326147e-18
1.3728689e-18
1.3171507e-18
1.2650491e-18
1.2162176e-18
1.1703924e-18
1.1273672e-18
1.0868726e-18
1.048655e-18
1.0125266e-18
9.7832296e-19
9.4589863e-19
9.1512504e-19
8.8588716e-19
8.5807577e-19
8.3158469e-19
8.0632812e-19
7.8222548e-19
7.5918079e-19
7.3706978e-19
7.1579937e-19
6.9572951e-19
6.7689204e-19
6.589998e-19
6.4203797e-19
6.2599462e-19
6.1087042e-19
5.9667692e-19
5.8340724e-19
5.7096598e-19
5.588582e-19
5.4699733e-19
5.3862412e-19
5.3189081e-19
5.2689794e-19
5.2392333e-19
5.2329209e-19
5.2530645e-19
5.2964468e-19
5.31541e-19
5.3679827e-19
5.5906303e-19
5.8936568e-19
6.2927258e-19
6.8058243e-19
7.4490432e-19
8.2293253e-19
9.1439186e-19
1.0177244e-18
1.1271853e-18
1.2330664e-18
1.3269091e-18
1.4055796e-18
1.4682817e-18
1.518572e-18
1.5589933e-18
1.5922184e-18
1.6198536e-18
1.6425607e-18
1.660696e-18
1.6746566e-18
1.6846461e-18
1.6905222e-18
1.6921202e-18
1.6897043e-18
1.6838631e-18
1.6752959e-18
1.664693e-18
1.6525927e-18
1.6394442e-18
1.625652e-18
1.6114988e-18
1.5971653e-18
1.5827982e-18
1.5685365e-18
1.5544561e-18
1.5405898e-18
1.526944e-18
1.5135328e-18
1.5003692e-18
1.4874298e-18
1.4745162e-18
1.4618181e-18
1.4479147e-18
1.4355451e-18
1.417546e-18
1.9429509e-07
1.9273323e-07
1.9280057e-07
1.9299004e-07
1.9309758e-07
1.9314661e-07
1.9317159e-07
1.9318719e-07
1.9319873e-07
1.9320834e-07
1.9321711e-07
1.9322576e-07
1.9323488e-07
1.9324508e-07
1.9325708e-07
1.9327167e-07
1.9329067e-07
1.9331342e-07
1.9335603e-07
1.9336032e-07
1.9365091e-07
1.9293389e-07
1.9288437e-07
1.3247262e-09
2.4748101e-16
3.4315613e-17
1.7390178e-17
1.1730877e-17
8.9676763e-18
7.2859978e-18
6.1490848e-18
5.3186714e-18
4.6841675e-18
4.1835815e-18
3.7777566e-18
3.4412902e-18
3.1579474e-18
2.9160887e-18
2.7071084e-18
2.5246169e-18
2.3638232e-18
2.2209522e-18
2.0931889e-18
1.9782297e-18
1.8742336e-18
1.7796928e-18
1.6933646e-18
1.6142172e-18
1.5413858e-18
1.4740864e-18
1.4116832e-18
1.3536317e-18
1.2994498e-18
1.2487184e-18
1.2011208e-18
1.1565582e-18
1.1150695e-18
1.0762787e-18
1.0397775e-18
1.0053791e-18
9.7293073e-19
9.4229839e-19
9.1336558e-19
8.8603173e-19
8.6018373e-19
8.3568139e-19
8.1244182e-19
7.903731e-19
7.6928288e-19
7.4881631e-19
7.2873487e-19
7.1091762e-19
6.9567997e-19
6.8180316e-19
6.6933688e-19
6.5832471e-19
6.4884874e-19
6.4101332e-19
6.3479301e-19
6.2966551e-19
6.2310347e-19
6.145536e-19
6.1984657e-19
6.298247e-19
6.4476781e-19
6.6579216e-19
6.9430001e-19
7.3192794e-19
7.795662e-19
8.3081234e-19
8.954446e-19
1.0000483e-18
1.1328777e-18
1.3000253e-18
1.5081942e-18
1.763425e-18
2.068687e-18
2.4238192e-18
2.8230029e-18
3.24416e-18
3.6509432e-18
4.0116083e-18
4.3126367e-18
4.5547519e-18
4.7503057e-18
4.9103064e-18
5.0441388e-18
5.1574866e-18
5.2524199e-18
5.3302682e-18
5.3926063e-18
5.4399886e-18
5.4718225e-18
5.4872654e-18
5.4870169e-18
5.4734251e-18
5.4492625e-18
5.4171348e-18
5.3791891e-18
5.3371831e-18
5.2925566e-18
5.2463561e-18
5.1993293e-18
5.1520392e-18
5.1049351e-18
5.0582985e-18
5.0123036e-18
4.9670269e-18
4.9225205e-18
4.8788589e-18
4.8358561e-18
4.7934588e-18
4.7510988e-18
4.7074363e-18
4.6666573e-18
4.6071593e-18
1.9428713e-07
1.927187e-07
1.9278641e-07
1.929765e-07
1.9308441e-07
1.9313361e-07
1.9315868e-07
1.9317434e-07
1.9318592e-07
1.9319556e-07
1.9320436e-07
1.9321303e-07
1.9322217e-07
1.932324e-07
1.9324442e-07
1.9325903e-07
1.9327806e-07
1.9330084e-07
1.9334351e-07
1.9334775e-07
1.9363873e-07
1.9292112e-07
1.9287276e-07
1.3530763e-09
2.8957535e-16
3.4073374e-17
1.7265606e-17
1.1649167e-17
8.9151452e-18
7.2529759e-18
6.1284606e-18
5.3063302e-18
4.6777793e-18
4.1816607e-18
3.7792373e-18
3.4448497e-18
3.1636887e-18
2.9242913e-18
2.7178197e-18
2.5377525e-18
2.3791902e-18
2.2383527e-18
2.11248e-18
1.9993238e-18
1.8970796e-18
1.8042645e-18
1.7196543e-18
1.6422331e-18
1.5711466e-18
1.505477e-18
1.4445563e-18
1.3878146e-18
1.3347112e-18
1.284772e-18
1.2377506e-18
1.1940653e-18
1.1545361e-18
1.1184263e-18
1.0848075e-18
1.0534833e-18
1.0243262e-18
9.9722934e-19
9.7210628e-19
9.4889497e-19
9.2746151e-19
9.0754143e-19
8.8904828e-19
8.7183601e-19
8.5536231e-19
8.3845268e-19
8.2034095e-19
8.0811416e-19
8.0308764e-19
8.0083158e-19
8.0160262e-19
8.0574293e-19
8.1369948e-19
8.2602035e-19
8.431573e-19
8.6489054e-19
8.8795797e-19
9.1141952e-19
9.6070296e-19
1.0235193e-18
1.1019531e-18
1.1998754e-18
1.3222439e-18
1.4751642e-18
1.6639406e-18
1.8793742e-18
2.1436918e-18
2.5196918e-18
2.9908753e-18
3.5783369e-18
4.3050816e-18
5.1919587e-18
6.2497309e-18
7.4791698e-18
8.8615609e-18
1.032259e-17
1.173886e-17
1.3000038e-17
1.4054489e-17
1.4905597e-17
1.5593909e-17
1.6158712e-17
1.6631979e-17
1.7033412e-17
1.7370287e-17
1.7647662e-17
1.7871357e-17
1.8043269e-17
1.8161373e-17
1.8222595e-17
1.8229116e-17
1.8189161e-17
1.8112425e-17
1.8007917e-17
1.7883157e-17
1.7744274e-17
1.7596171e-17
1.7442451e-17
1.7285753e-17
1.712803e-17
1.6970775e-17
1.6814955e-17
1.6661216e-17
1.6509865e-17
1.636108e-17
1.6215142e-17
1.6071326e-17
1.5930025e-17
1.5788208e-17
1.5644588e-17
1.550852e-17
1.530984e-17
1.9427698e-07
1.9270012e-07
1.9276828e-07
1.9295918e-07
1.9306757e-07
1.93117e-07
1.9314218e-07
1.931579e-07
1.9316953e-07
1.9317922e-07
1.9318805e-07
1.9319675e-07
1.9320593e-07
1.9321618e-07
1.9322823e-07
1.9324287e-07
1.9326194e-07
1.9328475e-07
1.933275e-07
1.9333166e-07
1.9362315e-07
1.9290479e-07
1.9285816e-07
1.3840781e-09
3.9175009e-16
3.4996336e-17
1.7728478e-17
1.1967824e-17
9.18606e-18
7.499636e-18
6.3565374e-18
5.5187024e-18
4.8771104e-18
4.3700655e-18
3.9581661e-18
3.613863e-18
3.3255395e-18
3.081683e-18
2.8724129e-18
2.690545e-18
2.5306567e-18
2.3887805e-18
2.2621755e-18
2.1486383e-18
2.0463796e-18
1.953914e-18
1.8700106e-18
1.7936483e-18
1.723961e-18
1.6596039e-18
1.5997857e-18
1.5438364e-18
1.4910142e-18
1.440655e-18
1.3926952e-18
1.3490463e-18
1.3128095e-18
1.2821985e-18
1.2547473e-18
1.2302182e-18
1.20855e-18
1.1897079e-18
1.1736881e-18
1.1605383e-18
1.1500752e-18
1.1420622e-18
1.1365833e-18
1.1336417e-18
1.1326712e-18
1.1321544e-18
1.1310487e-18
1.1398446e-18
1.1611613e-18
1.1890961e-18
1.2245808e-18
1.268783e-18
1.3231616e-18
1.3895028e-18
1.4696316e-18
1.5643627e-18
1.6691864e-18
1.7827033e-18
1.9529379e-18
2.1611591e-18
2.4146179e-18
2.72485e-18
3.1067364e-18
3.5789907e-18
4.1600919e-18
4.838454e-18
5.6692454e-18
6.8028721e-18
8.2188972e-18
9.9803877e-18
1.2156023e-17
1.4808294e-17
1.7970256e-17
2.1646379e-17
2.5784167e-17
3.0166734e-17
3.4429586e-17
3.8240007e-17
4.1432734e-17
4.4014386e-17
4.6102483e-17
4.7815888e-17
4.9250337e-17
5.0465649e-17
5.148465e-17
5.2323763e-17
5.3001332e-17
5.3523329e-17
5.3883832e-17
5.4073547e-17
5.409884e-17
5.398447e-17
5.3759602e-17
5.3451258e-17
5.3082063e-17
5.267044e-17
5.2231044e-17
5.1774659e-17
5.1309252e-17
5.0840682e-17
5.0373376e-17
4.9910236e-17
4.9453228e-17
4.9003309e-17
4.8561014e-17
4.8127197e-17
4.7699623e-17
4.727992e-17
4.6858171e-17
4.6433105e-17
4.6028817e-17
4.5438373e-17
1.9426438e-07
1.92677e-07
1.9274574e-07
1.9293765e-07
1.9304663e-07
1.9309633e-07
1.9312166e-07
1.9313747e-07
1.9314916e-07
1.931589e-07
1.9316777e-07
1.9317651e-07
1.9318572e-07
1.9319601e-07
1.932081e-07
1.9322278e-07
1.932419e-07
1.9326475e-07
1.9330759e-07
1.9331166e-07
1.9360377e-07
1.9288447e-07
1.9284053e-07
1.4183125e-09
6.1701295e-16
3.8418312e-17
1.9450855e-17
1.314554e-17
1.0153666e-17
8.3510879e-18
7.1239791e-18
6.2194575e-18
5.5242778e-18
4.9733264e-18
4.5242047e-18
4.1435324e-18
3.8277121e-18
3.5647543e-18
3.3417514e-18
3.1495528e-18
2.9812446e-18
2.8322645e-18
2.6998288e-18
2.5817749e-18
2.4762972e-18
2.3818634e-18
2.2971966e-18
2.2212436e-18
2.1530994e-18
2.0912585e-18
2.0345609e-18
1.9821096e-18
1.9330988e-18
1.8868277e-18
1.843367e-18
1.8055418e-18
1.7779511e-18
1.7583802e-18
1.7435762e-18
1.7333819e-18
1.7278886e-18
1.7272297e-18
1.7315978e-18
1.7413047e-18
1.7560398e-18
1.7756556e-18
1.8006727e-18
1.8314969e-18
1.867606e-18
1.9068704e-18
1.9477976e-18
2.0081905e-18
2.0935695e-18
2.1951571e-18
2.3155708e-18
2.4580407e-18
2.626555e-18
2.8260094e-18
3.0617591e-18
3.3375925e-18
3.6474515e-18
3.9899361e-18
4.4614131e-18
5.0316407e-18
5.721084e-18
6.5604453e-18
7.5894828e-18
8.8587632e-18
1.042138e-17
1.2269859e-17
1.4538404e-17
1.7571914e-17
2.1357567e-17
2.6063818e-17
3.1874137e-17
3.8955952e-17
4.7399182e-17
5.7219587e-17
6.8284029e-17
8.0024134e-17
9.1474559e-17
1.0173974e-16
1.1035641e-16
1.1733177e-16
1.2297305e-16
1.2759979e-16
1.314688e-16
1.3474224e-16
1.3748374e-16
1.3973997e-16
1.415619e-16
1.429663e-16
1.4393766e-16
1.4445111e-16
1.4452358e-16
1.4422152e-16
1.4362316e-16
1.4280092e-16
1.4181551e-16
1.4071632e-16
1.395426e-16
1.3832324e-16
1.3707961e-16
1.3582744e-16
1.3457854e-16
1.333407e-16
1.3211919e-16
1.3091663e-16
1.2973444e-16
1.2857493e-16
1.2743204e-16
1.2631052e-16
1.2518311e-16
1.2404851e-16
1.2296807e-16
1.2139004e-16
1.9424906e-07
1.9264879e-07
1.9271823e-07
1.9291137e-07
1.9302108e-07
1.9307113e-07
1.9309663e-07
1.9311255e-07
1.9312432e-07
1.9313412e-07
1.9314304e-07
1.9315183e-07
1.9316108e-07
1.9317141e-07
1.9318355e-07
1.9319828e-07
1.9321745e-07
1.9324036e-07
1.9328331e-07
1.9328727e-07
1.9358013e-07
1.9285966e-07
1.9281993e-07
1.4564846e-09
1.0764685e-15
4.7224018e-17
2.3885406e-17
1.6175084e-17
1.2632432e-17
1.0525494e-17
9.0815585e-18
8.0072714e-18
7.1772504e-18
6.5169566e-18
5.9770238e-18
5.5173829e-18
5.1373197e-18
4.8232314e-18
4.5591368e-18
4.3338658e-18
4.1378134e-18
3.9650314e-18
3.8125086e-18
3.6780566e-18
3.5597357e-18
3.455828e-18
3.3648867e-18
3.2857328e-18
3.2173293e-18
3.1578344e-18
3.1052148e-18
3.0580431e-18
3.0153956e-18
2.9765281e-18
2.9418017e-18
2.9158736e-18
2.9063316e-18
2.910135e-18
2.9225037e-18
2.943477e-18
2.9734894e-18
3.0130557e-18
3.0628155e-18
3.1236856e-18
3.1950597e-18
3.2770459e-18
3.3712076e-18
3.4789492e-18
3.6000549e-18
3.7314394e-18
3.8710133e-18
4.0512942e-18
4.2838951e-18
4.5549114e-18
4.8708852e-18
5.2398452e-18
5.6716697e-18
6.1785156e-18
6.7741317e-18
7.4699326e-18
8.2591123e-18
9.1423192e-18
1.0313525e-17
1.172414e-17
1.3425918e-17
1.549416e-17
1.8026629e-17
2.1148593e-17
2.4996673e-17
2.9590979e-17
3.5243581e-17
4.2707979e-17
5.2020368e-17
6.3595204e-17
7.7884106e-17
9.5300115e-17
1.1606749e-16
1.4023191e-16
1.6747939e-16
1.9643266e-16
2.2473186e-16
2.5015974e-16
2.7153486e-16
2.8885248e-16
3.0285629e-16
3.1433573e-16
3.2392537e-16
3.3202913e-16
3.3880896e-16
3.4438517e-16
3.4888695e-16
3.5235736e-16
3.5475884e-16
3.5603015e-16
3.5621309e-16
3.5547163e-16
3.5399891e-16
3.5197364e-16
3.4954565e-16
3.4683686e-16
3.4394407e-16
3.4093854e-16
3.3787308e-16
3.3478646e-16
3.3170782e-16
3.2865636e-16
3.2564515e-16
3.2268062e-16
3.197663e-16
3.1690789e-16
3.1409045e-16
3.1132593e-16
3.0854654e-16
3.0575083e-16
3.030875e-16
2.991975e-16
1.942307e-07
1.9261484e-07
1.9268511e-07
1.9287977e-07
1.9299035e-07
1.9304081e-07
1.9306653e-07
1.9308258e-07
1.9309444e-07
1.9310431e-07
1.931133e-07
1.9312214e-07
1.9313145e-07
1.9314183e-07
1.9315403e-07
1.9316881e-07
1.9318805e-07
1.9321102e-07
1.932541e-07
1.9325794e-07
1.9355171e-07
1.9282978e-07
1.9279647e-07
1.4994438e-09
1.9748457e-15
6.7879139e-17
3.4292693e-17
2.3278822e-17
1.8418336e-17
1.5576978e-17
1.3612664e-17
1.2133623e-17
1.0983329e-17
1.0064056e-17
9.30964e-18
8.665188e-18
8.134026e-18
7.6984389e-18
7.3357694e-18
7.0304561e-18
6.7669162e-18
6.536031e-18
6.334176e-18
6.1590085e-18
6.0082193e-18
5.8796223e-18
5.771349e-18
5.6819048e-18
5.6099317e-18
5.5529599e-18
5.507027e-18
5.4695542e-18
5.4394398e-18
5.4159427e-18
5.4000413e-18
5.399914e-18
5.4288552e-18
5.4823322e-18
5.5527708e-18
5.6406713e-18
5.7472163e-18
5.8737539e-18
6.0219026e-18
6.1939064e-18
6.3885121e-18
6.6064851e-18
6.85175e-18
7.1280353e-18
7.4361702e-18
7.7717926e-18
8.1322928e-18
8.5786206e-18
9.1347114e-18
9.7781253e-18
1.0524093e-17
1.1391265e-17
1.2402559e-17
1.3586249e-17
1.497497e-17
1.6598253e-17
1.8452649e-17
2.0546918e-17
2.3264816e-17
2.6532035e-17
3.04705e-17
3.5254203e-17
4.1109442e-17
4.8327797e-17
5.7235895e-17
6.7946392e-17
8.1154284e-17
9.8440265e-17
1.2000375e-16
1.4680487e-16
1.7989037e-16
2.2021927e-16
2.6831665e-16
3.2430073e-16
3.8746938e-16
4.5467128e-16
5.2046743e-16
5.7969526e-16
6.2954085e-16
6.699497e-16
7.0262251e-16
7.2939365e-16
7.517386e-16
7.7060246e-16
7.8637075e-16
7.9933241e-16
8.097938e-16
8.1785803e-16
8.2343925e-16
8.2639569e-16
8.268244e-16
8.2510629e-16
8.2168991e-16
8.1699026e-16
8.1135531e-16
8.0506827e-16
7.983538e-16
7.9137746e-16
7.8426186e-16
7.7709707e-16
7.6995071e-16
7.6286736e-16
7.5587741e-16
7.4899581e-16
7.4223077e-16
7.3559552e-16
7.290553e-16
7.2263821e-16
7.1618625e-16
7.0969772e-16
7.0351541e-16
6.9448559e-16
1.9420896e-07
1.925744e-07
1.9264568e-07
1.9284215e-07
1.9295377e-07
1.9300473e-07
1.930307e-07
1.9304691e-07
1.9305889e-07
1.9306885e-07
1.9307791e-07
1.9308682e-07
1.9309619e-07
1.9310664e-07
1.931189e-07
1.9313375e-07
1.9315307e-07
1.9317611e-07
1.9321935e-07
1.9322302e-07
1.9351788e-07
1.9279416e-07
1.9277043e-07
1.5482162e-09
3.6865108e-15
1.1264693e-16
5.6854618e-17
3.8674436e-17
3.0938106e-17
2.6489776e-17
2.3389165e-17
2.1028452e-17
1.9181572e-17
1.7699708e-17
1.6480015e-17
1.5436953e-17
1.4578947e-17
1.3879019e-17
1.3300855e-17
1.2819929e-17
1.2408052e-17
1.2049306e-17
1.1738677e-17
1.1473416e-17
1.1250371e-17
1.1066314e-17
1.0918447e-17
1.0804577e-17
1.0722647e-17
1.066908e-17
1.0635827e-17
1.0617911e-17
1.0614013e-17
1.062359e-17
1.0648904e-17
1.0704717e-17
1.0814907e-17
1.0972368e-17
1.1164608e-17
1.1393166e-17
1.1660809e-17
1.1970648e-17
1.232638e-17
1.2733065e-17
1.3188085e-17
1.3693773e-17
1.4259191e-17
1.4893226e-17
1.5599578e-17
1.6372617e-17
1.721001e-17
1.8226194e-17
1.9469408e-17
2.0903885e-17
2.2563409e-17
2.4489304e-17
2.673233e-17
2.9355232e-17
3.24315e-17
3.6031461e-17
4.0167481e-17
4.4871792e-17
5.0887902e-17
5.811235e-17
6.6818428e-17
7.7390724e-17
9.033016e-17
1.0628495e-16
1.2599614e-16
1.4982822e-16
1.7927495e-16
2.1754944e-16
2.6529395e-16
3.2463537e-16
3.9789352e-16
4.8719688e-16
5.9371869e-16
7.1774297e-16
8.5776015e-16
1.0068607e-15
1.1530463e-15
1.2848332e-15
1.3958486e-15
1.4858915e-15
1.5586893e-15
1.6183153e-15
1.668048e-15
1.7099984e-15
1.7450392e-15
1.7738293e-15
1.7970601e-15
1.8149663e-15
1.8273597e-15
1.8339265e-15
1.8348822e-15
1.8310726e-15
1.8234932e-15
1.8130653e-15
1.8005612e-15
1.7866096e-15
1.7717092e-15
1.7562274e-15
1.7404364e-15
1.7245361e-15
1.7086766e-15
1.6929569e-15
1.6774444e-15
1.6621723e-15
1.647159e-15
1.6324336e-15
1.6179191e-15
1.6036781e-15
1.5893595e-15
1.5749608e-15
1.5612408e-15
1.5412013e-15
1.9418344e-07
1.9252663e-07
1.925991e-07
1.9279773e-07
1.929106e-07
1.9296215e-07
1.9298843e-07
1.9300482e-07
1.9301693e-07
1.9302699e-07
1.9303615e-07
1.9304513e-07
1.9305458e-07
1.930651e-07
1.9307744e-07
1.9309238e-07
1.9311179e-07
1.9313492e-07
1.9317835e-07
1.9318183e-07
1.9347796e-07
1.9275202e-07
1.9274225e-07
1.6040493e-09
6.8925833e-15
2.0578153e-16
1.0379906e-16
7.070469e-17
5.6970071e-17
4.9167193e-17
4.3696814e-17
3.9499311e-17
3.620233e-17
3.3550082e-17
3.13633e-17
2.9495289e-17
2.7959449e-17
2.6709098e-17
2.5680842e-17
2.4832438e-17
2.4109914e-17
2.3483291e-17
2.2944609e-17
2.2490217e-17
2.2115171e-17
2.1814063e-17
2.1582143e-17
2.1415762e-17
2.1311404e-17
2.1263626e-17
2.1255958e-17
2.1278548e-17
2.1329928e-17
2.1410305e-17
2.1524558e-17
2.169953e-17
2.1978348e-17
2.2349629e-17
2.2792473e-17
2.3310679e-17
2.3910283e-17
2.4598049e-17
2.5381967e-17
2.627293e-17
2.7265514e-17
2.8365601e-17
2.9593087e-17
3.0967928e-17
3.2500887e-17
3.4186195e-17
3.6024469e-17
3.8228955e-17
4.0894993e-17
4.3967514e-17
4.7518869e-17
5.1637503e-17
5.6432056e-17
6.2037042e-17
6.8611763e-17
7.631498e-17
8.5206712e-17
9.5378487e-17
1.0824389e-16
1.2368296e-16
1.4228625e-16
1.6487593e-16
1.9252409e-16
2.2662294e-16
2.6878986e-16
3.2000576e-16
3.833925e-16
4.6532767e-16
5.6753562e-16
6.9457153e-16
8.514058e-16
1.0426044e-15
1.270698e-15
1.5363342e-15
1.8363616e-15
2.1561097e-15
2.4699704e-15
2.753264e-15
2.9920937e-15
3.1858838e-15
3.342547e-15
3.4708233e-15
3.5777531e-15
3.6678881e-15
3.7431318e-15
3.8049282e-15
3.8547812e-15
3.8932042e-15
3.9197984e-15
3.9338919e-15
3.9359476e-15
3.9277797e-15
3.9115244e-15
3.8891578e-15
3.8623371e-15
3.8324108e-15
3.8004489e-15
3.7672395e-15
3.7333667e-15
3.6992593e-15
3.6652394e-15
3.6315191e-15
3.5982433e-15
3.5654833e-15
3.533278e-15
3.5016907e-15
3.4705556e-15
3.4400075e-15
3.4092923e-15
3.3784069e-15
3.3489761e-15
3.3059896e-15
1.9415371e-07
1.9247059e-07
1.9254446e-07
1.9274564e-07
1.9285998e-07
1.9291224e-07
1.9293888e-07
1.9295549e-07
1.9296776e-07
1.9297795e-07
1.929872e-07
1.9299629e-07
1.9300582e-07
1.9301643e-07
1.9302886e-07
1.9304389e-07
1.9306342e-07
1.9308664e-07
1.9313029e-07
1.9313354e-07
1.9343118e-07
1.9270249e-07
1.9271265e-07
1.6684712e-09
1.2827723e-14
3.9477427e-16
1.9907222e-16
1.3570785e-16
1.0978948e-16
9.5171656e-17
8.4889408e-17
7.6964227e-17
7.0725647e-17
6.5700222e-17
6.1553722e-17
5.8019861e-17
5.5113009e-17
5.2745853e-17
5.0802304e-17
4.9205759e-17
4.7850552e-17
4.6678268e-17
4.567493e-17
4.4835011e-17
4.4149903e-17
4.3609749e-17
4.3205841e-17
4.2931569e-17
4.278047e-17
4.2744053e-17
4.2788824e-17
4.2895217e-17
4.3061971e-17
4.3291412e-17
4.3593678e-17
4.4017487e-17
4.4640508e-17
4.544449e-17
4.6394496e-17
4.74991e-17
4.8770975e-17
5.0224291e-17
5.1875764e-17
5.3748128e-17
5.5830301e-17
5.8135879e-17
6.0707116e-17
6.3587099e-17
6.6802848e-17
7.0352553e-17
7.4246884e-17
7.8879332e-17
8.4435455e-17
9.0835107e-17
9.8229227e-17
1.0680226e-16
1.1678076e-16
1.2844568e-16
1.4213266e-16
1.5818682e-16
1.7679038e-16
1.9817352e-16
2.2498294e-16
2.5714001e-16
2.9588619e-16
3.4293484e-16
4.0052232e-16
4.7156119e-16
5.5947973e-16
6.6667302e-16
7.9952505e-16
9.7047142e-16
1.1837163e-15
1.4487674e-15
1.7760031e-15
2.1749668e-15
2.6509729e-15
3.2054414e-15
3.8319392e-15
4.5000705e-15
5.1565414e-15
5.7496892e-15
6.25007e-15
6.6562251e-15
6.9845468e-15
7.2533055e-15
7.4772294e-15
7.6658743e-15
7.8232724e-15
7.9524968e-15
8.0567266e-15
8.1370531e-15
8.1926508e-15
8.2221179e-15
8.2264226e-15
8.2093572e-15
8.1753869e-15
8.1286424e-15
8.0725873e-15
8.0100409e-15
7.943239e-15
7.8738294e-15
7.803033e-15
7.731746e-15
7.6606416e-15
7.5901633e-15
7.520614e-15
7.4521425e-15
7.3848306e-15
7.3188102e-15
7.253735e-15
7.1898867e-15
7.125689e-15
7.0611369e-15
6.9996239e-15
6.9097781e-15
1.9411932e-07
1.9240521e-07
1.9248071e-07
1.9268491e-07
1.9280099e-07
1.9285407e-07
1.9288113e-07
1.9289801e-07
1.9291046e-07
1.929208e-07
1.9293018e-07
1.9293937e-07
1.9294901e-07
1.9295972e-07
1.9297226e-07
1.929874e-07
1.9300705e-07
1.930304e-07
1.9307429e-07
1.9307728e-07
1.9337667e-07
1.9264458e-07
1.9268264e-07
1.743368e-09
2.3723334e-14
7.7194277e-16
3.8922977e-16
2.6544939e-16
2.152082e-16
1.8698656e-16
1.6710195e-16
1.5174015e-16
1.396349e-16
1.298779e-16
1.2182608e-16
1.1498228e-16
1.0934762e-16
1.0475272e-16
1.0098011e-16
9.7887355e-17
9.5266578e-17
9.3002742e-17
9.106984e-17
8.9458564e-17
8.8152966e-17
8.7134303e-17
8.6385963e-17
8.589544e-17
8.5650413e-17
8.5637578e-17
8.5789513e-17
8.6067529e-17
8.6471671e-17
8.7009521e-17
8.7701647e-17
8.8636032e-17
8.9951743e-17
9.1619892e-17
9.3582614e-17
9.5858365e-17
9.8473089e-17
1.0145577e-16
1.0484059e-16
1.0867398e-16
1.1293359e-16
1.1764934e-16
1.2290882e-16
1.2880251e-16
1.3539322e-16
1.4269426e-16
1.5074331e-16
1.6025987e-16
1.7160083e-16
1.8465985e-16
1.9974558e-16
2.1723508e-16
2.3759155e-16
2.6139006e-16
2.8932274e-16
3.2211904e-16
3.6024903e-16
4.0425129e-16
4.5902299e-16
5.2469566e-16
6.0382437e-16
6.9991022e-16
8.1752681e-16
9.6264522e-16
1.1423706e-15
1.3622045e-15
1.6349834e-15
1.9846384e-15
2.4208167e-15
2.9629735e-15
3.6323515e-15
4.4485021e-15
5.422356e-15
6.5569385e-15
7.8393385e-15
9.2077556e-15
1.0553412e-14
1.1770333e-14
1.2797506e-14
1.3631496e-14
1.4305627e-14
1.4857334e-14
1.5316812e-14
1.570371e-14
1.6026383e-14
1.6291221e-14
1.6504801e-14
1.6669389e-14
1.6783308e-14
1.6843692e-14
1.6852524e-14
1.6817574e-14
1.6747991e-14
1.6652237e-14
1.6537408e-14
1.6409279e-14
1.6272432e-14
1.6130241e-14
1.598521e-14
1.5839172e-14
1.5693509e-14
1.5549128e-14
1.540665e-14
1.5266379e-14
1.5128485e-14
1.4993235e-14
1.4859923e-14
1.4729123e-14
1.4597608e-14
1.4465368e-14
1.4339353e-14
1.4155295e-14
1.9407978e-07
1.9232928e-07
1.9240669e-07
1.9261444e-07
1.9273256e-07
1.9278661e-07
1.9281417e-07
1.9283135e-07
1.9284403e-07
1.9285453e-07
1.9286406e-07
1.9287338e-07
1.9288314e-07
1.9289398e-07
1.9290663e-07
1.9292191e-07
1.929417e-07
1.9296518e-07
1.9300936e-07
1.9301203e-07
1.9331348e-07
1.9257709e-07
1.926537e-07
1.8310865e-09
4.3601549e-14
1.5157559e-15
7.6429008e-16
5.2135207e-16
4.2314006e-16
3.6809265e-16
3.2927686e-16
2.9925634e-16
2.7558949e-16
2.5651007e-16
2.4076682e-16
2.274206e-16
2.1642097e-16
2.0743505e-16
2.0005194e-16
1.9400394e-16
1.8888314e-16
1.8446304e-16
1.8069389e-16
1.775589e-16
1.7502763e-16
1.7306382e-16
1.7163526e-16
1.7071785e-16
1.7028777e-16
1.7032438e-16
1.7069336e-16
1.7131875e-16
1.7220469e-16
1.7337089e-16
1.7485839e-16
1.7682523e-16
1.7951891e-16
1.8289477e-16
1.8685833e-16
1.9144812e-16
1.9671635e-16
2.027213e-16
2.0953171e-16
2.1724089e-16
2.2580435e-16
2.3528578e-16
2.4586345e-16
2.5772354e-16
2.7100513e-16
2.857637e-16
3.02102e-16
3.2132575e-16
3.4411546e-16
3.7035353e-16
4.0066134e-16
4.3579796e-16
4.7669594e-16
5.2451422e-16
5.8065632e-16
6.4663151e-16
7.2355282e-16
8.1262137e-16
9.2281919e-16
1.0549096e-15
1.2140656e-15
1.4073331e-15
1.6439225e-15
1.9358838e-15
2.2976874e-15
2.7414516e-15
3.2926505e-15
3.9968966e-15
4.875423e-15
5.9674286e-15
7.3157261e-15
8.9597497e-15
1.0921622e-14
1.3207646e-14
1.5792246e-14
1.8551595e-14
2.1266995e-14
2.3724472e-14
2.5799765e-14
2.7485168e-14
2.8847453e-14
2.9962125e-14
3.0890125e-14
3.1671207e-14
3.2322388e-14
3.2856721e-14
3.3287577e-14
3.3619584e-14
3.3849383e-14
3.3971198e-14
3.3989035e-14
3.3918567e-14
3.3778242e-14
3.3585132e-14
3.3353546e-14
3.3095136e-14
3.2819139e-14
3.2532366e-14
3.223986e-14
3.1945326e-14
3.1651544e-14
3.1360348e-14
3.107299e-14
3.0790085e-14
3.0511971e-14
3.0239192e-14
2.9970319e-14
2.9706515e-14
2.9441267e-14
2.917456e-14
2.8920404e-14
2.8549185e-14
1.9403458e-07
1.9224147e-07
1.9232109e-07
1.9253301e-07
1.9265351e-07
1.9270871e-07
1.9273685e-07
1.9275439e-07
1.9276732e-07
1.9277803e-07
1.9278773e-07
1.927972e-07
1.928071e-07
1.9281807e-07
1.9283087e-07
1.9284629e-07
1.9286626e-07
1.9288989e-07
1.929344e-07
1.929367e-07
1.9324054e-07
1.9249868e-07
1.9262779e-07
1.9345687e-09
7.9693464e-14
2.9697576e-15
1.4975739e-15
1.0216837e-15
8.2969863e-16
7.2222219e-16
6.4641247e-16
5.8775047e-16
5.4149741e-16
5.0420966e-16
4.7344867e-16
4.4743402e-16
4.2597166e-16
4.084064e-16
3.939601e-16
3.8212798e-16
3.7211362e-16
3.6347289e-16
3.5610966e-16
3.4999249e-16
3.4506264e-16
3.4124955e-16
3.384906e-16
3.3673906e-16
3.3594871e-16
3.3608822e-16
3.3689252e-16
3.3821344e-16
3.4006573e-16
3.4249583e-16