/*--------------------------------*- C++ -*----------------------------------*\
| =========                 |                                                 |
| \\      /  F ield         | OpenFOAM: The Open Source CFD Toolbox           |
|  \\    /   O peration     | Version:  2206                                  |
|   \\  /    A nd           | Website:  www.openfoam.com                      |
|    \\/     M anipulation  |                                                 |
\*---------------------------------------------------------------------------*/
FoamFile
{
    version     2.0;
    format      ascii;
    arch        "LSB;label=32;scalar=64";
    class       volScalarField;
    location    "1100";
    object      omega;
}
// * * * * * * * * * * * * * * * * * * * * * * * * * * * * * * * * * * * * * //

dimensions      [0 0 -1 0 0 0 0];

internalField   nonuniform List<scalar> 
13056
(
511.44009
438.02613
432.47735
432.10953
432.16392
432.14554
432.11449
432.09319
432.08153
432.07727
432.07916
432.08675
432.1001
432.11978
432.14673
432.18305
432.23049
432.29778
432.37776
432.54971
432.58833
433.1696
442.65629
19545.941
1.1944345e+09
1.1944345e+09
1.1944345e+09
1.1944345e+09
1.1944345e+09
1.1944345e+09
1.1944345e+09
1.1944345e+09
1.1944345e+09
1.1944345e+09
1.1944345e+09
1.1944345e+09
1.1944345e+09
1.1944345e+09
1.1944345e+09
1.1944345e+09
1.1944345e+09
1.1944345e+09
1.1944345e+09
1.1944345e+09
1.1944345e+09
1.1944345e+09
1.1944345e+09
1.1944345e+09
1.1944345e+09
1.1944345e+09
1.1944345e+09
1.1944345e+09
1.1944345e+09
1.1944345e+09
1.1944345e+09
1.1944345e+09
1.1944345e+09
1.1944345e+09
1.1944345e+09
1.1944345e+09
1.1944345e+09
1.1944345e+09
1.1944345e+09
1.1944345e+09
1.1944345e+09
1.1944345e+09
1.1944345e+09
1.1944345e+09
1.1944345e+09
1.1944345e+09
1.1944345e+09
1.1944345e+09
1.1944345e+09
1.1944345e+09
1.1944345e+09
1.1944345e+09
1.1944345e+09
1.1944345e+09
1.1944345e+09
1.1944345e+09
1.1944345e+09
1.1944345e+09
1.1944345e+09
1.1944345e+09
1.1944345e+09
1.1944345e+09
1.1944345e+09
1.1944345e+09
1.1944345e+09
1.1944345e+09
1.1944345e+09
1.1944345e+09
1.1944345e+09
1.1944345e+09
1.1944345e+09
1.1944345e+09
1.1944345e+09
1.1944345e+09
1.1944345e+09
1.1944345e+09
1.1944345e+09
1.1944345e+09
1.1944345e+09
1.1944345e+09
1.1944345e+09
1.1944345e+09
1.1944345e+09
1.1944345e+09
1.1944345e+09
1.1944345e+09
1.1944345e+09
1.1944345e+09
1.1944345e+09
1.1944345e+09
1.1944345e+09
1.1944345e+09
1.1944345e+09
1.1944345e+09
1.1944345e+09
1.1944345e+09
1.1944345e+09
1.1944345e+09
1.1944345e+09
1.1944345e+09
1.1944345e+09
1.1944345e+09
1.1944345e+09
1.1944345e+09
1.1944345e+09
1.1944345e+09
1.1944345e+09
1.1944345e+09
1.1944345e+09
1.1944345e+09
1.1944345e+09
1.1944345e+09
511.41414
437.98269
432.4331
432.06491
432.11922
432.10081
432.06975
432.04844
432.03678
432.03251
432.0344
432.04199
432.05534
432.07501
432.10197
432.13829
432.18573
432.25303
432.33302
432.50497
432.5436
433.1247
442.60999
19255.762
1.9586942e+08
1.9626969e+08
1.9626967e+08
1.9626967e+08
1.9626968e+08
1.9626969e+08
1.962697e+08
1.9626971e+08
1.9626972e+08
1.9626973e+08
1.9626974e+08
1.9626975e+08
1.9626976e+08
1.9626977e+08
1.9626978e+08
1.9626979e+08
1.962698e+08
1.9626981e+08
1.9626982e+08
1.9626984e+08
1.9626985e+08
1.9626986e+08
1.9626988e+08
1.9626989e+08
1.9626991e+08
1.9626993e+08
1.9626995e+08
1.9626997e+08
1.9627e+08
1.9627003e+08
1.9627006e+08
1.962701e+08
1.9627013e+08
1.9627016e+08
1.962702e+08
1.9627023e+08
1.9627028e+08
1.9627032e+08
1.9627037e+08
1.9627043e+08
1.9627049e+08
1.9627057e+08
1.9627065e+08
1.9627075e+08
1.9627087e+08
1.9627103e+08
1.9627123e+08
1.9627141e+08
1.9627157e+08
1.9627176e+08
1.9627198e+08
1.9627223e+08
1.9627254e+08
1.9627291e+08
1.9627339e+08
1.9627402e+08
1.9627502e+08
1.9627644e+08
1.9627732e+08
1.9627834e+08
1.9627959e+08
1.9628114e+08
1.9628312e+08
1.9628577e+08
1.9628974e+08
1.962981e+08
1.9630816e+08
1.9631342e+08
1.9631995e+08
1.9632802e+08
1.9633794e+08
1.9635011e+08
1.9636508e+08
1.9638393e+08
1.9640845e+08
1.9644035e+08
1.9647889e+08
1.9651889e+08
1.9655318e+08
1.9658016e+08
1.9659973e+08
1.9661376e+08
1.9662337e+08
1.9662972e+08
1.9663386e+08
1.9663672e+08
1.966389e+08
1.9664068e+08
1.9664215e+08
1.9664332e+08
1.9664419e+08
1.9664482e+08
1.9664525e+08
1.9664553e+08
1.966457e+08
1.9664579e+08
1.9664582e+08
1.9664581e+08
1.9664576e+08
1.966457e+08
1.9664561e+08
1.9664551e+08
1.966454e+08
1.9664529e+08
1.9664517e+08
1.9664506e+08
1.9664494e+08
1.9664488e+08
1.9664474e+08
1.9664495e+08
1.9664487e+08
1.9664473e+08
511.33151
437.84632
432.29431
431.92499
431.97906
431.96058
431.92948
431.90814
431.89646
431.89219
431.89407
431.90165
431.91499
431.93467
431.96163
431.99795
432.0454
432.11272
432.19271
432.3647
432.40336
432.98383
442.46826
18918.525
64128818
64221418
64221404
64221406
64221424
64221449
64221475
64221501
64221527
64221555
64221586
64221638
64221678
64221701
64221716
64221728
64221740
64221753
64221767
64221783
64221799
64221817
64221838
64221861
64221887
64221930
64221992
64222074
64222187
64222342
64222537
64222723
64222815
64222848
64222880
64222916
64222957
64223003
64223056
64223118
64223189
64223302
64223477
64223743
64224192
64225013
64226349
64227180
64227318
64227468
64227647
64227909
64228302
64228901
64229969
64232205
64238131
64248508
64249758
64250713
64252026
64253951
64257084
64263156
64278954
64339499
64412526
64417714
64425095
64435946
64452512
64478883
64522511
64597572
64728579
64943782
65245945
65585307
65885375
66121812
66289652
66404175
66475501
66515044
66534000
66542075
66545295
66546585
66547183
66547521
66547738
66547883
66547982
66548045
66548083
66548104
66548112
66548108
66548098
66548084
66548064
66548041
66548016
66547991
66547965
66547939
66547911
66547899
66547866
66547913
66547895
66547864
511.18961
437.61263
432.05651
431.68528
431.73893
431.72033
431.68917
431.66778
431.65607
431.65177
431.65363
431.66121
431.67455
431.69423
431.72119
431.75752
431.80498
431.87232
431.95232
432.12436
432.16308
432.74246
442.22644
18561.937
29324016
29342876
29342855
29342865
29342936
29343037
29343144
29343253
29343369
29343492
29343632
29343881
29344067
29344165
29344215
29344252
29344289
29344328
29344371
29344418
29344471
29344531
29344599
29344678
29344769
29344947
29345218
29345593
29346124
29346868
29347819
29348718
29349121
29349207
29349282
29349369
29349470
29349588
29349729
29349897
29350101
29350501
29351196
29352343
29354407
29358360
29364941
29368861
29369136
29369406
29369744
29370401
29371611
29373728
29378063
29388178
29416997
29468407
29472419
29474351
29477393
29482613
29492726
29516120
29586833
29883138
30238899
30240654
30243146
30246808
30252370
30261298
30276018
30301333
30345491
30417956
30519551
30633442
30733961
30813043
30869116
30907346
30931144
30944333
30950654
30953347
30954421
30954851
30955050
30955163
30955235
30955284
30955317
30955338
30955350
30955358
30955360
30955359
30955356
30955351
30955344
30955337
30955328
30955320
30955311
30955303
30955293
30955289
30955278
30955294
30955288
30955277
510.98441
437.27474
431.71269
431.3387
431.39175
431.37297
431.34171
431.32026
431.3085
431.30417
431.30601
431.31357
431.32691
431.34658
431.37355
431.40989
431.45737
431.52474
431.60476
431.77686
431.81568
432.39346
441.8772
18189.984
16084800
16058565
16058526
16058562
16058795
16059127
16059480
16059845
16060233
16060645
16061115
16061961
16062590
16062914
16063073
16063187
16063299
16063419
16063551
16063697
16063862
16064049
16064264
16064514
16064805
16065393
16066297
16067562
16069360
16071892
16075132
16078189
16079535
16079787
16079998
16080243
16080531
16080872
16081281
16081780
16082390
16083668
16085946
16089766
16096724
16110163
16132624
16145905
16146601
16147242
16148067
16149921
16153598
16160242
16173910
16207110
16304223
16478576
16488457
16489285
16490588
16492825
16497158
16507181
16537460
16664085
16815544
16816290
16817349
16818905
16821268
16825062
16831315
16842068
16860817
16891565
16934632
16982856
17025369
17058782
17082458
17098591
17108630
17114193
17116859
17117995
17118448
17118629
17118713
17118761
17118791
17118812
17118826
17118834
17118840
17118843
17118844
17118843
17118842
17118840
17118837
17118834
17118830
17118827
17118823
17118820
17118816
17118814
17118809
17118816
17118813
17118809
510.71044
436.82334
431.25335
430.87565
430.9279
430.90889
430.8775
430.85596
430.84414
430.83976
430.84158
430.84911
430.86244
430.88212
430.90909
430.94545
430.99295
431.06036
431.14041
431.3126
431.35154
431.92718
441.41056
17801.624
9880686.6
9790694.1
9790617.9
9790714.8
9791320.8
9792188.4
9793119.6
9794084.6
9795114.9
9796211.3
9797467.3
9799753.2
9801441.7
9802296.2
9802698.1
9802971.6
9803240.8
9803530.7
9803849.9
9804207.1
9804611.7
9805074.5
9805609.2
9806233.1
9806968.3
9808508.5
9810908
9814286.6
9819120.7
9825952.5
9834715
9842970.6
9846534.7
9847097.2
9847530.7
9848041.3
9848648.7
9849379.5
9850269.8
9851371.1
9852742.6
9855897.6
9861733.8
9871715.1
9890189.9
9926281.1
9986925.8
10022332
10023098
10023416
10023825
10024744
10026567
10029861
10036636
10053086
10101150
10187207
10192070
10192478
10193120
10194223
10196358
10201297
10216212
10278503
10352802
10353167
10353686
10354449
10355607
10357466
10360529
10365797
10374979
10390030
10411099
10434672
10455436
10471746
10483296
10491165
10496060
10498772
10500071
10500625
10500846
10500934
10500975
10500998
10501013
10501023
10501030
10501034
10501037
10501038
10501039
10501039
10501038
10501037
10501036
10501034
10501032
10501031
10501029
10501027
10501025
10501024
10501022
10501025
10501024
10501022
510.36087
436.24669
430.66653
430.28409
430.33529
430.31599
430.28443
430.26277
430.25088
430.24645
430.24822
430.25574
430.26905
430.28873
430.31571
430.35209
430.39962
430.46707
430.54716
430.71946
430.75855
431.33146
440.8139
17394.386
6551355.8
6405965.5
6405822.7
6406037.7
6407376.2
6409309.9
6411402.5
6413584.7
6415925.3
6418424.1
6421302.6
6426617
6430513.9
6432430.6
6433268.4
6433793
6434300.1
6434849.6
6435460.4
6436150.5
6436939.8
6437852
6438916.7
6440172.5
6441668.4
6445038.1
6450412
6458071.6
6469138.5
6484888.9
6505160
6524180.6
6532032.3
6532687.2
6532923.6
6533201.9
6533533
6533931.4
6534416.7
6535016.9
6535764.5
6537484.8
6540665.8
6546105
6556169.3
6575816.2
6608780.5
6627984.9
6628399.8
6628572.3
6628794
6629293
6630282.3
6632069.6
6635745.4
6644668.6
6670718.8
6717260.8
6719882.6
6720103.1
6720450.2
6721045.8
6722199.5
6724867.7
6732924.3
6766537.9
6806540.1
6806736.7
6807015.9
6807426.2
6808049.3
6809049.3
6810697.6
6813531.2
6818469.6
6826562.5
6837885.2
6850545.8
6861692.1
6870442.5
6876637.8
6880856.9
6883481.4
6884935.3
6885632
6885928.7
6886047
6886094.4
6886116.4
6886128.8
6886136.8
6886142.1
6886145.7
6886148
6886149.4
6886150.2
6886150.5
6886150.4
6886150
6886149.5
6886148.8
6886147.9
6886147
6886146
6886145.1
6886144.2
6886143.1
6886142.7
6886141.5
6886143.2
6886142.5
6886141.4
509.92755
435.5307
429.93784
429.54949
429.5994
429.57971
429.54795
429.52615
429.51416
429.50966
429.51138
429.51887
429.53217
429.55185
429.57884
429.61524
429.66281
429.73032
429.81044
429.98289
430.02217
430.59171
440.07194
16965.404
4532463.2
4410064.1
4409819.8
4410222
4412736.4
4416421.6
4420461.3
4424714.5
4429307.4
4434231.8
4439962.4
4450895.1
4458749.4
4462302.1
4463475.7
4463896.4
4464204.1
4464524.4
4464879.6
4465280.9
4465739.9
4466270.3
4466889.3
4467619.4
4468489.2
4470449.8
4473574.1
4478026.3
4484456.7
4493603.3
4505365.1
4516387.4
4520929.5
4521307.8
4521444.8
4521606
4521797.8
4522028.7
4522309.8
4522657.6
4523090.7
4524088
4525931
4529082.2
4534911.4
4546284.6
4565343.9
4576425.4
4576664.2
4576763.8
4576891.8
4577180.1
4577751.3
4578783.4
4580905.9
4586057.4
4601087.7
4627892.1
4629397.4
4629524.3
4629724
4630066.8
4630730.9
4632266.5
4636902.9
4656232.8
4679191.4
4679304.3
4679464.4
4679699.9
4680057.4
4680631.1
4681576.7
4683202.2
4686034.8
4690675.6
4697166
4704420.1
4710803.8
4715813.5
4719359.4
4721773.9
4723275.5
4724107.4
4724505.9
4724675.7
4724743.4
4724770.5
4724783.1
4724790.2
4724794.7
4724797.8
4724799.9
4724801.2
4724802
4724802.5
4724802.6
4724802.5
4724802.3
4724802
4724801.6
4724801.1
4724800.6
4724800.1
4724799.5
4724799
4724798.4
4724798.1
4724797.4
4724798.4
4724798.1
4724797.4
509.40104
434.65893
429.05048
428.65492
428.70323
428.68308
428.65106
428.62909
428.61697
428.61239
428.61406
428.62151
428.63479
428.65446
428.68147
428.71791
428.76551
428.8331
428.91327
429.08589
429.1254
429.69088
439.16667
16511.851
3231469.4
3156938.6
3156766.3
3157008.8
3158538
3160779.9
3163237.2
3165823.9
3168616.5
3171609.9
3175086.2
3181726.2
3186494.4
3188650.6
3189362.7
3189618
3189804.7
3189999.1
3190214.6
3190458.2
3190736.7
3191058.6
3191434.2
3191877.3
3192405
3193595.8
3195491.8
3198193
3202093.5
3207639
3214764.6
3221434.5
3224178.2
3224406.2
3224489.2
3224586.7
3224702.8
3224842.5
3225012.7
3225223.1
3225485.2
3226089
3227204.5
3229111.5
3232638.4
3239516.7
3251031.6
3257713.8
3257857.4
3257917.5
3257994.8
3258168.8
3258513.6
3259136.6
3260417.6
3263526.6
3272593.3
3288736.3
3289640
3289716.4
3289836.7
3290043
3290442.8
3291367.3
3294158.4
3305788.3
3319577.3
3319645.1
3319741.3
3319882.7
3320097.3
3320441.9
3321009.7
3321985.8
3323686.5
3326472.2
3330367.1
3334718.7
3338546.9
3341550.1
3343675.6
3345122.5
3346022.4
3346520.8
3346759.6
3346861.3
3346901.9
3346918.1
3346925.7
3346929.9
3346932.7
3346934.5
3346935.7
3346936.5
3346937
3346937.3
3346937.4
3346937.3
3346937.2
3346937
3346936.8
3346936.5
3346936.2
3346935.8
3346935.5
3346935.2
3346934.8
3346934.7
3346934.3
3346934.9
3346934.6
3346934.2
508.77067
433.61257
427.98526
427.58099
427.62736
427.60664
427.57432
427.55214
427.53988
427.53519
427.53679
427.54419
427.55746
427.57713
427.60415
427.64062
427.68828
427.75595
427.83618
428.00902
428.04879
428.6095
438.07737
16031.13
2354842.6
2307938.5
2307804.3
2307953.8
2308912.4
2310318.7
2311860
2313482.3
2315233.4
2317110.1
2319284.9
2323444.6
2326430.7
2327780.7
2328226.5
2328386.3
2328503.2
2328624.9
2328759.8
2328912.3
2329086.7
2329288.2
2329523.4
2329800.7
2330131.2
2330877.4
2332064.5
2333755.6
2336197
2339666.6
2344121.9
2348287.5
2349998
2350139.9
2350191.7
2350252.6
2350325.2
2350412.4
2350518.7
2350650.2
2350813.9
2351191.3
2351888.2
2353079.6
2355282.7
2359577.7
2366761.4
2370922.2
2371011.4
2371048.8
2371097
2371205.5
2371420.5
2371808.8
2372607.5
2374545.5
2380195.2
2390239.7
2390800.2
2390847.7
2390922.5
2391050.9
2391299.6
2391874.8
2393611.1
2400842.8
2409403.2
2409445.3
2409505
2409592.8
2409726.1
2409940
2410292.5
2410898.5
2411954.1
2413683
2416099.7
2418798.9
2421172.9
2423034.8
2424352.3
2425249.1
2425806.8
2426115.7
2426263.7
2426326.7
2426351.8
2426361.9
2426366.5
2426369.2
2426370.9
2426372
2426372.8
2426373.3
2426373.6
2426373.7
2426373.8
2426373.8
2426373.7
2426373.6
2426373.4
2426373.2
2426373.1
2426372.9
2426372.6
2426372.5
2426372.2
2426372.1
2426371.9
2426372.2
2426372.1
2426371.9
508.02461
432.37049
426.72052
426.30589
426.34991
426.32851
426.29582
426.27339
426.26095
426.25614
426.25766
426.26501
426.27824
426.29791
426.32495
426.36147
426.40918
426.47697
426.55726
426.73036
426.77043
427.32564
436.78042
15521.006
1744094.6
1713810.9
1713696
1713789.1
1714403.4
1715305.7
1716294.7
1717335.7
1718459.2
1719663.1
1721055
1723721.8
1725635.7
1726500.7
1726786.3
1726888.7
1726963.5
1727041.5
1727128
1727225.6
1727337.4
1727466.5
1727617.2
1727794.9
1728006.6
1728485.3
1729246.1
1730329.9
1731894
1734116.3
1736968.1
1739631.6
1740723.2
1740813.6
1740846.7
1740885.7
1740932.1
1740987.9
1741055.9
1741140
1741244.7
1741486.3
1741932.1
1742694.2
1744103.4
1746849.9
1751439.7
1754093.2
1754149.9
1754173.8
1754204.6
1754273.9
1754411.1
1754659.1
1755169.1
1756406.7
1760013.2
1766416.6
1766772.7
1766803
1766850.6
1766932.5
1767091
1767457.7
1768564.6
1773173
1778619.9
1778646.6
1778684.6
1778740.5
1778825.3
1778961.4
1779185.8
1779571.4
1780243.1
1781343
1782880.2
1784596.7
1786106
1787289.4
1788126.7
1788696.7
1789051
1789247.3
1789341.4
1789381.4
1789397.4
1789403.8
1789406.7
1789408.4
1789409.5
1789410.2
1789410.7
1789411
1789411.2
1789411.3
1789411.3
1789411.3
1789411.3
1789411.2
1789411.1
1789411
1789410.9
1789410.7
1789410.6
1789410.5
1789410.3
1789410.3
1789410.1
1789410.3
1789410.3
1789410.1
507.14987
430.90912
425.23217
424.80529
424.84649
424.82429
424.79116
424.76843
424.75578
424.75082
424.75224
424.75952
424.77273
424.79239
424.81945
424.85602
424.90381
424.97171
425.05208
425.22549
425.26591
425.8149
435.24924
14979.729
1307649.6
1287686.6
1287579.8
1287637.2
1288037.2
1288625.9
1289271.5
1289951
1290684.3
1291470.1
1292376.5
1294116.2
1295364.4
1295928.4
1296114.6
1296181.4
1296230.1
1296281
1296337.3
1296401
1296473.9
1296558
1296656.3
1296772.2
1296910.3
1297222.8
1297719
1298425.8
1299445.8
1300894.5
1302752.5
1304486.1
1305195.2
1305253.9
1305275.4
1305300.8
1305331
1305367.3
1305411.6
1305466.3
1305534.5
1305691.9
1305982.3
1306478.6
1307396.3
1309184.3
1312170.2
1313893.2
1313929.9
1313945.5
1313965.4
1314010.5
1314099.8
1314261
1314592.7
1315397.4
1317742.1
1321899.6
1322130.1
1322149.7
1322180.7
1322233.8
1322336.8
1322574.8
1323293.6
1326285.3
1329816
1329833.4
1329858
1329894.2
1329949.2
1330037.5
1330182.9
1330432.9
1330868.4
1331581.4
1332577.7
1333689.9
1334667.7
1335434.2
1335976.5
1336345.6
1336575.1
1336702.2
1336763.1
1336789
1336799.3
1336803.5
1336805.4
1336806.5
1336807.2
1336807.7
1336808
1336808.2
1336808.3
1336808.4
1336808.4
1336808.4
1336808.3
1336808.3
1336808.2
1336808.2
1336808.1
1336808
1336807.9
1336807.8
1336807.7
1336807.7
1336807.6
1336807.7
1336807.7
1336807.6
506.13241
429.20255
423.49363
423.05236
423.0902
423.06703
423.03338
423.0103
422.9974
422.99227
422.99356
423.00078
423.01394
423.0336
423.06069
423.09731
423.14518
423.21324
423.2937
423.46747
423.50827
424.05038
433.45411
14406.14
989626.79
976231.61
976125.72
976159.89
976423.19
976812.08
977238.86
977688.19
978173.19
978692.78
979290.86
980440.88
981265.84
981638.56
981761.55
981805.61
981837.81
981871.37
981908.59
981950.65
981998.78
982054.4
982119.34
982195.92
982287.16
982493.92
982821.98
983289.2
983963.36
984920.59
986147.66
987291.34
987758.28
987796.79
987811.02
987827.76
987847.69
987871.66
987900.88
987937.01
987982.01
988085.98
988277.66
988605.34
989211.16
990391.33
992360.68
993495.04
993519.13
993529.37
993542.55
993572.28
993631.12
993737.45
993956.12
994486.73
996032.43
998769.88
998921.07
998934.02
998954.4
998989.39
999057.18
999213.97
999687.33
1001657.1
1003978.5
1003990
1004006.2
1004030
1004066.1
1004124.2
1004219.9
1004384.3
1004670.7
1005139.5
1005794.5
1006525.6
1007168.3
1007672
1008028.3
1008270.8
1008421.6
1008505.1
1008545.1
1008562.1
1008568.9
1008571.6
1008572.9
1008573.6
1008574.1
1008574.4
1008574.6
1008574.7
1008574.8
1008574.8
1008574.9
1008574.9
1008574.8
1008574.8
1008574.8
1008574.7
1008574.7
1008574.6
1008574.5
1008574.5
1008574.4
1008574.4
1008574.3
1008574.4
1008574.4
1008574.3
504.95724
427.22241
421.47577
421.0177
421.05155
421.02723
420.99297
420.96947
420.95628
420.95094
420.9521
420.95922
420.97234
420.99199
421.01911
421.0558
421.10377
421.17199
421.25256
421.42677
421.46798
422.00271
431.36201
13799.789
754373.1
745238.97
745129.01
745147.48
745321.85
745581.02
745865.83
746165.86
746489.78
746836.82
747235.41
748003.42
748554.25
748803.06
748885.12
748914.48
748935.94
748958.31
748983.13
749011.19
749043.3
749080.43
749123.77
749174.89
749235.8
749374.03
749593.14
749905.2
750355.43
750994.54
751813.41
752575.85
752886.53
752912.1
752921.58
752932.74
752946.02
752962.01
752981.49
753005.58
753035.6
753104.99
753232.88
753451.51
753855.69
754642.92
755955.7
756710.48
756726.46
756733.28
756742.06
756761.87
756801.08
756871.94
757017.67
757371.31
758401.31
760223.31
760323.59
760332.21
760345.77
760369.06
760414.19
760518.57
760833.73
762144.91
763688.09
763695.68
763706.45
763722.28
763746.33
763784.93
763848.55
763957.88
764148.32
764460.06
764895.51
765381.45
765808.54
766143.24
766380.02
766541.14
766641.31
766696.79
766723.37
766734.69
766739.2
766741.01
766741.85
766742.32
766742.63
766742.83
766742.97
766743.05
766743.11
766743.14
766743.14
766743.14
766743.12
766743.1
766743.07
766743.04
766743
766742.96
766742.93
766742.89
766742.85
766742.83
766742.78
766742.85
766742.82
766742.77
503.60853
424.93793
419.14695
418.66932
418.69846
418.67279
418.63781
418.61382
418.60029
418.59471
418.5957
418.60272
418.61578
418.63542
418.66257
418.69934
418.74742
418.81585
418.89654
419.07127
419.11291
419.64002
428.9365
13161.037
578290.46
571963.96
571846.28
571853.7
571969.26
572142.94
572334.26
572536.02
572753.95
572987.51
573255.18
573772.1
574142.81
574310.19
574365.35
574385.05
574399.44
574414.45
574431.11
574449.97
574471.55
574496.51
574525.66
574560.05
574601.03
574694.18
574841.7
575051.81
575354.91
575785.09
576335.98
576848.41
577056.8
577073.91
577080.27
577087.77
577096.69
577107.43
577120.53
577136.73
577156.9
577203.6
577289.63
577436.69
577708.57
578238.02
579120.38
579626.77
579637.45
579642.03
579647.92
579661.24
579687.58
579735.2
579833.13
580070.79
580762.92
581985.85
582052.92
582058.7
582067.81
582083.44
582113.73
582183.81
582395.42
583275.68
584310.31
584315.4
584322.62
584333.24
584349.37
584375.25
584417.92
584491.26
584618.98
584828.05
585120.05
585445.85
585732.16
585956.51
586115.22
586223.2
586290.34
586327.52
586345.33
586352.92
586355.95
586357.16
586357.72
586358.04
586358.24
586358.38
586358.47
586358.53
586358.56
586358.58
586358.59
586358.58
586358.57
586358.55
586358.53
586358.51
586358.48
586358.46
586358.43
586358.41
586358.38
586358.36
586358.33
586358.37
586358.36
586358.32
502.0698
422.31596
416.473
415.97272
415.99631
415.96903
415.93322
415.90866
415.89473
415.88887
415.88966
415.89655
415.90955
415.92918
415.95636
415.99322
416.04143
416.11009
416.19093
416.36625
416.40834
416.92792
426.13767
12491.159
445278.28
440825.71
440697.37
440696.59
440772.71
440889.33
441018.36
441154.67
441302.06
441460.11
441640.88
441990.92
442241.9
442355.17
442392.44
442405.7
442415.38
442425.49
442436.73
442449.46
442464.04
442480.91
442500.62
442523.89
442551.63
442614.78
442714.72
442857.06
443062.4
443353.77
443726.74
444073.33
444213.99
444225.5
444229.79
444234.86
444240.89
444248.15
444257
444267.95
444281.6
444313.22
444371.45
444471.01
444655.07
445013.45
445610.36
445952.3
445959.49
445962.58
445966.56
445975.56
445993.38
446025.58
446091.82
446252.59
446720.73
447546.99
447592.15
447596.05
447602.2
447612.76
447633.23
447680.59
447823.62
448418.53
449116.87
449120.31
449125.18
449132.34
449143.23
449160.71
449189.53
449239.05
449325.3
449466.46
449663.6
449883.53
450076.78
450228.19
450335.3
450408.17
450453.48
450478.57
450490.59
450495.71
450497.75
450498.57
450498.95
450499.17
450499.3
450499.39
450499.46
450499.49
450499.52
450499.53
450499.53
450499.52
450499.52
450499.5
450499.49
450499.47
450499.45
450499.43
450499.42
450499.4
450499.38
450499.37
450499.34
450499.37
450499.36
450499.33
500.32416
419.32109
413.41731
412.89087
412.90793
412.87878
412.84198
412.81676
412.80235
412.79616
412.79673
412.80348
412.81639
412.836
412.86323
412.90019
412.94854
413.01748
413.09848
413.27452
413.31703
413.82953
422.9221
11792.417
344072.05
340884.34
340742.78
340735.53
340784.78
340862.9
340949.99
341042.3
341142.31
341249.65
341372.23
341610.33
341781.02
341857.99
341883.25
341892.19
341898.7
341905.51
341913.1
341921.71
341931.58
341943.02
341956.4
341972.21
341991.06
342034.07
342102.1
342199
342338.79
342537.12
342790.88
343026.47
343121.88
343129.66
343132.56
343135.99
343140.08
343145.01
343151.01
343158.45
343167.73
343189.25
343228.86
343296.59
343421.82
343665.64
344071.5
344303.58
344308.43
344310.53
344313.22
344319.34
344331.45
344353.34
344398.37
344507.68
344825.96
345387.13
345417.68
345420.33
345424.5
345431.67
345445.57
345477.75
345574.93
345979.11
346452.97
346455.3
346458.6
346463.46
346470.85
346482.72
346502.28
346535.9
346594.45
346690.29
346824.1
346973.36
347104.51
347207.25
347279.93
347329.38
347360.12
347377.14
347385.3
347388.78
347390.17
347390.72
347390.98
347391.13
347391.22
347391.28
347391.32
347391.34
347391.36
347391.36
347391.36
347391.36
347391.35
347391.34
347391.33
347391.32
347391.3
347391.29
347391.27
347391.26
347391.25
347391.24
347391.22
347391.24
347391.23
347391.21
498.35464
415.91582
409.94096
409.38442
409.39382
409.36246
409.32451
409.29851
409.28356
409.27699
409.27728
409.28386
409.29668
409.31627
409.34354
409.38062
409.42914
409.49838
409.57956
409.75644
409.79934
410.30574
419.24285
11068.119
266625.59
264300.7
264143.56
264130.8
264161.44
264213.29
264271.89
264334.37
264402.27
264475.3
264558.62
264721.11
264837.57
264890.01
264907.14
264913.13
264917.48
264922.05
264927.16
264932.98
264939.67
264947.43
264956.53
264967.29
264980.13
265009.52
265056
265122.21
265217.74
265353.25
265526.58
265687.34
265752.31
265757.57
265759.54
265761.86
265764.63
265767.98
265772.07
265777.14
265783.46
265798.15
265825.2
265871.46
265957
266123.54
266400.61
266558.76
266562.05
266563.47
266565.3
266569.47
266577.73
266592.66
266623.4
266698.02
266915.3
267297.99
267318.75
267320.55
267323.39
267328.27
267337.75
267359.7
267426.01
267701.76
268024.64
268026.23
268028.47
268031.78
268036.82
268044.91
268058.25
268081.17
268121.1
268186.43
268277.65
268379.4
268468.79
268538.81
268588.34
268622.04
268642.99
268654.6
268660.16
268662.53
268663.48
268663.86
268664.03
268664.13
268664.19
268664.24
268664.26
268664.28
268664.28
268664.29
268664.28
268664.28
268664.27
268664.26
268664.25
268664.24
268664.23
268664.22
268664.21
268664.2
268664.18
268664.18
268664.16
268664.17
268664.16
268664.15
496.14464
412.06081
406.00299
405.41189
405.4123
405.37834
405.33906
405.31217
405.29658
405.28955
405.28954
405.29591
405.30862
405.32818
405.35549
405.3927
405.44141
405.51101
405.5924
405.77026
405.81345
406.31542
415.0495
10322.624
207092.62
205362.86
205187.85
205169.98
205187.44
205221.16
205260.21
205302.28
205348.29
205397.94
205454.6
205565.7
205645.31
205681.07
205692.65
205696.63
205699.49
205702.52
205705.93
205709.83
205714.35
205719.61
205725.78
205733.1
205741.86
205761.99
205793.82
205839.18
205904.65
205997.52
206116.27
206226.3
206270.66
206274.23
206275.55
206277.12
206279
206281.27
206284.05
206287.51
206291.82
206301.88
206320.4
206352.09
206410.7
206524.81
206714.56
206822.67
206824.91
206825.87
206827.11
206829.96
206835.6
206845.82
206866.86
206917.97
207066.78
207328.61
207342.76
207343.98
207345.92
207349.26
207355.74
207370.76
207416.14
207604.9
207825.64
207826.72
207828.26
207830.52
207833.96
207839.49
207848.62
207864.31
207891.62
207936.33
207998.73
208068.33
208129.48
208177.37
208211.25
208234.3
208248.63
208256.57
208260.38
208262
208262.65
208262.91
208263.03
208263.1
208263.14
208263.17
208263.18
208263.19
208263.19
208263.19
208263.19
208263.18
208263.17
208263.17
208263.16
208263.15
208263.14
208263.12
208263.11
208263.1
208263.09
208263.09
208263.08
208263.08
208263.07
208263.05
493.67847
407.71535
401.56071
400.93004
400.91993
400.88292
400.84209
400.81414
400.79781
400.79026
400.78988
400.79601
400.80859
400.82812
400.85548
400.89283
400.94175
401.01176
401.09339
401.2724
401.31573
401.81581
410.28844
9561.3103
161165.36
159851.53
159656.34
159633.4
159641.2
159662.19
159687.68
159715.69
159746.64
159780.25
159818.69
159894.7
159949.14
159973.48
159981.25
159983.81
159985.64
159987.59
159989.82
159992.41
159995.42
159998.95
160003.12
160008.09
160014.04
160027.84
160049.67
160080.81
160125.77
160189.55
160271.09
160346.57
160376.93
160379.34
160380.22
160381.27
160382.53
160384.07
160385.96
160388.31
160391.25
160398.15
160410.85
160432.61
160472.86
160551.24
160681.52
160755.61
160757.12
160757.76
160758.6
160760.54
160764.41
160771.41
160785.85
160820.94
160923.12
161102.73
161112.39
161113.22
161114.54
161116.82
161121.26
161131.56
161162.71
161292.25
161443.58
161444.32
161445.36
161446.91
161449.27
161453.06
161459.33
161470.09
161488.84
161519.52
161562.34
161610.09
161652.04
161684.89
161708.14
161723.96
161733.79
161739.24
161741.85
161742.97
161743.41
161743.59
161743.68
161743.72
161743.75
161743.77
161743.78
161743.78
161743.78
161743.77
161743.77
161743.76
161743.75
161743.74
161743.73
161743.72
161743.71
161743.7
161743.69
161743.68
161743.67
161743.66
161743.65
161743.65
161743.64
161743.63
490.94206
402.83787
396.57027
395.89437
395.87195
395.83135
395.78871
395.75954
395.74235
395.73419
395.73338
395.73924
395.75166
395.77113
395.79854
395.83606
395.88522
395.95568
396.03758
396.21794
396.26119
396.7631
404.90316
8790.4878
125633.08
124615.05
124397.37
124369.03
124369.47
124381.32
124397.25
124415.43
124435.93
124458.45
124484.37
124536.3
124573.45
124589.94
124595.05
124596.61
124597.69
124598.88
124600.28
124601.94
124603.9
124606.24
124609.02
124612.36
124616.39
124625.83
124640.8
124662.19
124693.1
124736.98
124793.06
124844.93
124865.72
124867.33
124867.9
124868.59
124869.43
124870.46
124871.73
124873.32
124875.32
124880.04
124888.77
124903.72
124931.42
124985.35
125074.97
125125.84
125126.86
125127.29
125127.85
125129.17
125131.81
125136.62
125146.54
125170.67
125240.97
125364.44
125371.05
125371.61
125372.5
125374.06
125377.11
125384.18
125405.6
125494.69
125598.65
125599.15
125599.87
125600.93
125602.55
125605.16
125609.47
125616.88
125629.78
125650.89
125680.35
125713.19
125742.05
125764.65
125780.64
125791.52
125798.29
125802.04
125803.84
125804.61
125804.92
125805.05
125805.11
125805.14
125805.15
125805.16
125805.17
125805.16
125805.16
125805.15
125805.15
125805.14
125805.13
125805.11
125805.1
125805.09
125805.08
125805.07
125805.06
125805.05
125805.04
125805.03
125805.02
125805.01
125805
125804.98
487.92382
397.38679
390.9873
390.25984
390.22299
390.17817
390.13342
390.10284
390.08465
390.07577
390.07447
390.07999
390.09222
390.11163
390.13909
390.17679
390.22621
390.2972
390.37939
390.56133
390.60414
391.11307
398.83479
8017.2478
98080.143
97277.88
97035.374
97001.043
96995.503
97000.558
97009.592
97020.792
97033.946
97048.726
97065.957