/*--------------------------------*- C++ -*----------------------------------*\
| =========                 |                                                 |
| \\      /  F ield         | OpenFOAM: The Open Source CFD Toolbox           |
|  \\    /   O peration     | Version:  2206                                  |
|   \\  /    A nd           | Website:  www.openfoam.com                      |
|    \\/     M anipulation  |                                                 |
\*---------------------------------------------------------------------------*/
FoamFile
{
    version     2.0;
    format      ascii;
    arch        "LSB;label=32;scalar=64";
    class       volScalarField;
    location    "1100";
    object      p;
}
// * * * * * * * * * * * * * * * * * * * * * * * * * * * * * * * * * * * * * //

dimensions      [0 2 -2 0 0 0 0];

internalField   nonuniform List<scalar> 
13056
(
0.012027769
0.012131538
0.012351315
0.012631829
0.012971719
0.013371242
0.013828527
0.01434278
0.014915331
0.015549412
0.016250033
0.01702433
0.017882172
0.018837516
0.019909313
0.021126874
0.022526959
0.024185636
0.02616337
0.028752239
0.031872668
0.037313535
0.042402164
0.080953389
0.051268013
0.0023524236
0.001027669
0.0019014988
0.0024528943
0.0028960635
0.0031655801
0.0033550901
0.003499016
0.0036028241
0.0036760325
0.0037284322
0.0037662602
0.0037931326
0.0038113717
0.003822994
0.0038294324
0.0038315444
0.0038301417
0.0038258991
0.0038192137
0.003810409
0.0037997681
0.003787507
0.0037738087
0.003758802
0.0037425668
0.0037251849
0.0037067175
0.0036872126
0.0036667137
0.0036452262
0.0036227411
0.0035992615
0.0035747768
0.0035492681
0.0035227119
0.0034950815
0.0034663218
0.0034363598
0.0034051234
0.0033725359
0.0033385219
0.0033029973
0.0032658709
0.0032270612
0.0031864708
0.0031439793
0.0030994708
0.0030528365
0.0030039665
0.0029527896
0.0028992591
0.0028434172
0.0027853303
0.0027250142
0.0026627002
0.0025986566
0.0025332421
0.0024673217
0.0024022067
0.0023397581
0.0022827667
0.0022352405
0.0022017388
0.0021865911
0.0021988589
0.0022434467
0.0023243562
0.00245119
0.0026284835
0.0028568848
0.003130367
0.0034428214
0.0037834951
0.0041072431
0.0043642413
0.0045208887
0.0045797597
0.0045507815
0.0044539345
0.0043282815
0.0041856624
0.0040359623
0.0038839881
0.003728761
0.0035735044
0.0034162781
0.0032533509
0.0030888886
0.0029245884
0.0027617805
0.0026025624
0.0024457293
0.0022902516
0.0021389701
0.0019916901
0.001846793
0.001704738
0.0015671667
0.0014339839
0.0013036317
0.0011769149
0.0010544809
0.00093849515
0.00082855111
0.00072716988
0.00063084721
0.0005686193
0.00048185656
0.00066726213
-0.00051330943
0.012027769
0.012131538
0.012351315
0.012631829
0.01297172
0.013371242
0.013828528
0.01434278
0.014915331
0.015549413
0.016250033
0.017024331
0.017882173
0.018837517
0.019909314
0.021126876
0.022526962
0.024185639
0.026163374
0.028752246
0.031872677
0.037313553
0.042402203
0.080948587
0.051279339
0.0023596604
0.0010295212
0.0019023371
0.0024534079
0.0028964246
0.0031658531
0.0033553071
0.0034991936
0.0036029729
0.0036761595
0.0037285421
0.0037663565
0.0037932178
0.0038114477
0.0038230622
0.003829494
0.0038316004
0.0038301929
0.003825946
0.0038192568
0.0038104488
0.003799805
0.0037875412
0.0037738406
0.0037588318
0.0037425946
0.0037252109
0.003706742
0.0036872356
0.0036667353
0.0036452465
0.0036227604
0.0035992796
0.0035747939
0.0035492844
0.0035227273
0.0034950961
0.0034663356
0.0034363729
0.0034051358
0.0033725477
0.0033385331
0.0033030079
0.003265881
0.0032270709
0.00318648
0.003143988
0.003099479
0.0030528443
0.0030039739
0.0029527966
0.0028992657
0.0028434234
0.0027853361
0.0027250196
0.0026627053
0.0025986613
0.0025332464
0.0024673256
0.0024022102
0.0023397611
0.0022827692
0.0022352426
0.0022017404
0.002186592
0.002198859
0.0022434462
0.0023243549
0.0024511877
0.0026284803
0.0028568808
0.0031303621
0.0034428159
0.0037834891
0.004107237
0.0043642355
0.0045208838
0.0045797556
0.0045507787
0.0044539324
0.0043282801
0.0041856615
0.0040359616
0.0038839877
0.0037287608
0.0035735043
0.0034162781
0.003253351
0.0030888888
0.0029245887
0.0027617808
0.0026025628
0.0024457297
0.002290252
0.0021389706
0.0019916906
0.0018467935
0.0017047385
0.0015671672
0.0014339844
0.0013036322
0.0011769154
0.0010544814
0.00093849562
0.00082855157
0.00072717034
0.00063084767
0.0005686198
0.00048185709
0.00066726269
-0.00051330908
0.012027769
0.012131538
0.012351315
0.012631829
0.01297172
0.013371242
0.013828528
0.01434278
0.014915332
0.015549413
0.016250034
0.017024332
0.017882174
0.018837518
0.019909316
0.021126879
0.022526964
0.024185643
0.026163379
0.028752253
0.031872686
0.037313574
0.042402232
0.080943732
0.051294917
0.0023666779
0.0010317179
0.0019033394
0.0024540219
0.0028968564
0.0031661796
0.0033555665
0.0034994061
0.0036031508
0.0036763112
0.0037286736
0.0037664717
0.0037933196
0.0038115385
0.0038231438
0.0038295678
0.0038316674
0.0038302541
0.0038260021
0.0038193084
0.0038104965
0.0037998491
0.0037875822
0.0037738787
0.0037588674
0.0037426279
0.0037252421
0.0037067712
0.0036872631
0.0036667611
0.0036452709
0.0036227833
0.0035993014
0.0035748145
0.0035493038
0.0035227457
0.0034951135
0.0034663521
0.0034363886
0.0034051507
0.0033725619
0.0033385465
0.0033030207
0.0032658931
0.0032270824
0.0031864909
0.0031439984
0.0030994888
0.0030528537
0.0030039827
0.002952805
0.0028992736
0.0028434309
0.0027853431
0.0027250262
0.0026627114
0.0025986669
0.0025332515
0.0024673303
0.0024022144
0.0023397648
0.0022827723
0.0022352451
0.0022017422
0.0021865931
0.0021988593
0.0022434455
0.0023243532
0.002451185
0.0026284765
0.0028568759
0.0031303563
0.0034428092
0.0037834818
0.0041072296
0.0043642287
0.0045208779
0.0045797507
0.0045507753
0.00445393
0.0043282785
0.0041856603
0.0040359609
0.0038839873
0.0037287605
0.0035735042
0.0034162782
0.0032533512
0.0030888891
0.002924589
0.0027617813
0.0026025633
0.0024457302
0.0022902526
0.0021389712
0.0019916912
0.0018467941
0.0017047391
0.0015671678
0.001433985
0.0013036328
0.0011769159
0.001054482
0.00093849618
0.00082855213
0.00072717089
0.00063084822
0.00056862041
0.00048185773
0.00066726335
-0.00051330867
0.012027769
0.012131538
0.012351315
0.012631829
0.01297172
0.013371242
0.013828528
0.014342781
0.014915332
0.015549414
0.016250035
0.017024333
0.017882175
0.018837519
0.019909317
0.021126881
0.022526967
0.024185647
0.026163384
0.028752261
0.031872696
0.037313592
0.04240226
0.08093899
0.051312294
0.0023718698
0.0010337846
0.0019043214
0.0024546236
0.0028972794
0.0031664994
0.0033558208
0.0034996142
0.0036033251
0.00367646
0.0037288023
0.0037665845
0.0037934194
0.0038116276
0.0038232238
0.0038296401
0.0038317331
0.003830314
0.003826057
0.003819359
0.0038105432
0.0037998923
0.0037876223
0.0037739161
0.0037589022
0.0037426605
0.0037252726
0.0037067998
0.00368729
0.0036667865
0.0036452947
0.0036228058
0.0035993226
0.0035748346
0.0035493228
0.0035227637
0.0034951306
0.0034663683
0.0034364039
0.0034051653
0.0033725757
0.0033385597
0.0033030332
0.003265905
0.0032270937
0.0031865016
0.0031440085
0.0030994985
0.0030528628
0.0030039914
0.0029528132
0.0028992813
0.0028434381
0.0027853499
0.0027250326
0.0026627173
0.0025986724
0.0025332566
0.0024673349
0.0024022184
0.0023397684
0.0022827754
0.0022352475
0.0022017439
0.0021865941
0.0021988595
0.0022434449
0.0023243516
0.0024511824
0.0026284728
0.0028568712
0.0031303507
0.0034428028
0.0037834748
0.0041072224
0.0043642219
0.0045208721
0.0045797461
0.004550772
0.0044539277
0.0043282768
0.0041856592
0.0040359601
0.0038839868
0.0037287602
0.0035735041
0.0034162782
0.0032533513
0.0030888893
0.0029245894
0.0027617817
0.0026025637
0.0024457307
0.0022902531
0.0021389718
0.0019916917
0.0018467947
0.0017047397
0.0015671684
0.0014339856
0.0013036333
0.0011769165
0.0010544825
0.00093849673
0.00082855267
0.00072717144
0.00063084876
0.000568621
0.00048185832
0.00066726401
-0.00051330828
0.012027769
0.012131538
0.012351315
0.012631829
0.01297172
0.013371243
0.013828528
0.014342781
0.014915333
0.015549414
0.016250035
0.017024334
0.017882176
0.018837521
0.019909319
0.021126883
0.02252697
0.024185651
0.026163389
0.028752268
0.031872706
0.037313611
0.042402293
0.080933911
0.05133077
0.0023776443
0.0010358747
0.0019053267
0.0024552396
0.0028977126
0.003166827
0.0033560811
0.0034998274
0.0036035035
0.0036766122
0.0037289342
0.0037667
0.0037935216
0.0038117187
0.0038233057
0.003829714
0.0038318003
0.0038303754
0.0038261133
0.0038194108
0.003810591
0.0037999366
0.0037876634
0.0037739544
0.0037589379
0.0037426938
0.0037253039
0.0037068292
0.0036873176
0.0036668124
0.0036453192
0.0036228289
0.0035993444
0.0035748551
0.0035493423
0.0035227821
0.0034951481
0.0034663849
0.0034364197
0.0034051802
0.0033725899
0.0033385732
0.003303046
0.0032659172
0.0032271052
0.0031865126
0.0031440189
0.0030995084
0.0030528722
0.0030040002
0.0029528216
0.0028992892
0.0028434456
0.0027853569
0.0027250391
0.0026627234
0.0025986781
0.0025332617
0.0024673395
0.0024022226
0.002339772
0.0022827785
0.00223525
0.0022017458
0.0021865952
0.0021988597
0.0022434442
0.00232435
0.0024511797
0.0026284691
0.0028568663
0.0031303449
0.0034427961
0.0037834675
0.004107215
0.004364215
0.0045208662
0.0045797415
0.0045507686
0.0044539252
0.0043282752
0.0041856581
0.0040359594
0.0038839863
0.0037287599
0.003573504
0.0034162782
0.0032533515
0.0030888896
0.0029245897
0.0027617821
0.0026025642
0.0024457313
0.0022902537
0.0021389724
0.0019916923
0.0018467953
0.0017047403
0.001567169
0.0014339862
0.0013036339
0.0011769171
0.0010544831
0.00093849729
0.00082855322
0.000727172
0.00063084931
0.0005686216
0.00048185893
0.00066726467
-0.00051330788
0.012027769
0.012131538
0.012351315
0.012631829
0.01297172
0.013371243
0.013828529
0.014342781
0.014915333
0.015549415
0.016250036
0.017024334
0.017882177
0.018837522
0.019909321
0.021126885
0.022526973
0.024185655
0.026163394
0.028752277
0.031872716
0.03731363
0.042402331
0.080928273
0.051350028
0.002384838
0.0010380974
0.0019063943
0.002455894
0.0028981727
0.0031671749
0.0033563575
0.0035000537
0.0036036931
0.003676774
0.0037290743
0.0037668227
0.0037936302
0.0038118155
0.0038233926
0.0038297926
0.0038318717
0.0038304405
0.003826173
0.0038194657
0.0038106417
0.0037999836
0.0037877071
0.003773995
0.0037589758
0.0037427293
0.0037253371
0.0037068603
0.0036873468
0.0036668399
0.0036453451
0.0036228534
0.0035993675
0.003574877
0.003549363
0.0035228017
0.0034951667
0.0034664025
0.0034364364
0.0034051961
0.0033726049
0.0033385875
0.0033030596
0.0032659301
0.0032271175
0.0031865242
0.00314403
0.0030995189
0.0030528821
0.0030040096
0.0029528305
0.0028992976
0.0028434535
0.0027853644
0.002725046
0.0026627299
0.002598684
0.0025332672
0.0024673445
0.0024022271
0.0023397759
0.0022827818
0.0022352526
0.0022017477
0.0021865963
0.0021988599
0.0022434435
0.0023243482
0.0024511769
0.002628465
0.0028568612
0.0031303387
0.0034427891
0.0037834599
0.0041072071
0.0043642077
0.0045208599
0.0045797366
0.004550765
0.0044539227
0.0043282734
0.0041856568
0.0040359585
0.0038839858
0.0037287597
0.0035735038
0.0034162782
0.0032533516
0.0030888898
0.0029245901
0.0027617825
0.0026025647
0.0024457318
0.0022902543
0.002138973
0.001991693
0.0018467959
0.0017047409
0.0015671696
0.0014339868
0.0013036345
0.0011769177
0.0010544837
0.00093849789
0.00082855381
0.00072717259
0.0006308499
0.00056862224
0.00048185957
0.00066726538
-0.00051330746
0.012027769
0.012131538
0.012351315
0.012631829
0.01297172
0.013371243
0.013828529
0.014342782
0.014915334
0.015549415
0.016250037
0.017024336
0.017882179
0.018837524
0.019909323
0.021126888
0.022526977
0.02418566
0.0261634
0.028752286
0.031872728
0.03731365
0.042402376
0.080921964
0.051370299
0.0023927827
0.0010404925
0.0019075434
0.0024565984
0.002898668
0.0031675494
0.0033566552
0.0035002974
0.0036038971
0.003676948
0.003729225
0.0037669548
0.003793747
0.0038119197
0.0038234862
0.0038298772
0.0038319486
0.0038305107
0.0038262373
0.0038195249
0.0038106964
0.0038000342
0.0037877541
0.0037740387
0.0037590166
0.0037427674
0.0037253728
0.0037068938
0.0036873783
0.0036668696
0.0036453731
0.0036228797
0.0035993924
0.0035749005
0.0035493852
0.0035228228
0.0034951866
0.0034664215
0.0034364544
0.0034052131
0.0033726212
0.0033386028
0.0033030742
0.003265944
0.0032271307
0.0031865368
0.0031440419
0.0030995301
0.0030528928
0.0030040198
0.00295284
0.0028993067
0.002843462
0.0027853724
0.0027250535
0.0026627368
0.0025986905
0.0025332731
0.0024673499
0.0024022319
0.0023397801
0.0022827853
0.0022352555
0.0022017498
0.0021865975
0.0021988602
0.0022434428
0.0023243464
0.0024511738
0.0026284607
0.0028568556
0.003130332
0.0034427815
0.0037834516
0.0041071987
0.0043641998
0.0045208531
0.0045797312
0.0045507611
0.0044539199
0.0043282715
0.0041856555
0.0040359577
0.0038839852
0.0037287594
0.0035735037
0.0034162783
0.0032533518
0.0030888901
0.0029245904
0.002761783
0.0026025653
0.0024457324
0.0022902549
0.0021389737
0.0019916937
0.0018467966
0.0017047416
0.0015671703
0.0014339875
0.0013036352
0.0011769184
0.0010544843
0.00093849853
0.00082855444
0.00072717322
0.00063085053
0.00056862293
0.00048186026
0.00066726614
-0.00051330701
0.012027769
0.012131538
0.012351315
0.01263183
0.012971721
0.013371243
0.013828529
0.014342782
0.014915334
0.015549416
0.016250038
0.017024337
0.01788218
0.018837526
0.019909326
0.021126891
0.022526981
0.024185665
0.026163407
0.028752296
0.031872741
0.037313672
0.042402429
0.080914849
0.051391854
0.0024013133
0.0010430893
0.0019087893
0.0024573623
0.0028992052
0.0031679555
0.0033569779
0.0035005616
0.0036041184
0.0036771368
0.0037293885
0.003767098
0.0037938737
0.0038120327
0.0038235877
0.0038299689
0.0038320319
0.0038305868
0.0038263071
0.0038195891
0.0038107556
0.003800089
0.003787805
0.0037740861
0.0037590609
0.0037428088
0.0037254115
0.0037069302
0.0036874125
0.0036669017
0.0036454034
0.0036229083
0.0035994194
0.0035749261
0.0035494094
0.0035228457
0.0034952083
0.003466442
0.0034364738
0.0034052316
0.0033726387
0.0033386195
0.00330309
0.003265959
0.003227145
0.0031865504
0.0031440548
0.0030995424
0.0030529044
0.0030040308
0.0029528504
0.0028993165
0.0028434713
0.002785381
0.0027250616
0.0026627444
0.0025986974
0.0025332795
0.0024673557
0.002402237
0.0023397846
0.0022827892
0.0022352586
0.002201752
0.0021865988
0.0021988605
0.0022434419
0.0023243443
0.0024511705
0.002628456
0.0028568496
0.0031303248
0.0034427733
0.0037834426
0.0041071895
0.0043641912
0.0045208458
0.0045797255
0.0045507568
0.0044539169
0.0043282694
0.0041856541
0.0040359567
0.0038839846
0.003728759
0.0035735036
0.0034162783
0.003253352
0.0030888904
0.0029245909
0.0027617835
0.0026025659
0.0024457331
0.0022902556
0.0021389744
0.0019916944
0.0018467973
0.0017047423
0.0015671711
0.0014339882
0.0013036359
0.0011769191
0.001054485
0.00093849923
0.00082855513
0.00072717391
0.00063085121
0.00056862368
0.00048186101
0.00066726697
-0.00051330652
0.012027769
0.012131538
0.012351315
0.01263183
0.012971721
0.013371244
0.01382853
0.014342783
0.014915335
0.015549417
0.016250039
0.017024338
0.017882182
0.018837528
0.019909328
0.021126895
0.022526985
0.024185671
0.026163415
0.028752307
0.031872756
0.037313697
0.042402492
0.080906752
0.051414923
0.0024105636
0.0010459241
0.0019101499
0.0024581967
0.0028997919
0.0031683992
0.0033573304
0.0035008503
0.00360436
0.003677343
0.003729567
0.0037672545
0.003794012
0.0038121561
0.0038236985
0.0038300691
0.003832123
0.0038306699
0.0038263833
0.0038196592
0.0038108203
0.0038001489
0.0037878607
0.0037741379
0.0037591092
0.0037428539
0.0037254539
0.0037069699
0.0036874498
0.0036669368
0.0036454364
0.0036229395
0.0035994489
0.0035749539
0.0035494357
0.0035228707
0.003495232
0.0034664644
0.0034364951
0.0034052518
0.0033726579
0.0033386378
0.0033031074
0.0032659755
0.0032271606
0.0031865652
0.0031440689
0.0030995558
0.0030529171
0.0030040428
0.0029528618
0.0028993272
0.0028434814
0.0027853905
0.0027250705
0.0026627526
0.0025987051
0.0025332865
0.002467362
0.0024022427
0.0023397896
0.0022827934
0.0022352619
0.0022017545
0.0021866002
0.0021988608
0.002243441
0.0023243421
0.0024511668
0.0026284509
0.002856843
0.003130317
0.0034427643
0.0037834328
0.0041071795
0.0043641818
0.0045208377
0.0045797192
0.0045507522
0.0044539136
0.0043282671
0.0041856526
0.0040359557
0.003883984
0.0037287587
0.0035735035
0.0034162783
0.0032533522
0.0030888908
0.0029245913
0.0027617841
0.0026025665
0.0024457338
0.0022902564
0.0021389752
0.0019916952
0.0018467982
0.0017047432
0.0015671719
0.001433989
0.0013036367
0.0011769199
0.0010544858
0.00093849999
0.00082855588
0.00072717467
0.00063085196
0.0005686245
0.00048186183
0.00066726787
-0.00051330598
0.012027769
0.012131538
0.012351316
0.01263183
0.012971721
0.013371244
0.01382853
0.014342783
0.014915336
0.015549418
0.01625004
0.01702434
0.017882184
0.018837531
0.019909332
0.021126899
0.022526991
0.024185678
0.026163424
0.02875232
0.031872773
0.037313724
0.042402567
0.080897463
0.051439716
0.0024206971
0.001049039
0.0019116454
0.002459114
0.002900437
0.0031688869
0.003357718
0.0035011675
0.0036046257
0.0036775697
0.0037297633
0.0037674264
0.0037941641
0.0038122918
0.0038238203
0.0038301792
0.003832223
0.0038307612
0.003826467
0.0038197362
0.0038108914
0.0038002148
0.0037879218
0.0037741949
0.0037591623
0.0037429036
0.0037255004
0.0037070135
0.0036874908
0.0036669754
0.0036454728
0.0036229738
0.0035994813
0.0035749846
0.0035494647
0.0035228981
0.003495258
0.0034664891
0.0034365185
0.0034052741
0.003372679
0.0033386578
0.0033031264
0.0032659936
0.0032271778
0.0031865815
0.0031440844
0.0030995705
0.003052931
0.003004056
0.0029528743
0.002899339
0.0028434925
0.0027854009
0.0027250802
0.0026627617
0.0025987134
0.0025332941
0.002467369
0.0024022489
0.0023397951
0.002282798
0.0022352656
0.0022017572
0.0021866017
0.0021988611
0.00224344
0.0023243396
0.0024511628
0.0026284453
0.0028568358
0.0031303083
0.0034427545
0.003783422
0.0041071685
0.0043641716
0.0045208289
0.0045797123
0.0045507472
0.00445391
0.0043282646
0.0041856509
0.0040359546
0.0038839833
0.0037287583
0.0035735033
0.0034162784
0.0032533524
0.0030888912
0.0029245918
0.0027617847
0.0026025672
0.0024457346
0.0022902572
0.002138976
0.0019916961
0.001846799
0.0017047441
0.0015671728
0.0014339899
0.0013036376
0.0011769207
0.0010544867
0.00093850083
0.0008285567
0.0007271755
0.00063085278
0.00056862539
0.00048186274
0.00066726886
-0.00051330539
0.012027769
0.012131538
0.012351316
0.01263183
0.012971721
0.013371245
0.013828531
0.014342784
0.014915336
0.015549419
0.016250041
0.017024341
0.017882186
0.018837533
0.019909335
0.021126904
0.022526997
0.024185686
0.026163434
0.028752334
0.031872792
0.037313754
0.042402655
0.080886729
0.05146643
0.0024318653
0.0010524803
0.001913298
0.002460128
0.00290115
0.003169426
0.0033581463
0.0035015182
0.0036049194
0.0036778202
0.0037299803
0.0037676165
0.0037943323
0.0038124417
0.003823955
0.0038303009
0.0038323336
0.0038308622
0.0038265595
0.0038198214
0.0038109701
0.0038002876
0.0037879894
0.0037742578
0.003759221
0.0037429585
0.0037255518
0.0037070618
0.0036875361
0.0036670181
0.003645513
0.0036230117
0.0035995171
0.0035750184
0.0035494968
0.0035229285
0.0034952868
0.0034665164
0.0034365444
0.0034052986
0.0033727023
0.00333868
0.0033031474
0.0032660136
0.0032271968
0.0031865996
0.0031441015
0.0030995867
0.0030529464
0.0030040706
0.0029528881
0.002899352
0.0028435047
0.0027854124
0.002725091
0.0026627717
0.0025987227
0.0025333026
0.0024673767
0.0024022558
0.0023398011
0.0022828031
0.0022352697
0.0022017602
0.0021866035
0.0021988615
0.0022434389
0.0023243369
0.0024511584
0.002628439
0.0028568278
0.0031302988
0.0034427436
0.0037834101
0.0041071563
0.0043641602
0.0045208192
0.0045797046
0.0045507416
0.004453906
0.0043282619
0.004185649
0.0040359533
0.0038839825
0.0037287578
0.0035735031
0.0034162784
0.0032533526
0.0030888916
0.0029245924
0.0027617854
0.002602568
0.0024457354
0.0022902582
0.002138977
0.0019916971
0.0018468
0.001704745
0.0015671738
0.0014339909
0.0013036386
0.0011769217
0.0010544876
0.00093850175
0.00082855761
0.00072717641
0.00063085369
0.00056862638
0.00048186373
0.00066726996
-0.00051330474
0.012027769
0.012131538
0.012351316
0.012631831
0.012971722
0.013371245
0.013828531
0.014342785
0.014915338
0.01554942
0.016250043
0.017024344
0.017882189
0.018837537
0.01990934
0.021126909
0.022527004
0.024185696
0.026163445
0.028752351
0.031872814
0.037313787
0.04240276
0.080874248
0.051495252
0.0024442281
0.0010562988
0.0019151325
0.0024612539
0.0029019417
0.0031700246
0.0033586219
0.0035019076
0.0036052454
0.0036780984
0.0037302211
0.0037678275
0.0037945189
0.0038126082
0.0038241045
0.003830436
0.0038324564
0.0038309743
0.0038266623
0.0038199159
0.0038110573
0.0038003684
0.0037880645
0.0037743277
0.0037592862
0.0037430194
0.0037256088
0.0037071153
0.0036875864
0.0036670654
0.0036455576
0.0036230538
0.0035995568
0.003575056
0.0035495323
0.0035229621
0.0034953187
0.0034665467
0.0034365731
0.0034053259
0.0033727282
0.0033387045
0.0033031708
0.0032660357
0.0032272179
0.0031866196
0.0031441205
0.0030996047
0.0030529635
0.0030040868
0.0029529034
0.0028993665
0.0028435184
0.0027854252
0.0027251029
0.0026627828
0.0025987329
0.002533312
0.0024673852
0.0024022635
0.0023398078
0.0022828088
0.0022352743
0.0022017635
0.0021866054
0.0021988619
0.0022434377
0.0023243339
0.0024511535
0.0026284321
0.0028568189
0.0031302881
0.0034427315
0.0037833969
0.0041071428
0.0043641476
0.0045208084
0.0045796962
0.0045507353
0.0044539016
0.0043282588
0.0041856469
0.0040359519
0.0038839816
0.0037287573
0.0035735029
0.0034162785
0.0032533529
0.003088892
0.002924593
0.0027617862
0.0026025689
0.0024457364
0.0022902592
0.0021389781
0.0019916982
0.0018468011
0.0017047461
0.0015671749
0.001433992
0.0013036396
0.0011769227
0.0010544886
0.00093850278
0.00082855862
0.00072717743
0.0006308547
0.00056862749
0.00048186484
0.00066727118
-0.00051330402
0.012027769
0.012131539
0.012351316
0.012631831
0.012971722
0.013371246
0.013828532
0.014342786
0.014915339
0.015549422
0.016250045
0.017024346
0.017882192
0.018837541
0.019909345
0.021126916
0.022527012
0.024185706
0.026163458
0.028752369
0.031872839
0.037313823
0.042402884
0.08085966
0.051526339
0.0024579642
0.001060551
0.001917176
0.0024625084
0.0029028239
0.0031706915
0.0033591518
0.0035023414
0.0036056086
0.0036784083
0.0037304895
0.0037680626
0.0037947269
0.0038127936
0.0038242711
0.0038305866
0.0038325932
0.0038310991
0.0038267767
0.0038200212
0.0038111546
0.0038004585
0.0037881481
0.0037744055
0.0037593588
0.0037430873
0.0037256724
0.003707175
0.0036876425
0.0036671182
0.0036456073
0.0036231007
0.0035996011
0.0035750979
0.003549572
0.0035229997
0.0034953542
0.0034665804
0.0034366051
0.0034053562
0.0033727571
0.0033387319
0.0033031968
0.0032660605
0.0032272414
0.0031866419
0.0031441417
0.0030996248
0.0030529826
0.0030041048
0.0029529205
0.0028993826
0.0028435335
0.0027854395
0.0027251162
0.0026627952
0.0025987444
0.0025333225
0.0024673947
0.002402272
0.0023398152
0.0022828151
0.0022352793
0.0022017672
0.0021866075
0.0021988623
0.0022434364
0.0023243306
0.002451148
0.0026284244
0.002856809
0.0031302763
0.003442718
0.0037833822
0.0041071278
0.0043641335
0.0045207963
0.0045796867
0.0045507284
0.0044538966
0.0043282554
0.0041856445
0.0040359503
0.0038839806
0.0037287568
0.0035735027
0.0034162785
0.0032533532
0.0030888925
0.0029245937
0.0027617871
0.0026025699
0.0024457375
0.0022902603
0.0021389793
0.0019916994
0.0018468024
0.0017047474
0.0015671761
0.0014339932
0.0013036408
0.0011769239
0.0010544898
0.00093850392
0.00082855975
0.00072717856
0.00063085582
0.00056862871
0.00048186607
0.00066727253
-0.00051330321
0.012027769
0.012131539
0.012351317
0.012631831
0.012971723
0.013371246
0.013828533
0.014342787
0.01491534
0.015549424
0.016250047
0.017024349
0.017882195
0.018837545
0.01990935
0.021126923
0.022527021
0.024185718
0.026163473
0.02875239
0.031872867
0.03731386
0.042403031
0.080842528
0.051559817
0.0024732763
0.0010652995
0.0019194589
0.0024639104
0.0029038098
0.0031714369
0.003359744
0.0035028262
0.0036060145
0.0036787546
0.0037307893
0.0037683253
0.0037949592
0.0038130009
0.0038244572
0.0038307548
0.003832746
0.0038312386
0.0038269046
0.0038201389
0.0038112632
0.0038005591
0.0037882415
0.0037744925
0.0037594399
0.0037431631
0.0037257435
0.0037072416
0.0036877051
0.0036671772
0.0036456629
0.0036231531
0.0035996506
0.0035751447
0.0035496162
0.0035230416
0.003495394
0.0034666181
0.0034366409
0.0034053902
0.0033727893
0.0033387626
0.0033032259
0.0032660881
0.0032272676
0.0031866668
0.0031441654
0.0030996473
0.0030530039
0.003004125
0.0029529395
0.0028994006
0.0028435505
0.0027854554
0.0027251311
0.002662809
0.0025987572
0.0025333343
0.0024674054
0.0024022815
0.0023398236
0.0022828221
0.002235285
0.0022017713
0.0021866099
0.0021988628
0.0022434349
0.0023243268
0.0024511419
0.0026284158
0.002856798
0.0031302631
0.0034427029
0.0037833658
0.004107111
0.0043641179
0.0045207829
0.0045796762
0.0045507207
0.0044538911
0.0043282516
0.0041856419
0.0040359486
0.0038839795
0.0037287561
0.0035735025
0.0034162786
0.0032533535
0.0030888931
0.0029245945
0.002761788
0.002602571
0.0024457387
0.0022902616
0.0021389806
0.0019917007
0.0018468037
0.0017047488
0.0015671774
0.0014339945
0.0013036422
0.0011769252
0.0010544911
0.0009385052
0.00082856101
0.00072717982
0.00063085707
0.00056863008
0.00048186744
0.00066727404
-0.00051330231
0.012027769
0.012131539
0.012351317
0.012631832
0.012971723
0.013371247
0.013828534
0.014342788
0.014915342
0.015549426
0.01625005
0.017024352
0.017882199
0.01883755
0.019909357
0.021126931
0.022527031
0.024185732
0.02616349
0.028752413
0.031872898
0.0373139
0.042403204
0.080822327
0.051595758
0.0024903942
0.0010706143
0.0019220152
0.0024654808
0.0029049141
0.0031722718
0.0033604072
0.0035033692
0.0036064692
0.0036791424
0.0037311252
0.0037686195
0.0037952194
0.0038132329
0.0038246657
0.0038309432
0.0038329172
0.0038313949
0.0038270479
0.0038202707
0.0038113849
0.0038006718
0.0037883461
0.0037745899
0.0037595308
0.0037432481
0.003725823
0.0037073163
0.0036877753
0.0036672432
0.0036457251
0.0036232118
0.0035997061
0.0035751971
0.0035496658
0.0035230886
0.0034954385
0.0034666603
0.0034366809
0.0034054282
0.0033728254
0.0033387968
0.0033032585
0.003266119
0.003227297
0.0031866948
0.0031441919
0.0030996724
0.0030530277
0.0030041475
0.0029529609
0.0028994207
0.0028435695
0.0027854732
0.0027251478
0.0026628245
0.0025987715
0.0025333474
0.0024674173
0.0024022921
0.0023398329
0.00228283
0.0022352913
0.0022017759
0.0021866125
0.0021988633
0.0022434332
0.0023243226
0.002451135
0.0026284061
0.0028567856
0.0031302483
0.0034426861
0.0037833474
0.0041070922
0.0043641003
0.0045207678
0.0045796643
0.004550712
0.004453885
0.0043282473
0.004185639
0.0040359466
0.0038839783
0.0037287555
0.0035735022
0.0034162787
0.0032533539
0.0030888937
0.0029245954
0.0027617891
0.0026025722
0.00244574
0.002290263
0.0021389821
0.0019917022
0.0018468053
0.0017047503
0.001567179
0.0014339961
0.0013036436
0.0011769267
0.0010544926
0.00093850663
0.00082856242
0.00072718124
0.00063085848
0.00056863161
0.00048186898
0.00066727574
-0.00051330129
0.012027769
0.012131539
0.012351317
0.012631832
0.012971724
0.013371248
0.013828535
0.01434279
0.014915344
0.015549428
0.016250053
0.017024356
0.017882204
0.018837556
0.019909364
0.02112694
0.022527043
0.024185747
0.026163508
0.028752438
0.031872932
0.037313938
0.042403409
0.080798428
0.051634164
0.0025095819
0.0010765737
0.0019248827
0.0024672432
0.0029061534
0.0031732087
0.0033611515
0.0035039785
0.0036069793
0.0036795776
0.003731502
0.0037689496
0.0037955114
0.0038134933
0.0038248995
0.0038311545
0.0038331093
0.0038315702
0.0038272086
0.0038204186
0.0038115214
0.0038007982
0.0037884635
0.0037746991
0.0037596327
0.0037433434
0.0037259123
0.0037074
0.003687854
0.0036673172
0.0036457949
0.0036232777
0.0035997682
0.0035752559
0.0035497215
0.0035231412
0.0034954884
0.0034667076
0.0034367258
0.0034054708
0.0033728659
0.0033388353
0.003303295
0.0032661538
0.00322733
0.0031867261
0.0031442216
0.0030997007
0.0030530545
0.0030041729
0.0029529848
0.0028994434
0.0028435908
0.0027854932
0.0027251665
0.0026628419
0.0025987876
0.0025333621
0.0024674307
0.0024023041
0.0023398433
0.0022828389
0.0022352984
0.0022017811
0.0021866155
0.0021988639
0.0022434312
0.0023243179
0.0024511273
0.0026283953
0.0028567717
0.0031302317
0.0034426671
0.0037833267
0.0041070712
0.0043640806
0.004520751
0.0045796511
0.0045507023
0.004453878
0.0043282425
0.0041856357
0.0040359445
0.0038839769
0.0037287547
0.0035735019
0.0034162788
0.0032533543
0.0030888945
0.0029245964
0.0027617903
0.0026025736
0.0024457415
0.0022902647
0.0021389838
0.0019917039
0.001846807
0.001704752
0.0015671807
0.0014339977
0.0013036453
0.0011769283
0.0010544942
0.00093850823
0.000828564
0.00072718283
0.00063086005
0.00056863333
0.00048187071
0.00066727764
-0.00051330016
0.012027769
0.012131539
0.012351318
0.012631833
0.012971725
0.013371249
0.013828537
0.014342791
0.014915346
0.015549431
0.016250056
0.01702436
0.017882209
0.018837563
0.019909372
0.021126951
0.022527056
0.024185764
0.026163528
0.028752464
0.031872969
0.037313975
0.04240365
0.080770072
0.051674941
0.0025311448
0.0010832657
0.0019281042
0.0024692239
0.0029075463
0.0031742618
0.0033619879
0.0035046632
0.0036075526
0.0036800667
0.0037319254
0.0037693205
0.0037958395
0.0038137859
0.0038251623
0.003831392
0.0038333251
0.0038317672
0.0038273892
0.0038205848
0.0038116748
0.0038009403
0.0037885954
0.0037748219
0.0037597473
0.0037434505
0.0037260126
0.0037074941
0.0036879424
0.0036674005
0.0036458733
0.0036233517
0.0035998381
0.0035753219
0.003549784
0.0035232004
0.0034955445
0.0034667608
0.0034367763
0.0034055187
0.0033729114
0.0033388785
0.0033033361
0.0032661928
0.003227367
0.0031867613
0.003144255
0.0030997324
0.0030530845
0.0030042013
0.0029530117
0.0028994688
0.0028436147
0.0027855157
0.0027251875
0.0026628614
0.0025988056
0.0025333787
0.0024674457
0.0024023175
0.0023398551
0.0022828489
0.0022353064
0.0022017869
0.0021866188
0.0021988646
0.0022434291
0.0023243126
0.0024511186
0.0026283831
0.0028567561
0.003130213
0.0034426459
0.0037833035
0.0041070475
0.0043640585
0.004520732
0.0045796362
0.0045506914