/*--------------------------------*- C++ -*----------------------------------*\
| =========                 |                                                 |
| \\      /  F ield         | OpenFOAM: The Open Source CFD Toolbox           |
|  \\    /   O peration     | Version:  2206                                  |
|   \\  /    A nd           | Website:  www.openfoam.com                      |
|    \\/     M anipulation  |                                                 |
\*---------------------------------------------------------------------------*/
FoamFile
{
    version     2.0;
    format      ascii;
    arch        "LSB;label=32;scalar=64";
    class       surfaceScalarField;
    location    "1100";
    object      phi;
}
// * * * * * * * * * * * * * * * * * * * * * * * * * * * * * * * * * * * * * //

dimensions      [0 3 -1 0 0 0 0];

oriented        oriented;

internalField   nonuniform List<scalar> 
25880
(
2.0045994e-06
5.4767028e-11
2.0044607e-06
1.3863965e-10
2.0042781e-06
1.8267791e-10
2.0040695e-06
2.08566e-10
2.0038304e-06
2.3909388e-10
2.0035567e-06
2.7370105e-10
2.0032448e-06
3.1188038e-10
2.0028898e-06
3.5498465e-10
2.0024851e-06
4.0471631e-10
2.0020223e-06
4.6281836e-10
2.0014909e-06
5.3138328e-10
2.0008775e-06
6.1346733e-10
2.0001644e-06
7.1304706e-10
1.9993269e-06
8.37461e-10
1.9983334e-06
9.9358621e-10
1.9971272e-06
1.2061701e-09
1.9956529e-06
1.4743331e-09
1.9937259e-06
1.9269543e-09
1.9913163e-06
2.4096082e-09
1.9875417e-06
3.7745597e-09
1.982857e-06
4.6847212e-09
1.9716059e-06
1.125115e-08
1.9650325e-06
6.57339e-09
9.8692583e-07
9.7810665e-07
4.3548063e-09
9.8257102e-07
2.1042156e-09
2.2505908e-09
1.5932466e-09
5.1096895e-10
1.3463466e-09
2.4690004e-10
1.1937832e-09
1.5256338e-10
1.0855342e-09
1.0824903e-10
1.0029161e-09
8.2618062e-11
9.3661963e-10
6.6296497e-11
8.818016e-10
5.4818032e-11
8.3543357e-10
4.6368035e-11
7.9545678e-10
3.9976783e-11
7.6046617e-10
3.4990615e-11
7.2947377e-10
3.0992402e-11
7.0175041e-10
2.7723361e-11
6.7673855e-10
2.5011853e-11
6.5400803e-10
2.2730524e-11
6.3321564e-10
2.0792392e-11
6.1408732e-10
1.9128317e-11
5.964043e-10
1.7683018e-11
5.7998323e-10
1.6421073e-11
5.6467265e-10
1.5310579e-11
5.5034503e-10
1.4327626e-11
5.3689239e-10
1.345264e-11
5.2422274e-10
1.2669645e-11
5.1225731e-10
1.1965434e-11
5.0092799e-10
1.1329316e-11
4.9017531e-10
1.0752678e-11
4.7994724e-10
1.0228071e-11
4.7019812e-10
9.749122e-12
4.6088774e-10
9.3103857e-12
4.5198067e-10
8.9070683e-12
4.4344538e-10
8.5352881e-12
4.3525352e-10
8.1918568e-12
4.2737973e-10
7.8737971e-12
4.1980127e-10
7.5784589e-12
4.1249768e-10
7.3035905e-12
4.0545058e-10
7.0470947e-12
3.9864361e-10
6.806973e-12
3.92062e-10
6.5816054e-12
3.856922e-10
6.3698062e-12
3.7952181e-10
6.1703892e-12
3.7353978e-10
5.9820332e-12
3.6773627e-10
5.8035045e-12
3.621025e-10
5.6337747e-12
3.5663062e-10
5.4718742e-12
3.51314e-10
5.3166251e-12
3.4614714e-10
5.166856e-12
3.4112553e-10
5.021614e-12
3.362456e-10
4.8799293e-12
3.3150479e-10
4.740809e-12
3.2690153e-10
4.6032637e-12
3.2243536e-10
4.4661632e-12
3.1810744e-10
4.3279265e-12
3.1392159e-10
4.1858494e-12
3.0988425e-10
4.0373374e-12
3.0600364e-10
3.8806095e-12
3.0229017e-10
3.7134722e-12
2.9875651e-10
3.5336576e-12
2.9541796e-10
3.3385495e-12
2.9229481e-10
3.1231522e-12
2.8941409e-10
2.8807131e-12
2.8681023e-10
2.6038585e-12
2.8452995e-10
2.280286e-12
2.8263903e-10
1.8909222e-12
2.8121037e-10
1.4286542e-12
2.8035581e-10
8.5455634e-13
2.8016545e-10
1.9036171e-13
2.8073996e-10
-5.7451076e-13
2.8222742e-10
-1.4874604e-12
2.8475698e-10
-2.5295593e-12
2.8846322e-10
-3.7062462e-12
2.934176e-10
-4.9543744e-12
2.9959694e-10
-6.1793443e-12
3.0695224e-10
-7.3552972e-12
3.1534524e-10
-8.3930046e-12
3.2431521e-10
-8.9699723e-12
3.3309634e-10
-8.7811284e-12
3.4099027e-10
-7.8939215e-12
3.4749158e-10
-6.5013145e-12
3.5250081e-10
-5.00923e-12
3.5625454e-10
-3.7537227e-12
3.5898919e-10
-2.7346482e-12
3.6096336e-10
-1.9741732e-12
3.6235828e-10
-1.3949166e-12
3.6329431e-10
-9.3603057e-13
3.6384922e-10
-5.5491107e-13
3.6407975e-10
-2.3052686e-13
3.6401205e-10
6.7699439e-14
3.63644e-10
3.6804867e-13
3.6300017e-10
6.4382665e-13
3.6212234e-10
8.7783793e-13
3.6104349e-10
1.0788459e-12
3.5980777e-10
1.235723e-12
3.5845437e-10
1.3534006e-12
3.57012e-10
1.4423679e-12
3.5551177e-10
1.500235e-12
3.5398199e-10
1.5297759e-12
3.5243784e-10
1.5441543e-12
3.508887e-10
1.5491369e-12
3.4934752e-10
1.5411821e-12
3.4782523e-10
1.5222832e-12
3.4632459e-10
1.5006445e-12
3.4484373e-10
1.4808575e-12
3.433819e-10
1.4618314e-12
3.419395e-10
1.442398e-12
3.4051896e-10
1.420545e-12
3.3909056e-10
1.4283927e-12
3.3767508e-10
1.4154831e-12
3.3612575e-10
1.5493357e-12
3.3456931e-10
1.5564397e-12
3.3286366e-10
1.7056421e-12
1.0219994e-12
2.0344724e-06
1.1043606e-10
2.0343314e-06
2.7959399e-10
2.0341457e-06
3.6843762e-10
2.0339336e-06
4.2065923e-10
2.0336905e-06
4.8222953e-10
2.0334121e-06
5.5202497e-10
2.033095e-06
6.2902283e-10
2.032734e-06
7.1595044e-10
2.0323225e-06
8.1624062e-10
2.0318519e-06
9.3340791e-10
2.0313116e-06
1.0716712e-09
2.0306879e-06
1.2371926e-09
2.0299629e-06
1.4379893e-09
2.0291116e-06
1.6888571e-09
2.0281015e-06
2.0036593e-09
2.0268754e-06
2.4322931e-09
2.0253767e-06
2.9729723e-09
2.0234181e-06
3.8855481e-09
2.0209691e-06
4.858626e-09
2.0171332e-06
7.6104471e-09
2.0123726e-06
9.4453868e-09
2.0009395e-06
2.268418e-08
1.9942515e-06
1.3261369e-08
1.0079381e-06
1.9644201e-06
1.3287124e-08
1.977222e-06
6.4383162e-09
9.0993986e-09
4.8751395e-09
2.0741457e-09
4.1196675e-09
1.002372e-09
3.6528298e-09
6.1940115e-10
3.3215861e-09
4.3949267e-10
3.0687773e-09
3.3542687e-10
2.8659148e-09
2.6915896e-10
2.6981759e-09
2.2255697e-10
2.5562937e-09
1.8825022e-10
2.4339689e-09
1.6230161e-10
2.3269017e-09
1.4205779e-10
2.2320689e-09
1.2582523e-10
2.1472391e-09
1.1255317e-10
2.0707063e-09
1.0154465e-10
2.0011542e-09
9.2282668e-11
1.9375325e-09
8.4414068e-11
1.8790027e-09
7.7658096e-11
1.8248954e-09
7.179034e-11
1.7746494e-09
6.6667013e-11
1.7278015e-09
6.2158553e-11
1.6839612e-09
5.8167897e-11
1.6427983e-09
5.4615577e-11
1.6040312e-09
5.1436727e-11
1.5674189e-09
4.8577736e-11
1.532753e-09
4.5995189e-11
1.4998515e-09
4.3654129e-11
1.4685553e-09
4.1524305e-11
1.4387246e-09
3.9579845e-11
1.4102363e-09
3.7798644e-11
1.3829822e-09
3.616124e-11
1.3568656e-09
3.4651874e-11
1.3317998e-09
3.3257599e-11
1.3077073e-09
3.1966329e-11
1.2845185e-09
3.0767304e-11
1.2621707e-09
2.9651385e-11
1.2406077e-09
2.8610055e-11
1.2197795e-09
2.7635203e-11
1.1996408e-09
2.6720252e-11
1.1801502e-09
2.5860385e-11
1.1612698e-09
2.5050789e-11
1.1429658e-09
2.4286097e-11
1.125208e-09
2.3561304e-11
1.1079695e-09
2.2872232e-11
1.0912265e-09
2.2214945e-11
1.0749584e-09
2.1584663e-11
1.0591486e-09
2.0976629e-11
1.0437833e-09
2.0386974e-11
1.0288515e-09
1.981176e-11
1.0143453e-09
1.9246957e-11
1.00026e-09
1.8688546e-11
9.8659425e-10
1.8131938e-11
9.7335146e-10
1.7570713e-11
9.6054342e-10
1.6993897e-11
9.481898e-10
1.6390957e-11
9.3631575e-10
1.5754654e-11
9.2495314e-10
1.5076089e-11
9.1414074e-10
1.4346051e-11
9.0392539e-10
1.3553905e-11
8.9436917e-10
1.267937e-11
8.8555485e-10
1.169503e-11
8.7758777e-10
1.0570937e-11
8.7061092e-10
9.2571438e-12
8.648256e-10
7.6762397e-12
8.6045488e-10
5.799374e-12
8.5784101e-10
3.4684231e-12
8.5725962e-10
7.7175049e-13
8.5901871e-10
-2.3336031e-12
8.6357141e-10
-6.0401639e-12
8.7131279e-10
-1.0270933e-11
8.826545e-10
-1.5047959e-11
8.97815e-10
-2.011488e-11
9.1672343e-10
-2.5087771e-11
9.3922959e-10
-2.9861457e-11
9.6490984e-10
-3.4073259e-11
9.9235445e-10
-3.6414579e-11
1.0192207e-09
-3.5647393e-11
1.0433725e-09
-3.2045688e-11
1.0632637e-09
-2.6392484e-11
1.07859e-09
-2.0335564e-11
1.0900754e-09
-1.5239115e-11
1.0984429e-09
-1.1102162e-11
1.1044837e-09
-8.0149409e-12
1.1087521e-09
-5.6633266e-12
1.1116164e-09
-3.800315e-12
1.1133145e-09
-2.2530511e-12
1.1140201e-09
-9.3607351e-13
1.113813e-09
2.7472171e-13
1.112687e-09
1.4941003e-12
1.110717e-09
2.6137549e-12
1.1080311e-09
3.5638175e-12
1.1047301e-09
4.3798653e-12
1.100949e-09
5.0167744e-12
1.0968079e-09
5.4945358e-12
1.0923945e-09
5.8557076e-12
1.0878041e-09
6.0906409e-12
1.0831233e-09
6.210589e-12
1.0783985e-09
6.2689605e-12
1.0736585e-09
6.2891746e-12
1.0689428e-09
6.256882e-12
1.0642849e-09
6.1801696e-12
1.0596932e-09
6.0923152e-12
1.0551621e-09
6.0119723e-12
1.0506892e-09
5.93471e-12
1.0462758e-09
5.8558095e-12
1.0419293e-09
5.7670741e-12
1.0375588e-09
5.7989103e-12
1.0332279e-09
5.7463439e-12
1.0284873e-09
6.2898947e-12
1.0237267e-09
6.317091e-12
1.0185001e-09
6.9322724e-12
4.1367807e-12
2.0946637e-06
1.6785025e-10
2.0945183e-06
4.2500341e-10
2.0943266e-06
5.6010552e-10
2.0941077e-06
6.3950833e-10
2.0938569e-06
7.3310789e-10
2.0935697e-06
8.3920766e-10
2.0932425e-06
9.5625304e-10
2.09287e-06
1.0883884e-09
2.0924454e-06
1.2408312e-09
2.0919599e-06
1.4189226e-09
2.0914025e-06
1.6290743e-09
2.090759e-06
1.8806505e-09
2.0900112e-06
2.1858338e-09
2.089133e-06
2.5671093e-09
2.0880911e-06
3.0455406e-09
2.0868264e-06
3.6969569e-09
2.0852808e-06
4.5186224e-09
2.0832609e-06
5.905434e-09
2.0807354e-06
7.3841011e-09
2.0767802e-06
1.1565636e-08
2.0718717e-06
1.4353871e-08
2.0600842e-06
3.4471742e-08
2.0531805e-06
2.0165064e-08
1.0443535e-06
2.973247e-06
2.2974627e-08
2.9986009e-06
1.1157372e-08
2.0916653e-08
8.448771e-09
4.7827469e-09
7.1395531e-09
2.31159e-09
6.3304857e-09
1.4284685e-09
5.7564091e-09
1.0135692e-09
5.3182709e-09
7.7356513e-10
4.966698e-09
6.2073189e-10
4.6759968e-09
5.1325808e-10
4.4301075e-09
4.3413954e-10
4.2181131e-09
3.7429608e-10
4.0325615e-09
3.2760936e-10
3.8682129e-09
2.9017381e-10
3.7212002e-09
2.595659e-10
3.5885666e-09
2.341782e-10
3.4680309e-09
2.128184e-10
3.3577729e-09
1.9467204e-10
3.2563394e-09
1.7909158e-10
3.1625703e-09
1.6555953e-10
3.075493e-09
1.5374431e-10
2.9943045e-09
1.4334707e-10
2.9183284e-09
1.3414397e-10
2.8469922e-09
1.2595175e-10
2.7798081e-09
1.1862082e-10
2.7163583e-09
1.1202754e-10
2.6562817e-09
1.0607179e-10
2.5992629e-09
1.0067294e-10
2.545026e-09
9.5761242e-11
2.4933288e-09
9.127702e-11
2.4439581e-09
8.7169299e-11
2.3967262e-09
8.3393202e-11
2.3514657e-09
7.9912379e-11
2.3080263e-09
7.6696974e-11
2.2662735e-09
7.3719114e-11
2.2260868e-09
7.0953987e-11
2.1873577e-09
6.8380513e-11
2.1499887e-09
6.5979054e-11
2.113893e-09
6.3730907e-11
2.0789924e-09
6.16209e-11
2.0452148e-09
5.9637928e-11
2.0124947e-09
5.7770885e-11
1.9807734e-09
5.60074e-11
1.9499988e-09
5.4335925e-11
1.9201242e-09
5.274683e-11
1.8911081e-09
5.1231035e-11
1.8629152e-09
4.9777516e-11
1.8355166e-09
4.8375309e-11
1.8088881e-09
4.7015484e-11
1.7830109e-09
4.5688963e-11
1.7578714e-09
4.4386448e-11
1.7334612e-09
4.309867e-11
1.7097781e-09
4.1815048e-11
1.6868281e-09
4.0520772e-11
1.6646314e-09
3.9190537e-11
1.6432223e-09
3.7800058e-11
1.6226444e-09
3.6332629e-11
1.6029527e-09
3.4767732e-11
1.5842146e-09
3.3084122e-11
1.5665113e-09
3.1257248e-11
1.5499503e-09
2.9240342e-11
1.5346752e-09
2.697017e-11
1.5208685e-09
2.4377653e-11
1.508778e-09
2.1347604e-11
1.4987527e-09
1.7701536e-11
1.4911791e-09
1.3372981e-11
1.4866504e-09
7.9971192e-12
1.4856443e-09
1.7778856e-12
1.4886944e-09
-5.3836963e-12
1.496586e-09
-1.3931772e-11
1.5100036e-09
-2.3688577e-11
1.5296605e-09
-3.4704866e-11
1.5559351e-09
-4.6389472e-11
1.5887045e-09
-5.785719e-11
1.6277082e-09
-6.8865088e-11
1.6722111e-09
-7.8576209e-11
1.7197704e-09
-8.3973825e-11
1.7663267e-09
-8.2203777e-11
1.8081792e-09
-7.3898091e-11
1.8426487e-09
-6.0862001e-11
1.8692082e-09
-4.6895138e-11
1.8891123e-09
-3.5143139e-11
1.9036134e-09
-2.5603276e-11
1.9140824e-09
-1.8483988e-11
1.92148e-09
-1.3060924e-11
1.9264442e-09
-8.7645179e-12
1.9293875e-09
-5.1963053e-12
1.9306105e-09
-2.159098e-12
1.930252e-09
6.3326101e-13
1.9283007e-09
3.4453634e-12
1.9248869e-09
6.0275276e-12
1.9202322e-09
8.2185475e-12
1.9145116e-09
1.0100466e-11
1.9079591e-09
1.15693e-11
1.9007825e-09
1.2671107e-11
1.8931342e-09
1.3503994e-11
1.8851791e-09
1.4045792e-11
1.8770672e-09
1.432244e-11
1.8688791e-09
1.4457052e-11
1.8606647e-09
1.4503647e-11
1.8524924e-09
1.442918e-11
1.8444202e-09
1.4252294e-11
1.8364629e-09
1.4049683e-11
1.8286105e-09
1.3864379e-11
1.820859e-09
1.3686169e-11
1.8132106e-09
1.35042e-11
1.8056781e-09
1.3299544e-11
1.7981042e-09
1.3372878e-11
1.790599e-09
1.3251491e-11
1.782384e-09
1.4504885e-11
1.7741353e-09
1.4565812e-11
1.7650723e-09
1.5995282e-11
9.5263853e-12
2.1860702e-06
2.278842e-10
2.1859181e-06
5.7709053e-10
2.1857176e-06
7.6061911e-10
2.1854886e-06
8.6846959e-10
2.1852262e-06
9.9557604e-10
2.1849257e-06
1.1396519e-09
2.1845834e-06
1.2985865e-09
2.1841938e-06
1.478005e-09
2.1837496e-06
1.6849907e-09
2.1832417e-06
1.9267949e-09
2.1826587e-06
2.2121212e-09
2.1819857e-06
2.5536808e-09
2.1812035e-06
2.9680101e-09
2.180285e-06
3.4856318e-09
2.1791954e-06
4.1351322e-09
2.1778729e-06
5.0194494e-09
2.1762567e-06
6.1348371e-09
2.1741447e-06
8.0173617e-09
2.1715044e-06
1.0024444e-08
2.1673698e-06
1.5700186e-08
2.162239e-06
1.9484664e-08
2.1499182e-06
4.6792573e-08
2.1426925e-06
2.739076e-08
1.097017e-06
4.0189226e-06
3.3990799e-08
4.0616271e-06
1.6543675e-08
3.8363777e-08
1.2527947e-08
8.7984746e-09
1.0586698e-08
4.2528394e-09
9.3869644e-09
2.6282017e-09
8.5356856e-09
1.864848e-09
7.8859885e-09
1.4232622e-09
7.364662e-09
1.1420584e-09
6.9335999e-09
9.4432023e-10
6.568987e-09
7.9875236e-10
6.2546359e-09
6.8864718e-10
5.9794961e-09
6.0274917e-10
5.7357972e-09
5.3387276e-10
5.5178045e-09
4.7755858e-10
5.3211338e-09
4.3084892e-10
5.1424021e-09
3.915501e-10
4.9789104e-09
3.5816365e-10
4.828504e-09
3.2949799e-10
4.6894624e-09
3.0460113e-10
4.5603436e-09
2.8286309e-10
4.4399568e-09
2.6373388e-10
4.3272991e-09
2.468017e-10
4.2215215e-09
2.3172938e-10
4.1219006e-09
2.182417e-10
4.027817e-09
2.0611118e-10
3.9387351e-09
1.9515361e-10
3.8541874e-09
1.8522066e-10
3.7737647e-09
1.7618398e-10
3.6971079e-09
1.6793378e-10
3.6239009e-09
1.6037628e-10
3.5538652e-09
1.5342892e-10
3.4867528e-09
1.4702482e-10
3.4223407e-09
1.4110904e-10
3.3604295e-09
1.356303e-10
3.3008406e-09
1.3054295e-10
3.2434129e-09
1.2580821e-10
3.188002e-09
1.2138995e-10
3.1344791e-09
1.1725377e-10
3.0827283e-09
1.1337174e-10
3.0326428e-09
1.0972343e-10
2.9841252e-09
1.0628841e-10
2.9370887e-09
1.0304392e-10
2.8914559e-09
9.9968713e-11
2.8471577e-09
9.7045069e-11
2.8041324e-09
9.4256284e-11
2.7623279e-09
9.1582077e-11
2.7217009e-09
8.9002277e-11
2.682216e-09
8.6500453e-11
2.643845e-09
8.40599e-11
2.6065679e-09
8.1663512e-11
2.5703724e-09
7.9294233e-11
2.5352548e-09
7.6932591e-11
2.5012243e-09
7.4551337e-11
2.4683109e-09
7.2103924e-11
2.4365653e-09
6.9545673e-11
2.4060521e-09
6.6845831e-11
2.3768531e-09
6.3966659e-11
2.3490682e-09
6.0869056e-11
2.3228176e-09
5.750782e-11
2.2982611e-09
5.37969e-11
2.2756113e-09
4.9619949e-11
2.2551391e-09
4.4849844e-11
2.237212e-09
3.9274667e-11
2.2223475e-09
3.2566078e-11
2.2111185e-09
2.4601958e-11
2.2044049e-09
1.4710743e-11
2.2029149e-09
3.2678577e-12
2.2074397e-09
-9.908474e-12
2.2191437e-09
-2.5635717e-11
2.2390416e-09
-4.3586544e-11
2.2681909e-09
-6.3854148e-11
2.3071524e-09
-8.5351008e-11
2.355744e-09
-1.0644876e-10
2.4135786e-09
-1.266997e-10
2.4795657e-09
-1.4456325e-10
2.5500828e-09
-1.5449097e-10
2.6191122e-09
-1.5123321e-10
2.6811671e-09
-1.3595297e-10
2.7322758e-09
-1.119707e-10
2.7716571e-09
-8.6276385e-11
2.8011706e-09
-6.4656702e-11
2.8226733e-09
-4.7105931e-11
2.8381975e-09
-3.4008161e-11
2.8491673e-09
-2.4030812e-11
2.8565289e-09
-1.6126105e-11
2.8608938e-09
-9.5611894e-12
2.8627078e-09
-3.9731364e-12
2.8621766e-09
1.1644749e-12
2.8592837e-09
6.3383347e-12
2.854222e-09
1.1089201e-11
2.8473202e-09
1.5120368e-11
2.8388379e-09
1.8582771e-11
2.8291219e-09
2.1285223e-11
2.8184807e-09
2.3312391e-11
2.8071399e-09
2.4844723e-11
2.7953442e-09
2.5841552e-11
2.783316e-09
2.6350591e-11
2.7711748e-09
2.6598253e-11
2.7589945e-09
2.6683947e-11
2.7468767e-09
2.6546955e-11
2.7349075e-09
2.6221555e-11
2.7231084e-09
2.5848779e-11
2.7114649e-09
2.5507814e-11
2.6999712e-09
2.517989e-11
2.6886304e-09
2.4845071e-11
2.6774614e-09
2.4468514e-11
2.666231e-09
2.4603239e-11
2.6551028e-09
2.4379765e-11
2.6429225e-09
2.6685173e-11
2.6306928e-09
2.6795516e-11
2.6172511e-09
2.9436986e-11
1.7513182e-11
2.3100541e-06
2.9145847e-10
2.309893e-06
7.3819775e-10
2.3096805e-06
9.7307717e-10
2.3094379e-06
1.1110844e-09
2.3091598e-06
1.2736932e-09
2.3088415e-06
1.4580031e-09
2.3084787e-06
1.6613141e-09
2.3080659e-06
1.8908193e-09
2.3075953e-06
2.1555773e-09
2.3070573e-06
2.464862e-09
2.3064396e-06
2.8298031e-09
2.3057266e-06
3.2666553e-09
2.3048981e-06
3.796563e-09
2.3039251e-06
4.458557e-09
2.3027711e-06
5.289184e-09
2.3013704e-06
6.4200807e-09
2.2996589e-06
7.8464104e-09
2.2974225e-06
1.0253689e-08
2.2946269e-06
1.2820058e-08
2.2902499e-06
2.0077238e-08
2.2848185e-06
2.4916055e-08
2.2717766e-06
5.9834479e-08
2.2641166e-06
3.505078e-08
1.1670523e-06
5.1159868e-06
4.6983615e-08
5.1816958e-06
2.2919406e-08
6.2427986e-08
1.7356734e-08
1.4361147e-08
1.4667366e-08
6.9422071e-09
1.300515e-08
4.2904174e-09
1.182571e-08
3.0442884e-09
1.0925564e-08
2.3234087e-09
1.0203282e-08
1.8643398e-09
9.6060609e-09
1.5415415e-09
9.1009039e-09
1.3039093e-09
8.6653845e-09
1.1241666e-09
8.2841921e-09
9.8394163e-10
7.9465602e-09
8.7150462e-10
7.6445436e-09
7.7957523e-10
7.3720677e-09
7.0332476e-10
7.1244456e-09
6.3917219e-10
6.897938e-09
5.846713e-10
6.6895593e-09
5.3787665e-10
6.496926e-09
4.9723443e-10
6.3180402e-09
4.6174888e-10
6.1512521e-09
4.3052202e-10
5.9951722e-09
4.0288164e-10
5.8486242e-09
3.7827735e-10
5.710606e-09
3.5625985e-10
5.5802594e-09
3.3645783e-10
5.4568424e-09
3.1857057e-10
5.3397072e-09
3.023559e-10
5.2282869e-09
2.8760431e-10
5.122084e-09
2.741366e-10
5.0206607e-09
2.6179966e-10
4.9236308e-09
2.5045873e-10
4.830651e-09
2.4000462e-10
4.7414124e-09
2.3034765e-10
4.6556386e-09
2.2140411e-10
4.5730821e-09
2.1309949e-10
4.4935198e-09
2.0537047e-10
4.4167517e-09
1.9815808e-10
4.3425993e-09
1.9140615e-10
4.2709019e-09
1.8506912e-10
4.2015117e-09
1.7911362e-10
4.1342938e-09
1.7350629e-10
4.0691278e-09
1.6820998e-10
4.0059065e-09
1.6319001e-10
3.9445341e-09
1.5841745e-10
3.8849254e-09
1.5386503e-10
3.8270078e-09
1.4949966e-10
3.7707217e-09
1.452884e-10
3.7160177e-09
1.4120443e-10
3.6628571e-09
1.3722048e-10
3.611212e-09
1.3330862e-10
3.5610652e-09
1.29441e-10
3.512412e-09
1.2558584e-10
3.4652647e-09
1.2169865e-10
3.4196651e-09
1.1770345e-10
3.3756835e-09
1.1352733e-10
3.3334093e-09
1.0912005e-10
3.2929559e-09
1.0442001e-10
3.2544616e-09
9.9363377e-11
3.2180931e-09
9.3876303e-11
3.1840717e-09
8.7818307e-11
3.1526922e-09
8.099945e-11
3.1243299e-09
7.3212168e-11
3.099494e-09
6.411054e-11
3.0789015e-09
5.3158635e-11
3.0633459e-09
4.0157492e-11
3.0540466e-09
2.4010049e-11
3.0519849e-09
5.3295663e-12
3.0582564e-09
-1.6179942e-11
3.0744743e-09
-4.1853628e-11
3.1020444e-09
-7.1156691e-11
3.1424312e-09
-1.0424095e-10
3.1964116e-09
-1.3933141e-10
3.2637331e-09
-1.7377025e-10
3.3438587e-09
-2.068253e-10
3.4352763e-09
-2.3598083e-10
3.5329677e-09
-2.521824e-10
3.6285974e-09
-2.4686283e-10
3.7145652e-09
-2.2192078e-10
3.7853694e-09
-1.8277493e-10
3.839928e-09
-1.4083501e-10
3.8808173e-09
-1.0554599e-10
3.9106087e-09
-7.6897268e-11
3.9321175e-09
-5.5517044e-11
3.9473168e-09
-3.9230083e-11
3.9575169e-09
-2.6326197e-11
3.9635652e-09
-1.5609468e-11
3.9660793e-09
-6.4872499e-12
3.9653441e-09
1.8997137e-12
3.9613367e-09
1.0345735e-11
3.9543245e-09
1.8101329e-11
3.9447629e-09
2.4681984e-11
3.9330116e-09
3.0334068e-11
3.9195512e-09
3.4745675e-11
3.9048086e-09
3.8054912e-11
3.8890971e-09
4.0556264e-11
3.8727551e-09
4.2183533e-11
3.8560911e-09
4.3014588e-11
3.8392705e-09
4.3418882e-11
3.8223957e-09
4.3558723e-11
3.8056076e-09
4.3335121e-11
3.7890251e-09
4.2804001e-11
3.7726784e-09
4.2195471e-11
3.7565474e-09
4.1638813e-11
3.7406239e-09
4.110343e-11
3.7249121e-09
4.0556817e-11
3.7094385e-09
3.9942092e-11
3.6938801e-09
4.0161649e-11
3.6784632e-09
3.9796735e-11
3.6615896e-09
4.3558712e-11
3.644648e-09
4.3737162e-11
3.6260233e-09
4.8061625e-11
2.8575029e-11
2.4684631e-06
3.5955519e-10
2.4682904e-06
9.1082775e-10
2.4680627e-06
1.2007943e-09
2.4678027e-06
1.371142e-09
2.4675046e-06
1.5718022e-09
2.4671633e-06
1.7992305e-09
2.4667746e-06
2.0500957e-09
2.4663321e-06
2.3332688e-09
2.4658278e-06
2.6599246e-09
2.4652511e-06
3.0415029e-09
2.4645892e-06
3.4917312e-09
2.4638252e-06
4.0306579e-09
2.4629374e-06
4.6843606e-09
2.461895e-06
5.5009801e-09
2.4606586e-06
6.5255811e-09
2.4591581e-06
7.9205304e-09
2.4573247e-06
9.679799e-09
2.4549295e-06
1.2648927e-08
2.4519355e-06
1.581402e-08
2.4472487e-06
2.4764063e-08
2.4414333e-06
3.0731437e-08
2.4274704e-06
7.3797432e-08
2.4192557e-06
4.3265465e-08
1.2558986e-06
6.2793439e-06
6.2713455e-08
6.3748809e-06
3.0665906e-08
9.4475535e-08
2.3224052e-08
2.1803e-08
1.9625739e-08
1.0540521e-08
1.7401543e-08
6.5146129e-09
1.582334e-08
4.6224915e-09
1.4618864e-08
3.5278848e-09
1.36524e-08
2.8308036e-09
1.2853278e-08
2.3406633e-09
1.2177346e-08
1.9798414e-09
1.1594596e-08
1.7069166e-09
1.1084541e-08
1.493997e-09
1.0632773e-08
1.3232724e-09
1.0228661e-08
1.1836874e-09
9.8640765e-09
1.0679094e-09
9.5327477e-09
9.7050098e-10
9.2296712e-09
8.877478e-10
8.9508523e-09
8.1669551e-10
8.6931016e-09
7.5498517e-10
8.4537456e-09
7.0110486e-10
8.2305768e-09
6.5369077e-10
8.0217361e-09
6.1172234e-10
7.8256496e-09
5.7436386e-10
7.6409764e-09
5.4093311e-10
7.4665679e-09
5.108663e-10
7.3014316e-09
4.8370685e-10
7.1447005e-09
4.59087e-10
6.9956162e-09
4.3668866e-10
6.853513e-09
4.1623971e-10
6.717805e-09
3.9750772e-10
6.5879757e-09
3.8028803e-10
6.4635654e-09
3.6441488e-10
6.344161e-09
3.4975207e-10
6.2293926e-09
3.3617252e-10
6.118929e-09
3.2356308e-10
6.0124719e-09
3.1182762e-10
5.9097534e-09
3.0087659e-10
5.8105348e-09
2.9062473e-10
5.7146011e-09
2.8100284e-10
5.6217544e-09
2.7196025e-10
5.5318144e-09
2.6344631e-10
5.4446198e-09
2.5540461e-10
5.3600273e-09
2.477825e-10
5.2779087e-09
2.4053605e-10
5.1981499e-09
2.3362386e-10
5.1206538e-09
2.2699567e-10
5.0453408e-09
2.2060149e-10
4.9721446e-09
2.1440058e-10
4.9010135e-09
2.0835154e-10
4.8319102e-09
2.0241194e-10
4.7648117e-09
1.9653952e-10
4.6997116e-09
1.9068598e-10
4.6366264e-09
1.8478379e-10
4.5756123e-09
1.7871761e-10
4.5167629e-09
1.7237671e-10
4.4601981e-09
1.656848e-10
4.4060698e-09
1.5854836e-10
4.3545627e-09
1.5087044e-10
4.3059002e-09
1.4253881e-10
4.2603784e-09
1.3334017e-10
4.2183917e-09
1.229861e-10
4.1804425e-09
1.1116136e-10
4.1472123e-09
9.7340754e-11
4.1196603e-09
8.0710599e-11
4.0988482e-09
6.0969587e-11
4.0864079e-09
3.6450349e-11
4.0836526e-09
8.0848669e-12
4.0920475e-09
-2.4574813e-11
4.1137513e-09
-6.3557432e-11
4.1506447e-09
-1.0805009e-10
4.2046867e-09
-1.5828289e-10
4.2769165e-09
-2.1156123e-10
4.3669963e-09
-2.6385004e-10
4.4742064e-09
-3.1403538e-10
4.5965219e-09
-3.5829638e-10
4.7272292e-09
-3.8288967e-10
4.855177e-09
-3.7481063e-10
4.9701986e-09
-3.3694237e-10
5.064933e-09
-2.7750935e-10
5.1379329e-09
-2.1383492e-10
5.1926451e-09
-1.6025822e-10
5.2325086e-09
-1.1676073e-10
5.2612902e-09
-8.4298683e-11
5.2816294e-09
-5.9569232e-11
5.2952792e-09
-3.997605e-11
5.3033737e-09
-2.3703891e-11
5.306739e-09
-9.8526154e-12
5.3057564e-09
2.8823428e-12
5.3003953e-09
1.5706796e-11
5.2910136e-09
2.7483028e-11
5.2782205e-09
3.7475125e-11
5.2624974e-09
4.6057131e-11
5.2444874e-09
5.275575e-11
5.2247618e-09
5.7780509e-11
5.2037396e-09
6.1578432e-11
5.1818738e-09
6.4049294e-11
5.1595771e-09
6.5311301e-11
5.1370708e-09
6.5925188e-11
5.1144921e-09
6.6137453e-11
5.0920292e-09
6.5797991e-11
5.0698415e-09
6.4991665e-11
5.0479693e-09
6.4067688e-11
5.0263858e-09
6.3222373e-11
5.0050798e-09
6.2409352e-11
4.9840574e-09
6.1579307e-11
4.9633536e-09
6.064589e-11
4.9425366e-09
6.0978634e-11
4.9219088e-09
6.0424494e-11
4.8993335e-09
6.6134008e-11
4.8766673e-09
6.6403417e-11
4.8517454e-09
7.2983451e-11
4.337392e-11
2.6636577e-06
4.3323518e-10
2.6634708e-06
1.0976881e-09
2.6632243e-06
1.4473611e-09
2.6629427e-06
1.6527482e-09
2.6626199e-06
1.8946088e-09
2.6622504e-06
2.1687183e-09
2.6618294e-06
2.4710624e-09
2.6613503e-06
2.8123263e-09
2.6608043e-06
3.2059743e-09
2.66018e-06
3.6657891e-09
2.6594634e-06
4.2083082e-09
2.6586364e-06
4.8576827e-09
2.6576754e-06
5.6453243e-09
2.6565472e-06
6.6292261e-09
2.6552091e-06
7.8636594e-09
2.6535854e-06
9.5442283e-09
2.6516016e-06
1.1663584e-08
2.6490102e-06
1.5240343e-08
2.6457714e-06
1.9052825e-08
2.6407023e-06
2.9833211e-08
2.634413e-06
3.7020716e-08
2.6193135e-06
8.8896938e-08
2.6104136e-06
5.2165378e-08
1.3653529e-06
7.5244046e-06
8.2096486e-08
7.6581373e-06
4.0246466e-08
1.3632555e-07
3.0480965e-08
3.1568501e-08
2.5758525e-08
1.5262962e-08
2.2839213e-08
9.4339242e-09
2.0767777e-08
6.6939282e-09
1.9186874e-08
5.1087872e-09
1.7918387e-08
4.0992907e-09
1.686954e-08
3.3895101e-09
1.5982382e-08
2.8669996e-09
1.5217529e-08
2.4717699e-09
1.454809e-08
2.1634364e-09
1.3955153e-08
1.9162086e-09
1.3424765e-08
1.7140755e-09
1.2946257e-08
1.5464176e-09
1.2511397e-08
1.4053613e-09
1.2113617e-08
1.2855273e-09
1.1747676e-08
1.1826371e-09
1.1409386e-08
1.0932752e-09
1.1095238e-08
1.0152521e-09
1.0802336e-08
9.4659274e-10
1.052824e-08
8.858191e-10
1.0270882e-08
8.3172106e-10
1.0028505e-08
7.8331072e-10
9.7995995e-09
7.3977168e-10
9.5828636e-09
7.0044274e-10
9.3771592e-09
6.6479136e-10
9.181491e-09
6.3235689e-10
8.9949854e-09
6.027453e-10
8.8168731e-09
5.7561999e-10
8.6464765e-09
5.5068464e-10
8.4831922e-09
5.2769919e-10
8.3264779e-09
5.0646639e-10
8.1758482e-09
4.8680224e-10
8.0308684e-09
4.6854289e-10
7.8911469e-09
4.5154912e-10
7.7563322e-09
4.3569128e-10
7.626111e-09
4.2084589e-10
7.5002011e-09
4.0691277e-10
7.3783428e-09
3.9381852e-10
7.2602993e-09
3.8148979e-10
7.1458591e-09
3.6984489e-10
7.034834e-09
3.5880759e-10
6.9270558e-09
3.4831428e-10
6.8223746e-09
3.3830499e-10
6.7206633e-09
3.2870697e-10
6.621817e-09
3.1944781e-10
6.5257491e-09
3.1046854e-10
6.4323914e-09
3.0170916e-10
6.3416951e-09
2.9310827e-10
6.25363e-09
2.8460463e-10
6.1681877e-09
2.7612831e-10
6.08539e-09
2.675815e-10
6.0053103e-09
2.5879723e-10
5.9280719e-09
2.4961514e-10
5.853832e-09
2.3992472e-10
5.7827898e-09
2.2959058e-10
5.715188e-09
2.1847225e-10
5.6513196e-09
2.0640711e-10
5.5915736e-09
1.9308626e-10
5.5364677e-09
1.78092e-10
5.4866613e-09
1.6096774e-10
5.443049e-09
1.4095301e-10
5.40689e-09
1.168696e-10
5.379577e-09
8.8282644e-11
5.3632527e-09
5.2774634e-11
5.3596408e-09
1.1696713e-11
5.3706632e-09
-3.5597181e-11
5.3991534e-09
-9.2047645e-11
5.4475793e-09
-1.5647596e-10
5.5185112e-09
-2.2921481e-10
5.613313e-09
-3.0636302e-10
5.7315411e-09
-3.8207818e-10
5.8722494e-09
-4.5474366e-10
6.0327782e-09
-5.1882521e-10
6.2043171e-09
-5.5442859e-10
6.3722337e-09
-5.427272e-10
6.5231877e-09
-4.8789634e-10
6.6475184e-09
-4.018401e-10
6.743327e-09
-3.0964349e-10
6.815137e-09
-2.3206819e-10
6.8674592e-09
-1.690829e-10
6.9052373e-09
-1.220768e-10
6.9319348e-09
-8.6266773e-11
6.9498525e-09
-5.7893745e-11
6.9604786e-09
-3.4330006e-11
6.9648977e-09
-1.4271663e-11
6.9636098e-09
4.1702595e-12
6.956575e-09
2.2741508e-11
6.9442631e-09
3.9795001e-11
6.9274735e-09
5.4264711e-11
6.9068384e-09
6.6692233e-11
6.8832015e-09
7.6392633e-11
6.8573129e-09
8.3669063e-11
6.8297227e-09
8.9168691e-11
6.8010252e-09
9.2746808e-11
6.7717619e-09
9.4574548e-11
6.7422236e-09
9.5463545e-11
6.7125902e-09
9.5770831e-11
6.6831088e-09
9.5279349e-11
6.6539886e-09
9.4111901e-11
6.6252824e-09
9.2773912e-11
6.5969551e-09
9.1549678e-11
6.5689922e-09
9.0372192e-11
6.5414014e-09
8.9170094e-11
6.5142289e-09
8.7818387e-11
6.4869084e-09
8.8299222e-11
6.4598361e-09
8.7496793e-11
6.4302097e-09
9.5760342e-11
6.400464e-09
9.6149144e-11
6.3677541e-09
1.0569335e-10
6.2795671e-11
2.8985468e-06
5.1365687e-10
2.8983428e-06
1.3017412e-09
2.8980734e-06
1.7167113e-09
2.8977658e-06
1.9604031e-09
2.8974131e-06
2.2472704e-09
2.8970095e-06
2.5723666e-09
2.8965496e-06
2.9309318e-09
2.8960263e-06
3.3356301e-09
2.8954299e-06
3.8024241e-09
2.894748e-06
4.3476538e-09
2.8939654e-06
4.9909218e-09
2.8930622e-06
5.7608554e-09
2.8920128e-06
6.6946837e-09
2.8907809e-06
7.8611484e-09
2.88932e-06
9.3245574e-09
2.8875475e-06
1.1316778e-08
2.8853821e-06
1.3828984e-08
2.8825538e-06
1.8068619e-08
2.8790194e-06
2.25872e-08
2.8734889e-06
3.5363776e-08
2.8666277e-06
4.3881877e-08
2.8501569e-06
1.0536774e-07
2.8404285e-06
6.1893825e-08
1.4976233e-06
8.8672098e-06
1.0625639e-07
9.0495042e-06
5.2234033e-08
1.9034791e-07
3.9561684e-08
4.424085e-08
3.3432719e-08
2.1391926e-08
2.9643545e-08
1.3223098e-08
2.6954877e-08
9.3825959e-09
2.4902919e-08
7.1607455e-09
2.3256491e-08
5.7457184e-09
2.189515e-08
4.7508514e-09
2.0743674e-08
4.0184757e-09
1.9750947e-08
3.4644969e-09
1.8882065e-08
3.0323186e-09
1.811248e-08
2.685793e-09
1.742408e-08
2.4024759e-09
1.6803016e-08
2.1674811e-09
1.6238605e-08
1.9697726e-09
1.5722322e-08
1.8018104e-09
1.5247362e-08
1.6575967e-09
1.4808292e-08
1.5323451e-09
1.4400558e-08
1.4229868e-09
1.4020398e-08
1.3267528e-09
1.3664645e-08
1.2415715e-09
1.3330619e-08
1.165747e-09
1.3016036e-08
1.0978944e-09
1.2718938e-08
1.0368696e-09
1.2437635e-08
9.8174578e-10
1.217065e-08
9.3177647e-10
1.1916691e-08
8.8631601e-10
1.1674624e-08
8.4481215e-10
1.1443451e-08
8.0679309e-10
1.1222292e-08
7.7184355e-10
1.1010364e-08
7.39627e-10
1.0806963e-08
7.09867e-10
1.061146e-08
6.8230562e-10
1.0423289e-08
6.5671323e-10
1.0241944e-08
6.328947e-10
1.0066967e-08
6.1066829e-10
9.8979518e-09
5.8986098e-10
9.7345323e-09
5.7033232e-10
9.5763713e-09
5.5197944e-10
9.4231616e-09
5.3469951e-10
9.2746285e-09
5.1837804e-10
9.1305279e-09
5.0290819e-10
8.9906413e-09
4.882008e-10
8.8547745e-09
4.7417182e-10
8.7227622e-09
4.6071928e-10
8.5944683e-09
4.4774172e-10
8.4697804e-09
4.3515644e-10
8.3486102e-09
4.2287936e-10
8.230894e-09
4.1082442e-10
8.1165929e-09
3.9890576e-10
8.0056959e-09
3.8702535e-10
7.8982313e-09
3.7504608e-10
7.7942945e-09
3.6273399e-10
7.6940453e-09
3.4986433e-10
7.5976879e-09
3.3628212e-10
7.5054809e-09
3.2179763e-10
7.4177392e-09
3.0621392e-10
7.3348434e-09
2.8930288e-10
7.2572982e-09
2.7063148e-10
7.185776e-09
2.4961422e-10
7.1211327e-09
2.2561103e-10
7.0645297e-09
1.9755607e-10
7.0176013e-09
1.63798e-10
6.9821541e-09
1.2372984e-10
6.9609708e-09
7.3957889e-11
6.9562888e-09
1.6378693e-11
6.9706005e-09
-4.990888e-11
7.0075843e-09
-1.290314e-10
7.0704424e-09