/*--------------------------------*- C++ -*----------------------------------*\
| =========                 |                                                 |
| \\      /  F ield         | OpenFOAM: The Open Source CFD Toolbox           |
|  \\    /   O peration     | Version:  2206                                  |
|   \\  /    A nd           | Website:  www.openfoam.com                      |
|    \\/     M anipulation  |                                                 |
\*---------------------------------------------------------------------------*/
FoamFile
{
    version     2.0;
    format      ascii;
    arch        "LSB;label=32;scalar=64";
    class       volVectorField;
    location    "1100";
    object      U;
}
// * * * * * * * * * * * * * * * * * * * * * * * * * * * * * * * * * * * * * //

dimensions      [0 1 -1 0 0 0 0];

internalField   nonuniform List<vector> 
13056
(
(0.99999999 6.8307429e-10 5.0556336e-25)
(0.99994862 1.9624187e-09 0)
(0.99986378 2.9342242e-09 0)
(0.9997671 3.8006566e-09 0)
(0.99965656 4.941383e-09 0)
(0.99952957 6.4125145e-09 0)
(0.99938458 8.2787125e-09 0)
(0.99921959 1.0668113e-08 0)
(0.99903174 1.3756948e-08 0)
(0.99881732 1.7772587e-08 0)
(0.99857171 2.3016902e-08 0)
(0.99828912 2.9914192e-08 0)
(0.9979619 3.9045523e-08 0)
(0.99758028 5.1336205e-08 0)
(0.99712941 6.7915025e-08 0)
(0.99659238 9.1485257e-08 0)
(0.99593054 1.2334257e-07 0)
(0.99512555 1.7652005e-07 0)
(0.99401698 2.3959355e-07 0)
(0.9927225 4.0321348e-07 0)
(0.99027786 5.3128193e-07 0)
(0.98802783 1.3365855e-06 0)
(0.97914156 8.0655557e-07 -5.2078813e-21)
(0.98131235 0.00012219662 8.8405607e-18)
(0.0031105315 0.00012265152 0)
(0.0012254624 7.3214202e-08 -1.2341263e-20)
(0.00087240324 4.7870583e-08 4.0927176e-18)
(0.00071649839 6.0767582e-09 0)
(0.00062632341 3.7233021e-09 0)
(0.00056440844 2.6176928e-09 0)
(0.00051839025 1.9794949e-09 0)
(0.00048202301 1.5733191e-09 0)
(0.00045227575 1.288187e-09 0)
(0.00042735264 1.0786781e-09 0)
(0.0004060307 9.2041572e-10 0)
(0.00038748057 7.9710008e-10 0)
(0.00037113082 6.9836435e-10 0)
(0.00035656787 6.1775742e-10 0)
(0.00034347824 5.5098824e-10 0)
(0.00033161948 4.9488745e-10 0)
(0.00032080509 4.4727161e-10 0)
(0.00031087927 4.0643564e-10 1.001397e-25)
(0.00030172459 3.7102166e-10 0)
(0.00029324028 3.4012594e-10 0)
(0.00028534426 3.1296456e-10 0)
(0.00027796756 2.889421e-10 0)
(0.00027105195 2.675734e-10 0)
(0.00026454798 2.4846356e-10 0)
(0.00025841336 2.312872e-10 0)
(0.0002526118 2.1578033e-10 0)
(0.00024711167 2.0172887e-10 0)
(0.00024188528 1.8894886e-10 0)
(0.00023690843 1.7728376e-10 0)
(0.00023215978 1.6660017e-10 0)
(0.00022762056 1.5678182e-10 0)
(0.00022327422 1.4773346e-10 0)
(0.00021910584 1.3937565e-10 0)
(0.00021510206 1.3163575e-10 0)
(0.00021125094 1.2444976e-10 0)
(0.00020754176 1.1776295e-10 0)
(0.00020396483 1.1152547e-10 0)
(0.00020051151 1.0569121e-10 0)
(0.0001971741 1.0022217e-10 0)
(0.00019394558 9.5088557e-11 0)
(0.00019081945 9.0261783e-11 0)
(0.00018778985 8.5712675e-11 0)
(0.00018485161 8.1414793e-11 0)
(0.00018200011 7.734587e-11 0)
(0.00017923118 7.348559e-11 0)
(0.00017654118 6.9811969e-11 0)
(0.00017392713 6.6304475e-11 0)
(0.00017138655 6.2946701e-11 0)
(0.0001689174 5.9723086e-11 0)
(0.00016651818 5.6618849e-11 0)
(0.00016418784 5.362041e-11 0)
(0.00016192586 5.0713657e-11 0)
(0.00015973232 4.788081e-11 0)
(0.00015760829 4.5093692e-11 0)
(0.00015555656 4.2328366e-11 0)
(0.00015358077 3.9572247e-11 0)
(0.0001516855 3.6810247e-11 0)
(0.00014987658 3.4029012e-11 0)
(0.00014816084 3.1214416e-11 0)
(0.00014654675 2.8333267e-11 0)
(0.00014504615 2.5342159e-11 0)
(0.00014367423 2.2199845e-11 0)
(0.00014245023 1.8831874e-11 0)
(0.0001414017 1.5118616e-11 0)
(0.00014056693 1.1077968e-11 0)
(0.00013998032 2.4043419e-11 0)
(0.00013971996 1.7734242e-12 -1.6186006e-25)
(0.00013979645 -4.0537517e-12 0)
(0.00014030115 -9.8413169e-12 0)
(0.00014129 -1.6149334e-11 0)
(0.00014283629 -2.2784031e-11 0)
(0.0001450009 -2.9286605e-11 0)
(0.00014779328 -3.5075953e-11 0)
(0.00015118006 -4.003488e-11 0)
(0.00015514614 -4.3762937e-11 0)
(0.00015956611 -4.4765296e-11 0)
(0.00016410063 -4.1888605e-11 0)
(0.00016832233 -3.5960046e-11 0)
(0.00017196505 -1.0618538e-10 9.0716701e-21)
(0.00017479065 -2.0679293e-11 0)
(0.00017694743 -1.4732801e-11 0)
(0.00017852193 -1.0170105e-11 0)
(0.00017966521 -6.9516389e-12 0)
(0.00018048332 -4.6428463e-12 0)
(0.0001810503 -2.9404471e-12 0)
(0.0001814115 -1.6439823e-12 0)
(0.00018159886 -6.6594815e-13 0)
(0.00018163685 2.2428192e-13 0)
(0.00018152636 8.8348678e-13 0)
(0.0001812701 1.5121678e-12 0)
(0.00018088731 2.064787e-12 0)
(0.0001803943 2.539636e-12 0)
(0.00017981097 2.9102902e-12 0)
(0.00017916144 3.1883316e-12 0)
(0.00017846071 3.3987273e-12 0)
(0.00017772242 3.535686e-12 0)
(0.00017696396 3.6056871e-12 0)
(0.0001761962 3.6398823e-12 0)
(0.00017542339 3.6519248e-12 0)
(0.00017465066 3.6334127e-12 0)
(0.00017388579 3.5889885e-12 0)
(0.00017313191 3.5380927e-12 0)
(0.00017238863 3.4915455e-12 0)
(0.00017165449 3.4468703e-12 0)
(0.00017093019 3.4011259e-12 0)
(0.00017021544 3.3497181e-12 0)
(0.00016951295 3.3681689e-12 0)
(0.00016879033 3.3387122e-12 0)
(0.00016810084 3.6525442e-12 0)
(0.00016724435 1.3848202e-11 0)
(0.00016654889 3.9759769e-12 4.8237897e-24)
(0.00016553754 9.1300706e-12 0)
(0.99999999 2.0610701e-09 0)
(0.99994854 5.922576e-09 0)
(0.99986354 8.8563549e-09 0)
(0.99976667 1.1471771e-08 0)
(0.99965591 1.4914839e-08 0)
(0.99952867 1.9355076e-08 0)
(0.99938339 2.4987618e-08 0)
(0.99921809 3.2199119e-08 0)
(0.99902988 4.1521381e-08 0)
(0.99881506 5.3640498e-08 0)
(0.99856899 6.9467363e-08 0)
(0.99828589 9.0282239e-08 0)
(0.99795809 1.1783835e-07 0)
(0.99757581 1.5492758e-07 0)
(0.99712417 2.0495543e-07 0)
(0.99658626 2.7607822e-07 0)
(0.99592336 3.7220324e-07 0)
(0.99511714 5.3265359e-07 0)
(0.99400694 7.2295266e-07 0)
(0.99271064 1.2165884e-06 0)
(0.99026284 1.6029623e-06 0)
(0.98800996 4.0326271e-06 0)
(0.9791126 2.4323591e-06 1.9330799e-20)
(0.98127901 0.00036726851 -7.3526046e-21)
(0.0093427401 0.00036910887 0)
(0.0036944278 1.2049425e-06 0)
(0.0026302082 2.6972746e-07 3.8217244e-22)
(0.0021602177 1.2736775e-07 0)
(0.0018883349 7.801191e-08 0)
(0.0017016581 5.4853422e-08 0)
(0.0015629096 4.1477056e-08 0)
(0.0014532619 3.2965911e-08 0)
(0.0013635742 2.6991453e-08 0)
(0.0012884312 2.2601368e-08 0)
(0.0012241461 1.9285054e-08 0)
(0.0011682182 1.6701071e-08 0)
(0.0011189246 1.4632188e-08 0)
(0.0010750182 1.2943192e-08 0)
(0.0010355538 1.1544141e-08 0)
(0.00099980044 1.0368666e-08 0)
(0.00096719586 9.3711242e-09 -6.5406122e-26)
(0.00093727029 8.5155404e-09 -1.4803016e-25)
(0.00090966968 7.7734309e-09 -2.3668142e-26)
(0.00088409018 7.1260723e-09 0)
(0.00086028434 6.5569552e-09 0)
(0.00083804422 6.0536128e-09 0)
(0.00081719427 5.6058803e-09 0)
(0.00079758538 5.2054807e-09 0)
(0.00077909004 4.8455966e-09 0)
(0.00076159887 4.5206941e-09 0)
(0.00074501649 4.2262864e-09 0)
(0.00072925941 3.9585207e-09 0)
(0.00071425467 3.714115e-09 0)
(0.00069993793 3.4902751e-09 0)
(0.0006862526 3.2845658e-09 0)
(0.00067314876 3.0949891e-09 0)
(0.00066058149 2.9198798e-09 0)
(0.00064851046 2.7577175e-09 0)
(0.00063689971 2.6071608e-09 0)
(0.00062571687 2.4670628e-09 0)
(0.00061493275 2.3363787e-09 0)
(0.00060452129 2.2141438e-09 0)
(0.00059445931 2.0995601e-09 0)
(0.00058472563 1.992003e-09 0)
(0.00057530061 1.8908742e-09 0)
(0.00056616666 1.7955626e-09 0)
(0.00055730812 1.7055135e-09 0)
(0.00054871109 1.6202605e-09 0)
(0.00054036301 1.5393778e-09 0)
(0.00053225291 1.4624052e-09 0)
(0.00052437177 1.3889124e-09 0)
(0.00051671213 1.3185545e-09 0)
(0.00050926786 1.2510048e-09 0)
(0.0005020344 1.1859538e-09 0)
(0.0004950086 1.1231164e-09 0)
(0.00048818891 1.0621969e-09 0)
(0.00048157557 1.0028219e-09 0)
(0.0004751718 9.4440148e-10 0)
(0.00046898601 8.8643368e-10 0)
(0.00046302918 8.286502e-10 0)
(0.00045731511 7.7073706e-10 0)
(0.00045186139 7.1241366e-10 0)
(0.00044668862 6.533802e-10 0)
(0.00044182233 5.9294128e-10 0)
(0.00043729822 5.301878e-10 0)
(0.00043316216 4.6424663e-10 0)
(0.00042947208 3.935513e-10 0)
(0.0004263111 3.1567138e-10 0)
(0.00042379468 2.304944e-10 0)
(0.00042202654 1.3507579e-10 1.385864e-25)
(0.00042124203 2.8285259e-11 5.2107644e-25)
(0.00042147325 -8.3230155e-11 0)
(0.00042299548 -2.0780969e-10 0)
(0.00042597742 -3.4006227e-10 0)
(0.00043063998 -4.7900369e-10 0)
(0.00043716663 -6.1496842e-10 0)
(0.00044558579 -7.3589401e-10 0)
(0.00045579683 -8.3948239e-10 0)
(0.00046775401 -9.169971e-10 0)
(0.00048107904 -9.3704045e-10 0)
(0.00049474903 -8.7597912e-10 0)
(0.00050747583 -7.5100181e-10 0)
(0.00051845717 -5.9768247e-10 -8.3382393e-25)
(0.00052697549 -4.3166435e-10 -4.2202881e-25)
(0.00053347761 -3.071615e-10 0)
(0.00053822448 -2.1216312e-10 0)
(0.00054167139 -1.4496849e-10 0)
(0.000544138 -9.6779753e-11 0)
(0.0005458475 -6.1242348e-11 0)
(0.00054693657 -3.4168593e-11 0)
(0.00054750155 -1.3311137e-11 0)
(0.00054761615 3.6268489e-12 0)
(0.00054728309 1.8655175e-11 0)
(0.00054651053 3.1803217e-11 0)
(0.00054535649 4.3360492e-11 0)
(0.00054387013 5.3287673e-11 0)
(0.0005421115 6.1035305e-11 0)
(0.00054015325 6.6847068e-11 0)
(0.00053804064 7.1240723e-11 0)
(0.00053581481 7.4098418e-11 0)
(0.00053352814 7.5557208e-11 0)
(0.00053121343 7.6267147e-11 0)
(0.00052888352 7.6513011e-11 0)
(0.00052655384 7.6119942e-11 0)
(0.00052424785 7.5186424e-11 0)
(0.000521975 7.4117582e-11 0)
(0.0005197341 7.3140215e-11 0)
(0.00051752078 7.2200364e-11 0)
(0.00051533714 7.1240495e-11 0)
(0.00051318227 7.0161057e-11 0)
(0.00051106438 7.0548791e-11 0)
(0.00050888587 6.9910157e-11 0)
(0.00050680715 7.6523308e-11 0)
(0.00050422539 7.7986401e-11 0)
(0.00050212865 8.4289563e-11 -7.4614465e-24)
(0.00049907954 5.1134186e-11 1.1542952e-24)
(0.99999999 3.4720955e-09 0)
(0.99994845 9.9782195e-09 0)
(0.99986328 1.4922337e-08 0)
(0.99976619 1.9329551e-08 0)
(0.99965518 2.5130909e-08 0)
(0.99952766 3.261229e-08 0)
(0.99938208 4.2102432e-08 0)
(0.99921642 5.4252668e-08 0)
(0.99902781 6.9958858e-08 0)
(0.99881254 9.0376767e-08 0)
(0.99856597 1.1704079e-07 0)
(0.9982823 1.5210748e-07 0)
(0.99795385 1.9852996e-07 0)
(0.99757083 2.6101085e-07 0)
(0.99711834 3.4528586e-07 0)
(0.99657945 4.6509323e-07 0)
(0.99591538 6.2701122e-07 0)
(0.99510778 8.9727387e-07 0)
(0.99399577 1.2177984e-06 0)
(0.99269746 2.0492044e-06 0)
(0.99024616 2.6999495e-06 0)
(0.98799009 6.7922354e-06 0)
(0.97908047 4.0997718e-06 -1.0241515e-20)
(0.98124208 0.00061607406 6.7825938e-55)
(0.015677621 0.00062031988 -6.7803586e-55)
(0.0062182124 3.3782732e-06 0)
(0.0044272041 7.7049006e-07 -2.0457005e-22)
(0.0036361745 3.6976922e-07 0)
(0.0031785178 2.2649278e-07 0)
(0.002864288 1.5925826e-07 0)
(0.0026307332 1.2042091e-07 0)
(0.0024461671 9.570926e-08 0)
(0.0022951995 7.836364e-08 0)
(0.0021687148 6.5617868e-08 0)
(0.0020605069 5.5989475e-08 0)
(0.0019663667 4.8487337e-08 0)
(0.0018833939 4.2480764e-08 0)
(0.0018094891 3.7577147e-08 0)
(0.0017430615 3.3515327e-08 0)
(0.0016828804 3.0102621e-08 0)
(0.0016279995 2.7206504e-08 0)
(0.0015776281 2.4722524e-08 0)
(0.0015311701 2.2568005e-08 0)
(0.0014881141 2.0688574e-08 0)
(0.0014480436 1.9036297e-08 0)
(0.0014106086 1.7574979e-08 0)
(0.0013755135 1.627511e-08 0)
(0.0013425074 1.511266e-08 0)
(0.0013113757 1.4067836e-08 0)
(0.0012819342 1.3124573e-08 0)
(0.0012540225 1.2269843e-08 0)
(0.0012274998 1.149246e-08 0)
(0.0012022436 1.0782897e-08 0)
(0.0011781454 1.0133041e-08 0)
(0.00115511 9.5358231e-09 0)
(0.0011330533 8.9854414e-09 0)
(0.0011118999 8.4770618e-09 0)
(0.0010915817 8.00627e-09 0)
(0.0010720383 7.5691718e-09 0)
(0.0010532151 7.1624377e-09 0)
(0.0010350631 6.7830341e-09 0)
(0.0010175383 6.4281607e-09 0)
(0.0010006018 6.095501e-09 0)
(0.00098421787 5.7832406e-09 0)
(0.0009683535 5.4896433e-09 0)
(0.00095297905 5.2129342e-09 0)
(0.00093806817 4.9515034e-09 0)
(0.00092359747 4.7039968e-09 0)
(0.00090954581 4.4691781e-09 0)
(0.00089589471 4.2457113e-09 0)
(0.00088262901 4.0323474e-09 0)
(0.00086973613 3.8280848e-09 0)
(0.00085720575 3.6319752e-09 0)
(0.00084503023 3.4431199e-09 0)
(0.00083320424 3.2606909e-09 0)
(0.00082172517 3.08383e-09 0)
(0.00081059344 2.9114526e-09 0)
(0.00079981446 2.7418468e-09 0)
(0.00078940239 2.5735558e-09 0)
(0.00077937573 2.4057995e-09 0)
(0.00076975768 2.2376672e-09 0)
(0.00076057787 2.0683439e-09 0)
(0.00075187098 1.8969572e-09 0)
(0.00074367998 1.7214888e-09 0)
(0.000736065 1.539299e-09 0)
(0.00072910324 1.3478526e-09 0)
(0.00072289226 1.1426028e-09 0)
(0.00071757195 9.1648917e-10 0)
(0.00071333668 6.6924143e-10 0)
(0.000710361 3.859443e-10 2.9382793e-25)
(0.00070904111 8.3052874e-11 -2.7619175e-25)
(0.00070943105 -2.420113e-10 0)
(0.00071199407 -6.032926e-10 0)
(0.00071701416 -9.8723662e-10 0)
(0.00072486306 -1.3906008e-09 0)
(0.00073584946 -1.7853319e-09 0)
(0.00075002122 -2.1364125e-09 0)
(0.00076720891 -2.4371363e-09 0)
(0.00078733516 -2.662141e-09 0)
(0.00080976305 -2.7203459e-09 0)
(0.0008327711 -2.5431229e-09 0)
(0.0008541915 -2.1803906e-09 0)
(0.00087267413 -1.7076657e-09 0)
(0.00088701159 -1.253302e-09 0)
(0.00089795571 -8.9188946e-10 0)
(0.0009059457 -6.1604903e-10 0)
(0.0009117477 -4.2095548e-10 0)
(0.00091589971 -2.8103761e-10 0)
(0.00091877735 -1.7784976e-10 0)
(0.00092061065 -9.9239588e-11 0)
(0.0009215618 -3.8729708e-11 0)
(0.00092175481 1.0658388e-11 0)
(0.00092119431 5.4139051e-11 0)
(0.00091989401 9.23151e-11 0)
(0.00091795157 1.2587127e-10 0)
(0.00091544975 1.5469385e-10 0)
(0.00091248965 1.7718937e-10 0)
(0.00090919353 1.9406407e-10 0)
(0.00090563759 2.0682045e-10 0)
(0.00090189109 2.1511833e-10 0)
(0.00089804216 2.1935508e-10 0)
(0.00089414605 2.2141677e-10 0)
(0.00089022433 2.2213065e-10 0)
(0.00088630303 2.2099015e-10 0)
(0.00088242158 2.1828086e-10 0)
(0.00087859591 2.1517784e-10 0)
(0.00087482403 2.1234008e-10 0)
(0.00087109858 2.0961106e-10 0)
(0.00086742309 2.068243e-10 0)
(0.00086379604 2.0369007e-10 0)
(0.00086023124 2.048143e-10 0)
(0.00085656451 2.0295637e-10 0)
(0.0008530656 2.2215545e-10 0)
(0.00084872059 2.2275733e-10 0)
(0.00084519132 2.4490994e-10 0)
(0.000840059 1.4577982e-10 0)
(0.99999999 4.9376403e-09 1.0834578e-24)
(0.99994835 1.4191785e-08 0)
(0.99986298 2.1225854e-08 0)
(0.99976565 2.7495444e-08 0)
(0.99965437 3.5747474e-08 0)
(0.99952654 4.6388981e-08 0)
(0.9993806 5.988749e-08 0)
(0.99921455 7.7169229e-08 0)
(0.99902549 9.950819e-08 0)
(0.99880972 1.2854795e-07 0)
(0.99856258 1.6647043e-07 0)
(0.99827827 2.163422e-07 0)
(0.9979491 2.8236234e-07 0)
(0.99756526 3.7121757e-07 0)
(0.99711182 4.9106277e-07 0)
(0.99657183 6.6143218e-07 0)
(0.99590644 8.9167453e-07 0)
(0.99509731 1.2759665e-06 0)
(0.99398328 1.7317021e-06 0)
(0.99268273 2.9137781e-06 0)
(0.99022751 3.8389843e-06 0)
(0.98796791 9.6574657e-06 0)
(0.97904467 5.8331978e-06 0)
(0.98120096 0.00087226776 -3.5385546e-55)
(0.022206556 0.0008801171 3.5373984e-55)
(0.0088343995 6.966366e-06 0)
(0.0062901666 1.5884787e-06 0)
(0.0051663657 7.6164158e-07 0)
(0.0045160998 4.6654561e-07 0)
(0.0040696243 3.2805321e-07 0)
(0.0037377738 2.4805147e-07 0)
(0.0034755346 1.9714684e-07 0)
(0.0032610347 1.6141716e-07 0)
(0.0030813209 1.3516257e-07 0)
(0.0029275761 1.153292e-07 0)
(0.0027938197 9.9875725e-08 0)
(0.0026759304 8.7503031e-08 0)
(0.0025709255 7.7402322e-08 0)
(0.0024765442 6.9035603e-08 0)
(0.0023910384 6.2005976e-08 0)
(0.0023130631 5.6040461e-08 0)
(0.0022414949 5.0923872e-08 0)
(0.0021754871 4.6485927e-08 0)
(0.0021143129 4.2614634e-08 0)
(0.0020573805 3.9211235e-08 0)
(0.0020041926 3.6201181e-08 0)
(0.0019543294 3.3523685e-08 0)
(0.0019074343 3.1129247e-08 0)
(0.0018632022 2.8977102e-08 0)
(0.0018213717 2.7034153e-08 0)
(0.0017817145 2.5273567e-08 0)
(0.0017440311 2.3672303e-08 0)
(0.0017081469 2.2210735e-08 0)
(0.0016739081 2.0872153e-08 0)
(0.0016411794 1.9641996e-08 0)
(0.0016098413 1.8508313e-08 0)
(0.0015797864 1.7461147e-08 0)
(0.0015509183 1.6491405e-08 0)
(0.0015231509 1.5591066e-08 0)
(0.0014964069 1.475327e-08 0)
(0.0014706164 1.3971771e-08 0)
(0.0014457172 1.32408e-08 0)
(0.0014216537 1.2555585e-08 0)
(0.0013983754 1.1912389e-08 0)
(0.0013758352 1.1307636e-08 0)
(0.0013539911 1.0737668e-08 0)
(0.0013328057 1.0199171e-08 0)
(0.0013122456 9.6893554e-09 0)
(0.0012922809 9.205674e-09 0)
(0.0012728854 8.7453754e-09 0)
(0.0012540374 8.3058874e-09 0)
(0.0012357191 7.8851459e-09 0)
(0.0012179158 7.4811977e-09 0)
(0.0012006168 7.0921918e-09 0)
(0.0011838143 6.7164221e-09 0)
(0.0011675047 6.3521212e-09 0)
(0.0011516887 5.9970542e-09 0)
(0.0011363738 5.6476963e-09 0)
(0.0011215803 5.3010465e-09 0)
(0.0011073343 4.9554968e-09 0)
(0.0010936689 4.6091721e-09 0)
(0.0010806262 4.2603928e-09 0)
(0.0010682554 3.9073595e-09 0)
(0.0010566176 3.5459148e-09 0)
(0.0010457983 3.1706216e-09 0)
(0.0010359072 2.7762559e-09 0)
(0.0010270829 2.3534528e-09 0)
(0.0010195241 1.8876742e-09 0)
(0.0010135072 1.3783648e-09 0)
(0.0010092799 7.9559863e-10 -1.6004958e-25)
(0.0010074054 1.7075892e-10 0)
(0.0010079604 -4.9866211e-10 0)
(0.0010116029 -1.2428926e-09 0)
(0.0010187365 -2.0337401e-09 0)
(0.0010298893 -2.8645646e-09 0)
(0.0010454996 -3.6775888e-09 0)
(0.0010656354 -4.4006996e-09 0)
(0.001090056 -5.0200546e-09 0)
(0.001118651 -5.483379e-09 0)
(0.0011505151 -5.603142e-09 0)
(0.001183203 -5.2380478e-09 0)
(0.0012136351 -4.4909161e-09 0)
(0.0012398936 -3.520813e-09 9.623441e-25)
(0.0012602634 -2.5814578e-09 0)
(0.0012758126 -1.8370809e-09 0)
(0.0012871648 -1.2689387e-09 0)
(0.0012954086 -8.6709925e-10 0)
(0.0013013081 -5.7890051e-10 0)
(0.0013053969 -3.663522e-10 0)
(0.001308002 -2.0442988e-10 0)
(0.0013093537 -7.9781695e-11 0)
(0.0013096281 2.1926424e-11 0)
(0.0013088319 1.115091e-10 0)
(0.0013069846 1.9014686e-10 0)
(0.0013042249 2.5926718e-10 0)
(0.0013006704 3.1863586e-10 0)
(0.0012964648 3.6497351e-10 0)
(0.0012917817 3.9973218e-10 0)
(0.0012867295 4.2600697e-10 0)
(0.0012814066 4.4309912e-10 0)
(0.0012759381 4.5182687e-10 0)
(0.0012704025 4.5607347e-10 0)
(0.0012648306 4.5754318e-10 0)
(0.0012592592 4.551941e-10 0)
(0.0012537445 4.4961416e-10 0)
(0.0012483091 4.4322236e-10 0)
(0.00124295 4.3737638e-10 0)
(0.001237657 4.3175413e-10 0)
(0.0012324349 4.2601342e-10 0)
(0.0012272817 4.1955696e-10 0)
(0.0012222169 4.2186938e-10 0)
(0.0012170074 4.1803869e-10 0)
(0.0012120362 4.5757686e-10 0)
(0.0012058637 4.5923568e-10 0)
(0.0012008494 5.0467283e-10 0)
(0.0011935573 3.0024931e-10 0)
(0.99999999 6.4800248e-09 0)
(0.99994824 1.8627631e-08 0)
(0.99986265 2.786344e-08 0)
(0.99976505 3.6094588e-08 0)
(0.99965346 4.6927209e-08 0)
(0.99952528 6.0896202e-08 0)
(0.99937894 7.8615179e-08 0)
(0.99921244 1.0129966e-07 0)
(0.99902289 1.306216e-07 0)
(0.99880655 1.6873794e-07 0)
(0.99855877 2.1851203e-07 0)
(0.99827375 2.8396796e-07 0)
(0.99794376 3.7061579e-07 0)
(0.99755899 4.8722976e-07 0)
(0.99710449 6.4450954e-07 0)
(0.99656326 8.6808741e-07 0)
(0.99589641 1.1702235e-06 0)
(0.99508555 1.6744927e-06 0)
(0.99396926 2.2724744e-06 0)
(0.99266619 3.8234298e-06 0)
(0.9902066 5.037336e-06 0)
(0.98794302 1.2671747e-05 0)
(0.97900458 7.6592872e-06 0)
(0.98115495 0.0011394783 0)
(0.029022017 0.0011522016 0)
(0.011581939 1.2123578e-05 0)
(0.0082468539 2.756101e-06 0)
(0.0067735984 1.3209294e-06 0)
(0.0059210163 8.0917901e-07 0)
(0.0053356308 5.6897942e-07 0)
(0.0049005294 4.3022162e-07 0)
(0.0045567046 3.4192929e-07 0)
(0.0042754727 2.7995959e-07 0)
(0.0040398493 2.3442363e-07 0)
(0.0038382747 2.0002435e-07 0)
(0.0036629077 1.7322171e-07 0)
(0.0035083444 1.5176258e-07 0)
(0.0033706738 1.3424404e-07 0)
(0.0032469321 1.1973294e-07 0)
(0.0031348269 1.0754091e-07 0)
(0.003032595 9.7194478e-08 0)
(0.0029387633 8.832039e-08 0)
(0.002852222 8.0623341e-08 0)
(0.0027720179 7.3909105e-08 0)
(0.0026973751 6.8006367e-08 0)
(0.0026276417 6.2785834e-08 0)
(0.0025622672 5.8142082e-08 0)
(0.0025007841 5.3989259e-08 0)
(0.0024427926 5.025666e-08 0)
(0.0023879495 4.6886887e-08 0)
(0.0023359561 4.3833398e-08 0)
(0.0022865503 4.105623e-08 0)
(0.0022395034 3.8521346e-08 0)
(0.0021946138 3.6199765e-08 0)
(0.0021517039 3.4066233e-08 0)
(0.0021106173 3.2100023e-08 0)
(0.0020712131 3.0283864e-08 0)
(0.0020333648 2.8601985e-08 0)
(0.0019969597 2.7040476e-08 0)
(0.0019618963 2.5587441e-08 0)
(0.0019280831 2.4232044e-08 0)
(0.0018954383 2.2964281e-08 0)
(0.0018638893 2.1775877e-08 0)
(0.0018333696 2.0660348e-08 0)
(0.0018038177 1.9611492e-08 0)
(0.0017751784 1.8622967e-08 0)
(0.0017474027 1.7689023e-08 0)
(0.0017204469 1.6804822e-08 0)
(0.0016942716 1.5965948e-08 0)
(0.0016688425 1.5167627e-08 0)
(0.0016441313 1.44054e-08 0)
(0.0016201146 1.3675686e-08 0)
(0.0015967731 1.2975098e-08 0)
(0.0015740926 1.2300424e-08 0)
(0.0015520632 1.1648705e-08 0)
(0.0015306801 1.1016876e-08 0)
(0.0015099439 1.0401061e-08 0)
(0.0014898649 9.7951465e-09 0)
(0.0014704694 9.1939294e-09 0)
(0.0014517917 8.5946183e-09 0)
(0.0014338753 7.9939623e-09 0)
(0.0014167752 7.3890471e-09 0)
(0.0014005561 6.7767479e-09 0)
(0.0013852981 6.1498544e-09 0)
(0.0013711133 5.4989359e-09 0)
(0.0013581454 4.8149302e-09 0)
(0.0013465764 4.0815966e-09 0)
(0.0013366668 3.2737265e-09 0)
(0.0013287788 2.3903718e-09 0)
(0.0013232371 1.380309e-09 0)
(0.0013207806 2.9580064e-10 0)
(0.0013215093 -8.6514618e-10 0)
(0.0013262862 -2.1559445e-09 0)
(0.0013356401 -3.5275457e-09 0)
(0.0013502634 -4.9684442e-09 0)
(0.0013707306 -6.378448e-09 0)
(0.0013971308 -7.6325084e-09 0)
(0.0014291484 -8.7065651e-09 0)
(0.0014666378 -9.5099171e-09 0)
(0.0015084121 -9.7174447e-09 0)
(0.0015512657 -9.0841843e-09 0)
(0.0015911619 -7.7884534e-09 0)
(0.001625587 -6.1092078e-09 0)
(0.0016522922 -4.4770339e-09 0)
(0.0016726782 -3.1861214e-09 0)
(0.0016875621 -2.200808e-09 0)
(0.0016983707 -1.5038964e-09 0)
(0.001706106 -1.0040614e-09 0)
(0.0017114673 -6.3542202e-10 0)
(0.0017148832 -3.5458775e-10 0)
(0.0017166558 -1.3839375e-10 0)
(0.0017170159 3.7998319e-11 0)
(0.0017159724 1.9338034e-10 0)
(0.0017135506 3.2977071e-10 0)
(0.0017099326 4.4965221e-10 0)
(0.0017052726 5.5261875e-10 0)
(0.0016997588 6.3298624e-10 0)
(0.0016936191 6.932713e-10 0)
(0.0016869954 7.3884011e-10 0)
(0.0016800167 7.6848445e-10 0)
(0.0016728472 7.836231e-10 0)
(0.0016655897 7.9098823e-10 0)
(0.0016582846 7.9353626e-10 0)
(0.0016509803 7.8946248e-10 0)
(0.0016437502 7.7978605e-10 0)
(0.0016366239 7.6870019e-10 0)
(0.0016295979 7.5855998e-10 0)
(0.0016226584 7.488075e-10 0)
(0.001615812 7.3885014e-10 0)
(0.0016090559 7.2765168e-10 0)
(0.0016024157 7.3165579e-10 0)
(0.001595586 7.2500883e-10 0)
(0.0015890685 7.9355966e-10 0)
(0.0015809771 7.9680395e-10 0)
(0.0015744029 8.7548738e-10 -9.6120067e-24)
(0.0015648425 5.2067536e-10 1.4870179e-24)
(0.99999999 8.122977e-09 0)
(0.99994812 2.3354302e-08 0)
(0.99986227 3.4938047e-08 0)
(0.99976437 4.5260486e-08 0)
(0.99965244 5.8843659e-08 0)
(0.99952386 7.6359081e-08 0)
(0.99937707 9.857601e-08 0)
(0.99921007 1.270181e-07 0)
(0.99901994 1.6378121e-07 0)
(0.99880297 2.1156911e-07 0)
(0.99855448 2.7397089e-07 0)
(0.99826864 3.5603043e-07 0)
(0.99793774 4.6465377e-07 0)
(0.99755193 6.1083814e-07 0)
(0.99709622 8.079924e-07 0)
(0.9965536 1.0882422e-06 0)
(0.99588509 1.4669436e-06 0)
(0.9950723 2.098975e-06 0)
(0.99395346 2.8484125e-06 0)
(0.99264755 4.7920847e-06 0)
(0.99018304 6.3133306e-06 0)
(0.987915 1.5881135e-05 0)
(0.9789595 9.6066122e-06 0)
(0.98110331 0.0014213834 0)
(0.036218661 0.0014405287 0)
(0.014501722 1.9005633e-05 0)
(0.010326421 4.3393481e-06 0)
(0.0084818306 2.0798262e-06 0)
(0.007414208 1.2741357e-06 0)
(0.0066811764 8.9591958e-07 0)
(0.006136329 6.774279e-07 0)
(0.0057057895 5.3839756e-07 0)
(0.0053536313 4.4081995e-07 0)
(0.005058584 3.6911915e-07 0)
(0.0048061738 3.1495367e-07 0)
(0.0045865815 2.7275009e-07 0)
(0.00439304 2.3896068e-07 0)
(0.0042206516 2.1137627e-07 0)
(0.0040657049 1.8852735e-07 0)
(0.0039253295 1.6933005e-07 0)
(0.0037973172 1.5303883e-07 0)
(0.0036798237 1.3906591e-07 3.5449128e-25)
(0.003571459 1.2694635e-07 0)
(0.0034710296 1.1637435e-07 -8.9504698e-35)
(0.0033775641 1.070801e-07 0)
(0.003290246 9.8860033e-08 0)
(0.003208386 9.1548148e-08 0)
(0.0031313987 8.5009266e-08 0)
(0.0030587834 7.9132058e-08 0)
(0.0029901106 7.3826146e-08 0)
(0.002925006 6.9018243e-08 0)
(0.0028631416 6.4645426e-08 0)
(0.0028042309 6.06541e-08 0)
(0.0027480215 5.6998633e-08 0)
(0.0026942911 5.3639262e-08 0)
(0.0026428437 5.0543353e-08 0)
(0.002593503 4.7683705e-08 0)
(0.0025461105 4.5035491e-08 0)
(0.0025005252 4.2576806e-08 0)
(0.0024566198 4.028892e-08 0)
(0.0024142799 3.8154771e-08 0)
(0.0023734031 3.6158609e-08 0)
(0.0023338984 3.4287402e-08 0)
(0.0022956825 3.2530942e-08 0)
(0.0022586785 3.0879461e-08 0)
(0.0022228172 2.9322975e-08 0)
(0.0021880372 2.785243e-08 0)
(0.0021542839 2.6460208e-08 0)
(0.002121508 2.5139354e-08 0)
(0.0020896663 2.3882356e-08 0)
(0.0020587236 2.268219e-08 0)
(0.0020286505 2.1533216e-08 0)
(0.0019994229 2.0430102e-08 0)
(0.0019710229 1.9367791e-08 0)
(0.0019434383 1.8341623e-08 0)
(0.0019166628 1.7346771e-08 0)
(0.0018906975 1.637713e-08 0)
(0.001865555 1.542308e-08 0)
(0.0018412683 1.4476426e-08 0)
(0.0018178806 1.3532771e-08 0)
(0.001795446 1.2586996e-08 0)
(0.0017740337 1.1634512e-08 0)
(0.0017537245 1.0670392e-08 0)
(0.0017346189 9.6832826e-09 0)
(0.0017168571 8.6583347e-09 0)
(0.0017006193 7.581275e-09 0)
(0.0016861332 6.4265349e-09 0)
(0.0016737253 5.1544283e-09 0)
(0.0016638489 3.7635046e-09 0)
(0.0016569105 2.1731215e-09 0)
(0.0016538359 4.6531462e-10 0)
(0.0016547497 -1.3626647e-09 0)
(0.0016607326 -3.39512e-09 0)
(0.0016724469 -5.5547648e-09 0)
(0.001690759 -7.8234673e-09 0)
(0.0017163884 -1.0043498e-08 0)
(0.0017494467 -1.2017986e-08 0)
(0.0017895384 -1.3708956e-08 0)
(0.0018364806 -1.4973553e-08 0)
(0.0018887864 -1.5300059e-08 0)
(0.001942443 -1.4302895e-08 0)
(0.0019923967 -1.2262817e-08 0)
(0.0020355007 -9.6193688e-09 0)
(0.0020689388 -7.0491923e-09 -3.1068218e-25)
(0.0020944657 -5.0167371e-09 0)
(0.0021131035 -3.4653613e-09 0)
(0.0021266385 -2.3680591e-09 0)
(0.0021363252 -1.5810401e-09 0)
(0.0021430392 -1.0005835e-09 0)
(0.0021473172 -5.5838464e-10 0)
(0.0021495373 -2.1796188e-10 0)
(0.0021499888 5.9788881e-11 0)
(0.0021486825 3.0445609e-10 0)
(0.0021456504 5.1921868e-10 0)
(0.0021411203 7.0798348e-10 0)
(0.0021352855 8.7011132e-10 0)
(0.0021283815 9.9665731e-10 0)
(0.0021206937 1.0915823e-09 0)
(0.0021123999 1.163332e-09 0)
(0.0021036616 1.2100099e-09 0)
(0.0020946843 1.2338495e-09 0)
(0.0020855968 1.2454466e-09 0)
(0.0020764497 1.2494573e-09 0)
(0.0020673036 1.2430437e-09 0)
(0.0020582503 1.2278096e-09 0)
(0.0020493272 1.2103541e-09 0)
(0.0020405295 1.1943858e-09 0)
(0.0020318402 1.1790278e-09 0)
(0.0020232675 1.1633477e-09 0)
(0.0020148078 1.1457143e-09 0)
(0.0020064933 1.1520077e-09 0)
(0.0019979419 1.1415394e-09 0)
(0.0019897809 1.2494322e-09 0)
(0.0019796508 1.2545577e-09 0)
(0.0019714188 1.3787068e-09 0)
(0.0019594476 8.1954498e-10 -8.4868734e-25)
(0.99999999 9.8919841e-09 0)
(0.99994798 2.8445569e-08 0)
(0.99986184 4.2560623e-08 0)
(0.9997636 5.5137053e-08 0)
(0.99965127 7.1683888e-08 0)
(0.99952225 9.3020265e-08 0)
(0.99937495 1.2008306e-07 0)
(0.99920738 1.5472767e-07 0)
(0.99901661 1.995064e-07 0)
(0.99879891 2.5771177e-07 0)
(0.99854961 3.3371416e-07 0)
(0.99826286 4.3365526e-07 0)
(0.99793092 5.6594367e-07 0)
(0.99754393 7.4396929e-07 0)
(0.99708686 9.840562e-07 0)
(0.99654268 1.3253188e-06 0)
(0.99587229 1.7864406e-06 0)
(0.99505731 2.5559906e-06 0)
(0.99393559 3.4684246e-06 0)
(0.99262648 5.8346826e-06 0)
(0.99015642 7.6866303e-06 0)
(0.98788336 1.9334992e-05 0)
(0.97890868 1.1705967e-05 0)
(0.98104518 0.0017217637 0)
(0.04389437 0.0017492072 0)
(0.017637193 2.8070329e-05 0)
(0.012559851 6.4334835e-06 0)
(0.010316528 3.0838482e-06 0)
(0.0090179328 1.8893288e-06 0)
(0.0081263167 1.3285017e-06 0)
(0.0074635906 1.0045108e-06 0)
(0.0069399146 7.9834448e-07 0)
(0.006511578 6.5365338e-07 0)
(0.0061527068 5.473336e-07 0)
(0.0058456971 4.6701493e-07 0)
(0.0055786056 4.0443404e-07 0)
(0.0053432007 3.5433038e-07 0)
(0.0051335248 3.1342784e-07 0)
(0.0049450636 2.7954723e-07 0)
(0.0047743257 2.5108136e-07 0)
(0.0046186252 2.2692471e-07 0)
(0.0044757187 2.062056e-07 0)
(0.0043439157 1.8823473e-07 0)
(0.0042217644 1.7255863e-07 9.6549014e-35)
(0.0041080832 1.5877717e-07 0)
(0.0040018791 1.4658851e-07 0)
(0.0039023136 1.357465e-07 0)
(0.0038086748 1.2605069e-07 0)
(0.0037203537 1.1733603e-07 0)
(0.0036368278 1.0946848e-07 0)
(0.0035576418 1.0233937e-07 0)
(0.0034823968 9.5855407e-08 0)
(0.0034107445 8.9937115e-08 0)
(0.0033423777 8.4516833e-08 0)
(0.0032770261 7.9535602e-08 0)
(0.0032144512 7.4945031e-08 0)
(0.0031544386 7.0704784e-08 0)
(0.0030967958 6.6778049e-08 0)
(0.0030413508 6.3132347e-08 0)
(0.0029879493 5.9739902e-08 0)
(0.0029364517 5.6575418e-08 0)
(0.0028867337 5.3615541e-08 0)
(0.0028386845 5.0840948e-08 0)
(0.002792203 4.8236499e-08 0)
(0.0027471954 4.5787711e-08 0)
(0.0027035776 4.347978e-08 0)
(0.002661275 4.1299282e-08 0)
(0.0026202212 3.923492e-08 0)
(0.0025803561 3.7276381e-08 0)
(0.0025416274 3.5412526e-08 0)
(0.0025039919 3.3632941e-08 0)
(0.0024674142 3.1929265e-08 0)
(0.0024318648 3.0293586e-08 0)
(0.0023973221 2.871841e-08 0)
(0.002363771 2.7196824e-08 0)
(0.0023312041 2.572167e-08 0)
(0.0022996226 2.4283896e-08 0)
(0.0022690419 2.2869239e-08 0)
(0.002239502 2.1465549e-08 0)
(0.0022110556 2.0066301e-08 0)
(0.0021837685 1.866391e-08 0)
(0.0021577247 1.7251565e-08 0)
(0.0021330228 1.5821952e-08 0)
(0.0021097847 1.4358237e-08 0)
(0.0020881813 1.2838399e-08 0)
(0.0020684316 1.124127e-08 0)
(0.0020508127 9.5289405e-09 0)
(0.0020357217 7.642573e-09 0)
(0.0020237101 5.5800994e-09 0)
(0.0020152716 3.2217303e-09 0)
(0.0020115337 6.8933145e-10 0)
(0.0020126468 -2.0211806e-09 0)
(0.0020199254 -5.0348985e-09 0)
(0.0020341751 -8.2371554e-09 0)
(0.0020564496 -1.1601041e-08 0)
(0.0020876234 -1.4892723e-08 0)
(0.0021278326 -1.7820322e-08 0)
(0.002176596 -2.0327374e-08 0)
(0.0022336898 -2.2202015e-08 0)
(0.0022973054 -2.2685785e-08 0)
(0.0023625631 -2.1207142e-08 0)
(0.0024233174 -1.8182361e-08 0)
(0.0024757421 -1.4262784e-08 0)
(0.0025164109 -1.0452262e-08 -3.6175711e-25)
(0.0025474596 -7.4388119e-09 0)
(0.0025701294 -5.1385224e-09 0)
(0.002586593 -3.5114889e-09 0)
(0.0025983761 -2.3445011e-09 0)
(0.0026065433 -1.4837834e-09 0)
(0.0026117475 -8.2807909e-10 0)