/*--------------------------------*- C++ -*----------------------------------*\
| =========                 |                                                 |
| \\      /  F ield         | OpenFOAM: The Open Source CFD Toolbox           |
|  \\    /   O peration     | Version:  2206                                  |
|   \\  /    A nd           | Website:  www.openfoam.com                      |
|    \\/     M anipulation  |                                                 |
\*---------------------------------------------------------------------------*/
FoamFile
{
    version     2.0;
    format      ascii;
    arch        "LSB;label=32;scalar=64";
    class       volScalarField;
    location    "100";
    object      k;
}
// * * * * * * * * * * * * * * * * * * * * * * * * * * * * * * * * * * * * * //

dimensions      [0 2 -2 0 0 0 0];

internalField   nonuniform List<scalar> 
13056
(
0.00014527548
0.00014484196
0.0001448092
0.00014481629
0.00014482003
0.00014482143
0.00014482229
0.00014482309
0.00014482394
0.00014482485
0.00014482586
0.00014482695
0.00014482815
0.00014482945
0.00014483087
0.00014483241
0.00014483409
0.00014483595
0.00014483807
0.00014484068
0.00014484398
0.00014485226
0.00014486816
0.00013967048
3.9971355e-07
1.0907777e-07
8.1923198e-08
7.2755596e-08
6.8329554e-08
6.5464372e-08
6.3396993e-08
6.1829427e-08
6.0594824e-08
5.9596112e-08
5.8770271e-08
5.8074565e-08
5.7479593e-08
5.6964448e-08
5.6513707e-08
5.6115663e-08
5.5761272e-08
5.5443459e-08
5.5156599e-08
5.4896167e-08
5.4658475e-08
5.4440491e-08
5.4239694e-08
5.4053973e-08
5.3881544e-08
5.3720891e-08
5.3570716e-08
5.3429902e-08
5.3297481e-08
5.3172611e-08
5.3054556e-08
5.2942669e-08
5.2836381e-08
5.2735188e-08
5.263864e-08
5.2546338e-08
5.2457925e-08
5.237308e-08
5.2291515e-08
5.221297e-08
5.2137209e-08
5.206402e-08
5.199321e-08
5.1924602e-08
5.1858036e-08
5.1793365e-08
5.1730455e-08
5.1669184e-08
5.1609438e-08
5.1551115e-08
5.1494118e-08
5.1438359e-08
5.138376e-08
5.1330242e-08
5.1277738e-08
5.1226185e-08
5.1175524e-08
5.11257e-08
5.1076662e-08
5.1028364e-08
5.0980761e-08
5.0933816e-08
5.0887487e-08
5.0841743e-08
5.0796555e-08
5.0751889e-08
5.0707721e-08
5.0664025e-08
5.0620778e-08
5.0577959e-08
5.0535549e-08
5.0493529e-08
5.0451885e-08
5.0410602e-08
5.0369666e-08
5.0329068e-08
5.0288796e-08
5.0248841e-08
5.0209197e-08
5.0169856e-08
5.0130815e-08
5.0092069e-08
5.0053617e-08
5.001546e-08
4.9977601e-08
4.9940048e-08
4.9902809e-08
4.9865986e-08
4.9829331e-08
4.9795902e-08
4.9767142e-08
4.9742112e-08
4.9719987e-08
4.9700182e-08
4.9682284e-08
4.9665997e-08
4.9651097e-08
4.9637406e-08
4.9624777e-08
4.9613088e-08
4.9602236e-08
4.9592131e-08
4.9582698e-08
4.9573866e-08
4.9565576e-08
4.9557764e-08
4.955039e-08
4.9543308e-08
4.9536689e-08
4.9529376e-08
4.952379e-08
4.9515122e-08
0.00014525961
0.00014482335
0.00014479032
0.00014479745
0.00014480121
0.00014480262
0.00014480348
0.00014480428
0.00014480513
0.00014480605
0.00014480706
0.00014480815
0.00014480935
0.00014481066
0.00014481208
0.00014481363
0.00014481532
0.00014481718
0.00014481931
0.00014482193
0.00014482526
0.00014483359
0.0001448498
0.00013965176
6.2868649e-08
1.6871053e-08
1.269623e-08
1.1288158e-08
1.0608254e-08
1.0168175e-08
9.8505909e-09
9.6097802e-09
9.4201325e-09
9.2667348e-09
9.1399028e-09
9.0330683e-09
8.9417121e-09
8.8626209e-09
8.7934244e-09
8.7323232e-09
8.6779278e-09
8.6291508e-09
8.5851277e-09
8.5451633e-09
8.508691e-09
8.4752448e-09
8.4444376e-09
8.4159447e-09
8.3894925e-09
8.3648478e-09
8.3418113e-09
8.3202114e-09
8.2998995e-09
8.2807462e-09
8.2626386e-09
8.2454774e-09
8.229175e-09
8.213654e-09
8.1988456e-09
8.1846883e-09
8.1711274e-09
8.1581136e-09
8.1456027e-09
8.1335547e-09
8.1219336e-09
8.1107067e-09
8.0998443e-09
8.0893194e-09
8.0791074e-09
8.0691858e-09
8.0595341e-09
8.0501333e-09
8.0409663e-09
8.0320171e-09
8.023271e-09
8.0147148e-09
8.0063359e-09
7.9981227e-09
7.9900648e-09
7.9821526e-09
7.9743768e-09
7.9667292e-09
7.9592021e-09
7.9517881e-09
7.9444808e-09
7.9372741e-09
7.9301618e-09
7.9231389e-09
7.9162013e-09
7.9093438e-09
7.9025625e-09
7.8958535e-09
7.8892134e-09
7.8826388e-09
7.876127e-09
7.8696751e-09
7.8632808e-09
7.8569419e-09
7.8506565e-09
7.8444228e-09
7.8382393e-09
7.8321047e-09
7.8260178e-09
7.8199777e-09
7.8139836e-09
7.8080352e-09
7.8021321e-09
7.7962745e-09
7.7904629e-09
7.7846986e-09
7.7789828e-09
7.7733314e-09
7.7677058e-09
7.7625796e-09
7.7581737e-09
7.7543418e-09
7.7509563e-09
7.747927e-09
7.7451902e-09
7.7427004e-09
7.7404232e-09
7.7383312e-09
7.7364019e-09
7.7346165e-09
7.7329593e-09
7.7314165e-09
7.7299763e-09
7.7286283e-09
7.7273632e-09
7.7261711e-09
7.7250461e-09
7.7239657e-09
7.722956e-09
7.7218399e-09
7.7209879e-09
7.7196661e-09
0.00014520879
0.00014476417
0.00014473032
0.00014473758
0.00014474141
0.00014474284
0.00014474371
0.00014474452
0.00014474537
0.0001447463
0.00014474731
0.00014474842
0.00014474962
0.00014475094
0.00014475237
0.00014475394
0.00014475564
0.00014475753
0.00014475968
0.00014476235
0.00014476575
0.00014477424
0.00014479139
0.00013956367
2.3265156e-08
5.3101245e-09
4.0054634e-09
3.5660228e-09
3.3538084e-09
3.2164783e-09
3.1173605e-09
3.0422025e-09
2.9830183e-09
2.9351529e-09
2.8955825e-09
2.8622561e-09
2.8337619e-09
2.8090964e-09
2.7875194e-09
2.7684689e-09
2.751511e-09
2.7363063e-09
2.7225849e-09
2.7101297e-09
2.6987638e-09
2.6883418e-09
2.6787429e-09
2.6698656e-09
2.6616247e-09
2.6539473e-09
2.6467712e-09
2.640043e-09
2.6337161e-09
2.6277504e-09
2.6221104e-09
2.6167654e-09
2.6116878e-09
2.6068537e-09
2.6022415e-09
2.5978321e-09
2.5936085e-09
2.5895551e-09
2.5856583e-09
2.5819056e-09
2.5782858e-09
2.5747887e-09
2.571405e-09
2.5681263e-09
2.564945e-09
2.561854e-09
2.5588469e-09
2.5559179e-09
2.5530616e-09
2.550273e-09
2.5475476e-09
2.5448812e-09
2.54227e-09
2.5397102e-09
2.5371988e-09
2.5347326e-09
2.5323088e-09
2.5299249e-09
2.5275784e-09
2.5252671e-09
2.5229889e-09
2.5207421e-09
2.5185245e-09
2.5163348e-09
2.5141716e-09
2.5120333e-09
2.5099187e-09
2.5078267e-09
2.505756e-09
2.5037058e-09
2.5016751e-09
2.4996631e-09
2.497669e-09
2.4956923e-09
2.4937322e-09
2.4917882e-09
2.48986e-09
2.487947e-09
2.4860489e-09
2.4841655e-09
2.4822965e-09
2.4804418e-09
2.4786013e-09
2.4767752e-09
2.4749634e-09
2.4731665e-09
2.4713849e-09
2.4696236e-09
2.4678703e-09
2.4662742e-09
2.4649042e-09
2.4637136e-09
2.4626623e-09
2.4617221e-09
2.460873e-09
2.4601008e-09
2.4593947e-09
2.4587463e-09
2.4581484e-09
2.4575952e-09
2.4570819e-09
2.4566041e-09
2.4561582e-09
2.4557409e-09
2.4553493e-09
2.4549804e-09
2.4546323e-09
2.454298e-09
2.4539857e-09
2.4536402e-09
2.4533767e-09
2.452968e-09
0.0001451214
0.00014466246
0.00014462723
0.0001446347
0.00014463865
0.00014464011
0.000144641
0.00014464182
0.00014464268
0.00014464362
0.00014464464
0.00014464576
0.00014464699
0.00014464832
0.00014464977
0.00014465136
0.00014465309
0.00014465502
0.00014465722
0.00014465996
0.00014466348
0.00014467224
0.000144691
0.00013940316
1.7165842e-08
2.3694046e-09
1.7912098e-09
1.59695e-09
1.5031598e-09
1.4425027e-09
1.398726e-09
1.365534e-09
1.3394006e-09
1.3182698e-09
1.3008051e-09
1.2860999e-09
1.27353e-09
1.2626514e-09
1.2531367e-09
1.2447376e-09
1.2372623e-09
1.2305608e-09
1.224514e-09
1.219026e-09
1.2140187e-09
1.2094278e-09
1.2051999e-09
1.2012904e-09
1.1976615e-09
1.194281e-09
1.1911216e-09
1.1881594e-09
1.1853742e-09
1.1827481e-09
1.1802655e-09
1.1779128e-09
1.175678e-09
1.1735503e-09
1.1715203e-09
1.1695797e-09
1.1677208e-09
1.1659369e-09
1.1642218e-09
1.1625702e-09
1.160977e-09
1.1594378e-09
1.1579485e-09
1.1565053e-09
1.155105e-09
1.1537444e-09
1.1524207e-09
1.1511313e-09
1.1498738e-09
1.1486461e-09
1.1474462e-09
1.1462721e-09
1.1451224e-09
1.1439952e-09
1.1428893e-09
1.1418032e-09
1.1407358e-09
1.1396859e-09
1.1386524e-09
1.1376344e-09
1.136631e-09
1.1356413e-09
1.1346645e-09
1.1336999e-09
1.1327469e-09
1.131805e-09
1.1308734e-09
1.1299518e-09
1.1290395e-09
1.1281363e-09
1.1272417e-09
1.1263553e-09
1.1254768e-09
1.1246059e-09
1.1237424e-09
1.1228861e-09
1.1220366e-09
1.1211939e-09
1.1203579e-09
1.1195283e-09
1.1187051e-09
1.1178883e-09
1.1170777e-09
1.1162736e-09
1.1154758e-09
1.1146847e-09
1.1139003e-09
1.113125e-09
1.1123532e-09
1.1116516e-09
1.1110502e-09
1.1105282e-09
1.1100675e-09
1.1096558e-09
1.1092841e-09
1.1089462e-09
1.1086374e-09
1.1083538e-09
1.1080925e-09
1.1078508e-09
1.1076265e-09
1.1074178e-09
1.1072231e-09
1.1070409e-09
1.10687e-09
1.106709e-09
1.1065572e-09
1.1064114e-09
1.1062752e-09
1.1061243e-09
1.1060094e-09
1.1058313e-09
0.00014499486
0.00014451515
0.00014447791
0.00014448568
0.0001444898
0.00014449132
0.00014449222
0.00014449305
0.00014449394
0.00014449489
0.00014449593
0.00014449707
0.00014449831
0.00014449967
0.00014450115
0.00014450277
0.00014450455
0.00014450653
0.0001445088
0.00014451165
0.00014451535
0.00014452448
0.0001445456
0.00013916569
2.0323503e-08
1.2857036e-09
9.7189424e-10
8.671101e-10
8.1660911e-10
7.8401633e-10
7.6051422e-10
7.4270272e-10
7.2868386e-10
7.1735392e-10
7.0799465e-10
7.0011851e-10
6.9338964e-10
6.875688e-10
6.8247955e-10
6.7798832e-10
6.739922e-10
6.7041073e-10
6.6718003e-10
6.6424866e-10
6.6157476e-10
6.5912389e-10
6.5686742e-10
6.5478134e-10
6.5284538e-10
6.5104232e-10
6.4935742e-10
6.4777801e-10
6.4629312e-10
6.4489323e-10
6.4357002e-10
6.4231618e-10
6.411253e-10
6.3999165e-10
6.3891019e-10
6.3787641e-10
6.3688627e-10
6.3593615e-10
6.3502278e-10
6.3414325e-10
6.3329489e-10
6.3247531e-10
6.3168233e-10
6.3091396e-10
6.3016841e-10
6.2944403e-10
6.2873931e-10
6.2805287e-10
6.2738345e-10
6.2672989e-10
6.2609112e-10
6.2546617e-10
6.2485413e-10
6.2425416e-10
6.2366548e-10
6.2308739e-10
6.2251923e-10
6.219604e-10
6.2141032e-10
6.2086849e-10
6.203344e-10
6.1980765e-10
6.1928776e-10
6.1877439e-10
6.1826723e-10
6.1776592e-10
6.1727017e-10
6.167797e-10
6.1629427e-10
6.1581364e-10
6.153376e-10
6.1486598e-10
6.1439859e-10
6.1393528e-10
6.1347591e-10
6.1302037e-10
6.1256855e-10
6.1212035e-10
6.116757e-10
6.1123454e-10
6.1079682e-10
6.1036251e-10
6.0993161e-10
6.0950413e-10
6.0908011e-10
6.0865966e-10
6.0824288e-10
6.0783095e-10
6.0742097e-10
6.0704875e-10
6.0673033e-10
6.0645421e-10
6.0621077e-10
6.0599329e-10
6.0579709e-10
6.0561881e-10
6.0545592e-10
6.0530643e-10
6.0516868e-10
6.0504131e-10
6.0492318e-10
6.0481329e-10
6.0471078e-10
6.0461489e-10
6.0452496e-10
6.0444027e-10
6.0436039e-10
6.0428371e-10
6.042121e-10
6.0413273e-10
6.0407235e-10
6.039787e-10
0.00014482569
0.00014431804
0.00014427808
0.00014428627
0.00014429062
0.0001442922
0.00014429313
0.00014429399
0.00014429489
0.00014429586
0.00014429693
0.00014429809
0.00014429936
0.00014430076
0.00014430228
0.00014430394
0.00014430577
0.00014430782
0.00014431019
0.00014431318
0.00014431712
0.00014432675
0.00014435108
0.00013884535
2.8551005e-08
7.9576849e-10
5.9679902e-10
5.3138294e-10
5.0005575e-10
4.7996159e-10
4.6551735e-10
4.5458779e-10
4.4599294e-10
4.3905459e-10
4.3333015e-10
4.2851917e-10
4.2441432e-10
4.2086726e-10
4.1776844e-10
4.150354e-10
4.1260502e-10
4.1042804e-10
4.0846538e-10
4.0668561e-10
4.0506313e-10
4.0357688e-10
4.0220936e-10
4.0094583e-10
3.9977383e-10
3.986828e-10
3.976637e-10
3.9670876e-10
3.9581128e-10
3.9496547e-10
3.9416627e-10
3.9340922e-10
3.9269044e-10
3.9200645e-10
3.9135419e-10
3.9073093e-10
3.9013418e-10
3.8956176e-10
3.8901167e-10
3.8848212e-10
3.8797149e-10
3.8747833e-10
3.870013e-10
3.865392e-10
3.8609093e-10
3.856555e-10
3.8523198e-10
3.8481956e-10
3.8441745e-10
3.8402498e-10
3.8364148e-10
3.8326636e-10
3.8289909e-10
3.8253915e-10
3.8218607e-10
3.8183942e-10
3.8149881e-10
3.8116385e-10
3.8083421e-10
3.8050957e-10
3.8018964e-10
3.7987417e-10
3.7956286e-10
3.7925552e-10
3.7895196e-10
3.7865196e-10
3.7835533e-10
3.7806193e-10
3.7777159e-10
3.7748418e-10
3.7719957e-10
3.7691766e-10
3.7663833e-10
3.763615e-10
3.7608707e-10
3.7581498e-10
3.7554517e-10
3.7527756e-10
3.7501213e-10
3.7474883e-10
3.7448763e-10
3.7422852e-10
3.739715e-10
3.7371656e-10
3.7346374e-10
3.732131e-10
3.7296471e-10
3.7271926e-10
3.7247502e-10
3.7225362e-10
3.7206456e-10
3.719008e-10
3.7175653e-10
3.7162772e-10
3.7151156e-10
3.7140606e-10
3.7130969e-10
3.7122128e-10
3.7113984e-10
3.7106456e-10
3.7099475e-10
3.7092983e-10
3.7086929e-10
3.7081266e-10
3.7075956e-10
3.7070958e-10
3.7066244e-10
3.706172e-10
3.7057496e-10
3.7052811e-10
3.7049251e-10
3.7043729e-10
0.00014460949
0.00014406585
0.00014402238
0.0001440311
0.00014403574
0.00014403741
0.00014403838
0.00014403926
0.00014404018
0.00014404118
0.00014404228
0.00014404347
0.00014404478
0.00014404622
0.00014404779
0.00014404951
0.00014405141
0.00014405354
0.00014405604
0.00014405921
0.00014406345
0.00014407373
0.00014410226
0.00013843498
4.1197416e-08
5.5303534e-10
4.0370935e-10
3.5620317e-10
3.3382059e-10
3.1967364e-10
3.0958325e-10
3.0197988e-10
2.960129e-10
2.9120834e-10
2.8725508e-10
2.8394209e-10
2.811235e-10
2.7869391e-10
2.7657505e-10
2.7470869e-10
2.7305096e-10
2.7156778e-10
2.702322e-10
2.6902255e-10
2.6792121e-10
2.6691371e-10
2.6598797e-10
2.6513378e-10
2.6434243e-10
2.6360657e-10
2.629199e-10
2.6227706e-10
2.6167339e-10
2.6110496e-10
2.605683e-10
2.6006037e-10
2.5957856e-10
2.5912051e-10
2.5868413e-10
2.5826759e-10
2.5786916e-10
2.5748737e-10
2.5712081e-10
2.5676828e-10
2.5642866e-10
2.5610093e-10
2.557842e-10
2.5547764e-10
2.5518049e-10
2.5489209e-10
2.546118e-10
2.5433906e-10
2.5407337e-10
2.5381424e-10
2.5356126e-10
2.5331401e-10
2.5307214e-10
2.528353e-10
2.5260316e-10
2.5237544e-10
2.5215184e-10
2.5193213e-10
2.5171605e-10
2.5150341e-10
2.51294e-10
2.5108764e-10
2.5088415e-10
2.5068337e-10
2.504852e-10
2.5028946e-10
2.5009605e-10
2.4990486e-10
2.4971577e-10
2.4952871e-10
2.4934358e-10
2.4916031e-10
2.4897884e-10
2.4879908e-10
2.4862098e-10
2.4844449e-10
2.4826956e-10
2.4809614e-10
2.4792422e-10
2.4775375e-10
2.4758473e-10
2.4741713e-10
2.4725095e-10
2.4708619e-10
2.4692286e-10
2.46761e-10
2.4660066e-10
2.464423e-10
2.4628477e-10
2.4614216e-10
2.4602056e-10
2.4591529e-10
2.4582258e-10
2.4573982e-10
2.4566521e-10
2.4559744e-10
2.4553555e-10
2.4547878e-10
2.4542648e-10
2.4537815e-10
2.4533333e-10
2.4529165e-10
2.4525278e-10
2.4521642e-10
2.4518234e-10
2.4515025e-10
2.4512e-10
2.4509097e-10
2.4506387e-10
2.4503384e-10
2.4501102e-10
2.4497559e-10
0.00014434103
0.0001437522
0.00014370432
0.0001437137
0.00014371871
0.00014372049
0.0001437215
0.00014372241
0.00014372336
0.0001437244
0.00014372553
0.00014372676
0.00014372812
0.0001437296
0.00014373123
0.00014373302
0.00014373501
0.00014373726
0.0001437399
0.00014374331
0.00014374793
0.00014375899
0.00014379291
0.00013792635
5.8646652e-08
4.3934508e-10
3.0140089e-10
2.5972088e-10
2.4066291e-10
2.2893457e-10
2.2068571e-10
2.1452093e-10
2.0970236e-10
2.0584102e-10
2.0267922e-10
2.0004276e-10
1.9781125e-10
1.9589666e-10
1.9423257e-10
1.9277027e-10
1.9147427e-10
1.9031715e-10
1.8927741e-10
1.8833778e-10
1.8748427e-10
1.8670543e-10
1.8599167e-10
1.8533483e-10
1.8472779e-10
1.8416461e-10
1.8364013e-10
1.8315004e-10
1.8269058e-10
1.8225868e-10
1.8185162e-10
1.8146699e-10
1.8110285e-10
1.8075734e-10
1.8042887e-10
1.8011603e-10
1.7981743e-10
1.7953197e-10
1.7925849e-10
1.7899606e-10
1.7874374e-10
1.7850078e-10
1.7826643e-10
1.7804005e-10
1.7782104e-10
1.7760889e-10
1.7740308e-10
1.7720321e-10
1.7700886e-10
1.768197e-10
1.7663539e-10
1.7645563e-10
1.7628014e-10
1.7610866e-10
1.7594094e-10
1.7577673e-10
1.7561581e-10
1.7545798e-10
1.7530305e-10
1.7515085e-10
1.7500123e-10
1.7485404e-10
1.7470915e-10
1.7456642e-10
1.7442577e-10
1.7428707e-10
1.7415023e-10
1.7401516e-10
1.7388177e-10
1.7375002e-10
1.7361982e-10
1.7349112e-10
1.7336386e-10
1.7323798e-10
1.7311344e-10
1.7299017e-10
1.7286813e-10
1.7274729e-10
1.7262762e-10
1.725091e-10
1.7239169e-10
1.722754e-10
1.721602e-10
1.7204609e-10
1.7193307e-10
1.7182116e-10
1.7171039e-10
1.7160107e-10
1.7149243e-10
1.7139413e-10
1.7131029e-10
1.7123766e-10
1.7117364e-10
1.7111645e-10
1.7106485e-10
1.7101795e-10
1.709751e-10
1.7093577e-10
1.7089953e-10
1.7086601e-10
1.7083492e-10
1.7080598e-10
1.7077898e-10
1.7075373e-10
1.7073003e-10
1.7070772e-10
1.7068669e-10
1.7066651e-10
1.7064767e-10
1.7062689e-10
1.7061105e-10
1.7058638e-10
0.00014401421
0.00014336966
0.00014331632
0.00014332651
0.00014333198
0.00014333389
0.00014333494
0.00014333589
0.00014333688
0.00014333796
0.00014333913
0.00014334041
0.00014334182
0.00014334337
0.00014334507
0.00014334695
0.00014334904
0.00014335142
0.00014335425
0.00014335794
0.00014336304
0.00014337505
0.00014341575
0.00013731033
8.1791071e-08
4.1204726e-10
2.5424987e-10
2.0912491e-10
1.8926077e-10
1.7744814e-10
1.6928287e-10
1.632487e-10
1.5856076e-10
1.548292e-10
1.5179337e-10
1.4927826e-10
1.4716358e-10
1.4536089e-10
1.4380186e-10
1.4243661e-10
1.4123045e-10
1.4015678e-10
1.3919488e-10
1.3832823e-10
1.3754352e-10
1.3682991e-10
1.3617842e-10
1.3558125e-10
1.3503145e-10
1.3452318e-10
1.3405136e-10
1.3361174e-10
1.332007e-10
1.3281533e-10
1.3245308e-10
1.3211169e-10
1.3178946e-10
1.3148465e-10
1.3119584e-10
1.3092179e-10
1.3066114e-10
1.3041295e-10
1.3017603e-10
1.2994958e-10
1.2973264e-10
1.2952451e-10
1.2932447e-10
1.2913192e-10
1.2894627e-10
1.2876705e-10
1.2859378e-10
1.2842609e-10
1.282636e-10
1.2810603e-10
1.2795305e-10
1.2780444e-10
1.2765993e-10
1.2751927e-10
1.2738226e-10
1.2724863e-10
1.2711819e-10
1.2699072e-10
1.2686606e-10
1.2674403e-10
1.2662448e-10
1.265073e-10
1.2639234e-10
1.2627948e-10
1.2616862e-10
1.2605965e-10
1.2595247e-10
1.2584701e-10
1.2574318e-10
1.2564095e-10
1.2554023e-10
1.2544098e-10
1.2534315e-10
1.2524666e-10
1.2515145e-10
1.2505748e-10
1.2496467e-10
1.24873e-10
1.2478242e-10
1.2469292e-10
1.2460446e-10
1.2451702e-10
1.2443057e-10
1.2434509e-10
1.2426058e-10
1.2417703e-10
1.2409447e-10
1.2401311e-10
1.2393243e-10
1.2385932e-10
1.2379672e-10
1.2374229e-10
1.2369416e-10
1.2365104e-10
1.2361203e-10
1.2357651e-10
1.2354399e-10
1.2351408e-10
1.2348648e-10
1.2346091e-10
1.2343714e-10
1.23415e-10
1.233943e-10
1.233749e-10
1.2335668e-10
1.2333952e-10
1.2332332e-10
1.2330779e-10
1.2329327e-10
1.2327745e-10
1.2326527e-10
1.2324621e-10
0.0001436221
0.00014290971
0.0001428497
0.00014286087
0.0001428669
0.00014286897
0.00014287008
0.00014287107
0.00014287211
0.00014287323
0.00014287445
0.00014287579
0.00014287726
0.00014287888
0.00014288067
0.00014288265
0.00014288487
0.00014288741
0.00014289047
0.0001428945
0.00014290016
0.0001429133
0.00014296245
0.00013657714
1.1192121e-07
4.6036374e-10
2.4930635e-10
1.9117481e-10
1.6643609e-10
1.5217584e-10
1.4245776e-10
1.3534344e-10
1.2985513e-10
1.2551652e-10
1.2200868e-10
1.1911917e-10
1.1670336e-10
1.1465609e-10
1.1289461e-10
1.1135767e-10
1.1000444e-10
1.0880364e-10
1.0773106e-10
1.0676755e-10
1.0589776e-10
1.0510935e-10
1.043922e-10
1.0373755e-10
1.0313731e-10
1.0258461e-10
1.0207337e-10
1.0159861e-10
1.0115605e-10
1.0074234e-10
1.0035457e-10
9.9990192e-11
9.964738e-11
9.9324204e-11
9.9019141e-11
9.8730885e-11
9.8457863e-11
9.8199136e-11
9.7953256e-11
9.7719385e-11
9.7496367e-11
9.7283403e-11
9.7079659e-11
9.6884443e-11
9.6697068e-11
9.6516993e-11
9.6343659e-11
9.6176677e-11
9.6015603e-11
9.5860169e-11
9.5710016e-11
9.5564929e-11
9.5424612e-11
9.5288815e-11
9.5157299e-11
9.5029753e-11
9.4905959e-11
9.4785658e-11
9.4668644e-11
9.4554738e-11
9.4443756e-11
9.4335554e-11
9.4229965e-11
9.4126856e-11
9.4026103e-11
9.3927558e-11
9.3831125e-11
9.3736697e-11
9.3644202e-11
9.3553582e-11
9.3464767e-11
9.3377702e-11
9.3292323e-11
9.3208542e-11
9.3126277e-11
9.3045441e-11
9.2965965e-11
9.2887788e-11
9.2810865e-11
9.2735157e-11
9.2660623e-11
9.2587223e-11
9.2514911e-11
9.2443643e-11
9.2373387e-11
9.2304135e-11
9.2235899e-11
9.2168832e-11
9.2102571e-11
9.2042229e-11
9.199005e-11
9.1944308e-11
9.1903563e-11
9.1866838e-11
9.1833446e-11
9.18029e-11
9.1774823e-11
9.1748912e-11
9.172491e-11
9.1702601e-11
9.1681798e-11
9.1662344e-11
9.1644105e-11
9.1626966e-11
9.1610828e-11
9.1595589e-11
9.1581183e-11
9.1567397e-11
9.155446e-11
9.154066e-11
9.1529847e-11
9.1512774e-11
0.00014315698
0.00014236277
0.0001422947
0.00014230705
0.00014231374
0.000142316
0.00014231718
0.00014231823
0.00014231931
0.00014232048
0.00014232176
0.00014232317
0.00014232472
0.00014232642
0.00014232831
0.00014233041
0.00014233277
0.00014233551
0.00014233884
0.00014234328
0.00014234963
0.00014236409
0.00014242367
0.00013571658
1.5073685e-07
5.9209299e-10
2.8508958e-10
2.022433e-10
1.6777618e-10
1.4831026e-10
1.3514082e-10
1.2552165e-10
1.1815366e-10
1.1236253e-10
1.0770207e-10
1.0387722e-10
1.0068882e-10
9.7995025e-11
9.56851e-11
9.3675354e-11
9.1910788e-11
9.0348987e-11
8.8957227e-11
8.7709626e-11
8.6585577e-11
8.5568736e-11
8.4645919e-11
8.3805825e-11
8.3037938e-11
8.233299e-11
8.1682779e-11
8.1080601e-11
8.0520632e-11
7.9998387e-11
7.9509991e-11
7.9052097e-11
7.8622342e-11
7.8218246e-11
7.7837883e-11
7.7479643e-11
7.7141475e-11
7.6822262e-11
7.6520042e-11
7.6233811e-11
7.5961962e-11
7.5703461e-11
7.545719e-11
7.5222215e-11
7.4997607e-11
7.4782636e-11
7.4576552e-11
7.437885e-11
7.4188948e-11
7.4006524e-11
7.3831122e-11
7.3662506e-11
7.3500298e-11
7.3344202e-11
7.319392e-11
7.3049024e-11
7.2909238e-11
7.27742e-11
7.2643637e-11
7.2517307e-11
7.2394962e-11
7.2276405e-11
7.2161413e-11
7.2049798e-11
7.1941385e-11
7.1835967e-11
7.1733411e-11
7.1633572e-11
7.1536355e-11
7.1441696e-11
7.1349502e-11
7.1259713e-11
7.1172244e-11
7.1086971e-11
7.1003774e-11
7.0922519e-11
7.0843098e-11
7.0765423e-11
7.0689422e-11
7.0615037e-11
7.0542202e-11
7.0470851e-11
7.0400903e-11
7.0332279e-11
7.0264916e-11
7.0198782e-11
7.0133883e-11
7.007033e-11
7.0007893e-11
6.9950522e-11
6.9900093e-11
6.9855311e-11
6.9814991e-11
6.9778322e-11
6.9744731e-11
6.9713804e-11
6.9685217e-11
6.9658698e-11
6.9634014e-11
6.9610963e-11
6.9589367e-11
6.9569078e-11
6.9549972e-11
6.9531946e-11
6.9514912e-11
6.9498783e-11
6.9483497e-11
6.9468885e-11
6.9455115e-11
6.9440823e-11
6.9429352e-11
6.9411047e-11
0.00014261039
0.00014171822
0.00014164045
0.00014165421
0.00014166169
0.00014166417
0.00014166544
0.00014166654
0.00014166768
0.00014166891
0.00014167026
0.00014167174
0.00014167338
0.00014167518
0.00014167718
0.00014167942
0.00014168196
0.00014168493
0.00014168857
0.0001416935
0.00014170067
0.00014171666
0.00014178901
0.0001347184
2.0040885e-07
8.3086363e-10
3.6842535e-10
2.4488923e-10
1.9416677e-10
1.6583799e-10
1.4672113e-10
1.3276153e-10
1.2211953e-10
1.1378292e-10
1.0708959e-10
1.0160369e-10
9.7032013e-11
9.3167271e-11
8.9853175e-11
8.6975019e-11
8.4452708e-11
8.2224514e-11
8.0242271e-11
7.8467751e-11
7.6870562e-11
7.5426821e-11
7.4117575e-11
7.2926844e-11
7.1839995e-11
7.0843723e-11
6.9926283e-11
6.9078007e-11
6.8290434e-11
6.7556999e-11
6.6872055e-11
6.623076e-11
6.5629669e-11
6.5065253e-11
6.453479e-11
6.4036031e-11
6.3566121e-11
6.3123514e-11
6.2705418e-11
6.2310493e-11
6.1936364e-11
6.1581586e-11
6.1244542e-11
6.0923865e-11
6.0618195e-11
6.0326452e-11
6.0047537e-11
5.9780704e-11
5.9525123e-11
5.9280337e-11
5.9045713e-11
5.8820945e-11
5.8605517e-11
5.8399037e-11
5.8201102e-11
5.8011086e-11
5.7828613e-11
5.7653136e-11
5.7484271e-11
5.7321661e-11
5.7164947e-11
5.7013835e-11
5.6867999e-11
5.6727154e-11
5.6591031e-11
5.6459318e-11
5.6331811e-11
5.6208295e-11
5.6088631e-11
5.5972735e-11
5.5860484e-11
5.5751801e-11
5.5646573e-11
5.5544617e-11
5.544575e-11
5.5349762e-11
5.5256485e-11
5.5165779e-11
5.5077532e-11
5.4991653e-11
5.4908037e-11
5.4826574e-11
5.474713e-11
5.4669564e-11
5.4593763e-11
5.451966e-11
5.4447256e-11
5.4376634e-11
5.4307686e-11
5.4243639e-11
5.4186273e-11
5.4134606e-11
5.4087553e-11
5.4044363e-11
5.4004493e-11
5.3967546e-11
5.3933199e-11
5.3901174e-11
5.3871222e-11
5.384312e-11
5.3816672e-11
5.3791712e-11
5.3768105e-11
5.3745743e-11
5.3724537e-11
5.3704401e-11
5.368527e-11
5.3666992e-11
5.3649698e-11
5.3632183e-11
5.3617805e-11
5.3594647e-11
0.00014197309
0.00014096436
0.00014087501
0.00014089043
0.00014089885
0.0001409016
0.00014090296
0.00014090412
0.00014090533
0.00014090663
0.00014090806
0.00014090962
0.00014091135
0.00014091327
0.00014091541
0.00014091781
0.00014092056
0.00014092379
0.0001409278
0.0001409333
0.00014094144
0.00014095919
0.00014104707
0.00013357258
2.6367295e-07
1.2182743e-09
5.1437115e-10
3.2727159e-10
2.5101802e-10
2.0866758e-10
1.8009995e-10
1.5923774e-10
1.4337415e-10
1.30965e-10
1.2100869e-10
1.1284759e-10
1.0604005e-10
1.0027679e-10
9.5331983e-11
9.1041592e-11
8.7285478e-11
8.3970774e-11
8.1024344e-11
7.8387926e-11
7.6015182e-11
7.3869874e-11
7.1923559e-11
7.0152428e-11
6.8534874e-11
6.7051873e-11
6.5686577e-11
6.4424827e-11
6.3254234e-11
6.2164969e-11
6.114852e-11
6.0197584e-11
5.9306799e-11
5.8470867e-11
5.7685669e-11
5.6947806e-11
5.6253174e-11
5.5599352e-11
5.498233e-11
5.4400095e-11
5.3849153e-11
5.3327372e-11
5.2832371e-11
5.2362103e-11
5.1914528e-11
5.1487988e-11
5.1080816e-11
5.0691846e-11
5.031983e-11
4.9964055e-11
4.9623601e-11
4.9298009e-11
4.898655e-11
4.8688668e-11
4.8403779e-11
4.8130958e-11
4.7869656e-11
4.7619036e-11
4.7378531e-11
4.7147607e-11
4.6925728e-11
4.6712443e-11
4.6507262e-11
4.6309739e-11
4.6119448e-11
4.5935906e-11
4.5758783e-11
4.5587743e-11
4.5422573e-11
4.5263153e-11
4.5109308e-11
4.4960942e-11
4.48179e-11
4.4679909e-11
4.454669e-11
4.4417914e-11
4.4293312e-11
4.4172666e-11
4.4055803e-11
4.3942579e-11
4.3832829e-11
4.3726375e-11
4.3622996e-11
4.3522452e-11
4.3424548e-11
4.3329158e-11
4.3236277e-11
4.314597e-11
4.3058272e-11
4.2976037e-11
4.2901212e-11
4.2833055e-11
4.2770429e-11
4.2712531e-11
4.2658768e-11
4.26087e-11
4.2561955e-11
4.2518205e-11
4.2477139e-11
4.2438476e-11
4.2401962e-11
4.2367385e-11
4.2334574e-11
4.2303398e-11
4.2273749e-11
4.2245535e-11
4.2218673e-11
4.2193011e-11
4.2168655e-11
4.2144387e-11
4.2124147e-11
4.2091341e-11
0.00014123523
0.00014008848
0.00013998537
0.00014000274
0.00014001227
0.00014001532
0.00014001679
0.00014001803
0.00014001931
0.00014002069
0.0001400222
0.00014002386
0.0001400257
0.00014002775
0.00014003004
0.00014003263
0.00014003561
0.00014003915
0.0001400436
0.00014004976
0.00014005903
0.00014007877
0.00014018541
0.00013226977
3.4395186e-07
1.8197393e-09
7.4810436e-10
4.6403309e-10
3.4875335e-10
2.8490454e-10
2.4182061e-10
2.1035445e-10
1.8645493e-10
1.6776545e-10
1.5276702e-10
1.4046382e-10
1.3018787e-10
1.2147641e-10
1.139981e-10
1.0751178e-10
1.0183565e-10
9.6828585e-11
9.2378779e-11
8.8396897e-11
8.4811771e-11
8.1567901e-11
7.8622202e-11
7.5939e-11
7.3486446e-11
7.1236822e-11
6.9165535e-11
6.7251518e-11
6.5476286e-11
6.3824857e-11
6.2284196e-11
6.0843127e-11
5.9493182e-11
5.8226269e-11
5.7036056e-11
5.5917273e-11
5.4863995e-11
5.3872211e-11
5.2936201e-11
5.2052456e-11
5.121621e-11
5.0424174e-11
4.967291e-11
4.8959433e-11
4.8280755e-11
4.7634369e-11
4.7017758e-11
4.6429077e-11
4.5866433e-11
4.5328659e-11
4.4814386e-11
4.4322865e-11
4.3853045e-11
4.3404095e-11
4.2975127e-11
4.2564772e-11
4.2172171e-11
4.1796051e-11
4.1435558e-11
4.1089889e-11
4.0758248e-11
4.0439955e-11
4.0134271e-11
3.9840511e-11
3.9557996e-11
3.9285975e-11
3.9023903e-11
3.877125e-11
3.8527677e-11
3.8292993e-11
3.8066951e-11
3.7849423e-11
3.7640198e-11
3.7438867e-11
3.7245005e-11
3.7058092e-11
3.6877707e-11
3.6703507e-11
3.6535229e-11
3.6372651e-11
3.6215521e-11
3.6063555e-11
3.5916394e-11
3.5773644e-11
3.5634968e-11
3.5500147e-11
3.5369166e-11
3.5242084e-11
3.5119125e-11
3.5003095e-11
3.4896427e-11
3.4798557e-11
3.4708118e-11
3.4624127e-11
3.4545842e-11
3.4472708e-11
3.4404244e-11
3.434001e-11
3.4279582e-11
3.4222563e-11
3.4168594e-11
3.411737e-11
3.4068653e-11
3.4022263e-11
3.3978061e-11
3.3935928e-11
3.3895755e-11
3.3857364e-11
3.3820848e-11
3.378479e-11
3.3754423e-11
3.3705022e-11
0.00014038634
0.00013907688
0.00013895748
0.00013897715
0.00013898796
0.00013899138
0.00013899297
0.00013899429
0.00013899565
0.00013899712
0.00013899872
0.0001390005
0.00013900246
0.00013900466
0.00013900712
0.00013900992
0.00013901317
0.00013901707
0.00013902203
0.00013902896
0.00013903954
0.00013906151
0.00013919065
0.00013080169
4.4550718e-07
2.7343841e-09
1.1086549e-09
6.7843586e-10
5.0430879e-10
4.0800212e-10
3.4298378e-10
2.9549216e-10
2.5943239e-10
2.3122494e-10
2.0857386e-10
1.8997533e-10
1.7442157e-10
1.6122084e-10
1.4988313e-10
1.4004947e-10
1.3144484e-10
1.2385478e-10
1.1710878e-10
1.1107023e-10
1.0563002e-10
1.0070323e-10
9.6224716e-11
9.2141345e-11
8.8406291e-11
8.4978674e-11
8.1822124e-11
7.8905021e-11
7.6199496e-11
7.3682575e-11
7.1334246e-11
6.9137372e-11
6.7078637e-11
6.5145657e-11
6.3328699e-11
6.1619629e-11
6.0009911e-11
5.8493076e-11
5.7060967e-11
5.5707792e-11
5.442692e-11
5.3213331e-11
5.2062012e-11
5.0968557e-11
4.9928541e-11
4.8938129e-11
4.799349e-11
4.7091692e-11
4.6229839e-11
4.5406016e-11
4.461818e-11
4.3865094e-11
4.3145245e-11
4.2457378e-11
4.1800114e-11
4.1171462e-11
4.0569926e-11
3.9993673e-11
3.9441356e-11
3.8911789e-11
3.8403833e-11
3.7916513e-11
3.7448773e-11
3.6999604e-11
3.6567968e-11
3.6152714e-11
3.5752954e-11
3.5367859e-11
3.4996877e-11
3.4639693e-11
3.4295956e-11
3.3965485e-11
3.3647984e-11
3.3342853e-11
3.3049428e-11
3.2766891e-11
3.2494573e-11
3.2231947e-11
3.1978612e-11
3.1734241e-11
3.149846e-11
3.1270831e-11
3.105079e-11
3.0837697e-11
3.0630987e-11
3.0430288e-11
3.0235561e-11
3.0046875e-11
2.9864742e-11
2.969227e-11
2.9532785e-11
2.9385861e-11
2.9249657e-11
2.9122827e-11
2.9004352e-11
2.8893463e-11
2.8789486e-11
2.8691791e-11
2.859976e-11
2.85128e-11
2.8430373e-11
2.8352022e-11
2.827739e-11
2.8206218e-11
2.8138307e-11
2.8073496e-11
2.8011629e-11
2.7952479e-11
2.7896134e-11
2.7840735e-11
2.7793818e-11
2.7717328e-11
0.00013941551
0.00013791496
0.00013777634
0.00013779868
0.00013781102
0.00013781485
0.00013781658
0.00013781799
0.00013781944
0.000137821
0.00013782271
0.00013782461
0.00013782671
0.00013782907
0.00013783173
0.00013783478
0.00013783833
0.00013784264
0.00013784817
0.00013785599
0.0001378681
0.00013789253
0.00013804844
0.0001291616
5.7362506e-07
4.1102898e-09
1.6548943e-09
1.0059389e-09
7.4374571e-10
5.988439e-10
5.0097211e-10
4.2947138e-10
3.7517394e-10
3.3267365e-10
2.9851724e-10
2.7044373e-10
2.4693878e-10
2.2697033e-10
2.0981146e-10
1.9492618e-10
1.8189982e-10
1.7040776e-10
1.6019123e-10
1.5104235e-10
1.4279456e-10
1.3531832e-10
1.2851551e-10
1.2230748e-10
1.1662548e-10
1.1140894e-10
1.0660374e-10
1.0216228e-10
9.8042447e-11