/*--------------------------------*- C++ -*----------------------------------*\
| =========                 |                                                 |
| \\      /  F ield         | OpenFOAM: The Open Source CFD Toolbox           |
|  \\    /   O peration     | Version:  2206                                  |
|   \\  /    A nd           | Website:  www.openfoam.com                      |
|    \\/     M anipulation  |                                                 |
\*---------------------------------------------------------------------------*/
FoamFile
{
    version     2.0;
    format      ascii;
    arch        "LSB;label=32;scalar=64";
    class       volScalarField;
    location    "100";
    object      nut;
}
// * * * * * * * * * * * * * * * * * * * * * * * * * * * * * * * * * * * * * //

dimensions      [0 2 -1 0 0 0 0];

internalField   nonuniform List<scalar> 
13056
(
1.9956067e-07
1.9955893e-07
1.9956409e-07
1.9956674e-07
1.9956806e-07
1.9956872e-07
1.9956909e-07
1.9956932e-07
1.9956948e-07
1.9956961e-07
1.9956972e-07
1.9956981e-07
1.9956991e-07
1.9957001e-07
1.9957012e-07
1.9957026e-07
1.9957045e-07
1.9957071e-07
1.9957115e-07
1.9957186e-07
1.9957384e-07
1.9956825e-07
1.996687e-07
1.527212e-08
3.346467e-16
9.1321688e-17
6.8587437e-17
6.0912171e-17
5.7206617e-17
5.4807839e-17
5.3076996e-17
5.1764604e-17
5.0730974e-17
4.9894836e-17
4.9203429e-17
4.8620973e-17
4.8122852e-17
4.7691564e-17
4.7314197e-17
4.6980948e-17
4.6684246e-17
4.6418168e-17
4.6178004e-17
4.5959966e-17
4.5760966e-17
4.5578467e-17
4.5410356e-17
4.5254867e-17
4.5110507e-17
4.4976006e-17
4.4850277e-17
4.4732385e-17
4.462152e-17
4.4516977e-17
4.4418139e-17
4.4324466e-17
4.423548e-17
4.4150759e-17
4.4069927e-17
4.3992651e-17
4.391863e-17
4.3847596e-17
4.3779309e-17
4.371355e-17
4.3650122e-17
4.3588847e-17
4.3529563e-17
4.3472123e-17
4.3416393e-17
4.3362249e-17
4.3309581e-17
4.3258283e-17
4.3208263e-17
4.3159434e-17
4.3111715e-17
4.3065033e-17
4.3019321e-17
4.2974515e-17
4.2930558e-17
4.2887397e-17
4.2844983e-17
4.2803269e-17
4.2762214e-17
4.2721778e-17
4.2681924e-17
4.2642621e-17
4.2603834e-17
4.2565536e-17
4.2527704e-17
4.2490309e-17
4.2453331e-17
4.2416748e-17
4.2380541e-17
4.2344692e-17
4.2309185e-17
4.2274006e-17
4.2239141e-17
4.2204578e-17
4.2170306e-17
4.2136316e-17
4.21026e-17
4.2069149e-17
4.2035958e-17
4.2003021e-17
4.1970335e-17
4.1937897e-17
4.1905704e-17
4.1873759e-17
4.1842062e-17
4.1810622e-17
4.1779445e-17
4.1748617e-17
4.1717928e-17
4.1689941e-17
4.1665863e-17
4.1644907e-17
4.1626384e-17
4.1609803e-17
4.1594818e-17
4.1581183e-17
4.1568708e-17
4.1557246e-17
4.1546672e-17
4.1536886e-17
4.15278e-17
4.1519341e-17
4.1511443e-17
4.1504049e-17
4.1497108e-17
4.1490568e-17
4.1484394e-17
4.1478465e-17
4.1472923e-17
4.1466801e-17
4.1462124e-17
4.1454868e-17
1.9955922e-07
1.9955741e-07
1.9956259e-07
1.9956527e-07
1.9956659e-07
1.9956726e-07
1.9956763e-07
1.9956786e-07
1.9956803e-07
1.9956816e-07
1.9956827e-07
1.9956837e-07
1.9956846e-07
1.9956856e-07
1.9956867e-07
1.9956882e-07
1.99569e-07
1.9956927e-07
1.9956971e-07
1.9957044e-07
1.9957244e-07
1.9956677e-07
1.9966881e-07
1.5758737e-08
3.2089269e-16
8.5955256e-17
6.4684577e-17
5.7510426e-17
5.4046303e-17
5.1804093e-17
5.0185996e-17
4.8959062e-17
4.7992803e-17
4.7211238e-17
4.6565026e-17
4.6020701e-17
4.5555238e-17
4.5152266e-17
4.4799707e-17
4.4488394e-17
4.4211248e-17
4.3962726e-17
4.3738427e-17
4.3534806e-17
4.3348978e-17
4.3178568e-17
4.3021604e-17
4.2876431e-17
4.2741655e-17
4.2616089e-17
4.2498717e-17
4.2388665e-17
4.2285174e-17
4.2187587e-17
4.2095328e-17
4.200789e-17
4.1924829e-17
4.1845748e-17
4.1770298e-17
4.1698166e-17
4.1629073e-17
4.1562767e-17
4.1499023e-17
4.1437638e-17
4.1378427e-17
4.1321226e-17
4.1265881e-17
4.1212256e-17
4.1160225e-17
4.1109674e-17
4.1060498e-17
4.1012601e-17
4.0965895e-17
4.0920298e-17
4.0875736e-17
4.0832142e-17
4.0789451e-17
4.0747604e-17
4.0706549e-17
4.0666236e-17
4.0626618e-17
4.0587653e-17
4.0549302e-17
4.0511528e-17
4.0474296e-17
4.0437578e-17
4.0401341e-17
4.0365559e-17
4.0330211e-17
4.0295272e-17
4.0260721e-17
4.0226539e-17
4.0192707e-17
4.015921e-17
4.0126031e-17
4.0093159e-17
4.006058e-17
4.0028283e-17
3.9996258e-17
3.9964498e-17
3.9932993e-17
3.9901736e-17
3.9870723e-17
3.9839949e-17
3.9809409e-17
3.9779101e-17
3.9749025e-17
3.971918e-17
3.968957e-17
3.96602e-17
3.9631078e-17
3.9602284e-17
3.9573621e-17
3.9547503e-17
3.9525055e-17
3.9505531e-17
3.9488281e-17
3.9472846e-17
3.9458902e-17
3.9446216e-17
3.9434614e-17
3.9423955e-17
3.9414124e-17
3.9405028e-17
3.9396584e-17
3.9388723e-17
3.9381385e-17
3.9374517e-17
3.936807e-17
3.9361997e-17
3.9356264e-17
3.935076e-17
3.9345615e-17
3.9339928e-17
3.9335587e-17
3.9328853e-17
1.9955453e-07
1.9955254e-07
1.9955778e-07
1.9956051e-07
1.9956187e-07
1.9956256e-07
1.9956293e-07
1.9956317e-07
1.9956334e-07
1.9956347e-07
1.9956359e-07
1.9956369e-07
1.9956378e-07
1.9956389e-07
1.99564e-07
1.9956415e-07
1.9956434e-07
1.9956462e-07
1.9956508e-07
1.9956582e-07
1.995679e-07
1.9956198e-07
1.9966828e-07
1.6319084e-08
3.6174335e-16
8.2681742e-17
6.2367075e-17
5.5524566e-17
5.2220173e-17
5.0081796e-17
4.8538426e-17
4.736814e-17
4.6446579e-17
4.5701263e-17
4.5085109e-17
4.4566178e-17
4.4122492e-17
4.3738422e-17
4.3402444e-17
4.3105806e-17
4.2841753e-17
4.2604997e-17
4.2391339e-17
4.2197396e-17
4.2020416e-17
4.1858133e-17
4.1708666e-17
4.1570437e-17
4.1442115e-17
4.1322569e-17
4.1210829e-17
4.1106062e-17
4.1007545e-17
4.0914651e-17
4.082683e-17
4.0743601e-17
4.0664538e-17
4.0589264e-17
4.0517447e-17
4.0448787e-17
4.0383019e-17
4.0319904e-17
4.0259226e-17
4.0200792e-17
4.0144427e-17
4.0089972e-17
4.0037284e-17
3.998623e-17
3.9936693e-17
3.9888562e-17
3.9841739e-17
3.9796131e-17
3.9751654e-17
3.9708233e-17
3.9665795e-17
3.9624276e-17
3.9583615e-17
3.9543757e-17
3.9504651e-17
3.9466249e-17
3.9428508e-17
3.9391387e-17
3.935485e-17
3.931886e-17
3.9283386e-17
3.92484e-17
3.921387e-17
3.9179774e-17
3.914609e-17
3.9112794e-17
3.9079868e-17
3.9047292e-17
3.9015049e-17
3.8983125e-17
3.8951504e-17
3.8920175e-17
3.8889125e-17
3.8858344e-17
3.8827823e-17
3.8797553e-17
3.8767528e-17
3.873774e-17
3.8708185e-17
3.8678858e-17
3.8649756e-17
3.8620876e-17
3.8592218e-17
3.8563782e-17
3.8535571e-17
3.8507591e-17
3.8479849e-17
3.8452423e-17
3.8425122e-17
3.8400269e-17
3.8378936e-17
3.8360397e-17
3.8344027e-17
3.8329386e-17
3.8316164e-17
3.830414e-17
3.8293145e-17
3.8283048e-17
3.8273737e-17
3.8265124e-17
3.825713e-17
3.824969e-17
3.8242747e-17
3.8236249e-17
3.8230151e-17
3.8224407e-17
3.8218986e-17
3.8213782e-17
3.8208918e-17
3.8203538e-17
3.8199436e-17
3.8193071e-17
1.9954646e-07
1.9954414e-07
1.9954948e-07
1.9955232e-07
1.9955373e-07
1.9955444e-07
1.9955483e-07
1.9955508e-07
1.9955526e-07
1.995554e-07
1.9955551e-07
1.9955562e-07
1.9955572e-07
1.9955583e-07
1.9955595e-07
1.9955611e-07
1.9955631e-07
1.9955661e-07
1.9955709e-07
1.9955787e-07
1.9956008e-07
1.9955374e-07
1.9966713e-07
1.6908171e-08
5.6829924e-16
8.0744085e-17
6.1041771e-17
5.4422114e-17
5.1225948e-17
4.9158818e-17
4.766697e-17
4.6535866e-17
4.5645281e-17
4.4925164e-17
4.4329981e-17
4.3828837e-17
4.3400462e-17
4.3029729e-17
4.2705479e-17
4.2419244e-17
4.2164491e-17
4.1936108e-17
4.1730036e-17
4.1543006e-17
4.1372357e-17
4.12159e-17
4.1071816e-17
4.093858e-17
4.0814907e-17
4.0699702e-17
4.0592028e-17
4.049108e-17
4.0396159e-17
4.0306661e-17
4.0222055e-17
4.0141874e-17
4.006571e-17
3.9993199e-17
3.9924018e-17
3.985788e-17
3.9794528e-17
3.9733731e-17
3.9675282e-17
3.9618994e-17
3.9564698e-17
3.9512241e-17
3.9461485e-17
3.9412302e-17
3.9364578e-17
3.9318208e-17
3.9273094e-17
3.9229151e-17
3.9186296e-17
3.9144455e-17
3.910356e-17
3.9063549e-17
3.9024364e-17
3.8985951e-17
3.894826e-17
3.8911246e-17
3.8874868e-17
3.8839086e-17
3.8803865e-17
3.8769171e-17
3.8734972e-17
3.8701243e-17
3.8667952e-17
3.8635078e-17
3.8602601e-17
3.8570498e-17
3.853875e-17
3.8507339e-17
3.847625e-17
3.8445467e-17
3.8414977e-17
3.8384768e-17
3.8354828e-17
3.8325148e-17
3.8295719e-17
3.8266534e-17
3.8237584e-17
3.8208865e-17
3.8180371e-17
3.8152098e-17
3.8124043e-17
3.8096204e-17
3.806858e-17
3.8041173e-17
3.8013985e-17
3.7987022e-17
3.796029e-17
3.7933866e-17
3.7907564e-17
3.788365e-17
3.7863155e-17
3.7845363e-17
3.7829663e-17
3.781563e-17
3.7802963e-17
3.7791447e-17
3.7780922e-17
3.7771258e-17
3.7762351e-17
3.7754113e-17
3.7746469e-17
3.7739357e-17
3.7732721e-17
3.7726512e-17
3.7720687e-17
3.77152e-17
3.7710024e-17
3.7705055e-17
3.7700413e-17
3.7695272e-17
3.7691357e-17
3.7685284e-17
1.9953475e-07
1.9953195e-07
1.9953744e-07
1.9954042e-07
1.9954192e-07
1.9954267e-07
1.9954308e-07
1.9954334e-07
1.9954353e-07
1.9954368e-07
1.995438e-07
1.9954391e-07
1.9954402e-07
1.9954414e-07
1.9954427e-07
1.9954444e-07
1.9954466e-07
1.9954498e-07
1.9954549e-07
1.9954632e-07
1.9954873e-07
1.9954176e-07
1.9966537e-07
1.7517784e-08
1.2096066e-15
8.0047391e-17
6.0519913e-17
5.3998923e-17
5.0855234e-17
4.8825935e-17
4.7362742e-17
4.6254032e-17
4.5381274e-17
4.4675851e-17
4.409309e-17
4.3602665e-17
4.3183689e-17
4.2821273e-17
4.2504414e-17
4.222478e-17
4.1975965e-17
4.1752961e-17
4.1551791e-17
4.1369256e-17
4.1202752e-17
4.1050136e-17
4.0909626e-17
4.0779728e-17
4.0659178e-17
4.0546905e-17
4.0441989e-17
4.034364e-17
4.0251176e-17
4.0164004e-17
4.0081606e-17
4.0003526e-17
3.9929366e-17
3.9858769e-17
3.9791422e-17
3.9727045e-17
3.9665384e-17
3.9606216e-17
3.9549337e-17
3.9494565e-17
3.9441734e-17
3.9390695e-17
3.9341312e-17
3.9293462e-17
3.9247033e-17
3.9201921e-17
3.9158033e-17
3.9115283e-17
3.9073594e-17
3.9032891e-17
3.899311e-17
3.8954189e-17
3.8916072e-17
3.8878706e-17
3.8842044e-17
3.8806041e-17
3.8770657e-17
3.8735853e-17
3.8701594e-17
3.8667849e-17
3.8634586e-17
3.8601779e-17
3.85694e-17
3.8537427e-17
3.8505841e-17
3.8474618e-17
3.8443742e-17
3.8413195e-17
3.8382961e-17
3.8353026e-17
3.8323378e-17
3.8294003e-17
3.8264893e-17
3.8236037e-17
3.8207426e-17
3.8179053e-17
3.8150912e-17
3.8122997e-17
3.8095302e-17
3.8067825e-17
3.8040562e-17
3.8013512e-17
3.7986674e-17
3.7960048e-17
3.7933638e-17
3.7907451e-17
3.7881492e-17
3.7855835e-17
3.7830299e-17
3.7807116e-17
3.7787282e-17
3.7770084e-17
3.7754921e-17
3.7741376e-17
3.7729155e-17
3.7718051e-17
3.7707905e-17
3.7698594e-17
3.7690014e-17
3.7682081e-17
3.7674723e-17
3.7667878e-17
3.7661494e-17
3.7655521e-17
3.764992e-17
3.7644645e-17
3.763967e-17
3.7634894e-17
3.7630433e-17
3.7625489e-17
3.7621729e-17
3.7615896e-17
1.9951908e-07
1.9951561e-07
1.995213e-07
1.9952449e-07
1.9952609e-07
1.9952689e-07
1.9952733e-07
1.9952761e-07
1.9952781e-07
1.9952797e-07
1.9952811e-07
1.9952823e-07
1.9952835e-07
1.9952847e-07
1.9952862e-07
1.995288e-07
1.9952904e-07
1.9952939e-07
1.9952996e-07
1.9953086e-07
1.9953353e-07
1.9952571e-07
1.9966309e-07
1.8147379e-08
2.7595098e-15
8.1219914e-17
6.095831e-17
5.4294851e-17
5.109995e-17
4.9048918e-17
4.7575025e-17
4.6460702e-17
4.5583833e-17
4.4875677e-17
4.4291258e-17
4.3800045e-17
4.3380981e-17
4.3018962e-17
4.2702725e-17
4.2423785e-17
4.2175701e-17
4.195345e-17
4.1753053e-17
4.1571312e-17
4.1405624e-17
4.1253847e-17
4.1114199e-17
4.0985179e-17
4.086551e-17
4.0754112e-17
4.0650056e-17
4.0552548e-17
4.0460901e-17
4.0374526e-17
4.0292905e-17
4.0215584e-17
4.0142168e-17
4.0072304e-17
4.0005679e-17
3.9942015e-17
3.9881058e-17
3.9822588e-17
3.9766398e-17
3.9712308e-17
3.9660149e-17
3.9609773e-17
3.9561044e-17
3.9513839e-17
3.9468046e-17
3.9423562e-17
3.9380294e-17
3.9338158e-17
3.9297075e-17
3.9256974e-17
3.9217789e-17
3.9179461e-17
3.9141934e-17
3.9105155e-17
3.9069076e-17
3.9033655e-17
3.8998849e-17
3.8964622e-17
3.8930937e-17
3.8897763e-17
3.886507e-17
3.8832831e-17
3.8801017e-17
3.8769608e-17
3.8738585e-17
3.8707924e-17
3.8677609e-17
3.8647621e-17
3.8617947e-17
3.8588572e-17
3.8559483e-17
3.8530669e-17
3.8502119e-17
3.8473823e-17
3.8445774e-17
3.8417963e-17
3.8390384e-17
3.8363031e-17
3.83359e-17
3.8308986e-17
3.8282287e-17
3.8255801e-17
3.8229528e-17
3.8203469e-17
3.8177625e-17
3.8152004e-17
3.8126612e-17
3.8101522e-17
3.8076555e-17
3.8053922e-17
3.8034596e-17
3.8017856e-17
3.8003108e-17
3.7989941e-17
3.7978068e-17
3.7967283e-17
3.7957433e-17
3.7948396e-17
3.7940071e-17
3.7932376e-17
3.7925241e-17
3.7918605e-17
3.7912416e-17
3.7906628e-17
3.7901201e-17
3.7896092e-17
3.7891273e-17
3.7886649e-17
3.7882332e-17
3.7877543e-17
3.7873905e-17
3.786826e-17
1.9949903e-07
1.9949468e-07
1.9950061e-07
1.9950407e-07
1.9950581e-07
1.9950668e-07
1.9950716e-07
1.9950746e-07
1.9950768e-07
1.9950785e-07
1.99508e-07
1.9950813e-07
1.9950826e-07
1.995084e-07
1.9950857e-07
1.9950877e-07
1.9950904e-07
1.9950943e-07
1.9951006e-07
1.9951104e-07
1.9951407e-07
1.9950511e-07
1.9966037e-07
1.8799023e-08
6.0553752e-15
8.6135216e-17
6.3042804e-17
5.5690344e-17
5.2212853e-17
5.0008723e-17
4.8438106e-17
4.7258353e-17
4.6330353e-17
4.5582088e-17
4.4965823e-17
4.4449171e-17
4.4009793e-17
4.3631442e-17
4.330164e-17
4.3011028e-17
4.2752783e-17
4.252161e-17
4.2313345e-17
4.2124654e-17
4.1952824e-17
4.1795628e-17
4.1651206e-17
4.151798e-17
4.1394578e-17
4.1279843e-17
4.1172774e-17
4.1072526e-17
4.097837e-17
4.088969e-17
4.0805947e-17
4.072667e-17
4.065146e-17
4.0579947e-17
4.0511812e-17
4.0446773e-17
4.0384558e-17
4.0324946e-17
4.0267712e-17
4.0212672e-17
4.0159644e-17
4.0108474e-17
4.0059016e-17
4.0011141e-17
3.9964731e-17
3.9919681e-17
3.9875893e-17
3.983328e-17
3.9791762e-17
3.9751267e-17
3.9711727e-17
3.9673083e-17
3.9635277e-17
3.9598254e-17
3.9561966e-17
3.9526366e-17
3.9491412e-17
3.9457062e-17
3.9423281e-17
3.9390034e-17
3.935729e-17
3.9325021e-17
3.9293198e-17
3.9261799e-17
3.9230803e-17
3.9200186e-17
3.9169932e-17
3.9140022e-17
3.911044e-17
3.9081173e-17
3.9052208e-17
3.9023533e-17
3.8995137e-17
3.896701e-17
3.8939141e-17
3.8911523e-17
3.8884148e-17
3.885701e-17
3.8830104e-17
3.8803425e-17
3.8776971e-17
3.875074e-17
3.8724729e-17
3.869894e-17
3.8673374e-17
3.8648038e-17
3.8622939e-17
3.8598148e-17
3.8573488e-17
3.8551164e-17
3.8532129e-17
3.8515652e-17
3.8501142e-17
3.848819e-17
3.8476512e-17
3.8465907e-17
3.8456223e-17
3.8447338e-17
3.8439155e-17
3.8431592e-17
3.8424578e-17
3.8418056e-17
3.8411974e-17
3.8406286e-17
3.8400953e-17
3.8395932e-17
3.8391199e-17
3.8386657e-17
3.8382417e-17
3.8377718e-17
3.8374148e-17
3.8368604e-17
1.9947408e-07
1.994686e-07
1.9947484e-07
1.9947862e-07
1.9948055e-07
1.994815e-07
1.9948203e-07
1.9948236e-07
1.994826e-07
1.9948279e-07
1.9948295e-07
1.994831e-07
1.9948325e-07
1.994834e-07
1.9948359e-07
1.9948381e-07
1.9948412e-07
1.9948456e-07
1.9948527e-07
1.9948637e-07
1.9948984e-07
1.9947942e-07
1.9965737e-07
1.9475965e-08
1.2537392e-14
9.9018106e-17
6.8424727e-17
5.9167683e-17
5.4894386e-17
5.2245163e-17
5.0385924e-17
4.9010134e-17
4.7927665e-17
4.7056864e-17
4.6341929e-17
4.5745082e-17
4.5240381e-17
4.4808676e-17
4.4434127e-17
4.4104658e-17
4.3812299e-17
4.3550889e-17
4.3315685e-17
4.3102916e-17
4.2909531e-17
4.2733031e-17
4.2571336e-17
4.2422646e-17
4.2285327e-17
4.2157982e-17
4.203939e-17
4.1928543e-17
4.1824574e-17
4.1726778e-17
4.1634548e-17
4.1547347e-17
4.1464752e-17
4.1386351e-17
4.1311795e-17
4.1240784e-17
4.1172996e-17
4.1108206e-17
4.1046133e-17
4.0986585e-17
4.0929331e-17
4.0874196e-17
4.0821008e-17
4.0769617e-17
4.0719883e-17
4.0671688e-17
4.0624917e-17
4.057948e-17
4.0535283e-17
4.0492254e-17
4.0450316e-17
4.0409408e-17
4.0369465e-17
4.0330429e-17
4.0292246e-17
4.0254859e-17
4.021822e-17
4.0182282e-17
4.0147e-17
4.0112337e-17
4.0078254e-17
4.004472e-17
4.0011701e-17
3.997917e-17
3.9947105e-17
3.9915478e-17
3.9884268e-17
3.9853455e-17
3.9823024e-17
3.979296e-17
3.9763247e-17
3.9733873e-17
3.9704825e-17
3.9676091e-17
3.9647657e-17
3.9619514e-17
3.9591649e-17
3.9564056e-17
3.9536728e-17
3.9509659e-17
3.9482843e-17
3.9456278e-17
3.942996e-17
3.9403888e-17
3.9378063e-17
3.9352489e-17
3.9327174e-17
3.9302188e-17
3.9277357e-17
3.9254892e-17
3.9235735e-17
3.9219144e-17
3.9204522e-17
3.9191461e-17
3.9179678e-17
3.9168972e-17
3.915919e-17
3.9150213e-17
3.914194e-17
3.913429e-17
3.9127194e-17
3.9120591e-17
3.9114431e-17
3.9108667e-17
3.9103261e-17
3.9098171e-17
3.9093372e-17
3.9088769e-17
3.908447e-17
3.9079726e-17
3.9076112e-17
3.9070486e-17
1.9944364e-07
1.9943671e-07
1.9944333e-07
1.9944753e-07
1.9944967e-07
1.9945073e-07
1.9945132e-07
1.9945168e-07
1.9945195e-07
1.9945216e-07
1.9945234e-07
1.9945251e-07
1.9945268e-07
1.9945286e-07
1.9945306e-07
1.9945332e-07
1.9945367e-07
1.9945418e-07
1.9945499e-07
1.9945622e-07
1.9946025e-07
1.9944797e-07
1.9965432e-07
2.0182171e-08
2.4643247e-14
1.2986443e-16
8.0627325e-17
6.6851806e-17
6.0687612e-17
5.6966512e-17
5.4403584e-17
5.2557165e-17
5.1100628e-17
4.9931151e-17
4.8973959e-17
4.817861e-17
4.7510861e-17
4.6945722e-17
4.6459613e-17
4.6032968e-17
4.5655071e-17
4.5317568e-17
4.5014273e-17
4.4740357e-17
4.4491952e-17
4.4265929e-17
4.4059705e-17
4.3871021e-17
4.3697649e-17
4.3537588e-17
4.3389046e-17
4.3250598e-17
4.3121015e-17
4.2999356e-17
4.2884826e-17
4.2776736e-17
4.2674593e-17
4.2577879e-17
4.2486178e-17
4.2399151e-17
4.2316353e-17
4.2237565e-17
4.2162361e-17
4.209054e-17
4.2021746e-17
4.1955752e-17
4.1892313e-17
4.1831222e-17
4.1772282e-17
4.1715338e-17
4.1660235e-17
4.1606866e-17
4.1555107e-17
4.1504883e-17
4.1456092e-17
4.1408676e-17
4.1362547e-17
4.1317641e-17
4.1273893e-17
4.1231218e-17
4.1189562e-17
4.1148853e-17
4.1109032e-17
4.1070047e-17
4.1031845e-17
4.0994382e-17
4.0957611e-17
4.0921495e-17
4.0886002e-17
4.0851093e-17
4.0816744e-17
4.0782928e-17
4.0749624e-17
4.0716818e-17
4.068449e-17
4.0652625e-17
4.0621208e-17
4.0590217e-17
4.0559634e-17
4.0529441e-17
4.049962e-17
4.0470158e-17
4.0441044e-17
4.0412268e-17
4.0383821e-17
4.0355694e-17
4.0327879e-17
4.030037e-17
4.0273164e-17
4.0246264e-17
4.0219676e-17
4.0193472e-17
4.0167479e-17
4.0143933e-17
4.0123786e-17
4.0106278e-17
4.0090803e-17
4.0076943e-17
4.0064411e-17
4.0053002e-17
4.0042559e-17
4.0032959e-17
4.00241e-17
4.0015894e-17
4.000827e-17
4.0001164e-17
3.9994525e-17
3.9988305e-17
3.9982463e-17
3.9976959e-17
3.9971764e-17
3.9966787e-17
3.9962131e-17
3.995705e-17
3.9953145e-17
3.9947035e-17
1.9940703e-07
1.9939827e-07
1.9940533e-07
1.9941004e-07
1.9941245e-07
1.9941365e-07
1.994143e-07
1.9941472e-07
1.9941502e-07
1.9941525e-07
1.9941546e-07
1.9941565e-07
1.9941584e-07
1.9941604e-07
1.9941628e-07
1.9941658e-07
1.9941699e-07
1.9941757e-07
1.994185e-07
1.994199e-07
1.9942463e-07
1.9941e-07
1.9965152e-07
2.0922191e-08
4.6453284e-14
1.9863259e-16
1.0813502e-16
8.3501257e-17
7.2881782e-17
6.6708829e-17
6.254276e-17
5.9663395e-17
5.7378736e-17
5.5544855e-17
5.4045832e-17
5.2803882e-17
5.1766859e-17
5.0899874e-17
5.0163961e-17
4.9519215e-17
4.8949112e-17
4.8440119e-17
4.7982822e-17
4.7570085e-17
4.7196274e-17
4.685692e-17
4.6548442e-17
4.6267777e-17
4.6011616e-17
4.5776492e-17
4.5559262e-17
4.5357523e-17
4.5169157e-17
4.4992638e-17
4.4826729e-17
4.4670394e-17
4.4522971e-17
4.4383723e-17
4.4252087e-17
4.4127655e-17
4.4009723e-17
4.3898115e-17
4.3792084e-17
4.3691458e-17
4.3595555e-17
4.3504045e-17
4.3416508e-17
4.3332594e-17
4.3251966e-17
4.3174374e-17
4.3099568e-17
4.3027394e-17
4.2957662e-17
4.289029e-17
4.2825124e-17
4.2762111e-17
4.2701121e-17
4.2642073e-17
4.2584889e-17
4.2529421e-17
4.2475606e-17
4.2423311e-17
4.237245e-17
4.2322936e-17
4.2274677e-17
4.2227601e-17
4.2181625e-17
4.2136687e-17
4.2092733e-17
4.2049698e-17
4.2007545e-17
4.1966231e-17
4.1925728e-17
4.1886022e-17
4.184708e-17
4.1808888e-17
4.1771423e-17
4.1734648e-17
4.1698532e-17
4.1663037e-17
4.1628133e-17
4.1593793e-17
4.1559995e-17
4.1526719e-17
4.1493945e-17
4.1461652e-17
4.1429822e-17
4.1398433e-17
4.1367475e-17
4.1336945e-17
4.1306848e-17
4.1277258e-17
4.124801e-17
4.1221393e-17
4.1198407e-17
4.1178277e-17
4.1160364e-17
4.1144231e-17
4.1129573e-17
4.1116173e-17
4.1103862e-17
4.1092507e-17
4.1081992e-17
4.1072223e-17
4.1063116e-17
4.1054602e-17
4.1046621e-17
4.1039124e-17
4.1032065e-17
4.10254e-17
4.1019099e-17
4.1013069e-17
4.1007411e-17
4.1001363e-17
4.0996632e-17
4.0989168e-17
1.9936346e-07
1.9935241e-07
1.9936e-07
1.9936532e-07
1.9936807e-07
1.9936942e-07
1.9937016e-07
1.9937063e-07
1.9937097e-07
1.9937124e-07
1.9937148e-07
1.9937169e-07
1.9937191e-07
1.9937215e-07
1.9937243e-07
1.9937277e-07
1.9937325e-07
1.9937392e-07
1.9937501e-07
1.993766e-07
1.9938218e-07
1.9936463e-07
1.9964939e-07
2.1701199e-08
8.4739083e-14
3.4426804e-16
1.6651619e-16
1.1884907e-16
9.8805645e-17
8.7427139e-17
7.9793976e-17
7.4366319e-17
7.0138115e-17
6.678338e-17
6.4066777e-17
6.1831811e-17
5.9976366e-17
5.8445384e-17
5.7173735e-17
5.6061696e-17
5.5080817e-17
5.4204989e-17
5.3417497e-17
5.2706255e-17
5.2061921e-17
5.1477248e-17
5.0946687e-17
5.0465943e-17
5.003045e-17
4.9633152e-17
4.9267806e-17
4.8929798e-17
4.8614889e-17
4.8320128e-17
4.8043266e-17
4.7782504e-17
4.7536804e-17
4.7304988e-17
4.7086206e-17
4.6879937e-17
4.668498e-17
4.6501321e-17
4.6327542e-17
4.6163711e-17
4.6008321e-17
4.5860871e-17
4.5720542e-17
4.5586634e-17
4.5458481e-17
4.5335595e-17
4.5217504e-17
4.5103942e-17
4.4994578e-17
4.4889305e-17
4.4787868e-17
4.4690233e-17
4.4596188e-17
4.4505633e-17
4.4418474e-17
4.4334431e-17
4.4253449e-17
4.4175258e-17
4.4099716e-17
4.402666e-17
4.3955911e-17
4.3887322e-17
4.3820733e-17
4.3756017e-17
4.3693064e-17
4.3631749e-17
4.3572007e-17
4.3513757e-17
4.3456958e-17
4.3401595e-17
4.3347618e-17
4.329501e-17
4.3243742e-17
4.3193741e-17
4.3144957e-17
4.3097311e-17
4.3050743e-17
4.3005199e-17
4.296063e-17
4.2916994e-17
4.2874244e-17
4.2832333e-17
4.2791212e-17
4.275083e-17
4.2711155e-17
4.2672169e-17
4.2633879e-17
4.2596359e-17
4.255947e-17
4.2525608e-17
4.2495901e-17
4.2469561e-17
4.2445878e-17
4.2424367e-17
4.2404684e-17
4.2386579e-17
4.2369857e-17
4.2354358e-17
4.2339939e-17
4.2326481e-17
4.2313878e-17
4.2302042e-17
4.2290898e-17
4.2280386e-17
4.2270453e-17
4.2261048e-17
4.2252135e-17
4.2243611e-17
4.223558e-17
4.2227222e-17
4.2220527e-17
4.2209852e-17
1.9931207e-07
1.9929814e-07
1.9930635e-07
1.9931243e-07
1.9931557e-07
1.9931712e-07
1.9931796e-07
1.993185e-07
1.9931888e-07
1.9931919e-07
1.9931946e-07
1.9931972e-07
1.9931997e-07
1.9932025e-07
1.9932057e-07
1.9932098e-07
1.9932153e-07
1.9932231e-07
1.9932359e-07
1.9932541e-07
1.9933204e-07
1.9931083e-07
1.9964847e-07
2.2525104e-08
1.5066024e-13
6.4332834e-16
2.8639617e-16
1.9138464e-16
1.5201861e-16
1.2995656e-16
1.1517057e-16
1.0450674e-16
9.6286615e-17
8.9806774e-17
8.4584531e-17
8.0300683e-17
7.6745596e-17
7.3780304e-17
7.1267641e-17
6.9077365e-17
6.7150305e-17
6.5438741e-17
6.3908464e-17
6.2533208e-17
6.1292346e-17
6.0170016e-17
5.9154445e-17
5.823771e-17
5.7416391e-17
5.6673102e-17
5.5993968e-17
5.5369101e-17
5.4788779e-17
5.4246343e-17
5.3737014e-17
5.325723e-17
5.2805023e-17
5.2378303e-17
5.1975626e-17
5.1596255e-17
5.1238067e-17
5.0901484e-17
5.0583812e-17
5.0286155e-17
5.0004867e-17
4.9739293e-17
4.9487711e-17
4.9248581e-17
4.902044e-17
4.8802216e-17
4.8592919e-17
4.8391999e-17
4.8198827e-17
4.8013229e-17
4.7834757e-17
4.7663428e-17
4.7498877e-17
4.7341003e-17
4.7189716e-17
4.7044468e-17
4.6905318e-17
4.6771667e-17
4.6643302e-17
4.6519898e-17
4.6401083e-17
4.6286535e-17
4.6175905e-17
4.6068908e-17
4.5965304e-17
4.5864831e-17
4.576735e-17
4.5672704e-17
4.5580818e-17
4.5491685e-17
4.5405218e-17
4.5321417e-17
4.5240244e-17
4.5161564e-17
4.5085295e-17
4.5011281e-17
4.4939401e-17
4.4869546e-17
4.4801613e-17
4.4735508e-17
4.4671122e-17
4.4608347e-17
4.4547061e-17
4.4487146e-17
4.4428515e-17
4.4371117e-17
4.431496e-17
4.4260127e-17
4.4206531e-17
4.4156794e-17
4.4112331e-17
4.407235e-17
4.4035994e-17
4.4002672e-17
4.3971951e-17
4.3943517e-17
4.3917113e-17
4.3892519e-17
4.3869533e-17
4.3847981e-17
4.3827706e-17
4.3808577e-17
4.3790487e-17
4.377335e-17
4.3757097e-17
4.3741661e-17
4.3726992e-17
4.3712969e-17
4.36997e-17
4.3686227e-17
4.3675185e-17
4.3657408e-17
1.9925189e-07
1.9923436e-07
1.992433e-07
1.9925028e-07
1.9925391e-07
1.9925569e-07
1.9925665e-07
1.9925727e-07
1.9925771e-07
1.9925807e-07
1.9925838e-07
1.9925867e-07
1.9925897e-07
1.9925929e-07
1.9925967e-07
1.9926015e-07
1.9926079e-07
1.9926171e-07
1.9926321e-07
1.9926531e-07
1.9927321e-07
1.9924748e-07
1.9964949e-07
2.3400746e-08
2.6249964e-13
1.2448217e-15
5.2741147e-16
3.3714627e-16
2.5898888e-16
2.1547701e-16
1.8629235e-16
1.6509909e-16
1.4885485e-16
1.3609048e-16
1.2582396e-16
1.1740776e-16
1.1041199e-16
1.0453351e-16
9.9511336e-17
9.5140606e-17
9.1301829e-17
8.7901941e-17
8.4870497e-17
8.2152071e-17
7.9702789e-17
7.7488806e-17
7.5484527e-17
7.3669949e-17
7.2025684e-17
7.052614e-17
6.9149074e-17
6.7877504e-17
6.6696118e-17
6.5593836e-17
6.4561929e-17
6.3593308e-17
6.2683473e-17
6.1827729e-17
6.1022622e-17
6.0266094e-17
5.9553752e-17
5.8886097e-17
5.8258137e-17
5.767446e-17
5.7125201e-17
5.6609943e-17
5.6124728e-17
5.5665779e-17
5.5229533e-17
5.4813303e-17
5.4414764e-17
5.4032566e-17
5.3665363e-17
5.3312749e-17
5.2973878e-17
5.2648835e-17
5.2336984e-17
5.2038251e-17
5.1752606e-17
5.1479005e-17
5.1217996e-17
5.0968185e-17
5.072935e-17
5.0500847e-17
5.0281882e-17
5.0071705e-17
4.9869516e-17
4.9674642e-17
4.9486512e-17
4.9304545e-17
4.9128424e-17
4.8957815e-17
4.8792575e-17
4.8632712e-17
4.847808e-17
4.8328732e-17
4.8184646e-17
4.8045574e-17
4.7911419e-17
4.7781866e-17
4.7656696e-17
4.75357e-17
4.7418672e-17
4.7305398e-17
4.7195631e-17
4.7089117e-17
4.6985565e-17
4.6884698e-17
4.6786302e-17
4.669024e-17
4.6596523e-17
4.6505255e-17
4.6416475e-17
4.6333253e-17
4.6257628e-17
4.6188818e-17
4.612567e-17
4.6067377e-17
4.6013319e-17
4.5963048e-17
4.5916179e-17
4.5872365e-17
4.5831282e-17
4.5792631e-17
4.5756147e-17
4.5721605e-17
4.5688826e-17
4.5657672e-17
4.5628034e-17
4.5599814e-17
4.5572931e-17
4.5547228e-17
4.5522823e-17
4.5498453e-17
4.5478142e-17
4.5445219e-17
1.9918184e-07
1.9915984e-07
1.9916961e-07
1.9917768e-07
1.991819e-07
1.9918395e-07
1.9918506e-07
1.9918577e-07
1.9918629e-07
1.991867e-07
1.9918706e-07
1.991874e-07
1.9918775e-07
1.9918813e-07
1.9918857e-07
1.9918913e-07
1.991899e-07
1.9919098e-07
1.9919274e-07
1.9919516e-07
1.992046e-07
1.9917328e-07
1.9965335e-07
2.4336142e-08
4.5005728e-13
2.4366711e-15
1.0048442e-15
6.2585869e-16
4.7099415e-16
3.8507919e-16
3.2738573e-16
2.8534238e-16
2.5321357e-16
2.2800251e-16
2.0773693e-16
1.9111823e-16
1.772772e-16
1.6559305e-16
1.5557511e-16
1.4686372e-16
1.3922039e-16
1.324605e-16
1.2644062e-16
1.2104661e-16
1.1618759e-16
1.1179315e-16
1.0780939e-16
1.0419191e-16
1.0089677e-16
9.7880606e-17
9.5104855e-17
9.2538618e-17
9.0154801e-17
8.7932798e-17
8.5855518e-17
8.3908559e-17
8.2082012e-17
8.0365858e-17
7.8752517e-17
7.7236836e-17
7.581018e-17
7.4470984e-17
7.3209364e-17
7.2026002e-17
7.0908919e-17
6.9854608e-17
6.8856857e-17
6.7910138e-17
6.7009194e-17
6.6149947e-17
6.5328588e-17
6.4542719e-17
6.3789793e-17
6.3068793e-17
6.2377934e-17
6.1717055e-17
6.1084751e-17
6.0480675e-17
5.9904582e-17
5.9354362e-17
5.8832163e-17
5.8334286e-17
5.7860841e-17
5.7410469e-17
5.6981323e-17
5.6571492e-17
5.6178946e-17
5.5801923e-17
5.5438926e-17
5.5088545e-17
5.4749939e-17
5.4422328e-17
5.4105361e-17
5.3799037e-17
5.3503102e-17
5.3217724e-17
5.2942957e-17
5.2678347e-17
5.2423882e-17
5.2178943e-17
5.1943176e-17
5.1716227e-17
5.1497691e-17
5.1287105e-17
5.1083896e-17
5.0887452e-17
5.0697089e-17
5.0512139e-17
5.033208e-17
5.0156569e-17
4.9985597e-17
4.9819315e-17
4.9658048e-17
4.950576e-17
4.9365785e-17
4.9237394e-17
4.9118844e-17
4.9008899e-17
4.890656e-17
4.881112e-17
4.8721936e-17
4.8638405e-17
4.8559939e-17
4.8485984e-17
4.8416034e-17
4.8349664e-17
4.8286539e-17
4.8226407e-17
4.8169075e-17
4.8114381e-17
4.806218e-17
4.801224e-17
4.7964698e-17
4.7917659e-17
4.7878037e-17
4.7813532e-17
1.9910076e-07
1.9907319e-07
1.9908392e-07
1.9909329e-07
1.9909821e-07
1.991006e-07
1.9910189e-07
1.9910271e-07
1.991033e-07
1.9910379e-07
1.9910421e-07
1.9910461e-07
1.9910501e-07
1.9910546e-07
1.9910598e-07
1.9910664e-07
1.9910754e-07
1.9910881e-07
1.991109e-07
1.9911369e-07
1.9912499e-07
1.9908675e-07
1.9966118e-07
2.5340811e-08
7.6168518e-13
4.772161e-15
1.9403307e-15
1.1916905e-15
8.8683456e-16
7.1804247e-16
6.0456371e-16
5.2170317e-16
4.5848189e-16
4.0889521e-16
3.6903229e-16
3.3631956e-16
3.0902468e-16
2.8591471e-16
2.6606469e-16
2.4881e-16
2.3367909e-16
2.203062e-16
2.0840331e-16
1.9773974e-16
1.8813093e-16
1.7943335e-16
1.7153704e-16
1.6435084e-16
1.5778766e-16
1.5176897e-16
1.4622456e-16
1.4109628e-16
1.3633335e-16
1.3189572e-16
1.2774935e-16
1.2386511e-16
1.2022192e-16
1.167991e-16
1.1358077e-16
1.1055522e-16
1.0770609e-16
1.0502667e-16
1.0249915e-16
1.0011808e-16
9.7866282e-17
9.5735295e-17
9.3714594e-17
9.1795032e-17
8.9967739e-17
8.8225543e-17
8.6561435e-17
8.4970641e-17
8.3448116e-17
8.1991381e-17
8.0596824e-17
7.9263496e-17
7.7988618e-17
7.6770949e-17
7.5609208e-17
7.4499228e-17
7.3441074e-17
7.2429692e-17
7.1463413e-17
7.0539649e-17
6.9655539e-17
6.8808457e-17
6.7995653e-17
6.7214698e-17
6.6463383e-17
6.5739402e-17
6.5041268e-17
6.4367511e-17
6.3717374e-17
6.3090726e-17
6.2487002e-17
6.1906424e-17
6.1349006e-17
6.0813751e-17
6.0300947e-17
5.9809196e-17
5.9337952e-17
5.8886655e-17
5.8454467e-17
5.8040289e-17
5.7642687e-17
5.726007e-17
5.6890693e-17
5.6532861e-17
5.6185214e-17
5.5846836e-17
5.551757e-17
5.5197606e-17
5.4887869e-17
5.4594083e-17
5.4322197e-17
5.4071606e-17
5.3839386e-17
5.3623468e-17
5.3422082e-17
5.3234034e-17
5.3058183e-17
5.2893406e-17
5.2738566e-17
5.259256e-17
5.2454369e-17
5.2323123e-17
5.2198143e-17
5.2078929e-17
5.1965103e-17
5.1856362e-17
5.1752434e-17
5.1652926e-17
5.1558014e-17
5.1464508e-17
5.1385238e-17
5.1255819e-17
1.9900737e-07
1.9897287e-07
1.989847e-07
1.9899564e-07
1.990014e-07
1.9900418e-07
1.9900568e-07
1.9900663e-07
1.9900732e-07
1.9900789e-07
1.9900838e-07
1.9900884e-07
1.9900932e-07
1.9900985e-07
1.9901047e-07
1.9901125e-07
1.9901231e-07
1.9901381e-07
1.9901626e-07
1.9901949e-07
1.9903303e-07
1.9898628e-07
1.9967437e-07
2.642616e-08
1.2755137e-12
9.3099634e-15
3.7581976e-15
2.291753e-15
1.6960889e-15
1.36669e-15
1.1449998e-15
9.8292535e-16
8.5936041e-16
7.6243929e-16
6.844926e-16
6.2047262e-16
5.6696819e-16
5.2157264e-16
4.8253859e-16
4.4861235e-16
4.188697e-16
3.9259089e-16
3.6920475e-16
3.4825163e-16
3.29362e-16
3.1224765e-16
2.9668913e-16
2.8250657e-16
2.6953373e-16
2.5762446e-16
2.4664777e-16
2.3649259e-16
2.2706149e-16