/*--------------------------------*- C++ -*----------------------------------*\
| =========                 |                                                 |
| \\      /  F ield         | OpenFOAM: The Open Source CFD Toolbox           |
|  \\    /   O peration     | Version:  2206                                  |
|   \\  /    A nd           | Website:  www.openfoam.com                      |
|    \\/     M anipulation  |                                                 |
\*---------------------------------------------------------------------------*/
FoamFile
{
    version     2.0;
    format      ascii;
    arch        "LSB;label=32;scalar=64";
    class       volScalarField;
    location    "100";
    object      omega;
}
// * * * * * * * * * * * * * * * * * * * * * * * * * * * * * * * * * * * * * //

dimensions      [0 0 -1 0 0 0 0];

internalField   nonuniform List<scalar> 
13056
(
727.97652
725.81049
725.62755
725.65344
725.66738
725.672
725.67496
725.67814
725.68178
725.68591
725.69054
725.69567
725.70132
725.70749
725.71419
725.72141
725.72917
725.73751
725.74653
725.757
725.76636
725.82821
725.54265
9145.4549
1.1944345e+09
1.1944345e+09
1.1944345e+09
1.1944345e+09
1.1944345e+09
1.1944345e+09
1.1944345e+09
1.1944345e+09
1.1944345e+09
1.1944345e+09
1.1944345e+09
1.1944345e+09
1.1944345e+09
1.1944345e+09
1.1944345e+09
1.1944345e+09
1.1944345e+09
1.1944345e+09
1.1944345e+09
1.1944345e+09
1.1944345e+09
1.1944345e+09
1.1944345e+09
1.1944345e+09
1.1944345e+09
1.1944345e+09
1.1944345e+09
1.1944345e+09
1.1944345e+09
1.1944345e+09
1.1944345e+09
1.1944345e+09
1.1944345e+09
1.1944345e+09
1.1944345e+09
1.1944345e+09
1.1944345e+09
1.1944345e+09
1.1944345e+09
1.1944345e+09
1.1944345e+09
1.1944345e+09
1.1944345e+09
1.1944345e+09
1.1944345e+09
1.1944345e+09
1.1944345e+09
1.1944345e+09
1.1944345e+09
1.1944345e+09
1.1944345e+09
1.1944345e+09
1.1944345e+09
1.1944345e+09
1.1944345e+09
1.1944345e+09
1.1944345e+09
1.1944345e+09
1.1944345e+09
1.1944345e+09
1.1944345e+09
1.1944345e+09
1.1944345e+09
1.1944345e+09
1.1944345e+09
1.1944345e+09
1.1944345e+09
1.1944345e+09
1.1944345e+09
1.1944345e+09
1.1944345e+09
1.1944345e+09
1.1944345e+09
1.1944345e+09
1.1944345e+09
1.1944345e+09
1.1944345e+09
1.1944345e+09
1.1944345e+09
1.1944345e+09
1.1944345e+09
1.1944345e+09
1.1944345e+09
1.1944345e+09
1.1944345e+09
1.1944345e+09
1.1944345e+09
1.1944345e+09
1.1944345e+09
1.1944345e+09
1.1944345e+09
1.1944345e+09
1.1944345e+09
1.1944345e+09
1.1944345e+09
1.1944345e+09
1.1944345e+09
1.1944345e+09
1.1944345e+09
1.1944345e+09
1.1944345e+09
1.1944345e+09
1.1944345e+09
1.1944345e+09
1.1944345e+09
1.1944345e+09
1.1944345e+09
1.1944345e+09
1.1944345e+09
1.1944345e+09
1.1944345e+09
1.1944345e+09
727.90225
725.72271
725.53836
725.56439
725.5784
725.58304
725.586
725.58918
725.59283
725.59697
725.60161
725.60675
725.61241
725.61859
725.6253
725.63254
725.64032
725.64869
725.65774
725.66826
725.67765
725.74004
725.45031
8861.8619
1.9591799e+08
1.9627716e+08
1.9627909e+08
1.962802e+08
1.9628084e+08
1.9628131e+08
1.9628166e+08
1.9628195e+08
1.9628219e+08
1.9628239e+08
1.9628257e+08
1.9628272e+08
1.9628285e+08
1.9628297e+08
1.9628308e+08
1.9628317e+08
1.9628326e+08
1.9628334e+08
1.9628341e+08
1.9628348e+08
1.9628354e+08
1.962836e+08
1.9628365e+08
1.962837e+08
1.9628375e+08
1.962838e+08
1.9628384e+08
1.9628388e+08
1.9628391e+08
1.9628395e+08
1.9628398e+08
1.9628402e+08
1.9628405e+08
1.9628408e+08
1.962841e+08
1.9628413e+08
1.9628416e+08
1.9628418e+08
1.9628421e+08
1.9628423e+08
1.9628425e+08
1.9628427e+08
1.9628429e+08
1.9628431e+08
1.9628433e+08
1.9628435e+08
1.9628437e+08
1.9628439e+08
1.9628441e+08
1.9628442e+08
1.9628444e+08
1.9628446e+08
1.9628447e+08
1.9628449e+08
1.962845e+08
1.9628452e+08
1.9628453e+08
1.9628455e+08
1.9628456e+08
1.9628458e+08
1.9628459e+08
1.9628461e+08
1.9628462e+08
1.9628463e+08
1.9628465e+08
1.9628466e+08
1.9628467e+08
1.9628469e+08
1.962847e+08
1.9628471e+08
1.9628472e+08
1.9628474e+08
1.9628475e+08
1.9628476e+08
1.9628477e+08
1.9628478e+08
1.962848e+08
1.9628481e+08
1.9628482e+08
1.9628483e+08
1.9628484e+08
1.9628486e+08
1.9628487e+08
1.9628488e+08
1.9628489e+08
1.962849e+08
1.9628491e+08
1.9628493e+08
1.9628494e+08
1.9628495e+08
1.9628496e+08
1.9628497e+08
1.9628498e+08
1.9628498e+08
1.9628499e+08
1.96285e+08
1.96285e+08
1.9628501e+08
1.9628501e+08
1.9628502e+08
1.9628502e+08
1.9628503e+08
1.9628503e+08
1.9628503e+08
1.9628504e+08
1.9628504e+08
1.9628504e+08
1.9628505e+08
1.9628505e+08
1.9628505e+08
1.9628505e+08
1.9628506e+08
727.6647
725.44387
725.25524
725.28167
725.29592
725.3006
725.30358
725.30677
725.31044
725.3146
725.31926
725.32443
725.33012
725.33635
725.34311
725.3504
725.35824
725.36668
725.37582
725.38649
725.39596
725.46002
725.15969
8552.1757
64313983
64223665
64224006
64224235
64224384
64224501
64224590
64224657
64224715
64224766
64224810
64224849
64224884
64224914
64224941
64224965
64224988
64225008
64225027
64225045
64225061
64225077
64225091
64225104
64225116
64225128
64225139
64225149
64225159
64225169
64225178
64225186
64225194
64225202
64225210
64225217
64225224
64225231
64225237
64225243
64225249
64225255
64225261
64225266
64225272
64225277
64225282
64225287
64225292
64225296
64225301
64225305
64225310
64225314
64225318
64225322
64225327
64225331
64225335
64225338
64225342
64225346
64225350
64225354
64225357
64225361
64225364
64225368
64225372
64225375
64225379
64225382
64225385
64225389
64225392
64225396
64225399
64225402
64225406
64225409
64225412
64225415
64225419
64225422
64225425
64225428
64225432
64225435
64225438
64225441
64225444
64225447
64225449
64225451
64225453
64225455
64225456
64225458
64225459
64225461
64225462
64225463
64225464
64225465
64225466
64225467
64225468
64225469
64225469
64225470
64225471
64225472
727.25619
724.96473
724.76878
724.79591
724.81055
724.81531
724.81831
724.82152
724.82522
724.82941
724.83412
724.83934
724.84509
724.85139
724.85822
724.86561
724.87355
724.88212
724.89142
724.90233
724.91192
724.97884
724.6611
8244.7217
30205639
29344621
29344002
29343770
29343719
29343722
29343715
29343690
29343682
29343683
29343688
29343693
29343697
29343698
29343699
29343700
29343702
29343705
29343709
29343712
29343716
29343719
29343722
29343725
29343727
29343729
29343731
29343733
29343736
29343738
29343740
29343742
29343744
29343747
29343749
29343751
29343753
29343755
29343757
29343759
29343760
29343762
29343764
29343765
29343767
29343769
29343770
29343772
29343774
29343775
29343777
29343779
29343780
29343782
29343783
29343785
29343786
29343788
29343789
29343791
29343792
29343794
29343795
29343797
29343798
29343800
29343801
29343803
29343804
29343805
29343807
29343808
29343810
29343811
29343813
29343814
29343816
29343817
29343819
29343820
29343822
29343823
29343824
29343826
29343827
29343829
29343830
29343832
29343833
29343835
29343836
29343837
29343838
29343839
29343840
29343841
29343841
29343842
29343843
29343843
29343844
29343844
29343845
29343845
29343846
29343846
29343847
29343847
29343847
29343848
29343848
29343848
726.6647
724.27074
724.06416
724.0923
724.10751
724.11239
724.11541
724.11865
724.12238
724.12663
724.1314
724.1367
724.14253
724.14892
724.15587
724.16338
724.17148
724.18023
724.18975
724.20102
724.2108
724.28186
723.93925
7944.2518
16801746
16061781
16059082
16057915
16057524
16057375
16057225
16057037
16056928
16056861
16056816
16056783
16056749
16056711
16056675
16056645
16056622
16056603
16056589
16056577
16056567
16056558
16056549
16056540
16056532
16056523
16056516
16056509
16056503
16056497
16056493
16056489
16056486
16056483
16056480
16056478
16056475
16056473
16056471
16056469
16056467
16056465
16056463
16056461
16056460
16056459
16056458
16056457
16056456
16056456
16056455
16056455
16056454
16056454
16056454
16056453
16056453
16056453
16056453
16056453
16056453
16056453
16056453
16056453
16056453
16056453
16056454
16056454
16056455
16056455
16056455
16056456
16056456
16056457
16056458
16056458
16056459
16056459
16056460
16056461
16056461
16056462
16056463
16056464
16056464
16056465
16056466
16056467
16056468
16056468
16056469
16056470
16056470
16056471
16056471
16056472
16056472
16056472
16056473
16056473
16056473
16056473
16056474
16056474
16056474
16056474
16056474
16056475
16056475
16056475
16056475
16056475
725.87386
723.34211
723.12121
723.15069
723.16667
723.1717
723.17476
723.17803
723.18182
723.18613
723.19098
723.19638
723.20233
723.20885
723.21594
723.22362
723.23191
723.24091
723.25073
723.26248
723.27249
723.34916
722.97331
7650.9863
10346405
9797701.8
9790281.6
9786986
9785836.5
9785365.4
9784910.1
9784350.5
9784015.7
9783798.8
9783649.6
9783532.7
9783419.2
9783296.6
9783179.8
9783082.7
9783003.2
9782938.9
9782886.6
9782842.7
9782804.6
9782769.7
9782736.2
9782703
9782670.7
9782639.9
9782611.3
9782585.3
9782562.1
9782541.4
9782523
9782506.7
9782491.9
9782478.5
9782466
9782454.2
9782443
9782432
9782421.5
9782411.2
9782401.4
9782392
9782383.2
9782375
9782367.5
9782360.5
9782354.1
9782348.2
9782342.8
9782337.7
9782333
9782328.5
9782324.4
9782320.4
9782316.5
9782312.8
9782309.3
9782305.9
9782302.6
9782299.6
9782296.7
9782294
9782291.5
9782289.2
9782287.1
9782285.2
9782283.5
9782281.8
9782280.3
9782279
9782277.7
9782276.5
9782275.4
9782274.4
9782273.4
9782272.5
9782271.7
9782270.9
9782270.2
9782269.6
9782269
9782268.6
9782268.2
9782267.8
9782267.6
9782267.3
9782267.2
9782267
9782267
9782266.9
9782266.8
9782266.6
9782266.5
9782266.3
9782266.1
9782265.9
9782265.7
9782265.5
9782265.3
9782265.1
9782264.9
9782264.7
9782264.6
9782264.4
9782264.3
9782264.1
9782264
9782263.8
9782263.7
9782263.6
9782263.5
9782263.3
724.86315
722.15385
721.91448
721.94568
721.96264
721.96787
721.97096
721.97428
721.97813
721.98253
721.98748
721.993
721.99909
722.00577
722.01304
722.02094
722.02948
722.03879
722.04899
722.06135
722.07165
722.15558
721.73694
7363.9457
6803445.7
6420548.6
6403734.1
6396138.8
6393456.2
6392357.5
6391316.1
6389978.9
6389178.6
6388657.4
6388298
6388017.8
6387748.7
6387455.9
6387172.6
6386936.2
6386741.1
6386582.8
6386453.1
6386344.4
6386249.8
6386163.5
6386080.9
6385999.1
6385919.1
6385842.4
6385770.9
6385705.5
6385646.6
6385594.1
6385547.1
6385505.2
6385467.2
6385432.4
6385400.2
6385369.5
6385340.5
6385312.1
6385284.8
6385258
6385232.3
6385207.6
6385184.4
6385162.5
6385142.2
6385123.3
6385105.9
6385089.6
6385074.6
6385060.5
6385047.3
6385034.7
6385022.7
6385011.3
6385000.2
6384989.6
6384979.2
6384969.2
6384959.6
6384950.4
6384941.7
6384933.4
6384925.5
6384918.2
6384911.4
6384904.9
6384898.9
6384893.2
6384887.8
6384882.7
6384877.8
6384873.2
6384868.8
6384864.5
6384860.4
6384856.5
6384852.7
6384849.1
6384845.6
6384842.3
6384839.2
6384836.3
6384833.5
6384830.9
6384828.5
6384826.1
6384823.9
6384821.8
6384819.9
6384818
6384816.2
6384814.4
6384812.8
6384811.2
6384809.7
6384808.2
6384806.9
6384805.6
6384804.4
6384803.2
6384802.1
6384801.1
6384800.1
6384799.1
6384798.2
6384797.4
6384796.6
6384795.8
6384795.1
6384794.4
6384793.8
6384792.9
723.60797
720.67586
720.41327
720.44661
720.4648
720.47027
720.47341
720.47677
720.4807
720.4852
720.49028
720.49594
720.5022
720.50908
720.51658
720.52474
720.53359
720.54328
720.55396
720.56708
720.57771
720.67081
720.19836
7081.8751
4677739.3
4437017.6
4404853.4
4389573.2
4384107.9
4381928.5
4379908
4377072.9
4375392.8
4374303.8
4373560.2
4372989.4
4372448.9
4371846.7
4371247.5
4370746.4
4370331.4
4369994.7
4369719.8
4369490.4
4369292.1
4369112.6
4368941.3
4368771
4368602.7
4368439.8
4368287.3
4368146.9
4368020.2
4367906.9
4367805.7
4367715.5
4367633.8
4367559.3
4367490.4
4367425
4367363.3
4367302.6
4367244.2
4367186.4
4367130.9
4367077.4
4367026.6
4366978.7
4366934
4366892.5
4366854
4366818.2
4366784.9
4366753.7
4366724.5
4366696.7
4366670.3
4366644.9
4366620.3
4366596.6
4366573.4
4366551
4366529.3
4366508.4
4366488.4
4366469.4
4366451.4
4366434.4
4366418.4
4366403.3
4366389.1
4366375.6
4366362.9
4366350.7
4366339.1
4366327.9
4366317.2
4366306.8
4366296.7
4366287
4366277.6
4366268.5
4366259.7
4366251.2
4366243.2
4366235.5
4366228.2
4366221.2
4366214.6
4366208.2
4366202.1
4366196.3
4366190.6
4366185.3
4366180.2
4366175.4
4366170.9
4366166.6
4366162.6
4366158.8
4366155.2
4366151.9
4366148.7
4366145.7
4366142.8
4366140.1
4366137.6
4366135.1
4366132.8
4366130.6
4366128.6
4366126.6
4366124.7
4366122.9
4366121.4
4366118.9
722.07972
718.87296
718.58166
718.61763
718.63733
718.64308
718.64627
718.64969
718.6537
718.65832
718.66355
718.66938
718.67585
718.68296
718.69073
718.69921
718.70844
718.71858
718.72984
718.74391
718.75491
718.85939
718.32028
6803.5464
3319005.4
3172903.2
3153395.8
3128186.3
3118606.3
3114955.3
3111612.5
3106117
3102912.2
3100853.8
3099471.1
3098434.4
3097472.4
3096360.7
3095201.3
3094230.4
3093423
3092769.3
3092238.8
3091799.9
3091424.7
3091088.7
3090770.1
3090451.2
3090130.8
3089817.1
3089520.7
3089246.1
3088997.4
3088775
3088576.9
3088400.6
3088241.8
3088097.7
3087965.2
3087839.9
3087722.1
3087605.8
3087493.9
3087382
3087273.9
3087169.2
3087069.1
3086974.5
3086886
3086803.5
3086727.2
3086656.3
3086590.6
3086529
3086471.5
3086416.9
3086365.2
3086315.5
3086267.2
3086220.6
3086174.8
3086130.4
3086087.2
3086045.3
3086005.2
3085966.8
3085930.4
3085896
3085863.5
3085832.9
3085804
3085776.7
3085750.8
3085726
3085702.4
3085679.7
3085657.8
3085636.6
3085616
3085595.9
3085576.4
3085557.4
3085539.1
3085521.4
3085504.4
3085488.2
3085472.7
3085457.8
3085443.6
3085430
3085416.9
3085404.4
3085392.3
3085380.7
3085369.8
3085359.6
3085350.1
3085341
3085332.5
3085324.5
3085317
3085309.8
3085303.1
3085296.8
3085290.8
3085285.1
3085279.7
3085274.6
3085269.7
3085265.2
3085260.8
3085256.7
3085252.7
3085249
3085245.7
3085240.5
720.24592
716.70485
716.37854
716.41766
716.43919
716.44527
716.44852
716.452
716.45612
716.46087
716.46627
716.4723
716.479
716.48639
716.49449
716.50334
716.513
716.5237
716.53564
716.55085
716.56228
716.68072
716.05991
6527.86
2409328.2
2317664.6
2305509.8
2289484.3
2283644.7
2281194.9
2277765.9
2268450.1
2263122.9
2259732.7
2257504
2255879.1
2254402.9
2252580.9
2250512.4
2248776.9
2247322.6
2246147.2
2245200.6
2244426.4
2243773.7
2243197.9
2242657.2
2242112.1
2241549.5
2240988.9
2240452.6
2239950.7
2239493.9
2239085
2238721.6
2238399.6
2238111.6
2237852
2237615.2
2237392.5
2237184.3
2236978.4
2236780
2236578.7
2236383.2
2236192.1
2236008
2235833
2235668.7
2235515.7
2235374.1
2235242.9
2235121.7
2235008.6
2234903.4
2234803.8
2234709.8
2234619.7
2234532
2234447.4
2234363.9
2234282.4
2234202.7
2234125.2
2234050.3
2233978.5
2233910.3
2233845.7
2233784.7
2233727.3
2233673.1
2233622
2233573.6
2233527.5
2233483.6
2233441.4
2233400.6
2233361.2
2233322.7
2233285.2
2233248.5
2233212.7
2233178
2233144.3
2233111.9
2233080.9
2233051.2
2233022.7
2232995.5
2232969.5
2232944.5
2232920.4
2232897.3
2232875.3
2232854.5
2232835.2
2232817.1
2232800
2232783.8
2232768.6
2232754.2
2232740.7
2232727.9
2232715.8
2232704.4
2232693.5
2232683.3
2232673.6
2232664.3
2232655.6
2232647.3
2232639.5
2232632
2232624.8
2232618.7
2232608.7
718.07032
714.12619
713.75753
713.80043
713.82413
713.83062
713.83392
713.83747
713.84169
713.8466
713.85219
713.85846
713.86543
713.87314
713.8816
713.89089
713.90107
713.91242
713.92518
713.94175
713.95363
714.08904
713.36892
6253.8747
1778835
1719860.5
1712083.2
1701681.7
1698042.4
1696387
1693621.9
1687883
1684585.7
1682492.4
1681090.8
1679996.4
1678808.2
1676694
1673584.9
1670933.3
1668653.3
1666802.1
1665320
1664121.8
1663126.8
1662263.2
1661460.7
1660641.2
1659748
1658830.6
1657934.2
1657080.2
1656295.7
1655591.4
1654966.4
1654415.1
1653925.7
1653488.3
1653093.1
1652725
1652383.2
1652044.7
1651718.1
1651379.6
1651048.3
1650720.1
1650400.2
1650093.6
1649804.5
1649534.7
1649285
1649054.3
1648841.9
1648644.9
1648462.5
1648290.9
1648129.6
1647975.7
1647826.1
1647681.5
1647538
1647397.3
1647258.6
1647122.6
1646990.4
1646862.9
1646741.3
1646626.1
1646517.3
1646415
1646318.7
1646228.2
1646142.7
1646061.5
1645984.4
1645910.5
1645839.2
1645770.2
1645702.8
1645636.7
1645572
1645508.6
1645446.6
1645386.4
1645328.2
1645272.3
1645218.7
1645167.6
1645118.6
1645071.8
1645027
1644984
1644942.8
1644903.5
1644866.7
1644832.4
1644800.3
1644769.9
1644741.2
1644714.1
1644688.5
1644664.3
1644641.3
1644619.7
1644599.1
1644579.7
1644561.2
1644543.8
1644527.2
1644511.6
1644496.7
1644482.6
1644469.3
1644456.4
1644445.4
1644427.6
715.51303
711.08652
710.66702
710.7144
710.74069
710.74764
710.751
710.75461
710.75895
710.76403
710.76983
710.77637
710.78365
710.79172
710.80061
710.8104
710.82119
710.83329
710.847
710.86521
710.87755
711.03342
710.19331
5980.8112
1330204
1291507.9
1286418.6
1279565.7
1277256.6
1276103.3
1273946.4
1270363.4
1268291.8
1266974.8
1266065.9
1265290.5
1264333.3
1262766.2
1260785
1259095.8
1257666.8
1256511.2
1255581.3
1254817.3
1254162.5
1253561.6
1252950.2
1252227.2
1251210.6
1250041.4
1248818.2
1247591.3
1246431
1245374.3
1244431.9
1243601.3
1242867.9
1242217.7
1241635.6
1241098.4
1240603.4
1240111.5
1239634.1
1239118.3
1238606.7
1238087.3
1237570.7
1237068.4
1236590.2
1236141.7
1235726.1
1235342.7
1234991.1
1234666.7
1234368.4
1234089.7
1233829.5
1233582.6
1233342.9
1233111.7
1232879.7
1232650.9
1232422.8
1232196.6
1231974.4
1231758.6
1231551.4
1231354.4
1231168.4
1230993.7
1230829.6
1230675.9
1230531.5
1230394.9
1230265.7
1230142.5
1230023.7
1229909.1
1229796.7
1229686.4
1229577.7
1229470.4
1229364.9
1229261.8
1229161.8
1229065.4
1228972.9
1228884.5
1228800.1
1228719.6
1228642.8
1228569.3
1228499.2
1228432.5
1228370.2
1228312.2
1228257.8
1228206.4
1228157.8
1228111.7
1228067.9
1228026.5
1227987.1
1227949.8
1227914.4
1227880.8
1227849
1227818.8
1227790.2
1227763.2
1227737.5
1227713.3
1227690.3
1227668
1227649.2
1227618.6
712.53071
707.53035
707.05019
707.10282
707.13217
707.13965
707.14306
707.14673
707.1512
707.15646
707.16251
707.16933
707.17697
707.18545
707.19482
707.20519
707.21667
707.22964
707.24447
707.2646
707.27739
707.4578
706.47346
5708.0479
1004469.8
978673.74
975274.87
970710.99
969223.18
968398.35
966759.77
964497.94
963180.94
962337.71
961730.07
961159.56
960403.39
959278.99
958001.24
956916.25
956010.18
955277.81
954682.09
954180.77
953733.02
953297.36
952825.2
952252.96
951533.81
950737.88
949927.07
949133.71
948394.54
947725.77
947129.68
946602.49
946131.35
945706.2
945316.13
944939.4
944578.16
944184.7
943770.83
943226.78
942651.44
942014.24
941338.57
940651.59
939977.67
939333.8
938730.82
938172.1
937659.35
937187.74
936756.06
936355.17
935983.44
935632.29
935291.62
934962.88
934625.71
934289.42
933947.12
933600.31
933253.2
932910.98
932578.96
932261.16
931959.97
931676.92
931411.57
931163.74
930932.07
930714.16
930509.37
930314.95
930128.24
929948.48
929771.88
929597.72
929424.74
929252.44
929081.34
928912.56
928747.59
928587.72
928433.98
928286.93
928146.62
928013.17
927886.32
927765.49
927650.63
927541.97
927440.81
927346.86
927258.7
927175.23
927096.09
927020.76
926948.98
926880.58
926815.42
926753.38
926694.34
926638.2
926584.87
926534.27
926486.32
926440.95
926398.03
926357.39
926318.98
926281.77
926250.39
926199.55
709.07681
703.39721
702.845
702.90379
702.93671
702.9448
702.94825
702.95198
702.95658
702.96204
702.96834
702.97549
702.98352
702.99246
703.00239
703.0134
703.02567
703.03966
703.05576
703.07815
703.09135
703.30104
702.14408
5435.1166
764240.19
746813.69
744497.84
741434.28
740462.17
739859.62
738641.26
737200.17
736354.42
735805.28
735386.91
734957.73
734374.59
733583.95
732752.81
732051.3
731470.8
730999.68
730609.95
730271.57
729955.48
729632.35
729270.45
728837.79
728333.01
727793.02
727255.56
726740.03
726265.1
725836.76
725453.62
725112.28
724801.71
724515
724244.23
723971.57
723702.22
723398.68
723079.65
722689.78
722281.64
721844.64
721393.81
720944.39
720509.42
720096.85
719711.83
719354.22
719024.64
718717.72
718433.31
718162.35
717904.96
717652.3
717392.98
717129.63
716821.69
716492.04
716124.36
715721.18
715291.36
714846.9
714400.58
713963.05
713541.89
713142.36
712766.14
712414.4
712086.13
711778.41
711490.55
711218.38
710957.61
710706.95
710458.74
710211.64
709962.5
709709.68
709453.73
709196.81
708942.04
708692.49
708450.81
708218.74
707997.13
707786.6
707587.14
707398.01
707219.21
707050.96
706894.99
706750.58
706615.13
706486.54
706364.18
706247.02
706134.58
706026.65
705923.09
705823.84
705728.89
705638.19
705551.77
705469.58
705391.6
705317.78
705247.97
705181.93
705119.59
705059.28
705008.49
704926.42
705.10197
698.62184
697.98442
698.05036
698.08746
698.09624
698.09972
698.10348
698.10821
698.11389
698.12048
698.12798
698.13644
698.14589
698.15643
698.16818
698.18134
698.19648
698.21405
698.23907
698.25259
698.49704
697.13428
5161.7012
584896.74
572986.55
571374.21
569305.43
568661.63
568214.46
567324.46
566399
565850.9
565487.03
565191.36
564865.53
564426.01
563877.4
563333.42
562877.18
562501.5
562193.81
561933.39
561699.08
561470.79
561229.17
560955.9
560638.11
560286.47
559921.28
559564.87
559228.21
558920.44
558642.64
558392.25
558166.66
557956.78
557758.2
557565.35
557365.16
557163.61
556935.46
556696.98
556420.89
556135.57
555838.17
555537.93
555243.09
554960.5
554693.43
554444.25
554211.33
553995
553790.12
553597.25
553408.52
553224.89
553039.64
552844.22
552642.8
552414.66
552172.35
551909.77
551630.03
551339.26
551044.37
550752.47
550468.95
550197.22
549939.8
549696.45
549467.56
549251.71
549045.73
548849.44
548658.49
548468.28
548278.18
548074.77
547857.07
547618.72
547355.71
547068.75
546762.28
546443.3
546119.34
545797.36
545482.69
545178.8
544888.31
544612.47
544351.06
544104.6
543873.4
543659.62
543461.96
543276.2
543098.55
542928.15
542762.97
542602.17
542445.52
542293.09
542145.13
542002.01
541864.09
541731.72
541605.18
541484.68
541370.33
541262.07
541159.64
541063.01
540969.62
540891.1
540764.51
700.5545
693.13447
692.39666
692.47088
692.51282
692.52238
692.52586
692.52965
692.53451
692.5404
692.54729
692.55518
692.56411
692.57413
692.58534
692.59792
692.61209
692.62854
692.64778
692.67586
692.68954
692.97506
691.36788
4887.6417
449720.82
441493.66
440342.55
438938.62
438506.33
438170.98
437530.31
436931.84
436573.45
436328.06
436114.64
435867.31
435542.56
435165.34
434807.62
434509.17
434263.5
434059.39
433881.81
433716.13
433549
433368.58
433165.55
432936.76
432693.44
432447.05
432210.43
431989.37
431788.1
431605.54
431439.1
431287
431142.03
431001.68
430862.15
430714.71
430564.79
430396.72
430222.51
430028.97
429831.62
429630.25
429430.35
429236.13
429051.12
428876.27
428712.65
428558.19
428413.2
428273.28
428139.33
428005.22
427872.16
427735.71
427590.4
427439.97
427274.14
427100
426915.66
426723.65
426527.91
426332.27
426140.59
425955.45
425778.16
425609.87
425449.6
425297.42
425151.94
425010.34
424872.76
424735.76
424595.93
424453.3
424300.72
424138.02
423962.81
423774.21
423573.68
423364.4
423150.61
422936.41
422725.44
422520.21
422322.02
422131.98
421950.11
421775.46
421608
421447.03
421293.67
421147.08
421003.05
420856.47
420707.8
420553.85
420393.86
420228.3
420058.45
419886.03
419712.99
419541.18
419372.31
419207.82
419048.91
418896.46
418750.96
418612.51
418481.37
418354.32
418247.32
418074.77
695.38116
686.86132
686.00561
686.08936
686.13691
686.14734
686.1508
686.15458
686.15955
686.16567
686.17288
686.18118
686.19061
686.20126
686.21322
686.22671
686.24201
686.25994
686.28106
686.31268
686.32628
686.66014
684.76371
4612.9413
347063.64
341322.94
340475.41
339518.1
339223.53
338970.55
338514.88
338125.39
337888.88
337720.43
337564
337377.34
337141.35
336883.6
336647.41
336450.96
336288.56
336151.01
336027.68
335908.7
335785.64
335651.79
335503.23
335340.87
335173.43
335007.44
334850
334703.93
334570.98
334449.37
334336.88
334232.44
334130.56
334030.02
333928.35
333820.14
333709.71
333587.89
333462.81
333328.26
333192.78
333056.8
332923.5
332794.87
332672.67
332556.8
332447.74
332343.51
332244.48
332147.14
332052.5
331956.15
331859.25
331759.09
331652.51
331542.37
331423.7
331300.57
331172.69
331041.8
330910.34
330780.27
330653.67
330531.66
330414.53
330302.82
330195.35
330092.13
329991.99
329892.75
329794.69
329695.44
329592.84
329487.19
329374.87
329256.09
329130.18
328997.33
328858.88
328716.87
328573.79
328431.73
328292.52
328157.25
328026.16
327899.6
327777.16
327657.7
327541.02
327426.43
327314.83
327205.98
327097.61
326987.34
326875.74
326761.71
326645.35
326527.31
326408.47
326289.84
326172.44
326057.2
325944.9
325836.2
325731.58
325631.41
325535.82
325444.72
325358.1
325273.8
325202.41
325086.19
689.52808
679.72529
678.73152
678.8262
678.8802
678.89161
678.895
678.89874
678.90381
678.91014
678.91768
678.92642
678.9364
678.94772
678.9605
678.975
678.99156
679.01115
679.03438
679.07008
679.08325
679.47377
677.2363
4337.7773
268635.11
264590.27
263941.96
263285.43
263081.38
262890.03
262569.07
262313.98
262156.31
262038.68
261922.91
261783.24
261614.06
261438.69
261282.12
261151.91
261043.3
260949.18
260862.19
260775.92
260685.27
260586.86
260479.57
260365.58
260250.85
260139.05
260033.94
259936.71
259847.96
259765.83
259688.64
259615.82
259543.34
259470.79
259396.64
259317.74
259237.29
259150.12
259061.5
258968.53
258875.97
258784.21
258695.04
258609.28
258527.78
258450.02
258376.27
258304.84
258236.12
258167.51
258099.94
258030.43
257959.95
257886.99
257809.82
257730.45
257646.57
257560.52
257472.52
257383.63
257295.31
257208.49
257124.27
257043.04
256964.66
256889.38
256816.14
256744.94
256674.92
256604.52
256534.08
256462.08
256387.3
256310.11
256228.76
256143.58
256054.55
255962.11
255867.24
255771.16
255675.27
255580.57
255487.93
255397.71
255309.73
255224.01
255140.03
255056.81
254974.16
254891.66
254810.2
254729.93
254649.7
254568.48
254486.81
254404.39
254321.53
254238.72
254156.52
254075.44
253996.01
253918.62
253843.62
253771.24
253701.67
253635.02
253571.27
253510.28
253451.97
253394.85
253346.16
253266.05
682.94202
671.64692
670.49192
670.59909
670.6605
670.67298
670.67624
670.67989
670.68503
670.69158
670.69946
670.70865
670.71922
670.73126
670.74493
670.76054
670.77848
670.79993
670.82552
670.86588
670.87816
671.33479
668.69686
4062.5141
208431.42
205555.23
205035.94
204581.96
204437.88
204293.03
204068.58
203900.38
203794.05
203710.58
203624.46
203520.93
203400.96
203281.92
203177.67
203090.69
203017.17
202951.84
202889.75
202826.86
202760.32
202688.64
202612.01
202532.6
202454.21
202378.82
202308.33
202243.08
202183.17
202126.99
202073.33
202021.94
201969.98
201917.5
201863.58
201806.49
201748.49
201686.75
201624.58
201560.63
201497.55
201435.55
201375.63
201318.01
201263.09
201210.28
201159.74
201110.16
201061.9
201013.15
200964.67
200914.55
200863.54
200810.86
200755.6
200699.13
200640.39
200580.74
200520.47
200460.18
200400.72
200342.46
200285.96
200231.3
200178.2
200126.77
200076.19
200026.46
199976.99
199926.76
199876.07
199824.03
199770
199714.32
199656.18
199595.91
199533.66
199469.85
199405.11
199340.12
199275.64
199212.09
199149.85
199088.95
199029.08
198970.16
198911.72
198853.03
198793.97
198734.38
198675.13
198616.51
198558.01
198499.22
198440.54
198381.97
198323.77
198266.27
198209.77
198154.51
198100.73
198048.57
197998.15
197949.53
197902.74
197857.81
197814.67
197773.19
197733.28
197693.92
197660.14
197604.05
675.57204
662.54572
661.20293
661.32427
661.39415
661.40781
661.41088
661.41438
661.41955
661.42629
661.4345
661.44417
661.45535
661.46816
661.4828
661.49961
661.51909
661.5426
661.5708
661.61648
661.6272
662.16067
659.05453
3787.7158
162041.69
159980.35
159542.06
159224.04
159119.9
159010.17
158853.91
158742.08
158669.41
158609.31
158545.12
158469.07
158384.68
158303.92
158234.14
158175.51
158125.12
158079.2
158034.5
157988.58
157939.98
157888.23
157833.98
157778.95
157725.46
157674.5
157626.96
157582.79
157541.9
157503.01
157465.31
157428.74
157391.36
157353.42
157314.4
157273.41
157231.99
157188.6
157145.29
157101.41
157058.43
157016.43
156975.94
156936.9
156899.52
156863.26
156828.23
156793.48
156759.32
156724.54
156689.73
156653.71
156617.03
156579.31
156540.12
156500.33
156459.48
156418.34
156377.16
156336.23
156296.04
156256.69
156218.47
156181.31
156144.92
156109.4
156074.11
156039.08
156003.94
155968.05
155931.65
155894.26
155855.57
155815.84
155774.73
155732.51
155689.32
155645.48
155601.36
155557.31
155513.74
155470.77
155428.54
155386.97
155345.74
155304.78
155263.71
155222.03
155179.7
155136.74
155093.91
155051.56
155009.46
154967.47
154925.87
154884.73
154844.21
154804.52
154765.79
154728.12
154691.59
154656.24
154622.09
154589.12
154557.31
154526.66
154497.09
154468.51
154440.84
154413.39
154389.71
154350.08
667.3715
652.34187
650.78086
650.91819
650.99772
651.01266
651.01545
651.01872
651.02388
651.03079
651.03932
651.04947
651.06129
651.07493
651.09059
651.10872
651.12986
651.15566
651.18672
651.23842
651.24674
651.86912
648.21826
3514.1568
126186.97
124702.21
124311.57
124084.09
124006.56
123923.21
123814.51
123739.35
123688.88
123645
123597.14
123541.69
123482.64
123427.77
123380.74
123340.81
123305.85
123273.21
123240.83
123207.33
123172.02
123134.94
123096.79
123058.78
123022.26
122987.69
122955.4
122925.22
122897.02
122869.82
122843.12
122816.96
122790.04
122762.69
122734.61
122705.39
122676.02
122645.71
122615.67
122585.59
122556.27
122527.69
122500.15
122473.49
122447.81
122422.67
122398.17
122373.65
122349.37
122324.53
122299.57
122273.8
122247.6
122220.8
122193.21
122165.37
122137.09
122108.8
122080.67
122052.81
122025.52
121998.76
121972.68
121947.18
121922.02
121897.26
121872.47
121847.69
121822.69
121797.07
121771.06
121744.37
121716.88
121688.79
121659.96
121630.57
121600.75
121570.69
121540.6
121510.65
121481.03
121451.75
121422.84
121394.18
121365.53
121336.82
121307.79
121278.12
121247.81
121216.97
121186.25
121155.94
121125.97
121096.29
121067.07
121038.39
121010.33
120983
120956.46
120930.72
120905.8
120881.69
120858.38
120835.81
120813.98
120792.86
120772.39
120752.51
120733.18
120713.9
120697.2
120669.12
658.30049
640.95836
639.14433
639.2996
639.39006
639.40641
639.40881
639.41175
639.41682
639.42386
639.4327
639.44333
639.45581
639.47031
639.48708
639.50662
639.52957
639.55786
639.59204
639.65055
639.65537
640.38012
636.09907
3242.8275
98406.158
97337.617
96971.095
96802.91
96742.978
96679.201
96603.244
96551.934