/*--------------------------------*- C++ -*----------------------------------*\
| =========                 |                                                 |
| \\      /  F ield         | OpenFOAM: The Open Source CFD Toolbox           |
|  \\    /   O peration     | Version:  2206                                  |
|   \\  /    A nd           | Website:  www.openfoam.com                      |
|    \\/     M anipulation  |                                                 |
\*---------------------------------------------------------------------------*/
FoamFile
{
    version     2.0;
    format      ascii;
    arch        "LSB;label=32;scalar=64";
    class       volScalarField;
    location    "100";
    object      p;
}
// * * * * * * * * * * * * * * * * * * * * * * * * * * * * * * * * * * * * * //

dimensions      [0 2 -2 0 0 0 0];

internalField   nonuniform List<scalar> 
13056
(
0.0080888266
0.0081687181
0.0083396299
0.0085626895
0.0088342526
0.0091539216
0.0095211512
0.0099362499
0.010400935
0.010918444
0.011493619
0.012133215
0.012846432
0.01364607
0.014549601
0.01558339
0.016782138
0.018212249
0.019938878
0.022205549
0.02502073
0.029827568
0.034747472
0.072879659
0.042921188
-0.0070138083
-0.0063093096
-0.0036416341
-0.0026423109
-0.0018602114
-0.0012512678
-0.00081528219
-0.00048346454
-0.00022170341
-1.0784616e-05
0.0001639822
0.00031205574
0.00043928058
0.0005497011
0.000646489
0.00073220711
0.00080877378
0.00087767584
0.00094006558
0.00099683239
0.0010486918
0.0010962335
0.0011399404
0.0011802159
0.0012174097
0.0012518233
0.0012837125
0.0013132914
0.0013407435
0.0013662317
0.0013899002
0.0014118755
0.001432265
0.0014511611
0.0014686473
0.0014847988
0.0014996821
0.0015133568
0.0015258745
0.0015372792
0.0015476106
0.001556907
0.0015652034
0.0015725327
0.0015789204
0.0015843837
0.0015889382
0.0015925979
0.0015953757
0.0015972829
0.0015983303
0.0015985275
0.0015978799
0.0015963955
0.0015940742
0.0015909059
0.0015868887
0.0015820215
0.0015762979
0.0015697092
0.0015622461
0.0015538987
0.0015446567
0.0015345065
0.0015234233
0.001511381
0.0014983593
0.0014843337
0.0014692729
0.0014531431
0.0014359062
0.0014175255
0.0013979559
0.001377141
0.0013550297
0.0013315686
0.0013066884
0.001280304
0.0012523199
0.0012226384
0.0011911457
0.0011577108
0.0011221673
0.0010842993
0.0010438544
0.0010004927
0.0009537796
0.00090244049
0.00084843297
0.00079662898
0.00074801083
0.0007013322
0.00065596894
0.00061172041
0.00056845127
0.000526039
0.00048441642
0.0004435789
0.00040356859
0.00036445989
0.00032635839
0.00028941526
0.0002538276
0.00021987234
0.00018787453
0.00015860108
0.00013243102
0.00011349978
9.6241711e-05
0.00016507695
-0.00013323903
0.0080888266
0.0081687182
0.0083396299
0.0085626896
0.0088342527
0.0091539217
0.0095211513
0.0099362501
0.010400935
0.010918444
0.01149362
0.012133216
0.012846433
0.013646071
0.014549602
0.015583392
0.016782141
0.018212255
0.019938886
0.022205563
0.025020749
0.029827611
0.034747498
0.072874346
0.042930232
-0.0070067921
-0.0063081325
-0.0036411523
-0.0026420436
-0.0018600277
-0.0012511314
-0.00081517659
-0.00048338027
-0.00022163461
-1.072738e-05
0.00016403057
0.00031209713
0.00043931638
0.00054973235
0.00064651649
0.00073223147
0.00080879549
0.00087769531
0.00094008312
0.00099684826
0.0010487063
0.0010962467
0.0011399525
0.001180227
0.0012174199
0.0012518327
0.0012837213
0.0013132995
0.001340751
0.0013662387
0.0013899068
0.0014118816
0.0014322707
0.0014511665
0.0014686524
0.0014848036
0.0014996866
0.001513361
0.0015258786
0.001537283
0.0015476142
0.0015569104
0.0015652066
0.0015725358
0.0015789233
0.0015843865
0.0015889409
0.0015926005
0.0015953781
0.0015972852
0.0015983325
0.0015985296
0.001597882
0.0015963974
0.0015940761
0.0015909077
0.0015868903
0.0015820231
0.0015762994
0.0015697106
0.0015622475
0.0015539
0.0015446579
0.0015345077
0.0015234245
0.0015113821
0.0014983604
0.0014843347
0.0014692739
0.001453144
0.0014359071
0.0014175263
0.0013979567
0.0013771417
0.0013550304
0.0013315693
0.001306689
0.0012803046
0.0012523205
0.0012226389
0.0011911462
0.0011577113
0.0011221678
0.0010842997
0.0010438548
0.001000493
0.00095377994
0.00090244079
0.00084843324
0.00079662921
0.00074801103
0.00070133238
0.0006559691
0.00061172055
0.00056845141
0.00052603912
0.00048441654
0.000443579
0.00040356869
0.00036445998
0.00032635848
0.00028941534
0.00025382767
0.00021987241
0.0001878746
0.00015860114
0.00013243108
0.00011349984
9.624177e-05
0.00016507701
-0.00013323899
0.0080888266
0.0081687182
0.00833963
0.0085626897
0.0088342528
0.0091539218
0.0095211515
0.0099362503
0.010400936
0.010918445
0.01149362
0.012133217
0.012846434
0.013646073
0.014549604
0.015583395
0.016782145
0.018212261
0.019938895
0.022205579
0.025020771
0.029827657
0.034747512
0.072868966
0.042939928
-0.0069987616
-0.0063067681
-0.0036405994
-0.0026417374
-0.0018598177
-0.0012509755
-0.00081505604
-0.00048328418
-0.00022155626
-1.0662286e-05
0.00016408552
0.00031214411
0.00043935697
0.00054976775
0.00064654761
0.00073225902
0.00080882004
0.0008777173
0.00094010292
0.00099686618
0.0010487225
0.0010962615
0.0011399661
0.0011802394
0.0012174314
0.0012518433
0.0012837311
0.0013133086
0.0013407595
0.0013662466
0.0013899142
0.0014118885
0.0014322772
0.0014511725
0.0014686581
0.0014848089
0.0014996917
0.0015133658
0.0015258831
0.0015372873
0.0015476183
0.0015569143
0.0015652103
0.0015725393
0.0015789267
0.0015843897
0.0015889439
0.0015926033
0.0015953808
0.0015972878
0.0015983349
0.001598532
0.0015978842
0.0015963996
0.0015940781
0.0015909097
0.0015868922
0.0015820249
0.0015763012
0.0015697123
0.0015622491
0.0015539015
0.0015446594
0.0015345091
0.0015234258
0.0015113833
0.0014983616
0.0014843358
0.001469275
0.0014531451
0.0014359081
0.0014175272
0.0013979576
0.0013771426
0.0013550312
0.00133157
0.0013066897
0.0012803053
0.0012523211
0.0012226395
0.0011911468
0.0011577118
0.0011221683
0.0010843002
0.0010438553
0.0010004935
0.00095378032
0.00090244114
0.00084843353
0.00079662946
0.00074801126
0.00070133258
0.00065596928
0.00061172072
0.00056845156
0.00052603926
0.00048441666
0.00044357911
0.00040356879
0.00036446008
0.00032635857
0.00028941543
0.00025382775
0.00021987249
0.00018787467
0.00015860121
0.00013243114
0.00011349991
9.6241834e-05
0.00016507707
-0.00013323894
0.0080888266
0.0081687182
0.0083396301
0.0085626897
0.0088342529
0.0091539219
0.0095211517
0.0099362506
0.010400936
0.010918445
0.011493621
0.012133217
0.012846435
0.013646074
0.014549606
0.015583398
0.016782149
0.018212267
0.019938904
0.022205594
0.025020792
0.029827703
0.034747524
0.072863789
0.042951934
-0.0069916598
-0.0063053935
-0.0036400367
-0.002641425
-0.0018596033
-0.0012508161
-0.00081493272
-0.00048318576
-0.00022147593
-1.0595459e-05
0.00016414198
0.00031219243
0.00043939876
0.00054980422
0.00064657969
0.00073228745
0.00080884538
0.00087774002
0.00094012339
0.00099688471
0.0010487394
0.0010962769
0.0011399801
0.0011802523
0.0012174433
0.0012518543
0.0012837412
0.0013133181
0.0013407683
0.0013662548
0.0013899218
0.0014118957
0.0014322839
0.0014511788
0.001468664
0.0014848145
0.001499697
0.0015133708
0.0015258878
0.0015372917
0.0015476225
0.0015569183
0.0015652141
0.0015725429
0.0015789301
0.0015843929
0.001588947
0.0015926063
0.0015953836
0.0015972905
0.0015983375
0.0015985345
0.0015978866
0.0015964018
0.0015940803
0.0015909117
0.0015868942
0.0015820268
0.001576303
0.001569714
0.0015622507
0.0015539031
0.0015446609
0.0015345105
0.0015234272
0.0015113847
0.0014983628
0.001484337
0.0014692761
0.0014531461
0.0014359091
0.0014175282
0.0013979585
0.0013771434
0.001355032
0.0013315708
0.0013066905
0.001280306
0.0012523218
0.0012226402
0.0011911474
0.0011577124
0.0011221688
0.0010843006
0.0010438557
0.0010004939
0.00095378072
0.0009024415
0.00084843384
0.00079662973
0.00074801149
0.00070133279
0.00065596947
0.00061172089
0.00056845171
0.0005260394
0.00048441679
0.00044357924
0.00040356891
0.00036446019
0.00032635867
0.00028941552
0.00025382784
0.00021987257
0.00018787475
0.00015860129
0.00013243121
0.00011349998
9.6241899e-05
0.00016507715
-0.0001332389
0.0080888266
0.0081687183
0.0083396301
0.0085626898
0.008834253
0.0091539221
0.0095211519
0.0099362508
0.010400936
0.010918446
0.011493621
0.012133218
0.012846437
0.013646076
0.014549608
0.015583401
0.016782153
0.018212273
0.019938913
0.022205611
0.025020815
0.02982775
0.034747538
0.072858231
0.042967448
-0.0069858359
-0.0063039755
-0.0036394542
-0.0026411014
-0.001859381
-0.0012506509
-0.00081480481
-0.00048308366
-0.00022139254
-1.0526072e-05
0.00016420063
0.00031224264
0.0004394422
0.00054984214
0.00064661306
0.00073231702
0.00080887175
0.00087776366
0.0009401447
0.00099690399
0.0010487569
0.0010962929
0.0011399948
0.0011802658
0.0012174557
0.0012518657
0.0012837518
0.0013133279
0.0013407774
0.0013662633
0.0013899298
0.0014119032
0.0014322909
0.0014511854
0.0014686702
0.0014848203
0.0014997025
0.001513376
0.0015258927
0.0015372964
0.0015476269
0.0015569224
0.0015652181
0.0015725466
0.0015789337
0.0015843963
0.0015889502
0.0015926094
0.0015953866
0.0015972933
0.0015983402
0.001598537
0.001597889
0.0015964041
0.0015940825
0.0015909138
0.0015868962
0.0015820287
0.0015763048
0.0015697158
0.0015622524
0.0015539047
0.0015446624
0.001534512
0.0015234286
0.001511386
0.0014983641
0.0014843382
0.0014692773
0.0014531473
0.0014359101
0.0014175292
0.0013979595
0.0013771444
0.0013550329
0.0013315716
0.0013066912
0.0012803067
0.0012523225
0.0012226408
0.001191148
0.001157713
0.0011221693
0.0010843012
0.0010438562
0.0010004943
0.00095378113
0.00090244187
0.00084843417
0.00079663001
0.00074801174
0.00070133301
0.00065596966
0.00061172107
0.00056845188
0.00052603955
0.00048441693
0.00044357937
0.00040356903
0.0003644603
0.00032635877
0.00028941562
0.00025382793
0.00021987266
0.00018787483
0.00015860136
0.00013243128
0.00011350005
9.6241968e-05
0.00016507722
-0.00013323885
0.0080888266
0.0081687184
0.0083396302
0.0085626899
0.0088342531
0.0091539223
0.0095211521
0.0099362511
0.010400937
0.010918446
0.011493622
0.012133219
0.012846438
0.013646077
0.014549611
0.015583404
0.016782158
0.01821228
0.019938923
0.022205629
0.02502084
0.029827802
0.034747556
0.072852032
0.04298399
-0.0069813425
-0.0063024703
-0.0036388354
-0.0026407573
-0.0018591446
-0.0012504753
-0.00081466883
-0.0004829751
-0.00022130388
-1.0452287e-05
0.00016426301
0.00031229604
0.0004394884
0.00054988248
0.00064664856
0.00073234848
0.00080889981
0.00087778882
0.00094016738
0.00099692452
0.0010487756
0.0010963099
0.0011400104
0.0011802801
0.0012174689
0.0012518779
0.0012837631
0.0013133384
0.0013407872
0.0013662724
0.0013899383
0.0014119111
0.0014322983
0.0014511924
0.0014686768
0.0014848265
0.0014997083
0.0015133815
0.0015258979
0.0015373013
0.0015476316
0.0015569269
0.0015652223
0.0015725506
0.0015789375
0.0015844
0.0015889537
0.0015926127
0.0015953897
0.0015972963
0.001598343
0.0015985397
0.0015978916
0.0015964066
0.0015940849
0.0015909161
0.0015868984
0.0015820308
0.0015763068
0.0015697177
0.0015622542
0.0015539064
0.0015446641
0.0015345136
0.0015234301
0.0015113874
0.0014983655
0.0014843395
0.0014692785
0.0014531485
0.0014359113
0.0014175303
0.0013979605
0.0013771453
0.0013550338
0.0013315725
0.0013066921
0.0012803075
0.0012523232
0.0012226415
0.0011911486
0.0011577136
0.0011221699
0.0010843017
0.0010438567
0.0010004948
0.00095378157
0.00090244227
0.00084843451
0.00079663031
0.000748012
0.00070133324
0.00065596988
0.00061172126
0.00056845205
0.00052603971
0.00048441708
0.0004435795
0.00040356915
0.00036446042
0.00032635888
0.00028941572
0.00025382803
0.00021987275
0.00018787492
0.00015860144
0.00013243136
0.00011350013
9.6242042e-05
0.0001650773
-0.0001332388
0.0080888266
0.0081687184
0.0083396303
0.00856269
0.0088342532
0.0091539224
0.0095211524
0.0099362514
0.010400937
0.010918447
0.011493623
0.01213322
0.012846439
0.013646079
0.014549613
0.015583408
0.016782163
0.018212288
0.019938934
0.02220565
0.025020868
0.029827859
0.034747576
0.072845082
0.043001027
-0.0069773649
-0.0063008463
-0.0036381667
-0.0026403851
-0.0018588891
-0.0012502854
-0.00081452176
-0.00048285767
-0.00022120797
-1.0372452e-05
0.00016433051
0.00031235384
0.00043953842
0.00054992615
0.000646687
0.00073238255
0.00080893019
0.00087781608
0.00094019194
0.00099694677
0.0010487958
0.0010963284
0.0011400273
0.0011802956
0.0012174832
0.0012518911
0.0012837754
0.0013133498
0.0013407978
0.0013662823
0.0013899475
0.0014119197
0.0014323064
0.0014512
0.0014686839
0.0014848333
0.0014997146
0.0015133875
0.0015259036
0.0015373067
0.0015476367
0.0015569317
0.0015652268
0.001572555
0.0015789416
0.0015844039
0.0015889574
0.0015926162
0.0015953931
0.0015972995
0.0015983461
0.0015985427
0.0015978944
0.0015964093
0.0015940875
0.0015909186
0.0015869008
0.001582033
0.0015763089
0.0015697197
0.0015622562
0.0015539083
0.0015446659
0.0015345153
0.0015234317
0.001511389
0.001498367
0.001484341
0.0014692799
0.0014531497
0.0014359125
0.0014175315
0.0013979616
0.0013771464
0.0013550348
0.0013315735
0.001306693
0.0012803083
0.001252324
0.0012226423
0.0011911493
0.0011577143
0.0011221706
0.0010843023
0.0010438573
0.0010004953
0.00095378204
0.0009024427
0.00084843488
0.00079663063
0.00074801228
0.0007013335
0.0006559701
0.00061172147
0.00056845224
0.00052603989
0.00048441724
0.00044357965
0.00040356929
0.00036446054
0.000326359
0.00028941583
0.00025382813
0.00021987285
0.00018787501
0.00015860153
0.00013243145
0.00011350022
9.6242122e-05
0.00016507739
-0.00013323875
0.0080888266
0.0081687185
0.0083396304
0.0085626901
0.0088342534
0.0091539226
0.0095211526
0.0099362518
0.010400938
0.010918447
0.011493624
0.012133221
0.012846441
0.013646082
0.014549616
0.015583412
0.016782169
0.018212297
0.019938947
0.022205673
0.025020899
0.029827925
0.034747601
0.072837238
0.043018995
-0.0069729085
-0.0062990758
-0.0036374357
-0.0026399779
-0.0018586094
-0.0012500776
-0.00081436075
-0.00048272907
-0.0002211029
-1.0284973e-05
0.00016440449
0.0003124172
0.00043959326
0.00054997405
0.00064672917
0.00073241993
0.00080896354
0.00087784599
0.00094021891
0.00099697119
0.001048818
0.0010963487
0.0011400458
0.0011803127
0.0012174989
0.0012519057
0.0012837888
0.0013133623
0.0013408094
0.0013662931
0.0013899576
0.0014119292
0.0014323153
0.0014512083
0.0014686917
0.0014848406
0.0014997216
0.0015133941
0.0015259098
0.0015373125
0.0015476422
0.001556937
0.0015652319
0.0015725597
0.0015789461
0.0015844082
0.0015889615
0.0015926201
0.0015953969
0.0015973031
0.0015983495
0.0015985459
0.0015978975
0.0015964123
0.0015940903
0.0015909213
0.0015869033
0.0015820355
0.0015763113
0.001569722
0.0015622584
0.0015539104
0.0015446679
0.0015345172
0.0015234335
0.0015113907
0.0014983686
0.0014843425
0.0014692814
0.0014531512
0.0014359139
0.0014175328
0.0013979628
0.0013771476
0.0013550359
0.0013315745
0.001306694
0.0012803093
0.0012523249
0.0012226431
0.0011911501
0.001157715
0.0011221712
0.0010843029
0.0010438579
0.0010004959
0.00095378257
0.00090244317
0.0008484353
0.00079663099
0.0007480126
0.00070133378
0.00065597036
0.0006117217
0.00056845245
0.00052604008
0.00048441742
0.00044357982
0.00040356945
0.00036446069
0.00032635914
0.00028941596
0.00025382825
0.00021987296
0.00018787512
0.00015860163
0.00013243154
0.00011350031
9.6242211e-05
0.00016507749
-0.00013323869
0.0080888266
0.0081687186
0.0083396305
0.0085626903
0.0088342536
0.0091539229
0.009521153
0.0099362522
0.010400938
0.010918448
0.011493625
0.012133223
0.012846443
0.013646084
0.01454962
0.015583417
0.016782176
0.018212307
0.019938962
0.0222057
0.025020936
0.029828
0.034747631
0.072828313
0.043038307
-0.0069673758
-0.0062971281
-0.0036366287
-0.0026395278
-0.0018583002
-0.0012498477
-0.00081418263
-0.00048258677
-0.00022098659
-1.0188092e-05
0.00016448645
0.00031248742
0.00043965406
0.00055002717
0.00064677594
0.00073246141
0.00080900056
0.0008778792
0.00094024885
0.00099699831
0.0010488427
0.0010963712
0.0011400664
0.0011803316
0.0012175164
0.0012519218
0.0012838038
0.0013133761
0.0013408223
0.0013663052
0.0013899689
0.0014119397
0.0014323252
0.0014512176
0.0014687004
0.0014848489
0.0014997294
0.0015134014
0.0015259167
0.0015373191
0.0015476484
0.0015569429
0.0015652374
0.001572565
0.0015789512
0.001584413
0.0015889661
0.0015926245
0.001595401
0.001597307
0.0015983533
0.0015985495
0.001597901
0.0015964156
0.0015940934
0.0015909243
0.0015869062
0.0015820382
0.0015763139
0.0015697245
0.0015622608
0.0015539127
0.00154467
0.0015345193
0.0015234355
0.0015113926
0.0014983704
0.0014843443
0.001469283
0.0014531527
0.0014359154
0.0014175342
0.0013979642
0.0013771488
0.0013550371
0.0013315757
0.0013066951
0.0012803103
0.0012523259
0.001222644
0.001191151
0.0011577158
0.001122172
0.0010843037
0.0010438585
0.0010004965
0.00095378315
0.0009024437
0.00084843576
0.00079663139
0.00074801295
0.00070133409
0.00065597064
0.00061172196
0.00056845269
0.0005260403
0.00048441762
0.00044358001
0.00040356962
0.00036446085
0.00032635929
0.0002894161
0.00025382839
0.00021987308
0.00018787523
0.00015860175
0.00013243165
0.00011350042
9.6242311e-05
0.0001650776
-0.00013323862
0.0080888266
0.0081687187
0.0083396306
0.0085626905
0.0088342538
0.0091539232
0.0095211533
0.0099362527
0.010400939
0.010918449
0.011493626
0.012133224
0.012846445
0.013646087
0.014549624
0.015583423
0.016782184
0.018212319
0.019938979
0.022205731
0.025020979
0.029828088
0.034747666
0.072818085
0.043059187
-0.0069603913
-0.0062949682
-0.0036357301
-0.0026390258
-0.0018579552
-0.0012495912
-0.00081398382
-0.00048242785
-0.00022085663
-1.0079796e-05
0.00016457811
0.00031256599
0.00043972211
0.00055008664
0.00064682834
0.00073250789
0.00080904204
0.00087791643
0.00094028244
0.00099702873
0.0010488703
0.0010963964
0.0011400896
0.0011803529
0.001217536
0.0012519399
0.0012838206
0.0013133917
0.0013408368
0.0013663187
0.0013899815
0.0014119516
0.0014323363
0.001451228
0.0014687103
0.0014848581
0.0014997381
0.0015134096
0.0015259245
0.0015373264
0.0015476554
0.0015569495
0.0015652437
0.001572571
0.0015789568
0.0015844184
0.0015889712
0.0015926294
0.0015954057
0.0015973115
0.0015983576
0.0015985536
0.0015979048
0.0015964193
0.001594097
0.0015909277
0.0015869094
0.0015820413
0.0015763169
0.0015697273
0.0015622635
0.0015539152
0.0015446725
0.0015345216
0.0015234378
0.0015113948
0.0014983725
0.0014843462
0.0014692849
0.0014531545
0.001435917
0.0014175358
0.0013979657
0.0013771503
0.0013550385
0.001331577
0.0013066963
0.0012803115
0.001252327
0.0012226451
0.001191152
0.0011577167
0.0011221729
0.0010843045
0.0010438593
0.0010004972
0.00095378381
0.0009024443
0.00084843628
0.00079663184
0.00074801335
0.00070133445
0.00065597097
0.00061172225
0.00056845296
0.00052604055
0.00048441785
0.00044358022
0.00040356982
0.00036446103
0.00032635946
0.00028941626
0.00025382854
0.00021987323
0.00018787537
0.00015860188
0.00013243177
0.00011350054
9.6242425e-05
0.00016507773
-0.00013323854
0.0080888266
0.0081687188
0.0083396308
0.0085626907
0.0088342541
0.0091539235
0.0095211538
0.0099362533
0.01040094
0.01091845
0.011493627
0.012133226
0.012846447
0.01364609
0.014549629
0.015583429
0.016782194
0.018212334
0.019938999
0.022205767
0.025021028
0.029828191
0.03474771
0.07280629
0.043081792
-0.006951861
-0.0062925566
-0.0036347219
-0.0026384617
-0.0018575675
-0.0012493028
-0.00081376017
-0.00048224898
-0.00022071027
-9.9577723e-06
0.00016468144
0.0003126546
0.0004397989
0.00055015378
0.00064688751
0.0007325604
0.00080908892
0.00087795853
0.00094032041
0.00099706315
0.0010489017
0.001096425
0.0011401158
0.001180377
0.0012175582
0.0012519604
0.0012838396
0.0013134094
0.0013408533
0.001366334
0.0013899959
0.001411965
0.0014323489
0.0014512398
0.0014687214
0.0014848686
0.0014997479
0.0015134189
0.0015259333
0.0015373348
0.0015476633
0.001556957
0.0015652508
0.0015725778
0.0015789633
0.0015844245
0.001588977
0.0015926349
0.0015954109
0.0015973165
0.0015983624
0.0015985582
0.0015979092
0.0015964234
0.001594101
0.0015909315
0.0015869131
0.0015820448
0.0015763202
0.0015697305
0.0015622665
0.0015539181
0.0015446753
0.0015345243
0.0015234403
0.0015113972
0.0014983748
0.0014843484
0.001469287
0.0014531565
0.0014359189
0.0014175376
0.0013979674
0.0013771519
0.0013550401
0.0013315784
0.0013066977
0.0012803128
0.0012523282
0.0012226462
0.0011911531
0.0011577178
0.0011221738
0.0010843054
0.0010438601
0.001000498
0.00095378455
0.00090244497
0.00084843686
0.00079663235
0.00074801381
0.00070133486
0.00065597134
0.00061172259
0.00056845327
0.00052604083
0.00048441811
0.00044358046
0.00040357004
0.00036446124
0.00032635966
0.00028941645
0.00025382871
0.00021987339
0.00018787552
0.00015860202
0.00013243191
0.00011350068
9.6242557e-05
0.00016507788
-0.00013323845
0.0080888266
0.0081687189
0.008339631
0.0085626909
0.0088342544
0.0091539239
0.0095211543
0.009936254
0.010400941
0.010918451
0.011493629
0.012133229
0.01284645
0.013646095
0.014549634
0.015583437
0.016782205
0.01821235
0.019939023
0.022205809
0.025021086
0.029828312
0.034747763
0.072792617
0.043106292
-0.0069419336
-0.0062898486
-0.003633584
-0.0026378238
-0.0018571288
-0.0012489764
-0.00081350697
-0.00048204637
-0.00022054438
-9.8193783e-06
0.0001647987
0.00031275521
0.00043988613
0.00055023009
0.00064695478
0.00073262012
0.00080914227
0.00087800644
0.00094036366
0.00099710235
0.0010489373
0.0010964576
0.0011401457
0.0011804045
0.0012175835
0.0012519839
0.0012838613
0.0013134296
0.001340872
0.0013663515
0.0013900122
0.0014119803
0.0014323632
0.0014512533
0.0014687341
0.0014848805
0.0014997592
0.0015134296
0.0015259434
0.0015373443
0.0015476723
0.0015569655
0.001565259
0.0015725855
0.0015789706
0.0015844315
0.0015889837
0.0015926412
0.001595417
0.0015973223
0.0015983678
0.0015985634
0.0015979142
0.0015964282
0.0015941055
0.0015909358
0.0015869172
0.0015820488
0.001576324
0.0015697341
0.00156227
0.0015539215
0.0015446784
0.0015345273
0.0015234432
0.0015113999
0.0014983774
0.0014843509
0.0014692894
0.0014531588
0.0014359211
0.0014175397
0.0013979694
0.0013771538
0.0013550418
0.0013315801
0.0013066993
0.0012803143
0.0012523296
0.0012226476
0.0011911543
0.001157719
0.001122175
0.0010843064
0.0010438611
0.0010004989
0.0009537854
0.00090244574
0.00084843754
0.00079663294
0.00074801433
0.00070133533
0.00065597176
0.00061172298
0.00056845362
0.00052604116
0.00048441842
0.00044358074
0.00040357031
0.00036446149
0.00032635989
0.00028941666
0.00025382891
0.00021987358
0.0001878757
0.0001586022
0.00013243207
0.00011350085
9.624271e-05
0.00016507805
-0.00013323835
0.0080888267
0.0081687191
0.0083396312
0.0085626912
0.0088342547
0.0091539244
0.0095211549
0.0099362548
0.010400942
0.010918453
0.011493631
0.012133231
0.012846454
0.013646099
0.014549641
0.015583446
0.016782217
0.018212369
0.01993905
0.022205858
0.025021153
0.029828453
0.034747828
0.072776691
0.043132852
-0.0069307243
-0.0062867942
-0.0036322933
-0.0026370988
-0.00185663
-0.0012486052
-0.00081321884
-0.00048181566
-0.00022035537
-9.6615941e-06
0.00016493247
0.00031287005
0.00043998574
0.00055031727
0.00064703169
0.00073268843
0.00080920331
0.00087806128
0.00094041317
0.00099714726
0.0010489782
0.001096495
0.0011401799
0.001180436
0.0012176126
0.0012520107
0.0012838862
0.0013134527
0.0013408936
0.0013663716
0.001390031
0.0014119979
0.0014323797
0.0014512688
0.0014687486
0.0014848942
0.0014997722
0.0015134418
0.0015259549
0.0015373552
0.0015476827
0.0015569753
0.0015652683
0.0015725943
0.001578979
0.0015844395
0.0015889913
0.0015926485
0.0015954239
0.0015973289
0.0015983741
0.0015985694
0.00159792
0.0015964337
0.0015941107
0.0015909408
0.001586922
0.0015820533
0.0015763284
0.0015697383
0.0015622739
0.0015539253
0.0015446821
0.0015345308
0.0015234465
0.0015114031
0.0014983804
0.0014843538
0.0014692921
0.0014531614
0.0014359236
0.001417542
0.0013979717
0.0013771559
0.0013550439
0.001331582
0.0013067011
0.001280316
0.0012523313
0.0012226491
0.0011911558
0.0011577203
0.0011221762
0.0010843076
0.0010438622
0.0010005
0.00095378637
0.00090244663
0.00084843832
0.00079663363
0.00074801494
0.00070133587
0.00065597226
0.00061172343
0.00056845404
0.00052604155
0.00048441877
0.00044358107
0.00040357061
0.00036446178
0.00032636015
0.00028941691
0.00025382915
0.0002198738
0.00018787592
0.0001586024
0.00013243227
0.00011350104
9.6242889e-05
0.00016507825
-0.00013323822
0.0080888267
0.0081687192
0.0083396314
0.0085626915
0.0088342552
0.0091539249
0.0095211557
0.0099362558
0.010400943
0.010918454
0.011493633
0.012133234
0.012846458
0.013646105
0.014549649
0.015583457
0.016782232
0.018212392
0.019939082
0.022205915
0.025021231
0.029828617
0.034747906
0.072758066
0.043161612
-0.0069181751
-0.0062833365
-0.0036308235
-0.0026362717
-0.0018560606
-0.0012481813
-0.00081288966
-0.00048155191
-0.00022013915
-9.4809689e-06
0.0001650857
0.00031300168
0.00044009998
0.00055041731
0.00064711997
0.00073276688
0.00080927344
0.00087812432
0.00094047011
0.00099719891
0.0010490253
0.001096538
0.0011402194
0.0011804723
0.001217646
0.0012520417
0.0012839149
0.0013134794
0.0013409184
0.0013663948
0.0013900527
0.0014120182
0.0014323988
0.0014512867
0.0014687655
0.0014849101
0.0014997871
0.0015134559
0.0015259683
0.0015373679
0.0015476947
0.0015569867
0.001565279
0.0015726046
0.0015789887
0.0015844487
0.0015890001
0.0015926569
0.0015954319
0.0015973365
0.0015983814
0.0015985764
0.0015979266
0.00159644
0.0015941168
0.0015909466
0.0015869275
0.0015820586
0.0015763334
0.0015697431
0.0015622785
0.0015539296
0.0015446863
0.0015345348
0.0015234503
0.0015114068
0.0014983839
0.0014843571
0.0014692953
0.0014531644
0.0014359265
0.0014175448
0.0013979742
0.0013771584
0.0013550462
0.0013315843
0.0013067032
0.001280318
0.0012523332
0.0012226509
0.0011911575
0.0011577219
0.0011221777
0.001084309
0.0010438635
0.0010005012
0.00095378749
0.00090244765
0.00084843922
0.00079663442
0.00074801564
0.00070133651
0.00065597283
0.00061172396
0.00056845453
0.00052604199
0.00048441919
0.00044358146
0.00040357097
0.00036446211
0.00032636047
0.00028941721
0.00025382943
0.00021987407
0.00018787616
0.00015860263
0.00013243249
0.00011350127
9.62431e-05
0.00016507849
-0.00013323808
0.0080888267
0.0081687195
0.0083396317
0.0085626919
0.0088342557
0.0091539256
0.0095211565
0.0099362569
0.010400945
0.010918456
0.011493636
0.012133238
0.012846463
0.013646111
0.014549657
0.015583469
0.01678225
0.018212418
0.019939119
0.02220598
0.025021321
0.029828806
0.034748003
0.072736202
0.043192663
-0.0069040835
-0.0062794112
-0.003629145
-0.0026353249
-0.0018554086
-0.0012476958
-0.00081251243
-0.00048124946
-0.00021989102
-9.2735575e-06
0.00016526177
0.00031315301
0.0004402314
0.00055053245
0.00064722163
0.00073285725
0.00080935428
0.00087819701
0.00094053579
0.00099725851
0.0010490796
0.0010965877
0.0011402649
0.0011805142
0.0012176847
0.0012520775
0.0012839481
0.0013135102
0.0013409471
0.0013664216
0.0013900777
0.0014120417
0.0014324208
0.0014513074
0.0014687849
0.0014849284
0.0014998044
0.0015134722
0.0015259837
0.0015373825
0.0015477085
0.0015569998
0.0015652915
0.0015726164
0.001579
0.0015844594
0.0015890103
0.0015926666
0.0015954411
0.0015973453
0.0015983898
0.0015985844
0.0015979342
0.0015964473
0.0015941237
0.0015909532
0.0015869339
0.0015820647
0.0015763392
0.0015697486
0.0015622838
0.0015539347
0.0015446911
0.0015345394
0.0015234547
0.001511411
0.0014983879
0.0014843609
0.0014692989
0.0014531679
0.0014359298
0.0014175479
0.0013979772
0.0013771612
0.0013550489
0.0013315868
0.0013067056
0.0012803203
0.0012523353
0.0012226529
0.0011911594
0.0011577237
0.0011221794
0.0010843106
0.001043865
0.0010005026
0.00095378879
0.00090244884
0.00084844027
0.00079663534
0.00074801647
0.00070133726
0.00065597351
0.00061172458
0.00056845509
0.00052604252
0.00048441968
0.00044358191
0.0004035714
0.00036446251
0.00032636084
0.00028941756
0.00025382975
0.00021987438
0.00018787646
0.00015860291
0.00013243276
0.00011350154
9.6243349e-05
0.00016507877
-0.00013323791
0.0080888267
0.0081687197
0.0083396321
0.0085626923
0.0088342562
0.0091539264
0.0095211575
0.0099362583
0.010400946
0.010918459
0.011493639
0.012133242
0.012846468
0.013646119
0.014549668
0.015583484
0.01678227
0.018212448
0.019939161
0.022206055
0.025021424
0.029829025
0.03474812
0.072710455
0.043226032
-0.0068881582
-0.0062749456
-0.0036272237
-0.0026342388
-0.0018546604
-0.0012471385
-0.00081207914
-0.00048090185
-0.00021960564
-9.0348467e-06
0.00016546453
0.00031332739
0.00044038292
0.00055066527
0.00064733896
0.00073296162
0.00080944766
0.00087828102
0.00094061173
0.00099732745
0.0010491424
0.0010966451
0.0011403177
0.0011805627
0.0012177295
0.0012521189
0.0012839865
0.001313546
0.0013409804
0.0013664527
0.0013901068
0.0014120689
0.0014324463
0.0014513314
0.0014688075
0.0014849497
0.0014998245
0.0015134912
0.0015260016
0.0015373994
0.0015477245
0.001557015
0.0015653059
0.0015726301
0.001579013
0.0015844718
0.0015890221
0.0015926778
0.0015954518
0.0015973555
0.0015983995
0.0015985936
0.0015979431
0.0015964557
0.0015941318
0.0015909609
0.0015869412
0.0015820717
0.0015763459
0.001569755
0.00156229
0.0015539406
0.0015446967
0.0015345447
0.0015234598
0.0015114158
0.0014983926
0.0014843654
0.0014693032
0.0014531719
0.0014359336
0.0014175516
0.0013979807
0.0013771645
0.001355052
0.0013315898
0.0013067084
0.001280323
0.0012523378
0.0012226553
0.0011911616
0.0011577258
0.0011221814
0.0010843125
0.0010438668
0.0010005042
0.0009537903
0.00090245022
0.00084844149
0.00079663643
0.00074801744
0.00070133813
0.0006559743
0.0006117253
0.00056845576
0.00052604314
0.00048442025
0.00044358244
0.00040357189
0.00036446297
0.00032636128
0.00028941797
0.00025383014
0.00021987474
0.0001878768
0.00015860324
0.00013243307
0.00011350185
9.6243643e-05
0.0001650791
-0.0001332377
0.0080888267
0.00816872
0.0083396325
0.0085626928
0.0088342569
0.0091539273
0.0095211587
0.0099362598
0.010400948
0.010918461
0.011493643
0.012133247
0.012846475
0.013646128
0.01454968
0.0155835
0.016782293
0.018212482
0.01993921
0.022206141
0.025021542
0.029829275
0.034748264
0.072680052
0.043261652
-0.0068700546
-0.0062698569
-0.0036250208
-0.0026329906
-0.0018538002
-0.0012464976
-0.00081158066
-0.00048050168
-0.00021927689
-8.7596726e-06
0.00016569842
0.00031352865
0.00044055789
0.00055081873
0.0006474746