/*--------------------------------*- C++ -*----------------------------------*\
| =========                 |                                                 |
| \\      /  F ield         | OpenFOAM: The Open Source CFD Toolbox           |
|  \\    /   O peration     | Version:  2206                                  |
|   \\  /    A nd           | Website:  www.openfoam.com                      |
|    \\/     M anipulation  |                                                 |
\*---------------------------------------------------------------------------*/
FoamFile
{
    version     2.0;
    format      ascii;
    arch        "LSB;label=32;scalar=64";
    class       surfaceScalarField;
    location    "100";
    object      phi;
}
// * * * * * * * * * * * * * * * * * * * * * * * * * * * * * * * * * * * * * //

dimensions      [0 3 -1 0 0 0 0];

oriented        oriented;

internalField   nonuniform List<scalar> 
25880
(
2.0046528e-06
1.3892719e-12
2.0046498e-06
2.9850426e-12
2.0046463e-06
3.4993471e-12
2.0046423e-06
3.9404102e-12
2.0046378e-06
4.5500219e-12
2.0046325e-06
5.3325331e-12
2.0046261e-06
6.3059185e-12
2.0046186e-06
7.5035156e-12
2.0046097e-06
8.9781246e-12
2.0045989e-06
1.0805055e-11
2.0045858e-06
1.3087536e-11
2.0045698e-06
1.5974678e-11
2.0045501e-06
1.9676877e-11
2.0045256e-06
2.4550042e-11
2.0044945e-06
3.1048374e-11
2.0044542e-06
4.0332124e-11
2.0044011e-06
5.3091113e-11
2.0043258e-06
7.5343498e-11
2.0042227e-06
1.0303269e-10
2.0040415e-06
1.8121111e-10
2.003808e-06
2.3346508e-10
2.0032099e-06
5.9812792e-10
2.0030808e-06
1.2910116e-10
1.0054162e-06
9.9766462e-07
5.2990903e-09
1.0001171e-06
3.3555724e-09
1.9435176e-09
3.0125976e-09
3.4297471e-10
2.8711478e-09
1.4144971e-10
2.7919687e-09
7.917906e-11
2.7370629e-09
5.4905821e-11
2.6958952e-09
4.1167677e-11
2.6637184e-09
3.2176766e-11
2.6377817e-09
2.5936649e-11
2.6163911e-09
2.1390582e-11
2.5984093e-09
1.7981755e-11
2.5830506e-09
1.5358763e-11
2.569761e-09
1.3289542e-11
2.558137e-09
1.162405e-11
2.5478742e-09
1.0262785e-11
2.5387381e-09
9.1360904e-12
2.5305452e-09
8.1928845e-12
2.52315e-09
7.3951572e-12
2.5164357e-09
6.7143554e-12
2.510307e-09
6.1286463e-12
2.5046859e-09
5.6211146e-12
2.4995074e-09
5.1784877e-12
2.4947172e-09
4.7902158e-12
2.4902694e-09
4.4478212e-12
2.4861249e-09
4.1444289e-12
2.4822505e-09
3.8744144e-12
2.4786174e-09
3.6331368e-12
2.4752006e-09
3.4167366e-12
2.4719786e-09
3.2219848e-12
2.4689325e-09
3.0461617e-12
2.4660455e-09
2.8869638e-12
2.4633031e-09
2.7424289e-12
2.4606922e-09
2.610876e-12
2.4582013e-09
2.4908584e-12
2.4558202e-09
2.3811266e-12
2.4535396e-09
2.2805972e-12
2.4513513e-09
2.1883259e-12
2.4492478e-09
2.1034853e-12
2.4472225e-09
2.0253478e-12
2.4452692e-09
1.9532722e-12
2.4433825e-09
1.8866914e-12
2.4415574e-09
1.8251033e-12
2.4397893e-09
1.7680611e-12
2.4380742e-09
1.7151647e-12
2.4364081e-09
1.6660563e-12
2.4347877e-09
1.620417e-12
2.4332097e-09
1.57796e-12
2.4316713e-09
1.5384256e-12
2.4301697e-09
1.5015786e-12
2.4287025e-09
1.4672055e-12
2.4272674e-09
1.4351126e-12
2.4258623e-09
1.4051091e-12
2.4244852e-09
1.3770738e-12
2.4231344e-09
1.3508472e-12
2.4218081e-09
1.3262551e-12
2.4205049e-09
1.303205e-12
2.4192233e-09
1.2815778e-12
2.417962e-09
1.2612762e-12
2.4167198e-09
1.2422086e-12
2.4154956e-09
1.2242783e-12
2.4142882e-09
1.2073883e-12
2.4130967e-09
1.1915069e-12
2.4119201e-09
1.1765525e-12
2.4107577e-09
1.1623678e-12
2.4096088e-09
1.1489579e-12
2.4084725e-09
1.1362985e-12
2.4073482e-09
1.124294e-12
2.4062353e-09
1.1129074e-12
2.4051332e-09
1.1020898e-12
2.4040414e-09
1.091791e-12
2.4029594e-09
1.0819666e-12
2.4018868e-09
1.072577e-12
2.4008233e-09
1.0635829e-12
2.3997683e-09
1.0549426e-12
2.3987217e-09
1.0466165e-12
2.3976831e-09
1.0385741e-12
2.3966523e-09
1.0307875e-12
2.3956291e-09
1.0232223e-12
2.3946133e-09
1.0158423e-12
2.3936047e-09
1.0086137e-12
2.3926032e-09
1.0015011e-12
2.3916087e-09
9.9446186e-13
2.3906212e-09
9.8744606e-13
2.3896408e-09
9.8040122e-13
2.3886676e-09
9.7321982e-13
2.3877018e-09
9.658348e-13
2.3867447e-09
9.5711338e-13
2.3857946e-09
9.5006256e-13
2.3848755e-09
9.191326e-13
2.3840598e-09
8.156768e-13
2.383356e-09
7.0383425e-13
2.3827371e-09
6.1889926e-13
2.3821855e-09
5.5160097e-13
2.3816885e-09
4.9692479e-13
2.3812373e-09
4.5127717e-13
2.380825e-09
4.1228016e-13
2.3804465e-09
3.7844991e-13
2.3800977e-09
3.4880229e-13
2.3797751e-09
3.2262073e-13
2.3794758e-09
2.993556e-13
2.3791972e-09
2.7858005e-13
2.3789372e-09
2.5995814e-13
2.378694e-09
2.4323301e-13
2.3784658e-09
2.2818944e-13
2.378251e-09
2.1476547e-13
2.3780483e-09
2.0269858e-13
2.3778553e-09
1.9306231e-13
2.3776721e-09
1.8313043e-13
2.3774862e-09
1.8595296e-13
2.3773137e-09
1.7252893e-13
2.3771242e-09
1.8943186e-13
1.1819849e-13
2.0345266e-06
2.8993824e-12
2.0345233e-06
6.2361439e-12
2.0345195e-06
7.3154125e-12
2.0345152e-06
8.2373421e-12
2.0345102e-06
9.5112715e-12
2.0345044e-06
1.1144059e-11
2.0344975e-06
1.3172523e-11
2.0344894e-06
1.5666217e-11
2.0344796e-06
1.8734904e-11
2.0344679e-06
2.2534772e-11
2.0344537e-06
2.7279708e-11
2.0344364e-06
3.3278656e-11
2.0344151e-06
4.0967227e-11
2.0343886e-06
5.1082858e-11
2.0343551e-06
6.4564246e-11
2.0343116e-06
8.3816285e-11
2.0342544e-06
1.102524e-10
2.0341734e-06
1.5634712e-10
2.0340628e-06
2.1361618e-10
2.0338687e-06
3.7532782e-10
2.0336186e-06
4.835495e-10
2.0329788e-06
1.2379285e-09
2.0328414e-06
2.665276e-10
1.027458e-06
2.0030481e-06
1.6163329e-08
2.0114117e-06
1.0251838e-08
7.8550079e-09
9.2012902e-09
1.3935226e-09
8.7675803e-09
5.7515951e-10
8.5247789e-09
3.2198046e-10
8.3564163e-09
2.232684e-10
8.2301727e-09
1.6741125e-10
8.1314967e-09
1.3085273e-10
8.0519534e-09
1.0547993e-10
7.9863484e-09
8.699553e-11
7.9311954e-09
7.3134806e-11
7.8840849e-09
6.2469187e-11
7.8433193e-09
5.4055155e-11
7.8076607e-09
4.7282617e-11
7.7761765e-09
4.1747013e-11
7.7481474e-09
3.716513e-11
7.723011e-09
3.3329311e-11
7.7003211e-09
3.0085021e-11
7.6797193e-09
2.7316173e-11
7.660914e-09
2.4934e-11
7.6436653e-09
2.2869726e-11
7.6277744e-09
2.1069382e-11
7.6130746e-09
1.9490073e-11
7.5994251e-09
1.8097331e-11
7.5867063e-09
1.6863199e-11
7.5748159e-09
1.5764806e-11
7.5636657e-09
1.4783283e-11
7.5531795e-09
1.3902936e-11
7.5432909e-09
1.3110635e-11
7.5339417e-09
1.239532e-11
7.5250811e-09
1.1747622e-11
7.5166639e-09
1.1159564e-11
7.5086505e-09
1.0624309e-11
7.5010054e-09
1.0135974e-11
7.493697e-09
9.6894781e-12
7.4866972e-09
9.2804145e-12
7.4799806e-09
8.9049426e-12
7.4735244e-09
8.5596976e-12
7.467308e-09
8.2417216e-12
7.4613129e-09
7.9484055e-12
7.4555221e-09
7.6774436e-12
7.4499204e-09
7.4267934e-12
7.4444938e-09
7.1946376e-12
7.4392296e-09
6.9793488e-12
7.4341162e-09
6.7794721e-12
7.4291429e-09
6.5937105e-12
7.4243e-09
6.4208973e-12
7.4195784e-09
6.2599763e-12
7.41497e-09
6.1099904e-12
7.4104672e-09
5.9700717e-12
7.4060628e-09
5.8394321e-12
7.4017507e-09
5.7172975e-12
7.3975246e-09
5.6031663e-12
7.393379e-09
5.496401e-12
7.389309e-09
5.3962935e-12
7.3853097e-09
5.3024554e-12
7.3813769e-09
5.2144111e-12
7.3775064e-09
5.1317631e-12
7.3736945e-09
5.0541391e-12
7.3699376e-09
4.9811452e-12
7.3662326e-09
4.9123871e-12
7.3625764e-09
4.8477356e-12
7.3589661e-09
4.7868581e-12
7.3553993e-09
4.7291174e-12
7.3518737e-09
4.6745328e-12
7.348387e-09
4.6230046e-12
7.3449372e-09
4.5741442e-12
7.3415223e-09
4.5278015e-12
7.3381406e-09
4.4837776e-12
7.3347905e-09
4.4418685e-12
7.3314706e-09
4.4018934e-12
7.3281795e-09
4.3636914e-12
7.3249159e-09
4.3271024e-12
7.3216789e-09
4.291957e-12
7.3184675e-09
4.2580945e-12
7.3152806e-09
4.2253904e-12
7.3121177e-09
4.1937311e-12
7.3089779e-09
4.1629772e-12
7.3058608e-09
4.1329812e-12
7.3027658e-09
4.1036061e-12
7.2996926e-09
4.0747078e-12
7.2966409e-09
4.0461128e-12
7.2936108e-09
4.0176179e-12
7.2906022e-09
3.9890107e-12
7.2876155e-09
3.959854e-12
7.2846515e-09
3.9298752e-12
7.2817141e-09
3.8944739e-12
7.2787983e-09
3.8658582e-12
7.2759771e-09
3.7403868e-12
7.2734726e-09
3.320164e-12
7.2713108e-09
2.8655927e-12
7.2694095e-09
2.5202084e-12
7.2677147e-09
2.2464471e-12
7.2661876e-09
2.0239759e-12
7.2648007e-09
1.8382077e-12
7.2635335e-09
1.6794836e-12
7.2623702e-09
1.5417744e-12
7.2612979e-09
1.4210796e-12
7.260306e-09
1.314486e-12
7.2593856e-09
1.2197588e-12
7.258529e-09
1.1351622e-12
7.2577297e-09
1.0593301e-12
7.2569817e-09
9.9121756e-13
7.2562799e-09
9.2994899e-13
7.2556194e-09
8.7527233e-13
7.254996e-09
8.2611792e-13
7.2544022e-09
7.8685643e-13
7.2538389e-09
7.4637714e-13
7.2532671e-09
7.5781417e-13
7.2527369e-09
7.0270896e-13
7.2521524e-09
7.7394375e-13
4.7916848e-13
2.0947194e-06
4.5687114e-12
2.0947158e-06
9.837586e-12
2.0947116e-06
1.1548468e-11
2.0947068e-06
1.3003711e-11
2.0947013e-06
1.501397e-11
2.0946949e-06
1.7586568e-11
2.0946873e-06
2.0778392e-11
2.0946782e-06
2.4698992e-11
2.0946674e-06
2.9520639e-11
2.0946545e-06
3.5487869e-11
2.0946388e-06
4.2935231e-11
2.0946198e-06
5.2345934e-11
2.0945963e-06
6.4400791e-11
2.0945672e-06
8.0253246e-11
2.0945304e-06
1.0136758e-10
2.0944827e-06
1.3150687e-10
2.0944201e-06
1.7285562e-10
2.0943315e-06
2.4493492e-10
2.0942108e-06
3.3434112e-10
2.0939992e-06
5.8684221e-10
2.0937268e-06
7.5600253e-10
2.0930306e-06
1.934083e-09
2.0928828e-06
4.1438477e-10
1.0652336e-06
3.0306973e-06
2.7928566e-08
3.0487167e-06
1.7728534e-08
1.8055041e-08
1.5905011e-08
3.2170458e-09
1.5151418e-08
1.3287527e-09
1.4729429e-08
7.4396898e-10
1.4436803e-08
5.1589489e-10
1.4217369e-08
3.868447e-10
1.4045843e-08
3.0237967e-10
1.3907563e-08
2.4375979e-10
1.3793503e-08
2.0105488e-10
1.3697607e-08
1.690311e-10
1.3615688e-08
1.4438831e-10
1.3544796e-08
1.2494707e-10
1.3482781e-08
1.0929798e-10
1.3428021e-08
9.6506482e-11
1.3379268e-08
8.5918363e-11
1.3335543e-08
7.7053942e-11
1.3296072e-08
6.9556226e-11
1.3260231e-08
6.3157026e-11
1.3227514e-08
5.765127e-11
1.3197504e-08
5.2880063e-11
1.3169854e-08
4.8718722e-11
1.3144276e-08
4.5068145e-11
1.3120525e-08
4.1848691e-11
1.3098392e-08
3.8995768e-11
1.3077701e-08
3.6456537e-11
1.3058296e-08
3.4187396e-11
1.3040047e-08
3.2152084e-11
1.3022838e-08
3.032026e-11
1.3006567e-08
2.8666368e-11
1.2991145e-08
2.7168762e-11
1.2976496e-08
2.5809004e-11
1.2962549e-08
2.4571297e-11
1.2949243e-08
2.3442046e-11
1.2936523e-08
2.2409508e-11
1.292434e-08
2.1463499e-11
1.291265e-08
2.0595144e-11
1.2901413e-08
1.9796666e-11
1.2890593e-08
1.9061231e-11
1.2880159e-08
1.8382806e-11
1.287008e-08
1.7756064e-11
1.2860331e-08
1.7176284e-11
1.2850886e-08
1.6639264e-11
1.2841724e-08
1.6141245e-11
1.2832825e-08
1.5678864e-11
1.2824169e-08
1.5249122e-11
1.2815741e-08
1.4849323e-11
1.2807524e-08
1.4477025e-11
1.2799504e-08
1.4130016e-11
1.2791668e-08
1.3806291e-11
1.2784003e-08
1.3504026e-11
1.2776499e-08
1.3221434e-11
1.2769145e-08
1.2957353e-11
1.2761931e-08
1.2710312e-11
1.2754848e-08
1.2478675e-11
1.2747889e-08
1.226154e-11
1.2741046e-08
1.2057809e-11
1.2734311e-08
1.1866565e-11
1.2727678e-08
1.1686946e-11
1.2721141e-08
1.1518043e-11
1.2714695e-08
1.1358943e-11
1.2708333e-08
1.1209347e-11
1.2702052e-08
1.1068486e-11
1.2695846e-08
1.0934892e-11
1.2689712e-08
1.0808605e-11
1.2683645e-08
1.0689393e-11
1.2677643e-08
1.0576361e-11
1.2671702e-08
1.0469161e-11
1.2665818e-08
1.0367334e-11
1.265999e-08
1.0270408e-11
1.2654214e-08
1.0177965e-11
1.2648488e-08
1.0089633e-11
1.264281e-08
1.0005042e-11
1.2637178e-08
9.9238006e-12
1.263159e-08
9.8455374e-12
1.2626046e-08
9.7699651e-12
1.2620543e-08
9.6968214e-12
1.261508e-08
9.6257843e-12
1.2609656e-08
9.5565125e-12
1.2604271e-08
9.4886895e-12
1.2598924e-08
9.4219822e-12
1.2593614e-08
9.3559902e-12
1.2588342e-08
9.2902445e-12
1.2583106e-08
9.2242543e-12
1.2577909e-08
9.15701e-12
1.2572751e-08
9.0878816e-12
1.2567639e-08
9.0062551e-12
1.2562565e-08
8.9402756e-12
1.2557654e-08
8.6512255e-12
1.2553293e-08
7.6815788e-12
1.2549527e-08
6.6318183e-12
1.2546213e-08
5.8336853e-12
1.2543259e-08
5.2007941e-12
1.2540596e-08
4.6863237e-12
1.2538178e-08
4.2566375e-12
1.2535968e-08
3.8894449e-12
1.2533939e-08
3.5708252e-12
1.2532068e-08
3.2915397e-12
1.2530338e-08
3.0448588e-12
1.2528732e-08
2.8256192e-12
1.2527238e-08
2.6298097e-12
1.2525843e-08
2.4542727e-12
1.2524537e-08
2.2965928e-12
1.2523312e-08
2.154746e-12
1.252216e-08
2.0281496e-12
1.2521071e-08
1.9143284e-12
1.2520035e-08
1.823392e-12
1.2519052e-08
1.7296253e-12
1.2518053e-08
1.7559076e-12
1.2517128e-08
1.6277225e-12
1.2516106e-08
1.7962493e-12
1.1069165e-12
2.1861283e-06
6.4448173e-12
2.1861243e-06
1.3894042e-11
2.1861195e-06
1.6323255e-11
2.1861141e-06
1.8380017e-11
2.1861079e-06
2.1220139e-11
2.1861007e-06
2.4849016e-11
2.1860921e-06
2.9345236e-11
2.1860819e-06
3.4863254e-11
2.1860698e-06
4.1645077e-11
2.1860553e-06
5.0033367e-11
2.1860377e-06
6.0496443e-11
2.1860163e-06
7.3710684e-11
2.1859901e-06
9.0628317e-11
2.1859575e-06
1.1286396e-10
2.1859164e-06
1.4246152e-10
2.1858632e-06
1.8469083e-10
2.1857935e-06
2.4257116e-10
2.185695e-06
3.4344234e-10
2.185561e-06
4.6834543e-10
2.1853267e-06
8.21161e-10
2.1850249e-06
1.057784e-09
2.1842548e-06
2.7041675e-09
2.1840929e-06
5.7630808e-10
1.1196367e-06
4.0951534e-06
4.1272072e-08
4.1270814e-06
2.6206135e-08
3.3120979e-08
2.3495715e-08
5.9274654e-09
2.2374164e-08
2.4503043e-09
2.1745874e-08
1.3722588e-09
2.1310155e-08
9.5161316e-10
2.0983396e-08
7.1360367e-10
2.0727949e-08
5.5782727e-10
2.0521989e-08
4.4971969e-10
2.0352081e-08
3.7096268e-10
2.0209211e-08
3.119012e-10
2.0087149e-08
2.6644986e-10
1.9981506e-08
2.305902e-10
1.9889081e-08
2.0172356e-10
1.9807461e-08
1.7812667e-10
1.9734786e-08
1.5859329e-10
1.9669601e-08
1.4223895e-10
1.9610752e-08
1.2840534e-10
1.9557311e-08
1.1659789e-10
1.9508524e-08
1.0643842e-10
1.946377e-08
9.7633904e-11
1.9422534e-08
8.9954387e-11
1.9384385e-08
8.3217099e-11
1.9348959e-08
7.7275154e-11
1.9315945e-08
7.200942e-11
1.9285079e-08
6.7322434e-11
1.9256133e-08
6.3133775e-11
1.9228908e-08
5.9376559e-11
1.9203234e-08
5.5994815e-11
1.9178959e-08
5.2941399e-11
1.9155951e-08
5.0176379e-11
1.9134094e-08
4.7665745e-11
1.9113285e-08
4.5380352e-11
1.9093432e-08
4.3295118e-11
1.9074453e-08
4.1388377e-11
1.9056275e-08
3.9641341e-11
1.9038833e-08
3.8037636e-11
1.9022067e-08
3.6562912e-11
1.9005923e-08
3.5204556e-11
1.8990355e-08
3.3951442e-11
1.8975317e-08
3.2793737e-11
1.8960771e-08
3.1722728e-11
1.8946679e-08
3.0730667e-11
1.893301e-08
2.9810611e-11
1.8919732e-08
2.8956356e-11
1.8906819e-08
2.8162371e-11
1.8894245e-08
2.7423678e-11
1.8881986e-08
2.6735771e-11
1.8870021e-08
2.6094567e-11
1.8858331e-08
2.5496365e-11
1.8846898e-08
2.4937801e-11
1.8835703e-08
2.4415572e-11
1.8824733e-08
2.3927541e-11
1.8813973e-08
2.3470992e-11
1.8803408e-08
2.3042899e-11
1.8793028e-08
2.2641601e-11
1.8782821e-08
2.2265072e-11
1.8772776e-08
2.1911618e-11
1.8762883e-08
2.1579651e-11
1.8753134e-08
2.1267491e-11
1.8743519e-08
2.0973456e-11
1.8734032e-08
2.0696987e-11
1.8724663e-08
2.0436666e-11
1.8715409e-08
2.01898e-11
1.8706261e-08
1.995645e-11
1.8697214e-08
1.973618e-11
1.8688263e-08
1.9527348e-11
1.8679403e-08
1.9329311e-11
1.8670629e-08
1.9141221e-11
1.8661937e-08
1.8962207e-11
1.8653324e-08
1.8791497e-11
1.8644785e-08
1.8628407e-11
1.8636318e-08
1.8472253e-11
1.8627919e-08
1.8322312e-11
1.8619587e-08
1.8177898e-11
1.8611318e-08
1.8038484e-11
1.8603111e-08
1.7903585e-11
1.8594965e-08
1.7772607e-11
1.8586876e-08
1.7644921e-11
1.8578845e-08
1.7519942e-11
1.857087e-08
1.7397057e-11
1.856295e-08
1.7275526e-11
1.8555086e-08
1.7154486e-11
1.8547277e-08
1.7033032e-11
1.8539525e-08
1.6909304e-11
1.8531831e-08
1.6782137e-11
1.8524205e-08
1.6631991e-11
1.8516635e-08
1.6510623e-11
1.8509306e-08
1.5979601e-11
1.8502794e-08
1.4194302e-11
1.8497166e-08
1.225934e-11
1.8492213e-08
1.0786872e-11
1.8487795e-08
9.6186033e-12
1.8483813e-08
8.6685385e-12
1.8480195e-08
7.8748224e-12
1.8476888e-08
7.1963955e-12
1.8473851e-08
6.6076063e-12
1.8471051e-08
6.0914248e-12
1.846846e-08
5.6354422e-12
1.8466056e-08
5.2301347e-12
1.8463818e-08
4.868102e-12
1.8461728e-08
4.5435172e-12
1.8459773e-08
4.2519231e-12
1.8457938e-08
3.9895833e-12
1.8456211e-08
3.7554239e-12
1.845458e-08
3.5448732e-12
1.8453027e-08
3.3766028e-12
1.8451554e-08
3.2031013e-12
1.8450058e-08
3.2512207e-12
1.8448673e-08
3.0134018e-12
1.8447139e-08
3.3297678e-12
2.0464336e-12
2.3101155e-06
8.5869765e-12
2.3101109e-06
1.8536404e-11
2.3101054e-06
2.1796096e-11
2.3100993e-06
2.4542337e-11
2.3100921e-06
2.8332798e-11
2.3100838e-06
3.3168003e-11
2.310074e-06
3.9150351e-11
2.3100624e-06
4.6485509e-11
2.3100486e-06
5.5494527e-11
2.310032e-06
6.6630797e-11
2.3100119e-06
8.05133e-11
2.3099876e-06
9.8035949e-11
2.3099578e-06
1.2045617e-10
2.3099207e-06
1.4990795e-10
2.3098741e-06
1.8908454e-10
2.3098139e-06
2.4495391e-10
2.309735e-06
3.2145265e-10
2.3096237e-06
4.5473363e-10
2.3094726e-06
6.1946671e-10
2.3092088e-06
1.0848737e-09
2.3088693e-06
1.3973755e-09
2.3080039e-06
3.5695627e-09
2.3078235e-06
7.5667411e-10
1.1918479e-06
5.211129e-06
5.6954379e-08
5.2619749e-06
3.6157055e-08
5.3918303e-08
3.2389848e-08
9.6946724e-09
3.0828504e-08
4.0116484e-09
2.9953387e-08
2.2473755e-09
2.9346419e-08
1.558581e-09
2.8891192e-08
1.1688306e-09
2.8535263e-08
9.1375638e-10
2.8248238e-08
7.3674409e-10
2.8011413e-08
6.0778823e-10
2.7812239e-08
5.1107558e-10
2.7642045e-08
4.3664354e-10
2.7494721e-08
3.7791438e-10
2.736581e-08
3.3063432e-10
2.7251954e-08
2.9198246e-10
2.7150563e-08
2.5998424e-10
2.705961e-08
2.3319173e-10
2.6977489e-08
2.1052716e-10
2.6902906e-08
1.9118081e-10
2.6834811e-08
1.7453349e-10
2.6772339e-08
1.6010536e-10
2.6714774e-08
1.4751991e-10
2.6661513e-08
1.3647786e-10
2.6612049e-08
1.2673868e-10
2.6565951e-08
1.1810726e-10
2.652285e-08
1.1042399e-10
2.6482427e-08
1.0355717e-10
2.6444406e-08
9.7397241e-11
2.6408548e-08
9.1852538e-11
2.6374644e-08
8.6845837e-11
2.6342508e-08
8.231173e-11
2.631198e-08
7.8194503e-11
2.6282913e-08
7.4446417e-11
2.6255182e-08
7.1026379e-11
2.6228672e-08
6.7898894e-11
2.620328e-08
6.5033181e-11
2.6178915e-08
6.2402414e-11
2.6155495e-08
5.9983083e-11
2.6132945e-08
5.7754522e-11
2.6111198e-08
5.56985e-11
2.6090193e-08
5.3798904e-11
2.6069874e-08
5.2041458e-11
2.6050191e-08
5.0413463e-11
2.6031098e-08
4.8903545e-11
2.6012553e-08
4.7501537e-11
2.5994517e-08
4.6198373e-11
2.5976955e-08
4.4985897e-11
2.5959834e-08
4.3856722e-11
2.5943124e-08
4.2804158e-11
2.5926799e-08
4.1822138e-11
2.5910831e-08
4.090515e-11
2.5895199e-08
4.0047777e-11
2.587988e-08
3.924652e-11
2.5864854e-08
3.8496934e-11
2.5850103e-08
3.779405e-11
2.5835609e-08
3.7135141e-11
2.5821358e-08
3.6516893e-11
2.5807333e-08
3.593653e-11
2.5793521e-08
3.5391452e-11
2.5779909e-08
3.4878899e-11
2.5766487e-08
3.4396123e-11
2.5753242e-08
3.3942191e-11
2.5740163e-08
3.3514787e-11
2.5727244e-08
3.3109522e-11
2.5714474e-08
3.2726471e-11
2.5701845e-08
3.236491e-11
2.568935e-08
3.2022163e-11
2.5676982e-08
3.1697177e-11
2.5664735e-08
3.1388558e-11
2.5652602e-08
3.109488e-11
2.5640579e-08
3.0814881e-11
2.562866e-08
3.0547434e-11
2.5616841e-08
3.0291423e-11
2.5605117e-08
3.0045661e-11
2.5593486e-08
2.9809026e-11
2.5581944e-08
2.9580653e-11
2.5570488e-08
2.9359752e-11
2.5559115e-08
2.9145348e-11
2.5547824e-08
2.8936409e-11
2.5536612e-08
2.8731979e-11
2.5525478e-08
2.8531053e-11
2.5514421e-08
2.833242e-11
2.5503441e-08
2.8134668e-11
2.5492537e-08
2.7936315e-11
2.5481712e-08
2.7734317e-11
2.5470968e-08
2.7526767e-11
2.5460318e-08
2.7281735e-11
2.5449745e-08
2.7083655e-11
2.5439506e-08
2.621849e-11
2.5430399e-08
2.3301416e-11
2.5422523e-08
2.0135192e-11
2.5415587e-08
1.7722955e-11
2.5409398e-08
1.5807646e-11
2.5403817e-08
1.4249309e-11
2.5398745e-08
1.2946927e-11
2.5394108e-08
1.1833402e-11
2.5389849e-08
1.086678e-11
2.5385921e-08
1.0019192e-11
2.5382286e-08
9.2703218e-12
2.5378912e-08
8.6045733e-12
2.537577e-08
8.009822e-12
2.5372837e-08
7.4765199e-12
2.5370092e-08
6.9973621e-12
2.5367515e-08
6.5662245e-12
2.5365089e-08
6.1813498e-12
2.5362799e-08
5.8352403e-12
2.5360617e-08
5.5585314e-12
2.5358547e-08
5.2732519e-12
2.5356446e-08
5.351339e-12
2.53545e-08
4.9595138e-12
2.5352344e-08
5.4858584e-12
3.3658906e-12
2.4685287e-06
1.1069567e-11
2.4685233e-06
2.392945e-11
2.4685169e-06
2.8164217e-11
2.4685098e-06
3.1712834e-11
2.4685015e-06
3.6608058e-11
2.4684918e-06
4.2841816e-11
2.4684804e-06
5.054297e-11
2.4684669e-06
5.9976463e-11
2.4684509e-06
7.1554289e-11
2.4684316e-06
8.5856653e-11
2.4684085e-06
1.0367475e-10
2.4683804e-06
1.2615112e-10
2.4683459e-06
1.5489148e-10
2.4683032e-06
1.9262342e-10
2.4682495e-06
2.4277836e-10
2.4681802e-06
3.1426653e-10
2.4680896e-06
4.1204668e-10
2.467962e-06
5.8235267e-10
2.467789e-06
7.92441e-10
2.4674878e-06
1.3860862e-09
2.4671e-06
1.7852102e-09
2.466113e-06
4.5565236e-09
2.4659089e-06
9.6080377e-10
1.2833718e-06
6.3936661e-06
7.586098e-08
6.4694857e-06
4.8129979e-08
8.1649302e-08
4.3068942e-08
1.4755709e-08
4.0967293e-08
6.1132977e-09
3.9788602e-08
3.4260666e-09
3.8970936e-08
2.3762471e-09
3.8357616e-08
1.7821503e-09
3.7877993e-08
1.3933789e-09
3.7491138e-08
1.1236e-09
3.7171867e-08
9.2705841e-10
3.6903296e-08
7.7964697e-10
3.6673755e-08
6.6618463e-10
3.6475019e-08
5.7665023e-10
3.630109e-08
5.0456314e-10
3.6147447e-08
4.4562553e-10
3.6010602e-08
3.9682898e-10
3.5887827e-08
3.5596727e-10
3.5776956e-08
3.21398e-10
3.567625e-08
2.9188721e-10
3.5584292e-08
2.6649137e-10
3.5499918e-08
2.4447875e-10
3.5422162e-08
2.2527591e-10
3.5350214e-08
2.0842655e-10
3.5283388e-08
1.9356399e-10
3.5221105e-08
1.8039084e-10
3.5162865e-08
1.6866377e-10
3.510824e-08
1.5818199e-10
3.5056859e-08
1.4877848e-10
3.5008398e-08
1.4031346e-10
3.4962575e-08
1.3266919e-10
3.491914e-08
1.2574591e-10
3.4877876e-08
1.1945869e-10
3.4838588e-08
1.1373472e-10
3.4801103e-08
1.0851132e-10
3.4765268e-08
1.0373436e-10
3.4730944e-08
9.9356892e-11
3.4698008e-08
9.5338e-11
3.4666349e-08
9.1641827e-11
3.4635867e-08
8.8236847e-11
3.460647e-08
8.5095251e-11
3.4578077e-08
8.2192456e-11
3.4550612e-08
7.9506685e-11
3.4524006e-08
7.7018565e-11
3.4498199e-08
7.4710742e-11
3.4473133e-08
7.2567704e-11
3.4448756e-08
7.057562e-11
3.442502e-08
6.8722045e-11
3.4401881e-08
6.699571e-11
3.4379299e-08
6.5386406e-11
3.4357236e-08
6.3884871e-11
3.4335658e-08
6.2482698e-11
3.4314534e-08
6.1171616e-11
3.4293835e-08
5.9946292e-11
3.4273532e-08
5.8799953e-11
3.4253601e-08
5.7724998e-11
3.4234019e-08
5.6717261e-11
3.4214764e-08
5.5771693e-11
3.4195816e-08
5.4884063e-11
3.4177157e-08
5.4050402e-11
3.415877e-08
5.3266498e-11
3.4140638e-08
5.252816e-11
3.4122746e-08
5.1833944e-11
3.410508e-08
5.1180324e-11
3.4087629e-08
5.056065e-11
3.4070381e-08
4.9974992e-11
3.4053323e-08
4.9422225e-11
3.4036447e-08
4.8898299e-11
3.4019743e-08
4.8401602e-11
3.4003201e-08
4.7930006e-11
3.3986815e-08
4.7481333e-11
3.3970576e-08
4.7053658e-11
3.3954478e-08
4.6645265e-11
3.3938515e-08
4.625445e-11
3.3922682e-08
4.58794e-11
3.3906972e-08
4.5518404e-11
3.3891383e-08
4.5170149e-11
3.3875909e-08
4.4833429e-11
3.3860548e-08
4.4506757e-11
3.3845295e-08
4.4188558e-11
3.383015e-08
4.3877377e-11
3.3815109e-08
4.3571679e-11
3.3800172e-08
4.3269621e-11
3.3785338e-08
4.2969049e-11
3.3770606e-08
4.2667709e-11
3.375598e-08
4.2360966e-11
3.3741461e-08
4.2045906e-11
3.3727068e-08
4.167399e-11
3.3712779e-08
4.1373313e-11
3.3698934e-08
4.0062908e-11
3.3686607e-08
3.5628593e-11
3.3675936e-08
3.0806746e-11
3.3666531e-08
2.7127799e-11
3.3658134e-08
2.4204067e-11
3.365056e-08
2.1823758e-11
3.3643673e-08
1.9833496e-11
3.3637375e-08
1.813124e-11
3.3631589e-08
1.6653131e-11
3.3626252e-08
1.5356726e-11
3.3621311e-08
1.4211068e-11
3.3616723e-08
1.3192376e-11
3.3612451e-08
1.228216e-11
3.3608461e-08
1.1465853e-11
3.3604726e-08
1.073231e-11
3.360122e-08
1.0072185e-11
3.3597919e-08
9.482803e-12
3.3594801e-08
8.9527164e-12
3.3591831e-08
8.5287436e-12
3.3589013e-08
8.0917106e-12
3.3586155e-08
8.2094607e-12
3.3583506e-08
7.6081301e-12
3.3580569e-08
8.4232618e-12
5.1624363e-12
2.6637285e-06
1.3986462e-11
2.6637221e-06
3.0281828e-11
2.6637146e-06
3.567791e-11
2.6637061e-06
4.0173472e-11
2.6636964e-06
4.6370918e-11
2.663685e-06
5.4248751e-11
2.6636715e-06
6.3965589e-11
2.6636557e-06
7.585593e-11
2.6636368e-06
9.0437848e-11
2.6636142e-06
1.0843879e-10
2.663587e-06
1.3084949e-10
2.6635541e-06
1.5910055e-10
2.6635138e-06
1.9520059e-10
2.6634638e-06
2.4256494e-10
2.6634011e-06
3.0547557e-10
2.6633203e-06
3.9509459e-10
2.6632148e-06
5.1753421e-10
2.6630664e-06
7.3071681e-10
2.6628657e-06
9.9315793e-10
2.662517e-06
1.7348478e-09
2.662068e-06
2.2342227e-09
2.6609269e-06
5.6975472e-09
2.6606925e-06
1.1952537e-09
1.3960823e-06
7.6582763e-06
9.9049559e-08
7.7665184e-06
6.2777902e-08
1.1792096e-07
5.6103218e-08
2.1430393e-08
5.3325173e-08
8.891342e-09
5.1765995e-08
4.9852455e-09
5.0684137e-08
3.4581047e-09
4.9872546e-08
2.5937416e-09
4.9237737e-08
2.028187e-09
4.8725577e-08
1.6357602e-09
4.8302778e-08
1.3498576e-09
4.7947023e-08
1.1354021e-09
4.7642892e-08
9.7031549e-10
4.7379515e-08
8.4002735e-10
4.7148963e-08
7.3511523e-10
4.6945258e-08
6.4933005e-10
4.676379e-08
5.7829727e-10
4.6600949e-08
5.188085e-10
4.6453872e-08
4.6847504e-10
4.6320257e-08
4.2550212e-10
4.6198231e-08
3.8851704e-10
4.6086254e-08
3.5645609e-10
4.5983045e-08
3.2848438e-10
4.5887534e-08
3.039383e-10
4.5798813e-08
2.8228437e-10
4.5716114e-08
2.6308985e-10
4.5638777e-08
2.4600069e-10
4.5566235e-08
2.307247e-10
4.5497994e-08
2.1701882e-10
4.5433628e-08
2.0467959e-10
4.5372762e-08
1.9353566e-10
4.5315066e-08
1.8344184e-10
4.526025e-08
1.7427447e-10
4.5208057e-08
1.6592758e-10
4.5158259e-08
1.5830992e-10
4.511065e-08
1.5134267e-10
4.506505e-08
1.4495749e-10
4.5021293e-08
1.3909479e-10
4.4979232e-08
1.3370237e-10
4.4938735e-08
1.2873433e-10
4.489968e-08
1.2415016e-10
4.4861958e-08
1.1991406e-10
4.4825471e-08
1.1599432e-10
4.4790126e-08
1.1236272e-10
4.4755843e-08
1.08994e-10
4.4722545e-08
1.0586555e-10
4.4690164e-08
1.0295722e-10
4.4658635e-08
1.002509e-10
4.46279e-08
9.7730169e-11
4.4597907e-08
9.5380148e-11
4.4568604e-08
9.318735e-11
4.4539947e-08
9.1139526e-11
4.4511894e-08
8.9224615e-11
4.4484406e-08
8.7434868e-11
4.4457445e-08
8.576043e-11
4.443098e-08
8.4190194e-11
4.4404979e-08
8.2718082e-11
4.4379414e-08
8.1336757e-11
4.4354258e-08
8.0040062e-11
4.4329486e-08
7.8822216e-11
4.4305076e-08
7.767707e-11
4.4281006e-08
7.6598537e-11
4.4257255e-08
7.558447e-11
4.4233806e-08
7.4629744e-11
4.4210641e-08
7.3724763e-11
4.4187747e-08
7.2869545e-11
4.4165107e-08
7.2062418e-11
4.4142707e-08
7.1297537e-11
4.4120537e-08
7.0572547e-11
4.4098582e-08
6.9884345e-11
4.4076834e-08
6.922976e-11
4.4055281e-08
6.8605986e-11
4.4033916e-08
6.8010525e-11
4.401273e-08
6.7440895e-11
4.3991715e-08
6.6894455e-11
4.3970864e-08
6.6368715e-11
4.3950173e-08
6.5861769e-11
4.3929634e-08
6.5371864e-11
4.3909244e-08
6.4896831e-11
4.3888998e-08
6.443438e-11
4.3868893e-08
6.3982393e-11
4.3848926e-08
6.3538638e-11
4.3829096e-08
6.310043e-11
4.38094e-08
6.2664641e-11
4.378984e-08
6.2227994e-11
4.3770417e-08
6.1783753e-11
4.3751135e-08
6.1327673e-11
4.373202e-08
6.0789356e-11
4.3713039e-08
6.0354103e-11
4.369464e-08
5.8462309e-11
4.3678236e-08
5.2032151e-11
4.3664018e-08
4.5024497e-11
4.3651478e-08
3.9668397e-11
4.3640275e-08
3.5407108e-11
4.3630163e-08
3.1935214e-11
4.3620966e-08
2.9030627e-11
4.3612552e-08
2.6545295e-11
4.3604819e-08
2.4386476e-11
4.3597683e-08
2.2492484e-11
4.3591076e-08
2.0818293e-11
4.3584939e-08
1.9329296e-11
4.3579222e-08
1.7998573e-11
4.3573883e-08
1.6804911e-11
4.3568884e-08
1.5732075e-11
4.3564189e-08
1.4766448e-11
4.3559768e-08
1.3904147e-11
4.3555592e-08
1.3128485e-11
4.3551613e-08
1.2507803e-11
4.3547837e-08
1.1868134e-11
4.3544009e-08
1.2037299e-11
4.3540461e-08
1.1155608e-11
4.3536523e-08
1.2361626e-11
7.5705024e-12
2.8986238e-06
1.7456719e-11
2.8986162e-06
3.7859028e-11
2.8986072e-06
4.4656394e-11
2.8985971e-06
5.0283909e-11
2.8985855e-06
5.8035854e-11
2.8985718e-06
6.7870982e-11
2.8985558e-06
7.998172e-11
2.8985369e-06
9.4785201e-11
2.8985144e-06
1.129248e-10
2.8984876e-06
1.3530105e-10
2.8984553e-06
1.631388e-10
2.8984162e-06
1.9820653e-10
2.8983684e-06
2.4298473e-10
2.8983092e-06
3.0169545e-10
2.8982351e-06
3.7961281e-10
2.8981397e-06
4.9054212e-10
2.8980153e-06
6.4191232e-10
2.8978406e-06
9.0536566e-10
2.8976048e-06
1.2289874e-09
2.897196e-06
2.1436968e-09
2.8966696e-06
2.7605521e-09
2.8953341e-06
7.033118e-09
2.8950611e-06
1.4682411e-09
1.5322771e-06
9.0210603e-06
1.2780574e-07
9.1709898e-06
8.0891339e-08
1.6483536e-07
7.2179303e-08
3.0142429e-08
6.8543838e-08
1.2526806e-08
6.6501734e-08
7.0273492e-09
6.5084406e-08
4.8754333e-09
6.4020993e-08
3.6571541e-09
6.3189012e-08
2.8601686e-09
6.2517568e-08
2.3072035e-09
6.1963101e-08
1.9043249e-09
6.1496413e-08
1.6020903e-09
6.1097331e-08
1.3693975e-09
6.0751632e-08
1.1857258e-09
6.0448942e-08
1.037806e-09
6.0181435e-08
9.16837e-10
5.9943075e-08
8.1665727e-10
5.9729136e-08
7.3274725e-10
5.9535869e-08
6.6174163e-10
5.936026e-08
6.0111166e-10
5.9199854e-08
5.4892318e-10
5.9052632e-08
5.0367722e-10
5.8916919e-08
4.6419728e-10
5.879131e-08
4.2954808e-10
5.8674616e-08
3.9897772e-10
5.856583e-08
3.7187622e-10
5.8464086e-08
3.4774449e-10
5.836864e-08
3.2617062e-10
5.8278847e-08
3.068119e-10
5.8194145e-08
2.8938149e-10
5.8114043e-08
2.7363773e-10
5.8038109e-08
2.5937591e-10
5.7965962e-08
2.4642164e-10
5.7897264e-08
2.3462544e-10
5.7831715e-08
2.2385861e-10
5.7769048e-08
2.1400997e-10
5.7709022e-08
2.0498311e-10
5.7651423e-08
1.9669399e-10
5.7596057e-08
1.8906895e-10
5.7542748e-08
1.8204323e-10
5.7491338e-08
1.7555968e-10
5.7441685e-08
1.6956779e-10
5.7393656e-08
1.640228e-10
5.7347134e-08
1.588849e-10
5.7302009e-08
1.5411842e-10
5.7258184e-08
1.4969147e-10
5.7215565e-08
1.4557562e-10
5.7174071e-08
1.4174528e-10
5.7133624e-08
1.381773e-10
5.7094153e-08
1.3485066e-10
5.7055594e-08
1.3174634e-10
5.7017887e-08
1.2884703e-10
5.6980975e-08
1.261357e-10
5.6944809e-08
1.2360144e-10
5.6909339e-08
1.2123036e-10
5.6874522e-08
1.1900671e-10
5.6840319e-08
1.1692191e-10
5.680669e-08
1.1496564e-10
5.6773601e-08
1.131292e-10
5.6741018e-08
1.1140445e-10
5.6708913e-08
1.0978268e-10
5.6677256e-08
1.0825532e-10
5.6646021e-08
1.0681928e-10
5.6615184e-08
1.0546735e-10
5.6584722e-08
1.0418612e-10
5.6554616e-08
1.0297549e-10
5.6524846e-08
1.0183303e-10
5.6495393e-08
1.0075059e-10
5.646624e-08
9.9724842e-11
5.6437373e-08
9.875139e-11
5.6408777e-08
9.7825758e-11
5.6380439e-08
9.6943992e-11
5.6352347e-08
9.6102568e-11
5.632449e-08
9.529798e-11
5.6296858e-08