/*--------------------------------*- C++ -*----------------------------------*\
| =========                 |                                                 |
| \\      /  F ield         | OpenFOAM: The Open Source CFD Toolbox           |
|  \\    /   O peration     | Version:  2206                                  |
|   \\  /    A nd           | Website:  www.openfoam.com                      |
|    \\/     M anipulation  |                                                 |
\*---------------------------------------------------------------------------*/
FoamFile
{
    version     2.0;
    format      ascii;
    arch        "LSB;label=32;scalar=64";
    class       volVectorField;
    location    "100";
    object      U;
}
// * * * * * * * * * * * * * * * * * * * * * * * * * * * * * * * * * * * * * //

dimensions      [0 1 -1 0 0 0 0];

internalField   nonuniform List<vector> 
13056
(
(1 1.6928388e-11 3.8998265e-25)
(0.9999987 4.1171882e-11 0)
(0.99999704 5.47518e-11 0)
(0.99999522 6.994808e-11 0)
(0.99999313 9.1606379e-11 0)
(0.9999907 1.2172692e-10 0)
(0.99998783 1.6313137e-10 0)
(0.99998444 2.1983142e-10 0)
(0.99998039 2.9760769e-10 0)
(0.99997553 4.0476066e-10 0)
(0.99996966 5.5319113e-10 0)
(0.99996254 7.6040665e-10 0)
(0.99995381 1.0521807e-09 0)
(0.99994301 1.4701053e-09 0)
(0.99992945 2.0739625e-09 0)
(0.99991219 2.9906307e-09 0)
(0.99988943 4.3441354e-09 0)
(0.99985947 6.7534494e-09 0)
(0.99981473 1.0030417e-08 0)
(0.99975691 1.8963569e-08 0)
(0.99963549 2.5939726e-08 0)
(0.999523 6.9612505e-08 0)
(0.99904365 1.6435231e-08 -5.2261578e-21)
(0.99938502 0.0001246696 9.7597595e-18)
(0.0034814906 0.00012497379 0)
(0.0017973229 1.9128893e-07 -7.7825266e-18)
(0.0015494305 1.0770721e-08 3.2803352e-22)
(0.0014558145 4.7683604e-09 0)
(0.0014084446 2.6998695e-09 0)
(0.0013768988 1.8819727e-09 0)
(0.0013537014 1.4042602e-09 0)
(0.0013358487 1.0963873e-09 0)
(0.0013216151 8.8443057e-10 0)
(0.0013099836 7.2972384e-10 0)
(0.0013002827 6.1321265e-10 0)
(0.0012920502 5.2303307e-10 0)
(0.0012849647 4.5146028e-10 0)
(0.0012787956 3.9355427e-10 0)
(0.0012733711 3.4601521e-10 0)
(0.0012685595 3.0650623e-10 0)
(0.0012642586 2.7329919e-10 0)
(0.0012603877 2.4510479e-10 0)
(0.0012568823 2.2095278e-10 0)
(0.0012536904 2.0009878e-10 0)
(0.0012507692 1.8196518e-10 0)
(0.0012480835 1.6609734e-10 0)
(0.0012456038 1.5213227e-10 0)
(0.0012433053 1.3977735e-10 0)
(0.001241167 1.2879473e-10 0)
(0.0012391712 1.1898911e-10 0)
(0.0012373023 1.1019873e-10 0)
(0.001235547 1.0228874e-10 0)
(0.001233894 9.5146141e-11 0)
(0.001232333 8.8675642e-11 0)
(0.0012308553 8.2796249e-11 0)
(0.0012294531 7.7438755e-11 0)
(0.0012281196 7.2543738e-11 0)
(0.0012268486 6.8060007e-11 0)
(0.0012256348 6.3943268e-11 0)
(0.0012244732 6.0155029e-11 0)
(0.0012233597 5.6661704e-11 0)
(0.0012222902 5.3433834e-11 0)
(0.0012212613 5.0445437e-11 0)
(0.0012202697 4.7673586e-11 0)
(0.0012193127 4.5098049e-11 0)
(0.0012183875 4.2700879e-11 0)
(0.0012174919 4.0466057e-11 0)
(0.0012166237 3.8379231e-11 0)
(0.0012157808 3.6427542e-11 0)
(0.0012149615 3.4599559e-11 0)
(0.0012141642 3.288507e-11 0)
(0.0012133873 3.1274794e-11 0)
(0.0012126294 2.9760308e-11 0)
(0.0012118892 2.8334004e-11 0)
(0.0012111656 2.6988993e-11 0)
(0.0012104574 2.5718387e-11 0)
(0.0012097637 2.4518488e-11 3.1168749e-26)
(0.0012090835 2.338185e-11 0)
(0.001208416 2.2304719e-11 0)
(0.0012077603 2.1283686e-11 0)
(0.0012071158 2.0312265e-11 0)
(0.0012064817 1.9389117e-11 0)
(0.0012058574 1.8510545e-11 0)
(0.0012052423 1.7673274e-11 0)
(0.0012046359 1.6874534e-11 0)
(0.0012040376 1.6111868e-11 0)
(0.001203447 1.5382958e-11 0)
(0.0012028637 1.4685537e-11 0)
(0.0012022872 1.4017506e-11 0)
(0.0012017173 1.3377101e-11 0)
(0.0012011535 1.2762823e-11 0)
(0.0012005955 1.217317e-11 0)
(0.001200043 1.1606667e-11 0)
(0.0011994958 1.1061966e-11 0)
(0.0011989536 1.053787e-11 0)
(0.0011984161 1.0033301e-11 0)
(0.0011978833 9.5472239e-12 0)
(0.0011973548 9.0786541e-12 0)
(0.0011968306 8.62675e-12 0)
(0.0011963104 8.1908043e-12 0)
(0.0011957942 7.7701195e-12 0)
(0.0011952818 7.364005e-12 0)
(0.0011947731 6.9718503e-12 0)
(0.001194268 6.5931105e-12 0)
(0.0011937665 6.2272539e-12 0)
(0.0011932685 5.8737623e-12 0)
(0.001192774 5.5321533e-12 0)
(0.001192283 5.2020073e-12 0)
(0.0011917956 4.8827414e-12 0)
(0.0011913117 4.5739609e-12 0)
(0.0011908316 4.2719544e-12 0)
(0.0011903564 3.9848405e-12 0)
(0.0011898832 3.6690489e-12 0)
(0.0011894498 3.3039147e-12 0)
(0.001189075 2.9590044e-12 0)
(0.0011887476 2.6661046e-12 0)
(0.0011884575 2.4191648e-12 0)
(0.0011881973 2.2104739e-12 0)
(0.0011879617 2.0312825e-12 0)
(0.0011877471 1.8749143e-12 0)
(0.0011875504 1.7369703e-12 0)
(0.0011873695 1.6143888e-12 0)
(0.0011872024 1.5048291e-12 0)
(0.0011870476 1.4064232e-12 0)
(0.0011869038 1.3177057e-12 0)
(0.0011867697 1.2374988e-12 0)
(0.0011866444 1.164888e-12 0)
(0.001186527 1.0991086e-12 0)
(0.0011864168 1.0400234e-12 0)
(0.0011863128 9.8666545e-13 0)
(0.0011862145 9.4361795e-13 0)
(0.0011861201 8.9948857e-13 0)
(0.0011860318 9.0509519e-13 0)
(0.0011859346 2.0067553e-12 0)
(0.00118586 9.3176978e-13 1.1217502e-24)
(0.0011857442 1.3929663e-12 0)
(1 5.2909279e-11 0)
(0.9999986 1.2914144e-10 0)
(0.99999683 1.7183773e-10 0)
(0.99999486 2.1952522e-10 0)
(0.99999262 2.8748415e-10 0)
(0.99999001 3.8191476e-10 0)
(0.99998694 5.1161138e-10 0)
(0.99998329 6.8910393e-10 0)
(0.99997895 9.3243578e-10 0)
(0.99997375 1.267495e-09 0)
(0.99996748 1.7313755e-09 0)
(0.99995987 2.3786232e-09 0)
(0.99995056 3.2894848e-09 0)
(0.99993905 4.5934494e-09 0)
(0.99992462 6.4763531e-09 0)
(0.99990627 9.3331016e-09 0)
(0.9998821 1.354749e-08 0)
(0.99985034 2.1046066e-08 0)
(0.99980297 3.1229472e-08 0)
(0.99974188 5.898647e-08 0)
(0.99961377 8.0677611e-08 0)
(0.99949502 2.1641856e-07 0)
(0.99898991 4.7966562e-08 1.9540534e-20)
(0.99935121 0.00037456866 -7.106422e-21)
(0.010455477 0.00037559575 0)
(0.0054113767 1.0339349e-06 0)
(0.0046633737 1.768046e-07 1.5973957e-21)
(0.0043806394 7.2028907e-08 0)
(0.0042374933 3.992368e-08 0)
(0.0041421812 2.741442e-08 0)
(0.0040720913 2.0359855e-08 0)
(0.0040181473 1.5754775e-08 0)
(0.0039751373 1.2568092e-08 0)
(0.0039399882 1.025525e-08 0)
(0.0039106713 8.5274037e-09 0)
(0.0038857909 7.2027866e-09 0)
(0.003864376 6.1618613e-09 0)
(0.0038457296 5.3273436e-09 0)
(0.0038293329 4.6479356e-09 0)
(0.0038147883 4.0877531e-09 0)
(0.0038017867 3.6205669e-09 0)
(0.0037900846 3.2269114e-09 0)
(0.0037794872 2.8921873e-09 0)
(0.003769837 2.6052525e-09 0)
(0.0037610049 2.3574887e-09 0)
(0.0037528845 2.1421439e-09 0)
(0.0037453868 1.9538619e-09 0)
(0.0037384368 1.7883466e-09 0)
(0.0037319713 1.6421204e-09 0)
(0.0037259361 1.5123432e-09 0)
(0.0037202846 1.3966765e-09 0)
(0.0037149769 1.2931799e-09 0)
(0.0037099779 1.2002324e-09 0)
(0.0037052574 1.1164719e-09 0)
(0.0037007887 1.0407466e-09 0)
(0.0036965483 9.7207798e-10 0)
(0.0036925154 9.096292e-10 0)
(0.0036886717 8.5268195e-10 0)
(0.0036850009 8.0061703e-10 0)
(0.0036814882 7.5289855e-10 0)
(0.0036781205 7.0906055e-10 0)
(0.0036748861 6.6869597e-10 0)
(0.0036717744 6.3144817e-10 0)
(0.0036687758 5.9700359e-10 0)
(0.0036658815 5.650859e-10 0)
(0.0036630837 5.3545108e-10 0)
(0.0036603752 5.0788277e-10 0)
(0.0036577495 4.8218834e-10 0)
(0.0036552006 4.5819625e-10 0)
(0.0036527231 4.3575384e-10 0)
(0.0036503119 4.1472445e-10 0)
(0.0036479624 3.9498525e-10 0)
(0.0036456706 3.7642579e-10 0)
(0.0036434323 3.5894658e-10 0)
(0.0036412441 3.4245797e-10 0)
(0.0036391028 3.2687665e-10 -1.6222041e-24)
(0.0036370051 3.1213488e-10 -3.0377e-25)
(0.0036349483 2.981685e-10 6.5547599e-26)
(0.0036329299 2.8490722e-10 0)
(0.0036309473 2.7229983e-10 0)
(0.0036289983 2.6030077e-10 0)
(0.003627081 2.4886402e-10 0)
(0.0036251934 2.3795003e-10 0)
(0.0036233336 2.2752027e-10 0)
(0.0036215 2.1753819e-10 0)
(0.0036196912 2.0798157e-10 0)
(0.0036179056 1.9881995e-10 0)
(0.0036161419 1.9001193e-10 0)
(0.003614399 1.8154682e-10 0)
(0.0036126758 1.7340896e-10 0)
(0.0036109711 1.6557203e-10 0)
(0.003609284 1.5802087e-10 0)
(0.0036076137 1.5073946e-10 0)
(0.0036059593 1.4371272e-10 0)
(0.00360432 1.369274e-10 0)
(0.0036026951 1.3037184e-10 0)
(0.0036010841 1.2403529e-10 0)
(0.0035994864 1.1790761e-10 0)
(0.0035979014 1.1197968e-10 0)
(0.0035963288 1.0624412e-10 0)
(0.003594768 1.0069445e-10 0)
(0.0035932187 9.5324153e-11 0)
(0.0035916807 9.0127142e-11 0)
(0.0035901537 8.5098197e-11 0)
(0.0035886374 8.0232548e-11 0)
(0.0035871317 7.5525456e-11 0)
(0.0035856365 7.0972295e-11 0)
(0.0035841519 6.6569021e-11 0)
(0.0035826779 6.2308735e-11 0)
(0.0035812148 5.8188597e-11 0)
(0.003579763 5.4145217e-11 0)
(0.0035783262 5.0355769e-11 0)
(0.0035768951 4.5491902e-11 0)
(0.0035755842 3.9250913e-11 0)
(0.00357445 3.3786552e-11 0)
(0.0035734591 2.9660026e-11 0)
(0.0035725809 2.6401633e-11 0)
(0.0035717931 2.3760558e-11 0)
(0.0035710798 2.1559399e-11 0)
(0.0035704297 1.9681456e-11 0)
(0.0035698341 1.8054095e-11 0)
(0.0035692861 1.6629245e-11 0)
(0.00356878 1.5371981e-11 0)
(0.0035683111 1.4255573e-11 0)
(0.0035678752 1.3259285e-11 0)
(0.003567469 1.2366809e-11 0)
(0.0035670894 1.156568e-11 0)
(0.0035667337 1.0845462e-11 0)
(0.0035663996 1.0203083e-11 0)
(0.0035660844 9.625833e-12 0)
(0.0035657867 9.1652099e-12 0)
(0.0035655007 8.6902464e-12 0)
(0.003565233 8.83064e-12 0)
(0.0035649385 8.2910995e-12 0)
(0.0035647124 8.9880118e-12 -2.028244e-24)
(0.0035643614 5.6606158e-12 2.665555e-25)
(1 9.2421892e-11 0)
(0.9999985 2.2576638e-10 0)
(0.99999659 3.0062969e-10 0)
(0.99999447 3.8405409e-10 0)
(0.99999206 5.0292016e-10 0)
(0.99998924 6.6792381e-10 0)
(0.99998593 8.9432678e-10 0)
(0.99998202 1.2039316e-09 0)
(0.99997735 1.6281108e-09 0)
(0.99997177 2.2118347e-09 0)
(0.99996505 3.0194934e-09 0)
(0.9999569 4.1457289e-09 0)
(0.99994694 5.7296775e-09 0)
(0.99993464 7.9958368e-09 0)
(0.99991923 1.1265884e-08 0)
(0.99989968 1.6224223e-08 0)
(0.99987394 2.3532227e-08 0)
(0.99984018 3.652829e-08 0)
(0.99978989 5.4151667e-08 0)
(0.99972517 1.021736e-07 0)
(0.99958965 1.3974079e-07 0)
(0.99946396 3.7463945e-07 0)
(0.99893034 8.3015709e-08 -1.035257e-20)
(0.99931358 0.00062810612 6.1451442e-55)
(0.017538482 0.00063083173 -6.1493344e-55)
(0.009091206 2.9596592e-06 0)
(0.0078304315 5.1900163e-07 -8.5513092e-22)
(0.0073534253 2.1249868e-07 0)
(0.007111774 1.1792822e-07 0)
(0.0069508793 8.1042062e-08 0)
(0.0068325553 6.0205492e-08 0)
(0.0067414824 4.6611746e-08 0)
(0.0066688642 3.7207901e-08 0)
(0.0066095131 3.0380932e-08 0)
(0.0065600056 2.5278424e-08 0)
(0.0065179864 2.1364598e-08 0)
(0.006481817 1.8287272e-08 0)
(0.0064503213 1.5818856e-08 0)
(0.0064226233 1.3808239e-08 0)
(0.0063980525 1.2149661e-08 0)
(0.0063760868 1.0765774e-08 0)
(0.0063563154 9.5991577e-09 0)
(0.0063384094 8.6067341e-09 0)
(0.0063221029 7.7556197e-09 0)
(0.0063071782 7.0203722e-09 0)
(0.0062934554 6.3810559e-09 0)
(0.0062807843 5.8218494e-09 0)
(0.0062690385 5.3300596e-09 0)
(0.006258111 4.8954086e-09 0)
(0.0062479104 4.5095012e-09 0)
(0.0062383582 4.1654219e-09 0)
(0.0062293866 3.8574305e-09 0)
(0.0062209368 3.5807316e-09 0)
(0.0062129575 3.331294e-09 0)
(0.0062054037 3.1057084e-09 0)
(0.0061982356 2.9010771e-09 0)
(0.0061914184 2.7149218e-09 0)
(0.0061849209 2.5451143e-09 0)
(0.0061787154 2.3898197e-09 0)
(0.0061727773 2.2474496e-09 0)
(0.0061670844 2.1166228e-09 0)
(0.0061616167 1.9961321e-09 0)
(0.0061563564 1.8849195e-09 0)
(0.0061512873 1.7820547e-09 0)
(0.0061463946 1.6867176e-09 0)
(0.0061416651 1.5981838e-09 0)
(0.0061370866 1.5158109e-09 0)
(0.006132648 1.4390266e-09 0)
(0.0061283394 1.3673211e-09 0)
(0.0061241514 1.3002408e-09 0)
(0.0061200756 1.2373796e-09 0)
(0.0061161043 1.1783722e-09 0)
(0.0061122303 1.12289e-09 0)
(0.0061084471 1.0706368e-09 0)
(0.0061047485 1.021346e-09 0)
(0.0061011291 9.747667e-10 0)
(0.0060975837 9.3070705e-10 6.4454657e-25)
(0.0060941074 8.8896226e-10 0)
(0.0060906959 8.493273e-10 0)
(0.0060873451 8.1165857e-10 0)
(0.0060840513 7.7580669e-10 0)
(0.0060808109 7.416418e-10 0)
(0.0060776207 7.0904462e-10 0)
(0.0060744777 6.7789957e-10 0)
(0.006071379 6.4809793e-10 0)
(0.0060683222 6.1957164e-10 0)
(0.0060653046 5.9223014e-10 0)
(0.0060623241 5.6595241e-10 0)
(0.0060593789 5.4070347e-10 0)
(0.0060564668 5.1643526e-10 0)
(0.0060535861 4.9307072e-10 0)
(0.0060507353 4.7056383e-10 0)
(0.0060479127 4.4886633e-10 0)
(0.006045117 4.279328e-10 0)
(0.0060423469 4.0772336e-10 0)
(0.0060396012 3.8820283e-10 0)
(0.0060368789 3.6933868e-10 0)
(0.006034179 3.5110016e-10 0)
(0.0060315006 3.334598e-10 0)
(0.0060288431 3.1639522e-10 0)
(0.0060262056 2.9988666e-10 0)
(0.0060235876 2.8391423e-10 0)
(0.0060209885 2.6845941e-10 0)
(0.0060184079 2.5350629e-10 0)
(0.0060158454 2.3904026e-10 0)
(0.0060133008 2.2504681e-10 0)
(0.006010774 2.1151184e-10 0)
(0.0060082649 1.9842305e-10 0)
(0.0060057736 1.8575975e-10 0)
(0.0060033008 1.7351303e-10 0)
(0.0060008469 1.6149728e-10 0)
(0.0059984182 1.5022577e-10 0)
(0.0059959993 1.3589218e-10 0)
(0.0059937825 1.1760344e-10 0)
(0.0059918635 1.0152832e-10 0)
(0.0059901866 8.9306977e-11 0)
(0.0059886999 7.96163e-11 0)
(0.0059873659 7.1739286e-11 0)
(0.0059861579 6.5160556e-11 0)
(0.0059850568 5.9538758e-11 0)
(0.0059840479 5.466072e-11 0)
(0.0059831195 5.0384959e-11 0)
(0.005982262 4.6608422e-11 0)
(0.0059814674 4.3252051e-11 0)
(0.0059807288 4.0254416e-11 0)
(0.0059800403 3.7567169e-11 0)
(0.0059793969 3.5153334e-11 0)
(0.005978794 3.2981919e-11 0)
(0.0059782275 3.1044015e-11 0)
(0.0059776932 2.9301742e-11 0)
(0.0059771885 2.7909964e-11 0)
(0.0059767035 2.6474904e-11 0)
(0.0059762497 2.6878511e-11 0)
(0.0059757505 2.4889974e-11 0)
(0.0059753671 2.7474409e-11 0)
(0.0059747718 1.6949915e-11 0)
(1 1.3654077e-10 8.8543036e-25)
(0.99999839 3.3388398e-10 0)
(0.99999632 4.4493987e-10 0)
(0.99999403 5.6840377e-10 0)
(0.99999142 7.4428385e-10 0)
(0.99998838 9.8819376e-10 0)
(0.99998481 1.3225401e-09 0)
(0.99998058 1.7794153e-09 0)
(0.99997556 2.4049648e-09 0)
(0.99996955 3.2652733e-09 0)
(0.99996232 4.4548959e-09 0)
(0.99995356 6.1127464e-09 0)
(0.99994287 8.4428996e-09 0)
(0.99992969 1.1774603e-08 0)
(0.99991319 1.6578856e-08 0)
(0.99989229 2.3859046e-08 0)
(0.9998648 3.4579008e-08 0)
(0.99982879 5.3632555e-08 0)
(0.99977523 7.943032e-08 0)
(0.99970647 1.4970864e-07 0)
(0.99956268 2.0473887e-07 0)
(0.99942924 5.4850477e-07 0)
(0.99886383 1.2103145e-07 0)
(0.9992714 0.0008889907 -3.2058027e-55)
(0.024826667 0.00089464533 3.208119e-55)
(0.012881206 6.0510013e-06 0)
(0.011086253 1.0697914e-06 0)
(0.010406198 4.3825454e-07 0)
(0.010061455 2.432497e-07 0)
(0.0098319071 1.6716152e-07 0)
(0.009663085 1.2418689e-07 0)
(0.0095331318 9.6149152e-08 0)
(0.0094294998 7.67534e-08 0)
(0.0093447898 6.2672783e-08 0)
(0.0092741197 5.2148661e-08 0)
(0.0092141312 4.4076049e-08 0)
(0.0091624881 3.7728661e-08 0)
(0.0091175129 3.26371e-08 0)
(0.0090779566 2.8489711e-08 0)
(0.0090428626 2.5068387e-08 0)
(0.0090114866 2.2213622e-08 0)
(0.0089832423 1.9806988e-08 0)
(0.0089576607 1.7759645e-08 0)
(0.0089343624 1.6003773e-08 0)
(0.0089130369 1.4486895e-08 0)
(0.0088934273 1.3167896e-08 0)
(0.0088753194 1.2014144e-08 0)
(0.0088585329 1.0999458e-08 0)
(0.008842915 1.0102641e-08 0)
(0.0088283353 9.3063765e-09 0)
(0.0088146817 8.5964005e-09 0)
(0.0088018576 7.9608733e-09 0)
(0.0087897789 7.3899034e-09 0)
(0.0087783723 6.8751751e-09 0)
(0.0087675737 6.4096565e-09 0)
(0.0087573263 5.9873699e-09 0)
(0.0087475803 5.6032031e-09 0)
(0.0087382912 5.2527662e-09 0)
(0.0087294196 4.9322737e-09 0)
(0.0087209301 4.6384491e-09 0)
(0.0087127911 4.3684427e-09 0)
(0.0087049741 4.1197645e-09 0)
(0.0086974536 3.8902317e-09 0)
(0.0086902064 3.6779249e-09 0)
(0.0086832116 3.4811524e-09 0)
(0.00867645 3.2984194e-09 0)
(0.0086699045 3.1284006e-09 0)
(0.0086635591 2.9699153e-09 0)
(0.0086573995 2.8219118e-09 0)
(0.0086514126 2.6834542e-09 0)
(0.0086455862 2.5537043e-09 0)
(0.0086399092 2.4319086e-09 0)
(0.0086343714 2.3173888e-09 0)
(0.0086289635 2.2095342e-09 0)
(0.0086236767 2.1077941e-09 0)
(0.0086185033 2.0116512e-09 0)
(0.0086134356 1.9207091e-09 0)
(0.0086084669 1.8345457e-09 0)
(0.008603591 1.7527381e-09 0)
(0.0085988019 1.6749891e-09 0)
(0.0085940944 1.6009908e-09 0)
(0.0085894634 1.5304753e-09 0)
(0.0085849042 1.4631963e-09 0)
(0.0085804124 1.3989153e-09 0)
(0.0085759842 1.337408e-09 0)
(0.0085716159 1.2785335e-09 0)
(0.0085673037 1.2221051e-09 0)
(0.0085630446 1.1678733e-09 0)
(0.008558836 1.1157657e-09 0)
(0.0085546748 1.0656827e-09 0)
(0.0085505585 1.0174654e-09 0)
(0.0085464849 9.7101893e-10 0)
(0.0085424516 9.262435e-10 0)
(0.0085384568 8.8304538e-10 0)
(0.0085344987 8.4134215e-10 0)
(0.0085305754 8.0106116e-10 0)
(0.0085266855 7.6213526e-10 0)
(0.0085228276 7.2450089e-10 0)
(0.0085190005 6.8810128e-10 0)
(0.0085152031 6.5289023e-10 0)
(0.0085114343 6.1882692e-10 0)
(0.0085076933 5.8587024e-10 0)
(0.0085039792 5.5398189e-10 0)
(0.0085002915 5.2312898e-10 0)
(0.0084966296 4.9328131e-10 0)
(0.0084929932 4.6440888e-10 0)
(0.008489382 4.3648261e-10 0)
(0.008485796 4.0947702e-10 0)
(0.0084822355 3.8334942e-10 0)
(0.008478701 3.5808138e-10 0)
(0.0084751934 3.3329044e-10 0)
(0.0084717218 3.1003357e-10 0)
(0.0084682639 2.804765e-10 0)
(0.0084650932 2.4277797e-10 0)
(0.0084623463 2.0963429e-10 0)
(0.0084599448 1.8442544e-10 0)
(0.0084578149 1.6443099e-10 0)
(0.0084559032 1.4817502e-10 0)
(0.0084541717 1.3459646e-10 0)
(0.008452593 1.2299172e-10 0)
(0.0084511463 1.1292134e-10 0)
(0.0084498148 1.0409362e-10 0)
(0.0084485848 9.6296053e-11 0)
(0.0084474448 8.9365555e-11 0)
(0.008446385 8.3175449e-11 0)
(0.0084453971 7.7625982e-11 0)
(0.0084444736 7.2640858e-11 0)
(0.0084436082 6.815613e-11 0)
(0.008442795 6.4153406e-11 0)
(0.008442028 6.0554464e-11 0)
(0.0084413033 5.7678802e-11 0)
(0.008440607 5.4713611e-11 0)
(0.0084399553 5.5541491e-11 0)
(0.008439239 5.145756e-11 0)
(0.0084386882 5.684722e-11 0)
(0.0084378331 3.4968329e-11 0)
(1 1.8651848e-10 0)
(0.99999826 4.5666472e-10 0)
(0.99999601 6.0906635e-10 0)
(0.99999353 7.7806723e-10 0)
(0.9999907 1.0187584e-09 0)
(0.9999874 1.3522142e-09 0)
(0.99998353 1.8088505e-09 0)
(0.99997896 2.4323485e-09 0)
(0.99997352 3.2854693e-09 0)
(0.99996703 4.4580064e-09 0)
(0.99995922 6.0783421e-09 0)
(0.99994979 8.3349937e-09 0)
(0.99993827 1.1504698e-08 0)
(0.99992409 1.603389e-08 0)
(0.99990637 2.2560119e-08 0)
(0.99988393 3.2443383e-08 0)
(0.99985447 4.6981901e-08 0)
(0.99981594 7.2808027e-08 0)
(0.99975871 1.0771916e-07 0)
(0.99968539 2.0279798e-07 0)
(0.99953232 2.773206e-07 0)
(0.99939018 7.4239014e-07 0)
(0.99878911 1.62938e-07 0)
(0.99922383 0.0011609045 0)
(0.0324169 0.0011704646 0)
(0.016826579 1.0423679e-05 0)
(0.014466844 1.8580142e-06 0)
(0.01357117 7.6178858e-07 0)
(0.013116787 4.2293445e-07 0)
(0.012814192 2.9065128e-07 0)
(0.012591632 2.1593959e-07 0)
(0.012420291 1.6719703e-07 0)
(0.012283633 1.3347904e-07 0)
(0.012171906 1.090009e-07 0)
(0.01207868 9.0704557e-08 0)
(0.011999532 7.6669331e-08 0)
(0.011931383 6.5632942e-08 0)
(0.011872025 5.6779545e-08 0)
(0.011819811 4.9567452e-08 0)
(0.011773481 4.3617577e-08 0)
(0.011732054 3.8652684e-08 0)
(0.011694757 3.4466915e-08 0)
(0.011660973 3.0905839e-08 0)
(0.011630201 2.7851557e-08 0)
(0.011602032 2.5212848e-08 0)
(0.011576127 2.2918231e-08 0)
(0.011552204 2.0910977e-08 0)
(0.011530025 1.914557e-08 0)
(0.011509388 1.7585152e-08 0)
(0.011490122 1.6199617e-08 0)
(0.011472079 1.4964166e-08 0)
(0.01145513 1.3858209e-08 0)
(0.011439167 1.2864548e-08 0)
(0.011424091 1.1968721e-08 0)
(0.011409818 1.1158501e-08 0)
(0.011396273 1.0423492e-08 0)
(0.011383391 9.7548031e-09 0)
(0.011371112 9.1447999e-09 0)
(0.011359385 8.5868984e-09 0)
(0.011348163 8.0753998e-09 0)
(0.011337404 7.6053477e-09 0)
(0.011327071 7.1724108e-09 0)
(0.011317129 6.7727927e-09 0)
(0.011307549 6.4031542e-09 0)
(0.011298303 6.0605523e-09 0)
(0.011289365 5.742387e-09 0)
(0.011280713 5.4463524e-09 0)
(0.011272326 5.1703944e-09 0)
(0.011264184 4.9126835e-09 0)
(0.011256271 4.6715909e-09 0)
(0.01124857 4.4456586e-09 0)
(0.011241066 4.2335752e-09 0)
(0.011233747 4.0341606e-09 0)
(0.0112266 3.8463517e-09 0)
(0.011219613 3.6691903e-09 0)
(0.011212777 3.5017758e-09 0)
(0.01120608 3.3434193e-09 0)
(0.011199514 3.1933856e-09 0)
(0.011193071 3.0509377e-09 0)
(0.011186743 2.9155593e-09 0)
(0.011180522 2.786714e-09 0)
(0.011174404 2.6639354e-09 0)
(0.01116838 2.546795e-09 0)
(0.011162445 2.4348772e-09 0)
(0.011156595 2.3277916e-09 0)
(0.011150824 2.2252924e-09 0)
(0.011145127 2.1270544e-09 0)
(0.0111395 2.0326449e-09 0)
(0.01113394 1.9419358e-09 0)
(0.011128443 1.8547535e-09 0)
(0.011123006 1.770822e-09 0)
(0.011117625 1.6899757e-09 0)
(0.011112297 1.6120406e-09 0)
(0.01110702 1.5368535e-09 0)
(0.011101791 1.4642707e-09 0)
(0.011096609 1.3941654e-09 0)
(0.01109147 1.3264207e-09 0)
(0.011086374 1.2609255e-09 0)
(0.011081319 1.197581e-09 0)
(0.011076302 1.1363065e-09 0)
(0.011071324 1.0770308e-09 0)
(0.011066382 1.0196821e-09 0)
(0.011061475 9.6419354e-10 0)
(0.011056603 9.1050768e-10 0)
(0.011051766 8.5857178e-10 0)
(0.011046961 8.0833344e-10 0)
(0.01104219 7.5974193e-10 0)
(0.011037452 7.1275274e-10 0)
(0.011032747 6.6729153e-10 0)
(0.011028076 6.2332597e-10 0)
(0.011023441 5.8019225e-10 0)
(0.011018852 5.3972245e-10 0)
(0.011014282 4.8835298e-10 0)
(0.011010088 4.2288476e-10 0)
(0.011006451 3.652979e-10 0)
(0.01100327 3.21459e-10 0)
(0.011000446 2.8666827e-10 0)
(0.010997912 2.5837128e-10 0)
(0.010995615 2.3472796e-10 0)
(0.01099352 2.1451699e-10 0)
(0.0109916 1.9697509e-10 0)
(0.010989833 1.815954e-10 0)
(0.0109882 1.6800856e-10 0)
(0.010986686 1.5593106e-10 0)
(0.010985278 1.4514258e-10 0)
(0.010983966 1.3546959e-10 0)
(0.010982739 1.267794e-10 0)
(0.010981589 1.1896075e-10 0)
(0.010980508 1.1198166e-10 0)
(0.010979489 1.0570598e-10 0)
(0.010978525 1.0068987e-10 0)
(0.0109776 9.551795e-11 0)
(0.010976733 9.6945969e-11 0)
(0.010975782 8.9844443e-11 0)
(0.010975049 9.9327862e-11 -2.6128294e-24)
(0.010973912 6.0990638e-11 3.4338726e-25)
(1 2.4400467e-10 0)
(0.99999811 5.9823327e-10 0)
(0.99999567 7.9860583e-10 0)
(0.99999296 1.0201967e-09 0)
(0.99998988 1.3356957e-09 0)
(0.99998629 1.7723361e-09 0)
(0.99998208 2.3696495e-09 0)
(0.99997711 3.1845676e-09 0)
(0.9999712 4.2988263e-09 0)
(0.99996416 5.8292479e-09 0)
(0.99995571 7.9427275e-09 0)
(0.99994549 1.0884206e-08 0)
(0.99993304 1.5012961e-08 0)
(0.99991773 2.0908521e-08 0)
(0.99989861 2.9397011e-08 0)
(0.99987445 4.2243142e-08 0)
(0.99984275 6.1120322e-08 0)
(0.99980137 9.463345e-08 0)
(0.99973999 1.3985873e-07 0)
(0.99966153 2.6298944e-07 0)
(0.99949799 3.5960128e-07 0)
(0.99934602 9.6188368e-07 0)
(0.99870475 2.0996435e-07 0)
(0.99916996 0.0014475652 0)
(0.040407756 0.0014624151 0)
(0.020973715 1.6382354e-05 0)
(0.018008814 2.9318674e-06 0)
(0.016880882 1.2033968e-06 0)
(0.0163082 6.6834169e-07 0)
(0.015926737 4.5933761e-07 0)
(0.015646146 3.4128721e-07 0)
(0.015430097 2.6427549e-07 0)
(0.015257744 2.1100404e-07 0)
(0.015116803 1.7232984e-07 0)
(0.014999174 1.4342035e-07 0)
(0.014899286 1.212416e-07 0)
(0.014813262 1.0380002e-07 0)
(0.01473832 8.9807056e-08 0)
(0.014672387 7.8407143e-08 0)
(0.014613873 6.9001526e-08 0)
(0.014561544 6.115229e-08 0)
(0.014514425 5.4534234e-08 0)
(0.014471738 4.890339e-08 0)
(0.014432851 4.407349e-08 -2.9932765e-35)
(0.01439725 3.9900414e-08 0)
(0.014364506 3.6271217e-08 0)
(0.014334264 3.3096263e-08 0)
(0.014306224 3.030363e-08 0)
(0.014280132 2.7835072e-08 0)
(0.014255771 2.5643013e-08 0)
(0.014232954 2.3688257e-08 0)
(0.014211521 2.1938267e-08 0)
(0.014191331 2.0365856e-08 0)
(0.014172263 1.8948166e-08 0)
(0.01415421 1.7665869e-08 0)
(0.014137078 1.6502531e-08 0)
(0.014120782 1.5444098e-08 0)
(0.01410525 1.4478499e-08 0)
(0.014090415 1.3595323e-08 0)
(0.014076219 1.2785562e-08 0)
(0.014062609 1.2041378e-08 0)
(0.014049537 1.1355921e-08 0)
(0.014036961 1.0723189e-08 0)
(0.014024842 1.0137902e-08 0)
(0.014013146 9.5954035e-09 0)
(0.01400184 9.0915825e-09 0)
(0.013990895 8.6227918e-09 0)
(0.013980285 8.1857823e-09 0)
(0.013969987 7.7776599e-09 0)
(0.013959978 7.3958482e-09 0)
(0.013950237 7.0380406e-09 0)
(0.013940747 6.702162e-09 0)
(0.013931491 6.3863454e-09 0)
(0.013922451 6.0889088e-09 0)
(0.013913616 5.8083356e-09 0)
(0.01390497 5.5432002e-09 0)
(0.013896501 5.2924134e-09 0)
(0.013888198 5.0548117e-09 0)
(0.013880051 4.8292276e-09 0)
(0.01387205 4.6148432e-09 0)
(0.013864185 4.4108101e-09 0)
(0.013856449 4.21639e-09 0)
(0.013848833 4.0309045e-09 0)
(0.013841331 3.8536951e-09 0)
(0.013833935 3.6841441e-09 0)
(0.013826639 3.5218605e-09 0)
(0.013819438 3.3663298e-09 0)
(0.013812325 3.2168695e-09 0)
(0.013805298 3.0732741e-09 0)
(0.013798349 2.9352665e-09 0)
(0.013791476 2.8024118e-09 0)
(0.013784675 2.6744468e-09 0)
(0.013777941 2.5510958e-09 0)
(0.013771271 2.4320997e-09 0)
(0.013764662 2.3172307e-09 0)
(0.013758112 2.2062876e-09 0)
(0.013751618 2.0990849e-09 0)
(0.013745176 1.9954462e-09 0)
(0.013738787 1.8952146e-09 0)
(0.013732446 1.7982621e-09 0)
(0.013726153 1.7044756e-09 0)
(0.013719906 1.6137409e-09 0)
(0.013713704 1.5259517e-09 0)
(0.013707546 1.4410166e-09 0)
(0.01370143 1.3588518e-09 0)
(0.013695356 1.279374e-09 0)
(0.013689324 1.2025026e-09 0)
(0.013683333 1.1281667e-09 0)
(0.013677384 1.0562486e-09 0)
(0.013671478 9.8669669e-10 0)
(0.013665616 9.1846425e-10 0)
(0.013659813 8.5443406e-10 0)
(0.013654032 7.7330436e-10 0)
(0.013648723 6.7002277e-10 0)
(0.013644113 5.7910652e-10 0)
(0.013640076 5.0980549e-10 0)
(0.013636493 4.5476315e-10 0)
(0.013633274 4.0996976e-10 0)
(0.013630356 3.7252757e-10 0)
(0.013627694 3.405109e-10 0)
(0.013625254 3.1271527e-10 0)
(0.013623006 2.8834045e-10 0)
(0.013620929 2.6680293e-10 0)
(0.013619003 2.4765469e-10 0)
(0.013617212 2.3054743e-10 0)
(0.013615542 2.1520678e-10 0)
(0.01361398 2.0142288e-10 0)
(0.013612516 1.8901973e-10 0)
(0.013611139 1.7794688e-10 0)
(0.013609841 1.6798883e-10 0)
(0.013608614 1.600263e-10 0)
(0.013607434 1.5181759e-10 0)
(0.01360633 1.5405173e-10 0)
(0.013605119 1.4276907e-10 0)
(0.013604185 1.5798173e-10 0)
(0.013602735 9.6876349e-11 -1.959814e-25)
(1 3.1108654e-10 0)
(0.99999794 7.6383663e-10 0)
(0.99999527 1.0206924e-09 0)
(0.99999232 1.3039096e-09 0)
(0.99998894 1.7070156e-09 0)
(0.99998502 2.264293e-09 0)
(0.99998042 3.0257983e-09 0)
(0.99997499 4.0638339e-09 0)
(0.99996856 5.4821182e-09 0)
(0.99996088 7.4287334e-09 0)
(0.99995169 1.0115055e-08 0)
(0.99994058 1.3851132e-08 0)
(0.99992707 1.9091352e-08 0)
(0.99991047 2.6568572e-08 0)
(0.99988977 3.7325491e-08 0)
(0.99986363 5.3592698e-08 0)
(0.99982939 7.7470513e-08 0)
(0.99978477 1.198338e-07 0)
(0.99971868 1.7689951e-07 0)
(0.99963438 3.3221177e-07 0)
(0.99945901 4.5421658e-07 0)
(0.99929588 1.2139275e-06 0)
(0.9986091 2.6358287e-07 0)
(0.99910871 0.0017527821 0)
(0.048900473 0.0017746074 0)
(0.025370644 2.4259755e-05 0)
(0.021749641 4.3590383e-06 0)
(0.020368385 1.7915529e-06 0)
(0.019666438 9.9541134e-07 0)
(0.019198726 6.8420254e-07 0)
(0.018854663 5.0840058e-07 0)
(0.018589694 3.9372603e-07 0)
(0.018378262 3.1440588e-07 0)
(0.018205317 2.568187e-07 0)
(0.018060938 2.137673e-07 0)
(0.017938303 1.8073522e-07 0)
(0.017832665 1.5475529e-07 0)
(0.017740614 1.3390975e-07 0)
(0.017659611 1.1692514e-07 0)
(0.017587709 1.0291024e-07 0)
(0.017523395 9.1213144e-08 0)
(0.017465474 8.1349712e-08 0)
(0.017412991 7.2956707e-08 0)
(0.017365174 6.5756783e-08 3.2288567e-35)
(0.017321391 5.9535344e-08 0)
(0.017281116 5.4124195e-08 0)
(0.017243914 4.9389857e-08 0)
(0.017209417 4.5225209e-08 0)
(0.017177312 4.1543502e-08 0)
(0.017147334 3.8273873e-08 0)
(0.017119255 3.5357935e-08 0)
(0.017092876 3.2747219e-08 0)
(0.017068026 3.0401219e-08 0)
(0.017044555 2.8285882e-08 0)
(0.017022332 2.6372409e-08 0)
(0.017001241 2.4636313e-08 0)
(0.01698118 2.3056651e-08 0)
(0.016962058 2.1615434e-08 0)
(0.016943794 2.0297147e-08 0)
(0.016926316 1.9088362e-08 0)
(0.016909559 1.7977399e-08 0)
(0.016893465 1.6954048e-08 0)
(0.016877982 1.600936e-08 0)
(0.016863061 1.5135462e-08 0)
(0.01684866 1.4325415e-08 0)
(0.016834741 1.3573089e-08 0)
(0.016821266 1.2873045e-08 0)
(0.016808205 1.2220438e-08 0)
(0.016795527 1.1610952e-08 0)
(0.016783205 1.1040745e-08 0)
(0.016771215 1.0506377e-08 0)
(0.016759533 1.0004753e-08 0)
(0.016748139 9.5330878e-09 0)
(0.016737013 9.0888716e-09 0)
(0.016726138 8.669842e-09 0)
(0.016715497 8.2738713e-09 -1.3918552e-24)
(0.016705075 7.8993349e-09 -1.0450727e-24)
(0.016694858 7.5444984e-09 -1.0938157e-25)
(0.016684832 7.2076165e-09 0)
(0.016674986 6.8874676e-09 0)
(0.016665309 6.5827867e-09 0)
(0.016655791 6.2924721e-09 0)
(0.016646421 6.0155107e-09 0)
(0.01663719 5.7509187e-09 0)
(0.016628091 5.4977747e-09 0)
(0.016619116 5.2554913e-09 0)
(0.016610258 5.0233011e-09 0)
(0.016601509 4.8001906e-09 0)
(0.016592864 4.5858466e-09 0)
(0.016584317 4.3798531e-09 0)
(0.016575863 4.1815632e-09 0)
(0.016567497 3.9905829e-09 0)
(0.016559214 3.8064998e-09 0)
(0.016551011 3.628926e-09 0)
(0.016542882 3.4575207e-09 0)
(0.016534826 3.291983e-09 0)
(0.016526838 3.1320348e-09 0)
(0.016518916 2.9774122e-09 0)
(0.016511056 2.8278798e-09 0)
(0.016503257 2.6832463e-09 0)
(0.016495517 2.5433419e-09 0)
(0.016487833 2.4079953e-09 0)
(0.016480204 2.277047e-09 0)
(0.016472628 2.1503599e-09 0)
(0.016465104 2.027808e-09 0)
(0.016457631 1.9092663e-09 0)
(0.016450209 1.7946139e-09 0)
(0.016442838 1.6837446e-09 0)
(0.016435518 1.5764825e-09 0)
(0.016428249 1.4727494e-09 0)
(0.016421034 1.3709908e-09 0)
(0.016413891 1.2754775e-09 0)
(0.016406775 1.1547263e-09 0)
(0.016400232 1.0012182e-09 0)
(0.016394543 8.659628e-10 0)
(0.016389557 7.6269814e-10 0)
(0.016385127 6.805978e-10 0)
(0.016381146 6.1373819e-10 0)
(0.016377535 5.578229e-10 0)
(0.01637424 5.0999134e-10 0)
(0.016371218 4.6845272e-10 0)
(0.016368434 4.3201647e-10 0)
(0.01636586 3.998139e-10 0)
(0.016363473 3.7117767e-10 0)
(0.016361252 3.4558877e-10 0)
(0.016359181 3.2263825e-10 0)
(0.016357244 3.0201322e-10 0)
(0.016355427 2.8345129e-10 0)
(0.016353719 2.6687742e-10 0)
(0.016352107 2.5197014e-10 0)
(0.016350584 2.4004482e-10 0)
(0.01634912 2.277531e-10 0)
(0.016347748 2.3104141e-10 0)
(0.016346245 2.1411734e-10 -3.9360448e-25)
(0.016345086 2.3714449e-10 0)
(0.016343284 1.4528437e-10 0)
(1 3.9040247e-10 0)
(0.99999775 9.6013998e-10 0)
(0.99999481 1.2844091e-09 0)
(0.99999157 1.6408156e-09 0)
(0.99998787 2.147893e-09 0)