/*--------------------------------*- C++ -*----------------------------------*\
| =========                 |                                                 |
| \\      /  F ield         | OpenFOAM: The Open Source CFD Toolbox           |
|  \\    /   O peration     | Version:  2206                                  |
|   \\  /    A nd           | Website:  www.openfoam.com                      |
|    \\/     M anipulation  |                                                 |
\*---------------------------------------------------------------------------*/
FoamFile
{
    version     2.0;
    format      ascii;
    arch        "LSB;label=32;scalar=64";
    class       volScalarField;
    location    "600";
    object      k;
}
// * * * * * * * * * * * * * * * * * * * * * * * * * * * * * * * * * * * * * //

dimensions      [0 2 -2 0 0 0 0];

internalField   nonuniform List<scalar> 
13056
(
0.00011601958
0.00010844709
0.00010776341
0.00010783446
0.00010788194
0.00010789413
0.00010789758
0.00010789975
0.00010790205
0.00010790476
0.00010790805
0.00010791211
0.00010791715
0.00010792348
0.00010793151
0.00010794187
0.00010795558
0.00010797398
0.00010800156
0.00010803477
0.00010813599
0.00010803601
0.00010962465
4.6236195e-05
3.2093465e-07
4.9353983e-08
2.4966113e-08
1.6822683e-08
1.2846306e-08
1.0427393e-08
8.7923626e-09
7.5985329e-09
6.6872024e-09
5.96868e-09
5.3863264e-09
4.9040776e-09
4.4978851e-09
4.1509242e-09
3.8510001e-09
3.5890362e-09
3.3582476e-09
3.1531365e-09
2.9697683e-09
2.8047424e-09
2.6554167e-09
2.5196208e-09
2.3955653e-09
2.2817653e-09
2.1769772e-09
2.0801551e-09
1.9904079e-09
1.9069701e-09
1.8291852e-09
1.756485e-09
1.6883763e-09
1.6244306e-09
1.56427e-09
1.5075604e-09
1.4540075e-09
1.4033503e-09
1.3553563e-09
1.3098191e-09
1.2665562e-09
1.2254031e-09
1.1862098e-09
1.1488418e-09
1.1131794e-09
1.0791154e-09
1.0465532e-09
1.0154061e-09
9.8559906e-10
9.5706608e-10
9.2974931e-10
9.0359892e-10
8.7857212e-10
8.5463342e-10
8.3175471e-10
8.0991937e-10
7.8912934e-10
7.6939587e-10
7.5073862e-10
7.3319035e-10
7.167911e-10
7.0159437e-10
6.8769022e-10
6.7518996e-10
6.6423447e-10
6.5520806e-10
6.4772907e-10
6.4391473e-10
6.4205065e-10
6.4395362e-10
6.4977612e-10
6.6025178e-10
6.7607962e-10
6.9793463e-10
7.2592412e-10
7.6008983e-10
8.0067002e-10
8.4626925e-10
8.9301269e-10
9.3740479e-10
9.7411274e-10
1.0040906e-09
1.0265201e-09
1.0430485e-09
1.0550401e-09
1.0635473e-09
1.0693589e-09
1.0729101e-09
1.0745262e-09
1.0744558e-09
1.072689e-09
1.0692643e-09
1.0644128e-09
1.0583315e-09
1.0512672e-09
1.0435008e-09
1.0352017e-09
1.0265359e-09
1.0177035e-09
1.0088222e-09
9.999352e-10
9.9110235e-10
9.8241184e-10
9.7389068e-10
9.6552859e-10
9.5730994e-10
9.4924207e-10
9.4131684e-10
9.3356036e-10
9.2561732e-10
9.1806933e-10
9.0874536e-10
9.0120746e-10
8.9030133e-10
0.00011601007
0.00010843396
0.00010775001
0.00010782106
0.00010786856
0.00010788075
0.0001078842
0.00010788637
0.00010788867
0.00010789138
0.00010789468
0.00010789874
0.00010790378
0.0001079101
0.00010791814
0.0001079285
0.00010794221
0.00010796062
0.00010798821
0.00010802143
0.00010812268
0.00010802262
0.00010961178
4.6230015e-05
4.9541826e-08
7.5792629e-09
3.8340247e-09
2.5834432e-09
1.9727947e-09
1.6013248e-09
1.3502351e-09
1.1668999e-09
1.0269478e-09
9.1660517e-10
8.2717376e-10
7.5311534e-10
6.9073688e-10
6.3745454e-10
5.9139564e-10
5.5116624e-10
5.1572439e-10
4.8422581e-10
4.5606628e-10
4.3072354e-10
4.0779188e-10
3.8693797e-10
3.6788702e-10
3.50411e-10
3.343189e-10
3.1945014e-10
3.0566784e-10
2.9285445e-10
2.8090916e-10
2.6974473e-10
2.5928549e-10
2.4946564e-10
2.4022709e-10
2.3151851e-10
2.2329472e-10
2.1551563e-10
2.0814555e-10
2.0115279e-10
1.9450932e-10
1.8818988e-10
1.8217139e-10
1.7643325e-10
1.7095703e-10
1.6572627e-10
1.6072604e-10
1.5594304e-10
1.5136614e-10
1.4698524e-10
1.4279124e-10
1.3877648e-10
1.3493443e-10
1.3125964e-10
1.2774783e-10
1.2439645e-10
1.2120577e-10
1.1817722e-10
1.1531311e-10
1.1262116e-10
1.1010717e-10
1.0777867e-10
1.0564967e-10
1.037375e-10
1.0206404e-10
1.0068836e-10
9.955044e-11
9.8969184e-11
9.8700921e-11
9.9019151e-11
9.9945271e-11
1.015931e-10
1.0407106e-10
1.0748337e-10
1.1184587e-10
1.1716299e-10
1.2346611e-10
1.3053146e-10
1.377558e-10
1.4460331e-10
1.5025977e-10
1.5487949e-10
1.5833846e-10
1.6089155e-10
1.6274886e-10
1.640716e-10
1.6497986e-10
1.655394e-10
1.6579971e-10
1.6579865e-10
1.6553441e-10
1.6501264e-10
1.6426891e-10
1.6333393e-10
1.6224609e-10
1.6104902e-10
1.5976911e-10
1.5843217e-10
1.5706916e-10
1.5569835e-10
1.5432651e-10
1.5296292e-10
1.5162119e-10
1.5030551e-10
1.4901435e-10
1.4774533e-10
1.4649958e-10
1.4527588e-10
1.4407817e-10
1.4285202e-10
1.416864e-10
1.4024846e-10
1.3908473e-10
1.374009e-10
0.00011597975
0.00010839256
0.00010770781
0.00010777887
0.00010782641
0.00010783862
0.00010784207
0.00010784425
0.00010784654
0.00010784925
0.00010785255
0.00010785662
0.00010786166
0.00010786799
0.00010787603
0.0001078864
0.00010790013
0.00010791855
0.00010794616
0.0001079794
0.00010808075
0.00010798044
0.00010957105
4.6194768e-05
1.5978543e-08
2.3644853e-09
1.1960792e-09
8.0594101e-10
6.1544592e-10
4.9956549e-10
4.2123733e-10
3.6404491e-10
3.2038596e-10
2.8596382e-10
2.5806505e-10
2.3496208e-10
2.1550287e-10
1.9888139e-10
1.845134e-10
1.7196405e-10
1.6090823e-10
1.5108251e-10
1.4229843e-10
1.343931e-10
1.2723996e-10
1.2073502e-10
1.1479257e-10
1.0934137e-10
1.0432188e-10
9.9683997e-11
9.5384941e-11
9.1387999e-11
8.7661775e-11
8.4179317e-11
8.0917405e-11
7.7855381e-11
7.4974828e-11
7.2259718e-11
6.969597e-11
6.7271097e-11
6.4973976e-11
6.2794742e-11
6.072467e-11
5.8755909e-11
5.6881123e-11
5.5093926e-11
5.3388528e-11
5.175964e-11
5.020225e-11
4.8712097e-11
4.7288168e-11
4.5927639e-11
4.4626237e-11
4.3381698e-11
4.2192119e-11
4.1055956e-11
3.9972097e-11
3.8939858e-11
3.7959157e-11
3.7028933e-11
3.6145845e-11
3.5327763e-11
3.4574821e-11
3.3885612e-11
3.3265912e-11
3.2722844e-11
3.2265209e-11
3.1912604e-11
3.1640751e-11
3.151618e-11
3.1567417e-11
3.1853258e-11
3.2372706e-11
3.3170174e-11
3.4288295e-11
3.5765876e-11
3.7606953e-11
3.9805501e-11
4.2345796e-11
4.5103099e-11
4.7832119e-11
5.0347223e-11
5.2404527e-11
5.408385e-11
5.5361328e-11
5.6332099e-11
5.7070174e-11
5.7628451e-11
5.8041841e-11
5.8327897e-11
5.8501521e-11
5.8573638e-11
5.8542113e-11
5.8407134e-11
5.8180561e-11
5.787546e-11
5.7507842e-11
5.7094953e-11
5.6648131e-11
5.6177916e-11
5.5695865e-11
5.5209095e-11
5.4720819e-11
5.4234713e-11
5.3755561e-11
5.3285043e-11
5.2822966e-11
5.236874e-11
5.1922781e-11
5.148483e-11
5.1055751e-11
5.0619195e-11
5.0200787e-11
4.9698906e-11
4.9283708e-11
4.868213e-11
0.00011592769
0.00010832159
0.00010763547
0.00010770654
0.00010775416
0.00010776639
0.00010776985
0.00010777202
0.00010777432
0.00010777704
0.00010778034
0.00010778441
0.00010778946
0.0001077958
0.00010780385
0.00010781423
0.00010782798
0.00010784642
0.00010787407
0.00010790734
0.00010800885
0.00010790813
0.00010950115
4.6129728e-05
8.0333798e-09
1.0432136e-09
5.2767521e-10
3.5555522e-10
2.7153354e-10
2.2042738e-10
1.8588122e-10
1.6065527e-10
1.4139793e-10
1.262146e-10
1.1390865e-10
1.0371831e-10
9.5135576e-11
8.7804926e-11
8.1468583e-11
7.5934693e-11
7.1059629e-11
6.6727114e-11
6.2854074e-11
5.9368726e-11
5.6215291e-11
5.3347927e-11
5.0728804e-11
4.8326215e-11
4.6114068e-11
4.4070193e-11
4.2175514e-11
4.0413695e-11
3.8771035e-11
3.7236416e-11
3.5800727e-11
3.4454492e-11
3.3188735e-11
3.199634e-11
3.0871146e-11
2.9807701e-11
2.8801154e-11
2.7847216e-11
2.69421e-11
2.6082436e-11
2.526461e-11
2.4485939e-11
2.3743777e-11
2.3035395e-11
2.2357625e-11
2.1708286e-11
2.1093824e-11
2.0513974e-11
1.9962958e-11
1.9440199e-11
1.8945355e-11
1.8478307e-11
1.8039343e-11
1.7628723e-11
1.7246299e-11
1.6888048e-11
1.6542262e-11
1.6257068e-11
1.6029169e-11
1.5849155e-11
1.5724381e-11
1.5664013e-11
1.5679289e-11
1.5785218e-11
1.5964118e-11
1.6176938e-11
1.6669611e-11
1.7422e-11
1.8427123e-11
1.9735987e-11
2.1399899e-11
2.3462858e-11
2.5934619e-11
2.8809784e-11
3.2035015e-11
3.5416007e-11
3.8660904e-11
4.154644e-11
4.3915446e-11
4.5839083e-11
4.7360887e-11
4.858277e-11
4.9579513e-11
5.0399541e-11
5.1066459e-11
5.1592493e-11
5.1991702e-11
5.2270722e-11
5.2424968e-11
5.2449899e-11
5.2354221e-11
5.2156183e-11
5.1877279e-11
5.1538314e-11
5.115532e-11
5.0741896e-11
5.0310173e-11
4.9868471e-11
4.9422055e-11
4.8975384e-11
4.8532652e-11
4.8095948e-11
4.7666128e-11
4.7243399e-11
4.6828181e-11
4.6420759e-11
4.6020336e-11
4.5620798e-11
4.5227948e-11
4.4798066e-11
4.4415544e-11
4.3858942e-11
0.0001158524
0.00010821896
0.00010753087
0.00010760196
0.00010764969
0.00010766195
0.00010766541
0.00010766759
0.00010766989
0.00010767261
0.00010767592
0.00010768
0.00010768506
0.00010769141
0.00010769948
0.00010770988
0.00010772365
0.00010774214
0.00010776983
0.00010780315
0.00010790489
0.00010780357
0.00010940003
4.6033887e-05
5.8623927e-09
5.5810555e-10
2.8221435e-10
1.9015505e-10
1.4526471e-10
1.179729e-10
9.9520948e-11
8.6043387e-11
7.575318e-11
6.7639348e-11
6.1063061e-11
5.5617814e-11
5.1032482e-11
4.711713e-11
4.3733851e-11
4.0780048e-11
3.8178441e-11
3.5866694e-11
3.3800535e-11
3.1941785e-11
3.0260732e-11
2.8732928e-11
2.7338136e-11
2.6058845e-11
2.4881442e-11
2.3793967e-11
2.2785765e-11
2.1847795e-11
2.0973044e-11
2.0157137e-11
1.9397512e-11
1.8688403e-11
1.8023314e-11
1.7398364e-11
1.6810387e-11
1.6256598e-11
1.5734542e-11
1.524207e-11
1.4777313e-11
1.4338699e-11
1.3923571e-11
1.3530777e-11
1.315882e-11
1.2805597e-11
1.246768e-11
1.2143381e-11
1.1849283e-11
1.158738e-11
1.1347453e-11
1.113023e-11
1.0936812e-11
1.0768612e-11
1.0627728e-11
1.0516094e-11
1.0434471e-11
1.0376031e-11
1.031858e-11
1.0355064e-11
1.048129e-11
1.0680728e-11
1.09691e-11
1.1366425e-11
1.18983e-11
1.2594854e-11
1.346245e-11
1.4437814e-11
1.5885797e-11
1.7799984e-11
2.0212918e-11
2.3228455e-11
2.6953556e-11
3.1478769e-11
3.6831681e-11
4.300956e-11
4.9884274e-11
5.7029993e-11
6.3849725e-11
6.9857754e-11
7.4821835e-11
7.8844092e-11
8.2078673e-11
8.4727319e-11
8.6936226e-11
8.8797083e-11
9.0347535e-11
9.1609484e-11
9.2611562e-11
9.3363246e-11
9.3853748e-11
9.4069604e-11
9.4024218e-11
9.3757963e-11
9.3317724e-11
9.274704e-11
9.2081518e-11
9.1350383e-11
9.057745e-11
8.9779895e-11
8.8969951e-11
8.8156968e-11
8.7348349e-11
8.6548521e-11
8.5760223e-11
8.4984693e-11
8.4222732e-11
8.3475464e-11
8.2739614e-11
8.2014249e-11
8.1289628e-11
8.0542984e-11
7.9845605e-11
7.8828154e-11
0.00011575188
0.00010808187
0.00010739115
0.00010746227
0.00010751015
0.00010752244
0.00010752592
0.0001075281
0.00010753041
0.00010753313
0.00010753645
0.00010754053
0.00010754561
0.00010755198
0.00010756006
0.00010757049
0.0001075843
0.00010760283
0.0001076306
0.00010766398
0.00010776602
0.00010766391
0.00010926494
4.5906059e-05
5.8437379e-09
3.3934864e-10
1.7142702e-10
1.1549712e-10
8.8323421e-11
7.1828691e-11
6.0669638e-11
5.2511401e-11
4.6279463e-11
4.1364346e-11
3.7380332e-11
3.40823e-11
3.1306714e-11
2.8938664e-11
2.6894351e-11
2.5111527e-11
2.3542354e-11
2.2148669e-11
2.0903897e-11
1.9785265e-11
1.8774968e-11
1.7858293e-11
1.7022955e-11
1.6257475e-11
1.5554121e-11
1.4905507e-11
1.4304338e-11
1.3744584e-11
1.3222508e-11
1.2738026e-11
1.229336e-11
1.1883959e-11
1.1503205e-11
1.1148665e-11
1.0818669e-11
1.051179e-11
1.0226813e-11
9.9627288e-12
9.7187165e-12
9.4942934e-12
9.2867848e-12
9.0959771e-12
8.9211003e-12
8.7602247e-12
8.6090263e-12
8.4658799e-12
8.3599318e-12
8.2961548e-12
8.2587722e-12
8.2503859e-12
8.2744181e-12
8.3349945e-12
8.4374548e-12
8.5875226e-12
8.7900461e-12
9.0407676e-12
9.3154486e-12
9.7363823e-12
1.030809e-11
1.1020026e-11
1.1905516e-11
1.3007331e-11
1.4381131e-11
1.6092438e-11
1.8190566e-11
2.0606485e-11
2.3898197e-11
2.8113401e-11
3.336691e-11
3.9876902e-11
4.7869663e-11
5.7537055e-11
6.8943508e-11
8.2093083e-11
9.6717003e-11
1.1191909e-10
1.264501e-10
1.3925612e-10
1.4987411e-10
1.5847563e-10
1.6541852e-10
1.7112412e-10
1.7589891e-10
1.7993541e-10
1.8331102e-10
1.860737e-10
1.8828597e-10
1.8996676e-10
1.9109305e-10
1.9163442e-10
1.9161692e-10
1.9112733e-10
1.9026612e-10
1.8912568e-10
1.8778262e-10
1.8629934e-10
1.8472558e-10
1.8309767e-10
1.8144219e-10
1.7977897e-10
1.7812305e-10
1.7648383e-10
1.7486762e-10
1.7327744e-10
1.7171497e-10
1.7018284e-10
1.6867331e-10
1.6719041e-10
1.6570235e-10
1.6419577e-10
1.6276838e-10
1.6068429e-10
0.00011562363
0.00010790682
0.00010721272
0.00010728388
0.00010733193
0.00010734428
0.00010734777
0.00010734996
0.00010735227
0.000107355
0.00010735833
0.00010736242
0.00010736751
0.0001073739
0.00010738202
0.00010739248
0.00010740634
0.00010742492
0.00010745278
0.00010748624
0.00010758866
0.00010748554
0.00010909241
4.5745022e-05
7.0440919e-09
2.3070675e-10
1.162422e-10
7.829965e-11
6.004318e-11
4.9008613e-11
4.1531243e-11
3.6051235e-11
3.1859634e-11
2.8551416e-11
2.5869173e-11
2.3649909e-11
2.1784822e-11
2.0196885e-11
1.8829333e-11
1.7640189e-11
1.6595475e-11
1.5668791e-11
1.4842676e-11
1.4102426e-11
1.3436399e-11
1.2834861e-11
1.2289545e-11
1.1791655e-11
1.1336645e-11
1.0919446e-11
1.0533822e-11
1.017485e-11
9.8407398e-12
9.5349036e-12
9.263914e-12
9.0234835e-12
8.8057738e-12
8.6091509e-12
8.4329276e-12
8.2766117e-12
8.1398737e-12
8.0225595e-12
7.9246843e-12
7.8467798e-12
7.7859579e-12
7.7427891e-12
7.7176527e-12
7.7094766e-12
7.7140327e-12
7.7302952e-12
7.7965705e-12
7.9215145e-12
8.0874987e-12
8.3003046e-12
8.5672424e-12
8.8970726e-12
9.3007663e-12
9.7907801e-12
1.0379593e-11
1.1068889e-11
1.1834454e-11
1.284279e-11
1.4114443e-11
1.5652695e-11
1.7522768e-11
1.9808654e-11
2.2620483e-11
2.6089421e-11
3.0341187e-11
3.5320031e-11
4.1904501e-11
5.0249567e-11
6.0621293e-11
7.3446842e-11
8.9170371e-11
1.0816961e-10
1.3057678e-10
1.5641098e-10
1.8515821e-10
2.1507938e-10
2.4373876e-10
2.6903656e-10
2.9005505e-10
3.0708431e-10
3.2084193e-10
3.3215191e-10
3.4161684e-10
3.496175e-10
3.5630879e-10
3.6178955e-10
3.6618611e-10
3.6953638e-10
3.7179548e-10
3.7290285e-10
3.7290854e-10
3.7198386e-10
3.7032694e-10
3.6811953e-10
3.6551282e-10
3.6262979e-10
3.5956786e-10
3.5639844e-10
3.5317412e-10
3.4993395e-10
3.467071e-10
3.4351214e-10
3.4036168e-10
3.372619e-10
3.3421606e-10
3.3122949e-10
3.2828652e-10
3.2539818e-10
3.2249627e-10
3.1957223e-10
3.1679111e-10
3.1272964e-10
0.00011546467
0.00010768956
0.00010699126
0.00010706246
0.00010711075
0.00010712316
0.00010712666
0.00010712886
0.00010713117
0.00010713391
0.00010713725
0.00010714136
0.00010714647
0.00010715289
0.00010716103
0.00010717154
0.00010718545
0.00010720411
0.00010723208
0.00010726563
0.00010736852
0.00010726415
0.00010887826
4.5549684e-05
9.2286931e-09
1.787031e-10
8.9551013e-11
6.0293005e-11
4.6504801e-11
3.8249627e-11
3.2636211e-11
2.8500494e-11
2.5328138e-11
2.2820418e-11
2.0785676e-11
1.9103529e-11
1.7693581e-11
1.6498062e-11
1.5473536e-11
1.458823e-11
1.3813593e-11
1.3128466e-11
1.2520286e-11
1.1978904e-11
1.1496039e-11
1.1064592e-11
1.0678371e-11
1.0329965e-11
1.0016479e-11
9.7342364e-12
9.476722e-12
9.2390773e-12
9.0207678e-12
8.8277668e-12
8.6698812e-12
8.5431523e-12
8.439015e-12
8.3565374e-12
8.2959043e-12
8.2574948e-12
8.2418491e-12
8.2497029e-12
8.2819906e-12
8.3405157e-12
8.4217507e-12
8.5272283e-12
8.6590694e-12
8.8176468e-12
8.999227e-12
9.2039614e-12
9.482453e-12
9.8488576e-12
1.0284178e-11
1.0799448e-11
1.1408406e-11
1.2127526e-11
1.2977213e-11
1.3981272e-11
1.5165244e-11
1.654168e-11
1.8089082e-11
2.0044286e-11
2.2454316e-11
2.5347593e-11
2.8843475e-11
3.3095936e-11
3.8307682e-11
4.4722601e-11
5.2598832e-11
6.1929493e-11
7.4093096e-11
8.943849e-11
1.0849521e-10
1.3204658e-10
1.6090811e-10
1.9577517e-10
2.3689695e-10
2.8432212e-10
3.3712965e-10
3.9215903e-10
4.4495871e-10
4.9163472e-10
5.304686e-10
5.6193771e-10
5.8736662e-10
6.0826636e-10
6.2574673e-10
6.4051295e-10
6.5285605e-10
6.629649e-10
6.7107666e-10
6.7726284e-10
6.8144185e-10
6.8350208e-10
6.8353503e-10
6.8185608e-10
6.7882983e-10
6.7479052e-10
6.7001651e-10
6.6473404e-10
6.5912208e-10
6.5331188e-10
6.4740035e-10
6.4145931e-10
6.3554221e-10
6.2968317e-10
6.2390557e-10
6.1822085e-10
6.1263502e-10
6.0715796e-10
6.0176062e-10
5.9646496e-10
5.9114245e-10
5.8578717e-10
5.8068758e-10
5.7323984e-10
0.00011527152
0.00010742519
0.00010672173
0.00010679299
0.00010684156
0.00010685405
0.00010685757
0.00010685978
0.0001068621
0.00010686485
0.0001068682
0.00010687233
0.00010687746
0.00010688391
0.00010689209
0.00010690265
0.00010691663
0.00010693538
0.00010696348
0.00010699714
0.00010710061
0.00010699471
0.00010861765
4.5319282e-05
1.242066e-08
1.6363132e-10
8.1296799e-11
5.4696015e-11
4.2579585e-11
3.5443651e-11
3.0563783e-11
2.6936776e-11
2.4141519e-11
2.192582e-11
2.0125105e-11
1.8637501e-11
1.7395014e-11
1.6347699e-11
1.5456937e-11
1.4695076e-11
1.4033025e-11
1.3450437e-11
1.2937145e-11
1.2485597e-11
1.2089241e-11
1.1742187e-11
1.1439115e-11
1.1172968e-11
1.0941693e-11
1.0742479e-11
1.0567211e-11
1.0410146e-11
1.0271801e-11
1.016097e-11
1.009115e-11
1.0058579e-11
1.0053663e-11
1.0076213e-11
1.0127411e-11
1.0208683e-11
1.0321651e-11
1.0468204e-11
1.0650512e-11
1.0872214e-11
1.1128564e-11
1.1422492e-11
1.1758846e-11
1.2140358e-11
1.2564324e-11
1.3033042e-11
1.3615528e-11
1.4334315e-11
1.5169051e-11
1.6139262e-11
1.7269084e-11
1.8587505e-11
2.0130272e-11
2.1939734e-11
2.4063041e-11
2.6531805e-11
2.9332961e-11
3.2809858e-11
3.7052485e-11
4.213322e-11
4.8259831e-11
5.5700644e-11
6.4809812e-11
7.601684e-11
8.9802052e-11
1.0627209e-10
1.2755756e-10
1.5434127e-10
1.8759411e-10
2.2868258e-10
2.7903042e-10
3.398543e-10
4.1159722e-10
4.9436151e-10
5.8657174e-10
6.8275678e-10
7.7517172e-10
8.5696864e-10
9.2509176e-10
9.8030446e-10
1.0249217e-09
1.0615801e-09
1.0922226e-09
1.1180898e-09
1.1396999e-09
1.157393e-09
1.1715903e-09
1.1824196e-09
1.1897397e-09
1.1933557e-09
1.1934273e-09
1.1905059e-09
1.185229e-09
1.1781808e-09
1.1698482e-09
1.1606266e-09
1.1508287e-09
1.140684e-09
1.1303619e-09
1.1199879e-09
1.1096555e-09
1.0994242e-09
1.089335e-09
1.0794079e-09
1.0696536e-09
1.0600892e-09
1.0506638e-09
1.0414169e-09
1.032122e-09
1.0227745e-09
1.0138697e-09
1.0008643e-09
0.00011504029
0.00010710809
0.00010639842
0.00010646975
0.00010651865
0.00010653124
0.00010653478
0.00010653699
0.00010653932
0.00010654209
0.00010654546
0.00010654961
0.00010655477
0.00010656125
0.00010656948
0.0001065801
0.00010659416
0.00010661302
0.00010664127
0.00010667507
0.00010677922
0.00010667151
0.00010830506
4.5053603e-05
1.6782242e-08
1.7998547e-10
8.8575739e-11
5.9545614e-11
4.6836021e-11
3.9501968e-11
3.4452302e-11
3.0658966e-11
2.7719073e-11
2.5380938e-11
2.347663e-11
2.1904167e-11
2.0595606e-11
1.9499731e-11
1.8575734e-11
1.7795217e-11
1.7122767e-11
1.6534862e-11
1.6021918e-11
1.5577711e-11
1.5196266e-11
1.4871838e-11
1.459904e-11
1.4370234e-11
1.418367e-11
1.4037108e-11
1.3919232e-11
1.3822342e-11
1.3748079e-11
1.3708978e-11
1.37235e-11
1.378795e-11
1.3891142e-11
1.4033823e-11
1.4218519e-11
1.4448101e-11
1.4725719e-11
1.5054923e-11
1.5439695e-11
1.5886455e-11
1.6388454e-11
1.6950757e-11
1.7582537e-11
1.8290401e-11
1.9073687e-11
1.9938478e-11
2.0980898e-11
2.2236147e-11
2.3683017e-11
2.5354501e-11
2.7291234e-11
2.9542088e-11
3.2167221e-11
3.5238602e-11
3.8838285e-11
4.3030311e-11
4.7820957e-11
5.3709494e-11
6.0854724e-11
6.9403686e-11
7.9704958e-11
9.220906e-11
1.0751172e-10
1.2633996e-10
1.4953686e-10
1.7743334e-10
2.1326999e-10
2.582854e-10
3.1416884e-10
3.8321736e-10
4.6782553e-10
5.7004329e-10
6.9062606e-10
8.2976854e-10
9.8486583e-10
1.1467802e-09
1.3025209e-09
1.4405057e-09
1.5555146e-09
1.6487403e-09
1.7240757e-09
1.7859535e-09
1.83765e-09
1.8812644e-09
1.9176824e-09
1.9474904e-09
1.9714061e-09
1.989649e-09
2.0019833e-09
2.0080813e-09
2.0082115e-09
2.0033027e-09
1.994428e-09
1.9825711e-09
1.9685515e-09
1.9530352e-09
1.9365484e-09
1.9194775e-09
1.9021078e-09
1.8846506e-09
1.8672631e-09
1.8500456e-09
1.8330671e-09
1.8163615e-09
1.7999464e-09
1.7838511e-09
1.7679896e-09
1.7524291e-09
1.736787e-09
1.7210594e-09
1.7060743e-09
1.6841885e-09
0.00011476663
0.00010673199
0.00010601489
0.0001060863
0.00010613559
0.0001061483
0.00010615186
0.00010615409
0.00010615643
0.00010615921
0.00010616259
0.00010616677
0.00010617196
0.00010617849
0.00010618678
0.00010619747
0.00010621163
0.00010623061
0.00010625904
0.00010629299
0.00010639794
0.0001062881
0.00010793427
4.475322e-05
2.2586671e-08
2.3028881e-10
1.1248263e-10
7.5569764e-11
5.9934023e-11
5.1073596e-11
4.4936744e-11
4.0283899e-11
3.6660525e-11
3.3770484e-11
3.1412027e-11
2.9464803e-11
2.784883e-11
2.6502474e-11
2.5375443e-11
2.4433684e-11
2.3628574e-11
2.2928883e-11
2.2323955e-11
2.1807916e-11
2.1374363e-11
2.1016679e-11
2.072849e-11
2.0500591e-11
2.0331063e-11
2.0218084e-11
2.0144982e-11
2.0100705e-11
2.0088304e-11
2.0125549e-11
2.0237825e-11
2.0421449e-11
2.066297e-11
2.0964471e-11
2.1330428e-11
2.1765833e-11
2.2276104e-11
2.2867282e-11
2.3546088e-11
2.4323203e-11
2.5188785e-11
2.615119e-11
2.7226425e-11
2.8427435e-11
2.9757421e-11
3.1228929e-11
3.2977079e-11
3.5056069e-11
3.7445457e-11
4.0199285e-11
4.3383971e-11
4.7079498e-11
5.1384215e-11
5.6416631e-11
6.2314157e-11
6.9194556e-11
7.7102555e-11
8.6761533e-11
9.8439095e-11
1.1240583e-10
1.292307e-10
1.4964953e-10
1.7463663e-10
2.0538717e-10
2.4332407e-10
2.8918529e-10
3.4783287e-10
4.2140726e-10
5.1274269e-10
6.2559479e-10
7.6388044e-10
9.309577e-10
1.1280759e-09
1.3555833e-09
1.6092796e-09
1.8743051e-09
2.1294578e-09
2.3557072e-09
2.5444039e-09
2.6973782e-09
2.8209943e-09
2.922501e-09
3.0072688e-09
3.0787485e-09
3.1384085e-09
3.1872267e-09
3.2263899e-09
3.2562632e-09
3.276463e-09
3.2864536e-09
3.2866748e-09
3.2786468e-09
3.2641265e-09
3.2447241e-09
3.2217812e-09
3.196388e-09
3.169406e-09
3.1414675e-09
3.1130398e-09
3.0844687e-09
3.0560114e-09
3.0278323e-09
3.0000443e-09
2.9727029e-09
2.9458369e-09
2.9194942e-09
2.8935342e-09
2.8680672e-09
2.842466e-09
2.8167272e-09
2.7922017e-09
2.7563821e-09
0.0001144458
0.00010628991
0.00010556399
0.00010563551
0.00010568526
0.0001056981
0.0001057017
0.00010570393
0.00010570629
0.00010570908
0.00010571249
0.0001057167
0.00010572193
0.00010572851
0.00010573686
0.00010574764
0.0001057619
0.00010578103
0.00010580967
0.00010584381
0.00010594969
0.00010583734
0.00010749842
4.4419754e-05
3.0224216e-08
3.2375719e-10
1.5740765e-10
1.057122e-10
8.4278147e-11
7.2281224e-11
6.3939405e-11
5.7575754e-11
5.2604473e-11
4.8631712e-11
4.5385154e-11
4.2704402e-11
4.04831e-11
3.8638135e-11
3.7100728e-11
3.582525e-11
3.4740588e-11
3.3801869e-11
3.2995504e-11
3.2315054e-11
3.1752591e-11
3.1299459e-11
3.0947202e-11
3.0683866e-11
3.050683e-11
3.0414661e-11
3.0382263e-11
3.0393275e-11
3.0452691e-11
3.0585674e-11
3.082727e-11
3.11739e-11
3.1609118e-11
3.2137029e-11
3.2765016e-11
3.3501262e-11
3.4354607e-11
3.5334868e-11
3.6452934e-11
3.7726016e-11
3.9139627e-11
4.0707177e-11
4.2455393e-11
4.4407452e-11
4.657352e-11
4.8976877e-11
5.18079e-11
5.5149123e-11
5.8984411e-11
6.3400334e-11
6.8503137e-11
7.4420899e-11
8.1311019e-11
8.9364207e-11
9.8804457e-11
1.098366e-10
1.2257575e-10
1.3806437e-10
1.5674016e-10
1.7907379e-10
2.0597492e-10
2.3862052e-10
2.7857087e-10
3.277479e-10
3.8848688e-10
4.6222699e-10
5.5618593e-10
6.739403e-10
8.2012108e-10
1.0007414e-09
1.222075e-09
1.4895071e-09
1.8050571e-09
2.1693222e-09
2.5756563e-09
3.0003762e-09
3.4095856e-09
3.7726908e-09
4.0756876e-09
4.3213476e-09
4.5198579e-09
4.6828266e-09
4.8188705e-09
4.9335403e-09
5.0292141e-09
5.1074832e-09
5.1702654e-09
5.2181537e-09
5.2505367e-09
5.2665569e-09
5.2669193e-09
5.2540603e-09
5.2307958e-09
5.1997063e-09
5.1629423e-09
5.122251e-09
5.079013e-09
5.0342417e-09
4.9886861e-09
4.9429007e-09
4.8972974e-09
4.8521397e-09
4.8076086e-09
4.7637933e-09
4.7207397e-09
4.6785248e-09
4.6369232e-09
4.5961117e-09
4.5550848e-09
4.5138389e-09
4.4745363e-09
4.4171343e-09
0.00011407265
0.00010577422
0.0001050379
0.00010510955
0.00010515983
0.00010517283
0.00010517646
0.00010517871
0.00010518108
0.00010518389
0.00010518733
0.00010519157
0.00010519685
0.00010520348
0.00010521191
0.00010522279
0.00010523718
0.00010525647
0.00010528536
0.0001053197
0.00010542667
0.0001053114
0.00010698997
4.4056125e-05
4.0227283e-08
4.7710587e-10
2.314023e-10
1.5537687e-10
1.242294e-10
1.069205e-10
9.4859112e-11
8.5626021e-11
7.8400501e-11
7.261998e-11
6.7892038e-11
6.398727e-11
6.0753839e-11
5.8072242e-11
5.5842948e-11
5.400081e-11
5.2438973e-11
5.1090564e-11
4.9936663e-11
4.8969225e-11
4.8177424e-11
4.7549019e-11
4.7072031e-11
4.6730219e-11
4.6519541e-11
4.6439061e-11
4.6450779e-11
4.6530215e-11
4.6685136e-11
4.6951148e-11
4.737672e-11
4.7958684e-11
4.8676873e-11
4.9538502e-11
5.055534e-11
5.1740388e-11
5.3107671e-11
5.4672737e-11
5.6452814e-11
5.8475073e-11
6.0718149e-11
6.3203172e-11
6.5973537e-11
6.9068723e-11
7.2510946e-11
7.6340918e-11
8.0826684e-11
8.6092879e-11
9.2134324e-11
9.908742e-11
1.0711939e-10
1.1643202e-10
1.2727319e-10
1.3994456e-10
1.5480411e-10
1.7219539e-10
1.923557e-10
2.1677987e-10
2.4616895e-10
2.8131215e-10
3.2364102e-10
3.7500854e-10
4.3787341e-10
5.1527495e-10
6.109668e-10
7.2755494e-10
8.7567013e-10
1.0611438e-09
1.2913939e-09
1.5758953e-09
1.9245367e-09
2.3458155e-09
2.8429394e-09
3.4169016e-09
4.057336e-09
4.7270717e-09
5.3727651e-09
5.9460457e-09
6.424638e-09
6.8126972e-09
7.1262702e-09
7.3836509e-09
7.5984411e-09
7.7794211e-09
7.9303739e-09
8.0538415e-09
8.1528689e-09
8.2284018e-09
8.2794806e-09
8.3047545e-09
8.3053353e-09
8.2850652e-09
8.2483852e-09
8.1993646e-09
8.1413947e-09
8.077231e-09
8.0090509e-09
7.9384524e-09
7.8666168e-09
7.7944185e-09
7.7225071e-09
7.6512982e-09
7.5810774e-09
7.5119851e-09
7.4440941e-09
7.3775253e-09
7.3119237e-09
7.2475683e-09
7.1828729e-09
7.1178333e-09
7.055857e-09
6.9653399e-09
0.0001136417
0.00010517661
0.00010442807
0.00010449988
0.00010455079
0.00010456397
0.00010456764
0.0001045699
0.00010457229
0.00010457513
0.00010457859
0.00010458287
0.0001045882
0.0001045949
0.00010460342
0.00010461441
0.00010462895
0.00010464843
0.0001046776
0.00010471217
0.00010482037
0.00010470174
0.00010640074
4.3666814e-05
5.3311602e-08
7.1695942e-10
3.4733533e-10
2.3320358e-10
1.8673535e-10
1.6101264e-10
1.4306913e-10
1.2930862e-10
1.1853049e-10
1.0990283e-10
1.0284258e-10
9.7010245e-11
9.218146e-11
8.8179115e-11
8.4855382e-11
8.2114344e-11
7.9794016e-11
7.7793358e-11
7.6084782e-11
7.46573e-11
7.3495303e-11
7.258079e-11
7.1896226e-11
7.1418992e-11
7.1142586e-11
7.1066847e-11
7.1134276e-11
7.130816e-11
7.1600302e-11
7.2061035e-11
7.2757406e-11
7.368733e-11
7.4826249e-11
7.618619e-11
7.7785536e-11
7.9644572e-11
8.1785167e-11
8.4231545e-11
8.7010545e-11
9.0164465e-11
9.3661816e-11
9.7535463e-11
1.0185451e-10
1.066841e-10
1.1206665e-10
1.1807068e-10
1.2507299e-10
1.3326063e-10
1.4265096e-10
1.5345622e-10
1.6593638e-10
1.8040541e-10
1.9724886e-10
2.1693772e-10
2.4003559e-10
2.6710408e-10
2.9858517e-10
3.3661395e-10
3.8229609e-10
4.3692125e-10
5.0271499e-10
5.8255908e-10
6.8028022e-10
8.0062302e-10
9.4952617e-10
1.1314905e-09
1.3620863e-09
1.6506471e-09
2.0088759e-09
2.4515194e-09
2.9939723e-09
3.649476e-09
4.4230579e-09
5.3163328e-09
6.3133095e-09
7.3563335e-09
8.3624706e-09
9.2562205e-09
1.0002634e-08
1.0607894e-08
1.109697e-08
1.1498336e-08
1.1833196e-08
1.2115261e-08
1.2350465e-08
1.2542812e-08
1.2697071e-08
1.2814728e-08
1.2894296e-08
1.2933673e-08
1.293459e-08
1.2903031e-08
1.2845914e-08
1.2769576e-08
1.2679299e-08
1.2579374e-08
1.2473193e-08
1.2363246e-08
1.2251371e-08
1.2138931e-08
1.2026938e-08
1.1916038e-08
1.1806677e-08
1.1699073e-08
1.159334e-08
1.1489667e-08
1.1387499e-08
1.1287273e-08
1.1186517e-08
1.1085226e-08
1.0988704e-08
1.0847733e-08
0.00011314714
0.00010448813
0.0001037253
0.0001037973
0.00010384892
0.00010386231
0.00010386603
0.00010386831
0.00010387072
0.00010387358
0.00010387708
0.00010388141
0.0001038868
0.00010389357
0.00010390219
0.00010391331
0.00010392801
0.00010394771
0.00010397719
0.00010401202
0.00010412163
0.00010399912
0.00010572187
4.3258094e-05
7.0435344e-08
1.0840006e-09
5.248975e-10
3.5241418e-10
2.8241431e-10
2.437459e-10
2.1675861e-10
1.9604415e-10
1.7981216e-10
1.6681489e-10
1.561755e-10
1.4738464e-10
1.4010598e-10
1.3407385e-10
1.2906649e-10
1.2494086e-10
1.2145118e-10
1.1844428e-10
1.1587909e-10
1.1373984e-10
1.1200341e-10
1.1064291e-10
1.0963228e-10
1.0893963e-10
1.0855442e-10
1.0847779e-10
1.0862301e-10
1.0893507e-10
1.0943168e-10
1.1018394e-10
1.1128457e-10
1.127338e-10
1.1450222e-10
1.1660925e-10
1.1908327e-10
1.2195552e-10
1.2525972e-10
1.290332e-10
1.333173e-10
1.381772e-10
1.4356656e-10
1.49536e-10
1.5619403e-10
1.6364577e-10
1.7196669e-10
1.8126908e-10
1.9208187e-10
2.0468446e-10
2.1913614e-10
2.3576394e-10
2.5496823e-10
2.7723279e-10
3.0315168e-10
3.3345274e-10
3.6901315e-10
4.1073375e-10
4.5939077e-10
5.1802554e-10
5.8836163e-10
6.7246669e-10
7.7376813e-10
8.9670518e-10
1.0471766e-09
1.232515e-09
1.4620013e-09
1.7431594e-09
2.0987074e-09
2.5433728e-09
3.095403e-09
3.7775297e-09
4.6134905e-09
5.6237189e-09
6.8160123e-09
8.1929515e-09
9.7300766e-09
1.1338778e-08
1.2891331e-08
1.427106e-08
1.5423716e-08
1.6358452e-08
1.7113747e-08
1.7733502e-08
1.8250444e-08
1.868577e-08
1.9048693e-08
1.9345443e-08
1.9583414e-08
1.9764917e-08
1.9887667e-08
1.9948422e-08
1.9949854e-08
1.9901194e-08
1.9813109e-08
1.9695376e-08
1.9556142e-08
1.9402027e-08
1.923826e-08
1.9068683e-08
1.8896133e-08
1.8722711e-08
1.8549976e-08
1.8378928e-08
1.8210254e-08
1.8044289e-08
1.788121e-08
1.7721307e-08
1.7563727e-08
1.7409141e-08
1.7253737e-08
1.7097509e-08
1.6948637e-08
1.6731208e-08
0.00011258295
0.00010369919
0.00010291971
0.00010299195
0.00010304438
0.00010305802
0.00010306179
0.00010306409
0.00010306652
0.00010306941
0.00010307295
0.00010307733
0.00010308279
0.00010308965
0.00010309838
0.00010310964
0.00010312453
0.00010314447
0.00010317431
0.00010320943
0.00010332062
0.00010319366
0.00010494392
4.2838228e-05
9.2880645e-08
1.6394178e-09
7.9372317e-10
5.3290901e-10
4.2723995e-10
3.6893411e-10
3.2823322e-10
2.96979e-10
2.7248288e-10
2.5286519e-10
2.3680312e-10
2.2352916e-10
2.1253696e-10
2.0342664e-10
1.9586471e-10
1.896369e-10
1.8437109e-10
1.7983537e-10
1.759681e-10
1.7274605e-10
1.7013467e-10
1.6809348e-10
1.6658365e-10
1.6555982e-10
1.6500509e-10
1.6492281e-10
1.6518253e-10
1.6570207e-10
1.665078e-10
1.677001e-10