/*--------------------------------*- C++ -*----------------------------------*\
| =========                 |                                                 |
| \\      /  F ield         | OpenFOAM: The Open Source CFD Toolbox           |
|  \\    /   O peration     | Version:  2206                                  |
|   \\  /    A nd           | Website:  www.openfoam.com                      |
|    \\/     M anipulation  |                                                 |
\*---------------------------------------------------------------------------*/
FoamFile
{
    version     2.0;
    format      ascii;
    arch        "LSB;label=32;scalar=64";
    class       volScalarField;
    location    "600";
    object      nut;
}
// * * * * * * * * * * * * * * * * * * * * * * * * * * * * * * * * * * * * * //

dimensions      [0 2 -1 0 0 0 0];

internalField   nonuniform List<scalar> 
13056
(
1.9646902e-07
1.9596982e-07
1.9599516e-07
1.9607389e-07
1.9611636e-07
1.9613564e-07
1.9614552e-07
1.9615179e-07
1.9615655e-07
1.9616068e-07
1.9616461e-07
1.961687e-07
1.9617325e-07
1.961786e-07
1.9618522e-07
1.9619365e-07
1.9620507e-07
1.962198e-07
1.9624623e-07
1.9625925e-07
1.964328e-07
1.9593176e-07
1.9735206e-07
2.414544e-09
2.6869172e-16
4.1319959e-17
2.0902037e-17
1.4084225e-17
1.0755137e-17
8.7299832e-18
7.3611093e-18
6.3616156e-18
5.5986349e-18
4.9970762e-18
4.5095203e-18
4.1057737e-18
3.7657028e-18
3.4752214e-18
3.2241201e-18
3.0047996e-18
2.8115796e-18
2.6398573e-18
2.4863385e-18
2.3481761e-18
2.2231582e-18
2.1094676e-18
2.0056063e-18
1.9103311e-18
1.8226008e-18
1.7415398e-18
1.6664019e-18
1.5965464e-18
1.5314237e-18
1.4705579e-18
1.4135361e-18
1.3599998e-18
1.3096323e-18
1.2621541e-18
1.2173188e-18
1.1749078e-18
1.1347263e-18
1.0966019e-18
1.0603815e-18
1.0259275e-18
9.9311416e-19
9.6182909e-19
9.3197193e-19
9.0345304e-19
8.7619137e-19
8.5011454e-19
8.251596e-19
8.0127132e-19
7.7840128e-19
7.5650775e-19
7.355549e-19
7.1551303e-19
6.963586e-19
6.780777e-19
6.6067195e-19
6.4415076e-19
6.2853061e-19
6.1383891e-19
6.0010919e-19
5.8738625e-19
5.7574547e-19
5.6528005e-19
5.5610793e-19
5.4855087e-19
5.4228934e-19
5.3909591e-19
5.3753527e-19
5.3912847e-19
5.4400316e-19
5.5277355e-19
5.6602488e-19
5.8432225e-19
6.0775551e-19
6.363596e-19
6.70334e-19
7.0851041e-19
7.4764478e-19
7.8481058e-19
8.1554306e-19
8.4064102e-19
8.5941933e-19
8.7325717e-19
8.8329681e-19
8.9041913e-19
8.9528474e-19
8.9825784e-19
8.9961085e-19
8.9955191e-19
8.9807273e-19
8.9520551e-19
8.9114374e-19
8.8605239e-19
8.8013802e-19
8.7363586e-19
8.6668775e-19
8.5943258e-19
8.5203794e-19
8.4460235e-19
8.3716205e-19
8.2976704e-19
8.2249121e-19
8.1535716e-19
8.0835628e-19
8.0147549e-19
7.9472093e-19
7.8808581e-19
7.8159195e-19
7.7494191e-19
7.6862261e-19
7.6081643e-19
7.5450558e-19
7.4537479e-19
1.964679e-07
1.9596834e-07
1.9599368e-07
1.9607246e-07
1.9611496e-07
1.9613425e-07
1.9614413e-07
1.9615041e-07
1.9615518e-07
1.961593e-07
1.9616324e-07
1.9616733e-07
1.9617188e-07
1.9617724e-07
1.9618386e-07
1.9619229e-07
1.9620372e-07
1.9621845e-07
1.9624489e-07
1.9625792e-07
1.9643155e-07
1.9593025e-07
1.9735193e-07
2.4513256e-09
2.5293085e-16
3.8616566e-17
1.953447e-17
1.3162721e-17
1.0051448e-17
8.1587971e-18
6.879487e-18
5.9453884e-18
5.2323284e-18
4.6701293e-18
4.2144735e-18
3.8371436e-18
3.5193234e-18
3.2478483e-18
3.0131768e-18
2.8082067e-18
2.6276294e-18
2.4671432e-18
2.3236695e-18
2.1945474e-18
2.0777099e-18
1.9714585e-18
1.8743933e-18
1.7853524e-18
1.7033626e-18
1.6276057e-18
1.5573844e-18
1.4920997e-18
1.4312379e-18
1.3743547e-18
1.3210645e-18
1.271032e-18
1.2239612e-18
1.1795906e-18
1.13769e-18
1.0980552e-18
1.0605043e-18
1.0248758e-18
9.9102698e-19
9.5882907e-19
9.281645e-19
8.9892825e-19
8.7102646e-19
8.4437521e-19
8.188984e-19
7.9452826e-19
7.7120827e-19
7.4888709e-19
7.2751807e-19
7.0706225e-19
6.8748624e-19
6.6876234e-19
6.5086869e-19
6.3379224e-19
6.1753417e-19
6.0210149e-19
5.8750514e-19
5.7378696e-19
5.6097599e-19
5.4910959e-19
5.3825906e-19
5.2851241e-19
5.1998073e-19
5.1296418e-19
5.0715375e-19
5.0416349e-19
5.0278069e-19
5.043873e-19
5.090868e-19
5.174578e-19
5.3005091e-19
5.4739479e-19
5.6956672e-19
5.9658319e-19
6.2859495e-19
6.6445375e-19
7.0108909e-19
7.35796e-19
7.6444952e-19
7.8785366e-19
8.0537408e-19
8.1830586e-19
8.277146e-19
8.3441662e-19
8.3901904e-19
8.4185289e-19
8.4316766e-19
8.4315485e-19
8.4180493e-19
8.3914668e-19
8.3536097e-19
8.3060371e-19
8.2506999e-19
8.1898136e-19
8.1247198e-19
8.0567288e-19
7.9874149e-19
7.9177057e-19
7.8479455e-19
7.7786055e-19
7.710378e-19
7.6434761e-19
7.5778212e-19
7.513292e-19
7.4499463e-19
7.3877214e-19
7.3268187e-19
7.2644674e-19
7.205197e-19
7.1320658e-19
7.0728897e-19
6.9872665e-19
1.9646431e-07
1.9596361e-07
1.9598897e-07
1.9606791e-07
1.9611049e-07
1.9612981e-07
1.9613972e-07
1.96146e-07
1.9615078e-07
1.9615491e-07
1.9615886e-07
1.9616295e-07
1.9616751e-07
1.9617288e-07
1.9617951e-07
1.9618795e-07
1.961994e-07
1.9621415e-07
1.9624062e-07
1.9625364e-07
1.9642752e-07
1.9592549e-07
1.9734963e-07
2.4938714e-09
2.4908213e-16
3.681766e-17
1.862429e-17
1.2549403e-17
9.583178e-18
7.7787866e-18
6.5591272e-18
5.6685755e-18
4.9887556e-18
4.4527635e-18
4.018348e-18
3.6586088e-18
3.3556072e-18
3.0967924e-18
2.8730672e-18
2.67766e-18
2.5055087e-18
2.3525114e-18
2.2157337e-18
2.092639e-18
1.9812565e-18
1.8799674e-18
1.7874366e-18
1.7025546e-18
1.6243946e-18
1.5521762e-18
1.4852331e-18
1.4229937e-18
1.3649691e-18
1.3107406e-18
1.2599481e-18
1.2122693e-18
1.1674163e-18
1.1251394e-18
1.0852192e-18
1.0474614e-18
1.0116928e-18
9.7775972e-19
9.4552629e-19
9.1487024e-19
8.8567672e-19
8.5784643e-19
8.3128871e-19
8.0592015e-19
7.8166076e-19
7.5844346e-19
7.3626414e-19
7.150796e-19
6.9481562e-19
6.754368e-19
6.5691315e-19
6.3922009e-19
6.2233998e-19
6.0626053e-19
5.9097655e-19
5.7645831e-19
5.6262445e-19
5.4985329e-19
5.3812733e-19
5.2739132e-19
5.1773386e-19
5.0926309e-19
5.0210895e-19
4.9655397e-19
4.9211815e-19
4.8946612e-19
4.9006806e-19
4.9446095e-19
5.0245946e-19
5.1473864e-19
5.3193374e-19
5.5459574e-19
5.8269022e-19
6.1592941e-19
6.5373098e-19
6.9378125e-19
7.3222915e-19
7.6690099e-19
7.9472508e-19
8.1752123e-19
8.3486455e-19
8.4815722e-19
8.5842723e-19
8.6635653e-19
8.7234679e-19
8.7655037e-19
8.791211e-19
8.8018914e-19
8.7970797e-19
8.7767538e-19
8.7426794e-19
8.696814e-19
8.6415606e-19
8.5795088e-19
8.5123615e-19
8.4417008e-19
8.3692636e-19
8.2961185e-19
8.2227478e-19
8.1497038e-19
8.0777051e-19
8.0070045e-19
7.9375724e-19
7.86932e-19
7.8023099e-19
7.736503e-19
7.6720295e-19
7.6064306e-19
7.5435613e-19
7.4681394e-19
7.4057505e-19
7.3153562e-19
1.9645813e-07
1.959555e-07
1.9598089e-07
1.9606009e-07
1.9610281e-07
1.961222e-07
1.9613213e-07
1.9613844e-07
1.9614323e-07
1.9614737e-07
1.9615133e-07
1.9615543e-07
1.9616001e-07
1.9616538e-07
1.9617203e-07
1.9618049e-07
1.9619196e-07
1.9620674e-07
1.9623327e-07
1.9624629e-07
1.9642057e-07
1.9591733e-07
1.9734513e-07
2.5389041e-09
2.7297928e-16
3.5552135e-17
1.7982941e-17
1.211717e-17
9.2537175e-18
7.5120099e-18
6.3346684e-18
5.4749628e-18
4.8186694e-18
4.30122e-18
3.881834e-18
3.5345503e-18
3.242056e-18
2.9922339e-18
2.7762983e-18
2.5877098e-18
2.4215731e-18
2.2739257e-18
2.1419364e-18
2.0231589e-18
1.9156921e-18
1.817974e-18
1.7287147e-18
1.6468291e-18
1.5714305e-18
1.5017619e-18
1.4371716e-18
1.3771019e-18
1.3210875e-18
1.2687598e-18
1.2198237e-18
1.1739502e-18
1.1308201e-18
1.0901894e-18
1.0518483e-18
1.0156108e-18
9.8131157e-19
9.4880439e-19
9.1796008e-19
8.8866364e-19
8.6078476e-19
8.3423356e-19
8.0891439e-19
7.847229e-19
7.6152942e-19
7.3925176e-19
7.1823783e-19
6.9848779e-19
6.7972019e-19
6.6191363e-19
6.4505289e-19
6.2912827e-19
6.1414643e-19
6.0009774e-19
5.8693402e-19
5.7437011e-19
5.6167764e-19
5.5161403e-19
5.4385197e-19
5.3770048e-19
5.333968e-19
5.3122309e-19
5.314815e-19
5.3441318e-19
5.3816942e-19
5.3691798e-19
5.5125249e-19
5.7609607e-19
6.0927603e-19
6.5246275e-19
7.0732396e-19
7.7524606e-19
8.5643706e-19
9.504678e-19
1.0551258e-18
1.1634533e-18
1.2656718e-18
1.3552818e-18
1.4280336e-18
1.4871021e-18
1.5338816e-18
1.5716658e-18
1.6027828e-18
1.6286615e-18
1.6499087e-18
1.6667738e-18
1.6796182e-18
1.6886105e-18
1.6935831e-18
1.6943826e-18
1.691288e-18
1.6848878e-18
1.6758762e-18
1.664925e-18
1.6525519e-18
1.639196e-18
1.6252492e-18
1.6109803e-18
1.5965592e-18
1.5821299e-18
1.567828e-18
1.5537208e-18
1.539836e-18
1.5261804e-18
1.5127673e-18
1.4996061e-18
1.486671e-18
1.4737643e-18
1.4610739e-18
1.447186e-18
1.4348291e-18
1.4168487e-18
1.9644919e-07
1.9594375e-07
1.959692e-07
1.9604877e-07
1.9609169e-07
1.9611117e-07
1.9612115e-07
1.9612748e-07
1.9613229e-07
1.9613645e-07
1.9614043e-07
1.9614455e-07
1.9614914e-07
1.9615454e-07
1.961612e-07
1.961697e-07
1.961812e-07
1.9619602e-07
1.9622263e-07
1.9623564e-07
1.9641051e-07
1.9590553e-07
1.9733839e-07
2.5860729e-09
3.5699712e-16
3.4752046e-17
1.7573237e-17
1.1840805e-17
9.0453423e-18
7.3457143e-18
6.1965872e-18
5.3572537e-18
4.7164207e-18
4.2111311e-18
3.8016047e-18
3.4625265e-18
3.177011e-18
2.9332265e-18
2.722579e-18
2.5386737e-18
2.3766957e-18
2.2327631e-18
2.1041192e-18
1.9883868e-18
1.8837156e-18
1.7885832e-18
1.7017271e-18
1.6220277e-18
1.5486529e-18
1.4808491e-18
1.417943e-18
1.359365e-18
1.304689e-18
1.2537065e-18
1.2063532e-18
1.1622322e-18
1.120857e-18
1.0819771e-18
1.0453952e-18
1.0109379e-18
9.7845171e-19
9.4780254e-19
9.1887322e-19
8.9156467e-19
8.6566658e-19
8.4111652e-19
8.1778652e-19
7.9547237e-19
7.7382188e-19
7.5267852e-19
7.3388855e-19
7.1763721e-19
7.0275169e-19
6.892664e-19
6.7722588e-19
6.6667995e-19
6.5773507e-19
6.5039979e-19
6.4440888e-19
6.3829231e-19
6.2835485e-19
6.2802883e-19
6.3565815e-19
6.47713e-19
6.651334e-19
6.8910086e-19
7.2107647e-19
7.6256979e-19
8.1244114e-19
8.6098524e-19
9.4469428e-19
1.0584743e-18
1.2018739e-18
1.3810347e-18
1.6022541e-18
1.8707681e-18
2.1879532e-18
2.5530655e-18
2.9574132e-18
3.3743377e-18
3.7678936e-18
4.1111989e-18
4.3927164e-18
4.6206029e-18
4.8039757e-18
4.954697e-18
5.0811432e-18
5.188372e-18
5.2782219e-18
5.3516271e-18
5.4100369e-18
5.4538945e-18
5.4825222e-18
5.4951169e-18
5.4924563e-18
5.4768965e-18
5.4511755e-18
5.4178362e-18
5.378958e-18
5.3362477e-18
5.2910964e-18
5.2445073e-18
5.1971947e-18
5.1497047e-18
5.1024699e-18
5.0557488e-18
5.0097012e-18
4.9643995e-18
4.9198905e-18
4.8762396e-18
4.8332559e-18
4.790884e-18
4.7485564e-18
4.7049391e-18
4.6642022e-18
4.6047687e-18
1.9643724e-07
1.9592803e-07
1.9595355e-07
1.9603363e-07
1.9607682e-07
1.9609641e-07
1.9610646e-07
1.9611283e-07
1.9611767e-07
1.9612185e-07
1.9612585e-07
1.9612999e-07
1.961346e-07
1.9614003e-07
1.9614672e-07
1.9615525e-07
1.961668e-07
1.9618168e-07
1.962084e-07
1.962214e-07
1.9639705e-07
1.9588974e-07
1.9732939e-07
2.6357236e-09
5.7519278e-16
3.4650313e-17
1.7505577e-17
1.1794273e-17
9.0186008e-18
7.3333799e-18
6.1932395e-18
5.3597153e-18
4.7230153e-18
4.2208838e-18
3.8139288e-18
3.4771109e-18
3.1937176e-18
2.9519938e-18
2.7433532e-18
2.5614111e-18
2.4012702e-18
2.2590317e-18
2.1319828e-18
2.0177978e-18
1.9146585e-18
1.8210619e-18
1.7357432e-18
1.6573954e-18
1.5853007e-18
1.5186626e-18
1.4566917e-18
1.3987397e-18
1.3444742e-18
1.2941786e-18
1.2485189e-18
1.2068584e-18
1.168145e-18
1.1320896e-18
1.0985206e-18
1.0672918e-18
1.0382773e-18
1.0113714e-18
9.8648666e-19
9.6356716e-19
9.4212283e-19
9.221717e-19
9.0345936e-19
8.8541873e-19
8.6690586e-19
8.4748311e-19
8.3413344e-19
8.2770487e-19
8.2395071e-19
8.2308293e-19
8.2541946e-19
8.3133208e-19
8.4132387e-19
8.5583938e-19
8.7500081e-19
8.9714548e-19
9.1695419e-19
9.5530191e-19
1.0113627e-18
1.0811595e-18
1.1679392e-18
1.2758433e-18
1.4101737e-18
1.5767927e-18
1.7777388e-18
1.9948235e-18
2.3083508e-18
2.7153943e-18
3.2226339e-18
3.8510583e-18
4.6223642e-18
5.5547102e-18
6.6536404e-18
7.9180496e-18
9.3191843e-18
1.0766945e-17
1.2139371e-17
1.3339768e-17
1.432935e-17
1.5130247e-17
1.5776961e-17
1.6309886e-17
1.6757826e-17
1.713836e-17
1.7457927e-17
1.7720195e-17
1.7930533e-17
1.8090455e-17
1.8197645e-17
1.8249161e-17
1.8247469e-17
1.8200829e-17
1.8118805e-17
1.8010196e-17
1.7882294e-17
1.7741041e-17
1.7591173e-17
1.7436149e-17
1.7278501e-17
1.7120117e-17
1.6962427e-17
1.6806329e-17
1.6652422e-17
1.6500994e-17
1.6352205e-17
1.6206305e-17
1.6062557e-17
1.5921344e-17
1.5779641e-17
1.5636166e-17
1.5500239e-17
1.5301777e-17
1.9642198e-07
1.9590792e-07
1.9593353e-07
1.9601426e-07
1.960578e-07
1.9607755e-07
1.9608767e-07
1.9609409e-07
1.9609897e-07
1.9610318e-07
1.961072e-07
1.9611137e-07
1.9611601e-07
1.9612147e-07
1.9612821e-07
1.9613678e-07
1.961484e-07
1.9616334e-07
1.9619019e-07
1.9620318e-07
1.9637983e-07
1.9586956e-07
1.973181e-07
2.6884678e-09
1.0509068e-15
3.5978901e-17
1.813317e-17
1.2214606e-17
9.3638996e-18
7.6395537e-18
6.4708705e-18
5.6144155e-18
4.9593668e-18
4.4424839e-18
4.0236041e-18
3.6772726e-18
3.386471e-18
3.1391073e-18
2.9262169e-18
2.7411448e-18
2.578542e-18
2.4342841e-18
2.3056496e-18
2.190345e-18
2.0865532e-18
1.9927533e-18
1.9076142e-18
1.8292289e-18
1.7571658e-18
1.6904615e-18
1.6279595e-18
1.5687562e-18
1.5127648e-18
1.4616839e-18
1.4183037e-18
1.3812911e-18
1.3479205e-18
1.317773e-18
1.2907417e-18
1.2667492e-18
1.2457424e-18
1.2276939e-18
1.2126011e-18
1.2005374e-18
1.1908324e-18
1.1836032e-18
1.178707e-18
1.1755512e-18
1.1726568e-18
1.1694584e-18
1.1763142e-18
1.1950885e-18
1.2201001e-18
1.2521657e-18
1.2923569e-18
1.3419389e-18
1.4025164e-18
1.4757741e-18
1.5630281e-18
1.6625502e-18
1.7657844e-18
1.9111823e-18
2.1003651e-18
2.3291769e-18
2.6072777e-18
2.9470535e-18
3.3645635e-18
3.8781394e-18
4.5005405e-18
5.1985012e-18
6.1564426e-18
7.3822278e-18
8.9055393e-18
1.0788932e-17
1.3097276e-17
1.5885175e-17
1.9170424e-17
2.2952229e-17
2.7148345e-17
3.1494683e-17
3.563014e-17
3.9258435e-17
4.2259077e-17
4.4688243e-17
4.6651274e-17
4.8268556e-17
4.9626707e-17
5.0779223e-17
5.1746353e-17
5.2540281e-17
5.3177939e-17
5.3664128e-17
5.3992034e-17
5.4152751e-17
5.4153516e-17
5.4019196e-17
5.3778551e-17
5.3457975e-17
5.3079421e-17
5.2660744e-17
5.2216092e-17
5.1755833e-17
5.1287603e-17
5.0817072e-17
5.0348479e-17
4.9884515e-17
4.9427014e-17
4.8976874e-17
4.8534566e-17
4.8100866e-17
4.7673498e-17
4.7254059e-17
4.6832654e-17
4.6408015e-17
4.6004147e-17
4.5414352e-17
1.9640305e-07
1.9588293e-07
1.9590865e-07
1.9599019e-07
1.9603416e-07
1.960541e-07
1.9606432e-07
1.960708e-07
1.9607572e-07
1.9607997e-07
1.9608403e-07
1.9608823e-07
1.9609291e-07
1.9609841e-07
1.9610519e-07
1.9611383e-07
1.9612551e-07
1.9614055e-07
1.9616756e-07
1.9618054e-07
1.9635842e-07
1.9584444e-07
1.9730456e-07
2.7450921e-09
1.9975302e-15
4.0411096e-17
2.0266579e-17
1.3645952e-17
1.0516678e-17
8.6386913e-18
7.3608485e-18
6.4194775e-18
5.6974957e-18
5.1271471e-18
4.6650624e-18
4.2839266e-18
3.9654071e-18
3.6961769e-18
3.4660255e-18
3.2673878e-18
3.0936191e-18
2.9399052e-18
2.8034172e-18
2.6818732e-18
2.5734099e-18
2.4764272e-18
2.3894877e-18
2.3103587e-18
2.2386675e-18
2.1733894e-18
2.112845e-18
2.0557716e-18
2.0022325e-18
1.9548444e-18
1.9178056e-18
1.8895416e-18
1.8664577e-18
1.8481575e-18
1.8346794e-18
1.8261043e-18
1.8225477e-18
1.8241669e-18
1.8311611e-18
1.8439167e-18
1.8613534e-18
1.8838307e-18
1.9115261e-18
1.9438924e-18
1.9788535e-18
2.0156992e-18
2.0720266e-18
2.1519751e-18
2.2470467e-18
2.3595697e-18
2.4924944e-18
2.649322e-18
2.8344143e-18
3.0526182e-18
3.3084694e-18
3.6010083e-18
3.9160888e-18
4.3298198e-18
4.8503077e-18
5.4750917e-18
6.2298589e-18
7.1476331e-18
8.2715087e-18
9.6516613e-18
1.1331219e-17
1.3254998e-17
1.5834459e-17
1.9113412e-17
2.3185025e-17
2.8216255e-17
3.4380535e-17
4.1824507e-17
5.059781e-17
6.0702867e-17
7.1927896e-17
8.3578339e-17
9.4695472e-17
1.0447411e-16
1.1257887e-16
1.1914207e-16
1.2444667e-16
1.2881418e-16
1.3247754e-16
1.3558202e-16
1.3818425e-16
1.4031937e-16
1.4203441e-16
1.4334297e-16
1.442271e-16
1.4466294e-16
1.4466978e-16
1.4431434e-16
1.4367377e-16
1.4281882e-16
1.4180838e-16
1.4069034e-16
1.3950257e-16
1.3827285e-16
1.3702168e-16
1.3576427e-16
1.3451194e-16
1.3327189e-16
1.3204908e-16
1.3084593e-16
1.2966371e-16
1.2850451e-16
1.2736218e-16
1.2624137e-16
1.2511488e-16
1.2398141e-16
1.229021e-16
1.2132581e-16
1.9638e-07
1.9585244e-07
1.9587829e-07
1.9596083e-07
1.9600533e-07
1.9602551e-07
1.9603585e-07
1.960424e-07
1.9604738e-07
1.9605168e-07
1.9605578e-07
1.9606002e-07
1.9606474e-07
1.9607029e-07
1.9607714e-07
1.9608584e-07
1.9609762e-07
1.9611276e-07
1.9613998e-07
1.9615293e-07
1.9633232e-07
1.9581378e-07
1.9728888e-07
2.8065475e-09
3.7817134e-15
5.1711917e-17
2.5709381e-17
1.7298053e-17
1.3456756e-17
1.1189262e-17
9.6375459e-18
8.4842105e-18
7.5953734e-18
6.8911472e-18
6.3195224e-18
5.8482255e-18
5.4556159e-18
5.1256218e-18
4.8455998e-18
4.6063673e-18
4.3985126e-18
4.2155691e-18
4.0543323e-18
3.9124228e-18
3.787775e-18
3.6785289e-18
3.5829496e-18
3.4980867e-18
3.4236274e-18
3.3584095e-18
3.2995719e-18
3.2450461e-18
3.1951986e-18
3.1544972e-18
3.1299528e-18
3.1195279e-18
3.1179308e-18
3.1248401e-18
3.1406185e-18
3.165703e-18
3.2005902e-18
3.2458567e-18
3.3021624e-18
3.3706143e-18
3.4492659e-18
3.5390362e-18
3.6409357e-18
3.7547362e-18
3.8774316e-18
4.0083001e-18
4.1794814e-18
4.3999246e-18
4.6560668e-18
4.9537594e-18
5.3003171e-18
5.7044534e-18
6.1769518e-18
6.7301315e-18
7.3764514e-18
8.1184348e-18
8.9334662e-18
9.9737645e-18
1.1263252e-17
1.280733e-17
1.4668962e-17
1.6929234e-17
1.9694397e-17
2.30899e-17
2.7235928e-17
3.2054441e-17
3.8425566e-17
4.6492856e-17
5.6507898e-17
6.8881414e-17
8.404053e-17
1.0234767e-16
1.2392877e-16
1.4879808e-16
1.7644991e-16
2.0519627e-16
2.3268852e-16
2.5691981e-16
2.7703595e-16
2.933302e-16
3.0649984e-16
3.173362e-16
3.2641588e-16
3.3410121e-16
3.4053668e-16
3.4581383e-16
3.5005194e-16
3.5328599e-16
3.5547236e-16
3.5655232e-16
3.5657343e-16
3.5570038e-16
3.5412362e-16
3.5201769e-16
3.4952801e-16
3.4677274e-16
3.4384531e-16
3.4081426e-16
3.3773023e-16
3.3463071e-16
3.3154361e-16
3.2848672e-16
3.2547229e-16
3.2250632e-16
3.1959193e-16
3.167343e-16
3.1391822e-16
3.1115545e-16
3.0837833e-16
3.0558544e-16
3.0292487e-16
2.9903914e-16
1.9635237e-07
1.9581577e-07
1.9584178e-07
1.9592552e-07
1.9597067e-07
1.9599114e-07
1.9600162e-07
1.9600826e-07
1.9601331e-07
1.9601766e-07
1.9602181e-07
1.9602611e-07
1.9603088e-07
1.9603649e-07
1.9604341e-07
1.9605219e-07
1.9606408e-07
1.9607935e-07
1.9610681e-07
1.9611973e-07
1.9630093e-07
1.9577688e-07
1.9727126e-07
2.8739715e-09
7.028086e-15
7.782975e-17
3.8324873e-17
2.5765369e-17
2.0253825e-17
1.7066221e-17
1.4869786e-17
1.3219668e-17
1.1940676e-17
1.0923781e-17
1.0096413e-17
9.4144022e-18
8.848188e-18
8.3752526e-18
7.9773558e-18
7.6415987e-18
7.3523693e-18
7.0994411e-18
6.8786736e-18
6.6873757e-18
6.5229634e-18
6.3829474e-18
6.2649092e-18
6.1644526e-18
6.0812966e-18
6.0140259e-18
5.9572602e-18
5.9072328e-18
5.864917e-18
5.838368e-18
5.8399771e-18
5.8668868e-18
5.9106778e-18
5.9712507e-18
6.0496735e-18
6.147158e-18
6.2650329e-18
6.4047922e-18
6.5681064e-18
6.7576671e-18
6.9697794e-18
7.2065941e-18
7.4711246e-18
7.7642348e-18
8.0816819e-18
8.4232969e-18
8.8492702e-18
9.3783453e-18
9.9884311e-18
1.0693186e-17
1.1509573e-17
1.2457856e-17
1.3563041e-17
1.4854184e-17
1.6362032e-17
1.8099792e-17
2.0034073e-17
2.2465209e-17
2.5453447e-17
2.9028468e-17
3.3335693e-17
3.8562619e-17
4.4955658e-17
5.2808875e-17
6.2424123e-17
7.3721956e-17
8.8515141e-17
1.0719615e-16
1.3038581e-16
1.5903563e-16
1.9413597e-16
2.3652955e-16
2.8651503e-16
3.4414039e-16
4.0826287e-16
4.7501088e-16
5.3896171e-16
5.9541904e-16
6.4234786e-16
6.8036901e-16
7.1109813e-16
7.3636939e-16
7.575253e-16
7.7541456e-16
7.9038175e-16
8.0264848e-16
8.124976e-16
8.2001314e-16
8.2509509e-16
8.2760743e-16
8.2766056e-16
8.2563706e-16
8.2197921e-16
8.1709237e-16
8.1131428e-16
8.0491936e-16
7.9812453e-16
7.9108896e-16
7.8393027e-16
7.7673555e-16
7.6956954e-16
7.6247362e-16
7.5547621e-16
7.4859127e-16
7.4182606e-16
7.3519261e-16
7.2865558e-16
7.2224253e-16
7.1579587e-16
7.0931385e-16
7.0313796e-16
6.9411806e-16
1.9631959e-07
1.9577213e-07
1.9579833e-07
1.9588351e-07
1.9592944e-07
1.9595026e-07
1.9596091e-07
1.9596766e-07
1.9597278e-07
1.959772e-07
1.9598142e-07
1.9598577e-07
1.9599061e-07
1.9599629e-07
1.9600329e-07
1.9601218e-07
1.9602419e-07
1.9603961e-07
1.9606736e-07
1.9608023e-07
1.962636e-07
1.9573292e-07
1.9725205e-07
2.9487275e-09
1.2795374e-14
1.3414018e-16
6.555445e-17
4.4043669e-17
3.4912807e-17
2.9727254e-17
2.6132831e-17
2.3407253e-17
2.1284377e-17
1.9591472e-17
1.821115e-17
1.707324e-17
1.6130904e-17
1.5347686e-17
1.4693376e-17
1.414716e-17
1.3680249e-17
1.3274363e-17
1.2923289e-17
1.2623598e-17
1.237155e-17
1.2163277e-17
1.1994907e-17
1.1859257e-17
1.1755966e-17
1.1683197e-17
1.1630387e-17
1.1590312e-17
1.1565147e-17
1.1569716e-17
1.1626417e-17
1.173102e-17
1.1869556e-17
1.2042509e-17
1.2252437e-17
1.2502192e-17
1.2794863e-17
1.313389e-17
1.3523091e-17
1.3968526e-17
1.4463066e-17
1.5011483e-17
1.5621345e-17
1.629652e-17
1.7031555e-17
1.782846e-17
1.8800097e-17
1.9984661e-17
2.1346523e-17
2.2916025e-17
2.4730701e-17
2.6835498e-17
2.9285793e-17
3.2146709e-17
3.5489323e-17
3.9354778e-17
4.3700446e-17
4.9107617e-17
5.5716411e-17
6.3620211e-17
7.3140335e-17
8.4691465e-17
9.8819833e-17
1.1618284e-16
1.3748927e-16
1.6274153e-16
1.9556231e-16
2.369241e-16
2.8826787e-16
3.5170165e-16
4.2942099e-16
5.2329844e-16
6.3400805e-16
7.6168295e-16
9.038439e-16
1.0519852e-15
1.1941266e-15
1.3197799e-15
1.4243332e-15
1.5090566e-15
1.5775282e-15
1.6338132e-15
1.680898e-15
1.7206798e-15
1.75394e-15
1.7811868e-15
1.8030586e-15
1.8197473e-15
1.831033e-15
1.8366145e-15
1.8367371e-15
1.8322499e-15
1.8241349e-15
1.8132917e-15
1.80047e-15
1.7862791e-15
1.7712004e-15
1.7555872e-15
1.7397006e-15
1.7237339e-15
1.7078308e-15
1.6920832e-15
1.6765542e-15
1.6612748e-15
1.646261e-15
1.6315397e-15
1.6170323e-15
1.6028002e-15
1.5884933e-15
1.5741091e-15
1.5604033e-15
1.5403859e-15
1.9628106e-07
1.9572063e-07
1.9574704e-07
1.9583395e-07
1.9588081e-07
1.9590203e-07
1.9591289e-07
1.9591977e-07
1.9592499e-07
1.9592949e-07
1.9593378e-07
1.9593821e-07
1.9594312e-07
1.9594888e-07
1.9595598e-07
1.9596498e-07
1.9597715e-07
1.9599274e-07
1.9602083e-07
1.9603365e-07
1.9621957e-07
1.9568099e-07
1.972318e-07
3.0324629e-09
2.2872742e-14
2.510472e-16
1.2211629e-16
8.2014449e-17
6.5356062e-17
5.6013115e-17
4.9511752e-17
4.4551406e-17
4.0675658e-17
3.7578783e-17
3.5049886e-17
3.2964516e-17
3.1239817e-17
2.9810434e-17
2.8621509e-17
2.7636011e-17
2.6798014e-17
2.6072568e-17
2.5449122e-17
2.4922656e-17
2.4486998e-17
2.4135405e-17
2.3861034e-17
2.3651456e-17
2.3505918e-17
2.3421933e-17
2.3378522e-17
2.3361578e-17
2.3375623e-17
2.344803e-17
2.3619447e-17
2.388347e-17
2.4216545e-17
2.4620565e-17
2.5101164e-17
2.5664581e-17
2.6317549e-17
2.7067533e-17
2.7922795e-17
2.8896386e-17
2.997455e-17
3.1167491e-17
3.249273e-17
3.3961526e-17
3.5568363e-17
3.7321488e-17
3.9430873e-17
4.1972675e-17
4.4891122e-17
4.8251258e-17
5.2133338e-17
5.6633651e-17
6.1870717e-17
6.7985193e-17
7.5134196e-17
8.3425689e-17
9.2821384e-17
1.044262e-16
1.1855034e-16
1.3543987e-16
1.5578147e-16
1.8046204e-16
2.10652e-16
2.477697e-16
2.9340246e-16
3.4786804e-16
4.1824084e-16
5.067824e-16
6.1669296e-16
7.524878e-16
9.1887227e-16
1.1198673e-15
1.3569389e-15
1.6304195e-15
1.9350929e-15
2.2528689e-15
2.5581463e-15
2.8283114e-15
3.0532999e-15
3.2356443e-15
3.3830058e-15
3.5040944e-15
3.6053284e-15
3.6908021e-15
3.7622213e-15
3.8207057e-15
3.8676435e-15
3.9034555e-15
3.9276743e-15
3.9396552e-15
3.9399244e-15
3.9303038e-15
3.9128999e-15
3.8896429e-15
3.8621412e-15
3.8317018e-15
3.7993575e-15
3.7658664e-15
3.7317886e-15
3.697539e-15
3.6634256e-15
3.6296455e-15
3.5963343e-15
3.5635584e-15
3.5313524e-15
3.4997737e-15
3.4686538e-15
3.4381249e-15
3.4074349e-15
3.3765805e-15
3.3471803e-15
3.304241e-15
1.9623611e-07
1.9566027e-07
1.9568692e-07
1.9577588e-07
1.9582383e-07
1.9584555e-07
1.9585665e-07
1.9586368e-07
1.9586902e-07
1.9587361e-07
1.9587798e-07
1.9588249e-07
1.958875e-07
1.9589336e-07
1.9590057e-07
1.9590971e-07
1.9592205e-07
1.9593785e-07
1.9596633e-07
1.9597908e-07
1.9616799e-07
1.9562003e-07
1.9721133e-07
3.1271849e-09
4.0279153e-14
4.8807893e-16
2.3683408e-16
1.5903033e-16
1.27101e-16
1.0932466e-16
9.6928861e-17
8.7438453e-17
8.0010182e-17
7.4068017e-17
6.9211008e-17
6.5204374e-17
6.1892144e-17
5.9150517e-17
5.6875038e-17
5.4996212e-17
5.3403369e-17
5.2027827e-17
5.0850198e-17
4.9862196e-17
4.90527e-17
4.8409124e-17
4.791869e-17
4.755925e-17
4.7328881e-17
4.7224178e-17
4.7203554e-17
4.7239422e-17
4.7340835e-17
4.7558141e-17
4.7964847e-17
4.8551287e-17
4.9277708e-17
5.0149217e-17
5.1177685e-17
5.237622e-17
5.375895e-17
5.5341513e-17
5.7141208e-17
5.9185291e-17
6.144739e-17
6.3948748e-17
6.6727989e-17
6.9813389e-17
7.3203466e-17
7.6922079e-17
8.1355975e-17
8.6654515e-17
9.2734475e-17
9.9731637e-17
1.0781323e-16
1.171802e-16
1.2807973e-16
1.4080736e-16
1.5569922e-16
1.7301431e-16
1.9276321e-16
2.1701489e-16
2.464332e-16
2.8160958e-16
3.2397473e-16
3.7537761e-16
4.3826196e-16
5.1560629e-16
6.1084331e-16
7.2518077e-16
8.7219653e-16
1.056921e-15
1.2862314e-15
1.5695532e-15
1.9167135e-15
2.3361238e-15
2.8308834e-15
3.4017699e-15
4.0380607e-15
4.702221e-15
5.340915e-15
5.9066764e-15
6.3781665e-15
6.7603409e-15
7.0691847e-15
7.3228848e-15
7.5348778e-15
7.7137638e-15
7.8631611e-15
7.985461e-15
8.0835983e-15
8.1584692e-15
8.2091042e-15
8.2341576e-15
8.2347299e-15
8.2146298e-15
8.1782599e-15
8.1296551e-15
8.0721774e-15
8.0085589e-15
7.9409583e-15
7.8709602e-15
7.7997355e-15
7.7281512e-15
7.6568515e-15
7.5862484e-15
7.516625e-15
7.4481205e-15
7.3808071e-15
7.3148047e-15
7.2497612e-15
7.1859531e-15
7.1218083e-15
7.0573209e-15
6.9958717e-15
6.9061246e-15
1.9618401e-07
1.9558992e-07
1.9561684e-07
1.9570822e-07
1.9575747e-07
1.9577976e-07
1.9579116e-07
1.9579837e-07
1.9580383e-07
1.9580854e-07
1.9581301e-07
1.9581762e-07
1.9582273e-07
1.9582871e-07
1.9583605e-07
1.9584535e-07
1.958579e-07
1.9587394e-07
1.9590286e-07
1.9591552e-07
1.9610793e-07
1.9554884e-07
1.971918e-07
3.2353598e-09
7.010642e-14
9.6094188e-16
4.6574833e-16
3.1271961e-16
2.5032222e-16
2.1572431e-16
1.9157438e-16
1.7305188e-16
1.585413e-16
1.4692678e-16
1.3742766e-16
1.2958879e-16
1.2310832e-16
1.1774619e-16
1.1329966e-16
1.096352e-16
1.0653334e-16
1.0385818e-16
1.0157267e-16
9.9661986e-17
9.8105105e-17
9.6877792e-17
9.5955599e-17
9.5298517e-17
9.4901675e-17
9.4760529e-17
9.4793208e-17
9.4945983e-17
9.5236596e-17
9.5757102e-17
9.663963e-17
9.7869979e-17
9.9381535e-17
1.0118643e-16
1.0330899e-16
1.0577608e-16
1.0861661e-16
1.1186258e-16
1.1554938e-16
1.1973274e-16
1.2436243e-16
1.2948184e-16
1.3517331e-16
1.4150259e-16
1.4848334e-16
1.5617565e-16
1.6528526e-16
1.7610153e-16
1.8850909e-16
2.0278574e-16
2.192731e-16
2.3838223e-16
2.6061856e-16
2.8659e-16
3.1699822e-16
3.5243057e-16
3.9306353e-16
4.4272615e-16
5.0280417e-16
5.7464027e-16
6.6115729e-16
7.6613466e-16
8.9457393e-16
1.0526008e-15
1.2474453e-15
1.482521e-15
1.7835573e-15
2.1613836e-15
2.6304123e-15
3.2099319e-15
3.9200609e-15
4.7780445e-15
5.7902946e-15
6.9585472e-15
8.2611514e-15
9.6216973e-15
1.0931222e-14
1.2092138e-14
1.3060198e-14
1.3844964e-14
1.4479133e-14
1.4999931e-14
1.5434923e-14
1.5801803e-14
1.6108074e-14
1.6358724e-14
1.6559825e-14
1.671324e-14
1.6816997e-14
1.6868343e-14
1.6869532e-14
1.6828369e-14
1.6753873e-14
1.6654309e-14
1.6536567e-14
1.6406243e-14
1.626776e-14
1.6124365e-14
1.5978456e-14
1.583181e-14
1.5685747e-14
1.554111e-14
1.539848e-14
1.5258142e-14
1.5120245e-14
1.4985032e-14
1.4851785e-14
1.4721068e-14
1.4589661e-14
1.4457553e-14
1.4331669e-14
1.4147813e-14
1.9612398e-07
1.9550833e-07
1.9553554e-07
1.9562978e-07
1.9568056e-07
1.9570354e-07
1.9571527e-07
1.9572269e-07
1.9572832e-07
1.9573315e-07
1.9573774e-07
1.9574247e-07
1.957477e-07
1.9575381e-07
1.957613e-07
1.9577079e-07
1.9578357e-07
1.9579988e-07
1.9582933e-07
1.9584187e-07
1.9603834e-07
1.9546607e-07
1.9717482e-07
3.3600433e-09
1.2094524e-13
1.893298e-15
9.1721967e-16
6.1584519e-16
4.9337513e-16
4.2562131e-16
3.783079e-16
3.4198749e-16
3.1352203e-16
2.9073057e-16
2.7208307e-16
2.5668957e-16
2.439607e-16
2.3342772e-16
2.246953e-16
2.1750491e-16
2.1142314e-16
2.0618163e-16
2.0170851e-16
1.9797603e-16
1.9494367e-16
1.9256422e-16
1.9079051e-16
1.8954991e-16
1.8883071e-16
1.8862731e-16
1.8877974e-16
1.8918399e-16
1.8987434e-16
1.9101815e-16
1.9285147e-16
1.9535455e-16
1.9841703e-16
2.0206591e-16
2.0635019e-16
2.113239e-16
2.170452e-16
2.2357848e-16
2.3099494e-16
2.394067e-16
2.4871878e-16
2.5901836e-16
2.7047688e-16
2.8323997e-16
2.9736329e-16
3.12987e-16
3.313891e-16
3.531251e-16
3.7805458e-16
4.067371e-16
4.3985994e-16
4.7825105e-16
5.2292802e-16
5.7512109e-16
6.362676e-16
7.0764871e-16
7.8988465e-16
8.9000006e-16
1.0108336e-15
1.1553159e-15
1.3293278e-15
1.5404772e-15
1.7988432e-15
2.1168214e-15
2.5093317e-15
2.9848751e-15
3.5917575e-15
4.3527217e-15
5.2973909e-15
6.4646311e-15
7.8949966e-15
9.6232926e-15
1.1662561e-14
1.4016551e-14
1.6642144e-14
1.9386076e-14
2.2029106e-14
2.4373805e-14
2.6330009e-14
2.7915976e-14
2.9197564e-14
3.0249799e-14
3.1128341e-14
3.1869007e-14
3.248709e-14
3.2992805e-14
3.3398499e-14
3.370798e-14
3.3917291e-14
3.4020888e-14
3.402332e-14
3.3940325e-14
3.3790097e-14
3.3589307e-14
3.3351849e-14
3.3089013e-14
3.2809719e-14
3.2520516e-14
3.2226242e-14
3.1930481e-14
3.1635894e-14
3.1344183e-14
3.1056519e-14
3.0773478e-14
3.0495357e-14
3.0222654e-14
2.9953911e-14
2.9690274e-14
2.9425244e-14
2.9158804e-14
2.8904913e-14
2.8534101e-14
1.9605516e-07
1.9541409e-07
1.9544164e-07
1.9553924e-07
1.9559181e-07
1.9561559e-07
1.9562772e-07
1.9563539e-07
1.956412e-07
1.9564619e-07
1.9565091e-07
1.9565578e-07
1.9566114e-07
1.9566741e-07
1.9567508e-07
1.9568478e-07
1.9569784e-07
1.9571445e-07
1.9574449e-07
1.9575688e-07
1.9595805e-07
1.953702e-07
1.9716253e-07
3.5050504e-09
2.073016e-13
3.7156308e-15
1.7998866e-15
1.2085147e-15
9.6863616e-16
8.3610118e-16
7.4353658e-16
6.7244827e-16
6.1672331e-16
5.7209831e-16
5.3557736e-16
5.0542027e-16
4.8047589e-16
4.5982962e-16
4.4271164e-16
4.2862127e-16
4.167078e-16
4.0644413e-16
3.9769031e-16
3.9039335e-16
3.8447461e-16
3.7984203e-16
3.7640452e-16
3.7403006e-16
3.7269182e-16
3.7238419e-16
3.7279675e-16
3.7372931e-16
3.7524751e-16
3.7765418e-16