/*--------------------------------*- C++ -*----------------------------------*\
| =========                 |                                                 |
| \\      /  F ield         | OpenFOAM: The Open Source CFD Toolbox           |
|  \\    /   O peration     | Version:  2206                                  |
|   \\  /    A nd           | Website:  www.openfoam.com                      |
|    \\/     M anipulation  |                                                 |
\*---------------------------------------------------------------------------*/
FoamFile
{
    version     2.0;
    format      ascii;
    arch        "LSB;label=32;scalar=64";
    class       volScalarField;
    location    "600";
    object      omega;
}
// * * * * * * * * * * * * * * * * * * * * * * * * * * * * * * * * * * * * * //

dimensions      [0 0 -1 0 0 0 0];

internalField   nonuniform List<scalar> 
13056
(
590.52356
553.3867
549.82692
549.9685
550.09149
550.09957
550.08946
550.08295
550.08127
550.08353
550.0893
550.09853
550.11147
550.12869
550.15107
550.18023
550.21807
550.27056
550.33698
550.46971
550.49863
551.39613
555.47757
19149.038
1.1944345e+09
1.1944345e+09
1.1944345e+09
1.1944345e+09
1.1944345e+09
1.1944345e+09
1.1944345e+09
1.1944345e+09
1.1944345e+09
1.1944345e+09
1.1944345e+09
1.1944345e+09
1.1944345e+09
1.1944345e+09
1.1944345e+09
1.1944345e+09
1.1944345e+09
1.1944345e+09
1.1944345e+09
1.1944345e+09
1.1944345e+09
1.1944345e+09
1.1944345e+09
1.1944345e+09
1.1944345e+09
1.1944345e+09
1.1944345e+09
1.1944345e+09
1.1944345e+09
1.1944345e+09
1.1944345e+09
1.1944345e+09
1.1944345e+09
1.1944345e+09
1.1944345e+09
1.1944345e+09
1.1944345e+09
1.1944345e+09
1.1944345e+09
1.1944345e+09
1.1944345e+09
1.1944345e+09
1.1944345e+09
1.1944345e+09
1.1944345e+09
1.1944345e+09
1.1944345e+09
1.1944345e+09
1.1944345e+09
1.1944345e+09
1.1944345e+09
1.1944345e+09
1.1944345e+09
1.1944345e+09
1.1944345e+09
1.1944345e+09
1.1944345e+09
1.1944345e+09
1.1944345e+09
1.1944345e+09
1.1944345e+09
1.1944345e+09
1.1944345e+09
1.1944345e+09
1.1944345e+09
1.1944345e+09
1.1944345e+09
1.1944345e+09
1.1944345e+09
1.1944345e+09
1.1944345e+09
1.1944345e+09
1.1944345e+09
1.1944345e+09
1.1944345e+09
1.1944345e+09
1.1944345e+09
1.1944345e+09
1.1944345e+09
1.1944345e+09
1.1944345e+09
1.1944345e+09
1.1944345e+09
1.1944345e+09
1.1944345e+09
1.1944345e+09
1.1944345e+09
1.1944345e+09
1.1944345e+09
1.1944345e+09
1.1944345e+09
1.1944345e+09
1.1944345e+09
1.1944345e+09
1.1944345e+09
1.1944345e+09
1.1944345e+09
1.1944345e+09
1.1944345e+09
1.1944345e+09
1.1944345e+09
1.1944345e+09
1.1944345e+09
1.1944345e+09
1.1944345e+09
1.1944345e+09
1.1944345e+09
1.1944345e+09
1.1944345e+09
1.1944345e+09
1.1944345e+09
1.1944345e+09
590.47848
553.32387
549.76269
549.90417
550.02718
550.03525
550.02513
550.01861
550.01693
550.01919
550.02496
550.03419
550.04713
550.06436
550.08674
550.1159
550.15376
550.20626
550.2727
550.40547
550.43439
551.33203
555.41278
18859.19
1.9587103e+08
1.9626973e+08
1.962697e+08
1.962697e+08
1.9626971e+08
1.9626972e+08
1.9626973e+08
1.9626974e+08
1.9626975e+08
1.9626976e+08
1.9626977e+08
1.9626978e+08
1.9626979e+08
1.962698e+08
1.9626981e+08
1.9626982e+08
1.9626983e+08
1.9626985e+08
1.9626986e+08
1.9626987e+08
1.9626989e+08
1.962699e+08
1.9626992e+08
1.9626994e+08
1.9626996e+08
1.9626998e+08
1.9627e+08
1.9627003e+08
1.9627006e+08
1.962701e+08
1.9627013e+08
1.9627016e+08
1.9627019e+08
1.9627022e+08
1.9627026e+08
1.962703e+08
1.9627035e+08
1.962704e+08
1.9627045e+08
1.9627052e+08
1.9627059e+08
1.9627067e+08
1.9627077e+08
1.9627089e+08
1.9627104e+08
1.9627124e+08
1.9627141e+08
1.9627157e+08
1.9627174e+08
1.9627194e+08
1.9627218e+08
1.9627247e+08
1.9627281e+08
1.9627323e+08
1.9627378e+08
1.9627459e+08
1.9627592e+08
1.9627695e+08
1.9627787e+08
1.9627898e+08
1.9628035e+08
1.9628206e+08
1.9628427e+08
1.962873e+08
1.9629243e+08
1.9630375e+08
1.9631009e+08
1.9631571e+08
1.9632265e+08
1.9633118e+08
1.9634162e+08
1.9635439e+08
1.963701e+08
1.9639002e+08
1.9641601e+08
1.9644928e+08
1.9648829e+08
1.9652636e+08
1.9655945e+08
1.9658409e+08
1.9660237e+08
1.9661542e+08
1.9662437e+08
1.9663031e+08
1.9663422e+08
1.9663696e+08
1.9663908e+08
1.9664081e+08
1.9664224e+08
1.9664338e+08
1.9664423e+08
1.9664483e+08
1.9664525e+08
1.9664552e+08
1.9664568e+08
1.9664578e+08
1.9664581e+08
1.9664579e+08
1.9664574e+08
1.9664568e+08
1.9664559e+08
1.9664549e+08
1.9664538e+08
1.9664527e+08
1.9664515e+08
1.9664504e+08
1.9664492e+08
1.9664487e+08
1.9664472e+08
1.9664493e+08
1.9664485e+08
1.9664472e+08
590.33497
553.12597
549.56058
549.70175
549.82481
549.83286
549.82271
549.81618
549.81448
549.81674
549.8225
549.83173
549.84468
549.86191
549.88431
549.9135
549.95138
550.00392
550.07041
550.2033
550.23221
551.13014
555.21286
18523.316
64149695
64221500
64221466
64221463
64221485
64221519
64221553
64221586
64221618
64221649
64221676
64221700
64221720
64221737
64221751
64221765
64221779
64221795
64221811
64221829
64221849
64221872
64221898
64221944
64222006
64222089
64222201
64222352
64222537
64222714
64222809
64222842
64222871
64222904
64222940
64222982
64223028
64223082
64223144
64223216
64223346
64223530
64223810
64224278
64225113
64226405
64227179
64227310
64227452
64227620
64227850
64228201
64228714
64229578
64231241
64235232
64245066
64249434
64250260
64251365
64252919
64255284
64259378
64268147
64295029
64388889
64414354
64420169
64428495
64440809
64459711
64489993
64540217
64626725
64775569
65010548
65323975
65650226
65940446
66155897
66311748
66417048
66482250
66518169
66535283
66542551
66545463
66546649
66547212
66547537
66547746
66547887
66547983
66548043
66548080
66548101
66548108
66548104
66548094
66548079
66548060
66548037
66548012
66547986
66547961
66547935
66547907
66547895
66547862
66547909
66547891
66547860
590.08852
552.78667
549.2141
549.35476
549.4779
549.48592
549.47573
549.46916
549.46744
549.46969
549.47544
549.48468
549.49763
549.51488
549.5373
549.56653
549.60446
549.65708
549.72365
549.85674
549.88562
550.78399
554.8713
18169.149
29428533
29343204
29343099
29343090
29343184
29343330
29343481
29343628
29343772
29343908
29344029
29344131
29344212
29344272
29344319
29344362
29344407
29344456
29344510
29344570
29344637
29344715
29344809
29345009
29345280
29345660
29346192
29346918
29347818
29348673
29349098
29349193
29349262
29349339
29349429
29349532
29349653
29349797
29349969
29350178
29350671
29351419
29352644
29354814
29358847
29365213
29368856
29369123
29369377
29369692
29370235
29371286
29373033
29376421
29383710
29402728
29451523
29471817
29473405
29475806
29479706
29486695
29501101
29537479
29663741
30129254
30239520
30241483
30244293
30248449
30254735
30265047
30281990
30311163
30361322
30440420
30545758
30655204
30752391
30824435
30876494
30911642
30933395
30945375
30951082
30953506
30954477
30954872
30955060
30955168
30955238
30955285
30955317
30955337
30955350
30955356
30955359
30955357
30955354
30955349
30955343
30955335
30955327
30955318
30955310
30955301
30955292
30955288
30955277
30955292
30955287
30955276
589.73213
552.29606
548.71314
548.85304
548.9763
548.98428
548.97402
548.9674
548.96565
548.96788
548.97363
548.98287
548.99584
549.01311
549.03556
549.06484
549.10284
549.15556
549.22225
549.35563
549.38449
550.28346
554.37784
17800.692
16421401
16059646
16059326
16059301
16059615
16060100
16060606
16061100
16061583
16062038
16062444
16062783
16063048
16063243
16063391
16063525
16063664
16063815
16063983
16064171
16064385
16064630
16064935
16065598
16066506
16067787
16069591
16072060
16075129
16078035
16079463
16079750
16079940
16080159
16080413
16080710
16081062
16081483
16081993
16082624
16084219
16086685
16090776
16098104
16111822
16133556
16145889
16146571
16147172
16147936
16149430
16152597
16158068
16168662
16192315
16255923
16421581
16488199
16488879
16489908
16491579
16494574
16500747
16516330
16570370
16768945
16815808
16816642
16817836
16819602
16822273
16826654
16833852
16846242
16867536
16901092
16945735
16992064
17033159
17063594
17085572
17100404
17109580
17114633
17117040
17118062
17118471
17118638
17118717
17118763
17118792
17118812
17118826
17118834
17118839
17118842
17118843
17118843
17118841
17118839
17118837
17118833
17118830
17118826
17118823
17118819
17118815
17118813
17118809
17118815
17118813
17118808
589.2563
551.6407
548.04394
548.18285
548.30626
548.31417
548.30383
548.29714
548.29535
548.29756
548.3033
548.31253
548.32552
548.34282
548.36532
548.39467
548.43276
548.48562
548.55246
548.68623
548.71505
549.61481
553.71855
17416.872
10159616
9793523.1
9792709.1
9792644
9793472.8
9794759.2
9796107.1
9797423.5
9798711.2
9799925.4
9801004.1
9801901.8
9802593.2
9803091.3
9803459.4
9803786.2
9804125.4
9804496.5
9804909.1
9805375.5
9805909.4
9806526.8
9807300.4
9809050.1
9811464
9814890.5
9819743.3
9826406.1
9834705.6
9842556.3
9846355.2
9847020.4
9847411.3
9847865.1
9848398.1
9849030.6
9849789.7
9850712
9851847.8
9853276.2
9857297.2
9863648.1
9874379.2
9893877.8
9930751.1
9989438
10022295
10023083
10023381
10023760
10024501
10026071
10028783
10034035
10045758
10077259
10159121
10191943
10192278
10192785
10193609
10195085
10198127
10205805
10232418
10329979
10352931
10353340
10353925
10354791
10356099
10358246
10361772
10367842
10378269
10394693
10416529
10439171
10459240
10474094
10484816
10492049
10496523
10498986
10500160
10500658
10500857
10500939
10500977
10500999
10501014
10501023
10501030
10501034
10501037
10501038
10501039
10501038
10501038
10501037
10501035
10501034
10501032
10501030
10501028
10501027
10501025
10501024
10501022
10501025
10501024
10501022
588.64915
550.80374
547.18924
547.32689
547.45047
547.45831
547.44785
547.44108
547.43924
547.44141
547.44714
547.45638
547.46939
547.48673
547.50929
547.53871
547.57693
547.62996
547.697
547.83126
547.86002
548.76081
552.87582
17015.276
6702869.9
6412279.1
6410473
6410329.4
6412198.1
6415114.6
6418184.9
6421191.1
6424133.4
6426903.7
6429353.5
6431372.3
6432897.8
6433958.2
6434701.9
6435336.5
6435991.6
6436714
6437524.6
6438449.8
6439518.9
6440767.7
6442363.8
6446243.5
6451665
6459446.9
6470567.5
6485934.4
6505135.2
6523232.2
6531685.9
6532644.3
6532858.6
6533106
6533396.5
6533741.3
6534155.1
6534657.8
6535277
6536056.3
6538248.2
6541709.9
6547558
6558180.3
6578252.5
6610149.6
6627965.8
6628391.8
6628553.5
6628759
6629161.2
6630013.3
6631485.1
6634335
6640694.9
6657777.4
6702094.3
6719814
6719995.2
6720269.1
6720714.2
6721511.7
6723155.3
6727303.5
6741676.4
6794271.9
6806609.6
6806829.6
6807144.5
6807610.1
6808314.3
6809469.3
6811366.5
6814631.3
6820239.4
6829069.4
6840802.6
6852961.9
6863733.6
6871702.4
6877452.7
6881331
6883729.7
6885050.2
6885679.2
6885946.2
6886053.2
6886096.8
6886117.4
6886129.4
6886137.1
6886142.3
6886145.8
6886148
6886149.3
6886150.1
6886150.4
6886150.2
6886149.8
6886149.3
6886148.6
6886147.7
6886146.8
6886145.9
6886144.9
6886144
6886143
6886142.5
6886141.3
6886143
6886142.4
6886141.2
587.89651
549.76491
546.1283
546.26438
546.38817
546.39592
546.38531
546.37844
546.37653
546.37867
546.38438
546.39362
546.40665
546.42404
546.44668
546.47621
546.51457
546.56782
546.6351
546.76998
546.79866
547.70076
551.8284
16593.135
4620051.8
4422129.5
4418654.6
4418380.2
4422005
4427710.8
4433756.7
4439690.6
4445486.2
4450899.8
4455605.2
4459350.3
4461983.4
4463547.8
4464345.8
4464799.1
4465188.5
4465608.8
4466080.2
4466618.1
4467239.8
4467965.9
4468895.7
4471151.8
4474304
4478827.6
4485289.6
4494214
4505354.8
4515841.1
4520730
4521283
4521407.1
4521550.5
4521718.8
4521918.6
4522158.3
4522449.6
4522808.4
4523260.5
4524530.7
4526536.5
4529924.9
4536077.7
4547697.4
4566138.3
4576414.7
4576659.6
4576753
4576871.7
4577104
4577596.1
4578446
4580091.8
4583764.2
4593624.6
4619170.5
4629357.9
4629462.2
4629619.9
4629876
4630335
4631281.1
4633668.7
4641939.6
4672161.7
4679231.4
4679357.6
4679538.2
4679805.4
4680209.5
4680872.1
4681960.6
4683833.4
4687050.1
4692113.2
4698838.3
4705804.4
4711973
4716534.9
4719825.9
4722045.2
4723417.6
4724173.1
4724533
4724685.7
4724746.9
4724771.9
4724783.7
4724790.5
4724794.9
4724797.9
4724799.9
4724801.2
4724801.9
4724802.4
4724802.5
4724802.4
4724802.2
4724801.9
4724801.5
4724801
4724800.5
4724800
4724799.4
4724798.9
4724798.3
4724798
4724797.3
4724798.3
4724798
4724797.3
586.98196
548.50063
544.83696
544.97113
545.09517
545.10279
545.09201
545.08501
545.08302
545.08511
545.0908
545.10005
545.11311
545.13056
545.15328
545.18294
545.22147
545.27499
545.34256
545.47818
545.50677
546.41054
550.55131
16147.698
3284400.2
3164286.5
3162145.3
3161975.2
3164179.1
3167648.8
3171324.2
3174930.2
3178450.6
3181737.4
3184592.8
3186864.2
3188460.2
3189408
3189891.3
3190166
3190402.3
3190657.3
3190943.4
3191269.9
3191647.1
3192087.8
3192653.2
3194022.6
3195935.7
3198680.6
3202600.6
3208011.7
3214761.2
3221106.1
3224058.2
3224391.3
3224466.4
3224553.2
3224655
3224775.9
3224921
3225097.3
3225314.4
3225588.4
3226357.2
3227571.3
3229622
3233345.1
3240373
3251513.6
3257707.5
3257854.6
3257911
3257982.6
3258122.9
3258419.9
3258933
3259926.5
3262143.2
3268093.6
3283491.6
3289616.3
3289679
3289774
3289928.2
3290204.6
3290774.2
3292211.7
3297190.8
3315362.3
3319601.3
3319677.1
3319785.6
3319946.1
3320188.7
3320586.6
3321240.3
3322364.9
3324296.1
3327335.2
3331370.7
3335549.1
3339248.1
3341982.7
3343955.2
3345285.2
3346107.5
3346560.2
3346775.8
3346867.3
3346904
3346919
3346926
3346930.1
3346932.8
3346934.5
3346935.7
3346936.5
3346937
3346937.2
3346937.3
3346937.3
3346937.1
3346937
3346936.7
3346936.4
3346936.1
3346935.8
3346935.5
3346935.1
3346934.8
3346934.6
3346934.2
3346934.8
3346934.6
3346934.2
585.88695
546.98399
543.28765
543.41952
543.54383
543.55131
543.54031
543.53317
543.53108
543.53311
543.53877
543.54803
543.56112
543.57864
543.60146
543.63128
543.67002
543.72385
543.79178
543.92828
543.95674
544.86264
549.01587
15676.426
2387882.3
2312553.6
2311181.6
2311071.6
2312453.1
2314628.9
2316933.3
2319193.3
2321398.9
2323457.3
2325244.7
2326665.7
2327663.6
2328255.9
2328557.8
2328729.6
2328877.5
2329037.1
2329216.2
2329420.6
2329656.8
2329932.7
2330287.5
2331145.1
2332343.1
2334061.8
2336515.7
2339901.4
2344121.7
2348083.9
2349923.6
2350130.6
2350177.5
2350231.7
2350295.3
2350370.9
2350461.5
2350571.6
2350707.3
2350878.6
2351359.1
2352117.7
2353399
2355724.9
2360113.6
2367063.4
2370918.4
2371009.6
2371044.8
2371089.4
2371176.9
2371362.1
2371682
2372301.4
2373683.5
2377392.6
2386981.3
2390785.4
2390824.5
2390883.5
2390979.5
2391151.4
2391505.8
2392400.2
2395497.9
2406790.9
2409418.1
2409465.2
2409532.6
2409632.2
2409782.8
2410029.9
2410435.7
2411133.8
2412332.6
2414218.7
2416722.5
2419314.1
2421607.8
2423303
2424525.7
2425349.9
2425859.6
2426140.1
2426273.7
2426330.4
2426353.1
2426362.4
2426366.8
2426369.3
2426370.9
2426372.1
2426372.8
2426373.3
2426373.6
2426373.7
2426373.8
2426373.7
2426373.7
2426373.5
2426373.4
2426373.2
2426373
2426372.8
2426372.6
2426372.4
2426372.2
2426372.1
2426371.8
2426372.2
2426372.1
2426371.8
584.59085
545.18479
541.44939
541.57851
541.70314
541.71043
541.69919
541.69186
541.68965
541.69161
541.69724
541.7065
541.71964
541.73723
541.76019
541.79019
541.82917
541.88338
541.95172
542.08928
542.11756
543.02615
547.18958
15177.13
1765221.6
1716777.3
1715865.7
1715791.7
1716677.3
1718073.2
1719551.3
1721000.7
1722414.8
1723733.9
1724878.8
1725788.6
1726427.1
1726805.8
1726998.8
1727108.7
1727203.5
1727305.8
1727420.5
1727551.5
1727702.9
1727879.6
1728107.6
1728657.3
1729425.2
1730526.7
1732099.1
1734267.8
1736969.2
1739502.4
1740676
1740807.7
1740837.7
1740872.3
1740913.1
1740961.4
1741019.3
1741089.8
1741176.5
1741286.3
1741593.7
1742079.1
1742898.8
1744386.8
1747193.4
1751633.6
1754090.9
1754148.8
1754171.2
1754199.7
1754255.6
1754373.9
1754578.2
1754973.8
1755856.4
1758225
1764342.5
1766763.2
1766788.1
1766825.8
1766887
1766996.6
1767222.5
1767792.8
1769767.7
1776960.6
1778629.4
1778659.3
1778702.2
1778765.6
1778861.4
1779018.7
1779276.9
1779721.2
1780484
1781683.9
1783276.4
1784924.3
1786382.5
1787460
1788237
1788760.8
1789084.6
1789262.8
1789347.7
1789383.8
1789398.2
1789404.1
1789406.9
1789408.5
1789409.5
1789410.2
1789410.7
1789411
1789411.2
1789411.3
1789411.3
1789411.3
1789411.3
1789411.2
1789411.1
1789411
1789410.8
1789410.7
1789410.6
1789410.5
1789410.3
1789410.3
1789410.1
1789410.3
1789410.2
1789410.1
583.07104
543.06954
539.28779
539.41367
539.53864
539.54572
539.53417
539.52662
539.52427
539.52614
539.53174
539.54101
539.55419
539.57188
539.59498
539.62519
539.66447
539.71911
539.78792
539.92672
539.95478
540.86675
545.03593
14648.078
1321407.7
1289626.8
1288998
1288946
1289523
1290433.9
1291398.6
1292344.3
1293266.7
1294126.8
1294873.1
1295465.8
1295881.5
1296127.9
1296253.4
1296324.9
1296386.7
1296453.4
1296528.2
1296613.6
1296712.3
1296827.6
1296976.6
1297335.2
1297836.1
1298554.7
1299580.2
1300994.1
1302754.2
1304402.7
1305164.8
1305250
1305269.5
1305292.1
1305318.6
1305350.1
1305387.8
1305433.7
1305490.2
1305561.8
1305762
1306078.1
1306612.1
1307581.2
1309408.6
1312297
1313891.8
1313929.2
1313943.8
1313962.3
1313998.7
1314075.6
1314208.5
1314465.7
1315039.8
1316580.1
1320555.1
1322123.9
1322140.1
1322164.6
1322204.3
1322275.4
1322422.2
1322792.5
1324075.1
1328742.3
1329822.2
1329841.6
1329869.4
1329910.5
1329972.6
1330074.6
1330242
1330530.1
1331024.6
1331802.4
1332834.5
1333902.2
1334846.8
1335544.7
1336047.9
1336387.1
1336596.8
1336712.2
1336767.2
1336790.5
1336799.9
1336803.7
1336805.5
1336806.5
1336807.2
1336807.7
1336808
1336808.2
1336808.3
1336808.4
1336808.4
1336808.4
1336808.3
1336808.3
1336808.2
1336808.1
1336808.1
1336808
1336807.9
1336807.8
1336807.7
1336807.7
1336807.6
1336807.7
1336807.7
1336807.6
581.30307
540.60145
536.76504
536.88711
537.01245
537.01926
537.00736
536.99955
536.99703
536.9988
537.00436
537.01363
537.02687
537.04466
537.06793
537.09839
537.138
537.19315
537.26252
537.40277
537.43051
538.34673
542.51433
14088.11
998712.25
977517.85
977065.03
977026.66
977406.99
978008.98
978646.72
979271.91
979881.55
980449.9
980942.77
981334.02
981608.25
981770.66
981853.37
981900.54
981941.3
981985.35
982034.78
982091.2
982156.42
982232.6
982331.34
982568.45
982899.66
983374.7
984052.58
984986.97
986149.39
987236.83
987738.37
987794.28
987807.17
987822.05
987839.54
987860.29
987885.2
987915.47
987952.76
988000.09
988132.28
988341.03
988693.61
989333.48
990539.79
992444.8
993494.13
993518.67
993528.28
993540.49
993564.49
993615.2
993702.8
993872.46
994251.03
995266.78
997885.97
998917.05
998927.69
998943.79
998969.94
999016.81
999113.44
999357.36
1000202.2
1003273.9
1003982.6
1003995.4
1004013.6
1004040.7
1004081.5
1004148.6
1004258.7
1004448.2
1004773.4
1005284.9
1005963.4
1006665.2
1007286
1007744.6
1008075.3
1008298.1
1008435.9
1008511.7
1008547.8
1008563.1
1008569.3
1008571.8
1008573
1008573.7
1008574.1
1008574.4
1008574.6
1008574.7
1008574.8
1008574.8
1008574.9
1008574.8
1008574.8
1008574.8
1008574.8
1008574.7
1008574.6
1008574.6
1008574.5
1008574.5
1008574.4
1008574.4
1008574.3
1008574.4
1008574.4
1008574.3
579.26075
537.74048
533.83989
533.95754
534.08326
534.08975
534.07743
534.06931
534.0666
534.06825
534.07376
534.08303
534.09633
534.11425
534.13771
534.16845
534.20845
534.26419
534.33419
534.47611
534.50346
535.42501
539.57992
13496.741
760438.23
746100.71
745757.54
745727.37
745979.92
746381.5
746807.22
747224.62
747631.6
748010.91
748339.73
748600.61
748783.35
748891.48
748946.51
748977.91
749005.08
749034.46
749067.43
749105.09
749148.61
749199.47
749265.57
749423.96
749645.22
749962.55
750415.33
751039.26
751815
752539.85
752873.39
752910.45
752919.03
752928.95
752940.61
752954.44
752971.05
752991.24
753016.11
753047.73
753135.93
753275.23
753510.5
753937.48
754742.25
756012.09
756709.91
756726.16
756732.56
756740.69
756756.69
756790.48
756848.87
756961.95
757214.3
757891.36
759635.92
760320.92
760328
760338.71
760356.12
760387.32
760451.66
760614.07
761176.63
763220.53
763690.78
763699.27
763711.42
763729.4
763756.58
763801.17
763874.41
764000.4
764216.66
764556.73
765007.82
765474.25
765886.84
766191.54
766411.22
766559.28
766650.81
766701.18
766725.17
766735.36
766739.44
766741.1
766741.89
766742.34
766742.64
766742.84
766742.97
766743.05
766743.1
766743.13
766743.14
766743.13
766743.12
766743.09
766743.07
766743.03
766743
766742.96
766742.92
766742.88
766742.84
766742.82
766742.78
766742.84
766742.82
766742.77
576.91642
534.44337
530.46775
530.58027
530.70638
530.71249
530.69967
530.6912
530.68825
530.68977
530.69521
530.70448
530.71785
530.73591
530.75959
530.79066
530.83111
530.88751
530.95824
531.10208
531.1289
532.05714
536.18345
12874.267
582373.82
572546.22
572270.21
572244.75
572412.95
572682.55
572968.75
573249.47
573523.2
573778.29
573999.34
574174.63
574297.32
574369.86
574406.73
574427.77
574446
574465.73
574487.89
574513.2
574542.47
574576.67
574621.27
574727.92
574876.91
575090.6
575395.47
575815.47
576337.37
576824.46
577048.07
577072.83
577078.58
577085.25
577093.07
577102.37
577113.53
577127.1
577143.82
577165.11
577224.45
577318.16
577476.45
577763.7
578305.03
579158.5
579626.41
579637.25
579641.55
579647.01
579657.76
579680.47
579719.7
579795.71
579965.32
580420.41
581592.21
582051.13
582055.88
582063.07
582074.75
582095.7
582138.9
582247.96
582625.76
583997.41
584312.12
584317.81
584325.96
584338.01
584356.24
584386.15
584435.28
584519.78
584664.83
584892.9
585195.38
585508.09
585784.67
585988.9
586136.14
586235.37
586296.71
586330.47
586346.54
586353.37
586356.1
586357.22
586357.75
586358.05
586358.25
586358.38
586358.47
586358.53
586358.56
586358.58
586358.58
586358.58
586358.56
586358.55
586358.53
586358.5
586358.48
586358.45
586358.43
586358.4
586358.37
586358.36
586358.33
586358.37
586358.35
586358.32
574.2412
530.6638
526.60074
526.70735
526.83384
526.83949
526.82609
526.81721
526.81399
526.81534
526.8207
526.82997
526.84342
526.86164
526.88557
526.91701
526.95795
527.01513
527.08666
527.23272
527.25885
528.19549
532.27114
12221.858
448045.97
441221.92
440985.1
440961.95
441073.72
441255.35
441448.65
441638.43
441823.54
441996.05
442145.5
442263.94
442346.78
442395.68
442420.5
442434.66
442446.94
442460.25
442475.2
442492.31
442512.09
442535.23
442565.5
442637.75
442738.7
442883.49
443090.05
443374.57
443727.91
444057.31
444208.17
444224.8
444228.68
444233.18
444238.46
444244.74
444252.29
444261.46
444272.77
444287.2
444327.36
444390.81
444497.98
444692.49
445058.96
445636.31
445952.08
445959.36
445962.26
445965.95
445973.22
445988.57
446015.11
446066.53
446181.28
446489.18
447281.46
447590.94
447594.15
447599
447606.89
447621.05
447650.24
447723.97
447979.38
448906.07
449118.09
449121.93
449127.43
449135.57
449147.88
449168.08
449201.25
449258.32
449356.27
449510.26
449714.47
449925.55
450112.23
450250.06
450349.42
450416.39
450457.78
450480.56
450491.41
450496.01
450497.86
450498.61
450498.97
450499.18
450499.31
450499.4
450499.46
450499.49
450499.51
450499.52
450499.53
450499.52
450499.51
450499.5
450499.49
450499.47
450499.45
450499.43
450499.41
450499.39
450499.37
450499.36
450499.34
450499.37
450499.36
450499.33
571.20543
526.35259
522.18792
522.28775
522.41457
522.41967
522.40561
522.39623
522.39269
522.39385
522.39911
522.40838
522.42191
522.44031
522.46453
522.49639
522.5379
522.59594
522.66838
522.81696
522.84218
523.78939
527.78501
11541.639
345958.13
341155.64
340939.06
340916.49
340990
341112.39
341243.24
341371.92
341497.55
341614.65
341716.08
341796.43
341852.56
341885.65
341902.39
341911.92
341920.19
341929.18
341939.3
341950.89
341964.31
341980.02
342000.65
342049.82
342118.54
342217.12
342357.77
342551.45
342791.86
343015.72
343118
343129.22
343131.84
343134.88
343138.46
343142.72
343147.84
343154.07
343161.75
343171.57
343198.89
343242.06
343314.99
343447.35
343696.71
344089.26
344303.45
344308.36
344310.32
344312.82
344317.76
344328.19
344346.23
344381.19
344459.22
344668.61
345207.08
345416.87
345419.04
345422.33
345427.69
345437.3
345457.14
345507.23
345680.81
346310.2
346453.8
346456.4
346460.13
346465.65
346474.01
346487.72
346510.24
346548.99
346615.49
346720.03
346858.64
347001.89
347128.58
347222.1
347289.52
347334.96
347363.04
347378.5
347385.86
347388.99
347390.24
347390.75
347390.99
347391.13
347391.22
347391.28
347391.32
347391.34
347391.36
347391.36
347391.36
347391.36
347391.35
347391.34
347391.33
347391.31
347391.3
347391.29
347391.27
347391.26
347391.24
347391.23
347391.22
347391.23
347391.23
347391.2
567.7792
521.45802
517.17563
517.26765
517.39473
517.39916
517.38432
517.37437
517.37046
517.37139
517.37654
517.3858
517.39942
517.41801
517.44255
517.47488
517.51703
517.57604
517.6495
517.80094
517.82498
518.78548
522.66301
10836.74
267916.53
264487.59
264278.02
264254.71
264301.9
264384.02
264472.52
264559.83
264645.21
264724.86
264793.84
264848.46
264886.56
264908.96
264920.24
264926.63
264932.18
264938.24
264945.08
264952.93
264962.05
264972.73
264986.82
265020.4
265067.34
265134.71
265230.83
265363.18
265527.4
265680.12
265749.72
265757.32
265759.08
265761.14
265763.57
265766.46
265769.94
265774.17
265779.4
265786.11
265804.76
265834.24
265884.06
265974.5
266144.84
266412.82
266558.68
266562.01
266563.34
266565.03
266568.4
266575.51
266587.82
266611.68
266664.96
266807.94
267175.41
267318.2
267319.68
267321.92
267325.57
267332.12
267345.65
267379.83
267498.28
267927.55
268025.21
268026.98
268029.52
268033.28
268038.97
268048.32
268063.68
268090.1
268135.44
268206.72
268301.21
268398.85
268485.2
268548.94
268594.89
268625.85
268644.99
268655.52
268660.54
268662.67
268663.53
268663.88
268664.04
268664.14
268664.2
268664.24
268664.26
268664.28
268664.28
268664.29
268664.28
268664.28
268664.27
268664.26
268664.25
268664.24
268664.23
268664.22
268664.21
268664.19
268664.18
268664.17
268664.16
268664.17
268664.16
268664.14
563.93305
515.92631
511.5079
511.5909
511.71811
511.72175
511.70599
511.69539
511.69104
511.6917
511.69671
511.70595
511.71967
511.73848
511.76337
511.79623
511.83908
511.89919
511.97377
512.12845
512.15095
513.12818
516.83936
10111.311
207979.41
205492.44
205280.29
205255.12
205283.89
205338.35
205397.9
205456.99
205514.95
205569.09
205616.01
205653.13
205678.98
205694.1
205701.65
205705.89
205709.58
205713.62
205718.22
205723.52
205729.7
205736.96
205746.58
205769.56
205801.71
205847.87
205913.75
206004.46
206116.95
206221.47
206268.97
206274.11
206275.29
206276.67
206278.31
206280.27
206282.63
206285.52
206289.08
206293.66
206306.43
206326.62
206360.76
206422.73
206539.47
206722.99
206822.64
206824.89
206825.79
206826.94
206829.23
206834.1
206842.52
206858.85
206895.34
206993.29
207244.88
207342.39
207343.4
207344.92
207347.41
207351.89
207361.14
207384.54
207465.64
207759.39
207826.04
207827.24
207828.97
207831.54
207835.44
207841.83
207852.34
207870.42
207901.45
207950.21
208014.86
208081.65
208140.71
208184.3
208215.73
208236.91
208250
208257.2
208260.64
208262.1
208262.68
208262.92
208263.04
208263.1
208263.14
208263.17
208263.18
208263.19
208263.19
208263.19
208263.19
208263.18
208263.17
208263.16
208263.16
208263.14
208263.13
208263.12
208263.11
208263.1
208263.09
208263.08
208263.07
208263.08
208263.07
208263.05
559.63893
509.70234
505.12718
505.19969
505.32683
505.32951
505.3127
505.30133
505.29647
505.29681
505.30166
505.31087
505.32469
505.34374
505.36901
505.40246
505.4461
505.50743
505.58323
505.74155
505.76207
506.76036
510.24512
9370.4953
161776.35
159942.06
159720.13
159692.07
159707.62
159742.86
159782.42
159822.1
159861.25
159897.92
159929.73
159954.87
159972.33
159982.47
159987.45
159990.19
159992.58
159995.23
159998.28
160001.82
160005.98
160010.89
160017.45
160033.18
160055.22
160086.91
160132.15
160194.45
160271.69
160343.37
160375.85
160379.32
160380.1
160381.02
160382.12
160383.43
160385.03
160386.99
160389.41
160392.55
160401.3
160415.15
160438.59
160481.16
160561.36
160687.35
160755.6
160757.12
160757.72
160758.5
160760.06
160763.39
160769.16
160780.37
160805.42
160872.68
161045.39
161112.15
161112.83
161113.87
161115.57
161118.63
161124.97
161141.03
161196.7
161398.25
161443.85
161444.67
161445.86
161447.61
161450.28
161454.67
161461.89
161474.3
161495.59
161529.05
161573.41
161619.23
161659.75
161689.66
161711.22
161725.75
161734.73
161739.68
161742.03
161743.04
161743.44
161743.61
161743.68
161743.73
161743.75
161743.77
161743.78
161743.78
161743.78
161743.77
161743.77
161743.76
161743.75
161743.74
161743.73
161743.72
161743.71
161743.7
161743.69
161743.68
161743.67
161743.66
161743.65
161743.65
161743.64
161743.62
554.8713
502.73056
497.9752
498.0354
498.1622
498.16372
498.14568
498.13342
498.12796
498.12792
498.13257
498.14174
498.15566
498.17497
498.20067
498.23475
498.27926
498.34194
498.41908
498.58147
498.59943
499.6242
502.80917
8620.346
126055.07
124678.94
124441.56
124409.6
124415.33
124436.97
124462.58
124488.79
124514.91
124539.52
124560.91
124577.8
124589.47
124596.15
124599.34
124601.01
124602.48
124604.15
124606.12
124608.43
124611.18
124614.46
124618.91
124629.66
124644.77
124666.53
124697.63
124740.49
124793.6
124842.84
124865.07
124867.41
124867.9
124868.5
124869.21
124870.09
124871.15
124872.47
124874.11
124876.24
124882.24
124891.76
124907.88
124937.17
124992.36
125079.03
125125.86
125126.88
125127.28
125127.8
125128.86
125131.13
125135.09
125142.78
125160.01
125206.3
125325.1
125370.89
125371.35
125372.05
125373.21
125375.31
125379.66
125390.69
125428.99
125567.58
125598.84
125599.4
125600.21
125601.41
125603.25
125606.27
125611.23
125619.77
125634.43
125657.45
125687.97
125719.49
125747.36
125767.93
125782.76
125792.76
125798.94
125802.35
125803.97
125804.66
125804.94
125805.06
125805.11
125805.14
125805.16
125805.16
125805.17
125805.16
125805.16
125805.15
125805.14
125805.13
125805.12
125805.11
125805.1
125805.09
125805.08
125805.07
125805.06
125805.05
125805.04
125805.03
125805.02
125805.01
125805
125804.98
549.60859
494.95615
489.99414
490.03976
490.16579
490.16592
490.14645
490.13315
490.127
490.12652
490.13093
490.14003
490.15405
490.17363
490.19979
490.23458
490.28004
490.34421
490.42277
490.58972
490.6044
491.66243
494.45959
7867.6879
98372.167
97323.587
97066.145
97029.195
97027.251
97039.036
97054.735
97071.459
97088.478
97104.681
97118.817
97129.963
97137.589