/*--------------------------------*- C++ -*----------------------------------*\
| =========                 |                                                 |
| \\      /  F ield         | OpenFOAM: The Open Source CFD Toolbox           |
|  \\    /   O peration     | Version:  2206                                  |
|   \\  /    A nd           | Website:  www.openfoam.com                      |
|    \\/     M anipulation  |                                                 |
\*---------------------------------------------------------------------------*/
FoamFile
{
    version     2.0;
    format      ascii;
    arch        "LSB;label=32;scalar=64";
    class       volScalarField;
    location    "600";
    object      p;
}
// * * * * * * * * * * * * * * * * * * * * * * * * * * * * * * * * * * * * * //

dimensions      [0 2 -2 0 0 0 0];

internalField   nonuniform List<scalar> 
13056
(
0.012028803
0.012132123
0.012351303
0.012631218
0.012970325
0.013368884
0.013825042
0.014337994
0.014909052
0.015541423
0.016240092
0.01701216
0.01786746
0.018819878
0.019888345
0.021101929
0.02249768
0.024150273
0.026123292
0.028699004
0.03182357
0.037204215
0.042370718
0.081519471
0.051624453
0.0023662675
0.0010632219
0.0019422126
0.0024993137
0.0029392834
0.0032034561
0.0033905302
0.0035317858
0.0036324128
0.0037030868
0.0037534021
0.0037893101
0.003814509
0.0038313032
0.0038416138
0.0038468762
0.0038479518
0.0038455982
0.0038404877
0.0038330157
0.0038234771
0.0038121535
0.0037992506
0.0037849454
0.0037693703
0.0037525908
0.0037346852
0.0037157144
0.0036957176
0.0036747383
0.0036527835
0.0036298358
0.0036058961
0.0035809515
0.0035549813
0.0035279588
0.0034998571
0.0034706227
0.0034401772
0.0034084461
0.0033753491
0.0033408089
0.003304741
0.0032670522
0.0032276611
0.0031864729
0.0031433734
0.0030982522
0.0030510028
0.0030015303
0.0029497726
0.002895709
0.0028394117
0.0027809934
0.0027205212
0.0026582861
0.0025946476
0.0025300504
0.002465483
0.0024024585
0.0023429212
0.0022901622
0.0022489359
0.0022185988
0.0022139595
0.0022396188
0.0022932282
0.0023881372
0.0025289106
0.0027190347
0.002957626
0.0032362857
0.003552588
0.003888158
0.0041934408
0.0044220022
0.0045580288
0.0045931318
0.0045411205
0.004440347
0.0043118105
0.0041675342
0.004018551
0.0038679216
0.0037141532
0.0035603612
0.003404288
0.0032426171
0.0030790485
0.0029153846
0.0027532131
0.0025947676
0.0024383418
0.0022834738
0.0021328865
0.0019861638
0.0018417079
0.0017001361
0.0015631369
0.0014304268
0.0013003862
0.0011740423
0.0010520214
0.00093639491
0.00082668531
0.00072554808
0.00062948191
0.00056742887
0.00048101535
0.00066655971
-0.0005131297
0.012028803
0.012132123
0.012351303
0.012631219
0.012970325
0.013368884
0.013825042
0.014337995
0.014909052
0.015541423
0.016240092
0.017012161
0.017867462
0.01881988
0.019888347
0.021101931
0.022497684
0.024150278
0.026123299
0.028699015
0.031823584
0.037204246
0.04237077
0.081514646
0.051635915
0.0023735609
0.0010650882
0.0019430565
0.0024998303
0.0029396466
0.0032037308
0.0033907485
0.0035319645
0.0036325624
0.0037032144
0.0037535126
0.0037894069
0.0038145946
0.0038313796
0.0038416823
0.0038469381
0.0038480081
0.0038456496
0.0038405348
0.003833059
0.003823517
0.0038121905
0.0037992849
0.0037849774
0.0037694002
0.0037526187
0.0037347114
0.0037157389
0.0036957406
0.00367476
0.0036528039
0.0036298551
0.0036059143
0.0035809687
0.0035549976
0.0035279742
0.0034998717
0.0034706366
0.0034401903
0.0034084586
0.0033753609
0.0033408202
0.0033047516
0.0032670624
0.0032276707
0.0031864821
0.0031433821
0.0030982604
0.0030510106
0.0030015376
0.0029497795
0.0028957155
0.0028394179
0.0027809992
0.0027205266
0.0026582911
0.0025946523
0.0025300547
0.0024654868
0.0024024619
0.0023429242
0.0022901647
0.0022489379
0.0022186001
0.0022139602
0.0022396188
0.0022932274
0.0023881356
0.0025289081
0.0027190313
0.0029576218
0.0032362807
0.0035525824
0.0038881519
0.0041934348
0.0044219966
0.0045580241
0.004593128
0.0045411179
0.0044403452
0.0043118092
0.0041675333
0.0040185505
0.0038679213
0.003714153
0.0035603612
0.003404288
0.0032426172
0.0030790487
0.0029153849
0.0027532134
0.002594768
0.0024383422
0.0022834742
0.002132887
0.0019861643
0.0018417084
0.0017001366
0.0015631374
0.0014304273
0.0013003867
0.0011740428
0.0010520218
0.00093639538
0.00082668577
0.00072554855
0.00062948237
0.00056742938
0.00048101589
0.00066656027
-0.00051312935
0.012028803
0.012132123
0.012351304
0.012631219
0.012970325
0.013368884
0.013825043
0.014337995
0.014909053
0.015541424
0.016240093
0.017012162
0.017867463
0.018819882
0.019888349
0.021101934
0.022497688
0.024150284
0.026123307
0.028699028
0.031823601
0.037204282
0.042370812
0.081509758
0.051651708
0.0023806202
0.0010673016
0.0019440657
0.0025004482
0.002940081
0.0032040593
0.0033910096
0.0035321781
0.0036327413
0.0037033671
0.0037536448
0.0037895227
0.0038146969
0.0038314708
0.0038417643
0.0038470122
0.0038480754
0.003845711
0.0038405911
0.0038331108
0.0038235649
0.0038122348
0.0037993261
0.0037850157
0.0037694358
0.003752652
0.0037347426
0.0037157682
0.0036957682
0.0036747859
0.0036528283
0.0036298781
0.003605936
0.0035809893
0.003555017
0.0035279926
0.0034998892
0.0034706531
0.003440206
0.0034084735
0.003375375
0.0033408336
0.0033047644
0.0032670745
0.0032276822
0.003186493
0.0031433924
0.0030982703
0.0030510199
0.0030015464
0.0029497879
0.0028957234
0.0028394253
0.0027810062
0.0027205331
0.0026582971
0.0025946578
0.0025300597
0.0024654913
0.0024024659
0.0023429277
0.0022901676
0.0022489402
0.0022186017
0.002213961
0.0022396188
0.0022932264
0.0023881336
0.0025289051
0.0027190272
0.0029576167
0.0032362747
0.0035525757
0.0038881447
0.0041934275
0.0044219899
0.0045580186
0.0045931235
0.0045411148
0.004440343
0.0043118077
0.0041675323
0.0040185498
0.0038679208
0.0037141528
0.0035603611
0.0034042881
0.0032426174
0.003079049
0.0029153853
0.0027532139
0.0025947685
0.0024383428
0.0022834748
0.0021328876
0.0019861649
0.001841709
0.0017001372
0.001563138
0.0014304279
0.0013003873
0.0011740433
0.0010520224
0.00093639594
0.00082668632
0.0007255491
0.00062948292
0.00056742998
0.00048101652
0.00066656093
-0.00051312894
0.012028803
0.012132123
0.012351304
0.012631219
0.012970325
0.013368884
0.013825043
0.014337995
0.014909053
0.015541424
0.016240094
0.017012163
0.017867464
0.018819883
0.019888351
0.021101938
0.022497692
0.02415029
0.026123314
0.028699041
0.031823618
0.037204315
0.042370853
0.081504972
0.051669315
0.0023858546
0.0010693839
0.0019450543
0.0025010535
0.0029405065
0.0032043811
0.0033912654
0.0035323875
0.0036329165
0.0037035166
0.0037537742
0.0037896361
0.0038147972
0.0038315603
0.0038418446
0.0038470848
0.0038481413
0.0038457712
0.0038406463
0.0038331616
0.0038236117
0.0038122782
0.0037993663
0.0037850532
0.0037694708
0.0037526847
0.0037347732
0.003715797
0.0036957952
0.0036748113
0.0036528523
0.0036299007
0.0036059573
0.0035810094
0.0035550361
0.0035280106
0.0034999063
0.0034706693
0.0034402214
0.0034084881
0.0033753889
0.0033408468
0.0033047769
0.0032670864
0.0032276935
0.0031865037
0.0031434026
0.0030982799
0.0030510291
0.0030015551
0.002949796
0.0028957311
0.0028394325
0.0027810129
0.0027205394
0.002658303
0.0025946632
0.0025300647
0.0024654958
0.0024024699
0.0023429312
0.0022901705
0.0022489425
0.0022186032
0.0022139617
0.0022396188
0.0022932255
0.0023881317
0.0025289022
0.0027190232
0.0029576117
0.0032362689
0.0035525691
0.0038881376
0.0041934204
0.0044219834
0.0045580132
0.0045931193
0.0045411117
0.0044403409
0.0043118062
0.0041675313
0.0040185491
0.0038679204
0.0037141526
0.0035603611
0.0034042882
0.0032426176
0.0030790492
0.0029153857
0.0027532143
0.002594769
0.0024383433
0.0022834754
0.0021328882
0.0019861655
0.0018417096
0.0017001378
0.0015631385
0.0014304285
0.0013003878
0.0011740439
0.001052023
0.00093639649
0.00082668687
0.00072554965
0.00062948345
0.00056743057
0.00048101712
0.00066656158
-0.00051312855
0.012028803
0.012132123
0.012351304
0.012631219
0.012970325
0.013368884
0.013825043
0.014337996
0.014909054
0.015541425
0.016240095
0.017012164
0.017867466
0.018819885
0.019888354
0.021101941
0.022497696
0.024150296
0.026123322
0.028699054
0.031823635
0.037204349
0.042370899
0.081499843
0.051688013
0.0023916983
0.0010714899
0.0019460664
0.0025016733
0.0029409423
0.0032047107
0.0033915272
0.0035326018
0.003633096
0.0037036697
0.0037539068
0.0037897522
0.0038148999
0.0038316519
0.0038419268
0.0038471591
0.0038482088
0.0038458328
0.0038407027
0.0038332135
0.0038236597
0.0038123226
0.0037994076
0.0037850916
0.0037695066
0.0037527182
0.0037348046
0.0037158264
0.0036958228
0.0036748373
0.0036528768
0.0036299238
0.0036059792
0.00358103
0.0035550556
0.0035280291
0.0034999238
0.0034706859
0.0034402371
0.003408503
0.0033754031
0.0033408603
0.0033047897
0.0032670985
0.0032277051
0.0031865147
0.003143413
0.0030982898
0.0030510384
0.0030015639
0.0029498044
0.002895739
0.00283944
0.0027810199
0.0027205459
0.002658309
0.0025946688
0.0025300697
0.0024655004
0.002402474
0.0023429347
0.0022901734
0.0022489449
0.0022186048
0.0022139625
0.0022396188
0.0022932245
0.0023881298
0.0025288992
0.0027190191
0.0029576065
0.0032362629
0.0035525623
0.0038881303
0.0041934131
0.0044219767
0.0045580076
0.0045931151
0.0045411086
0.0044403387
0.0043118047
0.0041675303
0.0040185485
0.00386792
0.0037141524
0.003560361
0.0034042882
0.0032426177
0.0030790495
0.002915386
0.0027532147
0.0025947695
0.0024383438
0.0022834759
0.0021328888
0.0019861661
0.0018417102
0.0017001384
0.0015631392
0.0014304291
0.0013003884
0.0011740445
0.0010520235
0.00093639706
0.00082668742
0.0007255502
0.00062948401
0.00056743117
0.00048101772
0.00066656225
-0.00051312816
0.012028803
0.012132123
0.012351304
0.012631219
0.012970325
0.013368885
0.013825044
0.014337996
0.014909054
0.015541426
0.016240096
0.017012166
0.017867467
0.018819887
0.019888356
0.021101944
0.022497701
0.024150302
0.026123331
0.028699068
0.031823653
0.037204386
0.042370954
0.081494151
0.0517075
0.0023989681
0.0010737295
0.0019471413
0.0025023317
0.0029414051
0.0032050608
0.0033918054
0.0035328295
0.0036332866
0.0037038323
0.0037540476
0.0037898755
0.003815009
0.0038317491
0.0038420142
0.003847238
0.0038482806
0.0038458983
0.0038407627
0.0038332687
0.0038237106
0.0038123698
0.0037994514
0.0037851323
0.0037695447
0.0037527537
0.0037348379
0.0037158576
0.0036958521
0.0036748649
0.0036529028
0.0036299483
0.0036060023
0.003581052
0.0035550763
0.0035280488
0.0034999424
0.0034707036
0.0034402538
0.0034085189
0.0033754182
0.0033408746
0.0033048033
0.0032671114
0.0032277173
0.0031865263
0.003143424
0.0030983002
0.0030510483
0.0030015733
0.0029498133
0.0028957473
0.0028394478
0.0027810273
0.0027205528
0.0026583154
0.0025946747
0.0025300751
0.0024655052
0.0024024783
0.0023429385
0.0022901765
0.0022489474
0.0022186064
0.0022139633
0.0022396188
0.0022932235
0.0023881277
0.002528896
0.0027190148
0.0029576011
0.0032362565
0.0035525551
0.0038881226
0.0041934054
0.0044219696
0.0045580017
0.0045931106
0.0045411052
0.0044403363
0.0043118031
0.0041675292
0.0040185478
0.0038679196
0.0037141522
0.0035603609
0.0034042883
0.0032426179
0.0030790498
0.0029153864
0.0027532152
0.00259477
0.0024383444
0.0022834765
0.0021328894
0.0019861668
0.0018417109
0.001700139
0.0015631398
0.0014304297
0.0013003891
0.0011740451
0.0010520241
0.00093639765
0.00082668801
0.00072555079
0.00062948459
0.00056743181
0.00048101836
0.00066656296
-0.00051312774
0.012028803
0.012132124
0.012351304
0.012631219
0.012970326
0.013368885
0.013825044
0.014337997
0.014909055
0.015541427
0.016240097
0.017012167
0.017867469
0.01881989
0.019888359
0.021101948
0.022497706
0.02415031
0.02612334
0.028699084
0.031823674
0.037204426
0.042371018
0.08148778
0.051728009
0.0024069862
0.0010761428
0.0019482981
0.0025030404
0.0029419034
0.0032054376
0.0033921048
0.0035330745
0.0036334918
0.0037040074
0.0037541991
0.0037900082
0.0038151264
0.0038318538
0.0038421082
0.003847323
0.0038483577
0.0038459687
0.0038408273
0.0038333281
0.0038237655
0.0038124206
0.0037994985
0.0037851762
0.0037695856
0.003752792
0.0037348737
0.0037158912
0.0036958837
0.0036748947
0.0036529308
0.0036299747
0.0036060273
0.0035810755
0.0035550987
0.0035280699
0.0034999624
0.0034707225
0.0034402718
0.003408536
0.0033754344
0.00334089
0.0033048179
0.0032671253
0.0032277305
0.0031865388
0.0031434359
0.0030983115
0.003051059
0.0030015834
0.0029498228
0.0028957564
0.0028394563
0.0027810352
0.0027205602
0.0026583223
0.002594681
0.0025300809
0.0024655105
0.002402483
0.0023429425
0.0022901799
0.0022489501
0.0022186083
0.0022139642
0.0022396188
0.0022932224
0.0023881255
0.0025288926
0.0027190101
0.0029575953
0.0032362496
0.0035525474
0.0038881142
0.0041933971
0.004421962
0.0045579954
0.0045931057
0.0045411016
0.0044403338
0.0043118014
0.004167528
0.004018547
0.0038679191
0.0037141519
0.0035603609
0.0034042884
0.0032426181
0.0030790501
0.0029153868
0.0027532157
0.0025947706
0.002438345
0.0022834772
0.0021328901
0.0019861674
0.0018417116
0.0017001397
0.0015631405
0.0014304304
0.0013003897
0.0011740458
0.0010520248
0.0009363983
0.00082668864
0.00072555143
0.00062948522
0.0005674325
0.00048101906
0.00066656372
-0.00051312729
0.012028803
0.012132124
0.012351304
0.01263122
0.012970326
0.013368885
0.013825044
0.014337997
0.014909056
0.015541428
0.016240098
0.017012168
0.017867471
0.018819892
0.019888363
0.021101953
0.022497712
0.024150318
0.026123351
0.028699101
0.031823698
0.037204472
0.042371093
0.081480591
0.051749816
0.0024155942
0.0010787593
0.0019495524
0.002503809
0.0029424437
0.0032058462
0.0033924296
0.0035333403
0.0036337142
0.0037041972
0.0037543635
0.0037901522
0.0038152537
0.0038319673
0.0038422101
0.0038474151
0.0038484414
0.0038460451
0.0038408973
0.0038333925
0.0038238249
0.0038124756
0.0037995496
0.0037852238
0.00376963
0.0037528335
0.0037349126
0.0037159277
0.003695918
0.0036749269
0.0036529611
0.0036300034
0.0036060543
0.0035811011
0.0035551229
0.0035280928
0.0034999841
0.0034707431
0.0034402914
0.0034085545
0.003375452
0.0033409067
0.0033048338
0.0032671404
0.0032277448
0.0031865524
0.0031434488
0.0030983237
0.0030510706
0.0030015944
0.0029498332
0.0028957661
0.0028394655
0.0027810438
0.0027205682
0.0026583298
0.0025946879
0.0025300872
0.0024655162
0.002402488
0.0023429469
0.0022901835
0.002248953
0.0022186102
0.0022139652
0.0022396188
0.0022932212
0.0023881231
0.0025288889
0.0027190051
0.0029575889
0.0032362422
0.003552539
0.0038881052
0.0041933881
0.0044219537
0.0045579885
0.0045931004
0.0045410977
0.0044403311
0.0043117995
0.0041675268
0.0040185462
0.0038679186
0.0037141517
0.0035603608
0.0034042884
0.0032426184
0.0030790505
0.0029153873
0.0027532162
0.0025947712
0.0024383457
0.0022834779
0.0021328908
0.0019861682
0.0018417123
0.0017001405
0.0015631412
0.0014304312
0.0013003905
0.0011740465
0.0010520255
0.00093639899
0.00082668933
0.00072555212
0.00062948591
0.00056743325
0.00048101981
0.00066656454
-0.00051312679
0.012028803
0.012132124
0.012351304
0.01263122
0.012970326
0.013368886
0.013825045
0.014337998
0.014909056
0.015541429
0.016240099
0.01701217
0.017867473
0.018819895
0.019888366
0.021101958
0.022497719
0.024150327
0.026123364
0.028699122
0.031823725
0.037204524
0.042371181
0.081472409
0.051773153
0.0024249291
0.0010816157
0.0019509222
0.0025046485
0.0029430339
0.0032062926
0.0033927842
0.0035336305
0.0036339572
0.0037044045
0.003754543
0.0037903094
0.0038153927
0.0038320913
0.0038423215
0.0038475157
0.0038485329
0.0038461285
0.0038409738
0.0038334629
0.0038238899
0.0038125358
0.0037996055
0.0037852758
0.0037696784
0.0037528788
0.003734955
0.0037159675
0.0036959554
0.0036749621
0.0036529943
0.0036300347
0.0036060839
0.003581129
0.0035551493
0.0035281178
0.0035000078
0.0034707656
0.0034403127
0.0034085748
0.0033754712
0.0033409249
0.0033048511
0.0032671569
0.0032277605
0.0031865673
0.0031434629
0.0030983371
0.0030510833
0.0030016064
0.0029498445
0.0028957768
0.0028394755
0.0027810533
0.002720577
0.0026583379
0.0025946954
0.0025300941
0.0024655224
0.0024024935
0.0023429516
0.0022901875
0.0022489562
0.0022186123
0.0022139662
0.0022396188
0.0022932199
0.0023881204
0.0025288848
0.0027189995
0.002957582
0.0032362341
0.0035525298
0.0038880954
0.0041933783
0.0044219447
0.004557981
0.0045930946
0.0045410935
0.0044403281
0.0043117975
0.0041675254
0.0040185452
0.003867918
0.0037141514
0.0035603607
0.0034042885
0.0032426186
0.0030790508
0.0029153878
0.0027532168
0.0025947718
0.0024383464
0.0022834787
0.0021328916
0.001986169
0.0018417132
0.0017001413
0.001563142
0.001430432
0.0013003912
0.0011740473
0.0010520263
0.00093639976
0.00082669008
0.00072555287
0.00062948665
0.00056743406
0.00048102063
0.00066656544
-0.00051312626
0.012028803
0.012132124
0.012351305
0.01263122
0.012970327
0.013368886
0.013825045
0.014337999
0.014909057
0.01554143
0.016240101
0.017012172
0.017867476
0.018819898
0.019888371
0.021101964
0.022497727
0.024150338
0.026123379
0.028699145
0.031823755
0.037204583
0.042371283
0.081463017
0.051798228
0.0024351553
0.0010847543
0.0019524278
0.0025055715
0.0029436828
0.0032067833
0.0033931741
0.0035339496
0.0036342244
0.0037046324
0.0037547403
0.0037904822
0.0038155456
0.0038322276
0.0038424438
0.0038476263
0.0038486334
0.0038462202
0.0038410579
0.0038335402
0.0038239613
0.0038126019
0.0037996668
0.0037853329
0.0037697317
0.0037529286
0.0037350017
0.0037160113
0.0036959965
0.0036750008
0.0036530308
0.003630069
0.0036061164
0.0035811597
0.0035551783
0.0035281453
0.0035000339
0.0034707903
0.0034403361
0.003408597
0.0033754923
0.003340945
0.0033048702
0.0032671749
0.0032277776
0.0031865836
0.0031434784
0.0030983518
0.0030510972
0.0030016195
0.0029498569
0.0028957885
0.0028394866
0.0027810636
0.0027205867
0.0026583469
0.0025947036
0.0025301016
0.0024655292
0.0024024996
0.0023429569
0.0022901919
0.0022489597
0.0022186147
0.0022139673
0.0022396188
0.0022932185
0.0023881175
0.0025288803
0.0027189934
0.0029575744
0.0032362251
0.0035525198
0.0038880845
0.0041933674
0.0044219347
0.0045579727
0.0045930883
0.0045410888
0.0044403249
0.0043117952
0.0041675239
0.0040185442
0.0038679174
0.003714151
0.0035603606
0.0034042886
0.0032426189
0.0030790513
0.0029153883
0.0027532175
0.0025947726
0.0024383472
0.0022834795
0.0021328925
0.0019861699
0.0018417141
0.0017001422
0.0015631429
0.0014304328
0.0013003921
0.0011740481
0.0010520271
0.00093640059
0.0008266909
0.0007255537
0.00062948747
0.00056743496
0.00048102153
0.00066656644
-0.00051312567
0.012028803
0.012132124
0.012351305
0.01263122
0.012970327
0.013368887
0.013825046
0.014337999
0.014909058
0.015541431
0.016240103
0.017012175
0.017867479
0.018819902
0.019888376
0.021101971
0.022497736
0.024150351
0.026123395
0.028699172
0.031823791
0.037204651
0.042371403
0.08145216
0.051825243
0.0024464255
0.0010882217
0.0019540916
0.0025065917
0.0029444
0.0032073258
0.0033936051
0.0035343023
0.0036345197
0.0037048843
0.0037549584
0.0037906733
0.0038157145
0.0038323783
0.0038425791
0.0038477486
0.0038487444
0.0038463216
0.0038411508
0.0038336257
0.0038240402
0.0038126749
0.0037997347
0.003785396
0.0037697906
0.0037529837
0.0037350532
0.0037160596
0.003696042
0.0036750436
0.0036530711
0.0036301071
0.0036061522
0.0035811937
0.0035552104
0.0035281757
0.0035000627
0.0034708176
0.003440362
0.0034086216
0.0033755157
0.0033409671
0.0033048912
0.0032671949
0.0032277966
0.0031866016
0.0031434955
0.003098368
0.0030511125
0.0030016341
0.0029498707
0.0028958015
0.0028394988
0.002781075
0.0027205973
0.0026583568
0.0025947128
0.0025301099
0.0024655367
0.0024025062
0.0023429627
0.0022901967
0.0022489636
0.0022186173
0.0022139686
0.0022396188
0.0022932169
0.0023881143
0.0025288754
0.0027189867
0.002957566
0.0032362152
0.0035525086
0.0038880726
0.0041933555
0.0044219237
0.0045579636
0.0045930813
0.0045410836
0.0044403213
0.0043117927
0.0041675222
0.0040185431
0.0038679167
0.0037141507
0.0035603605
0.0034042887
0.0032426191
0.0030790517
0.0029153889
0.0027532182
0.0025947734
0.0024383481
0.0022834805
0.0021328935
0.0019861709
0.0018417151
0.0017001432
0.0015631439
0.0014304338
0.0013003931
0.0011740491
0.0010520281
0.00093640152
0.00082669181
0.00072555462
0.00062948838
0.00056743595
0.00048102252
0.00066656753
-0.00051312502
0.012028803
0.012132124
0.012351305
0.012631221
0.012970328
0.013368887
0.013825047
0.014338
0.01490906
0.015541433
0.016240105
0.017012177
0.017867483
0.018819907
0.019888382
0.021101979
0.022497746
0.024150366
0.026123415
0.028699202
0.031823832
0.037204729
0.042371544
0.081439531
0.051854382
0.002458901
0.0010920694
0.0019559385
0.0025077244
0.0029451964
0.003207928
0.0033940836
0.0035346939
0.0036348475
0.003705164
0.0037552005
0.0037908853
0.0038159021
0.0038325455
0.0038427293
0.0038478843
0.0038488677
0.0038464341
0.0038412539
0.0038337206
0.0038241278
0.003812756
0.00379981
0.0037854661
0.003769856
0.0037530448
0.0037351105
0.0037161133
0.0036960924
0.003675091
0.0036531158
0.0036301493
0.0036061921
0.0035812313
0.0035552461
0.0035282095
0.0035000947
0.0034708479
0.0034403908
0.0034086489
0.0033755416
0.0033409918
0.0033049146
0.0032672171
0.0032278177
0.0031866216
0.0031435145
0.003098386
0.0030511296
0.0030016502
0.0029498859
0.0028958159
0.0028395123
0.0027810877
0.0027206092
0.0026583678
0.0025947229
0.0025301192
0.0024655451
0.0024025137
0.0023429692
0.0022902021
0.0022489679
0.0022186201
0.00221397
0.0022396188
0.0022932151
0.0023881107
0.0025288699
0.0027189792
0.0029575566
0.0032362043
0.0035524963
0.0038880593
0.0041933422
0.0044219116
0.0045579534
0.0045930735
0.0045410779
0.0044403172
0.00431179
0.0041675203
0.0040185419
0.003867916
0.0037141503
0.0035603604
0.0034042888
0.0032426195
0.0030790522
0.0029153896
0.002753219
0.0025947743
0.0024383491
0.0022834815
0.0021328945
0.001986172
0.0018417162
0.0017001443
0.001563145
0.0014304349
0.0013003942
0.0011740501
0.0010520291
0.00093640254
0.00082669282
0.00072555563
0.00062948939
0.00056743705
0.00048102363
0.00066656875
-0.00051312429
0.012028803
0.012132124
0.012351305
0.012631221
0.012970328
0.013368888
0.013825048
0.014338002
0.014909061
0.015541435
0.016240107
0.017012181
0.017867487
0.018819912
0.019888389
0.021101988
0.022497759
0.024150383
0.026123437
0.028699238
0.031823879
0.037204818
0.042371708
0.081424762
0.051885805
0.0024727622
0.0010963539
0.0019579957
0.0025089866
0.0029460838
0.0032085991
0.0033946167
0.0035351302
0.0036352128
0.0037054756
0.0037554703
0.0037911216
0.0038161111
0.0038327318
0.0038428966
0.0038480355
0.0038490051
0.0038465595
0.0038413688
0.0038338263
0.0038242254
0.0038128464
0.0037998939
0.0037855442
0.0037699289
0.0037531129
0.0037351742
0.0037161732
0.0036961486
0.0036751439
0.0036531656
0.0036301963
0.0036062365
0.0035812733
0.0035552858
0.0035282471
0.0035001303
0.0034708817
0.0034404228
0.0034086793
0.0033755704
0.0033410192
0.0033049406
0.0032672419
0.0032278412
0.0031866439
0.0031435357
0.0030984061
0.0030511486
0.0030016682
0.0029499029
0.0028958319
0.0028395274
0.0027811019
0.0027206224
0.00265838
0.0025947342
0.0025301295
0.0024655544
0.0024025219
0.0023429763
0.002290208
0.0022489727
0.0022186234
0.0022139716
0.0022396188
0.0022932132
0.0023881068
0.0025288638
0.0027189709
0.0029575462
0.0032361921
0.0035524825
0.0038880445
0.0041933274
0.004421898
0.0045579422
0.0045930648
0.0045410715
0.0044403128
0.0043117869
0.0041675182
0.0040185405
0.0038679151
0.0037141499
0.0035603603
0.003404289
0.0032426198
0.0030790528
0.0029153903
0.0027532199
0.0025947753
0.0024383502
0.0022834827
0.0021328957
0.0019861732
0.0018417174
0.0017001455
0.0015631463
0.0014304361
0.0013003953
0.0011740513
0.0010520303
0.00093640369
0.00082669395
0.00072555677
0.00062949051
0.00056743828
0.00048102486
0.0006665701
-0.00051312349
0.012028803
0.012132125
0.012351306
0.012631222
0.012970329
0.013368889
0.013825049
0.014338003
0.014909063
0.015541437
0.01624011
0.017012184
0.017867491
0.018819919
0.019888397
0.021101998
0.022497773
0.024150402
0.026123462
0.028699278
0.031823933
0.037204919
0.0423719
0.081407412
0.051919635
0.0024882135
0.0011011386
0.001960294
0.0025103972
0.0029470755
0.0032093491
0.0033952124
0.0035356177
0.0036356209
0.0037058238
0.0037557717
0.0037913856
0.0038163445
0.00383294
0.0038430836
0.0038482044
0.0038491586
0.0038466996
0.0038414972
0.0038339445
0.0038243344
0.0038129474
0.0037999876
0.0037856315
0.0037700103
0.003753189
0.0037352455
0.00371624
0.0036962115
0.003675203
0.0036532213
0.0036302488
0.0036062861
0.0035813202
0.0035553301
0.0035282891
0.0035001701
0.0034709195
0.0034404587
0.0034087133
0.0033756027
0.0033410498
0.0033049697
0.0032672695
0.0032278675
0.0031866689
0.0031435593
0.0030984285
0.0030511699
0.0030016883
0.0029499219
0.0028958499
0.0028395443
0.0027811177
0.0027206371
0.0026583937
0.0025947468
0.002530141
0.0024655648
0.0024025312
0.0023429844
0.0022902147
0.0022489781
0.0022186269
0.0022139733
0.0022396188
0.002293211
0.0023881023
0.0025288569
0.0027189616
0.0029575346
0.0032361784
0.0035524672
0.0038880279
0.0041933109
0.0044218828
0.0045579295
0.0045930551
0.0045410644
0.0044403078
0.0043117834
0.0041675159
0.004018539
0.0038679142
0.0037141494
0.0035603601
0.0034042891
0.0032426202
0.0030790534
0.0029153911
0.0027532209
0.0025947764
0.0024383514
0.002283484
0.0021328971
0.0019861746
0.0018417188
0.0017001469
0.0015631476
0.0014304375
0.0013003967
0.0011740526
0.0010520316
0.00093640497
0.00082669521
0.00072555803
0.00062949176
0.00056743965
0.00048102623
0.00066657161
-0.00051312258
0.012028803
0.012132125
0.012351306
0.012631222
0.012970329
0.01336889
0.01382505
0.014338005
0.014909065
0.01554144
0.016240113
0.017012189
0.017867497
0.018819926
0.019888406
0.021102011
0.022497789
0.024150424
0.026123491
0.028699323
0.031823994
0.037205032
0.042372123
0.081386946
0.051955943
0.0025054871
0.001106494
0.0019628675
0.0025119772
0.0029481863
0.0032101891
0.0033958797
0.0035361637
0.003636078
0.0037062138
0.0037561093
0.0037916813
0.003816606
0.0038331732
0.003843293
0.0038483936
0.0038493305
0.0038468565
0.003841641
0.0038340768
0.0038244566
0.0038130604
0.0038000926
0.0037857292
0.0037701014
0.0037532742
0.0037353253
0.0037163149
0.0036962818
0.0036752692
0.0036532837
0.0036303076
0.0036063417
0.0035813727
0.0035553798
0.0035283361
0.0035002147
0.0034709617
0.0034404988
0.0034087513
0.0033756388
0.0033410841
0.0033050023
0.0032673005
0.0032278969
0.0031866968
0.0031435858
0.0030984536
0.0030511937
0.0030017109
0.0029499432
0.0028958699
0.0028395632
0.0027811354
0.0027206536
0.002658409
0.0025947609
0.0025301539
0.0024655764
0.0024025415
0.0023429934
0.0022902222
0.0022489841
0.0022186309
0.0022139752
0.0022396188
0.0022932085
0.0023880974
0.0025288493
0.0027189512
0.0029575215
0.0032361631
0.0035524499
0.0038880094
0.0041932925
0.0044218658
0.0045579154
0.0045930442
0.0045410564
0.0044403022
0.0043117796
0.0041675133
0.0040185373
0.0038679131
0.0037141488
0.00356036
0.0034042893
0.0032426207
0.0030790541
0.002915392
0.002753222
0.0025947777
0.0024383528
0.0022834854
0.0021328986
0.0019861761
0.0018417203
0.0017001485
0.0015631492
0.001430439
0.0013003982
0.0011740541
0.001052033
0.0009364064
0.00082669662
0.00072555945
0.00062949317
0.00056744118
0.00048102777
0.00066657331
-0.00051312157
0.012028803
0.012132125
0.012351307
0.012631223
0.01297033
0.013368891
0.013825052
0.014338006
0.014909067
0.015541443
0.016240117
0.017012194
0.017867503
0.018819934
0.019888417
0.021102025
0.022497807
0.02415045
0.026123524
0.028699374
0.031824063
0.037205158
0.042372383
0.081362726
0.051994728
0.0025248493
0.0011124989
0.0019657543
0.0025137503
0.0029494329
0.0032111318
0.0033966284
0.0035367765
0.003636591
0.0037066514
0.0037564881
0.0037920131
0.0038168994
0.0038334348
0.0038435279
0.0038486059
0.0038495234
0.0038470325
0.0038418024
0.0038342252
0.0038245936
0.0038131873
0.0038002104
0.0037858388
0.0037702037
0.0037533698
0.0037354148
0.0037163989
0.0036963607
0.0036753435
0.0036533537
0.0036303736
0.003606404
0.0035814316
0.0035554356
0.0035283889
0.0035002647
0.0034710092
0.0034405437
0.003408794
0.0033756794
0.0033411226
0.0033050389
0.0032673352
0.0032279298
0.0031867281
0.0031436155
0.0030984818
0.0030512204
0.0030017361
0.0029499671
0.0028958925
0.0028395843
0.0027811552
0.0027206722
0.0026584262
0.0025947768
0.0025301684
0.0024655895
0.0024025532
0.0023430034
0.0022902306
0.0022489908
0.0022186354
0.0022139774
0.0022396187
0.0022932058
0.0023880918
0.0025288407
0.0027189395
0.0029575069
0.003236146
0.0035524306
0.0038879886
0.0041932717
0.0044218468
0.0045578996
0.0045930321
0.0045410474
0.0044402959
0.0043117753
0.0041675103
0.0040185353
0.0038679119
0.0037141482
0.0035603598
0.0034042895
0.0032426212
0.0030790549
0.0029153931
0.0027532233
0.0025947791
0.0024383543
0.0022834871
0.0021329003
0.0019861778
0.001841722
0.0017001502
0.0015631509
0.0014304407
0.0013003998
0.0011740557
0.0010520346
0.000936408
0.0008266982
0.00072556104
0.00062949474
0.0005674429
0.00048102949
0.00066657521
-0.00051312044
0.012028803
0.012132126
0.012351307
0.012631224
0.012970331
0.013368892
0.013825053
0.014338009
0.01490907
0.015541446
0.016240122
0.017012199
0.017867511
0.018819943
0.019888429
0.021102041
0.022497828
0.024150478
0.026123561
0.028699431
0.03182414
0.037205297
0.042372685
0.08133398
0.052035889
0.0025466085
0.001119242
0.0019689975
0.0025157432
0.002950834
0.0032121912
0.0033974699
0.0035374651
0.0036371674
0.0037071431
0.0037569138
0.0037923859
0.0038172291
0.0038337288
0.0038437919
0.0038488445
0.0038497401
0.0038472303
0.0038419837
0.003834392
0.0038247475
0.0038133299
0.0038003428
0.003785962
0.0037703186
0.0037534772
0.0037355154
0.0037164932
0.0036964494
0.003675427
0.0036534323
0.0036304478
0.003606474
0.0035814979
0.0035554982
0.0035284482
0.0035003209
0.0034710624
0.0034405943
0.003408842
0.0033757249
0.0033411659
0.00330508
0.0032673742
0.0032279669
0.0031867633
0.0031436489
0.0030985135
0.0030512504
0.0030017645
0.0029499939
0.0028959178
0.0028396082
0.0027811775
0.002720693
0.0026584456
0.0025947946
0.0025301847
0.0024656042
0.0024025662
0.0023430148
0.00229024
0.0022489983
0.0022186405
0.0022139799
0.0022396187
0.0022932027
0.0023880855
0.002528831
0.0027189263
0.0029574905
0.0032361267
0.0035524089
0.0038879653
0.0041932484