/*--------------------------------*- C++ -*----------------------------------*\
| =========                 |                                                 |
| \\      /  F ield         | OpenFOAM: The Open Source CFD Toolbox           |
|  \\    /   O peration     | Version:  2206                                  |
|   \\  /    A nd           | Website:  www.openfoam.com                      |
|    \\/     M anipulation  |                                                 |
\*---------------------------------------------------------------------------*/
FoamFile
{
    version     2.0;
    format      ascii;
    arch        "LSB;label=32;scalar=64";
    class       surfaceScalarField;
    location    "600";
    object      phi;
}
// * * * * * * * * * * * * * * * * * * * * * * * * * * * * * * * * * * * * * //

dimensions      [0 3 -1 0 0 0 0];

oriented        oriented;

internalField   nonuniform List<scalar> 
25880
(
2.0046216e-06
3.255293e-11
2.0045434e-06
7.8243202e-11
2.0044442e-06
9.9127523e-11
2.0043319e-06
1.1233061e-10
2.0042028e-06
1.2907127e-10
2.0040545e-06
1.4828347e-10
2.0038848e-06
1.6974827e-10
2.0036905e-06
1.9433693e-10
2.0034674e-06
2.230761e-10
2.0032103e-06
2.5703974e-10
2.0029128e-06
2.9756335e-10
2.0025662e-06
3.4660628e-10
2.0021594e-06
4.0677865e-10
2.0016766e-06
4.8277328e-10
2.0010972e-06
5.7938553e-10
2.000385e-06
7.1224493e-10
1.9995019e-06
8.8305321e-10
1.9983289e-06
1.1730673e-09
1.996836e-06
1.4928379e-09
1.9944372e-06
2.3988367e-09
1.9914262e-06
3.0110317e-09
1.9841257e-06
7.3004259e-09
1.9811172e-06
3.0085009e-09
9.9524295e-07
9.8587428e-07
4.3907404e-09
9.9085221e-07
2.1150508e-09
2.2756896e-09
1.600211e-09
5.1483983e-10
1.3516412e-09
2.4856974e-10
1.1981444e-09
1.5349685e-10
1.0892557e-09
1.0888863e-10
1.0061259e-09
8.3129794e-11
9.3942518e-10
6.6700773e-11
8.8429572e-10
5.5129458e-11
8.3766991e-10
4.6625813e-11
7.9747237e-10
4.0197532e-11
7.6229639e-10
3.5175983e-11
7.3114657e-10
3.1149826e-11
7.0328718e-10
2.7859389e-11
6.7815718e-10
2.5129994e-11
6.5532443e-10
2.2832755e-11
6.3443978e-10
2.0884651e-11
6.1522883e-10
1.9210953e-11
5.9747398e-10
1.7754843e-11
5.8098784e-10
1.6486144e-11
5.6561866e-10
1.5369183e-11
5.5123807e-10
1.4380584e-11
5.3773739e-10
1.3500686e-11
5.2502399e-10
1.2713402e-11
5.1301857e-10
1.2005414e-11
5.0165271e-10
1.1365857e-11
4.9086658e-10
1.078613e-11
4.8060782e-10
1.025876e-11
4.7083054e-10
9.777283e-12
4.6149427e-10
9.3362675e-12
4.525634e-10
8.9308703e-12
4.4400628e-10
8.5571202e-12
4.3579444e-10
8.211843e-12
4.2790238e-10
7.8920657e-12
4.2030728e-10
7.5950992e-12
4.129886e-10
7.3186778e-12
4.0592789e-10
7.0607113e-12
3.9910872e-10
6.8191624e-12
3.9251638e-10
6.5923481e-12
3.8613728e-10
6.379096e-12
3.7995904e-10
6.1782368e-12
3.7397062e-10
5.9884265e-12
3.6816221e-10
5.8084036e-12
3.6252511e-10
5.6371074e-12
3.5705154e-10
5.4735629e-12
3.5173495e-10
5.3165918e-12
3.4656996e-10
5.1649879e-12
3.4155225e-10
5.0177104e-12
3.3667852e-10
4.873736e-12
3.3194647e-10
4.7320477e-12
3.2735486e-10
4.591609e-12
3.2290359e-10
4.4512726e-12
3.1859419e-10
4.3094023e-12
3.1443103e-10
4.1631575e-12
3.104213e-10
4.0097265e-12
3.0657413e-10
3.8471678e-12
3.0290103e-10
3.6731e-12
2.9941589e-10
3.4851462e-12
2.9613507e-10
3.280817e-12
2.9308052e-10
3.0545458e-12
2.9028078e-10
2.7997444e-12
2.8777028e-10
2.5104949e-12
2.8561299e-10
2.1572897e-12
2.838188e-10
1.7941961e-12
2.8257953e-10
1.2392658e-12
2.8195309e-10
6.2644169e-13
2.8194893e-10
4.1608983e-15
2.8278439e-10
-8.3546729e-13
2.8454718e-10
-1.7627908e-12
2.873739e-10
-2.8267187e-12
2.9137904e-10
-4.0051346e-12
2.9659798e-10
-5.2189414e-12
3.0298356e-10
-6.3855809e-12
3.1049122e-10
-7.5076608e-12
3.1893579e-10
-8.4445687e-12
3.2775792e-10
-8.8221326e-12
3.362497e-10
-8.4917764e-12
3.4364795e-10
-7.3982525e-12
3.4961463e-10
-5.9666753e-12
3.5423843e-10
-4.6238073e-12
3.5763728e-10
-3.3988488e-12
3.6010545e-10
-2.4681667e-12
3.6186953e-10
-1.7640803e-12
3.6309738e-10
-1.2278494e-12
3.638994e-10
-8.0201489e-13
3.643432e-10
-4.438059e-13
3.6447903e-10
-1.3582725e-13
3.6432821e-10
1.5082058e-13
3.6388626e-10
4.4194962e-13
3.6317889e-10
7.0736819e-13
3.6224725e-10
9.3164178e-13
3.6112384e-10
1.1234118e-12
3.5985222e-10
1.2716195e-12
3.5846965e-10
1.3825745e-12
3.5700386e-10
1.4657883e-12
3.5548568e-10
1.5181819e-12
3.5394218e-10
1.5434998e-12
3.5238713e-10
1.5550456e-12
3.5082947e-10
1.5576659e-12
3.4928225e-10
1.5472181e-12
3.4775585e-10
1.5263941e-12
3.4625204e-10
1.503813e-12
3.4476878e-10
1.4832555e-12
3.433056e-10
1.4631804e-12
3.4186269e-10
1.4429127e-12
3.4044193e-10
1.4207609e-12
3.3901356e-10
1.4283734e-12
3.3759823e-10
1.4153281e-12
3.3604981e-10
1.5484188e-12
3.3449479e-10
1.5550241e-12
3.3279043e-10
1.7043571e-12
1.0212475e-12
2.0344949e-06
6.5718143e-11
2.0344152e-06
1.5798004e-10
2.0343141e-06
2.0016826e-10
2.0341996e-06
2.2683287e-10
2.0340681e-06
2.606359e-10
2.0339169e-06
2.994282e-10
2.0337439e-06
3.4276701e-10
2.0335458e-06
3.9241096e-10
2.0333185e-06
4.5043254e-10
2.0330565e-06
5.1899955e-10
2.0327533e-06
6.0080742e-10
2.0324001e-06
6.998107e-10
2.0319856e-06
8.2127705e-10
2.0314936e-06
9.7467794e-10
2.0309033e-06
1.1696897e-09
2.0301777e-06
1.4378581e-09
2.0292782e-06
1.7826049e-09
2.0280833e-06
2.367936e-09
2.0265629e-06
3.0132608e-09
2.0241201e-06
4.8416221e-09
2.0210541e-06
6.0770807e-09
2.013621e-06
1.4733447e-08
2.0105496e-06
6.079975e-09
1.0164277e-06
1.9799962e-06
1.3396479e-08
1.9938834e-06
6.4714707e-09
9.2006975e-09
4.8964483e-09
2.0898622e-09
4.1358678e-09
1.0091503e-09
3.6661731e-09
6.2319156e-10
3.3329721e-09
4.4208955e-10
3.0785978e-09
3.375041e-10
2.8744985e-09
2.7080014e-10
2.7058066e-09
2.2382132e-10
2.5631358e-09
1.8929665e-10
2.4401356e-09
1.631977e-10
2.3325013e-09
1.4281028e-10
2.2371869e-09
1.2646429e-10
2.1519409e-09
1.1310536e-10
2.0750466e-09
1.0202424e-10
2.0051817e-09
9.26977e-11
1.9412778e-09
8.4788564e-11
1.8824952e-09
7.7993525e-11
1.8281681e-09
7.2081938e-11
1.7777231e-09
6.6931171e-11
1.7306958e-09
6.2396458e-11
1.6866935e-09
5.8382885e-11
1.6453836e-09
5.481062e-11
1.6064826e-09
5.161436e-11
1.569748e-09
4.8740033e-11
1.5349703e-09
4.6143533e-11
1.5019665e-09
4.378993e-11
1.4705764e-09
4.164889e-11
1.4406595e-09
3.9694168e-11
1.4120921e-09
3.7903714e-11
1.3847651e-09
3.6257867e-11
1.3585817e-09
3.4740504e-11
1.3334548e-09
3.3338736e-11
1.3093064e-09
3.2040493e-11
1.2860666e-09
3.0834859e-11
1.2636727e-09
2.9712635e-11
1.242068e-09
2.8665335e-11
1.2212025e-09
2.7684689e-11
1.201031e-09
2.6763865e-11
1.181512e-09
2.58981e-11
1.1626076e-09
2.5082649e-11
1.1442839e-09
2.4312054e-11
1.1265111e-09
2.3581194e-11
1.1092625e-09
2.2885764e-11
1.0925143e-09
2.2221803e-11
1.0762463e-09
2.158453e-11
1.0604423e-09
2.0969047e-11
1.0450888e-09
2.0371128e-11
1.030176e-09
1.9786619e-11
1.0156966e-09
1.921139e-11
1.001647e-09
1.8641232e-11
9.8802678e-10
1.8071487e-11
9.7484067e-10
1.7495509e-11
9.6210205e-10
1.6901772e-11
9.4983292e-10
1.627886e-11
9.380612e-10
1.5618884e-11
9.2682213e-10
1.491218e-11
9.1615817e-10
1.4149096e-11
9.0611948e-10
1.3319512e-11
8.967732e-10
1.2400827e-11
8.8820665e-10
1.1366295e-11
8.8052528e-10
1.0191863e-11
8.7392477e-10
8.7577937e-12
8.6843548e-10
7.2834897e-12
8.6464431e-10
5.0304385e-12
8.6272834e-10
2.5424051e-12
8.6271667e-10
1.5833778e-14
8.6527422e-10
-3.3930229e-12
8.7066932e-10
-7.157887e-12
8.7931983e-10
-1.1477227e-11
8.9157593e-10
-1.6261233e-11
9.0754578e-10
-2.1188793e-11
9.2708514e-10
-2.5924941e-11
9.5005725e-10
-3.0479778e-11
9.7589497e-10
-3.428229e-11
1.0028871e-09
-3.5814247e-11
1.0288681e-09
-3.4472741e-11
1.0515034e-09
-3.00336e-11
1.069759e-09
-2.4222298e-11
1.0839063e-09
-1.8771076e-11
1.094306e-09
-1.3798546e-11
1.1018582e-09
-1.0020381e-11
1.1072562e-09
-7.1620771e-12
1.1110135e-09
-4.9851065e-12
1.1134677e-09
-3.2562612e-12
1.1148259e-09
-1.8020024e-12
1.1152417e-09
-5.5162291e-13
1.1147804e-09
6.1216449e-13
1.1134282e-09
1.7941154e-12
1.1112639e-09
2.8717132e-12
1.1084133e-09
3.7822411e-12
1.1049759e-09
4.560786e-12
1.101085e-09
5.1625031e-12
1.0968546e-09
5.6129697e-12
1.0923696e-09
5.9507847e-12
1.0877243e-09
6.1635003e-12
1.0830015e-09
6.2663042e-12
1.0782434e-09
6.3131746e-12
1.0734772e-09
6.3237984e-12
1.0687431e-09
6.2813867e-12
1.0640726e-09
6.1968599e-12
1.0594712e-09
6.1051773e-12
1.0549328e-09
6.0217067e-12
1.0504558e-09
5.9401867e-12
1.0460408e-09
5.8579e-12
1.0416936e-09
5.7679504e-12
1.0373231e-09
5.7988315e-12
1.0329927e-09
5.745715e-12
1.028255e-09
6.2861718e-12
1.0234987e-09
6.311346e-12
1.018276e-09
6.9270509e-12
4.1337347e-12
2.0946868e-06
1.0000998e-10
2.0946043e-06
2.4045136e-10
2.0944998e-06
3.046986e-10
2.0943813e-06
3.4529389e-10
2.0942452e-06
3.9674695e-10
2.0940889e-06
4.5579218e-10
2.0939099e-06
5.2175459e-10
2.093705e-06
5.9730991e-10
2.0934698e-06
6.8561191e-10
2.0931988e-06
7.89959e-10
2.0928852e-06
9.1445198e-10
2.0925199e-06
1.0651072e-09
2.0920912e-06
1.2499382e-09
2.0915826e-06
1.4833546e-09
2.0909722e-06
1.7800742e-09
2.0902219e-06
2.1880917e-09
2.0892919e-06
2.7125907e-09
2.0880568e-06
3.603097e-09
2.0864853e-06
4.5847661e-09
2.0839608e-06
7.3660549e-09
2.0807925e-06
9.245395e-09
2.0731124e-06
2.2413591e-08
2.0699304e-06
9.2619312e-09
1.0531437e-06
2.9967829e-06
2.3163301e-08
3.0238638e-06
1.1214828e-08
2.1149171e-08
8.4856969e-09
4.8189931e-09
7.1676267e-09
2.3272206e-09
6.3536076e-09
1.4372106e-09
5.7761389e-09
1.0195583e-09
5.335288e-09
7.7835495e-10
4.9815718e-09
6.2451639e-10
4.6892193e-09
5.161738e-10
4.4419634e-09
4.3655257e-10
4.2287988e-09
3.7636233e-10
4.0422645e-09
3.2934454e-10
3.8770814e-09
2.9164741e-10
3.7293475e-09
2.6083921e-10
3.5960877e-09
2.3528411e-10
3.4750099e-09
2.137755e-10
3.3642629e-09
1.9553555e-10
3.2623914e-09
1.7986499e-10
3.1682413e-09
1.66232e-10
3.0808191e-09
1.5435344e-10
2.9993199e-09
1.4389567e-10
2.923063e-09
1.3463972e-10
2.8514721e-09
1.2640152e-10
2.7840561e-09
1.1903044e-10
2.7203943e-09
1.1240179e-10
2.660124e-09
1.0641387e-10
2.6029278e-09
1.009861e-10
2.5485281e-09
9.6048536e-11
2.4966817e-09
9.1540649e-11
2.4471738e-09
8.7411593e-11
2.3998156e-09
8.3616026e-11
2.3544394e-09
8.0116764e-11
2.310894e-09
7.6884078e-11
2.2690444e-09
7.3890139e-11
2.2287695e-09
7.1109772e-11
2.1899603e-09
6.8521759e-11
2.1525191e-09
6.6106533e-11
2.1163588e-09
6.3845025e-11
2.0814012e-09
6.1721476e-11
2.0475744e-09
5.9724904e-11
2.0148127e-09
5.784436e-11
1.9830575e-09
5.6067262e-11
1.9522569e-09
5.4381799e-11
1.9223646e-09
5.277804e-11
1.8933395e-09
5.1246855e-11
1.8651469e-09
4.9777216e-11
1.8377581e-09
4.835783e-11
1.8111503e-09
4.6978949e-11
1.7853059e-09
4.5630991e-11
1.7602128e-09
4.4304434e-11
1.7358645e-09
4.2989567e-11
1.7122603e-09
4.1675648e-11
1.6894085e-09
4.0347349e-11
1.6673322e-09
3.897809e-11
1.6460695e-09
3.7541553e-11
1.6256688e-09
3.6019528e-11
1.6061913e-09
3.4389738e-11
1.5877105e-09
3.262992e-11
1.5703133e-09
3.0716704e-11
1.5541161e-09
2.8597978e-11
1.5392704e-09
2.6212055e-11
1.5259588e-09
2.3503416e-11
1.5145205e-09
2.0196084e-11
1.5050084e-09
1.6795561e-11
1.4984391e-09
1.1599771e-11
1.4951196e-09
5.8619198e-12
1.4951008e-09
3.4612142e-14
1.4995345e-09
-7.8267005e-12
1.5088858e-09
-1.6509212e-11
1.5238788e-09
-2.6470178e-11
1.54512e-09
-3.7502496e-11
1.572797e-09
-4.8865705e-11
1.6066596e-09
-5.9787568e-11
1.6464704e-09
-7.0290577e-11
1.6912458e-09
-7.9057734e-11
1.7380208e-09
-8.2589228e-11
1.783043e-09
-7.9494905e-11
1.822268e-09
-6.9258584e-11
1.8539038e-09
-5.5858165e-11
1.8784204e-09
-4.3287621e-11
1.8964432e-09
-3.1821364e-11
1.9095316e-09
-2.3108759e-11
1.9188868e-09
-1.651734e-11
1.9253987e-09
-1.1496965e-11
1.9296523e-09
-7.5099269e-12
1.9320065e-09
-4.1561782e-12
1.9327274e-09
-1.2725429e-12
1.9319282e-09
1.4114103e-12
1.9295851e-09
4.1372072e-12
1.9258344e-09
6.6223857e-12
1.9208944e-09
8.7222331e-12
1.9149376e-09
1.0517669e-11
1.9081947e-09
1.1905354e-11
1.9008635e-09
1.2944214e-11
1.893091e-09
1.3723242e-11
1.8850407e-09
1.4213809e-11
1.8768561e-09
1.4450922e-11
1.8686102e-09
1.4559009e-11
1.8603506e-09
1.4583488e-11
1.8521463e-09
1.448569e-11
1.8440523e-09
1.4290784e-11
1.8360782e-09
1.4079342e-11
1.828213e-09
1.3886825e-11
1.8204544e-09
1.3698799e-11
1.8128033e-09
1.3509022e-11
1.8052697e-09
1.3301564e-11
1.7976958e-09
1.3372695e-11
1.7901915e-09
1.325004e-11
1.7819814e-09
1.4496299e-11
1.7737402e-09
1.4552567e-11
1.764684e-09
1.5983235e-11
9.5193681e-12
2.1860943e-06
1.3596767e-10
2.1860078e-06
3.2695963e-10
2.1858981e-06
4.1437489e-10
2.1857738e-06
4.6959179e-10
2.185631e-06
5.3956186e-10
2.1854669e-06
6.1985309e-10
2.1852791e-06
7.0954591e-10
2.1850641e-06
8.1227729e-10
2.1848174e-06
9.3233469e-10
2.1845332e-06
1.0742016e-09
2.1842042e-06
1.2434516e-09
2.183821e-06
1.4482615e-09
2.1833714e-06
1.6995219e-09
2.182838e-06
2.0168174e-09
2.1821979e-06
2.4201455e-09
2.1814113e-06
2.9747397e-09
2.1804362e-06
3.6876115e-09
2.1791414e-06
4.897914e-09
2.1774942e-06
6.2319517e-09
2.1748487e-06
1.0011555e-08
2.1715287e-06
1.2565409e-08
2.1634818e-06
3.0460469e-08
2.1601382e-06
1.2605589e-08
1.1062425e-06
4.0506786e-06
3.4269325e-08
4.095837e-06
1.6628864e-08
3.8789632e-08
1.2582694e-08
8.865163e-09
1.0628321e-08
4.2815942e-09
9.4212449e-09
2.6442866e-09
8.5649362e-09
1.875867e-09
7.9112176e-09
1.4320735e-09
7.3867135e-09
1.1490205e-09
6.9532028e-09
9.4968446e-10
6.5865639e-09
8.0319149e-10
6.2704781e-09
6.9244813e-10
5.9938815e-09
6.0594118e-10
5.7489453e-09
5.3658362e-10
5.5298835e-09
4.7990098e-10
5.3322842e-09
4.3288337e-10
5.1527488e-09
3.9331096e-10
4.9885323e-09
3.5975205e-10
4.8374766e-09
3.3092062e-10
4.6978703e-09
3.0583837e-10
4.56824e-09
2.8398367e-10
4.4473926e-09
2.6474311e-10
4.3343186e-09
2.4771371e-10
4.2281633e-09
2.3255679e-10
4.1281985e-09
2.1899525e-10
4.0338006e-09
2.0679968e-10
3.9444316e-09
1.9578292e-10
3.8596209e-09
1.8579677e-10
3.7789569e-09
1.767125e-10
3.7020788e-09
1.6841877e-10
3.6286684e-09
1.6082203e-10
3.5584455e-09
1.5383885e-10
3.4911615e-09
1.4740083e-10
3.4265923e-09
1.4145325e-10
3.3645375e-09
1.3594494e-10
3.3048177e-09
1.3082955e-10
3.2472714e-09
1.2606807e-10
3.1917535e-09
1.2162448e-10
3.1381348e-09
1.1746372e-10
3.0862995e-09
1.1355678e-10
3.0361409e-09
1.0988345e-10
2.9875617e-09
1.064236e-10
2.9404749e-09
1.0315406e-10
2.8948036e-09
1.0005312e-10
2.8504791e-09
9.7102499e-11
2.8074406e-09
9.4285401e-11
2.7656363e-09
9.1581539e-11
2.725024e-09
8.8970135e-11
2.6855696e-09
8.6433253e-11
2.6472474e-09
8.3953264e-11
2.6100392e-09
8.1512644e-11
2.5739352e-09
7.9093528e-11
2.5389347e-09
7.6676147e-11
2.5050498e-09
7.4232298e-11
2.4723148e-09
7.1713089e-11
2.4407862e-09
6.9070099e-11
2.4105359e-09
6.6269812e-11
2.3816544e-09
6.3271248e-11
2.3542509e-09
6.0033439e-11
2.3284542e-09
5.651335e-11
2.3044371e-09
5.26151e-11
2.282424e-09
4.8225187e-11
2.262686e-09
4.3241384e-11
2.2457258e-09
3.7156283e-11
2.2316227e-09
3.0898672e-11
2.2218826e-09
2.1339891e-11
2.2169613e-09
1.0783226e-11
2.2169354e-09
6.0490344e-14
2.2235113e-09
-1.4402641e-11
2.2373794e-09
-3.0377276e-11
2.2596128e-09
-4.8703553e-11
2.2911108e-09
-6.9000539e-11
2.3321513e-09
-8.9906123e-11
2.3823635e-09
-1.0999977e-10
2.4413944e-09
-1.2932155e-10
2.507785e-09
-1.4544829e-10
2.5771392e-09
-1.5194346e-10
2.6438937e-09
-1.4624941e-10
2.7020538e-09
-1.2741861e-10
2.7489622e-09
-1.0276663e-10
2.7853145e-09
-7.9639948e-11
2.8120392e-09
-5.8546063e-11
2.8314475e-09
-4.2516988e-11
2.8453204e-09
-3.0390274e-11
2.8549771e-09
-2.1153674e-11
2.8612853e-09
-1.3818068e-11
2.8647768e-09
-7.6476837e-12
2.8658464e-09
-2.3421477e-12
2.8646617e-09
2.5960234e-12
2.8611878e-09
7.6111128e-12
2.8556267e-09
1.2183553e-11
2.8483019e-09
1.6046983e-11
2.8394693e-09
1.9350287e-11
2.8294712e-09
2.1903456e-11
2.8186006e-09
2.3814814e-11
2.8070758e-09
2.5248064e-11
2.7951389e-09
2.6150651e-11
2.7830029e-09
2.6586959e-11
2.7707761e-09
2.6785821e-11
2.7585288e-09
2.6830826e-11
2.7463635e-09
2.6650916e-11
2.7343619e-09
2.6292367e-11
2.7225379e-09
2.5903339e-11
2.7108757e-09
2.5549104e-11
2.6993713e-09
2.5203125e-11
2.6880264e-09
2.4853943e-11
2.6768558e-09
2.4472229e-11
2.6656256e-09
2.4602901e-11
2.6544985e-09
2.4377093e-11
2.6423254e-09
2.6669379e-11
2.6301068e-09
2.6771152e-11
2.6166753e-09
2.9414816e-11
1.7500278e-11
2.3100795e-06
1.7416548e-10
2.3099875e-06
4.1889422e-10
2.309871e-06
5.3096601e-10
2.3097388e-06
6.0173262e-10
2.309587e-06
6.9138489e-10
2.3094126e-06
7.9425683e-10
2.309213e-06
9.0916791e-10
2.3089845e-06
1.0407757e-09
2.3087222e-06
1.1945717e-09
2.3084201e-06
1.376298e-09
2.3080705e-06
1.5930914e-09
2.3076633e-06
1.8554224e-09
2.3071856e-06
2.177235e-09
2.3066188e-06
2.5836072e-09
2.3059388e-06
3.1001378e-09
2.3051032e-06
3.8103615e-09
2.3040676e-06
4.7232091e-09
2.3026925e-06
6.2729871e-09
2.3009435e-06
7.9809711e-09
2.2981351e-06
1.2820002e-08
2.2946109e-06
1.6089623e-08
2.2860703e-06
3.9001036e-08
2.2825099e-06
1.6165966e-08
1.1768567e-06
5.1563318e-06
4.7367711e-08
5.225326e-06
2.3037418e-08
6.3119925e-08
1.7432571e-08
1.447001e-08
1.4725024e-08
6.9891411e-09
1.3052635e-08
4.3166751e-09
1.1866227e-08
3.0622759e-09
1.096051e-08
2.3377902e-09
1.0233827e-08
1.8757034e-09
9.6332138e-09
1.5502977e-09
9.1252502e-09
1.311155e-09
8.6873282e-09
1.1303701e-09
8.304118e-09
9.8915146e-10
7.9647724e-09
8.7592922e-10
7.6612749e-09
7.8339844e-10
7.3875129e-09
7.0664534e-10
7.1387774e-09
6.420465e-10
6.9112658e-09
5.8726363e-10
6.701988e-09
5.4019841e-10
6.5085723e-09
4.9925408e-10
6.3289781e-09
4.6357791e-10
6.1615519e-09
4.3216929e-10
6.0048953e-09
4.0437025e-10
5.8578243e-09
3.7962787e-10
5.7193297e-09
3.5748982e-10
5.5885477e-09
3.3758162e-10
5.4647329e-09
3.1959775e-10
5.3472334e-09
3.0329624e-10
5.2354789e-09
2.88467e-10
5.1289695e-09
2.7492823e-10
5.0272643e-09
2.6252723e-10
4.9299753e-09
2.5112784e-10
4.8367578e-09
2.4061837e-10
4.7473015e-09
2.3090951e-10
4.6613287e-09
2.2191769e-10
4.578591e-09
2.1356731e-10
4.4988644e-09
2.0579464e-10
4.421948e-09
1.9854091e-10
4.3476628e-09
1.9174886e-10
4.2758484e-09
1.8537117e-10
4.2063571e-09
1.7937483e-10
4.1390537e-09
1.7372697e-10
4.073818e-09
1.6838978e-10
4.0105433e-09
1.633278e-10
3.9491346e-09
1.5851122e-10
3.8895074e-09
1.5391259e-10
3.8315901e-09
1.4949881e-10
3.7753243e-09
1.4523597e-10
3.7206628e-09
1.4109477e-10
3.6675696e-09
1.3704645e-10
3.6160198e-09
1.3306239e-10
3.5659999e-09
1.2911343e-10
3.5175088e-09
1.2516728e-10
3.4705632e-09
1.2117791e-10
3.4252107e-09
1.1706552e-10
3.3815298e-09
1.1275108e-10
3.3396197e-09
1.0817983e-10
3.2996061e-09
1.0328491e-10
3.2616401e-09
9.7999416e-11
3.2259004e-09
9.2253034e-11
3.1926263e-09
8.5889253e-11
3.1621287e-09
7.8722759e-11
3.1347835e-09
7.0586549e-11
3.1112868e-09
6.065298e-11
3.0917499e-09
5.0435645e-11
3.0782565e-09
3.4833238e-11
3.0714391e-09
1.7600605e-11
3.0714058e-09
9.3830617e-14
3.0805182e-09
-2.3515073e-11
3.0997337e-09
-4.9592773e-11
3.1305386e-09
-7.9508449e-11
3.1741786e-09
-1.1264052e-10
3.2310384e-09
-1.467659e-10
3.3006045e-09
-1.7956595e-10
3.3823869e-09
-2.1110389e-10
3.4743628e-09
-2.3742418e-10
3.5704432e-09
-2.4802392e-10
3.6629212e-09
-2.3872736e-10
3.7434948e-09
-2.0799216e-10
3.8084824e-09
-1.677543e-10
3.8588455e-09
-1.3000305e-10
3.895872e-09
-9.5572541e-11
3.9227623e-09
-6.9407318e-11
3.941984e-09
-4.9611969e-11
3.9553643e-09
-3.4533972e-11
3.9641052e-09
-2.255894e-11
3.9689437e-09
-1.2486156e-11
3.9704266e-09
-3.8250651e-12
3.9687863e-09
4.2363512e-12
3.9639741e-09
1.2423225e-11
3.9562701e-09
1.9887578e-11
3.9461227e-09
2.6194431e-11
3.9338861e-09
3.158683e-11
3.9200348e-09
3.5754778e-11
3.9049746e-09
3.8874978e-11
3.8890081e-09
4.1214606e-11
3.8724707e-09
4.2688061e-11
3.8556573e-09
4.3400402e-11
3.838718e-09
4.3725034e-11
3.8217504e-09
4.379846e-11
3.8048965e-09
4.3504812e-11
3.7882693e-09
4.2919587e-11
3.7718881e-09
4.2284523e-11
3.755731e-09
4.1706203e-11
3.7397928e-09
4.1141354e-11
3.7240754e-09
4.05713e-11
3.7085995e-09
3.9948153e-11
3.6930413e-09
4.0161094e-11
3.677626e-09
3.9792369e-11
3.6607625e-09
4.3532934e-11
3.6438362e-09
4.3697399e-11
3.6252256e-09
4.8025428e-11
2.8553971e-11
2.4684901e-06
2.1522416e-10
2.4683912e-06
5.177595e-10
2.4682658e-06
6.563898e-10
2.4681237e-06
7.4389187e-10
2.4679603e-06
8.5471465e-10
2.4677727e-06
9.8187217e-10
2.467558e-06
1.1239019e-09
2.4673122e-06
1.2865578e-09
2.4670301e-06
1.4766256e-09
2.4667052e-06
1.7011992e-09
2.4663292e-06
1.9690948e-09
2.4658914e-06
2.2932462e-09
2.4653778e-06
2.6908762e-09
2.4647684e-06
3.1929632e-09
2.4640374e-06
3.8311172e-09
2.4631393e-06
4.7085315e-09
2.4620263e-06
5.8361722e-09
2.4605487e-06
7.7505563e-09
2.4586697e-06
9.8600421e-09
2.4556531e-06
1.5836536e-08
2.4518681e-06
1.9874609e-08
2.4426972e-06
4.817199e-08
2.4388601e-06
2.0003041e-08
1.2664362e-06
6.3287557e-06
6.3224866e-08
6.4285373e-06
3.0823786e-08
9.5521005e-08
2.3325505e-08
2.1968292e-08
1.9702873e-08
1.0611773e-08
1.7465066e-08
6.5544817e-09
1.5877539e-08
4.6498027e-09
1.4665612e-08
3.5497177e-09
1.369326e-08
2.8480548e-09
1.2889601e-08
2.3539575e-09
1.2209914e-08
1.9908416e-09
1.162395e-08
1.7163338e-09
1.1111196e-08
1.5019059e-09
1.0657136e-08
1.3299894e-09
1.0251043e-08
1.1894914e-09
9.8847377e-09
1.0729504e-09
9.5519193e-09
9.7486495e-10
9.2475e-09
8.916829e-10
8.9674786e-09
8.2021982e-10
8.708681e-09
7.5805164e-10
8.4683773e-09
7.0388159e-10
8.2443551e-09
6.5619158e-10
8.034743e-09
6.1398228e-10
7.8379567e-09
5.7641417e-10
7.6526462e-09
5.4280041e-10
7.4776554e-09
5.125724e-10
7.3119868e-09
4.8526629e-10
7.1547685e-09
4.6051461e-10
7.0052371e-09
4.3799837e-10
6.8627238e-09
4.1744157e-10
6.7266387e-09
3.9861231e-10
6.5964626e-09
3.8130387e-10
6.4717343e-09
3.6534667e-10
6.3520387e-09
3.506051e-10
6.2370042e-09
3.3695225e-10
6.1262982e-09
3.2427334e-10
6.0196212e-09
3.1247161e-10
5.9167043e-09
3.0145782e-10
5.8173081e-09
2.9114505e-10
5.7212178e-09
2.8146144e-10
5.6282358e-09
2.7235686e-10
5.5381814e-09
2.6378138e-10
5.4508935e-09
2.5567763e-10
5.3662296e-09
2.4799175e-10
5.2840623e-09
2.4067846e-10
5.2042788e-09
2.3369611e-10
5.1267832e-09
2.2699444e-10
5.0514972e-09
2.2052194e-10
4.9783578e-09
2.1423416e-10
4.9073169e-09
2.0808739e-10
4.8383411e-09
2.0203818e-10
4.7714123e-09
1.9604225e-10
4.706529e-09
1.9005058e-10
4.6437136e-09
1.8399326e-10
4.58303e-09
1.7774915e-10
4.5245828e-09
1.7119824e-10
4.4685053e-09
1.6425739e-10
4.4149651e-09
1.5682507e-10
4.3641648e-09
1.4879968e-10
4.3163435e-09
1.4007435e-10
4.2718213e-09
1.3041146e-10
4.2310145e-09
1.1952956e-10
4.1944262e-09
1.0717489e-10
4.1629872e-09
9.2091942e-11
4.1368487e-09
7.6574188e-11
4.118795e-09
5.2886901e-11
4.1096736e-09
2.6722008e-11
4.1096321e-09
1.3529103e-13
4.121827e-09
-3.5709944e-11
4.1475406e-09
-7.5306337e-11
4.1887609e-09
-1.2072876e-10
4.2471543e-09
-1.7103394e-10
4.3232356e-09
-2.2284723e-10
4.416318e-09
-2.7264832e-10
4.5257438e-09
-3.2052973e-10
4.6488055e-09
-3.604858e-10
4.7773576e-09
-3.7657604e-10
4.9010885e-09
-3.6245834e-10
5.0088953e-09
-3.1579889e-10
5.0958511e-09
-2.5471008e-10
5.1632386e-09
-1.9739058e-10
5.2127838e-09
-1.4511771e-10
5.2487667e-09
-1.0539025e-10
5.2744888e-09
-7.5334068e-11
5.2923947e-09
-5.2439846e-11
5.3040925e-09
-3.4256735e-11
5.3105685e-09
-1.8962155e-11
5.3125543e-09
-5.810936e-12
5.3103609e-09
6.4297646e-12
5.3039233e-09
1.8860791e-11
5.2936161e-09
3.019486e-11
5.2800392e-09
3.9771255e-11
5.263667e-09
4.7959021e-11
5.2451341e-09
5.4287734e-11
5.2249836e-09
5.9025491e-11
5.2036203e-09
6.2577898e-11
5.1814931e-09
6.4815258e-11
5.1589965e-09
6.5897038e-11
5.1363315e-09
6.6389974e-11
5.1136286e-09
6.6501405e-11
5.0910778e-09
6.6055612e-11
5.0688302e-09
6.5167148e-11
5.0469119e-09
6.4202876e-11
5.0252934e-09
6.3324672e-11
5.0039678e-09
6.2466924e-11
4.9829378e-09
6.1601296e-11
4.9622309e-09
6.0655087e-11
4.9414142e-09
6.0977782e-11
4.9207887e-09
6.0417856e-11
4.8982268e-09
6.6094873e-11
4.8755811e-09
6.6343056e-11
4.8506781e-09
7.2928481e-11
4.334195e-11
2.6636868e-06
2.5982382e-10
2.6635793e-06
6.2520695e-10
2.663443e-06
7.9275474e-10
2.6632884e-06
8.9846185e-10
2.6631108e-06
1.0322986e-09
2.6629068e-06
1.185853e-09
2.6626734e-06
1.3573547e-09
2.6624062e-06
1.5537477e-09
2.6620996e-06
1.7832231e-09
2.6617464e-06
2.0543429e-09
2.6613378e-06
2.3777456e-09
2.660862e-06
2.7690384e-09
2.6603039e-06
3.2490017e-09
2.6596418e-06
3.8550171e-09
2.6588477e-06
4.6252137e-09
2.6578721e-06
5.6841212e-09
2.6566634e-06
7.0448834e-09
2.655059e-06
9.3549567e-09
2.6530191e-06
1.1900019e-08
2.6497451e-06
1.9110463e-08
2.6456376e-06
2.3982136e-08
2.6356871e-06
5.8122455e-08
2.631507e-06
2.4183131e-08
1.376792e-06
7.5834708e-06
8.2764154e-08
7.7225652e-06
4.045364e-08
1.3783152e-07
3.0614086e-08
3.1807846e-08
2.5859737e-08
1.5366122e-08
2.2922563e-08
9.4916557e-09
2.0838891e-08
6.7334751e-09
1.9248212e-08
5.1403967e-09
1.7971999e-08
4.124267e-09
1.6917198e-08
3.4087594e-09
1.6025113e-08
2.8829261e-09
1.5256044e-08
2.4854031e-09
1.4583063e-08
2.1748864e-09
1.3987119e-08
1.9259334e-09
1.3454132e-08
1.7224785e-09
1.2973366e-08
1.5537159e-09
1.2536551e-08
1.4116801e-09
1.213701e-08
1.2912239e-09
1.1769491e-08
1.1877389e-09
1.1429827e-08
1.0977154e-09
1.1114437e-08
1.0192723e-09
1.0820415e-08
9.5021346e-10
1.0545306e-08
8.890911e-10
1.0287031e-08
8.3468956e-10
1.0043817e-08
7.8601427e-10
9.8141473e-09
7.4224184e-10
9.596713e-09
7.0270057e-10
9.3903693e-09
6.6685834e-10
9.1941145e-09
6.3425318e-10
9.0070706e-09
6.0448543e-10
8.8284636e-09
5.772193e-10
8.657612e-09
5.5215546e-10
8.4939104e-09
5.2904833e-10
8.336814e-09
5.077015e-10
8.185835e-09
4.8793123e-10
8.0405371e-09
4.695713e-10
7.9005271e-09
4.5248159e-10
7.765452e-09
4.3653288e-10
7.6349978e-09
4.2159931e-10
7.5088824e-09
4.0757682e-10
7.3868464e-09
3.9439282e-10
7.2686528e-09
3.81975e-10
7.1540902e-09
3.7024026e-10
7.0429713e-09
3.5911064e-10
6.9351292e-09
3.4852056e-10
6.8304156e-09
3.3840969e-10
6.7287048e-09
3.2870528e-10
6.629894e-09
3.1933273e-10
6.5339005e-09
3.1022767e-10
6.4406611e-09
3.0132681e-10
6.350132e-09
2.9256722e-10
6.2622895e-09
2.8388477e-10
6.1771316e-09
2.7520845e-10
6.0946879e-09
2.6643702e-10
6.0150419e-09
2.5739511e-10
5.9383312e-09
2.4790895e-10
5.8647305e-09
2.3785809e-10
5.79446e-09
2.2709552e-10
5.7277856e-09
2.1547409e-10
5.6650211e-09
2.0283891e-10
5.6065867e-09
1.8884585e-10
5.5530289e-09
1.7308731e-10
5.5050084e-09
1.5519547e-10
5.4637461e-09
1.3335423e-10
5.4294436e-09
1.1087665e-10
5.4057496e-09
7.6580913e-11
5.3937781e-09
3.8693508e-11
5.3937277e-09
1.8574434e-13
5.4097353e-09
-5.1717627e-11
5.4434865e-09
-1.0905746e-10
5.4975892e-09
-1.7483155e-10
5.5742302e-09
-2.4767493e-10
5.6740852e-09
-3.227022e-10
5.7962528e-09
-3.9481591e-10
5.9398677e-09
-4.6414462e-10
6.1013744e-09
-5.2199253e-10
6.2700855e-09
-5.4528713e-10
6.4324681e-09
-5.2484091e-10
6.5739571e-09
-4.5728788e-10
6.6880849e-09
-3.6883796e-10
6.7765296e-09
-2.8583529e-10
6.8415603e-09
-2.1014835e-10
6.8887911e-09
-1.526211e-10
6.9225549e-09
-1.0909788e-10
6.9460598e-09
-7.5944691e-11
6.9614161e-09
-4.9613098e-11
6.9699187e-09
-2.7464682e-11
6.9725276e-09
-8.4198924e-12
6.969651e-09
9.3063869e-12
6.9612038e-09
2.7308018e-11
6.9476773e-09
4.372131e-11
6.9298595e-09
5.7589112e-11
6.9083726e-09
6.9445847e-11
6.8840497e-09
7.8610694e-11
6.8576036e-09
8.5471576e-11
6.8295658e-09
9.0615745e-11
6.8005252e-09
9.3855812e-11
6.7709996e-09
9.5422614e-11
6.7412531e-09
9.6136475e-11
6.7114568e-09
9.6297763e-11
6.68186e-09
9.5652346e-11
6.6526612e-09
9.4365978e-11
6.6238945e-09
9.2969629e-11
6.5955214e-09
9.169777e-11
6.5675327e-09
9.0455541e-11
6.5399321e-09
8.9201931e-11
6.5127555e-09
8.7831691e-11
6.4854353e-09
8.8297975e-11
6.458366e-09
8.7487163e-11
6.4287572e-09
9.5703679e-11
6.3990385e-09
9.6061759e-11
6.3663532e-09
1.0561373e-10
6.2749376e-11
2.8985784e-06
3.0871874e-10
2.8984605e-06
7.4307216e-10
2.8983109e-06
9.4240823e-10
2.8981412e-06
1.0681067e-09
2.8979463e-06
1.2271958e-09
2.8977225e-06
1.4097107e-09
2.8974663e-06
1.613541e-09
2.8971731e-06
1.8469344e-09
2.8968367e-06
2.1196227e-09
2.8964493e-06
2.4417762e-09
2.896001e-06
2.8260292e-09
2.8954791e-06
3.2909168e-09
2.894867e-06
3.8611148e-09
2.894141e-06
4.5810177e-09
2.8932703e-06
5.4958871e-09
2.8922008e-06
6.7536235e-09
2.890876e-06
8.3697168e-09
2.8891178e-06
1.111314e-08
2.8868828e-06
1.4135047e-08
2.8832969e-06
2.2696283e-08
2.8787986e-06
2.8480452e-08
2.867904e-06
6.9017038e-08
2.8633066e-06
2.8780532e-08
1.5101487e-06
8.9366287e-06
1.07118e-07
9.1255959e-06
5.2502865e-08
1.9244666e-07
3.9734412e-08
4.4576299e-08
3.3564048e-08
2.1536485e-08
2.9751692e-08
1.3304011e-08
2.7047145e-08
9.438022e-09
2.4982502e-08
7.2050397e-09
2.3326052e-08
5.7807176e-09
2.1956982e-08
4.7778288e-09
2.0799114e-08
4.0407945e-09
1.9800918e-08
3.4835994e-09
1.8927442e-08
3.0483627e-09
1.8153955e-08
2.6994201e-09
1.7462182e-08
2.4142508e-09
1.683819e-08
2.1777081e-09
1.6271242e-08
1.978628e-09
1.5752674e-08
1.8097921e-09
1.5275668e-08
1.6647448e-09
1.4834815e-08
1.5385682e-09
1.4425467e-08
1.4286204e-09
1.4043854e-08
1.3318266e-09
1.3686789e-08
1.2461567e-09
1.3351571e-08
1.1699068e-09
1.3035903e-08
1.101683e-09
1.2737813e-08
1.0403312e-09
1.2455604e-08
9.849098e-10
1.2187789e-08
9.3467305e-10
1.1933069e-08
8.8897341e-10
1.1690304e-08
8.4725072e-10
1.1458489e-08
8.0903435e-10
1.1236739e-08
7.7390474e-10
1.102427e-08
7.415177e-10
1.0820374e-08
7.115979e-10
1.0624417e-08
6.8388782e-10
1.0435834e-08
6.5815449e-10
1.0254114e-08
6.3420151e-10
1.0078799e-08
6.1184777e-10
9.9094815e-09
5.9091688e-10
9.7457953e-09
5.7126301e-10
9.5874038e-09
5.5278436e-10
9.4339992e-09
5.3537959e-10
9.2853072e-09
5.1893224e-10
9.1410848e-09
5.0333302e-10
9.0011154e-09
4.8849002e-10
8.8652064e-09
4.7431871e-10
8.7331946e-09
4.6071707e-10
8.6049467e-09
4.4758062e-10
8.4803553e-09
4.3481907e-10
8.3593384e-09
4.2234373e-10
8.2418392e-09
4.1006639e-10
8.1278268e-09
3.9789715e-10
8.0172988e-09
3.8573646e-10
7.9102934e-09
3.7344242e-10
7.8069193e-09
3.6076926e-10
7.7073547e-09
3.4747347e-10
7.6118267e-09
3.3338613e-10
7.520621e-09
3.1830124e-10
7.4340826e-09
3.0201249e-10
7.3526189e-09
2.8430255e-10
7.2767757e-09
2.6468911e-10
7.2072622e-09
2.4260074e-10
7.1449363e-09
2.1752139e-10
7.0913818e-09
1.8690876e-10
7.0468651e-09
1.553933e-10
7.0161132e-09
1.0733286e-10
7.0005747e-09
5.4232029e-11
7.0005142e-09
2.4615693e-13
7.0212933e-09
-7.2496688e-11
7.0651025e-09