/*--------------------------------*- C++ -*----------------------------------*\
| =========                 |                                                 |
| \\      /  F ield         | OpenFOAM: The Open Source CFD Toolbox           |
|  \\    /   O peration     | Version:  2206                                  |
|   \\  /    A nd           | Website:  www.openfoam.com                      |
|    \\/     M anipulation  |                                                 |
\*---------------------------------------------------------------------------*/
FoamFile
{
    version     2.0;
    format      ascii;
    arch        "LSB;label=32;scalar=64";
    class       volVectorField;
    location    "600";
    object      U;
}
// * * * * * * * * * * * * * * * * * * * * * * * * * * * * * * * * * * * * * //

dimensions      [0 1 -1 0 0 0 0];

internalField   nonuniform List<vector> 
13056
(
(1 4.0568736e-10 5.0330516e-25)
(0.99996946 1.1064899e-09 0)
(0.99992294 1.5907155e-09 0)
(0.9998709 2.0450595e-09 0)
(0.99981134 2.6650393e-09 0)
(0.99974269 3.4708818e-09 0)
(0.999664 4.5017056e-09 0)
(0.999574 5.8348887e-09 0)
(0.99947088 7.5757576e-09 0)
(0.99935232 9.8615359e-09 0)
(0.99921545 1.2877318e-08 0)
(0.99905662 1.6886211e-08 0)
(0.998871 2.2254832e-08 0)
(0.99865235 2.9567793e-08 0)
(0.99839123 3.9568375e-08 0)
(0.99807646 5.3975446e-08 0)
(0.99768352 7.3813091e-08 0)
(0.99719822 1.0736923e-07 0)
(0.996519 1.483142e-07 0)
(0.99571 2.5604635e-07 0)
(0.99414356 3.4119949e-07 0)
(0.99269284 8.6657017e-07 0)
(0.98691798 3.6939424e-07 -5.2877436e-21)
(0.98957942 0.00012316899 8.8818667e-18)
(0.0031395023 0.00012368439 0)
(0.0012322438 7.434737e-08 -1.2453122e-20)
(0.00087642038 4.8231855e-08 4.1237207e-18)
(0.00071942484 6.1173157e-09 0)
(0.00062867686 3.7457225e-09 0)
(0.00056640433 2.6329635e-09 0)
(0.00052010592 1.991624e-09 0)
(0.00048350864 1.5827883e-09 0)
(0.0004535883 1.2954467e-09 0)
(0.00042852771 1.0846184e-09 0)
(0.00040708616 9.254122e-10 0)
(0.00038843549 8.0125677e-10 0)
(0.00037200141 7.0186475e-10 0)
(0.00035736578 6.2074883e-10 0)
(0.00034421317 5.5355505e-10 0)
(0.00033229956 4.9707822e-10 0)
(0.00032143808 4.4922767e-10 0)
(0.00031146731 4.081725e-10 2.0269067e-25)
(0.00030227516 3.7251227e-10 0)
(0.00029375668 3.4145827e-10 0)
(0.00028582992 3.1414866e-10 0)
(0.00027842551 2.8999793e-10 0)
(0.00027148479 2.6851833e-10 0)
(0.00026495801 2.4931222e-10 0)
(0.00025880256 2.3205165e-10 0)
(0.00025298195 2.1646892e-10 0)
(0.00024746442 2.0234993e-10 0)
(0.00024222207 1.8951006e-10 0)
(0.00023723058 1.777908e-10 0)
(0.00023246849 1.6705888e-10 0)
(0.00022791689 1.5719694e-10 0)
(0.00022355918 1.48108e-10 0)
(0.00021938039 1.3971282e-10 0)
(0.00021536709 1.3193873e-10 0)
(0.00021150728 1.24721e-10 0)
(0.00020779019 1.1800458e-10 0)
(0.00020420611 1.1173968e-10 0)
(0.00020074636 1.0587955e-10 0)
(0.00019740323 1.0038516e-10 0)
(0.00019416972 9.5226962e-11 0)
(0.00019103931 9.0376618e-11 0)
(0.00018800617 8.5804646e-11 0)
(0.00018506511 8.1484199e-11 0)
(0.00018221154 7.7392624e-11 0)
(0.00017944136 7.3509617e-11 0)
(0.00017675094 6.9813238e-11 0)
(0.00017413736 6.6282564e-11 0)
(0.00017159819 6.2900216e-11 0)
(0.00016913153 5.9650164e-11 0)
(0.00016673601 5.6517568e-11 0)
(0.00016441073 5.3488536e-11 0)
(0.00016215533 5.0549046e-11 0)
(0.00015997008 4.7680988e-11 0)
(0.00015785627 4.4855073e-11 0)
(0.000155817 4.2045552e-11 0)
(0.00015385634 3.923886e-11 0)
(0.00015197935 3.6418845e-11 0)
(0.00015019249 3.3571967e-11 0)
(0.00014850317 3.0686196e-11 0)
(0.00014692034 2.7724241e-11 0)
(0.00014545702 2.4644978e-11 0)
(0.00014412872 2.141962e-11 0)
(0.00014295437 1.7843732e-11 0)
(0.00014197933 1.4339931e-11 0)
(0.00014116662 9.6367458e-12 -8.7055509e-25)
(0.00014074959 1.7705428e-11 0)
(0.00014054533 1.2005042e-13 0)
(0.00014075277 -5.6811185e-12 0)
(0.00014138696 -1.1643675e-11 0)
(0.00014252136 -1.8027754e-11 0)
(0.00014421875 -2.4603999e-11 0)
(0.00014653046 -3.0838082e-11 0)
(0.00014943912 -3.6239863e-11 0)
(0.00015291488 -4.0864614e-11 0)
(0.00015694345 -4.4040524e-11 0)
(0.00016135071 -4.4051369e-11 0)
(0.00016574754 -4.0528098e-11 0)
(0.00016981795 -3.37418e-11 0)
(0.00017311243 -9.7521782e-11 8.3257989e-21)
(0.00017575674 -1.9118026e-11 0)
(0.0001777097 -1.3358459e-11 0)
(0.00017913522 -9.1980546e-12 0)
(0.0001801624 -6.2244666e-12 0)
(0.00018088756 -4.0962847e-12 0)
(0.0001813813 -2.5272293e-12 0)
(0.00018168236 -1.3215606e-12 0)
(0.00018181925 -4.2438469e-13 0)
(0.00018181339 4.1563066e-13 0)
(0.00018166393 1.059807e-12 0)
(0.00018137379 1.6598897e-12 0)
(0.00018096192 2.1898618e-12 0)
(0.00018044431 2.6432623e-12 0)
(0.00017984112 2.9937121e-12 0)
(0.00017917564 3.2561632e-12 0)
(0.00017846176 3.4532135e-12 0)
(0.00017771326 3.5774256e-12 0)
(0.0001769471 3.6376045e-12 0)
(0.00017617334 3.6652124e-12 0)
(0.00017539566 3.6717476e-12 0)
(0.00017461929 3.6474211e-12 0)
(0.00017385204 3.5985136e-12 0)
(0.00017309644 3.5454257e-12 0)
(0.00017235172 3.4970782e-12 0)
(0.00017161662 3.4499608e-12 0)
(0.00017089194 3.4022761e-12 0)
(0.00017017706 3.3501736e-12 0)
(0.00016947448 3.3680711e-12 0)
(0.00016875197 3.33829e-12 0)
(0.00016806252 3.6503571e-12 0)
(0.00016720691 1.3835598e-11 0)
(0.00016651199 3.9729399e-12 4.8188432e-24)
(0.00016550139 9.1233352e-12 0)
(1 1.2255713e-09 0)
(0.99996934 3.3439638e-09 0)
(0.99992262 4.8079242e-09 0)
(0.99987036 6.1812835e-09 0)
(0.99981053 8.0551325e-09 0)
(0.99974158 1.0490679e-08 0)
(0.99966256 1.3606102e-08 0)
(0.99957218 1.7635196e-08 0)
(0.99946862 2.2896205e-08 0)
(0.99934956 2.9803732e-08 0)
(0.99921212 3.8916987e-08 0)
(0.99905263 5.1030845e-08 0)
(0.99886626 6.7252831e-08 0)
(0.99864674 8.9349005e-08 0)
(0.9983846 1.1956446e-07 0)
(0.99806862 1.6309162e-07 0)
(0.99767419 2.2302205e-07 0)
(0.9971871 3.2439214e-07 0)
(0.99650544 4.4807093e-07 0)
(0.99569364 7.734725e-07 0)
(0.99412198 1.0306729e-06 0)
(0.99266648 2.6175668e-06 0)
(0.98687309 1.1137801e-06 1.9629718e-20)
(0.98953596 0.00037018404 -7.6817251e-21)
(0.0094295113 0.00037222013 0)
(0.0037148744 1.2179239e-06 0)
(0.0026423187 2.7177194e-07 3.6016453e-22)
(0.0021690405 1.2822949e-07 0)
(0.0018954299 7.8489508e-08 0)
(0.0017076749 5.5177676e-08 0)
(0.0015680816 4.1734055e-08 0)
(0.0014577405 3.3167027e-08 0)
(0.001367531 2.7144838e-08 0)
(0.0012919736 2.2727057e-08 0)
(0.0012273279 1.9391607e-08 0)
(0.0011710969 1.6789596e-08 0)
(0.0011215491 1.4706545e-08 0)
(0.0010774235 1.3006728e-08 0)
(0.0010377693 1.1598694e-08 0)
(0.0010018506 1.0415322e-08 0)
(0.00096910403 9.4127252e-09 -1.2684285e-24)
(0.00093904304 8.5523426e-09 -2.9174004e-25)
(0.00091132944 7.8050169e-09 0)
(0.00088564695 7.154322e-09 0)
(0.00086174845 6.5820633e-09 0)
(0.00083942479 6.0759976e-09 0)
(0.00081849914 5.6259095e-09 0)
(0.00079882147 5.2234657e-09 0)
(0.00078026334 4.861793e-09 0)
(0.00076271475 4.5352806e-09 0)
(0.00074607991 4.2394394e-09 0)
(0.00073027471 3.9704024e-09 0)
(0.00071522581 3.7248472e-09 0)
(0.00070086854 3.499981e-09 0)
(0.00068714591 3.2933459e-09 0)
(0.0006740078 3.1029081e-09 0)
(0.00066140916 2.9270057e-09 0)
(0.00064930941 2.7641177e-09 0)
(0.00063767245 2.6128869e-09 0)
(0.00062646579 2.4721603e-09 0)
(0.00061566012 2.3408941e-09 0)
(0.00060522927 2.2181094e-09 0)
(0.00059515004 2.1029876e-09 0)
(0.00058540131 1.9949084e-09 0)
(0.00057596342 1.8932791e-09 0)
(0.00056681876 1.7974814e-09 0)
(0.00055795171 1.7069528e-09 0)
(0.00054934847 1.6212182e-09 0)
(0.00054099661 1.5398519e-09 0)
(0.00053288524 1.4623948e-09 0)
(0.00052500549 1.3884087e-09 0)
(0.00051735012 1.3175277e-09 0)
(0.00050991336 1.249415e-09 0)
(0.00050269105 1.1837596e-09 0)
(0.00049568051 1.1202699e-09 0)
(0.00048888069 1.0586522e-09 0)
(0.00048229234 9.985259e-10 0)
(0.00047591938 9.3927749e-10 0)
(0.00046977113 8.8036654e-10 0)
(0.00046385993 8.2150354e-10 0)
(0.00045820098 7.6235122e-10 0)
(0.00045281376 7.0262589e-10 0)
(0.00044772063 6.4207295e-10 0)
(0.00044294861 5.7990622e-10 0)
(0.00043853692 5.1527453e-10 0)
(0.00043453234 4.47589e-10 0)
(0.00043099198 3.7230295e-10 0)
(0.00042805253 2.9952865e-10 0)
(0.00042560289 1.999178e-10 1.296642e-24)
(0.00042434562 9.8957997e-11 7.4107988e-25)
(0.00042373047 5.5701051e-13 0)
(0.00042435639 -1.2121589e-10 0)
(0.00042626903 -2.4628868e-10 0)
(0.00042968974 -3.80024e-10 0)
(0.00043480778 -5.1764487e-10 0)
(0.0004417778 -6.4781672e-10 0)
(0.00045054748 -7.6045935e-10 0)
(0.00046102672 -8.5687117e-10 0)
(0.00047317215 -9.2262368e-10 0)
(0.00048645872 -9.2157846e-10 0)
(0.00049971362 -8.471007e-10 0)
(0.00051198416 -7.038169e-10 0)
(0.00052191615 -5.4848379e-10 -3.463011e-25)
(0.00052988779 -3.9842952e-10 0)
(0.00053577559 -2.7810888e-10 0)
(0.00054007335 -1.9147451e-10 0)
(0.00054317026 -1.2953149e-10 0)
(0.00054535668 -8.5181515e-11 0)
(0.00054684536 -5.2468224e-11 0)
(0.00054775314 -2.7322302e-11 0)
(0.00054816596 -7.8164895e-12 0)
(0.00054814837 8.1524661e-12 0)
(0.00054769783 2.2401785e-11 0)
(0.00054682312 3.4943126e-11 0)
(0.00054558143 4.6019219e-11 0)
(0.0005440209 5.5489887e-11 0)
(0.00054220239 6.2809155e-11 0)
(0.00054019604 6.8288692e-11 0)
(0.00053804379 7.2398012e-11 0)
(0.00053578717 7.4985258e-11 0)
(0.00053347731 7.6235365e-11 0)
(0.00053114451 7.680533e-11 0)
(0.00052879993 7.6934474e-11 0)
(0.00052645927 7.6418228e-11 0)
(0.0005241461 7.5389591e-11 0)
(0.00052186806 7.4274174e-11 0)
(0.00051962283 7.3258744e-11 0)
(0.00051740663 7.2267058e-11 0)
(0.00051522181 7.1265964e-11 0)
(0.00051306656 7.017176e-11 0)
(0.0005109484 7.0547875e-11 0)
(0.00050877023 6.9902548e-11 0)
(0.00050669163 7.6478037e-11 0)
(0.00050411251 7.7915478e-11 0)
(0.00050201739 8.4226091e-11 -7.4538643e-24)
(0.00049897053 5.1096565e-11 1.1504392e-24)
(1 2.0671514e-09 0)
(0.99996921 5.6407948e-09 0)
(0.99992227 8.1111837e-09 0)
(0.99986975 1.0428278e-08 0)
(0.99980964 1.3589492e-08 0)
(0.99974036 1.7698203e-08 0)
(0.99966095 2.2953701e-08 0)
(0.99957014 2.9750275e-08 0)
(0.99946609 3.8624659e-08 0)
(0.99934648 5.0276065e-08 0)
(0.9992084 6.5647536e-08 0)
(0.99904819 8.6079488e-08 0)
(0.99886099 1.1343948e-07 0)
(0.9986405 1.5070548e-07 0)
(0.99837721 2.0166279e-07 0)
(0.99805988 2.7506676e-07 0)
(0.99766381 3.7612732e-07 0)
(0.99717472 5.4706031e-07 0)
(0.99649036 7.5559197e-07 0)
(0.99567544 1.3042185e-06 0)
(0.994098 1.7378565e-06 0)
(0.99263721 4.4133823e-06 0)
(0.98682333 1.8808635e-06 -1.0399902e-20)
(0.98948776 0.00062095552 6.8291405e-55)
(0.015822887 0.00062554762 -6.8274475e-55)
(0.0062526289 3.4152708e-06 0)
(0.0044475869 7.7632836e-07 -1.9291847e-22)
(0.0036510243 3.7226955e-07 0)
(0.0031904594 2.2787878e-07 0)
(0.0028744144 1.6019925e-07 0)
(0.0026394377 1.2116659e-07 0)
(0.0024537046 9.6292807e-08 0)
(0.0023018588 7.8808812e-08 0)
(0.0021746764 6.59826e-08 0)
(0.0020658618 5.6298573e-08 0)
(0.0019712116 4.874416e-08 0)
(0.0018878109 4.2696505e-08 0)
(0.0018135374 3.7761491e-08 0)
(0.0017467902 3.3673609e-08 0)
(0.001686331 3.0237998e-08 0)
(0.001631211 2.7327194e-08 0)
(0.0015806117 2.48293e-08 0)
(0.0015339635 2.2659669e-08 0)
(0.0014907342 2.0770545e-08 0)
(0.0014505077 1.9109152e-08 0)
(0.0014129321 1.7639932e-08 0)
(0.0013777096 1.6333229e-08 0)
(0.0013445878 1.5164848e-08 0)
(0.0013133504 1.4114834e-08 0)
(0.0012838123 1.31669e-08 0)
(0.0012558122 1.2308011e-08 0)
(0.0012292086 1.152694e-08 0)
(0.001203878 1.0814041e-08 0)
(0.0011797116 1.0161207e-08 0)
(0.0011566134 9.5613029e-09 0)
(0.0011344991 9.008423e-09 0)
(0.0011132929 8.4977421e-09 0)
(0.0010929264 8.0248444e-09 0)
(0.0010733388 7.5857907e-09 0)
(0.0010544756 7.1772324e-09 0)
(0.0010362873 6.7961398e-09 0)
(0.0010187298 6.4396712e-09 0)
(0.0010017643 6.10545e-09 0)
(0.00098535505 5.7916749e-09 0)
(0.000969469 5.4966252e-09 0)
(0.00095407652 5.2185058e-09 0)
(0.00093915133 4.9556837e-09 0)
(0.00092467018 4.70678e-09 0)
(0.00091061213 4.470558e-09 0)
(0.00089695891 4.2456856e-09 0)
(0.00088369554 4.0308905e-09 0)
(0.00087080983 3.8251101e-09 0)
(0.00085829211 3.6273669e-09 0)
(0.00084613535 3.436758e-09 0)
(0.00083433503 3.2524366e-09 0)
(0.0008228894 3.0735496e-09 0)
(0.00081179973 2.8989924e-09 0)
(0.00080107261 2.7269842e-09 0)
(0.00079072374 2.5559566e-09 0)
(0.00078077387 2.3850681e-09 0)
(0.00077124858 2.2133405e-09 0)
(0.00076218072 2.0399497e-09 0)
(0.00075360786 1.8641542e-09 0)
(0.00074557556 1.6836727e-09 0)
(0.00073814979 1.4960331e-09 0)
(0.00073140936 1.2995201e-09 0)
(0.00072545039 1.0809725e-09 0)
(0.00072050288 8.695939e-10 0)
(0.0007163804 5.8050767e-10 0)
(0.00071426403 2.8291378e-10 1.5706754e-24)
(0.00071322951 1.6911793e-12 0)
(0.00071428363 -3.5182218e-10 0)
(0.00071750376 -7.1491969e-10 0)
(0.0007232623 -1.1031751e-09 0)
(0.00073187773 -1.5027119e-09 0)
(0.00074361029 -1.8806414e-09 0)
(0.00075837194 -2.2076999e-09 0)
(0.00077601093 -2.4875955e-09 0)
(0.00079645386 -2.6784685e-09 0)
(0.00081881685 -2.6754996e-09 0)
(0.00084112632 -2.4593252e-09 0)
(0.00086177854 -2.0434963e-09 0)
(0.00087849574 -1.5672642e-09 0)
(0.00089191294 -1.1568895e-09 0)
(0.00090182328 -8.0758352e-10 0)
(0.00090905741 -5.5602673e-10 0)
(0.00091427036 -3.7616553e-10 0)
(0.00091795082 -2.4738419e-10 0)
(0.00092045681 -1.5239086e-10 0)
(0.00092198499 -7.9374305e-11 0)
(0.00092268003 -2.2830667e-11 0)
(0.00092265056 2.3733704e-11 0)
(0.00092189233 6.5010085e-11 0)
(0.0009204201 1.0142561e-10 0)
(0.00091833013 1.3358548e-10 0)
(0.00091570348 1.6108354e-10 0)
(0.00091264261 1.8233618e-10 0)
(0.00090926554 1.9824687e-10 0)
(0.00090564288 2.1017836e-10 0)
(0.00090184455 2.1769157e-10 0)
(0.0008979566 2.2132282e-10 0)
(0.00089403002 2.2297831e-10 0)
(0.00089008363 2.2335347e-10 0)
(0.00088614383 2.218556e-10 0)
(0.00088225032 2.1887033e-10 0)
(0.0008784159 2.1563209e-10 0)
(0.00087463674 2.1268387e-10 0)
(0.00087090644 2.0980448e-10 0)
(0.00086722896 2.0689813e-10 0)
(0.00086360128 2.0372101e-10 0)
(0.00086003602 2.048115e-10 0)
(0.00085636985 2.0293415e-10 0)
(0.00085287117 2.2202395e-10 0)
(0.00084853058 2.2255475e-10 0)
(0.00084500405 2.4472548e-10 0)
(0.00083987552 1.4567245e-10 0)
(1 2.9436517e-09 1.0786284e-24)
(0.99996906 8.0338433e-09 0)
(0.99992188 1.1553707e-08 0)
(0.99986907 1.4854499e-08 0)
(0.99980863 1.9357301e-08 0)
(0.99973898 2.5209556e-08 0)
(0.99965915 3.2694997e-08 0)
(0.99956786 4.2375054e-08 0)
(0.99946327 5.5013997e-08 0)
(0.99934303 7.1607413e-08 0)
(0.99920425 9.3497994e-08 0)
(0.99904322 1.2259414e-07 0)
(0.99885509 1.615546e-07 0)
(0.99863351 2.1461895e-07 0)
(0.99836895 2.8717535e-07 0)
(0.99805011 3.9168797e-07 0)
(0.99765219 5.355687e-07 0)
(0.99716089 7.7891604e-07 0)
(0.9964735 1.0757599e-06 0)
(0.99565511 1.8566897e-06 0)
(0.99407123 2.4739366e-06 0)
(0.99260453 6.2823314e-06 0)
(0.98676786 2.6813885e-06 0)
(0.98943401 0.00087916726 -3.5628356e-55)
(0.022411826 0.00088753089 3.5619672e-55)
(0.008883297 7.0444441e-06 0)
(0.0063191228 1.6005176e-06 0)
(0.0051874623 7.667915e-07 0)
(0.0045330646 4.6940085e-07 0)
(0.0040840096 3.2999161e-07 0)
(0.0037501392 2.4958728e-07 0)
(0.0034862424 1.9834876e-07 0)
(0.0032704947 1.6233412e-07 0)
(0.0030897898 1.359138e-07 0)
(0.0029351831 1.1596581e-07 0)
(0.0028007022 1.0040468e-07 0)
(0.0026822052 8.794738e-08 0)
(0.0025766764 7.7782005e-08 0)
(0.0024818412 6.9361607e-08 0)
(0.0023959401 6.228483e-08 0)
(0.0023176251 5.628902e-08 0)
(0.0022457335 5.1143771e-08 0)
(0.0021794554 4.6674743e-08 0)
(0.002118035 4.2783466e-08 0)
(0.0020608811 3.9361294e-08 0)
(0.0020074934 3.6334964e-08 0)
(0.0019574492 3.3643391e-08 0)
(0.0019103896 3.1236738e-08 0)
(0.0018660074 2.9073903e-08 0)
(0.0018240396 2.7121334e-08 0)
(0.001784257 2.5352182e-08 0)
(0.0017464586 2.374332e-08 0)
(0.0017104688 2.2274883e-08 0)
(0.0016761331 2.0930167e-08 0)
(0.0016433152 1.9694477e-08 0)
(0.0016118951 1.8555649e-08 0)
(0.0015817652 1.7503743e-08 0)
(0.0015528284 1.6529663e-08 0)
(0.0015249984 1.5625296e-08 0)
(0.0014981974 1.4783744e-08 0)
(0.0014723554 1.3998766e-08 0)
(0.0014474098 1.3264509e-08 0)
(0.0014233051 1.2576078e-08 0)
(0.0013999908 1.1929762e-08 0)
(0.0013774198 1.1322017e-08 0)
(0.0013555501 1.0749145e-08 0)
(0.0013343443 1.0207782e-08 0)
(0.0013137694 9.695089e-09 0)
(0.0012937957 9.2085171e-09 0)
(0.0012743971 8.7453232e-09 0)
(0.0012555524 8.302887e-09 0)
(0.0012372443 7.8790191e-09 0)
(0.001219459 7.4717062e-09 0)
(0.0012021866 7.0790883e-09 0)
(0.0011854206 6.6994207e-09 0)
(0.0011691585 6.330946e-09 0)
(0.0011534022 5.9713889e-09 0)
(0.001138161 5.6170821e-09 0)
(0.0011234572 5.2647952e-09 0)
(0.0011093204 4.9127935e-09 0)
(0.0010957868 4.5590626e-09 0)
(0.0010829031 4.2019046e-09 0)
(0.0010707227 3.8397895e-09 0)
(0.0010593104 3.4680183e-09 0)
(0.0010487599 3.0814988e-09 0)
(0.0010391832 2.6766932e-09 0)
(0.001030717 2.2265087e-09 0)
(0.0010236878 1.7910495e-09 0)
(0.0010178317 1.1955998e-09 -7.4803698e-25)
(0.0010148243 5.8318488e-10 -8.5507858e-25)
(0.0010133557 3.271903e-12 0)
(0.001014854 -7.2488624e-10 0)
(0.0010194301 -1.472812e-09 0)
(0.0010276127 -2.2725304e-09 0)
(0.0010398543 -3.0954658e-09 0)
(0.0010565244 -3.8738816e-09 0)
(0.0010774982 -4.547518e-09 0)
(0.0011025599 -5.1239571e-09 0)
(0.0011316045 -5.5169706e-09 0)
(0.0011633762 -5.5107538e-09 0)
(0.0011950717 -5.0654375e-09 0)
(0.0012244121 -4.2089795e-09 0)
(0.0012481637 -3.231368e-09 3.994512e-25)
(0.001267226 -2.3828821e-09 0)
(0.0012813067 -1.6634465e-09 0)
(0.0012915853 -1.145313e-09 0)
(0.0012989922 -7.748474e-10 0)
(0.0013042219 -5.0958492e-10 0)
(0.0013077828 -3.1391402e-10 0)
(0.0013099544 -1.6351271e-10 0)
(0.0013109422 -4.7028271e-11 0)
(0.0013109006 4.8865031e-11 0)
(0.0013098235 1.3390065e-10 0)
(0.0013077319 2.0891215e-10 0)
(0.0013047626 2.751563e-10 0)
(0.0013010308 3.3179683e-10 0)
(0.001296682 3.755746e-10 0)
(0.001291884 4.0834751e-10 0)
(0.001286737 4.3292327e-10 0)
(0.0012813404 4.4839935e-10 0)
(0.0012758165 4.5587995e-10 0)
(0.0012702376 4.5928978e-10 0)
(0.0012646307 4.6006181e-10 0)
(0.0012590331 4.5697674e-10 0)
(0.0012535012 4.5082838e-10 0)
(0.0012480533 4.4415796e-10 0)
(0.0012426839 4.3808444e-10 0)
(0.001237384 4.3215254e-10 0)
(0.0012321591 4.2616554e-10 0)
(0.001227005 4.1962068e-10 0)
(0.0012219395 4.2186361e-10 0)
(0.0012167309 4.179929e-10 0)
(0.00121176 4.5730603e-10 0)
(0.0012055938 4.5881809e-10 0)
(0.0012005833 5.0429274e-10 0)
(0.0011932966 3.0002811e-10 0)
(1 3.8688465e-09 0)
(0.9999689 1.0560838e-08 0)
(0.99992143 1.5189951e-08 0)
(0.99986831 1.9530002e-08 0)
(0.99980751 2.5449829e-08 0)
(0.99973744 3.3143557e-08 0)
(0.99965713 4.298402e-08 0)
(0.9995653 5.5709044e-08 0)
(0.99946009 7.2323057e-08 0)
(0.99933916 9.4134427e-08 0)
(0.99919957 1.2290756e-07 0)
(0.99903764 1.6115016e-07 0)
(0.99884845 2.1235568e-07 0)
(0.99862565 2.8209465e-07 0)
(0.99835966 3.7744571e-07 0)
(0.99803913 5.1478547e-07 0)
(0.99763915 7.0384521e-07 0)
(0.99714535 1.023588e-06 0)
(0.99645458 1.4135777e-06 0)
(0.99563229 2.4394989e-06 0)
(0.99404121 3.250375e-06 0)
(0.99256789 8.2534876e-06 0)
(0.98670576 3.5281912e-06 0)
(0.98937381 0.0011484743 0)
(0.02928961 0.0011619048 0)
(0.011646043 1.2258376e-05 0)
(0.0082848111 2.776992e-06 0)
(0.0068012539 1.3298604e-06 0)
(0.0059432549 8.141313e-07 0)
(0.0053544872 5.7234138e-07 0)
(0.004916738 4.3288492e-07 0)
(0.0045707406 3.4401362e-07 0)
(0.0042878731 2.8154987e-07 0)
(0.0040509502 2.3572641e-07 0)
(0.003848246 2.011283e-07 0)
(0.0036719293 1.74139e-07 0)
(0.0035165694 1.5253315e-07 0)
(0.0033782122 1.3490247e-07 0)
(0.0032538755 1.2029829e-07 0)
(0.0031412522 1.0802453e-07 0)
(0.0030385748 9.7625485e-08 0)
(0.0029443195 8.8701688e-08 0)
(0.0028574237 8.0950817e-08 0)
(0.0027768968 7.420189e-08 0)
(0.0027019637 6.8266596e-08 0)
(0.0026319685 6.301784e-08 0)
(0.0025663567 5.8349676e-08 0)
(0.0025046581 5.4175668e-08 0)
(0.0024464697 5.0424533e-08 0)
(0.0023914468 4.7038077e-08 0)
(0.0023392888 4.3969732e-08 0)
(0.0022897322 4.1179389e-08 0)
(0.002242547 3.8632593e-08 0)
(0.0021975303 3.6300375e-08 0)
(0.0021545036 3.4157247e-08 0)
(0.0021133096 3.2182115e-08 0)
(0.002073807 3.0357736e-08 0)
(0.0020358687 2.8668335e-08 0)
(0.0019993814 2.7099841e-08 0)
(0.0019642433 2.5640291e-08 0)
(0.0019303626 2.427886e-08 0)
(0.001897657 2.3005399e-08 0)
(0.0018660539 2.1811418e-08 0)
(0.001835487 2.0690479e-08 0)
(0.0018058948 1.9636434e-08 0)
(0.0017772219 1.8642872e-08 0)
(0.0017494195 1.7703959e-08 0)
(0.0017224442 1.6814768e-08 0)
(0.0016962571 1.597088e-08 0)
(0.001670824 1.5167539e-08 0)
(0.0016461171 1.4400199e-08 0)
(0.0016221137 1.3665063e-08 0)
(0.0015987958 1.2958639e-08 0)
(0.0015761502 1.2277701e-08 0)
(0.0015541686 1.1619222e-08 0)
(0.0015328477 1.0980154e-08 0)
(0.0015121899 1.0356552e-08 0)
(0.0014922074 9.7420543e-09 0)
(0.0014729296 9.1310605e-09 0)
(0.001454395 8.5205593e-09 0)
(0.0014366513 7.9070583e-09 0)
(0.0014197597 7.2876117e-09 0)
(0.0014037902 6.6595611e-09 0)
(0.0013888278 6.0147576e-09 0)
(0.0013749953 5.3443684e-09 0)
(0.0013624396 4.64225e-09 0)
(0.0013513401 3.8614518e-09 0)
(0.0013421244 3.1060824e-09 0)
(0.0013344482 2.0734282e-09 0)
(0.0013305045 1.0117996e-09 0)
(0.0013285805 5.3678222e-12 0)
(0.0013305456 -1.2574761e-09 0)
(0.0013365461 -2.5546676e-09 0)
(0.0013472751 -3.9416406e-09 0)
(0.0013633256 -5.3688496e-09 0)
(0.0013851819 -6.7188356e-09 0)
(0.0014126805 -7.8871035e-09 0)
(0.0014455382 -8.8867125e-09 0)
(0.0014836169 -9.5681165e-09 0)
(0.0015252697 -9.5572038e-09 0)
(0.0015668227 -8.7848158e-09 0)
(0.0016052872 -7.2995645e-09 0)
(0.0016364275 -5.6070654e-09 0)
(0.0016614187 -4.1326692e-09 0)
(0.00167988 -2.8850205e-09 0)
(0.0016933565 -1.9864218e-09 0)
(0.0017030683 -1.3439164e-09 0)
(0.0017099255 -8.838548e-10 0)
(0.0017145947 -5.4448298e-10 0)
(0.0017174424 -2.8362812e-10 0)
(0.001718738 -8.1588869e-11 0)
(0.0017186839 8.4719488e-11 0)
(0.0017172721 2.3221245e-10 0)
(0.0017145302 3.6231398e-10 0)
(0.0017106374 4.7720729e-10 0)
(0.001705745 5.7544265e-10 0)
(0.0017000436 6.5137091e-10 0)
(0.0016937531 7.0821202e-10 0)
(0.0016870051 7.508344e-10 0)
(0.0016799299 7.7767629e-10 0)
(0.0016726877 7.9065211e-10 0)
(0.0016653736 7.9656598e-10 0)
(0.0016580225 7.9790403e-10 0)
(0.0016506837 7.9255402e-10 0)
(0.0016434311 7.8189185e-10 0)
(0.0016362886 7.7032266e-10 0)
(0.001629249 7.5978782e-10 0)
(0.0016223005 7.4949844e-10 0)
(0.0016154504 7.3911399e-10 0)
(0.0016086931 7.2776215e-10 0)
(0.001602052 7.3164573e-10 0)
(0.0015952234 7.2492935e-10 0)
(0.0015887063 7.9309e-10 0)
(0.0015806232 7.960795e-10 0)
(0.001574054 8.7482803e-10 -9.6022391e-24)
(0.0015645007 5.202917e-10 1.4820504e-24)
(1 4.8576253e-09 0)
(0.99996872 1.3262657e-08 0)
(0.99992094 1.907901e-08 0)
(0.99986745 2.4530828e-08 0)
(0.99980623 3.1966131e-08 0)
(0.99973569 4.1629141e-08 0)
(0.99965485 5.3987873e-08 0)
(0.9995624 6.9968637e-08 0)
(0.9994565 9.0832495e-08 0)
(0.99933478 1.1822201e-07 0)
(0.9991943 1.5435213e-07 0)
(0.99903134 2.0237073e-07 0)
(0.99884096 2.666628e-07 0)
(0.99861679 3.5422038e-07 0)
(0.99834919 4.7392703e-07 0)
(0.99802675 6.463377e-07 0)
(0.99762444 8.8365661e-07 0)
(0.99712784 1.2849934e-06 0)
(0.99643325 1.7744421e-06 0)
(0.99560658 3.0619259e-06 0)
(0.9940074 4.0795192e-06 0)
(0.99252665 1.0358126e-05 0)
(0.98663597 4.4354124e-06 0)
(0.98930613 0.0014325818 0)
(0.036551707 0.0014526561 0)
(0.014581983 1.9215887e-05 0)
(0.010373939 4.3722435e-06 0)
(0.0085164538 2.0938866e-06 0)
(0.007442049 1.2819335e-06 0)
(0.0067047821 9.0121314e-07 0)
(0.0061566198 6.8162077e-07 0)
(0.0057233608 5.41679e-07 0)
(0.0053691547 4.4332379e-07 0)
(0.0050724805 3.7117019e-07 0)
(0.0048186563 3.1669155e-07 0)
(0.0045978752 2.7419416e-07 0)
(0.0044033365 2.401738e-07 0)
(0.0042300887 2.1241283e-07 0)
(0.0040743971 1.8941738e-07 0)
(0.0039333731 1.7009149e-07 0)
(0.003804803 1.5371731e-07 0)
(0.0036867795 1.3966613e-07 8.6848072e-25)
(0.0035779709 1.2746197e-07 0)
(0.0034771375 1.168353e-07 -8.9845068e-35)
(0.0033833084 1.0748979e-07 0)
(0.0032956625 9.9225294e-08 0)
(0.0032135055 9.1874976e-08 0)
(0.0031362484 8.5302742e-08 0)
(0.0030633867 7.9396351e-08 0)
(0.0029944887 7.4064177e-08 0)
(0.0029291782 6.9232885e-08 0)
(0.0028671249 6.4839326e-08 0)
(0.0028080411 6.0829246e-08 0)
(0.0027516726 5.7157032e-08 0)
(0.0026977959 5.3782556e-08 0)
(0.002646214 5.0672599e-08 0)
(0.0025967501 4.7800011e-08 0)
(0.002549245 4.5139955e-08 0)
(0.0025035567 4.2670273e-08 0)
(0.0024595579 4.0372129e-08 0)
(0.0024171334 3.8228481e-08 0)
(0.0023761805 3.6223348e-08 0)
(0.002336608 3.4343361e-08 0)
(0.0022983331 3.2578383e-08 0)
(0.0022612785 3.0918735e-08 0)
(0.0022253752 2.9354319e-08 0)
(0.0021905618 2.787595e-08 0)
(0.0021567841 2.6475871e-08 0)
(0.0021239933 2.5147126e-08 0)
(0.0020921466 2.3882223e-08 0)
(0.0020612093 2.2674006e-08 0)
(0.0020311529 2.1516496e-08 0)
(0.0020019547 2.0404194e-08 0)
(0.0019735985 1.9332021e-08 0)
(0.0019460737 1.829521e-08 0)
(0.0019193761 1.7288961e-08 0)
(0.0018935088 1.6307059e-08 0)
(0.0018684872 1.5339495e-08 0)
(0.0018443479 1.4377447e-08 0)
(0.0018211392 1.3416173e-08 0)
(0.0017989209 1.2450174e-08 0)
(0.0017777696 1.1474811e-08 0)
(0.0017577729 1.048589e-08 0)
(0.0017390373 9.4705819e-09 0)
(0.0017217166 8.4149765e-09 0)
(0.0017059949 7.3093877e-09 0)
(0.0016920967 6.0799629e-09 0)
(0.0016805571 4.8903475e-09 0)
(0.0016709474 3.2645403e-09 0)
(0.0016660077 1.5930455e-09 0)
(0.0016636005 8.020917e-12 0)
(0.0016660618 -1.9803013e-09 0)
(0.0016735765 -4.0228404e-09 0)
(0.001687012 -6.2066709e-09 0)
(0.0017071107 -8.4538114e-09 0)
(0.001734479 -1.0579356e-08 0)
(0.0017689122 -1.2418787e-08 0)
(0.0018100556 -1.3992517e-08 0)
(0.001857735 -1.5065102e-08 0)
(0.0019098886 -1.5047761e-08 0)
(0.0019619172 -1.3831531e-08 0)
(0.0020100777 -1.149321e-08 -1.3133962e-24)
(0.0020490715 -8.8289215e-09 0)
(0.0020803637 -6.5070468e-09 0)
(0.0021034813 -4.5427189e-09 0)
(0.0021203573 -3.1278514e-09 0)
(0.0021325192 -2.1161985e-09 0)
(0.0021411067 -1.3917925e-09 0)
(0.0021469543 -8.5741165e-10 0)
(0.002150521 -4.4666703e-10 0)
(0.002152144 -1.2852858e-10 0)
(0.0021520768 1.3334623e-10 0)
(0.0021503096 3.6559275e-10 0)
(0.0021468767 5.7045415e-10 0)
(0.0021420026 7.5136523e-10 0)
(0.0021358767 9.060445e-10 0)
(0.0021287379 1.0256016e-09 0)
(0.0021208614 1.1151043e-09 0)
(0.002112412 1.1822153e-09 0)
(0.0021035529 1.2244814e-09 0)
(0.0020944846 1.2449159e-09 0)
(0.0020853261 1.254228e-09 0)
(0.0020761215 1.2563337e-09 0)
(0.0020669322 1.247911e-09 0)
(0.0020578508 1.231125e-09 0)
(0.0020489073 1.2129083e-09 0)
(0.0020400926 1.1963187e-09 0)
(0.002031392 1.1801155e-09 0)
(0.0020228147 1.1637632e-09 0)
(0.0020143536 1.1458881e-09 0)
(0.002006038 1.1519917e-09 0)
(0.0019974878 1.1414141e-09 0)
(0.0019893274 1.2486928e-09 0)
(0.0019792076 1.2534173e-09 0)
(0.001970982 1.3776684e-09 0)
(0.0019590196 8.1894097e-10 -8.4585225e-25)
(1 5.9262112e-09 0)
(0.99996851 1.6183961e-08 0)
(0.99992037 2.3285543e-08 0)
(0.99986648 2.99402e-08 0)
(0.9998048 3.9014608e-08 0)
(0.99973372 5.0807387e-08 0)
(0.99965227 6.5889363e-08 0)
(0.99955913 8.5390502e-08 0)
(0.99945244 1.1084917e-07 0)
(0.99932983 1.4426902e-07 0)
(0.99918834 1.8835168e-07 0)
(0.99902421 2.4693653e-07 0)
(0.99883249 3.2537136e-07 0)
(0.99860677 4.3218337e-07 0)
(0.99833734 5.7820455e-07 0)
(0.99801275 7.8850185e-07 0)
(0.9976078 1.0779448e-06 0)
(0.99710804 1.5673981e-06 0)
(0.99640915 2.1642256e-06 0)
(0.99557754 3.7340579e-06 0)
(0.99396923 4.97479e-06 0)
(0.99248009 1.2630195e-05 0)
(0.98655728 5.4185623e-06 0)
(0.98922985 0.0017352975 0)
(0.044296817 0.0017639272 0)
(0.017734798 2.8380657e-05 0)
(0.012617632 6.4822585e-06 0)
(0.010358631 3.1046934e-06 0)
(0.0090517873 1.9008911e-06 0)
(0.0081550199 1.3363507e-06 0)
(0.0074882628 1.0107269e-06 0)
(0.0069612803 8.032093e-07 0)
(0.0065304534 6.5736577e-07 0)
(0.0061696035 5.5037443e-07 0)
(0.0058608747 4.6959121e-07 0)
(0.005592338 4.0657483e-07 0)
(0.0053557206 3.5612884e-07 0)
(0.0051449998 3.1496457e-07 0)
(0.0049556329 2.8086672e-07 0)
(0.0047841063 2.5221034e-07 0)
(0.0046277273 2.2793048e-07 0)
(0.0044841768 2.0709534e-07 0)
(0.0043518338 1.8899926e-07 0)
(0.0042291912 1.73242e-07 9.6916172e-35)
(0.004115068 1.5938456e-07 0)
(0.0040084653 1.4713003e-07 0)
(0.0039085387 1.3623104e-07 0)
(0.0038145718 1.2648579e-07 0)
(0.0037259511 1.1772786e-07 0)
(0.0036421513 1.0982138e-07 0)
(0.0035627149 1.026576e-07 0)
(0.0034872404 9.6142881e-08 0)
(0.0034153774 9.0196786e-08 0)
(0.0033468172 8.4751676e-08 0)
(0.0032812876 7.9748051e-08 0)
(0.0032185492 7.5136654e-08 0)
(0.0031583869 7.0877223e-08 0)
(0.003100607 6.6932931e-08 0)
(0.0030450369 6.3270925e-08 0)
(0.0029915217 5.9863274e-08 0)
(0.0029399213 5.6684706e-08 0)
(0.0028901107 5.371153e-08 0)
(0.0028419791 5.0923919e-08 0)
(0.0027954258 4.8306843e-08 0)
(0.0027503567 4.5845947e-08 0)
(0.0027066878 4.352626e-08 0)
(0.0026643446 4.1334161e-08 0)
(0.002623261 3.9258151e-08 0)
(0.0025833778 3.7287912e-08 0)
(0.002544643 3.5412337e-08 0)
(0.0025070141 3.3620817e-08 0)
(0.0024704567 3.1904485e-08 0)
(0.0024349431 3.0255186e-08 0)
(0.0024004535 2.8665387e-08 0)
(0.0023669752 2.7128021e-08 0)
(0.002334503 2.5635969e-08 0)
(0.0023030407 2.4180016e-08 0)
(0.0022726069 2.2745322e-08 0)
(0.0022432462 2.1318808e-08 0)
(0.0022150175 1.9893438e-08 0)
(0.0021879933 1.8461061e-08 0)
(0.0021622669 1.7014794e-08 0)
(0.0021379449 1.5548409e-08 0)
(0.0021151568 1.4042884e-08 0)
(0.0020940898 1.247759e-08 0)
(0.0020749677 1.0838142e-08 0)
(0.0020580637 9.0151619e-09 0)
(0.0020440282 7.2508037e-09 0)
(0.0020323427 4.8403913e-09 0)
(0.0020263324 2.3619596e-09 0)
(0.0020234069 1.1282383e-11 0)
(0.0020264011 -2.936794e-09 0)
(0.0020355423 -5.9655026e-09 0)
(0.0020518848 -9.2035968e-09 0)
(0.0020763315 -1.2535503e-08 0)
(0.0021096195 -1.5687115e-08 0)
(0.0021515005 -1.84145e-08 0)
(0.0022015426 -2.074769e-08 0)
(0.0022595324 -2.2337629e-08 0)
(0.0023229625 -2.2311717e-08 0)
(0.002386241 -2.0508233e-08 0)
(0.0024448136 -1.7041505e-08 0)
(0.0024922431 -1.3091158e-08 0)
(0.0025303026 -9.6485121e-09 0)
(0.0025584218 -6.7360855e-09 0)
(0.0025789495 -4.638164e-09 0)
(0.0025937436 -3.1380993e-09 0)
(0.0026041901 -2.0639318e-09 0)
(0.0026113038 -1.2715213e-09 0)
(0.0026156431 -6.6244873e-10 0)
(0.0026176182 -1.9069102e-10 0)
(0.0026175374 1.9763848e-10 0)
(0.0026153886 5.420269e-10 0)
(0.0026112138 8.4580792e-10 0)
(0.0026052861 1.1140692e-09 0)