/*--------------------------------*- C++ -*----------------------------------*\
| =========                 |                                                 |
| \\      /  F ield         | OpenFOAM: The Open Source CFD Toolbox           |
|  \\    /   O peration     | Version:  2206                                  |
|   \\  /    A nd           | Website:  www.openfoam.com                      |
|    \\/     M anipulation  |                                                 |
\*---------------------------------------------------------------------------*/
FoamFile
{
    version     2.0;
    format      ascii;
    arch        "LSB;label=32;scalar=64";
    class       volScalarField;
    location    "1600";
    object      epsilon;
}
// * * * * * * * * * * * * * * * * * * * * * * * * * * * * * * * * * * * * * //

dimensions      [0 2 -3 0 0 0 0];

internalField   nonuniform List<scalar> 
7480
(
5.7744238
15.518933
18.081441
15.978996
12.858242
10.360158
8.6743036
7.522077
6.6756472
6.0112313
5.4722029
5.0304677
4.667044
4.3668997
4.1178345
3.9095597
3.734427
3.5866169
3.4609781
3.353686
3.2604216
3.1784034
3.1053235
3.0393392
2.979218
2.9239621
2.8728729
2.8252786
2.7805889
2.7383141
2.6981691
2.6599612
2.6234863
2.5885752
2.5550432
2.5227851
2.4915764
2.4613561
2.432038
2.4035264
2.375753
2.3486557
2.3221858
2.2963101
2.2709903
2.2461985
2.2218982
2.1980519
2.1746376
2.1516316
2.1290154
2.1067758
2.0848972
2.0633704
2.0421804
2.0213162
2.0007684
1.9805236
1.9605687
1.9408942
1.9214976
1.9023743
1.8835171
1.86492
1.846578
1.8284861
1.8106367
1.7930238
1.7756434
1.7584917
1.7415641
1.7248562
1.708364
1.6920849
1.6760143
1.660148
1.6444819
1.6290122
1.6137353
1.5986473
1.5837445
1.5690229
1.5544788
1.5401075
1.525905
1.5118658
1.497985
1.4842551
1.4706708
1.4572172
1.4438949
1.4306592
1.4175512
1.4043987
1.391447
1.3780167
1.3650743
1.3502999
1.3385154
1.31598
0.34626102
1.5992873
2.8408211
3.2971833
3.1719492
2.8638486
2.563211
2.3191123
2.1207015
1.9508461
1.8026293
1.6744809
1.5650327
1.4721146
1.3933071
1.3259275
1.2681741
1.218683
1.1761288
1.1392363
1.1068822
1.0781654
1.0523503
1.0288972
1.0074427
0.9876787
0.96938551
0.9523239
0.93629266
0.92113315
0.90674952
0.89307361
0.88003493
0.86757248
0.85561526
0.84413037
0.83303238
0.82230219
0.81191126
0.80182453
0.79201459
0.78246004
0.7731432
0.7640499
0.75516653
0.74648182
0.73798168
0.72965308
0.72148652
0.71347372
0.70560788
0.69788326
0.69029405
0.68283586
0.6755032
0.66829198
0.66119812
0.65421658
0.64734233
0.64057201
0.63390406
0.62733663
0.62086684
0.61449223
0.60821079
0.60202052
0.59591852
0.58990245
0.58397074
0.57812184
0.57235398
0.56666539
0.56105456
0.55552032
0.55006102
0.54467497
0.53936066
0.53411669
0.52894164
0.52383412
0.51879273
0.51381604
0.50890266
0.50405104
0.49925968
0.49452683
0.48985075
0.48522918
0.48066015
0.47613974
0.47166676
0.46723097
0.46283832
0.45845215
0.45411728
0.44969231
0.44536056
0.44062257
0.43659034
0.42929981
0.010432418
0.063629
0.16387264
0.28160504
0.38483184
0.47613354
0.5596653
0.63116683
0.68697922
0.72842315
0.75708225
0.77371611
0.77963247
0.77705154
0.76855249
0.7565233
0.74263191
0.72787645
0.71284089
0.69786164
0.68315344
0.6688499
0.6550075
0.64168111
0.62891176
0.6166904
0.60506386
0.59396563
0.58334821
0.57317127
0.56342092
0.55407973
0.54512206
0.53652383
0.52824826
0.5202857
0.51258812
0.5051516
0.49795983
0.49099256
0.48423307
0.47766833
0.4712872
0.46507932
0.45903518
0.45314627
0.44740238
0.4417948
0.43631625
0.43096044
0.42572214
0.42059616
0.4155777
0.4106625
0.40584603
0.40112473
0.39649481
0.3919522
0.38749297
0.38311433
0.37881426
0.37459061
0.37044082
0.36636257
0.36235391
0.35841287
0.35453706
0.35072451
0.34697369
0.34328308
0.33965108
0.33607612
0.33255683
0.32909201
0.32568023
0.3223201
0.31901034
0.31574974
0.31253714
0.30937138
0.30625132
0.30317582
0.30014379
0.29715407
0.29420554
0.29129699
0.28842716
0.28559466
0.28279807
0.28003537
0.27730509
0.27460312
0.2719294
0.26927139
0.26663892
0.26398659
0.26136067
0.25858691
0.25611205
0.25179519
0.00038801422
0.0025408968
0.0091239927
0.019304963
0.032131779
0.047242959
0.066813258
0.091038503
0.12648793
0.17016974
0.21727466
0.26311314
0.30630388
0.34581912
0.38040315
0.40893708
0.43093112
0.44665383
0.45694749
0.46286634
0.46538606
0.46530267
0.46323977
0.45968891
0.45505645
0.44965129
0.44373613
0.43749655
0.43106197
0.42453373
0.41798924
0.41148738
0.40506872
0.39876447
0.39258557
0.3865519
0.38064101
0.37487734
0.36925728
0.36377985
0.35844242
0.35324216
0.34817606
0.34324041
0.33843127
0.3337446
0.32917441
0.32471614
0.32036547
0.31611841
0.31197144
0.30792083
0.30396305
0.30009474
0.29631228
0.29261268
0.28899274
0.28544917
0.28197881
0.27857923
0.27524837
0.27198415
0.26878426
0.26564655
0.26256915
0.25955014
0.25658742
0.2536792
0.25082396
0.2480202
0.24526641
0.24256111
0.23990296
0.23729073
0.23472308
0.23219873
0.22971649
0.22727521
0.2248738
0.22251117
0.22018629
0.21789812
0.21564566
0.21342791
0.21124386
0.20909251
0.2069728
0.20488364
0.20282385
0.20079211
0.19878698
0.19680645
0.19484881
0.19290953
0.19098785
0.18906985
0.18715992
0.18519241
0.18338295
0.18030687
4.2142928e-05
0.00015225213
0.00054644044
0.00143921
0.0029404812
0.0049680269
0.0075215397
0.010753311
0.015279449
0.021975016
0.031486439
0.046280228
0.066518047
0.090991127
0.11836181
0.14744287
0.17733424
0.20685832
0.23457846
0.25914783
0.27969602
0.29599283
0.30832389
0.3172269
0.3232813
0.32699941
0.32882962
0.32915916
0.32831596
0.32656534
0.32411782
0.32114332
0.31777778
0.31412831
0.31027774
0.30629901
0.30222737
0.2981096
0.29397797
0.28985529
0.28575929
0.28170473
0.27770286
0.27376183
0.26988781
0.26608525
0.26235579
0.2587002
0.2551188
0.25161178
0.24817915
0.24482021
0.24153394
0.23831909
0.23517399
0.23209717
0.22908679
0.22614085
0.22325722
0.22043426
0.21767055
0.21496455
0.21231452
0.20971881
0.20717588
0.20468412
0.20224185
0.19984757
0.19749995
0.19519768
0.19293945
0.19072393
0.18854992
0.18641629
0.18432186
0.18226547
0.18024602
0.1782625
0.1763139
0.17439922
0.17251753
0.1706679
0.1688494
0.16706114
0.16530224
0.1635718
0.16186892
0.16019268
0.15854208
0.15691613
0.15531354
0.15373325
0.15217308
0.15063194
0.14910528
0.14759221
0.14608179
0.14455412
0.14312732
0.14073192
1.6969729e-05
3.1388751e-05
6.9269739e-05
0.00015049218
0.00030330945
0.00055486343
0.00093036985
0.0014513669
0.0021518588
0.0031057394
0.0044050819
0.006305316
0.0091199011
0.013170157
0.019289764
0.028570975
0.041053041
0.056754499
0.075197465
0.095832164
0.11792616
0.14043081
0.16208041
0.18172386
0.19862342
0.21253844
0.22360569
0.23214321
0.23850716
0.2430318
0.24602043
0.24774554
0.24844358
0.2483122
0.2475147
0.24619172
0.24444735
0.24237309
0.24004444
0.2375215
0.23485293
0.2320785
0.22923074
0.22633606
0.22341577
0.22048707
0.21756363
0.21465588
0.21177206
0.20891886
0.20610161
0.20332431
0.20059003
0.19790108
0.19525895
0.19266492
0.1901193
0.18762201
0.18517266
0.18277101
0.18041674
0.17810934
0.17584803
0.17363195
0.17146027
0.16933204
0.16724615
0.16520159
0.16319744
0.16123275
0.15930651
0.15741769
0.15556534
0.15374859
0.15196643
0.15021792
0.14850215
0.14681824
0.14516532
0.14354257
0.14194913
0.14038422
0.13884703
0.13733678
0.13585268
0.13439398
0.13295989
0.13154962
0.13016233
0.12879726
0.12745325
0.12612974
0.12482455
0.12353815
0.1222648
0.12100924
0.11975547
0.11850367
0.11732912
0.11536293
1.2430093e-05
1.6493326e-05
2.4522064e-05
3.8689118e-05
6.2110734e-05
9.8776536e-05
0.00015393232
0.00023416982
0.00034771809
0.00050672041
0.00072614399
0.0010318336
0.0014635591
0.0020715125
0.0029431306
0.0042449822
0.0061679359
0.0089339186
0.013222934
0.019701945
0.028624794
0.040188442
0.054089713
0.069971721
0.087186231
0.10480046
0.12176484
0.1372038
0.1506119
0.16185542
0.17103943
0.17836702
0.1840619
0.18834442
0.19142456
0.19349766
0.19472976
0.19526398
0.19522377
0.19471317
0.19381934
0.1926151
0.19116136
0.18950905
0.18770053
0.1857709
0.18374947
0.18166016
0.1795226
0.17735301
0.17516478
0.17296897
0.17077456
0.16858895
0.16641814
0.16426705
0.16213953
0.16003849
0.15796612
0.15592419
0.15391411
0.15193695
0.14999331
0.14808358
0.14620801
0.14436661
0.14255907
0.1407851
0.13904441
0.1373366
0.13566115
0.1340175
0.13240505
0.13082325
0.12927143
0.12774893
0.12625508
0.12478923
0.12335072
0.12193889
0.12055308
0.11919264
0.11785692
0.11654528
0.11525706
0.11399163
0.11274832
0.11152651
0.11032546
0.10914458
0.10798289
0.10684011
0.10571421
0.10460638
0.10351084
0.10243452
0.10136077
0.10029806
0.099303358
0.097633553
1.1029666e-05
1.2775765e-05
1.5668207e-05
2.0063724e-05
2.6456423e-05
3.547265e-05
4.7924119e-05
6.490147e-05
8.7835438e-05
0.00011876095
0.00016044854
0.00021694566
0.00029444075
0.00040155612
0.0005507573
0.00076296088
0.0010689011
0.0015062141
0.002149929
0.003125852
0.0045976456
0.0067546231
0.010223707
0.015438836
0.022690488
0.032100117
0.043464803
0.056423077
0.070343036
0.084386137
0.097730818
0.10978818
0.12027852
0.1291635
0.13653076
0.14251681
0.14727249
0.15095236
0.15370605
0.15566984
0.15696452
0.15769574
0.15795496
0.15782083
0.15736054
0.15663107
0.15568103
0.15455136
0.15327647
0.15188527
0.15040198
0.14884706
0.14723759
0.14558794
0.1439102
0.14221442
0.14050907
0.13880109
0.13709617
0.13539898
0.13371346
0.13204286
0.13038974
0.12875617
0.12714381
0.12555402
0.12398769
0.12244554
0.12092809
0.11943572
0.11796862
0.11652683
0.11511027
0.11371884
0.11235232
0.11101042
0.10969281
0.10839914
0.10712902
0.10588203
0.10465774
0.10345571
0.10227545
0.1011165
0.099978365
0.098860555
0.097762552
0.096683862
0.095623904
0.094582229
0.093558026
0.092551175
0.091559922
0.090585731
0.089623256
0.088680012
0.087740568
0.086816023
0.085956455
0.084504949
1.0381633e-05
1.1382401e-05
1.2777808e-05
1.4673394e-05
1.720211e-05
2.0520273e-05
2.4807539e-05
3.0278257e-05
3.7211582e-05
4.598201e-05
5.7097308e-05
7.1259995e-05
8.9493205e-05
0.00011324994
0.000144606
0.00018670294
0.00024440804
0.00032439254
0.00043711105
0.00059986575
0.00083972278
0.0011901891
0.0017257812
0.0025603755
0.0038392895
0.0058271578
0.0090281376
0.013750544
0.020262377
0.0285182
0.038338998
0.04930461
0.060773576
0.072037517
0.082522096
0.091895234
0.10004155
0.10697449
0.11276618
0.11751512
0.12133281
0.12433283
0.12662257
0.12830034
0.12945447
0.13016291
0.13049404
0.13050721
0.13025353
0.12977685
0.12911456
0.12829863
0.12735634
0.12631088
0.12518203
0.12398656
0.12273878
0.12145078
0.1201328
0.11879341
0.11743987
0.11607833
0.11471395
0.11335101
0.11199311
0.11064331
0.10930408
0.10797744
0.10666509
0.10536839
0.10408844
0.1028261
0.10158198
0.10035659
0.099150271
0.097963221
0.096795561
0.095647322
0.094518468
0.093408899
0.092318463
0.091246962
0.09019416
0.089159791
0.088143558
0.087145147
0.086164208
0.085200402
0.084253306
0.083322615
0.082407693
0.081508553
0.080623719
0.079754732
0.078896894
0.078057515
0.077223134
0.076404709
0.075650703
0.074368006
9.9575269e-06
1.0645706e-05
1.1481828e-05
1.2490742e-05
1.3727594e-05
1.5256325e-05
1.7143241e-05
1.9468473e-05
2.2306936e-05
2.5748346e-05
2.9909804e-05
3.4946816e-05
4.1071177e-05
4.8554053e-05
5.7796126e-05
6.9362748e-05
8.4089352e-05
0.00010315478
0.00012827824
0.00016210064
0.00020888309
0.00027445858
0.00036883212
0.00050901036
0.00072030733
0.0010427621
0.0015549276
0.0023719807
0.0036320667
0.0057253825
0.0089815346
0.013667981
0.019869645
0.027493774
0.036254541
0.045656759
0.055107049
0.064090266
0.072279399
0.079530549
0.085816611
0.091169374
0.095651103
0.099341087
0.10232474
0.10468592
0.10650372
0.10785076
0.10879235
0.10938642
0.10968377
0.10972879
0.10956006
0.10921091
0.10871017
0.10808261
0.10734959
0.10652947
0.10563804
0.10468872
0.10369302
0.10266074
0.10160029
0.1005188
0.099422348
0.098316142
0.097204629
0.096091532
0.094980005
0.093872722
0.092771931
0.091679499
0.090596963
0.089525595
0.088466445
0.087420351
0.086387985
0.085369873
0.084366421
0.083377921
0.082404576
0.081446505
0.080503758
0.079576328
0.07866415
0.077767125
0.076885101
0.076017917
0.07516533
0.074327187
0.073503041
0.072693022
0.07189594
0.071113326
0.070341187
0.069586281
0.068837317
0.068103849
0.067434954
0.066287935
9.6190809e-06
1.013889e-05
1.0718926e-05
1.1350704e-05
1.2058633e-05
1.2880576e-05
1.3856619e-05
1.5026278e-05
1.6422251e-05
1.8074346e-05
2.001542e-05
2.228468e-05
2.4934891e-05
2.8055172e-05
3.1742797e-05
3.6128008e-05
4.1394812e-05
4.7800557e-05
5.568228e-05
6.5516965e-05
7.8057967e-05
9.4365599e-05
0.00011605287
0.0001457294
0.00018747244
0.00024751807
0.00033685259
0.0004743955
0.00068593603
0.0010263499
0.0015847993
0.002475134
0.0039571418
0.0063508724
0.0099112974
0.014766916
0.020878101
0.028037541
0.035845694
0.043803818
0.051467775
0.058545159
0.064893968
0.070470184
0.075282757
0.079370977
0.082791956
0.085610345
0.087891767
0.089699573
0.091092822
0.092125447
0.092845915
0.093297267
0.093517511
0.093539912
0.09339359
0.093103954
0.092693106
0.092180171
0.091581645
0.090911783
0.090182891
0.08940557
0.088588937
0.087740876
0.086868206
0.085976754
0.085071511
0.084156762
0.083236182
0.082312905
0.081389591
0.080468494
0.079551539
0.078640345
0.077736272
0.07684046
0.07595386
0.075077253
0.074211275
0.073356435
0.072513132
0.071681672
0.070862276
0.070055098
0.069260221
0.068477698
0.067707485
0.066949607
0.066203817
0.065470369
0.064748361
0.064039283
0.063339843
0.062656121
0.061978948
0.061315983
0.060717628
0.059683211
9.3286534e-06
9.7366551e-06
1.0174606e-05
1.0621138e-05
1.1082318e-05
1.1579634e-05
1.2140885e-05
1.2793466e-05
1.3559451e-05
1.4455918e-05
1.5497733e-05
1.6699484e-05
1.8077467e-05
1.9657009e-05
2.1468646e-05
2.3549588e-05
2.5947994e-05
2.8724998e-05
3.1979641e-05
3.5847598e-05
4.049974e-05
4.6171805e-05
5.3204289e-05
6.20713e-05
7.3501372e-05
8.8595151e-05
0.00010909248
0.00013796299
0.00017953773
0.00024151381
0.00033786026
0.00048927511
0.00073565874
0.001148668
0.0018253003
0.0029663907
0.0048553573
0.0077268644
0.01171016
0.016791194
0.022800942
0.029396975
0.036154626
0.042700918
0.04879048
0.054298822
0.05917963
0.063431392
0.067080177
0.070168326
0.072745536
0.074863614
0.076573421
0.077923001
0.078956719
0.079714806
0.080233417
0.080544788
0.08067747
0.080656587
0.080504121
0.080239287
0.07987885
0.079437412
0.078927658
0.078360624
0.07774593
0.077091906
0.076405751
0.075693699
0.074961148
0.074212764
0.073452568
0.072684016
0.071910093
0.071133366
0.070356036
0.069579989
0.068806837
0.068037953
0.0672745
0.066517459
0.06576765
0.065025758
0.064292341
0.063567861
0.062852678
0.062147093
0.061451297
0.060765519
0.060089731
0.059424325
0.058768696
0.058124291
0.057488489
0.056866688
0.056251669
0.05564913
0.055110741
0.054172394
9.0739884e-06
9.3986106e-06
9.7426846e-06
1.0083233e-05
1.0416501e-05
1.0752062e-05
1.1107406e-05
1.1502185e-05
1.195358e-05
1.2475106e-05
1.3077459e-05
1.3769443e-05
1.4558926e-05
1.5455235e-05
1.6469798e-05
1.7616295e-05
1.8911431e-05
2.0375084e-05
2.2035935e-05
2.3934193e-05
2.6119876e-05
2.8656993e-05
3.1624954e-05
3.5163324e-05
3.9460568e-05
4.4762839e-05
5.1430384e-05
6.0019134e-05
7.1316913e-05
8.6603659e-05
0.00010810094
0.0001392401
0.00018589583
0.00025908668
0.000376041
0.00056917716
0.00089968665
0.0014529189
0.0024061693
0.0040056774
0.0064638872
0.0098880255
0.014269127
0.019449067
0.025117099
0.030908576
0.036518333
0.041751034
0.046505795
0.050741728
0.054454559
0.057663464
0.060401094
0.062706526
0.064621154
0.066186054
0.067440478
0.068421014
0.069161182
0.069691292
0.070038477
0.070226886
0.070277902
0.070210399
0.070040962
0.06978415
0.069452743
0.069057921
0.068609437
0.068115795
0.067584415
0.067021766
0.066433474
0.065824425
0.065198868
0.064560498
0.063912517
0.063257702
0.062598459
0.061936866
0.061274717
0.060613554
0.059954702
0.059299293
0.058648292
0.05800252
0.057362666
0.056729322
0.056102954
0.055484022
0.054872747
0.054269683
0.053674525
0.053088705
0.05251023
0.051943867
0.051384146
0.05083494
0.050348783
0.049494459
8.8479898e-06
9.1080042e-06
9.3828907e-06
9.6529512e-06
9.910769e-06
1.01587e-05
1.0406183e-05
1.0665995e-05
1.0950763e-05
1.1271451e-05
1.163716e-05
1.2055211e-05
1.2531513e-05
1.3071433e-05
1.3680585e-05
1.4365242e-05
1.5132612e-05
1.5990977e-05
1.6950899e-05
1.8026628e-05
1.9236256e-05
2.0602527e-05
2.2151809e-05
2.3923656e-05
2.5972927e-05
2.8369626e-05
3.1202114e-05
3.4612302e-05
3.8823318e-05
4.4116579e-05
5.09414e-05
5.9949906e-05
7.2148989e-05
8.9336506e-05
0.00011438985
0.00015220119
0.00021220117
0.00030947683
0.0004732426
0.00075930065
0.0012457832
0.0021064699
0.0035547869
0.0057791825
0.0088520961
0.012754661
0.017319881
0.022258513
0.027260413
0.032083827
0.036580028
0.040671803
0.044327114
0.04754307
0.050335428
0.052730509
0.054759983
0.056457558
0.057856875
0.058990233
0.05988787
0.06057762
0.06108478
0.061432148
0.06164011
0.061726805
0.061708328
0.061598914
0.061411107
0.06115594
0.060843113
0.060481139
0.060077488
0.059638693
0.059170472
0.05867783
0.058165143
0.057636229
0.057094427
0.056542645
0.055983418
0.055418951
0.05485116
0.054281708
0.053712033
0.053143382
0.052576825
0.0520133
0.051453585
0.050898414
0.050348284
0.049803946
0.049265401
0.048734103
0.048208647
0.047693256
0.047183994
0.046683154
0.046243584
0.045464441
8.644622e-06
8.8542531e-06
9.0758312e-06
9.293985e-06
9.5009586e-06
9.695645e-06
9.8823519e-06
1.0068519e-05
1.0262464e-05
1.0472248e-05
1.070524e-05
1.0967799e-05
1.1265204e-05
1.160188e-05
1.1981801e-05
1.2408834e-05
1.2886945e-05
1.3420391e-05
1.4014081e-05
1.4674122e-05
1.5408145e-05
1.6225692e-05
1.7137883e-05
1.8159148e-05
1.9308882e-05
2.0612161e-05
2.2099297e-05
2.3811781e-05
2.5812751e-05
2.8182952e-05
3.1028649e-05
3.452927e-05
3.8946739e-05
4.465838e-05
5.2257415e-05
6.2589187e-05
7.7232081e-05
9.8741832e-05
0.00013156772
0.00018446773
0.00027143454
0.00042143604
0.00068856521
0.0011490224
0.001984207
0.0033789001
0.0054814471
0.0083433474
0.011913016
0.016003508
0.020346629
0.024687592
0.028843599
0.032706076
0.036218623
0.03935882
0.042126845
0.044536905
0.046611195
0.048376035
0.049859305
0.051088831
0.052091363
0.052892021
0.053513988
0.053978395
0.054304349
0.054509018
0.054607743
0.054614177
0.054540438
0.054397258
0.054194125
0.053939403
0.053640463
0.053303793
0.052935103
0.052539409
0.052121118
0.051684098
0.051231743
0.050767024
0.050292546
0.049810585
0.049323134
0.048831931
0.048338494
0.047844155
0.047350056
0.046857249
0.046366543
0.045878917
0.045394701
0.044915408
0.044440189
0.043972818
0.043510701
0.043054832
0.042657788
0.04194737
8.4586794e-06
8.6289761e-06
8.8089454e-06
8.9870212e-06
9.1563731e-06
9.3146193e-06
9.4633098e-06
9.6064486e-06
9.7490382e-06
9.8963883e-06
1.0053837e-05
1.0226431e-05
1.0418705e-05
1.0634614e-05
1.0877621e-05
1.1150849e-05
1.1457183e-05
1.1799427e-05
1.218049e-05
1.2603615e-05
1.3072584e-05
1.3591961e-05
1.4167098e-05
1.4804465e-05
1.5512252e-05
1.6300939e-05
1.7183292e-05
1.8175212e-05
1.9298729e-05
2.0582834e-05
2.2063068e-05
2.3791729e-05
2.5843942e-05
2.8321754e-05
3.1360486e-05
3.5218775e-05
4.0241298e-05
4.6966983e-05
5.6202412e-05
6.9430456e-05
8.9058123e-05
0.00011949558
0.00016950054
0.00025295314
0.00040146617
0.00066803069
0.0011471233
0.002009456
0.0034186696
0.005479217
0.0082140865
0.011531226
0.01522714
0.01906248
0.022837996
0.026421615
0.029736872
0.032744893
0.035432224
0.037802153
0.039868199
0.041649771
0.043169235
0.044450014
0.045515336
0.046387482
0.047087363
0.04763431
0.048045999
0.048338451
0.0485261
0.048621888
0.048637377
0.048582861
0.04846748
0.04829934
0.048085619
0.047832664
0.047546082
0.047230823
0.046891253
0.046531219
0.046154109
0.045762907
0.045360235
0.044948402
0.044529434
0.044105122
0.043677024
0.043246557
0.042814879
0.042383243
0.041952324
0.041523746
0.041097185
0.040676073
0.040258976
0.039845889
0.039488551
0.038842244
8.2859501e-06
8.4254206e-06
8.5727472e-06
8.719316e-06
8.8594782e-06
8.9905789e-06
9.1128316e-06
9.2282967e-06
9.3398525e-06
9.4507497e-06
9.5644908e-06
9.6846587e-06
9.8147504e-06
9.9580527e-06
1.0117586e-05
1.0296105e-05
1.0496091e-05
1.0719825e-05
1.0969489e-05
1.1247271e-05
1.155548e-05
1.1896688e-05
1.2273812e-05
1.2690225e-05
1.3149949e-05
1.3657952e-05
1.4220283e-05
1.4844235e-05
1.5539137e-05
1.6317123e-05
1.7193038e-05
1.8186416e-05
1.9323901e-05
2.0641423e-05
2.2182526e-05
2.4019759e-05
2.6251983e-05
2.9011715e-05
3.2523438e-05
3.7139909e-05
4.338135e-05
5.2061119e-05
6.4688349e-05
8.3655371e-05
0.00011383523
0.00016409078
0.00025089236
0.00040971313
0.00069510885
0.0012272041
0.0021616974
0.0036339901
0.0057073809
0.0083617154
0.011462592
0.014805286
0.018191107
0.021473639
0.024561116
0.027401558
0.029970312
0.032261355
0.034280603
0.03604124
0.037560546
0.038857764
0.039952704
0.040864874
0.041612933
0.042214376
0.042685382
0.043040755
0.043293944
0.043457086
0.043541084
0.043555702
0.043509657
0.043410714
0.043265779
0.043080986
0.042861775
0.042612965
0.042338824
0.042043128
0.041729213
0.041400032
0.04105819
0.040705999
0.040345487
0.039978489
0.039606558
0.039231263
0.038853653
0.038475506
0.038097013
0.03772136
0.037348126
0.036976589
0.036657133
0.036071793
8.1231779e-06
8.2383276e-06
8.3598982e-06
8.4814772e-06
8.5985035e-06
8.708434e-06
8.8108555e-06
8.9067752e-06
8.997846e-06
9.0860191e-06
9.1734752e-06
9.2625562e-06
9.3556952e-06
9.455346e-06
9.5639201e-06
9.6837354e-06
9.8169514e-06
9.9655647e-06
1.0131444e-05
1.0316365e-05
1.0522064e-05
1.0750305e-05
1.1002961e-05
1.1282072e-05
1.1589929e-05
1.1929209e-05
1.230309e-05
1.2715334e-05
1.3170507e-05
1.3674347e-05
1.4233876e-05
1.4857855e-05
1.5557587e-05
1.6348036e-05
1.7247236e-05
1.8280764e-05
1.9483969e-05
2.090172e-05
2.2600564e-05
2.4680002e-05
2.7275359e-05
3.0601573e-05
3.5032004e-05
4.1089126e-05
4.9672277e-05
6.2343536e-05
8.18204e-05
0.00011380589
0.00016789945
0.00026533373
0.00044569634
0.00077939409
0.0014016513
0.0024501674
0.0040161953
0.0061261099
0.0087061151
0.011593671
0.01460309
0.017582527
0.020430011
0.023083915
0.025510973
0.027697611
0.029643324
0.03135588
0.032848018
0.034135203
0.035234114
0.036161656
0.036934326
0.037567824
0.038076838
0.038474937
0.038774538
0.038986924
0.039122294
0.039189829
0.039197765
0.039153473
0.039063537
0.038933823
0.038769557
0.038575384
0.038355431
0.038113366
0.037852441
0.037575552
0.037285256
0.036983858
0.036673353
0.036355674
0.03603227
0.035705132
0.035374951
0.035044766
0.034715043
0.034384612
0.034102031
0.033575727
7.9679013e-06
8.0637069e-06
8.1648036e-06
8.2664066e-06
8.3648711e-06
8.4578986e-06
8.5447845e-06
8.6259453e-06
8.7023337e-06
8.7751448e-06
8.8457391e-06
8.9156009e-06
8.9863181e-06
9.0595682e-06
9.1370969e-06
9.2206843e-06
9.312081e-06
9.4129734e-06
9.5249766e-06
9.6496281e-06
9.7883941e-06
9.9426944e-06
1.0113943e-05
1.030359e-05
1.051316e-05
1.0744324e-05
1.0998966e-05
1.1279246e-05
1.158768e-05
1.1927301e-05
1.2301758e-05
1.2715486e-05
1.3173965e-05
1.3684217e-05
1.4254789e-05
1.4896725e-05
1.5624833e-05
1.6457845e-05
1.7420818e-05
1.8549149e-05
1.9889674e-05
2.1508028e-05
2.3509338e-05
2.6032847e-05
2.9311777e-05
3.3739135e-05
3.9890751e-05
4.8819182e-05
6.2235377e-05
8.3584131e-05
0.00011949984
0.00018237551
0.00030018378
0.00051771225
0.00093671688
0.0016858286
0.0028736795
0.0045519661
0.0066930164
0.0091759973
0.011836046
0.014523754
0.017131973
0.019592609
0.021866091
0.02393301
0.025787683
0.027433375
0.028878958
0.030136597
0.031220167
0.03214419
0.032923149
0.03357104
0.034101112
0.034525714
0.03485624
0.03510311
0.0352758
0.035382882
0.035432085
0.035430351
0.035383905
0.035298319
0.035178569
0.035029098
0.034853866
0.034656411
0.034439876
0.034207091
0.033960536
0.033702557
0.03343504
0.033160234
0.032879335
0.032595325
0.032309455
0.03202035
0.031774331
0.031306159
7.8182747e-06
7.8985661e-06
7.9832537e-06
8.0687563e-06
8.1521797e-06
8.2315085e-06
8.3059167e-06
8.3754701e-06
8.4406964e-06
8.5023432e-06
8.5612884e-06
8.6184919e-06
8.6749797e-06
8.73185e-06
8.7902818e-06
8.8515313e-06
8.9168986e-06
8.9876993e-06
9.0652488e-06
9.1508398e-06
9.245726e-06
9.3511174e-06
9.4681921e-06
9.5981132e-06
9.7420483e-06
9.9012022e-06
1.0076858e-05
1.0270416e-05
1.0483437e-05
1.0717711e-05
1.097533e-05
1.1258764e-05
1.1570964e-05
1.1915578e-05
1.2297031e-05
1.2720793e-05
1.3193883e-05
1.3725146e-05
1.4325831e-05
1.5010956e-05
1.5800148e-05
1.6718934e-05
1.7804643e-05
1.9106275e-05
2.0694796e-05
2.2683145e-05
2.5220146e-05
2.8583737e-05
3.3195518e-05
3.9764115e-05
4.9508489e-05
6.4560837e-05
8.9568886e-05
0.00013247766
0.00021189126
0.00036182453
0.00065070218
0.0011929671
0.0021011888
0.0034424877
0.0052222445
0.0073558618
0.0097016948
0.012117938
0.014496497
0.016765739
0.01888196
0.020821545
0.022574853
0.024141564
0.025527359
0.026741593
0.027795693
0.028702059
0.029473336
0.030121942
0.03065977
0.031098009
0.031447064
0.031716509
0.031915103
0.032050804
0.03213082
0.032161653
0.032149155
0.032098583
0.032014648
0.031901576
0.031763146
0.031602757
0.031423424
0.03122795
0.031018691
0.030798209
0.030568207
0.030331694
0.030090628
0.029843651
0.029634476
0.029224424
7.6729185e-06
7.7406676e-06
7.8120966e-06
7.8845149e-06
7.9556361e-06
8.0237288e-06
8.0879411e-06
8.1481271e-06
8.2045387e-06
8.257637e-06
8.3080043e-06
8.356288e-06
8.4031739e-06
8.4493874e-06
8.4957074e-06
8.5429778e-06
8.5920996e-06
8.6440218e-06
8.6997349e-06
8.7602538e-06
8.8265976e-06
8.8997751e-06
8.9807792e-06
9.0705868e-06
9.1701624e-06
9.2804701e-06
9.4024942e-06
9.5372593e-06
9.6858563e-06
9.8494771e-06
1.0029453e-05
1.0227301e-05
1.0444773e-05
1.0683952e-05
1.0947318e-05
1.1237858e-05
1.1559256e-05
1.191608e-05
1.2313996e-05
1.2760241e-05
1.3264103e-05
1.3837288e-05
1.4495679e-05
1.5260029e-05
1.615784e-05
1.7229789e-05
1.8527886e-05
2.013503e-05
2.2174758e-05
2.4819609e-05
2.8410158e-05
3.3430437e-05
4.0807773e-05
5.1988391e-05
7.0109226e-05
0.00010102575
0.00015704614
0.00026417333
0.00046947094
0.00087036124
0.001574417
0.0026569797
0.0041449416
0.0059833507
0.0080531742
0.010223052
0.012387086
0.014472572
0.016433591
0.018243833
0.019890843
0.021371568
0.02268914
0.023850587
0.024865246
0.025743659
0.026496836
0.027135761
0.027671079
0.028112899
0.028470685
0.028753204
0.028968516
0.02912398
0.029226288
0.029281503
0.0292951
0.029272019
0.029216701
0.029133157
0.029024969
0.02889544
0.028747429
0.028583854
0.028406939
0.028219799
0.028025034
0.027821499
0.027649971
0.027298822
7.5308047e-06
7.5883379e-06
7.648971e-06
7.7106739e-06
7.771647e-06
7.8304263e-06
7.8861904e-06
7.9386709e-06
7.9879364e-06
8.0342514e-06
8.0780006e-06
8.1196332e-06
8.1596288e-06
8.1984881e-06
8.2367387e-06
8.2749462e-06
8.3137168e-06
8.3537008e-06
8.3955969e-06
8.4401466e-06
8.488123e-06
8.540318e-06
8.5975334e-06
8.6605739e-06
8.7302414e-06
8.8073361e-06
8.8926619e-06
8.9870351e-06
9.0912963e-06
9.2063278e-06
9.3330744e-06
9.472568e-06
9.6259579e-06
9.7945523e-06
9.9798654e-06
1.0183669e-05
1.0408077e-05
1.0655646e-05
1.0929482e-05
1.1233423e-05
1.1572285e-05
1.1952036e-05
1.2380366e-05
1.2867178e-05
1.3425068e-05
1.4071439e-05
1.4828503e-05
1.5727516e-05
1.6813813e-05
1.8145496e-05
1.9823301e-05
2.1985421e-05
2.4862528e-05
2.8847612e-05
3.4610164e-05
4.3278399e-05
5.7000339e-05
8.0269996e-05
0.00012151511
0.00020084552
0.00035217614
0.00065563011
0.0012100493
0.0020964562
0.0033528986
0.0049463387
0.0067778813
0.0087279534
0.010695232
0.012607964
0.014419607
0.016102418
0.017642111
0.019033664
0.020278243
0.021380998
0.02234952
0.023192758
0.02392029
0.02454182
0.025066863
0.025504533
0.025863419
0.026151529
0.026376256
0.026544386
0.026662113
0.026735073
0.026768372
0.026766646
0.026734065
0.026674462
0.026591223
0.026487667
0.026366545
0.026231149
0.026084668
0.025926356
0.025793742
0.025502995
7.3911721e-06
7.4403256e-06
7.492105e-06
7.5449705e-06
7.5975095e-06
7.6484992e-06
7.697181e-06
7.7432238e-06
7.7865764e-06
7.8273649e-06
7.8658331e-06
7.9022923e-06
7.9370872e-06
7.9705793e-06
8.0031437e-06
8.0351738e-06
8.067084e-06
8.0993153e-06
8.1323444e-06
8.1666868e-06
8.2028938e-06
8.2415481e-06
8.2832581e-06
8.3286524e-06
8.3783727e-06
8.4330698e-06
8.4934033e-06
8.5600414e-06
8.6336647e-06
8.7149731e-06
8.8046952e-06
8.9036004e-06
9.0125158e-06
9.1323469e-06
9.2641039e-06
9.4089319e-06
9.568151e-06
9.7433092e-06
9.9362426e-06
1.0149157e-05
1.0384749e-05
1.0646309e-05
1.0937932e-05
1.1264781e-05
1.1633287e-05
1.2051879e-05
1.2531274e-05
1.308552e-05
1.3734159e-05
1.4501752e-05
1.5425409e-05
1.6555792e-05
1.7966685e-05
1.9775039e-05
2.2155635e-05
2.5414446e-05
3.0059419e-05
3.7021608e-05
4.7826964e-05
6.5999898e-05
9.7704053e-05
0.00015830035
0.00027553754
0.00051188875
0.00095790094
0.0016953063
0.0027687813
0.0041608056
0.0057890354
0.0075454706
0.009334732
0.011087519
0.012757932
0.014317832
0.015751934
0.017053903
0.018223456
0.019264271
0.02018251
0.02098578
0.021682421
0.022281012
0.022790054
0.023217755
0.023571907
0.023859807
0.024088231
0.024263422
0.024391102
0.024476504
0.024524385
0.024539112
0.024524612
0.024484631
0.024422454
0.02434161
0.024245838
0.024134944
0.02404292
0.023814712
7.2534636e-06
7.2956981e-06
7.340168e-06
7.3856981e-06
7.4311815e-06
7.4756069e-06
7.5182938e-06
7.558889e-06
7.5972663e-06
7.6334557e-06
7.6675975e-06
7.6999019e-06
7.7306165e-06
7.7600086e-06
7.7883563e-06
7.8159473e-06
7.8430778e-06
7.8700561e-06
7.8972101e-06
7.9248926e-06
7.9534837e-06
7.9833918e-06
8.0150529e-06
8.0489299e-06
8.0855078e-06
8.1252913e-06
8.1688023e-06
8.2165775e-06
8.2691677e-06
8.3271392e-06
8.3910762e-06
8.4615859e-06
8.5393059e-06
8.6249148e-06
8.7191453e-06
8.8228012e-06
8.936779e-06
9.0620949e-06
9.1999193e-06
9.3516191e-06
9.5188166e-06
9.7034539e-06
9.9078837e-06
1.0135002e-05
1.0388359e-05
1.0672436e-05
1.0992863e-05
1.1356751e-05
1.1773561e-05
1.2255158e-05
1.2817862e-05
1.3483629e-05
1.4282186e-05
1.5257015e-05
1.6468728e-05
1.8012623e-05
2.0033293e-05
2.2767122e-05
2.6624919e-05
3.2370651e-05
4.1196805e-05
5.5826238e-05
8.1265276e-05
0.00012939492
0.00022329963
0.00041333254
0.00078118938
0.0014061531
0.0023361413
0.0035639767
0.0050202699
0.0066076553
0.0082373842
0.0098436702
0.011382225
0.012825338
0.014157408