/*--------------------------------*- C++ -*----------------------------------*\
| =========                 |                                                 |
| \\      /  F ield         | OpenFOAM: The Open Source CFD Toolbox           |
|  \\    /   O peration     | Version:  2206                                  |
|   \\  /    A nd           | Website:  www.openfoam.com                      |
|    \\/     M anipulation  |                                                 |
\*---------------------------------------------------------------------------*/
FoamFile
{
    version     2.0;
    format      ascii;
    arch        "LSB;label=32;scalar=64";
    class       volScalarField;
    location    "1600";
    object      k;
}
// * * * * * * * * * * * * * * * * * * * * * * * * * * * * * * * * * * * * * //

dimensions      [0 2 -2 0 0 0 0];

internalField   nonuniform List<scalar> 
7480
(
0.032180638
0.062205679
0.068877517
0.06342909
0.05487527
0.047515284
0.0422097
0.038383784
0.035447444
0.033054583
0.031047805
0.029353623
0.027922273
0.026711914
0.025686335
0.024812745
0.024066093
0.023426799
0.022876463
0.022401198
0.021983939
0.021613695
0.021281108
0.020978565
0.020700994
0.020444233
0.020205391
0.019981611
0.01977034
0.019569442
0.019377706
0.019194336
0.019018462
0.018849363
0.018686228
0.018528614
0.018375488
0.018226601
0.018081575
0.017939978
0.017801509
0.017665889
0.017532905
0.017402416
0.017274256
0.017148306
0.017024403
0.016902374
0.016782127
0.016663555
0.016546579
0.016431147
0.016317192
0.016204679
0.016093543
0.015983741
0.015875234
0.015767963
0.015661869
0.015556914
0.015453093
0.015350393
0.015248784
0.015148245
0.015048756
0.014950301
0.014852847
0.014756369
0.014660855
0.014566292
0.014472662
0.01437995
0.014288141
0.014197227
0.014107192
0.014018019
0.013929691
0.013842195
0.013755518
0.013669643
0.013584557
0.013500243
0.013416686
0.013333866
0.013251764
0.013170357
0.013089619
0.013009513
0.012930014
0.012851038
0.012772593
0.012694418
0.012616759
0.012538597
0.012461388
0.012381073
0.012303428
0.012214493
0.012143323
0.01200664
0.0025380812
0.0095638041
0.016657567
0.020687235
0.021734573
0.021465962
0.020832451
0.020185023
0.019553301
0.018925236
0.018316719
0.017752828
0.017247656
0.016803362
0.016416729
0.016074941
0.015776931
0.015521164
0.015302082
0.015111412
0.014942652
0.014790146
0.014649253
0.014517395
0.014393468
0.014276151
0.01416507
0.014058314
0.0139546
0.013853144
0.013753992
0.013657159
0.013562422
0.013469644
0.013378311
0.013288587
0.013199526
0.013111514
0.013024444
0.012938113
0.012852405
0.012767273
0.012682715
0.01259872
0.012515279
0.012432401
0.012350004
0.012268047
0.012186521
0.012105416
0.012024753
0.011944538
0.01186478
0.011785496
0.011706674
0.011628332
0.01155047
0.011473072
0.011396116
0.011319612
0.011243589
0.011168064
0.011093037
0.011018511
0.010944499
0.010871004
0.010798016
0.010725533
0.010653565
0.010582117
0.010511191
0.010440784
0.010370902
0.01030155
0.010232726
0.010164426
0.01009665
0.010029395
0.0099626611
0.0098964454
0.009830745
0.0097655563
0.0097008747
0.0096366946
0.0095730092
0.0095098096
0.0094470853
0.0093848219
0.0093230028
0.0092616022
0.0092005946
0.0091399222
0.0090795589
0.0090193245
0.0089592923
0.0088987654
0.0088382825
0.0087748274
0.0087184583
0.0086162588
0.00022913247
0.00057946145
0.0013141276
0.002635045
0.0042089678
0.0058223829
0.0072753748
0.0085095817
0.0095742212
0.010503021
0.011300327
0.011961322
0.012489981
0.012903491
0.013225247
0.013483261
0.013692804
0.013862265
0.013997654
0.014103571
0.014184299
0.01424329
0.014282672
0.014306049
0.014316396
0.014315091
0.014306924
0.014290372
0.014266415
0.01423569
0.014199863
0.014159853
0.014116198
0.01406952
0.014019644
0.0139676
0.013912294
0.013855166
0.013796116
0.013735219
0.013672621
0.013608512
0.013543092
0.013476521
0.013408947
0.013340521
0.013271242
0.013201193
0.013130459
0.013059122
0.012987291
0.012915042
0.012842454
0.012769601
0.012696521
0.012623288
0.012549942
0.012476502
0.012402978
0.01232942
0.012255895
0.01218245
0.012109109
0.012035904
0.011962869
0.011890031
0.011817394
0.011744978
0.01167281
0.011600913
0.011529304
0.011457992
0.011386997
0.01131634
0.011246028
0.011176068
0.011106468
0.011037239
0.010968388
0.010899922
0.010831846
0.010764164
0.01069688
0.010629995
0.010563509
0.010497422
0.010431728
0.010366424
0.010301496
0.010236936
0.010172709
0.010108814
0.010045143
0.0099817514
0.0099183084
0.0098550463
0.0097910034
0.0097261849
0.0096657459
0.0095600755
0.000170033
0.0001825333
0.00021322735
0.00029331171
0.00045823204
0.00070226861
0.0011554756
0.0017923829
0.0026160268
0.0035362259
0.0044939879
0.0054741252
0.0064641259
0.0074410928
0.008373618
0.0092329123
0.010000714
0.010671716
0.01125107
0.011748576
0.012174113
0.012536404
0.012843673
0.013102572
0.013319688
0.013500092
0.013649291
0.01377192
0.013871357
0.013951247
0.01401417
0.014062507
0.014098214
0.014123286
0.014138654
0.014146059
0.014143745
0.014135353
0.014120242
0.014099392
0.014073374
0.014042739
0.014007998
0.013969581
0.013927892
0.013883297
0.013835926
0.013786074
0.013733968
0.013679824
0.013623878
0.013566312
0.013507307
0.01344703
0.013385583
0.013323126
0.013259752
0.013195536
0.013130537
0.01306486
0.012998622
0.012931909
0.012864783
0.012797309
0.012729558
0.012661583
0.012593412
0.01252509
0.012456671
0.012388199
0.012319707
0.012251226
0.012182792
0.012114443
0.0120462
0.011978084
0.011910117
0.011842321
0.011774715
0.011707317
0.011640142
0.011573205
0.011506517
0.01144009
0.011373931
0.011308049
0.011242446
0.011177127
0.011112085
0.011047324
0.010982811
0.010918577
0.010854482
0.010790697
0.010726719
0.010663218
0.010598576
0.010534294
0.010472812
0.010367938
0.00017352928
0.00017629292
0.0001784408
0.00018087464
0.00018713517
0.00019931717
0.00022907504
0.00029278068
0.00039946285
0.00060070996
0.00091638697
0.0013530559
0.001923075
0.0025910976
0.0033470732
0.0041827911
0.005081075
0.0060119484
0.0069372427
0.0078200181
0.0086337489
0.0093661207
0.010016431
0.01058958
0.011092098
0.011530256
0.011910648
0.012239967
0.012524889
0.012770904
0.012982594
0.013164141
0.013319245
0.013450817
0.013561844
0.013655306
0.013732064
0.013794616
0.013844559
0.013882988
0.013911042
0.013929895
0.013940527
0.013943769
0.013940423
0.013931197
0.013916583
0.01389699
0.01387282
0.01384451
0.013812495
0.013777111
0.013738676
0.013697489
0.013653796
0.013607883
0.013559923
0.013510074
0.013458465
0.013405287
0.013350725
0.013294924
0.013237997
0.013180064
0.013121242
0.013061623
0.013001269
0.012940263
0.012878694
0.012816633
0.012754142
0.012691275
0.012628094
0.012564661
0.012501016
0.012437197
0.012373246
0.0123092
0.012245095
0.012180963
0.012116832
0.012052731
0.011988682
0.011924709
0.01186083
0.011797065
0.011733426
0.011669927
0.011606572
0.011543378
0.011480316
0.011417442
0.011354606
0.011292052
0.011229191
0.011166956
0.011103379
0.0110409
0.010980246
0.010878214
0.00017595863
0.0001809938
0.00018338431
0.00018413823
0.00018429136
0.00018421631
0.00018436141
0.00018568678
0.0001899982
0.00020221619
0.00022988027
0.00028236156
0.00036749105
0.00051876131
0.0007518456
0.0010885118
0.0015388686
0.0020951433
0.0027570581
0.0035178886
0.0043578676
0.005243665
0.0061346079
0.0069931584
0.007793603
0.0085239388
0.0091821643
0.0097710735
0.010295221
0.010759746
0.011170098
0.011531788
0.011850015
0.012129357
0.012374045
0.012588248
0.012774895
0.012937049
0.013077438
0.013198345
0.013301817
0.013389575
0.013463202
0.013524125
0.01357355
0.013612555
0.013642263
0.013663554
0.013677235
0.013684005
0.013684476
0.013679182
0.013668651
0.013653363
0.013633754
0.013610296
0.013583257
0.013552914
0.013519547
0.013483446
0.013444855
0.013403995
0.013361053
0.013316207
0.013269653
0.013221546
0.013171994
0.013121135
0.013069104
0.013016008
0.012961948
0.01290701
0.012851292
0.012794888
0.012737859
0.012680272
0.012622191
0.012563676
0.012504783
0.012445562
0.01238606
0.012326321
0.012266385
0.01220629
0.012146068
0.01208575
0.012025364
0.011964935
0.011904479
0.011844026
0.011783558
0.01172315
0.011662655
0.011602366
0.011541657
0.01148162
0.01142012
0.011360181
0.01130146
0.011203404
0.00017592133
0.0001826749
0.00018696788
0.00018903566
0.00018960149
0.00018943817
0.000188859
0.00018803912
0.00018728562
0.00018659063
0.00018690741
0.00018864557
0.00019354722
0.00020528867
0.0002289282
0.00027236865
0.00034217448
0.00046519169
0.00066066991
0.00095061133
0.0013515847
0.0018632004
0.002486923
0.0032136263
0.0040193147
0.004867314
0.0057168428
0.0065338948
0.0072976099
0.0079994041
0.0086380213
0.0092152822
0.0097343189
0.010199094
0.010614075
0.010983992
0.011313023
0.011605119
0.011864008
0.012093032
0.012295197
0.012473162
0.01262931
0.012765796
0.012884525
0.012987179
0.013075349
0.013150429
0.013213663
0.013266151
0.013308865
0.013342718
0.013368478
0.013386844
0.013398472
0.01340389
0.013403693
0.013398376
0.013388399
0.013374139
0.013355952
0.013334172
0.013309077
0.013280953
0.013250084
0.013216692
0.013180943
0.013143051
0.013103198
0.013061556
0.013018281
0.012973519
0.012927386
0.012880005
0.012831482
0.012781921
0.012731414
0.012680049
0.012627909
0.012575069
0.012521598
0.012467561
0.012413017
0.012358024
0.01230263
0.012246885
0.012190829
0.012134506
0.012077943
0.012021188
0.011964234
0.011907175
0.011849874
0.011792657
0.0117349
0.011677776
0.011619107
0.011562257
0.011506224
0.011412972
0.00017435779
0.00018169674
0.00018711413
0.00019020399
0.00019161665
0.00019212984
0.00019196313
0.00019151293
0.0001908177
0.0001899589
0.00018908659
0.00018828053
0.00018766166
0.0001873231
0.00018782777
0.00018991579
0.00019500263
0.00020604098
0.00022762582
0.00026715284
0.00033233085
0.00044819336
0.00063666439
0.00091964436
0.0013136193
0.0018216078
0.0024422406
0.0031603554
0.0039457193
0.0047589897
0.0055627119
0.006330181
0.0070473465
0.0077090548
0.008314527
0.0088651215
0.009363429
0.0098128762
0.010217259
0.010580349
0.010905777
0.011196958
0.01145704
0.011688924
0.011895246
0.012078379
0.012240511
0.012383621
0.012509487
0.012619703
0.012715688
0.012798738
0.012869999
0.012930499
0.012981185
0.013022871
0.013056354
0.013082347
0.013101503
0.013114391
0.013121529
0.013123392
0.013120427
0.013113009
0.013101473
0.013086161
0.013067405
0.013045467
0.013020598
0.012993038
0.012963005
0.0129307
0.012896299
0.012859975
0.012821875
0.012782144
0.012740915
0.012698312
0.012654448
0.012609429
0.012563354
0.012516315
0.012468394
0.01241967
0.012370217
0.012320102
0.012269385
0.012218127
0.012166375
0.012114191
0.012061586
0.012008673
0.011955331
0.011901907
0.011847801
0.01179422
0.011739025
0.011685756
0.011632996
0.011545259
0.00017186364
0.00017903566
0.00018494493
0.00018879634
0.0001908658
0.00019174455
0.00019192902
0.00019177754
0.00019142885
0.00019094619
0.00019036229
0.00018968438
0.00018893646
0.00018819569
0.00018751252
0.00018690884
0.00018642771
0.00018634939
0.00018715091
0.00018979388
0.00019545808
0.0002071851
0.00023004852
0.00027143084
0.00034339055
0.0004700651
0.00067612513
0.00098300608
0.0014013608
0.0019345818
0.0025743178
0.0032963425
0.0040643355
0.0048401174
0.0055938514
0.0063079273
0.0069743104
0.0075901566
0.0081552161
0.0086708925
0.0091397077
0.0095647151
0.0099491099
0.010296095
0.010608775
0.010890071
0.011142727
0.011369292
0.011572101
0.011753285
0.011914766
0.012058296
0.012185458
0.012297676
0.01239625
0.012482334
0.012557003
0.012621235
0.012675926
0.012721875
0.012759804
0.01279037
0.012814181
0.012831774
0.012843628
0.012850199
0.012851925
0.012849185
0.012842324
0.012831666
0.012817509
0.012800126
0.012779768
0.012756651
0.012730996
0.012702994
0.012672827
0.012640661
0.012606652
0.012570943
0.012533667
0.012494947
0.012454899
0.012413628
0.012371233
0.012327806
0.012283432
0.012238192
0.012192153
0.012145398
0.012097959
0.012049962
0.012001316
0.011952376
0.011902589
0.011853157
0.011802035
0.011752831
0.011703847
0.011622298
0.00016898892
0.00017550755
0.00018135438
0.000185647
0.00018830733
0.00018970867
0.0001902984
0.00019041303
0.00019026712
0.00018997311
0.00018958409
0.00018912309
0.00018859996
0.00018803051
0.00018742554
0.00018678597
0.00018615212
0.00018552322
0.00018494011
0.00018448221
0.00018426932
0.00018458181
0.00018599024
0.00018949698
0.00019677658
0.00021137033
0.00023961258
0.00028946741
0.0003808764
0.00053806729
0.00078540524
0.0011403256
0.001608762
0.0021869063
0.0028549339
0.0035793033
0.0043224705
0.0050536653
0.0057536297
0.0064126341
0.0070264038
0.007593555
0.0081145805
0.0085912325
0.009025924
0.0094213455
0.0097803099
0.010105619
0.010399975
0.010665935
0.010905875
0.011122001
0.011316342
0.011490748
0.011646917
0.011786379
0.011910543
0.0120207
0.012118034
0.012203616
0.012278412
0.012343303
0.012399095
0.012446517
0.012486221
0.012518815
0.01254487
0.012564899
0.012579365
0.012588698
0.012593293
0.012593514
0.012589693
0.012582127
0.0125711
0.01255687
0.012539677
0.012519741
0.012497267
0.012472445
0.01244545
0.012416445
0.012385581
0.012352998
0.012318827
0.012283188
0.012246194
0.012207951
0.012168552
0.012128102
0.012086657
0.012044362
0.012001153
0.011957397
0.011912592
0.011867921
0.011821462
0.011776827
0.011732089
0.011657402
0.00016615149
0.0001717826
0.00017715509
0.00018150314
0.00018456351
0.00018645762
0.00018748974
0.00018795905
0.00018808094
0.00018799018
0.00018776705
0.00018745654
0.00018708282
0.00018666072
0.00018620058
0.0001857065
0.00018518768
0.00018464532
0.00018407419
0.00018349763
0.00018293328
0.00018240841
0.0001819891
0.00018176614
0.00018192203
0.00018282866
0.00018529358
0.00019046965
0.00020102579
0.00022197884
0.00026082242
0.0003322592
0.00046045756
0.00067101304
0.00098452102
0.0014091447
0.0019437058
0.0025707005
0.0032582301
0.0039697969
0.0046751817
0.0053551038
0.0059992856
0.0066026882
0.0071632284
0.0076808078
0.0081566384
0.0085926475
0.008991132
0.0093545683
0.0096854583
0.0099862531
0.0102593
0.010506806
0.010730832
0.010933281
0.01111591
0.011280345
0.011428088
0.011560509
0.011678857
0.01178427
0.011877788
0.011960363
0.012032852
0.012096044
0.012150676
0.012197414
0.012236867
0.012269593
0.012296104
0.012316872
0.01233233
0.012342868
0.012348851
0.012350617
0.012348475
0.01234271
0.012333588
0.012321354
0.012306235
0.012288439
0.012268163
0.012245586
0.012220877
0.012194192
0.012165674
0.012135462
0.012103677
0.01207045
0.012035864
0.012000087
0.011963087
0.011925238
0.011886102
0.011846828
0.011805635
0.011766105
0.011726083
0.011658952
0.00016358856
0.00016829256
0.00017297356
0.00017704728
0.00018022136
0.00018245694
0.00018389704
0.00018474764
0.00018518928
0.00018535481
0.00018533643
0.00018519411
0.0001849655
0.00018467408
0.00018433568
0.00018396049
0.00018355578
0.00018312606
0.00018267128
0.0001821953
0.00018170167
0.00018119321
0.00018067174
0.00018016844
0.0001797079
0.00017933392
0.00017914089
0.00017926183
0.0001799906
0.00018195414
0.0001861994
0.00019479117
0.0002120039
0.00024491868
0.00030602258
0.00041900583
0.00060982961
0.00090012229
0.0012995001
0.0018074599
0.0024066643
0.0030655617
0.0037488801
0.00442811
0.0050851727
0.0057101132
0.0062977259
0.0068456675
0.0073535556
0.0078222627
0.0082533701
0.0086488659
0.0090109382
0.0093418289
0.0096437576
0.0099188608
0.010169173
0.010396613
0.01060298
0.010789943
0.010959041
0.011111688
0.011249186
0.011372729
0.011483408
0.011582222
0.011670098
0.011747882
0.01181635
0.011876212
0.011928118
0.01197267
0.012010418
0.012041862
0.012067468
0.012087664
0.012102843
0.012113369
0.012119578
0.012121783
0.012120268
0.012115302
0.01210713
0.012095981
0.012082068
0.012065587
0.012046721
0.012025644
0.012002512
0.011977484
0.011950678
0.011922283
0.011892307
0.011861131
0.011828386
0.011795181
0.011759887
0.011726039
0.011691218
0.011632376
0.00016138728
0.00016524169
0.00016918032
0.0001727848
0.00017581101
0.00017816253
0.00017987149
0.00018104388
0.00018179929
0.00018224348
0.00018246208
0.00018251881
0.00018245884
0.00018231325
0.00018210389
0.00018184627
0.00018155087
0.00018122499
0.00018087281
0.00018049753
0.0001801016
0.00017968679
0.00017925274
0.00017880448
0.00017834761
0.00017788633
0.00017743829
0.00017703517
0.00017671657
0.00017657016
0.00017672212
0.00017742576
0.00017921832
0.00018308787
0.0001908375
0.00020645756
0.00023680376
0.00029411549
0.00040175765
0.00058609534
0.00086824326
0.0012582566
0.0017543092
0.0023372206
0.0029748026
0.0036334047
0.004287222
0.0049202278
0.0055233638
0.0060917051
0.0066230027
0.0071168315
0.0075738885
0.0079955313
0.0083835095
0.008739767
0.0090663247
0.0093652027
0.0096383712
0.0098877162
0.010115018
0.010321946
0.010510053
0.010680784
0.010835471
0.01097534
0.011101528
0.011215083
0.011316965
0.011408057
0.011489171
0.011561054
0.011624393
0.011679818
0.01172791
0.011769202
0.011804189
0.011833324
0.011857029
0.011875691
0.011889669
0.011899296
0.011904878
0.011906701
0.011905028
0.011900106
0.011892163
0.011881412
0.01186805
0.011852272
0.011834231
0.011814147
0.011792066
0.011768381
0.011742795
0.011716377
0.011687653
0.011660113
0.011631013
0.011581243
0.00015954337
0.00016267583
0.00016592513
0.00016899764
0.00017171214
0.00017397528
0.00017577122
0.00017713734
0.00017813369
0.00017882599
0.00017927781
0.00017954391
0.00017966822
0.00017968435
0.00017961779
0.00017948782
0.00017930823
0.00017908904
0.0001788374
0.0001785584
0.00017825565
0.00017793172
0.00017758791
0.00017722572
0.00017684707
0.00017645308
0.00017604666
0.00017563444
0.00017522376
0.0001748263
0.00017447951
0.00017422365
0.00017414104
0.00017436343
0.0001751286
0.00017695486
0.00018081578
0.00018850704
0.00020407941
0.00023443498
0.00029309923
0.00040355052
0.00059272993
0.00087971999
0.0012737834
0.001769754
0.0023449127
0.0029663304
0.0036028092
0.0042320288
0.0048404369
0.0054202117
0.0059670493
0.0064790261
0.0069557977
0.0073979922
0.0078068414
0.0081839304
0.0085310298
0.0088499865
0.0091426498
0.0094108268
0.0096562524
0.0098805743
0.010085341
0.010271997
0.010441891
0.010596274
0.010736306
0.010863056
0.010977511
0.011080582
0.011173112
0.011255872
0.011329576
0.011394881
0.011452394
0.011502674
0.011546239
0.011583566
0.011615098
0.011641242
0.011662376
0.011678852
0.011690993
0.011699103
0.01170346
0.011704327
0.011701946
0.011696553
0.011688343
0.011677568
0.011664321
0.011649006
0.011631406
0.011612548
0.011591115
0.011570562
0.011547743
0.011507891
0.00015801218
0.00016055643
0.00016321517
0.00016578077
0.00016812245
0.00017016862
0.00017189543
0.00017330978
0.00017443339
0.00017529674
0.0001759363
0.00017638941
0.00017669052
0.00017686939
0.00017695081
0.00017695502
0.00017689757
0.00017679035
0.00017664252
0.00017646096
0.00017625074
0.00017601557
0.00017575804
0.00017547999
0.00017518295
0.00017486796
0.0001745361
0.00017418922
0.00017382949
0.00017345902
0.00017308581
0.00017271972
0.00017237301
0.0001720835
0.00017189521
0.00017189335
0.00017222004
0.00017312283
0.00017515888
0.00017932866
0.00018765098
0.00020456334
0.00023736582
0.00030231889
0.00042358641
0.00062831009
0.00093195417
0.0013411816
0.001845348
0.0024175691
0.0030251852
0.0036407029
0.0042457518
0.004829253
0.0053847051
0.0059085979
0.0063994558
0.0068571063
0.007282201
0.0076759082
0.0080396993
0.0083752095
0.0086841386
0.0089681911
0.009229032
0.0094682595
0.0096873933
0.009887868
0.010071028
0.010238129
0.010390338
0.010528737
0.010654334
0.010768056
0.010870762
0.010963247
0.011046243
0.011120429
0.011186432
0.011244831
0.011296163
0.011340924
0.011379572
0.011412533
0.011440202
0.011462946
0.011481103
0.011494992
0.011504906
0.011511131
0.011513906
0.011513522
0.011510123
0.011504131
0.011495407
0.011484946
0.011471582
0.011458753
0.011442827
0.011413808
0.00015673972
0.00015881414
0.00016098846
0.00016311295
0.0001650911
0.0001668705
0.00016843335
0.00016978003
0.00017091685
0.00017185394
0.00017260674
0.00017319458
0.00017363866
0.00017396008
0.00017417863
0.00017431214
0.00017437545
0.00017438069
0.00017433777
0.00017425458
0.00017413724
0.00017399042
0.00017381763
0.00017362149
0.00017340397
0.00017316648
0.00017291014
0.00017263602
0.00017234523
0.0001720386
0.00017171824
0.00017138735
0.00017104884
0.00017071154
0.00017038709
0.00017009092
0.00016986194
0.0001697502
0.00016985355
0.00017032697
0.00017145655
0.00017389689
0.00017872622
0.00018844664
0.00020826312
0.000246395
0.000323234
0.00046452352
0.00069376036
0.0010244938
0.0014572437
0.0019741349
0.0025448967
0.0031390291
0.0037337637
0.0043146385
0.0048728792
0.0054033463
0.0059033759
0.0063719491
0.0068091086
0.0072155822
0.0075925205
0.0079413229
0.0082635168
0.0085606768
0.0088343731
0.00908614
0.0093174538
0.0095297198
0.0097242651
0.0099023368
0.010065102
0.010213648
0.010348985
0.010472053
0.010583722
0.010684799
0.010776033
0.010858117
0.010931691
0.01099735
0.011055645
0.011107087
0.011152149
0.01119127
0.011224859
0.011253297
0.011276936
0.011296115
0.011311129
0.011322311
0.011329861
0.011334223
0.011335341
0.011334183
0.011329729
0.011325427
0.011317063
0.011299877
0.00015567665
0.00015737797
0.00015916274
0.00016092088
0.00016257843
0.00016409502
0.00016545878
0.00016667186
0.00016773847
0.00016866219
0.000169448
0.00017010316
0.00017063731
0.00017106193
0.00017138959
0.00017163309
0.00017180425
0.00017191351
0.00017197004
0.0001719816
0.00017195456
0.00017189399
0.00017180392
0.00017168751
0.00017154717
0.00017138473
0.00017120162
0.00017099896
0.00017077775
0.00017053871
0.00017028276
0.00017001123
0.0001697253
0.00016942747
0.00016912175
0.00016881239
0.00016850931
0.0001682261
0.00016798255
0.00016782239
0.00016780359
0.00016804851
0.00016872881
0.00017020747
0.00017330192
0.0001792667
0.00019142654
0.00021591721
0.00026495978
0.00036105639
0.00053163888
0.00079536746
0.0011614494
0.0016216603
0.0021509677
0.0027183322
0.0032975525
0.0038708633
0.0044271818
0.0049597566
0.0054647521
0.0059403096
0.0063858619
0.0068016856
0.0071885951
0.0075477351
0.0078804405
0.0081881437
0.0084723109
0.0087343997
0.0089758302
0.0091979679
0.0094021136
0.0095894963
0.0097612715
0.0099185207
0.010062255
0.010193414
0.010312877
0.010421455
0.010519907
0.010608934
0.010689187
0.010761272
0.01082575
0.010883143
0.010933936
0.010978582
0.011017498
0.011051086
0.0110797
0.011103723
0.011123415
0.011139251
0.011151258
0.011160387
0.011165756
0.011170852
0.011170783
0.011166521
0.0001547824
0.00015618676
0.00015765997
0.00015911999
0.00016050842
0.00016179176
0.00016296066
0.00016401876
0.00016497196
0.00016582437
0.00016657878
0.00016723766
0.00016780415
0.00016828272
0.00016867931
0.00016900113
0.00016925572
0.00016945051
0.00016959257
0.0001696884
0.00016974364
0.00016976308
0.00016975069
0.00016970972
0.00016964277
0.00016955189
0.00016943871
0.00016930454
0.00016915043
0.00016897722
0.00016878563
0.00016857646
0.00016835043
0.00016810854
0.00016785239
0.00016758369
0.00016730556
0.00016702276
0.00016674115
0.00016647279
0.00016623362
0.00016605001
0.00016597367
0.00016607554
0.00016651336
0.00016749053
0.00016951427
0.00017354232
0.00018152062
0.00019786927
0.00023013631
0.00029641897
0.00042221583
0.00063145508
0.00093893397
0.0013451524
0.0018317909
0.0023693806
0.0029295639
0.0034916666
0.0040424019
0.0045734921
0.0050799903
0.0055592221
0.0060100207
0.0064322131
0.0068262745
0.0071930939
0.0075338137
0.0078497204
0.0081421691
0.0084125326
0.0086621679
0.0088923926
0.0091044711
0.0092996061
0.0094789347
0.0096435267
0.0097943851
0.0099324482
0.010058592
0.010173631
0.010278327
0.010373386
0.010459466
0.01053718
0.010607095
0.010669745
0.010725623
0.010775196
0.010818887
0.010857134
0.010890264
0.010918788
0.01094282
0.010963302
0.010979488
0.010994928
0.011003957
0.011013809
0.00015402494
0.00015519153
0.00015641496
0.00015763359
0.0001588006
0.00015988693
0.00016088332
0.0001617928
0.00016262201
0.00016337683
0.00016406142
0.00016467822
0.00016522871
0.00016571422
0.00016613675
0.00016649924
0.00016680535
0.00016705917
0.00016726511
0.00016742765
0.00016755097
0.00016763888
0.0001676947
0.00016772131
0.00016772108
0.000167696
0.00016764769
0.00016757747
0.00016748643
0.00016737544
0.00016724523
0.00016709647
0.00016692972
0.00016674557
0.00016654482
0.00016632833
0.00016609732
0.00016585373
0.00016559988
0.00016533984
0.00016507939
0.00016482653
0.00016459646
0.00016440841
0.00016430009
0.00016433066
0.00016460204
0.0001652938
0.00016671992
0.00016961402
0.00017516245
0.00018644474
0.00020933111
0.00025610213
0.00034911463
0.00051557863
0.00077362617
0.0011309145
0.001576139
0.0020829105
0.002622028
0.0031704962
0.003713014
0.0042398799
0.0047451164
0.0052252875
0.0056786617
0.0061046418
0.0065033828
0.0068755291
0.0072220353
0.0075440417
0.0078427905
0.0081195662
0.0083756565
0.008612325
0.0088307946
0.0090322362
0.0092177632
0.009388428
0.0095452212
0.0096890725
0.0098208523
0.009941374
0.010051397
0.010151631
0.010242735
0.010325328
0.010399984
0.010467248
0.010527613
0.010581583
0.010629555
0.010672082
0.010709371
0.010742364
0.010770442
0.010797254
0.010816259
0.010841525
0.00015337928
0.00015435407
0.00015537605
0.00015639866
0.00015738425
0.00015830724
0.00015915778
0.00015993698
0.0001606505
0.00016130477
0.00016190536
0.00016245622
0.00016295972
0.0001634171
0.00016382916
0.00016419689
0.00016452151
0.00016480464
0.00016504834
0.00016525497
0.00016542703
0.00016556693
0.00016567697
0.00016575924
0.00016581555
0.00016584748
0.00016585639
0.00016584341
0.00016580948
0.00016575542
0.00016568189
0.00016558945
0.00016547861
0.0001653498
0.0001652035
0.00016504022
0.00016486057
0.00016466541
0.00016445582
0.00016423343
0.00016400066
0.00016376064
0.0001635188
0.0001632822
0.00016306254
0.00016287799
0.00016275563
0.00016274313
0.00016291748
0.00016343484
0.0001645073
0.00016664812
0.00017081771
0.00017907952
0.00019600686
0.00022993663
0.00030035437
0.00043346917
0.00065114787
0.00096604385
0.0013731885
0.0018499877
0.0023674583
0.0029009715
0.0034335229
0.0039541537
0.0044559714
0.0049348599
0.0053885814
0.0058161562
0.0062174459
0.0065928671
0.0069431959
0.0072694324
0.0075727069
0.0078542146
0.0081151721
0.0083567865
0.0085802361
0.0087866565
0.0089771334
0.0091526976
0.0093143233
0.0094629281
0.0095993735
0.0097244674
0.0098389661
0.0099435787
0.010038966
0.010125754
0.010204516
0.010275824
0.010340155
0.010398108
0.010449987
0.010496742
0.01053788
0.010577177
0.010607114
0.010649215
0.00015282581
0.00015364475
0.00015450307
0.00015536555
0.00015620192
0.00015698983
0.00015771898
0.0001583884
0.00015900187
0.00015956498
0.00016008355
0.00016056258
0.00016100574
0.00016141539
0.00016179292
0.00016213916
0.00016245464
0.00016273982
0.00016299536
0.00016322211
0.00016342113
0.00016359353
0.00016374048
0.00016386313
0.00016396253
0.00016403965
0.00016409535
0.00016413038
0.0001641454
0.00016414097
0.00016411758
0.00016407565
0.00016401554
0.00016393757
0.00016384203
0.00016372924
0.00016359952
0.00016345331
0.00016329111
0.00016311366
0.00016292204
0.00016271764
0.00016250271
0.00016228026
0.00016205484
0.00016183331
0.00016162539
0.00016144651
0.00016131929
0.00016128476
0.00016140493
0.00016179597
0.00016265267
0.00016433591
0.00016765045
0.00017397474
0.00018691164
0.00021306543
0.00026784261
0.00037580868
0.00056122526
0.0008403763
0.0012137018
0.0016625757
0.0021589162
0.0026770565
0.0031986331
0.0037116359
0.0042084053
0.0046842496
0.005136496
0.0055638304
0.0059658539
0.0063427779
0.0066952147
0.0070240326
0.007330255
0.0076149912
0.0078793875
0.0081245942
0.0083517435
0.0085619337
0.0087562201
0.0089356095
0.0091010571
0.0092534658
0.0093936863
0.0095225196
0.0096407168
0.0097489883
0.0098479919
0.0099383733
0.010020693
0.010095605
0.010163511
0.01022538
0.01028084
0.010333825
0.010375734
0.010436218
0.00015234905
0.00015304043
0.00015376486
0.00015449561
0.00015520846
0.00015588406
0.00015651217
0.00015709016
0.00015761982
0.00015810523
0.00015855145
0.00015896353
0.00015934581
0.00015970168
0.00016003352
0.00016034294
0.00016063085
0.00016089772
0.00016114384
0.00016136943
0.00016157473
0.00016175999
0.00016192553
0.00016207166
0.00016219871
0.00016230699
0.00016239679
0.00016246839
0.00016252203
0.00016255793
0.00016257629
0.00016257728
0.00016256105
0.00016252775
0.0001624775
0.00016241042
0.00016232667
0.00016222641
0.00016210987
0.00016197735
0.00016182933
0.00016166644
0.00016148965
0.00016130033
0.0001611005
0.00016089308
0.00016068223
0.00016047414
0.00016027734
0.00016010606
0.00015998066
0.00015993481
0.00016002114
0.00016033427
0.00016105641
0.00016244703
0.00016515242
0.00017028925
0.00018065313
0.00020178304
0.00024584531
0.0003350839
0.00049545899
0.00074545543
0.001089842
0.0015136806
0.0019901923
0.0024932094
0.0030033819
0.0035078759
0.0039984206
0.0044698606
0.0049191652
0.0053447411
0.0057459672
0.0061228757
0.0064759331
0.0068058883
0.0071136666
0.007400296
0.007666856
0.0079144414
0.0081441379
0.0083570061
0.0085540702
0.0087363118
0.0089046657
0.0090600197
0.0092032121
0.0093350384
0.0094562421
0.0095675464
0.0096695976
0.0097631101
0.0098485879
0.0099270247
0.0099981661
0.010066136
0.010121144
0.010201692
0.00015193659
0.00015252289
0.00015313705
0.00015375873
0.0001543686
0.00015495015
0.00015549358
0.00015599518
0.00015645511
0.00015687585
0.00015726126
0.00015761571
0.00015794346
0.00015824825
0.00015853317
0.00015880061
0.00015905222
0.00015928906
0.00015951175
0.00015972059
0.00015991569
0.00016009701
0.00016026445
0.00016041784
0.00016055702
0.00016068179
0.00016079197
0.00016088737
0.00016096783
0.00016103319
0.00016108332
0.00016111807
0.00016113736
0.00016114106
0.00016112911
0.00016110144
0.00016105799
0.00016099874
0.0001609237
0.00016083292
0.00016072653
0.00016060477
0.00016046801
0.00016031684
0.00016015216
0.00015997528
0.00015978811
0.00015959344
0.00015939504
0.00015919881
0.00015901299
0.00015885018
0.0001587288
0.0001586778
0.00015874887
0.00015901666
0.00015963701
0.00016083893
0.00016314697
0.00016753259
0.00017622479
0.00019394165
0.00023057613
0.0003064303
0.00044773748
0.00067454824
0.00099496748
0.0013971654
0.0018557411
0.0023444192
0.002843225
0.0033387442
0.0038222597