/*--------------------------------*- C++ -*----------------------------------*\
| =========                 |                                                 |
| \\      /  F ield         | OpenFOAM: The Open Source CFD Toolbox           |
|  \\    /   O peration     | Version:  2206                                  |
|   \\  /    A nd           | Website:  www.openfoam.com                      |
|    \\/     M anipulation  |                                                 |
\*---------------------------------------------------------------------------*/
FoamFile
{
    version     2.0;
    format      ascii;
    arch        "LSB;label=32;scalar=64";
    class       volScalarField;
    location    "1600";
    object      nut;
}
// * * * * * * * * * * * * * * * * * * * * * * * * * * * * * * * * * * * * * //

dimensions      [0 2 -1 0 0 0 0];

internalField   nonuniform List<scalar> 
7480
(
1.6140729e-05
2.2440923e-05
2.3613721e-05
2.2660526e-05
2.1077265e-05
1.9612944e-05
1.8485552e-05
1.7627889e-05
1.6940218e-05
1.6358461e-05
1.5854119e-05
1.5415499e-05
1.5034955e-05
1.4705483e-05
1.442042e-05
1.4173082e-05
1.3958209e-05
1.3771569e-05
1.360885e-05
1.3466744e-05
1.3340735e-05
1.3227919e-05
1.312575e-05
1.3032115e-05
1.2945613e-05
1.2865078e-05
1.2789708e-05
1.2718685e-05
1.2651267e-05
1.2586823e-05
1.2525009e-05
1.2465606e-05
1.2408363e-05
1.2353076e-05
1.2299502e-05
1.2247519e-05
1.2196805e-05
1.2147291e-05
1.2098866e-05
1.2051398e-05
1.2004798e-05
1.195898e-05
1.1913882e-05
1.1869463e-05
1.1825675e-05
1.1782483e-05
1.1739838e-05
1.1697687e-05
1.1656002e-05
1.1614751e-05
1.1573911e-05
1.1533469e-05
1.1493404e-05
1.145371e-05
1.1414365e-05
1.1375359e-05
1.1336682e-05
1.1298314e-05
1.126024e-05
1.1222447e-05
1.1184937e-05
1.1147707e-05
1.111075e-05
1.1074061e-05
1.1037636e-05
1.100147e-05
1.0965554e-05
1.0929882e-05
1.0894451e-05
1.0859259e-05
1.0824302e-05
1.0789576e-05
1.0755077e-05
1.0720806e-05
1.0686757e-05
1.0652927e-05
1.0619312e-05
1.0585908e-05
1.0552712e-05
1.0519721e-05
1.048693e-05
1.0454335e-05
1.0421932e-05
1.0389715e-05
1.0357678e-05
1.0325815e-05
1.0294116e-05
1.0262569e-05
1.0231164e-05
1.019987e-05
1.0168691e-05
1.0137524e-05
1.0106468e-05
1.0075113e-05
1.0044045e-05
1.0011625e-05
9.980183e-06
9.9440471e-06
9.9150349e-06
9.8590759e-06
1.6743642e-06
5.1472747e-06
8.7906652e-06
1.1681653e-05
1.3403509e-05
1.448082e-05
1.5238382e-05
1.5811724e-05
1.622569e-05
1.6523503e-05
1.6750642e-05
1.6939377e-05
1.7107214e-05
1.7262085e-05
1.7408804e-05
1.7539674e-05
1.7664799e-05
1.7790999e-05
1.7917964e-05
1.8040093e-05
1.815501e-05
1.8260054e-05
1.8353258e-05
1.8435203e-05
1.8507725e-05
1.857159e-05
1.8628739e-05
1.8677739e-05
1.8718267e-05
1.8750672e-05
1.8776417e-05
1.8796456e-05
1.8811227e-05
1.8821272e-05
1.8826369e-05
1.8827411e-05
1.8823367e-05
1.8815543e-05
1.8804092e-05
1.8789059e-05
1.8770598e-05
1.8748936e-05
1.8724361e-05
1.8697075e-05
1.8667272e-05
1.8635168e-05
1.8600779e-05
1.8564232e-05
1.8525663e-05
1.8485193e-05
1.8442993e-05
1.8399179e-05
1.8353876e-05
1.83072e-05
1.8259216e-05
1.8210047e-05
1.8159763e-05
1.8108412e-05
1.8056029e-05
1.80027e-05
1.794853e-05
1.7893596e-05
1.783795e-05
1.7781646e-05
1.772475e-05
1.7667313e-05
1.7609358e-05
1.7550927e-05
1.7492074e-05
1.7432844e-05
1.7373272e-05
1.7313388e-05
1.7253232e-05
1.7192843e-05
1.7132247e-05
1.7071467e-05
1.7010529e-05
1.6949459e-05
1.6888282e-05
1.6827019e-05
1.6765692e-05
1.6704321e-05
1.6642922e-05
1.6581514e-05
1.6520112e-05
1.6458729e-05
1.6397378e-05
1.6336073e-05
1.6274814e-05
1.6213632e-05
1.6152473e-05
1.6091476e-05
1.6030339e-05
1.5969691e-05
1.5908231e-05
1.5848441e-05
1.5785797e-05
1.5727255e-05
1.5669234e-05
1.556393e-05
4.5292972e-07
4.7493754e-07
9.484428e-07
2.2191065e-06
4.1430744e-06
6.4078932e-06
8.5118678e-06
1.0325587e-05
1.2008972e-05
1.3629731e-05
1.5180338e-05
1.6642525e-05
1.8008443e-05
1.9284445e-05
2.04822e-05
2.1627689e-05
2.2722374e-05
2.3760371e-05
2.4737761e-05
2.5652599e-05
2.6505743e-05
2.7298228e-05
2.8029488e-05
2.8705337e-05
2.9330551e-05
2.9906361e-05
3.0446253e-05
3.0943415e-05
3.1401063e-05
3.1821096e-05
3.2209046e-05
3.2567747e-05
3.2899117e-05
3.3205654e-05
3.3487167e-05
3.3747702e-05
3.3983762e-05
3.4201426e-05
3.4400274e-05
3.4581097e-05
3.4744946e-05
3.4892922e-05
3.5026161e-05
3.5145608e-05
3.525217e-05
3.5346765e-05
3.542969e-05
3.5501627e-05
3.556321e-05
3.5615011e-05
3.5657709e-05
3.5691835e-05
3.571793e-05
3.5736511e-05
3.5747913e-05
3.5752637e-05
3.5751021e-05
3.5743335e-05
3.5729801e-05
3.5710783e-05
3.5686687e-05
3.5657827e-05
3.5624443e-05
3.558679e-05
3.5545141e-05
3.5499716e-05
3.5450661e-05
3.5398168e-05
3.5342462e-05
3.528373e-05
3.5222133e-05
3.5157817e-05
3.5090947e-05
3.5021696e-05
3.4950181e-05
3.4876522e-05
3.4800839e-05
3.4723254e-05
3.4643879e-05
3.456282e-05
3.4480177e-05
3.439605e-05
3.4310526e-05
3.4223696e-05
3.4135642e-05
3.4046447e-05
3.3956185e-05
3.3864944e-05
3.3772769e-05
3.3679808e-05
3.3585969e-05
3.3491719e-05
3.3396318e-05
3.3301653e-05
3.3204289e-05
3.3111434e-05
3.3010848e-05
3.2924638e-05
3.2830935e-05
3.2667637e-05
6.7059655e-06
1.1801567e-06
4.4848031e-07
4.0108123e-07
5.8813719e-07
9.3953275e-07
1.7984625e-06
3.1759891e-06
4.8694265e-06
6.6136343e-06
8.3656028e-06
1.0250131e-05
1.2277491e-05
1.4410099e-05
1.6589171e-05
1.8761322e-05
2.088799e-05
2.2947743e-05
2.4932386e-05
2.6838448e-05
2.8661823e-05
3.0398556e-05
3.2049051e-05
3.3611786e-05
3.5088542e-05
3.6478764e-05
3.778661e-05
3.901727e-05
4.0173595e-05
4.1262575e-05
4.2287516e-05
4.325253e-05
4.4161314e-05
4.5019177e-05
4.5827305e-05
4.6591388e-05
4.7299415e-05
4.7969657e-05
4.8595685e-05
4.9181827e-05
4.9730129e-05
5.0242773e-05
5.0721929e-05
5.1169465e-05
5.1587301e-05
5.1977277e-05
5.2339903e-05
5.2676857e-05
5.2989384e-05
5.3278712e-05
5.3546264e-05
5.3793156e-05
5.4020581e-05
5.4229655e-05
5.442112e-05
5.4596098e-05
5.4755325e-05
5.4899424e-05
5.5028921e-05
5.5144641e-05
5.5247466e-05
5.5338093e-05
5.5417072e-05
5.5485005e-05
5.5542502e-05
5.5590072e-05
5.5628067e-05
5.5656945e-05
5.5677215e-05
5.5689303e-05
5.5693587e-05
5.5690414e-05
5.5680172e-05
5.5663261e-05
5.5639965e-05
5.5610572e-05
5.5575375e-05
5.5534659e-05
5.5488693e-05
5.5437734e-05
5.5382024e-05
5.5321802e-05
5.5257287e-05
5.5188699e-05
5.5116243e-05
5.5040122e-05
5.4960523e-05
5.4877659e-05
5.4791673e-05
5.4702867e-05
5.4611187e-05
5.4517415e-05
5.4420554e-05
5.432351e-05
5.4221381e-05
5.4124863e-05
5.4016279e-05
5.3929971e-05
5.3828234e-05
5.3655595e-05
6.4307755e-05
1.8371679e-05
5.2443056e-06
2.0458497e-06
1.0718522e-06
7.1969418e-07
6.2790117e-07
7.174392e-07
9.3991294e-07
1.477893e-06
2.4003621e-06
3.5602334e-06
5.0037484e-06
6.6406566e-06
8.5184646e-06
1.0679504e-05
1.3102709e-05
1.5725339e-05
1.84641e-05
2.1237845e-05
2.3985846e-05
2.667355e-05
2.9286085e-05
3.1814856e-05
3.4252265e-05
3.6590928e-05
3.8827761e-05
4.0963499e-05
4.3002954e-05
4.4948554e-05
4.68018e-05
4.8565593e-05
5.0243305e-05
5.183615e-05
5.334938e-05
5.4789809e-05
5.6153955e-05
5.7449437e-05
5.8679439e-05
5.9844907e-05
6.0948287e-05
6.1993201e-05
6.2982593e-05
6.3919002e-05
6.4805392e-05
6.5644533e-05
6.6438085e-05
6.7187304e-05
6.7893715e-05
6.855935e-05
6.9186518e-05
6.9776885e-05
7.0332185e-05
7.0854206e-05
7.1344428e-05
7.1804849e-05
7.2236533e-05
7.264052e-05
7.3017688e-05
7.3369513e-05
7.369746e-05
7.4002669e-05
7.4286062e-05
7.4548715e-05
7.4791667e-05
7.5015782e-05
7.5221671e-05
7.5410163e-05
7.5582141e-05
7.5738335e-05
7.5879413e-05
7.6005992e-05
7.6118773e-05
7.6218466e-05
7.6305571e-05
7.6380612e-05
7.6444121e-05
7.649661e-05
7.6538564e-05
7.6570451e-05
7.6592714e-05
7.6605785e-05
7.6610071e-05
7.660597e-05
7.6593861e-05
7.6574118e-05
7.6547091e-05
7.6513157e-05
7.6472609e-05
7.6425933e-05
7.6373179e-05
7.6315425e-05
7.6251571e-05
7.6185298e-05
7.6110821e-05
7.6041159e-05
7.595507e-05
7.5896369e-05
7.5813072e-05
7.5677199e-05
0.00016420589
9.3928173e-05
4.3694152e-05
2.0277599e-05
1.0077818e-05
5.5044327e-06
3.2879629e-06
2.1380963e-06
1.5098288e-06
1.1849754e-06
1.0796722e-06
1.1380119e-06
1.3327415e-06
1.8390211e-06
2.6373813e-06
3.7323616e-06
5.1915884e-06
6.9609686e-06
9.0976901e-06
1.1622389e-05
1.4493738e-05
1.7621789e-05
2.0897079e-05
2.4220176e-05
2.7522546e-05
3.0767036e-05
3.393515e-05
3.7014431e-05
3.9995621e-05
4.2872959e-05
4.564417e-05
4.8309212e-05
5.0868921e-05
5.3323667e-05
5.5675597e-05
5.7929483e-05
6.0085804e-05
6.2148199e-05
6.4120398e-05
6.6005259e-05
6.7806055e-05
6.9525031e-05
7.1164987e-05
7.2728915e-05
7.4219083e-05
7.5637761e-05
7.6989061e-05
7.8275721e-05
7.9500612e-05
8.0666144e-05
8.177442e-05
8.2827287e-05
8.3827108e-05
8.4776138e-05
8.5676648e-05
8.6531657e-05
8.7342197e-05
8.810978e-05
8.8836185e-05
8.9523489e-05
9.0173289e-05
9.0787144e-05
9.1366368e-05
9.1912361e-05
9.2426844e-05
9.2911152e-05
9.336615e-05
9.3793151e-05
9.4193465e-05
9.4568147e-05
9.4918209e-05
9.5244582e-05
9.5548366e-05
9.5830629e-05
9.6092106e-05
9.6333624e-05
9.6556003e-05
9.6760029e-05
9.6946456e-05
9.7116006e-05
9.7269371e-05
9.7407223e-05
9.7530203e-05
9.763893e-05
9.7734002e-05
9.7816004e-05
9.7885492e-05
9.7943044e-05
9.7989146e-05
9.8024497e-05
9.8049299e-05
9.806492e-05
9.8070271e-05
9.8069624e-05
9.8056725e-05
9.8046104e-05
9.801409e-05
9.8012443e-05
9.7972858e-05
9.7921081e-05
0.00022408104
0.00018209248
0.00012829788
8.3126817e-05
5.2090598e-05
3.269819e-05
2.0853938e-05
1.3589641e-05
9.0787093e-06
6.1837762e-06
4.3298494e-06
3.104031e-06
2.3035949e-06
1.8309855e-06
1.6026237e-06
1.5728267e-06
1.7084328e-06
2.1800398e-06
2.9708705e-06
4.127997e-06
5.7436331e-06
7.774285e-06
1.029088e-05
1.3283444e-05
1.6676259e-05
2.0345017e-05
2.4156449e-05
2.8004036e-05
3.1823247e-05
3.5582015e-05
3.9262216e-05
4.2849448e-05
4.6332927e-05
4.9706468e-05
5.2967464e-05
5.6116068e-05
5.9151737e-05
6.2075407e-05
6.4889242e-05
6.759547e-05
7.0196652e-05
7.2695122e-05
7.5093375e-05
7.7394188e-05
7.9600136e-05
8.1713623e-05
8.3738081e-05
8.5676691e-05
8.7532598e-05
8.9308709e-05
9.1007617e-05
9.2632397e-05
9.4185329e-05
9.5668681e-05
9.7085057e-05
9.8435953e-05
9.9724646e-05
0.00010095373
0.00010212589
0.00010324301
0.00010430709
0.00010532009
0.00010628365
0.00010719982
0.00010807086
0.00010889834
0.00010968333
0.00011042775
0.00011113314
0.0001118011
0.00011243314
0.00011303074
0.00011359504
0.00011412732
0.00011462877
0.00011510057
0.00011554387
0.00011595976
0.00011634929
0.00011671348
0.00011705331
0.00011736971
0.0001176636
0.00011793586
0.00011818733
0.00011841885
0.0001186312
0.00011882521
0.00011900158
0.00011916126
0.00011930463
0.00011943336
0.00011954644
0.00011964862
0.00011973344
0.00011981644
0.0001198721
0.00011995967
0.00011998978
0.00012007177
0.0002480635
0.00023256796
0.00020111124
0.00016228194
0.00012490443
9.3656626e-05
6.9202858e-05
5.0860915e-05
3.7308696e-05
2.7345642e-05
2.0055256e-05
1.4706264e-05
1.0764546e-05
7.8646416e-06
5.7650336e-06
4.2546355e-06
3.201739e-06
2.5366645e-06
2.1690094e-06
2.0549142e-06
2.1619634e-06
2.6765307e-06
3.5682497e-06
4.9302368e-06
6.8444372e-06
9.3034851e-06
1.2350419e-05
1.5931534e-05
1.9919287e-05
2.4154661e-05
2.8496013e-05
3.2848777e-05
3.7162566e-05
4.1409976e-05
4.5570848e-05
4.9630174e-05
5.3578521e-05
5.7411016e-05
6.1125215e-05
6.4719921e-05
6.8195264e-05
7.1552136e-05
7.4791822e-05
7.7916103e-05
8.0927015e-05
8.3826604e-05
8.6617551e-05
8.9302772e-05
9.188529e-05
9.4368087e-05
9.6753945e-05
9.9045906e-05
0.00010124669
0.00010335886
0.0001053852
0.00010732783
0.00010918977
0.00011097393
0.00011268327
0.00011432031
0.00011588742
0.00011738694
0.0001188215
0.00012019301
0.00012150316
0.00012275421
0.00012394888
0.0001250889
0.00012617612
0.00012721247
0.0001281998
0.00012913997
0.0001300345
0.00013088513
0.00013169325
0.00013246043
0.00013318815
0.00013387782
0.00013453082
0.00013514846
0.00013573204
0.00013628278
0.0001368019
0.00013729055
0.00013774985
0.00013818091
0.00013858479
0.00013896255
0.00013931517
0.00013964384
0.00013994917
0.00014023311
0.00014049482
0.00014073943
0.00014096046
0.00014117416
0.00014135336
0.00014156512
0.00014169261
0.00014196058
0.00025606185
0.00025344735
0.00024091898
0.00021862461
0.00019059741
0.00016125212
0.00013364112
0.00010932189
8.8629671e-05
7.1363568e-05
5.7120069e-05
4.5442254e-05
3.5899138e-05
2.8146465e-05
2.1883497e-05
1.6840347e-05
1.2798173e-05
9.6344652e-06
7.2116494e-06
5.4044669e-06
4.0946223e-06
3.2459631e-06
2.7599147e-06
2.5897462e-06
2.7641928e-06
3.4127286e-06
4.5572043e-06
6.3246286e-06
8.7227219e-06
1.1811216e-05
1.5557007e-05
1.9834427e-05
2.4462836e-05
2.9268169e-05
3.4126686e-05
3.8969325e-05
4.3758723e-05
4.8468965e-05
5.3080449e-05
5.7580623e-05
6.1962489e-05
6.6221769e-05
7.0355792e-05
7.4363487e-05
7.8244881e-05
8.2000532e-05
8.5631754e-05
8.914045e-05
9.2528906e-05
9.5799627e-05
9.895513e-05
0.00010199816
0.00010493144
0.00010775758
0.00011047935
0.00011309919
0.00011561993
0.00011804453
0.0001203761
0.00012261749
0.00012477138
0.0001268404
0.00012882733
0.00013073459
0.0001325643
0.00013431887
0.00013600113
0.00013761337
0.00013915777
0.00014063657
0.00014205196
0.00014340611
0.00014470108
0.00014593853
0.00014712055
0.00014824896
0.00014932554
0.00015035203
0.00015133012
0.00015226145
0.00015314761
0.00015399015
0.00015479057
0.00015555032
0.00015627083
0.00015695347
0.00015759958
0.00015821053
0.00015878752
0.00015933204
0.00015984496
0.00016032849
0.000160782
0.00016121096
0.00016160897
0.00016199285
0.00016233376
0.00016270742
0.00016296217
0.00016347088
0.00025811159
0.0002604112
0.00025780276
0.00024833055
0.00023247836
0.00021230828
0.00019011653
0.00016761156
0.00014605959
0.00012614715
0.00010815155
9.2113649e-05
7.7945055e-05
6.5535054e-05
5.4701761e-05
4.5269401e-05
3.7088346e-05
3.002961e-05
2.3996713e-05
1.8895865e-05
1.4630032e-05
1.1172323e-05
8.4410032e-06
6.3492212e-06
4.8380625e-06
3.8560738e-06
3.3231623e-06
3.179294e-06
3.5946518e-06
4.5510456e-06
6.1812962e-06
8.562408e-06
1.1722925e-05
1.5655556e-05
2.0233556e-05
2.5254247e-05
3.0514021e-05
3.5864385e-05
4.1220361e-05
4.6535185e-05
5.1777058e-05
5.6922482e-05
6.1956185e-05
6.6868956e-05
7.1654784e-05
7.6309762e-05
8.0831936e-05
8.5220715e-05
8.9476455e-05
9.3600237e-05
9.7593561e-05
0.00010145835
0.00010519676
0.00010881107
0.00011230375
0.00011567712
0.00011893379
0.00012207656
0.00012510843
0.00012803233
0.00013085111
0.00013356753
0.00013618446
0.00013870459
0.00014113039
0.0001434644
0.00014570952
0.0001478684
0.00014994353
0.00015193741
0.0001538525
0.00015569123
0.00015745598
0.00015914882
0.00016077203
0.00016232775
0.00016381809
0.00016524509
0.00016661074
0.00016791698
0.00016916572
0.0001703588
0.00017149802
0.00017258513
0.00017362184
0.00017460982
0.0001755507
0.00017644612
0.00017729757
0.00017810681
0.00017887497
0.00017960457
0.00018029517
0.00018095258
0.00018157053
0.00018216636
0.00018270942
0.00018328522
0.00018369958
0.00018450646
0.00025829584
0.0002619452
0.00026351087
0.00026120892
0.00025423547
0.00024292236
0.00022831807
0.00021160093
0.000193865
0.00017597472
0.00015853187
0.00014191794
0.00012632895
0.00011177263
9.8301325e-05
8.591178e-05
7.4562557e-05
6.4192776e-05
5.4766035e-05
4.6254036e-05
3.858431e-05
3.1733541e-05
2.568487e-05
2.0404281e-05
1.5888236e-05
1.2154138e-05
9.1732528e-06
6.8826158e-06
5.3022774e-06
4.3208603e-06
3.8632967e-06
4.0141891e-06
4.8221434e-06
6.3807399e-06
8.8016072e-06
1.2102188e-05
1.6285931e-05
2.1213169e-05
2.6654407e-05
3.2379275e-05
3.8221182e-05
4.4084641e-05
4.991571e-05
5.5677366e-05
6.134294e-05
6.6895142e-05
7.232306e-05
7.7619396e-05
8.277955e-05
8.7801036e-05
9.2682705e-05
9.7424468e-05
0.00010202701
0.00010649151
0.00011081955
0.0001150129
0.00011907359
0.00012300399
0.00012680671
0.00013048451
0.00013404011
0.00013747625
0.00014079574
0.00014400137
0.00014709576
0.00015008154
0.00015296164
0.00015573886
0.00015841593
0.00016099553
0.0001634803
0.00016587291
0.00016817596
0.00017039183
0.00017252302
0.00017457193
0.00017654094
0.00017843236
0.00018024846
0.00018199147
0.00018366356
0.00018526686
0.00018680346
0.00018827539
0.00018968464
0.00019103317
0.00019232289
0.00019355571
0.00019473341
0.00019585803
0.00019693097
0.00019795501
0.00019892999
0.00019986197
0.00020074487
0.00020159658
0.0002023844
0.00020320495
0.00020381382
0.00020497899
0.00025818405
0.00026179574
0.0002646576
0.00026561338
0.00026376941
0.0002587429
0.00025069267
0.00024011101
0.00022763137
0.00021389693
0.00019947843
0.00018483907
0.00017032813
0.00015614818
0.0001424481
0.00012933269
0.00011686241
0.00010507099
9.3909484e-05
8.3340633e-05
7.3368243e-05
6.3995509e-05
5.5217444e-05
4.7066199e-05
3.9544071e-05
3.2670624e-05
2.6475071e-05
2.0963103e-05
1.6240016e-05
1.2337422e-05
9.2355327e-06
6.9795579e-06
5.4986212e-06
4.6999343e-06
4.6175875e-06
5.3266517e-06
6.893477e-06
9.4371803e-06
1.2978733e-05
1.7510489e-05
2.2862345e-05
2.8771334e-05
3.4984988e-05
4.1327781e-05
4.770005e-05
5.404326e-05
6.0316728e-05
6.6492072e-05
7.2550944e-05
7.84813e-05
8.4275008e-05
8.9926988e-05
9.5434297e-05
0.00010079539
0.00010600979
0.00011107776
0.00011600013
0.00012077827
0.00012541402
0.00012990952
0.00013426707
0.00013848909
0.00014257813
0.00014653685
0.00015036782
0.00015407367
0.0001576572
0.00016112127
0.00016446866
0.00016770215
0.0001708245
0.00017383849
0.00017674688
0.00017955228
0.00018225733
0.00018486466
0.00018737684
0.00018979643
0.00019212591
0.00019436777
0.00019652441
0.00019859822
0.00020059153
0.00020250666
0.00020434584
0.0002061113
0.00020780521
0.00020942977
0.00021098701
0.00021247924
0.00021390814
0.00021527675
0.00021658517
0.00021783972
0.00021903454
0.00022018806
0.00022126533
0.00022237544
0.00022321625
0.00022480261
0.00025833478
0.00026146774
0.00026440127
0.00026647334
0.00026706243
0.00026569508
0.0002621528
0.00025646603
0.00024884499
0.00023960852
0.00022912072
0.00021774159
0.00020579886
0.00019355453
0.00018121438
0.00016894164
0.00015686093
0.00014507056
0.00013361574
0.00012250851
0.00011176519
0.00010140146
9.144168e-05
8.1829401e-05
7.2546052e-05
6.36224e-05
5.5095666e-05
4.699719e-05
3.9409825e-05
3.2399694e-05
2.6001288e-05
2.0347524e-05
1.555026e-05
1.1644385e-05
8.7163514e-06
6.7399493e-06
5.6095553e-06
5.3584221e-06
6.0373264e-06
7.7179698e-06
1.0496187e-05
1.4410245e-05
1.9411424e-05
2.5278024e-05
3.1709497e-05
3.8440679e-05
4.5298468e-05
5.2185001e-05
5.9039508e-05
6.5819563e-05
7.2496682e-05
7.9052417e-05
8.5474293e-05
9.1753877e-05
9.7885761e-05
0.00010386656
0.00010969439
0.00011536853
0.00012088917
0.00012625715
0.00013147378
0.00013654074
0.00014145997
0.00014623367
0.00015086413
0.00015535374
0.00015970505
0.00016392077
0.0001680036
0.00017195628
0.00017578156
0.00017948223
0.00018306112
0.00018652095
0.00018986446
0.0001930944
0.0001962135
0.00019922445
0.00020212994
0.00020493261
0.00020763509
0.00021023997
0.0002127498
0.00021516709
0.00021749435
0.00021973403
0.00022188854
0.00022396031
0.00022595164
0.0002278651
0.00022970261
0.00023146747
0.00023316004
0.00023478687
0.00023634235
0.00023784547
0.00023925883
0.00024070535
0.00024181799
0.00024389128
0.00025891393
0.00026149618
0.00026407676
0.00026628314
0.00026775472
0.00026815104
0.00026720621
0.00026476549
0.00026078958
0.000255343
0.00024856993
0.00024066285
0.00023183634
0.00022230019
0.00021224455
0.0002018364
0.00019121812
0.00018051176
0.00016981126
0.00015918004
0.00014866494
0.0001383021
0.00012813274
0.00011815945
0.00010837207
9.8775079e-05
8.9395175e-05
8.0210525e-05
7.1176373e-05
6.2352551e-05
5.3784915e-05
4.5568866e-05
3.7828101e-05
3.0628402e-05
2.413066e-05
1.8516096e-05
1.3866517e-05
1.0334025e-05
7.920581e-06
6.514387e-06
6.2062516e-06
6.9579786e-06
8.8949323e-06
1.2052164e-05
1.649634e-05
2.2100362e-05
2.857268e-05
3.5578318e-05
4.2854123e-05
5.0240456e-05
5.764579e-05
6.5010213e-05
7.2292342e-05
7.9464792e-05
8.6509267e-05
9.3413206e-05
0.00010016821
0.00010676878
0.00011321148
0.00011949442
0.00012561683
0.00013157878
0.00013738101
0.00014302475
0.00014851156
0.00015384326
0.00015902192
0.00016404984
0.00016892944
0.00017366323
0.00017825381
0.00018270386
0.00018701612
0.00019119332
0.00019523821
0.00019915356
0.00020294216
0.00020660679
0.00021015024
0.00021357528
0.00021688466
0.00022008113
0.00022316741
0.0002261462
0.00022902018
0.000231792
0.00023446428
0.00023703967
0.0002395207
0.00024191014
0.00024421018
0.00024642433
0.00024855323
0.0002506036
0.00025257012
0.00025447234
0.00025627028
0.00025810193
0.00025952862
0.00026215738
0.00025994271
0.00026202696
0.00026416615
0.00026613919
0.00026774817
0.0002687972
0.00026909825
0.00026848688
0.00026683948
0.00026408897
0.0002602298
0.00025531013
0.00024941926
0.0002426719
0.0002351936
0.00022711054
0.00021854269
0.00020960154
0.00020038647
0.00019097989
0.00018144878
0.00017184681
0.00016222423
0.00015261676
0.0001430438
0.00013351789
0.00012406081
0.00011468145
0.000105355
9.6083717e-05
8.6896563e-05
7.7756903e-05
6.8660974e-05
5.9678517e-05
5.0888791e-05
4.2487518e-05
3.4563058e-05
2.7318069e-05
2.0987344e-05
1.5689948e-05
1.1675597e-05
8.9364793e-06
7.3643395e-06
7.1588718e-06
8.1384099e-06
1.0515144e-05
1.4260554e-05
1.9403377e-05
2.57263e-05
3.2868896e-05
4.0481255e-05
4.8320817e-05
5.6247374e-05
6.4176197e-05
7.2050073e-05
7.9830585e-05
8.7492265e-05
9.5017641e-05
0.00010239473
0.00010961545
0.00011667449
0.00012356853
0.00013029576
0.00013685544
0.00014324765
0.00014947303
0.00015553272
0.00016142823
0.00016716137
0.0001727342
0.00017814892
0.00018340792
0.0001885137
0.00019346882
0.00019827593
0.00020293772
0.00020745692
0.00021183632
0.00021607871
0.00022018689
0.00022416371
0.00022801198
0.00023173452
0.00023533416
0.00023881371
0.00024217598
0.00024542376
0.00024855985
0.00025158699
0.00025450814
0.00025732569
0.00026004335
0.00026266202
0.00026518857
0.00026761799
0.0002699704
0.00027220308
0.00027447029
0.00027625544
0.00027951102
0.00026139548
0.00026306411
0.00026479398
0.00026644257
0.00026789607
0.0002690522
0.00026980849
0.00027005541
0.00026968109
0.00026858687
0.00026670191
0.00026398972
0.00026044837
0.00025610613
0.00025101423
0.00024523916
0.00023885555
0.00023194146
0.00022457463
0.00021682821
0.00020876822
0.0002004523
0.00019193282
0.00018325539
0.00017445593
0.00016556081
0.00015659469
0.00014757943
0.00013851995
0.00012941634
0.00012028445
0.00011111534
0.00010188823
9.2607921e-05
8.3316902e-05
7.3931669e-05
6.4530152e-05
5.5216701e-05
4.6199453e-05
3.7606189e-05
2.9708253e-05
2.2775834e-05
1.6960864e-05
1.2635116e-05
9.7234028e-06
8.1791823e-06
8.1972179e-06
9.6645011e-06
1.2670809e-05
1.7240217e-05
2.3267387e-05
3.0417303e-05
3.8279343e-05
4.6521509e-05
5.4938674e-05
6.3412078e-05
7.1865178e-05
8.0246213e-05
8.8520725e-05
9.6665292e-05
0.00010466378
0.00011250521
0.00012018219
0.00012768983
0.00013502513
0.00014218635
0.00014917279
0.00015598451
0.00016262218
0.00016908693
0.00017538026
0.00018150395
0.00018746004
0.00019325074
0.00019887839
0.00020434544
0.00020965447
0.00021480811
0.00021980908
0.00022466012
0.00022936405
0.00023392368
0.00023834187
0.0002426215
0.00024676544
0.00025077661
0.00025465788
0.00025841222
0.00026204248
0.00026555178
0.00026894268
0.00027221905
0.00027538205
0.00027843863
0.00028138412
0.0002842392
0.00028695833
0.00028971311
0.00029190313
0.00029585958
0.00026323713
0.0002645689
0.00026595324
0.00026729135
0.00026850986
0.00026955391
0.00027037642
0.00027092279
0.00027112392
0.0002709017
0.00027018023
0.00026889515
0.000267
0.00026446904
0.00026129704
0.00025749666
0.00025309449
0.00024812746
0.00024263961
0.00023667879
0.00023029362
0.00022353103
0.00021643583
0.00020905021
0.00020141209
0.00019355357
0.00018550259
0.00017728486
0.00016891887
0.00016041496
0.00015178584
0.00014303773
0.00013416551
0.00012516143
0.00011604606
0.00010677817
9.7348265e-05
8.7792186e-05
7.8086221e-05
6.8249817e-05
5.8417364e-05
4.8820066e-05
3.9609095e-05
3.1167781e-05
2.3745022e-05
1.7626155e-05
1.3144963e-05
1.0240877e-05
9.0897011e-06
9.5603937e-06
1.1767416e-05
1.5667309e-05
2.1271896e-05
2.8305245e-05
3.6326827e-05
4.4919073e-05
5.3798085e-05
6.2798973e-05
7.1820617e-05
8.0795651e-05
8.9679292e-05
9.8441462e-05
0.00010706144
0.00011552498
0.00012382224
0.00013194654
0.00013989343
0.00014766013
0.00015524512
0.00016264782
0.0001698684
0.00017690756
0.0001837665
0.00019044672
0.00019695003
0.00020327843
0.00020943413
0.00021541947
0.00022123693
0.00022688909
0.00023237861
0.00023770823
0.00024288073
0.00024789897
0.00025276581
0.00025748418
0.00026205702
0.00026648734
0.0002707781
0.00027493249
0.00027895325
0.00028284432
0.0002866071
0.00029024859
0.00029376447
0.00029717595
0.00030043464
0.0003037304
0.00030637355
0.00031110753
0.00026543591
0.00026649672
0.00026759895
0.00026867083
0.00026965922
0.00027052989
0.00027126263
0.00027183731
0.00027222263
0.00027237395
0.0002722375
0.00027175642
0.00027087683
0.00026955296
0.00026775044
0.0002654476
0.000262635
0.00025931423
0.00025549642
0.00025120027
0.00024644989
0.00024127272
0.00023569807
0.00022975612
0.0002234768
0.0002168883
0.00021001658
0.00020288594
0.00019551777
0.00018792831
0.00018013175
0.00017213938
0.00016395654
0.00015558096
0.00014702056
0.00013826482
0.00012929622
0.00012011902
0.0001107156
0.00010106106
9.1182138e-05
8.1091734e-05
7.0771093e-05
6.0412518e-05
5.0237334e-05
4.0497816e-05
3.160774e-05
2.3817083e-05
1.7662214e-05
1.3280266e-05
1.0694826e-05
1.0146059e-05
1.144647e-05
1.4646426e-05
1.9755944e-05
2.6582798e-05
3.4687254e-05
4.3580398e-05
5.2893669e-05
6.240606e-05
7.1986807e-05
8.1550928e-05
9.1041888e-05
0.00010042186
0.00010966487
0.00011875294
0.00012767352
0.00013641794
0.00014498027
0.00015335663
0.00016154464
0.00016954305
0.00017735148
0.00018497023
0.00019240011
0.00019964234
0.00020669847
0.00021357033
0.00022025996
0.0002267696
0.00023310162
0.00023925854
0.00024524296
0.00025105759
0.00025670521
0.0002621887
0.00026751094
0.00027267496
0.00027768372
0.00028254047
0.00028724802
0.00029181036
0.00029622911
0.00030051122
0.00030465279
0.00030867548
0.00031252804
0.00031641946
0.00031956563
0.00032515629
0.00026796661
0.00026880899
0.00026968286
0.00027053488
0.00027132358
0.0002720232
0.00027262358
0.00027312043
0.00027350511
0.00027375948
0.00027385539
0.00027375637
0.00027342092
0.00027280642
0.00027187275
0.0002705851
0.00026891542
0.0002668433
0.0002643561
0.00026144857
0.00025812197
0.0002543829
0.00025024228
0.0002457143
0.00024081556
0.00023556396
0.00022997774
0.00022407517
0.00021787391
0.0002113897
0.00020463638
0.000197626
0.00019036773
0.00018286525
0.00017512331
0.00016714144
0.00015891042
0.00015042499
0.00014167525
0.00013263971
0.00012331064
0.00011368316
0.00010371536
9.3447762e-05
8.2885e-05
7.2035366e-05
6.1128073e-05
5.036921e-05
4.0195754e-05
3.0977202e-05
2.3107725e-05
1.7154429e-05
1.3137805e-05
1.1401984e-05
1.1710361e-05
1.4191193e-05
1.8744182e-05
2.5287332e-05
3.3404859e-05
4.2553028e-05
5.2276982e-05
6.2289966e-05
7.2424966e-05
8.2576667e-05
9.2675532e-05
0.0001026752
0.00011254396
0.00012225979
0.00013180735
0.0001411759
0.00015035799
0.00015934858
0.00016814439
0.00017674347
0.00018514487
0.00019334844
0.00020135459
0.00020916426
0.00021677876
0.00022419972
0.00023142901
0.00023846875
0.00024532121
0.00025198884
0.00025847421
0.00026477999
0.00027090898
0.0002768641
0.00028264825
0.00028826466
0.00029371615
0.0002990067
0.00030413811
0.00030911723
0.00031394056
0.00031863018
0.00032313198
0.00032767484
0.00033137537
0.00033790414
0.00027081017
0.00027147537
0.00027216402
0.00027283618
0.00027345842
0.00027400889
0.00027447998
0.00027487236
0.00027518731
0.0002754218
0.00027556612
0.000275603
0.00027550825
0.00027525247
0.00027480342
0.00027412834
0.00027319582
0.00027197742
0.00027044881
0.00026859048
0.00026638785
0.00026383122
0.00026091542
0.0002576393
0.00025400528
0.00025001862
0.00024568678
0.00024101879
0.00023602476
0.00023071506
0.00022509973
0.00021918819
0.00021298875
0.00020650698
0.0001997472
0.00019271162
0.00018539732
0.0001777994
0.00016991087
0.0001617176
0.00015320485
0.00014436203
0.0001351589
0.00012558686
0.00011563512
0.00010526016
9.4529411e-05
8.3392854e-05
7.1961207e-05
6.045615e-05
4.9196384e-05
3.8714548e-05
2.9319133e-05
2.1786713e-05
1.631819e-05
1.3151063e-05
1.2477516e-05
1.4175242e-05
1.8160871e-05
2.4398537e-05
3.2497178e-05
4.1874211e-05
5.1994761e-05
6.2502975e-05
7.3191283e-05
8.3931872e-05
9.4641196e-05
0.00010526384
0.00011576212
0.00012610992
0.00013628896
0.00014628637
0.00015609315
0.00016570304
0.00017511184
0.00018431686
0.00019331657
0.00020211034
0.00021069823
0.00021908085
0.00022725927
0.00023523493
0.00024300954
0.00025058509
0.00025796377
0.00026514797
0.00027214021
0.00027894321
0.00028555975
0.00029199291
0.00029824547
0.00030432131
0.00031022237
0.00031595532
0.00032151708
0.00032693008
0.00033213737
0.00033738837
0.00034169585
0.00034924627
0.00027395256
0.00027447294
0.00027501042
0.00027553513
0.00027601988
0.00027644537
0.00027680405
0.00027709676
0.00027732742
0.00027749931
0.00027761263
0.00027766286
0.0002776399
0.00027752823
0.00027730772
0.00027695489
0.00027644416
0.00027574924
0.00027484444
0.00027370568
0.00027231125
0.00027064232
0.00026868326
0.00026642171
0.00026384855
0.00026095776
0.00025774603
0.00025421248
0.00025035825
0.00024618598
0.00024169935
0.00023690257
0.00023180003
0.00022639538
0.00022069139
0.00021468982
0.00020838992
0.00020178855
0.00019488058
0.00018765681
0.00018010439
0.00017221097
0.00016395519
0.00015531683
0.00014627942
0.00013680387
0.00012689246
0.00011650581
0.00010562245
9.4326608e-05
8.2528213e-05
7.0475129e-05
5.8347468e-05
4.6752096e-05
3.6080854e-05
2.6963908e-05
2.0021102e-05
1.5466054e-05
1.3752864e-05
1.460416e-05
1.8005167e-05
2.3922241e-05
3.1985129e-05
4.1577741e-05
5.2089115e-05
6.3092399e-05
7.4336517e-05
8.5669757e-05
9.6994061e-05
0.00010824466
0.00011937771
0.00013036286
0.00014117887
0.00015181072
0.00016224778
0.00017248259
0.00018251
0.00019232658
0.00020193022
0.00021131982
0.00022049508
0.00022945629
0.0002382043
0.00024674033
0.00025506597
0.0002631831
0.00027109382
0.00027880052
0.00028630569
0.00029361217
0.00030072262
0.00030764072
0.00031436848
0.00032091231