/*--------------------------------*- C++ -*----------------------------------*\
| =========                 |                                                 |
| \\      /  F ield         | OpenFOAM: The Open Source CFD Toolbox           |
|  \\    /   O peration     | Version:  2206                                  |
|   \\  /    A nd           | Website:  www.openfoam.com                      |
|    \\/     M anipulation  |                                                 |
\*---------------------------------------------------------------------------*/
FoamFile
{
    version     2.0;
    format      ascii;
    arch        "LSB;label=32;scalar=64";
    class       volScalarField;
    location    "1600";
    object      p;
}
// * * * * * * * * * * * * * * * * * * * * * * * * * * * * * * * * * * * * * //

dimensions      [0 2 -2 0 0 0 0];

internalField   nonuniform List<scalar> 
7480
(
0.06293976
0.052040344
0.036640936
0.027264955
0.021960065
0.018767802
0.016749815
0.015205278
0.013851139
0.012722591
0.01182705
0.011123006
0.010589135
0.010198856
0.0099208684
0.0097327682
0.009614082
0.0095501181
0.0095232951
0.009517958
0.0095363656
0.0095575103
0.0095724506
0.0095831866
0.0095877797
0.0095850402
0.0095756966
0.0095599296
0.0095363209
0.009505408
0.0094684461
0.0094259278
0.0093783076
0.009326378
0.0092701676
0.0092097704
0.0091454535
0.0090771732
0.0090052231
0.0089300463
0.0088517307
0.0087701776
0.0086859243
0.0085990531
0.0085095553
0.0084178158
0.0083236477
0.0082271741
0.0081285905
0.0080276617
0.0079247179
0.0078197264
0.0077127098
0.0076038253
0.0074928521
0.0073800108
0.00726521
0.0071484597
0.0070297451
0.0069090241
0.0067864072
0.0066617543
0.0065351735
0.0064065565
0.0062759322
0.0061432524
0.0060084849
0.0058715982
0.0057325631
0.0055913743
0.0054479825
0.0053023847
0.0051545317
0.005004434
0.0048520367
0.004697351
0.0045403308
0.0043810081
0.0042193496
0.0040554078
0.003889173
0.0037207233
0.0035501074
0.0033774107
0.0032027968
0.0030263883
0.0028485156
0.002669373
0.0024896567
0.0023095003
0.002130806
0.0019524234
0.0017814741
0.0016082998
0.0014640884
0.0012953896
0.0012375296
0.0010326186
0.0018341874
-0.0018273368
0.059250728
0.051036964
0.03870536
0.029407456
0.023081023
0.019266128
0.016994665
0.015357533
0.013966451
0.012822282
0.011915839
0.011202123
0.010660023
0.010261928
0.009976372
0.0097814167
0.0096568537
0.0095876911
0.0095580909
0.0095543234
0.0095661761
0.0095804468
0.0095930322
0.0096017552
0.0096045417
0.0096002533
0.0095895638
0.0095725928
0.0095479159
0.0095160757
0.0094783018
0.0094350535
0.0093867768
0.0093342548
0.009277505
0.0092166202
0.0091518642
0.0090831858
0.0090108708
0.0089353604
0.0088567371
0.0087749001
0.0086903856
0.008603271
0.0085135469
0.0084215969
0.0083272318
0.0082305752
0.0081318204
0.0080307311
0.007927637
0.0078225038
0.0077153539
0.0076063435
0.0074952514
0.007382298
0.0072673909
0.0071505403
0.0070317308
0.0069109199
0.0067882175
0.0066634833
0.0065368253
0.0064081349
0.0062774408
0.0061446945
0.0060098638
0.005872917
0.0057338246
0.0055925812
0.0054491373
0.0053034898
0.0051555895
0.0050054465
0.0048530061
0.0046982793
0.0045412198
0.0043818596
0.0042201653
0.0040561893
0.003889922
0.0037214412
0.0035507956
0.0033780706
0.0032034298
0.0030269956
0.0028490986
0.0026699328
0.0024901948
0.0023100177
0.0021313044
0.0019529039
0.0017819394
0.0016087504
0.0014645304
0.0012958236
0.0012379682
0.0010331391
0.0018346005
-0.0018267744
0.055484887
0.048729517
0.037942912
0.029176151
0.023342279
0.019776639
0.017492155
0.015760245
0.014285192
0.01309056
0.012147434
0.011402911
0.010836875
0.010418575
0.010115569
0.0099060641
0.0097686568
0.0096879237
0.009648521
0.0096362265
0.0096369535
0.0096433511
0.0096496437
0.0096526175
0.0096503714
0.0096418014
0.0096273949
0.0096070288
0.0095793086
0.0095448236
0.0095047475
0.0094594325
0.0094093004
0.0093551032
0.009296833
0.0092345571
0.0091685477
0.0090987497
0.0090253982
0.0089489436
0.008869454
0.0087868215
0.0087015796
0.0086137926
0.0085234475
0.0084309228
0.0083360218
0.0082388701
0.0081396555
0.0080381372
0.0079346447
0.0078291389
0.0077216408
0.0076123041
0.0075009053
0.0073876647
0.0072724872
0.0071553821
0.0070363331
0.0069152968
0.0067923819
0.0066674466
0.0065405988
0.0064117288
0.0062808648
0.0061479577
0.0060129746
0.0058758835
0.0057366542
0.005595281
0.0054517137
0.0053059492
0.0051579376
0.005007689
0.004855148
0.0047003256
0.0045431753
0.0043837287
0.0042219522
0.004057898
0.0038915563
0.0037230047
0.0035522917
0.0033795028
0.0032048011
0.0030283092
0.0028503574
0.0026711398
0.002491353
0.0023111299
0.0021323746
0.0019539337
0.0017829366
0.0016097127
0.0014654779
0.0012967445
0.0012389174
0.0010340917
0.0018356811
-0.001826042
0.052580171
0.047018326
0.037693182
0.029490487
0.02391737
0.020329344
0.017951691
0.016168896
0.014661226
0.013436879
0.012460184
0.011680574
0.011085583
0.010641687
0.010315352
0.010085067
0.009928442
0.0098305094
0.0097759656
0.00975029
0.0097396941
0.0097364333
0.0097340926
0.0097294079
0.009720272
0.0097056115
0.0096858246
0.0096605404
0.0096283825
0.0095900092
0.0095464863
0.0094980361
0.0094450736
0.0093883155
0.0093277096
0.0092632296
0.0091952236
0.0091236532
0.0090486302
0.008970657
0.0088897731
0.0088058566
0.0087194402
0.0086305666
0.008539218
0.0084457634
0.0083499928
0.0082520378
0.008152077
0.0080498624
0.0079457244
0.0078396151
0.0077315544
0.0076216911
0.0075097975
0.0073960947
0.0072804819
0.0071629675
0.0070435336
0.0069221358
0.006798881
0.0066736246
0.0065464742
0.0064173185
0.0062861848
0.0061530223
0.0060177976
0.0058804781
0.0057410327
0.0055994545
0.005455693
0.0053097441
0.0051615578
0.0050111433
0.0048584448
0.0047034729
0.0045461805
0.0043865989
0.0042246941
0.0040605181
0.0038940605
0.0037253988
0.0035545812
0.0033816928
0.0032068967
0.0030303152
0.0028522785
0.0026729806
0.0024931183
0.0023128237
0.0021340029
0.0019554994
0.0017844504
0.0016111725
0.0014669103
0.0012981352
0.0012403419
0.0010354628
0.001837347
-0.0018250594
0.049842907
0.045189264
0.037234899
0.029847153
0.024555444
0.020912649
0.018412183
0.0165342
0.014955412
0.013714164
0.012734232
0.011947173
0.011336134
0.010869961
0.010523799
0.010275616
0.01010256
0.0099897341
0.0099197606
0.0098792019
0.0098557933
0.0098409972
0.0098293292
0.0098170152
0.0098010859
0.0097802647
0.0097549479
0.0097246059
0.0096877991
0.0096452534
0.0095979075
0.0095458918
0.0094896409
0.0094298742
0.0093665081
0.0092993985
0.0092289906
0.0091552582
0.0090781887
0.0089983403
0.0089157237
0.0088302034
0.0087423138
0.0086520711
0.0085594539
0.0084648216
0.0083679436
0.0082689593
0.0081680392
0.0080649277
0.0079599578
0.0078530692
0.0077442811
0.0076337374
0.0075212048
0.0074069053
0.0072907297
0.0071726852
0.0070527527
0.0069308875
0.0068071935
0.0066815222
0.0065539811
0.0064244566
0.006292975
0.0061594832
0.006023947
0.0058863332
0.0057466094
0.0056047676
0.005460756
0.0053145703
0.0051661595
0.0050155322
0.0048626316
0.0047074679
0.0045499934
0.004390239
0.0042281701
0.0040638381
0.0038972323
0.0037284298
0.0035574785
0.0033844631
0.0032095465
0.0030328505
0.0028547055
0.0026753048
0.0024953459
0.0023149599
0.0021360547
0.001957471
0.0017863533
0.0016130066
0.0014687017
0.001299873
0.0012421036
0.0010371601
0.0018394176
-0.0018238367
0.047282409
0.043253979
0.036542038
0.029980684
0.024981101
0.021400242
0.018859984
0.016927271
0.015312279
0.014031191
0.013011606
0.012184347
0.011547043
0.011062387
0.010707238
0.01044748
0.010257321
0.010133658
0.010054493
0.010005472
0.0099745257
0.0099510714
0.0099304595
0.0099094875
0.009885569
0.0098579613
0.0098272159
0.0097922668
0.009751244
0.0097049016
0.0096540163
0.0095985946
0.0095391009
0.0094763002
0.0094100899
0.0093402777
0.0092673732
0.0091913276
0.0091120704
0.0090301968
0.0089456874
0.0088583927
0.0087688611
0.0086770779
0.0085830181
0.0084870439
0.0083889029
0.0082887405
0.0081867196
0.0080825729
0.007976638
0.0078688416
0.007759204
0.0076478648
0.0075345852
0.0074195873
0.0073027505
0.0071840831
0.0070635651
0.0069411502
0.0068169391
0.0066907787
0.0065627765
0.006432817
0.0063009254
0.0061670453
0.0060311416
0.0058931806
0.0057531286
0.0056109758
0.0054666694
0.0053202045
0.0051715295
0.0050206515
0.004867513
0.0047121236
0.0045544349
0.0043944772
0.0042322151
0.0040676998
0.0039009199
0.0037319521
0.0035608437
0.0033876791
0.0032126209
0.0030357905
0.0028575182
0.0026779969
0.0024979242
0.0023174307
0.0021384254
0.0019597471
0.0017885458
0.001615118
0.0014707544
0.0013018616
0.0012440984
0.0010390906
0.0018417592
-0.0018224152
0.045036721
0.041407765
0.035691887
0.029904485
0.025256908
0.021798339
0.019254199
0.017290366
0.015665093
0.014358817
0.013310245
0.012455266
0.011787
0.011271657
0.010887735
0.010600853
0.010388066
0.010251485
0.01016419
0.010107105
0.010069163
0.010042137
0.010019754
0.0099969699
0.0099700858
0.0099378483
0.0099016033
0.0098611526
0.0098150851
0.0097647574
0.0097106669
0.0096523275
0.0095900786
0.0095246779
0.0094559356
0.0093836522
0.0093084208
0.0092301497
0.0091487482
0.0090648713
0.0089784594
0.0088893497
0.0087981221
0.0087047276
0.0086091407
0.0085117373
0.0084122449
0.0083108198
0.0082076142
0.008102344
0.0079953569
0.0078865659
0.0077759925
0.0076637734
0.0075496621
0.0074338835
0.0073163086
0.0071969466
0.0070757747
0.0069527435
0.0068279508
0.006701239
0.0065727166
0.0064422661
0.0063099112
0.0061755917
0.0060392717
0.0059009176
0.0057604935
0.0056179883
0.005473348
0.0053265667
0.0051775917
0.0050264293
0.0048730206
0.004717375
0.0045594431
0.0043992546
0.0042367734
0.00407205
0.0039050723
0.0037359169
0.0035646301
0.0033912962
0.0032160772
0.0030390942
0.0028606771
0.0026810187
0.0025008163
0.0023202003
0.0021410803
0.0019622939
0.0017909945
0.0016174739
0.0014730349
0.0013040674
0.0012462893
0.0010412122
0.0018443154
-0.0018208004
0.043092541
0.039794726
0.034832039
0.029700125
0.025409894
0.022101958
0.019588704
0.017617821
0.015989012
0.014664662
0.013595549
0.012723368
0.012033277
0.011492836
0.011085636
0.010774421
0.010536772
0.010378834
0.010270751
0.010195209
0.010143534
0.010109134
0.010083633
0.010058608
0.010031656
0.0100011
0.009966168
0.0099261662
0.0098785666
0.0098251046
0.0097672813
0.0097052931
0.0096400089
0.0095722369
0.0095013996
0.0094271041
0.0093499859
0.0092698518
0.009186585
0.0091009237
0.0090127675
0.0089219538
0.0088291097
0.008734152
0.0086370644
0.0085382406
0.008437385
0.008334676
0.0082302559
0.0081238236
0.0080157433
0.0079059122
0.0077943537
0.0076812027
0.0075662027
0.0074495861
0.0073312183
0.0072111091
0.0070892312
0.0069655318
0.0068401069
0.0067127944
0.0065837045
0.006452716
0.0063198519
0.0061850494
0.0060482723
0.0059094851
0.0057686505
0.0056257563
0.0054807472
0.0053336161
0.0051843089
0.0050328313
0.0048791232
0.0047231934
0.0045649916
0.0044045469
0.0042418222
0.0040768676
0.0039096702
0.003740306
0.0035688209
0.0033952985
0.0032199005
0.0030427475
0.0028641691
0.0026843576
0.0025040104
0.0023232573
0.0021440084
0.0019651006
0.0017936888
0.0016200638
0.0014755317
0.0013064784
0.001248662
0.0010435066
0.0018470549
-0.0018189761
0.041367569
0.038398154
0.034057884
0.029470525
0.025497481
0.022338815
0.019874339
0.017911778
0.016286588
0.014953779
0.013870409
0.01298339
0.012273407
0.011712461
0.011282209
0.010950115
0.010694281
0.010516176
0.010388792
0.010296432
0.01023007
0.010181669
0.010143781
0.010108213
0.01007458
0.010042609
0.01000788
0.0099684569
0.0099238516
0.0098735485
0.0098179529
0.0097562869
0.0096894149
0.0096190921
0.0095455722
0.0094689476
0.009390079
0.0093084542
0.0092237415
0.0091367114
0.0090471689
0.008954943
0.0088607204
0.0087643817
0.008665934
0.0085657977
0.0084636539
0.0083597155
0.0082541177
0.0081465436
0.0080373802
0.0079265077
0.0078139555
0.0076998579
0.0075839478
0.0074664689
0.0073472787
0.0072263899
0.0071037721
0.0069793698
0.0068532776
0.0067253292
0.0065956367
0.006464074
0.0063306643
0.0061953444
0.0060580767
0.0059188235
0.0057775463
0.0056342319
0.0054888237
0.0053413136
0.005191646
0.0050398258
0.0048857921
0.0047295529
0.0045710571
0.0044103329
0.0042473425
0.0040821353
0.0039146976
0.0037451051
0.0035734028
0.0033996739
0.0032240797
0.0030467401
0.0028679846
0.0026880049
0.0025074982
0.002326594
0.0021472022
0.0019681601
0.0017966215
0.0016228806
0.001478237
0.0013090865
0.0012512064
0.0010459612
0.0018499504
-0.0018169193
0.039808301
0.037148466
0.033352591
0.029244926
0.025559781
0.022543374
0.020133182
0.01818523
0.016566565
0.015229774
0.014135344
0.01323542
0.012508427
0.011929026
0.011477528
0.011126061
0.01085267
0.010654786
0.010509764
0.010402712
0.010322649
0.010261214
0.010212515
0.01016763
0.010125552
0.010085824
0.010043695
0.0099983182
0.0099519756
0.0099025438
0.0098485384
0.0097899477
0.0097267184
0.0096591826
0.0095869107
0.0095096548
0.009429083
0.0093455181
0.0092590799
0.0091707836
0.0090801733
0.008986911
0.0088916885
0.0087943001
0.0086947693
0.0085935486
0.0084902947
0.0083852702
0.0082786082
0.0081699786
0.0080598008
0.0079479375
0.0078344294
0.0077194116
0.0076026072
0.0074842739
0.0073642607
0.0072425858
0.0071192167
0.0069940969
0.0068673201
0.0067387153
0.0066083985
0.0064762386
0.0063422597
0.0062063973
0.0060686136
0.0059288692
0.0057871241
0.0056433643
0.0054975321
0.0053496186
0.0051995667
0.0050473805
0.0048929985
0.0047364279
0.0045776165
0.0044165921
0.0042533157
0.0040878365
0.0039201398
0.0037503008
0.003578364
0.0034044118
0.0032286051
0.0030510635
0.0028721158
0.0026919534
0.002511273
0.0023302043
0.0021506559
0.001971467
0.0017997871
0.001625919
0.001481145
0.0013118856
0.0012539141
0.0010485657
0.0018529756
-0.0018146028
0.038386413
0.036003966
0.032681821
0.029008332
0.025598066
0.022724731
0.020375353
0.018447625
0.016837264
0.015498336
0.01439439
0.013482599
0.012740145
0.012143348
0.01167231
0.011302045
0.011011329
0.010794806
0.010633041
0.010510623
0.010416727
0.010343206
0.010284179
0.010230812
0.01018121
0.010134499
0.01008604
0.01003546
0.0099841519
0.0099297308
0.0098710811
0.0098103855
0.0097479455
0.0096822984
0.0096127864
0.009539136
0.0094615017
0.0093795752
0.0092930277
0.0092035696
0.0091115358
0.0090170266
0.0089209099
0.008822755
0.0087224778
0.008620508
0.0085164374
0.0084105775
0.0083030576
0.0081935375
0.0080824817
0.0079697367
0.007855362
0.0077394962
0.0076218533
0.0075027099
0.0073819061
0.0072594679
0.0071353622
0.0070095331
0.0068820746
0.0067528111
0.006621864
0.0064890981
0.0063545387
0.0062181202
0.0060798052
0.0059395529
0.0057973225
0.0056530992
0.0055068243
0.0053584884
0.0052080332
0.0050554622
0.0049007128
0.0047437921
0.0045846467
0.0044233039
0.0042597239
0.0040939554
0.0039259828
0.003755881
0.0035836936
0.0034095027
0.0032334685
0.0030557102
0.0028765561
0.0026961972
0.0025153298
0.0023340836
0.0021543654
0.0019750173
0.0018031819
0.0016291752
0.0014842514
0.001314871
0.0012567791
0.0010513116
0.0018561052
-0.0018119948
0.037083363
0.034945244
0.032030134
0.028748035
0.025603195
0.022877946
0.020598886
0.018699259
0.017100731
0.015762053
0.0146503
0.013727489
0.012970473
0.012356962
0.011867289
0.011478618
0.011170792
0.010936347
0.010757898
0.010620233
0.010512896
0.010427453
0.010357643
0.010295488
0.010238294
0.010184847
0.010131057
0.010075928
0.010020092
0.0099614295
0.0098992742
0.0098352667
0.0097693572
0.0097001409
0.0096284686
0.0095554341
0.0094796542
0.0094002933
0.0093171939
0.0092305867
0.0091401705
0.009045724
0.0089487575
0.0088495418
0.0087483922
0.0086458003
0.0085411719
0.00843478
0.0083266944
0.0082165385
0.0081048238
0.0079913772
0.0078762854
0.007759696
0.0076413159
0.0075214472
0.0073999214
0.0072767757
0.0071519775
0.0070254732
0.0068973591
0.0067674552
0.0066358903
0.0065025256
0.0063673888
0.0062304134
0.006091563
0.0059507966
0.0058080725
0.0056633755
0.0055166463
0.0053678755
0.0052170035
0.0050640336
0.0049089025
0.0047516168
0.0045921225
0.0044304464
0.0042665478
0.0041004751
0.0039322119
0.0037618328
0.0035893805
0.0034149369
0.0032386616
0.003060673
0.0028812994
0.0027007313
0.002519664
0.0023382279
0.0021583272
0.001978808
0.0018068027
0.0016326465
0.0014875526
0.0013180391
0.0012597959
0.0010541917
0.0018593136
-0.0018090588
0.03588478
0.033961131
0.031393814
0.02846129
0.025570429
0.022997563
0.020798588
0.018936141
0.017354763
0.016019957
0.014902912
0.013970441
0.013199951
0.012570505
0.012062984
0.011656368
0.011331595
0.011079624
0.010884603
0.010731875
0.010611051
0.010513601
0.010433046
0.010361971
0.010296972
0.010236629
0.010177258
0.010117284
0.01005706
0.009994831
0.0099297615
0.0098628947
0.0097940472
0.0097221822
0.0096481332
0.0095725597
0.0094940035
0.0094128118
0.0093303297
0.0092455066
0.0091575566
0.0090663267
0.0089719764
0.0088740975
0.0087729635
0.008669692
0.0085642685
0.0084573044
0.0083488061
0.0082382529
0.0081261472
0.0080122497
0.0078966616
0.0077795365
0.0076605746
0.0075401123
0.0074179737
0.0072942124
0.0071687982
0.0070416822
0.0069129646
0.0067824618
0.0066503125
0.0065163749
0.0063806803
0.006243162
0.0061037856
0.0059625103
0.0058192943
0.0056741227
0.005526936
0.005377725
0.0052264294
0.0050730523
0.0049175301
0.0047598693
0.0046000152
0.0044379944
0.0042737655
0.0041073765
0.0039388105
0.0037681418
0.0035954124
0.0034207037
0.0032441751
0.0030659443
0.0028863391
0.0027055497
0.0025242708
0.0023426331
0.0021625377
0.0019828361
0.0018106468
0.0016363303
0.0014910456
0.0013213866
0.0012629595
0.0010571987
0.0018625736
-0.0018057526
0.034778785
0.033043537
0.03077312
0.028150626
0.02549984
0.023081218
0.020970646
0.019154263
0.017596188
0.016269718
0.015150628
0.014210501
0.013428032
0.012783728
0.012259293
0.011835325
0.01149385
0.01122474
0.011013358
0.010845657
0.010711294
0.010601757
0.010510422
0.010430218
0.010357355
0.010290043
0.01022479
0.010159775
0.010095092
0.010029151
0.0099609422
0.0098912043
0.0098198302
0.0097459169
0.0096699284
0.0095922175
0.0095116384
0.0094286909
0.0093442566
0.0092572153
0.0091679287
0.0090774198
0.0089847999
0.0088893606
0.0087911587
0.008690146
0.0085856582
0.0084785785
0.008369524
0.0082584072
0.0081459368
0.008031758
0.007915902
0.007798476
0.0076791456
0.0075582776
0.0074356847
0.0073114418
0.0071855245
0.0070578921
0.006928652
0.0067976178
0.0066649409
0.0065304771
0.0063942632
0.0062562329
0.0061163548
0.0059745893
0.0058308953
0.0056852589
0.0055376209
0.0053879728
0.0052362541
0.0050824685
0.0049265517
0.004768511
0.0046082909
0.0044459182
0.0042813509
0.0041146371
0.0039457589
0.003774791
0.0036017745
0.0034267905
0.0032499981
0.0030715145
0.0028916672
0.0027106459
0.0025291444
0.0023472943
0.0021669927
0.0019870978
0.0018147109
0.0016402236
0.0014947269
0.00132491
0.0012662646
0.0010603255
0.0018658557
-0.0018020289
0.033755263
0.032185889
0.030169333
0.027820567
0.025394254
0.023129067
0.021113085
0.019350642
0.01782213
0.016508867
0.015391489
0.014446256
0.013653716
0.012995953
0.012455738
0.012015172
0.011657386
0.011371587
0.011144117
0.010961564
0.01081369
0.010692033
0.010589856
0.010500363
0.010419487
0.010345066
0.010273762
0.010203606
0.010134355
0.010064505
0.009992989
0.0099202964
0.0098463162
0.0097702016
0.0096922145
0.0096126509
0.0095305821
0.0094462662
0.0093602492
0.0092716705
0.0091810268
0.0090888913
0.0089944398
0.0088983004
0.0088009751
0.0087016518
0.0085996119
0.0084950929
0.0083877771
0.0082772127
0.0081645104
0.0080498823
0.0079336908
0.007816053
0.007696529
0.0075754654
0.0074526213
0.007328079
0.007201815
0.0070737996
0.0069441504
0.0068126806
0.0066795586
0.0065446385
0.0064079647
0.0062694722
0.0061291338
0.0059869122
0.0058427678
0.0056966886
0.0055486162
0.005398544
0.0052464116
0.0050922235
0.0049359158
0.0047774964
0.0046169096
0.0044541828
0.0042892733
0.0041222298
0.0039530337
0.0037817598
0.0036084489
0.0034331819
0.0032561174
0.0030773723
0.0028972738
0.0027160114
0.0025342777
0.0023522056
0.002171687
0.0019915887
0.0018189907
0.0016443226
0.0014985924
0.0013286054
0.0012697055
0.0010635641
0.0018691273
-0.0017978341
0.032805467
0.031382521
0.029583705
0.027476034
0.025257785
0.023142932
0.021225508
0.019523476
0.018030386
0.016735236
0.015623569
0.014676159
0.013875795
0.013206271
0.012651627
0.01219541
0.011821878
0.011519922
0.011276715
0.0110795
0.010918197
0.010784422
0.010671369
0.010572467
0.010483434
0.010401783
0.010324288
0.010248844
0.010174895
0.010100997
0.010026053
0.0099503124
0.0098736161
0.0097951685
0.0097150999
0.0096336343
0.0095499615
0.0094642147
0.0093768536
0.0092871909
0.0091955085
0.009102148
0.0090065308
0.0089093059
0.0088104963
0.0087096516
0.0086075997
0.0085041289
0.0083984761
0.008290388
0.0081798371
0.0080663359
0.0079503357
0.0078324322
0.0077125884
0.0075913397
0.0074683712
0.0073437084
0.0072172842
0.0070890581
0.0069591519
0.0068273763
0.0066939208
0.0065586395
0.0064215881
0.0062827037
0.0061419653
0.0059993386
0.0058547868
0.0057083006
0.0055598235
0.0054093511
0.0052568241
0.0051022488
0.0049455615
0.0047867718
0.004625824
0.0044627463
0.0042974961
0.0041301224
0.0039606065
0.0037890238
0.0036154143
0.0034398591
0.0032625167
0.0030835037
0.002903147
0.0027216359
0.0025396618
0.0023573591
0.002176614
0.0019963031
0.0018234811
0.001648623
0.001502637
0.0013324678
0.0012732754
0.0010669053
0.0018723518
-0.0017931078
0.031921772
0.030628416
0.029017106
0.027121597
0.025094914
0.023125544
0.021308665
0.019672021
0.018219523
0.016947146
0.015845201
0.01489874
0.014093028
0.013413684
0.012846157
0.012375422
0.011986884
0.011669407
0.011410908
0.011199296
0.011024704
0.010878857
0.010754926
0.010646529
0.010549223
0.010460239
0.01037642
0.010295545
0.010216783
0.010138723
0.010060229
0.0099813351
0.0099018219
0.0098209395
0.0097387013
0.0096552568
0.009569887
0.0094826389
0.0093938927
0.0093030494
0.009210296
0.0091159487
0.0090195332
0.0089214447
0.0088216418
0.0087198813
0.0086169037
0.0085120348
0.0084053634
0.0082977283
0.0081884722
0.0080768481
0.0079630365
0.007846712
0.0077274658
0.007606151
0.0074829377
0.0073581115
0.0072316032
0.0071033104
0.0069733139
0.0068413931
0.0067077494
0.0065722325
0.0064349116
0.0062957285
0.0061546706
0.0060117083
0.0058668089
0.0057199668
0.0055711283
0.0054202924
0.0052674014
0.0051124639
0.0049554176
0.0047962741
0.0046349782
0.0044715595
0.0043059756
0.0041382767
0.0039684437
0.0037965532
0.0036226446
0.0034467995
0.0032691763
0.0030898915
0.0029092717
0.0027275063
0.0025452854
0.0023627452
0.0021817652
0.0020012336
0.0018281755
0.0016531186
0.0015068546
0.0013364913
0.0012769665
0.0010703388
0.0018754882
-0.0017877822
0.031097504
0.029919099
0.028469971
0.026761201
0.024909984
0.023080009
0.021364013
0.019796327
0.018388783
0.01714343
0.016055062
0.015112722
0.014304264
0.013617202
0.013038495
0.012554535
0.012151891
0.011819637
0.01154639
0.011320728
0.011133051
0.010975228
0.010840455
0.010722511
0.010616841
0.010520436
0.010430176
0.010343741
0.010260062
0.010177728
0.010095568
0.010013421
0.0099310043
0.0098475986
0.0097631113
0.009677616
0.0095904696
0.009501643
0.0094114409
0.0093193427
0.0092254691
0.0091300951
0.0090327892
0.0089338623
0.0088333286
0.0087309535
0.008627198
0.0085215203
0.0084141261
0.0083055286
0.0081950714
0.0080832369
0.0079701589
0.0078551589
0.0077379825
0.0076184653
0.007496181
0.0073715298
0.0072448724
0.0071164368
0.0069863818
0.0068544266
0.0067207419
0.0065851384
0.0064476846
0.0063083227
0.0061670489
0.0060238407
0.0058786714
0.0057315412
0.0055823997
0.0054312508
0.0052780387
0.0051227758
0.0049654013
0.0048059297
0.0046443069
0.0044805645
0.0043146607
0.0041466472
0.0039765054
0.0038043127
0.0036301089
0.0034539759
0.0032760723
0.0030965147
0.0029156297
0.0027336068
0.0025511346
0.0023683518
0.00218713
0.0020063709
0.0018330653
0.0016578021
0.0015112374
0.0013406686
0.0012807693
0.0010738523
0.0018784902
-0.0017817812
0.030326802
0.029250573
0.02794237
0.026398118
0.024706985
0.023009476
0.021393377
0.019896972
0.01853792
0.017323358
0.016252169
0.015317065
0.014508495
0.013815909
0.013227832
0.012732068
0.012316356
0.011970172
0.011682811
0.011443527
0.011243036
0.011073392
0.010927852
0.010800347
0.01068625
0.010582354
0.010485552
0.010393444
0.010304747
0.010218035
0.010132098
0.010046606
0.0099612021
0.0098751878
0.0097883767
0.0097007678
0.0096117771
0.0095213098
0.0094295959
0.0093361803
0.0092411223
0.0091446532
0.0090463957
0.0089466022
0.0088452904
0.0087422172
0.0086377791
0.0085315634
0.0084236462
0.0083143663
0.0082032479
0.0080907944
0.0079766621
0.0078608627
0.0077440385
0.0076256062
0.0075049677
0.0073821156
0.0072566295
0.0071286011
0.0069985118
0.0068664356
0.006732707
0.0065971007
0.0064596415
0.0063202364
0.0061788742
0.0060355332
0.0058901926
0.0057428597
0.00559349
0.0054420931
0.0052886166
0.0051330772
0.0049754167
0.0048156531
0.0046537338
0.0044896934
0.0043234911
0.0041551807
0.0039847441
0.0038122607
0.0036377703
0.0034613556
0.0032831761
0.0031033482
0.0029221989
0.0027399179
0.0025571926
0.002374164
0.0021926952
0.0020117034
0.0018381401
0.0016626639
0.0015157758
0.0013449907
0.0012846729
0.0010774312
0.0018813048
-0.0017750196
0.0296045
0.028619272
0.027434083
0.026035002
0.024489475
0.022916986
0.021398743
0.019974859
0.018667049
0.017486538
0.016435823
0.015510941
0.014704868
0.014008989
0.013413418
0.012907362
0.012479731
0.012120552
0.0118198
0.011567398
0.011354433
0.011173175
0.011016987
0.010879946
0.01075739
0.010645953
0.010542527
0.010444645
0.01035084
0.010259653
0.010169837
0.010080909
0.0099924377
0.0099037328
0.0098145252
0.0097247419
0.0096338432
0.0095416778
0.0094484045
0.0093536197
0.0092573284
0.0091597183
0.0090604596
0.0089597429
0.0088575865
0.0087537678
0.0086486342
0.0085418175
0.0084333367
0.0083235317
0.0082119967
0.0080990105
0.0079843017
0.007867991
0.0077504066
0.0076310637
0.0075103462
0.0073882336
0.0072640243
0.0071377284
0.0070089769
0.0068774875
0.0067438195
0.006608133
0.0064706441
0.0063312558
0.0061899135
0.0060465624
0.0059011685
0.0057537391
0.005604234
0.0054526703
0.0052990004
0.0051432468
0.0049853545
0.0048253462
0.0046631713
0.004498868
0.004332397
0.0041638149
0.0039931046
0.0038203479
0.0036455851
0.0034689002
0.0032904535
0.0031103619
0.0029289527
0.0027464163
0.0025634385
0.0023801636
0.0021984448
0.0020172169
0.0018433869
0.0016676926
0.0015204584
0.0013494468
0.0012886644
0.0010810588
0.0018838714
-0.0017674021
0.028926031
0.028022018
0.02694469
0.025673964
0.02426058
0.022805398
0.021382144
0.020031091
0.018776534
0.017632823
0.016605546
0.015693704
0.014892669
0.014195723
0.013594567
0.013079794
0.012641481
0.01227032
0.011956971
0.011692031
0.011466994
0.011274387
0.011107712
0.010961199
0.010830183
0.010711176
0.010601064
0.010497324
0.010398329
0.010302579
0.010208789
0.010116339
0.010024723
0.0099332494
0.009841575
0.0097495576
0.0096566891
0.0095627694
0.00946789
0.0093716871
0.0092741194
0.0091753314
0.009075031
0.0089733521
0.0088703122
0.0087657071
0.0086598238
0.0085523449
0.0084432725
0.00833292
0.008220899
0.0081074271
0.0079923418
0.0078756546
0.007757565
0.0076377355
0.0075164929
0.0073935382
0.007268999
0.0071431123
0.0070153195
0.0068854387
0.006753163
0.0066181883
0.0064808575
0.0063414299
0.00620007
0.0060567496
0.0059113944
0.0057639793
0.0056144478
0.0054628165
0.0053090403
0.0051531491
0.0049950922
0.0048348982
0.0046725195
0.0045079984
0.0043412978
0.0041724779
0.0040015227
0.0038285172
0.0036535025
0.0034765644
0.0032978644
0.0031175201
0.0029358597
0.0027530741
0.0025698478
0.0023863288
0.0022043593
0.002022894
0.00184879
0.0016728738
0.001525271
0.0013540238
0.0012927286
0.0010847149
0.0018861217
-0.001758822
0.028287351
0.027455971
0.026473628
0.025316656
0.024023013
0.022677356
0.021345591
0.020066892
0.018866915
0.017762249
0.016761033
0.015864849
0.015071293
0.014375476
0.013770654
0.013248781
0.012801092
0.012419024
0.012093938
0.011817103
0.011580459
0.011376818
0.011199865
0.011043982
0.010904537
0.010777956
0.010661115
0.010551447
0.010447192
0.010346801
0.010248949
0.010152896
0.010058062
0.009963745
0.0098695361
0.0097752263
0.0096803282
0.0095845995
0.009488068
0.0093903995
0.0092915131
0.0091915109
0.0090901309
0.0089874581
0.0088835049
0.0087780809
0.0086714167
0.0085632416
0.0084535394
0.0083425816
0.0082300263
0.0081160633
0.0080005502
0.0078834533
0.0077649844
0.0076448433
0.0075231918
0.0073998056
0.0072748963
0.0071482762
0.0070199175
0.0068902592
0.0067588108
0.0066252081
0.0064892417
0.0063506055
0.0062094834
0.0060661632
0.005920804
0.0057734302
0.0056239511
0.0054723521
0.0053185703
0.0051626336
0.0050044937
0.0048441857
0.0046816664
0.0045169834
0.0043501022
0.0041810873
0.0040099245
0.0038367024
0.0036614634
0.0034842955
0.0033053619
0.0031247811
0.0029428825
0.0027598581
0.002576391
0.0023926333
0.0022104153
0.002028714
0.0018543304
0.0016781906
0.001530197
0.001358706
0.0012968475
0.0010883764
0.0018879899
-0.0017491598
0.027684862
0.026918594
0.026020245
0.024964344
0.023779102
0.022535283
0.021291046
0.020083558
0.018938862
0.017874999
0.016902114
0.016023989
0.015240234
0.014547684
0.013941105
0.013413774
0.012958064
0.012566218
0.012230312
0.011942287
0.011694555
0.011480252
0.011293268
0.01112816
0.01098035
0.010846213
0.010722621
0.010606975
0.0104974
0.010392297
0.010290304
0.010190574
0.010092452
0.0099952208
0.0098984121
0.0098017532
0.0097047682
0.0096071771
0.0095089481
0.009409768
0.0093095213
0.009208269
0.0091057726
0.0090020748
0.0088971793
0.0087909072
0.008683439
0.0085745429
0.0084641831
0.0083525925
0.0082394735
0.0081249783
0.0080089816
0.0078914481
0.0077725798
0.0076520757
0.0075300643
0.0074064047
0.0072811592
0.0071541602
0.0070254822
0.0068952495
0.0067631975
0.0066296186
0.0064943234
0.0063568665
0.0062170589
0.0060745734
0.0059295096
0.0057821685
0.0056326988
0.0054811498
0.0053274306
0.0051715392
0.0050134086
0.0048530724
0.0046904884
0.0045257106
0.004358708
0.0041895506
0.0040182263
0.0038448281
0.0036694001
0.0034920327
0.0033128915
0.0031320963
0.0029499779
0.0027667298
0.0025830336
0.0023990465
0.0022165855
0.0020346521
0.0018599856
0.0016836224
0.0015352165
0.0013634749
0.0013010007
0.0010920156
0.001889421
-0.0017382806
0.027115364