/*--------------------------------*- C++ -*----------------------------------*\
| =========                 |                                                 |
| \\      /  F ield         | OpenFOAM: The Open Source CFD Toolbox           |
|  \\    /   O peration     | Version:  2206                                  |
|   \\  /    A nd           | Website:  www.openfoam.com                      |
|    \\/     M anipulation  |                                                 |
\*---------------------------------------------------------------------------*/
FoamFile
{
    version     2.0;
    format      ascii;
    arch        "LSB;label=32;scalar=64";
    class       surfaceScalarField;
    location    "1600";
    object      phi;
}
// * * * * * * * * * * * * * * * * * * * * * * * * * * * * * * * * * * * * * //

dimensions      [0 3 -1 0 0 0 0];

oriented        oriented;

internalField   nonuniform List<scalar> 
14782
(
0.00064615666
7.5260573e-05
-0.00072141723
0.00055262643
9.3530227e-05
0.00046312296
8.9503475e-05
0.0003912456
7.1877363e-05
0.00034003775
5.1207848e-05
0.00030396764
3.6070109e-05
0.00027722593
2.674171e-05
0.00025610065
2.1125277e-05
0.00023860956
1.7491091e-05
0.00022386877
1.4740795e-05
0.00021140099
1.2467779e-05
0.0002008271
1.057389e-05
0.00019184745
8.9796446e-06
0.00018420806
7.6393952e-06
0.00017768405
6.5240121e-06
0.00017209446
5.5895886e-06
0.00016729065
4.8038074e-06
0.00016314849
4.1421633e-06
0.00015955826
3.5902278e-06
0.00015641008
3.1481821e-06
0.00015362929
2.7807839e-06
0.00015113855
2.4907478e-06
0.00014888066
2.2578876e-06
0.00014681659
2.0640628e-06
0.00014491419
1.902408e-06
0.00014314809
1.7660945e-06
0.00014149889
1.6492047e-06
0.00013994909
1.5497998e-06
0.00013848189
1.4671982e-06
0.00013708571
1.3961815e-06
0.00013575374
1.3319711e-06
0.00013447968
1.2740528e-06
0.00013325747
1.2222176e-06
0.00013208202
1.175448e-06
0.00013094874
1.1332784e-06
0.00012985235
1.0963949e-06
0.00012878855
1.0637927e-06
0.00012775485
1.0337051e-06
0.00012674814
1.0067097e-06
0.00012576597
9.8217215e-07
0.00012480634
9.5962987e-07
0.00012386716
9.3917879e-07
0.00012294729
9.1986834e-07
0.00012204556
9.0172494e-07
0.00012116071
8.8485618e-07
0.00012029189
8.6881702e-07
0.00011943776
8.5413507e-07
0.0001185973
8.404553e-07
0.00011776993
8.2736939e-07
0.00011695472
8.1521112e-07
0.00011615128
8.0344248e-07
0.00011535909
7.9218849e-07
0.00011457769
7.813984e-07
0.00011380681
7.7087688e-07
0.00011304588
7.6093602e-07
0.00011229466
7.5122184e-07
0.00011155273
7.4192726e-07
0.00011081967
7.3305781e-07
0.00011009513
7.2454348e-07
0.00010937886
7.1626285e-07
0.00010867085
7.0801822e-07
0.00010797081
7.0003304e-07
0.00010727862
6.9219303e-07
0.00010659406
6.8456272e-07
0.00010591699
6.7706295e-07
0.00010524723
6.6976334e-07
0.00010458455
6.6267771e-07
0.00010392881
6.5574521e-07
0.00010327988
6.4893195e-07
0.00010263765
6.4222942e-07
0.00010200197
6.3567133e-07
0.00010137275
6.2922474e-07
0.00010074987
6.2288358e-07
0.00010013324
6.1663036e-07
9.9522716e-05
6.1052021e-07
9.8918192e-05
6.0452402e-07
9.8319536e-05
5.9865608e-07
9.7726652e-05
5.9288403e-07
9.7139414e-05
5.8723745e-07
9.6557724e-05
5.8169039e-07
9.5981448e-05
5.7627602e-07
9.5410475e-05
5.709732e-07
9.4844671e-05
5.6580405e-07
9.4283885e-05
5.6078538e-07
9.372797e-05
5.5591543e-07
9.3176722e-05
5.5124817e-07
9.2629944e-05
5.4677777e-07
9.2087341e-05
5.4260296e-07
9.1548621e-05
5.3872051e-07
9.101328e-05
5.3534023e-07
9.0480864e-05
5.3241649e-07
8.9950252e-05
5.3061142e-07
8.9420919e-05
5.2933314e-07
8.8889375e-05
5.3154451e-07
8.83568e-05
5.3257497e-07
8.7807352e-05
5.4944786e-07
8.7256609e-05
5.5074331e-07
8.6608061e-05
6.4854745e-07
8.6349389e-05
2.5867219e-07
1.2034164e-06
0.00078826128
8.1452102e-05
-0.00079445281
0.00076959653
0.00011219497
0.0007347168
0.00012438321
0.00068744868
0.00011914548
0.00063536744
0.00010328909
0.00058575777
8.5679781e-05
0.0005420874
7.0412077e-05
0.0005049654
5.8247277e-05
0.00047367993
4.8776568e-05
0.00044727557
4.1145151e-05
0.00042486196
3.4881393e-05
0.00040570384
2.9732006e-05
0.00038925284
2.5430639e-05
0.00037508124
2.1811002e-05
0.00036283943
1.8765821e-05
0.00035223944
1.6189577e-05
0.00034302526
1.4017984e-05
0.00033497407
1.2193357e-05
0.00032789432
1.0669979e-05
0.00032162389
9.4186146e-06
0.00031602811
8.3765638e-06
0.000310988
7.5308519e-06
0.00030641
6.8358927e-06
0.00030222101
6.2530515e-06
0.00029836091
5.7625036e-06
0.00029478147
5.3455365e-06
0.00029144417
4.9865015e-06
0.00028831499
4.6789821e-06
0.0002853644
4.4177891e-06
0.00028256989
4.1906914e-06
0.00027991511
3.9867559e-06
0.00027738553
3.8036327e-06
0.00027496809
3.6396496e-06
0.00027265156
3.4919803e-06
0.0002704263
3.3585429e-06
0.00026828181
3.2408804e-06
0.00026620934
3.1362665e-06
0.00026420315
3.0398893e-06
0.00026225665
2.9532148e-06
0.00026036445
2.8743682e-06
0.00025852216
2.8019272e-06
0.00025672555
2.7357855e-06
0.00025497154
2.6738795e-06
0.00025325728
2.6159845e-06
0.00025158002
2.5621181e-06
0.00024993747
2.5113606e-06
0.00024832697
2.4646391e-06
0.00024674631
2.4211139e-06
0.00024519384
2.3798413e-06
0.00024366773
2.341323e-06
0.00024216674
2.3044334e-06
0.00024068961
2.269315e-06
0.00023923523
2.2357806e-06
0.0002378027
2.203406e-06
0.00023639089
2.1727395e-06
0.00023499906
2.1430588e-06
0.00023362626
2.1147238e-06
0.00023227158
2.0877427e-06
0.0002309342
2.0619171e-06
0.00022961357
2.0368964e-06
0.00022830934
2.012244e-06
0.00022702097
1.9884036e-06
0.000225748
1.9651613e-06
0.00022448997
1.9425989e-06
0.00022324649
1.9205456e-06
0.0002220171
1.8991485e-06
0.00022080134
1.878434e-06
0.00021959885
1.858241e-06
0.00021840931
1.8384731e-06
0.00021723243
1.8191082e-06
0.00021606789
1.8002082e-06
0.00021491542
1.7816969e-06
0.00021377476
1.76354e-06
0.00021264569
1.7457059e-06
0.0002115279
1.7283118e-06
0.00021042112
1.711296e-06
0.0002093251
1.6946751e-06
0.00020823961
1.6783811e-06
0.00020716438
1.6624681e-06
0.00020609918
1.6468851e-06
0.00020504376
1.6316989e-06
0.00020399786
1.6168679e-06
0.00020296123
1.6024413e-06
0.00020193355
1.5884607e-06
0.00020091453
1.574938e-06
0.00019990379
1.5619913e-06
0.00019890091
1.5496527e-06
0.00019790539
1.5381197e-06
0.00019691659
1.5275252e-06
0.00019593375
1.518178e-06
0.00019495562
1.5105468e-06
0.00019398104
1.5051887e-06
0.00019300706
1.5033179e-06
0.0001920316
1.5070064e-06
0.0001910477
1.5164765e-06
0.00019004524
1.5519061e-06
0.0001890133
1.5826763e-06
0.00018790414
1.7577117e-06
0.00018701372
1.1490879e-06
2.7580395e-06
0.00082999034
7.8074336e-05
-0.00082661257
0.00083425198
0.00010793333
0.00083526711
0.00012336808
0.00082841413
0.00012599845
0.00081019883
0.00012150439
0.00078259938
0.00011327924
0.00074992499
0.00010308647
0.00071574102
9.243125e-05
0.00068224039
8.227719e-05
0.0006507522
7.2633345e-05
0.00062192787
6.3705724e-05
0.00059597301
5.5686867e-05
0.00057284213
4.8561514e-05
0.00055232996
4.2323174e-05
0.00053416244
3.6933347e-05
0.00051806277
3.2289247e-05
0.00050376435
2.8316404e-05
0.00049102868
2.4929024e-05
0.00047964515
2.2053503e-05
0.00046943194
1.9631833e-05
0.00046022534
1.7583155e-05
0.00045188344
1.587276e-05
0.00044428529
1.4434036e-05
0.00043732851
1.3209838e-05
0.00043092503
1.2165978e-05
0.00042499855
1.127202e-05
0.00041948683
1.0498217e-05
0.00041433954
9.8262797e-06
0.00040951305
9.2442792e-06
0.00040497069
8.733043e-06
0.00040068145
8.2759974e-06
0.00039661834
7.866749e-06
0.00039275789
7.5001006e-06
0.00038908026
7.1696099e-06
0.00038556828
6.8705149e-06
0.00038220441
6.6047546e-06
0.00037897416
6.3665179e-06
0.00037586639
6.1476558e-06
0.00037286953
5.9500729e-06
0.00036997425
5.7696504e-06
0.00036717244
5.6037431e-06
0.0003644565
5.4517184e-06
0.00036182015
5.3102345e-06
0.00035925768
5.1784551e-06
0.00035676379
5.0560074e-06
0.00035433387
4.9412772e-06
0.00035196329
4.8352158e-06
0.00034964802
4.736385e-06
0.00034738467
4.6431936e-06
0.00034516991
4.5560853e-06
0.00034300102
4.4733184e-06
0.00034087543
4.394905e-06
0.00033879081
4.3204004e-06
0.00033674517
4.2490503e-06
0.00033473644
4.1814724e-06
0.00033276291
4.1165831e-06
0.00033082282
4.054817e-06
0.00032891447
3.9960888e-06
0.00032703639
3.9399968e-06
0.00032518736
3.885929e-06
0.0003233664
3.8332089e-06
0.00032157238
3.7824231e-06
0.00031980431
3.7332327e-06
0.00031806123
3.6856758e-06
0.0003163423
3.6394748e-06
0.00031464663
3.5948183e-06
0.00031297335
3.5517093e-06
0.00031132173
3.5098618e-06
0.00030969111
3.4691012e-06
0.00030808084
3.4293705e-06
0.00030649032
3.3907277e-06
0.00030491898
3.3530399e-06
0.00030336629
3.3162303e-06
0.00030183175
3.2802485e-06
0.00030031481
3.2452509e-06
0.00029881497
3.2111352e-06
0.00029733174
3.1779055e-06
0.00029586466
3.1454553e-06
0.00029441328
3.1138487e-06
0.00029297716
3.0830075e-06
0.00029155584
3.0530231e-06
0.00029014887
3.0238323e-06
0.00028875581
2.9955081e-06
0.00028737615
2.9681178e-06
0.00028600939
2.9416974e-06
0.00028465495
2.916428e-06
0.00028331219
2.8924171e-06
0.00028198036
2.8699444e-06
0.00028065848
2.8494069e-06
0.00027934558
2.8310759e-06
0.00027803967
2.816461e-06
0.00027673966
2.8051997e-06
0.00027544034
2.8026322e-06
0.00027414143
2.8059247e-06
0.00027282818
2.8297186e-06
0.00027149809
2.8820025e-06
0.00027011325
2.9675116e-06
0.00026868157
3.189391e-06
0.00026725465
2.5760148e-06
4.4321406e-06
0.00086037593
7.4498332e-05
-0.00085679993
0.00086652499
0.00010178427
0.0008725483
0.00011734478
0.00087679094
0.00012175581
0.00087822384
0.00012007149
0.00087540032
0.00011610276
0.00086707889
0.00011140789
0.00085296741
0.00010654273
0.00083393893
0.00010130567
0.00081167764
9.489464e-05
0.00078757108
8.7812284e-05
0.00076272646
8.0531478e-05
0.00073806612
7.3221862e-05
0.00071427933
6.6109964e-05
0.00069182789
5.9384783e-05
0.00067097207
5.3145064e-05
0.00065179717
4.7491312e-05
0.00063427128
4.2454906e-05
0.00061829148
3.8033303e-05
0.00060372716
3.4196153e-05
0.00059043983
3.0870492e-05
0.00057829715
2.801544e-05
0.00056717534
2.5555844e-05
0.00055695992
2.342526e-05
0.00054754585
2.1580041e-05
0.00053883716
1.9980711e-05
0.00053075115
1.8584231e-05
0.00052321935
1.7358076e-05
0.00051618117
1.6282463e-05
0.00050958318
1.5331028e-05
0.00050337865
1.4480532e-05
0.00049752659
1.3718805e-05
0.00049199072
1.3035977e-05
0.00048674017
1.2420157e-05
0.00048174837
1.1862312e-05
0.00047699133
1.1361794e-05
0.00047244784
1.0910015e-05
0.00046809902
1.0496471e-05
0.00046392796
1.0121136e-05
0.00045991975
9.777855e-06
0.00045606133
9.4621675e-06
0.00045234064
9.1724095e-06
0.0004487472
8.9036695e-06
0.00044527156
8.654097e-06
0.00044190498
8.4225896e-06
0.0004386399
8.2063598e-06
0.00043546915
8.0059628e-06
0.00043238625
7.8192815e-06
0.00042938561
7.6438382e-06
0.00042646189
7.4798047e-06
0.00042361045
7.3247621e-06
0.00042082692
7.1784289e-06
0.00041810737
7.0399563e-06
0.00041544834
6.908079e-06
0.00041284651
6.7833011e-06
0.00041029892
6.664168e-06
0.00040780268
6.5510559e-06
0.00040535515
6.4436204e-06
0.00040295398
6.3411699e-06
0.00040059706
6.242845e-06
0.00039828254
6.1477317e-06
0.00039600851
6.0564526e-06
0.00039377326
5.9684793e-06
0.0003915752
5.8837435e-06
0.00038941284
5.8018315e-06
0.00038728474
5.7229165e-06
0.00038518953
5.6469178e-06
0.00038312599
5.5734021e-06
0.00038109299
5.5021053e-06
0.00037908946
5.4329021e-06
0.00037711438
5.3658043e-06
0.00037516682
5.3006024e-06
0.00037324588
5.2371692e-06
0.00037135071
5.1754204e-06
0.00036948044
5.1155151e-06
0.00036763429
5.0572934e-06
0.00036581146
5.0007331e-06
0.00036401123
4.9456811e-06
0.00036223289
4.8921949e-06
0.00036047573
4.8401611e-06
0.00035873907
4.7896829e-06
0.00035702223
4.7406705e-06
0.00035532453
4.6932121e-06
0.00035364525
4.6473971e-06
0.00035198366
4.6032887e-06
0.00035033896
4.5611265e-06
0.00034871026
4.5211153e-06
0.0003470966
4.4836057e-06
0.00034549667
4.449337e-06
0.00034390928
4.4184641e-06
0.00034233188
4.3938605e-06
0.00034076332
4.3737663e-06
0.00033919689
4.3690593e-06
0.00033763319
4.3696265e-06
0.00033605264
4.4102708e-06
0.00033445701
4.477624e-06
0.00033279113
4.633398e-06
0.00033109721
4.8833132e-06
0.00032925252
4.4207025e-06
6.2153493e-06
0.00089038897
7.1454972e-05
-0.00088734561
0.00089622486
9.5948378e-05
0.0009025572
0.00011101244
0.00090790158
0.00011641143
0.00091167193
0.00011630114
0.00091421381
0.00011356087
0.00091532137
0.00011030033
0.00091459791
0.00010726619
0.00091174471
0.00010415888
0.0009057621
0.00010087725
0.00089623614
9.7338245e-05
0.00088329464
9.3472978e-05
0.00086756403
8.8952465e-05
0.0008497548
8.3919193e-05
0.00083050827
7.8631318e-05
0.00081046259
7.3190744e-05
0.00079022602
6.7727878e-05
0.00077032629
6.2354639e-05
0.00075116665
5.7192946e-05
0.00073301253
5.2350267e-05
0.00071599478
4.788825e-05
0.00070013892
4.3871296e-05
0.00068540773
4.0287031e-05
0.00067173458
3.7098413e-05
0.00065904164
3.4272986e-05
0.00064724781
3.1774537e-05
0.00063627327
2.9558772e-05
0.00062604215
2.7589198e-05
0.00061648253
2.5842076e-05
0.00060752937
2.4284195e-05
0.00059912468
2.2885221e-05
0.00059121588
2.1627605e-05
0.0005837552
2.0496651e-05
0.00057670086
1.9474505e-05
0.00057001565
1.854752e-05
0.00056366743
1.7710011e-05
0.00055762747
1.6949978e-05
0.0005518687
1.6255236e-05
0.00054636754
1.5622295e-05
0.000541103
1.5042397e-05
0.0005360562
1.4508969e-05
0.00053120962
1.401899e-05
0.00052654784
1.3565453e-05
0.00052205686
1.3145076e-05
0.00051772373
1.2755715e-05
0.00051353728
1.2392814e-05
0.00050948733
1.2055913e-05
0.00050556466
1.1741947e-05
0.00050176109
1.1447413e-05
0.00049806874
1.117215e-05
0.00049448058
1.0912927e-05
0.00049099009
1.0668916e-05
0.00048759135
1.04387e-05
0.0004842791
1.0220326e-05
0.00048104837
1.0014035e-05
0.00047789462
9.8179166e-06
0.00047481361
9.6320664e-06
0.00047180155
9.4556743e-06
0.00046885502
9.2876984e-06
0.00046597078
9.1270852e-06
0.00046314587
8.9726454e-06
0.00046037743
8.8248963e-06
0.00045766287
8.6830376e-06
0.00045499978
8.5468341e-06
0.00045238592
8.4156857e-06
0.00044981917
8.2896734e-06
0.00044729753
8.1685582e-06
0.00044481919
8.0517413e-06
0.00044238244
7.9388518e-06
0.00043998569
7.8296499e-06
0.00043762745
7.7240519e-06
0.0004353063
7.6217501e-06
0.0004330209
7.522562e-06
0.00043076999
7.4263401e-06
0.0004285523
7.3331996e-06
0.00042636669
7.2429012e-06
0.00042421204
7.1553814e-06
0.0004220873
7.0704273e-06
0.00041999142
6.9880705e-06
0.00041792343
6.9081496e-06
0.00041588235
6.830764e-06
0.00041386724
6.7557877e-06
0.00041187713
6.6833132e-06
0.00040991109
6.613444e-06
0.00040796811
6.5462678e-06
0.00040604716
6.482077e-06
0.00040414709
6.4211832e-06
0.00040226669
6.364002e-06
0.00040040437
6.3116592e-06
0.00039855868
6.2641563e-06
0.00039672663
6.2259151e-06
0.00039490685
6.1935367e-06
0.00039309168
6.1842307e-06
0.00039128194
6.1793709e-06
0.00038945512
6.2370904e-06
0.00038761492
6.3178208e-06
0.00038569545
6.552868e-06
0.00038375905
6.8197109e-06
0.00038155855
6.6212096e-06
8.1336838e-06
0.00092118823
6.878607e-05
-0.00091851933
0.00092640089
9.0735713e-05
0.00093222274
0.0001051906
0.0009373481
0.00011128607
0.00094145117
0.00011219807
0.00094445366
0.00011055838
0.00094658894
0.00010816506
0.00094807244
0.00010578269
0.00094903635
0.00010319496
0.00094934765
0.00010056595
0.00094868773
9.7998169e-05
0.00094676088
9.5399822e-05
0.00094294564
9.2767713e-05
0.00093678244
9.0082389e-05
0.00092806141
8.7352349e-05
0.00091689239
8.4359764e-05
0.00090360866
8.1011609e-05
0.00088854248
7.742082e-05
0.00087208707
7.3648354e-05
0.00085472376
6.9713577e-05
0.00083696831
6.56437e-05
0.00081929147
6.1548133e-05
0.00080207165
5.7506847e-05
0.0007855628
5.3607265e-05
0.00076989798
4.9937804e-05
0.00075511973
4.6552788e-05
0.00074121882
4.3459683e-05
0.00072816041
4.0647608e-05
0.00071589656
3.8105931e-05
0.00070437499
3.5805758e-05
0.0006935418
3.3718412e-05
0.00068334272
3.1826683e-05
0.00067372581
3.0113561e-05
0.00066464339
2.8556929e-05
0.00065605059
2.7140315e-05
0.00064790669
2.5853917e-05
0.00064017557
2.4681099e-05
0.0006328233
2.3607508e-05
0.00062581898
2.2626612e-05
0.00061913533
2.1726042e-05
0.00061274748
2.0896817e-05
0.00060663225
2.0134224e-05
0.00060076894
1.9428766e-05
0.00059513866
1.8775353e-05
0.00058972399
1.8170388e-05
0.0005845095
1.7607305e-05
0.00057948116
1.7084247e-05
0.0005746264
1.6596707e-05
0.0005699339
1.6139919e-05
0.00056539287
1.5713178e-05
0.00056099361
1.5312185e-05
0.00055672717
1.4935354e-05
0.00055258529
1.4580581e-05
0.00054856055
1.4245066e-05
0.00054464586
1.3928724e-05
0.00054083483
1.3628953e-05
0.00053712168
1.3345212e-05
0.00053350124
1.3076118e-05
0.00052996868
1.2820258e-05
0.00052651941
1.2576357e-05
0.00052314921
1.2342837e-05
0.00051985413
1.2119983e-05
0.00051663054
1.1906629e-05
0.00051347503
1.1702335e-05
0.00051038445
1.150627e-05
0.00050735582
1.13183e-05
0.00050438644
1.1137937e-05
0.00050147377
1.0964413e-05
0.00049861541
1.0797214e-05
0.00049580914
1.0635921e-05
0.00049305289
1.0480303e-05
0.0004903447
1.0329937e-05
0.00048768269
1.0184579e-05
0.00048506506
1.0043968e-05
0.00048249014
9.9081195e-06
0.00047995634
9.7766951e-06
0.00047746215
9.6495711e-06
0.00047500613
9.526455e-06
0.00047258687
9.4073312e-06
0.00047020304
9.2919719e-06
0.00046785335
9.1804552e-06
0.00046553653
9.0726046e-06
0.00046325135
8.9685029e-06
0.00046099653
8.8682566e-06
0.00045877083
8.7719704e-06
0.00045657292
8.6799821e-06
0.0004544014
8.5927114e-06
0.00045225476
8.5106347e-06
0.00045013113
8.4352886e-06
0.00044802879
8.3665051e-06
0.00044594434
8.3103621e-06
0.00044387617
8.2617057e-06
0.00044181587
8.244534e-06
0.00043976416
8.2310801e-06
0.00043769665
8.3045999e-06
0.00043561773
8.3967372e-06
0.00043345438
8.7162233e-06
0.00043128204
8.992046e-06
0.0004287541
9.1491507e-06
1.0205491e-05
0.00095296008
6.6417676e-05
-0.00095059168
0.00095761516
8.6080625e-05
0.00096295334
9.985242e-05
0.0009677316
0.00010650781
0.00097160271
0.00010832696
0.00097458208
0.00010757901
0.00097689833
0.0001058488
0.00097878373
0.00010389729
0.00098024611
0.00010173258
0.00098132687
9.9485195e-05
0.00098207721
9.724783e-05
0.0009825144
9.4962628e-05
0.00098257255
9.2709567e-05
0.00098206145
9.0593485e-05
0.0009808321
8.8581701e-05
0.00097850585
8.6686012e-05
0.00097460022
8.4917246e-05
0.00096882809
8.319295e-05
0.00096099424
8.1482202e-05
0.00095109998
7.9607834e-05
0.00093929091
7.7452777e-05
0.00092577251
7.506653e-05
0.00091087173
7.240763e-05
0.00089503186
6.9447134e-05
0.00087874088
6.6228784e-05
0.00086244468
6.2848983e-05
0.00084649128
5.9413089e-05
0.00083110449
5.6034396e-05
0.00081639638
5.2814039e-05
0.00080240703
4.9795113e-05
0.00078913753
4.698791e-05
0.00077656884
4.4395373e-05
0.00076467096
4.2011435e-05
0.00075340796
3.9819934e-05
0.0007427397
3.7808576e-05
0.00073262528
3.596833e-05
0.00072302633
3.428005e-05
0.00071390574
3.27281e-05
0.00070522795
3.1304406e-05
0.00069696052
2.9993471e-05
0.00068907349
2.8783844e-05
0.00068153876
2.7668955e-05
0.00067433076
2.6636766e-05
0.00066742588
2.5680236e-05
0.00066080228
2.4793984e-05
0.0006544402
2.3969392e-05
0.00064832126
2.3203181e-05
0.00064242893
2.2489036e-05
0.00063674829
2.1820562e-05
0.00063126532
2.1196145e-05
0.00062596737
2.0610143e-05
0.00062084268
2.0060035e-05
0.00061588045
1.9542818e-05
0.00061107082
1.9054691e-05
0.00060640445
1.8595095e-05
0.00060187284
1.816056e-05
0.00059746831
1.7749752e-05
0.00059318384
1.7360582e-05
0.00058901296
1.6991141e-05
0.00058494956
1.6639755e-05
0.00058098804
1.6304353e-05
0.00057712315
1.5984875e-05
0.00057335008
1.56797e-05
0.00056966424
1.5388179e-05
0.00056606133
1.5109179e-05
0.00056253747
1.4842156e-05
0.0005590891
1.458631e-05
0.0005557128
1.4340713e-05
0.00055240537
1.4104644e-05
0.00054916384
1.3877447e-05
0.00054598545
1.3658696e-05
0.00054286759
1.34478e-05
0.00053980775
1.3244417e-05
0.00053680358
1.3048136e-05
0.00053385287
1.2858827e-05
0.00053095354
1.2676025e-05
0.00052810359
1.2499519e-05
0.00052530114
1.2328909e-05
0.00052254436
1.2164109e-05
0.00051983153
1.2004802e-05
0.00051716097
1.1851022e-05
0.00051453104
1.1702526e-05
0.00051194018
1.1559369e-05
0.00050938679
1.1421646e-05
0.00050686929
1.1289468e-05
0.00050438607
1.1163207e-05
0.00050193539
1.1043388e-05
0.00049951548
1.0930542e-05
0.00049712414
1.0826629e-05
0.00049475934
1.0731305e-05
0.00049241734
1.0652369e-05
0.00049009618
1.0582861e-05
0.00048778688
1.0553838e-05
0.00048548987
1.0528088e-05
0.00048317943
1.0615038e-05
0.00048086004
1.0716131e-05
0.00047845346
1.1122801e-05
0.00047604498
1.1400529e-05
0.00047320073
1.1993398e-05
1.2444369e-05
0.00098587501
6.4319193e-05
-0.00098377653
0.00099003562
8.1920014e-05
0.00099495321
9.4934838e-05
0.00099947926
0.00010198175
0.0010031991
0.00010460717
0.0010061079
0.00010467014
0.0010083939
0.00010356285
0.0010102601
0.00010203105
0.0010117821
0.00010021059
0.0010130282
9.8239151e-05
0.0010140497
9.6226294e-05
0.0010148384
9.4173881e-05
0.0010153923
9.2155686e-05
0.0010157737
9.0212102e-05
0.0010159377
8.8417699e-05
0.0010158422
8.6781502e-05
0.0010154642
8.5295241e-05
0.0010146333
8.4023905e-05
0.0010131578
8.2957675e-05
0.0010107092
8.2056466e-05
0.0010069077
8.1254278e-05
0.0010014434
8.0530763e-05
0.0009941088
7.9742254e-05
0.00098484986
7.8706081e-05
0.0009737284
7.7350244e-05
0.00096093126
7.5646117e-05
0.00094680343
7.3540922e-05
0.00093180765
7.1030175e-05
0.00091642363
6.8198058e-05
0.00090106521
6.5153529e-05
0.00088602736
6.2025761e-05
0.00087148302
5.8939717e-05
0.00085751576
5.5978691e-05
0.00084415825
5.3177451e-05
0.00083141536
5.0551464e-05
0.00081927551
4.8108181e-05
0.00080771773
4.5837824e-05
0.00079671451
4.3731323e-05
0.00078623485
4.1784065e-05
0.0007762478
3.9980525e-05
0.00076672268
3.8308963e-05
0.00075762935
3.676228e-05
0.00074893951
3.5326613e-05
0.00074062623
3.3993511e-05
0.00073266416
3.2756055e-05
0.00072502989
3.1603657e-05
0.00071770131
3.0531768e-05
0.0007106581
2.953224e-05
0.00070388176
2.8596906e-05
0.00069735486
2.7723041e-05
0.00069106154
2.6903461e-05
0.00068498706
2.6134524e-05
0.00067911782
2.5412052e-05
0.00067344143
2.4731086e-05
0.00066794615
2.4090369e-05
0.00066262125
2.3485463e-05
0.00065745675
2.2914254e-05
0.00065244354
2.2373788e-05
0.00064757324
2.1861443e-05
0.00064283804
2.1374952e-05
0.00063823077
2.0911629e-05
0.00063374466
2.0470982e-05
0.00062937352
2.0050838e-05
0.00062511147
1.9650234e-05
0.000620953
1.9267649e-05
0.00061689309
1.8902061e-05
0.00061292713
1.8552276e-05
0.00060905072
1.8217122e-05
0.00060525975
1.7895613e-05
0.00060155038
1.7586817e-05
0.00059791901
1.7290059e-05
0.00059436231
1.7004508e-05
0.00059087706
1.6729666e-05
0.00058746026
1.6464935e-05
0.00058410908
1.6210002e-05
0.00058082087
1.5964243e-05
0.00057759306
1.5727321e-05
0.00057442327
1.5498701e-05
0.00057130919
1.5278192e-05
0.00056824863
1.5065363e-05
0.00056523947
1.4860182e-05
0.00056227968
1.4662313e-05
0.00055936728
1.4471766e-05
0.00055650033
1.4288606e-05
0.00055367686
1.4112933e-05
0.00055089492
1.3945143e-05
0.00054815245
1.3785857e-05
0.00054544734
1.3635653e-05
0.00054277705
1.3496918e-05
0.00054013923
1.3369132e-05
0.00053752975
1.326185e-05
0.00053494631
1.3166294e-05
0.00053237941
1.3120738e-05
0.0005298291
1.3078404e-05
0.00052726862
1.3175513e-05
0.00052470223
1.3282528e-05
0.00052204757
1.3777461e-05
0.00051939828
1.4049816e-05
0.00051623913
1.515255e-05
1.4862276e-05
0.0010199989
6.244399e-05
-0.0010181237
0.0010237112
7.8207717e-05
0.0010282316
9.0414408e-05
0.0010325384
9.7674962e-05
0.0010361738
0.00010097175
0.0010390743
0.00010176964
0.0010413744
0.00010126283
0.0010432428
0.00010016257
0.0010447683
9.8685123e-05
0.0010460216
9.6985847e-05
0.0010470585
9.5189445e-05
0.0010479018
9.333049e-05
0.0010485756
9.1481894e-05
0.0010490989
8.9688845e-05
0.0010494889
8.8027728e-05
0.0010497449
8.652549e-05
0.0010498797
8.5160379e-05
0.0010499009
8.4002795e-05
0.0010497881
8.307044e-05
0.0010495001
8.2344406e-05
0.0010489333
8.1821163e-05
0.0010479646
8.1499403e-05
0.0010463788
8.1328033e-05
0.0010438332
8.1251693e-05
0.0010399716
8.1211927e-05
0.0010344665
8.1151169e-05
0.0010271131
8.0894284e-05
0.0010178624
8.0280928e-05
0.0010067794
7.9281008e-05
0.00099410822
7.7824742e-05
0.00098026059
7.5873392e-05
0.00096572357
7.347674e-05
0.0009509513
7.0750954e-05
0.0009362921
6.783665e-05
0.00092196708
6.4876493e-05
0.00090809543
6.1979822e-05
0.00089473576
5.9197494e-05
0.00088191274
5.6554351e-05
0.00086963039
5.406641e-05
0.00085788011
5.1730803e-05
0.00084664454
4.9544534e-05
0.00083590128
4.750554e-05
0.0008256263
4.5601592e-05
0.00081579438
4.3825431e-05
0.00080638011
4.2170334e-05
0.00079735898
4.0624779e-05
0.00078870701
3.9183743e-05
0.00078040148
3.7837767e-05
0.00077242115
3.6577236e-05
0.00076474573
3.5398466e-05
0.00075735647
3.4292716e-05
0.0007502358
3.3255194e-05
0.00074336742
3.2280435e-05
0.00073673631
3.1362193e-05
0.00073032828
3.0498396e-05
0.00072413025
2.9683502e-05
0.00071812993
2.8914566e-05
0.00071231604
2.8187686e-05
0.00070667809
2.7499393e-05
0.00070120638
2.684666e-05
0.00069589196
2.6226047e-05
0.00069072639
2.5636549e-05
0.00068570191
2.507532e-05
0.00068081123
2.4540916e-05
0.00067604754
2.4031344e-05
0.00067140449
2.3545111e-05
0.00066687622
2.3080545e-05
0.00066245725
2.2636086e-05
0.00065814244
2.2210422e-05
0.00065392697
2.180229e-05
0.00064980632
2.1410715e-05
0.00064577626
2.1034564e-05
0.00064183281
2.0673112e-05
0.00063797222
2.0325527e-05
0.00063419095
1.9991273e-05
0.00063048567
1.9669524e-05
0.00062685321
1.935978e-05
0.00062329058
1.906133e-05
0.00061979493
1.8773847e-05
0.00061636354
1.8496755e-05
0.00061299379
1.8229924e-05
0.0006096832
1.7972904e-05
0.00060642934
1.7725633e-05
0.00060322982
1.7488124e-05
0.0006000823
1.7260452e-05
0.00059698442
1.7043016e-05
0.00059393376
1.6836522e-05
0.00059092782
1.6641587e-05
0.00058796372
1.6461023e-05
0.00058503872
1.6294131e-05
0.00058214833
1.6152241e-05
0.00057928986
1.6024769e-05
0.0005764533
1.5957292e-05
0.00057363825
1.589345e-05
0.00057081713
1.5996638e-05
0.00056799376
1.6105894e-05
0.0005650823
1.6688922e-05
0.00056218422
1.6947899e-05
0.00055870534
1.8631433e-05
1.7470947e-05
0.0010553367
6.0737843e-05
-0.0010536305
0.0010586545
7.4889838e-05
0.0010627912
8.6277729e-05
0.0010668705
9.3595673e-05
0.001070426
9.7416216e-05
0.0010733373
9.8858332e-05
0.0010756817
9.8918457e-05
0.0010775923
9.8252e-05
0.0010791545
9.7122949e-05
0.0010804355
9.5704827e-05
0.0010814902
9.4134763e-05
0.0010823498
9.2470849e-05
0.0010830446
9.078712e-05
0.0010835959
8.9137477e-05
0.0010840311
8.7592556e-05
0.0010843682
8.6188389e-05
0.0010846116
8.4917004e-05
0.0010847767
8.3837646e-05
0.0010848781
8.2969068e-05
0.0010849121
8.2310377e-05
0.0010848793
8.1853969e-05
0.0010847798
8.1598915e-05
0.0010845715
8.1536341e-05
0.0010841876
8.1635627e-05
0.0010835253
8.1874209e-05
0.001082445
8.2231422e-05
0.0010806736
8.2665703e-05
0.0010778391
8.3115465e-05
0.0010735811
8.3538975e-05
0.0010675971
8.3808739e-05
0.0010597224
8.3748144e-05
0.0010499369
8.3262254e-05
0.0010384042
8.2283645e-05
0.0010254864
8.075446e-05
0.0010116642
7.8698691e-05
0.00099741401
7.6229979e-05
0.00098311801
7.3493491e-05
0.0009690288
7.0643567e-05
0.0009552906
6.7804607e-05
0.00094198135
6.5040054e-05
0.00092914087
6.2385006e-05
0.00091678546
5.9860957e-05
0.00090491643
5.7470621e-05
0.00089352461
5.5217249e-05
0.00088259474
5.3100201e-05
0.00087210861
5.1110913e-05
0.0008620456
4.9246748e-05
0.00085238448
4.7498885e-05
0.00084310407
4.5857653e-05
0.00083418316
4.4319376e-05
0.00082560159
4.287429e-05
0.00081733994
4.1516843e-05
0.00080937988
4.024049e-05
0.00080170427
3.9037806e-05
0.0007942967
3.7905965e-05
0.00078714192
3.6838281e-05
0.00078022552
3.5830969e-05
0.00077353405
3.4879155e-05
0.00076705497
3.3978472e-05
0.00076077659
3.3125041e-05
0.00075468808
3.2314551e-05
0.00074877924
3.1545392e-05
0.00074304061
3.0813955e-05
0.00073746334
3.0118187e-05
0.00073203918
2.9455504e-05
0.00072676038
2.8823904e-05
0.00072161975
2.8221178e-05
0.00071661056
2.7645276e-05
0.00071172651
2.7094472e-05
0.00070696169
2.6567108e-05
0.00070231055
2.6061852e-05
0.00069776791
2.557721e-05
0.00069332887
2.5112152e-05
0.00068898884
2.4665557e-05
0.00068474348
2.423663e-05
0.00068058871
2.3824289e-05
0.00067652067
2.3427824e-05
0.00067253569
2.3046308e-05
0.0006686303
2.2679243e-05
0.00066480118
2.232587e-05
0.00066104517
2.1985932e-05
0.00065735924
2.1658833e-05
0.00065374046
2.1344411e-05
0.00065018598
2.1042605e-05
0.000646693
2.0753439e-05
0.00064325871
2.0477299e-05
0.00063988028
2.0214958e-05
0.0006365548
1.9967062e-05
0.00063327899
1.9736838e-05
0.00063004971
1.9523409e-05
0.00062686206
1.933989e-05
0.00062371292
1.9173905e-05
0.00062059183
1.9078385e-05
0.00061749786
1.8987426e-05
0.00061440266
1.9091835e-05
0.0006113096
1.9198956e-05
0.00060812962
1.9868902e-05
0.00060497202
2.0105494e-05
0.00060116412
2.2439337e-05
2.0282557e-05
0.0010918804
5.9155361e-05
-0.0010902979
0.0010948649
7.1905387e-05
0.0010986426
8.2499976e-05
0.0011024813
8.9757008e-05
0.0011059362
9.3961269e-05
0.0011088473
9.5947261e-05
0.0011112385
9.6527204e-05
0.0011132054
9.6285113e-05
0.0011148226
9.5505779e-05
0.0011161517
9.4375733e-05
0.0011172452
9.3041245e-05
0.0011181374
9.1578686e-05
0.0011188593
9.0065176e-05
0.0011194353
8.8561503e-05
0.0011198926
8.7135294e-05
0.0011202532
8.5827802e-05
0.0011205272
8.4642977e-05
0.0011207331
8.3631724e-05
0.001120886
8.2816123e-05
0.001120995
8.2201379e-05
0.001121064
8.1784999e-05
0.0011211027
8.1560211e-05
0.0011211129
8.1526154e-05
0.0011210886
8.1659971e-05
0.0011210177
8.1945106e-05
0.0011208729
8.2376146e-05
0.001120608
8.293063e-05
0.0011201394
8.3584117e-05
0.0011193509
8.4327463e-05
0.0011180286
8.5130982e-05
0.0011158345
8.594231e-05
0.0011123842
8.6712548e-05
0.0011073153
8.7352528e-05
0.0011003811
8.7688601e-05
0.0010914985
8.7581315e-05
0.0010807738
8.6954675e-05
0.0010685346
8.5732728e-05
0.0010552555
8.3922702e-05
0.0010414247
8.1635336e-05
0.0010274412
7.9023623e-05
0.0010135723
7.6253818e-05
0.00099997601
7.3457288e-05
0.00098674224
7.0704394e-05
0.00097392111
6.8038375e-05
0.00096153768
6.548363e-05
0.0009496006
6.3047994e-05
0.00093810689
6.0740457e-05
0.00092704696
5.8558821e-05
0.00091640703
5.6497584e-05