/*--------------------------------*- C++ -*----------------------------------*\
| =========                 |                                                 |
| \\      /  F ield         | OpenFOAM: The Open Source CFD Toolbox           |
|  \\    /   O peration     | Version:  2206                                  |
|   \\  /    A nd           | Website:  www.openfoam.com                      |
|    \\/     M anipulation  |                                                 |
\*---------------------------------------------------------------------------*/
FoamFile
{
    version     2.0;
    format      ascii;
    arch        "LSB;label=32;scalar=64";
    class       volVectorField;
    location    "1600";
    object      U;
}
// * * * * * * * * * * * * * * * * * * * * * * * * * * * * * * * * * * * * * //

dimensions      [0 1 -1 0 0 0 0];

internalField   nonuniform List<vector> 
7480
(
(0.86077314 0.014767486 5.8345312e-16)
(0.74497565 0.025621594 0)
(0.62910078 0.027253578 0)
(0.52584335 0.019480473 0)
(0.45023449 0.0094024218 0)
(0.3980531 0.0037520737 0)
(0.36035593 0.0017199904 0)
(0.33125609 0.0012087766 0)
(0.30756156 0.0010854565 0)
(0.28767316 0.00096787765 0)
(0.2708417 0.00081783304 0)
(0.25658406 0.00067147796 0)
(0.24448591 0.00054362161 0)
(0.2342014 0.00043815917 0)
(0.22543683 0.00035447868 0)
(0.21793587 0.00028720755 0)
(0.21149859 0.00023273984 0)
(0.20596068 0.00018641891 0)
(0.20116463 0.00019849133 -5.8322361e-18)
(0.19700647 0.00028154968 -1.6474744e-17)
(0.19333092 0.00013498299 0)
(0.19005965 9.0659491e-05 0)
(0.18711409 7.7626697e-05 0)
(0.18443006 6.904594e-05 0)
(0.18196542 6.170568e-05 0)
(0.17968385 5.5463592e-05 0)
(0.17756016 5.0169854e-05 0)
(0.17557036 4.5850727e-05 0)
(0.17369297 4.2451449e-05 0)
(0.17190963 3.9545797e-05 0)
(0.17020992 3.6840326e-05 0)
(0.16858642 3.4393598e-05 0)
(0.16703101 3.2217223e-05 0)
(0.16553718 3.0252949e-05 0)
(0.16409807 2.8491555e-05 0)
(0.1627094 2.6967799e-05 0)
(0.16136238 2.56031e-05 0)
(0.16005482 2.4314357e-05 0)
(0.15878291 2.3158113e-05 0)
(0.15754284 2.2091291e-05 0)
(0.15633206 2.1097998e-05 0)
(0.15514796 2.018879e-05 0)
(0.15398853 1.9313627e-05 0)
(0.15285249 1.8483891e-05 0)
(0.15173818 1.7707233e-05 0)
(0.15064449 1.696068e-05 0)
(0.14956995 1.6271167e-05 0)
(0.14851295 1.5619265e-05 0)
(0.14747266 1.4989695e-05 0)
(0.14644806 1.4400702e-05 0)
(0.14543833 1.3827995e-05 0)
(0.14444299 1.3280331e-05 0)
(0.14346133 1.2756102e-05 0)
(0.14249302 1.2247732e-05 0)
(0.14153743 1.1768045e-05 0)
(0.14059409 1.1302407e-05 0)
(0.13966265 1.0858828e-05 0)
(0.13874253 1.0435772e-05 0)
(0.13783321 1.003077e-05 0)
(0.13693431 9.6413837e-06 0)
(0.13604573 9.2620464e-06 0)
(0.13516731 8.8997132e-06 0)
(0.13429874 8.5495312e-06 0)
(0.13343982 8.2138988e-06 0)
(0.13259033 7.8901477e-06 0)
(0.1317501 7.5797839e-06 0)
(0.13091883 7.2824109e-06 0)
(0.13009629 6.996479e-06 0)
(0.12928232 6.7212786e-06 0)
(0.12847679 6.4563428e-06 0)
(0.12767953 6.2021363e-06 0)
(0.12689037 5.9575526e-06 0)
(0.12610919 5.7224393e-06 0)
(0.12533588 5.4960321e-06 0)
(0.12457028 5.2790666e-06 0)
(0.12381223 5.0705218e-06 0)
(0.12306158 4.8705303e-06 0)
(0.12231819 4.6781515e-06 0)
(0.12158193 4.4937178e-06 0)
(0.12085265 4.3163985e-06 0)
(0.12013021 4.1464894e-06 0)
(0.11941445 3.9833029e-06 0)
(0.11870524 3.8268683e-06 0)
(0.11800238 3.6770658e-06 0)
(0.1173057 3.5334001e-06 0)
(0.11661497 3.396319e-06 0)
(0.11592997 3.2649205e-06 0)
(0.11525033 3.1404209e-06 0)
(0.11457584 3.0208447e-06 0)
(0.11390569 2.9101743e-06 0)
(0.11324003 2.8012175e-06 0)
(0.11257626 2.7108113e-06 0)
(0.11191706 2.6057651e-06 0)
(0.11125205 2.5619004e-06 0)
(0.11059663 2.4279987e-06 0)
(0.10990927 2.534829e-06 0)
(0.10925043 2.2255668e-06 -3.785613e-21)
(0.10847908 6.2310268e-06 7.1277241e-20)
(0.10787861 -1.7251771e-06 -3.2249575e-19)
(0.10670547 1.2385285e-05 -1.1192355e-18)
(0.95768381 0.024838888 0)
(0.94369683 0.032456167 0)
(0.91263517 0.032568251 0)
(0.86111886 0.028749296 0)
(0.79839869 0.022906788 0)
(0.73548538 0.017271242 0)
(0.67867142 0.012884615 0)
(0.62997558 0.0098214287 0)
(0.58900173 0.0077453577 0)
(0.5545172 0.0062557823 0)
(0.52532318 0.0051169569 0)
(0.50044037 0.0042189898 0)
(0.47910854 0.0034899465 0)
(0.46075405 0.0028915242 0)
(0.44491528 0.002400592 0)
(0.43121894 0.00199615 0)
(0.41933926 0.0016649368 0)
(0.40898785 0.0013952194 0)
(0.39991207 0.0011767902 0)
(0.39190328 0.00099773783 0)
(0.38478183 0.00084999884 0)
(0.3783959 0.00074452029 0)
(0.37261735 0.00065578264 0)
(0.36734665 0.00058129913 0)
(0.36250622 0.00051958534 0)
(0.3580286 0.00046781809 0)
(0.3538661 0.00042368586 0)
(0.34997291 0.00038620702 0)
(0.34631135 0.00035456842 0)
(0.34284946 0.00032719195 0)
(0.33956499 0.00030275281 0)
(0.33644004 0.00028090634 0)
(0.33345761 0.00026139768 0)
(0.33060363 0.00024387866 0)
(0.32786443 0.00022809512 0)
(0.32523072 0.0002140936 0)
(0.3226865 0.00020154479 0)
(0.32022645 0.0001900036 0)
(0.31784227 0.00017955072 0)
(0.31552638 0.00016998095 0)
(0.31327323 0.00016115842 0)
(0.31107757 0.00015304436 0)
(0.30893497 0.00014546029 0)
(0.30684205 0.00013837216 0)
(0.3047953 0.00013176175 0)
(0.30279191 0.00012554973 0)
(0.30082876 0.00011977768 0)
(0.29890276 0.00011437349 0)
(0.29701176 0.00010926767 0)
(0.2951536 0.00010447832 0)
(0.29332643 9.9929191e-05 0)
(0.29152884 9.5619375e-05 0)
(0.28975927 9.1530247e-05 0)
(0.28801668 8.7632532e-05 0)
(0.28629973 8.3946461e-05 0)
(0.28460732 8.0428203e-05 0)
(0.28293849 7.7087451e-05 0)
(0.28129208 7.391708e-05 0)
(0.27966698 7.0901947e-05 0)
(0.27806233 6.8021948e-05 0)
(0.27647772 6.5254571e-05 0)
(0.27491261 6.2613243e-05 0)
(0.27336636 6.0084466e-05 0)
(0.27183839 5.7667433e-05 0)
(0.27032822 5.5351705e-05 0)
(0.26883538 5.3138237e-05 0)
(0.26735925 5.1023714e-05 0)
(0.26589933 4.8999195e-05 0)
(0.26445522 4.705832e-05 0)
(0.26302658 4.5197229e-05 0)
(0.26161303 4.3414736e-05 0)
(0.26021421 4.1705592e-05 0)
(0.25882979 4.0066123e-05 0)
(0.25745951 3.8492705e-05 0)
(0.25610304 3.6985787e-05 0)
(0.25476003 3.5541119e-05 0)
(0.25343015 3.4156696e-05 0)
(0.25211312 3.2828473e-05 0)
(0.25080863 3.1555511e-05 0)
(0.24951641 3.0334399e-05 0)
(0.24823614 2.9164492e-05 0)
(0.24696752 2.804277e-05 0)
(0.24571026 2.6968217e-05 0)
(0.24446399 2.5939585e-05 0)
(0.24322838 2.4954976e-05 0)
(0.24200298 2.4014574e-05 0)
(0.24078739 2.3116545e-05 0)
(0.23958093 2.2262353e-05 0)
(0.23838319 2.1450902e-05 0)
(0.23719275 2.0685892e-05 0)
(0.23600977 1.9967795e-05 0)
(0.23482985 1.9308024e-05 0)
(0.23365722 1.8703291e-05 0)
(0.23247467 1.8206593e-05 0)
(0.23130695 1.7747024e-05 0)
(0.23008583 1.7688001e-05 0)
(0.22890863 1.7376532e-05 6.7923056e-21)
(0.22754206 1.929117e-05 0)
(0.22645406 9.7601859e-06 0)
(0.22436708 3.1130625e-05 0)
(0.96674723 0.026232578 0)
(0.97160065 0.035063456 0)
(0.97657922 0.038600948 0)
(0.97536355 0.037475939 0)
(0.96077517 0.03425883 0)
(0.93265803 0.029922966 0)
(0.89606385 0.025232936 0)
(0.85611837 0.020845896 0)
(0.81607705 0.017128961 0)
(0.77786519 0.014077524 0)
(0.74253474 0.011599697 0)
(0.71053843 0.0096038069 0)
(0.68192841 0.0079831224 0)
(0.65652654 0.0066598368 0)
(0.63402834 0.0055793622 0)
(0.61410451 0.004693269 0)
(0.5964326 0.0039651747 0)
(0.58071595 0.0033655288 0)
(0.56669214 0.0028708638 0)
(0.55413251 0.002463984 0)
(0.54283902 0.0021345771 0)
(0.53263097 0.0018662146 0)
(0.52335586 0.0016439113 0)
(0.51488457 0.0014587427 0)
(0.50710694 0.0013037109 0)
(0.4999272 0.0011728985 0)
(0.49326375 0.0010610851 0)
(0.48705257 0.00096505234 0)
(0.48123917 0.0008826939 0)
(0.47577747 0.00081100544 0)
(0.47062789 0.00074748074 0)
(0.46575702 0.00069098795 0)
(0.46113543 0.00064065818 0)
(0.45673808 0.00059555709 0)
(0.45254325 0.00055498387 0)
(0.44853277 0.00051890751 0)
(0.44468384 0.00048654456 0)
(0.44098536 0.0004569603 0)
(0.43742249 0.00043016671 0)
(0.43398316 0.00040569355 0)
(0.43065749 0.00038320995 0)
(0.42743632 0.00036256613 0)
(0.42431146 0.00034340913 0)
(0.42127609 0.00032560918 0)
(0.41832373 0.00030907687 0)
(0.41544873 0.00029363982 0)
(0.41264565 0.00027931739 0)
(0.40990931 0.00026595846 0)
(0.4072355 0.00025341363 0)
(0.40462028 0.00024167488 0)
(0.40206012 0.00023059645 0)
(0.39955201 0.00022015087 0)
(0.39709299 0.00021028561 0)
(0.39468067 0.00020093426 0)
(0.39231259 0.00019210983 0)
(0.38998661 0.00018373029 0)
(0.38770073 0.00017579875 0)
(0.38545287 0.0001682921 0)
(0.38324116 0.00016117288 0)
(0.381064 0.00015439568 0)
(0.3789202 0.00014791522 0)
(0.37680856 0.00014174583 0)
(0.37472777 0.00013585996 0)
(0.37267672 0.0001302482 0)
(0.37065436 0.00012488794 0)
(0.36865971 0.00011977597 0)
(0.3666917 0.00011490213 0)
(0.36474938 0.00011024618 0)
(0.36283196 0.000105793 0)
(0.3609387 0.00010153245 0)
(0.35906886 9.7458907e-05 0)
(0.35722174 9.3560422e-05 0)
(0.3553967 8.9827536e-05 0)
(0.35359318 8.6251912e-05 0)
(0.35181053 8.2831877e-05 0)
(0.35004815 7.9558082e-05 0)
(0.34830545 7.6424695e-05 0)
(0.34658189 7.3423022e-05 0)
(0.34487693 7.0549411e-05 0)
(0.34319006 6.7796543e-05 0)
(0.34152074 6.5161662e-05 0)
(0.33986845 6.2638274e-05 0)
(0.33823268 6.0223319e-05 0)
(0.33661286 5.791355e-05 0)
(0.33500843 5.570494e-05 0)
(0.33341873 5.3596701e-05 0)
(0.33184311 5.1585805e-05 0)
(0.33028064 4.9673233e-05 0)
(0.32873064 4.7859833e-05 0)
(0.32719125 4.6146984e-05 0)
(0.3256625 4.4549148e-05 0)
(0.32413877 4.306261e-05 0)
(0.32262516 4.1741662e-05 0)
(0.32109993 4.0573152e-05 0)
(0.31959366 3.9669664e-05 0)
(0.31802107 3.9288837e-05 0)
(0.31650208 3.9099067e-05 4.9985952e-21)
(0.31474516 4.1302077e-05 0)
(0.31332267 2.9528263e-05 0)
(0.31065072 5.7325787e-05 -8.9630392e-21)
(0.96975065 0.024384529 0)
(0.97527075 0.032514898 0)
(0.98325897 0.036266119 0)
(0.98986074 0.03653217 0)
(0.99340278 0.034773053 0)
(0.99306247 0.032299625 0)
(0.98687212 0.029676464 0)
(0.9740539 0.027059239 0)
(0.9547673 0.024401997 0)
(0.93096144 0.021561487 0)
(0.90438168 0.018744289 0)
(0.87640892 0.016127721 0)
(0.84819401 0.013792195 0)
(0.82064564 0.011763734 0)
(0.79441285 0.010024869 0)
(0.76989429 0.0085446929 0)
(0.74727062 0.0072966858 0)
(0.7265561 0.0062510656 0)
(0.70766022 0.0053822728 0)
(0.69044025 0.0046642423 0)
(0.674742 0.0040677136 0)
(0.6604091 0.003571398 0)
(0.64729708 0.0031554387 0)
(0.63527158 0.0028035454 0)
(0.62420766 0.0025049148 0)
(0.61399278 0.0022505518 0)
(0.60452314 0.0020320628 0)
(0.5957153 0.0018433814 0)
(0.58749735 0.0016801795 0)
(0.57980531 0.0015376174 0)
(0.57258233 0.001411658 0)
(0.56577917 0.0013000323 0)
(0.5593527 0.0012008899 0)
(0.55326425 0.0011123081 0)
(0.54748246 0.0010327804 0)
(0.54197871 0.000961751 0)
(0.53672761 0.00089798098 0)
(0.53170638 0.00084002987 0)
(0.52689525 0.00078756687 0)
(0.5222759 0.00073980105 0)
(0.5178328 0.0006960818 0)
(0.51355186 0.00065605219 0)
(0.50942025 0.00061911853 0)
(0.50542688 0.00058498287 0)
(0.50156146 0.00055342061 0)
(0.49781474 0.00052410052 0)
(0.49417863 0.00049696133 0)
(0.49064519 0.00047174295 0)
(0.48720771 0.00044817899 0)
(0.48386008 0.0004261994 0)
(0.48059661 0.00040556881 0)
(0.47741231 0.00038620696 0)
(0.47430238 0.00036800341 0)
(0.47126274 0.00035083186 0)
(0.46828955 0.00033467486 0)
(0.46537931 0.00031940294 0)
(0.46252871 0.00030499714 0)
(0.45973456 0.00029140151 0)
(0.45699407 0.00027854395 0)
(0.45430471 0.00026634707 0)
(0.45166432 0.00025473731 0)
(0.44907077 0.00024371897 0)
(0.44652197 0.00023324275 0)
(0.44401607 0.00022328257 0)
(0.44155134 0.00021379817 0)
(0.43912618 0.00020477622 0)
(0.43673891 0.00019619372 0)
(0.43438811 0.00018801474 0)
(0.43207244 0.00018021186 0)
(0.42979069 0.00017276479 0)
(0.42754165 0.00016565924 0)
(0.42532424 0.0001588735 0)
(0.42313741 0.00015238969 0)
(0.42098021 0.00014619236 0)
(0.41885163 0.00014027466 0)
(0.41675076 0.00013461988 0)
(0.41467668 0.00012921622 0)
(0.41262856 0.00012404862 0)
(0.41060558 0.00011910877 0)
(0.40860694 0.00011438392 0)
(0.40663187 0.00010986758 0)
(0.40467958 0.0001055485 0)
(0.40274932 0.00010142027 0)
(0.40084029 9.7476487e-05 0)
(0.3989517 9.3710152e-05 0)
(0.39708264 9.0118393e-05 0)
(0.39523226 8.6696725e-05 0)
(0.39339935 8.3444317e-05 0)
(0.39158301 8.0365266e-05 0)
(0.38978102 7.7455239e-05 0)
(0.38799324 7.475041e-05 0)
(0.3862133 7.2217478e-05 0)
(0.38444653 7.0003462e-05 0)
(0.38266895 6.7965416e-05 0)
(0.38091336 6.653968e-05 0)
(0.37908671 6.5645675e-05 0)
(0.37731782 6.5773155e-05 3.8035185e-21)
(0.37528802 6.7854677e-05 0)
(0.37361448 5.6571369e-05 0)
(0.37053489 8.4844947e-05 6.9524721e-21)
(0.97169741 0.023225746 0)
(0.97663294 0.030473548 0)
(0.98397472 0.034211606 0)
(0.99104553 0.034688539 0)
(0.99618211 0.033409324 0)
(0.99928059 0.03153977 0)
(1.0017326 0.029655124 0)
(1.0016051 0.027906111 0)
(1.000026 0.026222066 0)
(0.99534455 0.02448804 0)
(0.9868718 0.02268669 0)
(0.97442129 0.020827272 0)
(0.9584994 0.018857501 0)
(0.93995189 0.016855215 0)
(0.91949263 0.014923425 0)
(0.89781092 0.013125409 0)
(0.87561098 0.011507466 0)
(0.8535239 0.010066326 0)
(0.83206723 0.0087991787 0)
(0.81160618 0.0077007254 0)
(0.79235276 0.0067556989 0)
(0.77438008 0.0059531398 0)
(0.75766969 0.0052736909 0)
(0.74215772 0.0046955386 0)
(0.72776148 0.0042010194 0)
(0.71439351 0.0037757051 0)
(0.70196431 0.003407006 0)
(0.69038806 0.0030858007 0)
(0.67958402 0.0028058725 0)
(0.66947672 0.0025603392 0)
(0.65999911 0.0023433823 0)
(0.65109106 0.0021512085 0)
(0.64269792 0.0019806094 0)
(0.63477006 0.0018283781 0)
(0.62726541 0.001692004 0)
(0.62014474 0.0015700814 0)
(0.61337733 0.0014605289 0)
(0.60693072 0.0013613312 0)
(0.60077825 0.0012716627 0)
(0.59489523 0.0011901524 0)
(0.58926022 0.0011157747 0)
(0.58385332 0.0010478725 0)
(0.5786564 0.00098550199 0)
(0.57365363 0.00092810554 0)
(0.56883026 0.00087524942 0)
(0.56417288 0.00082635617 0)
(0.55967021 0.00078119377 0)
(0.55531147 0.0007393424 0)
(0.55108728 0.00070038951 0)
(0.54698892 0.00066417358 0)
(0.54300815 0.00063033801 0)
(0.53913764 0.00059871128 0)
(0.53537054 0.00056909582 0)
(0.53170077 0.00054127841 0)
(0.5281228 0.00051518631 0)
(0.52463143 0.00049062488 0)
(0.52122184 0.00046752873 0)
(0.5178896 0.00044578731 0)
(0.51463087 0.00042528117 0)
(0.51144197 0.00040589543 0)
(0.50831954 0.00038751859 0)
(0.50526039 0.00037013056 0)
(0.50226154 0.00035364974 0)
(0.49932026 0.00033802407 0)
(0.49643402 0.00032318819 0)
(0.49360045 0.00030911073 0)
(0.49081726 0.00029574832 0)
(0.4880824 0.00028304433 0)
(0.48539395 0.00027095465 0)
(0.4827501 0.00025944354 0)
(0.48014915 0.00024848304 0)
(0.47758954 0.00023803798 0)
(0.47506976 0.00022807916 0)
(0.47258839 0.00021858055 0)
(0.47014403 0.00020952626 0)
(0.46773538 0.00020088939 0)
(0.46536119 0.00019264974 0)
(0.46302029 0.00018478367 0)
(0.46071152 0.00017727591 0)
(0.4584338 0.00017010637 0)
(0.45618604 0.00016326289 0)
(0.45396719 0.00015672786 0)
(0.45177624 0.0001504899 0)
(0.44961212 0.00014453812 0)
(0.4474738 0.00013886134 0)
(0.44536015 0.00013345338 0)
(0.44327004 0.00012830761 0)
(0.44120204 0.00012342016 0)
(0.439155 0.00011879879 0)
(0.43712644 0.00011443111 0)
(0.43511595 0.00011037953 0)
(0.43311678 0.00010657239 0)
(0.43113403 0.00010327088 0)
(0.42914281 0.00010016472 0)
(0.42717613 9.8098335e-05 0)
(0.4251383 9.6518982e-05 0)
(0.42315968 9.704223e-05 3.1119411e-21)
(0.42091122 9.8577091e-05 5.7346016e-20)
(0.41902686 8.9853346e-05 0)
(0.41561691 0.00011423427 0)
(0.97316012 0.022368235 0)
(0.97760255 0.028801214 0)
(0.98393962 0.032360303 0)
(0.99013494 0.033098111 0)
(0.99513586 0.032262226 0)
(0.99887752 0.030746828 0)
(1.0014968 0.029102963 0)
(1.0033493 0.027562923 0)
(1.0045452 0.026057498 0)
(1.0054098 0.024601129 0)
(1.0051863 0.023218862 0)
(1.0039785 0.021889294 0)
(1.0010893 0.020576683 0)
(0.99585852 0.019263105 0)
(0.98799924 0.017957714 0)
(0.97734356 0.016607358 0)
(0.96430241 0.015201725 0)
(0.94918406 0.013808204 0)
(0.93236638 0.012462162 0)
(0.91431441 0.011197192 0)
(0.89558254 0.010031129 0)
(0.87670712 0.008970928 0)
(0.85814999 0.0080174829 0)
(0.8402478 0.0071699588 0)
(0.82319913 0.0064259923 0)
(0.8070859 0.0057791708 0)
(0.79191563 0.005217108 0)
(0.77765982 0.004726095 0)
(0.76427243 0.0042955909 0)
(0.75169914 0.0039155072 0)
(0.73988311 0.0035779782 0)
(0.72876657 0.0032779656 0)
(0.71829267 0.0030110619 0)
(0.70840848 0.0027726638 0)
(0.69906565 0.0025591107 0)
(0.69021759 0.0023678679 0)
(0.68182507 0.0021958831 0)
(0.67385056 0.0020404963 0)
(0.66625976 0.0019001148 0)
(0.6590219 0.0017727138 0)
(0.65210974 0.0016567113 0)
(0.64549784 0.0015510186 0)
(0.63916286 0.0014542456 0)
(0.6330841 0.0013654727 0)
(0.62724231 0.0012839629 0)
(0.62162002 0.0012088209 0)
(0.61620184 0.0011395741 0)
(0.61097364 0.0010755734 0)
(0.60592292 0.0010161972 0)
(0.60103806 0.00096114272 0)
(0.59630808 0.00090989095 0)
(0.59172327 0.00086214439 0)
(0.58727445 0.00081758847 0)
(0.58295335 0.00077589036 0)
(0.57875243 0.0007368989 0)
(0.57466436 0.0007003247 0)
(0.57068283 0.00066602221 0)
(0.566802 0.00063380775 0)
(0.56301671 0.00060350219 0)
(0.55932192 0.00057494134 0)
(0.55571299 0.00054796177 0)
(0.55218558 0.00052250398 0)
(0.54873567 0.00049844123 0)
(0.5453596 0.00047568676 0)
(0.54205387 0.00045414192 0)
(0.53881522 0.00043374576 0)
(0.53564066 0.00041442528 0)
(0.53252744 0.00039609823 0)
(0.52947294 0.00037869799 0)
(0.52647471 0.00036216685 0)
(0.52353049 0.00034645739 0)
(0.52063817 0.0003315171 0)
(0.51779571 0.00031730213 0)
(0.51500114 0.00030377114 0)
(0.51225265 0.0002908946 0)
(0.50954852 0.00027863239 0)
(0.5068871 0.00026695301 0)
(0.50426683 0.00025582165 0)
(0.5016862 0.00024521343 0)
(0.49914377 0.00023509864 0)
(0.49663817 0.00022545728 0)
(0.49416802 0.00021626343 0)
(0.49173201 0.00020749897 0)
(0.48932882 0.00019914685 0)
(0.48695714 0.00019119031 0)
(0.48461556 0.00018361848 0)
(0.48230274 0.00017642158 0)
(0.48001699 0.00016959148 0)
(0.4777569 0.0001631393 0)
(0.47551975 0.00015704302 0)
(0.47330487 0.0001513934 0)
(0.47110521 0.0001460756 0)
(0.46892555 0.00014147662 0)
(0.46674067 0.00013709924 0)
(0.46458288 0.00013424188 0)
(0.46235637 0.0001318093 0)
(0.46018961 0.00013272212 0)
(0.45775154 0.00013340284 0)
(0.45568025 0.00012879968 1.1253213e-19)
(0.45198159 0.00014600087 0)
(0.97446736 0.021581817 0)
(0.97839399 0.027336727 0)
(0.98394632 0.030716571 0)
(0.98941072 0.03165784 0)
(0.99392186 0.031125956 0)
(0.99740421 0.02989407 0)
(1.0000388 0.028469907 0)
(1.0021268 0.027070964 0)
(1.003844 0.025677643 0)
(1.0051288 0.024327992 0)
(1.0060544 0.023048936 0)
(1.0066463 0.021818649 0)
(1.0069532 0.020647595 0)
(1.0067542 0.019557264 0)
(1.005899 0.018534476 0)
(1.0042187 0.017562062 0)
(1.0011029 0.016631976 0)
(0.99619503 0.015720044 0)
(0.98923983 0.014814326 0)
(0.98010477 0.013873482 0)
(0.96893055 0.012888286 0)
(0.95587388 0.011896941 0)
(0.94120079 0.010917948 0)
(0.92531717 0.0099726057 0)
(0.9087269 0.0090762533 0)
(0.89192631 0.0082396926 0)
(0.8753327 0.0074725053 0)
(0.85923893 0.0067795705 0)
(0.84380814 0.0061629083 0)
(0.82910712 0.0056172145 0)
(0.81514955 0.0051327658 0)
(0.80192326 0.0047009634 0)
(0.78940165 0.0043147328 0)
(0.77754986 0.0039679393 0)
(0.76632857 0.0036562279 0)
(0.75569489 0.0033762766 0)
(0.74560831 0.0031240235 0)
(0.73603032 0.0028960748 0)
(0.72692342 0.0026900827 0)
(0.71825259 0.0025032203 0)
(0.70998613 0.0023332646 0)
(0.70209435 0.0021786004 0)
(0.69454965 0.002037277 0)
(0.68732701 0.0019079202 0)
(0.68040313 0.0017893999 0)
(0.67375676 0.0016804162 0)
(0.66736841 0.0015801768 0)
(0.66122014 0.0014877287 0)
(0.655296 0.0014021845 0)
(0.64958123 0.0013230518 0)
(0.64406211 0.0012496014 0)
(0.63872626 0.0011813615 0)
(0.63356208 0.0011178591 0)
(0.62855903 0.0010586104 0)
(0.62370739 0.0010033535 0)
(0.61899786 0.00095167976 0)
(0.61442225 0.00090333731 0)
(0.60997303 0.00085804087 0)
(0.6056434 0.00081553054 0)
(0.60142685 0.00077557639 0)
(0.59731743 0.00073794767 0)
(0.59330957 0.00070252791 0)
(0.58939813 0.00066913253 0)
(0.58557834 0.00063763108 0)
(0.58184561 0.00060787952 0)
(0.57819573 0.00057977231 0)
(0.57462495 0.00055319834 0)
(0.57112971 0.00052804466 0)
(0.56770659 0.0005042148 0)
(0.56435245 0.00048162206 0)
(0.56106434 0.00046019313 0)
(0.55783955 0.00043985221 0)
(0.55467545 0.00042053599 0)
(0.55156954 0.00040218357 0)
(0.5485195 0.00038474705 0)
(0.54552312 0.00036816922 0)
(0.54257833 0.00035240395 0)
(0.53968314 0.00033740206 0)
(0.53683565 0.00032312616 0)
(0.53403405 0.00030953421 0)
(0.53127659 0.00029659589 0)
(0.52856158 0.00028427477 0)
(0.5258874 0.00027254392 0)
(0.5232524 0.00026137823 0)
(0.52065501 0.0002507537 0)
(0.51809354 0.00024065321 0)
(0.51556636 0.00023106254 0)
(0.51307155 0.00022196797 0)
(0.51060744 0.0002133833 0)
(0.50817107 0.00020527551 0)
(0.50576146 0.00019776439 0)
(0.50337141 0.0001906893 0)
(0.50100521 0.00018456889 0)
(0.49863772 0.00017870924 0)
(0.49630005 0.00017488711 0)
(0.49389757 0.00017142836 0)
(0.49155532 0.00017266863 0)
(0.48894433 0.00017224662 0)
(0.48670171 0.00017303641 1.0065716e-19)
(0.48273906 0.00018036591 0)
(0.97582576 0.020860065 0)
(0.97921601 0.025991996 0)
(0.98409625 0.029225242 0)
(0.98901999 0.030345496 0)
(0.99317921 0.030073144 0)
(0.99643835 0.029089886 0)
(0.99895429 0.027853442 0)
(1.0009594 0.026578465 0)
(1.002619 0.02529037 0)
(1.0039771 0.024028683 0)
(1.0050895 0.022815644 0)
(1.0059899 0.021644441 0)
(1.0066549 0.020530776 0)
(1.0070808 0.019486224 0)
(1.0074152 0.018513813 0)
(1.0073966 0.017615765 0)
(1.0072158 0.016792828 0)
(1.0066508 0.016039516 0)
(1.0055561 0.0153471 0)
(1.0037107 0.014700633 0)
(1.0006814 0.014077701 0)
(0.99614923 0.013466466 0)
(0.98981738 0.012833586 0)
(0.98157256 0.012144833 0)
(0.97142605 0.011406578 0)
(0.95948916 0.010637985 0)
(0.94602364 0.0098585781 0)
(0.93145459 0.0090926562 0)
(0.91627375 0.0083535434 0)
(0.90094288 0.0076555404 0)
(0.88581842 0.0070096062 0)
(0.87112627 0.0064226544 0)
(0.85698245 0.0058951914 0)
(0.84343576 0.0054215185 0)
(0.83050107 0.0049947821 0)
(0.81817309 0.0046095963 0)
(0.80643442 0.0042607139 0)
(0.79526027 0.0039442915 0)
(0.78462082 0.0036576042 0)
(0.77448479 0.003397167 0)
(0.76482168 0.0031601646 0)
(0.7556012 0.0029444438 0)
(0.74679418 0.0027474595 0)
(0.73837335 0.0025673362 0)
(0.73031271 0.0024024786 0)
(0.72258815 0.0022511315 0)
(0.71517715 0.0021121387 0)
(0.70805855 0.001984173 0)
(0.70121326 0.0018660135 0)
(0.69462352 0.0017569119 0)
(0.6882728 0.001655871 0)
(0.682146 0.0015622025 0)
(0.67622906 0.0014752351 0)
(0.67050917 0.0013942959 0)
(0.66497441 0.001318982 0)
(0.65961362 0.0012487301 0)
(0.65441654 0.0011831504 0)
(0.64937372 0.0011218348 0)
(0.64447656 0.0010644205 0)
(0.63971702 0.0010105875 0)
(0.63508772 0.00096001675 0)
(0.63058173 0.00091251926 0)
(0.62619267 0.00086783623 0)
(0.62191458 0.00082577926 0)
(0.61774177 0.00078614863 0)
(0.61366902 0.00074878313 0)
(0.60969162 0.00071352113 0)
(0.6058051 0.0006802093 0)
(0.60200524 0.0006487135 0)
(0.59828811 0.00061891027 0)
(0.59465003 0.00059069341 0)
(0.59108755 0.00056395733 0)
(0.58759746 0.00053861396 0)
(0.58417666 0.00051457686 0)
(0.58082228 0.00049177454 0)
(0.57753159 0.00047012879 0)
(0.57430202 0.00044957479 0)
(0.57113111 0.00043004532 0)
(0.56801654 0.00041148709 0)
(0.56495609 0.00039384267 0)
(0.56194763 0.0003770686 0)
(0.55898909 0.00036111539 0)
(0.55607851 0.00034594491 0)
(0.55321392 0.00033152186 0)
(0.55039343 0.00031781307 0)
(0.54761507 0.00030479338 0)
(0.54487692 0.00029244257 0)
(0.54217677 0.0002807399 0)
(0.53951271 0.00026970073 0)
(0.53688152 0.0002592798 0)
(0.53428193 0.00024962581 0)
(0.53170658 0.00024053058 0)
(0.52915927 0.00023264733 0)
(0.52661509 0.00022508052 0)
(0.52410376 0.00022009866 0)
(0.52153246 0.0002154286 0)
(0.51902218 0.00021689682 0)
(0.51624798 0.00021512773 -2.0295161e-20)
(0.51384449 0.00022244338 0)
(0.50963315 0.00021750332 -2.3848856e-21)
(0.97723028 0.020221647 0)
(0.98013933 0.024768025 0)
(0.9843998 0.027816667 0)
(0.98885229 0.029078238 0)
(0.99274037 0.02905418 0)
(0.99586101 0.028310269 0)
(0.99830886 0.027254295 0)
(1.0002655 0.026102829 0)
(1.0018705 0.024912243 0)
(1.0031892 0.023724863 0)
(1.0042749 0.022569286 0)
(1.0051698 0.021449973 0)
(1.0058932 0.020383313 0)
(1.0064587 0.019375242 0)
(1.006899 0.018438543 0)
(1.0072026 0.017575327 0)
(1.0073828 0.016773879 0)
(1.0074672 0.016043913 0)
(1.0074183 0.015386743 0)
(1.0072471 0.014794765 0)
(1.0068622 0.014258255 0)
(1.0061541 0.013770686 0)
(1.0049965 0.013318181 0)
(1.0030974 0.012884993 0)
(1.0000945 0.012453553 0)
(0.9956659 0.012009227 0)
(0.98950268 0.011516258 0)
(0.9815261 0.010951535 0)
(0.97172175 0.01033698 0)
(0.96023088 0.0096865602 0)
(0.94738399 0.0090226464 0)
(0.93364174 0.0083631288 0)
(0.91947924 0.0077253293 0)
(0.90529204 0.0071241092 0)
(0.89135029 0.0065691438 0)
(0.87780653 0.0060643112 0)
(0.86473644 0.0056064199 0)
(0.85217543 0.0051900282 0)
(0.84013525 0.004810908 0)
(0.82861217 0.0044647995 0)
(0.81759272 0.0041486638 0)
(0.807057 0.0038601648 0)
(0.79698225 0.0035963416 0)
(0.78734472 0.0033549317 0)
(0.77811985 0.0031339264 0)
(0.7692836 0.0029311172 0)
(0.76081273 0.0027449743 0)
(0.75268466 0.0025737679 0)
(0.74487838 0.0024159023 0)
(0.73737397 0.002270326 0)
(0.73015268 0.0021357273 0)
(0.72319714 0.0020111584 0)
(0.71649105 0.001895701 0)
(0.7100195 0.0017884559 0)
(0.70376848 0.0016888404 0)
(0.69772492 0.0015961068 0)
(0.69187667 0.0015097096 0)
(0.68621241 0.0014290902 0)
(0.68072175 0.001353753 0)
(0.675395 0.0012832603 0)
(0.67022327 0.0012171839 0)
(0.66519821 0.0011552442 0)
(0.66031206 0.0010970915 0)
(0.65555763 0.0010424645 0)
(0.65092817 0.00099109243 0)
(0.64641734 0.00094274494 0)
(0.64201932 0.00089719915 0)
(0.63772869 0.00085425077 0)
(0.63354036 0.00081371785 0)
(0.62944955 0.00077543211 0)
(0.62545179 0.00073924677 0)
(0.62154288 0.00070501847 0)
(0.61771892 0.0006726265 0)
(0.61397618 0.00064195366 0)
(0.61031117 0.00061289981 0)
(0.60672061 0.00058536043 0)
(0.60320138 0.00055924742 0)
(0.59975054 0.00053447133 0)
(0.59636527 0.00051095914 0)
(0.59304292 0.00048863455 0)
(0.58978095 0.00046743772 0)
(0.58657688 0.00044730321 0)
(0.58342838 0.00042817897 0)
(0.58033313 0.0004100171 0)
(0.5772889 0.00039277302 0)
(0.57429341 0.00037641151 0)
(0.57134443 0.00036090454 0)
(0.56843948 0.0003462227 0)
(0.56557634 0.00033238155 0)
(0.56275156 0.00031932227 0)
(0.55996356 0.00030722176 0)
(0.55720483 0.00029582312 0)
(0.55447866 0.0002859152 0)
(0.55176045 0.00027639854 0)
(0.54907848 0.00027004086 0)
(0.54634198 0.00026395818 0)
(0.54366781 0.00026552583 1.0403707e-21)
(0.54073579 0.00026215082 0)
(0.53817833 0.00027705316 8.7100084e-20)
(0.5337278 0.00025759327 0)
(0.97862358 0.01965127 0)
(0.98113853 0.023677503 0)
(0.98484025 0.026512726 0)
(0.98884365 0.027855991 0)
(0.9924735 0.028041869 0)
(0.99547629 0.027519744 0)
(0.99788162 0.026642938 0)
(0.99982177 0.025621157 0)
(1.0014123 0.024530789 0)
(1.0027177 0.023420556 0)
(1.0037895 0.022325213 0)
(1.0046692 0.02125675 0)
(1.0053843 0.02023147 0)
(1.0059565 0.01925809 0)
(1.0064083 0.018349884 0)
(1.0067621 0.017508989 0)
(1.007029 0.01672862 0)
(1.0072174 0.016017926 0)
(1.0073329 0.015375825 0)
(1.0074041 0.014794272 0)
(1.0073942 0.014268734 0)
(1.007342 0.01379828 0)
(1.0072089 0.013375714 0)
(1.0069512 0.012991192 0)
(1.0064927 0.012636549 0)
(1.0057175 0.012304722 0)
(1.0044785 0.011985637 0)
(1.0024145 0.011667016 0)
(0.9991982 0.011334187 0)
(0.99448418 0.010961842 0)
(0.988059 0.010521055 0)
(0.9798327 0.010016393 0)
(0.96985975 0.0094623866 0)
(0.95839286 0.0088784265 0)
(0.94585374 0.0082857893 0)
(0.93271409 0.0077019994 0)
(0.91938719 0.0071434652 0)
(0.90616658 0.0066214089 0)
(0.89322612 0.006141424 0)
(0.88065923 0.0057020333 0)
(0.86851581 0.0052992724 0)
(0.85681972 0.0049297997 0)
(0.84557751 0.0045902513 0)
(0.83478444 0.0042783712 0)
(0.82442826 0.0039920937 0)
(0.814493 0.003728967 0)
(0.80496042 0.0034872263 0)
(0.79581075 0.0032648164 0)
(0.78702425 0.0030598031 0)
(0.77858115 0.0028708379 0)
(0.77046214 0.0026962764 0)
(0.76264887 0.002534887 0)
(0.75512374 0.0023854734 0)
(0.74787036 0.0022468787 0)
(0.74087315 0.00211831 0)
(0.73411741 0.0019988055 0)
(0.7275894 0.0018876394 0)
(0.72127617 0.0017840781 0)
(0.7151657 0.0016874683 0)
(0.70924673 0.0015972298 0)
(0.70350884 0.0015128024 0)
(0.69794231 0.0014337969 0)
(0.69253797 0.001359754 0)
(0.68728737 0.0012903189 0)
(0.6821826 0.0012251341 0)
(0.67721623 0.0011638911 0)
(0.67238131 0.0011062933 0)
(0.66767142 0.0010520704 0)
(0.66308051 0.0010009821 0)
(0.65860294 0.00095280601 0)
(0.65423338 0.00090734625 0)
(0.64996685 0.00086441331 0)
(0.64579869 0.00082384599 0)
(0.64172451 0.00078548939 0)
(0.63774015 0.00074920871 0)
(0.63384173 0.00071486763 0)
(0.63002556 0.00068234948 0)
(0.62628814 0.00065153783 0)
(0.62262617 0.00062233563 0)
(0.6190365 0.00059464375 0)
(0.61551614 0.00056838238 0)
(0.6120622 0.00054346678 0)
(0.60867195 0.000519828 0)
(0.60534267 0.00049740275 0)
(0.60207179 0.00047613252 0)
(0.59885667 0.00045596973 0)
(0.59569477 0.00043687648 0)
(0.59258331 0.00041881282 0)
(0.58951975 0.00040179286 0)
(0.5865004 0.0003857428 0)
(0.58352335 0.00037086664 0)
(0.58058096 0.0003568577 0)
(0.57767598 0.0003446405 0)
(0.57478417 0.00033291064 0)
(0.57193235 0.00032493919 0)
(0.5690319 0.00031722369 0)
(0.56619565 0.00031873702 0)
(0.5631083 0.00031347596 0)
(0.56040117 0.0003369869 0)
(0.55571707 0.00030082459 0)
(0.97996006 0.019128427 0)
(0.98216293 0.02270444 0)
(0.985383 0.025323326 0)
(0.98896156 0.026699204 0)
(0.99232535 0.027048345 0)
(0.99519967 0.026720555 0)
(0.9975597 0.02601385 0)
(0.99949017 0.025122764 0)
(1.0010811 0.024135172 0)
(1.0023907 0.023105953 0)
(1.0034671 0.022074444 0)
(1.00435 0.021058595 0)
(1.0050681 0.020075911 0)
(1.0056448 0.019137915 0)
(1.0061023 0.018257111 0)
(1.0064645 0.017438002 0)
(1.0067463 0.016676859 0)
(1.0069586 0.015980758 0)
(1.0071148 0.015348691 0)
(1.007232 0.014777131 0)
(1.0073095 0.014261801 0)
(1.007355 0.013796885 0)
(1.0073794 0.013377841 0)
(1.0073712 0.012998518 0)
(1.007335 0.012654258 0)
(1.0072439 0.012340956 0)
(1.0070727 0.012053011 0)
(1.0067653 0.011783529 0)
(1.0062279 0.011528309 0)