/*--------------------------------*- C++ -*----------------------------------*\
| =========                 |                                                 |
| \\      /  F ield         | OpenFOAM: The Open Source CFD Toolbox           |
|  \\    /   O peration     | Version:  2206                                  |
|   \\  /    A nd           | Website:  www.openfoam.com                      |
|    \\/     M anipulation  |                                                 |
\*---------------------------------------------------------------------------*/
FoamFile
{
    version     2.0;
    format      ascii;
    arch        "LSB;label=32;scalar=64";
    class       volScalarField;
    location    "600";
    object      k;
}
// * * * * * * * * * * * * * * * * * * * * * * * * * * * * * * * * * * * * * //

dimensions      [0 2 -2 0 0 0 0];

internalField   nonuniform List<scalar> 
7480
(
0.011445208
0.014109447
0.011690916
0.0076596973
0.004541626
0.002780948
0.0019368356
0.0015257405
0.001297953
0.0011496552
0.0010351072
0.00093686875
0.0008512816
0.00077723915
0.00071304112
0.00065706117
0.00060821363
0.00056530492
0.00052713322
0.00049292483
0.00046220976
0.00043448032
0.00040927016
0.00038628486
0.000365291
0.00034603627
0.00032829661
0.00031192945
0.00029682198
0.00028284523
0.00026988695
0.00025787388
0.00024674156
0.00023641801
0.00022684289
0.00021797525
0.00020977767
0.00020221349
0.00019525793
0.00018889868
0.0001831253
0.00017792696
0.00017330405
0.00016925616
0.00016579791
0.00016297368
0.0001607829
0.00015929643
0.0001585065
0.00015839427
0.00015893727
0.0001601066
0.00016184082
0.00016402747
0.00016655644
0.00016935176
0.00017224614
0.00017499102
0.00017734117
0.00017913308
0.00018032959
0.00018094991
0.00018104849
0.00018070144
0.0001800059
0.00017905007
0.00017791167
0.00017665288
0.00017531823
0.00017394079
0.00017254569
0.00017114774
0.00016975639
0.00016838166
0.00016702601
0.00016569082
0.00016437657
0.00016302905
0.00016165277
0.00016026403
0.0001588694
0.00015747214
0.00015606691
0.00015465161
0.00015322582
0.00015178926
0.00015034423
0.00014889132
0.00014743385
0.00014597289
0.00014451072
0.00014304831
0.00014158894
0.00014012451
0.00013867927
0.00013716491
0.0001358437
0.00013394227
0.00013287089
0.00012997105
0.0014157635
0.0025665493
0.0028348225
0.0024741649
0.0020072142
0.0015608921
0.001199519
0.00093129315
0.00073509206
0.00059091404
0.00048471139
0.00040597402
0.0003468661
0.00030174444
0.00026654507
0.00023842962
0.00021549736
0.00019643826
0.00018032272
0.00016651997
0.00015460465
0.00014425423
0.00013521452
0.00012729556
0.00012021503
0.00011383284
0.00010806333
0.0001028559
9.8177247e-05
9.3998276e-05
9.0296118e-05
8.7056872e-05
8.4270502e-05
8.1927819e-05
8.0023592e-05
7.8557997e-05
7.7535302e-05
7.6967076e-05
7.6876521e-05
7.7299402e-05
7.8282397e-05
7.9883513e-05
8.2175028e-05
8.5242044e-05
8.918967e-05
9.4131244e-05
0.0001001453
0.00010729429
0.0001156028
0.00012506216
0.00013563957
0.00014733867
0.00015989696
0.0001730175
0.0001864119
0.00019964958
0.00021209167
0.00022315101
0.00023248042
0.00024001416
0.0002459019
0.00025041088
0.00025379992
0.0002561629
0.00025772064
0.00025867218
0.00025917525
0.00025934644
0.00025927098
0.00025901095
0.00025860939
0.00025809278
0.00025748501
0.00025680443
0.00025605789
0.00025524646
0.00025435044
0.00025316487
0.00025177541
0.0002502528
0.00024861987
0.00024688313
0.00024504466
0.00024311149
0.00024109033
0.00023899126
0.00023682431
0.00023459954
0.00023232799
0.00023001868
0.00022768062
0.00022532182
0.00022295013
0.00022057026
0.00021818616
0.00021579625
0.0002134379
0.00021076572
0.00020884917
0.00020445523
0.00021001053
0.0005572174
0.00084139633
0.00095107863
0.00092901859
0.00084362702
0.00075625088
0.00069805997
0.00065934375
0.00062437911
0.00059316865
0.00056410959
0.00053582286
0.00050889477
0.00048358691
0.0004599242
0.00043796918
0.00041773912
0.00039923663
0.00038247082
0.00036743075
0.00035407396
0.00034235289
0.0003322079
0.00032247702
0.00031328949
0.00030476019
0.00029701887
0.00029019309
0.00028440161
0.00027976323
0.00027639547
0.00027440766
0.00027390533
0.00027499891
0.00027780396
0.00028244772
0.00028909801
0.00029798049
0.00030938121
0.00032364514
0.00034118216
0.00036247435
0.00038807488
0.00041863851
0.00045481261
0.00049699797
0.00054544784
0.00060020432
0.00066109838
0.00072759337
0.00079925561
0.00087487593
0.00095272886
0.0010311324
0.0011075413
0.0011784864
0.0012410236
0.0012936424
0.0013363034
0.0013700143
0.0013963605
0.0014161339
0.0014304453
0.0014405787
0.0014475767
0.0014522421
0.0014551593
0.0014567539
0.0014573344
0.0014571114
0.001456214
0.0014547668
0.0014528613
0.0014505312
0.0014477777
0.0014444843
0.0014394716
0.0014332997
0.0014263552
0.0014187514
0.0014105189
0.0014016756
0.0013922638
0.0013823232
0.001371912
0.0013610855
0.0013499012
0.0013384189
0.00132669
0.0013147638
0.0013026866
0.0012905005
0.001278243
0.0012659083
0.0012535938
0.001241193
0.0012276514
0.0012174063
0.0011948831
3.6613501e-05
0.00011641752
0.0002288943
0.00032891563
0.00038971291
0.00041116811
0.0004082063
0.00039506177
0.00038065544
0.00036979515
0.00036657207
0.00037470892
0.00038619906
0.00039601321
0.00040419189
0.00041047265
0.00041546344
0.00041966501
0.00042339662
0.0004269188
0.00043044828
0.00043417306
0.00043824881
0.00044278371
0.00044761545
0.00045255806
0.00045765835
0.00046312941
0.00046924848
0.00047631677
0.00048465277
0.00049458875
0.00050646506
0.0005206322
0.00053745506
0.00055731056
0.00058061501
0.00060789928
0.00063982265
0.00067716185
0.00072080208
0.00077174077
0.0008310928
0.00090008544
0.00098009205
0.0010722226
0.0011768367
0.0012939291
0.0014230713
0.0015633605
0.0017133486
0.0018699653
0.0020313334
0.0021938929
0.0023543332
0.0025072931
0.0026463409
0.0027670553
0.0028680166
0.0029501815
0.00301607
0.0030681617
0.0031080476
0.0031384897
0.0031617643
0.0031796383
0.0031934425
0.0032041366
0.0032124115
0.0032187646
0.0032235285
0.0032269062
0.0032291147
0.0032303037
0.0032305212
0.0032297519
0.0032278021
0.0032223435
0.0032146864
0.0032054992
0.0031949453
0.0031830778
0.0031699419
0.0031556226
0.0031402038
0.0031237975
0.0031065092
0.003088447
0.0030697213
0.0030504298
0.0030306613
0.0030105065
0.002990041
0.0029693467
0.0029483886
0.0029274476
0.002905987
0.0028832517
0.0028646716
0.0028272478
1.2523875e-05
2.757426e-05
5.8628658e-05
9.947929e-05
0.00013898627
0.00016943629
0.00018922048
0.0002002771
0.00020549732
0.0002073625
0.00020804144
0.00020960317
0.00021296393
0.00021862619
0.00022752276
0.00024063432
0.00025527968
0.00027044616
0.00028571257
0.00030134325
0.00031748723
0.00033432837
0.00035194032
0.000370255
0.00038899564
0.00040785628
0.0004273154
0.00044782224
0.00046970268
0.00049323502
0.00051869925
0.00054640715
0.00057671634
0.00061003194
0.00064679971
0.00068750155
0.00073273731
0.00078336663
0.00084042476
0.00090505282
0.00097849386
0.0010620997
0.0011573336
0.0012657664
0.0013891159
0.0015278939
0.0016815868
0.0018495252
0.0020308063
0.0022240602
0.002427278
0.0026372343
0.002849227
0.0030592504
0.0032641898
0.0034560855
0.0036271981
0.0037741995
0.0038973532
0.0039988321
0.0040812908
0.0041475931
0.0042006894
0.0042433605
0.0042779648
0.0043063564
0.0043299409
0.0043497442
0.0043665096
0.0043807735
0.0043928893
0.0044030763
0.0044116001
0.0044186209
0.0044241758
0.0044282228
0.004430579
0.0044302767
0.004427502
0.0044225504
0.0044155831
0.0044066933
0.004395971
0.0043835451
0.0043695505
0.0043541459
0.0043374809
0.0043197035
0.0043009615
0.0042813881
0.0042610989
0.0042402176
0.0042188408
0.0041970805
0.0041748943
0.0041526673
0.0041295861
0.0041056928
0.0040848094
0.0040463621
9.3805565e-06
1.1752547e-05
1.8506128e-05
3.0347391e-05
4.5493441e-05
6.1123825e-05
7.5212824e-05
8.6940966e-05
9.6293369e-05
0.00010358648
0.0001092181
0.00011369613
0.00011751404
0.00012112237
0.00012502812
0.00012980536
0.0001357302
0.00014307821
0.00015227504
0.0001637693
0.00017688399
0.00019190037
0.00020809973
0.00022550359
0.00024419391
0.00026422825
0.00028583448
0.00030931507
0.00033500544
0.00036328454
0.00039457139
0.00042932456
0.00046804555
0.00051127123
0.00055958629
0.00061370666
0.00067462903
0.00074337741
0.00082096896
0.00090849629
0.001007168
0.001118314
0.0012433765
0.0013839285
0.0015416385
0.0017147444
0.0019012679
0.0021003986
0.0023114876
0.0025333551
0.0027639581
0.0029999814
0.0032366179
0.0034696008
0.00369571
0.0039039495
0.004087451
0.0042459627
0.0043811023
0.0044953727
0.0045917929
0.0046730846
0.0047416706
0.0047998371
0.0048496216
0.0048926644
0.0049302559
0.0049633869
0.0049927943
0.0050190201
0.0050424192
0.0050632172
0.0050817472
0.005098167
0.005112496
0.0051246703
0.0051345463
0.0051414715
0.0051454021
0.0051465235
0.0051450127
0.0051410108
0.0051346597
0.0051261351
0.0051156234
0.0051033275
0.0050894375
0.0050741367
0.0050576061
0.0050400101
0.0050214854
0.0050021841
0.0049822199
0.0049617264
0.0049406669
0.0049194776
0.004897218
0.0048745087
0.0048537929
0.0048171435
8.9898732e-06
9.2310504e-06
1.0392117e-05
1.3066929e-05
1.7353392e-05
2.2793303e-05
2.8763642e-05
3.4796772e-05
4.0622762e-05
4.6100276e-05
5.1146471e-05
5.5730201e-05
5.9870245e-05
6.3622436e-05
6.7090795e-05
7.0431992e-05
7.3811721e-05
7.7404489e-05
8.1422632e-05
8.6122719e-05
9.1691443e-05
9.8404762e-05
0.00010650266
0.00011619266
0.00012734674
0.00014017172
0.00015491563
0.00017142869
0.00018973778
0.00021021044
0.00023328515
0.00025948217
0.00028941256
0.00032375988
0.00036329073
0.00040891587
0.00046181396
0.00052345634
0.00059538605
0.00067925528
0.00077681167
0.00088987952
0.0010203437
0.0011702062
0.0013415799
0.0015227023
0.0017159663
0.001924894
0.0021499365
0.0023895469
0.0026406121
0.0028984199
0.0031568513
0.0034118986
0.0036610782
0.0038826868
0.0040755499
0.0042466261
0.0043984461
0.0045330406
0.0046524629
0.0047582466
0.0048517647
0.0049346223
0.0050083852
0.0050743359
0.0051336181
0.0051872058
0.0052358506
0.0052801395
0.0053205238
0.0053573316
0.0053908601
0.0054212896
0.0054486524
0.0054729015
0.0054939526
0.0055113936
0.0055251096
0.0055352274
0.0055419493
0.0055454772
0.0055460184
0.0055438073
0.0055390907
0.0055321243
0.005523145
0.0055123786
0.0055000468
0.0054863514
0.0054714699
0.0054555736
0.0054387944
0.0054212888
0.0054030408
0.0053845015
0.0053647376
0.005344639
0.005325847
0.0052923301
8.9408382e-06
8.8618987e-06
8.9453948e-06
9.3735234e-06
1.0288485e-05
1.1705657e-05
1.3541909e-05
1.5693795e-05
1.8077594e-05
2.0627395e-05
2.3281549e-05
2.5981513e-05
2.8677158e-05
3.1327907e-05
3.3909417e-05
3.6419631e-05
3.8875853e-05
4.1310911e-05
4.3777341e-05
4.6350942e-05
4.9118974e-05
5.2190649e-05
5.5693961e-05
5.9774727e-05
6.4565228e-05
7.0243508e-05
7.7049869e-05
8.5130305e-05
9.4550204e-05
0.00010554913
0.00011843544
0.00013358679
0.00015135258
0.00017185122
0.00019571608
0.00022371787
0.00025683079
0.00029630045
0.00034366209
0.00040074704
0.00046972118
0.00055309657
0.00065368986
0.00077454467
0.00091878561
0.0010825488
0.0012631278
0.001461599
0.001678327
0.0019124318
0.0021612795
0.0024201841
0.0026829663
0.0029480959
0.0032141369
0.0034582872
0.003678756
0.0038799353
0.0040626993
0.004229856
0.0043832318
0.004523294
0.0046507035
0.004766762
0.0048725885
0.004969045
0.0050571881
0.0051379802
0.0052121528
0.0052803617
0.0053431764
0.0054010212
0.005454236
0.0055030501
0.0055475182
0.0055876374
0.0056234001
0.0056546146
0.005681201
0.0057032654
0.0057210296
0.0057347488
0.0057446978
0.005751175
0.0057544932
0.0057549661
0.0057528836
0.0057485209
0.0057421499
0.0057340172
0.0057243397
0.0057133218
0.0057011234
0.0056879287
0.0056737559
0.0056590505
0.005642975
0.0056264749
0.0056108315
0.0055810809
8.9328391e-06
8.809198e-06
8.7106269e-06
8.6774531e-06
8.7584755e-06
8.9873694e-06
9.3746011e-06
9.9174756e-06
1.0610997e-05
1.1450058e-05
1.2426594e-05
1.3527431e-05
1.4735896e-05
1.6032516e-05
1.7397566e-05
1.881427e-05
2.0270465e-05
2.1758674e-05
2.3278165e-05
2.4837209e-05
2.6452652e-05
2.8150812e-05
2.9969084e-05
3.1957073e-05
3.4173392e-05
3.6690751e-05
3.9603708e-05
4.301662e-05
4.7038684e-05
5.1814412e-05
5.7538064e-05
6.4399528e-05
7.2614183e-05
8.2425305e-05
9.4178788e-05
0.00010831818
0.0001254216
0.00014624073
0.00017146914
0.00020215934
0.00023987924
0.00028663564
0.00034497414
0.00041807641
0.00050985953
0.00062312457
0.00075701356
0.00091180871
0.0010885395
0.0012875499
0.0015078739
0.0017466442
0.0019991405
0.002262984
0.0025354954
0.0028006211
0.0030436694
0.0032704051
0.0034831905
0.0036836104
0.0038727439
0.0040492965
0.0042133851
0.0043663795
0.0045086635
0.0046404335
0.0047626671
0.0048761237
0.0049812992
0.0050788801
0.0051694879
0.0052535686
0.0053314764
0.0054034841
0.0054696228
0.0055299363
0.0055845075
0.0056333266
0.0056764035
0.0057138676
0.0057459619
0.0057729825
0.0057952664
0.0058131763
0.0058270925
0.0058373928
0.0058444257
0.0058485255
0.0058500248
0.0058492248
0.0058463931
0.0058417778
0.0058355767
0.0058280104
0.0058191433
0.00580941
0.0057981203
0.0057861636
0.0057747239
0.005749298
8.9301414e-06
8.7999786e-06
8.6732494e-06
8.5571388e-06
8.4633024e-06
8.4039703e-06
8.3886404e-06
8.4242533e-06
8.5169244e-06
8.6726078e-06
8.8964785e-06
9.1918696e-06
9.5601991e-06
1.0000707e-05
1.0510866e-05
1.1087013e-05
1.1724748e-05
1.2419407e-05
1.316697e-05
1.3965003e-05
1.4813218e-05
1.5714018e-05
1.6673674e-05
1.7703441e-05
1.8819672e-05
2.0044647e-05
2.1408682e-05
2.2950234e-05
2.4715734e-05
2.6763308e-05
2.9168429e-05
3.2022707e-05
3.5438501e-05
3.9554594e-05
4.4553061e-05
5.0628306e-05
5.8055107e-05
6.7201587e-05
7.8497613e-05
9.2506042e-05
0.00011001279
0.0001320839
0.00016015314
0.00019613478
0.00024247158
0.0003021183
0.00037782568
0.00047158023
0.00058581231
0.00072279036
0.0008842043
0.0010705725
0.0012806797
0.0015124699
0.001763293
0.0020239751
0.0022816523
0.0025302978
0.0027637258
0.0029864558
0.0032004889
0.0034057734
0.0036021099
0.0037897673
0.003967823
0.0041351747
0.0042930224
0.0044415669
0.004580793
0.0047113872
0.0048337953
0.0049483385
0.0050553107
0.0051550132
0.0052472818
0.005332169
0.0054098465
0.0054804075
0.0055439396
0.0056006235
0.0056507214
0.0056945533
0.0057325054
0.0057649931
0.0057924556
0.005815337
0.0058340461
0.0058489817
0.0058605449
0.0058691006
0.0058749789
0.0058784831
0.0058798614
0.0058793811
0.0058771649
0.0058736411
0.0058682946
0.0058619156
0.0058557338
0.0058353169
8.9285474e-06
8.7969062e-06
8.6656842e-06
8.5358752e-06
8.4096928e-06
8.2901577e-06
8.1805069e-06
8.0839798e-06
8.0039882e-06
7.9442257e-06
7.9085396e-06
7.900681e-06
7.9241282e-06
7.9818788e-06
8.0763795e-06
8.2095162e-06
8.3825582e-06
8.5961942e-06
8.8507018e-06
9.1461826e-06
9.4827858e-06
9.8609818e-06
1.0281875e-05
1.0747664e-05
1.126204e-05
1.1830661e-05
1.2461819e-05
1.316712e-05
1.3961961e-05
1.4866455e-05
1.5907025e-05
1.7117422e-05
1.8540527e-05
2.0230748e-05
2.2258486e-05
2.4710589e-05
2.7700803e-05
3.1382028e-05
3.595185e-05
4.164703e-05
4.8804752e-05
5.7887183e-05
6.9531528e-05
8.4618775e-05
0.00010435024
0.00013034912
0.00016465013
0.00020947275
0.00026742768
0.00034146788
0.0004347506
0.00055032745
0.00069064253
0.0008572358
0.0010506198
0.0012681015
0.0015025191
0.0017456035
0.0019879899
0.0022270082
0.0024575424
0.0026784435
0.0028932287
0.0031024867
0.0033057095
0.0035019481
0.0036911521
0.0038723853
0.0040444676
0.0042082232
0.0043635685
0.0045106071
0.0046493556
0.0047796755
0.0049012864
0.0050142626
0.0051187693
0.0052148699
0.0053026689
0.0053823686
0.0054542143
0.0055185152
0.0055756776
0.005626135
0.0056703547
0.0057088416
0.0057420638
0.005770481
0.0057945607
0.0058147344
0.0058314036
0.0058449373
0.0058556501
0.0058638656
0.0058697767
0.0058738179
0.0058756627
0.0058759987
0.00587618
0.0058616078
8.9275457e-06
8.795224e-06
8.6629524e-06
8.5307747e-06
8.3990245e-06
8.2682775e-06
8.1393291e-06
8.0131692e-06
7.8909893e-06
7.7741911e-06
7.6643671e-06
7.5632647e-06
7.4727512e-06
7.3947577e-06
7.3312245e-06
7.2840659e-06
7.2551255e-06
7.246121e-06
7.258627e-06
7.2940881e-06
7.3538405e-06
7.4391595e-06
7.5513018e-06
7.6916265e-06
7.8617384e-06
8.0636481e-06
8.3000672e-06
8.5747367e-06
8.8926631e-06
9.260425e-06
9.686695e-06
1.0182896e-05
1.0763948e-05
1.1449149e-05
1.226363e-05
1.3239706e-05
1.4419265e-05
1.5857775e-05
1.7628434e-05
1.9825574e-05
2.257668e-05
2.6057541e-05
3.0510829e-05
3.6268623e-05
4.3806788e-05
5.379669e-05
6.7165268e-05
8.5121354e-05
0.00010923372
0.00014150938
0.0001844534
0.00024107075
0.00031475111
0.00040904937
0.00052739995
0.00067220186
0.0008433932
0.0010381111
0.0012503589
0.0014744656
0.0017033078
0.0019316401
0.0021584688
0.0023800335
0.0025943657
0.0028048587
0.0030116279
0.0032142839
0.0034115443
0.0036030967
0.003787759
0.0039648175
0.0041342293
0.0042951802
0.0044470964
0.0045899805
0.0047237657
0.0048482906
0.0049635518
0.0050696623
0.0051667661
0.0052550961
0.005335019
0.0054069256
0.0054712686
0.0055285872
0.0055793803
0.0056241544
0.0056634378
0.005697723
0.0057274866
0.0057531703
0.0057751647
0.0057938622
0.0058095381
0.0058226479
0.0058330609
0.0058413775
0.0058491235
0.0058414016
8.9269941e-06
8.7942931e-06
8.6616185e-06
8.5289132e-06
8.3962033e-06
8.2635633e-06
8.1311512e-06
7.999228e-06
7.8681549e-06
7.7383844e-06
7.6104534e-06
7.4849837e-06
7.3626887e-06
7.2443729e-06
7.1309251e-06
7.0233121e-06
6.9225696e-06
6.8297833e-06
6.7460739e-06
6.6725866e-06
6.6104786e-06
6.5609098e-06
6.5250474e-06
6.5040788e-06
6.4992301e-06
6.511796e-06
6.5432215e-06
6.5952143e-06
6.6698291e-06
6.769551e-06
6.8975144e-06
7.0577443e-06
7.255408e-06
7.4972505e-06
7.7921219e-06
8.1513745e-06
8.5897158e-06
9.1264742e-06
9.7871953e-06
1.0605376e-05
1.1625715e-05
1.2909167e-05
1.4539578e-05
1.6633086e-05
1.9354842e-05
2.2942232e-05
2.7734637e-05
3.4205344e-05
4.3017975e-05
5.5091511e-05
7.168578e-05
9.4499382e-05
0.00012576341
0.00016830032
0.00022552417
0.00030122647
0.00039895325
0.00052117111
0.00066824461
0.00083861166
0.0010283921
0.0012324213
0.0014464593
0.0016650337
0.0018836731
0.0021021027
0.0023177098
0.0025280702
0.0027360153
0.0029415543
0.0031443508
0.0033426242
0.0035358903
0.003723198
0.0039026806
0.0040741919
0.0042372174
0.0043910824
0.0045354482
0.0046701689
0.0047951567
0.0049104278
0.0050162102
0.0051127618
0.0052004502
0.0052797987
0.0053512742
0.0054153968
0.0054727336
0.0055238152
0.0055691876
0.0056093596
0.0056447998
0.005675977
0.0057032556
0.0057271258
0.0057476544
0.0057653772
0.0057820304
0.005782361
8.9266841e-06
8.7937523e-06
8.6608784e-06
8.5280202e-06
8.3951678e-06
8.2623136e-06
8.1294825e-06
7.9967504e-06
7.8642408e-06
7.7321136e-06
7.6005553e-06
7.4697794e-06
7.3400333e-06
7.2116053e-06
7.0848291e-06
6.960087e-06
6.8378133e-06
6.7184941e-06
6.6026664e-06
6.4909172e-06
6.3838801e-06
6.2822314e-06
6.1866883e-06
6.0980084e-06
6.0169894e-06
5.9444701e-06
5.881345e-06
5.8285869e-06
5.787269e-06
5.7585967e-06
5.7439702e-06
5.7450575e-06
5.7638736e-06
5.8029327e-06
5.8654448e-06
5.9554565e-06
6.0781185e-06
6.2401034e-06
6.4501749e-06
6.7199297e-06
7.0646699e-06
7.5048199e-06
8.0681613e-06
8.7929064e-06
9.7326879e-06
1.0964297e-05
1.2598815e-05
1.4796296e-05
1.7788263e-05
2.1910178e-05
2.7646244e-05
3.56913e-05
4.7042154e-05
6.3102418e-05
8.580359e-05
0.00011770303
0.00016196488
0.0002221198
0.00030153527
0.00040285844
0.00052730752
0.00067429164
0.00084188994
0.0010265371
0.0012236977
0.0014300098
0.0016412619
0.0018531999
0.002065896
0.0022773905
0.0024853565
0.0026913833
0.0028956924
0.0030979585
0.0032963818
0.0034900195
0.0036779774
0.0038583037
0.0040301835
0.0041931732
0.0043466763
0.0044902039
0.0046237445
0.0047472618
0.0048608973
0.0049650764
0.0050601141
0.0051464779
0.0052247245
0.0052953715
0.0053590089
0.0054161866
0.0054674379
0.0055133047
0.0055542365
0.0055907663
0.0056231543
0.0056518914
0.0056789679
0.0056887686
8.9265043e-06
8.793386e-06
8.6603543e-06
8.5273969e-06
8.3945121e-06
8.261689e-06
8.1289311e-06
7.9962721e-06
7.8637738e-06
7.731516e-06
7.5995868e-06
7.46808e-06
7.3370972e-06
7.2067528e-06
7.0771763e-06
6.9485159e-06
6.8209415e-06
6.6946476e-06
6.5698553e-06
6.4468146e-06
6.3258068e-06
6.2071447e-06
6.0911743e-06
5.9782759e-06
5.8688649e-06
5.7633918e-06
5.6623454e-06
5.5662573e-06
5.4757065e-06
5.3913266e-06
5.3138225e-06
5.2439907e-06
5.182741e-06
5.1311359e-06
5.0904508e-06
5.0622405e-06
5.0484184e-06
5.0513782e-06
5.0741788e-06
5.1208205e-06
5.1964899e-06
5.3079686e-06
5.4643354e-06
5.6779283e-06
5.9659411e-06
6.3524563e-06
6.8719071e-06
7.5742279e-06
8.5323889e-06
9.854031e-06
1.1698969e-05
1.4304906e-05
1.8027765e-05
2.3400295e-05
3.1213442e-05
4.262037e-05
5.9260523e-05
8.333613e-05
0.00011759264
0.00016515673
0.0002291877
0.00031239974
0.00041667944
0.0005426029
0.00068918488
0.00085448653
0.0010354149
0.0012278736
0.0014290518
0.0016354932
0.0018431905
0.0020521589
0.0022605011
0.0024657897
0.0026701676
0.0028736129
0.0030752308
0.0032731257
0.0034661647
0.0036532892
0.0038325665
0.004002807
0.0041638275
0.0043149122
0.004455756
0.0045866074
0.0047073849
0.0048184074
0.0049201376
0.0050129774
0.0050975116
0.0051742705
0.0052438168
0.0053067446
0.0053635652
0.0054148515
0.0054610425
0.0055025947
0.0055418081
0.0055627293
8.9264339e-06
8.7931507e-06
8.6599651e-06
8.5268915e-06
8.3939438e-06
8.2611216e-06
8.1284309e-06
7.9958975e-06
7.8635666e-06
7.7314955e-06
7.5997459e-06
7.4683802e-06
7.3374613e-06
7.207055e-06
7.0772304e-06
6.948062e-06
6.8196306e-06
6.6920249e-06
6.5653433e-06
6.4396951e-06
6.3152023e-06
6.1920017e-06
6.0702457e-06
5.9501047e-06
5.8317684e-06
5.7154475e-06
5.601375e-06
5.4898091e-06
5.3810343e-06
5.2753648e-06
5.173148e-06
5.0747713e-06
4.9806678e-06
4.8913266e-06
4.807309e-06
4.7292699e-06
4.6579822e-06
4.5943724e-06
4.5395748e-06
4.4950091e-06
4.4624721e-06
4.4442612e-06
4.4433799e-06
4.4638145e-06
4.5110134e-06
4.5924499e-06
4.7186085e-06
4.9045501e-06
5.1723328e-06
5.5545821e-06
6.0998087e-06
6.8812716e-06
8.0108396e-06
9.6608652e-06
1.2098129e-05
1.5734524e-05
2.1201368e-05
2.9441299e-05
4.1804904e-05
6.011722e-05
8.6694421e-05
0.00012425005
0.00017569163
0.00024379036
0.00033076012
0.00043799931
0.00056576315
0.00071289038
0.00087747956
0.0010567476
0.0012468922
0.0014453871
0.0016488803
0.0018536318
0.0020600601
0.002265852
0.0024694179
0.0026722688
0.0028748524
0.0030752614
0.0032716358
0.0034627966
0.0036476752
0.0038239398
0.0039908216
0.0041483795
0.0042956028
0.0044326196
0.0045596494
0.0046767789
0.0047845158
0.0048832524
0.0049735181
0.0050559094
0.0051309466
0.0051992244
0.0052613261
0.00531767
0.0053709368
0.0054048698
8.9264687e-06
8.793046e-06
8.6597179e-06
8.5265192e-06
8.3934774e-06
8.2606043e-06
8.1279128e-06
7.9954295e-06
7.8631945e-06
7.7312578e-06
7.5996731e-06
7.4684946e-06
7.3377761e-06
7.2075716e-06
7.0779355e-06
6.9489229e-06
6.8205902e-06
6.6929955e-06
6.5661988e-06
6.440263e-06
6.3152546e-06
6.1912442e-06
6.0683079e-06
5.9465278e-06
5.8259936e-06
5.7068035e-06
5.5890653e-06
5.4728982e-06
5.3584341e-06
5.2458186e-06
5.1352136e-06
5.0267991e-06
4.9207761e-06
4.8173692e-06
4.7168318e-06
4.619452e-06
4.5255607e-06
4.435541e-06
4.3498444e-06
4.2690122e-06
4.1937032e-06
4.1247309e-06
4.0631222e-06
4.0101994e-06
3.9676994e-06
3.9379537e-06
3.9241717e-06
3.9308645e-06
3.9645549e-06
4.034817e-06
4.1557942e-06
4.3488734e-06
4.6470241e-06
5.1016159e-06
5.7932411e-06
6.8499403e-06
8.4757281e-06
1.0993405e-05
1.4903898e-05
2.095908e-05
3.0244512e-05
4.4257707e-05
6.4931695e-05
9.4613498e-05
0.00013593486
0.0001916061
0.00026411748
0.00035535106
0.00046638071
0.00059723145
0.00074657881
0.00091248299
0.0010921355
0.0012818462
0.0014794161
0.0016810978
0.0018842
0.0020890444
0.0022926531
0.0024946839
0.0026960446
0.0028972468
0.0030955724
0.0032893716
0.0034774152
0.0036587638
0.0038304877
0.003992852
0.0041455065
0.0042878607
0.0044202945
0.0045428261
0.0046558645
0.004759911
0.0048553981
0.0049429046
0.005023091
0.0050963163
0.0051657175
0.0052147774
8.9266e-06
8.7930655e-06
8.6596156e-06
8.5262989e-06
8.3931539e-06
8.2602027e-06
8.1274657e-06
7.994972e-06
7.8627605e-06
7.7308778e-06
7.5993744e-06
7.4683019e-06
7.3377118e-06
7.2076555e-06
7.0781847e-06
6.9493504e-06
6.8212039e-06
6.6937958e-06
6.5671769e-06
6.4413978e-06
6.3165092e-06
6.1925621e-06
6.0696081e-06
5.9476999e-06
5.8268916e-06
5.7072392e-06
5.5888015e-06
5.4716405e-06
5.3558224e-06
5.2414185e-06
5.1285057e-06
5.0171683e-06
4.9074989e-06
4.7995996e-06
4.6935842e-06
4.5895799e-06
4.4877302e-06
4.388198e-06
4.2911702e-06
4.1968636e-06
4.1055337e-06
4.0174843e-06
3.933085e-06
3.8527939e-06
3.7771899e-06
3.7070221e-06
3.6432908e-06
3.5873644e-06
3.5411646e-06
3.5074609e-06
3.4903155e-06
3.4958108e-06
3.533293e-06
3.6173402e-06
3.7708904e-06
4.0307962e-06
4.4572081e-06
5.1475751e-06
6.259631e-06
8.0444139e-06
1.0893186e-05
1.5400196e-05
2.2432367e-05
3.3202952e-05
4.933018e-05
7.2839977e-05
0.00010610973
0.00015173118
0.00021228881
0.00029008205
0.00038673222
0.0005030222
0.00063865239
0.00079200789
0.00096104857
0.0011426453
0.001333425
0.0015314169
0.0017320084
0.0019341035
0.0021374307
0.0023389457
0.0025390766
0.0027392074
0.0029380925
0.0031333636
0.0033235611
0.0035075298
0.0036835819
0.0038499522
0.0040070173
0.0041539359
0.0042909249
0.0044182077
0.0045359668
0.0046447015
0.0047450239
0.0048372005
0.0049248662
0.0049913322
8.9268161e-06
8.7931954e-06
8.6596464e-06
8.5262272e-06
8.3929842e-06
8.2599483e-06
8.1271464e-06
7.9946106e-06
7.8623801e-06
7.7304998e-06
7.5990181e-06
7.4679853e-06
7.337452e-06
7.207469e-06
7.0780874e-06
6.9493579e-06
6.8213308e-06
6.6940559e-06
6.5675822e-06
6.441958e-06
6.3172306e-06
6.1934466e-06
6.0706516e-06
5.9488903e-06
5.8282067e-06
5.7086442e-06
5.5902459e-06
5.4730547e-06
5.3571136e-06
5.2424664e-06
5.1291576e-06
5.0172335e-06
4.9067422e-06
4.7977348e-06
4.6902659e-06
4.5843944e-06
4.4801848e-06
4.3777082e-06
4.2770441e-06
4.1782819e-06
4.0815239e-06
3.9868883e-06
3.8945136e-06
3.8045654e-06
3.7172453e-06
3.6328041e-06
3.5515638e-06
3.47395e-06
3.4005409e-06
3.3321462e-06
3.2699298e-06
3.2156063e-06
3.1717683e-06
3.1424285e-06
3.1339041e-06
3.1563428e-06
3.2264565e-06
3.3716418e-06
3.6372096e-06
4.0978532e-06
4.8748783e-06
6.1626997e-06
8.2660077e-06
1.1650763e-05
1.7008332e-05
2.5325414e-05
3.7950227e-05
5.6641245e-05
8.3537387e-05
0.00012109413
0.00017191265
0.00023849768
0.00032296132
0.00042661555
0.00054988842
0.00069198304
0.00085096113
0.0010246449
0.0012092988
0.0014020476
0.0016006956
0.0018004748
0.0020016224
0.0022025779
0.0024021618
0.0026000916
0.0027986285
0.0029944529
0.0031859271
0.003371663
0.0035506985
0.0037203731
0.0038808245
0.0040316843
0.0041726146
0.0043039506
0.0044260225
0.0045389683
0.0046468508
0.0047330423
8.9271042e-06
8.7934194e-06
8.6597925e-06
8.526288e-06
8.3929584e-06
8.2598413e-06
8.1269698e-06
7.9943791e-06
7.8621092e-06
7.7302041e-06
7.5987111e-06
7.4676795e-06
7.3371592e-06
7.2072006e-06
7.0778546e-06
6.9491717e-06
6.8212024e-06
6.6939964e-06
6.5676028e-06
6.4420696e-06
6.317444e-06
6.1937719e-06
6.071098e-06
5.9494656e-06
5.8289166e-06
5.7094916e-06
5.5912298e-06
5.4741691e-06
5.358346e-06
5.243796e-06
5.1305534e-06
5.0186518e-06
4.9081243e-06
4.7990034e-06
4.6913219e-06
4.5851127e-06
4.4804097e-06
4.3772481e-06
4.2756651e-06
4.1757003e-06
4.0773972e-06
3.9808037e-06
3.8859737e-06
3.792969e-06
3.7018619e-06
3.612739e-06
3.5257067e-06
3.4409005e-06
3.3584978e-06
3.2787389e-06
3.2019597e-06
3.1286436e-06
3.0595069e-06
2.9956408e-06
2.9387477e-06
2.8915462e-06
2.8584887e-06
2.846933e-06
2.8691847e-06
2.9459153e-06
3.1115525e-06
3.4230914e-06
3.9740177e-06
4.9143899e-06
6.4812209e-06
9.0406486e-06
1.3144429e-05
1.9599176e-05
2.9535334e-05
4.4471322e-05
6.6347798e-05
9.7457919e-05
0.00014037638
0.00019772458
0.00027191525
0.00036478775
0.00047724239
0.00060925027
0.00075930286
0.00092510711
0.0011041294
0.0012922492
0.0014871852
0.0016852918
0.0018845095
0.002084442
0.0022828554
0.0024799633
0.0026766003
0.0028721281
0.0030640748
0.0032509207
0.0034315728
0.0036041963
0.0037674569
0.0039215309
0.0040660099
0.0042009074
0.0043304332
0.0044384707
8.927453e-06
8.7937216e-06
8.660035e-06
8.5264613e-06
8.3930576e-06
8.2598672e-06
8.1269283e-06
7.9942793e-06
7.8619615e-06
7.7300188e-06
7.598498e-06
7.4674474e-06
7.3369164e-06
7.2069552e-06
7.0776143e-06
6.9489441e-06
6.8209949e-06
6.6938166e-06
6.5674583e-06
6.4419681e-06
6.3173935e-06
6.1937804e-06
6.0711736e-06
5.9496163e-06
5.8291506e-06
5.7098166e-06
5.5916531e-06
5.474697e-06
5.3589836e-06
5.2445467e-06
5.131418e-06
5.019628e-06
4.9092054e-06
4.8001774e-06
4.6925699e-06
4.5864076e-06
4.4817141e-06
4.3785121e-06
4.2768237e-06
4.1766707e-06
4.078075e-06
3.9810589e-06
3.8856454e-06
3.7918591e-06
3.6997272e-06
3.60928e-06
3.5205529e-06
3.4335889e-06
3.348442e-06
3.2651829e-06
3.1839078e-06
3.1047513e-06
3.0279093e-06
2.9536747e-06
2.8824986e-06
2.8150936e-06
2.7526175e-06
2.6969803e-06
2.65139e-06
2.6212725e-06
2.6158251e-06
2.6506337e-06
2.752017e-06
2.9636287e-06
3.3571201e-06
4.0488858e-06
5.2237276e-06
7.1710738e-06
1.0334032e-05
1.5374078e-05
2.3247111e-05
3.5271711e-05
5.3189997e-05
7.9165936e-05
0.00011569609
0.0001654793
0.00023111873
0.00031485796
0.00041808548
0.0005411147
0.00068323541
0.00084216031
0.0010153294
0.0011992298
0.0013906261
0.001587258
0.0017844246
0.0019825936
0.0021798561
0.0023759131
0.0025706851
0.0027653789
0.0029572177
0.0031447319
0.0033265441
0.0035013813
0.0036671313
0.0038239009
0.003975476
0.0041068323
8.9278522e-06
8.7940883e-06
8.6603567e-06
8.5267278e-06
8.3932618e-06
8.2600069e-06
8.1270056e-06
7.9942994e-06
7.8619312e-06
7.7299455e-06
7.5983887e-06
7.4673089e-06
7.3367551e-06
7.206777e-06
7.0774247e-06
6.9487487e-06
6.820799e-06
6.6936253e-06
6.5672768e-06
6.4418017e-06
6.3172474e-06
6.1936598e-06
6.0710841e-06
5.9495636e-06
5.8291403e-06
5.7098547e-06
5.5917457e-06
5.4748501e-06
5.3592035e-06
5.2448392e-06
5.131789e-06
5.0200826e-06
4.9097481e-06
4.8008115e-06
4.6932971e-06
4.5872276e-06
4.4826236e-06
4.3795045e-06
4.2778877e-06
4.1777894e-06
4.0792246e-06
3.9822069e-06
3.8867491e-06
3.7928631e-06
3.7005606e-06
3.6098529e-06
3.5207521e-06
3.433271e-06
3.3474249e-06
3.2632328e-06
3.1807199e-06