/*--------------------------------*- C++ -*----------------------------------*\
| =========                 |                                                 |
| \\      /  F ield         | OpenFOAM: The Open Source CFD Toolbox           |
|  \\    /   O peration     | Version:  2206                                  |
|   \\  /    A nd           | Website:  www.openfoam.com                      |
|    \\/     M anipulation  |                                                 |
\*---------------------------------------------------------------------------*/
FoamFile
{
    version     2.0;
    format      ascii;
    arch        "LSB;label=32;scalar=64";
    class       volScalarField;
    location    "600";
    object      nut;
}
// * * * * * * * * * * * * * * * * * * * * * * * * * * * * * * * * * * * * * //

dimensions      [0 2 -1 0 0 0 0];

internalField   nonuniform List<scalar> 
7480
(
1.5120951e-06
1.8587526e-06
1.5441479e-06
1.0161237e-06
6.0453743e-07
3.7088827e-07
2.5855093e-07
2.0376547e-07
1.7338755e-07
1.5360223e-07
1.3831527e-07
1.2520181e-07
1.137748e-07
1.0388743e-07
9.5313336e-08
8.7835832e-08
8.1310285e-08
7.5577527e-08
7.0477193e-08
6.5906055e-08
6.1801421e-08
5.8095535e-08
5.472614e-08
5.1653939e-08
4.8847777e-08
4.6273962e-08
4.3902573e-08
4.1714574e-08
3.9694902e-08
3.7826333e-08
3.6093873e-08
3.4487738e-08
3.2999321e-08
3.1619006e-08
3.0338732e-08
2.915303e-08
2.8056902e-08
2.7045449e-08
2.6115365e-08
2.5265005e-08
2.4492978e-08
2.3797837e-08
2.3179639e-08
2.2638329e-08
2.2175867e-08
2.1798187e-08
2.1505216e-08
2.1306431e-08
2.1200793e-08
2.1185785e-08
2.1258401e-08
2.1414775e-08
2.1646691e-08
2.1939109e-08
2.2277303e-08
2.2651113e-08
2.3038169e-08
2.340523e-08
2.3719503e-08
2.3959124e-08
2.4119127e-08
2.4202078e-08
2.4215261e-08
2.4168851e-08
2.4075842e-08
2.3948024e-08
2.3795793e-08
2.3627461e-08
2.3448985e-08
2.3264787e-08
2.3078227e-08
2.2891284e-08
2.2705223e-08
2.2521385e-08
2.2340098e-08
2.2161545e-08
2.1985794e-08
2.1805592e-08
2.1621544e-08
2.1435828e-08
2.1249324e-08
2.106247e-08
2.0874547e-08
2.0685278e-08
2.0494604e-08
2.0302491e-08
2.0109243e-08
1.9914942e-08
1.9720029e-08
1.9524651e-08
1.9329109e-08
1.9133534e-08
1.8938366e-08
1.874252e-08
1.8549239e-08
1.8346715e-08
1.8170021e-08
1.791573e-08
1.7772446e-08
1.7384627e-08
1.4111677e-06
1.6301541e-06
1.5385568e-06
1.2880867e-06
1.0362189e-06
8.113258e-07
6.4380964e-07
5.1801918e-07
4.2145573e-07
3.4678392e-07
2.8966703e-07
2.4639115e-07
2.1352733e-07
1.882324e-07
1.6835195e-07
1.5236187e-07
1.3922539e-07
1.2820664e-07
1.1880174e-07
1.1067831e-07
1.0360923e-07
9.7418266e-08
9.197149e-08
8.7170986e-08
8.2845064e-08
7.8913177e-08
7.5331682e-08
7.2078765e-08
6.9141127e-08
6.6506935e-08
6.4168619e-08
6.2123773e-08
6.0371195e-08
5.8909756e-08
5.7740986e-08
5.6869629e-08
5.6302643e-08
5.6052109e-08
5.6138439e-08
5.6590854e-08
5.7446232e-08
5.8749741e-08
6.0557036e-08
6.2932935e-08
6.5956931e-08
6.9715072e-08
7.4265979e-08
7.9656303e-08
8.5903754e-08
9.3000953e-08
1.0091971e-07
1.0965641e-07
1.1901961e-07
1.2878735e-07
1.3874512e-07
1.4857363e-07
1.5780053e-07
1.6599535e-07
1.7290865e-07
1.7849984e-07
1.8288396e-07
1.8626261e-07
1.8882205e-07
1.9063352e-07
1.9186134e-07
1.9265003e-07
1.9311362e-07
1.9333565e-07
1.9337709e-07
1.932823e-07
1.9308191e-07
1.9279457e-07
1.9243747e-07
1.9202381e-07
1.9155823e-07
1.9104155e-07
1.9045853e-07
1.8965688e-07
1.8870116e-07
1.8764399e-07
1.8650241e-07
1.8528118e-07
1.8398185e-07
1.8260997e-07
1.8117052e-07
1.7967118e-07
1.7811938e-07
1.7652264e-07
1.7488919e-07
1.7322568e-07
1.7153888e-07
1.698347e-07
1.6811901e-07
1.6639549e-07
1.6466654e-07
1.629331e-07
1.6121871e-07
1.5926822e-07
1.5790058e-07
1.5465007e-07
1.1014355e-06
1.404837e-06
1.4358991e-06
1.3410226e-06
1.2076694e-06
1.0741478e-06
9.669558e-07
8.8449879e-07
8.2040203e-07
7.6813803e-07
7.2396662e-07
6.7970168e-07
6.3738288e-07
6.0224831e-07
5.7251334e-07
5.4696831e-07
5.2493225e-07
5.0591379e-07
4.8955324e-07
4.7561321e-07
4.6393001e-07
4.5436603e-07
4.4682327e-07
4.4122165e-07
4.3362815e-07
4.2649691e-07
4.1999878e-07
4.1434278e-07
4.0973496e-07
4.0637356e-07
4.0447023e-07
4.0424512e-07
4.059112e-07
4.0968224e-07
4.1578742e-07
4.2446776e-07
4.359848e-07
4.50673e-07
4.6896537e-07
4.9139609e-07
5.185984e-07
5.5131806e-07
5.9042759e-07
6.3692289e-07
6.9196432e-07
7.5672591e-07
8.3200215e-07
9.1828295e-07
1.0157202e-06
1.1240797e-06
1.2423677e-06
1.3697638e-06
1.5043514e-06
1.643173e-06
1.7833039e-06
1.9204046e-06
2.0485685e-06
2.162713e-06
2.2601581e-06
2.3406979e-06
2.4059839e-06
2.4587568e-06
2.4999653e-06
2.5316906e-06
2.5562172e-06
2.5753324e-06
2.590398e-06
2.6023859e-06
2.6119954e-06
2.6197294e-06
2.6259256e-06
2.6307839e-06
2.6345042e-06
2.6372338e-06
2.6390179e-06
2.6398557e-06
2.6395245e-06
2.6357497e-06
2.6296189e-06
2.6218918e-06
2.6128016e-06
2.6024138e-06
2.5907642e-06
2.577943e-06
2.5640276e-06
2.5491328e-06
2.5333633e-06
2.5168268e-06
2.4996364e-06
2.4818856e-06
2.4636686e-06
2.4450701e-06
2.4261678e-06
2.4070393e-06
2.3876546e-06
2.3682742e-06
2.3485483e-06
2.3266076e-06
2.3112205e-06
2.2731446e-06
5.0849642e-07
9.5920962e-07
1.1798556e-06
1.2285191e-06
1.2004633e-06
1.1429396e-06
1.0804409e-06
1.0213937e-06
9.699296e-07
9.3013186e-07
9.0618343e-07
9.0240787e-07
9.0581014e-07
8.5770657e-07
8.2199772e-07
7.9457486e-07
7.7456183e-07
7.6005715e-07
7.5003598e-07
7.4386327e-07
7.4113718e-07
7.4157248e-07
7.450008e-07
7.5126458e-07
7.5983393e-07
7.7019455e-07
7.822108e-07
7.9609994e-07
8.1225246e-07
8.3114685e-07
8.533325e-07
8.7942518e-07
9.1009775e-07
9.460822e-07
9.881767e-07
1.0372374e-06
1.0942333e-06
1.1604365e-06
1.237438e-06
1.3271349e-06
1.4317266e-06
1.5537341e-06
1.6960293e-06
1.8618396e-06
2.0547705e-06
2.2780506e-06
2.5343212e-06
2.8248595e-06
3.1501804e-06
3.5097807e-06
3.9017048e-06
4.3200223e-06
4.7614045e-06
5.2181454e-06
5.681794e-06
6.1407044e-06
6.5797595e-06
6.984973e-06
7.3474364e-06
7.6642793e-06
7.9379227e-06
8.1723161e-06
8.370121e-06
8.5383004e-06
8.68328e-06
8.8103496e-06
8.9236579e-06
9.0262541e-06
9.1203177e-06
9.2073888e-06
9.2884973e-06
9.3642406e-06
9.4351337e-06
9.5015716e-06
9.563656e-06
9.6213185e-06
9.6740784e-06
9.7002895e-06
9.7154405e-06
9.7243237e-06
9.7276627e-06
9.7257205e-06
9.7186642e-06
9.7068189e-06
9.690486e-06
9.6700722e-06
9.645954e-06
9.6185108e-06
9.5881355e-06
9.5551606e-06
9.5199066e-06
9.4826818e-06
9.4437517e-06
9.4034251e-06
9.361547e-06
9.319299e-06
9.2746851e-06
9.2242312e-06
9.1899017e-06
9.0978309e-06
2.2508013e-07
4.2728787e-07
6.9868352e-07
8.9336303e-07
9.8973702e-07
1.0235622e-06
1.0250811e-06
1.0107913e-06
9.8916113e-07
9.6539746e-07
9.4381243e-07
9.2880805e-07
9.2206118e-07
9.231088e-07
9.3207167e-07
9.4904884e-07
9.6935177e-07
9.5334549e-07
9.297137e-07
9.1685812e-07
9.1366398e-07
9.1848412e-07
9.3040056e-07
9.4878712e-07
9.7328476e-07
1.003726e-06
1.0384488e-06
1.0775072e-06
1.121444e-06
1.1707916e-06
1.226153e-06
1.2882623e-06
1.3580297e-06
1.4365768e-06
1.5252691e-06
1.6257205e-06
1.7395702e-06
1.8684499e-06
2.0151165e-06
2.1829e-06
2.3756015e-06
2.5974951e-06
2.8533636e-06
3.1485379e-06
3.4887717e-06
3.8789172e-06
4.3213228e-06
4.8167723e-06
5.3660575e-06
5.9691089e-06
6.6242264e-06
7.3263911e-06
8.0662403e-06
8.8341096e-06
9.6193174e-06
1.0408061e-05
1.1176549e-05
1.1901483e-05
1.2568226e-05
1.3170845e-05
1.3707895e-05
1.4182098e-05
1.4599828e-05
1.4969462e-05
1.5299608e-05
1.5597926e-05
1.5870871e-05
1.6123515e-05
1.6359644e-05
1.6582021e-05
1.6792474e-05
1.6991963e-05
1.7181654e-05
1.7362315e-05
1.7534107e-05
1.7696834e-05
1.7849629e-05
1.7986701e-05
1.8107993e-05
1.8215026e-05
1.8308871e-05
1.8390126e-05
1.8459145e-05
1.8516501e-05
1.8562831e-05
1.8598945e-05
1.8625666e-05
1.8643812e-05
1.8654243e-05
1.8657723e-05
1.8654913e-05
1.864654e-05
1.8633249e-05
1.8615693e-05
1.8593917e-05
1.8569523e-05
1.854103e-05
1.8499886e-05
1.8478925e-05
1.8402037e-05
1.7530603e-07
2.1589099e-07
3.185834e-07
4.6497415e-07
6.0528236e-07
7.1036979e-07
7.7990806e-07
8.2294934e-07
8.4805869e-07
8.613183e-07
8.6701458e-07
8.6873078e-07
8.6926854e-07
8.7065861e-07
8.7466116e-07
8.8295379e-07
8.9637739e-07
9.1557477e-07
9.4165132e-07
9.7586927e-07
1.0156561e-06
1.0618386e-06
1.0570641e-06
1.0562603e-06
1.0670876e-06
1.0882365e-06
1.1196834e-06
1.161736e-06
1.2148787e-06
1.2798186e-06
1.3575255e-06
1.449329e-06
1.5571552e-06
1.6840311e-06
1.8350291e-06
2.0181824e-06
2.2359996e-06
2.4752352e-06
2.7408596e-06
3.0385513e-06
3.3741022e-06
3.7536244e-06
4.1838628e-06
4.6727001e-06
5.2301488e-06
5.8555292e-06
6.5394712e-06
7.2798839e-06
8.0784994e-06
8.9364721e-06
9.8528441e-06
1.0823048e-05
1.1837261e-05
1.2882086e-05
1.3946262e-05
1.4997683e-05
1.6005486e-05
1.6954354e-05
1.783784e-05
1.8655515e-05
1.940936e-05
2.0102496e-05
2.0739709e-05
2.132718e-05
2.1871557e-05
2.2379289e-05
2.2856483e-05
2.3308301e-05
2.3738775e-05
2.4151039e-05
2.4546171e-05
2.4923738e-05
2.5288554e-05
2.5641326e-05
2.5981852e-05
2.6309433e-05
2.6622375e-05
2.691886e-05
2.719568e-05
2.7451433e-05
2.7686034e-05
2.7899731e-05
2.8092744e-05
2.8265638e-05
2.8419193e-05
2.8554479e-05
2.8672684e-05
2.8775037e-05
2.8862884e-05
2.8937484e-05
2.8999306e-05
2.9050085e-05
2.9091081e-05
2.9123341e-05
2.9147326e-05
2.9164661e-05
2.9175668e-05
2.9165245e-05
2.917518e-05
2.9133619e-05
1.6890602e-07
1.7480191e-07
1.9622886e-07
2.415974e-07
3.0837322e-07
3.8395256e-07
4.5674753e-07
5.2097914e-07
5.7523272e-07
6.1997755e-07
6.5626415e-07
6.8542818e-07
7.0894108e-07
7.2825299e-07
7.4481886e-07
7.6011586e-07
7.7548063e-07
7.921509e-07
8.1145961e-07
8.3490733e-07
8.6345158e-07
8.9845199e-07
9.4049483e-07
9.8984258e-07
1.045001e-06
1.1061191e-06
1.1741478e-06
1.2083283e-06
1.2332686e-06
1.272906e-06
1.3285272e-06
1.4020228e-06
1.4958591e-06
1.6130499e-06
1.757528e-06
1.9347901e-06
2.1513945e-06
2.412476e-06
2.7238609e-06
3.0927473e-06
3.5277477e-06
4.0392791e-06
4.6407529e-06
5.351585e-06
6.2044793e-06
6.9694091e-06
7.8047638e-06
8.7622476e-06
9.8395137e-06
1.1030306e-05
1.2321797e-05
1.3690623e-05
1.5103458e-05
1.6563662e-05
1.8073256e-05
1.9178052e-05
2.0095611e-05
2.1003357e-05
2.1904335e-05
2.2797731e-05
2.3678175e-05
2.4540681e-05
2.5381774e-05
2.619884e-05
2.6990345e-05
2.7756804e-05
2.8500013e-05
2.9221589e-05
2.9923117e-05
3.0606349e-05
3.1272526e-05
3.1921912e-05
3.255499e-05
3.3171837e-05
3.3771637e-05
3.4353082e-05
3.4913718e-05
3.545182e-05
3.5964321e-05
3.6448295e-05
3.6902083e-05
3.7324998e-05
3.7716793e-05
3.8077812e-05
3.8408822e-05
3.8711034e-05
3.8985909e-05
3.923505e-05
3.9460304e-05
3.9663474e-05
3.984627e-05
4.001044e-05
4.0157629e-05
4.028933e-05
4.0406671e-05
4.0510999e-05
4.0605399e-05
4.0668701e-05
4.0745292e-05
4.0789893e-05
1.6818113e-07
1.6866192e-07
1.7195826e-07
1.812614e-07
1.9895664e-07
2.2490459e-07
2.5728721e-07
2.9358526e-07
3.3182053e-07
3.7053528e-07
4.085671e-07
4.4500449e-07
4.7924519e-07
5.1097083e-07
5.4015952e-07
5.6707273e-07
5.9216678e-07
6.1602406e-07
6.3937029e-07
6.6309432e-07
6.8812281e-07
7.1551701e-07
7.4635583e-07
7.8170816e-07
8.2233459e-07
8.691781e-07
9.2354842e-07
9.8582132e-07
1.0558313e-06
1.1347707e-06
1.2243443e-06
1.3266964e-06
1.4276093e-06
1.494841e-06
1.5856593e-06
1.7047572e-06
1.8584097e-06
2.0546793e-06
2.3033411e-06
2.6160549e-06
3.0068708e-06
3.4926438e-06
4.0933295e-06
4.8323664e-06
5.7384611e-06
6.7097785e-06
7.7075304e-06
8.8169896e-06
1.004962e-05
1.140557e-05
1.2869582e-05
1.4406755e-05
1.5971553e-05
1.7626691e-05
1.9392641e-05
2.0669846e-05
2.1768541e-05
2.2849719e-05
2.3923932e-05
2.5000029e-05
2.6079982e-05
2.7164707e-05
2.8249552e-05
2.9329077e-05
3.0399835e-05
3.1460632e-05
3.2509944e-05
3.3545606e-05
3.4567052e-05
3.5574576e-05
3.6567745e-05
3.7545785e-05
3.8507759e-05
3.9452379e-05
4.037736e-05
4.1280247e-05
4.2157589e-05
4.3006286e-05
4.3823236e-05
4.460495e-05
4.5348431e-05
4.6051685e-05
4.6713569e-05
4.7333789e-05
4.7912768e-05
4.8451552e-05
4.895157e-05
4.9414554e-05
4.9842686e-05
5.0238185e-05
5.0603464e-05
5.0940707e-05
5.1251997e-05
5.1539236e-05
5.1804341e-05
5.2048195e-05
5.227686e-05
5.2465189e-05
5.2652552e-05
5.2845325e-05
1.6814571e-07
1.6787306e-07
1.6803251e-07
1.6934703e-07
1.7271398e-07
1.7877344e-07
1.8775691e-07
1.9960967e-07
2.1419404e-07
2.3139284e-07
2.5107205e-07
2.7273843e-07
2.9592324e-07
3.2015381e-07
3.4499401e-07
3.7009418e-07
3.9520664e-07
4.2018517e-07
4.450093e-07
4.6980534e-07
4.9482832e-07
5.2046568e-07
5.47238e-07
5.7579124e-07
6.0683018e-07
6.4116135e-07
6.7977144e-07
7.2363618e-07
7.736469e-07
8.3096385e-07
8.9713628e-07
9.7359742e-07
1.0618609e-06
1.1632884e-06
1.2800902e-06
1.4151387e-06
1.5722276e-06
1.7564999e-06
1.9284616e-06
2.1213597e-06
2.3730774e-06
2.7009487e-06
3.127516e-06
3.6821044e-06
4.4018088e-06
5.3211444e-06
6.2974073e-06
7.3653546e-06
8.5757214e-06
9.9377836e-06
1.1453191e-05
1.3111187e-05
1.4887918e-05
1.6776938e-05
1.8774913e-05
2.0624589e-05
2.190938e-05
2.3189638e-05
2.4437812e-05
2.5674945e-05
2.6933145e-05
2.8216792e-05
2.9508148e-05
3.0809331e-05
3.2126375e-05
3.34548e-05
3.478901e-05
3.6125696e-05
3.7464171e-05
3.8802271e-05
4.0136174e-05
4.146379e-05
4.2783267e-05
4.4091207e-05
4.5382516e-05
4.6652786e-05
4.789673e-05
4.9109109e-05
5.0285834e-05
5.1422767e-05
5.2515726e-05
5.3561391e-05
5.4557412e-05
5.5502369e-05
5.6395933e-05
5.7238579e-05
5.8031241e-05
5.8775398e-05
5.947325e-05
6.0127156e-05
6.0739814e-05
6.1313827e-05
6.1851645e-05
6.2355484e-05
6.2828038e-05
6.3269642e-05
6.3689016e-05
6.4059526e-05
6.4409323e-05
6.4820356e-05
1.6819002e-07
1.678143e-07
1.674929e-07
1.6735582e-07
1.6761844e-07
1.6851641e-07
1.7024648e-07
1.7296265e-07
1.7680433e-07
1.8191171e-07
1.8841598e-07
1.9639593e-07
2.058835e-07
2.1686138e-07
2.2934353e-07
2.4328148e-07
2.5850508e-07
2.7485538e-07
2.9220453e-07
3.104636e-07
3.2959185e-07
3.4960932e-07
3.7060885e-07
3.9276951e-07
4.1635484e-07
4.4172215e-07
4.6935092e-07
4.9983225e-07
5.3384937e-07
5.7222328e-07
6.15982e-07
6.6631812e-07
7.2461524e-07
7.9244594e-07
8.7176612e-07
9.6454073e-07
1.0735034e-06
1.2022435e-06
1.3545403e-06
1.5352983e-06
1.7515163e-06
2.0125568e-06
2.3306318e-06
2.721385e-06
3.1865715e-06
3.7661489e-06
4.5193624e-06
5.3772174e-06
6.3844376e-06
7.5555031e-06
8.9027864e-06
1.043253e-05
1.2141138e-05
1.4023297e-05
1.6074599e-05
1.8246171e-05
2.045287e-05
2.2483496e-05
2.3873085e-05
2.5255236e-05
2.665971e-05
2.8073826e-05
2.9488015e-05
3.0934383e-05
3.2433441e-05
3.3954189e-05
3.5496571e-05
3.7070022e-05
3.8670892e-05
4.0291856e-05
4.1928474e-05
4.3580617e-05
4.5243648e-05
4.6911041e-05
4.8574003e-05
5.0225359e-05
5.1856574e-05
5.3460062e-05
5.5030048e-05
5.656063e-05
5.8046084e-05
5.9481776e-05
6.0863707e-05
6.218874e-05
6.3455298e-05
6.4662712e-05
6.5810799e-05
6.6900249e-05
6.7932726e-05
6.8910267e-05
6.9835412e-05
7.0710851e-05
7.1539196e-05
7.2322792e-05
7.3064964e-05
7.3765444e-05
7.4435004e-05
7.5047619e-05
7.5616497e-05
7.6319795e-05
1.6824357e-07
1.6785095e-07
1.6745974e-07
1.6708856e-07
1.6677837e-07
1.6658715e-07
1.6657963e-07
1.6682314e-07
1.6739076e-07
1.6836443e-07
1.698336e-07
1.7188908e-07
1.7461881e-07
1.7810313e-07
1.8241828e-07
1.8763136e-07
1.9379008e-07
2.0092525e-07
2.0905561e-07
2.1819397e-07
2.2838025e-07
2.3969893e-07
2.5216873e-07
2.6579642e-07
2.8063342e-07
2.9678627e-07
3.1442524e-07
3.3379839e-07
3.5523836e-07
3.7916898e-07
4.0613154e-07
4.3680183e-07
4.7201651e-07
5.12801e-07
5.6043238e-07
6.1641639e-07
6.8263815e-07
7.6152181e-07
8.5601091e-07
9.6945528e-07
1.1064459e-06
1.2730254e-06
1.4771553e-06
1.729279e-06
2.0426348e-06
2.4336727e-06
2.9206035e-06
3.5194278e-06
4.2474607e-06
5.1232366e-06
6.1659245e-06
7.3935661e-06
8.82022e-06
1.0456003e-05
1.2308278e-05
1.4364173e-05
1.6579494e-05
1.8900461e-05
2.1257022e-05
2.3634755e-05
2.560532e-05
2.7113343e-05
2.8630282e-05
3.0182545e-05
3.1768327e-05
3.3370735e-05
3.501719e-05
3.6740187e-05
3.8506572e-05
4.0311326e-05
4.216606e-05
4.4072192e-05
4.6015655e-05
4.7986656e-05
4.9977396e-05
5.1976943e-05
5.3972794e-05
5.5956514e-05
5.7919689e-05
5.9852764e-05
6.1748203e-05
6.3599504e-05
6.5399917e-05
6.7143976e-05
6.8828116e-05
7.0449585e-05
7.2006386e-05
7.3497656e-05
7.4923646e-05
7.6285356e-05
7.7584579e-05
7.8823519e-05
8.0004612e-05
8.1129975e-05
8.2203293e-05
8.3223602e-05
8.4203037e-05
8.5117535e-05
8.5964172e-05
8.7033628e-05
1.683453e-07
1.6795312e-07
1.6755465e-07
1.6715125e-07
1.6674939e-07
1.6636054e-07
1.6600053e-07
1.6568899e-07
1.6544974e-07
1.6531167e-07
1.6530907e-07
1.6548135e-07
1.6587249e-07
1.6653015e-07
1.6750509e-07
1.6885058e-07
1.7062069e-07
1.728687e-07
1.7564638e-07
1.7900408e-07
1.8299324e-07
1.876701e-07
1.9308948e-07
1.9930515e-07
2.0637482e-07
2.1436571e-07
2.2336706e-07
2.3354003e-07
2.4508793e-07
2.5817288e-07
2.7299277e-07
2.898342e-07
3.09089e-07
3.3127319e-07
3.5706021e-07
3.872943e-07
4.2303663e-07
4.6564973e-07
5.1687217e-07
5.7886389e-07
6.544269e-07
7.4725564e-07
8.6221657e-07
1.0056526e-06
1.1860854e-06
1.41465e-06
1.705251e-06
2.0735933e-06
2.5372035e-06
3.115375e-06
3.8289933e-06
4.7000472e-06
5.7505635e-06
7.0018286e-06
8.474236e-06
1.0180791e-05
1.2116845e-05
1.4260138e-05
1.6566487e-05
1.9000992e-05
2.151125e-05
2.4054697e-05
2.6628979e-05
2.8805687e-05
3.0459763e-05
3.2132683e-05
3.3854054e-05
3.5626201e-05
3.7433349e-05
3.9300447e-05
4.1268845e-05
4.3311678e-05
4.5414096e-05
4.7583051e-05
4.9807334e-05
5.2069475e-05
5.4359239e-05
5.6668888e-05
5.8983836e-05
6.1290629e-05
6.3580786e-05
6.5843688e-05
6.8068524e-05
7.0247426e-05
7.237368e-05
7.4441055e-05
7.6444884e-05
7.8381713e-05
8.0249317e-05
8.2046783e-05
8.3774334e-05
8.5432884e-05
8.7024054e-05
8.8549227e-05
9.0012022e-05
9.1410537e-05
9.2757578e-05
9.4031604e-05
9.5214606e-05
9.6720817e-05
1.6852046e-07
1.6817133e-07
1.678087e-07
1.674321e-07
1.6704291e-07
1.6664384e-07
1.6623895e-07
1.6583365e-07
1.6543475e-07
1.6505075e-07
1.6469219e-07
1.6437195e-07
1.6410556e-07
1.639114e-07
1.6381073e-07
1.6382782e-07
1.6398987e-07
1.6432678e-07
1.6487089e-07
1.6565685e-07
1.6672161e-07
1.6810471e-07
1.6984816e-07
1.7199639e-07
1.7459654e-07
1.7769925e-07
1.8136129e-07
1.8565254e-07
1.9065881e-07
1.9647711e-07
2.0322113e-07
2.1103102e-07
2.2008533e-07
2.3065776e-07
2.4312721e-07
2.5784462e-07
2.7524036e-07
2.9591778e-07
3.2069485e-07
3.5065478e-07
3.8722003e-07
4.3227208e-07
4.8832404e-07
5.5875066e-07
6.4817159e-07
7.6291952e-07
9.1152664e-07
1.1049794e-06
1.3571433e-06
1.6848974e-06
2.1080916e-06
2.6491707e-06
3.3324021e-06
4.1829166e-06
5.2261758e-06
6.4860849e-06
7.980251e-06
9.7159942e-06
1.1684917e-05
1.3870573e-05
1.6242022e-05
1.8760961e-05
2.1401794e-05
2.4121367e-05
2.6880621e-05
2.9683149e-05
3.2157563e-05
3.3987683e-05
3.584108e-05
3.7756341e-05
3.9737945e-05
4.1767084e-05
4.3876398e-05
4.6119057e-05
4.8440267e-05
5.0830942e-05
5.330413e-05
5.58405e-05
5.8417309e-05
6.1025312e-05
6.3653856e-05
6.6283905e-05
6.8902351e-05
7.1499104e-05
7.4061959e-05
7.6580394e-05
7.9046203e-05
8.1451907e-05
8.3791769e-05
8.6061964e-05
8.8259953e-05
9.0384278e-05
9.2434763e-05
9.4411252e-05
9.6316566e-05
9.8147343e-05
9.9916288e-05
0.00010160423
0.00010318106
0.0001051892
1.6867663e-07
1.6839201e-07
1.680929e-07
1.6777784e-07
1.6744672e-07
1.671002e-07
1.667396e-07
1.6636671e-07
1.6598359e-07
1.655926e-07
1.6519655e-07
1.6479894e-07
1.6440422e-07
1.6401797e-07
1.6364719e-07
1.6330037e-07
1.6298774e-07
1.6272138e-07
1.6251531e-07
1.623856e-07
1.6235047e-07
1.6243039e-07
1.6264813e-07
1.6302896e-07
1.6360066e-07
1.6439373e-07
1.654419e-07
1.6678325e-07
1.6846144e-07
1.7052646e-07
1.7303623e-07
1.7605916e-07
1.7967724e-07
1.8399555e-07
1.8915192e-07
1.9531237e-07
2.0267963e-07
2.1151232e-07
2.2216386e-07
2.3518969e-07
2.5120063e-07
2.7090801e-07
2.9533395e-07
3.2591995e-07
3.6469769e-07
4.1451824e-07
4.793899e-07
5.6490091e-07
6.7878313e-07
8.3157976e-07
1.0373216e-06
1.3140969e-06
1.6844454e-06
2.1748943e-06
2.8147615e-06
3.634032e-06
4.6600608e-06
5.9140046e-06
7.4078373e-06
9.1457964e-06
1.1122815e-05
1.332477e-05
1.5735475e-05
1.8327572e-05
2.1066272e-05
2.3931426e-05
2.6888616e-05
2.9895308e-05
3.2959877e-05
3.5735976e-05
3.7767554e-05
3.9815891e-05
4.1933697e-05
4.4130691e-05
4.6387548e-05
4.8755835e-05
5.1279656e-05
5.3890427e-05
5.6587124e-05
5.9379421e-05
6.2237735e-05
6.5138153e-05
6.8073581e-05
7.1027157e-05
7.3978835e-05
7.6915795e-05
7.982434e-05
8.2691707e-05
8.5508101e-05
8.8265462e-05
9.0956946e-05
9.3577389e-05
9.6123505e-05
9.8592382e-05
0.00010098489
0.00010329532
0.00010553525
0.00010768709
0.00010971311
0.00011228098
1.6876881e-07
1.6852915e-07
1.6827917e-07
1.6801709e-07
1.6774197e-07
1.6745345e-07
1.6715167e-07
1.6683719e-07
1.6651067e-07
1.6617274e-07
1.6582402e-07
1.6546516e-07
1.6509703e-07
1.6472083e-07
1.6433816e-07
1.6395121e-07
1.6356282e-07
1.6317664e-07
1.6279721e-07
1.6243016e-07
1.6208225e-07
1.6176157e-07
1.6147765e-07
1.6124161e-07
1.6106628e-07
1.6096636e-07
1.6095862e-07
1.6106216e-07
1.6129881e-07
1.6169351e-07
1.6227495e-07
1.6307637e-07
1.6413651e-07
1.6550161e-07
1.6722833e-07
1.69386e-07
1.7205953e-07
1.7535443e-07
1.7940607e-07
1.843997e-07
1.9057226e-07
1.9822235e-07
2.0774547e-07
2.1969973e-07
2.3497679e-07
2.5461552e-07
2.8003335e-07
3.133694e-07
3.5777878e-07
4.1786186e-07
5.002529e-07
6.1444863e-07
7.7390545e-07
9.9722856e-07
1.309108e-06
1.7403442e-06
2.3262156e-06
3.1018005e-06
4.0959422e-06
5.3273618e-06
6.8043879e-06
8.5277874e-06
1.0495628e-05
1.2701372e-05
1.5131618e-05
1.7772838e-05
2.0602602e-05
2.3586849e-05
2.6708489e-05
2.9938015e-05
3.3229377e-05
3.6593884e-05
3.9597248e-05
4.1817476e-05
4.4072951e-05
4.6415259e-05
4.8846741e-05
5.1346124e-05
5.4007979e-05
5.6835387e-05
5.9753151e-05
6.2776945e-05
6.5905409e-05
6.909995e-05
7.2340483e-05
7.561618e-05
7.8902135e-05
8.2182284e-05
8.5442596e-05
8.8668566e-05
9.1847848e-05
9.4970117e-05
9.802756e-05
0.00010101282
0.00010392335
0.00010674984
0.0001095013
0.00011216044
0.00011468659
0.00011786202
1.6881512e-07
1.6859879e-07
1.6837584e-07
1.6814486e-07
1.6790486e-07
1.6765516e-07
1.6739548e-07
1.6712586e-07
1.6684651e-07
1.665576e-07
1.6625921e-07
1.6595133e-07
1.6563392e-07
1.6530697e-07
1.6497054e-07
1.6462483e-07
1.6427023e-07
1.6390735e-07
1.6353714e-07
1.6316089e-07
1.6278036e-07
1.6239785e-07
1.6201631e-07
1.616394e-07
1.6127165e-07
1.6091854e-07
1.6058667e-07
1.6028385e-07
1.6001934e-07
1.5980401e-07
1.596506e-07
1.5957406e-07
1.5959187e-07
1.5972464e-07
1.5999691e-07
1.6043813e-07
1.6108385e-07
1.6197731e-07
1.6317204e-07
1.647363e-07
1.667573e-07
1.6934625e-07
1.7264773e-07
1.7685512e-07
1.8224416e-07
1.8918419e-07
1.9818085e-07
2.099597e-07
2.2569766e-07
2.4707208e-07
2.7632883e-07
3.1698438e-07
3.7444684e-07
4.5692136e-07
5.7667621e-07
7.5169313e-07
1.0073887e-06
1.3772331e-06
1.900827e-06
2.6181163e-06
3.561848e-06
4.7518334e-06
6.1955108e-06
7.892826e-06
9.8408374e-06
1.2038055e-05
1.4480926e-05
1.7157856e-05
2.0057129e-05
2.3158871e-05
2.6427966e-05
2.9848612e-05
3.3387682e-05
3.6999437e-05
4.0697471e-05
4.3785129e-05
4.6214143e-05
4.8695816e-05
5.1284739e-05
5.3966028e-05
5.67361e-05
5.9724121e-05
6.2873871e-05
6.6131854e-05
6.9509755e-05
7.298988e-05
7.6531603e-05
8.0125155e-05
8.3749375e-05
8.7380513e-05
9.1001694e-05
9.4595428e-05
9.8148536e-05
0.00010164714
0.00010508399
0.00010844455
0.00011173338
0.00011493218
0.00011799939
0.000121816
1.6883685e-07
1.6863129e-07
1.6842117e-07
1.6820554e-07
1.6798364e-07
1.6775487e-07
1.6751888e-07
1.6727557e-07
1.6702504e-07
1.6676735e-07
1.6650253e-07
1.6623049e-07
1.6595107e-07
1.6566409e-07
1.6536932e-07
1.6506654e-07
1.6475557e-07
1.6443625e-07
1.641085e-07
1.637723e-07
1.6342778e-07
1.6307524e-07
1.6271515e-07
1.6234826e-07
1.6197561e-07
1.6159863e-07
1.6121921e-07
1.6083974e-07
1.6046327e-07
1.6009356e-07
1.5973524e-07
1.5939395e-07
1.5907651e-07
1.5879112e-07
1.5854764e-07
1.58358e-07
1.5823655e-07
1.5820068e-07
1.5827161e-07
1.5847557e-07
1.588453e-07
1.5942196e-07
1.6025797e-07
1.6142134e-07
1.6300306e-07
1.6512559e-07
1.6795623e-07
1.7172929e-07
1.7679354e-07
1.8366343e-07
1.9308202e-07
2.0617529e-07
2.2481513e-07
2.5183981e-07
2.9143478e-07
3.504057e-07
4.3955355e-07
5.7545131e-07
7.8244966e-07
1.0938315e-06
1.5507375e-06
2.1975642e-06
3.07309e-06
4.2029722e-06
5.5974052e-06
7.2567674e-06
9.179115e-06
1.1363213e-05
1.3810602e-05
1.6520713e-05
1.9482331e-05
2.2683775e-05
2.610251e-05
2.9701288e-05
3.3465102e-05
3.7346213e-05
4.1312081e-05
4.5376741e-05
4.8383983e-05
5.1031681e-05
5.3760479e-05
5.6612831e-05
5.9554547e-05
6.2669151e-05
6.6003946e-05
6.9490679e-05
7.3111746e-05
7.6865548e-05
8.0716925e-05
8.4634299e-05
8.8600377e-05
9.2586819e-05
9.6576133e-05
0.00010054568
0.00010448321
0.00010836686
0.00011219475
0.00011594666
0.00011957544
0.00012404622
1.6884638e-07
1.6864543e-07
1.6844093e-07
1.6823224e-07
1.6801883e-07
1.6780023e-07
1.6757614e-07
1.6734649e-07
1.6711131e-07
1.668707e-07
1.6662468e-07
1.6637325e-07
1.661163e-07
1.658537e-07
1.6558529e-07
1.6531086e-07
1.650302e-07
1.6474309e-07
1.6444929e-07
1.6414857e-07
1.6384072e-07
1.6352554e-07
1.6320289e-07
1.6287265e-07
1.6253481e-07
1.6218945e-07
1.6183679e-07
1.6147721e-07
1.6111133e-07
1.6074001e-07
1.6036444e-07
1.5998622e-07
1.596074e-07
1.5923062e-07
1.5885919e-07
1.5849725e-07
1.5814994e-07
1.5782359e-07
1.5752602e-07
1.5726691e-07
1.5705827e-07
1.5691506e-07
1.5685613e-07
1.5690542e-07
1.5709397e-07
1.5746254e-07
1.5806585e-07
1.5897884e-07
1.6030783e-07
1.6220713e-07
1.6490234e-07
1.6873141e-07
1.7422748e-07
1.8222759e-07
1.940363e-07
2.1176683e-07
2.3915238e-07
2.8178868e-07
3.4879491e-07
4.5469447e-07
6.2141778e-07
8.8016164e-07
1.2714262e-06
1.8418914e-06
2.6370099e-06
3.6912011e-06
5.0223066e-06
6.6340703e-06
8.5248056e-06
1.0695045e-05
1.3147203e-05
1.5885758e-05
1.8910204e-05
2.2207079e-05
2.5763127e-05
2.9546388e-05
3.3520577e-05
3.7671783e-05
4.1926329e-05
4.6278993e-05
5.0555317e-05
5.3450187e-05
5.6330927e-05
5.9331357e-05
6.2455916e-05
6.5687046e-05
6.9198132e-05
7.2905105e-05
7.6784241e-05
8.0809964e-05
8.496406e-05
8.9205788e-05
9.3515942e-05
9.7862743e-05
0.00010222905
0.00010658326
0.00011091575
0.00011520362
0.00011938038
0.00012448832
1.6884996e-07
1.6865078e-07
1.6844849e-07
1.6824269e-07
1.68033e-07
1.6781907e-07
1.6760065e-07
1.6737769e-07
1.6715022e-07
1.6691833e-07
1.6668208e-07
1.664415e-07
1.6619657e-07
1.6594723e-07
1.656934e-07
1.6543496e-07
1.651718e-07
1.6490375e-07
1.6463066e-07
1.6435235e-07
1.6406863e-07
1.637793e-07
1.6348416e-07
1.6318298e-07
1.6287556e-07
1.6256172e-07
1.6224126e-07
1.6191405e-07
1.6157998e-07
1.6123904e-07
1.6089128e-07
1.6053689e-07
1.6017618e-07
1.5980969e-07
1.5943817e-07
1.5906269e-07
1.5868465e-07
1.5830595e-07
1.57929e-07
1.5755691e-07
1.5719363e-07
1.5684417e-07
1.5651489e-07
1.5621386e-07
1.5595143e-07
1.5574105e-07
1.5560039e-07
1.5555324e-07
1.5563237e-07
1.558841e-07
1.5637538e-07
1.5720509e-07
1.5852462e-07
1.6057053e-07
1.637165e-07
1.6856737e-07
1.7615279e-07
1.8815393e-07
2.0737411e-07
2.3870581e-07
2.8982226e-07
3.7294691e-07
5.0716628e-07
7.2048001e-07
1.0511053e-06
1.5461029e-06
2.2559125e-06
3.2248754e-06
4.4815349e-06
6.037338e-06
7.8929381e-06
1.0048277e-05
1.2507974e-05
1.5277564e-05
1.8362979e-05
2.1759187e-05
2.5448887e-05
2.9416218e-05
3.36125e-05
3.800699e-05
4.2577209e-05
4.7235824e-05
5.2006167e-05
5.5892939e-05
5.9005716e-05
6.2157845e-05
6.5465216e-05
6.8876799e-05
7.2534015e-05
7.6447729e-05
8.0566083e-05
8.4865421e-05
8.9314889e-05
9.388638e-05
9.8551347e-05
0.00010327001
0.00010802352
0.00011278505
0.00011745555
0.0001231352
1.6885069e-07
1.6865197e-07
1.6845036e-07
1.6824558e-07
1.6803736e-07
1.6782543e-07
1.676096e-07
1.6738982e-07
1.6716611e-07
1.6693856e-07
1.6670724e-07
1.6647219e-07
1.6623344e-07
1.6599098e-07
1.6574478e-07
1.654948e-07
1.6524098e-07
1.6498325e-07
1.6472153e-07
1.6445571e-07
1.641857e-07
1.6391137e-07
1.6363259e-07
1.6334921e-07
1.6306107e-07
1.62768e-07
1.6246983e-07
1.6216638e-07
1.6185745e-07
1.6154286e-07
1.6122244e-07
1.6089604e-07
1.6056351e-07
1.6022479e-07
1.5987984e-07
1.5952874e-07
1.5917163e-07
1.5880884e-07
1.5844085e-07
1.5806837e-07
1.5769241e-07
1.5731432e-07
1.5693593e-07
1.565596e-07
1.5618847e-07
1.5582665e-07
1.5547952e-07
1.5515432e-07
1.5486086e-07
1.5461282e-07
1.5442964e-07
1.5433966e-07
1.5438538e-07
1.5463231e-07
1.5518358e-07
1.562053e-07
1.5797498e-07
1.6095613e-07
1.6593314e-07
1.7426422e-07
1.8822961e-07
2.1164772e-07
2.5111978e-07
3.1687373e-07
4.2508207e-07
6.0031885e-07
8.7755029e-07
1.3026245e-06
1.9289535e-06
2.8093342e-06
3.985206e-06
5.4783965e-06
7.2955618e-06
9.436977e-06
1.1906781e-05
1.4713338e-05
1.7863677e-05
2.1362842e-05
2.5195308e-05
2.9338578e-05
3.3768378e-05
3.8422148e-05
4.3278435e-05
4.8271592e-05
5.3369839e-05
5.8440068e-05
6.1809497e-05
6.515828e-05
6.8618199e-05
7.222216e-05
7.6020122e-05
8.0142535e-05
8.4479526e-05
8.9065135e-05
9.3829059e-05
9.8743668e-05
0.00010377386
0.00010888559
0.0001139589
0.00012006892
1.6885011e-07
1.686513e-07
1.6844967e-07
1.6824506e-07
1.6803726e-07
1.6782607e-07
1.6761134e-07
1.6739301e-07
1.6717111e-07
1.6694569e-07
1.6671683e-07
1.6648458e-07
1.6624898e-07
1.6601004e-07
1.6576777e-07
1.6552216e-07
1.6527321e-07
1.6502088e-07
1.6476514e-07
1.6450596e-07
1.6424329e-07
1.6397707e-07
1.6370724e-07
1.6343372e-07
1.6315643e-07
1.6287528e-07
1.6259016e-07
1.6230095e-07
1.6200753e-07
1.6170976e-07
1.6140749e-07
1.6110056e-07
1.6078881e-07
1.6047208e-07
1.6015022e-07
1.5982306e-07
1.5949048e-07
1.5915236e-07
1.5880866e-07
1.5845936e-07
1.5810454e-07
1.5774437e-07
1.5737916e-07
1.5700942e-07
1.5663583e-07
1.5625941e-07
1.5588155e-07
1.5550415e-07
1.5512987e-07
1.5476241e-07
1.5440708e-07
1.5407156e-07
1.5376736e-07
1.5351199e-07
1.5333295e-07
1.5327428e-07
1.5340878e-07
1.5385854e-07
1.5483162e-07
1.5668811e-07
1.6004884e-07
1.6598331e-07
1.763554e-07
1.9428768e-07
2.249868e-07
2.7732354e-07
3.6483992e-07
5.087957e-07
7.4065222e-07
1.1038426e-06
1.6528973e-06
2.4471452e-06
3.5398591e-06
4.9668457e-06
6.7431184e-06
8.8723113e-06
1.1357013e-05
1.4207181e-05
1.7432334e-05
2.1037578e-05
2.5021274e-05
2.9354416e-05
3.401018e-05
3.8936937e-05
4.4087539e-05
4.9437016e-05
5.4878597e-05
6.0443707e-05
6.4707845e-05
6.8294361e-05
7.19366e-05
7.5739832e-05
7.9682645e-05
8.4018335e-05