/*--------------------------------*- C++ -*----------------------------------*\
| =========                 |                                                 |
| \\      /  F ield         | OpenFOAM: The Open Source CFD Toolbox           |
|  \\    /   O peration     | Version:  2206                                  |
|   \\  /    A nd           | Website:  www.openfoam.com                      |
|    \\/     M anipulation  |                                                 |
\*---------------------------------------------------------------------------*/
FoamFile
{
    version     2.0;
    format      ascii;
    arch        "LSB;label=32;scalar=64";
    class       volScalarField;
    location    "600";
    object      omega;
}
// * * * * * * * * * * * * * * * * * * * * * * * * * * * * * * * * * * * * * //

dimensions      [0 0 -1 0 0 0 0];

internalField   nonuniform List<scalar> 
7480
(
7569.1058
7590.8146
7571.1113
7538.1546
7512.5638
7498.0748
7491.1183
7487.7282
7485.8491
7484.6254
7483.6801
7482.8693
7482.1628
7481.5516
7481.0215
7480.5596
7480.1562
7479.8018
7479.4866
7479.2041
7478.9504
7478.7214
7478.5132
7478.3233
7478.1499
7477.9909
7477.8444
7477.7092
7477.5844
7477.4689
7477.3619
7477.2626
7477.1707
7477.0854
7477.0063
7476.933
7476.8653
7476.8028
7476.7453
7476.6928
7476.6451
7476.6022
7476.564
7476.5305
7476.5019
7476.4787
7476.4605
7476.4482
7476.4417
7476.4408
7476.4453
7476.4549
7476.4692
7476.4873
7476.5082
7476.5313
7476.5552
7476.5779
7476.5973
7476.6121
7476.6219
7476.6271
7476.6279
7476.625
7476.6193
7476.6114
7476.602
7476.5916
7476.5805
7476.5692
7476.5576
7476.5461
7476.5346
7476.5232
7476.512
7476.501
7476.4901
7476.479
7476.4676
7476.4562
7476.4446
7476.4331
7476.4215
7476.4098
7476.398
7476.3861
7476.3742
7476.3622
7476.3502
7476.3381
7476.326
7476.3139
7476.3019
7476.2898
7476.2778
7476.2653
7476.2544
7476.2387
7476.2298
7476.2059
1003.2568
1574.4213
1842.5206
1920.8062
1937.0561
1923.8783
1863.1578
1797.7966
1744.1738
1703.9834
1673.3399
1647.681
1624.4576
1603.0419
1583.261
1564.8904
1547.8309
1532.2004
1517.8458
1504.5402
1492.19
1480.7719
1470.1786
1460.2973
1451.0825
1442.5074
1434.5004
1426.9931
1419.9544
1413.3605
1407.1694
1401.3456
1395.8727
1390.7343
1385.9062
1381.37
1377.1165
1373.1343
1369.4097
1365.9345
1362.7073
1359.7254
1356.9856
1354.4902
1352.2411
1350.228
1348.4681
1346.9655
1345.7247
1344.7407
1344.0344
1343.6394
1343.4506
1343.4355
1343.5565
1343.7754
1344.0491
1344.3209
1344.5274
1344.6183
1344.5788
1344.397
1344.1223
1343.7453
1343.2651
1342.7051
1342.0869
1341.431
1340.7533
1340.0655
1339.3766
1338.6932
1338.0191
1337.3572
1336.7105
1336.0783
1335.4636
1334.8573
1334.2548
1333.6574
1333.0652
1332.4782
1331.8958
1331.3156
1330.7371
1330.1591
1329.5819
1329.0054
1328.4297
1327.8556
1327.2829
1326.7125
1326.1447
1325.5784
1325.0182
1324.4469
1323.9028
1323.3382
1322.6625
1322.0506
190.66983
396.64204
585.97175
709.21892
769.26567
785.39194
782.09458
789.21529
803.68372
812.84755
819.33149
823.54983
825.04929
824.15277
821.42778
817.41128
811.9482
805.29283
797.70553
789.40349
780.59872
771.49532
762.23692
752.92746
743.67179
734.5645
725.62162
716.84335
708.24585
699.85264
691.67817
683.73237
676.02881
668.57994
661.39304
654.47598
647.83847
641.48066
635.39977
629.5964
624.07662
618.84815
613.91838
609.29648
605.00014
601.02687
597.35179
593.98667
590.915
588.12411
585.65059
583.49885
581.56353
579.81044
578.21461
576.72288
575.27315
573.82723
572.3681
570.89958
569.41954
567.91323
566.46144
565.01585
563.55881
562.09314
560.62507
559.16352
557.71684
556.29198
554.8944
553.52856
552.19756
550.90347
549.64812
548.43061
547.25173
546.13364
545.05988
544.01757
543.00004
542.0041
541.02786
540.06773
539.12179
538.18772
537.26426
536.35045
535.44543
534.5492
533.66099
532.78089
531.909
531.04369
530.18905
529.328
528.49371
527.65726
526.73741
525.65203
72.003458
121.36817
194.00196
267.73344
324.63544
359.74615
377.81456
386.78697
392.45678
397.57282
404.52303
415.23232
426.21458
437.93908
452.28727
470.56052
485.15211
496.54406
505.31478
511.87434
516.5469
519.62407
521.36491
522.0388
521.96149
521.3795
520.02239
517.83779
514.91358
511.37396
507.33811
502.90987
498.18009
493.22923
488.13189
482.96244
477.7685
472.53312
467.2559
461.95394
456.65344
451.38209
446.16521
441.02623
435.99633
431.08448
426.22762
421.41634
416.64682
411.92313
407.2662
402.7746
398.34949
394.00243
389.76889
385.60395
381.472
377.41949
373.5285
369.8688
366.46307
363.32782
360.49622
357.89324
355.4693
353.18906
351.02555
348.96002
346.97968
345.07578
343.24228
341.47564
339.7737
338.13411
336.5553
335.03466
333.57133
332.19045
330.88427
329.63724
328.43915
327.28452
326.17054
325.09338
324.05019
323.03766
322.05308
321.09409
320.15831
319.24422
318.3499
317.47416
316.6158
315.77289
314.94673
314.12745
313.3246
312.57365
311.71951
310.76065
55.641852
64.533216
83.91304
111.35371
140.42748
165.5359
184.59074
198.13893
207.74908
214.79495
220.42668
225.66898
230.96507
236.83687
244.10436
253.55314
263.35092
273.15495
282.75135
292.00947
300.83588
309.3108
317.72738
326.71842
337.34873
349.83559
359.69892
366.93278
372.21605
375.99935
378.58912
380.20662
381.0303
381.22783
380.9901
380.52863
379.82184
378.47741
376.49128
373.94826
370.9436
367.55989
363.86503
359.91986
355.80006
351.5131
346.973
342.16943
337.13289
331.90705
326.54027
321.09252
315.6369
310.18318
304.76753
299.34419
293.93842
288.67453
283.66964
279.00267
274.73887
270.89265
267.42315
264.27366
261.39043
258.727
256.24383
253.90988
251.70153
249.60102
247.59556
245.67715
243.83853
242.07388
240.37917
238.75056
237.18698
235.69128
234.26625
232.90785
231.61032
230.36919
229.18179
228.04483
226.95539
225.91009
224.90569
223.93914
223.00727
222.10757
221.23765
220.39527
219.57821
218.78422
218.01277
217.25856
216.5183
215.85041
215.10075
214.28338
53.509605
54.437412
58.088801
65.266835
75.160692
86.045078
96.438065
105.64559
113.54564
120.26504
125.97032
130.87613
135.18727
139.11581
142.94463
147.01264
151.42082
156.27146
161.71064
167.8189
174.15737
180.72461
187.52623
194.61428
202.10085
210.06962
218.05213
225.69025
232.8096
239.34908
245.3222
250.8084
255.97854
261.16247
266.97006
274.12238
281.53796
286.11113
288.75941
290.09036
290.45835
290.08066
289.11008
287.69267
286.01002
284.21058
281.84606
278.82311
275.24325
271.21493
266.83822
262.21121
257.43418
252.53856
247.57662
242.62079
237.72564
232.97517
228.44897
224.19754
220.24321
216.59275
213.22914
210.12409
207.24766
204.56955
202.06068
199.69695
197.45822
195.32797
193.29365
191.34706
189.48077
187.68885
185.96707
184.3115
182.72124
181.19119
179.72277
178.31759
176.97469
175.69213
174.46823
173.30056
172.18668
171.12359
170.10822
169.13744
168.20793
167.31676
166.46118
165.63855
164.84629
164.08195
163.34413
162.62952
161.93118
161.30259
160.63079
159.89078
53.224113
52.808636
52.959165
54.085556
56.273991
59.364893
62.974926
66.791103
70.6197
74.357977
77.9358
81.307133
84.450241
87.363096
90.076659
92.659548
95.181901
97.714324
100.34095
103.15243
106.19176
109.52701
113.24109
117.38498
121.86279
126.7239
131.93878
137.42354
143.0814
148.82844
154.59212
160.31528
165.9667
171.55637
177.13978
182.82298
188.52729
193.80331
198.43863
202.38817
205.68844
208.42687
210.75525
212.95273
215.48494
218.48371
219.8614
219.68039
218.50028
216.6347
214.30413
211.7084
209.01514
205.98698
202.56882
199.06438
195.62683
192.30375
189.05333
185.88488
182.82604
179.89044
177.07922
174.39453
171.83667
169.39849
167.07041
164.84558
162.71472
160.66888
158.70101
156.80632
154.98093
153.22211
151.52747
149.89409
148.32165
146.80597
145.34577
143.94271
142.59794
141.31149
140.08291
138.91075
137.79318
136.72789
135.71232
134.7437
133.81887
132.93498
132.0891
131.27861
130.501
129.75386
129.03545
128.3432
127.67063
127.05818
126.43592
125.73496
53.161958
52.542381
52.020735
51.712737
51.712195
52.047212
52.633433
53.455662
54.480034
55.66918
56.983415
58.384832
59.838176
61.310559
62.776672
64.223915
65.650175
67.060548
68.469464
69.900979
71.381116
72.941172
74.621191
76.466807
78.514547
80.816013
83.428077
86.354701
89.550484
93.013622
96.733777
100.6913
104.8632
109.2299
113.7824
118.52131
123.42673
128.40614
133.35543
138.17825
142.79385
147.14023
151.17413
154.87965
158.27982
161.33898
163.8823
165.77075
167.00403
167.67525
167.93704
167.98954
167.98405
167.2518
165.74003
163.89179
162.0647
160.28469
158.32895
156.29973
154.25984
152.20849
150.14147
148.08069
146.04295
144.03205
142.05434
140.122
138.23348
136.38934
134.59124
132.84048
131.13772
129.48596
127.88585
126.33588
124.83736
123.38866
121.98782
120.63569
119.33386
118.08349
116.88515
115.73844
114.64219
113.59506
112.59537
111.64104
110.72932
109.85785
109.02404
108.22551
107.46014
106.72571
106.02058
105.34247
104.68668
104.08105
103.48884
102.80796
53.125585
52.475352
51.838937
51.240656
50.710867
50.272398
49.929459
49.684344
49.539181
49.483198
49.494137
49.598551
49.796344
50.077542
50.428605
50.836437
51.290801
51.783537
52.309391
52.867022
53.458241
54.087738
54.76426
55.501145
56.314589
57.225456
58.26033
59.445092
60.801231
62.354592
64.135255
66.145952
68.383897
70.855434
73.571995
76.542449
79.773182
83.256896
86.970947
90.884576
94.961922
99.162529
103.44239
107.75542
112.06214
116.26181
120.21036
123.79699
126.9327
129.56107
131.65535
133.21786
134.27939
134.88659
135.04699
134.7988
134.38054
133.85199
133.00227
132.0193
130.99869
129.85264
128.55261
127.16987
125.73003
124.23255
122.69969
121.15021
119.59091
118.03123
116.4805
114.94628
113.43378
111.95539
110.51333
109.10572
107.73719
106.40734
105.1141
103.85868
102.64272
101.46771
100.33486
99.244642
98.196415
97.190178
96.225481
95.301069
94.414704
93.564912
92.74984
91.967582
91.216796
90.495553
89.802575
89.135967
88.492909
87.891454
87.317759
86.648538
53.095549
52.438789
51.782789
51.131408
50.491476
49.870337
49.273504
48.705622
48.17147
47.674818
47.217219
46.802749
46.434995
46.115666
45.830228
45.57278
45.355968
45.185242
45.060802
44.981129
44.944127
44.947367
44.98995
45.073359
45.201041
45.378405
45.613381
45.915872
46.297205
46.770744
47.352729
48.059187
48.906646
49.914565
51.106667
52.489547
54.080042
55.89682
57.951477
60.252813
62.810031
65.629901
68.716619
72.071677
75.695365
79.566268
83.601544
87.699677
91.75629
95.664095
99.317704
102.61868
105.48267
107.85409
109.69437
110.92602
111.55658
111.76389
111.74704
111.56697
111.32916
110.96594
110.42486
109.7771
109.02022
108.0981
107.07422
105.97318
104.80046
103.5776
102.32105
101.04628
99.763659
98.505491
97.266539
96.044313
94.84224
93.662179
92.504337
91.370281
90.261879
89.180934
88.129362
87.108574
86.118058
85.159442
84.234884
83.343909
82.484936
81.657222
80.859857
80.091596
79.352344
78.640321
77.954877
77.29467
76.658442
76.057386
75.492536
74.828047
53.069173
52.409035
51.747865
51.085933
50.42436
49.76469
49.108688
48.458385
47.816188
47.184704
46.566401
45.963833
45.37958
44.81605
44.273959
43.753434
43.255867
42.783047
42.336591
41.917669
41.521918
41.139031
40.773792
40.4357
40.130787
39.862562
39.633648
39.446325
39.303078
39.207995
39.167176
39.188072
39.279403
39.451461
39.71663
40.087496
40.579043
41.209625
41.99929
42.959207
44.109481
45.472136
47.071238
48.932979
51.086097
53.56066
56.375379
59.518978
62.961778
66.650812
70.508582
74.433289
78.302189
81.985038
85.358801
88.282251
90.625147
92.357723
93.521562
94.225987
94.590714
94.759917
94.789076
94.714329
94.550502
94.22791
93.787832
93.229938
92.524179
91.718529
90.833246
89.897134
88.920046
87.936623
86.940484
85.932721
84.919139
83.903737
82.889636
81.880688
80.88022
79.891386
78.917626
77.961756
77.02546
76.111105
75.221201
74.356963
73.518705
72.706716
71.921037
71.1614
70.427773
69.719468
69.036454
68.377746
67.743414
67.139945
66.577391
65.913094
53.031154
52.367136
51.70225
51.036259
50.369146
49.700955
49.031947
48.362715
47.694178
47.027479
46.363863
45.704636
45.051179
44.404919
43.767174
43.139123
42.521956
41.916906
41.325229
40.748167
40.186404
39.639557
39.107784
38.592212
38.094466
37.616315
37.158868
36.716347
36.283561
35.869085
35.483339
35.133519
34.824753
34.561049
34.346113
34.185131
34.085146
34.055157
34.105985
34.249112
34.498398
34.870986
35.386502
36.064763
36.933925
38.028267
39.387321
41.050168
43.0528
45.422903
48.172819
51.291133
54.733961
58.420363
62.235692
66.026484
69.605017
72.79811
75.475198
77.599402
79.182185
80.301995
81.057138
81.525757
81.798164
81.939942
81.962807
81.888716
81.681336
81.362503
80.927164
80.398033
79.794869
79.125462
78.397679
77.624998
76.817847
75.98242
75.125199
74.253009
73.371226
72.484913
71.59932
70.718647
69.846313
68.985925
68.140668
67.312933
66.504429
65.71642
64.949841
64.205284
63.483251
62.783832
62.107415
61.453381
60.822831
60.219387
59.658656
58.995689
52.972763
52.293652
51.616028
50.939534
50.26375
49.588171
48.912432
48.23646
47.560473
46.884878
46.210165
45.536869
44.865565
44.196883
43.53149
42.870083
42.213398
41.562204
40.917313
40.27957
39.649801
39.02871
38.416945
37.815205
37.224278
36.64504
36.078379
35.524502
34.983063
34.454655
33.940931
33.444108
32.966341
32.503787
32.049567
31.613514
31.208053
30.84125
30.518716
30.244494
30.023537
29.863523
29.774447
29.768351
29.860676
30.071628
30.426579
30.955639
31.697444
32.697251
34.005059
35.671308
37.739566
40.23516
43.15281
46.441955
49.992569
53.640534
57.18865
60.459768
63.316753
65.690735
67.585889
69.027335
70.075506
70.818048
71.31186
71.628825
71.819368
71.891068
71.863692
71.726167
71.497109
71.186408
70.774648
70.287106
69.737124
69.129565
68.472846
67.776849
67.049268
66.297023
65.527577
64.746872
63.960252
63.173176
62.389947
61.614267
60.849274
60.097333
59.360439
58.64013
57.937634
57.253842
56.589707
55.945143
55.322104
54.722473
54.165174
53.505644
52.92188
52.221911
51.524357
50.829242
50.136354
49.445265
48.755559
48.06701
47.379628
46.693594
46.009164
45.326622
44.64626
43.968384
43.293314
42.621379
41.952929
41.28833
40.627967
39.972247
39.321598
38.676455
38.037254
37.404449
36.778515
36.159956
35.549309
34.947076
34.353671
33.769521
33.195187
32.631405
32.079041
31.538441
31.009174
30.491958
29.988798
29.502316
29.033412
28.572382
28.123616
27.702465
27.318773
26.97873
26.687002
26.450699
26.280936
26.192729
26.206106
26.347656
26.651564
27.160326
27.927385
29.014015
30.483432
32.3891
34.755959
37.558273
40.7049
44.048482
47.407738
50.604373
53.502672
56.010534
58.088002
59.754474
61.039285
61.989658
62.679117
63.152259
63.472238
63.661882
63.741276
63.740331
63.648496
63.472752
63.225396
62.890536
62.47732
62.001319
61.470028
60.889657
60.27083
59.621135
58.947648
58.258336
57.558768
56.854251
56.14965
55.448613
54.754469
54.069853
53.396908
52.737451
52.093123
51.464516
50.854363
50.2636
49.713126
49.060508
52.891906
52.177242
51.46421
50.753153
50.044196
49.337229
48.632065
47.928594
47.226846
46.526981
45.829229
45.133852
44.44112
43.751315
43.064717
42.381609
41.702274
41.026999
40.356067
39.689764
39.028376
38.372185
37.72147
37.076509
36.437577
35.804945
35.178889
34.559684
33.947594
33.342875
32.745795
32.156656
31.575796
31.00354
30.440122
29.885825
29.341114
28.806676
28.283205
27.770221
27.267819
26.777851
26.30303
25.844038
25.389491
24.949211
24.539602
24.170285
23.848225
23.58203
23.38611
23.280882
23.294532
23.465328
23.843291
24.489621
25.475077
26.867018
28.709546
31.001599
33.682339
36.633153
39.700288
42.720023
45.546014
48.078227
50.256511
52.05755
53.505529
54.629312
55.468705
56.079286
56.501639
56.778412
56.951376
57.033872
57.043136
56.973318
56.824475
56.608071
56.313306
55.941686
55.511856
55.029181
54.501121
53.939514
53.350012
52.739922
52.116365
51.484326
50.848873
50.21393
49.582795
48.958444
48.343335
47.73891
47.148682
46.573199
46.034676
45.3939
52.876982
52.154293
51.432348
50.711579
49.992262
49.274484
48.558246
47.843568
47.130544
46.419351
45.710226
45.003436
44.299266
43.59801
42.899965
42.205431
41.514708
40.828094
40.145886
39.468375
38.79585
38.128593
37.46688
36.810979
36.16115
35.517643
34.880698
34.250545
33.627401
33.011468
32.402935
31.801982
31.208782
30.623494
30.046263
29.47722
28.916507
28.364295
27.820788
27.286087
26.760281
26.243635
25.736684
25.23995
24.752582
24.275019
23.809609
23.359484
22.917087
22.481626
22.074456
21.708551
21.393797
21.143387
20.979067
20.932111
21.045867
21.377136
21.993009
22.962013
24.339731
26.147812
28.357892
30.887588
33.610973
36.384558
39.069542
41.548919
43.749012
45.630361
47.180786
48.42393
49.385887
50.098919
50.618874
50.983507
51.220335
51.362605
51.434079
51.436088
51.365669
51.221967
51.017848
50.736588
50.38657
49.987084
49.53773
49.04939
48.531913
47.990814
47.433519
46.865285
46.290861
45.714729
45.140297
44.570114
44.00855
43.456187
42.936463
42.314009
52.870383
52.143621
51.417039
50.691072
49.96604
49.242112
48.519385
47.79795
47.077938
46.35954
45.642988
44.928549
44.216503
43.507145
42.800778
42.097707
41.398237
40.702676
40.011328
39.324496
38.642478
37.965569
37.294056
36.628221
35.968339
35.314677
34.66749
34.027027
33.393525
32.767206
32.148282
31.53695
30.933393
30.337776
29.750248
29.170942
28.599971
28.037433
27.483415
26.937983
26.401179
25.87304
25.353635
24.843056
24.341257
23.848234
23.364251
22.889889
22.424773
21.968538
21.523466
21.093088
20.670424
20.257385
19.878345
19.548598
19.282583
19.103971
19.04774
19.16116
19.503309
20.139438
21.129123
22.511093
24.285334
26.403781
28.773742
31.272059
33.76976
36.150466
38.320815
40.226241
41.840248
43.157933
44.207728
45.013876
45.608935
46.03778
46.339552
46.529307
46.634491
46.682211
46.664897
46.579534
46.429011
46.226651
45.945046
45.607556
45.22517
44.800463
44.344791
43.863868
43.364254
42.852322
42.332439
41.808682
41.286367
40.766529
40.274184
39.678185
52.868177
52.139364
51.4104
50.681718
49.953651
49.226409
48.500136
47.774961
47.051036
46.328552
45.607735
44.888839
44.172136
43.457911
42.746458
42.038076
41.333064
40.631725
39.93436
39.241267
38.552744
37.869082
37.190569
36.517488
35.850115
35.18872
34.533566
33.884908
33.242991
32.608052
31.980317
31.360003
30.747314
30.142441
29.545562
28.956842
28.376427
27.80445
27.241024
26.686247
26.140194
25.602923
25.074475
24.554881
24.044143
23.542247
23.049196
22.565044
22.089779
21.623346
21.165955
20.718199
20.279769
19.850672
19.433943
19.034125
18.637523
18.267502
17.946451
17.69191
17.529569
17.497009
17.643467
18.026552
18.706862
19.733408
21.127689
22.871506
24.902481
27.123031
29.415551
31.664979
33.772899
35.664659
37.303258
38.672928
39.779297
40.651564
41.310757
41.792255
42.132199
42.36701
42.501847
42.573875
42.589754
42.546387
42.439548
42.277998
42.060399
41.777417
41.450063
41.080086
40.676736
40.248346
39.799783
39.337284
38.867019
38.391013
37.936397
37.376859
52.868335
52.138482
51.408275
50.678143
49.948427
49.219367
48.491137
47.763896
47.037809
46.313068
45.589893
44.86853
44.149239
43.432295
42.717981
42.006585
41.298399
40.593715
39.892825
39.196019
38.503585
37.815807
37.132966
36.455336
35.783186
35.116781
34.456376
33.802223
33.154562
32.513629
31.879649
31.252839
30.633408
30.021552
29.41746
28.821307
28.233258
27.653466
27.082069
26.519192
25.964945
25.419423
24.882704
24.354853
23.835916
23.325926
22.824903
22.332868
21.849831
21.375793
20.910772
20.454848
20.008048
19.570394
19.142262
18.724518
18.316238
17.919592
17.539362
17.16696
16.820234
16.524335
16.298417
16.170835
16.181378
16.380161
16.822561
17.563855
18.640352
20.057538
21.780565
23.735181
25.820434
27.924318
29.945491
31.80188
33.438049
34.832653
35.977652
36.889204
37.595128
38.116723
38.488174
38.748015
38.91548
38.994218
39.032744
39.015758
38.942945
38.815316
38.6429
38.406686
38.122792
37.80032
37.442698
37.059454
36.65669
36.238279
35.833589
35.322882
52.869813
52.13944
51.408572
50.677635
49.946979
49.216865
48.487496
47.759053
47.031716
46.305682
45.581171
44.85842
44.137684
43.419231
42.703333
41.990273
41.280332
40.573794
39.870944
39.172063
38.477431
37.787323
37.10201
36.42176
35.746832
35.077482
34.413957
33.756499
33.105341
32.46071
31.822824
31.191892
30.568117
29.951691
29.342798
28.74161
28.148293
27.563001
26.985876
26.417052
25.856648
25.304776
24.76153
24.226997
23.701249
23.184347
22.676342
22.177278
21.687195
21.206125
20.734101
20.271159
19.817337
19.37267
18.937234
18.511191
18.094566
17.687633
17.291209
16.904877
16.530622
16.173533
15.825188
15.508985
15.246987
15.059745
14.978547
15.045914
15.311585
15.829844
16.648524
17.789497
19.24134
20.95211
22.837008
24.792997
26.715798
28.519158
30.136677
31.532104
32.69714
33.632924
34.363192
34.912703
35.310383
35.580638
35.765811
35.868314
35.911064
35.91123
35.86155
35.760755
35.615783
35.422175
35.17573
34.892671
34.575295
34.231138
33.890553
33.444038
52.872059
52.141441
51.410222
50.678822
49.947599
49.216831
48.486746
47.757546
47.029428
46.302595
45.577269
44.853687
44.132099
43.412768
42.695961
41.981955
41.271026
40.563453
39.859513
39.159482
38.463633
37.772235
37.085554
36.403848
35.727372
35.056373
34.391092
33.731761
33.078608
32.43185
31.791698
31.158353
30.532009
29.91285
29.301052
28.696783
28.100199
27.511449
26.93067
26.357993
25.793536
25.237408
24.689706
24.150521
23.619929
23.098001
22.584795
22.080368
21.584766
21.098036
20.620219
20.151358
19.691496
19.240677
18.798951
18.36638
17.943025
17.528961
17.124345
16.729237
16.343918
15.969279
15.604949
15.253817
14.921409
14.599863
14.317862
14.094211
13.95261
13.927781
14.064462
14.413412
15.026021
15.938876
17.157654
18.651205
20.350309
22.161888
23.983334
25.72134
27.30618
28.689391
29.853692
30.799285
31.542385
32.10667
32.515857
32.800662
32.991361
33.10723
33.154145
33.164362
33.130319
33.050548
32.928105
32.767175
32.552845
32.301956
32.04154
31.67771
52.874769
52.144056
51.412657
50.680984
49.949399
49.218197
48.487626
47.757908
47.029254
46.301878
45.576007
44.851877
44.129739
43.409852
42.692482
41.9779
41.26638
40.558196
39.853622
39.15293
38.456388
37.764262
37.076813
36.394295
35.716957
35.045041
34.378784
33.718413
33.064149
32.416205
31.774783
31.14008
30.512283
29.89157
29.278109
28.672061
28.073577
27.482797
26.899854
26.324871
25.75796
25.199225
24.648759
24.106648
23.572967
23.047782
22.531152
22.023128
21.523757
21.033081
20.551139
20.077969
19.613609
19.158097
18.711473
18.273782
17.845069
17.425383
17.014777
16.613295
16.220993
15.838022
15.46445
15.1007
14.747868
14.405803
14.078438
13.766738
13.477182
13.232929
13.052949
12.965416
13.00924
13.231303
13.683204
14.410544
15.432963
16.736684
18.268359
19.94321
21.663314
23.331904
24.871968
26.230706
27.382539
28.325841
29.068343
29.635906
30.050049
30.340842
30.53217
30.65364
30.708383
30.721059
30.698294
30.634506
30.531378
30.392735
30.228565
29.967754
52.87777
52.147048
51.415565
50.683729
49.951903
49.220395
48.489469
47.759366
47.030312
46.302532
45.576258
44.851729
44.129197
43.408921
42.691163
41.976195
41.264286
40.555709
39.850735
39.149634
38.452671
37.76011
37.072207
36.389214
35.711379
35.038939
34.372128
33.711169
33.05628
32.40767
31.765538
31.130076
30.501467
29.879883
29.26549
28.658442
28.058884
27.466953
26.882776
26.30647
25.738142
25.177891
24.625805
24.081965
23.546439
23.01929
22.500571
21.990329
21.488603
20.995428
20.510836
20.034855
19.567511
19.108831
18.658841
18.217569
17.785044
17.361296
16.946353
16.540237
16.142966
15.754566
15.375057
15.004501
14.643085
14.290941
13.948708
13.617058
13.297488
12.994617
12.706372
12.451825
12.248767
12.119579
12.097525
12.225719
12.554075
13.131895
13.991839
15.132777
16.515851
18.065724
19.687469
21.284108
22.773403
24.099449
25.228694
26.156538
26.88992
27.451363
27.863376
28.152477
28.342869
28.463689
28.524287
28.538099
28.524503
28.473318
28.40482
28.265037
52.88096
52.150276
51.418766
50.686833
49.95484
49.223104
48.491905
47.761498
47.032124
46.304018
45.57742
44.852573
44.129731
43.409151
42.691099
41.975842
41.263649
40.554791
39.849538
39.148158
38.450914
37.758067
37.069874
36.386583
35.70844
35.035681
34.368537
33.70723
33.051975
32.402978
31.760437
31.12454
30.495468
29.873391
29.258469
28.650856
28.050693
27.458113
26.873239
26.296184
25.727053
25.165939
24.612928
24.068094
23.531505
23.003216
22.483277
21.971729
21.468607
20.973938
20.487746
20.010051
19.540869
19.080214
18.628099
18.184537
17.74954
17.32312
16.905288
16.49605
16.095406
15.703351
15.319879
14.944981
14.57867
14.220965
13.87196
13.531822
13.200892
12.880091
12.569905
12.273535
11.99481
11.736892
11.520329
11.36392
11.295858
11.355104
11.589395
12.049384
12.776044
13.779619
15.032991
16.47014
17.999594
19.525234
20.960682
22.245552
23.344143
24.247923
24.964535
25.51225
25.916622
26.197794
26.384965
26.502184
26.566578
26.585178
26.592189
26.547268
52.884275
52.153656
51.422154
50.690165
49.958052
49.22614
48.49472
47.764061
47.034417
46.306035
45.579159
44.85404
44.130933
43.410098
42.6918
41.976305
41.263883
40.554803
39.849334
39.147741
38.450289
37.757236
37.068836
36.385339
35.706987
35.034016
34.366656
33.705126
33.049641
32.400405
31.757614
31.121455
30.492107
29.869738
29.254508
28.646566
28.046052
27.453098
26.867824
26.290342
25.720751
25.159145
24.605606
24.060205
23.523007
22.994065
22.473425
21.961124
21.457193
20.961655
20.474528
19.995826
19.525556
19.063725
18.610335
18.165387
17.728881
17.300814
16.881183
16.469978
16.067187
15.67279
15.286764
14.90908
14.539708
14.17862
13.825799
13.481247
13.145007
12.817234
12.498121
12.188274
11.888743
11.600876
11.328883
11.073783
10.851398
10.678696
10.579706
10.589446
10.752933
11.121043
11.73945
12.628853
13.771231
15.109014
16.554227
18.010357
19.389632
20.628375
21.690343
22.563524
23.257163
23.784789
24.17463
24.445263
24.627697
24.742353
24.822183
24.849363
52.887675
52.157134
51.425661
50.693643
49.961442
49.229388
48.497784
47.76691
47.037031
46.308403
45.58128
44.855917
44.132573
43.411509
42.692992
41.977287
41.264665
40.555394
39.849741
39.147971
38.450348
37.757129
37.068568
36.384912
35.706404
35.033277
34.365761
33.704075
33.048432
32.399035
31.756079
31.11975
30.490226
29.867673
29.252251
28.644108
28.043382
27.450204
26.864692
26.286956
25.717096
25.155202
24.601354
24.055624
23.518073
22.988753
22.467708
21.954972
21.450574
20.954533
20.466865
19.987578
19.516676
19.054159
18.600023
18.15426
17.716862
17.287817
16.867109
16.45472
16.050625
15.654795
15.267194
14.887781
14.516512
14.15334
13.798215
13.451092
13.111934
12.780726
12.457476
12.14227
11.835317
11.536981
11.248162
10.969762
10.704919
10.456888
10.233479
10.051729
9.9323829
9.906902
10.01756
10.314822
10.847064
11.64302
12.692299
13.943648
15.312409
16.702102
18.024737
19.214396
20.235303
21.072534
21.736189
22.239586
22.612135
22.871642
23.062025
23.178104
52.89113
52.160676
51.429243
50.697213
49.964946
49.232778
48.501016
47.769953
47.039864
46.311014
45.583664
44.858076
44.134512
43.413236
42.694514
41.978616
41.265809
40.556362
39.850542
39.148614
38.45084
37.757476
37.068776
36.384987
35.706349
35.033097
34.365458
33.703651
33.047887
32.398371
31.755295
31.118845
30.489199
29.866521
29.250971
28.642695
28.041832
27.44851
26.862848
26.284954
25.714928
25.152858
24.598825
24.052897
23.515135
22.985591
22.464306
21.951314
21.446641
20.950307
20.462323
19.982696
19.511426
19.048509
18.593938
18.147701
17.709782
17.280164
16.858825
16.445738
16.040872
15.644189
15.255645
14.875193
14.502778
14.138342
13.781823
13.43316
13.092289
12.759152
12.433695
12.115881
11.805702
11.503198
11.20852
10.92192
10.644053
10.375937
10.119601
9.8793716
9.6585511
9.4729196
9.3409748
9.2911132
9.3631888
9.6066744
10.071714
10.792533
11.764829
12.942188
14.242748
15.570169
16.836869
17.975487
18.95057
19.747414
20.378192
20.855739
21.22447
21.474069
52.894623
52.164258
51.432871
50.700841
49.968524
49.236259
48.504361
47.77313
47.04285
46.313796
45.586236
44.860436
44.136663
43.415185
42.696269
41.980185
41.267202
40.557588
39.851611
39.149534
38.451618
37.758121
37.069294
36.385383
35.70663
35.033268
34.365522
33.703613
33.04775
32.398136
31.754965
31.118421
30.488681
29.86591
29.250266
28.641895
28.040935
27.447515
26.861751
26.283753
25.713617
25.151434
24.597281
24.051228
23.513335
22.983652
22.46222
21.949073
21.444235
20.947725
20.459553
19.979723
19.508236
19.045085
18.590259
18.143745
17.705522
17.275569
16.85386
16.440364
16.035046
15.637861
15.248762
14.867694
14.494597
14.129407
13.772056
13.422472
13.080582
12.746312
12.419588
12.100339
11.788499
11.484015
11.186859
10.897037
10.614642
10.33989
10.073248
9.8157338
9.568692
9.3356878
9.12024
8.9347482
8.7960605
8.7301887
8.7748587
8.9784291
9.392099
10.053828
10.963942
12.079313
13.320119
14.589811
15.801091
16.886592
17.814222
18.568849
19.181907
19.637733
52.898138
52.167861
51.436525
50.704501
49.972146
49.239799
48.507782
47.7764
47.045946
46.316702
45.588943
44.862943
44.138971
43.417298
42.698194
41.98193
41.268776
40.559
39.852869
39.150647
38.452595
37.758969
37.07002
36.385995
35.707134
35.033668
34.365825
33.703822
33.04787
32.398171
31.754917
31.118294
30.488476
29.865629
29.249909
28.641465
28.040431
27.446936
26.861098
26.283024
25.712812
25.150549
24.596315
24.050179
23.512199
22.982425
22.460899
21.947653
21.442712
20.946092
20.457804
19.977852
19.506234
19.042943
18.587965
18.141286
17.702883
17.272734
16.850808
16.437072
16.031487
15.634007
15.24458
14.863149
14.489649
14.124012
13.766166
13.416035
13.073538
12.738596
12.411126
12.091044
11.778267
11.472715
11.174313
10.882993
10.59871
10.32145
10.051262
9.7883273
9.5329845
9.2860347
9.0486711
8.8238061
8.6153506
8.4324588
8.2912021
8.215457
8.2414048
8.4161916
8.7918693
9.4085438
10.270283
11.335168
12.524191
13.739784
14.898065
15.930264
16.829354
17.551042
52.901666
52.171474
51.440189
50.708177
49.975792
49.243375
48.511251
47.779732
47.049118
46.319697
45.591751
44.865559
44.141396
43.419534
42.700247
41.983807
41.270484
40.560548
39.854266
39.151901
38.453714
37.759961
37.070894
36.386757
35.70779
35.034225
34.366288
33.704197
33.048161
32.398382
31.755052
31.118356
30.488468
29.865555
29.24977
28.641263
28.040168
27.446613
26.860715
26.282581
25.71231
25.149988