/*--------------------------------*- C++ -*----------------------------------*\
| =========                 |                                                 |
| \\      /  F ield         | OpenFOAM: The Open Source CFD Toolbox           |
|  \\    /   O peration     | Version:  2206                                  |
|   \\  /    A nd           | Website:  www.openfoam.com                      |
|    \\/     M anipulation  |                                                 |
\*---------------------------------------------------------------------------*/
FoamFile
{
    version     2.0;
    format      ascii;
    arch        "LSB;label=32;scalar=64";
    class       volScalarField;
    location    "600";
    object      p;
}
// * * * * * * * * * * * * * * * * * * * * * * * * * * * * * * * * * * * * * //

dimensions      [0 2 -2 0 0 0 0];

internalField   nonuniform List<scalar> 
7480
(
0.054536568
0.042285751
0.028167644
0.016363184
0.0057593189
0.00031506349
-0.00093817686
8.0778437e-05
0.0016365517
0.002669664
0.003147981
0.0033538296
0.0034478051
0.0034796471
0.003484596
0.0034922573
0.0035034253
0.0035005438
0.0034871669
0.0034724097
0.0034550913
0.003431025
0.0034030436
0.0033744964
0.003344108
0.0033094729
0.0032720048
0.0032332539
0.0031923333
0.0031484384
0.0031026829
0.0030558354
0.0030072803
0.0029568279
0.0029053398
0.00285342
0.0028011115
0.0027490778
0.0026985569
0.0026505678
0.002605951
0.0025662675
0.0025340322
0.00251163
0.0025032328
0.0025137165
0.0025463659
0.0026003607
0.0026754646
0.0027720816
0.0028884771
0.0030217775
0.0031675
0.003319334
0.003475075
0.0036283067
0.0037609525
0.0038602269
0.003918272
0.0039372223
0.0039198388
0.0038729865
0.0038054271
0.0037242394
0.0036345154
0.003540236
0.003444744
0.0033493089
0.0032548344
0.0031618712
0.0030705377
0.0029803382
0.0028913043
0.0028034103
0.0027158635
0.0026292518
0.0025426587
0.0024539679
0.002363595
0.0022716605
0.0021789766
0.0020851389
0.0019889996
0.0018916185
0.0017920819
0.001691039
0.0015883166
0.0014839762
0.0013786496
0.0012719358
0.0011651355
0.0010579381
0.00095217276
0.00084722605
0.00074992721
0.00064684939
0.00059455159
0.00031216142
0.00083873398
-0.00087482735
0.049558975
0.039049604
0.027101623
0.016214068
0.0063598298
0.0011161204
-0.00023124853
0.000550319
0.0018634321
0.0027935534
0.0032256895
0.0034130192
0.0034986302
0.0035236556
0.0035246341
0.0035307147
0.003535762
0.0035274893
0.0035111185
0.0034940157
0.0034745453
0.0034485214
0.0034189285
0.0033889933
0.0033573294
0.0033215353
0.0032830648
0.003243417
0.0032016605
0.003157001
0.0031105634
0.0030630907
0.0030139492
0.0029629545
0.0029109684
0.0028585822
0.0028058314
0.0027533802
0.0027024626
0.0026540901
0.0026090995
0.0025690522
0.00253646
0.0025137027
0.0025050776
0.0025153171
0.0025473527
0.002600974
0.0026757856
0.0027721122
0.0028882429
0.003021312
0.003166841
0.0033185307
0.0034741856
0.0036273833
0.0037600504
0.0038594284
0.003917617
0.0039367002
0.0039195323
0.0038728799
0.0038054649
0.0037243915
0.0036347502
0.0035405266
0.0034450693
0.0033496528
0.0032551855
0.0031622218
0.0030708823
0.0029806736
0.0028916285
0.002803722
0.0027161624
0.0026295384
0.0025429391
0.0024542476
0.0023638714
0.0022719308
0.0021792403
0.0020853962
0.0019892513
0.0018918651
0.0017923235
0.0016912757
0.0015885481
0.0014842025
0.0013788705
0.0012721511
0.0011653451
0.001058142
0.000952371
0.00084741856
0.00075011529
0.0006470295
0.00059479833
0.00031314118
0.00084094777
-0.00087432865
0.045499171
0.037368753
0.026738202
0.016488233
0.0077342525
0.002644624
0.00094174058
0.0012121801
0.002199842
0.0029778934
0.0033466513
0.0035138963
0.0035867742
0.0035967605
0.0035887428
0.0035877714
0.0035841213
0.0035684988
0.0035473661
0.0035265805
0.0035035221
0.0034741326
0.0034420022
0.0034099399
0.0033762338
0.0033385997
0.0032986524
0.0032577349
0.0032147737
0.0031690162
0.0031216445
0.0030733341
0.0030233987
0.0029716775
0.002919045
0.0028660622
0.0028127474
0.0027597761
0.0027083787
0.0026595496
0.0026141171
0.0025736475
0.0025406497
0.0025174961
0.0025085951
0.0025187312
0.0025501717
0.0026031515
0.002677612
0.0027735716
0.0028893491
0.0030220808
0.0031672887
0.0033186923
0.0034741314
0.0036271617
0.0037596859
0.00385903
0.0039172914
0.0039364509
0.0039195121
0.0038730725
0.0038058277
0.0037248969
0.003635361
0.0035412081
0.0034457929
0.0033503944
0.0032559285
0.0031629542
0.0030715958
0.0029813628
0.0028922907
0.0028043552
0.0027167659
0.0026301127
0.0025434845
0.0024547707
0.0023643783
0.0022724201
0.0021797123
0.0020858518
0.001989692
0.0018922929
0.001792739
0.0016916797
0.001588941
0.0014845843
0.0013792413
0.001272511
0.0011656942
0.0010584802
0.0009526989
0.0008477356
0.00075042497
0.00064732234
0.00059519934
0.00031471679
0.00084487104
-0.00087371879
0.042778337
0.03606714
0.026383294
0.016787704
0.00902044
0.0041072509
0.0020235394
0.0019060585
0.0025917984
0.0032153825
0.0035286031
0.0036714582
0.0037211994
0.0037015398
0.0036729732
0.003660121
0.0036458629
0.0036197642
0.0035920449
0.0035669629
0.0035394625
0.0035055473
0.0034702215
0.0034355882
0.003399265
0.0033592028
0.0033174575
0.0032750809
0.0032306954
0.0031836494
0.0031352709
0.0030860987
0.003035332
0.0029828679
0.0029296197
0.0028760887
0.0028222631
0.0027688572
0.0027171017
0.0026679548
0.0026222271
0.002581502
0.0025482835
0.0025249371
0.0025158951
0.0025262698
0.0025574946
0.0026097954
0.0026839814
0.0027796105
0.0028949927
0.0030272757
0.0031719711
0.0033228271
0.0034777459
0.0036302424
0.0037622269
0.0038610669
0.0039190718
0.0039379845
0.0039210155
0.0038746102
0.0038074144
0.0037265429
0.0036370518
0.0035429214
0.0034475068
0.0033520851
0.0032575792
0.0031645528
0.0030731333
0.0029828328
0.0028936916
0.0028056854
0.0027180244
0.0026313013
0.0025445721
0.0024557595
0.0023653104
0.0022733049
0.0021805535
0.002086652
0.0019904549
0.0018930235
0.0017934395
0.0016923534
0.0015895892
0.0014852087
0.001379843
0.0012730906
0.0011662532
0.0010590187
0.00095321844
0.0008482355
0.00075091108
0.00064778102
0.00059581595
0.0003172103
0.00085129755
-0.00087266698
0.040309194
0.034473504
0.02575851
0.017139927
0.010088218
0.0053136109
0.0030624265
0.0026747142
0.0030680743
0.003514318
0.0037504813
0.0038427015
0.0038604258
0.003822861
0.0037833162
0.0037607634
0.0037336257
0.003691846
0.0036531924
0.0036212865
0.0035873416
0.0035470895
0.0035075275
0.0034697802
0.0034302149
0.0033869626
0.0033428873
0.0032986319
0.0032523426
0.0032035626
0.0031538941
0.0031036548
0.0030518569
0.002998505
0.0029445863
0.0028904978
0.0028361642
0.0027823762
0.0027303846
0.0026810782
0.0026352304
0.0025944524
0.0025612389
0.0025379285
0.0025290264
0.0025398482
0.0025709886
0.0026228138
0.0026967272
0.0027919538
0.0029068043
0.0030384275
0.0031823103
0.0033322506
0.003486288
0.0036379371
0.0037689359
0.0038666834
0.0039240244
0.0039422441
0.0039248444
0.0038782208
0.0038108824
0.0037299262
0.0036403657
0.0035461632
0.0034506692
0.0033551506
0.0032605364
0.0031673927
0.0030758479
0.0029854173
0.0028961479
0.0028080134
0.0027202236
0.0026333742
0.0025464801
0.0024575062
0.0023669486
0.0022748479
0.0021820093
0.0020880263
0.0019917542
0.0018942572
0.0017946125
0.0016934722
0.0015906576
0.0014862305
0.0013808215
0.0012740278
0.0011671521
0.0010598806
0.00095404622
0.00084902911
0.0007516783
0.00064850749
0.00059676136
0.00032091367
0.00086080211
-0.00087061885
0.037995603
0.032881162
0.025170144
0.017451659
0.010972982
0.0064106276
0.0040615783
0.003422201
0.0035659196
0.0038369596
0.0039850606
0.0040251081
0.0040119052
0.0039600519
0.0039071541
0.0038660597
0.0038234722
0.0037718941
0.0037264569
0.0036886451
0.0036471395
0.0035989979
0.0035535278
0.0035115681
0.0034679248
0.003420779
0.003374004
0.0033276607
0.0032791998
0.0032284079
0.0031772857
0.0031258526
0.0030728833
0.0030185793
0.0029640743
0.0029096104
0.0028548858
0.0028007603
0.0027486095
0.0026992581
0.0026534304
0.0026127777
0.0025797844
0.0025567327
0.0025481859
0.0025593603
0.0025902709
0.0026417465
0.0027151517
0.0028097003
0.0029237533
0.0030544337
0.0031971701
0.0033458218
0.0034986354
0.0036490599
0.0037785738
0.0038747845
0.0039312234
0.0039484614
0.0039303702
0.0038834353
0.003815879
0.0037347732
0.003645081
0.0035507476
0.0034551204
0.0033594528
0.0032646808
0.0031713713
0.0030796506
0.0029890413
0.0028996016
0.0028112968
0.0027233346
0.0026363145
0.0025492348
0.0024600872
0.0023693824
0.0022771383
0.0021841664
0.0020900575
0.0019936684
0.0018960674
0.001796326
0.001695099
0.0015922038
0.0014877026
0.0013822251
0.0012753663
0.0011684306
0.0010611021
0.00095521533
0.00085014706
0.00075275301
0.00064952944
0.00059807279
0.00032595258
0.00087349617
-0.00086712064
0.035894357
0.031402472
0.024617357
0.017680998
0.011730891
0.007408846
0.0049976936
0.0041305897
0.0040503143
0.0041679231
0.0042308922
0.0042208656
0.0041756083
0.0041056877
0.0040353216
0.0039754462
0.0039189896
0.0038593443
0.003805837
0.0037583445
0.0037084395
0.0036550673
0.003605508
0.0035596253
0.0035113698
0.0034598167
0.0034097637
0.0033607251
0.0033095721
0.0032564189
0.0032036853
0.0031509661
0.0030967049
0.003041374
0.0029863046
0.0029315114
0.0028764344
0.0028220687
0.0027699335
0.0027207552
0.002675195
0.0026349747
0.002602593
0.0025803635
0.0025719838
0.0025825635
0.0026132341
0.0026645939
0.0027375716
0.0028314428
0.0029445646
0.0030740024
0.0032152291
0.0033623341
0.0035128246
0.003660285
0.003787632
0.0038823974
0.0039382988
0.0039547592
0.0039361304
0.0038891156
0.0038215172
0.0037403886
0.0036506461
0.0035562318
0.0034605001
0.0033646933
0.0032697626
0.0031762798
0.0030843703
0.0029935649
0.0029039355
0.0028154375
0.0027272761
0.002640056
0.0025527677
0.0024634271
0.0023725472
0.0022801242
0.0021869817
0.0020927092
0.0019961656
0.0018984257
0.0017985539
0.001697209
0.001594204
0.0014896017
0.0013840308
0.0012770835
0.0011700666
0.0010626612
0.00095670344
0.00085156709
0.0007541117
0.00065082556
0.0005997263
0.00033227064
0.00088903039
-0.00086204098
0.033995617
0.03002052
0.024050512
0.01782442
0.012377515
0.0083000345
0.0058605108
0.004808102
0.0045326333
0.004508908
0.0044868613
0.0044255369
0.0043460753
0.0042547082
0.0041664779
0.0040898903
0.0040200439
0.0039509576
0.0038877177
0.0038302688
0.0037731398
0.0037151179
0.0036607871
0.0036093314
0.0035562769
0.0035015634
0.0034489423
0.003397219
0.0033430903
0.0032872949
0.003232692
0.0031784392
0.0031224699
0.0030656402
0.0030096398
0.0029541605
0.0028984453
0.0028437198
0.0027915897
0.0027426367
0.0026974409
0.002657824
0.0026263203
0.0026052674
0.0025971013
0.0026068279
0.0026371561
0.0026884831
0.0027611525
0.0028543962
0.0029664801
0.0030943747
0.0032338557
0.0033794774
0.0035266875
0.0036696961
0.0037944971
0.003888189
0.003944028
0.0039601066
0.0039412986
0.0038945477
0.003827178
0.0037462421
0.0036566135
0.0035622408
0.0034664915
0.0033706007
0.0032755483
0.0031819175
0.0030898364
0.0029988414
0.0029090189
0.0028203181
0.0027319422
0.0026445044
0.0025569854
0.0024674301
0.0023763558
0.0022837297
0.0021903899
0.0020959246
0.0019991963
0.0019012884
0.0018012573
0.0016997674
0.0015966265
0.0014918986
0.0013862114
0.0012791546
0.0011720372
0.0010645365
0.00095849009
0.00085326967
0.00075573478
0.00065237802
0.0006016887
0.0003397429
0.00090687551
-0.00085552134
0.032274872
0.028728971
0.023475957
0.017903613
0.012927534
0.0090909601
0.006654579
0.0054572203
0.0050114231
0.0048561172
0.0047504444
0.0046369933
0.0045224246
0.0044079584
0.0043011029
0.0042079753
0.0041242718
0.0040446496
0.0039718482
0.0039054046
0.0038411391
0.0037776556
0.0037177926
0.0036607401
0.003603441
0.0035456621
0.0034899213
0.0034348531
0.0033778931
0.003320101
0.0032638913
0.0032079696
0.0031500721
0.0030915569
0.0030344348
0.0029780679
0.0029214909
0.0028660692
0.0028134828
0.0027642825
0.0027190044
0.0026795758
0.0026485729
0.002628231
0.0026205878
0.002630241
0.0026602036
0.002711114
0.0027831737
0.0028756056
0.0029865854
0.0031129924
0.0032508663
0.0033950788
0.0035395048
0.0036783168
0.0038002069
0.0038927716
0.0039484688
0.0039643753
0.0039456834
0.003899435
0.0038324804
0.0037519271
0.0036625902
0.0035683953
0.0034727337
0.0033768413
0.0032817339
0.0031880051
0.0030957884
0.0030046309
0.0029146357
0.0028257436
0.0027371561
0.0026494992
0.0025617409
0.0024719607
0.0023806839
0.0022878432
0.0021942919
0.0020996166
0.0020026838
0.0019045883
0.0018043773
0.0017027224
0.0015994254
0.0014945525
0.0013887306
0.0012815465
0.0011743123
0.0010667002
0.0009605497
0.00085523116
0.00075759976
0.00065416626
0.00060391692
0.00034822109
0.00092644775
-0.0008476205
0.030711509
0.027529158
0.022905108
0.01792868
0.01338887
0.0097885135
0.0073819857
0.0060743557
0.0054814091
0.005205695
0.0050199347
0.0048548141
0.0047046267
0.0045656871
0.0044395532
0.004329531
0.0042317774
0.0041410248
0.0040582027
0.0039828902
0.0039112542
0.0038417927
0.0037764872
0.0037142816
0.0036527012
0.0035913597
0.0035322069
0.0034739304
0.0034143834
0.0033545601
0.0032962878
0.0032382898
0.0031786712
0.003118911
0.0030607891
0.0030034223
0.0029458265
0.0028895034
0.0028362611
0.0027865788
0.0027408914
0.0027012172
0.0026701734
0.0026498322
0.0026422143
0.0026517003
0.0026811947
0.0027314226
0.0028026396
0.0028941126
0.0030039945
0.00312912
0.0032655743
0.0034083135
0.0035508592
0.0036869303
0.0038063228
0.0038968577
0.0039514316
0.0039672876
0.0039489273
0.0039032963
0.0038369291
0.0037569868
0.0036681391
0.003574247
0.0034787933
0.0033830189
0.0032879475
0.0031941911
0.0031019016
0.0030106383
0.0029205179
0.0028314694
0.0027426949
0.0026548372
0.0025668489
0.0024768504
0.002385378
0.002292325
0.0021985625
0.0021036739
0.0020065299
0.0019082389
0.0018078379
0.0017060073
0.0016025424
0.0014975121
0.001391543
0.0012842187
0.0011768553
0.0010691194
0.00096285246
0.00085742441
0.00075968122
0.00065616711
0.0006063622
0.00035755961
0.0009471764
-0.0008382687
0.029288089
0.026418805
0.022342897
0.017904447
0.01376877
0.010399574
0.0080441729
0.0066567567
0.0059395111
0.005555521
0.0052941208
0.0050782586
0.0048921593
0.0047276799
0.0045816424
0.0044544649
0.0043423566
0.0042400532
0.0041470736
0.0040627492
0.0039836455
0.0039079513
0.003836829
0.0037694277
0.0037035094
0.0036383652
0.0035758159
0.0035145227
0.0034523249
0.0033901549
0.0033296936
0.0032697962
0.0032086198
0.0031475703
0.0030881077
0.0030295288
0.002971012
0.0029139458
0.0028601383
0.002809937
0.0027637337
0.0027236225
0.0026922767
0.0026715845
0.0026634869
0.0026723367
0.0027010538
0.0027502863
0.0028202815
0.0029104084
0.0030188573
0.0031424529
0.0032772989
0.0034184482
0.0035594745
0.0036939777
0.0038118176
0.0039004779
0.0039540778
0.0039698975
0.0039511544
0.0039057055
0.0038401454
0.003761043
0.003672806
0.0035793497
0.0034842805
0.0033887783
0.0032938307
0.0032001292
0.0031078655
0.0030165754
0.0029263896
0.0028372365
0.0027483185
0.002660295
0.0025721038
0.0024819132
0.0023902693
0.0022970218
0.0022030642
0.0021079746
0.0020106268
0.0019121456
0.0018115565
0.0017095501
0.0016059146
0.0015007225
0.0013946004
0.0012871289
0.0011796286
0.0010717608
0.00096536824
0.00085982217
0.00076195392
0.00065835766
0.00060897452
0.00036762461
0.00096852722
-0.00082733598
0.027989379
0.025393019
0.021793053
0.017837327
0.01407577
0.010931381
0.0086434602
0.0072029796
0.0063833216
0.0059033223
0.0055712491
0.005306093
0.0050842273
0.0048935654
0.0047271432
0.0045826389
0.0044559368
0.0043417553
0.0042384651
0.0041449848
0.0040581951
0.0039760381
0.0038989921
0.0038263072
0.0037559362
0.0036870036
0.0036208006
0.0035562413
0.0034914336
0.003426834
0.0033641732
0.0033024475
0.0032396631
0.003177128
0.0031162621
0.0030566217
0.0029972763
0.0029394392
0.0028848829
0.0028340661
0.0027874112
0.0027468804
0.0027151769
0.002694047
0.0026853643
0.0026933942
0.0027210874
0.002769029
0.0028374207
0.0029257664
0.0030323175
0.0031539056
0.0032866909
0.0034258884
0.0035651617
0.003697988
0.003814341
0.003902125
0.003955679
0.0039716958
0.003952898
0.0039078031
0.0038430145
0.0037641772
0.0036762292
0.0035834155
0.0034889328
0.003393779
0.003299045
0.0032055301
0.0031134178
0.0030221681
0.0029319781
0.0028427927
0.0027537843
0.0026656412
0.0025772951
0.0024869585
0.0023951829
0.0023017753
0.0022076565
0.0021123929
0.0020148627
0.0019162104
0.0018154473
0.0017132759
0.0016094769
0.0015041273
0.0013978537
0.001290234
0.0011825947
0.0010745907
0.00096806727
0.00086239771
0.00076439326
0.00066071572
0.00061170405
0.00037829133
0.00098999059
-0.00081466115
0.026802019
0.024445997
0.021258922
0.017734088
0.014317695
0.011390436
0.0091823961
0.0077119869
0.0068104041
0.006246653
0.0058494626
0.005537098
0.0052800907
0.0050629958
0.0048758625
0.0047139084
0.0045724372
0.0044460919
0.0043323165
0.0042295552
0.0041348843
0.0040460738
0.0039630163
0.0038849432
0.0038099781
0.003737126
0.003667176
0.003599285
0.0035317771
0.0034648233
0.0033998334
0.0033360062
0.003271611
0.0032076002
0.0031453323
0.0030846219
0.0030244128
0.0029657146
0.0029103845
0.0028590468
0.0028119829
0.0027709843
0.0027388292
0.0027172373
0.0027079993
0.0027151956
0.0027417848
0.0027882903
0.002854886
0.0029412019
0.0030455474
0.0031647526
0.0032950487
0.0034318399
0.003568896
0.0036996094
0.0038141905
0.0039011114
0.0039544851
0.003970968
0.0039531397
0.003909239
0.0038453004
0.0037667678
0.0036793743
0.0035872671
0.0034928874
0.0033977337
0.0033033742
0.0032102117
0.0031182845
0.0030271251
0.0029370359
0.002847916
0.0027588644
0.0026706638
0.0025822365
0.0024918072
0.0023999502
0.0023064342
0.0022122012
0.0021168013
0.0020191235
0.0019203325
0.0018194207
0.0017171058
0.0016131604
0.0015076659
0.0014012502
0.0012934881
0.0011857132
0.0010775741
0.00097091838
0.00086512328
0.00076697396
0.00066321874
0.00061450091
0.00038943698
0.0010110484
-0.00080006674
0.025714245
0.023571619
0.020742914
0.017600895
0.014501563
0.011782811
0.0096638572
0.0081832497
0.0072186311
0.0065832825
0.0061270351
0.0057700916
0.0054789743
0.0052355365
0.0050275336
0.0048480733
0.0046917274
0.0045529953
0.0044285805
0.0043164335
0.0042137186
0.0041180751
0.0040288959
0.0039453295
0.0038656391
0.0037887297
0.0037149848
0.0036437032
0.0035733887
0.0035039988
0.0034366088
0.0033706278
0.0033045767
0.0032391077
0.0031754258
0.0031134491
0.0030522856
0.0029927827
0.0029366771
0.0028847883
0.0028372884
0.0027957784
0.0027631817
0.002741171
0.0027313605
0.0027376694
0.0027630788
0.0028081067
0.0028728956
0.0029571235
0.0030591373
0.0031757715
0.0033033376
0.0034374196
0.0035718966
0.0037001067
0.003812529
0.0038982306
0.0039511001
0.0039679277
0.0039511459
0.0039085676
0.0038457629
0.0037683546
0.003682096
0.0035907093
0.0034964082
0.0034014706
0.0033075662
0.0032143265
0.0031222308
0.0030312782
0.0029414196
0.0028523834
0.0027633467
0.002675199
0.0025867743
0.0024962948
0.0024044238
0.002310866
0.0022165651
0.0021210748
0.0020232963
0.0019244077
0.0018233809
0.0017209545
0.0016168885
0.0015112706
0.0014047305
0.0012968393
0.001188939
0.0010806714
0.00097388693
0.0008679684
0.00076966855
0.00066584252
0.00061731468
0.00040093379
0.0010311302
-0.00078337939
0.024715662
0.022763744
0.020246501
0.017443328
0.014633979
0.012114369
0.010090995
0.0086167373
0.0076062415
0.006911173
0.0064022832
0.00600384
0.0056800207
0.0054106639
0.0051818319
0.004984901
0.0048136522
0.0046623814
0.0045272013
0.0044055804
0.0042946827
0.0041920411
0.0040966306
0.0040074761
0.0039229405
0.0038418489
0.0037642471
0.0036895013
0.0036162751
0.0035443528
0.0034745298
0.0034063654
0.0033385843
0.0032716005
0.0032064621
0.0031431732
0.0030810236
0.003020722
0.0029638462
0.002911263
0.0028632476
0.0028212563
0.002788204
0.0027657886
0.0027553606
0.0027607165
0.0027849361
0.0028285012
0.0028914733
0.0029735564
0.0030731444
0.0031871325
0.0033119064
0.0034431741
0.0035749018
0.0037003951
0.0038103933
0.0038945619
0.0039465957
0.0039634944
0.0039477186
0.0039062277
0.0038445802
0.0037684139
0.003683264
0.0035927368
0.0034991501
0.0034049322
0.0033114622
0.0032180804
0.0031260053
0.00303531
0.0029452767
0.0028560317
0.0027671398
0.0026791444
0.0025907272
0.0025002634
0.0024084877
0.0023149483
0.002220617
0.0021251029
0.0020272768
0.0019283303
0.0018272299
0.0017247317
0.001620577
0.0015148656
0.0014082274
0.0013002282
0.00119222
0.0010838368
0.00097693301
0.00087089804
0.00077244577
0.00066855986
0.00062009433
0.00041264379
0.0010495676
-0.0007644478
0.02379707
0.022016434
0.019770407
0.017266387
0.014721147
0.012390681
0.010467067
0.0090128198
0.0079718146
0.0072284569
0.0066735675
0.0062370889
0.005882332
0.0055878013
0.0053383913
0.0051241305
0.0049380301
0.0047741409
0.0046281039
0.0044969401
0.0043777467
0.0042679634
0.0041662183
0.0040713882
0.0039818967
0.0038965046
0.0038149764
0.0037366954
0.0036604603
0.0035859204
0.0035136256
0.0034432308
0.0033736396
0.0033050809
0.0032384534
0.0031738316
0.0031106537
0.0030495095
0.0029918338
0.0029385201
0.0028899566
0.0028475275
0.0028138991
0.0027909673
0.0027799808
0.0027843886
0.0028073875
0.0028494472
0.0029105508
0.0029904336
0.0030875578
0.0031988804
0.0033208324
0.0034492132
0.0035780783
0.0037007716
0.0038082672
0.0038907741
0.0039418225
0.003958643
0.0039436142
0.0039029751
0.00384233
0.0037672678
0.0036831544
0.003593548
0.0035007794
0.0034072208
0.0033142284
0.0032212108
0.0031295969
0.0030391176
0.002948852
0.0028595866
0.0027708026
0.0026825612
0.0025939706
0.0025036624
0.0024120314
0.0023185184
0.0022242365
0.0021287946
0.0020309619
0.0019319973
0.0018308765
0.0017283461
0.0016241385
0.0015183716
0.0014116682
0.0013035883
0.0011954966
0.0010870176
0.00098000998
0.000873871
0.00077526911
0.00067133918
0.00062278841
0.00042441549
0.0010655588
-0.00074316044
0.022950302
0.021324087
0.019314773
0.017074441
0.014768824
0.012617007
0.010795378
0.0093722283
0.008314283
0.0075334706
0.0069393322
0.006468598
0.0060849868
0.0057663228
0.0054967977
0.0052654646
0.0050646481
0.0048881364
0.0047311939
0.0045904433
0.0044628696
0.0043458245
0.0042376503
0.0041370637
0.004042515
0.003952712
0.0038671861
0.0037853029
0.0037059685
0.0036287275
0.0035539144
0.0034812405
0.0034097661
0.0033395775
0.0032714278
0.0032054415
0.0031411832
0.00307915
0.0030206454
0.0029665821
0.0029174396
0.0028745352
0.0028403385
0.0028167767
0.0028051785
0.0028087005
0.0028304149
0.0028708943
0.0029300926
0.0030077427
0.0031023454
0.003210963
0.0033300797
0.0034555185
0.0035814617
0.0037013314
0.0038062944
0.0038870717
0.0039370653
0.0039537244
0.0039393318
0.003899447
0.0038397079
0.0037655296
0.0036823184
0.0035935329
0.0035015081
0.003408536
0.0033160538
0.0032234791
0.0031322538
0.0030420151
0.0029519603
0.0028630266
0.0027742684
0.0026857643
0.0025971969
0.0025068839
0.0024149998
0.0023214838
0.0022273933
0.0021320211
0.002034215
0.0019353139
0.0018342335
0.001731704
0.001627494
0.0015217137
0.0014149789
0.0013068497
0.0011987043
0.001090154
0.00098306411
0.00087683898
0.00077809567
0.00067414324
0.00062534578
0.00043608254
0.0010781688
-0.00071946413
0.022168102
0.020681504
0.018879309
0.016871227
0.014782297
0.012798311
0.011079244
0.0096960025
0.0086329245
0.0078247697
0.0071981216
0.0066971511
0.0062870448
0.005945557
0.0056565897
0.0054085698
0.0051932634
0.0050042037
0.0048363575
0.004686006
0.0045499972
0.0044255957
0.0043109094
0.0042044936
0.0041047975
0.0040104827
0.003920888
0.0038353382
0.0037528192
0.0036727954
0.0035954142
0.0035204145
0.0034469886
0.0033751139
0.0033054053
0.0032380196
0.0031726313
0.0031096659
0.0030503041
0.0029954649
0.0029457037
0.0029022795
0.0028674906
0.0028432621
0.002831005
0.002833616
0.0028539993
0.0028928434
0.0029501047
0.0030254838
0.0031175255
0.0032233992
0.0033396288
0.0034620687
0.0035850334
0.0037020339
0.0038044483
0.0038834556
0.003932379
0.0039488535
0.0039350558
0.0038958834
0.0038369927
0.0037636543
0.0036813188
0.0035931696
0.0035017774
0.0034093001
0.003317243
0.0032250199
0.003134124
0.0030441568
0.002954367
0.0028656655
0.002777007
0.0026886562
0.0026003357
0.0025098989
0.0024178257
0.0023244694
0.0022302959
0.0021346525
0.0020369647
0.0019382104
0.001837172
0.0017347081
0.0016305754
0.0015248178
0.0014180879
0.0013099465
0.0012017776
0.0010931839
0.00098603666
0.00087974807
0.00078087669
0.0006769289
0.00062771688
0.00044746498
0.0010864044
-0.000693381
0.021444014
0.020083917
0.018463415
0.016659892
0.014766378
0.012939261
0.011321956
0.009985429
0.0089273376
0.0081011379
0.0074485949
0.0069215714
0.0064875603
0.0061247987
0.0058172652
0.005553079
0.0053236036
0.0051221513
0.0049434594
0.0047835282
0.0046390609
0.0045072361
0.0043859694
0.0042736621
0.0041687401
0.0040698229
0.0039760903
0.0038868118
0.0038010288
0.0037181435
0.0036381433
0.0035607717
0.003485329
0.0034117108
0.0033404047
0.0032715845
0.0032050189
0.0031410777
0.0030808274
0.003025183
0.0029747628
0.0029307774
0.0028953666
0.0028704436
0.0028574757
0.0028591313
0.0028781509
0.0029153229
0.0029706095
0.0030436751
0.0031331107
0.0032361852
0.0033494676
0.0034688552
0.0035887932
0.003702896
0.0038027604
0.0038798968
0.0039277518
0.0039440316
0.0039307605
0.0038922881
0.0038342181
0.0037618152
0.0036803472
0.003592788
0.0035018779
0.0034099268
0.0033182314
0.0032262006
0.003135526
0.0030457591
0.0029561651
0.0028676423
0.0027791202
0.0026909423
0.0026027411
0.0025123532
0.0024205015
0.0023273739
0.0022329989
0.0021372361
0.0020396366
0.0019407228
0.0018396189
0.0017373377
0.001633277
0.0015275799
0.0014209201
0.0013128118
0.0012046502
0.0010960483
0.00098886805
0.00088254429
0.00078356055
0.00067964915
0.00062985628
0.00045837465
0.0010894014
-0.00066501823
0.020772289
0.019526985
0.018066294
0.016443042
0.014725398
0.013044225
0.011526744
0.010241988
0.0091974172
0.0083615931
0.0076895421
0.0071407367
0.0066855949
0.0063033194
0.0059782863
0.0056985922
0.0054553676
0.0052417607
0.0050523421
0.0048828928
0.0047299774
0.0045906917
0.0044627948
0.0043445461
0.0042343323
0.0041307329
0.0040327971
0.0039397314
0.0038506109
0.0037647895
0.0036821183
0.0036023288
0.0035248073
0.0034493885
0.003376445
0.0033061549
0.0032383655
0.0031734037
0.0031122317
0.0030557516
0.003004633
0.0029600439
0.0029239803
0.002898329
0.0028845974
0.0028852549
0.0029028816
0.0029383425
0.0029916107
0.0030623195
0.0031491037
0.0032493269
0.0033596102
0.0034758972
0.0035927606
0.0037039268
0.0038012183
0.0038764186
0.0039231828
0.0039392417
0.0039264613
0.0038886777
0.0038314221
0.0037599522
0.0036793007
0.003592527
0.0035019586
0.0034105967
0.0033192041
0.0032273228
0.0031368012
0.0030471229
0.0029576172
0.0028691928
0.0027807491
0.0026926868
0.0026045671
0.002514287
0.0024226283
0.002329619
0.002235319
0.0021397891
0.0020422029
0.0019431271
0.0018421132
0.0017397851
0.0016354963
0.0015299469
0.0014234015
0.0013153435
0.001207248
0.0010986853
0.00099149915
0.00088517925
0.00078609698
0.00068225757
0.00063172877
0.00046862429
0.0010866338
-0.00063456512
0.020147805
0.019006786
0.017687024
0.01622281
0.014663218
0.013117261
0.01169675
0.010467308
0.0094433244
0.008605387
0.0079198966
0.0073535938
0.0068802303
0.0064803772
0.0061390859
0.0058446785
0.005588226
0.0053627864
0.0051628253
0.0049839642
0.0048226478
0.0046758951
0.0045413393
0.0044171137
0.0043015561
0.0041932069
0.0040910082
0.0039941007
0.0039015756
0.003812748
0.003727354
0.0036451013
0.0035654418
0.0034881663
0.0034135446
0.0033417486
0.0032726895
0.0032066619
0.0031445334
0.003087186
0.0030353291
0.0029900929
0.0029533429
0.0029269275
0.0029123807
0.0029119974
0.0029281995
0.0029619079
0.0030131136
0.0030814236
0.0031655121
0.0032628337
0.0033700668
0.003483204
0.0035969431
0.0037051381
0.0037997847
0.0038730582
0.0039186931
0.0039344877
0.0039221539
0.0038850459
0.0038286139
0.0037580742
0.0036782279
0.0035922467
0.0035020972
0.0034112665
0.0033201705
0.0032285143
0.003138118
0.0030484693
0.0029590135
0.0028706063
0.0027821328
0.0026940945
0.0026059928
0.0025157755
0.0024242587
0.002331356
0.0022371972
0.0021418119
0.0020442852
0.0019453598
0.0018445661
0.0017420824
0.0016377125
0.0015322403
0.0014255358
0.0013174871
0.0012095307
0.0011010004
0.00099386449
0.00088759804
0.00078843365
0.00068470938
0.00063331766
0.00047804138
0.0010780065
-0.00060229203
0.019565996
0.018519792
0.017324626
0.016000922
0.014583244
0.013162117
0.011835008
0.010663121
0.009665453
0.0088319982
0.0081387437
0.0075591705
0.0070705801
0.0066552278
0.0062990742
0.0059908801
0.0057218229
0.0054849574
0.0052747055
0.0050865883
0.0049169567
0.0047627646
0.0046215454
0.004491324
0.0043703855
0.0042572322
0.0041507181
0.0040499194
0.0039539294
0.0038620305
0.0037738629
0.0036891025
0.0036072494
0.0035280621
0.0034517206
0.0033783822
0.0033080085
0.0032408696
0.0031777486
0.003119501
0.0030668654
0.003020938
0.0029834656
0.002956249
0.002940836
0.0029393674
0.0029541109
0.002986026
0.0030351256
0.0031009948
0.0031823435
0.0032767138
0.0033808455
0.0034907838
0.0036013505
0.0037065405
0.0037984752
0.003869824
0.003914291
0.00392978
0.0039178416
0.0038813941
0.0038257827
0.0037561715
0.0036771504
0.0035918711
0.0035023485
0.003411947
0.0033211407
0.0032297344
0.0031394638
0.0030498923
0.0029605028
0.0028720534
0.0027834962
0.0026954247
0.0026072476
0.0025169995
0.0024255491
0.0023327099
0.0022386618
0.0021433794
0.0020459444
0.0019471663
0.0018464845
0.0017440702
0.0016399266
0.0015344499
0.0014276289
0.0013196373
0.0012115917
0.0011029456
0.00099594985
0.00088970767
0.00079049826
0.00068694584
0.00063460736
0.00048648935
0.0010638169
-0.00056857665
0.019022791
0.018062837
0.016978107
0.015778759
0.01448846
0.013182222
0.011944424
0.01083123
0.0098643964
0.0090411208
0.0083453272
0.0077565871
0.0072558011
0.0068271345
0.0064576475
0.0061367164
0.0058557783
0.005607978
0.0053877566
0.0051905913
0.0050127723
0.0048512035
0.0047033429
0.0045671261
0.0044407861
0.0043227887
0.0042119156
0.0041071825
0.0040076743
0.0039126452
0.0038216548
0.0037343437
0.0036502446
0.0035690923
0.0034909891
0.0034160712
0.003344339
0.0032760435
0.0032118925
0.0031527105
0.0030992555
0.0030525919
0.0030143592
0.0029863031
0.0029699728
0.0029673728
0.0029806224
0.0030107036
0.0030576535
0.0031210399
0.0031996049
0.003290975
0.0033919551