/*--------------------------------*- C++ -*----------------------------------*\
| =========                 |                                                 |
| \\      /  F ield         | OpenFOAM: The Open Source CFD Toolbox           |
|  \\    /   O peration     | Version:  2206                                  |
|   \\  /    A nd           | Website:  www.openfoam.com                      |
|    \\/     M anipulation  |                                                 |
\*---------------------------------------------------------------------------*/
FoamFile
{
    version     2.0;
    format      ascii;
    arch        "LSB;label=32;scalar=64";
    class       surfaceScalarField;
    location    "600";
    object      phi;
}
// * * * * * * * * * * * * * * * * * * * * * * * * * * * * * * * * * * * * * //

dimensions      [0 3 -1 0 0 0 0];

oriented        oriented;

internalField   nonuniform List<scalar> 
14782
(
0.000617691
8.7781064e-05
-0.00070547206
0.00051029615
0.00010739485
0.00040012315
0.00011017301
0.00030665725
9.3465894e-05
0.00023998261
6.6674644e-05
0.00019924277
4.0739836e-05
0.00017532624
2.3916533e-05
0.00016115676
1.4169474e-05
0.00015174783
9.4089292e-06
0.00014417995
7.5678881e-06
0.00013730963
6.8703132e-06
0.0001309477
6.3619339e-06
0.00012513926
5.8084357e-06
0.00011984726
5.2920067e-06
0.00011501068
4.8365776e-06
0.00011060575
4.404932e-06
0.00010659967
4.0060817e-06
0.00010290932
3.6903407e-06
9.9482049e-05
3.4272753e-06
9.6298742e-05
3.1833077e-06
9.3337354e-05
2.9613879e-06
9.0563138e-05
2.7742157e-06
8.7954799e-05
2.6083393e-06
8.5502941e-05
2.4518576e-06
8.3194742e-05
2.3081991e-06
8.1011604e-05
2.1831382e-06
7.8942553e-05
2.0690509e-06
7.6982808e-05
1.9597453e-06
7.5125044e-05
1.8577638e-06
7.33598e-05
1.7652443e-06
7.1681942e-05
1.6778579e-06
7.0089115e-05
1.5928264e-06
6.8577123e-05
1.511992e-06
6.7141259e-05
1.435864e-06
6.5779325e-05
1.3619344e-06
6.4490413e-05
1.2889117e-06
6.3272793e-05
1.2176201e-06
6.2125453e-05
1.1473398e-06
6.1049325e-05
1.0761282e-06
6.0046151e-05
1.0031744e-06
5.9117134e-05
9.2901723e-07
5.8263968e-05
8.5316594e-07
5.7489855e-05
7.7411291e-07
5.6797696e-05
6.9215897e-07
5.6192536e-05
6.0516017e-07
5.5683165e-05
5.0937037e-07
5.5279482e-05
4.0368333e-07
5.4985279e-05
2.9420303e-07
5.4800163e-05
1.8511591e-07
5.4722714e-05
7.7448814e-08
5.4748715e-05
-2.6000829e-08
5.4871367e-05
-1.2265219e-07
5.5078471e-05
-2.0710421e-07
5.5350204e-05
-2.7173322e-07
5.5673429e-05
-3.2322464e-07
5.6035352e-05
-3.619233e-07
5.6402798e-05
-3.6744561e-07
5.6737269e-05
-3.3447113e-07
5.7005441e-05
-2.6817259e-07
5.7192545e-05
-1.8710327e-07
5.7293101e-05
-1.0055639e-07
5.7311268e-05
-1.8167144e-08
5.7257331e-05
5.3936863e-08
5.7144567e-05
1.1276388e-07
5.698646e-05
1.5810764e-07
5.6794944e-05
1.9151577e-07
5.6580776e-05
2.1416841e-07
5.6351765e-05
2.2901022e-07
5.6113756e-05
2.3800907e-07
5.5871204e-05
2.4255236e-07
5.562734e-05
2.4386369e-07
5.5383861e-05
2.4347895e-07
5.5142286e-05
2.4157504e-07
5.4903875e-05
2.3841087e-07
5.4668529e-05
2.3534658e-07
5.4436854e-05
2.3167459e-07
5.4205545e-05
2.3130911e-07
5.3970144e-05
2.3540052e-07
5.3731946e-05
2.3819856e-07
5.3492278e-05
2.3966785e-07
5.3252045e-05
2.4023313e-07
5.3011147e-05
2.408982e-07
5.2768329e-05
2.428178e-07
5.2523772e-05
2.4455697e-07
5.2276882e-05
2.468895e-07
5.2027923e-05
2.489592e-07
5.177697e-05
2.5095347e-07
5.1524129e-05
2.5284033e-07
5.1269926e-05
2.5420306e-07
5.1014216e-05
2.5570986e-07
5.0757578e-05
2.5663813e-07
5.0499872e-05
2.5770592e-07
5.0241261e-05
2.5861115e-07
4.9981445e-05
2.5981632e-07
4.9719553e-05
2.6189157e-07
4.9455489e-05
2.6406394e-07
4.9210109e-05
2.4538002e-07
4.8807398e-05
4.0271176e-07
4.8816546e-05
-9.1487135e-09
8.4010576e-07
0.00079174908
9.1059802e-05
-0.00079502782
0.00077877116
0.00012037277
0.00075193054
0.00013701362
0.00070877837
0.00013661807
0.00065523892
0.0001202141
0.00060114854
9.4830218e-05
0.00055305428
7.2010791e-05
0.00051312196
5.4101795e-05
0.00048025949
4.2271401e-05
0.00045276133
3.5066041e-05
0.00042913139
3.0500261e-05
0.00040846809
2.7025234e-05
0.00039015801
2.4118508e-05
0.0003737161
2.173392e-05
0.00035879986
1.9752821e-05
0.00034520498
1.7999815e-05
0.00033275813
1.6452929e-05
0.00032128299
1.5165478e-05
0.00031064505
1.4065215e-05
0.0003007538
1.3074561e-05
0.00029153124
1.218395e-05
0.00028289567
1.1409778e-05
0.00027478478
1.0719229e-05
0.00026715269
1.0083948e-05
0.0002599559
9.5049882e-06
0.00025315074
8.9883007e-06
0.00024670443
8.5153659e-06
0.00024059429
8.0698796e-06
0.00023479786
7.6541942e-06
0.00022929186
7.2712456e-06
0.00022405946
6.9102581e-06
0.00021908926
6.5630261e-06
0.00021436949
6.2317596e-06
0.00020988868
5.9166787e-06
0.00020563942
5.6111891e-06
0.00020161754
5.3107936e-06
0.00019781931
5.01585e-06
0.00019424306
4.723587e-06
0.00019089104
4.4281496e-06
0.00018776819
4.1260275e-06
0.00018487999
3.8172146e-06
0.00018223373
3.4994301e-06
0.00017983981
3.1680291e-06
0.00017771055
2.8214252e-06
0.00017585439
2.4613201e-06
0.00017431043
2.0533235e-06
0.00017309266
1.6214558e-06
0.00017220285
1.1840129e-06
0.00017164889
7.3907585e-07
0.00017142127
3.0506867e-07
0.00017150389
-1.0862123e-07
0.00017187262
-4.9138142e-07
0.0001724886
-8.2308354e-07
0.0001732968
-1.0799321e-06
0.00017424911
-1.2755317e-06
0.00017529066
-1.4034788e-06
0.0001763282
-1.404986e-06
0.00017725437
-1.2606428e-06
0.00017799107
-1.0048737e-06
0.00017848729
-6.8331842e-07
0.00017873135
-3.4462165e-07
0.00017874166
-2.8471771e-08
0.00017854421
2.5138848e-07
0.00017817621
4.8076371e-07
0.0001776763
6.5801902e-07
0.00017707902
7.8878655e-07
0.00017641451
8.7867903e-07
0.00017570573
9.3779225e-07
0.00017497001
9.7373054e-07
0.00017422044
9.9212247e-07
0.00017346641
9.9789791e-07
0.00017271354
9.9634642e-07
0.00017196648
9.8863524e-07
0.00017122867
9.7622045e-07
0.00017050068
9.633393e-07
0.00016978324
9.4910753e-07
0.00016906543
9.491233e-07
0.00016833548
9.6535226e-07
0.00016759764
9.7604031e-07
0.00016685613
9.8117825e-07
0.00016611274
9.8361749e-07
0.00016536675
9.8689353e-07
0.0001646155
9.9406746e-07
0.00016385864
1.0014094e-06
0.00016309499
1.0105405e-06
0.000162325
1.0189499e-06
0.00016154899
1.0269637e-06
0.00016076752
1.0343121e-06
0.00015998179
1.0399343e-06
0.00015919202
1.0454779e-06
0.00015839945
1.04921e-06
0.00015760432
1.0528297e-06
0.00015680668
1.0562532e-06
0.00015600725
1.0592525e-06
0.00015519986
1.0692783e-06
0.00015439823
1.0656921e-06
0.0001535876
1.0560067e-06
0.00015257205
1.4182652e-06
0.00015201678
5.4611913e-07
2.5243498e-06
0.0008315542
8.6588809e-05
-0.0008270832
0.00083707106
0.00011485591
0.00084159959
0.0001324851
0.00084050436
0.00013771329
0.00083138789
0.00012933057
0.0008141018
0.0001121163
0.00079125638
9.4856219e-05
0.0007652649
8.0093268e-05
0.00073802603
6.9510269e-05
0.00071105057
6.2041504e-05
0.00068517828
5.6372554e-05
0.00066070618
5.1497335e-05
0.00063764213
4.7182553e-05
0.00061588354
4.349251e-05
0.00059536589
4.0270469e-05
0.0005760594
3.7306306e-05
0.00055790462
3.4607712e-05
0.00054080768
3.2262419e-05
0.00052468477
3.0188124e-05
0.00050947063
2.8288702e-05
0.00049509988
2.6554706e-05
0.00048149873
2.5010929e-05
0.00046860692
2.3611039e-05
0.00045637702
2.2313844e-05
0.00044476286
2.1119148e-05
0.00043371598
2.0035176e-05
0.00042319746
1.9033889e-05
0.00041317746
1.8089886e-05
0.00040362722
1.7204433e-05
0.00039451858
1.637988e-05
0.00038583011
1.559873e-05
0.00037754601
1.4847125e-05
0.00036965128
1.4126488e-05
0.00036213236
1.34356e-05
0.00035498045
1.2763097e-05
0.00034819095
1.2100296e-05
0.0003417611
1.1445699e-05
0.00033569121
1.0793477e-05
0.0003299863
1.0133066e-05
0.00032465519
9.4571414e-06
0.00031970866
8.7637384e-06
0.00031516064
8.0474516e-06
0.000311029
7.2996638e-06
0.0003073349
6.5155264e-06
0.00030409974
5.6964843e-06
0.00030136414
4.7889239e-06
0.00029914954
3.8360569e-06
0.00029745817
2.8753799e-06
0.00029628883
1.9084179e-06
0.00029562368
9.7021486e-07
0.00029543197
8.3086765e-08
0.00029567074
-7.3014409e-07
0.00029627833
-1.4306773e-06
0.00029717397
-1.9755716e-06
0.00029827949
-2.3810528e-06
0.00029949986
-2.6238438e-06
0.0003006976
-2.6027336e-06
0.00030172672
-2.2897629e-06
0.00030248221
-1.7603624e-06
0.00030290366
-1.1047691e-06
0.00030297924
-4.2020089e-07
0.00030273124
2.1953245e-07
0.00030219734
7.8528719e-07
0.00030142991
1.2481943e-06
0.00030048197
1.6059525e-06
0.00029940114
1.8696205e-06
0.00029822875
2.0510682e-06
0.00029699723
2.1693184e-06
0.0002957314
2.2395567e-06
0.00029445007
2.2734485e-06
0.00029316671
2.2812652e-06
0.00029188989
2.2731583e-06
0.00029062654
2.2519858e-06
0.00028938154
2.2212195e-06
0.00028815614
2.1887388e-06
0.00028695049
2.1547608e-06
0.00028574729
2.1523256e-06
0.00028453163
2.1810137e-06
0.00028331116
2.1965036e-06
0.00028209046
2.2018799e-06
0.00028087019
2.2038889e-06
0.00027964844
2.2086425e-06
0.00027842154
2.2209696e-06
0.00027718812
2.2348279e-06
0.00027594646
2.2522027e-06
0.00027469673
2.2686793e-06
0.00027343923
2.2844604e-06
0.00027217471
2.2988344e-06
0.00027090461
2.3100367e-06
0.00026962948
2.3206078e-06
0.00026835075
2.3279335e-06
0.00026706915
2.3344327e-06
0.00026578442
2.3409838e-06
0.00026449843
2.345244e-06
0.00026320025
2.3674607e-06
0.00026191581
2.3501236e-06
0.00026058569
2.3861278e-06
0.00025910144
2.9025217e-06
0.00025782945
1.8181011e-06
4.6025784e-06
0.00086134622
8.2259313e-05
-0.00085701672
0.00086788241
0.00010831972
0.00087517296
0.00012519454
0.00088219936
0.00013068689
0.00088610746
0.00012542247
0.00088509339
0.00011313037
0.00088100751
9.8942099e-05
0.00087428344
8.6817341e-05
0.00086519747
7.8596239e-05
0.00085399378
7.3245187e-05
0.00084100241
6.9363928e-05
0.00082642417
6.6075575e-05
0.00081062379
6.2982936e-05
0.00079419065
5.992565e-05
0.00077746447
5.6996645e-05
0.00076067051
5.4100268e-05
0.00074394708
5.133114e-05
0.00072738217
4.8827331e-05
0.00071106087
4.6509426e-05
0.00069506194
4.4287625e-05
0.00067944056
4.2176093e-05
0.00066422369
4.0227797e-05
0.00064943297
3.8401761e-05
0.0006350867
3.6660111e-05
0.00062119373
3.5012116e-05
0.00060775072
3.3478193e-05
0.00059475454
3.203006e-05
0.00058220312
3.0641307e-05
0.00057009005
2.9317507e-05
0.00055840577
2.8064163e-05
0.00054714388
2.6860619e-05
0.00053630055
2.5690451e-05
0.00052587105
2.4555986e-05
0.00051585122
2.3455435e-05
0.00050624098
2.2373328e-05
0.00049704427
2.129701e-05
0.000488266
2.0223973e-05
0.00047991253
1.9146946e-05
0.00047199394
1.8051648e-05
0.00046452397
1.6927114e-05
0.0004575187
1.5769013e-05
0.00045099768
1.456847e-05
0.00044498427
1.3313072e-05
0.00043950564
1.1994157e-05
0.00043459149
1.0610632e-05
0.00043027212
9.1082917e-06
0.00042656187
7.54631e-06
0.00042345567
5.9815791e-06
0.00042094045
4.4236368e-06
0.00041899434
2.9163307e-06
0.00041758306
1.4943614e-06
0.00041665719
1.9572553e-07
0.00041614611
-9.1959267e-07
0.00041596647
-1.7959297e-06
0.00041603207
-2.4466584e-06
0.00041622521
-2.8169855e-06
0.00041639454
-2.7720575e-06
0.0004164031
-2.2983273e-06
0.00041616412
-1.5213816e-06
0.00041563319
-5.7384088e-07
0.00041480435
4.0863986e-07
0.00041369971
1.3241682e-06
0.00041235503
2.1299733e-06
0.00041081551
2.7877151e-06
0.00040912673
3.2947338e-06
0.00040733054
3.6658083e-06
0.00040546435
3.9172582e-06
0.00040355845
4.0752132e-06
0.00040163672
4.1612931e-06
0.0003997175
4.1926685e-06
0.00039781397
4.18479e-06
0.00039593497
4.1521566e-06
0.00039408777
4.0991881e-06
0.00039227721
4.0317839e-06
0.00039050431
3.9616396e-06
0.00038876779
3.8912746e-06
0.00038706228
3.8578363e-06
0.00038538035
3.8629451e-06
0.00038371726
3.8595942e-06
0.00038206899
3.8501487e-06
0.00038043263
3.8402551e-06
0.00037880462
3.8366489e-06
0.00037718022
3.8453684e-06
0.00037555677
3.8582736e-06
0.00037393163
3.8773431e-06
0.00037230406
3.8962523e-06
0.00037067369
3.9148281e-06
0.00036904075
3.9317749e-06
0.00036740622
3.9445682e-06
0.00036577037
3.9564563e-06
0.00036413424
3.9640672e-06
0.00036249849
3.9701837e-06
0.0003608623
3.9771701e-06
0.00035922808
3.9794685e-06
0.00035758158
4.0139612e-06
0.00035595515
3.976553e-06
0.00035426565
4.0756251e-06
0.00035247075
4.6974215e-06
0.00035066425
3.6245979e-06
6.8281059e-06
0.00089163584
7.8535076e-05
-0.00088791161
0.00089766871
0.00010228685
0.00090487554
0.00011798771
0.00091178136
0.00012378107
0.00091694814
0.0001202557
0.00091987756
0.00011020095
0.00092051903
9.830063e-05
0.00091937574
8.7960638e-05
0.00091748888
8.0483096e-05
0.00091493771
7.5796354e-05
0.00091164827
7.2653375e-05
0.00090740054
7.0323299e-05
0.00090194948
6.8433997e-05
0.00089523432
6.6640809e-05
0.00088732842
6.4902548e-05
0.00087825336
6.3175326e-05
0.00086815938
6.1425122e-05
0.00085733475
5.9651961e-05
0.00084594244
5.7901734e-05
0.00083410338
5.6126684e-05
0.00082191594
5.4363536e-05
0.00080945844
5.2685294e-05
0.00079680868
5.1051529e-05
0.00078404544
4.9423344e-05
0.00077123785
4.7819711e-05
0.00075844188
4.6274163e-05
0.00074571032
4.4761619e-05
0.00073309062
4.3261005e-05
0.00072062058
4.1787551e-05
0.00070833046
4.0354282e-05
0.00069624921
3.8941867e-05
0.00068440399
3.7535672e-05
0.00067281778
3.6142199e-05
0.00066151169
3.4761519e-05
0.00065050944
3.3375579e-05
0.00063983707
3.1969384e-05
0.00062951515
3.0545887e-05
0.00061955981
2.9102294e-05
0.00060999041
2.7621044e-05
0.00060082996
2.6087563e-05
0.0005921034
2.4495576e-05
0.00058383839
2.2833479e-05
0.00057606533
2.1086136e-05
0.00056882048
1.9239005e-05
0.00056213738
1.7293731e-05
0.00055602262
1.5223049e-05
0.00055047303
1.3095902e-05
0.00054548539
1.0969214e-05
0.00054105152
8.8575097e-06
0.00053715852
6.809334e-06
0.00053378298
4.8698962e-06
0.00053088427
3.0944348e-06
0.00052839933
1.5653465e-06
0.00052626415
3.3925314e-07
0.00052438731
-5.6982057e-07
0.00052262241
-1.0520839e-06
0.00052083517
-9.8481725e-07
0.00051894835
-4.1150896e-07
0.00051692884
4.9813256e-07
0.00051476355
1.5914449e-06
0.00051245611
2.7160822e-06
0.0005100205
3.759773e-06
0.00050747572
4.6747552e-06
0.00050484582
5.4176182e-06
0.00050215598
5.9845758e-06
0.00049943067
6.3911195e-06
0.00049669334
6.6545815e-06
0.00049396393
6.8046256e-06
0.00049125888
6.8663492e-06
0.00048859118
6.8603621e-06
0.00048597019
6.8057802e-06
0.00048340264
6.7197117e-06
0.00048089433
6.6074925e-06
0.00047844846
6.4776554e-06
0.00047606469
6.345413e-06
0.00047374016
6.2157988e-06
0.00047147603
6.12197e-06
0.00046927069
6.0682849e-06
0.00046711364
6.0166422e-06
0.00046499478
5.9690087e-06
0.00046290761
5.9274267e-06
0.00046084669
5.8975727e-06
0.00045880605
5.886007e-06
0.00045678167
5.8826516e-06
0.00045476973
5.8892858e-06
0.0004527682
5.8977805e-06
0.00045077559
5.9074332e-06
0.00044879109
5.9162736e-06
0.0004468147
5.9209649e-06
0.00044484588
5.9252682e-06
0.00044288487
5.9250794e-06
0.0004409318
5.9232604e-06
0.00043898496
5.9240032e-06
0.00043704667
5.9177567e-06
0.00043510039
5.9602466e-06
0.00043318077
5.8961678e-06
0.00043119432
6.062082e-06
0.00042914266
6.7490807e-06
0.00042690585
5.8614065e-06
9.1501102e-06
0.00092302785
7.5204793e-05
-0.00091969757
0.00092854716
9.676754e-05
0.00093512035
0.00011141453
0.00094153985
0.00011736156
0.00094669024
0.00011510531
0.00094993484
0.00010695634
0.00095152374
9.6711738e-05
0.00095189892
8.7585452e-05
0.00095156045
8.0821565e-05
0.00095104934
7.6307464e-05
0.00095040218
7.3300538e-05
0.00094955299
7.1172485e-05
0.00094840268
6.9584313e-05
0.00094682457
6.8218919e-05
0.00094474191
6.69852e-05
0.00094201888
6.5898362e-05
0.00093851449
6.4929506e-05
0.00093418734
6.3979121e-05
0.00092904337
6.3045695e-05
0.00092306193
6.2108127e-05
0.0009162965
6.1128972e-05
0.00090887446
6.0107325e-05
0.00090087176
5.9054235e-05
0.00089234718
5.7947924e-05
0.00088335303
5.6813863e-05
0.0008739418
5.5685385e-05
0.00086417004
5.4533384e-05
0.00085409195
5.3339095e-05
0.0008437601
5.2119399e-05
0.00083322602
5.088836e-05
0.00082254223
4.9625659e-05
0.00081175979
4.8318117e-05
0.00080092497
4.6977011e-05
0.00079008068
4.5605817e-05
0.00077926973
4.418653e-05
0.00076853504
4.2704071e-05
0.00075791855
4.1162372e-05
0.00074746189
3.9558955e-05
0.0007372067
3.7876233e-05
0.00072719444
3.6099827e-05
0.00071746605
3.4223963e-05
0.00070806394
3.2235594e-05
0.00069903278
3.0117293e-05
0.00069042968
2.7842106e-05
0.00068226555
2.5457857e-05
0.00067451314
2.2975458e-05
0.00066719518
2.0413866e-05
0.00066034652
1.781787e-05
0.00065398368
1.5220357e-05
0.00064810668
1.2686334e-05
0.00064269776
1.0278808e-05
0.00063771809
8.0741079e-06
0.00063311716
6.1662744e-06
0.00062886699
4.5894272e-06
0.00062483824
3.4589307e-06
0.00062084053
2.9456199e-06
0.00061682197
3.0337456e-06
0.00061280686
3.6036069e-06
0.00060881229
4.492695e-06
0.00060484198
5.5617583e-06
0.00060089956
6.6584984e-06
0.00059698687
7.6724697e-06
0.00059310523
8.5563932e-06
0.00058925901
9.2638354e-06
0.00058545453
9.7890603e-06
0.00058169911
1.0146533e-05
0.00057800137
1.0352322e-05
0.00057436934
1.0436662e-05
0.00057081033
1.0425355e-05
0.00056733068
1.034001e-05
0.0005639355
1.020096e-05
0.00056062791
1.0027304e-05
0.00055740999
9.8254127e-06
0.0005542823
9.6053502e-06
0.00055124264
9.3850705e-06
0.000548287
9.1714399e-06
0.00054541361
8.9953615e-06
0.00054262102
8.8608748e-06
0.00053990232
8.7353377e-06
0.00053724749
8.6238359e-06
0.00053464838
8.5265396e-06
0.00053209807
8.4478846e-06
0.0005295895
8.3945766e-06
0.00052711743
8.3547216e-06
0.00052467685
8.3298633e-06
0.0005222644
8.3102332e-06
0.00051987726
8.2945677e-06
0.00051751335
8.2801883e-06
0.00051517139
8.2629228e-06
0.00051284996
8.2466979e-06
0.00051054828
8.2267609e-06
0.0005082654
8.2061363e-06
0.00050599851
8.1908964e-06
0.0005037493
8.1669716e-06
0.00050149966
8.2098839e-06
0.00049928397
8.11186e-06
0.00049700449
8.3415589e-06
0.00049469407
9.0595025e-06
0.00049206443
8.4910458e-06
1.1600381e-05
0.00095540513
7.2205278e-05
-0.00095240561
0.00096048984
9.1682827e-05
0.00096655979
0.00010534458
0.00097252998
0.00011139138
0.00097741351
0.00011022179
0.00098066125
0.0001037086
0.0009824146
9.4958388e-05
0.00098317525
8.6824805e-05
0.00098338638
8.0610432e-05
0.00098337231
7.6321534e-05
0.0009832839
7.3388949e-05
0.00098316966
7.1286729e-05
0.00098302569
6.9728281e-05
0.00098278799
6.845662e-05
0.0009824111
6.7362091e-05
0.00098185741
6.6452049e-05
0.00098107699
6.5709926e-05
0.00098000679
6.5049323e-05
0.00097859634
6.4456148e-05
0.00097675901
6.3945456e-05
0.00097440199
6.3485993e-05
0.00097148382
6.3025495e-05
0.00096798316
6.2554888e-05
0.00096386815
6.2062934e-05
0.00095915339
6.1528625e-05
0.0009538895
6.0949271e-05
0.00094810468
6.0318213e-05
0.00094182376
5.9620006e-05
0.00093506976
5.8873401e-05
0.00092786869
5.8089437e-05
0.00092025372
5.7240629e-05
0.00091226083
5.6310998e-05
0.00090392156
5.5316287e-05
0.00089526793
5.4259446e-05
0.0008863383
5.3116163e-05
0.00087717214
5.1870229e-05
0.00086781146
5.052305e-05
0.0008583034
4.9067017e-05
0.00084869751
4.7482117e-05
0.00083904445
4.5752894e-05
0.00082939567
4.3872735e-05
0.00081980483
4.1826437e-05
0.00081032909
3.9593038e-05
0.00080102822
3.7142968e-05
0.00079195482
3.4531259e-05
0.00078312813
3.1802154e-05
0.0007745654
2.8976593e-05
0.00076630093
2.6082336e-05
0.00075836411
2.3157183e-05
0.00075077461
2.0275838e-05
0.00074353674
1.7516677e-05
0.00073663575
1.4975095e-05
0.00073005707
1.2744951e-05
0.00072380754
1.0838958e-05
0.00071780572
9.4607488e-06
0.0007119126
8.8387415e-06
0.00070608903
8.8573159e-06
0.00070035514
9.3374972e-06
0.00069472182
1.0126021e-05
0.00068919506
1.1088511e-05
0.00068378468
1.206888e-05
0.00067849241
1.2964738e-05
0.00067331616
1.3732649e-05
0.00066825604
1.4323952e-05
0.00066331286
1.4732237e-05
0.00065848631
1.4973086e-05
0.00065377692
1.5061709e-05
0.00064918569
1.5027901e-05
0.00064471375
1.489729e-05
0.00064036223
1.4691528e-05
0.00063613265
1.4430544e-05
0.00063202511
1.4134838e-05
0.00062803862
1.3811909e-05
0.00062417128
1.3472684e-05
0.00062041905
1.3137307e-05
0.00061677687
1.2813618e-05
0.00061324043
1.2531799e-05
0.00060980663
1.2294674e-05
0.00060647068
1.207129e-05
0.00060322428
1.1870231e-05
0.00060005941
1.1691417e-05
0.00059696853
1.1538763e-05
0.00059394384
1.1419269e-05
0.00059097911
1.1319447e-05
0.00058806828
1.1240698e-05
0.00058520668
1.1171827e-05
0.00058239018
1.1111073e-05
0.00057961529
1.1055078e-05
0.00057687937
1.0998843e-05
0.00057417982
1.0946248e-05
0.00057151466
1.0891916e-05
0.00056888172
1.0839074e-05
0.00056627695
1.0795665e-05
0.00056370113
1.0742795e-05
0.00056113492
1.0776092e-05
0.00055861122
1.0635567e-05
0.00055603
1.0922776e-05
0.00055344912
1.1640377e-05
0.00055044202
1.1498149e-05
1.4209756e-05
0.00098880852
6.9475452e-05
-0.0009860787
0.00099348689
8.700446e-05
0.00099911802
9.9713445e-05
0.0010047004
0.00010580904
0.0010093583
0.00010556382
0.0010125833
0.00010048358
0.001014433
9.3108689e-05
0.0010153328
8.5925064e-05
0.0010157197
8.0223553e-05
0.0010158928
7.6148409e-05
0.0010159916
7.3290171e-05
0.0010160622
7.1216117e-05
0.001016132
6.9658459e-05
0.0010161867
6.8401912e-05
0.0010161984
6.7350442e-05
0.001016163
6.6487409e-05
0.0010160768
6.5796109e-05
0.0010159135
6.5212613e-05
0.0010156521
6.4717599e-05
0.0010152682
6.4329355e-05
0.0010147265
6.4027692e-05
0.001013986
6.3766011e-05
0.0010130065
6.3534344e-05
0.0010117269
6.3342528e-05
0.0010100843
6.3171188e-05
0.0010080413
6.2992272e-05
0.0010055661
6.2793411e-05
0.0010026279
6.2558211e-05
0.00099922628
6.2275066e-05
0.00099537497
6.1940742e-05
0.00099107629
6.1539316e-05
0.00098633179
6.1055495e-05
0.0009811462
6.0501879e-05
0.0009755284
5.9877239e-05
0.00096949041
5.9154154e-05
0.00096304635
5.8314293e-05
0.00095621171
5.7357686e-05
0.00094900305
5.627568e-05
0.00094143907
5.5046096e-05
0.00093354523
5.3646734e-05
0.00092535285
5.2065115e-05
0.00091689757
5.028172e-05
0.00090822183
4.8268779e-05
0.00089936364
4.600115e-05
0.00089040581
4.348909e-05
0.00088143973
4.0768232e-05
0.00087249921
3.7917116e-05
0.000863608
3.4973544e-05
0.00085479856
3.1966626e-05
0.00084611029
2.8964104e-05
0.00083758372
2.6043249e-05
0.00082925574
2.3303072e-05
0.00082115488
2.0845817e-05
0.00081328886
1.8704978e-05
0.00080570113
1.7048475e-05
0.00079837366
1.6166209e-05
0.00079122571
1.6005264e-05
0.00078422323
1.6339978e-05
0.00077733035
1.7018906e-05
0.0007705492
1.7869662e-05
0.00076389795
1.8720131e-05
0.00075738074
1.9481942e-05
0.00075100207
2.0111324e-05
0.00074477234
2.0553682e-05
0.000738698
2.0806577e-05
0.00073277953
2.0891556e-05
0.00072701809
2.0823147e-05
0.00072141475
2.0631238e-05
0.0007159689
2.0343138e-05
0.00071067924
1.9981191e-05
0.00070554535
1.9564431e-05
0.00070056613
1.9114062e-05
0.00069573941
1.8638633e-05
0.00069106181
1.8150281e-05
0.00068652779
1.7671323e-05
0.00068213147
1.7209942e-05
0.00067786713
1.6796134e-05
0.00067373012
1.6431688e-05
0.00066971606
1.6085347e-05
0.00066581806
1.5768237e-05
0.00066202889
1.5480581e-05
0.00065834112
1.5226539e-05
0.00065474652
1.501387e-05
0.00065123811
1.4827848e-05
0.00064780887
1.4669939e-05
0.00064445293
1.4527767e-05
0.0006411648
1.4399205e-05
0.00063793959
1.4280289e-05
0.00063477319
1.4165243e-05
0.00063166154
1.4057895e-05
0.00062860127
1.3952194e-05
0.00062558892
1.3851416e-05
0.00062261921
1.3765379e-05
0.00061969177
1.3670239e-05
0.00061678611
1.3681745e-05
0.00061393319
1.3488489e-05
0.00061103083
1.3825135e-05
0.00060815898
1.4512229e-05
0.00060476938
1.4887749e-05
1.7009096e-05
0.0010232751
6.6959658e-05
-0.0010207593
0.0010275727
8.2706906e-05
0.00103279
9.4496149e-05
0.0010380121
0.00010058689
0.0010424641
0.00010111183
0.0010456688
9.727893e-05
0.0010476193
9.1158142e-05
0.0010486552
8.4889196e-05
0.001049166
7.9712692e-05
0.001049436
7.5878413e-05
0.0010496141
7.3112127e-05
0.0010497611
7.1069047e-05
0.0010499022
6.9517383e-05
0.0010500286
6.8275563e-05
0.0010501322
6.7246768e-05
0.0010502156
6.6404072e-05
0.0010502887
6.5722947e-05
0.0010503426
6.5158739e-05
0.0010503598
6.4700407e-05
0.0010503424
6.4346762e-05
0.0010502874
6.4082673e-05
0.0010501783
6.3875158e-05
0.0010499996
6.3713066e-05
0.0010497326
6.3609469e-05
0.001049352
6.3551795e-05
0.0010488288
6.3515471e-05
0.001048131
6.3491259e-05
0.0010472129
6.3476239e-05
0.0010460297
6.3458327e-05
0.0010445503
6.3420127e-05
0.0010427405
6.3349074e-05
0.0010405701
6.3225959e-05
0.0010380319
6.3040093e-05
0.0010351224
6.278674e-05
0.0010318307
6.2445769e-05
0.0010281451
6.199994e-05
0.0010240542
6.1448619e-05
0.0010195506
6.0779267e-05
0.0010146304
5.9966225e-05
0.0010092897
5.8987509e-05
0.0010035234
5.7831352e-05
0.00099732778
5.6477374e-05
0.00099070206
5.4894493e-05
0.000983642
5.3061209e-05
0.00097615958
5.0971514e-05
0.0009683126
4.861521e-05
0.00096017051
4.6059202e-05
0.00095178025
4.3363813e-05
0.00094318249
4.0564378e-05
0.00093442359
3.7723007e-05
0.0009255595
3.4907338e-05
0.0009166573
3.2205271e-05
0.00090778002
2.9723098e-05
0.00089895381
2.7531188e-05
0.00089027881
2.5723472e-05
0.0008818943
2.4550721e-05
0.00087379634
2.4103224e-05
0.00086586006
2.4276259e-05
0.0008580022
2.4876766e-05
0.00085024468
2.5627181e-05
0.00084259378
2.6371036e-05
0.00083504334
2.7032377e-05
0.00082761197
2.7542697e-05
0.00082032408
2.7841567e-05
0.00081319034
2.7940326e-05
0.0008062165
2.7865391e-05
0.00079941333
2.7626319e-05
0.00079278775
2.7256813e-05
0.00078634091
2.6789982e-05
0.00078007364
2.624846e-05
0.00077398774
2.5650328e-05
0.00076808291
2.5018894e-05
0.00076235724
2.4364301e-05
0.00075680761
2.3699915e-05
0.00075142835
2.3050576e-05
0.0007462137
2.2424593e-05
0.00074115804
2.1851797e-05
0.00073625621
2.1333522e-05
0.00073150377
2.083778e-05
0.00072689467
2.037734e-05
0.00072242267
1.9952584e-05
0.00071808079
1.9568418e-05
0.00071386079
1.9233873e-05
0.00070975523
1.8933403e-05
0.00070575629
1.8668883e-05
0.00070185703
1.8427022e-05
0.00069805073
1.8205506e-05
0.00069433111
1.7999904e-05
0.00069069261
1.7803746e-05
0.00068712964
1.7620868e-05
0.0006836373
1.7444534e-05
0.00068021078
1.7277938e-05
0.00067684344
1.7132714e-05
0.00067353366
1.6980022e-05
0.00067025978
1.695563e-05
0.00066705066
1.6697609e-05
0.00066380151
1.707428e-05
0.00066061276
1.7700979e-05
0.00065682286
1.8677654e-05
2.0029077e-05
0.0010588342
6.4618202e-05
-0.0010564928
0.0010627806
7.876052e-05
0.0010676088
8.9667952e-05
0.0010724926
9.5703127e-05
0.0010767407
9.6863757e-05
0.0010799106
9.4108972e-05
0.001081949
8.9119719e-05
0.0010831194
8.3718868e-05
0.0010837597
7.9072335e-05
0.0010841303
7.5507849e-05
0.0010843791
7.2863291e-05
0.0010845756
7.0872552e-05
0.001084752
6.9341025e-05
0.0010849111
6.8116424e-05
0.0010850513
6.7106542e-05
0.0010851766
6.6278813e-05
0.0010852903
6.5609205e-05
0.0010853886
6.5060495e-05
0.0010854717
6.4617279e-05
0.0010855427
6.427572e-05
0.0010856068
6.4018657e-05
0.0010856593
6.3822598e-05
0.0010856858
6.3686583e-05
0.001085685
6.361031e-05
0.0010856561
6.35807e-05
0.0010855877
6.358386e-05
0.0010854689
6.3610037e-05
0.0010852847
6.366042e-05
0.0010850152
6.3727879e-05
0.001084639
6.3796305e-05
0.0010841298
6.3858288e-05
0.0010834523
6.3903398e-05
0.0010825728
6.3919648e-05
0.0010814655
6.3894041e-05
0.0010800971
6.3814156e-05
0.0010784404
6.3656659e-05
0.0010764829
6.340609e-05
0.0010742075
6.3054666e-05
0.0010715957
6.2577974e-05
0.001068627
6.1956225e-05
0.0010652784
6.1179968e-05
0.0010615254
6.0230364e-05
0.001057342
5.9077911e-05
0.0010526984
5.7704781e-05
0.001047559
5.6110981e-05
0.0010419004
5.4273752e-05
0.0010357321
5.2227563e-05
0.0010290727
5.0023208e-05
0.0010219391
4.7697934e-05
0.0010143553
4.5306829e-05
0.0010063566
4.2906e-05
0.00099799497
4.0566924e-05
0.0009893385
3.8379568e-05
0.00098044884
3.6420857e-05
0.00097141823
3.4754075e-05
0.00096244007
3.3528883e-05
0.00095365192
3.2891371e-05
0.00094505899
3.2869197e-05
0.00093663152
3.3304228e-05
0.00092831126
3.3947444e-05
0.00092002004
3.4662256e-05
0.00091174918
3.5303235e-05
0.00090355104
3.5740838e-05
0.00089544562
3.5946992e-05
0.00088743909
3.594686e-05
0.0008795554
3.5749073e-05
0.00087182151
3.5360218e-05
0.00086424935
3.4828965e-05
0.00085684578
3.4193552e-05
0.00084962163
3.3472614e-05
0.00084258555
3.2686405e-05
0.00083574026
3.1864186e-05
0.0008290872
3.1017366e-05
0.00082262689
3.0160224e-05
0.00081635618
2.9321281e-05
0.00081027172
2.850906e-05
0.0008043703
2.7753209e-05
0.00079864797
2.7055851e-05
0.00079310087
2.6384885e-05
0.00078772394
2.5754274e-05
0.00078251213
2.5164389e-05
0.00077745929
2.4621255e-05
0.00077255762
2.4135542e-05
0.00076779968
2.3691344e-05
0.00076317715
2.3291417e-05
0.00075868233
2.2921846e-05
0.00075430747
2.2580361e-05
0.00075004509
2.2262282e-05
0.00074588826
2.1960583e-05
0.00074182991
2.1679216e-05
0.00073786364
2.1410804e-05
0.00073398317
2.1158401e-05
0.00073018051
2.0935375e-05
0.00072645265
2.0707886e-05
0.00072277668
2.0631596e-05
0.00071917943
2.0294858e-05
0.00071555292
2.0700795e-05
0.00071201697
2.1236932e-05
0.00070779976
2.289486e-05
2.330082e-05
0.0010955198
6.2422912e-05
-0.0010933245
0.0010991473
7.5133034e-05
0.0011036123
8.5202903e-05
0.0011081782
9.113731e-05
0.0011122245
9.281739e-05
0.0011153442
9.0989281e-05
0.0011174509
8.7013059e-05
0.0011187418
8.2427975e-05
0.001119506
7.8308084e-05
0.0011199797
7.5034179e-05
0.0011203061
7.2536912e-05
0.0011205583
7.0620345e-05
0.0011207732
6.9126069e-05
0.0011209615
6.7928111e-05
0.0011211258
6.6942249e-05
0.0011212719
6.6132797e-05
0.0011214046
6.5476494e-05
0.001121524
6.494107e-05
0.001121632
6.4509265e-05
0.0011217322
6.4175559e-05
0.0011218256
6.3925237e-05
0.0011219097
6.3738473e-05
0.0011219848
6.3611521e-05
0.0011220525
6.3542605e-05
0.0011221124
6.3520775e-05
0.0011221676
6.3528618e-05
0.0011222075
6.3570195e-05
0.0011222224
6.3645522e-05
0.0011222153
6.3734994e-05
0.0011221781
6.3833441e-05
0.0011221026
6.3933795e-05
0.0011219768
6.4029262e-05
0.001121784
6.4112432e-05
0.001121508
6.4170017e-05
0.0011211262
6.4195916e-05
0.0011206103
6.4172575e-05
0.0011199343
6.4082144e-05
0.0011190742
6.3914743e-05
0.0011179989
6.3653219e-05
0.0011166829
6.3272285e-05
0.0011151087
6.2754192e-05
0.0011132497
6.2089296e-05
0.0011110754
6.1252228e-05
0.0011085515
6.0228707e-05
0.0011056389
5.9023551e-05
0.0011022893
5.7623363e-05
0.0010984603
5.6056594e-05
0.0010941185
5.436498e-05
0.0010892321
5.2584321e-05