/*--------------------------------*- C++ -*----------------------------------*\
| =========                 |                                                 |
| \\      /  F ield         | OpenFOAM: The Open Source CFD Toolbox           |
|  \\    /   O peration     | Version:  2206                                  |
|   \\  /    A nd           | Website:  www.openfoam.com                      |
|    \\/     M anipulation  |                                                 |
\*---------------------------------------------------------------------------*/
FoamFile
{
    version     2.0;
    format      ascii;
    arch        "LSB;label=32;scalar=64";
    class       volVectorField;
    location    "600";
    object      U;
}
// * * * * * * * * * * * * * * * * * * * * * * * * * * * * * * * * * * * * * //

dimensions      [0 1 -1 0 0 0 0];

internalField   nonuniform List<vector> 
7480
(
(0.82756048 0.011160248 0)
(0.70300108 0.020208419 0)
(0.56654884 0.021424051 0)
(0.43052889 0.014558155 0)
(0.33053853 0.0062883994 0)
(0.26655838 0.0019125528 0)
(0.23006233 0.0022270664 0)
(0.20851804 -0.00029118969 0)
(0.19445769 -0.00042998966 0)
(0.18412881 -0.00017530744 0)
(0.17530458 1.0146902e-06 0)
(0.16711576 5.4204487e-05 0)
(0.15954441 6.4881735e-05 0)
(0.15264488 6.7228356e-05 0)
(0.14635866 0.00014540215 0)
(0.14061143 8.6468373e-05 0)
(0.13538212 5.8603279e-05 0)
(0.13059836 4.7175157e-05 0)
(0.12617272 4.406097e-05 0)
(0.12205843 4.0361933e-05 0)
(0.11823445 3.7116647e-05 0)
(0.11466504 3.5209817e-05 0)
(0.11131353 3.2977499e-05 0)
(0.10816195 3.0281083e-05 0)
(0.10519766 2.7934773e-05 0)
(0.10240047 2.6200971e-05 0)
(0.099751124 2.4390946e-05 0)
(0.097240427 2.2433768e-05 0)
(0.094861765 2.0729401e-05 0)
(0.092604156 1.931544e-05 0)
(0.090457985 1.7873476e-05 0)
(0.08841908 1.6403794e-05 0)
(0.086483773 1.5097782e-05 0)
(0.084646167 1.3928027e-05 0)
(0.082901701 1.2761199e-05 0)
(0.081248749 1.1610737e-05 0)
(0.079685764 1.055317e-05 0)
(0.07821079 9.5424027e-06 0)
(0.076823705 8.5237005e-06 0)
(0.075526451 7.5150806e-06 0)
(0.074320977 6.5608889e-06 0)
(0.073208759 5.6434622e-06 0)
(0.07219327 4.7193141e-06 0)
(0.071277459 3.8581454e-06 0)
(0.070468345 1.75097e-05 0)
(0.069769966 -3.9792394e-06 0)
(0.069199083 -4.6485018e-06 0)
(0.068764433 -1.5137659e-06 0)
(0.068466886 -1.5301328e-06 0)
(0.068305259 -1.9891876e-06 0)
(0.068275933 -2.6227256e-06 0)
(0.068372531 -3.1075118e-06 0)
(0.06858427 -3.4495787e-06 0)
(0.068888987 -3.5301202e-06 0)
(0.069264989 -3.5960293e-06 0)
(0.069700475 -3.6740693e-06 0)
(0.070166173 -3.343033e-06 0)
(0.070615131 -2.7198422e-06 0)
(0.070997392 -2.6400676e-06 0)
(0.071283322 -7.2660465e-06 0)
(0.071460914 -2.35078e-06 0)
(0.071531896 -9.6691568e-07 0)
(0.071505561 -5.3219645e-07 0)
(0.071396862 -2.6668491e-07 0)
(0.071223631 -7.6581852e-08 0)
(0.07100182 5.5650319e-08 0)
(0.070745763 1.3001541e-07 0)
(0.070467076 1.7867496e-07 0)
(0.070174082 2.0643302e-07 0)
(0.069873035 2.1820898e-07 0)
(0.069568802 2.1858009e-07 0)
(0.069264248 2.1991939e-07 0)
(0.068961148 2.1627517e-07 0)
(0.068661524 2.0675487e-07 0)
(0.068365864 2.0663904e-07 0)
(0.068074513 1.9958505e-07 0)
(0.067787919 2.1230603e-07 0)
(0.067496603 2.4334991e-07 0)
(0.067200384 2.5059714e-07 0)
(0.066901941 2.5658351e-07 0)
(0.06660242 2.5564905e-07 0)
(0.066302463 2.5351495e-07 0)
(0.066000767 2.5982531e-07 0)
(0.065696723 2.5702682e-07 0)
(0.065390092 2.5983973e-07 0)
(0.065080616 2.5833525e-07 0)
(0.064768652 2.5721719e-07 0)
(0.064454157 2.5646218e-07 0)
(0.064137722 2.5229063e-07 0)
(0.063819444 2.5185997e-07 0)
(0.063499713 2.465972e-07 0)
(0.06317862 2.4591859e-07 0)
(0.06285683 2.4035452e-07 0)
(0.062532237 2.4709487e-07 0)
(0.062210821 2.237755e-07 0)
(0.061870383 2.915988e-07 0)
(0.061576202 1.028842e-06 0)
(0.061138555 1.1314189e-05 0)
(0.060898087 1.8924054e-05 0)
(0.060225906 1.0660441e-05 0)
(0.95865622 0.028032813 0)
(0.94941519 0.038590609 0)
(0.93028688 0.0418367 0)
(0.88511182 0.03931371 0)
(0.82440018 0.032447474 0)
(0.75680922 0.023983336 0)
(0.69435325 0.015507766 0)
(0.64137605 0.0094009614 0)
(0.59774802 0.0060294809 0)
(0.56169335 0.0043630949 0)
(0.5312037 0.0035598465 0)
(0.50474668 0.0030817475 0)
(0.48140714 0.0027033246 0)
(0.46056466 0.0023887126 0)
(0.44173284 0.0021298841 0)
(0.42458777 0.0018840724 0)
(0.40892396 0.0016610185 0)
(0.39453347 0.001483676 0)
(0.38122445 0.0013364538 0)
(0.36886133 0.0012050213 0)
(0.35734964 0.0010887034 0)
(0.34659318 0.00098967942 0)
(0.33650299 0.0009026233 0)
(0.32701623 0.00082368029 0)
(0.3180789 0.00075309407 0)
(0.30963919 0.00069126987 0)
(0.30164987 0.00063556354 0)
(0.29407813 0.00058408714 0)
(0.28689843 0.00053718548 0)
(0.28008268 0.00049499562 0)
(0.27360575 0.00045617262 0)
(0.26745123 0.00041988753 0)
(0.26160604 0.00038637444 0)
(0.25605576 0.0003555377 0)
(0.25078845 0.00032667947 0)
(0.24579753 0.00029942337 0)
(0.2410785 0.00027381386 0)
(0.23662775 0.00024958576 0)
(0.23244539 0.00022629341 0)
(0.22853623 0.00020374539 0)
(0.22490689 0.00018199789 0)
(0.22156448 0.00016091266 0)
(0.21852037 0.00014022243 0)
(0.21578674 0.00011986033 0)
(0.21337843 9.9085377e-05 0)
(0.21130499 5.2328555e-05 0)
(0.20965083 6.2804861e-05 0)
(0.20838116 3.8994946e-05 0)
(0.20751348 1.918362e-05 0)
(0.2070487 1.1479157e-06 0)
(0.20697005 -1.4804438e-05 0)
(0.20725435 -2.860746e-05 0)
(0.20786616 -3.9586066e-05 0)
(0.20874376 -4.7029295e-05 0)
(0.20982297 -5.1968376e-05 0)
(0.21105096 -5.4505016e-05 0)
(0.21233607 -5.2539128e-05 0)
(0.2135522 -4.6147515e-05 0)
(0.21457497 -3.6351968e-05 0)
(0.215319 -1.7283106e-05 0)
(0.21576384 -1.3674995e-05 0)
(0.21590847 -4.3077904e-06 0)
(0.21578409 3.2114159e-06 0)
(0.21542931 9.049558e-06 0)
(0.21489314 1.3200165e-05 0)
(0.21422021 1.5948314e-05 0)
(0.21344996 1.7539317e-05 0)
(0.21261447 1.8331281e-05 0)
(0.21173763 1.8563774e-05 0)
(0.21083736 1.8403279e-05 0)
(0.20992731 1.7985407e-05 0)
(0.209016 1.7446747e-05 0)
(0.20810908 1.6812202e-05 0)
(0.20721206 1.6115886e-05 0)
(0.20632687 1.545245e-05 0)
(0.20545444 1.478545e-05 0)
(0.20459459 1.4455302e-05 0)
(0.20371985 1.4439589e-05 0)
(0.20283149 1.4257489e-05 0)
(0.20193755 1.3965129e-05 0)
(0.20104087 1.3622162e-05 0)
(0.20014223 1.3293887e-05 0)
(0.19923856 1.303354e-05 0)
(0.19832817 1.2767744e-05 0)
(0.19741011 1.2531285e-05 0)
(0.19648388 1.2281743e-05 0)
(0.19555025 1.2029539e-05 0)
(0.19460944 1.1772609e-05 0)
(0.19366295 1.1496142e-05 0)
(0.19271134 1.1227796e-05 0)
(0.19175577 1.0940875e-05 0)
(0.19079666 1.0663488e-05 0)
(0.18983582 1.0387746e-05 0)
(0.1888688 1.0123039e-05 0)
(0.18790859 9.9164043e-06 0)
(0.18690718 9.6541996e-06 0)
(0.18600934 1.1195031e-05 0)
(0.1847746 3.9755178e-05 0)
(0.18403397 6.4388062e-05 0)
(0.18205729 2.8992214e-05 0)
(0.96800754 0.029708466 0)
(0.97309453 0.037720367 0)
(0.98238216 0.04154276 0)
(0.98424277 0.041014718 0)
(0.97937218 0.037119973 0)
(0.96360282 0.030610961 0)
(0.93924536 0.024149549 0)
(0.91009936 0.019117295 0)
(0.87833856 0.015501487 0)
(0.84614088 0.012898143 0)
(0.81514168 0.010958065 0)
(0.78574 0.0094050091 0)
(0.75800469 0.0081188817 0)
(0.73185356 0.007081224 0)
(0.70718334 0.0062346978 0)
(0.68393825 0.0055142461 0)
(0.66208125 0.0048993321 0)
(0.64151951 0.0043849769 0)
(0.62214132 0.0039453018 0)
(0.60385845 0.0035578752 0)
(0.58659954 0.0032166859 0)
(0.57028182 0.0029216843 0)
(0.5548249 0.002662484 0)
(0.54016606 0.0024300523 0)
(0.52625315 0.0022223002 0)
(0.51303013 0.0020386451 0)
(0.50044461 0.0018736751 0)
(0.48845701 0.0017229373 0)
(0.47703454 0.0015856888 0)
(0.46614348 0.0014613832 0)
(0.45575406 0.0013473102 0)
(0.44584512 0.0012414431 0)
(0.43639946 0.0011435426 0)
(0.42740002 0.0010530887 0)
(0.41883324 0.00096861727 0)
(0.41069158 0.00088909513 0)
(0.40297108 0.00081422769 0)
(0.39567004 0.00074330657 0)
(0.3887913 0.00067530928 0)
(0.38234336 0.00060963728 0)
(0.37633796 0.00054617817 0)
(0.370789 0.00048454985 0)
(0.36571587 0.00042416113 0)
(0.36113936 0.00036479758 0)
(0.35708806 0.00030666989 0)
(0.35358264 0.00020167261 0)
(0.35070094 0.0001848169 0)
(0.34842477 0.0001276084 0)
(0.34676081 7.3743895e-05 0)
(0.34570064 2.3870059e-05 0)
(0.34521538 -2.0848926e-05 0)
(0.34526115 -5.949426e-05 0)
(0.34578108 -9.0599957e-05 0)
(0.34668502 -0.00011257841 0)
(0.34788028 -0.00012704193 0)
(0.34927598 -0.00013389278 0)
(0.35073048 -0.00012963096 0)
(0.35207071 -0.0001128807 0)
(0.35313564 -8.6400458e-05 0)
(0.35382497 -5.8464212e-05 0)
(0.35411056 -3.0256585e-05 0)
(0.35399798 -5.2895372e-06 0)
(0.35352488 1.5902834e-05 0)
(0.35274662 3.2057378e-05 0)
(0.35172812 4.3570725e-05 0)
(0.3505287 5.1211341e-05 0)
(0.34920079 5.5683509e-05 0)
(0.34778749 5.7871879e-05 0)
(0.34632184 5.84382e-05 0)
(0.34482877 5.7863384e-05 0)
(0.3433272 5.6536845e-05 0)
(0.34182922 5.4814256e-05 0)
(0.34034329 5.2804633e-05 0)
(0.33887704 5.062002e-05 0)
(0.33743351 4.8483965e-05 0)
(0.33601381 4.6373842e-05 0)
(0.33461627 4.5158377e-05 0)
(0.33320087 4.4752795e-05 0)
(0.33177498 4.3969721e-05 0)
(0.33034828 4.2910615e-05 0)
(0.32892229 4.1766412e-05 0)
(0.32749642 4.0690671e-05 0)
(0.32606636 3.9787857e-05 0)
(0.32462924 3.8916318e-05 0)
(0.32318319 3.8121923e-05 0)
(0.3217273 3.7315061e-05 0)
(0.32026218 3.6505739e-05 0)
(0.3187881 3.5684986e-05 0)
(0.31730685 3.4824031e-05 0)
(0.31581929 3.3973896e-05 0)
(0.31432687 3.3088897e-05 0)
(0.31283028 3.2216824e-05 0)
(0.31133193 3.1363544e-05 0)
(0.30982642 3.0508903e-05 0)
(0.30832952 2.9894817e-05 0)
(0.30678195 2.8837198e-05 0)
(0.30536042 3.1240195e-05 0)
(0.30351823 7.2421349e-05 0)
(0.30231609 0.00011207549 0)
(0.29932046 1.6807487e-05 0)
(0.97004656 0.027084469 0)
(0.97639551 0.034266724 0)
(0.98545352 0.038380427 0)
(0.99341998 0.039214142 0)
(1.0016242 0.036177905 0)
(1.0025123 0.031202613 0)
(0.99955497 0.026293334 0)
(0.9933154 0.022247483 0)
(0.98418597 0.019368885 0)
(0.97249532 0.017346874 0)
(0.95867145 0.015776445 0)
(0.94311203 0.014349911 0)
(0.92569333 0.013014628 0)
(0.90734966 0.011780248 0)
(0.88853487 0.010669609 0)
(0.86953445 0.0096640821 0)
(0.85055006 0.0087604639 0)
(0.83170585 0.0079708529 0)
(0.81309223 0.0072749422 0)
(0.79480154 0.0066465576 0)
(0.7769139 0.0060786165 0)
(0.75947441 0.005572674 0)
(0.74250717 0.0051174963 0)
(0.72603245 0.0047027356 0)
(0.71006853 0.0043263421 0)
(0.69461738 0.0039878963 0)
(0.67967333 0.0036805694 0)
(0.66523337 0.0033982675 0)
(0.65129366 0.0031395622 0)
(0.6378444 0.0029032754 0)
(0.6248756 0.0026853238 0)
(0.61238179 0.0024825112 0)
(0.60035861 0.0022940601 0)
(0.58880053 0.002118885 0)
(0.57770448 0.0019546363 0)
(0.56707286 0.0017995277 0)
(0.55691156 0.001652913 0)
(0.5472265 0.0015136398 0)
(0.53802646 0.0013800173 0)
(0.52932511 0.0012509536 0)
(0.52113951 0.0011260794 0)
(0.5134894 0.0010046854 0)
(0.50639991 0.00088580789 0)
(0.499897 0.00076907634 0)
(0.49401881 0.00065754809 0)
(0.48878928 0.00048694955 0)
(0.48425927 0.00041728935 0)
(0.48041457 0.00031354326 0)
(0.47724572 0.00020963718 0)
(0.47473615 0.00011526571 0)
(0.47285414 3.11247e-05 0)
(0.4715536 -4.1492663e-05 0)
(0.47076835 -0.00010008513 0)
(0.47040234 -0.00014241964 0)
(0.47036841 -0.0001711993 0)
(0.47055751 -0.00018582284 0)
(0.47080359 -0.00017843416 0)
(0.47093656 -0.00015046987 0)
(0.47082238 -0.0001035586 0)
(0.4703866 -6.1722248e-05 0)
(0.46961342 -1.4929849e-05 0)
(0.46850876 2.6023329e-05 0)
(0.46711021 6.007121e-05 0)
(0.46546471 8.5961133e-05 0)
(0.46362583 0.0001041884 0)
(0.46164336 0.00011595554 0)
(0.45956257 0.00012242279 0)
(0.4574219 0.00012500608 0)
(0.45525176 0.00012480928 0)
(0.45307564 0.00012266095 0)
(0.45091148 0.00011924212 0)
(0.44877076 0.00011513647 0)
(0.44666236 0.00011054652 0)
(0.44459379 0.00010569204 0)
(0.44256786 0.00010094238 0)
(0.44058507 9.6341473e-05 0)
(0.43864124 9.2911312e-05 0)
(0.4367278 9.0691181e-05 0)
(0.43483773 8.8319062e-05 0)
(0.43296664 8.5768666e-05 0)
(0.43111037 8.3213465e-05 0)
(0.42926603 8.0846419e-05 0)
(0.42742816 7.8807672e-05 0)
(0.42559257 7.6887452e-05 0)
(0.42375622 7.51282e-05 0)
(0.42191717 7.3387059e-05 0)
(0.42007514 7.1665344e-05 0)
(0.41822973 6.9941469e-05 0)
(0.41638211 6.81703e-05 0)
(0.41453276 6.6422824e-05 0)
(0.41268261 6.4636677e-05 0)
(0.41083211 6.2871257e-05 0)
(0.40898348 6.1159654e-05 0)
(0.40713068 5.9425392e-05 0)
(0.40529003 5.8203612e-05 0)
(0.40339844 5.5988712e-05 0)
(0.40163814 5.9180753e-05 0)
(0.39945339 0.0001073901 0)
(0.3979201 0.00015718238 0)
(0.39438434 0.00011462422 0)
(0.9724032 0.025563845 0)
(0.97776106 0.032401307 0)
(0.98585084 0.036409221 0)
(0.99415888 0.037070899 0)
(1.0012397 0.03467033 0)
(1.0055931 0.030637637 0)
(1.0079328 0.026373784 0)
(1.0070835 0.022757655 0)
(1.0052749 0.020142219 0)
(1.0027668 0.018353924 0)
(0.99956041 0.017017538 0)
(0.99555576 0.015923955 0)
(0.99026359 0.014971774 0)
(0.9835933 0.014079016 0)
(0.97555971 0.013226296 0)
(0.96628661 0.0123737 0)
(0.95567339 0.011537603 0)
(0.94417167 0.010747123 0)
(0.93197802 0.010009889 0)
(0.9192351 0.0093175233 0)
(0.90605906 0.0086712795 0)
(0.89255278 0.0080774492 0)
(0.87879347 0.0075277077 0)
(0.8648672 0.0070122922 0)
(0.85085828 0.0065307079 0)
(0.83683483 0.0060851895 0)
(0.82285499 0.0056702882 0)
(0.80897343 0.0052809933 0)
(0.79523755 0.004917408 0)
(0.78168383 0.0045795256 0)
(0.76834355 0.0042633817 0)
(0.75524742 0.0039657567 0)
(0.74242319 0.0036861038 0)
(0.72989429 0.0034232564 0)
(0.71768413 0.0031742948 0)
(0.70582056 0.0029369401 0)
(0.69433225 0.0027108585 0)
(0.68323612 0.0024951109 0)
(0.67255068 0.0022875324 0)
(0.66229949 0.0020864844 0)
(0.65250909 0.0018912697 0)
(0.64320792 0.0017008443 0)
(0.63442858 0.0015139459 0)
(0.62620324 0.0013297248 0)
(0.61858336 0.001146902 0)
(0.61158651 0.00096987464 0)
(0.60520997 0.00079247235 0)
(0.59945129 0.00062193671 0)
(0.59430347 0.0004662033 0)
(0.58975694 0.00032287653 0)
(0.58579247 0.00019450061 0)
(0.58237807 8.3315431e-05 0)
(0.57945623 -7.162211e-06 0)
(0.57694429 -7.4550011e-05 0)
(0.57478983 -0.0001207805 0)
(0.57284283 -0.00014200725 0)
(0.57092537 -0.00013427839 0)
(0.56892856 -9.976383e-05 0)
(0.56679632 -3.9658247e-05 0)
(0.56450259 8.0574056e-06 0)
(0.56205259 6.4830933e-05 0)
(0.55945136 0.00011388514 0)
(0.55671982 0.00015401362 0)
(0.55388108 0.00018386811 0)
(0.55096323 0.00020410013 0)
(0.5479936 0.00021617357 0)
(0.5449988 0.00022151036 0)
(0.54200286 0.00022187476 0)
(0.53902567 0.00021866947 0)
(0.53608328 0.00021297531 0)
(0.53318806 0.00020570078 0)
(0.53034779 0.00019759093 0)
(0.52756975 0.00018891376 0)
(0.52485934 0.00017999733 0)
(0.5222176 0.00017134436 0)
(0.51964356 0.00016307619 0)
(0.51713128 0.00015635275 0)
(0.51468903 0.00015114117 0)
(0.51230571 0.00014597196 0)
(0.50996878 0.00014092634 0)
(0.50766918 0.00013612217 0)
(0.50540142 0.0001317209 0)
(0.50315882 0.00012786641 0)
(0.50093589 0.00012428131 0)
(0.49872835 0.00012099492 0)
(0.49653291 0.00011780971 0)
(0.494348 0.00011471112 0)
(0.49217204 0.00011165931 0)
(0.49000503 0.00010858965 0)
(0.48784652 0.00010558601 0)
(0.48569646 0.00010256887 0)
(0.48355461 9.9601452e-05 0)
(0.48142242 9.6749662e-05 0)
(0.47929317 9.3864657e-05 0)
(0.47718253 9.1815041e-05 0)
(0.47502682 8.8184848e-05 0)
(0.4730027 9.1976881e-05 0)
(0.47058102 0.00014301207 0)
(0.46878546 0.0001974821 0)
(0.46489906 0.00015564173 0)
(0.97459191 0.024511956 0)
(0.97928353 0.030794948 0)
(0.98635614 0.034469801 0)
(0.99376905 0.035114168 0)
(1.0001655 0.033235163 0)
(1.0047925 0.029797234 0)
(1.0072865 0.025983564 0)
(1.0082728 0.022699795 0)
(1.0079489 0.020248688 0)
(1.0073963 0.018529576 0)
(1.0067667 0.01726343 0)
(1.0060101 0.016264759 0)
(1.0049794 0.015424505 0)
(1.0035604 0.014654608 0)
(1.0016392 0.013930438 0)
(0.99915038 0.013260226 0)
(0.99585767 0.012639517 0)
(0.99170764 0.01204563 0)
(0.98668536 0.011471037 0)
(0.98080501 0.01089915 0)
(0.97400039 0.01033112 0)
(0.96646134 0.0097846007 0)
(0.95827501 0.0092598105 0)
(0.94950614 0.0087545733 0)
(0.94021197 0.0082711553 0)
(0.93044871 0.0078126515 0)
(0.92027564 0.007374811 0)
(0.90974917 0.0069537191 0)
(0.89892638 0.0065506464 0)
(0.88786342 0.0061668193 0)
(0.87661472 0.005799212 0)
(0.86523522 0.0054456997 0)
(0.85377739 0.005107137 0)
(0.8422879 0.0047833547 0)
(0.83081132 0.004471877 0)
(0.819393 0.0041707448 0)
(0.808078 0.0038797113 0)
(0.79691094 0.003598138 0)
(0.78593548 0.0033243771 0)
(0.77519561 0.0030570633 0)
(0.76473492 0.0027956596 0)
(0.75459697 0.0025390472 0)
(0.74482837 0.0022858827 0)
(0.73547552 0.0020343676 0)
(0.72661732 0.0017881302 0)
(0.71819156 0.0015469702 0)
(0.71020529 0.0013128398 0)
(0.70270177 0.0010878905 0)
(0.69570852 0.00087581311 0)
(0.68923436 0.00068076313 0)
(0.68326992 0.00050555069 0)
(0.67778674 0.0003533341 0)
(0.67273042 0.00022811249 0)
(0.6680469 0.00013052457 0)
(0.66373596 6.4814631e-05 0)
(0.65951873 3.5166894e-05 0)
(0.65526666 3.930249e-05 0)
(0.65100694 7.1035489e-05 0)
(0.64676536 0.00013017919 0)
(0.64254439 0.00017366093 0)
(0.63835519 0.00022757282 0)
(0.63419583 0.00027381649 0)
(0.63006898 0.00031073396 0)
(0.62597631 0.00033684875 0)
(0.62192418 0.00035278965 0)
(0.61791989 0.00036004422 0)
(0.61397205 0.00036006885 0)
(0.6100897 0.0003547555 0)
(0.60628113 0.00034562002 0)
(0.60255356 0.00033385097 0)
(0.59891317 0.00032046446 0)
(0.59536437 0.00030632942 0)
(0.59190963 0.00029176075 0)
(0.58855085 0.00027714091 0)
(0.58528687 0.00026307238 0)
(0.58211492 0.00024973968 0)
(0.57902866 0.00023815122 0)
(0.57603051 0.00022830029 0)
(0.5731157 0.00021897802 0)
(0.57027373 0.00021027393 0)
(0.56749426 0.00020218135 0)
(0.5647701 0.00019479913 0)
(0.56209357 0.00018825684 0)
(0.55945816 0.00018220798 0)
(0.55685846 0.00017666161 0)
(0.55428995 0.00017136476 0)
(0.55174964 0.00016628107 0)
(0.54923469 0.00016134743 0)
(0.54674368 0.00015647553 0)
(0.54427496 0.00015175119 0)
(0.54182771 0.00014707803 0)
(0.53940046 0.00014252125 0)
(0.53699344 0.00013817949 0)
(0.53459913 0.00013381596 0)
(0.53223192 0.0001306602 0)
(0.52982914 0.00012533265 0)
(0.52755735 0.00012932112 0)
(0.52492085 0.00018039083 0)
(0.52289148 0.00023683623 0)
(0.51869655 0.00019417247 0)
(0.97656388 0.023526257 0)
(0.98072377 0.029153084 0)
(0.98698151 0.032518268 0)
(0.99359941 0.033276852 0)
(0.99940906 0.031816393 0)
(1.0037233 0.028882395 0)
(1.0062711 0.025505835 0)
(1.007426 0.022522906 0)
(1.0077425 0.020237006 0)
(1.0077214 0.018571997 0)
(1.0076238 0.017318842 0)
(1.0075198 0.016318637 0)
(1.0073999 0.015484713 0)
(1.0072193 0.014745026 0)
(1.0069162 0.014071671 0)
(1.006451 0.013463727 0)
(1.0057779 0.012910201 0)
(1.0048419 0.012387339 0)
(1.0035833 0.011890399 0)
(1.0019485 0.011423844 0)
(0.99980744 0.010983336 0)
(0.99710656 0.010556139 0)
(0.99382076 0.010137219 0)
(0.98992507 0.0097188525 0)
(0.98537559 0.0093028064 0)
(0.98025186 0.0088971888 0)
(0.97458133 0.008500481 0)
(0.96838936 0.0081111837 0)
(0.96170041 0.0077318452 0)
(0.95453965 0.007363839 0)
(0.94693671 0.007003989 0)
(0.93892764 0.0066502914 0)
(0.93054965 0.0063046446 0)
(0.92183154 0.0059675166 0)
(0.91281064 0.0056364382 0)
(0.90352722 0.0053098971 0)
(0.89402144 0.0049887943 0)
(0.88434046 0.0046731776 0)
(0.87453384 0.0043613959 0)
(0.86465291 0.0040523215 0)
(0.85475 0.0037459152 0)
(0.8448788 0.0034414688 0)
(0.8350958 0.0031379485 0)
(0.8254606 0.0028338116 0)
(0.81603875 0.0025315303 0)
(0.80686877 0.0022359795 0)
(0.79795332 0.0019519399 0)
(0.78932562 0.0016798185 0)
(0.78102073 0.0014209034 0)
(0.77306531 0.0011798424 0)
(0.76547244 0.00096073933 0)
(0.7582376 0.00076819085 0)
(0.75133463 0.00060666034 0)
(0.74475904 0.0004753785 0)
(0.73853283 0.00038080062 0)
(0.7324634 0.00033302806 0)
(0.72645452 0.00032683352 0)
(0.72052936 0.00034851424 0)
(0.71470607 0.00039590749 0)
(0.70898333 0.0004291608 0)
(0.70337947 0.00047125934 0)
(0.69789698 0.00050619733 0)
(0.69253509 0.00053228313 0)
(0.68729111 0.00054795073 0)
(0.68216688 0.00055375449 0)
(0.67716246 0.00055118492 0)
(0.67227746 0.00054164433 0)
(0.66751285 0.00052701322 0)
(0.66287001 0.00050880048 0)
(0.65834991 0.0004882153 0)
(0.65395389 0.00046629224 0)
(0.64968354 0.0004439282 0)
(0.64553774 0.00042145476 0)
(0.6415155 0.00039930466 0)
(0.63761358 0.00037814882 0)
(0.63382755 0.0003581943 0)
(0.63015098 0.00034035478 0)
(0.62658124 0.00032458969 0)
(0.62311532 0.00030980744 0)
(0.61974585 0.00029615842 0)
(0.61646355 0.00028356921 0)
(0.61326095 0.00027208398 0)
(0.61012993 0.00026181103 0)
(0.60706325 0.00025233456 0)
(0.60405468 0.00024363922 0)
(0.60109861 0.0002354167 0)
(0.59819079 0.00022760457 0)
(0.59532704 0.00022011189 0)
(0.59250458 0.00021282222 0)
(0.58972045 0.00020581635 0)
(0.58697275 0.00019897626 0)
(0.58425878 0.00019236332 0)
(0.58157744 0.00018610894 0)
(0.57892038 0.00017987809 0)
(0.57630041 0.00017527144 0)
(0.57365641 0.00016793227 0)
(0.57114395 0.00017169643 0)
(0.56829776 0.00022109186 0)
(0.56605183 0.0002788924 0)
(0.56156592 0.00023599632 0)
(0.97836337 0.022613106 0)
(0.98206489 0.027632325 0)
(0.98761038 0.030751517 0)
(0.99355095 0.031604879 0)
(0.99885857 0.03047736 0)
(1.0028959 0.02799501 0)
(1.0054209 0.025029019 0)
(1.0066679 0.022315708 0)
(1.0071506 0.020161944 0)
(1.0073201 0.01854357 0)
(1.0074121 0.017305974 0)
(1.0074925 0.016311679 0)
(1.0075578 0.015479032 0)
(1.0076281 0.014744879 0)
(1.0076685 0.01408248 0)
(1.0076553 0.013486072 0)
(1.0075979 0.012946562 0)
(1.0074795 0.012446538 0)
(1.0072747 0.0119807 0)
(1.0069612 0.011550542 0)
(1.0065097 0.011149116 0)
(1.0058822 0.010764676 0)
(1.0050398 0.010394851 0)
(1.0039371 0.010042233 0)
(1.0024954 0.0097040453 0)
(1.0006724 0.0093738088 0)
(0.99843925 0.0090470613 0)
(0.99575756 0.0087195782 0)
(0.99260361 0.0083933904 0)
(0.98900394 0.0080716399 0)
(0.98496031 0.0077525815 0)
(0.98047247 0.0074348367 0)
(0.97554334 0.0071198122 0)
(0.97018161 0.0068081333 0)
(0.96439644 0.0064976235 0)
(0.95820103 0.0061866834 0)
(0.95160994 0.0058759641 0)
(0.94464077 0.0055653622 0)
(0.93730861 0.0052533442 0)
(0.92963475 0.0049387533 0)
(0.92164846 0.0046216022 0)
(0.91338324 0.0043012961 0)
(0.90487642 0.0039767274 0)
(0.89617439 0.0036464852 0)
(0.88730686 0.003314616 0)
(0.87840803 0.0029864402 0)
(0.86952647 0.0026662902 0)
(0.86067878 0.0023567797 0)
(0.85189421 0.00205989 0)
(0.84320969 0.0017803928 0)
(0.83466607 0.001522994 0)
(0.82630273 0.0012932127 0)
(0.81815343 0.0010965144 0)
(0.81024028 0.00093214544 0)
(0.80255715 0.00080718114 0)
(0.79519887 0.00073722422 0)
(0.78802724 0.00071328529 0)
(0.7810258 0.00071685453 0)
(0.77414212 0.00074497919 0)
(0.76735505 0.00076327015 0)
(0.76069425 0.00078802785 0)
(0.75416588 0.00080636866 0)
(0.74777126 0.00081663066 0)
(0.74151851 0.00081699106 0)
(0.73541905 0.00080805862 0)
(0.72947441 0.0007915025 0)
(0.72368429 0.00076862641 0)
(0.71805078 0.00074124431 0)
(0.71257422 0.00071087149 0)
(0.70725301 0.00067870193 0)
(0.70208619 0.00064570543 0)
(0.69707375 0.0006127882 0)
(0.69221373 0.00058030435 0)
(0.68750376 0.00054869628 0)
(0.68293916 0.00051867661 0)
(0.67851421 0.00049043988 0)
(0.67422247 0.00046485267 0)
(0.67005886 0.00044180935 0)
(0.6660199 0.00042020992 0)
(0.66209991 0.00040026697 0)
(0.6582912 0.00038187907 0)
(0.65458688 0.00036505689 0)
(0.65097888 0.00034989373 0)
(0.64745959 0.0003359083 0)
(0.64402212 0.00032306023 0)
(0.64065994 0.00031098704 0)
(0.63736766 0.00029959781 0)
(0.63413987 0.00028877026 0)
(0.63097241 0.00027835584 0)
(0.62786101 0.00026842191 0)
(0.62480232 0.00025882562 0)
(0.62179247 0.00024962207 0)
(0.61882912 0.00024097053 0)
(0.61590305 0.00023243006 0)
(0.61302536 0.00022597244 0)
(0.61013648 0.00021627075 0)
(0.60738165 0.00021942397 0)
(0.60432029 0.00026618242 0)
(0.60186347 0.00032572245 0)
(0.59708554 0.00028103226 0)
(0.9800074 0.021775975 0)
(0.98331765 0.026247428 0)
(0.98822903 0.029131568 0)
(0.99355542 0.03004081 0)
(0.99840373 0.029192994 0)
(1.0021969 0.02711369 0)
(1.0046908 0.024524634 0)
(1.0060369 0.0220661 0)
(1.0066476 0.020047584 0)
(1.0069221 0.018486823 0)
(1.0070921 0.017270202 0)
(1.0072389 0.016283012 0)
(1.0073764 0.015451897 0)
(1.0075073 0.014722252 0)
(1.0076193 0.014066722 0)
(1.0077098 0.013475114 0)
(1.0077791 0.012938614 0)
(1.0078471 0.012443392 0)
(1.0078833 0.011985317 0)
(1.0078809 0.011563591 0)
(1.0078483 0.011171842 0)
(1.0077732 0.010802161 0)
(1.0076393 0.010451742 0)
(1.0074298 0.010121375 0)
(1.0071245 0.0098074289 0)
(1.0066966 0.0095043569 0)
(1.0061195 0.009210627 0)
(1.0053549 0.0089264597 0)
(1.0043528 0.0086498926 0)
(1.0030795 0.0083776097 0)
(1.0015106 0.0081058427 0)
(0.99960155 0.0078317336 0)
(0.99733856 0.0075573913 0)
(0.99472493 0.0072839195 0)
(0.99175035 0.0070093448 0)
(0.98840239 0.006732246 0)
(0.98467058 0.0064529269 0)
(0.98054539 0.0061707818 0)
(0.97602205 0.0058840761 0)
(0.97109703 0.0055918502 0)
(0.96576591 0.0052940479 0)
(0.96002458 0.0049898333 0)
(0.95386963 0.0046776453 0)
(0.94730279 0.0043568296 0)
(0.94031444 0.0040298219 0)
(0.9329365 0.0036978171 0)
(0.92525139 0.0033669543 0)
(0.91730804 0.0030431176 0)
(0.90914603 0.0027296713 0)
(0.90080553 0.0024311257 0)
(0.89233499 0.002152014 0)
(0.88379334 0.0018978628 0)
(0.87525077 0.0016739709 0)
(0.86675761 0.0014812357 0)
(0.85831268 0.0013264233 0)
(0.85011402 0.0012216667 0)
(0.84222611 0.0011651029 0)
(0.83457756 0.0011462635 0)
(0.82699613 0.0011547598 0)
(0.81949655 0.0011573493 0)
(0.81210916 0.0011639226 0)
(0.80481423 0.0011646832 0)
(0.79762041 0.0011572844 0)
(0.7905552 0.0011399226 0)
(0.78363658 0.001113717 0)
(0.77686713 0.0010805821 0)
(0.77025577 0.0010416344 0)
(0.76381367 0.0009987496 0)
(0.75754319 0.0009536246 0)
(0.7514441 0.000907415 0)
(0.74551828 0.00086099094 0)
(0.73976711 0.00081529592 0)
(0.73418886 0.0007707093 0)
(0.72878156 0.00072767426 0)
(0.72354081 0.00068694224 0)
(0.71846077 0.0006486778 0)
(0.71353571 0.00061370653 0)
(0.70876037 0.00058185826 0)
(0.70413078 0.00055197876 0)
(0.69964194 0.00052431423 0)
(0.69528754 0.00049873923 0)
(0.69106164 0.00047524879 0)
(0.68695661 0.00045393343 0)
(0.68296485 0.00043425321 0)
(0.67907904 0.00041614573 0)
(0.67529198 0.00039919644 0)
(0.67159729 0.00038328472 0)
(0.66798851 0.00036825468 0)
(0.6644602 0.00035392227 0)
(0.66100683 0.00034033737 0)
(0.65762362 0.0003273273 0)
(0.65430547 0.00031493353 0)
(0.65104881 0.00030333881 0)
(0.64784353 0.00029199133 0)
(0.64469898 0.00028322972 0)
(0.64155696 0.0002707699 0)
(0.63855358 0.00027292811 0)
(0.63526724 0.00031647743 0)
(0.63259821 0.00037863424 0)
(0.62751809 0.00032982532 0)
(0.98150916 0.021000826 0)
(0.98448256 0.024976131 0)
(0.98883337 0.027627017 0)
(0.99360244 0.028569388 0)
(0.99802475 0.027962119 0)
(1.0015806 0.026237731 0)
(1.004027 0.023991408 0)
(1.0054537 0.02177849 0)
(1.0061862 0.01990164 0)
(1.0065663 0.018408889 0)
(1.0068092 0.017220765 0)
(1.0070027 0.016244597 0)
(1.0071729 0.015416993 0)
(1.007328 0.01469106 0)
(1.0074676 0.014039885 0)
(1.0075908 0.01345193 0)
(1.0077004 0.012918101 0)
(1.0077995 0.012427014 0)
(1.0078832 0.011973513 0)
(1.007955 0.011554584 0)
(1.008014 0.011164988 0)
(1.0080725 0.01079814 0)
(1.0081124 0.010452533 0)
(1.0081217 0.01012807 0)
(1.0081097 0.0098208665 0)
(1.0080667 0.0095276006 0)
(1.0079833 0.0092465545 0)
(1.0078456 0.0089765113 0)
(1.007639 0.0087156098 0)
(1.0073434 0.0084611848 0)
(1.0069399 0.0082123396 0)
(1.0063958 0.0079683163 0)
(1.005678 0.0077273849 0)
(1.0047593 0.0074876693 0)
(1.0036192 0.00724611 0)
(1.0022141 0.0070005903 0)
(1.0005376 0.0067521549 0)
(0.99857443 0.0065008322 0)
(0.99630781 0.0062452301 0)
(0.9937193 0.0059839262 0)
(0.99078892 0.005716505 0)
(0.98749491 0.0054422174 0)
(0.98381358 0.0051593719 0)
(0.97971957 0.0048674399 0)
(0.97518345 0.0045674593 0)
(0.97016716 0.0042594595 0)
(0.96466842 0.0039486369 0)
(0.9587058 0.0036398979 0)
(0.95229436 0.0033367538 0)
(0.94545182 0.0030438005 0)
(0.93820458 0.0027653116 0)
(0.93059202 0.0025062023 0)
(0.92267161 0.002271881 0)
(0.91451262 0.0020658532 0)
(0.90615933 0.0018919205 0)
(0.89774151 0.0017602355 0)
(0.88948816 0.001673537 0)
(0.881425 0.0016232726 0)
(0.87353162 0.0016047039 0)
(0.86577471 0.0015902426 0)
(0.85808023 0.0015820108 0)
(0.85037585 0.0015679604 0)
(0.84272097 0.0015436708 0)
(0.83515311 0.0015088813 0)
(0.82766987 0.0014654613 0)
(0.82028577 0.0014149535 0)
(0.81303143 0.0013585579 0)
(0.80592541 0.0012986587 0)
(0.79897152 0.0012371679 0)
(0.79217872 0.0011751081 0)
(0.78555819 0.0011133464 0)
(0.77911457 0.0010530116 0)
(0.77284848 0.00099448896 0)
(0.76676192 0.00093819946 0)
(0.76085352 0.00088497666 0)
(0.75511939 0.00083495394 0)
(0.74955668 0.00078890612 0)
(0.74416214 0.00074662936 0)
(0.73893227 0.00070692231 0)
(0.73386292 0.00067003741 0)
(0.72894922 0.0006358161 0)
(0.72418637 0.0006042507 0)
(0.71956757 0.00057543868 0)
(0.71508569 0.00054878979 0)
(0.7107334 0.00052422707 0)
(0.70650308 0.00050128648 0)
(0.70238775 0.0004798178 0)
(0.69838011 0.0004596309 0)
(0.69447366 0.00044050385 0)
(0.69066175 0.00042246617 0)
(0.68693833 0.00040531085 0)
(0.68329708 0.00038905886 0)
(0.67973322 0.0003739111 0)
(0.67623575 0.00035920079 0)
(0.67281235 0.00034762765 0)
(0.66940589 0.00033196298 0)
(0.66614461 0.00033271902 0)
(0.66262116 0.00037264055 0)
(0.65973393 0.0004384971 0)
(0.6543362 0.00038286986 0)
(0.98288203 0.020276506 0)
(0.98556285 0.023806895 0)
(0.98942083 0.026233857 0)
(0.99368763 0.027193961 0)
(0.99771608 0.026790789 0)
(1.0010396 0.025375134 0)
(1.0034211 0.023438399 0)
(1.0049031 0.021459112 0)
(1.0057387 0.019724845 0)
(1.0062167 0.018306107 0)
(1.0065332 0.01715306 0)
(1.0067778 0.016193432 0)
(1.0069827 0.015373739 0)
(1.0071616 0.014653775 0)
(1.0073194 0.014008042 0)
(1.0074581 0.013424286 0)
(1.007582 0.012893532 0)
(1.0076946 0.012405691 0)
(1.0077965 0.011954961 0)
(1.0078895 0.011537986 0)
(1.0079757 0.011149913 0)
(1.0080562 0.010785329 0)
(1.0081275 0.010442468 0)
(1.0081915 0.010119925 0)
(1.0082485 0.0098146307 0)
(1.0082981 0.00952301 0)
(1.008349 0.0092444192 0)
(1.0083695 0.0089786404 0)
(1.0083743 0.0087227191 0)
(1.0083562 0.0084750839 0)
(1.0083082 0.0082349444 0)
(1.0082201 0.0080004766 0)
(1.00808 0.0077701564 0)
(1.0078726 0.0075425743 0)