/*--------------------------------*- C++ -*----------------------------------*\
| =========                 |                                                 |
| \\      /  F ield         | OpenFOAM: The Open Source CFD Toolbox           |
|  \\    /   O peration     | Version:  2206                                  |
|   \\  /    A nd           | Website:  www.openfoam.com                      |
|    \\/     M anipulation  |                                                 |
\*---------------------------------------------------------------------------*/
FoamFile
{
    version     2.0;
    format      ascii;
    arch        "LSB;label=32;scalar=64";
    class       volScalarField;
    location    "2000";
    object      k;
}
// * * * * * * * * * * * * * * * * * * * * * * * * * * * * * * * * * * * * * //

dimensions      [0 2 -2 0 0 0 0];

internalField   nonuniform List<scalar> 
7480
(
0.011445306
0.014109669
0.011691218
0.0076600142
0.0045418904
0.0027811885
0.0019369678
0.0015258652
0.0012980753
0.0011497727
0.0010352207
0.00093697792
0.00085138625
0.00077733091
0.00071311597
0.00065718188
0.00060832082
0.00056539751
0.00052721762
0.00049300409
0.00046228515
0.00043455209
0.00040933831
0.00038634922
0.00036535149
0.00034609288
0.00032834945
0.0003119786
0.00029686754
0.00028288734
0.0002699258
0.00025790967
0.0002467745
0.00023644831
0.00022687077
0.00021800095
0.00020980139
0.00020223542
0.00019527828
0.00018891763
0.000183143
0.00017794357
0.00017331974
0.00016927066
0.00016580184
0.00016300832
0.00016080149
0.00015930847
0.00015851774
0.00015840533
0.00015894828
0.00016011757
0.00016185174
0.00016403827
0.00016656706
0.00016936213
0.00017225626
0.00017500066
0.00017735629
0.00017913831
0.00018033638
0.00018095804
0.0001810567
0.00018070961
0.00018001387
0.00017905772
0.0001779189
0.00017665959
0.00017532437
0.00017394634
0.00017255061
0.00017115203
0.00016976002
0.00016838457
0.00016702816
0.00016569218
0.00016437717
0.00016302877
0.00016165165
0.00016026216
0.00015886686
0.00015746906
0.00015606336
0.00015464765
0.00015322153
0.00015178477
0.00015033962
0.0001488867
0.00014742931
0.0001459685
0.00014450653
0.00014304438
0.0001415853
0.00014012122
0.00013867618
0.00013716289
0.00013584197
0.00013394184
0.00013287117
0.00012997302
0.001415756
0.0025665609
0.0028348615
0.002474228
0.0020072868
0.0015609533
0.0011995683
0.00093133022
0.00073512041
0.00059093668
0.00048472987
0.00040598935
0.00034687896
0.00030175509
0.00026655303
0.00023843937
0.00021550801
0.00019644828
0.0001803319
0.00016652867
0.00015461304
0.00014426232
0.00013522225
0.00012730247
0.00012022105
0.00011383804
0.00010806779
0.00010285972
9.8180482e-05
9.4000995e-05
9.0298377e-05
8.7058714e-05
8.4271957e-05
8.1928915e-05
8.0024362e-05
7.8558469e-05
7.7535492e-05
7.6967009e-05
7.6876232e-05
7.7298915e-05
7.8281728e-05
7.9882686e-05
8.2174056e-05
8.5240719e-05
8.9189007e-05
9.4131242e-05
0.00010014172
0.0001072914
0.00011560053
0.00012506015
0.00013563725
0.00014733581
0.00015989343
0.0001730132
0.0001864069
0.00019964389
0.0002120853
0.0002231469
0.00023247168
0.00024000601
0.00024589737
0.00025040577
0.00025379489
0.00025615821
0.00025771633
0.00025866828
0.00025917171
0.0002593432
0.00025926798
0.00025900807
0.00025860653
0.00025808988
0.00025748193
0.00025680105
0.00025605414
0.00025524225
0.0002543457
0.00025315922
0.00025176903
0.00025024586
0.0002486125
0.00024687546
0.00024503676
0.00024310349
0.00024108239
0.00023898351
0.00023681688
0.00023459255
0.00023232154
0.00023001287
0.00022767552
0.00022531749
0.00022294662
0.00022056756
0.00021818431
0.00021579536
0.00021343759
0.00021076621
0.00020884982
0.00020445848
0.00021000637
0.00055720607
0.00084138633
0.0009510768
0.00092902754
0.00084363579
0.00075625843
0.00069806581
0.00065934444
0.00062437366
0.00059315681
0.00056409319
0.00053580275
0.00050887203
0.0004835638
0.00045990262
0.00043794961
0.00041772138
0.00039922106
0.00038245752
0.00036741953
0.00035406448
0.0003423447
0.00033219749
0.0003224648
0.00031327585
0.00030474556
0.00029700357
0.00029017741
0.00028438578
0.00027974741
0.00027637973
0.000274392
0.00027388971
0.00027498331
0.00027778833
0.00028243196
0.00028908207
0.00029796438
0.00030936493
0.00032362861
0.0003411654
0.00036245727
0.00038805638
0.00041863152
0.00045478168
0.00049695739
0.00054542015
0.00060018107
0.00066107698
0.00072757159
0.00079923031
0.00087484644
0.00095269474
0.001031094
0.0011074987
0.0011784402
0.0012409821
0.0012935877
0.0013362551
0.001369979
0.0013963217
0.0014160956
0.0014304091
0.001440545
0.0014475459
0.0014522141
0.0014551339
0.0014567306
0.0014573128
0.0014570909
0.0014561942
0.0014547469
0.0014528407
0.0014505094
0.0014477542
0.0014444586
0.0014394416
0.0014332662
0.0014263191
0.0014187131
0.0014104791
0.0014016344
0.001392222
0.0013822815
0.0013718712
0.0013610462
0.001349864
0.0013383844
0.0013266587
0.0013147362
0.0013026631
0.0012904812
0.0012782281
0.001265898
0.0012535888
0.0012411929
0.0012276533
0.0012174084
0.0011948987
3.6612341e-05
0.00011641229
0.00022888532
0.00032890535
0.00038970443
0.0004111601
0.00040819959
0.00039505696
0.00038065088
0.00036978972
0.00036656441
0.00037469744
0.00038618258
0.00039599228
0.00040416749
0.00041044628
0.00041543637
0.00041963823
0.00042337096
0.00042689488
0.00043042642
0.00043415333
0.00043823101
0.00044276692
0.00044759883
0.00045254096
0.00045764046
0.0004631106
0.00046922875
0.00047629621
0.00048463149
0.00049456682
0.0005064425
0.00052060898
0.00053743113
0.00055728583
0.00058058932
0.00060787259
0.00063979498
0.00067713323
0.00072077246
0.00077171016
0.00083106111
0.00090005085
0.00098007964
0.0010721585
0.0011767462
0.0012938662
0.0014230197
0.0015633141
0.0017133019
0.0018699147
0.0020312739
0.0021938235
0.0023542539
0.0025072039
0.0026462431
0.0027669541
0.0028679082
0.0029500791
0.0030159794
0.0030680699
0.0031079583
0.0031384044
0.0031616841
0.003179564
0.0031933743
0.0032040743
0.0032123547
0.0032187126
0.0032234806
0.0032268616
0.0032290721
0.003230262
0.0032304794
0.0032297091
0.003227757
0.003222292
0.0032146301
0.003205439
0.0031948816
0.0031830111
0.0031698726
0.0031555515
0.0031401323
0.0031237266
0.00310644
0.0030883806
0.0030696589
0.0030503723
0.0030306095
0.0030104612
0.002990003
0.002969316
0.0029483665
0.002927435
0.0029059829
0.0028832495
0.0028646715
0.0028272703
1.252368e-05
2.7572846e-05
5.8625158e-05
9.9473555e-05
0.00013897928
0.00016942804
0.00018921178
0.00020026904
0.00020548976
0.00020735529
0.00020803428
0.00020959558
0.0002129554
0.00021861624
0.00022751088
0.00024061999
0.00025526347
0.0002704287
0.00028569448
0.00030132512
0.00031746961
0.00033431168
0.00035192477
0.00037024047
0.0003889817
0.00040784243
0.00042730144
0.00044780784
0.00046968746
0.00049321862
0.00051868139
0.00054638758
0.00057669482
0.00061000823
0.00064677353
0.00068747258
0.00073270526
0.00078333142
0.00084038635
0.00090501117
0.00097844886
0.0010620513
0.0011572816
0.0012657099
0.0013890687
0.0015277827
0.0016814667
0.0018494273
0.0020307151
0.0022239729
0.0024271901
0.002637141
0.002849125
0.0030591361
0.0032640617
0.003455943
0.0036270433
0.0037740306
0.0038971837
0.003998673
0.0040811398
0.0041474427
0.0042005447
0.0042432225
0.0042778346
0.004306235
0.0043298287
0.0043496414
0.004366416
0.0043806884
0.0043928121
0.004403006
0.0044115355
0.0044185605
0.0044241184
0.0044281669
0.0044305231
0.004430218
0.0044274399
0.0044224852
0.0044155148
0.0044066221
0.0043958968
0.0043834687
0.0043694732
0.0043540685
0.0043374046
0.0043196294
0.0043008908
0.0042813219
0.0042610384
0.0042401638
0.0042187946
0.0041970421
0.0041748656
0.0041526489
0.0041295754
0.0041056835
0.0040848108
0.0040463781
9.3805699e-06
1.1752284e-05
1.8505186e-05
3.0345393e-05
4.5490347e-05
6.1119514e-05
7.5207558e-05
8.6935333e-05
9.6287543e-05
0.00010358059
0.00010921223
0.00011369027
0.00011750815
0.00012111631
0.00012502168
0.00012979844
0.00013572285
0.00014307053
0.00015226706
0.0001637609
0.00017687544
0.00019189198
0.0002080918
0.00022549636
0.00024418747
0.00026422256
0.00028582944
0.00030931053
0.00033500118
0.00036328025
0.0003945667
0.00042931907
0.0004680388
0.00051126269
0.00055957531
0.00061369253
0.00067461117
0.0007433552
0.00082094181
0.00090846363
0.0010071293
0.0011182688
0.0012433243
0.0013838677
0.0015415734
0.0017146557
0.0019011614
0.0021002903
0.0023113789
0.0025332455
0.0027638454
0.002999862
0.003236488
0.0034694574
0.0036955528
0.0039037747
0.0040872619
0.0042457508
0.0043808905
0.0044951741
0.0045916003
0.0046728951
0.0047414887
0.0047996632
0.0048494569
0.0048925096
0.0049301118
0.0049632538
0.0049926724
0.0050189092
0.0050423192
0.0050631272
0.005081666
0.0050980934
0.0051124286
0.0051246076
0.0051344866
0.0051414121
0.0051453419
0.0051464618
0.005144949
0.0051409447
0.0051345909
0.005126064
0.0051155506
0.0051032538
0.0050893638
0.005074064
0.0050575355
0.0050399429
0.0050214227
0.0050021272
0.0049821698
0.0049616836
0.0049406337
0.0049194535
0.0048971984
0.0048744939
0.0048537921
0.004817146
8.9899227e-06
9.231044e-06
1.039194e-05
1.3066417e-05
1.7352414e-05
2.2791723e-05
2.8761456e-05
3.4794134e-05
4.0619758e-05
4.6096996e-05
5.1143003e-05
5.5726622e-05
5.9866616e-05
6.3618775e-05
6.708707e-05
7.0428226e-05
7.3807972e-05
7.7400813e-05
8.1419047e-05
8.6119247e-05
9.1688162e-05
9.8401784e-05
0.00010650013
0.00011619057
0.00012734528
0.00014017101
0.00015491576
0.00017142963
0.00018973958
0.00021021307
0.00023328853
0.00025948617
0.00028941701
0.00032376452
0.00036329519
0.0004089197
0.00046181679
0.00052345767
0.0005953852
0.00067925145
0.00077680405
0.00088986714
0.0010203256
0.0011701805
0.0013415433
0.0015226577
0.0017159174
0.0019248417
0.0021498816
0.002389488
0.0026405469
0.002898345
0.0031567626
0.0034117927
0.0036609534
0.0038825354
0.0040753794
0.0042464283
0.0043982448
0.0045328489
0.0046522687
0.0047580524
0.0048515752
0.0049344388
0.0050082088
0.0050741677
0.0051334591
0.0051870568
0.0052357125
0.0052800125
0.0053204085
0.0053572277
0.0053907673
0.005421207
0.0054485789
0.0054728357
0.0054938929
0.0055113375
0.0055250555
0.0055351739
0.0055418953
0.0055454219
0.0055459608
0.0055437472
0.0055390283
0.0055320598
0.005523079
0.0055123118
0.0054999803
0.0054862862
0.0054714073
0.0054555149
0.0054387409
0.0054212411
0.0054030019
0.0053844696
0.0053647085
0.0053446171
0.0053258385
0.005292322
8.9408941e-06
8.8619407e-06
8.9453975e-06
9.3734384e-06
1.0288254e-05
1.1705214e-05
1.3541215e-05
1.5692863e-05
1.8076433e-05
2.0626025e-05
2.3280004e-05
2.5979834e-05
2.8675389e-05
3.1326078e-05
3.3907546e-05
3.6417762e-05
3.8874042e-05
4.1309207e-05
4.3775766e-05
4.634953e-05
4.9117767e-05
5.21897e-05
5.5693335e-05
5.9774499e-05
6.4565498e-05
7.024438e-05
7.7051459e-05
8.5132582e-05
9.4553283e-05
0.00010555311
0.00011844041
0.0001335928
0.0001513595
0.00017185909
0.00019572486
0.00022372749
0.00025684125
0.00029631169
0.00034367391
0.0004007592
0.0004697334
0.00055310835
0.00065370058
0.00077455309
0.00091878564
0.0010825477
0.0012631298
0.0014616001
0.0016783266
0.001912428
0.0021612698
0.0024201648
0.0026829335
0.0029480471
0.0032140688
0.0034581909
0.0036786364
0.0038797823
0.004062536
0.0042296945
0.0043830581
0.0045231144
0.0046505235
0.0047665837
0.0048724136
0.0049688749
0.0050570241
0.0051378236
0.0052120051
0.005280224
0.0053430498
0.0054009066
0.0054541336
0.0055029599
0.0055474396
0.0055875694
0.0056233412
0.0056545629
0.0056811543
0.0057032218
0.0057209875
0.0057347067
0.0057446542
0.0057511289
0.0057544441
0.0057549136
0.0057528276
0.0057484619
0.0057420887
0.0057339547
0.0057242772
0.0057132606
0.005701065
0.0056878742
0.0056737081
0.0056590076
0.005642934
0.0056264423
0.0056108105
0.0055810594
8.9328972e-06
8.8092489e-06
8.7106656e-06
8.6774684e-06
8.7584501e-06
8.987281e-06
9.3744305e-06
9.9172149e-06
1.0610641e-05
1.1449604e-05
1.2426048e-05
1.3526804e-05
1.4735205e-05
1.6031779e-05
1.7396803e-05
1.8813503e-05
2.0269733e-05
2.1758011e-05
2.3277597e-05
2.4836764e-05
2.6452357e-05
2.8150696e-05
2.9969176e-05
3.1957416e-05
3.4174036e-05
3.6691747e-05
3.9605114e-05
4.3018493e-05
4.7041098e-05
5.1817456e-05
5.7541842e-05
6.4404028e-05
7.2619491e-05
8.2431522e-05
9.4186001e-05
0.00010832647
0.00012543109
0.00014625156
0.00017148106
0.00020217248
0.00023989379
0.00028665172
0.00034499186
0.00041809566
0.00050987583
0.00062314343
0.00075704004
0.00091183916
0.0010885729
0.0012875847
0.0015079077
0.0017466736
0.0019991614
0.0022629932
0.0025354883
0.0028005859
0.0030436091
0.0032703099
0.0034830795
0.0036834915
0.0038726035
0.0040491443
0.0042132268
0.0043662181
0.0045085009
0.0046402712
0.0047625066
0.0048759668
0.0049811479
0.005078736
0.0051693531
0.005253445
0.005331365
0.0054033859
0.0054695381
0.0055298648
0.0055844481
0.0056332777
0.005676363
0.0057138334
0.0057459317
0.0057729542
0.0057952378
0.0058131456
0.0058270585
0.0058373542
0.0058443818
0.0058484763
0.0058499707
0.0058491665
0.0058463316
0.0058417146
0.0058355133
0.0058279482
0.0058190852
0.0058093544
0.0057980658
0.0057861173
0.0057746875
0.0057492621
8.9302014e-06
8.8000322e-06
8.6732956e-06
8.5571751e-06
8.4633248e-06
8.403973e-06
8.3886174e-06
8.4242002e-06
8.5168378e-06
8.6724853e-06
8.8963192e-06
9.1916759e-06
9.5599759e-06
1.0000462e-05
1.0510608e-05
1.1086755e-05
1.1724507e-05
1.2419205e-05
1.3166829e-05
1.3964938e-05
1.4813249e-05
1.5714163e-05
1.6673952e-05
1.7703876e-05
1.8820288e-05
2.0045469e-05
2.1409732e-05
2.2951542e-05
2.4717338e-05
2.6765249e-05
2.9170756e-05
3.2025464e-05
3.5441749e-05
3.9558413e-05
4.455754e-05
5.0633444e-05
5.8061034e-05
6.720845e-05
7.8505479e-05
9.2515044e-05
0.00011002315
0.00013209584
0.00016016694
0.0001961507
0.00024248684
0.00030213642
0.00037785148
0.0004716121
0.00058585005
0.00072283353
0.00088425195
0.0010706225
0.0012807289
0.0015125146
0.0017633284
0.0020239928
0.0022816487
0.0025302576
0.002763667
0.0029863823
0.0032003863
0.003405655
0.0036019813
0.0037896309
0.0039676813
0.0041350284
0.0042928728
0.0044414165
0.0045806436
0.0047112412
0.0048336555
0.0049482074
0.0050551905
0.005154906
0.0052471889
0.0053320909
0.005409783
0.0054803577
0.0055439017
0.0056005952
0.0056507004
0.0056945367
0.0057324907
0.0057649776
0.005792437
0.0058153133
0.0058340159
0.0058489444
0.0058605002
0.0058690488
0.0058749207
0.00587842
0.0058797948
0.0058793127
0.0058770974
0.0058735736
0.0058682268
0.0058618544
0.0058556809
0.0058352664
8.9286093e-06
8.7969615e-06
8.6657328e-06
8.5359164e-06
8.4097259e-06
8.2901815e-06
8.18052e-06
8.0839812e-06
8.003977e-06
7.9442011e-06
7.9085013e-06
7.9006296e-06
7.9240651e-06
7.9818069e-06
8.0763027e-06
8.2094402e-06
8.3824913e-06
8.5961471e-06
8.8506858e-06
9.1462087e-06
9.4828657e-06
9.8611287e-06
1.0282103e-05
1.0747984e-05
1.1262467e-05
1.1831207e-05
1.2462497e-05
1.3167945e-05
1.3962949e-05
1.4867625e-05
1.5908396e-05
1.7119012e-05
1.8542366e-05
2.0232872e-05
2.2260934e-05
2.4713397e-05
2.7704034e-05
3.1385765e-05
3.5956125e-05
4.1651935e-05
4.8810431e-05
5.7893793e-05
6.9539269e-05
8.4627877e-05
0.00010435969
0.0001303606
0.00016466625
0.0002094934
0.00026745335
0.0003414991
0.00043478772
0.00055037016
0.00069068966
0.00085728521
0.0010506683
0.0012681434
0.0015025488
0.0017456077
0.00198798
0.0022269796
0.0024574755
0.0026783621
0.0028931345
0.003102382
0.0033055952
0.0035018248
0.0036910207
0.0038722488
0.0040443271
0.0042080813
0.0043634284
0.0045104719
0.0046492283
0.0047795595
0.0049011839
0.005014175
0.0051186977
0.0052148142
0.0053026281
0.0053823408
0.0054541972
0.0055185061
0.0055756732
0.005626132
0.0056703499
0.0057088323
0.0057420479
0.005770457
0.0057945276
0.0058146918
0.005831352
0.0058448776
0.0058555837
0.005863794
0.0058697026
0.005873741
0.0058755835
0.0058759236
0.0058761116
0.0058615434
8.9276095e-06
8.7952811e-06
8.6630027e-06
8.530818e-06
8.3990607e-06
8.2683066e-06
8.139351e-06
8.0131839e-06
7.890997e-06
7.7741919e-06
7.6643613e-06
7.5632527e-06
7.4727337e-06
7.394736e-06
7.3312002e-06
7.2840416e-06
7.2551048e-06
7.2461085e-06
7.2586283e-06
7.2941091e-06
7.3538878e-06
7.4392406e-06
7.5514249e-06
7.6917994e-06
7.8619689e-06
8.0639448e-06
8.3004387e-06
8.5751909e-06
8.8932079e-06
9.2610689e-06
9.6874459e-06
1.0183763e-05
1.0764943e-05
1.1450286e-05
1.2264925e-05
1.3241171e-05
1.4420925e-05
1.5859664e-05
1.7630585e-05
1.9828023e-05
2.2579494e-05
2.60608e-05
3.0514596e-05
3.6273013e-05
4.3811484e-05
5.3802386e-05
6.7173107e-05
8.5131538e-05
0.0001092467
0.00014152577
0.0001844739
0.00024109587
0.00031478108
0.00040908386
0.00052743781
0.0006722405
0.00084342846
0.0010381344
0.0012503736
0.0014744691
0.0017032829
0.0019315968
0.0021584098
0.0023799614
0.0025942815
0.0028047635
0.0030115221
0.0032141688
0.0034114211
0.0036029671
0.0037876267
0.0039646848
0.0041341
0.0042950587
0.0044469852
0.0045898823
0.0047236831
0.0048482245
0.0049635022
0.0050696283
0.0051667461
0.0052550877
0.0053350187
0.0054069299
0.0054712737
0.0055285899
0.0055793776
0.0056241439
0.0056634176
0.0056976919
0.0057274446
0.0057531176
0.0057751025
0.0057937917
0.0058094614
0.0058225655
0.0058329737
0.005841291
0.0058490418
0.0058413247
8.9270597e-06
8.7943519e-06
8.6616704e-06
8.5289581e-06
8.3962414e-06
8.2635946e-06
8.1311759e-06
7.9992465e-06
7.8681676e-06
7.7383918e-06
7.6104558e-06
7.4849817e-06
7.3626828e-06
7.2443637e-06
7.1309135e-06
7.0232993e-06
6.9225571e-06
6.8297732e-06
6.7460685e-06
6.6725888e-06
6.6104917e-06
6.5609375e-06
6.525094e-06
6.5041487e-06
6.4993279e-06
6.5119266e-06
6.5433903e-06
6.595426e-06
6.6700885e-06
6.7698627e-06
6.8978832e-06
7.0581749e-06
7.2559049e-06
7.4978197e-06
7.7927679e-06
8.1521038e-06
8.5905381e-06
9.1274013e-06
9.7882399e-06
1.0606548e-05
1.162704e-05
1.2910674e-05
1.4541299e-05
1.6635062e-05
1.9356975e-05
2.294478e-05
2.7738005e-05
3.4209667e-05
4.3023485e-05
5.5098539e-05
7.1694758e-05
9.4510784e-05
0.0001257777
0.00016831786
0.000225545
0.00030125
0.0003989775
0.0005211928
0.00066826378
0.00083862251
0.0010283922
0.0012324059
0.0014464286
0.0016649891
0.0018836159
0.0021020331
0.0023176306
0.002527981
0.002735917
0.0029414467
0.0031442363
0.0033425045
0.0035357682
0.0037230782
0.0039025657
0.0040740859
0.0042371238
0.0043910034
0.0045353854
0.0046701227
0.0047951268
0.0049104124
0.0050162064
0.0051127662
0.005200459
0.0052798083
0.0053512811
0.0054153978
0.0054727258
0.0055237967
0.0055691574
0.0056093173
0.0056447458
0.0056759119
0.005703181
0.0057270426
0.0057475637
0.0057652831
0.0057819389
0.0057822742
8.9267516e-06
8.7938128e-06
8.6609318e-06
8.5280667e-06
8.3952073e-06
8.2623465e-06
8.129509e-06
7.9967708e-06
7.8642556e-06
7.7321233e-06
7.6005604e-06
7.4697803e-06
7.3400304e-06
7.2115993e-06
7.0848204e-06
6.9600763e-06
6.8378013e-06
6.7184818e-06
6.6026549e-06
6.4909077e-06
6.3838742e-06
6.2822309e-06
6.186695e-06
6.0980246e-06
6.0170174e-06
5.9445125e-06
5.8814047e-06
5.8286666e-06
5.7873714e-06
5.7587246e-06
5.7441264e-06
5.7452447e-06
5.7640942e-06
5.8031892e-06
5.8657401e-06
5.9557936e-06
6.0784999e-06
6.2405334e-06
6.4506565e-06
6.7204682e-06
7.065274e-06
7.5054978e-06
8.0689227e-06
8.7937648e-06
9.733611e-06
1.0965369e-05
1.2600185e-05
1.4798017e-05
1.7790421e-05
2.1912907e-05
2.7649699e-05
3.5695707e-05
4.7047775e-05
6.310954e-05
8.581245e-05
0.0001177137
0.00016197667
0.00022213232
0.00030154752
0.00040286604
0.00052731237
0.00067428817
0.00084187579
0.0010265117
0.0012236608
0.0014299611
0.0016412035
0.0018531318
0.002065818
0.002277307
0.0024852664
0.002691287
0.0028955889
0.0030978515
0.003296274
0.003489914
0.003677878
0.0038582145
0.0040301074
0.0041931118
0.0043466313
0.0044901747
0.004623729
0.0047472577
0.0048609016
0.0049650857
0.0050601248
0.0051464858
0.0052247263
0.0052953644
0.005358991
0.0054161566
0.0054673951
0.005513249
0.0055541687
0.0055906873
0.0056230652
0.0056517949
0.005678871
0.0056886752
8.9265736e-06
8.7934481e-06
8.6604093e-06
8.5274448e-06
8.3945531e-06
8.2617233e-06
8.128959e-06
7.996294e-06
7.8637901e-06
7.7315272e-06
7.5995934e-06
7.4680823e-06
7.3370957e-06
7.206748e-06
7.0771686e-06
6.9485058e-06
6.8209296e-06
6.6946343e-06
6.5698411e-06
6.4468004e-06
6.3257931e-06
6.2071324e-06
6.0911643e-06
5.9782692e-06
5.8688625e-06
5.763395e-06
5.6623556e-06
5.5662758e-06
5.4757347e-06
5.391366e-06
5.3138746e-06
5.2440571e-06
5.1828231e-06
5.1312349e-06
5.0905683e-06
5.062378e-06
5.0485769e-06
5.0515591e-06
5.0743839e-06
5.1210519e-06
5.1967492e-06
5.3082584e-06
5.4646586e-06
5.6782883e-06
5.9663272e-06
6.3528949e-06
6.8724466e-06
7.5748856e-06
8.5331919e-06
9.8550215e-06
1.1700209e-05
1.4306474e-05
1.8029758e-05
2.3402839e-05
3.121664e-05
4.2624334e-05
5.9265017e-05
8.3341519e-05
0.00011759815
0.0001651601
0.00022918984
0.00031239802
0.00041667189
0.00054258815
0.00068916181
0.00085445403
0.0010353733
0.0012278227
0.0014289912
0.0016354268
0.0018431176
0.0020520789
0.0022604201
0.0024657053
0.0026700803
0.0028735209
0.0030751386
0.0032730365
0.0034660815
0.0036532149
0.0038325057
0.0040027602
0.004163794
0.0043148922
0.0044557474
0.0045866079
0.0047073911
0.0048184152
0.0049201433
0.0050129779
0.005097504
0.0051742526
0.0052437867
0.0053067011
0.005363508
0.0054147813
0.0054609602
0.0055025012
0.005541711
0.0055626336
8.926505e-06
8.7932144e-06
8.6600215e-06
8.5269409e-06
8.3939862e-06
8.2611573e-06
8.1284602e-06
7.9959208e-06
7.8635843e-06
7.731508e-06
7.5997537e-06
7.4683837e-06
7.337461e-06
7.2070512e-06
7.0772236e-06
6.9480526e-06
6.819619e-06
6.6920116e-06
6.5653286e-06
6.4396795e-06
6.3151862e-06
6.1919856e-06
6.07023e-06
5.9500898e-06
5.8317549e-06
5.7154359e-06
5.6013659e-06
5.4898031e-06
5.3810322e-06
5.2753671e-06
5.1731554e-06
5.0747847e-06
4.9806879e-06
4.891354e-06
4.8073445e-06
4.7293143e-06
4.6580361e-06
4.5944363e-06
4.5396494e-06
4.4950954e-06
4.4625706e-06
4.4443727e-06
4.4435051e-06
4.4639538e-06
4.5111634e-06
4.5926186e-06
4.7188108e-06
4.9047915e-06
5.1726209e-06
5.5549286e-06
6.1002332e-06
6.8817985e-06
8.0114987e-06
9.6616985e-06
1.2099181e-05
1.573585e-05
2.1202877e-05
2.9443306e-05
4.1806861e-05
6.0117995e-05
8.6694713e-05
0.00012424843
0.00017568694
0.00024378158
0.00033074611
0.00043797884
0.00056573548
0.00071285494
0.00087743553
0.0010566964
0.0012468339
0.001445321
0.0016488127
0.0018535608
0.0020599847
0.0022657798
0.0024693457
0.0026721955
0.0028747757
0.0030751864
0.0032715655
0.003462734
0.0036476219
0.0038238995
0.0039907933
0.0041483631
0.0042955959
0.0044326185
0.0045596512
0.0046767803
0.0047845137
0.0048832434
0.0049734994
0.0050558787
0.0051309022
0.0051991663
0.0052612554
0.0053175853
0.0053708449
0.0054047767
8.9265415e-06
8.7931113e-06
8.6597759e-06
8.52657e-06
8.3935212e-06
8.2606414e-06
8.1279435e-06
7.9954541e-06
7.8632135e-06
7.7312716e-06
7.5996821e-06
7.4684992e-06
7.3377768e-06
7.2075688e-06
7.0779295e-06
6.9489143e-06
6.8205793e-06
6.6929827e-06
6.5661844e-06
6.4402474e-06
6.3152381e-06
6.1912272e-06
6.0682906e-06
5.9465106e-06
5.8259767e-06
5.7067872e-06
5.5890499e-06
5.4728839e-06
5.3584212e-06
5.2458074e-06
5.1352043e-06
5.0267921e-06
4.9207717e-06
4.8173677e-06
4.7168334e-06
4.6194572e-06
4.5255696e-06
4.4355541e-06
4.3498619e-06
4.2690345e-06
4.1937304e-06
4.1247635e-06
4.0631604e-06
4.0102431e-06
3.9677473e-06
3.9380082e-06
3.9242375e-06
3.9309434e-06
3.9646486e-06
4.0349283e-06
4.155928e-06
4.3490369e-06
4.6472262e-06
5.101868e-06
5.7935567e-06
6.8503383e-06
8.4761772e-06
1.0994048e-05
1.4904505e-05
2.0959132e-05
3.0244393e-05
4.4256739e-05
6.4929166e-05
9.4608771e-05
0.00013592713
0.00019159442
0.00026410097
0.00035532889
0.00046635196
0.00059719597
0.00074653643
0.00091243295
0.0010920803
0.0012817861
0.0014793502
0.0016810344
0.0018841356
0.002088977
0.0022925914
0.0024946233
0.0026959783
0.0028971805
0.0030955094
0.0032893142
0.0034773656
0.0036587256
0.0038304602
0.0039928331
0.0041454953
0.0042878545
0.0044202901
0.00454282
0.0046558529
0.0047598907
0.0048553661
0.0049428601
0.0050230351
0.0050962454
0.0051656359
0.0052146917
8.9266746e-06
8.7931324e-06
8.659675e-06
8.5263511e-06
8.393199e-06
8.2602411e-06
8.1274977e-06
7.9949979e-06
7.8627807e-06
7.7308928e-06
7.5993845e-06
7.4683076e-06
7.3377135e-06
7.2076537e-06
7.0781796e-06
6.9493426e-06
6.8211937e-06
6.6937836e-06
6.5671631e-06
6.4413827e-06
6.316493e-06
6.1925452e-06
6.0695908e-06
5.9476824e-06
5.826874e-06
5.7072218e-06
5.5887844e-06
5.4716239e-06
5.3558064e-06
5.2414031e-06
5.1284911e-06
5.0171546e-06
4.9074861e-06
4.7995878e-06
4.6935735e-06
4.5895704e-06
4.487722e-06
4.3881912e-06
4.2911649e-06
4.19686e-06
4.1055318e-06
4.0174843e-06
3.9330869e-06
3.8527977e-06
3.7771952e-06
3.7070295e-06
3.6433019e-06
3.5873796e-06
3.5411844e-06
3.5074859e-06
3.4903469e-06
3.4958504e-06
3.5333431e-06
3.6174037e-06
3.7709708e-06
4.0308984e-06
4.4573228e-06
5.1477551e-06
6.2597812e-06
8.0443519e-06
1.0893064e-05
1.5399738e-05
2.2431265e-05
3.3200866e-05
4.9326646e-05
7.2834295e-05
0.00010610122
0.00015171912
0.0002122724
0.00029006069
0.00038670536
0.00050298902
0.00063861318
0.00079196276
0.00096099678
0.0011425903
0.0013333664
0.0015313533
0.0017319497
0.0019340447
0.0021373772
0.0023388916
0.0025390215
0.0027391455
0.0029380313
0.003133306
0.0033235104
0.0035074871
0.0036835498
0.003849929
0.0040070009
0.0041539237
0.0042909129
0.0044181922
0.0045359436
0.0046446689
0.004744984
0.004837147
0.004924799
0.0049912582
8.9268923e-06
8.7932639e-06
8.6597073e-06
8.5262807e-06
8.3930307e-06
8.259988e-06
8.1271796e-06
7.9946378e-06
7.8624016e-06
7.7305159e-06
7.5990294e-06
7.4679921e-06
7.3374547e-06
7.2074681e-06
7.0780832e-06
6.9493508e-06
6.8213213e-06
6.6940443e-06
6.5675689e-06
6.4419433e-06
6.3172149e-06
6.1934301e-06
6.0706345e-06
5.9488729e-06
5.8281892e-06
5.7086267e-06
5.5902286e-06
5.4730376e-06
5.3570969e-06
5.2424501e-06
5.1291417e-06
5.0172179e-06
4.906727e-06
4.7977201e-06
4.6902515e-06
4.5843803e-06
4.480171e-06
4.3776947e-06
4.2770309e-06
4.178269e-06
4.0815113e-06
3.9868761e-06
3.8945017e-06
3.8045539e-06
3.717234e-06
3.6327932e-06
3.5515537e-06
3.4739409e-06
3.400533e-06
3.3321396e-06
3.2699249e-06
3.2156033e-06
3.171768e-06
3.1424315e-06
3.1339112e-06
3.1563551e-06
3.2264712e-06
3.3716766e-06
3.6372313e-06
4.0978011e-06
4.874806e-06
6.1625144e-06
8.2655916e-06
1.1649971e-05
1.7006939e-05
2.5323093e-05
3.7946565e-05
5.6635769e-05
8.3529438e-05
0.00012108315
0.00017189808
0.00023847882
0.00032293771
0.00042658677
0.00054985366
0.0006919428
0.00085091521
0.0010245923
0.0012092436
0.0014019889
0.001600643
0.0018004207
0.002001564
0.0022025231
0.0024021056
0.0026000269
0.0027985635
0.0029943916
0.0031858717
0.0033716159
0.0035506607
0.0037203449
0.0038808023
0.0040316649
0.0041725933
0.004303925
0.0044259957
0.0045389324
0.0046468005
0.0047329829
8.9271821e-06
8.7934893e-06
8.6598548e-06
8.5263429e-06
8.3930061e-06
8.2598823e-06
8.1270043e-06
7.9944075e-06
7.8621318e-06
7.7302213e-06
7.5987234e-06
7.4676873e-06
7.3371628e-06
7.2072005e-06
7.0778512e-06
6.9491654e-06
6.8211936e-06
6.6939854e-06
6.56759e-06
6.4420554e-06
6.3174286e-06
6.1937557e-06
6.0710812e-06
5.9494484e-06
5.8288993e-06
5.7094743e-06
5.5912127e-06
5.4741521e-06
5.3583293e-06
5.2437796e-06
5.1305373e-06
5.018636e-06
4.9081087e-06
4.7989881e-06
4.6913066e-06
4.5850975e-06
4.4803945e-06
4.3772328e-06
4.2756496e-06
4.1756847e-06
4.0773813e-06
3.9807875e-06
3.8859572e-06
3.7929522e-06
3.7018448e-06
3.6127216e-06
3.5256891e-06
3.4408828e-06
3.35848e-06
3.2787211e-06
3.2019421e-06
3.1286262e-06
3.05949e-06
2.9956244e-06
2.9387321e-06
2.8915317e-06
2.8584744e-06
2.8469243e-06
2.8691714e-06
2.9458779e-06
3.111508e-06
3.4230123e-06
3.9738639e-06
4.9141104e-06
6.4807357e-06
9.0398258e-06
1.3143078e-05
1.9597045e-05
2.9532088e-05
4.4466582e-05
6.6341114e-05
9.7448807e-05
0.00014036436
0.00019770919
0.00027189578
0.00036476362
0.00047721283
0.00060921408
0.00075926059
0.00092505817
0.0011040778
0.001292193
0.0014871221
0.0016852329
0.0018844476
0.0020843827
0.0022827935
0.0024798998
0.0026765305
0.0028720612
0.0030640141
0.0032508688
0.0034315301
0.0036041625
0.0037674277
0.0039215038
0.0040659878
0.0042008838
0.0043303989
0.0044384264
8.9275324e-06
8.793793e-06
8.6600987e-06
8.5265175e-06
8.3931066e-06
8.2599094e-06
8.126964e-06
7.9943088e-06
7.8619852e-06
7.7300371e-06
7.5985113e-06
7.4674561e-06
7.3369209e-06
7.206956e-06
7.0776116e-06
6.9489385e-06
6.8209867e-06
6.6938062e-06
6.567446e-06
6.4419544e-06
6.3173785e-06
6.1937645e-06
6.0711571e-06
5.9495995e-06
5.8291335e-06
5.7097996e-06
5.5916361e-06
5.4746802e-06
5.3589671e-06
5.2445304e-06
5.131402e-06
5.0196123e-06
4.9091899e-06
4.800162e-06
4.6925547e-06
4.5863923e-06
4.4816987e-06
4.3784965e-06
4.2768079e-06
4.1766546e-06
4.0780585e-06
3.9810418e-06
3.8856278e-06
3.791841e-06
3.6997085e-06
3.6092607e-06
3.520533e-06
3.4335684e-06
3.348421e-06
3.2651615e-06
3.183886e-06
3.1047292e-06
3.027887e-06
2.9536523e-06
2.8824761e-06
2.8150712e-06
2.7525949e-06
2.6969591e-06
2.6513673e-06
2.6212425e-06
2.6157927e-06
2.6505913e-06
2.7519522e-06
2.9635264e-06
3.3569536e-06
4.0486104e-06
5.2232751e-06
7.1703442e-06
1.0332881e-05
1.5372318e-05
2.3244511e-05
3.5267993e-05
5.3184846e-05
7.9159003e-05
0.00011568696
0.00016546744
0.00023110336
0.00031483796
0.00041805988
0.00054108213
0.0006831962
0.0008421133
0.0010152729
0.0011991682
0.0013905579
0.0015871939
0.0017843564
0.0019825196
0.002179785
0.0023758416
0.0025706097
0.0027653061
0.0029571517
0.0031446751
0.0033264959
0.0035013421
0.0036671008
0.0038238774
0.0039754503
0.0041067997
8.9279331e-06
8.7941611e-06
8.6604217e-06
8.5267852e-06
8.393312e-06
8.2600503e-06
8.1270424e-06
7.99433e-06
7.861956e-06
7.7299648e-06
7.598403e-06
7.4673185e-06
7.3367604e-06
7.2067785e-06
7.0774228e-06
6.9487437e-06
6.8207914e-06
6.6936154e-06
6.567265e-06
6.4417884e-06
6.3172327e-06
6.1936443e-06
6.0710679e-06
5.9495469e-06
5.8291234e-06
5.7098378e-06
5.5917288e-06
5.4748334e-06
5.359187e-06
5.244823e-06
5.1317731e-06
5.020067e-06
4.9097327e-06
4.8007962e-06
4.693282e-06
4.5872125e-06
4.4826084e-06
4.3794891e-06
4.277872e-06
4.1777734e-06
4.0792081e-06
3.9821899e-06
3.8867315e-06
3.7928448e-06
3.7005416e-06
3.6098333e-06
3.5207317e-06
3.4332499e-06
3.3474032e-06
3.2632105e-06
3.180697e-06
3.0998973e-06
3.0208614e-06
2.943664e-06