/*--------------------------------*- C++ -*----------------------------------*\
| =========                 |                                                 |
| \\      /  F ield         | OpenFOAM: The Open Source CFD Toolbox           |
|  \\    /   O peration     | Version:  2206                                  |
|   \\  /    A nd           | Website:  www.openfoam.com                      |
|    \\/     M anipulation  |                                                 |
\*---------------------------------------------------------------------------*/
FoamFile
{
    version     2.0;
    format      ascii;
    arch        "LSB;label=32;scalar=64";
    class       volScalarField;
    location    "2000";
    object      nut;
}
// * * * * * * * * * * * * * * * * * * * * * * * * * * * * * * * * * * * * * //

dimensions      [0 2 -1 0 0 0 0];

internalField   nonuniform List<scalar> 
7480
(
1.5121082e-06
1.858782e-06
1.5441878e-06
1.0161656e-06
6.0457255e-07
3.7092028e-07
2.5856856e-07
2.0378212e-07
1.7340388e-07
1.5361793e-07
1.3833043e-07
1.2521639e-07
1.1378878e-07
1.0389969e-07
9.5323339e-08
8.7851963e-08
8.1324611e-08
7.5589903e-08
7.0488475e-08
6.5916649e-08
6.18115e-08
5.8105131e-08
5.4735251e-08
5.1662545e-08
4.8855864e-08
4.6281532e-08
4.3909638e-08
4.1721146e-08
3.9700994e-08
3.7831965e-08
3.6099069e-08
3.4492525e-08
3.3003727e-08
3.1623058e-08
3.0342461e-08
2.9156467e-08
2.8060073e-08
2.7048382e-08
2.6118087e-08
2.5267539e-08
2.4495344e-08
2.3800058e-08
2.3181738e-08
2.2640269e-08
2.2176392e-08
2.1802819e-08
2.1507702e-08
2.1308042e-08
2.1202298e-08
2.1187265e-08
2.1259873e-08
2.1416243e-08
2.1648152e-08
2.1940554e-08
2.2278724e-08
2.2652501e-08
2.3039522e-08
2.3406518e-08
2.3721525e-08
2.3959825e-08
2.4120034e-08
2.4203165e-08
2.4216358e-08
2.4169944e-08
2.4076908e-08
2.3949047e-08
2.379676e-08
2.3628359e-08
2.3449807e-08
2.3265529e-08
2.3078885e-08
2.2891858e-08
2.270571e-08
2.2521775e-08
2.2340385e-08
2.2161728e-08
2.1985873e-08
2.1805554e-08
2.1621394e-08
2.1435578e-08
2.1248985e-08
2.1062057e-08
2.0874072e-08
2.0684747e-08
2.0494031e-08
2.030189e-08
2.0108628e-08
1.9914325e-08
1.9719422e-08
1.9524064e-08
1.9328549e-08
1.9133009e-08
1.893788e-08
1.874208e-08
1.8548826e-08
1.8346445e-08
1.816979e-08
1.7915673e-08
1.7772483e-08
1.738489e-08
1.4111765e-06
1.6301711e-06
1.5385815e-06
1.2881172e-06
1.0362488e-06
8.1135152e-07
6.4382925e-07
5.1803298e-07
4.2146735e-07
3.4679329e-07
2.8967463e-07
2.4639733e-07
2.1353196e-07
1.882356e-07
1.6835517e-07
1.5236736e-07
1.392305e-07
1.2821078e-07
1.1880564e-07
1.1068219e-07
1.036131e-07
9.7422097e-08
9.1975215e-08
8.7174273e-08
8.2847853e-08
7.89155e-08
7.5333598e-08
7.2080322e-08
6.9142365e-08
6.6507892e-08
6.4169326e-08
6.2124253e-08
6.0371461e-08
5.8909821e-08
5.7740867e-08
5.6869338e-08
5.6302185e-08
5.6051497e-08
5.6137692e-08
5.6589986e-08
5.7445249e-08
5.8748657e-08
6.0555855e-08
6.2931407e-08
6.595632e-08
6.9714606e-08
7.4262416e-08
7.9653552e-08
8.590154e-08
9.2998968e-08
1.0091753e-07
1.0965383e-07
1.1901653e-07
1.287837e-07
1.3874096e-07
1.4856898e-07
1.5779537e-07
1.6599217e-07
1.7290234e-07
1.7849333e-07
1.8288041e-07
1.8625855e-07
1.8881806e-07
1.906298e-07
1.9185791e-07
1.9264692e-07
1.9311079e-07
1.9333306e-07
1.9337469e-07
1.9328e-07
1.9307964e-07
1.9279227e-07
1.9243506e-07
1.9202118e-07
1.9155534e-07
1.9103834e-07
1.9045494e-07
1.8965264e-07
1.8869639e-07
1.8763884e-07
1.8649696e-07
1.8527553e-07
1.8397606e-07
1.8260413e-07
1.8116475e-07
1.7966556e-07
1.7811402e-07
1.7651761e-07
1.7488457e-07
1.7322154e-07
1.7153526e-07
1.6983166e-07
1.6811657e-07
1.6639365e-07
1.6466532e-07
1.6293265e-07
1.6121873e-07
1.5926858e-07
1.5790114e-07
1.5465249e-07
1.1014334e-06
1.4048414e-06
1.4359094e-06
1.3410372e-06
1.2076855e-06
1.0741627e-06
9.6696891e-07
8.8450703e-07
8.2040274e-07
7.6813072e-07
7.239514e-07
6.7968135e-07
6.3735869e-07
6.0222197e-07
5.7248628e-07
5.469421e-07
5.2490717e-07
5.0589024e-07
4.8953153e-07
4.7559339e-07
4.6391195e-07
4.5434938e-07
4.4680753e-07
4.4120202e-07
4.3360552e-07
4.2647186e-07
4.1997192e-07
4.1431461e-07
4.0970592e-07
4.06344e-07
4.0444045e-07
4.0421526e-07
4.0588127e-07
4.0965222e-07
4.157573e-07
4.2443745e-07
4.3595412e-07
4.5064188e-07
4.6893383e-07
4.9136409e-07
5.1856579e-07
5.5128483e-07
5.903935e-07
6.3688396e-07
6.919536e-07
7.5667807e-07
8.3192386e-07
9.1822546e-07
1.015671e-06
1.1240344e-06
1.2423231e-06
1.3697133e-06
1.5042939e-06
1.6431076e-06
1.7832314e-06
1.9203253e-06
2.0484825e-06
2.1626452e-06
2.2600547e-06
2.3406007e-06
2.4059111e-06
2.4586815e-06
2.4998913e-06
2.53162e-06
2.5561504e-06
2.57527e-06
2.5903399e-06
2.6023317e-06
2.6119446e-06
2.619681e-06
2.625879e-06
2.6307385e-06
2.6344586e-06
2.6371872e-06
2.6389697e-06
2.6398052e-06
2.6394709e-06
2.6356894e-06
2.6295535e-06
2.6218232e-06
2.6127307e-06
2.6023417e-06
2.5906912e-06
2.5778702e-06
2.5639566e-06
2.5490644e-06
2.5332986e-06
2.5167667e-06
2.4995817e-06
2.481837e-06
2.4636266e-06
2.4450355e-06
2.4261407e-06
2.4070197e-06
2.3876436e-06
2.3682703e-06
2.3485497e-06
2.3266148e-06
2.3112261e-06
2.2731746e-06
5.0848411e-07
9.5919266e-07
1.1798468e-06
1.2285165e-06
1.2004635e-06
1.1429414e-06
1.0804434e-06
1.0213945e-06
9.6992783e-07
9.3012588e-07
9.0617103e-07
9.0238661e-07
9.0578369e-07
8.5767542e-07
8.2196317e-07
7.9453904e-07
7.7452637e-07
7.600232e-07
7.5000467e-07
7.4383526e-07
7.4111277e-07
7.4155157e-07
7.4498294e-07
7.512481e-07
7.5981733e-07
7.7017665e-07
7.8219099e-07
7.9607798e-07
8.1222837e-07
8.3112081e-07
8.5330479e-07
8.7939602e-07
9.100673e-07
9.4605054e-07
9.8814391e-07
1.0372035e-06
1.0941981e-06
1.1604003e-06
1.2374011e-06
1.3270978e-06
1.4316894e-06
1.5536974e-06
1.6959931e-06
1.8617991e-06
2.0547364e-06
2.2780917e-06
2.534285e-06
2.8247795e-06
3.1501316e-06
3.5097511e-06
3.9016857e-06
4.320006e-06
4.7613789e-06
5.2181072e-06
5.6817422e-06
6.1406385e-06
6.5796788e-06
6.9849237e-06
7.3473235e-06
7.6641354e-06
7.9378031e-06
8.1722206e-06
8.3700288e-06
8.5382099e-06
8.6831883e-06
8.810256e-06
8.9235622e-06
9.0261559e-06
9.120217e-06
9.2072849e-06
9.2883899e-06
9.3641297e-06
9.4350181e-06
9.5014501e-06
9.5635287e-06
9.6211852e-06
9.6739392e-06
9.7001273e-06
9.7152661e-06
9.7241415e-06
9.7274754e-06
9.725531e-06
9.7184732e-06
9.7066287e-06
9.6903009e-06
9.6698946e-06
9.6457862e-06
9.618355e-06
9.5879942e-06
9.5550352e-06
9.5197985e-06
9.4825929e-06
9.4436831e-06
9.4033764e-06
9.3615246e-06
9.3192907e-06
9.274691e-06
9.224257e-06
9.1899142e-06
9.0979102e-06
2.2507585e-07
4.2727003e-07
6.9865848e-07
8.9334028e-07
9.8971909e-07
1.0235469e-06
1.0250679e-06
1.010779e-06
9.8914891e-07
9.6538444e-07
9.4379748e-07
9.2878964e-07
9.2203774e-07
9.2307947e-07
9.3203656e-07
9.4900789e-07
9.6930647e-07
9.5330783e-07
9.2967872e-07
9.1682654e-07
9.136364e-07
9.1846102e-07
9.3038196e-07
9.487724e-07
9.732728e-07
1.0037152e-06
1.0384369e-06
1.0774938e-06
1.1214284e-06
1.1707733e-06
1.2261316e-06
1.2882375e-06
1.3580014e-06
1.4365447e-06
1.5252331e-06
1.6256802e-06
1.7395248e-06
1.8683992e-06
2.0150611e-06
2.1828406e-06
2.3755388e-06
2.59743e-06
2.8532968e-06
3.1484655e-06
3.4887226e-06
3.8789849e-06
4.3212084e-06
4.8166524e-06
5.3659841e-06
5.9690599e-06
6.6241977e-06
7.3263745e-06
8.0662283e-06
8.8340926e-06
9.61929e-06
1.0408024e-05
1.1176499e-05
1.1901485e-05
1.2568175e-05
1.3170745e-05
1.3707829e-05
1.4182066e-05
1.4599808e-05
1.4969451e-05
1.5299599e-05
1.5597916e-05
1.5870855e-05
1.6123491e-05
1.635961e-05
1.6581975e-05
1.6792416e-05
1.6991892e-05
1.7181569e-05
1.7362212e-05
1.7533987e-05
1.7696698e-05
1.7849475e-05
1.7986522e-05
1.8107792e-05
1.8214808e-05
1.8308641e-05
1.8389891e-05
1.8458907e-05
1.8516263e-05
1.8562598e-05
1.8598721e-05
1.8625454e-05
1.8643614e-05
1.8654063e-05
1.8657563e-05
1.8654774e-05
1.8646425e-05
1.863316e-05
1.8615632e-05
1.8593889e-05
1.8569501e-05
1.8541048e-05
1.8499962e-05
1.8478904e-05
1.8402155e-05
1.7530519e-07
2.1588565e-07
3.1856896e-07
4.6495084e-07
6.0525534e-07
7.1034116e-07
7.7987996e-07
8.2292332e-07
8.4803424e-07
8.6129493e-07
8.6699174e-07
8.6870775e-07
8.6924447e-07
8.706327e-07
8.7463282e-07
8.8292273e-07
8.9634382e-07
9.1553927e-07
9.4161474e-07
9.7583195e-07
1.0156197e-06
1.0618048e-06
1.0570458e-06
1.0562479e-06
1.0670803e-06
1.0882335e-06
1.1196838e-06
1.1617387e-06
1.2148828e-06
1.279823e-06
1.3575293e-06
1.4493313e-06
1.5571555e-06
1.6840298e-06
1.8350276e-06
2.0181811e-06
2.2359853e-06
2.4751992e-06
2.7408042e-06
3.0384774e-06
3.3740106e-06
3.7535151e-06
4.1837363e-06
4.6725586e-06
5.2299894e-06
5.855314e-06
6.5392273e-06
7.2796339e-06
8.078262e-06
8.9362526e-06
9.85264e-06
1.0822854e-05
1.1837067e-05
1.2881886e-05
1.3946054e-05
1.499746e-05
1.600525e-05
1.6954198e-05
1.7837632e-05
1.8655259e-05
1.9409197e-05
2.0102409e-05
2.0739666e-05
2.1327182e-05
2.1871591e-05
2.2379347e-05
2.2856555e-05
2.330838e-05
2.3738853e-05
2.415111e-05
2.454625e-05
2.4923799e-05
2.5288592e-05
2.5641338e-05
2.5981834e-05
2.6309384e-05
2.6622294e-05
2.6918743e-05
2.7195522e-05
2.7451239e-05
2.7685809e-05
2.7899483e-05
2.8092475e-05
2.8265352e-05
2.8418895e-05
2.8554174e-05
2.8672378e-05
2.8774734e-05
2.886259e-05
2.8937203e-05
2.8999039e-05
2.904984e-05
2.9090862e-05
2.9123153e-05
2.9147172e-05
2.916452e-05
2.9175615e-05
2.9165267e-05
2.9175051e-05
2.9133788e-05
1.6890581e-07
1.7480082e-07
1.9622497e-07
2.4158829e-07
3.0835802e-07
3.8393117e-07
4.5672166e-07
5.2095146e-07
5.7520441e-07
6.1994937e-07
6.5623654e-07
6.854013e-07
7.0891485e-07
7.2822712e-07
7.447929e-07
7.6008965e-07
7.754542e-07
7.9212441e-07
8.1143325e-07
8.3488142e-07
8.6342681e-07
8.9842929e-07
9.4047526e-07
9.8982623e-07
1.0449887e-06
1.1061111e-06
1.1741445e-06
1.208337e-06
1.233282e-06
1.2729234e-06
1.3285481e-06
1.4020466e-06
1.4958852e-06
1.6130779e-06
1.7575573e-06
1.9348202e-06
2.1514234e-06
2.4125001e-06
2.7238766e-06
3.0927511e-06
3.527737e-06
4.0392515e-06
4.6407078e-06
5.3515312e-06
6.2043786e-06
6.9692413e-06
7.8046273e-06
8.7621468e-06
9.8394438e-06
1.103026e-05
1.2321764e-05
1.3690585e-05
1.5103399e-05
1.6563589e-05
1.8073161e-05
1.9177925e-05
2.0095452e-05
2.1003293e-05
2.1904222e-05
2.2797528e-05
2.3678079e-05
2.4540683e-05
2.5381841e-05
2.6198975e-05
2.6990538e-05
2.7757044e-05
2.8500287e-05
2.9221884e-05
2.9923423e-05
3.0606654e-05
3.127282e-05
3.1922187e-05
3.2555238e-05
3.3172051e-05
3.377181e-05
3.4353208e-05
3.4913794e-05
3.5451839e-05
3.596428e-05
3.6448192e-05
3.6901922e-05
3.7324784e-05
3.771653e-05
3.8077503e-05
3.8408472e-05
3.8710652e-05
3.8985502e-05
3.9234625e-05
3.9459869e-05
3.9663038e-05
3.9845838e-05
4.0010022e-05
4.0157231e-05
4.0288961e-05
4.0406331e-05
4.0510682e-05
4.0605209e-05
4.0668607e-05
4.0745009e-05
4.079003e-05
1.68181e-07
1.6866166e-07
1.7195742e-07
1.8125913e-07
1.9895197e-07
2.2489654e-07
2.572754e-07
2.9357029e-07
3.3180292e-07
3.7051564e-07
4.0854615e-07
4.449829e-07
4.792235e-07
5.1094934e-07
5.4013834e-07
5.6705213e-07
5.9214707e-07
6.1600546e-07
6.3935284e-07
6.6307818e-07
6.8810826e-07
7.1550447e-07
7.4634586e-07
7.8170131e-07
8.2233155e-07
8.6917947e-07
9.2355485e-07
9.8583227e-07
1.0558472e-06
1.1347918e-06
1.2243707e-06
1.3267279e-06
1.4276352e-06
1.4948714e-06
1.5856941e-06
1.7047966e-06
1.8584545e-06
2.0547303e-06
2.3033975e-06
2.6161153e-06
3.006934e-06
3.4927071e-06
4.0933896e-06
4.8324266e-06
5.7384493e-06
6.7097827e-06
7.7075485e-06
8.8170298e-06
1.0049687e-05
1.1405657e-05
1.2869673e-05
1.4406823e-05
1.597158e-05
1.7626726e-05
1.939265e-05
2.0669749e-05
2.1768388e-05
2.2849642e-05
2.3923837e-05
2.4999792e-05
2.6079846e-05
2.7164679e-05
2.8249609e-05
2.9329229e-05
3.0400078e-05
3.1460957e-05
3.251034e-05
3.3546058e-05
3.4567543e-05
3.5575092e-05
3.656827e-05
3.7546303e-05
3.8508258e-05
3.9452846e-05
4.0377782e-05
4.1280613e-05
4.2157889e-05
4.3006509e-05
4.3823373e-05
4.4604999e-05
4.5348389e-05
4.6051555e-05
4.6713353e-05
4.733349e-05
4.7912393e-05
4.8451112e-05
4.8951075e-05
4.9414015e-05
4.9842115e-05
5.0237595e-05
5.0602866e-05
5.0940113e-05
5.1251418e-05
5.1538683e-05
5.1803811e-05
5.2047702e-05
5.2276529e-05
5.2464962e-05
5.2652124e-05
5.2845431e-05
1.6814558e-07
1.6787293e-07
1.6803229e-07
1.6934651e-07
1.7271284e-07
1.7877128e-07
1.8775337e-07
1.9960462e-07
2.1418741e-07
2.3138462e-07
2.5106239e-07
2.7272763e-07
2.9591165e-07
3.2014176e-07
3.4498183e-07
3.7008225e-07
3.9519546e-07
4.2017514e-07
4.4500065e-07
4.6979833e-07
4.9482317e-07
5.2046264e-07
5.4723728e-07
5.7579324e-07
6.0683533e-07
6.411701e-07
6.7978421e-07
7.2365332e-07
7.7366882e-07
8.3099102e-07
8.9716917e-07
9.7363536e-07
1.0619038e-06
1.1633363e-06
1.2801429e-06
1.4151957e-06
1.5722889e-06
1.7565657e-06
1.928496e-06
2.1214014e-06
2.3731294e-06
2.7010131e-06
3.1275948e-06
3.6822067e-06
4.4018688e-06
5.3212133e-06
6.2975331e-06
7.3655113e-06
8.5759127e-06
9.9380087e-06
1.1453443e-05
1.311145e-05
1.4888173e-05
1.6777171e-05
1.8775105e-05
2.0624441e-05
2.1909168e-05
2.3189463e-05
2.443765e-05
2.567459e-05
2.6932878e-05
2.8216629e-05
2.9508082e-05
3.0809378e-05
3.2126544e-05
3.3455092e-05
3.4789422e-05
3.6126212e-05
3.7464772e-05
3.8802944e-05
4.0136895e-05
4.1464537e-05
4.2784021e-05
4.4091948e-05
4.5383219e-05
4.6653432e-05
4.7897301e-05
4.9109585e-05
5.0286199e-05
5.1423012e-05
5.2515844e-05
5.3561381e-05
5.4557272e-05
5.5502102e-05
5.6395551e-05
5.7238094e-05
5.8030669e-05
5.8774756e-05
5.9472554e-05
6.0126424e-05
6.0739065e-05
6.1313077e-05
6.1850908e-05
6.2354775e-05
6.2827352e-05
6.3269012e-05
6.3688578e-05
6.4059201e-05
6.4408805e-05
6.4820408e-05
1.6818988e-07
1.6781418e-07
1.6749277e-07
1.6735565e-07
1.6761814e-07
1.6851587e-07
1.7024557e-07
1.7296128e-07
1.7680242e-07
1.819092e-07
1.8841284e-07
1.963922e-07
2.0587927e-07
2.168568e-07
2.2933877e-07
2.4327679e-07
2.585008e-07
2.7485189e-07
2.9220217e-07
3.1046263e-07
3.2959257e-07
3.4961198e-07
3.706137e-07
3.9277684e-07
4.1636494e-07
4.417353e-07
4.6936733e-07
4.9985223e-07
5.3387327e-07
5.7225145e-07
6.1601483e-07
6.663558e-07
7.2465808e-07
7.9249431e-07
8.7182032e-07
9.6459991e-07
1.073568e-06
1.2023141e-06
1.3546162e-06
1.5353794e-06
1.7516035e-06
2.0126509e-06
2.3307341e-06
2.7214963e-06
3.1865774e-06
3.7661632e-06
4.519524e-06
5.3774178e-06
6.3846775e-06
7.5557836e-06
8.9031056e-06
1.0432879e-05
1.2141502e-05
1.4023658e-05
1.6074936e-05
1.8246432e-05
2.0453035e-05
2.2483204e-05
2.3872801e-05
2.5254728e-05
2.665929e-05
2.8073436e-05
2.9487704e-05
3.0934191e-05
3.2433404e-05
3.3954325e-05
3.5496875e-05
3.7070482e-05
3.86715e-05
4.0292599e-05
4.1929323e-05
4.3581544e-05
4.5244632e-05
4.6912049e-05
4.8574999e-05
5.0226315e-05
5.1857457e-05
5.3460836e-05
5.503069e-05
5.656112e-05
5.8046408e-05
5.9481923e-05
6.0863673e-05
6.2188529e-05
6.3454925e-05
6.4662195e-05
6.5810159e-05
6.6899507e-05
6.7931909e-05
6.8909401e-05
6.9834523e-05
7.0709962e-05
7.1538324e-05
7.2321957e-05
7.3064163e-05
7.3764722e-05
7.4434506e-05
7.5047256e-05
7.5615968e-05
7.6319806e-05
1.6824343e-07
1.6785082e-07
1.6745962e-07
1.6708844e-07
1.6677823e-07
1.6658695e-07
1.6657935e-07
1.6682275e-07
1.6739023e-07
1.6836373e-07
1.6983272e-07
1.7188801e-07
1.7461757e-07
1.7810177e-07
1.8241687e-07
1.8763002e-07
1.9378898e-07
2.009246e-07
2.0905565e-07
2.1819493e-07
2.283824e-07
2.3970258e-07
2.5217413e-07
2.6580377e-07
2.8064299e-07
2.9679825e-07
3.1443984e-07
3.3381588e-07
3.55259e-07
3.7919302e-07
4.0615923e-07
4.3683339e-07
4.7205226e-07
5.1284131e-07
5.6047761e-07
6.1646668e-07
6.82694e-07
7.6158386e-07
8.5607879e-07
9.6952935e-07
1.106527e-06
1.2731144e-06
1.4772532e-06
1.729387e-06
2.0427369e-06
2.4337893e-06
2.9207628e-06
3.5196228e-06
4.2476926e-06
5.1235078e-06
6.1662368e-06
7.3939158e-06
8.8205984e-06
1.0456396e-05
1.2308667e-05
1.4364523e-05
1.6579774e-05
1.8900595e-05
2.1257096e-05
2.3634719e-05
2.5604988e-05
2.7112592e-05
2.8629621e-05
3.0181999e-05
3.1767963e-05
3.337059e-05
3.5017251e-05
3.6740465e-05
3.8507082e-05
4.0312039e-05
4.216694e-05
4.4073227e-05
4.6016821e-05
4.7987902e-05
4.9978677e-05
5.1978223e-05
5.3974019e-05
5.5957633e-05
5.7920666e-05
5.9853564e-05
6.1748795e-05
6.3599868e-05
6.5400041e-05
6.7143865e-05
6.8827788e-05
7.0449061e-05
7.2005691e-05
7.3496821e-05
7.4922707e-05
7.6284354e-05
7.7583549e-05
7.882249e-05
8.0003608e-05
8.1129023e-05
8.2202395e-05
8.3222815e-05
8.4202504e-05
8.5117184e-05
8.5963701e-05
8.7033623e-05
1.6834515e-07
1.6795298e-07
1.6755452e-07
1.6715113e-07
1.6674926e-07
1.663604e-07
1.6600038e-07
1.6568881e-07
1.6544953e-07
1.6531142e-07
1.6530878e-07
1.6548101e-07
1.6587212e-07
1.6652976e-07
1.6750471e-07
1.6885025e-07
1.7062049e-07
1.7286872e-07
1.7564675e-07
1.7900492e-07
1.8299472e-07
1.8767239e-07
1.930928e-07
1.9930967e-07
2.0638074e-07
2.1437325e-07
2.2337645e-07
2.3355154e-07
2.4510178e-07
2.581892e-07
2.730117e-07
2.8985593e-07
3.0911375e-07
3.3130125e-07
3.5709186e-07
3.8732973e-07
4.2307628e-07
4.6569412e-07
5.1692165e-07
5.7891886e-07
6.5448824e-07
7.4732421e-07
8.6229282e-07
1.0057377e-06
1.186171e-06
1.4147483e-06
1.7053804e-06
2.0737522e-06
2.5373938e-06
3.1155996e-06
3.8292554e-06
4.7003468e-06
5.7508969e-06
7.0021875e-06
8.4746069e-06
1.018115e-05
1.211716e-05
1.4260348e-05
1.6566643e-05
1.9001087e-05
2.1511159e-05
2.4054528e-05
2.6628773e-05
2.8804739e-05
3.0458977e-05
3.2132112e-05
3.3853728e-05
3.5626169e-05
3.7433647e-05
3.9300999e-05
4.1269652e-05
4.3312758e-05
4.5415378e-05
4.7584477e-05
4.9808876e-05
5.207108e-05
5.4360822e-05
5.6670393e-05
5.8985216e-05
6.129182e-05
6.3581737e-05
6.5844361e-05
6.8068897e-05
7.0247504e-05
7.2373475e-05
7.4440586e-05
7.644418e-05
7.8380812e-05
8.0248272e-05
8.2045648e-05
8.3773155e-05
8.5431699e-05
8.70229e-05
8.8548139e-05
9.0011013e-05
9.1409677e-05
9.2757002e-05
9.4031286e-05
9.5214233e-05
9.6720807e-05
1.6852029e-07
1.6817118e-07
1.6780856e-07
1.6743196e-07
1.6704278e-07
1.666437e-07
1.662388e-07
1.6583349e-07
1.6543459e-07
1.6505059e-07
1.6469202e-07
1.6437176e-07
1.6410538e-07
1.6391122e-07
1.6381056e-07
1.6382768e-07
1.6398979e-07
1.643268e-07
1.6487106e-07
1.6565723e-07
1.6672227e-07
1.6810575e-07
1.6984969e-07
1.7199852e-07
1.7459939e-07
1.7770296e-07
1.8136602e-07
1.8565844e-07
1.9066603e-07
1.964858e-07
2.0323144e-07
2.110431e-07
2.2009933e-07
2.3067397e-07
2.4314581e-07
2.5786569e-07
2.7526414e-07
2.9594455e-07
3.2072493e-07
3.5068842e-07
3.8725786e-07
4.323147e-07
4.8837213e-07
5.5880499e-07
6.4822883e-07
7.6298597e-07
9.1161226e-07
1.1050855e-06
1.3572728e-06
1.6850538e-06
2.1082793e-06
2.6493922e-06
3.3326576e-06
4.1832029e-06
5.2264845e-06
6.4864006e-06
7.980545e-06
9.71623e-06
1.1685114e-05
1.38707e-05
1.6242044e-05
1.8760866e-05
2.1401613e-05
2.4121144e-05
2.6880392e-05
2.9682935e-05
3.2156704e-05
3.3987154e-05
3.5840909e-05
3.7756538e-05
3.9738559e-05
4.1768126e-05
4.3877688e-05
4.6120592e-05
4.8442057e-05
5.0832851e-05
5.3306061e-05
5.5842429e-05
5.8419154e-05
6.1026972e-05
6.3655267e-05
6.6285001e-05
6.8903101e-05
7.1499505e-05
7.4062004e-05
7.6580092e-05
7.904558e-05
8.1451009e-05
8.3790666e-05
8.6060722e-05
8.8258629e-05
9.0382922e-05
9.2433427e-05
9.4409989e-05
9.6315405e-05
9.8146366e-05
9.9915624e-05
0.00010160392
0.00010318079
0.00010518917
1.6867645e-07
1.6839184e-07
1.6809274e-07
1.6777768e-07
1.6744656e-07
1.6710004e-07
1.6673944e-07
1.6636655e-07
1.6598342e-07
1.6559243e-07
1.6519638e-07
1.6479877e-07
1.6440404e-07
1.6401781e-07
1.6364703e-07
1.6330023e-07
1.6298762e-07
1.627213e-07
1.6251528e-07
1.6238566e-07
1.6235064e-07
1.6243071e-07
1.6264866e-07
1.6302974e-07
1.6360176e-07
1.6439522e-07
1.6544386e-07
1.6678577e-07
1.6846461e-07
1.7053037e-07
1.7304099e-07
1.7606485e-07
1.7968398e-07
1.8400343e-07
1.8916108e-07
1.9532293e-07
2.026917e-07
2.1152607e-07
2.2217946e-07
2.3520742e-07
2.5122071e-07
2.7093069e-07
2.9535953e-07
3.2594888e-07
3.6472886e-07
4.1455437e-07
4.7943579e-07
5.6495804e-07
6.7885379e-07
8.3166721e-07
1.0374293e-06
1.314229e-06
1.6846053e-06
2.1750837e-06
2.8149783e-06
3.6342688e-06
4.6602949e-06
5.9142239e-06
7.4080302e-06
9.1459038e-06
1.1122875e-05
1.3324729e-05
1.5735336e-05
1.8327359e-05
2.1066011e-05
2.3931138e-05
2.6888353e-05
2.9895094e-05
3.2959719e-05
3.5735529e-05
3.7767647e-05
3.9816483e-05
4.1934754e-05
4.4132234e-05
4.638955e-05
4.8757977e-05
5.1281922e-05
5.3892852e-05
5.6589485e-05
5.9381617e-05
6.2239696e-05
6.5139787e-05
6.8074856e-05
7.1028047e-05
7.3979296e-05
7.691582e-05
7.9823942e-05
8.2690941e-05
8.5507048e-05
8.8264189e-05
9.0955516e-05
9.3575868e-05
9.612197e-05
9.8590904e-05
0.00010098352
0.00010329416
0.00010553442
0.00010768673
0.00010971289
0.00011228089
1.6876863e-07
1.6852897e-07
1.6827899e-07
1.6801691e-07
1.677418e-07
1.6745327e-07
1.671515e-07
1.6683701e-07
1.6651049e-07
1.6617255e-07
1.6582383e-07
1.6546497e-07
1.6509685e-07
1.6472064e-07
1.6433798e-07
1.6395104e-07
1.6356266e-07
1.6317649e-07
1.6279709e-07
1.6243006e-07
1.620822e-07
1.6176157e-07
1.6147773e-07
1.6124178e-07
1.6106658e-07
1.6096681e-07
1.6095926e-07
1.6106303e-07
1.6129996e-07
1.6169499e-07
1.6227681e-07
1.6307866e-07
1.641393e-07
1.6550495e-07
1.6723229e-07
1.6939065e-07
1.7206494e-07
1.7536066e-07
1.7941322e-07
1.8440788e-07
1.9058156e-07
1.982329e-07
2.0775741e-07
2.1971326e-07
2.3499162e-07
2.5463257e-07
2.8005446e-07
3.133953e-07
3.578106e-07
4.1790126e-07
5.0030216e-07
6.1451053e-07
7.7398306e-07
9.973253e-07
1.3092255e-06
1.7404828e-06
2.3263628e-06
3.1019616e-06
4.0960929e-06
5.3274483e-06
6.8044416e-06
8.5277692e-06
1.0495527e-05
1.2701193e-05
1.5131373e-05
1.7772537e-05
2.0602277e-05
2.3586524e-05
2.6708176e-05
2.9937794e-05
3.322925e-05
3.6593836e-05
3.9597592e-05
4.1818543e-05
4.4074597e-05
4.6417393e-05
4.8849343e-05
5.1349103e-05
5.401086e-05
5.6838203e-05
5.9755747e-05
6.2779226e-05
6.5907369e-05
6.9101501e-05
7.2341541e-05
7.5616723e-05
7.8902154e-05
8.2181842e-05
8.5441765e-05
8.8667397e-05
9.184641e-05
9.4968492e-05
9.8025848e-05
0.00010101112
0.00010392173
0.00010674844
0.00010950021
0.00011215993
0.00011468632
0.0001178618
1.6881492e-07
1.685986e-07
1.6837566e-07
1.6814468e-07
1.6790467e-07
1.6765497e-07
1.6739529e-07
1.6712566e-07
1.6684631e-07
1.6655739e-07
1.6625901e-07
1.6595113e-07
1.6563372e-07
1.6530677e-07
1.6497035e-07
1.6462465e-07
1.6427005e-07
1.6390718e-07
1.6353698e-07
1.6316074e-07
1.6278023e-07
1.6239775e-07
1.6201624e-07
1.6163936e-07
1.6127165e-07
1.609186e-07
1.6058679e-07
1.6028405e-07
1.6001965e-07
1.5980444e-07
1.5965118e-07
1.5957481e-07
1.5959283e-07
1.5972584e-07
1.5999837e-07
1.6043989e-07
1.6108595e-07
1.6197979e-07
1.6317494e-07
1.6473966e-07
1.6676117e-07
1.6935069e-07
1.7265278e-07
1.7686084e-07
1.8225045e-07
1.8919139e-07
1.9818957e-07
2.0997024e-07
2.2571048e-07
2.4708772e-07
2.7634817e-07
3.1700858e-07
3.7447737e-07
4.5696014e-07
5.767252e-07
7.5175429e-07
1.0074576e-06
1.3773211e-06
1.9009114e-06
2.6181577e-06
3.5618766e-06
4.7518131e-06
6.1954282e-06
7.8926793e-06
9.8406276e-06
1.2037784e-05
1.4480607e-05
1.7157505e-05
2.0056755e-05
2.3158517e-05
2.6427653e-05
2.9848336e-05
3.3387557e-05
3.6999432e-05
4.0697545e-05
4.378658e-05
4.6216446e-05
4.8698642e-05
5.128795e-05
5.3969576e-05
5.67394e-05
5.9727207e-05
6.2876753e-05
6.6134254e-05
6.9511607e-05
7.2991146e-05
7.6532257e-05
8.0125275e-05
8.3748989e-05
8.7379646e-05
9.1000417e-05
9.4593834e-05
9.814674e-05
0.00010164525
0.00010508213
0.00010844287
0.00011173196
0.00011493141
0.00011799893
0.00012181554
1.6883665e-07
1.6863109e-07
1.6842098e-07
1.6820535e-07
1.6798345e-07
1.6775467e-07
1.6751867e-07
1.6727537e-07
1.6702483e-07
1.6676714e-07
1.6650232e-07
1.6623028e-07
1.6595086e-07
1.6566388e-07
1.6536911e-07
1.6506635e-07
1.6475539e-07
1.6443608e-07
1.6410833e-07
1.6377214e-07
1.6342764e-07
1.6307511e-07
1.6271504e-07
1.6234816e-07
1.6197553e-07
1.6159858e-07
1.6121918e-07
1.6083974e-07
1.604633e-07
1.6009363e-07
1.5973536e-07
1.5939414e-07
1.5907676e-07
1.5879145e-07
1.5854807e-07
1.5835854e-07
1.5823722e-07
1.582015e-07
1.582726e-07
1.5847675e-07
1.5884669e-07
1.5942359e-07
1.6025986e-07
1.614235e-07
1.6300546e-07
1.6512834e-07
1.6795954e-07
1.7173326e-07
1.7679828e-07
1.8366912e-07
1.9308892e-07
2.061838e-07
2.2482577e-07
2.518532e-07
2.9145172e-07
3.5042726e-07
4.3957842e-07
5.7548657e-07
7.8248412e-07
1.093842e-06
1.5507439e-06
2.1975406e-06
3.0730191e-06
4.2028484e-06
5.5972258e-06
7.256532e-06
9.1788292e-06
1.1362885e-05
1.3810237e-05
1.6520332e-05
1.948195e-05
2.2683395e-05
2.6102187e-05
2.970103e-05
3.3464887e-05
3.7346186e-05
4.1312158e-05
4.5376847e-05
4.8386671e-05
5.1035157e-05
5.3764345e-05
5.6616952e-05
5.9558687e-05
6.2672601e-05
6.6006873e-05
6.9492907e-05
7.3113289e-05
7.6866509e-05
8.0717238e-05
8.4633979e-05
8.859949e-05
9.2585469e-05
9.6574432e-05
0.00010054373
0.0001044812
0.00010836494
0.000112193
0.00011594554
0.0001195747
0.00012404542
1.6884617e-07
1.6864523e-07
1.6844073e-07
1.6823203e-07
1.6801862e-07
1.6780002e-07
1.6757593e-07
1.6734627e-07
1.6711109e-07
1.6687048e-07
1.6662446e-07
1.6637303e-07
1.6611608e-07
1.6585349e-07
1.6558508e-07
1.6531066e-07
1.6503001e-07
1.6474291e-07
1.6444912e-07
1.6414842e-07
1.6384058e-07
1.6352542e-07
1.6320278e-07
1.6287255e-07
1.6253473e-07
1.6218939e-07
1.6183674e-07
1.6147718e-07
1.6111131e-07
1.6074e-07
1.6036445e-07
1.5998624e-07
1.5960744e-07
1.5923069e-07
1.5885928e-07
1.5849738e-07
1.581501e-07
1.5782379e-07
1.5752628e-07
1.5726723e-07
1.5705866e-07
1.5691554e-07
1.5685669e-07
1.5690609e-07
1.5709473e-07
1.5746343e-07
1.5806694e-07
1.5898015e-07
1.603094e-07
1.6220901e-07
1.649046e-07
1.6873416e-07
1.7423087e-07
1.8223181e-07
1.9404157e-07
2.1177349e-07
2.3916003e-07
2.8180025e-07
3.4880566e-07
4.5469491e-07
6.2141656e-07
8.8014526e-07
1.2713818e-06
1.8418085e-06
2.6368792e-06
3.6910139e-06
5.0220643e-06
6.63378e-06
8.5244749e-06
1.0694687e-05
1.3146829e-05
1.588537e-05
1.8909823e-05
2.2206719e-05
2.5762775e-05
2.9546108e-05
3.3520349e-05
3.7671558e-05
4.1926278e-05
4.627898e-05
5.055876e-05
5.345448e-05
5.6335478e-05
5.9335877e-05
6.2460327e-05
6.5690543e-05
6.9200946e-05
7.2907314e-05
7.6785562e-05
8.081049e-05
8.4963844e-05
8.920496e-05
9.3514587e-05
9.7860975e-05
0.00010222707
0.00010658124
0.00011091368
0.00011520205
0.00011937948
0.00012448713
1.6884974e-07
1.6865056e-07
1.6844828e-07
1.6824248e-07
1.6803279e-07
1.6781885e-07
1.6760043e-07
1.6737747e-07
1.6714999e-07
1.669181e-07
1.6668185e-07
1.6644127e-07
1.6619634e-07
1.6594701e-07
1.6569319e-07
1.6543476e-07
1.651716e-07
1.6490357e-07
1.646305e-07
1.643522e-07
1.640685e-07
1.6377919e-07
1.6348405e-07
1.6318289e-07
1.628755e-07
1.6256166e-07
1.6224122e-07
1.6191402e-07
1.6157997e-07
1.6123904e-07
1.6089129e-07
1.605369e-07
1.601762e-07
1.5980971e-07
1.594382e-07
1.5906271e-07
1.5868469e-07
1.5830599e-07
1.5792905e-07
1.5755697e-07
1.571937e-07
1.5684425e-07
1.5651499e-07
1.5621398e-07
1.5595159e-07
1.5574124e-07
1.5560063e-07
1.5555355e-07
1.5563276e-07
1.5588458e-07
1.5637598e-07
1.5720584e-07
1.5852555e-07
1.6057169e-07
1.6371795e-07
1.685692e-07
1.7615488e-07
1.8815728e-07
2.0737701e-07
2.3870482e-07
2.8982056e-07
3.7293943e-07
5.0714661e-07
7.2044093e-07
1.0510369e-06
1.5459931e-06
2.2557516e-06
3.2246598e-06
4.4812648e-06
6.0370252e-06
7.8925977e-06
1.0047918e-05
1.2507609e-05
1.5277202e-05
1.8362612e-05
2.1758833e-05
2.5448539e-05
2.9415843e-05
3.3612165e-05
3.8006646e-05
4.2577045e-05
4.723564e-05
5.2005832e-05
5.5897446e-05
5.9010709e-05
6.2162754e-05
6.5469873e-05
6.8880902e-05
7.253679e-05
7.6449582e-05
8.0566901e-05
8.4865464e-05
8.9314186e-05
9.388509e-05
9.8549672e-05
0.00010326812
0.00010802112
0.00011278288
0.00011745442
0.00012313363
1.6885047e-07
1.6865176e-07
1.6845014e-07
1.6824536e-07
1.6803714e-07
1.678252e-07
1.6760937e-07
1.6738959e-07
1.6716588e-07
1.6693833e-07
1.66707e-07
1.6647196e-07
1.6623321e-07
1.6599075e-07
1.6574456e-07
1.6549459e-07
1.6524078e-07
1.6498307e-07
1.6472136e-07
1.6445556e-07
1.6418557e-07
1.6391126e-07
1.6363249e-07
1.6334913e-07
1.6306101e-07
1.6276796e-07
1.6246981e-07
1.6216637e-07
1.6185745e-07
1.6154288e-07
1.6122247e-07
1.6089607e-07
1.6056355e-07
1.6022483e-07
1.5987989e-07
1.5952878e-07
1.5917167e-07
1.5880887e-07
1.5844087e-07
1.5806839e-07
1.5769242e-07
1.5731432e-07
1.5693592e-07
1.5655959e-07
1.5618846e-07
1.5582663e-07
1.554795e-07
1.5515431e-07
1.5486087e-07
1.5461285e-07
1.5442969e-07
1.5433974e-07
1.5438551e-07
1.546325e-07
1.5518384e-07
1.5620566e-07
1.579754e-07
1.6095692e-07
1.6593377e-07
1.7426357e-07
1.8822866e-07
2.116449e-07
2.511126e-07
3.1685929e-07
4.2505565e-07
6.0027305e-07
8.7747541e-07
1.3025101e-06
1.9287899e-06
2.8091181e-06
3.9849416e-06
5.4780946e-06
7.2952383e-06
9.4366478e-06
1.1906449e-05
1.4713007e-05
1.7863336e-05
2.1362466e-05
2.5194905e-05
2.9338119e-05
3.3767934e-05
3.842164e-05
4.3277767e-05
4.827099e-05
5.3369085e-05
5.8445222e-05
6.1815102e-05
6.5163539e-05
6.8622856e-05
7.2226137e-05
7.6022617e-05
8.0144024e-05
8.4479892e-05
8.9064723e-05
9.3828007e-05
9.8742204e-05
0.00010377081
0.00010888277
0.00011395708
0.00012006707
1.6884989e-07
1.6865108e-07
1.6844945e-07
1.6824483e-07
1.6803703e-07
1.6782584e-07
1.676111e-07
1.6739277e-07
1.6717087e-07
1.6694545e-07
1.6671659e-07
1.6648434e-07
1.6624874e-07
1.6600981e-07
1.6576755e-07
1.6552195e-07
1.6527301e-07
1.6502069e-07
1.6476497e-07
1.645058e-07
1.6424315e-07
1.6397695e-07
1.6370714e-07
1.6343364e-07
1.6315638e-07
1.6287525e-07
1.6259014e-07
1.6230096e-07
1.6200755e-07
1.6170979e-07
1.6140753e-07
1.6110061e-07
1.6078888e-07
1.6047215e-07
1.6015029e-07
1.5982313e-07
1.5949054e-07
1.5915242e-07
1.5880871e-07
1.584594e-07
1.5810456e-07
1.5774438e-07
1.5737916e-07
1.570094e-07
1.566358e-07
1.5625937e-07
1.5588149e-07
1.5550408e-07
1.5512979e-07
1.5476232e-07
1.5440698e-07
1.5407147e-07
1.5376727e-07
1.5351192e-07
1.5333289e-07
1.5327423e-07
1.5340875e-07
1.538586e-07
1.5483162e-07
1.5668774e-07
1.6004835e-07
1.6598226e-07
1.7635302e-07
1.9428302e-07
2.2497816e-07
2.7730797e-07
3.6481309e-07
5.087514e-07
7.4058226e-07
1.1037381e-06
1.6527509e-06
2.4469536e-06
3.5396266e-06
4.9665842e-06
6.7428417e-06
8.8720292e-06
1.1356725e-05
1.4206872e-05
1.7431989e-05
2.1037165e-05
2.5020797e-05
2.9353827e-05
3.400941e-05
3.8936064e-05
4.4086478e-05
4.9436015e-05
5.4877397e-05
6.0442197e-05
6.4713369e-05
6.829979e-05
7.194141e-05
7.5743753e-05
7.9684851e-05
8.4019464e-05
8.8609083e-05