/*--------------------------------*- C++ -*----------------------------------*\
| =========                 |                                                 |
| \\      /  F ield         | OpenFOAM: The Open Source CFD Toolbox           |
|  \\    /   O peration     | Version:  2206                                  |
|   \\  /    A nd           | Website:  www.openfoam.com                      |
|    \\/     M anipulation  |                                                 |
\*---------------------------------------------------------------------------*/
FoamFile
{
    version     2.0;
    format      ascii;
    arch        "LSB;label=32;scalar=64";
    class       volScalarField;
    location    "2000";
    object      omega;
}
// * * * * * * * * * * * * * * * * * * * * * * * * * * * * * * * * * * * * * //

dimensions      [0 0 -1 0 0 0 0];

internalField   nonuniform List<scalar> 
7480
(
7569.105
7590.8142
7571.1114
7538.1553
7512.5648
7498.0761
7491.1188
7487.7287
7485.8495
7484.6258
7483.6805
7482.8697
7482.1632
7481.5518
7481.0217
7480.5599
7480.1565
7479.8021
7479.4868
7479.2043
7478.9506
7478.7216
7478.5134
7478.3235
7478.1501
7477.991
7477.8445
7477.7093
7477.5845
7477.469
7477.3619
7477.2627
7477.1707
7477.0854
7477.0063
7476.933
7476.8653
7476.8028
7476.7453
7476.6928
7476.6451
7476.6021
7476.5639
7476.5305
7476.5018
7476.4788
7476.4605
7476.4482
7476.4417
7476.4407
7476.4452
7476.4549
7476.4692
7476.4873
7476.5082
7476.5313
7476.5552
7476.5779
7476.5973
7476.612
7476.6219
7476.6271
7476.6279
7476.625
7476.6193
7476.6114
7476.602
7476.5916
7476.5806
7476.5692
7476.5576
7476.5461
7476.5346
7476.5232
7476.512
7476.501
7476.4901
7476.479
7476.4676
7476.4561
7476.4446
7476.4331
7476.4214
7476.4097
7476.398
7476.3861
7476.3742
7476.3622
7476.3501
7476.338
7476.326
7476.3139
7476.3018
7476.2897
7476.2778
7476.2653
7476.2544
7476.2387
7476.2299
7476.2059
1003.2451
1574.4119
1842.5163
1920.8097
1937.0703
1923.8927
1863.1777
1797.8203
1744.193
1704.0026
1673.3598
1647.7019
1624.4826
1603.0713
1583.278
1564.898
1547.8506
1532.2291
1517.8732
1504.5661
1492.2151
1480.7967
1470.2031
1460.3216
1451.1065
1442.5308
1434.5232
1427.0152
1419.9758
1413.3811
1407.1891
1401.3644
1395.8906
1390.7514
1385.9224
1381.3853
1377.1311
1373.1482
1369.4227
1365.9469
1362.7189
1359.7364
1356.9961
1354.502
1352.2435
1350.237
1348.4845
1346.9757
1345.7329
1344.7477
1344.0405
1343.6449
1343.4557
1343.4401
1343.5607
1343.7791
1344.0528
1344.3219
1344.5259
1344.6218
1344.5802
1344.3988
1344.1241
1343.7469
1343.2667
1342.7066
1342.0882
1341.4323
1340.7545
1340.0666
1339.3776
1338.6941
1338.0199
1337.358
1336.711
1336.0787
1335.4639
1334.8574
1334.2546
1333.657
1333.0646
1332.4774
1331.8948
1331.3143
1330.7357
1330.1576
1329.5802
1329.0036
1328.4279
1327.8538
1327.2811
1326.7107
1326.143
1325.5768
1325.0167
1324.4452
1323.9007
1323.3383
1322.6619
1322.051
190.66642
396.63272
585.96061
709.20988
769.26283
785.38919
782.09177
789.21455
803.68386
812.84819
819.33237
823.55101
825.05135
824.15534
821.42863
817.41124
811.9504
805.29774
797.71169
789.41044
780.60639
771.50374
762.24608
752.93737
743.6824
734.57567
725.63317
716.85517
708.2578
699.86459
691.68998
683.74394
676.04006
668.59082
661.40345
654.4859
647.8479
641.48959
635.40817
629.60426
624.084
618.85504
613.9249
609.30469
604.9994
601.024
597.35922
593.99371
590.92073
588.12876
585.65407
583.50189
581.56617
579.81275
578.21661
576.72456
575.2747
573.82602
572.37008
570.90262
569.42212
567.91482
566.46287
565.0173
563.56035
562.0948
560.62686
559.16541
557.71881
556.294
554.89645
553.5306
552.19957
550.9054
549.64991
548.43221
547.25308
546.13475
545.06069
544.01802
543.00012
542.00379
541.0272
540.06674
539.1205
538.18615
537.26246
536.34849
535.44336
534.54708
533.65887
532.7788
531.90699
531.04181
530.18717
529.32671
528.49336
527.65644
526.73704
525.65195
72.00292
121.36486
193.9958
267.72564
324.62831
359.73858
377.80747
386.78197
392.45279
397.56954
404.52011
415.22939
426.21135
437.93544
452.28255
470.55439
485.14573
496.538
505.30894
511.86869
516.54147
519.61893
521.36014
522.03451
521.95781
521.3764
520.01962
517.8353
514.91137
511.37201
507.33638
502.90829
498.17862
493.22782
488.13048
482.96098
477.76692
472.53134
467.25386
461.95161
456.65083
451.37919
446.16208
441.02381
435.99353
431.06853
426.21434
421.40976
416.64201
411.91859
407.26144
402.76943
398.34421
393.99704
389.76346
385.59846
381.46664
377.41223
373.52349
369.86549
366.45984
363.3241
360.49252
357.88977
355.46621
353.1864
351.02334
348.95827
346.97834
345.07483
343.24168
341.47532
339.77362
338.13423
336.55554
335.03496
333.57161
332.19069
330.88441
329.63722
328.43893
327.28405
326.16981
325.09243
324.049
323.03627
322.05151
321.09239
320.15652
319.24239
318.34807
317.47237
316.61407
315.77125
314.94512
314.12637
313.32395
312.57255
311.71907
310.76041
55.642044
64.5326
83.911038
111.35013
140.42295
165.5303
184.58463
198.13337
207.74401
214.79038
220.42259
225.66529
230.9617
236.83361
244.10081
253.54899
263.34651
273.15049
282.7468
292.00483
300.83119
309.30615
317.72296
326.71465
337.34622
349.8338
359.69545
366.92838
372.21117
375.99423
378.5839
380.20138
381.02509
381.22271
380.98516
380.52387
379.81694
378.47212
376.48561
373.94224
370.93728
367.55329
363.85821
359.91334
355.79238
351.49449
346.95787
342.15838
337.12334
331.89821
326.53167
321.08393
315.62815
310.17438
304.75883
299.33552
293.92993
288.66477
283.66094
278.99543
274.73201
270.88593
267.41667
264.26749
261.38469
258.72175
256.23911
253.90572
251.69791
249.59793
247.59296
245.67501
243.8368
242.07251
240.37812
238.74975
237.18635
235.69076
234.26582
232.90744
231.60987
230.36865
229.18115
228.04408
226.95453
225.90912
224.90463
223.93802
223.0061
222.10639
221.23649
220.39414
219.57715
218.78323
218.01182
217.25792
216.51762
215.8496
215.10076
214.283
53.509937
54.437541
58.088478
65.265811
75.158936
86.042478
96.434786
105.64208
113.54205
120.26147
125.96686
130.87287
135.18424
139.11298
142.9419
147.00996
151.41829
156.26913
161.70845
167.8167
174.15518
180.72247
187.52416
194.61237
202.09922
210.06827
218.05077
225.68877
232.80799
239.34736
245.32042
250.80668
255.97706
261.16163
266.97047
274.12411
281.53836
286.10941
288.75649
290.0867
290.4542
290.07615
289.10531
287.68789
286.00403
284.20272
281.838
278.81523
275.23561
271.20738
266.83067
262.20357
257.42641
252.53062
247.56846
242.61254
237.71742
232.9662
228.44067
224.19019
220.23586
216.58553
213.22211
210.11731
207.24121
204.56348
202.05506
199.69182
197.4536
195.32387
193.29007
191.34397
189.47815
187.68667
185.96529
184.31006
182.72009
181.19026
179.72204
178.31699
176.97418
175.69164
174.46775
173.30007
172.18616
171.12304
170.10763
169.13682
168.20728
167.31612
166.46055
165.63796
164.84574
164.08146
163.34368
162.62922
161.93068
161.30212
160.63097
159.89031
53.224472
52.808927
52.959318
54.085474
56.273592
59.364086
62.973708
66.789588
70.617953
74.356065
77.933793
81.3051
84.448246
87.361172
90.074797
92.657788
95.180311
97.712951
100.3398
103.15147
106.19101
109.52646
113.24076
117.38481
121.86283
126.72417
131.93925
137.42417
143.08216
148.82929
154.59301
160.3162
165.96765
171.55738
177.14092
182.82429
188.52849
193.8041
198.43891
202.38795
205.6878
208.42592
210.75417
212.95184
215.48348
218.48256
219.85898
219.67695
218.49625
216.63026
214.29943
211.70352
209.01008
205.98149
202.56298
199.05833
195.6207
192.2967
189.04663
185.87871
182.81967
179.88402
177.07284
174.38823
171.83053
169.39258
167.0648
164.84033
162.70987
160.66446
158.69705
156.80282
154.97789
153.21953
151.52532
149.89233
148.32023
146.80485
145.34491
143.94205
142.59744
141.31109
140.08258
138.91046
137.79292
136.72762
135.71204
134.7434
133.81855
132.93466
132.08878
131.2783
130.50071
129.75359
129.03522
128.34303
127.67025
127.05788
126.43606
125.73447
53.162331
52.542709
52.021002
51.712916
51.712251
52.047106
52.633152
53.455213
54.479427
55.668433
56.982556
58.383893
59.837192
61.309558
62.775671
64.222952
65.649301
67.059806
68.46887
69.900552
71.380871
72.941123
74.621349
76.467186
78.515166
80.816888
83.429218
86.35605
89.552049
93.015399
96.735749
100.69345
104.86549
109.23233
113.78495
118.52395
123.42942
128.40877
133.3579
138.18048
142.79578
147.14182
151.17538
154.88059
158.27972
161.33871
163.88217
165.77012
167.00287
167.67363
167.9351
167.98741
167.98172
167.24871
165.73644
163.88793
162.06069
160.27982
158.32411
156.29511
154.2549
152.20336
150.13623
148.07539
146.03765
144.02681
142.04923
140.11708
138.22882
136.385
134.58726
132.83689
131.13455
129.4832
127.88352
126.33394
124.8358
123.38744
121.98689
120.63502
119.33339
118.08317
116.88495
115.73832
114.64211
113.595
112.59531
111.64095
110.7292
109.8577
109.02387
108.22531
107.45994
106.7255
106.02037
105.34227
104.68632
104.08075
103.48882
102.80745
53.125971
52.475696
51.839236
51.240904
50.711053
50.272511
49.929491
49.684294
49.539049
49.482995
49.493864
49.598216
49.79596
50.077125
50.42817
50.836005
51.290401
51.783196
52.309131
52.866862
53.458201
54.087834
54.764501
55.501548
56.315171
57.226229
58.261303
59.446273
60.802629
62.356217
64.137115
66.147997
68.386131
70.857859
73.574601
76.54522
79.776106
83.259943
86.97406
90.887696
94.965003
99.16551
103.44522
107.75804
112.06399
116.26347
120.21216
123.79849
126.93376
129.56164
131.65541
133.21742
134.27849
134.88527
135.04523
134.79669
134.37818
133.84889
132.999
132.01597
130.99494
129.84865
128.54842
127.16552
125.72557
124.22804
122.69519
121.14577
119.58661
118.02712
116.47665
114.94273
113.43058
111.95257
110.51089
109.10367
107.73553
106.40604
105.11313
103.85799
102.64227
101.46745
100.33475
99.244648
98.196484
97.190273
96.22557
95.301131
94.414722
93.564877
92.749751
91.96744
91.21661
90.495335
89.802329
89.135691
88.492498
87.891074
87.317566
86.647982
53.095948
52.439147
51.783104
51.131679
50.491701
49.870513
49.273632
48.705701
48.171501
47.674803
47.217161
46.802652
46.434864
46.115508
45.830052
45.572594
45.355787
45.185083
45.06068
44.981059
44.944122
44.947439
44.990112
45.073624
45.201423
45.378915
45.614022
45.916654
46.298137
46.771833
47.353984
48.060606
48.908237
49.916337
51.108627
52.491654
54.082305
55.899243
57.954038
60.255494
62.812818
65.632763
68.719525
72.07458
75.697872
79.568743
83.604263
87.702336
91.758752
95.666257
99.319495
102.62004
105.48357
107.8545
109.69428
110.9254
111.55551
111.76217
111.74504
111.56476
111.3264
110.96288
110.42154
109.77354
109.0165
108.09423
107.07023
105.96915
104.79646
103.57369
102.31731
101.04276
99.760426
98.502577
97.263988
96.042143
94.840456
93.660774
92.503287
91.36955
90.261425
89.18071
88.129322
87.10867
86.118236
85.159658
84.235101
83.344096
82.485067
81.657281
80.859838
80.091497
79.35217
78.640083
77.95458
77.294316
76.657968
76.05691
75.492181
74.827437
53.069587
52.409406
51.748193
51.086218
50.424602
49.764891
49.108848
48.458506
47.816273
47.184753
46.566418
45.96382
45.379541
44.815988
44.273879
43.753342
43.255769
42.782951
42.336507
41.917605
41.521876
41.139018
40.773821
40.435785
40.13094
39.862793
39.633962
39.446729
39.303577
39.208593
39.16788
39.188882
39.280325
39.452501
39.717793
40.08878
40.580455
41.211175
42.000953
42.960984
44.111378
45.474148
47.073358
48.935188
51.088171
53.562813
56.377824
59.521549
62.964385
66.653377
70.511033
74.435546
78.304173
81.98668
85.360039
88.283015
90.625411
92.357287
93.52077
94.224924
94.588917
94.757778
94.786619
94.711572
94.547491
94.224647
93.78435
93.226336
92.520495
91.714834
90.829615
89.893645
88.916769
87.933613
86.937797
85.930391
84.91719
83.902176
82.888451
81.879854
80.879702
79.89114
78.917604
77.961904
77.025719
76.111424
75.221533
74.35727
73.518952
72.70688
71.921104
71.161365
70.427637
69.71924
69.036137
68.377347
67.742894
67.139389
66.576909
65.912437
53.031582
52.367519
51.702591
51.036557
50.369402
49.70117
49.032124
48.362855
47.694284
47.027554
46.363909
45.704656
45.051174
44.404893
43.767129
43.139063
42.521885
41.916829
41.325151
40.748092
40.186338
39.639504
39.10775
38.592204
38.094489
37.616377
37.15897
36.716482
36.283735
35.869312
35.483629
35.133878
34.825184
34.561554
34.346695
34.185784
34.085876
34.055969
34.10688
34.25009
34.499465
34.872148
35.387741
36.066078
36.935218
38.029652
39.388928
41.051934
43.054691
45.424891
48.174874
51.293209
54.735999
58.422294
62.237437
66.027952
69.606116
72.798676
75.475374
77.599196
79.181363
80.300758
81.055549
81.523848
81.795921
81.937396
81.959963
81.885633
81.67806
81.359103
80.923735
80.394637
79.791594
79.122395
78.394871
77.622503
76.815707
75.980658
75.123822
74.252005
73.370573
72.484574
71.599248
70.718786
69.846603
68.986309
68.141093
67.313351
66.504796
65.716704
64.950021
64.205349
63.483195
62.78366
62.107126
61.452987
60.822307
60.218792
59.658095
58.995004
52.973204
52.294048
51.616381
50.939844
50.264019
49.5884
48.912623
48.236616
47.560596
46.88497
46.210229
45.536906
44.865579
44.196876
43.531464
42.870041
42.213342
41.562138
40.917239
40.279491
39.649722
39.028633
38.416874
37.815144
37.22423
36.645009
36.078369
35.524515
34.983099
34.454718
33.941024
33.444235
32.966502
32.50397
32.049773
31.613759
31.208345
30.841592
30.519112
30.244935
30.024026
29.864064
29.775038
29.768993
29.86133
30.072348
30.427416
30.956579
31.698481
32.698386
34.006291
35.672629
37.740961
40.236599
43.154246
46.443323
49.993766
53.641463
57.189323
60.459998
63.316671
65.690247
67.585024
69.026127
70.073973
70.816214
71.309728
71.626391
71.81669
71.88816
71.860637
71.72303
71.493975
71.183381
70.771785
70.284484
69.734803
69.127588
68.47124
67.775623
67.048416
66.29652
65.527379
64.746928
63.960505
63.173568
62.39042
61.614764
60.849743
60.097733
59.360742
58.640316
57.93769
57.253765
56.589492
55.944802
55.321619
54.721882
54.164582
53.504959
52.922335
52.222321
51.524723
50.829565
50.136636
49.445508
48.755764
48.06718
47.379765
46.6937
46.009243
45.326675
44.646289
43.968392
43.293303
42.621351
41.952886
41.288275
40.627902
39.972174
39.32152
38.676374
38.037173
37.40437
36.77844
36.159886
35.549248
34.947026
34.353633
33.769497
33.195178
32.631412
32.079066
31.538483
31.009233
30.492035
29.988893
29.502432
29.033542
28.572518
28.123772
27.70265
27.318985
26.978969
26.687252
26.45098
26.281277
26.193125
26.206558
26.348168
26.652127
27.160949
27.928071
29.014764
30.484231
32.389926
34.756743
37.558997
40.705493
44.048795
47.407922
50.604267
53.502244
56.009799
58.086972
59.75316
61.037709
61.987823
62.677052
63.149965
63.469738
63.659244
63.738511
63.737525
63.645733
63.470121
63.222962
62.888384
62.4755
61.999853
61.468938
60.888931
60.270433
59.621031
58.947788
58.258665
57.559227
56.854776
56.150184
55.449108
54.754889
54.070167
53.397096
52.737499
52.09302
51.464271
50.853961
50.26306
49.71255
49.059851
52.892375
52.177666
51.46459
50.75349
50.044492
49.337485
48.632284
47.928777
47.226996
46.527101
45.829321
45.133917
44.441162
43.751335
43.064717
42.381592
41.702242
41.026953
40.356011
39.689699
39.028303
38.372107
37.721389
37.076427
36.437495
35.804865
35.178812
34.559612
33.947527
33.342814
32.745743
32.156611
31.57576
31.003513
30.440104
29.885816
29.341113
28.806684
28.283222
27.770245
27.267849
26.777888
26.303075
25.844085
25.389531
24.949263
24.539679
24.170386
23.848348
23.582177
23.386285
23.281089
23.29477
23.465603
23.843592
24.489949
25.475398
26.86736
28.709836
31.001728
33.682387
36.633029
39.69995
42.719462
45.545227
48.077212
50.255283
52.05611
53.503886
54.627499
55.466724
56.077173
56.49939
56.776058
56.948998
57.031477
57.040805
56.971143
56.822534
56.606401
56.311986
55.940713
55.511208
55.028854
54.501076
53.939706
53.350385
52.74041
52.116909
51.484876
50.849383
50.214361
49.583116
48.958632
48.34337
47.738793
47.148401
46.572754
46.034163
45.393305
52.877465
52.15473
51.43274
50.711929
49.99257
49.274752
48.558477
47.843764
47.130706
46.419482
45.710328
45.003512
44.299318
43.598039
42.899974
42.205422
41.514683
40.828055
40.145835
39.468314
38.795781
38.128518
37.4668
36.810897
36.161066
35.517559
34.880615
34.250463
33.627322
33.011392
32.402863
31.801915
31.20872
30.623437
30.04621
29.477172
28.916464
28.364256
27.820752
27.286054
26.76025
26.243606
25.736656
25.239922
24.75255
24.274987
23.809582
23.359461
22.917061
22.481605
22.074448
21.708556
21.393813
21.143416
20.97911
20.932172
21.045925
21.377227
21.993061
22.961945
24.339617
26.147583
28.357514
30.88705
33.610266
36.383676
39.068491
41.547704
43.747632
45.628844
47.179138
48.422163
49.384048
50.097006
50.616927
50.981521
51.218364
51.3607
51.432243
51.434402
51.36421
51.220774
51.016933
50.736006
50.386286
49.987073
49.537944
49.049765
48.532399
47.991359
47.434072
46.8658
46.291295
45.715052
45.140476
44.570144
44.008416
43.455875
42.936054
42.313509
52.870877
52.14407
51.417443
50.691433
49.966359
49.242392
48.519627
47.798156
47.078111
46.359681
45.643101
44.928634
44.216563
43.507183
42.800795
42.097704
41.398217
40.702641
40.01128
39.324437
38.642411
37.965494
37.293975
36.628136
35.968252
35.314588
34.667401
34.026938
33.393437
32.767121
32.148199
31.53687
30.933316
30.337702
29.750178
29.170875
28.599906
28.03737
27.483354
26.937923
26.401119
25.872981
25.353575
24.842994
24.341192
23.848167
23.364183
22.889819
22.424701
21.968463
21.523389
21.09301
20.670345
20.257309
19.878272
19.548532
19.282514
19.103918
19.047678
19.161023
19.503152
20.139214
21.128787
22.510631
24.284732
26.403028
28.772839
31.27101
33.76857
36.149151
38.319389
40.224709
41.838653
43.156283
44.206041
45.012211
45.607291
46.036187
46.337999
46.527849
46.633087
46.680957
46.663848
46.578737
46.428472
46.226398
45.945038
45.607744
45.225525
44.800933
44.345322
43.864411
43.364761
42.852752
42.332749
41.808858
41.286396
40.766381
40.273912
39.67781
52.868683
52.139824
51.410815
50.68209
49.953981
49.2267
48.500389
47.775178
47.051219
46.328703
45.607856
44.888932
44.172204
43.457956
42.746481
42.038079
41.33305
40.631695
39.934316
39.241211
38.552677
37.869007
37.190487
36.517401
35.850024
35.188627
34.533472
33.884812
33.242896
32.607958
31.980225
31.359912
30.747225
30.142355
29.545478
28.956759
28.376346
27.804371
27.240946
26.686169
26.140117
25.602846
25.074396
24.5548
24.04406
23.542162
23.049108
22.564954
22.089687
21.623249
21.165855
20.718095
20.279661
19.850561
19.43383
19.034009
18.637407
18.26739
17.946329
17.691757
17.529407
17.496814
17.643217
18.026231
18.706449
19.732869
21.127013
22.870689
24.901523
27.121943
29.414345
31.663664
33.771505
35.663204
37.301757
38.671431
39.777818
40.65012
41.309408
41.790997
42.130987
42.365895
42.50089
42.573017
42.589072
42.545911
42.439289
42.277941
42.060557
41.777736
41.450494
41.080587
40.677254
40.248834
39.80019
39.337587
38.86721
38.391046
37.936284
37.376632
52.868853
52.138953
51.408701
50.678525
49.948768
49.219667
48.4914
47.764122
47.038001
46.313228
45.590023
44.868632
44.149315
43.432346
42.71801
42.006594
41.29839
40.593689
39.892784
39.195966
38.503521
37.815734
37.132885
36.455248
35.783094
35.116685
34.456278
33.802123
33.154461
32.513528
31.879549
31.25274
30.63331
30.021455
29.417364
28.821213
28.233165
27.653374
27.081977
26.5191
25.964854
25.419331
24.882611
24.354759
23.83582
23.325827
22.824802
22.332765
21.849726
21.375684
20.91066
20.454733
20.007929
19.570271
19.142135
18.724388
18.316105
17.919458
17.539221
17.166813
16.820083
16.52417
16.298229
16.170612
16.181106
16.379823
16.822138
17.563331
18.639701
20.056758
21.779658
23.734152
25.8193
27.923096
29.944196
31.800547
33.436701
34.831309
35.976368
36.887993
37.594036
38.115726
38.487298
38.747225
38.914821
38.993634
39.032314
39.015508
38.942879
38.81542
38.643149
38.407067
38.123244
37.800798
37.443147
37.059842
36.657021
36.238491
35.833646
35.322814
52.870342
52.139922
51.409008
50.678027
49.947329
49.217175
48.487768
47.759288
47.031917
46.305851
45.581309
44.858529
44.137767
43.419289
42.703369
41.990287
41.280327
40.573773
39.870907
39.172013
38.477369
37.787251
37.10193
36.421673
35.746739
35.077385
34.413856
33.756396
33.105237
32.460605
31.822718
31.191787
30.568013
29.951587
29.342694
28.741507
28.148191
27.562899
26.985775
26.41695
25.856547
25.304673
24.761427
24.226892
23.701142
23.184238
22.676231
22.177165
21.68708
21.206007
20.73398
20.271035
19.81721
19.372541
18.937101
18.511055
18.094427
17.687493
17.291065
16.904726
16.530469
16.173375
15.825028
15.50881
15.246793
15.059523
14.978286
15.045599
15.3112
15.829374
16.647951
17.788814
19.240545
20.95121
22.836009
24.791916
26.714653
28.517966
30.135481
31.530929
32.696042
33.631905
34.362266
34.911919
35.309722
35.580051
35.765343
35.868001
35.910838
35.911146
35.861609
35.760946
35.616084
35.422564
35.176149
34.893081
34.575711
34.231494
33.890772
33.444125
52.872599
52.141933
51.410668
50.679224
49.947958
49.21715
48.487026
47.75779
47.029637
46.302772
45.577415
44.853804
44.132189
43.412832
42.696003
41.981976
41.271027
40.563436
39.85948
39.159435
38.463574
37.772166
37.085475
36.403762
35.72728
35.056276
34.390991
33.731657
33.078502
32.431743
31.791589
31.158244
30.5319
29.912741
29.300944
28.696675
28.100091
27.51134
26.930562
26.357885
25.793427
25.237297
24.689595
24.150408
23.619814
23.097883
22.584676
22.080246
21.584643
21.09791
20.620091
20.151227
19.691363
19.240541
18.798812
18.366239
17.942881
17.528816
17.124197
16.729085
16.343765
15.969124
15.604792
15.253656
14.921242
14.59969
14.317674
14.094004
13.952374
13.927505
14.064135
14.413021
15.025553
15.938319
17.157004
18.650461
20.349473
22.160963
23.98234
25.720298
27.305133
28.688365
29.852705
30.798394
31.541596
32.106023
32.515325
32.800258
32.991049
33.107043
33.154047
33.164368
33.130442
33.050773
32.928408
32.767533
32.55325
32.302379
32.041873
31.677923
52.875319
52.144558
51.413112
50.681395
49.949768
49.218525
48.487915
47.75816
47.029471
46.302062
45.57616
44.852001
44.129836
43.409923
42.69253
41.977926
41.266386
40.558184
39.853594
39.152887
38.456333
37.764196
37.076737
36.39421
35.716866
35.044945
34.378683
33.718309
33.064042
32.416096
31.774673
31.139969
30.512172
29.891458
29.277998
28.67195
28.073465
27.482685
26.899742
26.324758
25.757846
25.199109
24.648642
24.10653
23.572847
23.047659
22.531027
22.023
21.523627
21.032948
20.551004
20.077832
19.613469
19.157955
18.711329
18.273636
17.844921
17.425234
17.014627
16.613141
16.220839
15.837867
15.464293
15.100543
14.747709
14.405643
14.078275
13.766578
13.477012
13.232744
13.052744
12.965184
13.00897
13.230988
13.682837
14.410118
15.43246
16.736094
18.267677
19.942434
21.662459
23.330989
24.871016
26.229765
27.381636
28.325033
29.067633
29.635302
30.049591
30.340509
30.53193
30.653511
30.708332
30.721102
30.698443
30.634731
30.531688
30.393114
30.228926
29.968041
52.87833
52.147559
51.416029
50.684148
49.95228
49.220731
48.489766
47.759626
47.030537
46.302724
45.576418
44.85186
44.1293
43.408998
42.691217
41.976226
41.264297
40.555702
39.850711
39.149595
38.452619
37.760046
37.072133
36.389132
35.711289
35.038844
34.372027
33.711065
33.056174
32.407561
31.765428
31.129965
30.501354
29.87977
29.265377
28.658328
28.05877
27.466839
26.882661
26.306354
25.738025
25.177773
24.625685
24.081843
23.546315
23.019164
22.500443
21.990198
21.488469
20.995292
20.510698
20.034714
19.567368
19.108686
18.658693
18.217419
17.784892
17.361143
16.946198
16.540081
16.14281
15.754409
15.3749
15.004344
14.642928
14.290785
13.948552
13.616902
13.297332
12.99446
12.706213
12.451658
12.248588
12.119385
12.097311
12.22548
12.553803
13.131575
13.991457
15.132315
16.515294
18.065063
19.686705
21.283266
22.772511
24.098558
25.227838
26.155739
26.889228
27.450784
27.862948
28.152168
28.34265
28.463578
28.524294
28.53816
28.524673
28.473575
28.405105
28.265319
52.88153
52.150796
51.419239
50.687261
49.955225
49.223448
48.49221
47.761765
47.032356
46.304217
45.577586
44.85271
44.12984
43.409234
42.691158
41.975878
41.263664
40.554788
39.849518
39.148122
38.450865
37.758006
37.069802
36.386503
35.708352
35.035587
34.368438
33.707127
33.051869
32.402869
31.760326
31.124428
30.495355
29.873277
29.258355
28.650741
28.050578
27.457997
26.873122
26.296066
25.726934
25.165819
24.612806
24.067971
23.531379
23.003088
22.483147
21.971596
21.468471
20.9738
20.487605
20.009908
19.540723
19.080066
18.627949
18.184384
17.749386
17.322965
16.905132
16.495892
16.095247
15.703193
15.31972
14.944824
14.578513
14.220809
13.871806
13.53167
13.20074
12.879941
12.569757
12.273387
11.994666
11.736745
11.520177
11.363761
11.29569
11.354918
11.589191
12.049148
12.775753
13.779249
15.032515
16.469546
17.998882
19.524428
20.959815
22.24466
23.34328
24.247122
24.963845
25.511673
25.916192
26.197484
26.384768
26.502077
26.566587
26.585264
26.592328
26.547467
52.884854
52.154185
51.422636
50.690601
49.958445
49.226491
48.495032
47.764336
47.034656
46.306239
45.579332
44.854183
44.131048
43.410187
42.691864
41.976346
41.263903
40.554804
39.849318
39.147709
38.450243
37.757177
37.068767
36.385261
35.706901
35.033924
34.366558
33.705024
33.049535
32.400296
31.757503
31.121343
30.491994
29.869624
29.254393
28.64645
28.045936
27.452982
26.867707
26.290223
25.720631
25.159024
24.605483
24.06008
23.52288
22.993935
22.473293
21.960989
21.457056
20.961515
20.474386
19.995681
19.525409
19.063575
18.610183
18.165233
17.728725
17.300657
16.881024
16.469818
16.067027
15.67263
15.286604
14.908921
14.53955
14.178463
13.825644
13.481095
13.144857
12.817086
12.497976
12.188132
11.888604
11.60074
11.32875
11.073651
10.851266
10.678564
10.579571
10.589304
10.75278
11.120861
11.739205
12.628527
13.770791
15.108445
16.553529
18.009548
19.388753
20.627469
21.689467
22.56271
23.25646
23.784199
24.174154
24.444928
24.627489
24.742237
24.822147
24.849411
52.888262
52.157671
51.42615
50.694086
49.961842
49.229747
48.498103
47.767191
47.037276
46.308614
45.581459
44.856066
44.132693
43.411603
42.69306
41.977333
41.26469
40.555399
39.849728
39.147943
38.450305
37.757074
37.068501
36.384836
35.706319
35.033186
34.365664
33.703974
33.048327
32.398927
31.755968
31.119638
30.490112
29.867559
29.252136
28.643992
28.043266
27.450086
26.864573
26.286836
25.716975
25.15508
24.601231
24.055499
23.517945
22.988623
22.467575
21.954837
21.450436
20.954393
20.466722
19.987432
19.516528
19.054008
18.59987
18.154105
17.716705
17.287658
16.866949
16.454558
16.050463
15.654633
15.267032
14.887621
14.516353
14.153182
13.798059
13.450938
13.111783
12.780578
12.457331
12.142128
11.83518
11.536848
11.248033
10.969637
10.704798
10.456771
10.233365
10.051617
9.932273
9.9067897
10.017426
10.31466
10.846847
11.642714
12.691872
13.94308
15.311701
16.701278
18.023841
19.213472
20.234407
21.071703
21.735443
22.238965
22.611645
22.871283
23.061749
23.17794
52.891725
52.161221
51.42974
50.697664
49.965353
49.233143
48.501342
47.770241
47.040115
46.311231
45.583849
44.85823
44.134637
43.413334
42.694588
41.978666
41.265837
40.556371
39.850533
39.148589
38.4508
37.757423
37.068712
36.384913
35.706266
35.033007
34.365362
33.70355
33.047783
32.398263
31.755185
31.118734
30.489085
29.866407
29.250855
28.642579
28.041715
27.448392
26.862729
26.284835
25.714807
25.152736
24.598701
24.052771
23.515007
22.98546
22.464173
21.951178
21.446503
20.950166
20.46218
19.982549
19.511277
19.048358
18.593785
18.147545
17.709625
17.280005
16.858664
16.445576
16.040709
15.644026
15.255483
14.875032
14.502617
14.138182
13.781666
13.433005
13.092137
12.759003
12.433549
12.115739
11.805564
11.503064
11.208391
10.921796
10.643933
10.375822
10.119492
9.8792672
9.6584515
9.4728242
9.3408819
9.291016
9.3630755
9.6065292
10.071505
10.792227
11.764393
12.941605
14.242022
15.569324
16.83595
17.974544
18.949644
19.746558
20.377439
20.855091
21.223899
21.473638
52.895226
52.16481
51.433376
50.701299
49.968938
49.236631
48.504693
47.773424
47.043107
46.314019
45.586426
44.860595
44.136794
43.415288
42.696347
41.980239
41.267235
40.557601
39.851605
39.149511
38.451581
37.75807
37.069232
36.385311
35.706549
35.033179
34.365428
33.703513
33.047646
32.398029
31.754855
31.118309
30.488568
29.865796
29.25015
28.641779
28.040818
27.447397
26.861632
26.283633
25.713496
25.151311
24.597157
24.051102
23.513207
22.983522
22.462087
21.948938
21.444097
20.947584
20.459409
19.979577
19.508087
19.044933
18.590105
18.143588
17.705363
17.275409
16.853699
16.440202
16.034882
15.637697
15.248599
14.867531
14.494435
14.129247
13.771897
13.422315
13.080428
12.746161
12.41944
12.100195
11.788359
11.48388
11.186728
10.896912
10.614522
10.339775
10.073139
9.8156296
9.5685935
9.3355949
9.1201524
8.9346643
8.7959774
8.7301002
8.7747518
8.9782858
9.3918853
10.05351
10.96349
12.07871
13.319371
14.588948
15.80015
16.885633
17.813302
18.567973
19.181071
19.637009
52.898749
52.168421
51.437036
50.704966
49.972566
49.240177
48.508119
47.776699
47.046208
46.31693
45.589138
44.863107
44.139106
43.417405
42.698276
41.981988
41.268812
40.559016
39.852866
39.150627
38.45256
37.758921
37.06996
36.385925
35.707054
35.033581
34.365732
33.703724
33.047767
32.398065
31.754808
31.118183
30.488363
29.865515
29.249794
28.641348
28.040314
27.446818
26.860979
26.282904
25.71269
25.150427
24.596191
24.050053
23.51207
22.982295
22.460766
21.947517
21.442573
20.945951
20.457661
19.977706
19.506085
19.042791
18.587811
18.14113
17.702725
17.272574
16.850646
16.436909
16.031323
15.633843
15.244416
14.862985
14.489486
14.123851
13.766006
13.415877
13.073383
12.738444
12.410977
12.090898
11.778125
11.472578
11.17418
10.882866
10.598588
10.321333
10.051151
9.7882215
9.5328844
9.2859405
9.0485827
8.8237231
8.6152722
8.4323834
8.291126
8.2153734
8.2413002
8.4160376
8.7916444
9.4082071
10.269813
11.334547
12.523424
13.73891
14.897136
15.929292
16.828352
17.550088
52.902283
52.172041
51.440707
50.708648
49.976218
49.243758
48.511594
47.780037
47.049385
46.31993
45.591951
44.865728
44.141535
43.419646
42.700333
41.983869
41.270524
40.560567
39.854266
39.151884
38.453682
37.759916
37.070836
36.386689
35.707712
35.03414
34.366196
33.704099
33.048059
32.398276
31.754943
31.118245
30.488356
29.86544
29.249655
28.641146
28.04005
27.446495
26.860596
26.282461
25.712189
25.149866
24.59557