/*--------------------------------*- C++ -*----------------------------------*\
| =========                 |                                                 |
| \\      /  F ield         | OpenFOAM: The Open Source CFD Toolbox           |
|  \\    /   O peration     | Version:  2206                                  |
|   \\  /    A nd           | Website:  www.openfoam.com                      |
|    \\/     M anipulation  |                                                 |
\*---------------------------------------------------------------------------*/
FoamFile
{
    version     2.0;
    format      ascii;
    arch        "LSB;label=32;scalar=64";
    class       volScalarField;
    location    "2000";
    object      p;
}
// * * * * * * * * * * * * * * * * * * * * * * * * * * * * * * * * * * * * * //

dimensions      [0 2 -2 0 0 0 0];

internalField   nonuniform List<scalar> 
7480
(
0.05468518
0.04243114
0.028309652
0.016502695
0.0058968327
0.00045132577
-0.00080312666
0.00021384834
0.0017674691
0.002798383
0.0032744065
0.003477877
0.0035694116
0.0035987179
0.0036009217
0.0036055897
0.0036141654
0.0036088274
0.0035929675
0.0035756806
0.0035558038
0.0035291736
0.0034986352
0.0034675448
0.0034346363
0.0033975114
0.0033575836
0.0033163997
0.0032730746
0.0032268029
0.0031786949
0.0031295139
0.00307864
0.0030258819
0.0029720988
0.0029178888
0.0028632912
0.0028089709
0.0027561662
0.0027058923
0.00265899
0.0026170224
0.0025825032
0.0025578203
0.0025473287
0.0025546031
0.0025849448
0.0026374608
0.0027105746
0.0028051642
0.0029195053
0.0030507449
0.0031944174
0.0033442282
0.003497992
0.003649295
0.0037800784
0.00387753
0.0039335414
0.003951459
0.0039331879
0.00388493
0.0038159587
0.0037333963
0.0036423636
0.0035468652
0.0034502478
0.0033537825
0.0032583681
0.0031645421
0.0030724167
0.0029814924
0.0028917854
0.0028032734
0.0027151683
0.0026280492
0.0025409973
0.0024518809
0.0023611259
0.0022688624
0.0021758943
0.0020818195
0.0019854706
0.0018879224
0.0017882785
0.0016871755
0.0015844395
0.0014801301
0.0013748814
0.0012682823
0.0011616408
0.0010546519
0.00094913527
0.00084447594
0.00074747474
0.00064474846
0.0005927111
0.00031007261
0.00083671003
-0.00087452847
0.049708463
0.039195484
0.027244066
0.016353864
0.0064975079
0.0012523193
-9.6390225e-05
0.00068331376
0.0019943216
0.0029222612
0.0033521146
0.0035370719
0.0036202391
0.0036427236
0.0036410102
0.0036443714
0.0036467965
0.0036359606
0.0036170234
0.0035973419
0.003575284
0.0035466794
0.0035145202
0.0034820376
0.0034478526
0.0034095695
0.0033686407
0.0033265615
0.0032824019
0.0032353667
0.0031865773
0.0031367714
0.0030853113
0.0030320107
0.0029777292
0.0029230524
0.0028680122
0.0028132741
0.0027600722
0.0027094148
0.0026621387
0.0026198071
0.0025849309
0.0025598924
0.0025491054
0.0025564046
0.0025861386
0.0026381265
0.002710921
0.0028052064
0.0029192759
0.0030502817
0.0031937601
0.0033434268
0.0034971047
0.0036483736
0.003779178
0.0038767315
0.0039328951
0.0039509731
0.0039329087
0.0038848282
0.0038160005
0.0037335516
0.003642601
0.003547158
0.0034505748
0.0033541276
0.0032587202
0.0031648933
0.0030727618
0.0029818282
0.0028921099
0.0028035854
0.0027154675
0.002628336
0.0025412779
0.0024521609
0.0023614025
0.002269133
0.0021761582
0.0020820769
0.0019857225
0.0018881691
0.0017885202
0.0016874123
0.0015846711
0.0014803565
0.0013751024
0.0012684976
0.0011618505
0.0010548558
0.0009493335
0.00084466842
0.00074766278
0.00064492872
0.00059295708
0.00031105478
0.0008389267
-0.00087400646
0.045649254
0.037514894
0.026880978
0.016628278
0.0078721242
0.0027807502
0.0010763426
0.0013450427
0.0023306561
0.0031065595
0.0034730593
0.0036379479
0.0037083892
0.0037158405
0.0037051573
0.0037015097
0.0036952863
0.003677097
0.0036533611
0.0036299638
0.0036042931
0.0035723051
0.0035375966
0.00350298
0.0034667496
0.003426626
0.0033842214
0.0033408743
0.0032955119
0.0032473806
0.0031976587
0.0031470163
0.0030947627
0.0030407359
0.0029858078
0.0029305342
0.0028749296
0.002819671
0.0027659889
0.0027148746
0.0026671562
0.0026244023
0.0025891203
0.0025636841
0.002552537
0.0025599806
0.0025891868
0.002640368
0.0027127822
0.0028066833
0.0029203899
0.0030510536
0.0031942092
0.0033435896
0.0034970519
0.0036481538
0.0037788149
0.0038763305
0.0039325892
0.0039507646
0.0039329159
0.003885029
0.0038163683
0.0037340604
0.0036432144
0.0035478416
0.0034513
0.0033548705
0.003259464
0.0031656264
0.0030734758
0.0029825178
0.0028927725
0.002804219
0.0027160712
0.0026289106
0.0025418235
0.0024526842
0.0023619097
0.0022696224
0.0021766304
0.0020825327
0.0019861633
0.001888597
0.0017889358
0.0016878164
0.001585064
0.0014807383
0.0013754732
0.0012688575
0.0011621995
0.001055194
0.00094966135
0.00084498542
0.00074797243
0.00064522169
0.00059335772
0.00031263319
0.0008428532
-0.0008733865
0.042928551
0.036213464
0.026526306
0.016927914
0.0091584152
0.004243292
0.0021579015
0.0020387307
0.0027224878
0.0033439725
0.0036549748
0.0037955047
0.0038428271
0.0038206434
0.0037894389
0.0037739478
0.0037571284
0.0037284502
0.0036981079
0.0036703925
0.00364026
0.0036037295
0.0035658124
0.0035286161
0.0034897643
0.0034472118
0.0034030109
0.0033582077
0.0033114247
0.0032620085
0.0032112832
0.0031597814
0.0031066982
0.0030519294
0.002996386
0.002940564
0.002884448
0.0028287541
0.0027747132
0.0027232804
0.0026752664
0.0026322566
0.0025967534
0.0025711219
0.002559715
0.0025677075
0.0025968215
0.0026471019
0.0027192073
0.0028127523
0.0029260476
0.0030562541
0.0031988937
0.0033477258
0.0035006682
0.0036512367
0.0037813579
0.0038783556
0.0039344221
0.0039523739
0.0039344548
0.0038865833
0.0038179639
0.0037357119
0.0036449093
0.0035495583
0.0034530167
0.0033565632
0.0032611162
0.0031672259
0.0030750139
0.0029839883
0.0028941738
0.0028055496
0.0027173302
0.0026300997
0.0025429115
0.0024536732
0.0023628421
0.0022705075
0.0021774719
0.0020833332
0.0019869264
0.0018893278
0.0017896366
0.0016884903
0.0015857124
0.0014813627
0.0013760749
0.0012694371
0.0011627585
0.0010557324
0.00095018082
0.00084548524
0.00074845848
0.00064568061
0.00059397398
0.00031513151
0.00084928748
-0.00087233894
0.040459418
0.034619866
0.025901551
0.017280162
0.010226167
0.0054495801
0.0031966552
0.0028072238
0.0031986501
0.0036428416
0.0038768281
0.0039667577
0.0039820849
0.0039420124
0.003899854
0.0038746745
0.0038449602
0.0038005845
0.0037592934
0.0037247374
0.0036881456
0.0036452653
0.0036031012
0.0035627832
0.0035206858
0.0034749434
0.0034284152
0.0033817372
0.0033330558
0.0032819111
0.0032299008
0.003177336
0.0031232246
0.0030675699
0.003011357
0.0029549777
0.0028983532
0.0028422764
0.0027879985
0.0027364052
0.0026882702
0.0026452068
0.0026097078
0.0025841083
0.0025727698
0.0025814284
0.0026105531
0.0026602198
0.0027320184
0.0028251325
0.0029378772
0.0030674131
0.0032092353
0.0033571506
0.0035092122
0.0036589339
0.0037880691
0.0038839458
0.0039394637
0.003956759
0.0039383299
0.0038902172
0.0038214445
0.0037391029
0.0036482289
0.0035528049
0.0034561829
0.0033596316
0.0032640753
0.003170067
0.0030777295
0.0029865735
0.0028966306
0.0028078781
0.0027195299
0.002632173
0.0025448198
0.0024554202
0.0023644806
0.0022720509
0.0021789281
0.0020847078
0.001988226
0.0018905617
0.0017908098
0.0016896092
0.0015867808
0.0014823846
0.0013770534
0.0012703742
0.0011636573
0.0010565942
0.00095100847
0.00084627873
0.00074922567
0.00064640746
0.00059491909
0.00031884253
0.00085880847
-0.00087031383
0.038145818
0.033027515
0.025313144
0.017591844
0.011110845
0.0065464949
0.004195679
0.0035545706
0.0036963991
0.0039654357
0.0041114031
0.0041491954
0.0041336198
0.004079277
0.0040237845
0.0039800646
0.0039348776
0.0038806823
0.0038325893
0.0037921084
0.0037479402
0.0036971574
0.0036490747
0.0036045368
0.003558358
0.0035087228
0.0034594982
0.0034107371
0.0033598903
0.0033067404
0.0032532828
0.0031995296
0.0031442511
0.0030876472
0.0030308499
0.0029740959
0.0029170802
0.0028606652
0.0028062269
0.0027545874
0.0027064713
0.0026635322
0.0026282523
0.0026029079
0.0025919248
0.0026010034
0.0026299293
0.0026792301
0.0027504946
0.0028429096
0.0029548417
0.0030834253
0.0032240968
0.0033707228
0.0035215613
0.0036700594
0.0037977091
0.0038920071
0.0039467808
0.0039631441
0.0039439119
0.0038954599
0.0038264566
0.0037439593
0.0036529513
0.0035573952
0.0034606389
0.0033639374
0.0032682221
0.0031740471
0.0030815331
0.0029901982
0.0029000849
0.002811162
0.0027226414
0.0026351137
0.0025475748
0.0024580016
0.0023669148
0.0022743416
0.0021810854
0.0020867394
0.0019901404
0.0018923722
0.0017925235
0.0016912361
0.0015883271
0.0014838567
0.001378457
0.0012717126
0.0011649356
0.0010578155
0.00095217741
0.00084739649
0.00075030038
0.00064742998
0.0005962304
0.00032389298
0.00087152852
-0.00086685715
0.036044555
0.0315488
0.024760306
0.017821118
0.011868659
0.0075446023
0.0051316676
0.0042628345
0.0041807123
0.0042963642
0.0043572452
0.0043450021
0.0042973979
0.0042250058
0.0041520597
0.0040895551
0.0040304772
0.0039681914
0.0039120063
0.0038618225
0.0038092367
0.0037532087
0.003701025
0.0036525555
0.0036017607
0.0035477186
0.0034952194
0.0034437675
0.0033902351
0.0033347313
0.0032796693
0.0032246364
0.003168071
0.0031104441
0.0030530852
0.0029960031
0.0029386351
0.0028819793
0.0028275556
0.0027760878
0.0027282379
0.0026857298
0.0026510602
0.0026265351
0.0026157374
0.0026242341
0.0026529178
0.0027021086
0.0027729381
0.0028646671
0.0029756604
0.0031029964
0.0032421559
0.0033872353
0.0035357516
0.0036812864
0.003806769
0.0038995741
0.0039539896
0.0039696275
0.0039497355
0.0039011716
0.003832112
0.0037495853
0.0036585242
0.0035628861
0.0034660241
0.003369182
0.0032733066
0.0031789572
0.0030862538
0.0029947227
0.0029044193
0.0028153031
0.0027265833
0.0026388556
0.0025511081
0.0024613416
0.0023700799
0.0022773277
0.002183901
0.0020893914
0.0019926379
0.0018947306
0.0017947515
0.0016933463
0.0015903274
0.0014857558
0.0013802626
0.0012734297
0.0011665714
0.0010593744
0.0009536653
0.0008488163
0.00075165913
0.00064872689
0.00059788413
0.00033022729
0.00088709725
-0.00086184856
0.034145796
0.030166815
0.024193405
0.017964468
0.012515188
0.0084356828
0.0059943669
0.0049402356
0.0046629606
0.0046373232
0.0046132301
0.0045497289
0.0044679491
0.0043741295
0.0042833321
0.0042041098
0.0041316213
0.0040598709
0.0039939293
0.0039337651
0.0038739358
0.0038132425
0.0037562741
0.0037022217
0.0036466231
0.0035894207
0.0035343562
0.0034802237
0.003423722
0.0033655834
0.0033086598
0.0032521001
0.0031938322
0.0031347112
0.0030764245
0.0030186583
0.0029606529
0.0029036371
0.0028492175
0.0027979736
0.0027504867
0.0027085807
0.0026747875
0.0026514369
0.0026408737
0.0026485083
0.0026768352
0.0027260004
0.0027965218
0.0028876218
0.0029975755
0.0031233671
0.003260781
0.0034043779
0.0035496148
0.0036906984
0.003813635
0.0039053231
0.0039598443
0.0039751517
0.003954969
0.0039066358
0.0038377907
0.0037554496
0.0036644996
0.0035689019
0.0034720211
0.0033750936
0.0032790951
0.0031845965
0.0030917209
0.0029999998
0.0029095032
0.0028201841
0.0027312498
0.0026433042
0.002555326
0.0024653447
0.0023738884
0.0022809333
0.0021873093
0.002092607
0.0019956685
0.0018975933
0.001797455
0.0016959047
0.0015927499
0.0014880526
0.0013824432
0.0012755006
0.0011685418
0.0010612494
0.00095545171
0.00085051862
0.0007532824
0.00065028039
0.0005998473
0.00033772094
0.0009049839
-0.000855413
0.032425028
0.028875228
0.023618789
0.018043583
0.013065112
0.009226501
0.0067883213
0.0055892494
0.0051416829
0.0049845076
0.0048768323
0.0047612398
0.0046443804
0.0045274807
0.00441807
0.0043223076
0.0042359419
0.0041536329
0.0040781062
0.0040089224
0.0039419363
0.0038757652
0.0038132505
0.0037535902
0.0036937414
0.0036334731
0.0035752911
0.0035178171
0.0034584901
0.0033983622
0.0033398397
0.0032816182
0.0032214281
0.0031606268
0.0031012226
0.0030425714
0.0029837052
0.0029259935
0.0028711172
0.0028196248
0.0027720541
0.0027303348
0.0026970409
0.0026743996
0.0026643791
0.0026719264
0.0026998689
0.0027486226
0.0028185357
0.0029088251
0.0030176755
0.0031419807
0.0032777887
0.003419978
0.0035624318
0.0036993194
0.0038193451
0.003909871
0.0039643852
0.003979569
0.0039594135
0.0039115525
0.0038431099
0.0037611448
0.0036704836
0.0035750629
0.0034782687
0.0033813382
0.0032852833
0.0031906855
0.0030976737
0.0030057898
0.0029151202
0.0028256097
0.0027364638
0.0026482991
0.0025600815
0.0024698752
0.0023782163
0.0022850466
0.0021912112
0.0020962989
0.0019991559
0.001900893
0.0018005749
0.0016988596
0.0015955487
0.0014907064
0.0013849622
0.0012778923
0.0011708166
0.0010634129
0.00095751108
0.00085247984
0.0007551477
0.0006520699
0.00060207704
0.00034622563
0.00092460298
-0.00084759388
0.03086164
0.02767537
0.023047874
0.018068568
0.013526348
0.0099239456
0.0075156153
0.0062062826
0.0056116003
0.0053340578
0.0051463374
0.0049791104
0.0048266602
0.0046853069
0.0045566296
0.0044439731
0.0043435412
0.0042500776
0.0041645079
0.0040864344
0.0040120557
0.00393989
0.0038719183
0.0038070929
0.0037429561
0.003679124
0.0036175313
0.0035568514
0.0034949431
0.0034327913
0.003372214
0.0033119234
0.0032500187
0.003187978
0.0031275788
0.0030679308
0.0030080474
0.0029494349
0.0028939025
0.0028419272
0.0027939458
0.0027519795
0.0027186432
0.0026960013
0.0026860234
0.0026933897
0.0027208451
0.0027689194
0.0028379908
0.0029273229
0.0030350774
0.0031581031
0.0032924934
0.0034332108
0.0035737853
0.0037079328
0.0038254605
0.0039139302
0.003967418
0.0039825941
0.0039627036
0.0039154363
0.0038475721
0.0037662128
0.0036760386
0.0035809199
0.0034843328
0.0033875192
0.0032914992
0.0031968726
0.0031037873
0.0030117975
0.0029210023
0.0028313354
0.0027420027
0.0026536369
0.0025651893
0.0024747645
0.00238291
0.002289528
0.0021954813
0.002100356
0.0020030017
0.0019045433
0.0018040355
0.0017021444
0.0015986656
0.0014936658
0.0013877744
0.0012805642
0.0011733593
0.0010658319
0.00095981359
0.00085467283
0.00075722963
0.00065407227
0.00060452482
0.00035559539
0.00094538226
-0.0008383154
0.029438193
0.026564969
0.022485594
0.018044249
0.013906148
0.010534895
0.0081776895
0.0067885819
0.0060696315
0.0056838521
0.0054205326
0.0052025994
0.0050142661
0.0048473938
0.0046988251
0.0045690146
0.0044542143
0.004349178
0.0042534293
0.0041663233
0.0040844561
0.0040060378
0.0039322344
0.0038622034
0.0037937198
0.0037260826
0.0036610945
0.0035973996
0.0035328456
0.0034683539
0.0034055952
0.0033434125
0.0032799567
0.0032166329
0.003154898
0.0030940416
0.0030332392
0.0029738847
0.0029177872
0.0028652922
0.0028167937
0.0027743889
0.0027407492
0.0027177555
0.0027073127
0.0027140298
0.0027406904
0.002787771
0.0028556211
0.0029436085
0.0030499322
0.0031714302
0.0033042139
0.003443343
0.0035823993
0.0037149794
0.0038309545
0.0039175301
0.0039701064
0.0039852776
0.0039649547
0.0039178554
0.0038507954
0.0037702739
0.0036807094
0.0035860263
0.003489823
0.0033932809
0.0032973837
0.0032028111
0.0031097512
0.0030177345
0.0029268737
0.0028371021
0.002747626
0.0026590943
0.0025704439
0.0024798267
0.0023878007
0.0022942241
0.0021999824
0.0021046563
0.002007098
0.0019084495
0.0018077538
0.0017056869
0.0016020375
0.001496876
0.0013908317
0.0012834741
0.0011761324
0.001068473
0.00096232916
0.00085707036
0.00075950296
0.00065626453
0.0006071408
0.00036569573
0.00096678616
-0.00082744683
0.028139453
0.02553913
0.021935678
0.017977038
0.014213042
0.011066589
0.008776863
0.007334703
0.0065133689
0.0060316176
0.0056976649
0.0054304734
0.0052064031
0.0050133702
0.00484443
0.004697295
0.0045678899
0.0044509559
0.004344876
0.0042485935
0.0041590195
0.0040741182
0.0039943753
0.0039190495
0.0038461053
0.0037746735
0.0037060301
0.003639073
0.003571914
0.0035049987
0.0034400482
0.0033760447
0.0033109876
0.0032461845
0.003183052
0.0031211381
0.0030595094
0.0029993856
0.0029425397
0.0028894288
0.0028404775
0.0027976519
0.002763653
0.0027402211
0.0027292057
0.002735091
0.0027607115
0.002806502
0.0028727486
0.0029589561
0.0030633839
0.0031828766
0.0033136014
0.0034507799
0.0035880844
0.0037189883
0.0038334769
0.0039191672
0.0039717252
0.0039871024
0.0039666924
0.0039199452
0.0038536618
0.0037734077
0.0036841332
0.0035900933
0.0034944767
0.0033982825
0.0033025983
0.0032082115
0.0031153027
0.0030233265
0.0029324613
0.0028426575
0.0027530912
0.00266444
0.0025756346
0.0024848711
0.0023927134
0.0022989767
0.0022045738
0.002109074
0.0020113331
0.0019125136
0.0018116441
0.0017094123
0.0016055996
0.0015002805
0.0013940848
0.001286579
0.0011790982
0.0010713028
0.00096502801
0.00085964571
0.0007619431
0.00065862448
0.00060987526
0.00037640106
0.000988304
-0.00081482797
0.026952062
0.024592053
0.02140147
0.017873704
0.014454859
0.011525529
0.0093156839
0.0078436077
0.0069403759
0.0063749087
0.0059758774
0.0056615133
0.0054023316
0.0051828886
0.0049932515
0.0048286704
0.0046844873
0.0045553722
0.0044387874
0.0043332036
0.0042357276
0.0041441525
0.0040583812
0.003977655
0.0039001077
0.0038247494
0.0037523563
0.00368207
0.003612215
0.0035429514
0.0034756785
0.0034095814
0.0033429215
0.003276649
0.0032121206
0.0031491413
0.0030866516
0.0030256687
0.0029680496
0.0029144176
0.0028650566
0.0028217618
0.0027873101
0.0027634157
0.0027518555
0.0027568963
0.0027813981
0.0028257522
0.0028902025
0.002974381
0.0030766051
0.0031937167
0.0033219539
0.0034567273
0.0035918158
0.0037206076
0.0038333254
0.0039181597
0.0039705357
0.0039863388
0.0039668798
0.0039213561
0.003855935
0.0037759916
0.0036872746
0.0035939433
0.0034984306
0.0034022364
0.0033069264
0.0032128916
0.0031201677
0.0030282819
0.0029375175
0.0028477795
0.0027581704
0.0026694618
0.0025805753
0.002489719
0.0023974796
0.0023036345
0.0022091175
0.0021134816
0.0020155929
0.0019166348
0.0018156169
0.0017132417
0.0016092826
0.0015038188
0.0013974811
0.0012898328
0.0011822164
0.001074286
0.00096787897
0.00086237114
0.00076452478
0.00066112952
0.00061267834
0.00038758772
0.0010094167
-0.00080028254
0.025864254
0.023717617
0.020885381
0.017740413
0.014638617
0.011917787
0.0097970286
0.0083147667
0.007348525
0.0067114949
0.0062534444
0.0058945372
0.0056012763
0.0053555142
0.0051450229
0.0049629405
0.004803876
0.004662359
0.0045351161
0.0044201267
0.0043145859
0.0042161571
0.0041242467
0.0040380137
0.003955731
0.0038763077
0.0038001158
0.0037264404
0.0036537823
0.0035820879
0.0035124215
0.0034441783
0.0033758706
0.0033081472
0.0032422104
0.0031779698
0.0031145299
0.0030527444
0.0029943511
0.002940168
0.00289037
0.0028465628
0.0028116685
0.0027873549
0.0027752307
0.0027793742
0.0028026826
0.002845558
0.0029082007
0.002990292
0.0030901859
0.0032047283
0.0033302369
0.0034623023
0.0035948127
0.0037211022
0.0038316628
0.0039153028
0.0039671322
0.0039832148
0.0039648124
0.0039206448
0.0038563741
0.0037775645
0.0036899879
0.0035973807
0.0035019482
0.0034059706
0.0033111159
0.0032170037
0.0031241111
0.0030324324
0.0029418988
0.0028522448
0.0027626512
0.0026739959
0.0025851122
0.0024942055
0.002401952
0.0023080651
0.0022134802
0.0021177542
0.0020197646
0.0019207088
0.0018195764
0.0017170898
0.0016130103
0.0015074231
0.001400961
0.0012931837
0.001185442
0.001077383
0.0009708474
0.00086521615
0.00076722048
0.00066375538
0.00061549954
0.00039912697
0.001029553
-0.00078363813
0.024865638
0.022909681
0.020388885
0.017582746
0.014770919
0.012249224
0.010224048
0.0087481491
0.0077360552
0.0070393384
0.0065286825
0.0061283113
0.0058023798
0.0055307236
0.0052994194
0.0050998727
0.0049259006
0.0047718316
0.004633806
0.0045093231
0.0043955787
0.0042901313
0.0041919713
0.0041001357
0.0040129966
0.0039293823
0.003849329
0.0037721896
0.0036966226
0.0036224008
0.0035503077
0.0034798887
0.0034098592
0.0033406285
0.0032732413
0.0032076939
0.0031432725
0.003080691
0.0030215288
0.0029666517
0.002916338
0.0028720486
0.0028366975
0.0028119789
0.0027992442
0.0028024256
0.0028245317
0.0028659427
0.0029267674
0.0030067143
0.0031041838
0.0032160815
0.0033387992
0.0034680514
0.0035978137
0.0037213877
0.003829526
0.0039116699
0.0039625831
0.003978679
0.0039613232
0.0039182565
0.0038551602
0.0037776041
0.0036911433
0.0035994002
0.0035046844
0.0034094276
0.003315008
0.0032207537
0.0031278814
0.0030364606
0.0029457527
0.0028558902
0.0027664421
0.0026779398
0.0025890641
0.0024981729
0.0024060149
0.0023121463
0.0022175309
0.0021217813
0.0020237437
0.0019246301
0.0018234244
0.0017208662
0.0016166981
0.0015110176
0.0014044577
0.0012965723
0.0011887226
0.0010805483
0.00097389338
0.00086814573
0.00076999895
0.0006664748
0.00061828763
0.00041087988
0.0010480437
-0.0007647441
0.023947012
0.022162309
0.019912705
0.017405701
0.014857971
0.012525414
0.010600001
0.0091441248
0.0081015454
0.0073565718
0.0067999524
0.0063615816
0.0060047443
0.0057079396
0.0054560749
0.0052392059
0.0050503793
0.0048836806
0.0047347818
0.0046007371
0.0044786764
0.0043660664
0.0042615532
0.0041640264
0.0040719191
0.0039839947
0.0039000095
0.0038193341
0.0037407603
0.0036639253
0.0035893664
0.0035167246
0.0034448931
0.0033740954
0.0033052256
0.0032383509
0.0031729062
0.0031094854
0.0030495249
0.0029939179
0.0029430559
0.0028983279
0.0028624
0.0028371652
0.0028238776
0.0028261026
0.0028469764
0.0028868797
0.0029458344
0.0030235812
0.0031185878
0.0032278214
0.0033477182
0.0034740847
0.0036009855
0.0037217607
0.0038273985
0.0039079213
0.003957761
0.0039737184
0.0039571556
0.0039149539
0.0038528762
0.003776435
0.0036910181
0.0036002009
0.003506306
0.00341171
0.0033177689
0.0032238787
0.0031314677
0.0030402636
0.0029493236
0.0028594411
0.002770102
0.0026813547
0.002592306
0.0025015705
0.0024095573
0.0023157153
0.0022211493
0.0021254721
0.0020274275
0.0019282957
0.00182707
0.0017244798
0.0016202589
0.001514523
0.001407898
0.0012999319
0.0011919988
0.0010837289
0.00097697024
0.00087111865
0.00077282362
0.00066925609
0.00062099082
0.00042269397
0.0010640859
-0.00074348938
0.02310021
0.021469899
0.019456984
0.017213648
0.014905528
0.012751616
0.01092819
0.0095034246
0.0084439286
0.0076615314
0.0070656985
0.0065931076
0.0062074482
0.0058865365
0.005614575
0.0053806426
0.0051770989
0.004997768
0.0048379488
0.0046942989
0.0045638376
0.004443945
0.0043329835
0.0042296838
0.004132506
0.0040401604
0.0039521709
0.0038678916
0.0037862197
0.0037066875
0.003629616
0.0035547024
0.0034809959
0.0034085763
0.0033381912
0.0032699581
0.0032034383
0.0031391322
0.0030783449
0.0030219892
0.0029705484
0.0029253441
0.002888847
0.0028629827
0.0028490888
0.0028504199
0.0028699978
0.0029083179
0.0029653662
0.0030408801
0.0031333658
0.0032398952
0.0033569579
0.0034803838
0.0036043639
0.0037223166
0.0038254241
0.0039042559
0.0039529574
0.0039686945
0.00395281
0.0039113751
0.0038502191
0.0037746718
0.0036901645
0.0036001736
0.0035070255
0.003413018
0.0033195881
0.0032261409
0.0031341185
0.0030431556
0.0029524264
0.002862876
0.0027735641
0.0026845551
0.0025955302
0.0025047905
0.0024125247
0.0023186797
0.0022243051
0.0021286976
0.0020306791
0.0019316109
0.0018304259
0.0017278366
0.0016236136
0.0015178643
0.0014112082
0.0013031927
0.0011952061
0.001086865
0.00098002424
0.00087408657
0.00077565155
0.00067206192
0.00062355756
0.00043440186
0.0010767439
-0.0007198211
0.022317977
0.020827252
0.019021431
0.017010327
0.014918881
0.012932793
0.011211933
0.0098270883
0.0087624821
0.0079527731
0.0073244653
0.0068216734
0.0064095513
0.0060658426
0.0057744583
0.0055238494
0.0053058162
0.0051139295
0.0049431927
0.0047899244
0.0046510081
0.0045237384
0.004406245
0.0042970991
0.0041947595
0.0040978909
0.0040058254
0.0039178766
0.0038330206
0.0037507088
0.0036710746
0.0035938424
0.0035181925
0.0034440948
0.0033721581
0.0033025319
0.0032348878
0.0031696537
0.0031080117
0.0030508815
0.0029988222
0.0029530976
0.0029160073
0.0028894769
0.0028749284
0.002875341
0.0028935768
0.0029302586
0.0029853683
0.0030586109
0.0031485361
0.0032523223
0.0033664991
0.0034869273
0.00360793
0.0037230149
0.0038235757
0.00390067
0.0039482305
0.0039637307
0.0039484728
0.0039077616
0.0038474692
0.0037727713
0.0036891471
0.0035997976
0.0035072851
0.0034137743
0.0033207706
0.0032276754
0.0031359825
0.0030452913
0.002954827
0.0028655092
0.0027762981
0.0026874434
0.0025986665
0.0025078038
0.0024153496
0.0023216645
0.0022272071
0.0021313283
0.0020334275
0.001934506
0.0018333633
0.0017308398
0.001626694
0.0015209675
0.0014143166
0.0013062889
0.0011982789
0.0010898946
0.0009829966
0.00087699557
0.00077843389
0.00067484903
0.00062593782
0.00044582264
0.0010850238
-0.0006937615
0.021593858
0.020229601
0.018605448
0.016798882
0.014902839
0.013073615
0.01145452
0.010116402
0.0090568049
0.0082290806
0.007574912
0.007046102
0.0066101077
0.0062451527
0.0059352224
0.0056684587
0.0054362587
0.0052319732
0.0050503783
0.0048875136
0.0047401193
0.0046054055
0.0044813119
0.0043662567
0.0042586761
0.0041571929
0.0040609813
0.0039693
0.0038811797
0.0037960091
0.0037137608
0.0036341633
0.0035565047
0.0034806717
0.0034071449
0.0033360911
0.0032672757
0.0032010703
0.0031385428
0.003080609
0.0030278914
0.0029816051
0.0029438921
0.0029166677
0.0029014119
0.0029008621
0.0029177241
0.0029527304
0.0030058635
0.0030767918
0.0031641112
0.0032650987
0.0033763294
0.0034937065
0.0036116838
0.0037238723
0.0038218855
0.0038971321
0.0039435699
0.0039588329
0.0039441201
0.0039041189
0.0038446615
0.0037709081
0.0036881588
0.0035994043
0.0035073762
0.0034143934
0.0033217527
0.00322885
0.0031373783
0.0030468876
0.0029566188
0.0028674799
0.0027784061
0.0026897252
0.0026010689
0.0025102559
0.0024180239
0.0023245683
0.0022299095
0.0021339113
0.0020360984
0.0019370173
0.0018358093
0.0017334685
0.0016293947
0.0015237286
0.0014171481
0.0013091535
0.0012011509
0.0010927586
0.00098582773
0.00087979161
0.00078111895
0.00067757028
0.00062808566
0.00045676728
0.0010880614
-0.0006654178
0.020922103
0.019672607
0.018208236
0.016581922
0.014861736
0.013178449
0.011659181
0.010372848
0.0093267918
0.008489472
0.0078158287
0.0072652715
0.0068081792
0.0064237383
0.0060963295
0.0058140705
0.005568125
0.0053516802
0.0051593475
0.0049869488
0.0048310875
0.0046888924
0.0045581485
0.0044371334
0.0043242452
0.004218067
0.0041176431
0.0040221698
0.0039307108
0.0038426059
0.0037576912
0.0036756824
0.0035959526
0.0035183272
0.0034431708
0.0033706543
0.0033006214
0.0032334002
0.0031699544
0.0031111869
0.0030577717
0.0030108816
0.0029725153
0.002944563
0.0029285461
0.0029269917
0.0029424513
0.0029757427
0.0030268552
0.0030954259
0.003180094
0.0032782307
0.0033864631
0.0035007408
0.0036156447
0.0037248978
0.0038203416
0.0038936655
0.0039389737
0.0039539838
0.0039397681
0.0039004642
0.0038418356
0.0037690238
0.0036870969
0.0035991331
0.0035074481
0.0034150564
0.0033227197
0.0032299665
0.003138648
0.003048246
0.0029580649
0.0028690244
0.0027800297
0.0026914651
0.0026028915
0.0025121871
0.002420149
0.0023268125
0.0022322291
0.0021364641
0.0020386641
0.0019394207
0.001838303
0.0017359152
0.0016316131
0.0015260946
0.0014196288
0.0013116845
0.0012037481
0.0010953952
0.0009884585
0.00088242626
0.00078365637
0.00068017916
0.00062996534
0.00046704781
0.0010853306
-0.00063497913
0.020297591
0.019152348
0.017828878
0.01636158
0.014799431
0.013251355
0.011829059
0.010598052
0.009572604
0.008733199
0.008046149
0.0074781287
0.0070028474
0.0066008573
0.0062572121
0.0059602537
0.0057010855
0.0054728049
0.0052699199
0.0050880945
0.0049238138
0.0047741316
0.0046367085
0.0045096977
0.0043914491
0.0042805075
0.0041758108
0.0040764899
0.0039816243
0.0038905144
0.0038028808
0.0037184149
0.0036365548
0.0035570808
0.003480254
0.0034062391
0.0033349431
0.0032666614
0.0032022627
0.0031426304
0.0030884782
0.0030409411
0.003001888
0.002973172
0.0029563418
0.0029537403
0.0029677664
0.0029993015
0.0030483491
0.0031145198
0.0031964919
0.0032917274
0.0033969104
0.0035080394
0.0036198201
0.0037261034
0.003818905
0.0038903082
0.003934462
0.0039491856
0.0039354129
0.0038967915
0.0038390003
0.0037671275
0.003686012
0.0035988436
0.0035075791
0.0034157201
0.0033236809
0.003231153
0.00313996
0.0030495875
0.0029594557
0.0028704324
0.0027814083
0.0026928683
0.0026043137
0.0025136729
0.0024217776
0.0023285485
0.0022341068
0.002138487
0.0020407461
0.001941653
0.0018407558
0.0017382122
0.0016338286
0.0015283873
0.0014217624
0.0013138273
0.0012060299
0.0010977097
0.00099082341
0.00088484454
0.0007859938
0.00068263087
0.00063155982
0.00047649129
0.0010767368
-0.00060271571
0.019715757
0.018665295
0.017466393
0.016139583
0.014719333
0.01329608
0.011967189
0.010793748
0.0097946356
0.0089597404
0.0082649584
0.0076837015
0.007193226
0.0067757654
0.0064172806
0.0061065505
0.005834784
0.0055950759
0.0053818916
0.0051907962
0.0050181826
0.0048610411
0.0047169344
0.0045839086
0.004460262
0.004344502
0.004235479
0.0041322603
0.0040339269
0.0039397463
0.0038493423
0.0037623744
0.0036783281
0.0035969504
0.0035184118
0.003442862
0.0033702584
0.003300871
0.0032354838
0.0031749541
0.0031200247
0.0030717968
0.0030320212
0.0030025045
0.0029848092
0.0029811166
0.0029936759
0.0030234135
0.0030703523
0.0031340809
0.0032133128
0.0033055971
0.0034076794
0.0035156105
0.0036242199
0.0037275
0.0038175904
0.0038870734
0.0039300408
0.0039444417
0.0039310576
0.0038931031
0.0038361455
0.0037652093
0.0036849248
0.0035984607
0.0035078248
0.0034163959
0.0033246465
0.0032323686
0.0031413014
0.0030510062
0.0029609401
0.0028718746
0.0027827671
0.0026941943
0.0026055652
0.0025148942
0.0024230663
0.0023299015
0.0022355711
0.0021400548
0.0020424053
0.0019434594
0.0018426743
0.0017401999
0.0016360424
0.0015305964
0.0014238551
0.0013159769
0.0012080902
0.0010996543
0.00099290821
0.00088695351
0.00078805897
0.0006848668
0.00063285371
0.00048496084
0.0010625775
-0.00056900515
0.019172531
0.018208284
0.017119787
0.015917311
0.014624426
0.013316055
0.012076476
0.010961738
0.0099934802
0.0091687906
0.0084715008
0.0078811104
0.0073784718
0.0069477259
0.006575931
0.0062524798
0.0059688402
0.0057181971
0.0054950361
0.0052948799
0.005114062
0.0049495244
0.0047987562
0.0046597154
0.0045306496
0.0044100304
0.0042966369
0.0041894763
0.004087621
0.0039903099
0.0038970858
0.0038075725
0.0037212872
0.0036379524
0.0035576602
0.0034805387
0.0034065837
0.0033360456
0.0032696329
0.003208172
0.0031524249
0.0031034616
0.0030629258
0.0030325699
0.003013958
0.0030091285
0.0030201861
0.0030480856
0.0030928718
0.003154116
0.0032305636
0.0033198478
0.003418779
0.0035234636