/*--------------------------------*- C++ -*----------------------------------*\
| =========                 |                                                 |
| \\      /  F ield         | OpenFOAM: The Open Source CFD Toolbox           |
|  \\    /   O peration     | Version:  2206                                  |
|   \\  /    A nd           | Website:  www.openfoam.com                      |
|    \\/     M anipulation  |                                                 |
\*---------------------------------------------------------------------------*/
FoamFile
{
    version     2.0;
    format      ascii;
    arch        "LSB;label=32;scalar=64";
    class       surfaceScalarField;
    location    "2000";
    object      phi;
}
// * * * * * * * * * * * * * * * * * * * * * * * * * * * * * * * * * * * * * //

dimensions      [0 3 -1 0 0 0 0];

oriented        oriented;

internalField   nonuniform List<scalar> 
14782
(
0.00061770675
8.7781213e-05
-0.00070548796
0.00051031175
0.000107395
0.00040013899
0.00011017276
0.00030667299
9.3466005e-05
0.00023999639
6.6676598e-05
0.00019925607
4.0740325e-05
0.00017533968
2.3916383e-05
0.00016116977
1.4169913e-05
0.00015176178
9.4079872e-06
0.00014419445
7.5673318e-06
0.00013732457
6.86988e-06
0.00013096292
6.3616518e-06
0.00012515398
5.8089408e-06
0.00011986107
5.2929107e-06
0.00011502648
4.8345915e-06
0.00011062356
4.4029207e-06
0.00010661721
4.0063467e-06
0.00010292562
3.69159e-06
9.9497837e-05
3.427781e-06
9.6314273e-05
3.1835646e-06
9.3352675e-05
2.961598e-06
9.0578213e-05
2.7744616e-06
8.7969578e-05
2.6086349e-06
8.5517369e-05
2.4522098e-06
8.3208772e-05
2.3085966e-06
8.1025215e-05
2.1835572e-06
7.8955737e-05
2.0694783e-06
7.699555e-05
1.9601866e-06
7.5137337e-05
1.8582124e-06
7.3371647e-05
1.76569e-06
7.1693357e-05
1.6782905e-06
7.0100112e-05
1.5932446e-06
6.8587713e-05
1.512399e-06
6.7151457e-05
1.4362564e-06
6.5789154e-05
1.3623026e-06
6.4499897e-05
1.2892576e-06
6.3281943e-05
1.2179541e-06
6.2134283e-05
1.1476597e-06
6.1057856e-05
1.0764268e-06
6.0054399e-05
1.0034564e-06
5.9125111e-05
9.292889e-07
5.8271694e-05
8.5341679e-07
5.749734e-05
7.7435365e-07
5.6804342e-05
6.9299821e-07
5.6201479e-05
6.0286332e-07
5.569233e-05
5.0914814e-07
5.5286426e-05
4.0590441e-07
5.4991518e-05
2.9490768e-07
5.4806068e-05
1.8545087e-07
5.4728435e-05
7.7632601e-08
5.4754252e-05
-2.5816952e-08
5.4876708e-05
-1.2245634e-07
5.5083601e-05
-2.0689231e-07
5.53551e-05
-2.7149914e-07
5.5678076e-05
-3.2297656e-07
5.6039733e-05
-3.6165692e-07
5.6406785e-05
-3.6705238e-07
5.6742007e-05
-3.352211e-07
5.7009565e-05
-2.6755848e-07
5.7195466e-05
-1.8590074e-07
5.7296135e-05
-1.0066921e-07
5.7314371e-05
-1.8236182e-08
5.7260317e-05
5.4053839e-08
5.7147409e-05
1.1290878e-07
5.6989129e-05
1.5827905e-07
5.6797436e-05
1.9169362e-07
5.6583087e-05
2.1434898e-07
5.63539e-05
2.2918701e-07
5.6115723e-05
2.3817637e-07
5.5873008e-05
2.4271519e-07
5.5628986e-05
2.4402266e-07
5.5385355e-05
2.4363018e-07
5.5143623e-05
2.4173256e-07
5.4905045e-05
2.3857826e-07
5.4669529e-05
2.3551587e-07
5.4437685e-05
2.3184401e-07
5.4206207e-05
2.3147767e-07
5.3970627e-05
2.3557967e-07
5.3732249e-05
2.3837894e-07
5.3492411e-05
2.3983705e-07
5.3252022e-05
2.4038903e-07
5.3010991e-05
2.4103184e-07
5.2768045e-05
2.4294612e-07
5.2523364e-05
2.4468038e-07
5.2276372e-05
2.4699169e-07
5.2027332e-05
2.4904056e-07
5.1776318e-05
2.5101439e-07
5.1523435e-05
2.528824e-07
5.1269212e-05
2.5422357e-07
5.1013494e-05
2.5571784e-07
5.0756859e-05
2.5663496e-07
5.0499171e-05
2.5768776e-07
5.0240593e-05
2.5857763e-07
4.9980811e-05
2.5978218e-07
4.9719031e-05
2.617797e-07
4.9455325e-05
2.6370634e-07
4.9210184e-05
2.4514134e-07
4.880722e-05
4.0296356e-07
4.8816224e-05
-9.0040664e-09
8.3935492e-07
0.00079176769
9.106158e-05
-0.00079504805
0.00077879121
0.00012037148
0.00075195137
0.00013701259
0.00070880047
0.00013661691
0.00065526182
0.00012021525
0.00060117478
9.4827361e-05
0.00055308378
7.2007386e-05
0.00051315188
5.4101816e-05
0.00048029031
4.226956e-05
0.0004527932
3.5064434e-05
0.00042916422
3.0498865e-05
0.00040850172
2.7024151e-05
0.00039019252
2.4118137e-05
0.0003737519
2.173353e-05
0.00035883594
1.9750559e-05
0.00034524076
1.7998097e-05
0.00033279408
1.6453024e-05
0.00032131908
1.5166591e-05
0.00031068092
1.4065945e-05
0.00030078934
1.3075137e-05
0.00029156638
1.2184562e-05
0.00028293035
1.1410494e-05
0.00027481891
1.0720075e-05
0.00026718615
1.0084965e-05
0.0002599886
9.506151e-06
0.00025318262
8.9895319e-06
0.00024673549
8.5166116e-06
0.0002406245
8.0711777e-06
0.00023482718
7.6555305e-06
0.00022932028
7.2725867e-06
0.00022408701
6.9115649e-06
0.00021911596
6.5642976e-06
0.00021439534
6.2330182e-06
0.00020991367
5.9179224e-06
0.00020566361
5.6123659e-06
0.00020164096
5.3119049e-06
0.00019784195
5.0169597e-06
0.00019426492
4.7246925e-06
0.00019091216
4.4291922e-06
0.0001877886
4.1270128e-06
0.00018489968
3.818209e-06
0.00018225271
3.5003844e-06
0.00017985803
3.1690357e-06
0.00017772604
2.8249925e-06
0.00017587873
2.45017e-06
0.00017433309
2.0547853e-06
0.00017310741
1.631588e-06
0.00017221747
1.1848469e-06
0.00017166248
7.4043454e-07
0.00017143415
3.0597171e-07
0.00017151607
-1.0773628e-07
0.00017188407
-4.904618e-07
0.00017249931
-8.2212739e-07
0.00017330673
-1.0789198e-06
0.00017425829
-1.2745411e-06
0.00017529911
-1.4024717e-06
0.00017633557
-1.4035202e-06
0.00017726518
-1.2648235e-06
0.00017799737
-9.9975679e-07
0.00017849045
-6.7897547e-07
0.00017873625
-3.4646978e-07
0.0001787465
-2.8489929e-08
0.00017854878
2.517721e-07
0.00017818046
4.8123058e-07
0.0001776802
6.5854218e-07
0.00017708259
7.8930558e-07
0.00017641776
8.7917287e-07
0.0001757087
9.3825371e-07
0.00017497272
9.741551e-07
0.00017422291
9.9252789e-07
0.00017346863
9.9829749e-07
0.00017271553
9.9672671e-07
0.00017196823
9.890361e-07
0.00017123015
9.7666132e-07
0.00017050187
9.6379354e-07
0.00016978414
9.4957548e-07
0.00016906602
9.4959804e-07
0.00016833572
9.6587873e-07
0.00016759751
9.7658623e-07
0.00016685566
9.8168909e-07
0.00016611195
9.8409995e-07
0.00016536568
9.8729712e-07
0.00016461416
9.9446526e-07
0.00016385704
1.0018077e-06
0.00016309317
1.0108587e-06
0.00016232301
1.0191982e-06
0.00016154689
1.0271394e-06
0.00016076534
1.034428e-06
0.0001599796
1.0399673e-06
0.00015918985
1.0454692e-06
0.00015839732
1.0491665e-06
0.00015760228
1.0527222e-06
0.00015680477
1.0560853e-06
0.00015600548
1.0590726e-06
0.00015519856
1.0687068e-06
0.00015439663
1.0656305e-06
0.0001535875
1.0542742e-06
0.00015257268
1.4177793e-06
0.00015201666
5.4701905e-07
2.5240784e-06
0.00083158383
8.6589833e-05
-0.00082711208
0.0008371001
0.0001148552
0.00084162817
0.00013248452
0.00084053288
0.0001377122
0.00083141714
0.00012933099
0.00081413295
0.00011211156
0.00079128885
9.4851477e-05
0.00076529797
8.0092701e-05
0.00073805978
6.9507752e-05
0.00071108532
6.203889e-05
0.00068521411
5.6370074e-05
0.00066074305
5.1495216e-05
0.0006376801
4.7181085e-05
0.00061592266
4.3490973e-05
0.00059540567
4.0267549e-05
0.00057609972
3.7304045e-05
0.00055794552
3.4607225e-05
0.00054084906
3.226305e-05
0.00052472637
3.0188637e-05
0.00050951228
2.8289224e-05
0.00049514143
2.6555414e-05
0.00048154007
2.5011856e-05
0.00046864793
2.3612214e-05
0.00045641755
2.2315344e-05
0.00044480276
2.1120944e-05
0.00043375515
2.0037143e-05
0.00042323582
1.9035938e-05
0.00041321491
1.8092084e-05
0.00040366369
1.7206751e-05
0.00039455402
1.6382256e-05
0.0003858645
1.5601089e-05
0.00037757934
1.4849459e-05
0.00036968352
1.4128831e-05
0.00036216351
1.3437939e-05
0.00035501054
1.2765333e-05
0.00034822002
1.2102427e-05
0.00034178914
1.1447837e-05
0.00033571822
1.079561e-05
0.00033001233
1.0135084e-05
0.00032468029
9.4590533e-06
0.00031973283
8.7656638e-06
0.00031518392
8.0492979e-06
0.00031105133
7.3016227e-06
0.00030735512
6.5212036e-06
0.00030412561
5.6796868e-06
0.00030139061
4.7897808e-06
0.00029917043
3.8517663e-06
0.00029747706
2.8782191e-06
0.00029630609
1.9114007e-06
0.00029563984
9.722252e-07
0.00029544718
8.4922506e-08
0.00029568503
-7.2831247e-07
0.00029629172
-1.4288133e-06
0.00029718643
-1.9736303e-06
0.00029829104
-2.3791543e-06
0.00029951049
-2.6219243e-06
0.00030070687
-2.5998942e-06
0.00030173891
-2.2968687e-06
0.00030249137
-1.7522142e-06
0.00030291014
-1.0977421e-06
0.00030298636
-4.2269563e-07
0.00030273791
2.199597e-07
0.00030220371
7.8597292e-07
0.00030143595
1.2489891e-06
0.00030048766
1.60683e-06
0.00029940648
1.8704891e-06
0.00029823375
2.0518982e-06
0.00029700191
2.1701028e-06
0.00029573577
2.2402911e-06
0.00029445413
2.2741646e-06
0.00029317044
2.281987e-06
0.00029189331
2.273865e-06
0.00029062959
2.2527473e-06
0.00028938418
2.2220741e-06
0.00028815833
2.1896426e-06
0.0002869522
2.1557117e-06
0.00028574848
2.1533172e-06
0.00028453224
2.1821156e-06
0.00028331118
2.1976452e-06
0.00028208991
2.2029664e-06
0.00028086908
2.2049224e-06
0.00027964685
2.2095279e-06
0.00027841949
2.2218324e-06
0.00027718562
2.235676e-06
0.00027594359
2.252889e-06
0.00027469357
2.2692157e-06
0.00027343587
2.2848393e-06
0.00027217122
2.2990778e-06
0.00027090108
2.310104e-06
0.00026962598
2.3205752e-06
0.00026834733
2.3278166e-06
0.00026706587
2.334181e-06
0.00026578135
2.3406028e-06
0.00026449558
2.3448421e-06
0.000263198
2.3662878e-06
0.00026191382
2.3498073e-06
0.00026058529
2.382806e-06
0.00025910146
2.9016098e-06
0.00025782939
1.8190867e-06
4.6019457e-06
0.0008613805
8.2259438e-05
-0.0008570501
0.00086791668
0.00010831903
0.00087520725
0.00012519395
0.00088223362
0.00013068583
0.00088614215
0.00012542246
0.00088512714
0.00011312657
0.00088104102
9.893759e-05
0.00087431786
8.6815867e-05
0.00086523207
7.8593545e-05
0.00085402875
7.3242204e-05
0.00084103791
6.9360919e-05
0.00082646031
6.6072816e-05
0.00081066073
6.2980656e-05
0.00079422847
5.9923234e-05
0.00077750283
5.6993187e-05
0.0007607094
5.4097483e-05
0.00074398659
5.1330029e-05
0.00072742227
4.8827369e-05
0.00071110135
4.6509562e-05
0.00069510264
4.4287931e-05
0.00067948133
4.2176726e-05
0.00066426443
4.0228755e-05
0.00064947357
3.8403075e-05
0.00063512702
3.6661896e-05
0.00062123361
3.5014347e-05
0.00060779005
3.3480709e-05
0.00059479324
3.203275e-05
0.00058224105
3.0644269e-05
0.0005701271
2.9320701e-05
0.00055844186
2.8067501e-05
0.00054717895
2.6863993e-05
0.00053633457
2.5693845e-05
0.00052590396
2.4559439e-05
0.00051588298
2.3458921e-05
0.00050627161
2.2376697e-05
0.00049707378
2.1300254e-05
0.00048829438
2.0227244e-05
0.00047993977
1.915022e-05
0.00047202009
1.8054761e-05
0.00046454907
1.6930076e-05
0.00045754274
1.577199e-05
0.00045102071
1.4571324e-05
0.00044500625
1.3316091e-05
0.00043952641
1.2001044e-05
0.00043461383
1.0592258e-05
0.00043029554
9.1080806e-06
0.00042658272
7.5645799e-06
0.00042347386
5.9870822e-06
0.00042095714
4.4281158e-06
0.00041900974
2.9196336e-06
0.00041759734
1.4973175e-06
0.00041667045
1.9857649e-07
0.00041615838
-9.1674688e-07
0.00041597777
-1.7930117e-06
0.00041604242
-2.4438087e-06
0.00041623461
-2.8141151e-06
0.00041640259
-2.7678689e-06
0.0004164132
-2.3074846e-06
0.00041617226
-1.5112688e-06
0.00041563951
-5.6499606e-07
0.00041481086
4.0595142e-07
0.00041370569
1.3251311e-06
0.00041236074
2.1309261e-06
0.000410821
2.7887252e-06
0.00040913201
3.2958188e-06
0.00040733563
3.6668719e-06
0.00040546925
3.9182777e-06
0.00040356316
4.0761884e-06
0.00040164123
4.162224e-06
0.00039972179
4.1936017e-06
0.00039781802
4.1857614e-06
0.00039593874
4.1531416e-06
0.00039409121
4.1002855e-06
0.00039228023
4.033053e-06
0.00039050685
3.9630235e-06
0.00038876979
3.8927666e-06
0.0003870637
3.8594131e-06
0.00038538111
3.8647028e-06
0.00038371731
3.8614424e-06
0.00038206833
3.8519431e-06
0.00038043128
3.8419802e-06
0.00037880264
3.8381606e-06
0.00037717764
3.8468321e-06
0.00037555363
3.8596954e-06
0.000373928
3.8785122e-06
0.00037230004
3.8971734e-06
0.0003706694
3.9154862e-06
0.00036903628
3.9321982e-06
0.00036740168
3.9447013e-06
0.00036576585
3.9564086e-06
0.0003641298
3.963865e-06
0.00036249422
3.9697613e-06
0.00036085829
3.9765328e-06
0.00035922433
3.9788024e-06
0.0003575785
4.0121152e-06
0.00035595267
3.9756375e-06
0.00035426464
4.0708381e-06
0.00035247009
4.696159e-06
0.00035066427
3.6249019e-06
6.826384e-06
0.00089167295
7.8534412e-05
-0.00088794792
0.00089770606
0.00010228592
0.00090491311
0.00011798689
0.00091181887
0.00012378008
0.00091698611
0.00012025521
0.00091991489
0.00011019779
0.00092055577
9.8296707e-05
0.00091941293
8.7958714e-05
0.00091752595
8.0480517e-05
0.00091497469
7.579347e-05
0.00091168522
7.2650392e-05
0.00090743758
7.0320456e-05
0.00090198675
6.8431483e-05
0.00089527189
6.6638091e-05
0.00088736608
6.4898998e-05
0.00087829119
6.3172374e-05
0.00086819757
6.1423644e-05
0.00085737335
5.9651594e-05
0.00084598129
5.7901622e-05
0.00083414234
5.6126882e-05
0.00082195489
5.4364172e-05
0.00080949731
5.2686335e-05
0.00079684737
5.1053015e-05
0.00078408385
4.9425424e-05
0.00077127583
4.7822366e-05
0.00075847933
4.6277201e-05
0.00074574717
4.476491e-05
0.00073312676
4.3264685e-05
0.00072065588
4.1791574e-05
0.00070836485
4.035854e-05
0.00069628261
3.8946224e-05
0.00068443635
3.7540106e-05
0.00067284903
3.6146758e-05
0.00066154179
3.4766165e-05
0.00065053838
3.3380109e-05
0.00063986484
3.1973788e-05
0.00062954173
3.0550359e-05
0.00061958516
2.9106791e-05
0.00061001457
2.7625346e-05
0.00060085297
2.6091679e-05
0.00059212524
2.4499715e-05
0.00058385911
2.2837458e-05
0.00057608493
2.1090275e-05
0.00056883985
1.9246122e-05
0.00056215475
1.7277358e-05
0.00055603947
1.5223353e-05
0.00055048991
1.3114145e-05
0.00054550038
1.097661e-05
0.00054106516
8.86334e-06
0.00053717089
6.813897e-06
0.00053379419
4.8740206e-06
0.00053089441
3.0983532e-06
0.00052840847
1.5691994e-06
0.00052627231
3.4314526e-07
0.00052439452
-5.6602364e-07
0.00052262868
-1.048269e-06
0.00052084027
-9.794561e-07
0.00051895458
-4.2179656e-07
0.00051693389
5.0941761e-07
0.00051476771
1.6011853e-06
0.00051246027
2.7133869e-06
0.00051002425
3.7611562e-06
0.00050747933
4.6758494e-06
0.00050484938
5.418675e-06
0.00050215953
5.9856632e-06
0.00049943425
6.3921576e-06
0.00049669695
6.6555685e-06
0.00049396757
6.8055771e-06
0.00049126251
6.8672759e-06
0.00048859479
6.861328e-06
0.00048597371
6.8068381e-06
0.00048340601
6.720838e-06
0.00048089749
6.6088125e-06
0.00047845129
6.4792503e-06
0.0004760671
6.3472175e-06
0.00047374206
6.2178014e-06
0.00047147735
6.1241206e-06
0.00046927136
6.0707005e-06
0.00046711358
6.0192231e-06
0.00046499396
5.9715622e-06
0.00046290603
5.9299118e-06
0.0004608444
5.8997911e-06
0.00045880308
5.8881509e-06
0.00045677805
5.8847203e-06
0.00045476556
5.8910078e-06
0.00045276358
5.8991469e-06
0.00045077065
5.9084185e-06
0.00044878594
5.9169094e-06
0.00044680946
5.9211831e-06
0.00044484066
5.9252086e-06
0.00044287974
5.9247805e-06
0.00044092686
5.9226455e-06
0.00043898031
5.9230782e-06
0.00043704232
5.9167904e-06
0.00043509675
5.9576849e-06
0.00043317788
5.894515e-06
0.00043119271
6.0560089e-06
0.00042914156
6.7473081e-06
0.00042690581
5.8606537e-06
9.1471489e-06
0.00092306709
7.5203411e-05
-0.00091973609
0.00092858679
9.6766216e-05
0.00093516029
0.00011141339
0.00094157994
0.00011736043
0.00094673074
0.00011510441
0.00094997494
0.00010695359
0.00095156326
9.6708384e-05
0.00095193862
8.7583363e-05
0.00095160007
8.0819066e-05
0.00095108882
7.6304716e-05
0.00095044148
7.3297733e-05
0.00094959213
7.1169803e-05
0.00094844175
6.9581871e-05
0.00094686358
6.8216258e-05
0.00094478068
6.6981898e-05
0.00094205744
6.5895608e-05
0.00093855307
6.4928018e-05
0.00093422603
6.3978635e-05
0.00092908209
6.304556e-05
0.00092310058
6.2108399e-05
0.000916335
6.1129751e-05
0.00090891276
6.010857e-05
0.00090090978
5.9055995e-05
0.00089238481
5.7950391e-05
0.00088339016
5.6817022e-05
0.00087397834
5.5689017e-05
0.00086420591
5.4537342e-05
0.00085412704
5.3343557e-05
0.0008437943
5.2124307e-05
0.00083325925
5.0893593e-05
0.00082257442
4.9631055e-05
0.00081179088
4.8323652e-05
0.00080095489
4.6982743e-05
0.00079010936
4.5611696e-05
0.00077929716
4.4192305e-05
0.00076856123
4.2709724e-05
0.00075794345
4.1168135e-05
0.00074748547
3.9564766e-05
0.000737229
3.7881822e-05
0.00072721548
3.6105202e-05
0.00071748582
3.4229375e-05
0.00070808246
3.2240812e-05
0.00069905011
3.0122625e-05
0.00069044675
2.7849488e-05
0.00068227972
2.5444383e-05
0.00067452617
2.29769e-05
0.00066720839
2.0431926e-05
0.00066035826
1.7826746e-05
0.0006539942
1.5227398e-05
0.000648116
1.2692092e-05
0.00064270592
1.0284105e-05
0.00063772513
8.0791377e-06
0.00063312315
6.1711804e-06
0.00062887197
4.5943262e-06
0.00062484222
3.4637262e-06
0.00062084353
2.9504224e-06
0.00061682401
3.0400665e-06
0.0006128091
3.5931132e-06
0.00060881396
4.5045584e-06
0.00060484354
5.5716063e-06
0.00060090094
6.6559883e-06
0.00059698795
7.6741399e-06
0.00059310629
8.5575103e-06
0.00058926017
9.2647999e-06
0.00058545585
9.7899784e-06
0.00058170066
1.0147352e-05
0.00057800316
1.0353069e-05
0.00057437135
1.0437378e-05
0.00057081256
1.0426067e-05
0.00056733308
1.0340809e-05
0.000563938
1.0201918e-05
0.00056063044
1.00284e-05
0.00055741245
9.8268012e-06
0.00055428457
9.6071369e-06
0.0005512446
9.3871859e-06
0.00054828853
9.1738689e-06
0.00054541462
8.9980299e-06
0.00054262141
8.8639099e-06
0.00053990201
8.7386268e-06
0.00053724642
8.6271455e-06
0.00053464654
8.5297996e-06
0.00053209549
8.4508395e-06
0.00052958621
8.3974336e-06
0.00052711346
8.3574686e-06
0.0005246723
8.3321695e-06
0.00052225937
8.3120717e-06
0.00051987189
8.2958999e-06
0.00051750775
8.2810467e-06
0.00051516571
8.263228e-06
0.0005128443
8.2466169e-06
0.00051054273
8.2263457e-06
0.00050826008
8.2053024e-06
0.0005059935
8.1896518e-06
0.00050374463
8.1656639e-06
0.00050149574
8.2065733e-06
0.00049928082
8.1094411e-06
0.00049700247
8.3343529e-06
0.00049469275
9.0570319e-06
0.00049206437
8.489035e-06
1.1596166e-05
0.00095544624
7.2203243e-05
-0.00095244608
0.00096053142
9.1681042e-05
0.00096660174
0.00010534306
0.00097257218
0.00011139
0.00097745608
0.00011022051
0.00098070362
0.00010370606
0.0009824566
9.4955398e-05
0.0009832173
8.6822672e-05
0.00098342831
8.0608052e-05
0.0009834141
7.6318922e-05
0.00098332547
7.3386365e-05
0.00098321101
7.1284262e-05
0.0009830669
6.972598e-05
0.00098282904
6.8454124e-05
0.0009824518
6.7359138e-05
0.00098189779
6.644962e-05
0.0009811172
6.5708607e-05
0.00098004692
6.5048909e-05
0.00097863633
6.4456157e-05
0.00097679876
6.3945963e-05
0.00097444146
6.3487053e-05
0.00097152299
6.3027041e-05
0.00096802198
6.2557004e-05
0.00096390652
6.2065854e-05
0.00095919122
6.1532327e-05
0.0009539267
6.0953531e-05
0.00094814117
6.0322872e-05
0.00094185944
5.962529e-05
0.00093510451
5.8879239e-05
0.0009279024
5.8095702e-05
0.00092028632
5.7247133e-05
0.00091229225
5.6317718e-05
0.00090395171
5.5323291e-05
0.00089529673
5.4266674e-05
0.00088636572
5.3123313e-05
0.00087719817
5.1877273e-05
0.00086783605
5.0530252e-05
0.00085832652
4.9074296e-05
0.0008487192
4.7489147e-05
0.00083906472
4.575968e-05
0.00082941452
4.3879576e-05
0.00081982228
4.1833049e-05
0.00081034522
3.9599689e-05
0.00080104381
3.7150893e-05
0.00079196736
3.4520839e-05
0.00078313923
3.1805025e-05
0.00077457635
2.8994811e-05
0.0007663104
2.6092694e-05
0.00075837228
2.3165519e-05
0.0007507815
2.0282873e-05
0.00074354237
1.7523228e-05
0.00073664019
1.4981321e-05
0.00073006038
1.2750991e-05
0.00072380977
1.0844935e-05
0.0007178069
9.4666012e-06
0.00071191276
8.8445561e-06
0.00070608842
8.8644053e-06
0.0007003538
9.3277363e-06
0.0006947204
1.0137956e-05
0.00068919416
1.1097843e-05
0.00068378332
1.2066834e-05
0.00067849082
1.2966636e-05
0.00067331461
1.3733727e-05
0.00066825466
1.4324743e-05
0.00066331177
1.473287e-05
0.00065848558
1.4973541e-05
0.0006537766
1.5062051e-05
0.00064918578
1.5028198e-05
0.00064471425
1.4897594e-05
0.0006403631
1.4691965e-05
0.0006361338
1.443121e-05
0.00063202649
1.4135719e-05
0.0006280401
1.3813191e-05
0.00062417273
1.3474504e-05
0.00062042032
1.3139593e-05
0.00061677784
1.2816355e-05
0.00061324098
1.253489e-05
0.00060980663
1.2298253e-05
0.00060647003
1.2075229e-05
0.00060322292
1.1874257e-05
0.00060005729
1.1695429e-05
0.00059696568
1.1542447e-05
0.00059394028
1.1422838e-05
0.00059097487
1.1322875e-05
0.00058806345
1.1243594e-05
0.00058520138
1.1174143e-05
0.00058238452
1.1112756e-05
0.00057960941
1.1056157e-05
0.00057687341
1.0999229e-05
0.00057417389
1.0946133e-05
0.00057150887
1.0891365e-05
0.00056887618
1.0837996e-05
0.00056627176
1.0794071e-05
0.00056369632
1.0741105e-05
0.00056113089
1.0772006e-05
0.00055860794
1.0632384e-05
0.00055602774
1.0914558e-05
0.00055344771
1.1637057e-05
0.00055044197
1.1494778e-05
1.420427e-05
0.00098885144
6.9472813e-05
-0.00098612101
0.0009935303
8.7002183e-05
0.00099916184
9.9711524e-05
0.0010047445
0.00010580734
0.0010094028
0.0001055622
0.0010126277
0.00010048113
0.0010144772
9.3105916e-05
0.001015377
8.5922875e-05
0.0010157638
8.0221264e-05
0.0010159367
7.6145975e-05
0.0010160354
7.328767e-05
0.0010161059
7.1213782e-05
0.0010161757
6.9656193e-05
0.0010162302
6.8399666e-05
0.0010162412
6.7348119e-05
0.0010162055
6.6485306e-05
0.0010161191
6.5794993e-05
0.0010159557
6.5212347e-05
0.001015694
6.4717844e-05
0.0010153098
6.433017e-05
0.0010147677
6.4029106e-05
0.0010140268
6.3767918e-05
0.001013047
6.3536855e-05
0.0010117669
6.3345926e-05
0.0010101238
6.3175445e-05
0.0010080802
6.299714e-05
0.0010056043
6.2798747e-05
0.0010026653
6.25643e-05
0.00099926275
6.2281799e-05
0.00099541044
6.1948009e-05
0.00099111066
6.1546912e-05
0.00098636498
6.1063399e-05
0.0009811781
6.0510175e-05
0.00097555891
5.9885861e-05
0.00096951947
5.9162747e-05
0.00096307392
5.8322823e-05
0.00095623772
5.7366455e-05
0.00094902743
5.6284587e-05
0.00094146183
5.5054753e-05
0.00093356637
5.3655133e-05
0.00092537235
5.2073599e-05
0.00091691545
5.0289944e-05
0.00090823819
4.8276957e-05
0.0008993791
4.6009977e-05
0.00089041809
4.3481851e-05
0.00088145027
4.0772849e-05
0.00087250922
3.7935854e-05
0.00086361636
3.4985557e-05
0.00085480539
3.1976493e-05
0.00084611563
2.8972632e-05
0.00083758762
2.6051236e-05
0.00082925829
2.3310653e-05
0.00082115615
2.0853131e-05
0.00081328892
1.8712163e-05
0.00080570004
1.7055478e-05
0.00079837152
1.6173076e-05
0.00079122295
1.6012979e-05
0.0007842188
1.6331884e-05
0.00077732623
1.7030534e-05
0.0007705461
1.7877973e-05
0.00076389404
1.8718891e-05
0.00075737658
1.9484099e-05
0.00075099794
2.0112364e-05
0.0007447684
2.0554282e-05
0.0007386944
2.080687e-05
0.00073277638
2.0891557e-05
0.00072701547
2.0822962e-05
0.0007214127
2.0630969e-05
0.00071596743
2.0342867e-05
0.00071067831
1.9981083e-05
0.00070554491
1.9564615e-05
0.00070056609
1.9114535e-05
0.00069573966
1.8639622e-05
0.00069106221
1.8151954e-05
0.00068652819
1.7673615e-05
0.0006821317
1.7212838e-05
0.00067786707
1.679952e-05
0.00067372962
1.6435705e-05
0.000669715
1.6089848e-05
0.00066581635
1.5772908e-05
0.00066202649
1.5485293e-05
0.00065833802
1.5230916e-05
0.00065474273
1.5018129e-05
0.00065123366
1.483194e-05
0.00064780384
1.4673416e-05
0.00064444743
1.4530558e-05
0.00064115895
1.4401236e-05
0.00063793352
1.4281586e-05
0.00063476704
1.4165704e-05
0.00063165544
1.4057736e-05
0.00062859531
1.3951494e-05
0.00062558323
1.3850077e-05
0.00062261388
1.3763415e-05
0.00061968686
1.3668134e-05
0.000616782
1.3676865e-05
0.00061392983
1.3484555e-05
0.00061102839
1.3815995e-05
0.00060815751
1.4507934e-05
0.00060476932
1.4882972e-05
1.7002324e-05
0.0010233199
6.6956447e-05
-0.0010208035
0.0010276179
8.2704124e-05
0.0010328356
9.4493798e-05
0.0010380581
0.00010058484
0.0010425105
0.00010110989
0.0010457151
9.727648e-05
0.0010476655
9.1155489e-05
0.0010487014
8.4886957e-05
0.0010492123
7.9710452e-05
0.0010494821
7.5876102e-05
0.00104966
7.3109773e-05
0.001049807
7.106682e-05
0.0010499479
6.9515278e-05
0.001050074
6.8273539e-05
0.0010501774
6.7244756e-05
0.0010502604
6.6402341e-05
0.0010503334
6.5721934e-05
0.001050387
6.5158748e-05
0.0010504037
6.4701151e-05
0.001050386
6.4347847e-05
0.0010503307
6.4084429e-05
0.0010502212
6.3877442e-05
0.001050042
6.3716015e-05
0.0010497746
6.3613361e-05
0.0010493934
6.355661e-05
0.0010488696
6.3520927e-05
0.0010481712
6.3497218e-05
0.0010472524
6.3483072e-05
0.0010460683
6.3465887e-05
0.001044588
6.3428312e-05
0.0010427772
6.3357687e-05
0.0010406057
6.3234983e-05
0.0010380662
6.3049603e-05
0.0010351554
6.2796695e-05
0.0010318624
6.2455764e-05
0.0010281753
6.2009937e-05
0.0010240827
6.1458969e-05
0.0010195775
6.0789848e-05
0.0010146557
5.9976582e-05
0.0010093132
5.8997628e-05
0.0010035451
5.7841628e-05
0.00099734768
5.648739e-05
0.00099072024
5.49044e-05
0.00098365891
5.3071299e-05
0.00097617315
5.0967613e-05
0.00096832414
4.8621862e-05
0.00096018121
4.6078785e-05
0.00095178907
4.3377691e-05
0.00094318951
4.0576061e-05
0.00093442882
3.7733319e-05
0.00092556302
3.4917037e-05
0.00091665921
3.2214463e-05
0.00090778041
2.9731925e-05
0.00089895278
2.7539801e-05
0.00089027647
2.5731786e-05
0.0008818908
2.4558747e-05
0.00087379223
2.4111548e-05
0.00086585333
2.4270778e-05
0.00085799599
2.4887877e-05
0.00085023986
2.5634107e-05
0.00084258773
2.637102e-05
0.0008350369
2.7034924e-05
0.00082760548
2.7543786e-05
0.00082031772
2.7842037e-05
0.0008131843
2.7940299e-05
0.00080621093
2.7864924e-05
0.00079940833
2.7625559e-05
0.00079278341
2.7255888e-05
0.00078633727
2.6789012e-05
0.00078007069
2.6247657e-05
0.00077398545
2.5649858e-05
0.00076808121
2.5018774e-05
0.00076235603
2.4364805e-05
0.00075680674
2.3701249e-05
0.00075142766
2.3052686e-05
0.00074621303
2.2427473e-05
0.00074115723
2.1855317e-05
0.0007362551
2.1337834e-05
0.00073150223
2.0842721e-05
0.00072689258
2.0382559e-05
0.00072241996
1.9957916e-05
0.00071807745
1.9573428e-05
0.0007138568
1.9238775e-05
0.00070975061
1.8938129e-05
0.0007057511
1.8672924e-05
0.00070185138
1.8430281e-05
0.00069804473
1.8207885e-05
0.00069432489
1.8001422e-05
0.00069068631
1.7804286e-05
0.00068712338
1.7620669e-05
0.00068363119
1.7443686e-05
0.00068020493
1.7276333e-05
0.00067683798
1.713037e-05
0.00067352863
1.697748e-05
0.00067025555
1.6949947e-05
0.00066704716
1.6692942e-05
0.00066379887
1.706429e-05
0.00066061119
1.769561e-05
0.00065682274
1.8671429e-05
2.0020991e-05
0.0010588808
6.4614438e-05
-0.0010565388
0.0010628277
7.8757225e-05
0.0010676564
8.9665156e-05
0.0010725405
9.5700701e-05
0.0010767889
9.6861502e-05
0.0010799589
9.4106456e-05
0.0010819973
8.9117112e-05
0.0010831677
8.371658e-05
0.001083808
7.9070118e-05
0.0010841785
7.5505622e-05
0.0010844272
7.2861072e-05
0.0010846235
7.087046e-05
0.0010847997
6.9339071e-05
0.0010849587
6.8114587e-05
0.0010850987
6.7104795e-05
0.0010852236
6.6277393e-05
0.0010853371
6.5608483e-05
0.0010854351
6.5060731e-05
0.001085518
6.4618256e-05
0.0010855886
6.4277179e-05
0.0010856525
6.4020584e-05
0.0010857045
6.3825383e-05
0.0010857302
6.3690317e-05
0.001085729
6.3614637e-05
0.0010856995
6.3586029e-05
0.0010856306
6.3589873e-05
0.0010855112
6.3616619e-05
0.0010853263
6.3667982e-05
0.001085056
6.3736223e-05
0.0010846789
6.3805344e-05
0.0010841688
6.3867818e-05
0.0010834903
6.3913429e-05
0.0010826097
6.393027e-05
0.0010815012
6.3905221e-05
0.0010801315
6.3825462e-05
0.0010784733
6.3668047e-05
0.0010765144
6.3417938e-05
0.0010742374
6.3066857e-05
0.001071624
6.2589986e-05
0.0010686535
6.1968043e-05
0.0010653031
6.1192054e-05
0.0010615483
6.0242221e-05
0.0010573631
5.908963e-05
0.001052718
5.7716363e-05
0.0010475751
5.6110469e-05
0.0010419144
5.428263e-05
0.0010357449
5.2248246e-05
0.0010290835
5.003913e-05
0.0010219478
4.7711694e-05
0.0010143619
4.5319221e-05
0.0010063613
4.2917724e-05
0.00099799767
4.0578046e-05
0.00098933937
3.8390224e-05
0.00098044797
3.6431199e-05
0.00097141578
3.4763974e-05
0.00096243621
3.3538322e-05
0.00095364739
3.2900367e-05
0.00094505097
3.2867198e-05
0.00093662407
3.3314776e-05
0.00092830535
3.3952824e-05
0.00092001238
3.4663997e-05
0.00091174091
3.5306387e-05
0.00090354256
3.574214e-05
0.00089543712
3.5947477e-05
0.00088743079
3.594663e-05
0.00087954749
3.5748224e-05
0.00087181413
3.535892e-05
0.00086424264
3.4827371e-05
0.00085683983
3.4191827e-05
0.00084961646
3.347102e-05
0.00084258118
3.2685143e-05
0.00083573665
3.1863306e-05
0.00082908425
3.1017199e-05
0.00082262448
3.0161018e-05
0.00081635417
2.9323002e-05
0.00081026992
2.8511719e-05
0.00080436857
2.7756666e-05
0.00079864613
2.7060274e-05
0.00079309875
2.6390105e-05
0.00078772141
2.5759901e-05
0.00078250909
2.5170229e-05
0.00077745572
2.4626806e-05
0.00077255347
2.4141018e-05
0.00076779495
2.3696656e-05
0.00076317187
2.3295996e-05
0.00075867659
2.2925562e-05
0.00075430139
2.2583091e-05
0.00075003878
2.226403e-05
0.00074588185
2.1961217e-05
0.00074182352
2.1678995e-05
0.00073785738
2.1409824e-05
0.00073397717
2.1156543e-05
0.00073017488
2.0932659e-05
0.00072644746
2.0704904e-05
0.00072277229
2.0625116e-05
0.00071917575
2.0289484e-05
0.00071555002
2.0690022e-05
0.00071201522
2.1230407e-05
0.00070779952
2.2887124e-05
2.3291384e-05
0.0010955683
6.2418607e-05
-0.0010933725
0.0010991963
7.5129225e-05
0.0011036618
8.5199649e-05
0.001108228
9.1134493e-05
0.0011122747
9.2814819e-05
0.0011153945
9.0986644e-05
0.0011175012
8.7010436e-05
0.0011187921
8.2425628e-05
0.0011195564
7.8305866e-05
0.00112003
7.503201e-05
0.0011203563
7.2534799e-05
0.0011206084
7.0618376e-05
0.0011208232
6.9124261e-05
0.0011210113
6.7926456e-05
0.0011211753
6.6940753e-05
0.0011213211
6.6131664e-05
0.0011214535
6.547604e-05
0.0011215727
6.4941522e-05
0.0011216805
6.4510479e-05
0.0011217803
6.4177339e-05
0.0011218733
6.3927583e-05
0.001121957
6.3741687e-05
0.0011220317
6.3615676e-05
0.0011220988
6.3547515e-05
0.0011221585
6.3526344e-05
0.0011222132
6.3535154e-05
0.0011222519
6.3577887e-05
0.001122266
6.3653898e-05
0.0011222582
6.3744081e-05
0.0011222202
6.3843288e-05
0.0011221438
6.3944199e-05
0.001122017
6.4040263e-05
0.0011218232
6.4124103e-05
0.001121546
6.4182341e-05
0.0011211631
6.4208411e-05
0.0011206459
6.418522e-05
0.0011199685
6.4095378e-05
0.0011191069
6.392845e-05
0.0011180301
6.3666797e-05
0.0011167124
6.3285707e-05
0.0011151365
6.2768017e-05
0.0011132757
6.2102935e-05
0.0011110996
6.1265724e-05
0.0011085741
6.0241865e-05
0.0011056583
5.9026353e-05
0.0011023064
5.7634516e-05
0.0010984761
5.6078487e-05
0.0010941323
5.4382994e-05
0.0010892437
5.2600289e-05
0.0010837844
5.0778449e-05