/*--------------------------------*- C++ -*----------------------------------*\
| =========                 |                                                 |
| \\      /  F ield         | OpenFOAM: The Open Source CFD Toolbox           |
|  \\    /   O peration     | Version:  2206                                  |
|   \\  /    A nd           | Website:  www.openfoam.com                      |
|    \\/     M anipulation  |                                                 |
\*---------------------------------------------------------------------------*/
FoamFile
{
    version     2.0;
    format      ascii;
    arch        "LSB;label=32;scalar=64";
    class       volVectorField;
    location    "2000";
    object      U;
}
// * * * * * * * * * * * * * * * * * * * * * * * * * * * * * * * * * * * * * //

dimensions      [0 1 -1 0 0 0 0];

internalField   nonuniform List<vector> 
7480
(
(0.82757933 0.011162258 0)
(0.70301968 0.020211138 0)
(0.5665686 0.021425874 0)
(0.43054926 0.014558974 0)
(0.33055657 0.0062886771 0)
(0.26657766 0.0019107307 0)
(0.23007605 0.0022248218 0)
(0.20853328 -0.00029145378 0)
(0.19447481 -0.0004301695 0)
(0.18414661 -0.00017547229 0)
(0.17532299 8.2369945e-07 0)
(0.16713463 5.4032459e-05 0)
(0.15956359 6.4737571e-05 0)
(0.15266263 6.6770878e-05 0)
(0.14637509 0.00021300788 0)
(0.14063742 0.00018687728 0)
(0.13540551 7.0893099e-05 0)
(0.13061906 5.2038282e-05 0)
(0.1261926 4.526164e-05 0)
(0.12207792 4.0650793e-05 0)
(0.1182537 3.7170725e-05 0)
(0.11468402 3.5211281e-05 0)
(0.11133217 3.2985196e-05 0)
(0.10818019 3.0312672e-05 0)
(0.10521543 2.7990565e-05 0)
(0.10241772 2.6273709e-05 0)
(0.099767846 2.4471234e-05 0)
(0.097256605 2.2513549e-05 0)
(0.094877386 2.0802568e-05 0)
(0.092619216 1.937804e-05 0)
(0.090472495 1.7923471e-05 0)
(0.088433059 1.6440863e-05 0)
(0.086497237 1.5123231e-05 0)
(0.08465913 1.3944218e-05 0)
(0.082914189 1.2770534e-05 0)
(0.081260792 1.1615236e-05 0)
(0.079697384 1.0555132e-05 0)
(0.078222001 9.5441123e-06 0)
(0.076834529 8.5265239e-06 0)
(0.075536915 7.51939e-06 0)
(0.074331095 6.5671405e-06 0)
(0.073218547 5.6518775e-06 0)
(0.07220276 4.7288548e-06 0)
(0.071286526 3.8560383e-06 0)
(0.070473953 1.5687624e-05 0)
(0.069786644 6.5891353e-06 0)
(0.069209502 -5.9969508e-09 0)
(0.068772183 -1.6413783e-07 0)
(0.068474369 -8.6958606e-07 0)
(0.068312502 -1.5692347e-06 0)
(0.068282957 -2.3158025e-06 0)
(0.068379318 -2.8575245e-06 0)
(0.068590806 -3.2440808e-06 0)
(0.068895244 -3.3669263e-06 0)
(0.06927095 -3.4726586e-06 0)
(0.069706106 -3.58218e-06 0)
(0.070171488 -3.2774299e-06 0)
(0.070619893 -2.7639211e-06 0)
(0.071003886 -2.3873869e-06 0)
(0.071287103 -5.0719503e-06 0)
(0.071464336 -1.0963645e-06 0)
(0.071535827 -5.4162319e-07 0)
(0.071509361 -1.7118065e-07 0)
(0.071400506 1.2750348e-08 0)
(0.071227071 1.2787334e-07 0)
(0.071005042 2.0734391e-07 0)
(0.07074876 2.4190877e-07 0)
(0.070469848 2.6182091e-07 0)
(0.07017664 2.6896058e-07 0)
(0.069875388 2.6560978e-07 0)
(0.069570952 2.5419758e-07 0)
(0.069266206 2.458764e-07 0)
(0.068962917 2.3478494e-07 0)
(0.068663089 2.1964613e-07 0)
(0.068367217 2.1529077e-07 0)
(0.068075654 2.0541166e-07 0)
(0.067788853 2.1617111e-07 0)
(0.067497317 2.4617292e-07 0)
(0.067200871 2.5308548e-07 0)
(0.066902209 2.5908216e-07 0)
(0.066602482 2.5828186e-07 0)
(0.066302346 2.5592994e-07 0)
(0.066000489 2.6240164e-07 0)
(0.065696286 2.5991034e-07 0)
(0.065389512 2.6262258e-07 0)
(0.065079922 2.6099271e-07 0)
(0.06476787 2.5968132e-07 0)
(0.06445331 2.5881243e-07 0)
(0.064136837 2.54395e-07 0)
(0.063818544 2.5383722e-07 0)
(0.063498809 2.4849386e-07 0)
(0.06317773 2.4757574e-07 0)
(0.06285597 2.4167457e-07 0)
(0.062531434 2.4830767e-07 0)
(0.062210039 2.2366117e-07 0)
(0.061869848 3.0754538e-07 0)
(0.061576241 8.463119e-07 0)
(0.061138385 1.1232486e-05 0)
(0.060897733 1.9064047e-05 0)
(0.060226401 1.020948e-05 0)
(0.95867852 0.028037723 0)
(0.94943863 0.038590698 0)
(0.93031153 0.041836434 0)
(0.88513832 0.039313722 0)
(0.82442609 0.032448512 0)
(0.75684112 0.023979482 0)
(0.69438803 0.015507377 0)
(0.6414112 0.0094014031 0)
(0.59778471 0.0060292736 0)
(0.56173123 0.0043629414 0)
(0.53124281 0.003559725 0)
(0.50478689 0.0030816631 0)
(0.48144831 0.0027034557 0)
(0.46060717 0.0023890292 0)
(0.44177588 0.002131016 0)
(0.42463147 0.0018772961 0)
(0.40896757 0.0016551433 0)
(0.39457699 0.0014830791 0)
(0.38126788 0.0013368206 0)
(0.36890447 0.0012054003 0)
(0.35739236 0.0010889829 0)
(0.34663537 0.00098989928 0)
(0.33654458 0.00090281199 0)
(0.32705708 0.0008238518 0)
(0.31811887 0.00075324646 0)
(0.30967819 0.00069139632 0)
(0.30168789 0.00063566397 0)
(0.29411514 0.00058417198 0)
(0.28693437 0.00053725895 0)
(0.28011754 0.00049506065 0)
(0.27363953 0.00045623161 0)
(0.26748398 0.0004199455 0)
(0.26163775 0.00038643622 0)
(0.25608644 0.00035560361 0)
(0.25081813 0.00032674546 0)
(0.24582626 0.00029948988 0)
(0.2411063 0.00027388422 0)
(0.2366546 0.00024965701 0)
(0.23247131 0.00022635999 0)
(0.22856129 0.00020380743 0)
(0.22493109 0.00018205803 0)
(0.2215878 0.00016096645 0)
(0.21854286 0.00014027882 0)
(0.21580775 0.00012006503 0)
(0.21339908 0.00010040907 0)
(0.21134857 6.9069573e-05 0)
(0.20967502 5.782039e-05 0)
(0.20839743 3.7647062e-05 0)
(0.20753029 1.8507962e-05 0)
(0.20706464 7.0177005e-07 0)
(0.20698516 -1.5114048e-05 0)
(0.20726861 -2.8838655e-05 0)
(0.20787955 -3.9766203e-05 0)
(0.20875622 -4.7167002e-05 0)
(0.20983453 -5.2069836e-05 0)
(0.21106159 -5.4574793e-05 0)
(0.21234595 -5.2556181e-05 0)
(0.21356124 -4.6030291e-05 0)
(0.2145788 -3.4761622e-05 0)
(0.21532615 -2.5299072e-05 0)
(0.2157678 -1.4409728e-05 0)
(0.21591456 -4.9583762e-06 0)
(0.21578977 2.8033942e-06 0)
(0.21543466 8.7564531e-06 0)
(0.21489806 1.2989544e-05 0)
(0.21422472 1.5794496e-05 0)
(0.21345408 1.7428914e-05 0)
(0.21261821 1.8252538e-05 0)
(0.21174105 1.8507168e-05 0)
(0.21084048 1.8362642e-05 0)
(0.20993014 1.7956747e-05 0)
(0.20901855 1.7427269e-05 0)
(0.20811135 1.68009e-05 0)
(0.20721402 1.6111184e-05 0)
(0.20632849 1.5452223e-05 0)
(0.2054557 1.4788294e-05 0)
(0.2045955 1.4460126e-05 0)
(0.20372035 1.4446366e-05 0)
(0.20283155 1.4264598e-05 0)
(0.20193718 1.3971203e-05 0)
(0.20104009 1.362721e-05 0)
(0.2001411 1.3297454e-05 0)
(0.19923711 1.3036834e-05 0)
(0.19832638 1.2770568e-05 0)
(0.19740802 1.2532752e-05 0)
(0.19648156 1.228228e-05 0)
(0.19554776 1.2029268e-05 0)
(0.19460684 1.1771694e-05 0)
(0.1936603 1.1494429e-05 0)
(0.1927087 1.1225845e-05 0)
(0.19175316 1.0938659e-05 0)
(0.19079413 1.0660791e-05 0)
(0.18983342 1.0384784e-05 0)
(0.18886661 1.0119985e-05 0)
(0.1879066 9.9107742e-06 0)
(0.18690507 9.6321145e-06 0)
(0.18600669 1.148065e-05 0)
(0.18477417 3.9482717e-05 0)
(0.18403285 6.4897827e-05 0)
(0.18205878 3.357926e-05 0)
(0.9680416 0.02970692 0)
(0.97312907 0.037719761 0)
(0.98241562 0.041542812 0)
(0.98427655 0.041014509 0)
(0.97940514 0.037120793 0)
(0.96363984 0.030605085 0)
(0.93928362 0.024146434 0)
(0.91013713 0.019116441 0)
(0.87837749 0.015500419 0)
(0.84618086 0.012897285 0)
(0.81518293 0.010957371 0)
(0.78578252 0.0094044766 0)
(0.75804844 0.0081185587 0)
(0.73189855 0.0070809587 0)
(0.70722941 0.0062333621 0)
(0.68398519 0.0055123709 0)
(0.66212886 0.0048984361 0)
(0.64156759 0.0043848812 0)
(0.62218983 0.0039454174 0)
(0.60390714 0.0035580782 0)
(0.5866482 0.003216928 0)
(0.5703303 0.0029219255 0)
(0.55487307 0.0026627178 0)
(0.54021375 0.0024302961 0)
(0.52630019 0.0022225603 0)
(0.51307635 0.0020389127 0)
(0.50048993 0.0018739422 0)
(0.48850133 0.0017232111 0)
(0.47707776 0.0015859639 0)
(0.46618551 0.0014616509 0)
(0.45579486 0.0013475615 0)
(0.44588468 0.0012416773 0)
(0.43643776 0.0011437638 0)
(0.42743704 0.0010532974 0)
(0.41886899 0.00096880656 0)
(0.41072612 0.00088926724 0)
(0.40300443 0.00081439423 0)
(0.39570217 0.00074346802 0)
(0.38882226 0.00067545799 0)
(0.38237321 0.000609775 0)
(0.37636673 0.00054631457 0)
(0.37081669 0.0004846779 0)
(0.36574256 0.0004242861 0)
(0.3611647 0.00036527556 0)
(0.357112 0.0003047658 0)
(0.35362312 0.00022676279 0)
(0.35073064 0.0001886168 0)
(0.34844665 0.00012892244 0)
(0.34678167 7.4189036e-05 0)
(0.34572008 2.4091171e-05 0)
(0.34523368 -2.0682934e-05 0)
(0.34527838 -5.9356003e-05 0)
(0.34579726 -9.0473232e-05 0)
(0.34670012 -0.00011245714 0)
(0.34789433 -0.00012693201 0)
(0.34928893 -0.00013379023 0)
(0.3507425 -0.00012949583 0)
(0.35208116 -0.00011301783 0)
(0.35314251 -8.927617e-05 0)
(0.35383461 -5.8616705e-05 0)
(0.35411753 -3.0408562e-05 0)
(0.35400608 -5.0881125e-06 0)
(0.35353248 1.5981037e-05 0)
(0.35275389 3.2110462e-05 0)
(0.35173498 4.3616199e-05 0)
(0.35053515 5.125128e-05 0)
(0.34920683 5.57184e-05 0)
(0.34779315 5.7902628e-05 0)
(0.34632712 5.8465468e-05 0)
(0.3448337 5.7888551e-05 0)
(0.34333176 5.6560752e-05 0)
(0.3418334 5.4836309e-05 0)
(0.34034708 5.2826943e-05 0)
(0.33888038 5.0643603e-05 0)
(0.33743633 4.8507542e-05 0)
(0.33601609 4.6397384e-05 0)
(0.33461797 4.5181825e-05 0)
(0.33320192 4.4777916e-05 0)
(0.33177534 4.3994705e-05 0)
(0.33034795 4.293333e-05 0)
(0.32892129 4.1787177e-05 0)
(0.32749483 4.0707627e-05 0)
(0.32606422 3.9803981e-05 0)
(0.32462656 3.8931853e-05 0)
(0.32318002 3.8134014e-05 0)
(0.32172374 3.7324217e-05 0)
(0.32025834 3.6512021e-05 0)
(0.31878406 3.5688972e-05 0)
(0.31730273 3.4825131e-05 0)
(0.31581517 3.3973572e-05 0)
(0.3143228 3.3087441e-05 0)
(0.31282635 3.2213461e-05 0)
(0.3113282 3.1358466e-05 0)
(0.309823 3.0503645e-05 0)
(0.30832635 2.9878885e-05 0)
(0.30677903 2.8833949e-05 0)
(0.3053579 3.1448433e-05 0)
(0.30351736 7.1946226e-05 0)
(0.30231434 0.0001130578 0)
(0.29932267 5.2513962e-05 0)
(0.97008466 0.027083884 0)
(0.9764343 0.034266067 0)
(0.98549247 0.038379791 0)
(0.99345876 0.039213532 0)
(1.0016635 0.036177289 0)
(1.0025507 0.031201924 0)
(0.99959305 0.026293179 0)
(0.99335376 0.022247214 0)
(0.98422492 0.019368194 0)
(0.9725346 0.017346133 0)
(0.95871125 0.015775742 0)
(0.94315252 0.01434931 0)
(0.92573461 0.013014167 0)
(0.90739191 0.011779783 0)
(0.88857795 0.010668772 0)
(0.86957821 0.0096631576 0)
(0.85059447 0.0087598192 0)
(0.83175088 0.0079704878 0)
(0.81313782 0.0072746867 0)
(0.79484749 0.0066464143 0)
(0.77696001 0.0060785891 0)
(0.75952054 0.0055727402 0)
(0.74255321 0.005117641 0)
(0.72607825 0.0047029594 0)
(0.71011392 0.0043266306 0)
(0.6946622 0.0039882217 0)
(0.67971748 0.0036809134 0)
(0.66527673 0.0033986388 0)
(0.65133608 0.0031399523 0)
(0.63788577 0.0029036705 0)
(0.62491584 0.0026857092 0)
(0.61242086 0.0024828832 0)
(0.60039645 0.0022944221 0)
(0.58883708 0.0021192343 0)
(0.57773974 0.0019549587 0)
(0.56710685 0.0017998244 0)
(0.55694428 0.0016532 0)
(0.54725792 0.0015139166 0)
(0.53805662 0.0013802713 0)
(0.52935406 0.0012511875 0)
(0.52116728 0.0011263085 0)
(0.51351599 0.0010048997 0)
(0.5064254 0.00088603452 0)
(0.49992147 0.00076953338 0)
(0.49404108 0.00065229013 0)
(0.48882637 0.00055958797 0)
(0.48428577 0.00042547773 0)
(0.48043559 0.00031333455 0)
(0.47726536 0.00021012141 0)
(0.47475423 0.00011563169 0)
(0.47287087 3.1393601e-05 0)
(0.47156914 -4.1261689e-05 0)
(0.47078278 -9.9874486e-05 0)
(0.47041566 -0.00014221925 0)
(0.47038067 -0.00017101544 0)
(0.47056866 -0.00018565063 0)
(0.47081382 -0.00017819048 0)
(0.47094496 -0.00015102085 0)
(0.47082791 -0.00011433171 0)
(0.47039546 -6.1042407e-05 0)
(0.46961983 -1.4994302e-05 0)
(0.46851581 2.6188298e-05 0)
(0.46711677 6.0199967e-05 0)
(0.46547105 8.6064802e-05 0)
(0.46363192 0.00010427728 0)
(0.46164923 0.00011603095 0)
(0.45956822 0.00012248678 0)
(0.45742734 0.00012506087 0)
(0.45525698 0.00012485665 0)
(0.45308063 0.00012270383 0)
(0.4509162 0.00011928255 0)
(0.44877519 0.0001151741 0)
(0.44666645 0.00011058483 0)
(0.44459746 0.00010573291 0)
(0.44257102 0.00010098409 0)
(0.44058765 9.6383902e-05 0)
(0.43864318 9.2953858e-05 0)
(0.43672904 9.0736723e-05 0)
(0.43483819 8.836519e-05 0)
(0.43296629 8.5811604e-05 0)
(0.43110922 8.3253233e-05 0)
(0.42926413 8.0879904e-05 0)
(0.42742557 7.883918e-05 0)
(0.42558931 7.6917334e-05 0)
(0.42375236 7.5152e-05 0)
(0.42191281 7.3405297e-05 0)
(0.42007041 7.1678066e-05 0)
(0.41822474 6.9949571e-05 0)
(0.41637699 6.8172968e-05 0)
(0.41452761 6.6422398e-05 0)
(0.41267752 6.4633782e-05 0)
(0.41082717 6.2864841e-05 0)
(0.40897877 6.1149999e-05 0)
(0.40712633 5.9415577e-05 0)
(0.40528595 5.8175746e-05 0)
(0.40339491 5.5978615e-05 0)
(0.40163546 5.937715e-05 0)
(0.39945187 0.00010672838 0)
(0.39791802 0.00015743592 0)
(0.39438671 9.060364e-05 0)
(0.97244319 0.025563747 0)
(0.9778018 0.03240101 0)
(0.98589203 0.036408892 0)
(0.99420015 0.037070509 0)
(1.001281 0.034670109 0)
(1.0056343 0.030636869 0)
(1.0079732 0.026372967 0)
(1.0071239 0.022757446 0)
(1.0053155 0.020141742 0)
(1.0028073 0.018353357 0)
(0.99960082 0.017016937 0)
(0.99559621 0.015923392 0)
(0.9903042 0.014971305 0)
(0.9836342 0.014078509 0)
(0.97560087 0.01322557 0)
(0.96632793 0.012373062 0)
(0.95571502 0.011537238 0)
(0.9442137 0.010746967 0)
(0.93202042 0.010009771 0)
(0.9192777 0.00931746 0)
(0.90610172 0.008671295 0)
(0.8925954 0.0080775384 0)
(0.87883595 0.0075278724 0)
(0.86490943 0.0070125487 0)
(0.85090011 0.0065310467 0)
(0.83687614 0.0060855788 0)
(0.82289568 0.0056707066 0)
(0.8090134 0.0052814542 0)
(0.79527666 0.0049179015 0)
(0.78172198 0.004580035 0)
(0.76838065 0.0042638881 0)
(0.75528341 0.0039662556 0)
(0.742458 0.0036865987 0)
(0.72992785 0.003423742 0)
(0.71771641 0.00317475 0)
(0.70585158 0.0029373649 0)
(0.69436198 0.0027112731 0)
(0.68326451 0.0024955123 0)
(0.67257775 0.0022879022 0)
(0.66232528 0.0020868256 0)
(0.65253361 0.0018916022 0)
(0.64323117 0.0017011538 0)
(0.63445066 0.0015142601 0)
(0.62622451 0.0013303619 0)
(0.618603 0.0011475564 0)
(0.61160561 0.00096757838 0)
(0.60522878 0.00079040635 0)
(0.59946852 0.0006236605 0)
(0.59431907 0.00046703664 0)
(0.58977115 0.00032339925 0)
(0.58580534 0.00019489002 0)
(0.58238972 8.362999e-05 0)
(0.57946676 -6.8835919e-06 0)
(0.57695374 -7.4287471e-05 0)
(0.57479826 -0.00012053769 0)
(0.57285019 -0.00014177619 0)
(0.5709319 -0.00013398525 0)
(0.56893312 -0.0001004877 0)
(0.56679831 -5.6594049e-05 0)
(0.56450832 9.2114843e-06 0)
(0.56205643 6.476307e-05 0)
(0.55945567 0.0001140309 0)
(0.55672379 0.00015413638 0)
(0.55388498 0.00018397523 0)
(0.55096711 0.00020419533 0)
(0.54799751 0.00021625494 0)
(0.54500274 0.00022157949 0)
(0.54200683 0.00022193426 0)
(0.53902966 0.00021872158 0)
(0.53608726 0.00021302378 0)
(0.53319197 0.00020574824 0)
(0.53035158 0.00019763691 0)
(0.52757335 0.0001889626 0)
(0.52486264 0.00018005152 0)
(0.52222049 0.00017140163 0)
(0.51964594 0.00016313617 0)
(0.51713306 0.00015641428 0)
(0.51469014 0.00015120751 0)
(0.51230604 0.0001460399 0)
(0.50996829 0.00014099092 0)
(0.50766785 0.00013618278 0)
(0.50539928 0.00013177301 0)
(0.50315592 0.00012791527 0)
(0.50093226 0.00012432721 0)
(0.49872406 0.00012103193 0)
(0.49652807 0.00011783823 0)
(0.49434273 0.00011473113 0)
(0.49216648 0.000111672 0)
(0.48999931 0.00010859405 0)
(0.48784077 0.0001055853 0)
(0.48569077 0.00010256405 0)
(0.48354908 9.9591304e-05 0)
(0.48141715 9.6734594e-05 0)
(0.47928828 9.3849407e-05 0)
(0.47717794 9.1774294e-05 0)
(0.47502295 8.8163872e-05 0)
(0.47299975 9.2157463e-05 0)
(0.47057898 0.00014222363 0)
(0.46878346 0.00019727313 0)
(0.46490151 0.00014713711 0)
(0.97463287 0.024511622 0)
(0.97932528 0.030794593 0)
(0.98639848 0.034469519 0)
(0.99381157 0.035113893 0)
(1.0002082 0.033234998 0)
(1.0048352 0.029796422 0)
(1.0073287 0.025982648 0)
(1.0083146 0.02269935 0)
(1.0079909 0.020248137 0)
(1.0074382 0.018528987 0)
(1.0068084 0.017262843 0)
(1.0060516 0.016264205 0)
(1.0050208 0.015424017 0)
(1.0036017 0.014654077 0)
(1.0016804 0.013929758 0)
(0.99919133 0.013259662 0)
(0.99589852 0.012639225 0)
(0.99174854 0.012045538 0)
(0.98672636 0.011470994 0)
(0.98084598 0.010899167 0)
(0.97404126 0.010331217 0)
(0.96650203 0.0097847686 0)
(0.95831545 0.0092600541 0)
(0.94954623 0.0087549157 0)
(0.94025159 0.0082715871 0)
(0.93048774 0.0078131373 0)
(0.92031401 0.0073753279 0)
(0.90978676 0.006954287 0)
(0.89896309 0.0065512548 0)
(0.88789914 0.0061674499 0)
(0.87664936 0.0057998432 0)
(0.86526873 0.0054463271 0)
(0.85380969 0.0051077657 0)
(0.84231892 0.0047839779 0)
(0.83084102 0.004472468 0)
(0.81942139 0.0041713024 0)
(0.80810504 0.0038802592 0)
(0.79693659 0.003598671 0)
(0.78595975 0.0033248713 0)
(0.77521853 0.0030575217 0)
(0.76475651 0.0027961062 0)
(0.75461721 0.0025394639 0)
(0.74484734 0.0022862992 0)
(0.73549364 0.0020349864 0)
(0.72663381 0.0017873999 0)
(0.71820608 0.0015464629 0)
(0.71021925 0.001313019 0)
(0.70271487 0.0010881801 0)
(0.69572028 0.00087624878 0)
(0.68924487 0.00068116053 0)
(0.68327916 0.00050592091 0)
(0.67779476 0.00035367866 0)
(0.67273731 0.00022843719 0)
(0.66805269 0.00013083707 0)
(0.66374074 6.5108757e-05 0)
(0.6595224 3.5450422e-05 0)
(0.65526957 3.9654085e-05 0)
(0.65100776 7.0179191e-05 0)
(0.64676367 0.000112854 0)
(0.64254672 0.00017474531 0)
(0.63835611 0.00022750373 0)
(0.63419713 0.00027396036 0)
(0.63007007 0.00031084609 0)
(0.62597747 0.00033694553 0)
(0.62192547 0.00035287523 0)
(0.61792141 0.00036011627 0)
(0.61397382 0.00036012938 0)
(0.61009172 0.00035480752 0)
(0.6062834 0.00034566612 0)
(0.60255604 0.00033389567 0)
(0.59891578 0.00032051084 0)
(0.59536706 0.00030637678 0)
(0.5919123 0.00029181432 0)
(0.58855339 0.00027720377 0)
(0.58528913 0.0002631418 0)
(0.5821168 0.00024981492 0)
(0.57903003 0.00023823005 0)
(0.57603128 0.00022838629 0)
(0.57311575 0.00021906758 0)
(0.570273 0.0002103606 0)
(0.56749271 0.00020226369 0)
(0.56476774 0.00019487106 0)
(0.56209045 0.00018832424 0)
(0.55945429 0.00018227096 0)
(0.55685391 0.00017671281 0)
(0.55428483 0.00017140434 0)
(0.5517441 0.00016630893 0)
(0.54922884 0.00016136498 0)
(0.54673767 0.00015648172 0)
(0.54426893 0.00015174998 0)
(0.54182175 0.00014707084 0)
(0.53939469 0.00014250679 0)
(0.53698794 0.00013815833 0)
(0.53459404 0.00013379448 0)
(0.53222717 0.00013060583 0)
(0.52982521 0.0001252979 0)
(0.52755424 0.00012947098 0)
(0.52491854 0.00017952828 0)
(0.5228897 0.00023676587 0)
(0.51869872 0.00019053968 0)
(0.97660544 0.023525708 0)
(0.98076611 0.029152602 0)
(0.9870245 0.032517878 0)
(0.99364267 0.033276506 0)
(0.99945258 0.031816112 0)
(1.0037669 0.028881696 0)
(1.0063143 0.025505027 0)
(1.0074691 0.022522406 0)
(1.0077855 0.020236439 0)
(1.0077643 0.018571386 0)
(1.0076665 0.017318248 0)
(1.0075623 0.016318094 0)
(1.0074422 0.015484235 0)
(1.0072615 0.014744512 0)
(1.0069581 0.014071032 0)
(1.0064925 0.013463202 0)
(1.0058192 0.012909923 0)
(1.0048831 0.012387246 0)
(1.0036244 0.011890379 0)
(1.0019893 0.011423906 0)
(0.99984805 0.010983486 0)
(0.99714688 0.010556365 0)
(0.99386075 0.010137526 0)
(0.98996464 0.0097192702 0)
(0.98541466 0.0093033274 0)
(0.98029033 0.0088977737 0)
(0.97461911 0.0085011042 0)
(0.96842636 0.0081118703 0)
(0.96173651 0.007732581 0)
(0.95457475 0.0073646038 0)
(0.9469707 0.0070047578 0)
(0.93896045 0.0066510602 0)
(0.9305812 0.0063054199 0)
(0.92186175 0.0059682903 0)
(0.91283944 0.0056371775 0)
(0.9035546 0.0053106005 0)
(0.89404737 0.0049894894 0)
(0.8843649 0.0046738569 0)
(0.87455678 0.0043620293 0)
(0.86467439 0.004052912 0)
(0.85477003 0.0037464912 0)
(0.84489737 0.0034420072 0)
(0.83511299 0.0031384777 0)
(0.82547677 0.0028344681 0)
(0.81605316 0.0025306256 0)
(0.80688098 0.0022357011 0)
(0.7979646 0.0019528636 0)
(0.78933599 0.0016802177 0)
(0.78102974 0.0014212978 0)
(0.77307302 0.0011802274 0)
(0.76547884 0.00096112926 0)
(0.75824275 0.00076857276 0)
(0.75133858 0.00060703123 0)
(0.74476185 0.00047574036 0)
(0.7385346 0.00038114508 0)
(0.73246405 0.00033336141 0)
(0.7264545 0.00032723289 0)
(0.72052704 0.00034781092 0)
(0.71470121 0.00038197876 0)
(0.70898273 0.00043007215 0)
(0.7033777 0.00047125351 0)
(0.69789547 0.00050635486 0)
(0.69253344 0.00053238724 0)
(0.68728958 0.00054803299 0)
(0.68216559 0.00055382302 0)
(0.67716152 0.00055123912 0)
(0.67227692 0.00054168746 0)
(0.66751273 0.00052704906 0)
(0.66287032 0.00050883212 0)
(0.65835063 0.00048824813 0)
(0.65395494 0.00046633004 0)
(0.64968486 0.00044397024 0)
(0.64553923 0.00042150713 0)
(0.64151704 0.00039937108 0)
(0.63761501 0.00037822617 0)
(0.63382873 0.0003582815 0)
(0.63015178 0.00034044854 0)
(0.62658154 0.00032469368 0)
(0.623115 0.00030991743 0)
(0.61974482 0.00029626661 0)
(0.61646176 0.0002836732 0)
(0.61325839 0.00027217606 0)
(0.61012663 0.00026189744 0)
(0.60705924 0.00025241508 0)
(0.60405001 0.00024370506 0)
(0.60109338 0.00023546774 0)
(0.59818513 0.00022764054 0)
(0.59532109 0.0002201344 0)
(0.59249848 0.00021283015 0)
(0.58971433 0.00020581441 0)
(0.58696673 0.0001989663 0)
(0.58425295 0.00019234405 0)
(0.58157191 0.00018608109 0)
(0.57891528 0.0001798496 0)
(0.57629569 0.00017520285 0)
(0.57365254 0.00016788328 0)
(0.5711408 0.00017180275 0)
(0.56829535 0.00022018585 0)
(0.5660503 0.00027898031 0)
(0.56156791 0.00023441677 0)
(0.97840538 0.022612359 0)
(0.98210766 0.027631696 0)
(0.98765382 0.030751004 0)
(0.9935947 0.031604435 0)
(0.99890259 0.03047696 0)
(1.00294 0.027994334 0)
(1.0054648 0.02502826 0)
(1.0067117 0.022315159 0)
(1.0071944 0.02016137 0)
(1.0073637 0.018542963 0)
(1.0074555 0.017305381 0)
(1.0075361 0.01631114 0)
(1.0076009 0.015478523 0)
(1.0076716 0.014744358 0)
(1.0077111 0.01408193 0)
(1.0076977 0.013485615 0)
(1.0076399 0.012946326 0)
(1.0075214 0.012446473 0)
(1.0073164 0.011980705 0)
(1.0070026 0.011550641 0)
(1.0065508 0.011149316 0)
(1.0059229 0.010764954 0)
(1.0050802 0.010395221 0)
(1.003977 0.010042729 0)
(1.0025348 0.0097046548 0)
(1.0007113 0.0093744896 0)
(0.99847747 0.0090477851 0)
(0.99579502 0.0087203773 0)
(0.99264024 0.0083942497 0)
(0.98903963 0.0080725393 0)
(0.98499495 0.0077534932 0)
(0.98050598 0.0074357556 0)
(0.97557562 0.0071207447 0)
(0.97021256 0.00680907 0)
(0.96442597 0.0064985257 0)
(0.95822911 0.0061875485 0)
(0.9516365 0.0058768235 0)
(0.94466575 0.0055662058 0)
(0.93733197 0.0052541359 0)
(0.9296565 0.0049394952 0)
(0.92166859 0.004622327 0)
(0.91340175 0.0043019755 0)
(0.90489338 0.0039773852 0)
(0.89619011 0.0036472049 0)
(0.88732063 0.0033138933 0)
(0.87841942 0.002986653 0)
(0.86953663 0.0026675849 0)
(0.86068781 0.0023574819 0)
(0.85190171 0.0020604522 0)
(0.84321571 0.0017808812 0)
(0.83467062 0.0015234619 0)
(0.82630591 0.0012936613 0)
(0.8181553 0.0010969461 0)
(0.81024092 0.00093256436 0)
(0.80255665 0.00080758131 0)
(0.79519724 0.00073760935 0)
(0.788025 0.0007137194 0)
(0.781021 0.00071631994 0)
(0.77413456 0.00073465253 0)
(0.76735204 0.00076390125 0)
(0.76069016 0.00078804394 0)
(0.75416188 0.00080653161 0)
(0.74776711 0.00081672464 0)
(0.74151448 0.00081705671 0)
(0.73541529 0.00080810615 0)
(0.72947106 0.0007915336 0)
(0.72368143 0.00076864611 0)
(0.71804846 0.00074125735 0)
(0.71257248 0.00071088164 0)
(0.70725183 0.00067871582 0)
(0.70208552 0.00064572766 0)
(0.69707353 0.00061281812 0)
(0.69221387 0.00058034917 0)
(0.68750412 0.0005487605 0)
(0.68293959 0.00051875684 0)
(0.67851455 0.00049053474 0)
(0.67422259 0.00046495795 0)
(0.67005861 0.00044192867 0)
(0.66601915 0.00042033827 0)
(0.66209855 0.00040039517 0)
(0.65828915 0.00038200374 0)
(0.65458414 0.00036516859 0)
(0.65097545 0.00034999887 0)
(0.64745548 0.00033600622 0)
(0.64401738 0.00032314073 0)
(0.64065468 0.00031104961 0)
(0.63736199 0.00029964195 0)
(0.63413392 0.0002887977 0)
(0.63096632 0.00027836539 0)
(0.6278549 0.00026841902 0)
(0.62479631 0.00025881256 0)
(0.62178667 0.00024959755 0)
(0.61882363 0.0002409355 0)
(0.61589799 0.00023239385 0)
(0.61302071 0.00022588921 0)
(0.61013269 0.00021620769 0)
(0.60737849 0.00021948378 0)
(0.60431784 0.00026525033 0)
(0.60186212 0.00032591553 0)
(0.59708734 0.00028027335 0)
(0.98004978 0.021775041 0)
(0.98336078 0.026246645 0)
(0.98827284 0.029130928 0)
(0.99359955 0.030040267 0)
(0.99844814 0.029192495 0)
(1.0022415 0.027113021 0)
(1.0047352 0.024523912 0)
(1.0060813 0.022065527 0)
(1.0066919 0.020047013 0)
(1.0069664 0.018486244 0)
(1.0071363 0.017269624 0)
(1.0072829 0.016282479 0)
(1.0074203 0.015451404 0)
(1.007551 0.014721785 0)
(1.0076627 0.014066263 0)
(1.007753 0.01347472 0)
(1.0078219 0.012938387 0)
(1.0078901 0.012443351 0)
(1.0079255 0.011985407 0)
(1.0079229 0.011563756 0)
(1.00789 0.011172119 0)
(1.0078146 0.010802517 0)
(1.0076803 0.010452174 0)
(1.0074704 0.010121941 0)
(1.0071645 0.0098081199 0)
(1.0067361 0.009505122 0)
(1.0061584 0.0092114444 0)
(1.0053931 0.0089273715 0)
(1.0043903 0.0086508731 0)
(1.0031162 0.0083786394 0)
(1.0015463 0.00810689 0)
(0.99963624 0.007832794 0)
(0.99737214 0.0075584748 0)
(0.99475729 0.007285017 0)
(0.99178138 0.0070104118 0)
(0.98843204 0.0067332785 0)
(0.98469877 0.0064539594 0)
(0.98057201 0.0061718013 0)
(0.97604705 0.0058850398 0)
(0.97112039 0.0055927597 0)
(0.96578758 0.0052949404 0)
(0.96004452 0.004990674 0)
(0.95388788 0.0046784529 0)
(0.94731959 0.0043576479 0)
(0.94032909 0.004029355 0)
(0.9329486 0.0036982586 0)
(0.92526203 0.0033684275 0)
(0.91731734 0.0030440566 0)
(0.9091536 0.0027304202 0)
(0.90081138 0.0024317617 0)
(0.89233916 0.0021526003 0)
(0.88379591 0.0018984089 0)
(0.87525185 0.001674486 0)
(0.86675727 0.0014817288 0)
(0.85831104 0.0013268889 0)
(0.85011119 0.0012221086 0)
(0.84222264 0.0011655683 0)
(0.83457116 0.0011459112 0)
(0.82698659 0.0011474907 0)
(0.81949183 0.0011577408 0)
(0.81210331 0.0011639715 0)
(0.80480824 0.0011648513 0)
(0.79761416 0.0011573709 0)
(0.79054899 0.0011399737 0)
(0.78363059 0.0011137436 0)
(0.77686154 0.0010805885 0)
(0.77025069 0.0010416275 0)
(0.76380919 0.00099873535 0)
(0.75753937 0.0009536078 0)
(0.75144095 0.00090740378 0)
(0.74551578 0.00086099096 0)
(0.73976523 0.00081530695 0)
(0.7341875 0.00077073992 0)
(0.7287806 0.00072772993 0)
(0.7235401 0.00068701949 0)
(0.71846015 0.00064877511 0)
(0.71353503 0.0006138188 0)
(0.70875949 0.00058198912 0)
(0.70412954 0.00055212237 0)
(0.69964022 0.00052446004 0)
(0.69528524 0.00049888279 0)
(0.69105873 0.00047537888 0)
(0.68695309 0.00045405644 0)
(0.6829607 0.00043436797 0)
(0.67907431 0.00041624062 0)
(0.67528675 0.00039927046 0)
(0.67159167 0.00038333704 0)
(0.66798261 0.00036828707 0)
(0.66445417 0.00035393345 0)
(0.66100077 0.00034033348 0)
(0.65761766 0.00032731104 0)
(0.65429971 0.00031490356 0)
(0.65104336 0.0003032963 0)
(0.6478385 0.0002919469 0)
(0.64469438 0.00028313159 0)
(0.64155322 0.00027069316 0)
(0.63855038 0.00027294259 0)
(0.63526473 0.00031552905 0)
(0.63259696 0.0003788854 0)
(0.6275197 0.0003294492 0)
(0.98155188 0.020999712 0)
(0.98452601 0.02497519 0)
(0.9888775 0.027626245 0)
(0.9936469 0.028568738 0)
(0.99806949 0.027961528 0)
(1.0016254 0.026237052 0)
(1.0040718 0.023990708 0)
(1.0054985 0.021777905 0)
(1.006231 0.019901079 0)
(1.006611 0.018408335 0)
(1.0068539 0.017220222 0)
(1.0070473 0.016244099 0)
(1.0072173 0.015416539 0)
(1.0073723 0.014690641 0)
(1.0075117 0.014039489 0)
(1.0076347 0.013451608 0)
(1.0077439 0.012917931 0)
(1.0078428 0.012427033 0)
(1.0079262 0.01197367 0)
(1.0079978 0.011554813 0)
(1.0080563 0.011165298 0)
(1.0081151 0.010798559 0)
(1.0081538 0.010453088 0)
(1.0081628 0.010128727 0)
(1.0081503 0.0098216573 0)
(1.0081069 0.0095284771 0)
(1.0080229 0.009247467 0)
(1.0078846 0.0089775163 0)
(1.0076773 0.0087166918 0)
(1.0073809 0.0084623255 0)
(1.0069766 0.0082135084 0)
(1.0064316 0.0079695115 0)
(1.0057128 0.0077286113 0)
(1.004793 0.007488919 0)
(1.0036518 0.007247331 0)
(1.0022453 0.0070017782 0)
(1.0005675 0.0067533516 0)
(0.99860293 0.0065020244 0)
(0.99633478 0.0062463671 0)
(0.99374471 0.0059850073 0)
(0.99081271 0.005717573 0)
(0.98751699 0.0054432298 0)
(0.98383396 0.0051603421 0)
(0.9797384 0.0048683816 0)
(0.97520007 0.0045672739 0)
(0.97018118 0.0042600915 0)
(0.96468084 0.0039502242 0)
(0.95871674 0.0036410277 0)
(0.95230341 0.0033376818 0)
(0.94545894 0.0030445992 0)
(0.93820979 0.0027660411 0)
(0.93059538 0.002506873 0)
(0.92267323 0.0022725054 0)
(0.91451258 0.0020664436 0)
(0.90615776 0.0018924726 0)
(0.89773857 0.0017607514 0)
(0.88948441 0.0016740332 0)
(0.88141798 0.001623054 0)
(0.87352102 0.0015991503 0)
(0.8657691 0.0015905806 0)
(0.85807322 0.0015821192 0)
(0.85036845 0.0015681422 0)
(0.84271316 0.0015437545 0)
(0.83514517 0.001508923 0)
(0.82766203 0.0014654705 0)
(0.82027822 0.0014149366 0)
(0.8130243 0.001358524 0)
(0.80591885 0.0012986148 0)
(0.79896564 0.0012371205 0)
(0.79217356 0.001175067 0)
(0.78555377 0.0011133184 0)
(0.77911088 0.0010529972 0)
(0.77284547 0.00099449868 0)
(0.76675948 0.00093823978 0)
(0.76085151 0.0008850443 0)
(0.75511766 0.00083504749 0)
(0.74955508 0.00078901973 0)
(0.74416052 0.00074676675 0)
(0.73893046 0.00070707698 0)
(0.73386078 0.00067019743 0)
(0.72894664 0.00063597587 0)
(0.7241833 0.00060439714 0)
(0.71956398 0.0005755781 0)
(0.71508156 0.00054892045 0)
(0.71072873 0.00052433585 0)
(0.70649794 0.0005013718 0)
(0.70238224 0.00047987837 0)
(0.69837432 0.00045966841 0)
(0.69446773 0.00044051688 0)
(0.69065578 0.00042246154 0)
(0.68693243 0.00040529158 0)
(0.68329137 0.00038902354 0)
(0.67972779 0.00037386108 0)
(0.67623073 0.00035914788 0)
(0.67280775 0.00034751459 0)
(0.66940213 0.00033187304 0)
(0.66614132 0.00033269142 0)
(0.66261854 0.00037168155 0)
(0.65973267 0.00043877653 0)
(0.65433761 0.00038257578 0)
(0.98292507 0.020275217 0)
(0.98560661 0.023805796 0)
(0.98946527 0.026232949 0)
(0.9937324 0.027193198 0)
(0.99776112 0.026790108 0)
(1.0010848 0.025374428 0)
(1.0034663 0.023437703 0)
(1.0049483 0.021458513 0)
(1.0057839 0.019724288 0)
(1.0062619 0.018305571 0)
(1.0065784 0.017152548 0)
(1.0068228 0.016192967 0)
(1.0070276 0.015373322 0)
(1.0072064 0.014653399 0)
(1.007364 0.014007704 0)
(1.0075025 0.013424028 0)
(1.0076261 0.012893419 0)
(1.0077385 0.01240576 0)
(1.0078402 0.011955166 0)
(1.007933 0.01153828 0)
(1.0080189 0.01115029 0)
(1.0080989 0.010785836 0)
(1.0081699 0.010443115 0)
(1.0082334 0.010120664 0)
(1.0082898 0.0098154647 0)
(1.0083397 0.009523935 0)
(1.0083893 0.0092454568 0)
(1.0084091 0.008979776 0)
(1.0084132 0.0087239204 0)
(1.0083943 0.0084763493 0)
(1.0083456 0.0082362376 0)
(1.0082567 0.008001788 0)
(1.0081157 0.0077715058 0)
(1.0079073 0.0075439571 0)
(1.0076173 0.0073188122 0)