/*--------------------------------*- C++ -*----------------------------------*\
| =========                 |                                                 |
| \\      /  F ield         | OpenFOAM: The Open Source CFD Toolbox           |
|  \\    /   O peration     | Version:  2206                                  |
|   \\  /    A nd           | Website:  www.openfoam.com                      |
|    \\/     M anipulation  |                                                 |
\*---------------------------------------------------------------------------*/
FoamFile
{
    version     2.0;
    format      ascii;
    arch        "LSB;label=32;scalar=64";
    class       volVectorField;
    location    "2000";
    object      wallShearStress;
}
// * * * * * * * * * * * * * * * * * * * * * * * * * * * * * * * * * * * * * //

dimensions      [0 2 -2 0 0 0 0];

internalField   uniform (0 0 0);

boundaryField
{
    inlet
    {
        type            calculated;
        value           uniform (0 0 0);
    }
    top
    {
        type            calculated;
        value           uniform (0 0 0);
    }
    outlet
    {
        type            calculated;
        value           uniform (0 0 0);
    }
    slipsurface
    {
        type            calculated;
        value           uniform (0 0 0);
    }
    bottom
    {
        type            calculated;
        value           nonuniform List<vector> 
100
(
(-0.031590407 -0.00068275745 0)
(-0.026719518 -0.0012682389 0)
(-0.021409379 -0.001483617 0)
(-0.016187139 -0.0010782978 0)
(-0.012408045 -0.00054879324 0)
(-0.010006228 -0.00023447959 0)
(-0.0086305866 -0.00018904836 0)
(-0.007821814 -3.115797e-05 0)
(-0.0072933085 -8.8664397e-06 0)
(-0.0069051719 -1.4474808e-05 0)
(-0.0065734126 -2.0145078e-05 0)
(-0.0062656602 -2.0767918e-05 0)
(-0.0059812485 -1.9332432e-05 0)
(-0.0057221 -1.7567751e-05 0)
(-0.0054860597 -2.3232156e-05 0)
(-0.0052705119 -2.0477765e-05 0)
(-0.0050741782 -1.3411922e-05 0)
(-0.0048945749 -1.1404469e-05 0)
(-0.0047284785 -1.0179798e-05 0)
(-0.0045740977 -9.1713203e-06 0)
(-0.0044306306 -8.3085035e-06 0)
(-0.0042967258 -7.6178886e-06 0)
(-0.0041710036 -6.9887167e-06 0)
(-0.0040527883 -6.3874008e-06 0)
(-0.0039416037 -5.8520373e-06 0)
(-0.0038366914 -5.3971371e-06 0)
(-0.0037373295 -4.9768076e-06 0)
(-0.0036431719 -4.5759918e-06 0)
(-0.0035539697 -4.2142353e-06 0)
(-0.0034693106 -3.89388e-06 0)
(-0.0033888338 -3.592992e-06 0)
(-0.0033123826 -3.3066229e-06 0)
(-0.0032398189 -3.0445456e-06 0)
(-0.0031709209 -2.8050501e-06 0)
(-0.0031055176 -2.5781084e-06 0)
(-0.0030435479 -2.3620122e-06 0)
(-0.0029849531 -2.1602817e-06 0)
(-0.0029296591 -1.9693917e-06 0)
(-0.0028776613 -1.7841861e-06 0)
(-0.0028290326 -1.6042868e-06 0)
(-0.002783845 -1.4320234e-06 0)
(-0.0027421538 -1.2656735e-06 0)
(-0.0027040893 -1.1023319e-06 0)
(-0.0026697571 -9.4462578e-07 0)
(-0.002639309 -1.4166128e-06 0)
(-0.0026135504 -8.4699557e-07 0)
(-0.002591928 -4.0318707e-07 0)
(-0.0025755416 -2.7569839e-07 0)
(-0.0025643825 -1.2908211e-07 0)
(-0.0025583167 8.2526319e-09 0)
(-0.0025572101 1.3846283e-07 0)
(-0.0025608209 2.4712286e-07 0)
(-0.0025687454 3.3229847e-07 0)
(-0.0025801527 3.8619951e-07 0)
(-0.0025942305 4.2576362e-07 0)
(-0.002610536 4.5095313e-07 0)
(-0.0026279743 4.3172245e-07 0)
(-0.0026447766 3.7513817e-07 0)
(-0.002659165 3.0382033e-07 0)
(-0.0026697782 3.7701676e-07 0)
(-0.0026764196 1.1979187e-07 0)
(-0.0026790982 3.8770231e-08 0)
(-0.0026781064 -2.4244703e-08 0)
(-0.0026740273 -6.7390631e-08 0)
(-0.0026675284 -9.7260171e-08 0)
(-0.0026592086 -1.170727e-07 0)
(-0.0026496053 -1.279822e-07 0)
(-0.0026391541 -1.3331142e-07 0)
(-0.0026281673 -1.3465983e-07 0)
(-0.0026168791 -1.3311526e-07 0)
(-0.0026054717 -1.2965188e-07 0)
(-0.0025940528 -1.2554125e-07 0)
(-0.0025826885 -1.2072782e-07 0)
(-0.0025714539 -1.1542344e-07 0)
(-0.0025603677 -1.1068722e-07 0)
(-0.0025494429 -1.05719e-07 0)
(-0.0025386967 -1.0338329e-07 0)
(-0.0025277731 -1.0361925e-07 0)
(-0.0025166656 -1.0232216e-07 0)
(-0.0025054752 -1.0043045e-07 0)
(-0.0024942448 -9.7992887e-08 0)
(-0.0024829993 -9.5629228e-08 0)
(-0.0024716893 -9.4024491e-08 0)
(-0.0024602915 -9.212442e-08 0)
(-0.0024487974 -9.0577165e-08 0)
(-0.0024371979 -8.8830899e-08 0)
(-0.0024255062 -8.7093804e-08 0)
(-0.0024137206 -8.5349207e-08 0)
(-0.0024018634 -8.3385516e-08 0)
(-0.0023899381 -8.1603688e-08 0)
(-0.0023779588 -7.9574329e-08 0)
(-0.0023659292 -7.7733242e-08 0)
(-0.0023538742 -7.5827855e-08 0)
(-0.0023417153 -7.423202e-08 0)
(-0.0023296741 -7.2581185e-08 0)
(-0.0023169288 -7.2524364e-08 0)
(-0.0023059293 -1.0600632e-07 0)
(-0.0022895268 -6.1864483e-07 0)
(-0.0022805088 -1.0263867e-06 0)
(-0.002255357 -5.6416721e-07 0)
)
;
    }
    frontandback
    {
        type            empty;
    }
}


// ************************************************************************* //
