# Region            : all region0
# Cells             : 3000
# Volume            : 8.000000000000e-02
# Time              	min(p)	min(k)	min(omega)	min(nut)	min(epsilon)	min(nuTilda)
1                   	1.230723651307e-03	7.946682850968e-05	5.431269370723e+00	8.184304748857e-08
2                   	1.188320021983e-03	5.385728154310e-05	1.464378168496e-01	8.050105299562e-08
3                   	8.752123893433e-04	6.247356471715e-05	3.596288155746e+00	5.463823461380e-08
4                   	7.282805811198e-04	6.972170309025e-05	3.094549884180e+00	3.515693137477e-08
5                   	6.777066378185e-04	5.044131201583e-05	2.735152376800e+00	2.355079370820e-08
6                   	6.467140921904e-04	3.548154777003e-05	2.469903962242e+00	1.675573995203e-08
7                   	6.189845719023e-04	2.558303571919e-05	2.264805184766e+00	1.264007227418e-08
8                   	5.954545275208e-04	2.075489484570e-05	2.104289016851e+00	1.002371215987e-08
9                   	5.760841837225e-04	1.738159485112e-05	1.980873423000e+00	8.286385336739e-09
10                  	5.601375868494e-04	1.562515346424e-05	1.887618353193e+00	7.091524796574e-09
11                  	5.468831582855e-04	1.454995627375e-05	1.821089655542e+00	6.253807393699e-09
12                  	5.368019884796e-04	1.416932204929e-05	1.781384869644e+00	5.666544535458e-09
13                  	5.306709736405e-04	1.397091165141e-05	1.743568425501e+00	5.267819713143e-09
14                  	5.297226607082e-04	1.533494390852e-05	1.718416192176e+00	5.024781723123e-09
15                  	5.331478232228e-04	1.708807020735e-05	1.708772486629e+00	4.913219457668e-09
16                  	5.405102230385e-04	2.000393550944e-05	1.721608001013e+00	4.912737175174e-09
17                  	5.514458510115e-04	2.354691370250e-05	1.728008514931e+00	5.004610474077e-09
18                  	5.657054973581e-04	2.799207948339e-05	1.701045836281e+00	5.170504146294e-09
19                  	5.832023607210e-04	3.298575705631e-05	1.679478408952e+00	5.394972248222e-09
20                  	6.039884417342e-04	3.434560304124e-05	1.663274706908e+00	5.664592045465e-09
21                  	6.279117319061e-04	3.382816607647e-05	1.652511539767e+00	5.969041628127e-09
22                  	6.547606775231e-04	3.334427831554e-05	1.648556171684e+00	6.299650736023e-09
23                  	6.843141473362e-04	3.299995492342e-05	1.653268218741e+00	6.649592455837e-09
24                  	7.160400823995e-04	3.282402604147e-05	1.671824444590e+00	7.012902877514e-09
25                  	7.495429961335e-04	3.285004075144e-05	1.702602031510e+00	7.384538230076e-09
26                  	7.847278572612e-04	3.307106641850e-05	1.740306283714e+00	7.760115447697e-09
27                  	8.217231547070e-04	3.344330408714e-05	1.781073107476e+00	8.136080251853e-09
28                  	8.600142759573e-04	3.390885476292e-05	1.821455071764e+00	8.509554608405e-09
29                  	8.990854304481e-04	3.440943245131e-05	1.859482979152e+00	8.878284428016e-09
30                  	9.381638497183e-04	3.490590046132e-05	1.894314890580e+00	9.240530988181e-09
31                  	9.766270265524e-04	3.538131590090e-05	1.925543382730e+00	9.595009406340e-09
32                  	1.013812819857e-03	3.580513062914e-05	1.953171119612e+00	9.940843765663e-09
33                  	1.048903127831e-03	3.619713221015e-05	1.977684012316e+00	1.027749264727e-08
34                  	1.081306878896e-03	3.654658300976e-05	1.998817358185e+00	1.060463810393e-08
35                  	1.110740270962e-03	3.685103945208e-05	2.017515188510e+00	1.092215535734e-08
36                  	1.136869826580e-03	3.711678434253e-05	2.033768600903e+00	1.123006272471e-08
37                  	1.159462558885e-03	3.735634446997e-05	2.047967271679e+00	1.152845512841e-08
38                  	1.178639170786e-03	3.756700348385e-05	2.060769759014e+00	1.181747923537e-08
39                  	1.194793139219e-03	3.774267054680e-05	2.071245182164e+00	1.209735313983e-08
40                  	1.208352206231e-03	3.790344188270e-05	2.080795763682e+00	1.236835430302e-08
41                  	1.219742646099e-03	3.804527692452e-05	2.088799746436e+00	1.263078203718e-08
42                  	1.229347530767e-03	3.815565929770e-05	2.096569618905e+00	1.288492510331e-08
43                  	1.237470458798e-03	3.826298091738e-05	2.102097346128e+00	1.313103690343e-08
44                  	1.244363565939e-03	3.836578396931e-05	2.107430536897e+00	1.336931759731e-08
45                  	1.250162136464e-03	3.843408806268e-05	2.112481210041e+00	1.354615876938e-08
46                  	1.254947228819e-03	3.849401571919e-05	2.116569408052e+00	1.354378750468e-08
47                  	1.258799598697e-03	3.854892078003e-05	2.119583985822e+00	1.354171441136e-08
48                  	1.261818216311e-03	3.859863270381e-05	2.122326622579e+00	1.353994851136e-08
49                  	1.264182039371e-03	3.864325872225e-05	2.124787721820e+00	1.353848208239e-08
50                  	1.265986498190e-03	3.868298115250e-05	2.126976823198e+00	1.353729597771e-08
51                  	1.267152296155e-03	3.871794865549e-05	2.128905865963e+00	1.353636367278e-08
52                  	1.267724572388e-03	3.874836203776e-05	2.130587175173e+00	1.353565431355e-08
53                  	1.267847974283e-03	3.876719914639e-05	2.132036047686e+00	1.353513527908e-08
54                  	1.267598779709e-03	3.878109191110e-05	2.133271374816e+00	1.353477423120e-08
55                  	1.267056897384e-03	3.879283762844e-05	2.134266695947e+00	1.353454025297e-08
56                  	1.266262420220e-03	3.880269639145e-05	2.134833474944e+00	1.353440495835e-08
57                  	1.265252892816e-03	3.881089099204e-05	2.135306450049e+00	1.353434335354e-08
58                  	1.263801141587e-03	3.881764056883e-05	2.135695522688e+00	1.353433411572e-08
59                  	1.258467352337e-03	3.882318272216e-05	2.136010786016e+00	1.353435960288e-08
60                  	1.253029586959e-03	3.882772258741e-05	2.136264278536e+00	1.353440572488e-08
61                  	1.247518830697e-03	3.883142154347e-05	2.136466675146e+00	1.353446166859e-08
62                  	1.241954463369e-03	3.883441667782e-05	2.136626808571e+00	1.353451949474e-08
63                  	1.236355366011e-03	3.883682820889e-05	2.136752305448e+00	1.353457370049e-08
64                  	1.230748303320e-03	3.883877329791e-05	2.136849715517e+00	1.353462078903e-08
65                  	1.225159609821e-03	3.884033874374e-05	2.136924617167e+00	1.353465886813e-08
66                  	1.219609962388e-03	3.884159714362e-05	2.136981687625e+00	1.353468729521e-08
67                  	1.214111006184e-03	3.884260481031e-05	2.137024736544e+00	1.353470633753e-08
68                  	1.208694519004e-03	3.884341058018e-05	2.137056828604e+00	1.353471689083e-08
69                  	1.203394533562e-03	3.884405594173e-05	2.137080448395e+00	1.353472023672e-08
70                  	1.198238142468e-03	3.884457412402e-05	2.137097623783e+00	1.353471785811e-08
71                  	1.193247335640e-03	3.884499067646e-05	2.137109964939e+00	1.353471127393e-08
72                  	1.188441680821e-03	3.884532583413e-05	2.137118705905e+00	1.353470191723e-08
73                  	1.183837812807e-03	3.884559595381e-05	2.137124793210e+00	1.353469110101e-08
74                  	1.179452472463e-03	3.884581408134e-05	2.137128954200e+00	1.353467993332e-08
75                  	1.175299518917e-03	3.884599071887e-05	2.137131742291e+00	1.353466930133e-08
76                  	1.171388179556e-03	3.884613402317e-05	2.137133567962e+00	1.353465987034e-08
77                  	1.167726258777e-03	3.884625052743e-05	2.137134728261e+00	1.353465209475e-08
78                  	1.164318329727e-03	3.884634551359e-05	2.137135434636e+00	1.353464624017e-08
79                  	1.161164816870e-03	3.884642330538e-05	2.137135839186e+00	1.353464240785e-08
80                  	1.158262925093e-03	3.884648731515e-05	2.137136049588e+00	1.353464055923e-08
81                  	1.155607374182e-03	3.884654020495e-05	2.137136141102e+00	1.353464055970e-08
82                  	1.153191496913e-03	3.884658404347e-05	2.137136166189e+00	1.353464219943e-08
83                  	1.151007806321e-03	3.884662041858e-05	2.137136160002e+00	1.353464521938e-08
84                  	1.149049507168e-03	3.884665057119e-05	2.137136144010e+00	1.353464933520e-08
85                  	1.147303636447e-03	3.884667552229e-05	2.137136129488e+00	1.353465425564e-08
86                  	1.145761442748e-03	3.884669612591e-05	2.137136121071e+00	1.353465970331e-08
87                  	1.144412425615e-03	3.884671310589e-05	2.137136120255e+00	1.353466542110e-08
88                  	1.143243743016e-03	3.884672706329e-05	2.137136126983e+00	1.353467117350e-08
89                  	1.142242313642e-03	3.884673849208e-05	2.137136140292e+00	1.353467676323e-08
90                  	1.141394660560e-03	3.884674779840e-05	2.137136158724e+00	1.353468203060e-08
91                  	1.140686994842e-03	3.884675533425e-05	2.137136180128e+00	1.353468685401e-08
92                  	1.140105520150e-03	3.884676140971e-05	2.137136202069e+00	1.353469114839e-08
93                  	1.139636667727e-03	3.884676629098e-05	2.137136222914e+00	1.353469486177e-08
94                  	1.139267425333e-03	3.884677019778e-05	2.137136241798e+00	1.353469797145e-08
95                  	1.138985522698e-03	3.884677331522e-05	2.137136258175e+00	1.353470047905e-08
96                  	1.138779411746e-03	3.884677580200e-05	2.137136271738e+00	1.353470240668e-08
97                  	1.138638347359e-03	3.884677778977e-05	2.137136282452e+00	1.353470379132e-08
98                  	1.138552446410e-03	3.884677938147e-05	2.137136290432e+00	1.353470468207e-08
99                  	1.138512735416e-03	3.884678066110e-05	2.137136296026e+00	1.353470513473e-08
100                 	1.138511181872e-03	3.884678168845e-05	2.137136299779e+00	1.353470520848e-08
101                 	1.138540607490e-03	3.884678250377e-05	2.137136302360e+00	1.353470496400e-08
102                 	1.138594766357e-03	3.884678313009e-05	2.137136304684e+00	1.353470445990e-08
103                 	1.138668051073e-03	3.884678357098e-05	2.137136307604e+00	1.353470374729e-08
104                 	1.138755780861e-03	3.884678382885e-05	2.137136312062e+00	1.353470287406e-08
105                 	1.138853667693e-03	3.884678389475e-05	2.137136318936e+00	1.353470189400e-08
106                 	1.138958353362e-03	3.884678377189e-05	2.137136328807e+00	1.353470084122e-08
107                 	1.139066800125e-03	3.884678345376e-05	2.137136342018e+00	1.353469973994e-08
108                 	1.139176564371e-03	3.884678294786e-05	2.137136358758e+00	1.353469862285e-08
109                 	1.139285620843e-03	3.884678227225e-05	2.137136378896e+00	1.353469750691e-08
110                 	1.139392354720e-03	3.884678145693e-05	2.137136402168e+00	1.353469640775e-08
111                 	1.139495492922e-03	3.884678053597e-05	2.137136428170e+00	1.353469533663e-08
112                 	1.139594067977e-03	3.884677954750e-05	2.137136456273e+00	1.353469429795e-08
113                 	1.139687376361e-03	3.884677853170e-05	2.137136485780e+00	1.353469329440e-08
114                 	1.139774937488e-03	3.884677752838e-05	2.137136515976e+00	1.353469232668e-08
115                 	1.139856467093e-03	3.884677655905e-05	2.137136545976e+00	1.353469139343e-08
116                 	1.139931839952e-03	3.884677566535e-05	2.137136575145e+00	1.353469049252e-08
117                 	1.140001063188e-03	3.884677489030e-05	2.137136603314e+00	1.353468962115e-08
118                 	1.140064239564e-03	3.884677425085e-05	2.137136630353e+00	1.353468877580e-08
119                 	1.140121581513e-03	3.884677373953e-05	2.137136655886e+00	1.353468795247e-08
120                 	1.140173330662e-03	3.884677334449e-05	2.137136679623e+00	1.353468715126e-08
121                 	1.140219788467e-03	3.884677305163e-05	2.137136700897e+00	1.353468636837e-08
122                 	1.140261287387e-03	3.884677289080e-05	2.137136714506e+00	1.353468560106e-08
123                 	1.140298176700e-03	3.884677346754e-05	2.137136708557e+00	1.353468484745e-08
124                 	1.140330814530e-03	3.884677470075e-05	2.137136694125e+00	1.353468410644e-08
125                 	1.140359556900e-03	3.884677591801e-05	2.137136686038e+00	1.353468337748e-08
126                 	1.140384745487e-03	3.884677668304e-05	2.137136686323e+00	1.353468266063e-08
127                 	1.140406913560e-03	3.884677702982e-05	2.137136689671e+00	1.353468195578e-08
128                 	1.140425937820e-03	3.884677717877e-05	2.137136692196e+00	1.353468126402e-08
129                 	1.140442418667e-03	3.884677729940e-05	2.137136695995e+00	1.353468058646e-08
130                 	1.140456654633e-03	3.884677742978e-05	2.137136701074e+00	1.353467992422e-08
131                 	1.140468876269e-03	3.884677771256e-05	2.137136707881e+00	1.353467927858e-08
132                 	1.140479309239e-03	3.884677798623e-05	2.137136716014e+00	1.353467865112e-08
133                 	1.140488175096e-03	3.884677806438e-05	2.137136722614e+00	1.353467804273e-08
134                 	1.140495660680e-03	3.884677800526e-05	2.137136726067e+00	1.353467745433e-08
135                 	1.140501945242e-03	3.884677795404e-05	2.137136727155e+00	1.353467688903e-08
136                 	1.140507228514e-03	3.884677795968e-05	2.137136726729e+00	1.353467634657e-08
137                 	1.140511617581e-03	3.884677804239e-05	2.137136727145e+00	1.353467582709e-08
138                 	1.140514777022e-03	3.884677811191e-05	2.137136728732e+00	1.353467533341e-08
139                 	1.140518548697e-03	3.884677814794e-05	2.137136730285e+00	1.353467486541e-08
140                 	1.140520564315e-03	3.884677819067e-05	2.137136732840e+00	1.353467442543e-08
141                 	1.140522432386e-03	3.884677819153e-05	2.137136734340e+00	1.353467401278e-08
142                 	1.140524600458e-03	3.884677820816e-05	2.137136734608e+00	1.353467362597e-08
143                 	1.140525558962e-03	3.884677825334e-05	2.137136735659e+00	1.353467326543e-08
144                 	1.140526550231e-03	3.884677829807e-05	2.137136737328e+00	1.353467293031e-08
145                 	1.140527174488e-03	3.884677826533e-05	2.137136737304e+00	1.353467262775e-08
146                 	1.140527715926e-03	3.884677820928e-05	2.137136735946e+00	1.353467234872e-08
147                 	1.140528379308e-03	3.884677817722e-05	2.137136734911e+00	1.353467209137e-08
148                 	1.140528621481e-03	3.884677815618e-05	2.137136734274e+00	1.353467185714e-08
149                 	1.140529684166e-03	3.884677817550e-05	2.137136734574e+00	1.353467164952e-08
150                 	1.140529804484e-03	3.884677823766e-05	2.137136736821e+00	1.353467146991e-08
151                 	1.140529883388e-03	3.884677829394e-05	2.137136739762e+00	1.353467130787e-08
152                 	1.140528663481e-03	3.884677831328e-05	2.137136742412e+00	1.353467115567e-08
153                 	1.140528679806e-03	3.884677827573e-05	2.137136742352e+00	1.353467103596e-08
154                 	1.140529851155e-03	3.884677823313e-05	2.137136741052e+00	1.353467093762e-08
155                 	1.140529857376e-03	3.884677820180e-05	2.137136740261e+00	1.353467085340e-08
156                 	1.140529647568e-03	3.884677817725e-05	2.137136739622e+00	1.353467077973e-08
157                 	1.140529554486e-03	3.884677817325e-05	2.137136739830e+00	1.353467070586e-08
158                 	1.140529562582e-03	3.884677817595e-05	2.137136740097e+00	1.353467065100e-08
159                 	1.140529547718e-03	3.884677817840e-05	2.137136740569e+00	1.353467061207e-08
160                 	1.140529510980e-03	3.884677816804e-05	2.137136740935e+00	1.353467058476e-08
161                 	1.140529472712e-03	3.884677814104e-05	2.137136740794e+00	1.353467056806e-08
162                 	1.140529440599e-03	3.884677810129e-05	2.137136740100e+00	1.353467056182e-08
163                 	1.140529419159e-03	3.884677805620e-05	2.137136739011e+00	1.353467056398e-08
164                 	1.140529405370e-03	3.884677801076e-05	2.137136737714e+00	1.353467057241e-08
165                 	1.140529392052e-03	3.884677796632e-05	2.137136736344e+00	1.353467058447e-08
166                 	1.140529375947e-03	3.884677792421e-05	2.137136734948e+00	1.353467059782e-08
167                 	1.140527994193e-03	3.884677786427e-05	2.137136733378e+00	1.353467061025e-08
168                 	1.140527944448e-03	3.884677778898e-05	2.137136730311e+00	1.353467061856e-08
169                 	1.140529647062e-03	3.884677774712e-05	2.137136727167e+00	1.353467062904e-08
170                 	1.140529704586e-03	3.884677774333e-05	2.137136726452e+00	1.353467063452e-08
171                 	1.140529456092e-03	3.884677776137e-05	2.137136726912e+00	1.353467064562e-08
172                 	1.140529439418e-03	3.884677777334e-05	2.137136727433e+00	1.353467065790e-08
173                 	1.140528649418e-03	3.884677773739e-05	2.137136727658e+00	1.353467067560e-08
174                 	1.140528590252e-03	3.884677766664e-05	2.137136725753e+00	1.353467069134e-08
175                 	1.140529407667e-03	3.884677761850e-05	2.137136723140e+00	1.353467071130e-08
176                 	1.140529441738e-03	3.884677760653e-05	2.137136722403e+00	1.353467073103e-08
177                 	1.140529492030e-03	3.884677758976e-05	2.137136722182e+00	1.353467075700e-08
178                 	1.140529126476e-03	3.884677760317e-05	2.137136722648e+00	1.353467078510e-08
179                 	1.140529155576e-03	3.884677762110e-05	2.137136723362e+00	1.353467081214e-08
180                 	1.140528670154e-03	3.884677759482e-05	2.137136724077e+00	1.353467084188e-08
181                 	1.140528674074e-03	3.884677753350e-05	2.137136722731e+00	1.353467086763e-08
182                 	1.140529499399e-03	3.884677748765e-05	2.137136720478e+00	1.353467089605e-08
183                 	1.140529476696e-03	3.884677747802e-05	2.137136720158e+00	1.353467092394e-08
184                 	1.140529470590e-03	3.884677746902e-05	2.137136720281e+00	1.353467095277e-08
185                 	1.140529087919e-03	3.884677749109e-05	2.137136720842e+00	1.353467098523e-08
186                 	1.140529119327e-03	3.884677752875e-05	2.137136722262e+00	1.353467101349e-08
187                 	1.140529484373e-03	3.884677754980e-05	2.137136724126e+00	1.353467104445e-08
188                 	1.140529307055e-03	3.884677753245e-05	2.137136724593e+00	1.353467108080e-08
189                 	1.140529300896e-03	3.884677752261e-05	2.137136725112e+00	1.353467112892e-08
190                 	1.140528221037e-03	3.884677748878e-05	2.137136725028e+00	1.353467116430e-08
191                 	1.140528263481e-03	3.884677740984e-05	2.137136722879e+00	1.353467118497e-08
192                 	1.140529322779e-03	3.884677738334e-05	2.137136720826e+00	1.353467120314e-08
193                 	1.140529346736e-03	3.884677742545e-05	2.137136721547e+00	1.353467122483e-08
194                 	1.140529919041e-03	3.884677744507e-05	2.137136723239e+00	1.353467124414e-08
195                 	1.140529238977e-03	3.884677743289e-05	2.137136723835e+00	1.353467126559e-08
196                 	1.140529241765e-03	3.884677742211e-05	2.137136723957e+00	1.353467128854e-08
197                 	1.140529260102e-03	3.884677740870e-05	2.137136724083e+00	1.353467131076e-08
198                 	1.140529284750e-03	3.884677739183e-05	2.137136724050e+00	1.353467133218e-08
199                 	1.140529310300e-03	3.884677737286e-05	2.137136723839e+00	1.353467135326e-08
200                 	1.140529330397e-03	3.884677735251e-05	2.137136723523e+00	1.353467137462e-08
201                 	1.140529339946e-03	3.884677733186e-05	2.137136723148e+00	1.353467139672e-08
202                 	1.140527753211e-03	3.884677728729e-05	2.137136722494e+00	1.353467142272e-08
203                 	1.140528095293e-03	3.884677719332e-05	2.137136719246e+00	1.353467145333e-08
204                 	1.140529698852e-03	3.884677715992e-05	2.137136716337e+00	1.353467147525e-08
205                 	1.140529730751e-03	3.884677719808e-05	2.137136716400e+00	1.353467150853e-08
206                 	1.140529737241e-03	3.884677724463e-05	2.137136717966e+00	1.353467153777e-08
207                 	1.140528736150e-03	3.884677725618e-05	2.137136719493e+00	1.353467156862e-08
208                 	1.140528628006e-03	3.884677724937e-05	2.137136719291e+00	1.353467160614e-08
209                 	1.140528572497e-03	3.884677723732e-05	2.137136718728e+00	1.353467163167e-08
210                 	1.140529581090e-03	3.884677724261e-05	2.137136718495e+00	1.353467165337e-08
211                 	1.140529658076e-03	3.884677724767e-05	2.137136718517e+00	1.353467166639e-08
212                 	1.140529317353e-03	3.884677724508e-05	2.137136718740e+00	1.353467167658e-08
213                 	1.140529356974e-03	3.884677726055e-05	2.137136719514e+00	1.353467168784e-08
214                 	1.140529496176e-03	3.884677728522e-05	2.137136720459e+00	1.353467170619e-08
215                 	1.140528554708e-03	3.884677727835e-05	2.137136721259e+00	1.353467172839e-08
216                 	1.140528477034e-03	3.884677720431e-05	2.137136719582e+00	1.353467172887e-08
217                 	1.140528377196e-03	3.884677713372e-05	2.137136716972e+00	1.353467172219e-08
218                 	1.140529955992e-03	3.884677712147e-05	2.137136714587e+00	1.353467170906e-08
219                 	1.140530008455e-03	3.884677720182e-05	2.137136716261e+00	1.353467170210e-08
220                 	1.140528916738e-03	3.884677725909e-05	2.137136718989e+00	1.353467169809e-08
221                 	1.140528889616e-03	3.884677727024e-05	2.137136719967e+00	1.353467169733e-08
222                 	1.140528822799e-03	3.884677728171e-05	2.137136720110e+00	1.353467169452e-08
223                 	1.140528852119e-03	3.884677728777e-05	2.137136719848e+00	1.353467168437e-08
224                 	1.140528969167e-03	3.884677726762e-05	2.137136719378e+00	1.353467165974e-08
225                 	1.140528962469e-03	3.884677722918e-05	2.137136718027e+00	1.353467164474e-08
226                 	1.140528974196e-03	3.884677719725e-05	2.137136716377e+00	1.353467162760e-08
227                 	1.140530368797e-03	3.884677725071e-05	2.137136716388e+00	1.353467160721e-08
228                 	1.140530031834e-03	3.884677738174e-05	2.137136719787e+00	1.353467159772e-08
229                 	1.140528758845e-03	3.884677746079e-05	2.137136723841e+00	1.353467159429e-08
230                 	1.140528712656e-03	3.884677745683e-05	2.137136724840e+00	1.353467157194e-08
231                 	1.140528694481e-03	3.884677743502e-05	2.137136723880e+00	1.353467155152e-08
232                 	1.140528687881e-03	3.884677742668e-05	2.137136722737e+00	1.353467153280e-08
233                 	1.140530030410e-03	3.884677745331e-05	2.137136722317e+00	1.353467151627e-08
234                 	1.140530034940e-03	3.884677750154e-05	2.137136724042e+00	1.353467150263e-08
235                 	1.140528782909e-03	3.884677752977e-05	2.137136726245e+00	1.353467149048e-08
236                 	1.140528767431e-03	3.884677752617e-05	2.137136726396e+00	1.353467148050e-08
237                 	1.140528745248e-03	3.884677753142e-05	2.137136726240e+00	1.353467147179e-08
238                 	1.140529078375e-03	3.884677751583e-05	2.137136725834e+00	1.353467146636e-08
239                 	1.140529077434e-03	3.884677750204e-05	2.137136725025e+00	1.353467146337e-08
240                 	1.140528748075e-03	3.884677750024e-05	2.137136723782e+00	1.353467145704e-08
241                 	1.140529028065e-03	3.884677752022e-05	2.137136723856e+00	1.353467143700e-08
242                 	1.140529000151e-03	3.884677752495e-05	2.137136723669e+00	1.353467141815e-08
243                 	1.140530122333e-03	3.884677755579e-05	2.137136723884e+00	1.353467140482e-08
244                 	1.140530159531e-03	3.884677763914e-05	2.137136726309e+00	1.353467140047e-08
245                 	1.140528628364e-03	3.884677769209e-05	2.137136729382e+00	1.353467140009e-08
246                 	1.140528619365e-03	3.884677768382e-05	2.137136729967e+00	1.353467140429e-08
247                 	1.140528820643e-03	3.884677765166e-05	2.137136728845e+00	1.353467140615e-08
248                 	1.140528812527e-03	3.884677761195e-05	2.137136727161e+00	1.353467139843e-08
249                 	1.140529893727e-03	3.884677760679e-05	2.137136725838e+00	1.353467139220e-08
250                 	1.140529899452e-03	3.884677765458e-05	2.137136726788e+00	1.353467139083e-08
251                 	1.140528793337e-03	3.884677768035e-05	2.137136728661e+00	1.353467139756e-08
252                 	1.140528818662e-03	3.884677767016e-05	2.137136728926e+00	1.353467141197e-08
253                 	1.140528815965e-03	3.884677765575e-05	2.137136728184e+00	1.353467142799e-08
254                 	1.140528949837e-03	3.884677764040e-05	2.137136727520e+00	1.353467144382e-08
255                 	1.140528872975e-03	3.884677761312e-05	2.137136726433e+00	1.353467146197e-08
256                 	1.140529992792e-03	3.884677760828e-05	2.137136725465e+00	1.353467147395e-08
257                 	1.140529863091e-03	3.884677763877e-05	2.137136726151e+00	1.353467148020e-08
258                 	1.140529843671e-03	3.884677768548e-05	2.137136727663e+00	1.353467149325e-08
259                 	1.140528426909e-03	3.884677771143e-05	2.137136729348e+00	1.353467150499e-08
260                 	1.140528308579e-03	3.884677768614e-05	2.137136729048e+00	1.353467152702e-08
261                 	1.140529456556e-03	3.884677766763e-05	2.137136727944e+00	1.353467154580e-08
262                 	1.140529445064e-03	3.884677765852e-05	2.137136727410e+00	1.353467155735e-08
263                 	1.140529431919e-03	3.884677762992e-05	2.137136726816e+00	1.353467156091e-08
264                 	1.140529086770e-03	3.884677762444e-05	2.137136726505e+00	1.353467155598e-08
265                 	1.140529095738e-03	3.884677763839e-05	2.137136726716e+00	1.353467157062e-08
266                 	1.140529209324e-03	3.884677767578e-05	2.137136727826e+00	1.353467158872e-08
267                 	1.140529275711e-03	3.884677770101e-05	2.137136728920e+00	1.353467160760e-08
268                 	1.140529239607e-03	3.884677771141e-05	2.137136729747e+00	1.353467162906e-08
269                 	1.140529359597e-03	3.884677770621e-05	2.137136730132e+00	1.353467165472e-08
270                 	1.140529289099e-03	3.884677769697e-05	2.137136730107e+00	1.353467167901e-08
271                 	1.140528477664e-03	3.884677764201e-05	2.137136729136e+00	1.353467169882e-08
272                 	1.140528423434e-03	3.884677756503e-05	2.137136726483e+00	1.353467170601e-08
273                 	1.140529275812e-03	3.884677753010e-05	2.137136723649e+00	1.353467171531e-08
274                 	1.140529381757e-03	3.884677755697e-05	2.137136723585e+00	1.353467172821e-08
275                 	1.140529696338e-03	3.884677758705e-05	2.137136724667e+00	1.353467173814e-08
276                 	1.140528740874e-03	3.884677758983e-05	2.137136725567e+00	1.353467174717e-08
277                 	1.140528760343e-03	3.884677758118e-05	2.137136725170e+00	1.353467175750e-08
278                 	1.140528611366e-03	3.884677758572e-05	2.137136724762e+00	1.353467176644e-08
279                 	1.140529045989e-03	3.884677755820e-05	2.137136723640e+00	1.353467177537e-08
280                 	1.140529837220e-03	3.884677755771e-05	2.137136722941e+00	1.353467178418e-08
281                 	1.140529785381e-03	3.884677758819e-05	2.137136723700e+00	1.353467179766e-08
282                 	1.140528909019e-03	3.884677762971e-05	2.137136725440e+00	1.353467180779e-08
283                 	1.140528897288e-03	3.884677762492e-05	2.137136725664e+00	1.353467181887e-08
284                 	1.140528850189e-03	3.884677761336e-05	2.137136725443e+00	1.353467182702e-08
285                 	1.140528959139e-03	3.884677760545e-05	2.137136725101e+00	1.353467184024e-08
286                 	1.140529312074e-03	3.884677758578e-05	2.137136724428e+00	1.353467185535e-08
287                 	1.140529167561e-03	3.884677755275e-05	2.137136723396e+00	1.353467185795e-08
288                 	1.140529550099e-03	3.884677754838e-05	2.137136722470e+00	1.353467185928e-08
289                 	1.140529615894e-03	3.884677758836e-05	2.137136723296e+00	1.353467186786e-08
290                 	1.140528713379e-03	3.884677763136e-05	2.137136725159e+00	1.353467187543e-08
291                 	1.140529176095e-03	3.884677763819e-05	2.137136726007e+00	1.353467188982e-08
292                 	1.140528933809e-03	3.884677762865e-05	2.137136725993e+00	1.353467190489e-08
293                 	1.140528971990e-03	3.884677762003e-05	2.137136725523e+00	1.353467191859e-08
294                 	1.140528873428e-03	3.884677761431e-05	2.137136725036e+00	1.353467192329e-08
295                 	1.140528984382e-03	3.884677761126e-05	2.137136724740e+00	1.353467192179e-08
296                 	1.140528974588e-03	3.884677760328e-05	2.137136724403e+00	1.353467191773e-08
297                 	1.140528957599e-03	3.884677759573e-05	2.137136724061e+00	1.353467191503e-08
298                 	1.140529018133e-03	3.884677759107e-05	2.137136723775e+00	1.353467191165e-08
299                 	1.140529012289e-03	3.884677759006e-05	2.137136723582e+00	1.353467190809e-08
300                 	1.140529946118e-03	3.884677763142e-05	2.137136724193e+00	1.353467190460e-08
301                 	1.140530134481e-03	3.884677770402e-05	2.137136726661e+00	1.353467190446e-08
302                 	1.140528838297e-03	3.884677773592e-05	2.137136729298e+00	1.353467190917e-08
303                 	1.140528633416e-03	3.884677770633e-05	2.137136729229e+00	1.353467191091e-08
304                 	1.140528708106e-03	3.884677766989e-05	2.137136728194e+00	1.353467191425e-08
305                 	1.140529518242e-03	3.884677764020e-05	2.137136726814e+00	1.353467191786e-08
306                 	1.140529550463e-03	3.884677762787e-05	2.137136726320e+00	1.353467192403e-08
307                 	1.140529309537e-03	3.884677763946e-05	2.137136726620e+00	1.353467192339e-08