# Region            : all region0
# Cells             : 3000
# Volume            : 8.000000000000e-02
# Time              	min(p)	min(k)	min(omega)	min(nut)	min(epsilon)	min(nuTilda)
1                   	1.252272021168e-03	6.893155249386e-05	5.630729886231e+00	8.944769731530e-08
2                   	1.192098414308e-03	4.189111241502e-05	1.192950637367e-01	8.566001551946e-08
3                   	8.669468351561e-04	4.941320856274e-05	3.804064493386e+00	5.634788414983e-08
4                   	7.183048082604e-04	6.037714713494e-05	3.294754618245e+00	3.553615509818e-08
5                   	6.686240255548e-04	4.581054294021e-05	2.921429498120e+00	2.353400196112e-08
6                   	6.378951890679e-04	3.224175700134e-05	2.630298529127e+00	1.664046638377e-08
7                   	6.106120332257e-04	2.347482169256e-05	2.405172866872e+00	1.251484264471e-08
8                   	5.876813462954e-04	1.922764522608e-05	2.229600588168e+00	9.908228930310e-09
9                   	5.694484447301e-04	1.631177453048e-05	2.092799580190e+00	8.181414301019e-09
10                  	5.548930800833e-04	1.482670338453e-05	1.987299013097e+00	6.989892236783e-09
11                  	5.436419079483e-04	1.394500825502e-05	1.907633969560e+00	6.144935089297e-09
12                  	5.353489394375e-04	1.374589485322e-05	1.849639424315e+00	5.536421736627e-09
13                  	5.301997086292e-04	1.399609098835e-05	1.810144782290e+00	5.100071153734e-09
14                  	5.285551349685e-04	1.477631923605e-05	1.786945607299e+00	4.796585946798e-09
15                  	5.312112875911e-04	1.605786339151e-05	1.760071285313e+00	4.602888068471e-09
16                  	5.389689172455e-04	1.794524038592e-05	1.738395965741e+00	4.505412896431e-09
17                  	5.526510865116e-04	2.050444073971e-05	1.725754677396e+00	4.497179691646e-09
18                  	5.729274624915e-04	2.385842367236e-05	1.723378453603e+00	4.574968567701e-09
19                  	6.003648490150e-04	2.638888688295e-05	1.734394542761e+00	4.737764973655e-09
20                  	6.353578727469e-04	2.723999012693e-05	1.762962578713e+00	4.984973870849e-09
21                  	6.781261606817e-04	2.775075409777e-05	1.761202670894e+00	5.315118995478e-09
22                  	7.287183771772e-04	2.848766919762e-05	1.775448197749e+00	5.724524399705e-09
23                  	7.870932448608e-04	2.899828604768e-05	1.807640079784e+00	6.206556369658e-09
24                  	8.532179881849e-04	2.914610269376e-05	1.811839339713e+00	6.751366080493e-09
25                  	9.271425324217e-04	2.958644608590e-05	1.818618902180e+00	7.346429958160e-09
26                  	1.009001022087e-03	3.049523086249e-05	1.827243427040e+00	7.977666326676e-09
27                  	1.098933406510e-03	3.193539755718e-05	1.842152651141e+00	8.630929818543e-09
28                  	1.196976270404e-03	3.360638461739e-05	1.885594051657e+00	9.293443094802e-09
29                  	1.302697098617e-03	3.520584671112e-05	2.006580910698e+00	9.954856074261e-09
30                  	1.413392278732e-03	3.660683409558e-05	2.133293895592e+00	1.060760912207e-08
31                  	1.518977365899e-03	3.778773864094e-05	2.235205839671e+00	1.124616432783e-08
32                  	1.600542192319e-03	3.875659920250e-05	2.315982372145e+00	1.186494441676e-08
33                  	1.644876014310e-03	3.950318725886e-05	2.378983160966e+00	1.245702270002e-08
34                  	1.654479662369e-03	4.008842845920e-05	2.428058531759e+00	1.301622172271e-08
35                  	1.640100236910e-03	4.050767333044e-05	2.464618612870e+00	1.354007273110e-08
36                  	1.611870286956e-03	4.080819137983e-05	2.492015536938e+00	1.403003483480e-08
37                  	1.577030097580e-03	4.100220889107e-05	2.511305322029e+00	1.448976953757e-08
38                  	1.540623653595e-03	4.114743235940e-05	2.525178621868e+00	1.492351324651e-08
39                  	1.506072621556e-03	4.117359927809e-05	2.532462441065e+00	1.533516407520e-08
40                  	1.475380293310e-03	4.116745344056e-05	2.536846296411e+00	1.572783973527e-08
41                  	1.449401047099e-03	4.113606792337e-05	2.538313116324e+00	1.610368557818e-08
42                  	1.428228182564e-03	4.108895204302e-05	2.537262652113e+00	1.646386803646e-08
43                  	1.411541804336e-03	4.103518987967e-05	2.534326523836e+00	1.680871181493e-08
44                  	1.398830210870e-03	4.098172985903e-05	2.530197722136e+00	1.713791266478e-08
45                  	1.389502416475e-03	4.090212897593e-05	2.525503577186e+00	1.745075907347e-08
46                  	1.382948402575e-03	4.082159841913e-05	2.520733109093e+00	1.746567463046e-08
47                  	1.378576398565e-03	4.075307265027e-05	2.516224808817e+00	1.746254045018e-08
48                  	1.375836590882e-03	4.069694579784e-05	2.512180535974e+00	1.746029496874e-08
49                  	1.374250182416e-03	4.065233651322e-05	2.508692217077e+00	1.745883677641e-08
50                  	1.373403894812e-03	4.061771951864e-05	2.504302918311e+00	1.745805453178e-08
51                  	1.372879795441e-03	4.059137464528e-05	2.500616090933e+00	1.745783379169e-08
52                  	1.372434211198e-03	4.057167719839e-05	2.497636641188e+00	1.745806247899e-08
53                  	1.371806522328e-03	4.055720577779e-05	2.495278058310e+00	1.745863502414e-08
54                  	1.370718793389e-03	4.054675740345e-05	2.493446441684e+00	1.745945532010e-08
55                  	1.369098753349e-03	4.053934430353e-05	2.492048989111e+00	1.746043854817e-08
56                  	1.366850213816e-03	4.053417860511e-05	2.491002414620e+00	1.746151203041e-08
57                  	1.363428799043e-03	4.053064660042e-05	2.490235464190e+00	1.746261554629e-08
58                  	1.358610309939e-03	4.052828045272e-05	2.489687520550e+00	1.746370089260e-08
59                  	1.352819936208e-03	4.052673238661e-05	2.489307719360e+00	1.746473112843e-08
60                  	1.346124549702e-03	4.052574949129e-05	2.489054450186e+00	1.746567951628e-08
61                  	1.339252936749e-03	4.052515115033e-05	2.488894390330e+00	1.746652828113e-08
62                  	1.332472402890e-03	4.052481244855e-05	2.488801299870e+00	1.746726725140e-08
63                  	1.325945913674e-03	4.052464754259e-05	2.488754896138e+00	1.746789275914e-08
64                  	1.319813880832e-03	4.052459968809e-05	2.488739809635e+00	1.746840616004e-08
65                  	1.314188828299e-03	4.052463037886e-05	2.488744553819e+00	1.746881275880e-08
66                  	1.309152215727e-03	4.052471447439e-05	2.488760949649e+00	1.746912073864e-08
67                  	1.304753043034e-03	4.052483483577e-05	2.488783522700e+00	1.746934022347e-08
68                  	1.301008145729e-03	4.052497904907e-05	2.488808599943e+00	1.746948247259e-08
69                  	1.297909941447e-03	4.052513820762e-05	2.488833951133e+00	1.746955921595e-08
70                  	1.295433818600e-03	4.052530534481e-05	2.488858191946e+00	1.746958210188e-08
71                  	1.293532506810e-03	4.052547506556e-05	2.488880628740e+00	1.746956225737e-08
72                  	1.292151976790e-03	4.052564256776e-05	2.488900889791e+00	1.746950998352e-08
73                  	1.291230743688e-03	4.052580384911e-05	2.488918842759e+00	1.746943455059e-08
74                  	1.290702732541e-03	4.052595550274e-05	2.488934526409e+00	1.746934406534e-08
75                  	1.290504216607e-03	4.052609475515e-05	2.488948044947e+00	1.746924543658e-08
76                  	1.290573303368e-03	4.052621947400e-05	2.488959503250e+00	1.746914435407e-08
77                  	1.290853304783e-03	4.052632823299e-05	2.488969042152e+00	1.746904533661e-08
78                  	1.291294050863e-03	4.052642034364e-05	2.488976831447e+00	1.746895181836e-08
79                  	1.291851549692e-03	4.052649580224e-05	2.488983048301e+00	1.746886630362e-08
80                  	1.292487967844e-03	4.052655541856e-05	2.488987864420e+00	1.746879048916e-08
81                  	1.293170857514e-03	4.052659991396e-05	2.488991442942e+00	1.746872528856e-08
82                  	1.293873197393e-03	4.052663093790e-05	2.488993943170e+00	1.746867104915e-08
83                  	1.294575588683e-03	4.052665026330e-05	2.488995518453e+00	1.746862761079e-08
84                  	1.295254283164e-03	4.052665978261e-05	2.488996315709e+00	1.746859447132e-08
85                  	1.295897233538e-03	4.052666137822e-05	2.488996474841e+00	1.746857083406e-08
86                  	1.296495753104e-03	4.052665684682e-05	2.488996124375e+00	1.746855572004e-08
87                  	1.297043420437e-03	4.052664783838e-05	2.488995382377e+00	1.746854805069e-08
88                  	1.297536317403e-03	4.052663578031e-05	2.488994339086e+00	1.746854669297e-08
89                  	1.297972839311e-03	4.052662129005e-05	2.488992994046e+00	1.746855051796e-08
90                  	1.298353374931e-03	4.052660722743e-05	2.488991521430e+00	1.746855844235e-08
91                  	1.298679885385e-03	4.052659421796e-05	2.488990101758e+00	1.746856945911e-08
92                  	1.298955555613e-03	4.052658166608e-05	2.488988802855e+00	1.746858266293e-08
93                  	1.299184344731e-03	4.052656941715e-05	2.488987607903e+00	1.746859725562e-08
94                  	1.299370933684e-03	4.052655784729e-05	2.488986464699e+00	1.746861255862e-08
95                  	1.299520035637e-03	4.052654800778e-05	2.488985381137e+00	1.746862800628e-08
96                  	1.299636585692e-03	4.052654027843e-05	2.488984403098e+00	1.746864314427e-08
97                  	1.299725489129e-03	4.052653445233e-05	2.488983562502e+00	1.746865761766e-08
98                  	1.299790781177e-03	4.052653023697e-05	2.488982880806e+00	1.746867117218e-08
99                  	1.299837302197e-03	4.052652731285e-05	2.488982338373e+00	1.746868363126e-08
100                 	1.299868515825e-03	4.052652552357e-05	2.488981930552e+00	1.746869489284e-08
101                 	1.299887792342e-03	4.052652471326e-05	2.488981631543e+00	1.746870491350e-08
102                 	1.299897789136e-03	4.052652435390e-05	2.488981401724e+00	1.746871370097e-08
103                 	1.299901115562e-03	4.052652468068e-05	2.488981222613e+00	1.746872129929e-08
104                 	1.299899745979e-03	4.052652583446e-05	2.488981101823e+00	1.746872778025e-08
105                 	1.299895309271e-03	4.052652763263e-05	2.488981047318e+00	1.746873323478e-08
106                 	1.299888868296e-03	4.052652979831e-05	2.488981055617e+00	1.746873777168e-08
107                 	1.299881461282e-03	4.052653207742e-05	2.488981110146e+00	1.746874150319e-08
108                 	1.299873944902e-03	4.052653435049e-05	2.488981194510e+00	1.746874453100e-08
109                 	1.299866532440e-03	4.052653655731e-05	2.488981298593e+00	1.746874696284e-08
110                 	1.299859727690e-03	4.052653863639e-05	2.488981411532e+00	1.746874890122e-08
111                 	1.299853794505e-03	4.052654054836e-05	2.488981525010e+00	1.746875043248e-08
112                 	1.299848604778e-03	4.052654230341e-05	2.488981640601e+00	1.746875164532e-08
113                 	1.299844313291e-03	4.052654385382e-05	2.488981749281e+00	1.746875261154e-08
114                 	1.299840818577e-03	4.052654519012e-05	2.488981849803e+00	1.746875339736e-08
115                 	1.299838609836e-03	4.052654630203e-05	2.488981931342e+00	1.746875405428e-08
116                 	1.299835577456e-03	4.052654727920e-05	2.488982028600e+00	1.746875462782e-08
117                 	1.299834333595e-03	4.052654795038e-05	2.488982091006e+00	1.746875514752e-08
118                 	1.299833385988e-03	4.052654845367e-05	2.488982143433e+00	1.746875563640e-08
119                 	1.299832665798e-03	4.052654882992e-05	2.488982188350e+00	1.746875611456e-08
120                 	1.299832293920e-03	4.052654911505e-05	2.488982225431e+00	1.746875659494e-08
121                 	1.299832233928e-03	4.052654928902e-05	2.488982252084e+00	1.746875709173e-08
122                 	1.299831749071e-03	4.052654945021e-05	2.488982262343e+00	1.746875760228e-08
123                 	1.299831886709e-03	4.052654966529e-05	2.488982266442e+00	1.746875811878e-08
124                 	1.299831918527e-03	4.052654982264e-05	2.488982270918e+00	1.746875864262e-08
125                 	1.299831503516e-03	4.052654980867e-05	2.488982275378e+00	1.746875917244e-08
126                 	1.299831663693e-03	4.052654965563e-05	2.488982278111e+00	1.746875970554e-08
127                 	1.299832652002e-03	4.052654947794e-05	2.488982277498e+00	1.746876023689e-08
128                 	1.299832621088e-03	4.052654929708e-05	2.488982268338e+00	1.746876075743e-08
129                 	1.299833811515e-03	4.052654911712e-05	2.488982235464e+00	1.746876126530e-08
130                 	1.299833798788e-03	4.052654908012e-05	2.488982225932e+00	1.746876175850e-08
131                 	1.299834060474e-03	4.052654910117e-05	2.488982229405e+00	1.746876223601e-08
132                 	1.299832794371e-03	4.052654910788e-05	2.488982237540e+00	1.746876270205e-08
133                 	1.299832772407e-03	4.052654902813e-05	2.488982226734e+00	1.746876314010e-08
134                 	1.299833745985e-03	4.052654890094e-05	2.488982199111e+00	1.746876354743e-08
135                 	1.299833987543e-03	4.052654885900e-05	2.488982192605e+00	1.746876393016e-08
136                 	1.299833973702e-03	4.052654882116e-05	2.488982187324e+00	1.746876427748e-08
137                 	1.299834222360e-03	4.052654879469e-05	2.488982181573e+00	1.746876458780e-08
138                 	1.299834153715e-03	4.052654879999e-05	2.488982178047e+00	1.746876486377e-08
139                 	1.299834124446e-03	4.052654880976e-05	2.488982172373e+00	1.746876511741e-08
140                 	1.299834124042e-03	4.052654882316e-05	2.488982168204e+00	1.746876534216e-08
141                 	1.299834146094e-03	4.052654883624e-05	2.488982165540e+00	1.746876554483e-08
142                 	1.299834172923e-03	4.052654884602e-05	2.488982163875e+00	1.746876572871e-08
143                 	1.299834195715e-03	4.052654885458e-05	2.488982162698e+00	1.746876589621e-08
144                 	1.299833094192e-03	4.052654886976e-05	2.488982177357e+00	1.746876604628e-08
145                 	1.299833050020e-03	4.052654881268e-05	2.488982174191e+00	1.746876617679e-08
146                 	1.299834429640e-03	4.052654872112e-05	2.488982148896e+00	1.746876628913e-08
147                 	1.299834417836e-03	4.052654873513e-05	2.488982147284e+00	1.746876638141e-08
148                 	1.299834456653e-03	4.052654878074e-05	2.488982150248e+00	1.746876645926e-08
149                 	1.299834450818e-03	4.052654882821e-05	2.488982147668e+00	1.746876653306e-08
150                 	1.299834211148e-03	4.052654888354e-05	2.488982149916e+00	1.746876659972e-08
151                 	1.299833011058e-03	4.052654892727e-05	2.488982163987e+00	1.746876666846e-08
152                 	1.299833043790e-03	4.052654890965e-05	2.488982164703e+00	1.746876672164e-08
153                 	1.299834308838e-03	4.052654887453e-05	2.488982150272e+00	1.746876676692e-08
154                 	1.299834304981e-03	4.052654890804e-05	2.488982150466e+00	1.746876680925e-08
155                 	1.299834291339e-03	4.052654893562e-05	2.488982152807e+00	1.746876684397e-08
156                 	1.299834272332e-03	4.052654895557e-05	2.488982154866e+00	1.746876687222e-08
157                 	1.299834256083e-03	4.052654897486e-05	2.488982156399e+00	1.746876689477e-08
158                 	1.299834246772e-03	4.052654899634e-05	2.488982157456e+00	1.746876691202e-08
159                 	1.299833156145e-03	4.052654905095e-05	2.488982165842e+00	1.746876692546e-08
160                 	1.299832988079e-03	4.052654908029e-05	2.488982166128e+00	1.746876693508e-08
161                 	1.299834220834e-03	4.052654909379e-05	2.488982159612e+00	1.746876694117e-08
162                 	1.299834218970e-03	4.052654913174e-05	2.488982160723e+00	1.746876694645e-08
163                 	1.299834205991e-03	4.052654916381e-05	2.488982162144e+00	1.746876695212e-08
164                 	1.299834192722e-03	4.052654919220e-05	2.488982162818e+00	1.746876695960e-08
165                 	1.299834073218e-03	4.052654917944e-05	2.488982157772e+00	1.746876697048e-08
166                 	1.299833953279e-03	4.052654922571e-05	2.488982164481e+00	1.746876698167e-08
167                 	1.299833974358e-03	4.052654921885e-05	2.488982164544e+00	1.746876698442e-08
168                 	1.299834117155e-03	4.052654925146e-05	2.488982167301e+00	1.746876699455e-08
169                 	1.299833956177e-03	4.052654926000e-05	2.488982163893e+00	1.746876700795e-08
170                 	1.299833960215e-03	4.052654932035e-05	2.488982165138e+00	1.746876702204e-08
171                 	1.299833955427e-03	4.052654937132e-05	2.488982165895e+00	1.746876703862e-08
172                 	1.299833205322e-03	4.052654939234e-05	2.488982177526e+00	1.746876705395e-08
173                 	1.299833242182e-03	4.052654932863e-05	2.488982177899e+00	1.746876706450e-08
174                 	1.299834228235e-03	4.052654923950e-05	2.488982158368e+00	1.746876707422e-08
175                 	1.299834179613e-03	4.052654924288e-05	2.488982155908e+00	1.746876708456e-08
176                 	1.299834168576e-03	4.052654926234e-05	2.488982158504e+00	1.746876709677e-08
177                 	1.299834246398e-03	4.052654925669e-05	2.488982156711e+00	1.746876711640e-08
178                 	1.299834284788e-03	4.052654924612e-05	2.488982156017e+00	1.746876714319e-08
179                 	1.299834277406e-03	4.052654922795e-05	2.488982155643e+00	1.746876717754e-08
180                 	1.299834246049e-03	4.052654920816e-05	2.488982154742e+00	1.746876721741e-08
181                 	1.299834211981e-03	4.052654919115e-05	2.488982153230e+00	1.746876726121e-08
182                 	1.299832681579e-03	4.052654920603e-05	2.488982164940e+00	1.746876730484e-08
183                 	1.299832674937e-03	4.052654917062e-05	2.488982160353e+00	1.746876733997e-08
184                 	1.299834350309e-03	4.052654909716e-05	2.488982139612e+00	1.746876736942e-08
185                 	1.299834334710e-03	4.052654910283e-05	2.488982139235e+00	1.746876740252e-08
186                 	1.299834334353e-03	4.052654909424e-05	2.488982139525e+00	1.746876743745e-08
187                 	1.299834115398e-03	4.052654909731e-05	2.488982134490e+00	1.746876747917e-08
188                 	1.299834083580e-03	4.052654912240e-05	2.488982132529e+00	1.746876751644e-08
189                 	1.299833335005e-03	4.052654918300e-05	2.488982151230e+00	1.746876754997e-08
190                 	1.299833372808e-03	4.052654912772e-05	2.488982149422e+00	1.746876758618e-08
191                 	1.299833145314e-03	4.052654903467e-05	2.488982140416e+00	1.746876761941e-08
192                 	1.299834618724e-03	4.052654897675e-05	2.488982125086e+00	1.746876765520e-08
193                 	1.299834587198e-03	4.052654899867e-05	2.488982123976e+00	1.746876769171e-08
194                 	1.299834735880e-03	4.052654903071e-05	2.488982128342e+00	1.746876772908e-08
195                 	1.299833178546e-03	4.052654906310e-05	2.488982141483e+00	1.746876777708e-08
196                 	1.299833203007e-03	4.052654903747e-05	2.488982140976e+00	1.746876781421e-08
197                 	1.299833299042e-03	4.052654901764e-05	2.488982139752e+00	1.746876784489e-08
198                 	1.299834739470e-03	4.052654894119e-05	2.488982123214e+00	1.746876787441e-08
199                 	1.299834732040e-03	4.052654893168e-05	2.488982124786e+00	1.746876789963e-08
200                 	1.299834444890e-03	4.052654893205e-05	2.488982122561e+00	1.746876792555e-08
201                 	1.299834378878e-03	4.052654896034e-05	2.488982122965e+00	1.746876795937e-08
202                 	1.299833040590e-03	4.052654901476e-05	2.488982145013e+00	1.746876799106e-08
203                 	1.299833072643e-03	4.052654895719e-05	2.488982144118e+00	1.746876802145e-08
204                 	1.299834245983e-03	4.052654884871e-05	2.488982126175e+00	1.746876804948e-08
205                 	1.299834318276e-03	4.052654881867e-05	2.488982122600e+00	1.746876807383e-08
206                 	1.299833974152e-03	4.052654882578e-05	2.488982122881e+00	1.746876808919e-08
207                 	1.299834014198e-03	4.052654884752e-05	2.488982122380e+00	1.746876811989e-08
208                 	1.299834042571e-03	4.052654888713e-05	2.488982122539e+00	1.746876814615e-08
209                 	1.299834062801e-03	4.052654892440e-05	2.488982124034e+00	1.746876816820e-08
210                 	1.299834081241e-03	4.052654894577e-05	2.488982126340e+00	1.746876818734e-08
211                 	1.299833339482e-03	4.052654896855e-05	2.488982145596e+00	1.746876820293e-08
212                 	1.299833337928e-03	4.052654889022e-05	2.488982144228e+00	1.746876821283e-08
213                 	1.299834206109e-03	4.052654877822e-05	2.488982119506e+00	1.746876821883e-08
214                 	1.299834209894e-03	4.052654878095e-05	2.488982119071e+00	1.746876822421e-08
215                 	1.299834232528e-03	4.052654880157e-05	2.488982124649e+00	1.746876822702e-08
216                 	1.299834294369e-03	4.052654880699e-05	2.488982124915e+00	1.746876823121e-08
217                 	1.299834344941e-03	4.052654880424e-05	2.488982123533e+00	1.746876824558e-08
218                 	1.299833043584e-03	4.052654883798e-05	2.488982135113e+00	1.746876826050e-08
219                 	1.299833226426e-03	4.052654883326e-05	2.488982133913e+00	1.746876826458e-08
220                 	1.299834319966e-03	4.052654879885e-05	2.488982122469e+00	1.746876827371e-08
221                 	1.299834274579e-03	4.052654880867e-05	2.488982123102e+00	1.746876828094e-08
222                 	1.299834133737e-03	4.052654881042e-05	2.488982123943e+00	1.746876828340e-08
223                 	1.299834172718e-03	4.052654881927e-05	2.488982125331e+00	1.746876828409e-08
224                 	1.299834091326e-03	4.052654882412e-05	2.488982124603e+00	1.746876828095e-08
225                 	1.299833848963e-03	4.052654882033e-05	2.488982122504e+00	1.746876827461e-08
226                 	1.299833795973e-03	4.052654885812e-05	2.488982122638e+00	1.746876827388e-08
227                 	1.299834270178e-03	4.052654890588e-05	2.488982128800e+00	1.746876827849e-08
228                 	1.299833948953e-03	4.052654893611e-05	2.488982131166e+00	1.746876828602e-08
229                 	1.299834077571e-03	4.052654892942e-05	2.488982129918e+00	1.746876828829e-08
230                 	1.299834028978e-03	4.052654893039e-05	2.488982130933e+00	1.746876828646e-08
231                 	1.299833985715e-03	4.052654892591e-05	2.488982131927e+00	1.746876828146e-08
232                 	1.299834010169e-03	4.052654890648e-05	2.488982132356e+00	1.746876827627e-08
233                 	1.299833000718e-03	4.052654890207e-05	2.488982139252e+00	1.746876826897e-08
234                 	1.299833098085e-03	4.052654886379e-05	2.488982137631e+00	1.746876825810e-08
235                 	1.299834280933e-03	4.052654881596e-05	2.488982127213e+00	1.746876824929e-08
236                 	1.299834252450e-03	4.052654882797e-05	2.488982126945e+00	1.746876824514e-08
237                 	1.299834204872e-03	4.052654884400e-05	2.488982126591e+00	1.746876824011e-08
238                 	1.299834188058e-03	4.052654885511e-05	2.488982126369e+00	1.746876823326e-08
239                 	1.299833916393e-03	4.052654885660e-05	2.488982124014e+00	1.746876822537e-08
240                 	1.299833963072e-03	4.052654887879e-05	2.488982126606e+00	1.746876821549e-08
241                 	1.299834146902e-03	4.052654888791e-05	2.488982130369e+00	1.746876820583e-08
242                 	1.299833229400e-03	4.052654890668e-05	2.488982140165e+00	1.746876820564e-08
243                 	1.299833396469e-03	4.052654886707e-05	2.488982137714e+00	1.746876819978e-08
244                 	1.299833231049e-03	4.052654881075e-05	2.488982132366e+00	1.746876819211e-08
245                 	1.299834723577e-03	4.052654876367e-05	2.488982120409e+00	1.746876818413e-08
246                 	1.299834545299e-03	4.052654878736e-05	2.488982116114e+00	1.746876817242e-08
247                 	1.299834416987e-03	4.052654884057e-05	2.488982118776e+00	1.746876816077e-08
248                 	1.299833449403e-03	4.052654890104e-05	2.488982135705e+00	1.746876816236e-08
249                 	1.299833360158e-03	4.052654888251e-05	2.488982136229e+00	1.746876816595e-08
250                 	1.299833170225e-03	4.052654885154e-05	2.488982131795e+00	1.746876816740e-08
251                 	1.299834624873e-03	4.052654880847e-05	2.488982122255e+00	1.746876816101e-08
252                 	1.299834370350e-03	4.052654883355e-05	2.488982122764e+00	1.746876815353e-08
253                 	1.299834389624e-03	4.052654885194e-05	2.488982121308e+00	1.746876815000e-08
254                 	1.299834319637e-03	4.052654888341e-05	2.488982123625e+00	1.746876815253e-08
255                 	1.299832985935e-03	4.052654893386e-05	2.488982139297e+00	1.746876815832e-08
256                 	1.299832984308e-03	4.052654890849e-05	2.488982138261e+00	1.746876816097e-08
257                 	1.299834397518e-03	4.052654886819e-05	2.488982129033e+00	1.746876816529e-08
258                 	1.299834104474e-03	4.052654887169e-05	2.488982129205e+00	1.746876816754e-08
259                 	1.299834179976e-03	4.052654888252e-05	2.488982129624e+00	1.746876816958e-08
260                 	1.299834015652e-03	4.052654886201e-05	2.488982127347e+00	1.746876816804e-08
261                 	1.299834112734e-03	4.052654885074e-05	2.488982127584e+00	1.746876816251e-08
262                 	1.299834054793e-03	4.052654884028e-05	2.488982127698e+00	1.746876815556e-08
263                 	1.299833935033e-03	4.052654884901e-05	2.488982124864e+00	1.746876815005e-08
264                 	1.299833711378e-03	4.052654889361e-05	2.488982127527e+00	1.746876814859e-08
265                 	1.299834143568e-03	4.052654892539e-05	2.488982133329e+00	1.746876815301e-08
266                 	1.299834131967e-03	4.052654890823e-05	2.488982131218e+00	1.746876816157e-08
267                 	1.299833948911e-03	4.052654889628e-05	2.488982131676e+00	1.746876817247e-08
268                 	1.299834048494e-03	4.052654888728e-05	2.488982132147e+00	1.746876817861e-08
269                 	1.299833901029e-03	4.052654888358e-05	2.488982131012e+00	1.746876818049e-08
270                 	1.299833927556e-03	4.052654887064e-05	2.488982130696e+00	1.746876817782e-08
271                 	1.299833929593e-03	4.052654885522e-05	2.488982130308e+00	1.746876817498e-08
272                 	1.299833892759e-03	4.052654884619e-05	2.488982129592e+00	1.746876817076e-08
273                 	1.299833941759e-03	4.052654883949e-05	2.488982128858e+00	1.746876816704e-08
274                 	1.299833922639e-03	4.052654883471e-05	2.488982128532e+00	1.746876816322e-08
275                 	1.299833892447e-03	4.052654883337e-05	2.488982128245e+00	1.746876816018e-08
276                 	1.299833916940e-03	4.052654883568e-05	2.488982127883e+00	1.746876815760e-08
277                 	1.299833895019e-03	4.052654883816e-05	2.488982127912e+00	1.746876815614e-08
278                 	1.299833891427e-03	4.052654884159e-05	2.488982127884e+00	1.746876815556e-08
279                 	1.299833913570e-03	4.052654884753e-05	2.488982127912e+00	1.746876815612e-08
280                 	1.299833899708e-03	4.052654885233e-05	2.488982128207e+00	1.746876815772e-08
281                 	1.299833898261e-03	4.052654883397e-05	2.488982128482e+00	1.746876816042e-08
282                 	1.299833916754e-03	4.052654885655e-05	2.488982128496e+00	1.746876816399e-08
283                 	1.299833907297e-03	4.052654886905e-05	2.488982129035e+00	1.746876816849e-08
284                 	1.299833911849e-03	4.052654888205e-05	2.488982129477e+00	1.746876817404e-08
285                 	1.299833936303e-03	4.052654889192e-05	2.488982129922e+00	1.746876817948e-08
286                 	1.299833922994e-03	4.052654889216e-05	2.488982130510e+00	1.746876818511e-08
287                 	1.299833929102e-03	4.052654889899e-05	2.488982130902e+00	1.746876819069e-08
288                 	1.299833944338e-03	4.052654890017e-05	2.488982131185e+00	1.746876819588e-08
289                 	1.299833918583e-03	4.052654890149e-05	2.488982131552e+00	1.746876820066e-08
290                 	1.299833931813e-03	4.052654889976e-05	2.488982131599e+00	1.746876820511e-08
291                 	1.299833944725e-03	4.052654889835e-05	2.488982131672e+00	1.746876820861e-08
292                 	1.299833923746e-03	4.052654889556e-05	2.488982131857e+00	1.746876821157e-08
293                 	1.299833936619e-03	4.052654889081e-05	2.488982131636e+00	1.746876821386e-08
294                 	1.299833938682e-03	4.052654888840e-05	2.488982131565e+00	1.746876821545e-08
295                 	1.299833920100e-03	4.052654888045e-05	2.488982131459e+00	1.746876821617e-08
296                 	1.299833931276e-03	4.052654887721e-05	2.488982131108e+00	1.746876821637e-08
297                 	1.299833929127e-03	4.052654887067e-05	2.488982130853e+00	1.746876821560e-08
298                 	1.299833917393e-03	4.052654886333e-05	2.488982130582e+00	1.746876821444e-08
299                 	1.299833925810e-03	4.052654885866e-05	2.488982130167e+00	1.746876821246e-08
300                 	1.299833919690e-03	4.052654885090e-05	2.488982129812e+00	1.746876821015e-08
301                 	1.299833909809e-03	4.052654884557e-05	2.488982129495e+00	1.746876820723e-08
302                 	1.299833917242e-03	4.052654883958e-05	2.488982129021e+00	1.746876820409e-08
303                 	1.299833910028e-03	4.052654883518e-05	2.488982128680e+00	1.746876820059e-08
304                 	1.299833905656e-03	4.052654882998e-05	2.488982128359e+00	1.746876819700e-08
305                 	1.299833911814e-03	4.052654882682e-05	2.488982127962e+00	1.746876819332e-08
306                 	1.299833904326e-03	4.052654882437e-05	2.488982127717e+00	1.746876818970e-08
307                 	1.299833902266e-03	4.052654882156e-05	2.488982127468e+00	1.746876818617e-08