/*--------------------------------*- C++ -*----------------------------------*\
| =========                 |                                                 |
| \\      /  F ield         | OpenFOAM: The Open Source CFD Toolbox           |
|  \\    /   O peration     | Version:  2206                                  |
|   \\  /    A nd           | Website:  www.openfoam.com                      |
|    \\/     M anipulation  |                                                 |
\*---------------------------------------------------------------------------*/
FoamFile
{
    version     2.0;
    format      ascii;
    arch        "LSB;label=32;scalar=64";
    class       volScalarField;
    location    "800";
    object      k;
}
// * * * * * * * * * * * * * * * * * * * * * * * * * * * * * * * * * * * * * //

dimensions      [0 2 -2 0 0 0 0];

internalField   nonuniform List<scalar> 
13056
(
0.00010822742
9.7700642e-05
9.684156e-05
9.6901089e-05
9.6957093e-05
9.6972236e-05
9.6976375e-05
9.6978816e-05
9.6981376e-05
9.6984442e-05
9.6988213e-05
9.6992895e-05
9.6998745e-05
9.700611e-05
9.7015468e-05
9.7027528e-05
9.7043424e-05
9.7064598e-05
9.7096226e-05
9.7132043e-05
9.7252226e-05
9.7100818e-05
9.8886266e-05
3.3188003e-05
3.1832385e-07
4.9117664e-08
2.4866825e-08
1.6763362e-08
1.2804611e-08
1.0395724e-08
8.7673202e-09
7.5783743e-09
6.6705093e-09
5.9545123e-09
5.3742508e-09
4.8936681e-09
4.4887982e-09
4.1429257e-09
3.8439074e-09
3.5827015e-09
3.3525513e-09
3.1480103e-09
2.9651062e-09
2.8004928e-09
2.6515279e-09
2.5160488e-09
2.392273e-09
2.2787212e-09
2.1741544e-09
2.0775303e-09
1.9879603e-09
1.9046821e-09
1.827041e-09
1.7544707e-09
1.6864795e-09
1.6226404e-09
1.5625764e-09
1.5059543e-09
1.4524808e-09
1.4018954e-09
1.3539663e-09
1.3084878e-09
1.2652776e-09
1.2241714e-09
1.1850195e-09
1.1476879e-09
1.1120567e-09
1.0780192e-09
1.0454784e-09
1.0143479e-09
9.8455247e-10
9.560261e-10
9.2871045e-10
9.0255532e-10
8.775174e-10
8.5356062e-10
8.3065634e-10
8.0878715e-10
7.8795387e-10
7.6816604e-10
7.4944155e-10
7.318106e-10
7.1531124e-10
6.9999516e-10
6.859473e-10
6.7327898e-10
6.6213525e-10
6.527938e-10
6.4533618e-10
6.4077028e-10
6.3864193e-10
6.4000896e-10
6.4527167e-10
6.5511716e-10
6.7026539e-10
6.9142069e-10
7.1879927e-10
7.5242885e-10
7.9255182e-10
8.3800478e-10
8.8519045e-10
9.3010577e-10
9.6839645e-10
9.9923345e-10
1.022611e-09
1.0398744e-09
1.0524488e-09
1.0614247e-09
1.0676096e-09
1.0714701e-09
1.0733479e-09
1.0735068e-09
1.0719454e-09
1.0687001e-09
1.0640034e-09
1.0580522e-09
1.051093e-09
1.0434116e-09
1.0351814e-09
1.0265689e-09
1.0177763e-09
1.0089257e-09
1.0000634e-09
9.9124873e-10
9.8256986e-10
9.7405694e-10
9.6570156e-10
9.5748718e-10
9.4942072e-10
9.4149558e-10
9.3373904e-10
9.2579494e-10
9.1824628e-10
9.0891745e-10
9.0137648e-10
8.9046612e-10
0.00010821981
9.7689424e-05
9.6830139e-05
9.6889643e-05
9.6945654e-05
9.6960799e-05
9.6964939e-05
9.6967381e-05
9.6969941e-05
9.6973007e-05
9.6976778e-05
9.6981461e-05
9.6987313e-05
9.6994678e-05
9.7004038e-05
9.70161e-05
9.7031998e-05
9.7053175e-05
9.7084808e-05
9.7120628e-05
9.7240832e-05
9.7089355e-05
9.8875109e-05
3.3187007e-05
4.9044586e-08
7.5429591e-09
3.8187721e-09
2.5743304e-09
1.9663895e-09
1.59646e-09
1.346388e-09
1.1638031e-09
1.0243833e-09
9.1442857e-10
8.2531854e-10
7.5151608e-10
6.8934075e-10
6.3622559e-10
5.9030582e-10
5.5019287e-10
5.148491e-10
4.834381e-10
4.5534986e-10
4.3007049e-10
4.0719425e-10
3.8638901e-10
3.6738104e-10
3.4994315e-10
3.3388506e-10
3.1904673e-10
3.0529168e-10
2.9250282e-10
2.8057964e-10
2.6943513e-10
2.5899389e-10
2.4919037e-10
2.3996663e-10
2.3127149e-10
2.2305989e-10
2.1529183e-10
2.0793171e-10
2.0094795e-10
1.9431256e-10
1.8800031e-10
1.819882e-10
1.7625563e-10
1.7078423e-10
1.6555755e-10
1.6056067e-10
1.5578026e-10
1.5120493e-10
1.4682497e-10
1.426311e-10
1.3861558e-10
1.3477177e-10
1.3109416e-10
1.2757837e-10
1.2422175e-10
1.2102441e-10
1.1798762e-10
1.1511345e-10
1.1240798e-10
1.0987845e-10
1.0753142e-10
1.0538012e-10
1.0344188e-10
1.017392e-10
1.003149e-10
9.9180591e-11
9.8485286e-11
9.8172802e-11
9.8407868e-11
9.9247043e-11
1.0079702e-10
1.0316948e-10
1.0647329e-10
1.1074121e-10
1.1597569e-10
1.2220917e-10
1.2925376e-10
1.3654822e-10
1.4347744e-10
1.4937834e-10
1.5413033e-10
1.5773526e-10
1.6040149e-10
1.6234851e-10
1.6374349e-10
1.6470934e-10
1.6531667e-10
1.6561745e-10
1.6565186e-10
1.6541939e-10
1.649254e-10
1.6420562e-10
1.6329078e-10
1.622192e-10
1.6103526e-10
1.59766e-10
1.5843729e-10
1.5708045e-10
1.5571438e-10
1.5434634e-10
1.5298556e-10
1.5164562e-10
1.5033122e-10
1.4904109e-10
1.4777273e-10
1.465272e-10
1.453035e-10
1.4410579e-10
1.4287947e-10
1.4171374e-10
1.4027505e-10
1.3911086e-10
1.3742637e-10
0.0001081956
9.765412e-05
9.6794235e-05
9.6853661e-05
9.6909692e-05
9.6924845e-05
9.6928987e-05
9.6931429e-05
9.6933991e-05
9.6937058e-05
9.694083e-05
9.6945515e-05
9.6951369e-05
9.6958738e-05
9.6968102e-05
9.6980169e-05
9.6996075e-05
9.701726e-05
9.7048905e-05
9.7084732e-05
9.7204993e-05
9.7053322e-05
9.8839825e-05
3.3173402e-05
1.5552398e-08
2.3531131e-09
1.1913028e-09
8.0308724e-10
6.1343991e-10
4.9804165e-10
4.2003204e-10
3.6307442e-10
3.1958207e-10
2.8528127e-10
2.5748303e-10
2.3446007e-10
2.1506426e-10
1.9849499e-10
1.8417055e-10
1.7165766e-10
1.6063255e-10
1.5083425e-10
1.4207251e-10
1.3418702e-10
1.2705123e-10
1.2056153e-10
1.1463255e-10
1.091934e-10
1.0418462e-10
9.9556342e-11
9.5265943e-11
9.1276834e-11
8.7557639e-11
8.4081286e-11
8.0824546e-11
7.7767341e-11
7.4891371e-11
7.2180424e-11
6.9620441e-11
6.7198963e-11
6.49049e-11
6.2728417e-11
6.0660799e-11
5.8694207e-11
5.6821402e-11
5.5035914e-11
5.3332037e-11
5.1704551e-11
5.0148544e-11
4.865944e-11
4.7234734e-11
4.5873959e-11
4.4572354e-11
4.3327295e-11
4.213688e-11
4.0999488e-11
3.9914011e-11
3.8879776e-11
3.7896786e-11
3.6964505e-11
3.6079681e-11
3.5252495e-11
3.4493523e-11
3.3797151e-11
3.3168855e-11
3.2615732e-11
3.2146792e-11
3.1776985e-11
3.1506869e-11
3.1352976e-11
3.1370182e-11
3.1623987e-11
3.2109272e-11
3.2868328e-11
3.3945146e-11
3.5380679e-11
3.71855e-11
3.9353835e-11
4.1872793e-11
4.4631262e-11
4.7394432e-11
4.9945929e-11
5.2090399e-11
5.3817027e-11
5.5145234e-11
5.6155201e-11
5.6924487e-11
5.7508191e-11
5.7942176e-11
5.8245612e-11
5.8434149e-11
5.851944e-11
5.8499771e-11
5.8375194e-11
5.8157566e-11
5.7859936e-11
5.749833e-11
5.7090261e-11
5.6647307e-11
5.618007e-11
5.5700245e-11
5.5215178e-11
5.4728247e-11
5.4243127e-11
5.3764606e-11
5.329453e-11
5.2832801e-11
5.237879e-11
5.1932899e-11
5.1494945e-11
5.1065851e-11
5.0629228e-11
5.0210766e-11
4.970863e-11
4.9293261e-11
4.8691444e-11
0.00010815401
9.7593601e-05
9.6732697e-05
9.6791988e-05
9.6848053e-05
9.6863221e-05
9.6867366e-05
9.686981e-05
9.6872372e-05
9.6875442e-05
9.6879217e-05
9.6883905e-05
9.6889763e-05
9.6897137e-05
9.6906509e-05
9.6918585e-05
9.6934501e-05
9.6955701e-05
9.6987367e-05
9.7023204e-05
9.7143561e-05
9.6991565e-05
9.8779283e-05
3.3146985e-05
7.3316541e-09
1.0380452e-09
5.2550949e-10
3.5426116e-10
2.706232e-10
2.1973489e-10
1.853326e-10
1.6021263e-10
1.4103051e-10
1.2590191e-10
1.1364114e-10
1.0348665e-10
9.4932009e-11
8.7624582e-11
8.1307893e-11
7.579053e-11
7.0929391e-11
6.6609299e-11
6.2746388e-11
5.9270036e-11
5.6124463e-11
5.3263996e-11
5.0650991e-11
4.8254185e-11
4.6047042e-11
4.4007758e-11
4.2117346e-11
4.0359503e-11
3.8720329e-11
3.7188081e-11
3.5753388e-11
3.4408469e-11
3.3144607e-11
3.1953945e-11
3.0830289e-11
2.9768195e-11
2.8762826e-11
2.7809902e-11
2.6905642e-11
2.6046679e-11
2.5229653e-11
2.4451592e-11
2.3710087e-11
2.3002616e-11
2.2326317e-11
2.1678048e-11
2.105962e-11
2.047805e-11
1.9926125e-11
1.9402195e-11
1.890598e-11
1.8437204e-11
1.7996218e-11
1.7583387e-11
1.7198947e-11
1.684059e-11
1.6497136e-11
1.6194597e-11
1.5960083e-11
1.5772252e-11
1.5638143e-11
1.5566777e-11
1.5569366e-11
1.5659781e-11
1.5836481e-11
1.6045576e-11
1.647316e-11
1.7190764e-11
1.8156832e-11
1.9421653e-11
2.1038039e-11
2.3052843e-11
2.5482143e-11
2.8322037e-11
3.1527208e-11
3.4919336e-11
3.8209126e-11
4.1150667e-11
4.3599621e-11
4.5576507e-11
4.7146929e-11
4.8406343e-11
4.943299e-11
5.0277609e-11
5.0964759e-11
5.1508265e-11
5.1922786e-11
5.2215504e-11
5.2382193e-11
5.2418149e-11
5.2331862e-11
5.2141541e-11
5.186878e-11
5.1534642e-11
5.1155411e-11
5.0744846e-11
5.0315254e-11
4.9875147e-11
4.9429937e-11
4.8984124e-11
4.8541949e-11
4.8105617e-11
4.7676055e-11
4.7253469e-11
4.6838283e-11
4.6430836e-11
4.6030363e-11
4.5630742e-11
4.5237795e-11
4.4807712e-11
4.4425028e-11
4.3868186e-11
0.00010809387
9.7506097e-05
9.6643721e-05
9.6702818e-05
9.6758931e-05
9.677412e-05
9.6778271e-05
9.6780716e-05
9.6783281e-05
9.6786352e-05
9.6790131e-05
9.6794824e-05
9.6800688e-05
9.6808071e-05
9.6817452e-05
9.6829541e-05
9.6845474e-05
9.6866694e-05
9.6898388e-05
9.6934241e-05
9.7054734e-05
9.6902271e-05
9.8691712e-05
3.3107533e-05
4.6770232e-09
5.5497841e-10
2.8091585e-10
1.8937891e-10
1.4471692e-10
1.1755374e-10
9.9186668e-11
8.577148e-11
7.5525638e-11
6.744404e-11
6.0893982e-11
5.5469299e-11
5.0899466e-11
4.6997106e-11
4.3625414e-11
4.0681489e-11
3.808822e-11
3.5783879e-11
3.3723798e-11
3.1870424e-11
3.0194056e-11
2.8670349e-11
2.7279226e-11
2.6003991e-11
2.4829858e-11
2.3745566e-11
2.2740557e-11
2.1805773e-11
2.0933674e-11
2.0118395e-11
1.9356706e-11
1.8646643e-11
1.7982277e-11
1.7358008e-11
1.6770555e-11
1.6217135e-11
1.5695293e-11
1.5202882e-11
1.4738036e-11
1.4299173e-11
1.3884166e-11
1.3491254e-11
1.3119432e-11
1.2767037e-11
1.2431316e-11
1.2108526e-11
1.1805196e-11
1.153897e-11
1.1296595e-11
1.1076496e-11
1.0879875e-11
1.0707857e-11
1.0562636e-11
1.0446328e-11
1.036046e-11
1.0301553e-11
1.024868e-11
1.0251627e-11
1.0364834e-11
1.0548877e-11
1.0818837e-11
1.1194213e-11
1.1699911e-11
1.2366077e-11
1.3211329e-11
1.4172684e-11
1.5515031e-11
1.7360489e-11
1.9694326e-11
2.2620475e-11
2.6248852e-11
3.0675948e-11
3.5940913e-11
4.2044637e-11
4.8879057e-11
5.6051525e-11
6.2963634e-11
6.9099014e-11
7.4207961e-11
7.8340925e-11
8.166796e-11
8.4388092e-11
8.6653881e-11
8.8561563e-11
9.0150686e-11
9.1446307e-11
9.2478146e-11
9.3256594e-11
9.3771513e-11
9.4009107e-11
9.3982149e-11
9.3730905e-11
9.330255e-11
9.2741102e-11
9.2082665e-11
9.1356872e-11
9.0587914e-11
8.9793296e-11
8.8985508e-11
8.8174031e-11
8.7366398e-11
8.6567209e-11
8.5779311e-11
8.5003975e-11
8.4242041e-11
8.34947e-11
8.2758718e-11
8.2033174e-11
8.1308323e-11
8.0561353e-11
7.9863672e-11
7.8845759e-11
0.00010801358
9.7389208e-05
9.6524863e-05
9.6583702e-05
9.6639878e-05
9.6655096e-05
9.6659254e-05
9.6661701e-05
9.6664268e-05
9.6667343e-05
9.6671126e-05
9.6675826e-05
9.6681698e-05
9.6689091e-05
9.6698486e-05
9.6710592e-05
9.6726546e-05
9.6747792e-05
9.6779525e-05
9.6815398e-05
9.693607e-05
9.6782989e-05
9.8574715e-05
3.305486e-05
3.9458592e-09
3.367187e-10
1.7035633e-10
1.1485665e-10
8.7867866e-11
7.1475376e-11
6.038371e-11
5.2274744e-11
4.6078098e-11
4.1188616e-11
3.7224847e-11
3.3942318e-11
3.1177466e-11
2.8818696e-11
2.6783602e-11
2.5008845e-11
2.3446498e-11
2.205882e-11
2.0819044e-11
1.970479e-11
1.8698281e-11
1.7784888e-11
1.6952533e-11
1.6191131e-11
1.5490783e-11
1.4845316e-11
1.4247584e-11
1.3691493e-11
1.3172318e-11
1.2687209e-11
1.2237103e-11
1.18244e-11
1.1443536e-11
1.1088913e-11
1.0758635e-11
1.0451266e-11
1.0165583e-11
9.9005651e-12
9.6553919e-12
9.4295498e-12
9.2212335e-12
9.0292493e-12
8.8536245e-12
8.6931675e-12
8.5447093e-12
8.4032224e-12
8.2807775e-12
8.2085406e-12
8.1657529e-12
8.1511221e-12
8.1681092e-12
8.2204417e-12
8.313474e-12
8.4530416e-12
8.6448609e-12
8.888887e-12
9.1629359e-12
9.532912e-12
1.0077718e-11
1.0757771e-11
1.1605086e-11
1.2661183e-11
1.3979785e-11
1.562701e-11
1.7663157e-11
2.0030787e-11
2.3135912e-11
2.7208047e-11
3.2295831e-11
3.8618391e-11
4.6408109e-11
5.5869228e-11
6.7089587e-11
8.0080722e-11
9.461741e-11
1.098737e-10
1.2459561e-10
1.3767614e-10
1.4858943e-10
1.5742739e-10
1.6456301e-10
1.7041783e-10
1.7531127e-10
1.7944531e-10
1.8290139e-10
1.8573416e-10
1.8800845e-10
1.8974507e-10
1.9092234e-10
1.9150914e-10
1.915301e-10
1.9107178e-10
1.9023528e-10
1.89114e-10
1.8778556e-10
1.8631329e-10
1.8474771e-10
1.8312582e-10
1.8147472e-10
1.7981456e-10
1.7816063e-10
1.765227e-10
1.7490726e-10
1.7331744e-10
1.71755e-10
1.7022271e-10
1.6871288e-10
1.672296e-10
1.6574105e-10
1.6423382e-10
1.6280581e-10
1.6072076e-10
0.00010791114
9.723992e-05
9.6373051e-05
9.6431562e-05
9.6487817e-05
9.6503071e-05
9.6507238e-05
9.6509688e-05
9.6512258e-05
9.6515337e-05
9.6519127e-05
9.6523834e-05
9.6529717e-05
9.6537124e-05
9.6546535e-05
9.6558663e-05
9.6574644e-05
9.6595924e-05
9.6627704e-05
9.6663602e-05
9.6784502e-05
9.6630632e-05
9.8425282e-05
3.2988904e-05
4.1886653e-09
2.2761408e-10
1.1501116e-10
7.7562574e-11
5.9513746e-11
4.85912e-11
4.1187579e-11
3.5761255e-11
3.1608571e-11
2.8328769e-11
2.5668291e-11
2.3465338e-11
2.1610589e-11
2.0031885e-11
1.8674532e-11
1.7494514e-11
1.6457534e-11
1.553758e-11
1.4717142e-11
1.3981808e-11
1.331999e-11
1.2722052e-11
1.2180013e-11
1.1687162e-11
1.1235678e-11
1.0822303e-11
1.044103e-11
1.0086844e-11
9.7564317e-12
9.4488876e-12
9.1687129e-12
8.92236e-12
8.7036624e-12
8.5060923e-12
8.3286017e-12
8.1706724e-12
8.0319498e-12
7.9122543e-12
7.8115937e-12
7.7304285e-12
7.6669265e-12
7.6205301e-12
7.5925515e-12
7.5828382e-12
7.5886645e-12
7.6047852e-12
7.6475259e-12
7.7584444e-12
7.9137852e-12
8.1143443e-12
8.3673496e-12
8.6809696e-12
9.0660258e-12
9.5349369e-12
1.0101109e-11
1.0771565e-11
1.1525154e-11
1.2453162e-11
1.367261e-11
1.5148916e-11
1.6944776e-11
1.9141622e-11
2.1845429e-11
2.5188291e-11
2.9306687e-11
3.4168185e-11
4.0422276e-11
4.8488192e-11
5.853598e-11
7.0995024e-11
8.6321304e-11
1.0491655e-10
1.2695812e-10
1.524792e-10
1.8105111e-10
2.1107269e-10
2.4009991e-10
2.659386e-10
2.8753087e-10
3.05028e-10
3.1916431e-10
3.307678e-10
3.4046597e-10
3.4865814e-10
3.5550719e-10
3.6112526e-10
3.6564328e-10
3.6910285e-10
3.7146177e-10
3.7265812e-10
3.7273913e-10
3.7187563e-10
3.7026705e-10
3.6809705e-10
3.655189e-10
3.6265733e-10
3.5961136e-10
3.5645368e-10
3.5323788e-10
3.5000363e-10
3.4678067e-10
3.4358819e-10
3.4043921e-10
3.3734011e-10
3.3429432e-10
3.3130742e-10
3.2836387e-10
3.2547477e-10
3.2257187e-10
3.1964658e-10
3.1686425e-10
3.128009e-10
0.00010778416
9.7054613e-05
9.6184595e-05
9.62427e-05
9.6299051e-05
9.631435e-05
9.6318527e-05
9.6320982e-05
9.6323556e-05
9.632664e-05
9.6330437e-05
9.6335154e-05
9.634105e-05
9.6348473e-05
9.6357906e-05
9.637006e-05
9.6386074e-05
9.6407396e-05
9.6439235e-05
9.6475163e-05
9.6596343e-05
9.6441497e-05
9.8239797e-05
3.2909831e-05
5.1269498e-09
1.7419534e-10
8.7783694e-11
5.923409e-11
4.573828e-11
3.7637708e-11
3.2126039e-11
2.8064325e-11
2.4946311e-11
2.2478709e-11
2.0474339e-11
1.8814912e-11
1.7419211e-11
1.623643e-11
1.5226243e-11
1.4353812e-11
1.3590081e-11
1.291436e-11
1.231418e-11
1.1779658e-11
1.130261e-11
1.0876068e-11
1.0494225e-11
1.0152167e-11
9.8431237e-12
9.5655887e-12
9.3133508e-12
9.0814962e-12
8.8676037e-12
8.6721818e-12
8.5023125e-12
8.3674745e-12
8.26125e-12
8.1766072e-12
8.1132621e-12
8.0715425e-12
8.0519382e-12
8.0551335e-12
8.0820449e-12
8.1343336e-12
8.2097713e-12
8.3085894e-12
8.4339907e-12
8.5874812e-12
8.7672647e-12
8.9682204e-12
9.2126144e-12
9.5560495e-12
9.9719145e-12
1.0464824e-11
1.1048234e-11
1.1737686e-11
1.2553156e-11
1.3518142e-11
1.4659141e-11
1.5995664e-11
1.751054e-11
1.9336746e-11
2.1651592e-11
2.4431854e-11
2.7792296e-11
3.1882107e-11
3.6896068e-11
4.3079059e-11
5.0699554e-11
5.9787913e-11
7.1383123e-11
8.6217564e-11
1.0468099e-10
1.2756095e-10
1.5569449e-10
1.8982065e-10
2.3027069e-10
2.7711822e-10
3.2959786e-10
3.8480246e-10
4.3826811e-10
4.8593757e-10
5.2582136e-10
5.5815467e-10
5.8428129e-10
6.0572218e-10
6.2363246e-10
6.3875133e-10
6.5138458e-10
6.6174572e-10
6.7008052e-10
6.7646739e-10
6.8082965e-10
6.8305326e-10
6.8322446e-10
6.8165778e-10
6.7872022e-10
6.7474957e-10
6.7002791e-10
6.647848e-10
6.5920209e-10
6.534134e-10
6.4751749e-10
6.4158727e-10
6.3567727e-10
6.2982278e-10
6.2404788e-10
6.1836439e-10
6.1277865e-10
6.0730098e-10
6.0190255e-10
5.966055e-10
5.9128115e-10
5.859236e-10
5.8082179e-10
5.733706e-10
0.00010762987
9.682907e-05
9.5955193e-05
9.6012806e-05
9.6069271e-05
9.6084624e-05
9.6088815e-05
9.6091274e-05
9.6093853e-05
9.6096944e-05
9.6100749e-05
9.6105478e-05
9.611139e-05
9.6118833e-05
9.6128291e-05
9.6140477e-05
9.6156532e-05
9.6177904e-05
9.6209813e-05
9.6245779e-05
9.6367297e-05
9.6211264e-05
9.801405e-05
3.2818157e-05
6.7234506e-09
1.5646816e-10
7.8510707e-11
5.302595e-11
4.1364166e-11
3.4465287e-11
2.9741455e-11
2.6228234e-11
2.3517529e-11
2.1365173e-11
1.9612781e-11
1.8161955e-11
1.6944153e-11
1.5918281e-11
1.5050103e-11
1.4308257e-11
1.3663126e-11
1.3095057e-11
1.2594163e-11
1.2153182e-11
1.176573e-11
1.1426116e-11
1.1129551e-11
1.0871961e-11
1.0646754e-11
1.045371e-11
1.0285119e-11
1.0135257e-11
1.0002329e-11
9.8882559e-12
9.8029907e-12
9.7594853e-12
9.7508706e-12
9.7694027e-12
9.8156578e-12
9.8909683e-12
9.996867e-12
1.013515e-11
1.0307951e-11
1.0518651e-11
1.076418e-11
1.1045892e-11
1.136993e-11
1.174045e-11
1.2157287e-11
1.261588e-11
1.314768e-11
1.3829177e-11
1.4630138e-11
1.5561543e-11
1.6646917e-11
1.7913757e-11
1.939692e-11
2.1137976e-11
2.3184968e-11
2.5578671e-11
2.8311863e-11
3.1582471e-11
3.5659759e-11
4.0544106e-11
4.6435309e-11
5.3593262e-11
6.2357978e-11
7.3159597e-11
8.6486761e-11
1.0250057e-10
1.2283847e-10
1.4873201e-10
1.8095094e-10
2.208692e-10
2.6994794e-10
3.2947941e-10
4.0004907e-10
4.8180142e-10
5.7343105e-10
6.6990922e-10
7.6347406e-10
8.470044e-10
9.1695768e-10
9.7368591e-10
1.0195253e-09
1.057132e-09
1.0885279e-09
1.1150126e-09
1.1371302e-09
1.1552642e-09
1.1698511e-09
1.1810309e-09
1.1886711e-09
1.1925724e-09
1.1928854e-09
1.19016e-09
1.185038e-09
1.1781097e-09
1.1698684e-09
1.1607155e-09
1.1509686e-09
1.1408614e-09
1.1305665e-09
1.1202115e-09
1.1098914e-09
1.099668e-09
1.0895835e-09
1.0796586e-09
1.0699044e-09
1.0603389e-09
1.0509117e-09
1.0416623e-09
1.0323642e-09
1.0230128e-09
1.0141041e-09
1.0010926e-09
0.00010744516
9.6558479e-05
9.5679937e-05
9.573696e-05
9.5793559e-05
9.5808977e-05
9.5813184e-05
9.5815649e-05
9.5818232e-05
9.5821331e-05
9.5825147e-05
9.582989e-05
9.5835821e-05
9.5843288e-05
9.5852776e-05
9.5865001e-05
9.5881103e-05
9.5902535e-05
9.5934528e-05
9.5970536e-05
9.6092456e-05
9.5935005e-05
9.7743238e-05
3.2714883e-05
9.0638724e-09
1.6843049e-10
8.4097115e-11
5.6860213e-11
4.4875652e-11
3.7916608e-11
3.3113821e-11
2.9500963e-11
2.6696191e-11
2.4460329e-11
2.2634754e-11
2.1123109e-11
1.985763e-11
1.8798436e-11
1.7910906e-11
1.7162308e-11
1.6516803e-11
1.5951957e-11
1.545873e-11
1.5031278e-11
1.4663899e-11
1.4351163e-11
1.4088436e-11
1.3871778e-11
1.3693944e-11
1.3555887e-11
1.3446847e-11
1.3359262e-11
1.3291863e-11
1.3248331e-11
1.3242453e-11
1.3291868e-11
1.3388902e-11
1.3524701e-11
1.3700983e-11
1.392046e-11
1.4186131e-11
1.4501385e-11
1.4870144e-11
1.5298379e-11
1.578159e-11
1.6322842e-11
1.6932899e-11
1.7620181e-11
1.8387381e-11
1.923139e-11
2.0197618e-11
2.1393141e-11
2.2783503e-11
2.4390071e-11
2.6252332e-11
2.8416787e-11
3.0941942e-11
3.38982e-11
3.7368235e-11
4.1428081e-11
4.6091581e-11
5.1654375e-11
5.8522634e-11
6.6742527e-11
7.6649279e-11
8.8679156e-11
1.0340376e-10
1.2154965e-10
1.4396266e-10
1.710496e-10
2.0534817e-10
2.4886893e-10
3.0301615e-10
3.700993e-10
4.525756e-10
5.5262133e-10
6.7123035e-10
8.0866651e-10
9.6277643e-10
1.1251664e-09
1.2828239e-09
1.4237216e-09
1.5418057e-09
1.637589e-09
1.7149855e-09
1.7784634e-09
1.8314308e-09
1.8760862e-09
1.9133593e-09
1.9439096e-09
1.968481e-09
1.9873136e-09
2.0001863e-09
2.0067642e-09
2.0073005e-09
2.0027214e-09
1.9941071e-09
1.9824518e-09
1.9685858e-09
1.953185e-09
1.9367841e-09
1.9197762e-09
1.9024523e-09
1.8850268e-09
1.8676601e-09
1.8504559e-09
1.8334853e-09
1.8167833e-09
1.8003685e-09
1.7842713e-09
1.7684066e-09
1.752842e-09
1.7371944e-09
1.7214602e-09
1.7064686e-09
1.6845726e-09
0.00010722656
9.6237436e-05
9.5353308e-05
9.5409632e-05
9.5466387e-05
9.5481881e-05
9.5486107e-05
9.5488578e-05
9.5491167e-05
9.5494275e-05
9.5498104e-05
9.5502864e-05
9.5508816e-05
9.5516312e-05
9.5525836e-05
9.5538105e-05
9.5554265e-05
9.5575767e-05
9.5607858e-05
9.5643916e-05
9.5766308e-05
9.5607183e-05
9.7421969e-05
3.2601654e-05
1.2326685e-08
2.117927e-10
1.0532309e-10
7.1275892e-11
5.679389e-11
4.8527499e-11
4.2781747e-11
3.8415314e-11
3.5007338e-11
3.2281396e-11
3.0050152e-11
2.8202212e-11
2.6659065e-11
2.5374011e-11
2.4305573e-11
2.3414638e-11
2.2652381e-11
2.1989317e-11
2.1415719e-11
2.0926258e-11
2.0514971e-11
2.0175742e-11
1.9903278e-11
1.9693116e-11
1.9536462e-11
1.9435561e-11
1.9374508e-11
1.934257e-11
1.9339057e-11
1.937009e-11
1.9454816e-11
1.9617408e-11
1.9849004e-11
2.01392e-11
2.0491368e-11
2.0910243e-11
2.1400991e-11
2.1969391e-11
2.262206e-11
2.3368932e-11
2.4203244e-11
2.5130745e-11
2.616942e-11
2.7334516e-11
2.8633669e-11
3.0066919e-11
3.170042e-11
3.3685114e-11
3.5982506e-11
3.8630654e-11
4.1693966e-11
4.5248692e-11
4.9390318e-11
5.4234472e-11
5.9918526e-11
6.6575715e-11
7.4260167e-11
8.3411751e-11
9.4637789e-11
1.0806796e-10
1.2424947e-10
1.4389472e-10
1.6793817e-10
1.9757214e-10
2.3421029e-10
2.7869288e-10
3.3489602e-10
4.0602922e-10
4.945286e-10
6.0417007e-10
7.3897253e-10
9.0249962e-10
1.0963892e-09
1.3211001e-09
1.5731671e-09
1.8389472e-09
2.0972118e-09
2.3282216e-09
2.5219444e-09
2.679113e-09
2.8061077e-09
2.9102386e-09
2.9970901e-09
3.0702758e-09
3.1313363e-09
3.1813696e-09
3.2216057e-09
3.2524438e-09
3.2735243e-09
3.2843e-09
3.2851854e-09
3.2776967e-09
3.2636024e-09
3.2445296e-09
3.221838e-09
3.1966336e-09
3.169792e-09
3.1419567e-09
3.1136037e-09
3.0850845e-09
3.0566612e-09
3.0285038e-09
3.0007287e-09
2.973393e-09
2.9465274e-09
2.9201817e-09
2.8942165e-09
2.8687427e-09
2.8431326e-09
2.8173829e-09
2.7928467e-09
2.7570105e-09
0.00010697027
9.5859946e-05
9.4969177e-05
9.5024679e-05
9.5081613e-05
9.5097196e-05
9.5101444e-05
9.5103922e-05
9.5106519e-05
9.5109637e-05
9.5113481e-05
9.5118261e-05
9.5124239e-05
9.5131767e-05
9.5141333e-05
9.5153655e-05
9.516988e-05
9.5191464e-05
9.522367e-05
9.5259784e-05
9.5382726e-05
9.5221651e-05
9.7044257e-05
3.2480908e-05
1.6786049e-08
2.9452473e-10
1.4609557e-10
9.8926475e-11
7.9310234e-11
6.8246702e-11
6.0519423e-11
5.4606369e-11
4.9974901e-11
4.626212e-11
4.3218137e-11
4.0696611e-11
3.8594808e-11
3.6849776e-11
3.5405368e-11
3.4210043e-11
3.3192903e-11
3.2311855e-11
3.1554822e-11
3.091618e-11
3.03887e-11
2.9964505e-11
2.9636713e-11
2.9399592e-11
2.9241718e-11
2.9166948e-11
2.9151248e-11
2.9178867e-11
2.9249909e-11
2.9374032e-11
2.9577913e-11
2.9894821e-11
3.0314372e-11
3.0824191e-11
3.1430131e-11
3.2139966e-11
3.2962132e-11
3.3906024e-11
3.498236e-11
3.620714e-11
3.7570133e-11
3.9081305e-11
4.076983e-11
4.2661788e-11
4.4773168e-11
4.7110133e-11
4.9769242e-11
5.2963509e-11
5.6652062e-11
6.0899424e-11
6.5808466e-11
7.1501461e-11
7.8131022e-11
8.5882859e-11
9.4979585e-11
1.056456e-10
1.1800716e-10
1.327149e-10
1.5066959e-10
1.7214618e-10
1.9801956e-10
2.2942913e-10
2.6787081e-10
3.1525918e-10
3.738972e-10
4.4535841e-10
5.3549532e-10
6.4934499e-10
7.9098916e-10
9.6647321e-10
1.1822338e-09
1.4439838e-09
1.7543631e-09
2.1141425e-09
2.5178482e-09
2.9437455e-09
3.3579075e-09
3.7286301e-09
4.0396712e-09
4.2920626e-09
4.4959936e-09
4.6631738e-09
4.8025616e-09
4.9199681e-09
5.0178871e-09
5.0981034e-09
5.1626044e-09
5.2120381e-09
5.2458316e-09
5.2631092e-09
5.2645353e-09
5.25254e-09
5.2299576e-09
5.199396e-09
5.1630342e-09
5.1226452e-09
5.0796319e-09
5.0350257e-09
4.9895899e-09
4.9438874e-09
4.8983385e-09
4.8532156e-09
4.8087051e-09
4.7648989e-09
4.721846e-09
4.6796262e-09
4.6380161e-09
4.5971938e-09
4.5561527e-09
4.5148893e-09
4.4755695e-09
4.4181409e-09
0.00010667218
9.541942e-05
9.4520802e-05
9.4575345e-05
9.4632482e-05
9.464817e-05
9.4652443e-05
9.465493e-05
9.4657535e-05
9.4660665e-05
9.4664525e-05
9.4669328e-05
9.4675336e-05
9.4682902e-05
9.4692516e-05
9.47049e-05
9.47212e-05
9.4742878e-05
9.4775215e-05
9.4811395e-05
9.493497e-05
9.4771646e-05
9.6603527e-05
3.2356053e-05
2.2832954e-08
4.3146892e-10
2.1373856e-10
1.4477886e-10
1.1646461e-10
1.0060789e-10
8.9502612e-11
8.0971191e-11
7.4275801e-11
6.8902054e-11
6.4492281e-11
6.0838889e-11
5.7797139e-11
5.5275211e-11
5.3191704e-11
5.1474618e-11
5.0018063e-11
4.8759535e-11
4.7682508e-11
4.6780181e-11
4.6042815e-11
4.5459378e-11
4.502018e-11
4.4717255e-11
4.4535146e-11
4.4479873e-11
4.4514918e-11
4.4616853e-11
4.4787021e-11
4.5040285e-11
4.541386e-11
4.5953629e-11
4.6647442e-11
4.7480627e-11
4.8462817e-11
4.9606371e-11
5.0924676e-11
5.2432615e-11
5.414714e-11
5.6093495e-11
5.8256219e-11
6.0651868e-11
6.3326829e-11
6.632418e-11
6.967371e-11
7.3392693e-11
7.7621883e-11
8.2661529e-11
8.8472546e-11
9.5160934e-11
1.0288842e-10
1.1184784e-10
1.2227928e-10
1.3447604e-10
1.4879222e-10
1.6559555e-10
1.8513575e-10
2.0836987e-10
2.366253e-10
2.7042097e-10
3.1113377e-10
3.6055732e-10
4.2104827e-10
4.9563066e-10
5.8798456e-10
7.0088854e-10
8.4310222e-10
1.0224292e-09
1.2455375e-09
1.5219525e-09
1.8618188e-09
2.2741484e-09
2.7631237e-09
3.3300078e-09
3.966275e-09
4.6378247e-09
5.2912812e-09
5.8765571e-09
6.3678191e-09
6.7665046e-09
7.0886329e-09
7.3526622e-09
7.5727309e-09
7.7580296e-09
7.9125238e-09
8.0390615e-09
8.1407983e-09
8.2187668e-09
8.2720685e-09
8.2993237e-09
8.3015807e-09
8.2826715e-09
8.2470662e-09
8.1988772e-09
8.1415411e-09
8.0778537e-09
8.0100274e-09
7.9396891e-09
7.8680421e-09
7.7959744e-09
7.7241486e-09
7.6529944e-09
7.582806e-09
7.5137281e-09
7.4458379e-09
7.3792615e-09
7.3136465e-09
7.249274e-09
7.1845562e-09
7.1194889e-09
7.0574855e-09
6.9669264e-09
0.00010632792
9.4908679e-05
9.4000828e-05
9.405426e-05
9.4111625e-05
9.4127432e-05
9.4131735e-05
9.4134231e-05
9.4136846e-05
9.4139989e-05
9.4143869e-05
9.4148698e-05
9.415474e-05
9.416235e-05
9.417202e-05
9.4184473e-05
9.4200861e-05
9.4222647e-05
9.4255133e-05
9.4291385e-05
9.4415684e-05
9.4249779e-05
9.6092634e-05
3.2231617e-05
3.1011601e-08
6.4645361e-10
3.2003333e-10
2.1681943e-10
1.7472445e-10
1.5124048e-10
1.3477094e-10
1.2209289e-10
1.1213366e-10
1.0413572e-10
9.7569479e-11
9.2128994e-11
8.7602528e-11
8.3851375e-11
8.0753742e-11
7.8205932e-11
7.6048201e-11
7.4186316e-11
7.2596411e-11
7.12694e-11
7.0191344e-11
6.9346108e-11
6.871948e-11
6.8299924e-11
6.806605e-11
6.8026895e-11
6.8127019e-11
6.8331458e-11
6.8643557e-11
6.9085877e-11
6.9710345e-11
7.0580249e-11
7.1681649e-11
7.2997442e-11
7.4543024e-11
7.6337678e-11
7.8402281e-11
8.0760023e-11
8.3437308e-11
8.64734e-11
8.9845021e-11
9.3578951e-11
9.7747873e-11
1.0242129e-10
1.0765136e-10
1.1347457e-10
1.2009566e-10
1.2793709e-10
1.3696988e-10
1.4736439e-10
1.5937182e-10
1.7329245e-10
1.8949943e-10
2.0845006e-10
2.3069974e-10
2.5683901e-10
2.8732247e-10
3.2355161e-10
3.6747302e-10
4.2000503e-10
4.8328832e-10
5.601121e-10
6.5414339e-10
7.7009818e-10
9.1377104e-10
1.0898797e-09
1.3114503e-09
1.5904538e-09
1.9375774e-09
2.3676458e-09
2.8964515e-09
3.5380337e-09
4.2989335e-09
5.18118e-09
6.1716376e-09
7.2174294e-09
8.2355936e-09
9.1480006e-09
9.9141228e-09
1.0535946e-08
1.1038353e-08
1.1450083e-08
1.1793171e-08
1.2081965e-08
1.2322685e-08
1.2519812e-08
1.2678288e-08
1.2799737e-08
1.2882764e-08
1.2925225e-08
1.292875e-08
1.2899309e-08
1.2843864e-08
1.276882e-08
1.2679529e-08
1.2580345e-08
1.2474715e-08
1.2365172e-08
1.2253591e-08
1.2141354e-08
1.2029494e-08
1.1918679e-08
1.1809368e-08
1.1701787e-08
1.1596055e-08
1.149237e-08
1.1390181e-08
1.1289928e-08
1.1189137e-08
1.1087803e-08
1.0991239e-08
1.0850203e-08
0.00010593284
9.4319965e-05
9.340129e-05
9.3453443e-05
9.3511062e-05
9.3527006e-05
9.3531343e-05
9.353385e-05
9.3536475e-05
9.3539634e-05
9.3543536e-05
9.3548395e-05
9.3554476e-05
9.3562136e-05
9.3571869e-05
9.3584402e-05
9.3600888e-05
9.3622797e-05
9.3655452e-05
9.3691785e-05
9.3816905e-05
9.3648048e-05
9.5503856e-05
3.2113397e-05
4.2072662e-08
9.7599914e-10
4.8305006e-10
3.2729606e-10
2.6399231e-10
2.2874854e-10
2.0401603e-10
1.8495836e-10
1.6998101e-10
1.5795017e-10
1.4807079e-10
1.3988465e-10
1.330768e-10
1.2743519e-10
1.2277541e-10
1.1894595e-10
1.1570538e-10
1.1291105e-10
1.1052761e-10
1.0854218e-10
1.069342e-10
1.0567963e-10
1.0475723e-10
1.0415e-10
1.0382796e-10
1.0380444e-10
1.0399554e-10
1.0434911e-10
1.0487173e-10
1.0559736e-10
1.0659845e-10
1.0796224e-10
1.0967338e-10
1.1171256e-10
1.1410393e-10
1.1687724e-10
1.2006465e-10
1.2370188e-10
1.2782964e-10
1.3250835e-10
1.377031e-10
1.4345644e-10
1.49881e-10
1.5708705e-10
1.651624e-10
1.7417568e-10
1.8442413e-10
1.9650131e-10
2.1040335e-10
2.2639971e-10
2.4487691e-10
2.6629802e-10
2.9123751e-10
3.2040134e-10
3.546512e-10
3.9492117e-10
4.4199812e-10
4.9792756e-10
5.6555465e-10
6.4643896e-10
7.4387731e-10
8.6216604e-10
1.0069567e-09
1.1855314e-09
1.4069101e-09
1.6788828e-09
2.0207304e-09
2.4506772e-09
2.9856039e-09
3.6483623e-09
4.4633014e-09
5.4520811e-09
6.6248273e-09
7.9847516e-09
9.5117841e-09
1.1124679e-08
1.2695696e-08
1.4104166e-08
1.5287186e-08
1.6247482e-08
1.7023349e-08
1.7659098e-08
1.8188738e-08
1.8634446e-08
1.9005876e-08
1.9309997e-08
1.955447e-08
1.9741817e-08
1.9869899e-08
1.9935407e-08
1.994086e-08
1.9895463e-08
1.9809955e-08
1.9694216e-08
1.9556501e-08
1.9403527e-08
1.9240609e-08
1.9071655e-08
1.8899557e-08
1.8726447e-08
1.8553917e-08
1.8383e-08
1.8214403e-08
1.8048473e-08
1.7885395e-08
1.7725474e-08
1.7567861e-08
1.7413234e-08
1.7257776e-08
1.7101482e-08
1.6952545e-08
1.6735014e-08
0.00010548213
9.3644962e-05
9.2713636e-05
9.2764327e-05
9.2822225e-05
9.2838324e-05
9.28427e-05
9.2845219e-05
9.2847855e-05
9.2851031e-05
9.2854958e-05
9.2859851e-05
9.2865976e-05
9.2873694e-05
9.2883498e-05
9.289612e-05
9.2912718e-05
9.2934765e-05
9.2967609e-05
9.300403e-05
9.3130075e-05
9.2957857e-05
9.482892e-05
3.2008574e-05
5.7047684e-08
1.4751069e-09
7.3001193e-10
4.9465964e-10
3.991764e-10
3.4607619e-10
3.0880274e-10
2.8006811e-10
2.5748158e-10
2.3933683e-10
2.2443543e-10
2.1208739e-10
2.0182135e-10
1.9331261e-10
1.8628123e-10
1.8050438e-10
1.7561774e-10
1.7140552e-10
1.6781481e-10
1.6482677e-10
1.6241071e-10
1.6053051e-10
1.591543e-10
1.5825675e-10
1.5779564e-10
1.5779041e-10
1.581146e-10
1.5869048e-10
1.595299e-10
1.606837e-10
1.6225287e-10
1.6435772e-10