/*--------------------------------*- C++ -*----------------------------------*\
| =========                 |                                                 |
| \\      /  F ield         | OpenFOAM: The Open Source CFD Toolbox           |
|  \\    /   O peration     | Version:  2206                                  |
|   \\  /    A nd           | Website:  www.openfoam.com                      |
|    \\/     M anipulation  |                                                 |
\*---------------------------------------------------------------------------*/
FoamFile
{
    version     2.0;
    format      ascii;
    arch        "LSB;label=32;scalar=64";
    class       volScalarField;
    location    "800";
    object      nut;
}
// * * * * * * * * * * * * * * * * * * * * * * * * * * * * * * * * * * * * * //

dimensions      [0 2 -1 0 0 0 0];

internalField   nonuniform List<scalar> 
13056
(
1.9549894e-07
1.9465071e-07
1.9468473e-07
1.9480388e-07
1.9486975e-07
1.9489964e-07
1.9491485e-07
1.9492442e-07
1.9493159e-07
1.9493771e-07
1.9494345e-07
1.949493e-07
1.9495568e-07
1.9496304e-07
1.9497197e-07
1.9498315e-07
1.9499805e-07
1.9501671e-07
1.9505078e-07
1.9506159e-07
1.9529183e-07
1.9466067e-07
1.9565108e-07
1.7055959e-09
2.6650591e-16
4.1122109e-17
2.0818911e-17
1.403456e-17
1.0720229e-17
8.7034699e-18
7.3401434e-18
6.3447385e-18
5.5846591e-18
4.9852147e-18
4.4994104e-18
4.0970587e-18
3.7580951e-18
3.4685249e-18
3.2181819e-18
2.9994961e-18
2.8068106e-18
2.6355655e-18
2.4824352e-18
2.3446182e-18
2.2199024e-18
2.1064771e-18
2.00285e-18
1.9077826e-18
1.8202375e-18
1.7393422e-18
1.6643528e-18
1.5946309e-18
1.5296285e-18
1.4688714e-18
1.4119481e-18
1.358501e-18
1.3082144e-18
1.2608095e-18
1.2160406e-18
1.1736897e-18
1.1335626e-18
1.0954873e-18
1.059311e-18
1.0248962e-18
9.9211767e-19
9.6086299e-19
9.3103204e-19
9.0253525e-19
8.7529156e-19
8.4922858e-19
8.2428338e-19
8.0040063e-19
7.7753153e-19
7.5563403e-19
7.3467187e-19
7.1461487e-19
6.9543903e-19
6.7712979e-19
6.5968783e-19
6.4312113e-19
6.2744469e-19
6.1268377e-19
5.9887023e-19
5.8604736e-19
5.7428626e-19
5.6368014e-19
5.5435043e-19
5.4652961e-19
5.4028597e-19
5.3646332e-19
5.3468143e-19
5.3582594e-19
5.4023196e-19
5.4847477e-19
5.6115711e-19
5.7886867e-19
6.0179047e-19
6.299457e-19
6.6353731e-19
7.0159127e-19
7.4109588e-19
7.7869972e-19
8.1075729e-19
8.3657454e-19
8.5614658e-19
8.7059984e-19
8.8112731e-19
8.8864206e-19
8.938202e-19
8.9705228e-19
8.9862439e-19
8.9875743e-19
8.9745017e-19
8.9473314e-19
8.9080098e-19
8.8581859e-19
8.7999223e-19
8.735612e-19
8.6667075e-19
8.5946019e-19
8.5209891e-19
8.4468906e-19
8.3726937e-19
8.298896e-19
8.226235e-19
8.1549635e-19
8.0850109e-19
8.0162387e-19
7.948705e-19
7.8823545e-19
7.8174155e-19
7.7509062e-19
7.6877076e-19
7.6096051e-19
7.5464708e-19
7.4551275e-19
1.9549797e-07
1.9464928e-07
1.9468331e-07
1.9480251e-07
1.9486841e-07
1.9489831e-07
1.9491354e-07
1.9492311e-07
1.9493029e-07
1.9493641e-07
1.9494215e-07
1.94948e-07
1.9495438e-07
1.9496175e-07
1.9497068e-07
1.9498186e-07
1.9499677e-07
1.9501543e-07
1.9504951e-07
1.9506032e-07
1.9529063e-07
1.9465928e-07
1.9565078e-07
1.7313568e-09
2.5039394e-16
3.8431601e-17
1.9456759e-17
1.3116291e-17
1.0018814e-17
8.1340113e-18
6.8598867e-18
5.9296105e-18
5.2192628e-18
4.6590398e-18
4.2050214e-18
3.8289956e-18
3.5122104e-18
3.241587e-18
3.0076243e-18
2.8032476e-18
2.62317e-18
2.4631299e-18
2.3200195e-18
2.1912203e-18
2.0746651e-18
1.9686617e-18
1.8718155e-18
1.7829689e-18
1.7011523e-18
1.6255505e-18
1.555468e-18
1.4903083e-18
1.4295592e-18
1.3727775e-18
1.3195789e-18
1.2696296e-18
1.2226343e-18
1.1783322e-18
1.1364937e-18
1.0969151e-18
1.059415e-18
1.0238324e-18
9.9002468e-19
9.5786342e-19
9.2723135e-19
8.9802351e-19
8.7014627e-19
8.4351583e-19
8.1805617e-19
7.9369925e-19
7.7038721e-19
7.4807075e-19
7.2670244e-19
7.0624273e-19
6.8665785e-19
6.679196e-19
6.5000571e-19
6.3290261e-19
6.1661072e-19
6.0113632e-19
5.8648913e-19
5.7270146e-19
5.5981138e-19
5.4785071e-19
5.3688668e-19
5.2700737e-19
5.1832717e-19
5.1106339e-19
5.0527288e-19
5.0170476e-19
5.0009265e-19
5.0127612e-19
5.0553334e-19
5.1340667e-19
5.2546341e-19
5.4225585e-19
5.6394767e-19
5.9054566e-19
6.2220612e-19
6.5796291e-19
6.9495774e-19
7.30079e-19
7.5997553e-19
7.8404948e-19
8.0231055e-19
8.1581632e-19
8.256803e-19
8.3274902e-19
8.3764398e-19
8.4072065e-19
8.4224109e-19
8.424086e-19
8.4122021e-19
8.3870311e-19
8.3503918e-19
8.3038429e-19
8.2493324e-19
8.189114e-19
8.1245614e-19
8.056989e-19
7.9879882e-19
7.9185204e-19
7.8489535e-19
7.7797564e-19
7.7116202e-19
7.6447829e-19
7.5791805e-19
7.5146848e-19
7.4513502e-19
7.3891259e-19
7.3282228e-19
7.2658631e-19
7.2065873e-19
7.1334181e-19
7.0742178e-19
6.9885614e-19
1.9549488e-07
1.9464473e-07
1.9467881e-07
1.9479817e-07
1.9486417e-07
1.9489411e-07
1.9490936e-07
1.9491894e-07
1.9492613e-07
1.9493226e-07
1.9493801e-07
1.9494386e-07
1.9495025e-07
1.9495763e-07
1.9496657e-07
1.9497775e-07
1.9499268e-07
1.9501135e-07
1.9504546e-07
1.9505626e-07
1.9528676e-07
1.946549e-07
1.9564791e-07
1.76161e-09
2.4250087e-16
3.6640607e-17
1.8549925e-17
1.2504972e-17
9.5519466e-18
7.7550629e-18
6.5403633e-18
5.6534675e-18
4.9762414e-18
4.4421385e-18
4.0092878e-18
3.650794e-18
3.348779e-18
3.0907766e-18
2.8677292e-18
2.6728899e-18
2.5012167e-18
2.3486465e-18
2.2122165e-18
2.0894307e-18
1.9783185e-18
1.8772667e-18
1.7849457e-18
1.7002519e-18
1.6222588e-18
1.5501904e-18
1.4833827e-18
1.4212658e-18
1.3633511e-18
1.3092173e-18
1.2585036e-18
1.2108989e-18
1.1661173e-18
1.1239051e-18
1.0840436e-18
1.0463387e-18
1.0106178e-18
9.7672752e-19
9.4453235e-19
9.1391012e-19
8.8474794e-19
8.5694462e-19
8.3041125e-19
8.050658e-19
7.8083023e-19
7.5763111e-19
7.3543431e-19
7.1424441e-19
6.9397733e-19
6.7459048e-19
6.5605415e-19
6.3834226e-19
6.214375e-19
6.0532816e-19
5.900113e-19
5.7546919e-19
5.6162244e-19
5.486834e-19
5.368639e-19
5.2601695e-19
5.162266e-19
5.0760099e-19
5.0027461e-19
4.944625e-19
4.900984e-19
4.8709407e-19
4.870123e-19
4.9091038e-19
4.9838253e-19
5.1007193e-19
5.2663684e-19
5.4866552e-19
5.7623158e-19
6.0906449e-19
6.4663916e-19
6.86836e-19
7.2590785e-19
7.6111018e-19
7.9024208e-19
8.1366764e-19
8.3172291e-19
8.4556327e-19
8.5627286e-19
8.6456588e-19
8.7085598e-19
8.7531643e-19
8.7810963e-19
8.7937506e-19
8.7907186e-19
8.771955e-19
8.7392244e-19
8.6944815e-19
8.6401312e-19
8.5788037e-19
8.5122374e-19
8.4420243e-19
8.3699214e-19
8.2970323e-19
8.2238637e-19
8.1509678e-19
8.0790641e-19
8.0084299e-19
7.9390501e-19
7.87083e-19
7.8038301e-19
7.7380228e-19
7.6735469e-19
7.6079381e-19
7.5450606e-19
7.4696004e-19
7.4071858e-19
7.3167555e-19
1.9548955e-07
1.9463692e-07
1.9467108e-07
1.9479072e-07
1.9485687e-07
1.9488689e-07
1.9490218e-07
1.9491178e-07
1.9491899e-07
1.9492513e-07
1.9493089e-07
1.9493676e-07
1.9494316e-07
1.9495054e-07
1.949595e-07
1.949707e-07
1.9498565e-07
1.9500434e-07
1.9503849e-07
1.9504927e-07
1.9528011e-07
1.9464741e-07
1.9564244e-07
1.7941257e-09
2.4983014e-16
3.5376223e-17
1.7909213e-17
1.2073116e-17
9.2227328e-18
7.4884472e-18
6.3160071e-18
5.4599112e-18
4.8061784e-18
4.2905911e-18
3.8727405e-18
3.5266735e-18
3.2351291e-18
2.9860936e-18
2.7708268e-18
2.5828014e-18
2.4171394e-18
2.2699154e-18
2.1382714e-18
2.0198005e-18
1.9126019e-18
1.8151191e-18
1.726069e-18
1.644386e-18
1.5691609e-18
1.4996531e-18
1.4352141e-18
1.3752869e-18
1.3193964e-18
1.2671447e-18
1.2182243e-18
1.1723848e-18
1.1293186e-18
1.0887472e-18
1.0504586e-18
1.0142673e-18
9.8000844e-19
9.475361e-19
9.1672136e-19
8.8744927e-19
8.596027e-19
8.3307632e-19
8.0778684e-19
7.8364024e-19
7.6052205e-19
7.38301e-19
7.1709265e-19
6.9726683e-19
6.7846856e-19
6.6062254e-19
6.4371844e-19
6.2773785e-19
6.1269257e-19
5.985814e-19
5.8537928e-19
5.7290258e-19
5.6044759e-19
5.4950108e-19
5.4151627e-19
5.3510369e-19
5.3049095e-19
5.2796013e-19
5.2782786e-19
5.3035649e-19
5.3458012e-19
5.3445668e-19
5.44761e-19
5.6845677e-19
6.0034937e-19
6.4208676e-19
6.9538792e-19
7.6174124e-19
8.4157002e-19
9.3451315e-19
1.0386432e-18
1.1475124e-18
1.2513507e-18
1.3427789e-18
1.4181252e-18
1.4788179e-18
1.5271063e-18
1.5660506e-18
1.5980955e-18
1.6247445e-18
1.6466325e-18
1.6640563e-18
1.6773931e-18
1.6868271e-18
1.6922015e-18
1.6933571e-18
1.6905657e-18
1.6844148e-18
1.6756016e-18
1.6648063e-18
1.6525548e-18
1.6392912e-18
1.6254133e-18
1.6111959e-18
1.5968138e-18
1.5824122e-18
1.5681283e-18
1.5540331e-18
1.5401567e-18
1.5265056e-18
1.5130937e-18
1.4999316e-18
1.4869949e-18
1.4740855e-18
1.461392e-18
1.4474976e-18
1.4351354e-18
1.4171473e-18
1.9548185e-07
1.9462562e-07
1.9465989e-07
1.9477994e-07
1.9484631e-07
1.9487644e-07
1.9489178e-07
1.9490141e-07
1.9490864e-07
1.9491481e-07
1.9492059e-07
1.9492647e-07
1.9493289e-07
1.9494029e-07
1.9494927e-07
1.9496049e-07
1.9497547e-07
1.9499419e-07
1.9502841e-07
1.9503916e-07
1.9527046e-07
1.9463657e-07
1.9563429e-07
1.8287247e-09
2.8948028e-16
3.4558639e-17
1.7492842e-17
1.1792752e-17
9.0114629e-18
7.3198343e-18
6.1759849e-18
5.3405235e-18
4.7024371e-18
4.1991336e-18
3.7912143e-18
3.453387e-18
3.1687906e-18
2.9257853e-18
2.7158534e-18
2.5325628e-18
2.3711042e-18
2.2276331e-18
2.0993685e-18
1.9839717e-18
1.8795935e-18
1.7847179e-18
1.6980944e-18
1.6186822e-18
1.5455296e-18
1.4779505e-18
1.4152799e-18
1.3569441e-18
1.3024653e-18
1.251492e-18
1.2038971e-18
1.1596493e-18
1.1183155e-18
1.0794788e-18
1.0429304e-18
1.0084971e-18
9.7602574e-19
9.4538219e-19
9.1644961e-19
8.8912859e-19
8.6327003e-19
8.387384e-19
8.1546326e-19
7.9328938e-19
7.7193679e-19
7.5101722e-19
7.3127794e-19
7.1464867e-19
6.9961329e-19
6.8595223e-19
6.7373476e-19
6.6297125e-19
6.5379461e-19
6.4625157e-19
6.4020754e-19
6.3469912e-19
6.2615709e-19
6.2176561e-19
6.2860286e-19
6.3972834e-19
6.5604034e-19
6.7869444e-19
7.0912797e-19
7.4892378e-19
7.9810214e-19
8.4747731e-19
9.2265209e-19
1.0323496e-18
1.1710533e-18
1.3449128e-18
1.5604048e-18
1.8231349e-18
2.1351834e-18
2.4960662e-18
2.8983361e-18
3.3172726e-18
3.7166677e-18
4.0674886e-18
4.3575244e-18
4.59167e-18
4.7803054e-18
4.9350815e-18
5.0647606e-18
5.1746672e-18
5.2667453e-18
5.3421035e-18
5.4022464e-18
5.4476655e-18
5.477719e-18
5.4915833e-18
5.4899989e-18
5.475316e-18
5.4502892e-18
5.4174893e-18
5.3790249e-18
5.3366267e-18
5.2917076e-18
5.24529e-18
5.1981034e-18
5.1507014e-18
5.1035242e-18
5.0568404e-18
5.0108162e-18
4.9655258e-18
4.9210183e-18
4.8773633e-18
4.8343718e-18
4.7919895e-18
4.7496484e-18
4.7060121e-18
4.6652575e-18
4.6057971e-18
1.9547155e-07
1.946105e-07
1.9464492e-07
1.9476551e-07
1.9483219e-07
1.9486246e-07
1.9487787e-07
1.9488755e-07
1.9489481e-07
1.94901e-07
1.9490681e-07
1.9491271e-07
1.9491915e-07
1.9492658e-07
1.9493558e-07
1.9494684e-07
1.9496185e-07
1.9498062e-07
1.9501492e-07
1.9502563e-07
1.9525756e-07
1.9462208e-07
1.956234e-07
1.8657261e-09
3.9346756e-16
3.4387407e-17
1.7398216e-17
1.1730055e-17
8.9730775e-18
7.2982606e-18
6.1649714e-18
5.3364307e-18
4.7032665e-18
4.203661e-18
3.7986586e-18
3.4632924e-18
3.1807895e-18
2.9398802e-18
2.7321555e-18
2.5510358e-18
2.3915933e-18
2.2499708e-18
2.1234355e-18
2.0097023e-18
1.906956e-18
1.8137025e-18
1.7287076e-18
1.6509353e-18
1.5792334e-18
1.5130399e-18
1.4515898e-18
1.3942155e-18
1.3403962e-18
1.2899026e-18
1.2431706e-18
1.2008634e-18
1.1621226e-18
1.1260622e-18
1.0924689e-18
1.0611956e-18
1.0321159e-18
1.0051236e-18
9.8013166e-19
9.5708265e-19
9.3571169e-19
9.1576924e-19
8.9721384e-19
8.7966283e-19
8.6224393e-19
8.4365652e-19
8.2679916e-19
8.1897243e-19
8.1468095e-19
8.1319281e-19
8.148479e-19
8.1995861e-19
8.2905049e-19
8.4261056e-19
8.6094527e-19
8.8317239e-19
9.0431456e-19
9.3535026e-19
9.8876938e-19
1.0554447e-18
1.1384924e-18
1.2419407e-18
1.3709338e-18
1.5315235e-18
1.727604e-18
1.9432984e-18
2.2347334e-18
2.6279685e-18
3.1192197e-18
3.7295749e-18
4.4813301e-18
5.3938796e-18
6.4750723e-18
7.7246403e-18
9.118174e-18
1.0572274e-17
1.1964062e-17
1.3190848e-17
1.4208722e-17
1.5031612e-17
1.5696327e-17
1.6243151e-17
1.6702156e-17
1.7091828e-17
1.7418977e-17
1.7687883e-17
1.7904113e-17
1.8069347e-17
1.8181389e-17
1.8237231e-17
1.8239202e-17
1.8195539e-17
1.8115869e-17
1.8009083e-17
1.7882574e-17
1.7742368e-17
1.759328e-17
1.743883e-17
1.7281599e-17
1.7123505e-17
1.6966006e-17
1.681003e-17
1.6656197e-17
1.6504803e-17
1.6356017e-17
1.6210102e-17
1.6066325e-17
1.5925076e-17
1.5783325e-17
1.5639789e-17
1.5503803e-17
1.530525e-17
1.9545841e-07
1.9459116e-07
1.9462577e-07
1.9474706e-07
1.9481413e-07
1.9484457e-07
1.9486008e-07
1.9486982e-07
1.9487712e-07
1.9488335e-07
1.9488918e-07
1.9489511e-07
1.9490158e-07
1.9490904e-07
1.9491808e-07
1.9492938e-07
1.9494444e-07
1.9496326e-07
1.9499767e-07
1.9500833e-07
1.9524106e-07
1.9460354e-07
1.9560971e-07
1.9056655e-09
6.3161799e-16
3.5516549e-17
1.7948095e-17
1.2103801e-17
9.2848652e-18
7.5779085e-18
6.4206541e-18
5.5724212e-18
4.9232086e-18
4.4104295e-18
3.994524e-18
3.6502486e-18
3.3602853e-18
3.1138592e-18
2.9024651e-18
2.7188131e-18
2.5574238e-18
2.4142269e-18
2.2864931e-18
2.1719754e-18
2.0688661e-18
1.9756605e-18
1.8911101e-18
1.8141437e-18
1.7429789e-18
1.6773736e-18
1.6162435e-18
1.5586203e-18
1.5038279e-18
1.4519679e-18
1.4051024e-18
1.3659213e-18
1.3323248e-18
1.3020363e-18
1.2748159e-18
1.2505824e-18
1.2292793e-18
1.210876e-18
1.1953694e-18
1.1828237e-18
1.1728732e-18
1.1652933e-18
1.1602254e-18
1.1573461e-18
1.1555973e-18
1.1532161e-18
1.1544715e-18
1.170497e-18
1.1939058e-18
1.2241278e-18
1.2622458e-18
1.3094124e-18
1.3672391e-18
1.4374538e-18
1.5216679e-18
1.6195454e-18
1.7233427e-18
1.8532201e-18
2.0346317e-18
2.2542385e-18
2.5213224e-18
2.8479086e-18
3.2495056e-18
3.7448602e-18
4.3499985e-18
5.0378964e-18
5.938707e-18
7.1235058e-18
8.5992708e-18
1.0428901e-17
1.2679029e-17
1.5407879e-17
1.8639984e-17
2.2376897e-17
2.6549241e-17
3.0913002e-17
3.5104751e-17
3.8812225e-17
4.1896625e-17
4.4392489e-17
4.6409668e-17
4.8068821e-17
4.946028e-17
5.0640243e-17
5.1630089e-17
5.2443867e-17
5.3099127e-17
5.3601178e-17
5.3943575e-17
5.4117214e-17
5.4128916e-17
5.4003478e-17
5.3769853e-17
5.3454711e-17
5.3080303e-17
5.2664743e-17
5.2222409e-17
5.1763854e-17
5.1296862e-17
5.0827191e-17
5.0359161e-17
4.9895558e-17
4.9438273e-17
4.8988231e-17
4.8545931e-17
4.8112183e-17
4.768473e-17
4.7265181e-17
4.6843631e-17
4.6418812e-17
4.6014768e-17
4.54247e-17
1.954421e-07
1.945671e-07
1.9460196e-07
1.9472411e-07
1.9479167e-07
1.9482234e-07
1.9483796e-07
1.9484777e-07
1.9485513e-07
1.948614e-07
1.9486727e-07
1.9487324e-07
1.9487974e-07
1.9488724e-07
1.9489632e-07
1.9490767e-07
1.9492279e-07
1.9494168e-07
1.9497622e-07
1.9498682e-07
1.9522054e-07
1.9458048e-07
1.9559321e-07
1.9492237e-09
1.1196986e-15
3.9453729e-17
1.9888055e-17
1.3419168e-17
1.0354392e-17
8.5113805e-18
7.2565024e-18
6.3314985e-18
5.621106e-18
5.0587638e-18
4.602124e-18
4.2244334e-18
3.9063819e-18
3.6382236e-18
3.4109558e-18
3.2151891e-18
3.0438767e-18
2.8922884e-18
2.7576157e-18
2.6376366e-18
2.5305105e-18
2.4346685e-18
2.3488007e-18
2.2717743e-18
2.2014723e-18
2.1378201e-18
2.0792524e-18
2.0244462e-18
1.9726587e-18
1.9242413e-18
1.8822771e-18
1.8508101e-18
1.8271813e-18
1.8084079e-18
1.794337e-18
1.7850385e-18
1.7806174e-18
1.7812204e-18
1.787044e-18
1.7984461e-18
1.8148213e-18
1.8360296e-18
1.8626793e-18
1.8946663e-18
1.930643e-18
1.9679911e-18
2.0140018e-18
2.088012e-18
2.1788378e-18
2.2864825e-18
2.4138724e-18
2.5642712e-18
2.7419965e-18
2.9519181e-18
3.1990701e-18
3.485121e-18
3.797671e-18
4.1770193e-18
4.6769431e-18
5.2773422e-18
6.0029086e-18
6.8856753e-18
7.9671664e-18
9.2983601e-18
1.0928165e-17
1.2815587e-17
1.5255368e-17
1.842518e-17
2.2370098e-17
2.7258024e-17
3.3267051e-17
4.0553354e-17
4.9184359e-17
5.916843e-17
7.0327792e-17
8.2021619e-17
9.3286098e-17
1.0327644e-16
1.116044e-16
1.1834775e-16
1.2379815e-16
1.2827852e-16
1.3203161e-16
1.3520993e-16
1.3787313e-16
1.4006145e-16
1.4182362e-16
1.4317463e-16
1.4409754e-16
1.4456795e-16
1.4460405e-16
1.4427237e-16
1.4365058e-16
1.4281015e-16
1.4181079e-16
1.4070108e-16
1.395195e-16
1.3829433e-16
1.3704647e-16
1.3579136e-16
1.3454052e-16
1.3330144e-16
1.320792e-16
1.3087631e-16
1.2969411e-16
1.2853478e-16
1.2739222e-16
1.2627111e-16
1.2514423e-16
1.2401029e-16
1.229305e-16
1.2135348e-16
1.9542225e-07
1.9453776e-07
1.9457291e-07
1.9469613e-07
1.9476429e-07
1.9479524e-07
1.94811e-07
1.948209e-07
1.9482832e-07
1.9483464e-07
1.9484055e-07
1.9484657e-07
1.9485311e-07
1.9486066e-07
1.9486979e-07
1.948812e-07
1.948964e-07
1.9491537e-07
1.9495007e-07
1.9496059e-07
1.9519552e-07
1.9455234e-07
1.9557395e-07
1.9972259e-09
2.0627296e-15
4.951439e-17
2.4851103e-17
1.6783583e-17
1.3084522e-17
1.0892254e-17
9.3900397e-18
8.2724442e-18
7.4097002e-18
6.7244157e-18
6.1665426e-18
5.7050011e-18
5.317067e-18
4.9917566e-18
4.7184418e-18
4.485475e-18
4.2829472e-18
4.1045844e-18
3.947269e-18
3.8087143e-18
3.6869083e-18
3.5800566e-18
3.4866441e-18
3.4053507e-18
3.3333358e-18
3.2708433e-18
3.21521e-18
3.1643217e-18
3.1173103e-18
3.0750527e-18
3.0426807e-18
3.02694e-18
3.0240822e-18
3.029755e-18
3.0440121e-18
3.0672626e-18
3.0999762e-18
3.1427018e-18
3.1960908e-18
3.261175e-18
3.3368243e-18
3.4231464e-18
3.5218633e-18
3.6335207e-18
3.7564356e-18
3.8865692e-18
4.0374591e-18
4.2448989e-18
4.4906835e-18
4.7764788e-18
5.1094801e-18
5.4978855e-18
5.9522961e-18
6.4849667e-18
7.1091904e-18
7.832462e-18
8.6356511e-18
9.600727e-18
1.0839949e-17
1.2324383e-17
1.4114567e-17
1.6289112e-17
1.8950257e-17
2.2224846e-17
2.6242862e-17
3.095563e-17
3.7004102e-17
4.480335e-17
5.4507144e-17
6.6528524e-17
8.1306004e-17
9.9225211e-17
1.2045549e-16
1.4502508e-16
1.7251117e-16
2.013582e-16
2.2920734e-16
2.5395957e-16
2.746246e-16
2.9136595e-16
3.0489684e-16
3.1601308e-16
3.2531522e-16
3.3318335e-16
3.3976956e-16
3.4517804e-16
3.4953241e-16
3.5287112e-16
3.5515309e-16
3.5631829e-16
3.5641152e-16
3.5559704e-16
3.5406654e-16
3.5199642e-16
3.4953403e-16
3.4679929e-16
3.4388711e-16
3.4086728e-16
3.3779138e-16
3.346975e-16
3.3161409e-16
3.2855958e-16
3.2554655e-16
3.2258121e-16
3.1966687e-16
3.1680892e-16
3.1399227e-16
3.1122877e-16
3.0845069e-16
3.0565661e-16
3.0299488e-16
2.9910735e-16
1.9539847e-07
1.9450245e-07
1.9453796e-07
1.9466248e-07
1.9473136e-07
1.9476264e-07
1.9477858e-07
1.9478858e-07
1.9479608e-07
1.9480246e-07
1.9480843e-07
1.948145e-07
1.948211e-07
1.948287e-07
1.948379e-07
1.9484937e-07
1.9486466e-07
1.9488373e-07
1.9491862e-07
1.9492904e-07
1.9516543e-07
1.9451844e-07
1.9555208e-07
2.0506631e-09
3.8206835e-15
7.2916947e-17
3.6415768e-17
2.4620663e-17
1.9421232e-17
1.6396614e-17
1.4307523e-17
1.2735424e-17
1.1514243e-17
1.0540303e-17
9.7450574e-18
9.086893e-18
8.5350805e-18
8.0751186e-18
7.692378e-18
7.3703258e-18
7.0927071e-18
6.849732e-18
6.637491e-18
6.4534586e-18
6.2951714e-18
6.1602799e-18
6.0467715e-18
5.9528857e-18
5.8743407e-18
5.8119876e-18
5.7608061e-18
5.717022e-18
5.67957e-18
5.6504074e-18
5.6386069e-18
5.6560737e-18
5.6970654e-18
5.7547272e-18
5.8295905e-18
5.9228021e-18
6.0356272e-18
6.1694945e-18
6.3260522e-18
6.5078117e-18
6.7125478e-18
6.9410144e-18
7.1974469e-18
7.4840858e-18
7.7991106e-18
8.1363571e-18
8.5217673e-18
9.0228462e-18
9.609118e-18
1.0286521e-17
1.1071661e-17
1.1983698e-17
1.3047113e-17
1.4290633e-17
1.5746345e-17
1.7436676e-17
1.9334809e-17
2.1605747e-17
2.4478128e-17
2.7915618e-17
3.2058048e-17
3.7087122e-17
4.3239732e-17
5.0812102e-17
6.0121556e-17
7.114582e-17
8.5227522e-17
1.0328842e-16
1.2575788e-16
1.5359275e-16
1.8780962e-16
2.2930448e-16
2.7847596e-16
3.3540326e-16
3.991341e-16
4.6610405e-16
5.3087122e-16
5.8853513e-16
6.367355e-16
6.7579941e-16
7.0737027e-16
7.3329413e-16
7.549686e-16
7.7328355e-16
7.8860133e-16
8.0117319e-16
8.1129222e-16
8.1905069e-16
8.2435449e-16
8.2706462e-16
8.2728509e-16
8.2539748e-16
8.2184697e-16
8.170432e-16
8.1132842e-16
8.0498111e-16
7.9822164e-16
7.9121208e-16
7.8407225e-16
7.7689061e-16
7.6973317e-16
7.6264273e-16
7.5564857e-16
7.487651e-16
7.4199998e-16
7.3536579e-16
7.2882743e-16
7.2241269e-16
7.159638e-16
7.0947903e-16
7.0330044e-16
6.9427636e-16
1.9537027e-07
1.9446042e-07
1.9449635e-07
1.9462242e-07
1.9469217e-07
1.9472386e-07
1.9474e-07
1.9475013e-07
1.9475773e-07
1.9476418e-07
1.9477022e-07
1.9477635e-07
1.9478301e-07
1.9479068e-07
1.9479995e-07
1.9481151e-07
1.9482691e-07
1.9484609e-07
1.9488121e-07
1.9489151e-07
1.9512963e-07
1.9447802e-07
1.9552789e-07
2.1107289e-09
7.0227333e-15
1.2348938e-16
6.1423797e-17
4.1566331e-17
3.310596e-17
2.8268158e-17
2.490283e-17
2.2344361e-17
2.0346262e-17
1.8747194e-17
1.7438152e-17
1.6354367e-17
1.5447926e-17
1.4695887e-17
1.4074723e-17
1.3557941e-17
1.3115916e-17
1.2731326e-17
1.2398498e-17
1.2114321e-17
1.1875315e-17
1.1677908e-17
1.1518999e-17
1.1395883e-17
1.1301524e-17
1.1237922e-17
1.1195178e-17
1.1166155e-17
1.1149526e-17
1.1149421e-17
1.1182288e-17
1.126961e-17
1.1402141e-17
1.1568632e-17
1.1770677e-17
1.2010985e-17
1.2292503e-17
1.2618525e-17
1.2992816e-17
1.3421028e-17
1.3898719e-17
1.4428195e-17
1.5019146e-17
1.5677875e-17
1.6403322e-17
1.7186554e-17
1.8077512e-17
1.92032e-17
2.0512653e-17
2.2021959e-17
2.3767746e-17
2.5792637e-17
2.8150701e-17
3.0906041e-17
3.4131743e-17
3.7885618e-17
4.2136891e-17
4.7211877e-17
5.3565092e-17
6.11654e-17
7.0321795e-17
8.1436034e-17
9.5032864e-17
1.1177255e-16
1.3238591e-16
1.569819e-16
1.8828927e-16
2.2827897e-16
2.7802901e-16
3.396591e-16
4.1542262e-16
5.0730932e-16
6.1621357e-16
7.4233556e-16
8.8361514e-16
1.0322276e-15
1.1761584e-15
1.3044836e-15
1.4118537e-15
1.4988994e-15
1.5692445e-15
1.6269828e-15
1.6752221e-15
1.7159509e-15
1.7499902e-15
1.7779145e-15
1.8003854e-15
1.8176129e-15
1.8293907e-15
1.835411e-15
1.8359047e-15
1.831719e-15
1.823842e-15
1.813183e-15
1.8005017e-15
1.7864164e-15
1.7714161e-15
1.7558605e-15
1.7400157e-15
1.724078e-15
1.708194e-15
1.6924585e-15
1.6769367e-15
1.6616604e-15
1.6466469e-15
1.6319239e-15
1.6174135e-15
1.6031777e-15
1.5888659e-15
1.5744756e-15
1.5607638e-15
1.5407371e-15
1.9533714e-07
1.944108e-07
1.9444722e-07
1.9457516e-07
1.9464594e-07
1.9467811e-07
1.9469449e-07
1.9470478e-07
1.9471248e-07
1.9471903e-07
1.9472514e-07
1.9473134e-07
1.9473808e-07
1.9474583e-07
1.9475519e-07
1.9476685e-07
1.9478237e-07
1.9480169e-07
1.9483707e-07
1.9484724e-07
1.950874e-07
1.9443023e-07
1.9550189e-07
2.1788705e-09
1.276596e-14
2.2857797e-16
1.1340774e-16
7.6790439e-17
6.1539678e-17
5.292385e-17
4.6901528e-17
4.2291362e-17
3.8678231e-17
3.5780254e-17
3.3403895e-17
3.1435907e-17
2.9793028e-17
2.8433527e-17
2.7315043e-17
2.6391394e-17
2.5605617e-17
2.4924822e-17
2.4339619e-17
2.3845626e-17
2.3437221e-17
2.3108273e-17
2.2853407e-17
2.2667988e-17
2.2539835e-17
2.2473108e-17
2.2448041e-17
2.2450844e-17
2.2479926e-17
2.2543719e-17
2.2672219e-17
2.2904345e-17
2.3224884e-17
2.36151e-17
2.4078878e-17
2.4622149e-17
2.5251341e-17
2.5973606e-17
2.6797089e-17
2.7733949e-17
2.877534e-17
2.9927101e-17
3.1210406e-17
3.2640769e-17
3.4220517e-17
3.593799e-17
3.7888746e-17
4.0309418e-17
4.3116254e-17
4.6348194e-17
5.0083364e-17
5.4413277e-17
5.9453404e-17
6.5341749e-17
7.2238112e-17
8.0279845e-17
8.9449235e-17
1.0038055e-16
1.1395927e-16
1.3020095e-16
1.4976598e-16
1.7351344e-16
2.0256707e-16
2.3834797e-16
2.8246953e-16
3.3544174e-16
4.0268274e-16
4.8828884e-16
5.9478941e-16
7.2672452e-16
8.8892289e-16
1.085655e-15
1.3188565e-15
1.5889999e-15
1.8917613e-15
2.2105097e-15
2.5195855e-15
2.7954705e-15
3.0264913e-15
3.2138311e-15
3.3652201e-15
3.4894346e-15
3.5931515e-15
3.6806605e-15
3.7537529e-15
3.8136909e-15
3.8619133e-15
3.8988809e-15
3.9241549e-15
3.9370763e-15
3.9381411e-15
3.9291665e-15
3.9122729e-15
3.8894107e-15
3.8622099e-15
3.8319967e-15
3.7998205e-15
3.7664529e-15
3.7324647e-15
3.6982771e-15
3.6642043e-15
3.6304503e-15
3.5971545e-15
3.5643855e-15
3.5321799e-15
3.5005976e-15
3.4694713e-15
3.4389343e-15
3.4082338e-15
3.3773663e-15
3.3479531e-15
3.3049939e-15
1.9529851e-07
1.9435261e-07
1.9438962e-07
1.9451975e-07
1.9459177e-07
1.946245e-07
1.9464118e-07
1.9465164e-07
1.9465948e-07
1.9466613e-07
1.9467234e-07
1.9467863e-07
1.9468545e-07
1.9469329e-07
1.9470276e-07
1.9471454e-07
1.947302e-07
1.9474967e-07
1.9478537e-07
1.9479536e-07
1.9503793e-07
1.9437409e-07
1.9547479e-07
2.2568566e-09
2.2961261e-14
4.4172731e-16
2.1886926e-16
1.4825152e-16
1.1921788e-16
1.0293334e-16
9.1520344e-17
8.2749393e-17
7.5862191e-17
7.0331727e-17
6.5792543e-17
6.2032684e-17
5.8897955e-17
5.6306515e-17
5.4177268e-17
5.2425835e-17
5.094045e-17
4.9656736e-17
4.8557734e-17
4.763644e-17
4.6882855e-17
4.6285649e-17
4.5834834e-17
4.5521912e-17
4.5325244e-17
4.5253009e-17
4.5265833e-17
4.5336942e-17
4.5464714e-17
4.5665975e-17
4.5995293e-17
4.6522909e-17
4.7223719e-17
4.8066533e-17
4.9060051e-17
5.0216738e-17
5.1550085e-17
5.3075076e-17
5.4808752e-17
5.6776492e-17
5.8960837e-17
6.1375335e-17
6.4064815e-17
6.706486e-17
7.0387766e-17
7.402147e-17
7.8147197e-17
8.3201072e-17
8.9049219e-17
9.5780112e-17
1.0355623e-16
1.1256889e-16
1.230585e-16
1.3531424e-16
1.4967513e-16
1.6645075e-16
1.8568622e-16
2.0859663e-16
2.3688003e-16
2.7070812e-16
3.1145685e-16
3.6091687e-16
4.2143337e-16
4.9598467e-16
5.880216e-16
6.9908957e-16
8.3975933e-16
1.018363e-15
1.2405626e-15
1.5158348e-15
1.8542634e-15
2.2647777e-15
2.7514544e-15
3.3153562e-15
3.9476135e-15
4.6137391e-15
5.2603004e-15
5.8379945e-15
6.3220737e-15
6.7147112e-15
7.0319877e-15
7.2922351e-15
7.5094282e-15
7.6925744e-15
7.8454713e-15
7.9708098e-15
8.0716315e-15
8.1489165e-15
8.2017553e-15
8.2287732e-15
8.2310074e-15
8.2122564e-15
8.1769522e-15
8.1291718e-15
8.0723225e-15
8.0091763e-15
7.9419265e-15
7.8721862e-15
7.8011486e-15
7.7296938e-15
7.658479e-15
7.5879301e-15
7.5183388e-15
7.4498486e-15
7.382536e-15
7.3165261e-15
7.2514693e-15
7.1876443e-15
7.1234771e-15
7.0589624e-15
6.9974863e-15
6.9076976e-15
1.9525377e-07
1.9428476e-07
1.9432245e-07
1.9445519e-07
1.9452865e-07
1.9456205e-07
1.9457907e-07
1.9458975e-07
1.9459774e-07
1.9460451e-07
1.9461083e-07
1.9461722e-07
1.9462415e-07
1.946321e-07
1.9464168e-07
1.946536e-07
1.9466944e-07
1.9468908e-07
1.9472514e-07
1.9473493e-07
1.949803e-07
1.9430847e-07
1.9544765e-07
2.3468663e-09
4.093603e-14
8.6701991e-16
4.2933388e-16
2.9086656e-16
2.3432676e-16
2.0274076e-16
1.8057497e-16
1.6350648e-16
1.5009158e-16
1.3931359e-16
1.3046344e-16
1.2313182e-16
1.1702437e-16
1.11976e-16
1.0782743e-16
1.0442103e-16
1.0153668e-16
9.9047314e-17
9.6920843e-17
9.5144996e-17
9.3701025e-17
9.2567221e-17
9.1724397e-17
9.1156455e-17
9.0824518e-17
9.0744206e-17
9.0837644e-17
9.1052994e-17
9.1389425e-17
9.1880001e-17
9.2623449e-17
9.3745766e-17
9.5205859e-17
9.6952294e-17
9.9003675e-17
1.0138553e-16
1.0412549e-16
1.072542e-16
1.1080651e-16
1.1483426e-16
1.1930333e-16
1.2424359e-16
1.2974779e-16
1.3589397e-16
1.4271964e-16
1.5022065e-16
1.5873778e-16
1.6906708e-16
1.8100236e-16
1.9473652e-16
2.1060096e-16
2.2898755e-16
2.5038719e-16
2.7539344e-16
3.0470923e-16
3.39007e-16
3.7851931e-16
4.2554763e-16
4.8330983e-16
5.523942e-16
6.3561191e-16
7.3662259e-16
8.6022429e-16
1.0125321e-15
1.2007504e-15
1.4288734e-15
1.7172558e-15
2.08257e-15
2.5370618e-15
3.1001239e-15
3.792398e-15
4.6321842e-15
5.6278876e-15
6.7818161e-15
8.0760937e-15
9.4405477e-15
1.0766063e-14
1.1951382e-14
1.2945196e-14
1.3751432e-14
1.44029e-14
1.4937134e-14
1.5382796e-14
1.5758413e-14
1.6071857e-14
1.6328732e-14
1.653533e-14
1.6693689e-14
1.6801957e-14
1.6857325e-14
1.6861916e-14
1.6823515e-14
1.6751199e-14
1.6653323e-14
1.6536867e-14
1.640751e-14
1.6269745e-14
1.6126877e-14
1.5981351e-14
1.583497e-14
1.568908e-14
1.5544554e-14
1.540199e-14
1.5261682e-14
1.5123785e-14
1.4988557e-14
1.4855282e-14
1.4724531e-14
1.4593078e-14
1.4460914e-14
1.4334975e-14
1.4151034e-14
1.9520226e-07
1.9420602e-07
1.9424449e-07
1.9438031e-07
1.9445547e-07
1.9448966e-07
1.9450708e-07
1.9451801e-07
1.9452618e-07
1.945331e-07
1.9453955e-07
1.9454606e-07
1.9455311e-07
1.9456118e-07
1.9457091e-07
1.9458299e-07
1.9459901e-07
1.9461886e-07
1.9465534e-07
1.9466487e-07
1.949135e-07
1.9423212e-07
1.9542196e-07
2.4516056e-09
7.2484803e-14
1.7056639e-15
8.4443208e-16
5.7215458e-16
4.6137439e-16
3.9962247e-16
3.5626271e-16
3.2284204e-16
2.9656499e-16
2.7544877e-16
2.5810604e-16
2.4373769e-16
2.3177547e-16
2.218847e-16
2.1375053e-16
2.0707583e-16
2.0142845e-16
1.9655789e-16
1.9240221e-16
1.8893873e-16
1.8613145e-16
1.8393819e-16
1.8232164e-16
1.8125093e-16
1.8065592e-16
1.8056596e-16
1.8082826e-16
1.8134295e-16
1.8211221e-16
1.832003e-16
1.8478484e-16
1.8709043e-16
1.9005082e-16
1.9358242e-16
1.977239e-16
2.0252663e-16
2.0804617e-16
2.1434418e-16
2.2149077e-16
2.2959014e-16
2.3857615e-16
2.4851254e-16
2.595878e-16
2.7196794e-16
2.8574922e-16
3.0095793e-16
3.1823037e-16
3.3900831e-16
3.629899e-16
3.9058357e-16
4.2245518e-16
4.5939492e-16
5.0238997e-16
5.5263936e-16
6.1157499e-16
6.806181e-16
7.6047681e-16
8.5547316e-16
9.7165236e-16
1.1106034e-15
1.2779827e-15
1.4811562e-15
1.7297896e-15
2.0362393e-15
2.4152669e-15
2.8763516e-15
3.4583114e-15
4.1940905e-15
5.1094967e-15
6.243605e-15
7.6380206e-15
9.3296653e-15
1.1335586e-14
1.3660663e-14
1.6269354e-14
1.9020963e-14
2.1696021e-14
2.408986e-14
2.6097936e-14
2.7727262e-14
2.9043777e-14
3.0123147e-14
3.1023238e-14
3.1781542e-14
3.2414096e-14
3.2932365e-14
3.334914e-14
3.3668585e-14
3.388699e-14
3.3998692e-14
3.400798e-14
3.3930551e-14
3.3784717e-14
3.3587327e-14
3.3352461e-14
3.3091572e-14
3.2813725e-14
3.2525584e-14
3.2232081e-14
3.1936853e-14
3.1642615e-14
3.1351128e-14
3.1063596e-14
3.0780613e-14
3.0502496e-14
3.022976e-14
2.9960962e-14
2.9697255e-14
2.9432133e-14
2.916558e-14
2.8911577e-14
2.8540593e-14
1.9514328e-07
1.9411503e-07
1.941544e-07
1.9429383e-07
1.9437099e-07
1.944061e-07
1.94424e-07
1.9443523e-07
1.9444361e-07
1.944507e-07
1.944573e-07
1.9446395e-07
1.9447114e-07
1.9447936e-07
1.9448924e-07
1.945015e-07
1.9451775e-07
1.9453783e-07
1.9457478e-07
1.9458401e-07
1.9483643e-07
1.9414361e-07
1.9539974e-07
2.5744605e-09
1.2770087e-13
3.3449617e-15
1.6559952e-15
1.1221253e-15
9.0532567e-16
7.8462598e-16
6.9985744e-16
6.3449097e-16
5.8308961e-16
5.4178147e-16
5.0785229e-16
4.7974025e-16
4.5634581e-16
4.3699398e-16
4.2106325e-16
4.0799229e-16
3.9693711e-16
3.8740619e-16
3.7927926e-16
3.7251332e-16
3.6703862e-16
3.6277298e-16
3.5964373e-16
3.5759143e-16
3.5648951e-16
3.5639257e-16
3.5700299e-16
3.5812937e-16
3.5978229e-16
3.6208553e-16