/*--------------------------------*- C++ -*----------------------------------*\
| =========                 |                                                 |
| \\      /  F ield         | OpenFOAM: The Open Source CFD Toolbox           |
|  \\    /   O peration     | Version:  2206                                  |
|   \\  /    A nd           | Website:  www.openfoam.com                      |
|    \\/     M anipulation  |                                                 |
\*---------------------------------------------------------------------------*/
FoamFile
{
    version     2.0;
    format      ascii;
    arch        "LSB;label=32;scalar=64";
    class       volScalarField;
    location    "800";
    object      omega;
}
// * * * * * * * * * * * * * * * * * * * * * * * * * * * * * * * * * * * * * //

dimensions      [0 0 -1 0 0 0 0];

internalField   nonuniform List<scalar> 
13056
(
553.59592
501.92801
497.42761
497.42896
497.54821
497.5496
497.53199
497.52011
497.51492
497.51503
497.51972
497.52882
497.54255
497.56153
497.58673
497.62008
497.66355
497.72452
497.79973
497.95576
497.98409
498.82093
505.42152
19458.304
1.1944345e+09
1.1944345e+09
1.1944345e+09
1.1944345e+09
1.1944345e+09
1.1944345e+09
1.1944345e+09
1.1944345e+09
1.1944345e+09
1.1944345e+09
1.1944345e+09
1.1944345e+09
1.1944345e+09
1.1944345e+09
1.1944345e+09
1.1944345e+09
1.1944345e+09
1.1944345e+09
1.1944345e+09
1.1944345e+09
1.1944345e+09
1.1944345e+09
1.1944345e+09
1.1944345e+09
1.1944345e+09
1.1944345e+09
1.1944345e+09
1.1944345e+09
1.1944345e+09
1.1944345e+09
1.1944345e+09
1.1944345e+09
1.1944345e+09
1.1944345e+09
1.1944345e+09
1.1944345e+09
1.1944345e+09
1.1944345e+09
1.1944345e+09
1.1944345e+09
1.1944345e+09
1.1944345e+09
1.1944345e+09
1.1944345e+09
1.1944345e+09
1.1944345e+09
1.1944345e+09
1.1944345e+09
1.1944345e+09
1.1944345e+09
1.1944345e+09
1.1944345e+09
1.1944345e+09
1.1944345e+09
1.1944345e+09
1.1944345e+09
1.1944345e+09
1.1944345e+09
1.1944345e+09
1.1944345e+09
1.1944345e+09
1.1944345e+09
1.1944345e+09
1.1944345e+09
1.1944345e+09
1.1944345e+09
1.1944345e+09
1.1944345e+09
1.1944345e+09
1.1944345e+09
1.1944345e+09
1.1944345e+09
1.1944345e+09
1.1944345e+09
1.1944345e+09
1.1944345e+09
1.1944345e+09
1.1944345e+09
1.1944345e+09
1.1944345e+09
1.1944345e+09
1.1944345e+09
1.1944345e+09
1.1944345e+09
1.1944345e+09
1.1944345e+09
1.1944345e+09
1.1944345e+09
1.1944345e+09
1.1944345e+09
1.1944345e+09
1.1944345e+09
1.1944345e+09
1.1944345e+09
1.1944345e+09
1.1944345e+09
1.1944345e+09
1.1944345e+09
1.1944345e+09
1.1944345e+09
1.1944345e+09
1.1944345e+09
1.1944345e+09
1.1944345e+09
1.1944345e+09
1.1944345e+09
1.1944345e+09
1.1944345e+09
1.1944345e+09
1.1944345e+09
1.1944345e+09
1.1944345e+09
553.55977
501.87407
497.37257
497.37369
497.49291
497.49429
497.47667
497.46478
497.45959
497.4597
497.46439
497.47349
497.48722
497.5062
497.53141
497.56476
497.60823
497.66921
497.74444
497.90049
497.92882
498.76562
505.36528
19168.208
1.958697e+08
1.9626971e+08
1.9626969e+08
1.9626969e+08
1.962697e+08
1.9626971e+08
1.9626972e+08
1.9626973e+08
1.9626974e+08
1.9626975e+08
1.9626976e+08
1.9626977e+08
1.9626978e+08
1.9626979e+08
1.962698e+08
1.9626981e+08
1.9626982e+08
1.9626983e+08
1.9626984e+08
1.9626986e+08
1.9626987e+08
1.9626988e+08
1.962699e+08
1.9626992e+08
1.9626994e+08
1.9626996e+08
1.9626998e+08
1.9627001e+08
1.9627004e+08
1.9627007e+08
1.962701e+08
1.9627013e+08
1.9627016e+08
1.962702e+08
1.9627023e+08
1.9627027e+08
1.9627032e+08
1.9627036e+08
1.9627042e+08
1.9627048e+08
1.9627055e+08
1.9627062e+08
1.9627072e+08
1.9627082e+08
1.9627096e+08
1.9627114e+08
1.9627134e+08
1.962715e+08
1.9627167e+08
1.9627186e+08
1.9627209e+08
1.9627236e+08
1.9627269e+08
1.9627309e+08
1.962736e+08
1.9627432e+08
1.9627551e+08
1.9627674e+08
1.9627762e+08
1.9627869e+08
1.9628001e+08
1.9628165e+08
1.9628375e+08
1.962866e+08
1.9629114e+08
1.9630128e+08
1.9630923e+08
1.963147e+08
1.9632146e+08
1.9632978e+08
1.9634e+08
1.963525e+08
1.9636789e+08
1.9638733e+08
1.9641267e+08
1.9644536e+08
1.964842e+08
1.9652317e+08
1.9655678e+08
1.965824e+08
1.9660125e+08
1.9661472e+08
1.9662394e+08
1.9663005e+08
1.9663406e+08
1.9663686e+08
1.96639e+08
1.9664075e+08
1.966422e+08
1.9664336e+08
1.9664422e+08
1.9664483e+08
1.9664525e+08
1.9664552e+08
1.9664569e+08
1.9664578e+08
1.9664582e+08
1.966458e+08
1.9664575e+08
1.9664569e+08
1.966456e+08
1.966455e+08
1.9664539e+08
1.9664528e+08
1.9664516e+08
1.9664505e+08
1.9664493e+08
1.9664487e+08
1.9664473e+08
1.9664494e+08
1.9664486e+08
1.9664472e+08
553.44466
501.70441
497.19964
497.20004
497.3192
497.32054
497.30289
497.29098
497.28577
497.28587
497.29055
497.29965
497.31338
497.33237
497.35758
497.39095
497.43444
497.49545
497.5707
497.72683
497.75516
498.59172
505.19233
18831.297
64133373
64221455
64221434
64221435
64221455
64221485
64221516
64221546
64221576
64221607
64221637
64221666
64221696
64221720
64221735
64221748
64221762
64221776
64221791
64221808
64221826
64221847
64221870
64221896
64221944
64222009
64222095
64222212
64222369
64222561
64222735
64222817
64222848
64222879
64222913
64222952
64222996
64223046
64223104
64223172
64223266
64223419
64223644
64224007
64224644
64225768
64226992
64227257
64227392
64227552
64227748
64228066
64228520
64229253
64230609
64233682
64241880
64249246
64250033
64251069
64252510
64254666
64258292
64265713
64286822
64367393
64413532
64419063
64426962
64438614
64456459
64484969
64532214
64613576
64754497
64980959
65289875
65622469
65917014
66141290
66302411
66411590
66479379
66516842
66534739
66542349
66545392
66546622
66547200
66547530
66547743
66547886
66547983
66548044
66548082
66548103
66548110
66548106
66548096
66548081
66548062
66548039
66548014
66547988
66547962
66547937
66547909
66547897
66547864
66547911
66547893
66547862
553.24701
501.41361
496.90327
496.90245
497.02148
497.02276
497.00505
496.99311
496.98787
496.98796
496.99263
497.00172
497.01546
497.03445
497.05968
497.09307
497.1366
497.19765
497.27295
497.42921
497.45754
498.29363
504.89701
18475.286
29346556
29343020
29342970
29342976
29343060
29343185
29343317
29343449
29343585
29343723
29343857
29343982
29344118
29344218
29344271
29344312
29344353
29344397
29344446
29344500
29344560
29344629
29344708
29344803
29345009
29345293
29345689
29346243
29347002
29347936
29348772
29349127
29349207
29349279
29349362
29349458
29349570
29349702
29349859
29350049
29350365
29350962
29351910
29353541
29356568
29362073
29368060
29369029
29369268
29369562
29369953
29370865
29372346
29375098
29380860
29395208
29435645
29471456
29472951
29475132
29478624
29484759
29497053
29526897
29624149
30022220
30239242
30241110
30243776
30247708
30253673
30263352
30279291
30306730
30354224
30430466
30534307
30645901
30744550
30819553
30873377
30909821
30932437
30944932
30950901
30953439
30954453
30954863
30955056
30955166
30955237
30955285
30955317
30955338
30955350
30955357
30955359
30955358
30955355
30955350
30955343
30955336
30955327
30955319
30955310
30955302
30955292
30955288
30955277
30955293
30955287
30955277
552.96117
500.99313
496.47475
496.47217
496.59102
496.59221
496.57442
496.56242
496.55715
496.55721
496.56187
496.57096
496.5847
496.6037
496.62896
496.66237
496.70595
496.76707
496.84243
496.99887
497.02721
497.86261
504.47042
18104.165
16156621
16059036
16058903
16058924
16059203
16059617
16060057
16060500
16060957
16061418
16061868
16062289
16062742
16063074
16063243
16063368
16063495
16063632
16063783
16063951
16064141
16064359
16064611
16064914
16065599
16066551
16067887
16069766
16072347
16075529
16078372
16079554
16079788
16079990
16080224
16080497
16080819
16081202
16081666
16082233
16083225
16085175
16088317
16093796
16104060
16122833
16143241
16146354
16146913
16147620
16148603
16151314
16155894
16164491
16182972
16230609
16367586
16487928
16488685
16489619
16491116
16493745
16499012
16511797
16553431
16723378
16815690
16816483
16817616
16819287
16821822
16825934
16832706
16844360
16864523
16896870
16940884
16988127
17029844
17061532
17084256
17099635
17109176
17114446
17116963
17118034
17118461
17118634
17118716
17118762
17118792
17118812
17118826
17118834
17118840
17118843
17118844
17118843
17118842
17118840
17118837
17118834
17118830
17118826
17118823
17118819
17118815
17118814
17118809
17118816
17118813
17118809
552.57954
500.43142
495.90229
495.89736
496.01597
496.01703
495.99914
495.98706
495.98174
495.98177
495.98641
495.99549
496.00924
496.02826
496.05354
496.087
496.13063
496.19184
496.26729
496.42397
496.45232
497.28679
503.90043
17716.888
10028423
9791918.9
9791597.5
9791654.9
9792389.1
9793481
9794645.5
9795825.5
9797041.7
9798272.4
9799471.5
9800592.7
9801800.9
9802677.1
9803103
9803407.9
9803714.5
9804047.3
9804415.7
9804830.3
9805302.6
9805846
9806477.8
9807247
9809052.8
9811582.5
9815158.6
9820213
9827182.8
9835788.6
9843461.9
9846582.3
9847098.5
9847514.2
9848000.9
9848576.5
9849264.7
9850097.1
9851117.2
9852388.2
9854780.7
9859743
9867909
9882385.8
9909851.5
9960478.2
10015464
10022976
10023253
10023603
10024091
10025435
10027705
10031967
10041127
10064725
10132465
10191810
10192182
10192643
10193380
10194676
10197272
10203571
10224077
10307623
10352873
10353262
10353817
10354636
10355878
10357893
10361210
10366919
10376794
10392627
10414156
10437247
10457621
10473087
10484173
10491674
10496326
10498895
10500122
10500644
10500852
10500937
10500976
10500999
10501014
10501023
10501030
10501034
10501037
10501038
10501039
10501038
10501038
10501037
10501035
10501034
10501032
10501030
10501029
10501027
10501025
10501024
10501022
10501025
10501024
10501022
552.09259
499.71398
495.17106
495.16313
495.28141
495.28231
495.26429
495.25211
495.24673
495.24672
495.25134
495.26041
495.27416
495.2932
495.31852
495.35203
495.39574
495.45706
495.53262
495.68961
495.71797
496.55125
503.17176
17310.963
6631643.5
6408676.8
6407987
6408117.2
6409758.8
6412217.8
6414857.2
6417543.4
6420319.4
6423131.7
6425869.9
6428421.8
6431176.7
6433137.7
6434024.7
6434614.5
6435200.3
6435840.7
6436556.4
6437369.4
6438304.6
6439391.8
6440668.4
6442247
6446250
6451933.6
6460059.9
6471649.5
6487731.8
6507642.2
6525298.8
6532118.6
6532687.9
6532914.7
6533180
6533493.7
6533868.8
6534322.6
6534878.6
6535571.4
6536876.1
6539581
6544031.4
6551919.2
6566876
6594414.6
6624265.9
6628333.3
6628483.6
6628673.9
6628938.5
6629667.9
6630900
6633212.6
6638182.3
6650980.5
6687674.1
6719742.4
6719943.4
6720192.2
6720590.7
6721290.7
6722693.2
6726096.5
6737171.8
6782232.5
6806578.5
6806787.7
6807086.5
6807527.1
6808195.3
6809279.4
6811064.1
6814135.1
6819445.8
6827958.4
6839527.7
6851928.8
6862864.8
6871162.4
6877108.2
6881129.9
6883624
6885001.3
6885659.1
6885938.8
6886050.6
6886095.8
6886117
6886129.1
6886136.9
6886142.2
6886145.8
6886148
6886149.4
6886150.2
6886150.4
6886150.3
6886149.9
6886149.4
6886148.7
6886147.8
6886146.9
6886146
6886145
6886144.1
6886143.1
6886142.6
6886141.4
6886143.1
6886142.5
6886141.3
551.48895
498.82335
494.26324
494.25157
494.36944
494.37014
494.35195
494.33966
494.33419
494.33413
494.33872
494.34778
494.36154
494.38061
494.40597
494.43955
494.48334
494.54481
494.6205
494.77787
494.80624
495.63808
502.26589
16883.558
4578866
4415180.5
4413890.4
4414140.2
4417283
4422045.1
4427207.2
4432493.3
4437971.9
4443518.1
4448889
4453830.9
4459167.4
4462735.7
4463922.8
4464375.6
4464727.7
4465100.9
4465517
4465989.8
4466533.5
4467165.7
4467907.9
4468827.2
4471154.8
4474459.2
4479182.5
4485916.3
4495254.9
4506805.8
4517035.6
4520979.5
4521308.2
4521439.6
4521593.3
4521775.1
4521992.4
4522255.3
4522577.5
4522978.9
4523735.4
4525302.7
4527881.2
4532450.5
4541111.2
4557043.2
4574283
4576625.8
4576712.6
4576822.5
4576975.4
4577396.6
4578108.1
4579443.5
4582313.1
4589701
4610862.7
4629316.8
4629432.4
4629575.6
4629804.9
4630207.8
4631015.1
4632973.8
4639347.2
4665249.6
4679213.5
4679333.5
4679504.9
4679757.8
4680141.1
4680763.1
4681787
4683548.7
4686594.7
4691476
4698107.4
4705212.4
4711475.3
4716225.6
4719628.6
4721930
4723357.1
4724145.2
4724521.5
4724681.5
4724745.4
4724771.3
4724783.4
4724790.4
4724794.8
4724797.9
4724799.9
4724801.2
4724802
4724802.4
4724802.6
4724802.5
4724802.3
4724802
4724801.6
4724801.1
4724800.5
4724800
4724799.5
4724798.9
4724798.3
4724798.1
4724797.4
4724798.4
4724798
4724797.3
550.75545
497.73921
493.15804
493.14183
493.25917
493.25962
493.24122
493.22879
493.22322
493.2231
493.22765
493.2367
493.25047
493.26957
493.29498
493.32864
493.37255
493.43418
493.51003
493.66787
493.69625
494.52639
501.16108
16431.87
3259492
3160054.2
3159244.4
3159393.9
3161305.1
3164201.6
3167340.7
3170554.4
3173883.9
3177253.4
3180515
3183514.8
3186748.2
3188913.8
3189634.1
3189908.9
3190122.5
3190349
3190601.5
3190888.4
3191218.4
3191602
3192052.4
3192611.2
3194023.9
3196029.2
3198895
3202979.3
3208640.8
3215637.9
3221826.9
3224208.4
3224406.5
3224486
3224579.1
3224689.1
3224820.6
3224979.7
3225174.7
3225417.6
3225875.7
3226824.3
3228384.8
3231149.8
3236389
3246019.7
3256424.2
3257834.2
3257886.6
3257952.9
3258045.2
3258299.5
3258729
3259535
3261267
3265725.5
3278486.2
3289591.6
3289661.1
3289747.3
3289885.4
3290127.9
3290613.9
3291793.2
3295629.9
3311209.2
3319590.6
3319662.7
3319765.6
3319917.4
3320147.6
3320521.2
3321136
3322193.8
3324022.7
3326952.7
3330932
3335193.9
3338949.5
3341797.2
3343836.9
3345216.1
3346071.2
3346543.4
3346768.9
3346864.8
3346903.1
3346918.6
3346925.9
3346930
3346932.7
3346934.5
3346935.7
3346936.5
3346937
3346937.3
3346937.3
3346937.3
3346937.2
3346937
3346936.7
3346936.5
3346936.1
3346935.8
3346935.5
3346935.2
3346934.8
3346934.7
3346934.2
3346934.8
3346934.6
3346934.2
549.8772
496.43837
491.83171
491.81004
491.92673
491.92687
491.90823
491.89562
491.88994
491.88974
491.89425
491.90328
491.91706
491.93619
491.96167
491.99543
492.03946
492.1013
492.17735
492.33575
492.36412
493.19235
499.83227
15953.319
2372317
2309895
2309359.9
2309451
2310649.1
2312465.7
2314434.3
2316449.2
2318536.3
2320647.6
2322690.7
2324569
2326589.7
2327945.5
2328396.5
2328568.5
2328702.2
2328844
2329002.1
2329181.7
2329388.3
2329628.5
2329910.5
2330261
2331145.6
2332401.2
2334195.4
2336751.8
2340293.8
2344668.2
2348532.8
2350016.8
2350140.1
2350189.7
2350247.9
2350316.6
2350398.7
2350498.1
2350619.9
2350771.7
2351058.1
2351650.8
2352625.8
2354353.1
2357625.3
2363636.5
2370120.8
2370996.9
2371029.6
2371070.9
2371128.5
2371287
2371554.7
2372057.3
2373137
2375916.2
2383865.4
2390770.1
2390813.3
2390866.9
2390952.8
2391103.7
2391406.1
2392139.8
2394526.6
2404211.5
2409411.5
2409456.2
2409520.1
2409614.4
2409757.3
2409989.2
2410370.9
2411027.6
2412162.8
2413981.2
2416450.2
2419093.7
2421422.6
2423188
2424452.3
2425307.1
2425837.1
2426129.7
2426269.4
2426328.8
2426352.6
2426362.2
2426366.7
2426369.3
2426370.9
2426372
2426372.8
2426373.3
2426373.6
2426373.7
2426373.8
2426373.8
2426373.7
2426373.6
2426373.4
2426373.2
2426373
2426372.8
2426372.6
2426372.4
2426372.2
2426372.1
2426371.9
2426372.2
2426372.1
2426371.8
548.83767
494.89473
490.25757
490.22939
490.34527
490.34505
490.32611
490.31329
490.30747
490.30717
490.31163
490.32064
490.33443
490.35361
490.37916
490.41303
490.45722
490.5193
490.59558
490.75464
490.78301
491.60918
498.251
15445.685
1755254.7
1715068.2
1714695.2
1714750.6
1715518.6
1716684.1
1717947.2
1719239.8
1720578.4
1721932.2
1723241.8
1724445.3
1725737.5
1726606.3
1726895.2
1727005.4
1727091.1
1727181.9
1727283.2
1727398.3
1727530.7
1727684.6
1727865.3
1728090.4
1728657.4
1729462.1
1730611.9
1732249.8
1734518.3
1737318.1
1739788.5
1740735.2
1740813.7
1740845.5
1740882.7
1740926.6
1740979.2
1741042.7
1741120.6
1741217.7
1741401.1
1741780.2
1742404
1743509
1745601.8
1749444.3
1753583.1
1754140.7
1754161.5
1754187.9
1754224.7
1754325.9
1754496.9
1754817.8
1755507.4
1757282
1762355.2
1766753.6
1766781
1766815.2
1766870
1766966.2
1767158.9
1767626.6
1769148.2
1775318.5
1778625.1
1778653.6
1778694.3
1778754.2
1778845.2
1778992.8
1779235.7
1779653.6
1780375.9
1781532.7
1783103.2
1784784.1
1786264.7
1787386.8
1788190.3
1788733.5
1789070.3
1789256.2
1789345
1789382.8
1789397.9
1789404
1789406.8
1789408.5
1789409.5
1789410.2
1789410.7
1789411
1789411.2
1789411.3
1789411.3
1789411.3
1789411.3
1789411.2
1789411.1
1789411
1789410.9
1789410.7
1789410.6
1789410.5
1789410.3
1789410.3
1789410.1
1789410.3
1789410.2
1789410.1
547.61871
493.07933
488.40593
488.37005
488.48495
488.48429
488.46499
488.45192
488.44593
488.44553
488.44992
488.45891
488.47271
488.49193
488.51757
488.55158
488.59595
488.65832
488.73486
488.89471
488.92304
489.74715
496.38526
14907.223
1314906.9
1288508.8
1288232.8
1288265.5
1288765.8
1289526.4
1290350.8
1291194.4
1292067.9
1292951.1
1293805.3
1294590
1295430.8
1295997.3
1296185.7
1296257.5
1296313.4
1296372.6
1296438.6
1296513.6
1296600
1296700.3
1296818.1
1296965.2
1297335.1
1297860
1298609.9
1299678
1301156.8
1302980.8
1304588.3
1305203.1
1305253.9
1305274.6
1305298.8
1305327.4
1305361.6
1305403
1305453.8
1305516.9
1305636.5
1305883.4
1306289.6
1307009.3
1308372.1
1310872.8
1313562.7
1313923.9
1313937.5
1313954.6
1313978.6
1314044.4
1314155.6
1314364.3
1314812.7
1315966.7
1319264.1
1322117.7
1322135.5
1322157.7
1322193.2
1322255.7
1322380.8
1322684.6
1323672.7
1327677.4
1329819.4
1329837.9
1329864.2
1329903.1
1329962.1
1330057.8
1330215.3
1330486.2
1330954.5
1331704.4
1332722.2
1333811.3
1334770.5
1335497.3
1336017.7
1336369.5
1336587.5
1336707.9
1336765.4
1336789.9
1336799.7
1336803.6
1336805.5
1336806.5
1336807.2
1336807.7
1336808
1336808.2
1336808.3
1336808.4
1336808.4
1336808.4
1336808.3
1336808.3
1336808.2
1336808.1
1336808.1
1336808
1336807.9
1336807.8
1336807.7
1336807.7
1336807.6
1336807.7
1336807.7
1336807.6
546.20071
490.96033
486.24409
486.19919
486.31288
486.31169
486.29198
486.27861
486.27242
486.27189
486.27621
486.28517
486.29898
486.31826
486.344
486.37816
486.42275
486.48544
486.5623
486.72307
486.75133
487.57346
494.19943
14336.779
994412.06
976776.65
976558.12
976575.92
976905.56
977408.16
977953.19
978510.99
979088.53
979672.42
980236.94
980755.38
981309.78
981684.11
981808.53
981855.95
981892.83
981931.93
981975.55
982025.12
982082.15
982148.45
982226.32
982323.74
982568.26
982915.26
983411
984116.96
985094.09
986298.54
987358.86
987763.46
987796.87
987810.5
987826.47
987845.35
987867.93
987895.24
987928.72
987970.43
988049.38
988212.42
988480.64
988955.76
989855.39
991505.47
993277.89
993515.18
993524.12
993535.42
993551.21
993594.6
993667.91
993805.52
994101.2
994862.15
997035.47
998912.94
998924.65
998939.26
998962.66
999003.8
999086.22
999286.25
999937.02
1002573.3
1003980.8
1003992.9
1004010.3
1004035.8
1004074.6
1004137.5
1004241.1
1004419.3
1004727.3
1005220.4
1005889.5
1006605.4
1007235.8
1007713.4
1008055.4
1008286.5
1008429.8
1008508.9
1008546.6
1008562.7
1008569.1
1008571.7
1008572.9
1008573.6
1008574.1
1008574.4
1008574.6
1008574.7
1008574.8
1008574.8
1008574.9
1008574.9
1008574.8
1008574.8
1008574.8
1008574.7
1008574.7
1008574.6
1008574.5
1008574.5
1008574.4
1008574.4
1008574.3
1008574.4
1008574.4
1008574.3
544.56268
488.50296
483.73634
483.6809
483.79314
483.79133
483.77112
483.7574
483.75098
483.75029
483.75452
483.76344
483.77727
483.79661
483.82247
483.85682
483.90164
483.96472
484.04193
484.20377
484.23193
485.05234
491.65408
13733.896
757562.5
745604.11
745418.28
745425.77
745644.46
745979.63
746343.45
746715.92
747101.59
747491.47
747868.34
748214.36
748583.6
748833.49
748916.5
748948.11
748972.69
748998.76
749027.86
749060.93
749098.99
749143.25
749195.22
749260.42
749423.74
749655.52
749986.64
750458.11
751110.5
751914.2
752620.92
752889.99
752912.16
752921.25
752931.88
752944.47
752959.52
752977.74
753000.06
753027.88
753080.59
753189.37
753368.33
753685.34
754285.54
755385.93
756566.31
756723.83
756729.78
756737.31
756747.84
756776.75
756825.6
756917.31
757114.39
757621.56
759069.53
760318.19
760325.97
760335.7
760351.27
760378.65
760433.53
760566.7
761000
762754.55
763689.58
763697.65
763709.18
763726.18
763751.97
763793.82
763862.71
763981.2
764185.98
764513.84
764958.68
765434.51
765853.44
766170.8
766398
766551.56
766646.75
766699.31
766724.4
766735.07
766739.34
766741.06
766741.87
766742.34
766742.63
766742.83
766742.97
766743.05
766743.11
766743.13
766743.14
766743.14
766743.12
766743.1
766743.07
766743.04
766743
766742.96
766742.92
766742.89
766742.85
766742.83
766742.78
766742.84
766742.82
766742.77
542.68244
485.66962
480.84396
480.77629
480.88677
480.88421
480.86343
480.8493
480.8426
480.84173
480.84585
480.85473
480.86857
480.88799
480.91397
480.94853
480.99364
481.05715
481.13477
481.29786
481.32584
482.145
488.70585
13098.925
580434.25
572210.7
572041.34
572041.33
572186.75
572411.61
572656.15
572906.67
573166.14
573428.46
573682.01
573914.73
574162.57
574330.68
574386.48
574407.69
574424.18
574441.69
574461.23
574483.46
574509.05
574538.81
574573.77
574617.74
574727.7
574883.76
575106.71
575424.12
575863.23
576403.87
576878.74
577059.14
577073.96
577080.06
577087.21
577095.66
577105.78
577118.02
577133.02
577151.72
577187.2
577260.37
577380.76
577594.01
577997.74
578737.63
579530.25
579635.69
579639.68
579644.74
579651.81
579671.24
579704.06
579765.69
579898.14
580239
581211.84
582049.31
582054.52
582061.04
582071.5
582089.88
582126.72
582216.14
582507.1
583684.82
584311.31
584316.72
584324.45
584335.85
584353.15
584381.22
584427.42
584506.9
584644.25
584864.13
585162.41
585481.43
585762.27
585974.99
586127.27
586230.19
586293.99
586329.21
586346.03
586353.18
586356.04
586357.19
586357.74
586358.05
586358.25
586358.38
586358.47
586358.53
586358.56
586358.58
586358.58
586358.58
586358.57
586358.55
586358.53
586358.51
586358.48
586358.46
586358.43
586358.4
586358.38
586358.36
586358.33
586358.37
586358.35
586358.32
540.53684
482.41994
477.5253
477.44349
477.55184
477.5484
477.52694
477.51233
477.50531
477.50423
477.50822
477.51705
477.5309
477.5504
477.57653
477.61133
477.65675
477.72077
477.79885
477.96337
477.99108
478.80977
485.3073
12433.119
446729.02
440993.67
440829.73
440823.89
440920.23
441071.55
441236.63
441405.98
441581.49
441758.98
441930.53
442087.96
442255.3
442369.05
442406.76
442421.05
442432.15
442443.95
442457.14
442472.15
442489.44
442509.57
442533.22
442563.05
442637.54
442743.27
442894.31
443109.36
443406.77
443772.77
444093.88
444215.58
444225.55
444229.67
444234.49
444240.2
444247.03
444255.31
444265.46
444278.1
444302.13
444351.67
444433.16
444577.54
444850.86
445351.58
445887.28
445958.31
445961
445964.41
445969.19
445982.33
446004.52
446046.21
446135.81
446366.4
447024.31
447589.71
447593.23
447597.63
447604.69
447617.11
447642.01
447702.44
447899.12
448694.96
449117.55
449121.2
449126.41
449134.11
449145.79
449164.74
449195.94
449249.61
449342.36
449490.82
449692.2
449907.55
450097.1
450240.66
450343.43
450412.89
450455.94
450479.71
450491.06
450495.88
450497.81
450498.6
450498.96
450499.17
450499.31
450499.4
450499.46
450499.49
450499.52
450499.53
450499.53
450499.52
450499.51
450499.5
450499.49
450499.47
450499.45
450499.43
450499.41
450499.4
450499.38
450499.36
450499.34
450499.37
450499.36
450499.33
538.10215
478.71092
473.73587
473.63779
473.74357
473.73908
473.71683
473.70167
473.69426
473.69294
473.69678
473.70554
473.7194
473.73899
473.7653
473.80036
473.84615
473.91074
473.98934
474.15549
474.18282
475.00221
481.4069
11738.716
345059.18
340999.43
340833.05
340822.33
340885.34
340987.09
341098.74
341213.53
341332.66
341453.21
341569.74
341676.69
341790.15
341867.45
341893.01
341902.64
341910.12
341918.08
341927
341937.16
341948.88
341962.54
341978.6
341998.92
342049.61
342121.59
342224.42
342370.82
342573.26
342822.26
343040.47
343122.98
343129.71
343132.49
343135.76
343139.63
343144.26
343149.88
343156.77
343165.36
343181.72
343215.41
343270.86
343369.1
343555.07
343895.65
344259.55
344307.64
344309.46
344311.77
344315.02
344323.94
344339.03
344367.37
344428.28
344585.08
345032.33
345416.04
345418.41
345421.4
345426.19
345434.63
345451.54
345492.6
345626.25
346166.87
346453.43
346455.9
346459.44
346464.66
346472.59
346485.45
346506.64
346543.07
346606.04
346706.83
346843.52
346989.66
347118.3
347215.72
347285.45
347332.58
347361.79
347377.92
347385.62
347388.9
347390.21
347390.74
347390.99
347391.13
347391.22
347391.28
347391.32
347391.34
347391.36
347391.36
347391.36
347391.36
347391.35
347391.34
347391.33
347391.32
347391.3
347391.29
347391.27
347391.26
347391.24
347391.24
347391.22
347391.24
347391.23
347391.2
535.35441
474.49723
469.42861
469.31186
469.41455
469.40882
469.38565
469.36984
469.36199
469.36037
469.36404
469.37272
469.38659
469.40627
469.43277
469.46814
469.51433
469.57958
469.65875
469.82679
469.85355
470.67536
476.949
11018.986
267300.33
264380.09
264205.4
264190.23
264230.26
264298.27
264373.65
264451.49
264532.45
264614.48
264693.84
264766.66
264843.81
264896.48
264913.81
264920.28
264925.29
264930.65
264936.67
264943.54
264951.5
264960.78
264971.71
264985.58
265020.2
265069.37
265139.63
265239.68
265378.01
265548.06
265696.93
265753.08
265757.63
265759.51
265761.72
265764.34
265767.49
265771.31
265776
265781.86
265793.02
265816.03
265853.9
265921.01
266048.04
266280.63
266528.83
266561.52
266562.75
266564.32
266566.53
266572.61
266582.9
266602.24
266643.83
266750.88
267056.16
267317.64
267319.25
267321.28
267324.55
267330.29
267341.82
267369.84
267461.03
267829.82
268024.96
268026.64
268029.05
268032.6
268038
268046.78
268061.22
268086.06
268129
268197.71
268290.89
268390.51
268478.19
268544.58
268592.11
268624.23
268644.13
268655.13
268660.38
268662.61
268663.51
268663.87
268664.04
268664.14
268664.2
268664.24
268664.26
268664.28
268664.28
268664.29
268664.28
268664.28
268664.27
268664.26
268664.25
268664.24
268664.23
268664.22
268664.21
268664.19
268664.18
268664.17
268664.16
268664.17
268664.16
268664.14
532.2701
469.73158
464.5542
464.41614
464.51509
464.50789
464.48366
464.46709
464.45872
464.45676
464.46022
464.4688
464.48268
464.50247
464.52917
464.56488
464.61153
464.67751
464.75732
464.9275
464.95348
465.78011
471.87401
10278.245
207555.64
205418.03
205230.36
205210.81
205234.69
205279.48
205330.03
205382.64
205437.59
205493.4
205547.45
205597.08
205649.6
205685.51
205697.23
205701.53
205704.85
205708.41
205712.45
205717.08
205722.46
205728.76
205736.19
205745.67
205769.36
205803.04
205851.18
205919.75
206014.54
206131.04
206232.9
206271.22
206274.29
206275.55
206277.04
206278.82
206280.96
206283.55
206286.75
206290.74
206298.38
206314.13
206340.07
206386.05
206473.11
206632.45
206802.27
206824.55
206825.39
206826.45
206827.95
206832.11
206839.15
206852.38
206880.86
206954.18
207163.24
207342.01
207343.1
207344.49
207346.71
207350.64
207358.53
207377.7
207440.12
207692.54
207825.86
207827.01
207828.65
207831.08
207834.77
207840.77
207850.65
207867.66
207897.03
207944.05
208007.79
208075.94
208135.91
208181.32
208213.83
208235.79
208249.41
208256.93
208260.53
208262.06
208262.67
208262.92
208263.03
208263.1
208263.14
208263.17
208263.18
208263.19
208263.19
208263.19
208263.19
208263.18
208263.17
208263.17
208263.16
208263.15
208263.13
208263.12
208263.11
208263.1
208263.09
208263.09
208263.07
208263.08
208263.07
208263.05
528.82684
464.36528
459.06166
458.89928
458.99373
458.98479
458.95931
458.94185
458.93289
458.93052
458.93373
458.9422
458.95608
458.97598
459.00292
459.039
459.08615
459.15296
459.23348
459.4061
459.43097
460.26574
466.11858
9521.825
161484.2
159890.21
159685.68
159661.54
159673.74
159702.33
159735.72
159770.96
159808.05
159845.88
159882.61
159916.37
159952.09
159976.54
159984.4
159987.19
159989.32
159991.65
159994.31
159997.39
160001
160005.24
160010.28
160016.75
160032.97
160056.07
160089.11
160136.2
160201.31
160281.29
160351.15
160377.35
160379.42
160380.25
160381.25
160382.44
160383.88
160385.64
160387.81
160390.53
160395.76
160406.57
160424.37
160455.95
160515.74
160625.18
160741.67
160756.89
160757.45
160758.16
160759.18
160762.02
160766.84
160775.92
160795.47
160845.81
160989.35
161111.88
161112.63
161113.57
161115.09
161117.77
161123.18
161136.33
161179.17
161352.39
161443.73
161444.51
161445.63
161447.3
161449.83
161453.94
161460.73
161472.4
161492.56
161524.82
161568.56
161615.31
161656.45
161687.61
161709.91
161724.98
161734.33
161739.49
161741.96
161743.01
161743.43
161743.6
161743.68
161743.72
161743.75
161743.77
161743.78
161743.78
161743.78
161743.77
161743.77
161743.76
161743.75
161743.74
161743.73
161743.72
161743.71
161743.7
161743.69
161743.68
161743.67
161743.66
161743.65
161743.65
161743.64
161743.62
525.00435
458.34889
452.89904
452.70889
452.7979
452.78689
452.75996
452.74149
452.73182
452.72899
452.7319
452.74022
452.75409
452.77411
452.8013
452.8378
452.88552
452.95324
453.03453
453.20991
453.23328
454.08062
459.61737
8755.9808
125853.35
124642.51
124417.71
124388.5
124391.94
124409.01
124430.38
124453.53
124478.25
124503.67
124528.46
124551.3
124575.5
124592.05
124597.23
124598.94
124600.24
124601.68
124603.38
124605.38
124607.75
124610.58
124613.95
124618.34
124629.44
124645.28
124667.98
124700.35
124745.13
124800.14
124848.12
124866.05
124867.43
124867.96
124868.61
124869.4
124870.36
124871.54
124873.01
124874.85
124878.43
124885.84
124898.08
124919.8
124960.95
125036.25
125116.31
125126.72
125127.09
125127.56
125128.25
125130.19
125133.49
125139.72
125153.16
125187.8
125286.55
125370.71
125371.21
125371.84
125372.88
125374.72
125378.42
125387.46
125416.93
125536.05
125598.75
125599.29
125600.05
125601.19
125602.93
125605.76
125610.43
125618.47
125632.34
125654.54
125684.63
125716.78
125745.09
125766.52
125781.86
125792.23
125798.66
125802.22
125803.92
125804.64
125804.93
125805.05
125805.11
125805.14
125805.15
125805.16
125805.17
125805.16
125805.16
125805.15
125805.14
125805.14
125805.12
125805.11
125805.1
125805.09
125805.08
125805.07
125805.06
125805.05
125805.04
125805.03
125805.02
125805.01
125805
125804.98
520.7856
451.63332
446.01442
445.79247
445.87489
445.86141
445.8328
445.81314
445.80266
445.79927
445.80184
445.80999
445.82382
445.84397
445.87143
445.90838
445.95672
446.02546
446.10759
446.2861
446.30742
447.1732
452.30424
7987.7471
98232.812
97297.695
97049.561
97014.559
97011.06
97019.707
97032.484
97047.108
97063.167
97079.939
97096.432
97111.685
97127.923