/*--------------------------------*- C++ -*----------------------------------*\
| =========                 |                                                 |
| \\      /  F ield         | OpenFOAM: The Open Source CFD Toolbox           |
|  \\    /   O peration     | Version:  2206                                  |
|   \\  /    A nd           | Website:  www.openfoam.com                      |
|    \\/     M anipulation  |                                                 |
\*---------------------------------------------------------------------------*/
FoamFile
{
    version     2.0;
    format      ascii;
    arch        "LSB;label=32;scalar=64";
    class       volScalarField;
    location    "800";
    object      p;
}
// * * * * * * * * * * * * * * * * * * * * * * * * * * * * * * * * * * * * * //

dimensions      [0 2 -2 0 0 0 0];

internalField   nonuniform List<scalar> 
13056
(
0.01202836
0.012131865
0.012351293
0.012631465
0.012970912
0.01336989
0.013826539
0.014340059
0.014911772
0.015544895
0.016244425
0.017017481
0.017873909
0.01882763
0.019897584
0.021112949
0.022510639
0.024165966
0.026141038
0.028722679
0.031844649
0.037251974
0.042373905
0.081269571
0.051475557
0.0023625709
0.0010485803
0.0019245909
0.0024801872
0.0029210913
0.0031872957
0.0033756887
0.0035179543
0.0036199787
0.0036917223
0.0037428948
0.003779623
0.0038055435
0.0038229461
0.0038338124
0.0038395796
0.0038410958
0.0038391417
0.003834399
0.0038272606
0.0038180332
0.0038069994
0.0037943689
0.0037803215
0.003764988
0.0037484402
0.0037307575
0.0037120012
0.0036922141
0.0036714399
0.0036496849
0.0036269353
0.0036031931
0.0035784459
0.0035526743
0.0035258525
0.0034979542
0.0034689246
0.0034386885
0.0034071714
0.0033742952
0.0033399833
0.0033041515
0.0032667068
0.0032275688
0.0031866406
0.0031438056
0.0030989508
0.003051969
0.0030027575
0.0029512516
0.0028974179
0.0028413158
0.0027830372
0.0027226262
0.0026603472
0.002596519
0.0025315478
0.0024663687
0.0024023968
0.0023415699
0.0022869016
0.0022426607
0.0022121808
0.0022033845
0.0022213312
0.0022704179
0.0023596195
0.002494577
0.0026793604
0.0029137902
0.0031904946
0.0035054
0.0038435375
0.0041569106
0.0043978971
0.0045427103
0.0045863678
0.0045438094
0.0044459223
0.0043188065
0.004175149
0.0040258774
0.0038747035
0.003720328
0.0035659409
0.0034094104
0.0032472193
0.0030832859
0.0029193711
0.0027569108
0.0025981795
0.0024415559
0.0022864234
0.0021355348
0.0019885667
0.0018439164
0.0017021329
0.0015648838
0.0014319676
0.001301791
0.0011752849
0.0010530847
0.0009373025
0.00082749128
0.00072624857
0.00063007139
0.00056794293
0.00048137792
0.00066686084
-0.0005132036
0.01202836
0.012131865
0.012351293
0.012631465
0.012970912
0.01336989
0.013826539
0.01434006
0.014911773
0.015544896
0.016244426
0.017017482
0.01787391
0.018827631
0.019897585
0.021112952
0.022510643
0.02416597
0.026141044
0.028722688
0.031844661
0.037251999
0.042373952
0.081264758
0.051486958
0.0023698396
0.0010504404
0.0019254324
0.0024807025
0.0029214535
0.0031875697
0.0033759064
0.0035181325
0.003620128
0.0036918496
0.0037430051
0.0037797196
0.003805629
0.0038230223
0.0038338808
0.0038396414
0.003841152
0.003839193
0.003834446
0.0038273039
0.0038180731
0.0038070364
0.0037944032
0.0037803535
0.0037650178
0.003748468
0.0037307836
0.0037120257
0.0036922371
0.0036714615
0.0036497053
0.0036269545
0.0036032113
0.003578463
0.0035526905
0.0035258679
0.0034979688
0.0034689385
0.0034387016
0.0034071839
0.003374307
0.0033399946
0.0033041621
0.0032667169
0.0032275784
0.0031866497
0.0031438143
0.003098959
0.0030519768
0.0030027649
0.0029512586
0.0028974245
0.002841322
0.002783043
0.0027226316
0.0026603522
0.0025965236
0.0025315521
0.0024663726
0.0024024002
0.0023415729
0.0022869041
0.0022426627
0.0022121822
0.0022033853
0.0022213313
0.0022704172
0.002359618
0.0024945746
0.0026793571
0.002913786
0.0031904896
0.0035053944
0.0038435314
0.0041569045
0.0043978915
0.0045427055
0.0045863639
0.0045438067
0.0044459204
0.0043188052
0.0041751481
0.0040258768
0.0038747031
0.0037203278
0.0035659408
0.0034094104
0.0032472195
0.0030832862
0.0029193714
0.0027569112
0.0025981799
0.0024415563
0.0022864239
0.0021355353
0.0019885672
0.0018439169
0.0017021334
0.0015648843
0.0014319681
0.0013017915
0.0011752853
0.0010530852
0.00093730297
0.00082749174
0.00072624904
0.00063007185
0.00056794343
0.00048137846
0.0006668614
-0.00051320325
0.01202836
0.012131865
0.012351293
0.012631465
0.012970912
0.01336989
0.01382654
0.01434006
0.014911773
0.015544896
0.016244426
0.017017482
0.017873911
0.018827633
0.019897587
0.021112954
0.022510646
0.024165975
0.02614105
0.028722699
0.031844675
0.037252027
0.042373988
0.081259885
0.051502657
0.0023768807
0.0010526465
0.0019264386
0.0024813186
0.0029218868
0.0031878974
0.0033761668
0.0035183457
0.0036203064
0.0036920019
0.0037431369
0.0037798351
0.0038057311
0.0038231134
0.0038339627
0.0038397154
0.0038412192
0.0038392543
0.0038345022
0.0038273556
0.0038181209
0.0038070806
0.0037944442
0.0037803917
0.0037650534
0.0037485013
0.0037308148
0.0037120549
0.0036922646
0.0036714874
0.0036497297
0.0036269775
0.003603233
0.0035784836
0.00355271
0.0035258863
0.0034979863
0.003468955
0.0034387173
0.0034071988
0.0033743212
0.003340008
0.0033041749
0.003266729
0.0032275899
0.0031866607
0.0031438247
0.0030989688
0.0030519861
0.0030027737
0.0029512669
0.0028974323
0.0028413294
0.0027830499
0.0027226381
0.0026603583
0.0025965292
0.0025315572
0.0024663772
0.0024024043
0.0023415765
0.0022869071
0.0022426651
0.0022121838
0.0022033862
0.0022213314
0.0022704164
0.0023596162
0.0024945717
0.0026793532
0.0029137811
0.0031904837
0.0035053877
0.0038435242
0.0041568972
0.0043978847
0.0045426998
0.0045863593
0.0045438034
0.0044459181
0.0043188036
0.004175147
0.0040258761
0.0038747027
0.0037203276
0.0035659407
0.0034094105
0.0032472196
0.0030832864
0.0029193718
0.0027569116
0.0025981804
0.0024415568
0.0022864244
0.0021355358
0.0019885678
0.0018439176
0.001702134
0.0015648849
0.0014319687
0.0013017921
0.0011752859
0.0010530857
0.00093730353
0.00082749229
0.00072624959
0.0006300724
0.00056794404
0.00048137909
0.00066686206
-0.00051320283
0.01202836
0.012131865
0.012351293
0.012631465
0.012970912
0.01336989
0.01382654
0.01434006
0.014911773
0.015544897
0.016244427
0.017017483
0.017873912
0.018827635
0.019897589
0.021112957
0.02251065
0.02416598
0.026141057
0.028722709
0.031844688
0.037252054
0.042374024
0.081255118
0.051520164
0.0023820965
0.0010547221
0.0019274243
0.0024819223
0.0029223112
0.0031882184
0.0033764219
0.0035185545
0.0036204813
0.0036921511
0.0037432661
0.0037799482
0.0038058312
0.0038232026
0.0038340428
0.0038397878
0.003841285
0.0038393144
0.0038345572
0.0038274062
0.0038181677
0.0038071239
0.0037944844
0.0037804291
0.0037650884
0.003748534
0.0037308454
0.0037120836
0.0036922916
0.0036715128
0.0036497536
0.0036270001
0.0036032543
0.0035785037
0.003552729
0.0035259044
0.0034980033
0.0034689712
0.0034387326
0.0034072134
0.003374335
0.0033400212
0.0033041874
0.0032667409
0.0032276012
0.0031866714
0.0031438349
0.0030989785
0.0030519952
0.0030027824
0.0029512751
0.00289744
0.0028413367
0.0027830567
0.0027226444
0.0026603642
0.0025965346
0.0025315622
0.0024663817
0.0024024084
0.00234158
0.00228691
0.0022426674
0.0022121855
0.0022033871
0.0022213315
0.0022704156
0.0023596144
0.0024945689
0.0026793493
0.0029137762
0.0031904779
0.0035053812
0.0038435171
0.0041568901
0.0043978781
0.0045426942
0.0045863549
0.0045438002
0.0044459159
0.0043188021
0.004175146
0.0040258754
0.0038747023
0.0037203274
0.0035659407
0.0034094105
0.0032472198
0.0030832867
0.0029193721
0.002756912
0.0025981809
0.0024415574
0.002286425
0.0021355364
0.0019885684
0.0018439181
0.0017021346
0.0015648855
0.0014319693
0.0013017927
0.0011752865
0.0010530863
0.00093730408
0.00082749283
0.00072625014
0.00063007294
0.00056794463
0.00048137969
0.00066686271
-0.00051320244
0.01202836
0.012131865
0.012351294
0.012631465
0.012970912
0.01336989
0.01382654
0.014340061
0.014911774
0.015544898
0.016244428
0.017017484
0.017873914
0.018827636
0.019897592
0.02111296
0.022510653
0.024165985
0.026141063
0.028722719
0.031844701
0.037252081
0.042374064
0.081250012
0.051538764
0.0023879099
0.0010568211
0.0019284334
0.0024825405
0.0029227458
0.0031885471
0.0033766831
0.0035187683
0.0036206603
0.0036923038
0.0037433983
0.0037800641
0.0038059337
0.003823294
0.0038341249
0.003839862
0.0038413524
0.0038393759
0.0038346136
0.0038274581
0.0038182155
0.0038071683
0.0037945256
0.0037804675
0.0037651241
0.0037485674
0.0037308767
0.003712113
0.0036923192
0.0036715388
0.0036497781
0.0036270231
0.0036032761
0.0035785243
0.0035527485
0.0035259229
0.0034980208
0.0034689878
0.0034387484
0.0034072283
0.0033743492
0.0033400346
0.0033042002
0.003266753
0.0032276128
0.0031866823
0.0031438453
0.0030989884
0.0030520046
0.0030027912
0.0029512835
0.0028974479
0.0028413441
0.0027830637
0.002722651
0.0026603702
0.0025965402
0.0025315673
0.0024663864
0.0024024125
0.0023415836
0.0022869131
0.0022426699
0.0022121872
0.002203388
0.0022213316
0.0022704148
0.0023596126
0.0024945661
0.0026793453
0.0029137712
0.003190472
0.0035053745
0.0038435098
0.0041568827
0.0043978713
0.0045426885
0.0045863505
0.004543797
0.0044459136
0.0043188005
0.0041751449
0.0040258747
0.0038747018
0.0037203271
0.0035659406
0.0034094106
0.00324722
0.0030832869
0.0029193725
0.0027569125
0.0025981814
0.0024415579
0.0022864256
0.002135537
0.001988569
0.0018439187
0.0017021352
0.0015648861
0.0014319699
0.0013017933
0.0011752871
0.0010530869
0.00093730464
0.00082749338
0.00072625069
0.00063007349
0.00056794523
0.00048138029
0.00066686338
-0.00051320205
0.01202836
0.012131865
0.012351294
0.012631465
0.012970912
0.013369891
0.01382654
0.014340061
0.014911774
0.015544898
0.016244429
0.017017485
0.017873915
0.018827638
0.019897594
0.021112963
0.022510657
0.02416599
0.02614107
0.028722731
0.031844716
0.037252109
0.042374111
0.081244343
0.051558151
0.0023951464
0.0010590534
0.0019295052
0.0024831971
0.0029232075
0.0031888962
0.0033769606
0.0035189954
0.0036208504
0.003692466
0.0037435388
0.0037801871
0.0038060425
0.0038233911
0.003834212
0.0038399408
0.003841424
0.0038394413
0.0038346735
0.0038275132
0.0038182664
0.0038072154
0.0037945694
0.0037805082
0.0037651621
0.0037486029
0.0037309099
0.0037121442
0.0036923485
0.0036715663
0.0036498041
0.0036270477
0.0036032993
0.0035785462
0.0035527692
0.0035259425
0.0034980394
0.0034690054
0.0034387651
0.0034072442
0.0033743643
0.0033400489
0.0033042138
0.0032667659
0.003227625
0.003186694
0.0031438563
0.0030989988
0.0030520145
0.0030028006
0.0029512924
0.0028974563
0.002841352
0.0027830711
0.0027226579
0.0026603766
0.0025965461
0.0025315727
0.0024663913
0.0024024169
0.0023415874
0.0022869163
0.0022426724
0.002212189
0.002203389
0.0022213317
0.0022704139
0.0023596107
0.002494563
0.0026793411
0.0029137658
0.0031904657
0.0035053673
0.0038435021
0.004156875
0.0043978641
0.0045426824
0.0045863458
0.0045437935
0.0044459112
0.0043187988
0.0041751438
0.004025874
0.0038747014
0.0037203269
0.0035659405
0.0034094106
0.0032472201
0.0030832872
0.0029193728
0.0027569129
0.0025981819
0.0024415585
0.0022864262
0.0021355376
0.0019885696
0.0018439194
0.0017021359
0.0015648867
0.0014319705
0.0013017939
0.0011752877
0.0010530875
0.00093730524
0.00082749397
0.00072625128
0.00063007407
0.00056794587
0.00048138093
0.00066686409
-0.00051320163
0.01202836
0.012131865
0.012351294
0.012631466
0.012970913
0.013369891
0.013826541
0.014340062
0.014911775
0.015544899
0.01624443
0.017017487
0.017873917
0.01882764
0.019897596
0.021112966
0.022510662
0.024165997
0.026141078
0.028722743
0.031844733
0.03725214
0.042374167
0.081238
0.051578556
0.0024031324
0.0010614587
0.0019306586
0.0024839039
0.0029237045
0.003189272
0.0033772592
0.0035192399
0.0036210551
0.0036926407
0.00374369
0.0037803196
0.0038061597
0.0038234956
0.0038343059
0.0038400255
0.003841501
0.0038395116
0.003834738
0.0038275725
0.0038183212
0.0038072661
0.0037946164
0.003780552
0.003765203
0.0037486411
0.0037309457
0.0037121778
0.00369238
0.003671596
0.0036498321
0.0036270741
0.0036033242
0.0035785698
0.0035527915
0.0035259636
0.0034980594
0.0034690244
0.0034387831
0.0034072613
0.0033743805
0.0033400643
0.0033042284
0.0032667798
0.0032276382
0.0031867065
0.0031438682
0.0030990101
0.0030520252
0.0030028108
0.0029513019
0.0028974654
0.0028413605
0.0027830791
0.0027226653
0.0026603836
0.0025965525
0.0025315786
0.0024663965
0.0024024216
0.0023415915
0.0022869197
0.0022426752
0.0022121909
0.00220339
0.0022213318
0.0022704129
0.0023596086
0.0024945598
0.0026793366
0.0029137601
0.003190459
0.0035053597
0.0038434938
0.0041568666
0.0043978563
0.0045426759
0.0045863407
0.0045437898
0.0044459086
0.004318797
0.0041751425
0.0040258731
0.0038747008
0.0037203266
0.0035659404
0.0034094107
0.0032472203
0.0030832875
0.0029193733
0.0027569134
0.0025981825
0.0024415591
0.0022864268
0.0021355383
0.0019885703
0.0018439201
0.0017021365
0.0015648874
0.0014319712
0.0013017946
0.0011752883
0.0010530881
0.00093730588
0.00082749461
0.00072625192
0.0006300747
0.00056794656
0.00048138163
0.00066686485
-0.00051320118
0.01202836
0.012131865
0.012351294
0.012631466
0.012970913
0.013369891
0.013826541
0.014340062
0.014911776
0.0155449
0.016244431
0.017017488
0.017873918
0.018827642
0.019897599
0.02111297
0.022510667
0.024166004
0.026141087
0.028722757
0.031844751
0.037252174
0.042374232
0.081230844
0.051600252
0.0024117066
0.0010640666
0.0019319093
0.0024846705
0.0029242434
0.0031896796
0.0033775831
0.003519505
0.0036212771
0.00369283
0.003743854
0.0037804632
0.0038062867
0.0038236088
0.0038344076
0.0038401175
0.0038415846
0.0038395878
0.0038348079
0.0038276368
0.0038183805
0.0038073211
0.0037946675
0.0037805995
0.0037652473
0.0037486826
0.0037309845
0.0037122142
0.0036924143
0.0036716282
0.0036498624
0.0036271027
0.0036033512
0.0035785953
0.0035528157
0.0035259865
0.0034980811
0.0034690449
0.0034388026
0.0034072798
0.0033743981
0.003340081
0.0033042443
0.0032667949
0.0032276525
0.0031867201
0.0031438811
0.0030990224
0.0030520368
0.0030028217
0.0029513123
0.0028974752
0.0028413697
0.0027830877
0.0027226734
0.0026603911
0.0025965595
0.0025315849
0.0024664023
0.0024024267
0.0023415959
0.0022869235
0.0022426782
0.002212193
0.0022033912
0.0022213319
0.0022704119
0.0023596064
0.0024945562
0.0026793317
0.0029137539
0.0031904516
0.0035053514
0.0038434848
0.0041568575
0.0043978479
0.0045426688
0.0045863352
0.0045437858
0.0044459057
0.004318795
0.0041751412
0.0040258723
0.0038747003
0.0037203263
0.0035659403
0.0034094107
0.0032472205
0.0030832879
0.0029193737
0.002756914
0.0025981831
0.0024415597
0.0022864275
0.002135539
0.0019885711
0.0018439208
0.0017021373
0.0015648881
0.0014319719
0.0013017953
0.0011752891
0.0010530888
0.00093730658
0.00082749529
0.00072625261
0.00063007539
0.00056794731
0.00048138238
0.00066686568
-0.00051320069
0.01202836
0.012131865
0.012351294
0.012631466
0.012970913
0.013369892
0.013826542
0.014340063
0.014911776
0.015544901
0.016244432
0.01701749
0.01787392
0.018827645
0.019897603
0.021112974
0.022510673
0.024166011
0.026141098
0.028722773
0.031844773
0.037252213
0.042374309
0.081222699
0.051623472
0.0024210045
0.0010669135
0.0019332751
0.0024855077
0.0029248321
0.0031901248
0.0033779368
0.0035197945
0.0036215195
0.0036930369
0.0037440331
0.0037806201
0.0038064255
0.0038237326
0.0038345187
0.0038402179
0.0038416758
0.0038396711
0.0038348842
0.0038277071
0.0038184454
0.0038073811
0.0037947232
0.0037806514
0.0037652957
0.0037487278
0.0037310269
0.0037122539
0.0036924516
0.0036716634
0.0036498955
0.0036271339
0.0036033807
0.0035786232
0.0035528421
0.0035260115
0.0034981048
0.0034690674
0.0034388239
0.0034073
0.0033744173
0.0033400993
0.0033042616
0.0032668114
0.0032276682
0.003186735
0.0031438952
0.0030990357
0.0030520495
0.0030028337
0.0029513237
0.0028974859
0.0028413798
0.0027830972
0.0027226822
0.0026603992
0.002596567
0.0025315918
0.0024664085
0.0024024323
0.0023416008
0.0022869275
0.0022426814
0.0022121952
0.0022033924
0.0022213321
0.0022704108
0.0023596039
0.0024945523
0.0026793263
0.0029137471
0.0031904436
0.0035053423
0.0038434749
0.0041568476
0.0043978388
0.0045426611
0.0045863292
0.0045437813
0.0044459026
0.0043187929
0.0041751397
0.0040258713
0.0038746997
0.003720326
0.0035659402
0.0034094108
0.0032472207
0.0030832882
0.0029193742
0.0027569145
0.0025981837
0.0024415604
0.0022864283
0.0021355398
0.0019885719
0.0018439216
0.0017021381
0.0015648889
0.0014319727
0.0013017961
0.0011752898
0.0010530896
0.00093730734
0.00082749604
0.00072625336
0.00063007613
0.00056794812
0.0004813832
0.00066686658
-0.00051320015
0.01202836
0.012131865
0.012351294
0.012631466
0.012970914
0.013369892
0.013826542
0.014340063
0.014911777
0.015544902
0.016244433
0.017017491
0.017873923
0.018827648
0.019897607
0.02111298
0.022510679
0.024166021
0.02614111
0.028722792
0.031844797
0.037252258
0.042374399
0.081213353
0.051648423
0.0024311901
0.0010700418
0.0019347763
0.0024864282
0.0029254793
0.0031906142
0.0033783257
0.0035201129
0.003621786
0.0036932642
0.0037442299
0.0037807925
0.003806578
0.0038238686
0.0038346409
0.0038403283
0.0038417762
0.0038397627
0.0038349681
0.0038277843
0.0038185167
0.0038074471
0.0037947845
0.0037807084
0.0037653489
0.0037487776
0.0037310735
0.0037122976
0.0036924927
0.003671702
0.0036499319
0.0036271683
0.0036034132
0.0035786539
0.0035528711
0.0035260389
0.0034981309
0.0034690921
0.0034388473
0.0034073222
0.0033744384
0.0033401193
0.0033042806
0.0032668295
0.0032276853
0.0031867513
0.0031439107
0.0030990504
0.0030520634
0.0030028469
0.0029513361
0.0028974976
0.0028413908
0.0027831076
0.0027226919
0.0026604082
0.0025965753
0.0025315994
0.0024664154
0.0024024384
0.0023416061
0.002286932
0.002242685
0.0022121977
0.0022033937
0.0022213322
0.0022704096
0.0023596012
0.0024945481
0.0026793205
0.0029137397
0.0031904348
0.0035053323
0.0038434641
0.0041568367
0.0043978287
0.0045426526
0.0045863226
0.0045437765
0.0044458992
0.0043187905
0.0041751381
0.0040258702
0.003874699
0.0037203256
0.0035659401
0.0034094109
0.003247221
0.0030832886
0.0029193747
0.0027569152
0.0025981845
0.0024415612
0.0022864291
0.0021355407
0.0019885728
0.0018439225
0.001702139
0.0015648898
0.0014319736
0.001301797
0.0011752907
0.0010530904
0.00093730818
0.00082749687
0.00072625419
0.00063007695
0.00056794902
0.0004813841
0.00066686757
-0.00051319956
0.01202836
0.012131866
0.012351295
0.012631466
0.012970914
0.013369892
0.013826543
0.014340064
0.014911778
0.015544903
0.016244435
0.017017494
0.017873925
0.018827651
0.019897611
0.021112985
0.022510687
0.024166031
0.026141123
0.028722813
0.031844825
0.037252308
0.042374505
0.081202551
0.051675306
0.0024424158
0.0010734978
0.0019364352
0.0024874457
0.0029261947
0.0031911552
0.0033787555
0.0035204647
0.0036220806
0.0036935155
0.0037444475
0.0037809832
0.0038067466
0.0038240189
0.0038347759
0.0038404503
0.003841887
0.0038398639
0.0038350609
0.0038278696
0.0038185954
0.0038075201
0.0037948523
0.0037807715
0.0037654077
0.0037488325
0.003731125
0.003712346
0.0036925381
0.0036717448
0.0036499722
0.0036272062
0.003603449
0.0035786878
0.0035529032
0.0035260693
0.0034981596
0.0034691194
0.0034388732
0.0034073468
0.0033744617
0.0033401415
0.0033043017
0.0032668495
0.0032277043
0.0031867693
0.0031439278
0.0030990667
0.0030520788
0.0030028615
0.0029513499
0.0028975106
0.0028414031
0.002783119
0.0027227026
0.0026604182
0.0025965845
0.0025316078
0.002466423
0.0024024452
0.002341612
0.002286937
0.002242689
0.0022122005
0.0022033952
0.0022213324
0.0022704082
0.0023595983
0.0024945433
0.0026793139
0.0029137315
0.003190425
0.0035053213
0.0038434522
0.0041568246
0.0043978175
0.0045426432
0.0045863153
0.0045437711
0.0044458954
0.0043187879
0.0041751364
0.0040258691
0.0038746983
0.0037203252
0.0035659399
0.003409411
0.0032472212
0.003083289
0.0029193753
0.0027569159
0.0025981853
0.0024415621
0.0022864301
0.0021355417
0.0019885738
0.0018439235
0.00170214
0.0015648908
0.0014319746
0.0013017979
0.0011752916
0.0010530914
0.0009373091
0.00082749778
0.00072625511
0.00063007786
0.00056795001
0.00048138509
0.00066686867
-0.00051319891
0.01202836
0.012131866
0.012351295
0.012631467
0.012970914
0.013369893
0.013826544
0.014340065
0.014911779
0.015544905
0.016244437
0.017017496
0.017873929
0.018827655
0.019897616
0.021112992
0.022510696
0.024166043
0.026141139
0.028722837
0.031844857
0.037252365
0.04237463
0.081189989
0.051704305
0.002454842
0.0010773327
0.0019382767
0.0024885755
0.002926989
0.0031917559
0.0033792327
0.0035208553
0.0036224077
0.0036937946
0.0037446891
0.0037811948
0.0038069337
0.0038241858
0.0038349258
0.0038405858
0.0038420101
0.0038399762
0.0038351639
0.0038279644
0.0038186829
0.003807601
0.0037949274
0.0037808415
0.003765473
0.0037488936
0.0037311821
0.0037123996
0.0036925885
0.0036717922
0.0036500169
0.0036272484
0.0036034888
0.0035787254
0.0035529388
0.003526103
0.0034981916
0.0034691497
0.003438902
0.0034073741
0.0033744876
0.0033401661
0.003304325
0.0032668717
0.0032277254
0.0031867893
0.0031439468
0.0030990847
0.0030520959
0.0030028776
0.0029513652
0.002897525
0.0028414166
0.0027831318
0.0027227145
0.0026604292
0.0025965947
0.0025316171
0.0024664315
0.0024024527
0.0023416186
0.0022869425
0.0022426933
0.0022122035
0.0022033969
0.0022213326
0.0022704067
0.0023595949
0.0024945381
0.0026793067
0.0029137223
0.0031904142
0.003505309
0.0038434389
0.0041568113
0.0043978051
0.0045426327
0.0045863072
0.0045437652
0.0044458912
0.004318785
0.0041751344
0.0040258678
0.0038746975
0.0037203248
0.0035659398
0.0034094111
0.0032472215
0.0030832895
0.0029193759
0.0027569167
0.0025981862
0.0024415631
0.0022864311
0.0021355428
0.0019885749
0.0018439246
0.0017021411
0.0015648919
0.0014319757
0.001301799
0.0011752927
0.0010530924
0.00093731013
0.00082749879
0.00072625613
0.00063007887
0.00056795111
0.0004813862
0.00066686988
-0.00051319819
0.01202836
0.012131866
0.012351295
0.012631467
0.012970915
0.013369894
0.013826544
0.014340066
0.014911781
0.015544907
0.016244439
0.017017499
0.017873932
0.01882766
0.019897623
0.021113
0.022510706
0.024166057
0.026141157
0.028722864
0.031844893
0.037252429
0.042374777
0.081175301
0.051735581
0.0024686485
0.0010816032
0.001940328
0.0024898343
0.0029278741
0.0031924252
0.0033797645
0.0035212906
0.0036227721
0.0036941054
0.0037449583
0.0037814305
0.0038071423
0.0038243718
0.0038350928
0.0038407367
0.0038421472
0.0038401014
0.0038352786
0.0038280699
0.0038187803
0.0038076913
0.0037950112
0.0037809195
0.0037655458
0.0037489616
0.0037312458
0.0037124594
0.0036926446
0.003671845
0.0036500667
0.0036272954
0.0036035332
0.0035787674
0.0035529785
0.0035261406
0.0034982272
0.0034691835
0.003438934
0.0034074045
0.0033745165
0.0033401935
0.0033043511
0.0032668964
0.0032277489
0.0031868116
0.003143968
0.0030991048
0.0030521149
0.0030028957
0.0029513822
0.0028975411
0.0028414318
0.0027831459
0.0027227278
0.0026604416
0.0025966061
0.0025316275
0.0024664409
0.0024024611
0.0023416259
0.0022869486
0.0022426982
0.002212207
0.0022033987
0.0022213328
0.002270405
0.0023595912
0.0024945323
0.0026792987
0.0029137121
0.0031904022
0.0035052954
0.0038434242
0.0041567964
0.0043977914
0.0045426211
0.0045862982
0.0045437585
0.0044458866
0.0043187818
0.0041751322
0.0040258663
0.0038746966
0.0037203243
0.0035659396
0.0034094112
0.0032472219
0.0030832901
0.0029193766
0.0027569175
0.0025981872
0.0024415642
0.0022864323
0.002135544
0.0019885761
0.0018439259
0.0017021424
0.0015648932
0.0014319769
0.0013018002
0.0011752939
0.0010530936
0.00093731127
0.00082749991
0.00072625726
0.00063007999
0.00056795234
0.00048138743
0.00066687124
-0.00051319738
0.01202836
0.012131866
0.012351295
0.012631468
0.012970915
0.013369894
0.013826545
0.014340068
0.014911782
0.015544909
0.016244442
0.017017502
0.017873937
0.018827666
0.01989763
0.021113009
0.022510718
0.024166073
0.026141177
0.028722895
0.031844935
0.0372525
0.042374949
0.081158048
0.051769255
0.0024840389
0.001086372
0.0019426196
0.0024912411
0.0029288633
0.0031931732
0.0033803587
0.0035217769
0.0036231792
0.0036944528
0.003745259
0.003781694
0.0038073753
0.0038245796
0.0038352794
0.0038409053
0.0038423004
0.0038402412
0.0038354068
0.0038281879
0.0038188892
0.0038077921
0.0037951048
0.0037810066
0.0037656271
0.0037490376
0.003731317
0.0037125261
0.0036927074
0.0036719041
0.0036501223
0.0036273478
0.0036035828
0.0035788142
0.0035530228
0.0035261826
0.003498267
0.0034692212
0.0034389698
0.0034074385
0.0033745487
0.0033402241
0.0033043802
0.003266924
0.0032277752
0.0031868366
0.0031439916
0.0030991272
0.0030521362
0.0030029158
0.0029514012
0.0028975591
0.0028414487
0.0027831618
0.0027227426
0.0026604553
0.0025966187
0.0025316392
0.0024664514
0.0024024704
0.0023416341
0.0022869555
0.0022427037
0.0022122108
0.0022034008
0.002221333
0.0022704031
0.0023595871
0.0024945257
0.0026792897
0.0029137007
0.0031903887
0.0035052801
0.0038434076
0.0041567797
0.004397776
0.0045426081
0.0045862881
0.0045437511
0.0044458813
0.0043187782
0.0041751297
0.0040258647
0.0038746956
0.0037203237
0.0035659394
0.0034094113
0.0032472222
0.0030832907
0.0029193774
0.0027569185
0.0025981883
0.0024415654
0.0022864335
0.0021355453
0.0019885774
0.0018439272
0.0017021437
0.0015648945
0.0014319782
0.0013018015
0.0011752952
0.0010530949
0.00093731255
0.00082750117
0.00072625852
0.00063008124
0.00056795371
0.0004813888
0.00066687275
-0.00051319648
0.01202836
0.012131866
0.012351296
0.012631468
0.012970916
0.013369895
0.013826547
0.014340069
0.014911784
0.015544911
0.016244445
0.017017506
0.017873941
0.018827672
0.019897638
0.02111302
0.022510731
0.024166092
0.026141201
0.02872293
0.031844982
0.037252579
0.042375152
0.081137702
0.051805401
0.0025012444
0.0010917097
0.0019451856
0.0024928169
0.0029299712
0.003194011
0.0033810242
0.0035223217
0.0036236353
0.0036948418
0.0037455958
0.003781989
0.0038076362
0.0038248123
0.0038354883
0.0038410942
0.003842472
0.0038403978
0.0038355504
0.00382832
0.0038190112
0.003807905
0.0037952097
0.0037811042
0.0037657181
0.0037491227
0.0037313967
0.0037126009
0.0036927776
0.0036719702
0.0036501846
0.0036274066
0.0036036383
0.0035788667
0.0035530724
0.0035262296
0.0034983115
0.0034692634
0.0034390099
0.0034074765
0.0033745848
0.0033402584
0.0033044128
0.003266955
0.0032278046
0.0031868645
0.0031440181
0.0030991523
0.00305216
0.0030029383
0.0029514226
0.0028975792
0.0028414676
0.0027831796
0.0027227591
0.0026604707
0.002596633
0.0025316522
0.0024664632
0.0024024809
0.0023416432
0.0022869631
0.0022427098
0.002212215
0.0022034031
0.0022213333
0.002270401
0.0023595825
0.0024945184
0.0026792796
0.002913688
0.0031903736
0.0035052631
0.0038433892
0.0041567611
0.0043977587
0.0045425936
0.0045862768
0.0045437428
0.0044458755
0.0043187742
0.004175127
0.0040258629
0.0038746944
0.0037203231
0.0035659392
0.0034094114
0.0032472227
0.0030832913
0.0029193783
0.0027569196
0.0025981895
0.0024415668
0.002286435
0.0021355468
0.001988579
0.0018439288
0.0017021453
0.0015648961
0.0014319797
0.001301803
0.0011752967
0.0010530963
0.00093731398
0.00082750258
0.00072625994
0.00063008265
0.00056795524
0.00048139034
0.00066687444
-0.00051319547
0.01202836
0.012131867
0.012351296
0.012631469
0.012970917
0.013369896
0.013826548
0.014340071
0.014911786
0.015544914
0.016244448
0.01701751
0.017873947
0.018827679
0.019897647
0.021113032
0.022510747
0.024166112
0.026141227
0.028722969
0.031845034
0.037252664
0.042375388
0.081113625
0.051844017
0.0025205303
0.0010976947
0.0019480641
0.0024945853
0.0029312147
0.0031949513
0.003381771
0.0035229329
0.0036241471
0.0036952784
0.0037459738
0.0037823201
0.003807929
0.0038250734
0.0038357228
0.0038413061
0.0038426646
0.0038405736
0.0038357114
0.0038284681
0.003819148
0.0038080317
0.0037953273
0.0037812136
0.0037658202
0.0037492181
0.0037314861
0.0037126848
0.0036928565
0.0036720444
0.0036502545
0.0036274726
0.0036037005
0.0035789255
0.0035531281
0.0035262824
0.0034983615
0.0034693108
0.0034390548
0.0034075192
0.0033746254
0.0033402969
0.0033044493
0.0032669897
0.0032278376
0.0031868958
0.0031440479
0.0030991805
0.0030521867
0.0030029636
0.0029514465
0.0028976017
0.0028414888
0.0027831995
0.0027227777
0.002660488
0.0025966489
0.0025316668
0.0024664764
0.0024024927
0.0023416535
0.0022869717
0.0022427167
0.0022122198
0.0022034056
0.0022213335
0.0022703986
0.0023595773
0.0024945102
0.0026792682
0.0029136737
0.0031903567
0.0035052439
0.0038433684
0.0041567402
0.0043977394
0.0045425773
0.0045862642
0.0045437335
0.0044458689
0.0043187696
0.0041751239
0.0040258608
0.0038746931
0.0037203224
0.003565939
0.0034094115
0.0032472231
0.0030832921
0.0029193794
0.0027569208
0.0025981909
0.0024415683
0.0022864366
0.0021355485
0.0019885807
0.0018439305
0.001702147
0.0015648978
0.0014319814
0.0013018047
0.0011752983
0.0010530979
0.00093731559
0.00082750416
0.00072626153
0.00063008422
0.00056795696
0.00048139207
0.00066687634
-0.00051319433
0.01202836
0.012131867
0.012351297
0.01263147
0.012970918
0.013369898
0.013826549
0.014340073
0.014911789
0.015544917
0.016244452
0.017017516
0.017873953
0.018827687
0.019897657
0.021113045
0.022510764
0.024166136
0.026141256
0.028723012
0.031845093
0.037252755
0.042375666
0.081085054
0.051885007
0.0025422036
0.0011044155
0.0019512978
0.0024965729
0.0029326122
0.003196008
0.0033826102
0.0035236198
0.0036247221
0.0036957689
0.0037463985
0.0037826921
0.003808258
0.0038253668
0.0038359863
0.0038415442
0.0038428809
0.003840771
0.0038358924
0.0038286347
0.0038193017
0.003808174
0.0037954594
0.0037813367
0.003765935
0.0037493254
0.0037315866
0.0037127791
0.0036929451
0.0036721277
0.003650333
0.0036275466
0.0036037705
0.0035789917
0.0035531907
0.0035263416
0.0034984177
0.0034693641
0.0034391053
0.0034075671
0.0033746709
0.0033403402
0.0033044904
0.0032670287
0.0032278746
0.003186931
0.0031440813
0.0030992122
0.0030522167
0.0030029921
0.0029514733
0.0028976271
0.0028415127
0.0027832219
0.0027227986
0.0026605074
0.0025966668
0.0025316832
0.0024664912
0.0024025059
0.002341665
0.0022869814
0.0022427244
0.0022122252
0.0022034085
0.0022213338
0.0022703959
0.0023595714
0.002494501
0.0026792555
0.0029136576
0.0031903377
0.0035052224
0.0038433452
0.0041567167
0.0043977177
0.004542559
0.00458625