/*--------------------------------*- C++ -*----------------------------------*\
| =========                 |                                                 |
| \\      /  F ield         | OpenFOAM: The Open Source CFD Toolbox           |
|  \\    /   O peration     | Version:  2206                                  |
|   \\  /    A nd           | Website:  www.openfoam.com                      |
|    \\/     M anipulation  |                                                 |
\*---------------------------------------------------------------------------*/
FoamFile
{
    version     2.0;
    format      ascii;
    arch        "LSB;label=32;scalar=64";
    class       surfaceScalarField;
    location    "800";
    object      phi;
}
// * * * * * * * * * * * * * * * * * * * * * * * * * * * * * * * * * * * * * //

dimensions      [0 3 -1 0 0 0 0];

oriented        oriented;

internalField   nonuniform List<scalar> 
25880
(
2.0046117e-06
4.2495092e-11
2.0045072e-06
1.0441212e-10
2.0043728e-06
1.3448516e-10
2.0042199e-06
1.5281443e-10
2.0040445e-06
1.7539284e-10
2.0038434e-06
2.0117615e-10
2.0036136e-06
2.2981352e-10
2.0033512e-06
2.6240732e-10
2.0030509e-06
3.0028904e-10
2.002706e-06
3.4483357e-10
2.0023083e-06
3.9772455e-10
2.0018469e-06
4.6142864e-10
2.0013077e-06
5.3919902e-10
2.0006707e-06
6.369492e-10
1.9999102e-06
7.6050048e-10
1.9989806e-06
9.2965477e-10
1.9978353e-06
1.1452563e-09
1.9963249e-06
1.5104016e-09
1.9944182e-06
1.9066647e-09
1.9913889e-06
3.0293497e-09
1.9876052e-06
3.7836776e-09
1.9784781e-06
9.1271358e-09
1.9740071e-06
4.4710206e-09
9.9165305e-07
9.8235401e-07
4.375068e-09
9.8727799e-07
2.1103411e-09
2.2647269e-09
1.5971908e-09
5.1315027e-10
1.3493463e-09
2.4784454e-10
1.196259e-09
1.5308725e-10
1.0876509e-09
1.0860817e-10
1.0047405e-09
8.291038e-11
9.3821478e-10
6.6525696e-11
8.8321858e-10
5.4996196e-11
8.3670293e-10
4.6515653e-11
7.9660194e-10
4.0100983e-11
7.615067e-10
3.5095245e-11
7.3042499e-10
3.1081713e-11
7.0262453e-10
2.7800457e-11
6.7754571e-10
2.5078819e-11
6.5475744e-10
2.278827e-11
6.3391294e-10
2.0844499e-11
6.1473743e-10
1.9175514e-11
5.970133e-10
1.7724122e-11
5.8055519e-10
1.645811e-11
5.6521126e-10
1.5343938e-11
5.5085347e-10
1.4357785e-11
5.3737345e-10
1.3480018e-11
5.2467886e-10
1.2694594e-11
5.1269061e-10
1.1988246e-11
5.0134043e-10
1.1350182e-11
4.9056864e-10
1.0771793e-11
4.8032301e-10
1.0245622e-11
4.7055777e-10
9.7652427e-12
4.6123255e-10
9.3252187e-12
4.5231183e-10
8.9207267e-12
4.4376399e-10
8.5478338e-12
4.3556063e-10
8.2033594e-12
4.276763e-10
7.8843283e-12
4.2008823e-10
7.5880716e-12
4.1277591e-10
7.3123278e-12
4.057209e-10
7.0550024e-12
3.9890682e-10
6.8140782e-12
3.9231893e-10
6.5878985e-12
3.8594364e-10
6.3752823e-12
3.7976859e-10
6.1750564e-12
3.737827e-10
5.9858879e-12
3.6797618e-10
5.8065228e-12
3.6234026e-10
5.6359178e-12
3.5686716e-10
5.4731035e-12
3.5155026e-10
5.316897e-12
3.4638415e-10
5.1661068e-12
3.4136442e-10
5.0197343e-12
3.3648764e-10
4.8767791e-12
3.317514e-10
4.7362357e-12
3.2715431e-10
4.5970909e-12
3.2269611e-10
4.4582017e-12
3.1837815e-10
4.3179579e-12
3.1420457e-10
4.1735799e-12
3.1018222e-10
4.0223508e-12
3.0631982e-10
3.8624041e-12
3.0262837e-10
3.6914467e-12
2.9912122e-10
3.5071474e-12
2.9581428e-10
3.3069454e-12
2.927287e-10
3.0855795e-12
2.8989242e-10
2.8362799e-12
2.8734032e-10
2.5521001e-12
2.8512554e-10
2.2147762e-12
2.8329567e-10
1.8298693e-12
2.8197557e-10
1.3201037e-12
2.8123565e-10
7.399188e-13
2.8114428e-10
9.1378121e-14
2.8186242e-10
-7.181389e-13
2.8350175e-10
-1.6393304e-12
2.8619785e-10
-2.6961071e-12
2.9007268e-10
-3.8748265e-12
2.9517749e-10
-5.1048122e-12
3.0147552e-10
-6.2980217e-12
3.0892026e-10
-7.4447426e-12
3.1734674e-10
-8.4264823e-12
3.262377e-10
-8.8909563e-12
3.3485687e-10
-8.6191685e-12
3.4247186e-10
-7.6149951e-12
3.4867712e-10
-6.205263e-12
3.5347099e-10
-4.7938726e-12
3.5702332e-10
-3.552328e-12
3.5960927e-10
-2.5859536e-12
3.614659e-10
-1.856631e-12
3.6276705e-10
-1.3011428e-12
3.6362792e-10
-8.6087874e-13
3.6412061e-10
-4.9268726e-13
3.6429822e-10
-1.7761238e-13
3.6418424e-10
1.1398174e-13
3.6377518e-10
4.0906416e-13
3.6309621e-10
6.7896278e-13
3.6218866e-10
9.0755843e-13
3.6108518e-10
1.1034759e-12
3.5982973e-10
1.2554486e-12
3.5846032e-10
1.3694145e-12
3.5700505e-10
1.4552663e-12
3.5549496e-10
1.5100934e-12
3.5395765e-10
1.5373061e-12
3.5240752e-10
1.5501304e-12
3.5085371e-10
1.5538103e-12
3.4930923e-10
1.5444771e-12
3.4778472e-10
1.5245152e-12
3.4628236e-10
1.5023575e-12
3.4480021e-10
1.4821447e-12
3.4333768e-10
1.4625379e-12
3.4189503e-10
1.4426431e-12
3.4047441e-10
1.4206244e-12
3.3904607e-10
1.4283399e-12
3.3763072e-10
1.4153528e-12
3.3608194e-10
1.5487802e-12
3.3452633e-10
1.5556083e-12
3.3282145e-10
1.7048735e-12
1.0215483e-12
2.0344848e-06
8.5732253e-11
2.0343786e-06
2.1067402e-10
2.0342417e-06
2.713788e-10
2.0340861e-06
3.083711e-10
2.0339076e-06
3.5393102e-10
2.0337028e-06
4.0595645e-10
2.0334689e-06
4.6373904e-10
2.0332018e-06
5.2950232e-10
2.0328961e-06
6.0593244e-10
2.0325452e-06
6.9580295e-10
2.0321404e-06
8.0250993e-10
2.0316708e-06
9.3102886e-10
2.0311221e-06
1.0879213e-09
2.0304739e-06
1.2851154e-09
2.0297e-06
1.534351e-09
2.0287541e-06
1.8755713e-09
2.0275889e-06
2.3104661e-09
2.0260523e-06
3.0469963e-09
2.0241127e-06
3.8462334e-09
2.0210315e-06
6.1105827e-09
2.0171832e-06
7.631992e-09
2.0079008e-06
1.8409555e-08
2.003345e-06
9.0268033e-09
1.0127627e-06
1.9729363e-06
1.3348782e-08
1.9866919e-06
6.4570596e-09
9.1564495e-09
4.8872076e-09
2.0830022e-09
4.1288459e-09
1.0062062e-09
3.6604047e-09
6.2152848e-10
3.328062e-09
4.4095086e-10
3.074359e-09
3.3661341e-10
2.8707952e-09
2.7008944e-10
2.7025112e-09
2.2328027e-10
2.5601774e-09
1.8884946e-10
2.4374726e-09
1.6280579e-10
2.3300853e-09
1.4248253e-10
2.2349792e-09
1.2618779e-10
2.1499135e-09
1.1286613e-10
2.0731758e-09
1.018165e-10
2.003447e-09
9.2517105e-11
1.9396659e-09
8.4625582e-11
1.8809918e-09
7.7849676e-11
1.8267587e-09
7.1957216e-11
1.7763994e-09
6.6817364e-11
1.7294494e-09
6.2293977e-11
1.6855168e-09
5.8290331e-11
1.6442701e-09
5.4726718e-11
1.6054267e-09
5.153801e-11
1.5687446e-09
4.8670343e-11
1.5340149e-09
4.6079897e-11
1.501055e-09
4.3731729e-11
1.469705e-09
4.1595555e-11
1.439825e-09
3.9645289e-11
1.4112913e-09
3.785886e-11
1.3839954e-09
3.6216688e-11
1.3578404e-09
3.4702805e-11
1.3327395e-09
3.3304295e-11
1.3086147e-09
3.2009082e-11
1.2853965e-09
3.0806329e-11
1.2630219e-09
2.9686855e-11
1.2414348e-09
2.8642158e-11
1.2205848e-09
2.7664048e-11
1.2004269e-09
2.67458e-11
1.1809196e-09
2.5882617e-11
1.1620249e-09
2.5069737e-11
1.143709e-09
2.4301747e-11
1.125942e-09
2.3573558e-11
1.108697e-09
2.2880933e-11
1.0919501e-09
2.2219936e-11
1.0756813e-09
2.1585767e-11
1.0598738e-09
2.0973587e-11
1.0445142e-09
2.0379343e-11
1.029592e-09
1.9798971e-11
1.0150998e-09
1.922839e-11
1.0010334e-09
1.8663485e-11
9.8739204e-10
1.8099615e-11
9.7417975e-10
1.7530241e-11
9.6140925e-10
1.6944083e-11
9.4910149e-10
1.633011e-11
9.3728316e-10
1.5680739e-11
9.2598794e-10
1.4986663e-11
9.1525667e-10
1.4238417e-11
9.0513803e-10
1.3425588e-11
8.9569679e-10
1.2526819e-11
8.8701844e-10
1.1514624e-11
8.7920976e-10
1.0360783e-11
8.7243336e-10
8.9911734e-12
8.6683491e-10
7.428322e-12
8.6279636e-10
5.3586556e-12
8.605332e-10
3.0030757e-12
8.6025471e-10
3.6987609e-13
8.624533e-10
-2.916735e-12
8.6747068e-10
-6.6567061e-12
8.7572161e-10
-1.0947034e-11
8.8757907e-10
-1.5732289e-11
9.031998e-10
-2.0725538e-11
9.224713e-10
-2.556952e-11
9.45251e-10
-3.022445e-11
9.7103351e-10
-3.4208986e-11
9.9823625e-10
-3.6093696e-11
1.024607e-09
-3.4989875e-11
1.0479053e-09
-3.091337e-11
1.0668908e-09
-2.5190748e-11
1.0815583e-09
-1.9461405e-11
1.0924276e-09
-1.4421544e-11
1.1003401e-09
-1.0498522e-11
1.1060213e-09
-7.5377789e-12
1.1100028e-09
-5.2826431e-12
1.1126371e-09
-3.495225e-12
1.1141449e-09
-2.0004432e-12
1.1146885e-09
-7.2125702e-13
1.1143399e-09
4.6261233e-13
1.1130883e-09
1.6606112e-12
1.1110109e-09
2.7563971e-12
1.108234e-09
3.6844729e-12
1.1048576e-09
4.4798545e-12
1.1010162e-09
5.0968561e-12
1.0968261e-09
5.5595464e-12
1.0923733e-09
5.9080708e-12
1.0877527e-09
6.1306645e-12
1.0830488e-09
6.2411606e-12
1.0783057e-09
6.2932216e-12
1.0735514e-09
6.3081473e-12
1.0688256e-09
6.2702596e-12
1.0641609e-09
6.1892321e-12
1.059564e-09
6.0992693e-12
1.0550289e-09
6.017198e-12
1.0505539e-09
5.9375787e-12
1.0461397e-09
5.8568055e-12
1.041793e-09
5.7673965e-12
1.0374226e-09
5.7986958e-12
1.0330922e-09
5.7458155e-12
1.0283533e-09
6.2876396e-12
1.0235952e-09
6.313717e-12
1.0183709e-09
6.9291497e-12
4.1349534e-12
2.0946764e-06
1.3037301e-10
2.0945667e-06
3.2041637e-10
2.0944253e-06
4.1278641e-10
2.0942646e-06
4.6906361e-10
2.0940802e-06
5.3836137e-10
2.0938686e-06
6.1749084e-10
2.093627e-06
7.0537388e-10
2.0933511e-06
8.0539109e-10
2.0930354e-06
9.2162711e-10
2.0926729e-06
1.0582993e-09
2.0922549e-06
1.2205711e-09
2.0917699e-06
1.4160071e-09
2.0912032e-06
1.654583e-09
2.0905339e-06
1.9544342e-09
2.0897348e-06
2.333406e-09
2.0887582e-06
2.8522301e-09
2.0875552e-06
3.5134524e-09
2.0859689e-06
4.6332678e-09
2.0839668e-06
5.8483171e-09
2.0807867e-06
9.2906848e-09
2.0768152e-06
1.1603553e-08
2.0672361e-06
2.7988643e-08
2.0625259e-06
1.373695e-08
1.0493482e-06
2.9861141e-06
2.3081005e-08
3.0129591e-06
1.1189854e-08
2.1047601e-08
8.469684e-09
4.803172e-09
7.1554587e-09
2.3204316e-09
6.343612e-09
1.4333752e-09
5.7676306e-09
1.0169322e-09
5.327943e-09
7.7630106e-10
4.9751548e-09
6.2287759e-10
4.683509e-09
5.1492604e-10
4.4368371e-09
4.3552135e-10
4.2241843e-09
3.7545867e-10
4.038078e-09
3.2858879e-10
3.873256e-09
2.9100983e-10
3.7258345e-09
2.6028758e-10
3.5928459e-09
2.3480507e-10
3.472004e-09
2.1335904e-10
3.3614698e-09
1.9515976e-10
3.2597862e-09
1.7953331e-10
3.1657991e-09
1.6594436e-10
3.0785254e-09
1.5409101e-10
2.99716e-09
1.4365935e-10
2.9210241e-09
1.344263e-10
2.8495427e-09
1.2620804e-10
2.7822264e-09
1.1885438e-10
2.7186556e-09
1.1224109e-10
2.6584684e-09
1.0626712e-10
2.6013483e-09
1.0085189e-10
2.5470183e-09
9.5925544e-11
2.4952356e-09
9.1427935e-11
2.4457863e-09
8.7308159e-11
2.3984819e-09
8.3521066e-11
2.3531549e-09
8.0029828e-11
2.3096546e-09
7.6804656e-11
2.2678459e-09
7.3817703e-11
2.2276083e-09
7.1043979e-11
2.1888328e-09
6.8462309e-11
2.1514219e-09
6.6053085e-11
2.1152885e-09
6.3797424e-11
2.0803545e-09
6.1679816e-11
2.0465479e-09
5.9689196e-11
2.0138031e-09
5.781458e-11
1.9820613e-09
5.6043489e-11
1.9512707e-09
5.4364184e-11
1.9213848e-09
5.2766896e-11
1.8923621e-09
5.1242546e-11
1.8641679e-09
4.9780064e-11
1.8367731e-09
4.8368296e-11
1.8101546e-09
4.6997887e-11
1.7842941e-09
4.5659471e-11
1.7591789e-09
4.4343632e-11
1.7348015e-09
4.3040878e-11
1.7111606e-09
4.1740508e-11
1.6882634e-09
4.0427437e-11
1.6661318e-09
3.9075657e-11
1.6448022e-09
3.7659735e-11
1.6243207e-09
3.6162166e-11
1.6047459e-09
3.4561498e-11
1.5861484e-09
3.2835895e-11
1.5686127e-09
3.0961321e-11
1.552251e-09
2.8888524e-11
1.5372115e-09
2.6554111e-11
1.5236793e-09
2.3892972e-11
1.5119363e-09
2.0734242e-11
1.5022349e-09
1.7129651e-11
1.4952369e-09
1.2356649e-11
1.4913159e-09
6.9241267e-12
1.4908347e-09
8.5104157e-13
1.4946464e-09
-6.7284616e-12
1.5033433e-09
-1.5353544e-11
1.5176439e-09
-2.5247638e-11
1.5381945e-09
-3.6282863e-11
1.5652665e-09
-4.7797555e-11
1.598665e-09
-5.8968039e-11
1.6381425e-09
-6.9701948e-11
1.6828224e-09
-7.8888889e-11
1.7299624e-09
-8.3233687e-11
1.7756599e-09
-8.0687404e-11
1.8160336e-09
-7.1287032e-11
1.8489339e-09
-5.8091081e-11
1.8743519e-09
-4.4879435e-11
1.8931882e-09
-3.3257841e-11
1.906901e-09
-2.4211289e-11
1.9167469e-09
-1.7383673e-11
1.9236473e-09
-1.2183072e-11
1.9282131e-09
-8.060976e-12
1.9308264e-09
-4.6137858e-12
1.9317689e-09
-1.6637241e-12
1.931165e-09
1.0665404e-12
1.9289962e-09
3.8293433e-12
1.9253962e-09
6.3564658e-12
1.9205838e-09
8.4967817e-12
1.9147327e-09
1.0331043e-11
1.9080755e-09
1.1753974e-11
1.9008141e-09
1.2821024e-11
1.8930974e-09
1.3624747e-11
1.88509e-09
1.4138091e-11
1.8769382e-09
1.4392942e-11
1.8687184e-09
1.4513e-11
1.8604792e-09
1.4547399e-11
1.8522894e-09
1.4460032e-11
1.8442054e-09
1.4273195e-11
1.836239e-09
1.4065719e-11
1.8283797e-09
1.387643e-11
1.8206245e-09
1.3692786e-11
1.8129748e-09
1.3506499e-11
1.8054419e-09
1.3300288e-11
1.7978683e-09
1.3372384e-11
1.7903638e-09
1.3250272e-11
1.7821518e-09
1.4499685e-11
1.7739074e-09
1.4558034e-11
1.7648485e-09
1.5988078e-11
9.5221759e-12
2.1860835e-06
1.7710671e-10
2.1859686e-06
4.3534044e-10
2.1858204e-06
5.609067e-10
2.1856521e-06
6.3739197e-10
2.1854589e-06
7.3155275e-10
2.1852373e-06
8.390689e-10
2.1849842e-06
9.5847444e-10
2.1846953e-06
1.0943606e-09
2.1843646e-06
1.2522761e-09
2.183985e-06
1.4379494e-09
2.1835472e-06
1.6583933e-09
2.1830393e-06
1.9238818e-09
2.1824459e-06
2.2479625e-09
2.1817451e-06
2.6552663e-09
2.1809085e-06
3.170024e-09
2.179886e-06
3.8747222e-09
2.1786266e-06
4.7727845e-09
2.1769662e-06
6.2936719e-09
2.1748708e-06
7.943744e-09
2.171543e-06
1.2618528e-08
2.1673872e-06
1.5759352e-08
2.1573645e-06
3.8011325e-08
2.152426e-06
1.8675414e-08
1.1022582e-06
4.0362819e-06
3.4147834e-08
4.0810694e-06
1.6591835e-08
3.86036e-08
1.2558954e-08
8.8360538e-09
1.061028e-08
4.2691048e-09
9.4064255e-09
2.63723e-09
8.5523222e-09
1.8710355e-09
7.9003282e-09
1.4282951e-09
7.3772e-09
1.1460058e-09
6.9447372e-09
9.4738881e-10
6.5789642e-09
8.0129437e-10
6.263637e-09
6.9078587e-10
5.9876749e-09
6.0455096e-10
5.743274e-09
5.3541074e-10
5.5246753e-09
4.788862e-10
5.3274783e-09
4.3200212e-10
5.1482925e-09
3.9254476e-10
4.9843915e-09
3.5906082e-10
4.8336143e-09
3.3031053e-10
4.6942495e-09
3.0530915e-10
4.5648396e-09
2.835009e-10
4.4441906e-09
2.6430837e-10
4.3312958e-09
2.4732109e-10
4.225303e-09
2.3220087e-10
4.125486e-09
2.1867136e-10
4.031223e-09
2.0650404e-10
3.9419772e-09
1.9551296e-10
3.8572792e-09
1.8554986e-10
3.7767185e-09
1.7648624e-10
3.699935e-09
1.6821141e-10
3.6266114e-09
1.6063174e-10
3.5564684e-09
1.5366415e-10
3.4892573e-09
1.4724089e-10
3.4247548e-09
1.4130714e-10
3.3627609e-09
1.3581167e-10
3.3030963e-09
1.3070851e-10
3.2455999e-09
1.2595869e-10
3.1901269e-09
1.2152615e-10
3.1365482e-09
1.1737614e-10
3.0847478e-09
1.1348013e-10
3.0346193e-09
1.0981775e-10
2.9860651e-09
1.063688e-10
2.9389982e-09
1.0311032e-10
2.8933417e-09
1.000207e-10
2.8490266e-09
9.7081988e-11
2.8059917e-09
9.4277463e-11
2.764185e-09
9.1586767e-11
2.7235639e-09
8.8989377e-11
2.6840937e-09
8.6468082e-11
2.6457476e-09
8.4005645e-11
2.6085064e-09
8.1584743e-11
2.5723594e-09
7.9187911e-11
2.5373045e-09
7.6795456e-11
2.5033523e-09
7.4379623e-11
2.4705354e-09
7.1892569e-11
2.4389076e-09
6.9287507e-11
2.4085376e-09
6.6532212e-11
2.3795118e-09
6.3587225e-11
2.3519354e-09
6.041236e-11
2.3259333e-09
5.6963362e-11
2.3016722e-09
5.3149609e-11
2.2793719e-09
4.8854461e-11
2.2593068e-09
4.3958071e-11
2.2418948e-09
3.8146246e-11
2.2275109e-09
3.1513578e-11
2.2171353e-09
2.2732224e-11
2.2113224e-09
1.2737032e-11
2.2106109e-09
1.5625109e-12
2.2162649e-09
-1.2382459e-11
2.2291627e-09
-2.8251361e-11
2.2503697e-09
-4.6454663e-11
2.2808439e-09
-6.6757036e-11
2.3209876e-09
-8.794128e-11
2.3705118e-09
-1.0849224e-10
2.4290488e-09
-1.2823891e-10
2.4952979e-09
-1.4513797e-10
2.5651933e-09
-1.5312907e-10
2.6329491e-09
-1.4844322e-10
2.6928117e-09
-1.3114962e-10
2.7415943e-09
-1.0687373e-10
2.7792831e-09
-8.2568247e-11
2.8072137e-09
-6.1188382e-11
2.8275475e-09
-4.4545154e-11
2.8421478e-09
-3.1983975e-11
2.8523806e-09
-2.2415862e-11
2.8591515e-09
-1.4831816e-11
2.8630272e-09
-8.4895383e-12
2.8644253e-09
-3.0618032e-12
2.8635303e-09
1.9615699e-12
2.8603149e-09
7.0447383e-12
2.854977e-09
1.1694346e-11
2.8478416e-09
1.5632231e-11
2.8391656e-09
1.9006961e-11
2.8292946e-09
2.1624973e-11
2.8185275e-09
2.3588193e-11
2.8070853e-09
2.5066873e-11
2.7952121e-09
2.6011361e-11
2.7831247e-09
2.6480299e-11
2.7709365e-09
2.6701184e-11
2.7587195e-09
2.6764441e-11
2.7465758e-09
2.6603717e-11
2.734589e-09
2.626001e-11
2.7227764e-09
2.5878283e-11
2.7111229e-09
2.5529984e-11
2.6996236e-09
2.5192064e-11
2.6882808e-09
2.4849301e-11
2.6771112e-09
2.4469883e-11
2.6658812e-09
2.460233e-11
2.654754e-09
2.4377524e-11
2.6425781e-09
2.6675608e-11
2.6303549e-09
2.6781209e-11
2.6169192e-09
2.942373e-11
1.7505442e-11
2.3100681e-06
2.2666266e-10
2.3099462e-06
5.5724864e-10
2.3097891e-06
7.1807161e-10
2.3096104e-06
8.1600826e-10
2.3094054e-06
9.3654827e-10
2.3091703e-06
1.0741797e-09
2.3089018e-06
1.2270244e-09
2.3085952e-06
1.4009567e-09
2.3082444e-06
1.6030775e-09
2.3078416e-06
1.8407173e-09
2.3073772e-06
2.1228491e-09
2.3068384e-06
2.4626184e-09
2.306209e-06
2.8773577e-09
2.3054657e-06
3.3985824e-09
2.3045784e-06
4.057287e-09
2.3034942e-06
4.9590173e-09
2.3021588e-06
6.1081045e-09
2.3003984e-06
8.0540661e-09
2.2981771e-06
1.0165094e-08
2.2946499e-06
1.6145726e-08
2.2902455e-06
2.016378e-08
2.2796241e-06
4.8632657e-08
2.2743786e-06
2.3920922e-08
1.1726215e-06
5.138039e-06
4.7200163e-08
5.2064908e-06
2.2986123e-08
6.281764e-08
1.7399685e-08
1.4422491e-08
1.4700034e-08
6.9687558e-09
1.3032108e-08
4.3051562e-09
1.1848754e-08
3.054389e-09
1.0945426e-08
2.331623e-09
1.0220649e-08
1.8707828e-09
9.621488e-09
1.5465502e-09
9.114724e-09
1.3080584e-09
8.6778526e-09
1.1276573e-09
8.2955211e-09
9.8688247e-10
7.956917e-09
8.7401487e-10
7.654061e-09
7.8174215e-10
7.3808561e-09
7.0520701e-10
7.1326051e-09
6.4079582e-10
6.9055303e-09
5.8613556e-10
6.6966381e-09
5.3920275e-10
6.5035571e-09
4.9839015e-10
6.3242681e-09
4.6278992e-10
6.1571167e-09
4.3145972e-10
6.0007084e-09
4.037294e-10
5.8538624e-09
3.7904692e-10
5.7155726e-09
3.5696116e-10
5.5849775e-09
3.3709907e-10
5.4613334e-09
3.1915711e-10
5.34399e-09
3.0289324e-10
5.2323786e-09
2.8809768e-10
5.1260002e-09
2.7458977e-10
5.0244153e-09
2.6221663e-10
4.9272368e-09
2.5084268e-10
4.8341204e-09
2.403573e-10
4.7447565e-09
2.3067101e-10
4.658868e-09
2.2170017e-10
4.5762068e-09
2.1336973e-10
4.4965494e-09
2.056161e-10
4.4196951e-09
1.9838039e-10
4.3454654e-09
1.916059e-10
4.2736995e-09
1.8524605e-10
4.2042496e-09
1.7926758e-10
4.1369809e-09
1.7363751e-10
4.0717729e-09
1.6831836e-10
4.0085187e-09
1.6327487e-10
3.947123e-09
1.5847772e-10
3.8875008e-09
1.5389961e-10
3.8295803e-09
1.4950732e-10
3.7733023e-09
1.4526735e-10
3.7186188e-09
1.411516e-10
3.6654925e-09
1.3713192e-10
3.6138972e-09
1.3318005e-10
3.5638177e-09
1.2926746e-10
3.5152511e-09
1.2536199e-10
3.4682124e-09
1.2141835e-10
3.4227465e-09
1.1735845e-10
3.3789281e-09
1.1310591e-10
3.3368522e-09
1.086081e-10
3.2966388e-09
1.0380063e-10
3.2584333e-09
9.8617877e-11
3.2224091e-09
9.2987535e-11
3.1887971e-09
8.6761674e-11
3.1579016e-09
7.9749865e-11
3.1301033e-09
7.1756379e-11
3.1059809e-09
6.226866e-11
3.0860546e-09
5.1439887e-11
3.0716812e-09
3.7105629e-11
3.0636292e-09
2.0789007e-11
3.0626462e-09
2.545585e-12
3.0704818e-09
-2.0218127e-11
3.0883535e-09
-4.6123065e-11
3.117737e-09
-7.5838083e-11
3.1599589e-09
-1.0897899e-10
3.2155768e-09
-1.4355915e-10
3.2841901e-09
-1.7710552e-10
3.3652883e-09
-2.0933715e-10
3.4570684e-09
-2.3691811e-10
3.5538984e-09
-2.4995901e-10
3.6477634e-09
-2.4230818e-10
3.7306945e-09
-2.1408078e-10
3.7982774e-09
-1.7445663e-10
3.8504917e-09
-1.3478253e-10
3.8891881e-09
-9.9884809e-11
3.9173605e-09
-7.2717518e-11
3.9375897e-09
-5.2213141e-11
3.9517679e-09
-3.6594119e-11
3.9611497e-09
-2.421361e-11
3.9665204e-09
-1.3860273e-11
3.9684584e-09
-4.9997303e-12
3.9672192e-09
3.2007624e-12
3.9627652e-09
1.1498759e-11
3.9553704e-09
1.9089077e-11
3.9454852e-09
2.5517468e-11
3.9334657e-09
3.1026454e-11
3.9197904e-09
3.5300241e-11
3.9048735e-09
3.8505097e-11
3.8890215e-09
4.0918876e-11
3.8725722e-09
4.2460716e-11
3.8558261e-09
4.3226317e-11
3.8389404e-09
4.3586899e-11
3.8220148e-09
4.3690114e-11
3.8051907e-09
4.3427779e-11
3.7885839e-09
4.2866779e-11
3.7722186e-09
4.2243633e-11
3.7560736e-09
4.1675002e-11
3.7401423e-09
4.1123306e-11
3.7244279e-09
4.0563727e-11
3.7089534e-09
3.9944329e-11
3.6933956e-09
4.0160167e-11
3.6779801e-09
3.9793078e-11
3.6611126e-09
4.3543104e-11
3.64418e-09
4.3713814e-11
3.6255637e-09
4.8039986e-11
2.85624e-11
2.468478e-06
2.7982341e-10
2.4683472e-06
6.8807811e-10
2.4681785e-06
8.8679042e-10
2.4679867e-06
1.0077669e-09
2.4677666e-06
1.1566231e-09
2.4675142e-06
1.3265779e-09
2.4672259e-06
1.5153101e-09
2.4668968e-06
1.7300696e-09
2.4665203e-06
1.9796221e-09
2.466088e-06
2.2730163e-09
2.4655895e-06
2.6213268e-09
2.4650114e-06
3.0407776e-09
2.4643359e-06
3.5527585e-09
2.4635384e-06
4.1961659e-09
2.4625864e-06
5.0092413e-09
2.4614232e-06
6.1222549e-09
2.4599908e-06
7.5404849e-09
2.4581027e-06
9.9421768e-09
2.4557205e-06
1.2547283e-08
2.4519387e-06
1.9927548e-08
2.4472167e-06
2.4885772e-08
2.4358308e-06
6.0018546e-08
2.4301932e-06
2.955849e-08
1.2618832e-06
6.3063491e-06
6.3001773e-08
6.4053721e-06
3.0755162e-08
9.5064252e-08
2.3281513e-08
2.189614e-08
1.9669443e-08
1.0580826e-08
1.7437606e-08
6.5369928e-09
1.5854167e-08
4.637828e-09
1.4645435e-08
3.5403549e-09
1.3675633e-08
2.8405849e-09
1.2873916e-08
2.3482676e-09
1.2195834e-08
1.9861402e-09
1.1611275e-08
1.7122158e-09
1.1099696e-08
1.4984615e-09
1.0646628e-08
1.3270833e-09
1.0241393e-08
1.186977e-09
9.8758332e-09
1.0707669e-09
9.5436629e-09
9.7296611e-10
9.2398279e-09
8.8997059e-10
8.9603221e-09
8.1870847e-10
8.7019724e-09
7.5673987e-10
8.462077e-09
7.0268532e-10
8.2384224e-09
6.5511434e-10
8.0291424e-09
6.1300939e-10
7.8326571e-09
5.755322e-10
7.6476205e-09
5.4199782e-10
7.4728797e-09
5.1183981e-10
7.3074395e-09
4.8459733e-10
7.15043e-09
4.5990278e-10
7.00109e-09
4.3743767e-10
6.858752e-09
4.1692771e-10
6.7228279e-09
3.9814076e-10
6.5927997e-09
3.8087094e-10
6.4682066e-09
3.6495032e-10
6.3486347e-09
3.5024299e-10
6.2337128e-09
3.3662199e-10
6.1231092e-09
3.2397336e-10
6.0165248e-09
3.1220054e-10
5.9136911e-09
3.0121411e-10
5.814369e-09
2.9092799e-10
5.7183436e-09
2.8127145e-10
5.6254171e-09
2.72194e-10
5.5354091e-09
2.6364554e-10
5.4481583e-09
2.5556917e-10
5.3635218e-09
2.4791136e-10
5.281372e-09
2.4062756e-10
5.2015952e-09
2.3367637e-10
5.1240952e-09
2.2700731e-10
5.048793e-09
2.2056954e-10
4.9756243e-09
2.1432038e-10
4.9045391e-09
2.082171e-10
4.8355024e-09
2.0221675e-10
4.7684938e-09
1.9627604e-10
4.7035097e-09
1.9034613e-10
4.6405698e-09
1.8435823e-10
4.5797344e-09
1.781938e-10
4.5211035e-09
1.7173688e-10
4.4648041e-09
1.6490752e-10
4.4109967e-09
1.5760796e-10
4.3598761e-09
1.4973854e-10
4.3116742e-09
1.4118938e-10
4.2667e-09
1.3173587e-10
4.2253611e-09
1.2108881e-10
4.1881666e-09
1.0895089e-10
4.1558908e-09
9.4544464e-11
4.1292309e-09
7.8099792e-11
4.1100002e-09
5.6336304e-11
4.0992279e-09
3.1561271e-11
4.0979159e-09
3.8575924e-12
4.1084033e-09
-3.070552e-11
4.1323195e-09
-7.0039294e-11
4.1716386e-09
-1.1515717e-10
4.2281354e-09
-1.6547582e-10
4.3025557e-09
-2.1797941e-10
4.3943635e-09
-2.6891332e-10
4.5028744e-09
-3.1784806e-10
4.6256744e-09
-3.5971811e-10
4.7552289e-09
-3.7951352e-10
4.8808153e-09
-3.6789458e-10
4.9917747e-09
-3.2504016e-10
5.0822008e-09
-2.6488279e-10
5.1520646e-09
-2.0464631e-10
5.2038432e-09
-1.5166335e-10
5.2415409e-09
-1.1041525e-10
5.2686106e-09
-7.928287e-11
5.2875839e-09
-5.5567418e-11
5.3001391e-09
-3.676879e-11
5.3073271e-09
-2.1048313e-11
5.3099217e-09
-7.5943026e-12
5.3082649e-09
4.85755e-12
5.3023064e-09
1.7457286e-11
5.2924129e-09
2.8982605e-11
5.2791868e-09
3.8743534e-11
5.263105e-09
4.7108302e-11
5.2448075e-09
5.3597699e-11
5.2248486e-09
5.8463983e-11
5.2036385e-09
6.2128959e-11
5.1816291e-09
6.4470134e-11
5.1592227e-09
6.5632768e-11
5.1366293e-09
6.6180284e-11
5.1139824e-09
6.6336941e-11
5.0914715e-09
6.5938678e-11
5.0692513e-09
6.5086987e-11
5.0473542e-09
6.4140813e-11
5.0257518e-09
6.327732e-11
5.0044356e-09
6.2439533e-11
4.9834095e-09
6.1589805e-11
4.9627046e-09
6.064929e-11
4.9418884e-09
6.0976385e-11
4.9212625e-09
6.0418943e-11
4.8986953e-09
6.6110317e-11
4.8760411e-09
6.6367979e-11
4.8511305e-09
7.2950596e-11
4.3354751e-11
2.6636738e-06
3.3743952e-10
2.6635319e-06
8.2993818e-10
2.6633489e-06
1.0697993e-09
2.6631409e-06
1.2157814e-09
2.6629022e-06
1.3953491e-09
2.6626284e-06
1.600358e-09
2.6623157e-06
1.8280051e-09
2.6619587e-06
2.0870301e-09
2.6615503e-06
2.388003e-09
2.6610815e-06
2.741834e-09
2.660541e-06
3.1618739e-09
2.6599141e-06
3.6676813e-09
2.6591818e-06
4.2850395e-09
2.6583171e-06
5.0608392e-09
2.6572852e-06
6.0411656e-09
2.6560244e-06
7.3830708e-09
2.654472e-06
9.0928265e-09
2.6524261e-06
1.1988119e-08
2.6498452e-06
1.5128215e-08
2.6457488e-06
2.4023934e-08
2.6406345e-06
3.0000059e-08
2.6283043e-06
7.2348749e-08
2.6221816e-06
3.5681152e-08
1.3718482e-06
7.5566825e-06
8.2472884e-08
7.6947474e-06
4.0363591e-08
1.3717354e-07
3.0556363e-08
3.1703368e-08
2.5815872e-08
1.5321316e-08
2.2886532e-08
9.4663328e-09
2.0808224e-08
6.716136e-09
1.9221738e-08
5.1268409e-09
1.7948871e-08
4.1134523e-09
1.6896619e-08
3.40052e-09
1.600664e-08
2.8761188e-09
1.5239414e-08
2.479442e-09
1.4567975e-08
2.1699001e-09
1.3973333e-08
1.921726e-09
1.3441471e-08
1.7188382e-09
1.2961683e-08
1.5505547e-09
1.2525719e-08
1.4089307e-09
1.2126944e-08
1.2887452e-09
1.1760102e-08
1.1855511e-09
1.1421026e-08
1.0958159e-09
1.1106171e-08
1.0175403e-09
1.0812631e-08
9.4865383e-10
1.0537958e-08
8.8768252e-10
1.0280078e-08
8.3341263e-10
1.0037223e-08
7.8485226e-10
9.8078817e-09
7.4118117e-10
9.590747e-09
7.0173202e-10
9.3846773e-09
6.6597249e-10
9.1886736e-09
6.3344136e-10
9.0018599e-09
6.0374143e-10
8.8234641e-09
5.7653655e-10
8.6528064e-09
5.5152862e-10
8.4892823e-09
5.2847444e-10
8.3323481e-09
5.0717719e-10
8.1815171e-09
4.8745302e-10
8.0363535e-09
4.6913693e-10
7.896465e-09
4.5208907e-10
7.7614991e-09
4.3617997e-10
7.6311421e-09
4.2128499e-10
7.5051119e-09
4.0730169e-10
7.3831489e-09
3.9415697e-10
7.2650162e-09
3.8177826e-10
7.1505022e-09
3.7008316e-10
7.0394194e-09
3.5899418e-10
6.9316001e-09
3.4844679e-10
6.8268955e-09
3.3838103e-10
6.725179e-09
3.2872384e-10
6.6263469e-09
3.1940157e-10
6.5303149e-09
3.1035242e-10
6.4370175e-09
3.0151452e-10
6.3464086e-09
2.9282566e-10
6.2584615e-09
2.8422315e-10
6.1731713e-09
2.7563625e-10
6.0905642e-09
2.6696534e-10
6.0107192e-09
2.5803879e-10
5.9337674e-09
2.486887e-10
5.8598757e-09
2.3879926e-10
5.7892548e-09
2.282289e-10
5.72216e-09
2.1683328e-10
5.6588962e-09
2.0445315e-10
5.5998689e-09
1.9076323e-10
5.545613e-09
1.7534471e-10
5.4967971e-09
1.5776679e-10
5.4544371e-09
1.3690446e-10
5.4194498e-09
1.1308711e-10
5.3942118e-09
8.1574261e-11
5.3800753e-09
4.5697806e-11
5.3783577e-09
5.5751762e-12
5.3921257e-09
-4.4473575e-11
5.423519e-09
-1.0143259e-10
5.4751277e-09
-1.6676585e-10
5.5492807e-09
-2.3962877e-10
5.6469565e-09
-3.1565523e-10
5.7674519e-09
-3.8940873e-10
5.9098666e-09
-4.6026276e-10
6.0710303e-09
-5.2088185e-10
6.2410563e-09
-5.4953947e-10
6.4058733e-09
-5.3271158e-10
6.5514971e-09
-4.7066398e-10
6.6701765e-09
-3.8356215e-10
6.76187e-09
-2.9633986e-10
6.8298303e-09
-2.1962357e-10
6.8793108e-09
-1.5989576e-10
6.9148427e-09
-1.1481477e-10
6.939748e-09
-8.0472798e-11
6.9562294e-09
-5.3250139e-11
6.9656662e-09
-3.0485138e-11
6.9690739e-09
-1.1001971e-11
6.9669014e-09
7.0300397e-12
6.9590827e-09
2.5275947e-11
6.9460992e-09
4.1966165e-11
6.9287415e-09
5.6101174e-11
6.9076357e-09
6.8214183e-11
6.8836217e-09
7.7611683e-11
6.857427e-09
8.465866e-11
6.8295901e-09
8.9965806e-11
6.8007041e-09
9.3356168e-11
6.7712969e-09
9.5040027e-11
6.7416442e-09
9.5832917e-11
6.7119215e-09
9.6059685e-11
6.6823771e-09
9.5483071e-11
6.6532141e-09
9.4249939e-11
6.6244751e-09
9.2879799e-11
6.5961232e-09
9.162924e-11
6.5681469e-09
9.0415902e-11
6.5405514e-09
8.9185306e-11
6.5133773e-09
8.7823314e-11
6.4860577e-09
8.8295969e-11
6.4589879e-09
8.7488756e-11
6.4293722e-09
9.572605e-11
6.3996423e-09
9.6097847e-11
6.3669472e-09
1.0564577e-10
6.276792e-11
2.8985643e-06
4.0044626e-10
2.898409e-06
9.8515294e-10
2.8982087e-06
1.2701176e-09
2.897981e-06
1.4434885e-09
2.8977197e-06
1.656669e-09
2.89742e-06
1.9000387e-09
2.8970778e-06
2.1702662e-09
2.8966871e-06
2.4777192e-09
2.8962401e-06
2.8349403e-09
2.8957271e-06
3.2548747e-09
2.8951356e-06
3.753361e-09
2.8944497e-06
4.3536012e-09
2.8936485e-06
5.0861786e-09
2.8927027e-06
6.0067199e-09
2.891574e-06
7.1698744e-09
2.8901951e-06
8.7619641e-09
2.8884976e-06
1.0790306e-08
2.8862607e-06
1.4224979e-08
2.8834394e-06
1.7949504e-08
2.8789627e-06
2.8500631e-08
2.8733742e-06
3.5588585e-08
2.8599027e-06
8.5820216e-08
2.8531919e-06
4.2391991e-08
1.5047339e-06
8.9051405e-06
1.0674211e-07
9.0927392e-06
5.2386018e-08
1.9152964e-07
3.9659518e-08
4.4429868e-08
3.3507133e-08
2.1473701e-08
2.9704943e-08
1.3268523e-08
2.7007358e-08
9.4137213e-09
2.4948155e-08
7.1860434e-09
2.3296044e-08
5.7655632e-09
2.1930284e-08
4.7662805e-09
2.0775148e-08
4.0312544e-09
1.9779343e-08
3.4752476e-09
1.8907867e-08
3.0413761e-09
1.8136068e-08
2.6935244e-09
1.7445756e-08
2.4091499e-09
1.6823033e-08
2.1732784e-09
1.6257188e-08
1.974775e-09
1.5739614e-08
1.8063194e-09
1.5263486e-08
1.6616795e-09
1.4823396e-08
1.5359058e-09
1.4414743e-08
1.4261934e-09
1.4033756e-08
1.329641e-09
1.3677255e-08
1.2441828e-09
1.3342551e-08
1.1681174e-09
1.3027348e-08
1.1000547e-09
1.2729685e-08
1.0388448e-09
1.2447864e-08
9.8355252e-10
1.2180405e-08
9.3343165e-10
1.192601e-08
8.8783575e-10
1.1683544e-08
8.4620809e-10
1.1452003e-08
8.0807754e-10
1.1230505e-08
7.7302629e-10
1.1018266e-08
7.4071343e-10
1.081458e-08
7.1086311e-10
1.0618816e-08
6.8321763e-10
1.0430407e-08
6.5754572e-10
1.0248845e-08
6.3365138e-10
1.0073671e-08
6.1135314e-10
9.90448e-09
5.9047633e-10
9.7409043e-09
5.7087737e-10
9.5826075e-09
5.5245376e-10
9.429282e-09
5.351038e-10
9.2806532e-09
5.1871198e-10
9.1364777e-09
5.031697e-10
8.9965379e-09
4.8838653e-10
8.8606405e-09
4.7427841e-10
8.7286214e-09
4.6074295e-10
8.6003461e-09
4.4767694e-10
8.4757047e-09
4.3499374e-10
8.3546126e-09
4.2260662e-10
8.2370099e-09
4.104284e-10
8.1228619e-09
3.9837116e-10
8.0121624e-09
3.8633578e-10
7.9049451e-09
3.7418258e-10
7.8013128e-09
3.6167108e-10
7.7014356e-09
3.4856596e-10
7.60553e-09
3.3470481e-10
7.5138696e-09
3.1988926e-10
7.426786e-09
3.0391693e-10
7.3446747e-09
2.8656439e-10
7.2680622e-09
2.6737573e-10
7.1976431e-09
2.4576386e-10
7.1342853e-09
2.2112456e-10
7.079307e-09
1.9188278e-10
7.0339006e-09
1.5849347e-10
7.0011461e-09
1.1432883e-10
6.9828e-09
6.4043839e-11
6.9805765e-09
7.7986748e-12
6.9984509e-09
-6.2347895e-11
7.0392015e-09
-1.4218327e-10