/*--------------------------------*- C++ -*----------------------------------*\
| =========                 |                                                 |
| \\      /  F ield         | OpenFOAM: The Open Source CFD Toolbox           |
|  \\    /   O peration     | Version:  2206                                  |
|   \\  /    A nd           | Website:  www.openfoam.com                      |
|    \\/     M anipulation  |                                                 |
\*---------------------------------------------------------------------------*/
FoamFile
{
    version     2.0;
    format      ascii;
    arch        "LSB;label=32;scalar=64";
    class       volVectorField;
    location    "800";
    object      U;
}
// * * * * * * * * * * * * * * * * * * * * * * * * * * * * * * * * * * * * * //

dimensions      [0 1 -1 0 0 0 0];

internalField   nonuniform List<vector> 
13056
(
(1 5.298344e-10 5.0423772e-25)
(0.99996013 1.4773494e-09 0)
(0.99989727 2.1592696e-09 0)
(0.99982645 2.783593e-09 0)
(0.99974544 3.6234221e-09 0)
(0.99965221 4.7114646e-09 0)
(0.99954554 6.0978762e-09 0)
(0.99942383 7.8828479e-09 0)
(0.99928476 1.0203309e-08 0)
(0.99912539 1.3236733e-08 0)
(0.99894204 1.7220817e-08 0)
(0.9987301 2.2491787e-08 0)
(0.99848343 2.9514611e-08 0)
(0.99819417 3.903016e-08 0)
(0.99785036 5.196343e-08 0)
(0.99743815 7.0486191e-08 0)
(0.9969265 9.5777183e-08 0)
(0.99629894 1.3831183e-07 0)
(0.99542688 1.8951809e-07 0)
(0.99439784 3.2349637e-07 0)
(0.9924266 4.2895142e-07 0)
(0.99060631 1.0838975e-06 0)
(0.98339281 5.4871337e-07 -5.2615866e-21)
(0.98601127 0.0001227284 8.8614408e-18)
(0.0031268601 0.00012323859 0)
(0.0012292929 7.3851923e-08 -1.2404275e-20)
(0.00087467757 4.8074213e-08 4.1101893e-18)
(0.0007181565 6.0997415e-09 0)
(0.00062765668 3.7359193e-09 0)
(0.0005655443 2.6262724e-09 0)
(0.00051936537 1.9864235e-09 0)
(0.0004828674 1.5786902e-09 0)
(0.00045302231 1.2923196e-09 0)
(0.00042801935 1.0820687e-09 0)
(0.00040663005 9.2323947e-10 0)
(0.00038802342 7.9945416e-10 0)
(0.00037162582 7.0035225e-10 0)
(0.00035702165 6.1945399e-10 0)
(0.00034389635 5.5244545e-10 0)
(0.00033200647 4.9612622e-10 0)
(0.00032116562 4.4837684e-10 0)
(0.00031121427 4.0742828e-10 3.7354101e-26)
(0.00030203805 3.7187473e-10 0)
(0.00029353429 3.4088461e-10 0)
(0.00028562077 3.1363891e-10 0)
(0.00027822829 2.8954364e-10 0)
(0.00027129838 2.6811202e-10 0)
(0.0002647814 2.4894758e-10 0)
(0.0002586349 2.3172347e-10 0)
(0.00025282247 2.1617354e-10 0)
(0.0002473124 2.0208373e-10 0)
(0.00024207689 1.8926973e-10 0)
(0.00023709166 1.775739e-10 0)
(0.00023233531 1.668629e-10 0)
(0.00022778899 1.5701983e-10 0)
(0.00022343612 1.4794846e-10 0)
(0.00021926176 1.3956944e-10 0)
(0.00021525249 1.3181011e-10 0)
(0.00021139636 1.2460612e-10 0)
(0.00020768261 1.1790253e-10 0)
(0.00020410153 1.1164948e-10 0)
(0.00020064446 1.0580057e-10 0)
(0.00019730371 1.003172e-10 0)
(0.00019407226 9.5169654e-11 0)
(0.0001909436 9.0329551e-11 0)
(0.00018791188 8.5767559e-11 0)
(0.00018497192 8.1456929e-11 0)
(0.00018211913 7.7375229e-11 0)
(0.00017934936 7.3502195e-11 0)
(0.00017665899 6.981579e-11 0)
(0.00017404505 6.6295267e-11 0)
(0.00017150511 6.2923716e-11 0)
(0.0001690372 5.9685292e-11 0)
(0.00016663989 5.6565188e-11 0)
(0.00016431221 5.3549688e-11 0)
(0.00016205373 5.0624676e-11 0)
(0.00015986464 4.777221e-11 0)
(0.00015774612 4.4963494e-11 0)
(0.00015570114 4.2173556e-11 0)
(0.00015373358 3.9389297e-11 0)
(0.00015184827 3.6595074e-11 0)
(0.0001500514 3.377741e-11 0)
(0.0001483501 3.0923163e-11 0)
(0.00014675315 2.7997389e-11 0)
(0.00014527295 2.4957021e-11 0)
(0.00014392502 2.1763902e-11 0)
(0.00014272874 1.8303643e-11 0)
(0.00014171803 1.46233e-11 0)
(0.00014090609 1.02445e-11 -2.2944583e-25)
(0.00014040613 2.0860119e-11 0)
(0.00014017244 9.5150955e-13 0)
(0.00014032182 -4.9651598e-12 0)
(0.00014089696 -1.0840536e-11 0)
(0.00014196712 -1.7207378e-11 0)
(0.00014359837 -2.3814808e-11 0)
(0.00014584622 -3.0171588e-11 0)
(0.00014870515 -3.5746824e-11 0)
(0.00015214351 -4.0521585e-11 0)
(0.00015614696 -4.3940224e-11 0)
(0.00016056203 -4.4378862e-11 0)
(0.00016502097 -4.1118969e-11 0)
(0.00016915642 -3.4698921e-11 0)
(0.00017260434 -1.0138424e-10 8.6583366e-21)
(0.00017533163 -1.9804627e-11 0)
(0.00017737139 -1.3945017e-11 0)
(0.00017886275 -9.6265084e-12 0)
(0.00017994125 -6.5440708e-12 0)
(0.00018070717 -4.3357971e-12 0)
(0.00018123306 -2.708726e-12 0)
(0.00018156056 -1.4634903e-12 0)
(0.00018171968 -5.310344e-13 0)
(0.00018173321 3.3069111e-13 0)
(0.00018160107 9.8129735e-13 0)
(0.00018132602 1.5938651e-12 0)
(0.0001809272 2.1339366e-12 0)
(0.00018042057 2.5970088e-12 0)
(0.00017982629 2.9562563e-12 0)
(0.00017916803 3.2257063e-12 0)
(0.00017846005 3.4288776e-12 0)
(0.00017771615 3.5587495e-12 0)
(0.00017695347 3.6233211e-12 0)
(0.00017618241 3.6538921e-12 0)
(0.00017540693 3.66289e-12 0)
(0.00017463221 3.6411477e-12 0)
(0.00017386604 3.5942315e-12 0)
(0.00017311123 3.5421217e-12 0)
(0.00017236717 3.4945749e-12 0)
(0.00017163253 3.4485362e-12 0)
(0.00017090803 3.4017083e-12 0)
(0.00017019323 3.3499131e-12 0)
(0.00016949071 3.3680526e-12 0)
(0.00016876818 3.3384111e-12 0)
(0.00016807873 3.6512452e-12 0)
(0.00016722275 1.384082e-11 0)
(0.00016652761 3.974197e-12 4.820958e-24)
(0.00016551671 9.1260565e-12 0)
(1 1.5995087e-09 0)
(0.99996003 4.4612427e-09 0)
(0.99989699 6.5211837e-09 0)
(0.99982595 8.4068629e-09 0)
(0.9997447 1.0943197e-08 0)
(0.9996512 1.4229083e-08 0)
(0.99954421 1.8415947e-08 0)
(0.99942214 2.3806284e-08 0)
(0.99928266 3.0813521e-08 0)
(0.99912284 3.9973487e-08 0)
(0.99893897 5.2003797e-08 0)
(0.99872644 6.7919515e-08 0)
(0.99847909 8.9124288e-08 0)
(0.99818905 1.1785466e-07 0)
(0.99784433 1.5690271e-07 0)
(0.99743105 2.1282445e-07 0)
(0.99691811 2.8917612e-07 0)
(0.99628901 4.1758028e-07 0)
(0.99541488 5.7215051e-07 0)
(0.9943835 9.7655687e-07 0)
(0.99240801 1.2948633e-06 0)
(0.99058385 3.2718464e-06 0)
(0.98335533 1.6547721e-06 1.9530498e-20)
(0.98597179 0.0003688627 -7.5525074e-21)
(0.0093916442 0.00037087726 0)
(0.0037059771 1.2122547e-06 0)
(0.0026370647 2.7087953e-07 3.716133e-22)
(0.0021652167 1.2785518e-07 0)
(0.0018923544 7.8279916e-08 0)
(0.0017050822 5.5035491e-08 0)
(0.0015658492 4.1623861e-08 0)
(0.0014558075 3.307993e-08 0)
(0.0013658248 2.7079218e-08 0)
(0.0012904411 2.2673353e-08 0)
(0.0012259529 1.9344994e-08 0)
(0.0011698547 1.6751033e-08 0)
(0.0011204168 1.4674371e-08 0)
(0.0010763861 1.2979201e-08 0)
(0.0010368142 1.1575062e-08 0)
(0.0010009671 1.0395019e-08 0)
(0.0009682827 9.3946191e-09 -7.6098051e-25)
(0.00093828022 8.5365593e-09 -3.7019149e-26)
(0.00091061463 7.7915073e-09 0)
(0.00088497651 7.1421509e-09 0)
(0.00086111793 6.5712473e-09 0)
(0.00083883025 6.0663605e-09 0)
(0.00081793717 5.6172933e-09 0)
(0.00079828908 5.2157352e-09 0)
(0.00077975793 4.8548382e-09 0)
(0.00076223398 4.5290232e-09 0)
(0.00074562164 4.2338024e-09 0)
(0.00072983705 3.9653158e-09 0)
(0.00071480704 3.7202587e-09 0)
(0.00070046708 3.4958377e-09 0)
(0.00068676036 3.2896042e-09 0)
(0.00067363685 3.0995399e-09 0)
(0.00066105153 2.9239812e-09 0)
(0.00064896396 2.7614072e-09 0)
(0.00063733809 2.6104689e-09 0)
(0.00062614147 2.4700151e-09 0)
(0.00061534485 2.3390012e-09 0)
(0.00060492211 2.2164556e-09 0)
(0.00059485005 2.1015683e-09 0)
(0.00058510753 1.993716e-09 0)
(0.00057567489 1.8923048e-09 0)
(0.00056653453 1.7967199e-09 0)
(0.00055767082 1.7064007e-09 0)
(0.0005490699 1.6208769e-09 0)
(0.00054071928 1.5397236e-09 0)
(0.00053260804 1.4624798e-09 0)
(0.00052472724 1.3887107e-09 0)
(0.00051706953 1.3180605e-09 0)
(0.000509629 1.2501967e-09 0)
(0.0005024013 1.1848091e-09 0)
(0.00049538353 1.1216094e-09 0)
(0.00048857442 1.0603024e-09 0)
(0.00048197449 1.0005108e-09 0)
(0.00047558734 9.416318e-10 0)
(0.00046942189 8.8314152e-10 0)
(0.00046348987 8.2476069e-10 0)
(0.00045780584 7.6616329e-10 0)
(0.00045238843 7.0706626e-10 0)
(0.00044725922 6.4719189e-10 0)
(0.00044244458 5.8580429e-10 0)
(0.00043798201 5.2200574e-10 0)
(0.00043391827 4.5501457e-10 0)
(0.00043031179 3.8223555e-10 0)
(0.00042726482 3.0548478e-10 0)
(0.00042481732 2.1297462e-10 3.1898508e-25)
(0.00042331024 1.1692368e-10 3.0677608e-25)
(0.00042260629 1.3495427e-11 0)
(0.00042305721 -1.0412478e-10 0)
(0.00042479182 -2.2903065e-10 0)
(0.00042801888 -3.6245558e-10 0)
(0.00043293757 -5.0079508e-10 0)
(0.0004397151 -6.336445e-10 0)
(0.00044833486 -7.5002909e-10 0)
(0.0004587014 -8.4969076e-10 0)
(0.00047077113 -9.2065226e-10 0)
(0.00048408131 -9.2877997e-10 0)
(0.00049752346 -8.5982036e-10 0)
(0.00050999013 -7.2445886e-10 0)
(0.00052038443 -5.7044232e-10 -1.0101458e-25)
(0.00052860631 -4.1309594e-10 0)
(0.00053475571 -2.9067961e-10 0)
(0.00053925196 -2.0061994e-10 0)
(0.00054250357 -1.3633241e-10 0)
(0.00054481286 -9.026995e-11 0)
(0.00054639847 -5.6322112e-11 0)
(0.00054738595 -3.0334327e-11 0)
(0.00054786578 -1.0240915e-11 0)
(0.00054790665 6.1468303e-12 0)
(0.00054750831 2.0734593e-11 0)
(0.00054667914 3.3539452e-11 0)
(0.00054547676 4.4829085e-11 0)
(0.00054394934 5.4504677e-11 0)
(0.00054215768 6.2009964e-11 0)
(0.00054017313 6.763828e-11 0)
(0.00053803866 7.187797e-11 0)
(0.0005357959 7.4585466e-11 0)
(0.0005334965 7.5929216e-11 0)
(0.00053117187 7.6562364e-11 0)
(0.00052883391 7.6743872e-11 0)
(0.00052649822 7.6282708e-11 0)
(0.00052418833 7.5296679e-11 0)
(0.00052191266 7.4202192e-11 0)
(0.00051966943 7.3203795e-11 0)
(0.00051745457 7.2235258e-11 0)
(0.00051527034 7.1252599e-11 0)
(0.00051311532 7.0164972e-11 0)
(0.00051099734 7.0546175e-11 0)
(0.00050881909 6.9903721e-11 0)
(0.0005067405 7.6495861e-11 0)
(0.00050416028 7.7944729e-11 0)
(0.00050206451 8.4251574e-11 -7.4571093e-24)
(0.00049901674 5.1111599e-11 1.1521283e-24)
(1 2.6959547e-09 0)
(0.99995992 7.5201587e-09 0)
(0.99989667 1.0993633e-08 0)
(0.9998254 1.4172843e-08 0)
(0.99974388 1.8448649e-08 0)
(0.99965006 2.3987956e-08 0)
(0.99954273 3.1045972e-08 0)
(0.99942025 4.0132512e-08 0)
(0.99928033 5.1944373e-08 0)
(0.99911999 6.7384625e-08 0)
(0.99893555 8.7662669e-08 0)
(0.99872236 1.1448915e-07 0)
(0.99847426 1.5022946e-07 0)
(0.99818334 1.9865257e-07 0)
(0.99783762 2.6446312e-07 0)
(0.99742315 3.5870895e-07 0)
(0.99690877 4.8737963e-07 0)
(0.99627797 7.0376349e-07 0)
(0.99540153 9.642237e-07 0)
(0.99436756 1.6456443e-06 0)
(0.99238735 2.1819827e-06 0)
(0.9905589 5.5132584e-06 0)
(0.98331378 2.7914521e-06 -1.034733e-20)
(0.98592803 0.00061874289 6.8091022e-55)
(0.01575949 0.00062329113 -6.8070804e-55)
(0.0062376524 3.3991116e-06 0)
(0.0044387441 7.7378003e-07 -1.9898067e-22)
(0.0036445885 3.7118356e-07 0)
(0.003185283 2.2727068e-07 0)
(0.0028700508 1.5978665e-07 0)
(0.0026356805 1.2084685e-07 0)
(0.0024504513 9.6040112e-08 0)
(0.0022989873 7.8618306e-08 0)
(0.0021720974 6.5826731e-08 0)
(0.0020635478 5.616339e-08 0)
(0.001969121 4.8632303e-08 0)
(0.0018859054 4.2603162e-08 0)
(0.0018117915 3.7681628e-08 0)
(0.0017451828 3.3605046e-08 0)
(0.0016848439 3.0179091e-08 0)
(0.0016298287 2.727467e-08 0)
(0.0015793279 2.478351e-08 0)
(0.0015327605 2.2620462e-08 0)
(0.0014896058 2.073523e-08 0)
(0.0014494466 1.9077769e-08 0)
(0.0014119315 1.761197e-08 0)
(0.0013767638 1.6308228e-08 0)
(0.0013436918 1.5142416e-08 0)
(0.0013124998 1.4094653e-08 0)
(0.0012830032 1.3148743e-08 0)
(0.001255041 1.2291653e-08 0)
(0.001228472 1.1512179e-08 0)
(0.0012031732 1.0800726e-08 0)
(0.001179036 1.0149183e-08 0)
(0.0011559646 9.5504442e-09 0)
(0.0011338748 8.9986476e-09 0)
(0.001112691 8.4889637e-09 0)
(0.001092345 8.0169774e-09 0)
(0.0010727761 7.578772e-09 0)
(0.0010539297 7.1710054e-09 0)
(0.0010357567 6.7906449e-09 0)
(0.0010182129 6.43487e-09 0)
(0.0010012594 6.1013289e-09 0)
(0.00098486064 5.7882122e-09 0)
(0.00096898344 5.4937954e-09 0)
(0.00095359821 5.2162932e-09 0)
(0.00093867862 4.9540786e-09 0)
(0.00092420137 4.7057863e-09 0)
(0.00091014543 4.4701822e-09 0)
(0.00089649241 4.2459285e-09 0)
(0.00088322727 4.0317629e-09 0)
(0.00087033766 3.8266521e-09 0)
(0.00085781358 3.6296308e-09 0)
(0.00084564774 3.4397987e-09 0)
(0.00083383527 3.2563186e-09 0)
(0.000822374 3.0783329e-09 0)
(0.00081126484 2.9047467e-09 0)
(0.00080051384 2.73381e-09 0)
(0.00079013601 2.5640026e-09 0)
(0.0007801511 2.3945128e-09 0)
(0.00077058362 2.2243946e-09 0)
(0.00076146493 2.0528262e-09 0)
(0.00075283135 1.8789989e-09 0)
(0.00074472731 1.7007773e-09 0)
(0.00073721592 1.5155545e-09 0)
(0.00073037589 1.3210569e-09 0)
(0.00072430564 1.1097758e-09 0)
(0.0007191772 8.8688589e-10 0)
(0.00071505813 6.1838214e-10 0)
(0.0007125216 3.341699e-10 6.5009053e-25)
(0.00071133747 3.9809134e-11 0)
(0.00071209712 -3.0245818e-10 0)
(0.00071501763 -6.6486805e-10 0)
(0.00072045026 -1.0522189e-09 0)
(0.00072873022 -1.4538366e-09 0)
(0.00074013886 -1.8395284e-09 0)
(0.00075464821 -2.1774352e-09 0)
(0.00077209755 -2.466759e-09 0)
(0.00079241315 -2.6727424e-09 0)
(0.00081481593 -2.6963738e-09 0)
(0.0008374405 -2.496215e-09 0)
(0.00085842292 -2.1033488e-09 0)
(0.00087591785 -1.6299174e-09 0)
(0.0008897563 -1.1994312e-09 0)
(0.00090010683 -8.4404098e-10 0)
(0.000907675 -5.8255578e-10 0)
(0.00091314832 -3.9589609e-10 0)
(0.00091703556 -2.6214792e-10 0)
(0.00091970468 -1.635731e-10 0)
(0.00092136699 -8.811412e-11 0)
(0.00092217483 -2.984592e-11 0)
(0.00092224375 1.7938804e-11 0)
(0.00092157338 6.0172569e-11 0)
(0.00092017779 9.7352919e-11 0)
(0.00091815398 1.3013256e-10 0)
(0.00091558308 1.5822526e-10 0)
(0.00091256739 1.8001772e-10 0)
(0.00090922699 1.9636013e-10 0)
(0.00090563426 2.0866984e-10 0)
(0.00090185926 2.1653192e-10 0)
(0.00089798892 2.2043483e-10 0)
(0.00089407609 2.2227365e-10 0)
(0.00089014083 2.2280074e-10 0)
(0.00088620941 2.2146264e-10 0)
(0.00088232139 2.1860095e-10 0)
(0.00087849099 2.1542346e-10 0)
(0.00087471518 2.1252465e-10 0)
(0.00087098714 2.0971239e-10 0)
(0.00086731066 2.0685949e-10 0)
(0.00086368336 2.0370146e-10 0)
(0.00086011841 2.0480673e-10 0)
(0.00085645209 2.0293771e-10 0)
(0.00085295343 2.2207581e-10 0)
(0.000848611 2.2263836e-10 0)
(0.00084508335 2.4479963e-10 0)
(0.00083995331 1.4571542e-10 0)
(1 3.8360966e-09 1.0806231e-24)
(0.99995979 1.0702043e-08 0)
(0.99989632 1.5646965e-08 0)
(0.99982478 2.0172284e-08 0)
(0.99974296 2.6257881e-08 0)
(0.9996488 3.41416e-08 0)
(0.99954107 4.4186554e-08 0)
(0.99941815 5.7118126e-08 0)
(0.99927772 7.3927771e-08 0)
(0.99911681 9.5900412e-08 0)
(0.99893172 1.2475675e-07 0)
(0.99871779 1.6293056e-07 0)
(0.99846885 2.13787e-07 0)
(0.99817696 2.8268798e-07 0)
(0.99783011 3.7632578e-07 0)
(0.99741431 5.1041727e-07 0)
(0.99689833 6.9347821e-07 0)
(0.99626561 1.0013175e-06 0)
(0.99538662 1.3718329e-06 0)
(0.99434974 2.3411381e-06 0)
(0.99236428 3.1040574e-06 0)
(0.99053104 7.8427942e-06 0)
(0.98326747 3.9751293e-06 0)
(0.98587927 0.00087603956 -3.5523835e-55)
(0.022322238 0.00088433066 3.5513405e-55)
(0.0088620189 7.0103353e-06 0)
(0.0063065607 1.5952627e-06 0)
(0.0051783193 7.6455468e-07 0)
(0.0045257109 4.6814819e-07 0)
(0.0040778109 3.2914167e-07 0)
(0.003744802 2.4892871e-07 0)
(0.0034816207 1.978283e-07 0)
(0.0032664156 1.6194171e-07 0)
(0.0030861262 1.3559275e-07 0)
(0.002931896 1.156874e-07 0)
(0.0027977324 1.001743e-07 0)
(0.0026794983 8.7755126e-08 0)
(0.0025741962 7.7617517e-08 0)
(0.0024795579 6.9220394e-08 0)
(0.0023938278 6.2163492e-08 0)
(0.0023156616 5.6180851e-08 0)
(0.0022439097 5.1049468e-08 0)
(0.0021777465 4.6593979e-08 0)
(0.0021164321 4.2710729e-08 0)
(0.0020593736 3.9296654e-08 0)
(0.002006072 3.627737e-08 0)
(0.0019561057 3.3591897e-08 0)
(0.0019091168 3.1190537e-08 0)
(0.0018647991 2.9032337e-08 0)
(0.0018228902 2.7083936e-08 0)
(0.0017831614 2.531849e-08 0)
(0.0017454122 2.3712917e-08 0)
(0.0017094677 2.2247456e-08 0)
(0.0016751734 2.0905401e-08 0)
(0.0016423935 1.9672111e-08 0)
(0.0016110083 1.8535514e-08 0)
(0.0015809103 1.7485662e-08 0)
(0.0015520026 1.6513459e-08 0)
(0.0015241991 1.5610839e-08 0)
(0.0014974221 1.4770918e-08 0)
(0.0014716018 1.3987448e-08 0)
(0.0014466755 1.325462e-08 0)
(0.001422588 1.256759e-08 0)
(0.0013992885 1.192263e-08 0)
(0.0013767301 1.1316188e-08 0)
(0.0013548707 1.0744587e-08 0)
(0.0013336729 1.0204476e-08 0)
(0.0013131035 9.6930415e-09 0)
(0.0012931328 9.2077424e-09 0)
(0.0012737345 8.7458231e-09 0)
(0.0012548873 8.3046834e-09 0)
(0.0012365736 7.8821948e-09 0)
(0.0012187793 7.4763689e-09 0)
(0.001201494 7.0853508e-09 0)
(0.0011847107 6.7074161e-09 0)
(0.0011684265 6.3407981e-09 0)
(0.0011526425 5.9832411e-09 0)
(0.0011373674 5.6311413e-09 0)
(0.0011226225 5.281368e-09 0)
(0.0011084358 4.9322472e-09 0)
(0.0010948423 4.5818318e-09 0)
(0.0010818864 4.2284277e-09 0)
(0.0010696197 3.8703668e-09 0)
(0.0010581055 3.5032507e-09 0)
(0.0010474334 3.1217095e-09 0)
(0.0010377152 2.7210569e-09 0)
(0.0010290909 2.2858343e-09 0)
(0.0010218047 1.826681e-09 0)
(0.0010159531 1.27361e-09 -1.8392176e-25)
(0.0010123494 6.8885526e-10 -3.5387796e-25)
(0.001010668 8.1715365e-11 0)
(0.0010117481 -6.2319245e-10 0)
(0.0010158985 -1.3697231e-09 0)
(0.0010236182 -2.1675815e-09 0)
(0.0010353833 -2.9948054e-09 0)
(0.0010515934 -3.7892096e-09 0)
(0.0010722088 -4.4851876e-09 0)
(0.001097001 -5.0810526e-09 0)
(0.0011258649 -5.5051919e-09 0)
(0.0011576932 -5.5537538e-09 0)
(0.0011898363 -5.1414216e-09 0)
(0.0012196459 -4.332241e-09 0)
(0.0012445017 -3.3605285e-09 1.1666153e-25)
(0.0012641626 -2.4705031e-09 0)
(0.0012788685 -1.738531e-09 0)
(0.0012896215 -1.1999526e-09 0)
(0.0012973983 -8.1548524e-10 0)
(0.0013029217 -5.399935e-10 0)
(0.0013067144 -3.3694622e-10 0)
(0.0013090765 -1.8151438e-10 0)
(0.0013102246 -6.1480332e-11 0)
(0.0013103227 3.6926017e-11 0)
(0.0013093705 1.2393662e-10 0)
(0.0013073878 2.005235e-10 0)
(0.0013045125 2.680443e-10 0)
(0.0013008598 3.2590961e-10 0)
(0.0012965752 3.7079925e-10 0)
(0.0012918293 4.0446144e-10 0)
(0.0012867248 4.2981622e-10 0)
(0.0012813613 4.4601081e-10 0)
(0.0012758624 4.5405096e-10 0)
(0.0012703031 4.5783842e-10 0)
(0.001264712 4.5892341e-10 0)
(0.0012591263 4.5616736e-10 0)
(0.0012536022 4.5027353e-10 0)
(0.00124816 4.4372826e-10 0)
(0.0012427954 4.3775654e-10 0)
(0.0012374986 4.3196286e-10 0)
(0.0012322752 4.2608594e-10 0)
(0.0012271216 4.1958044e-10 0)
(0.0012220566 4.2185379e-10 0)
(0.0012168477 4.1800026e-10 0)
(0.0012118769 4.5741283e-10 0)
(0.001205708 4.5899046e-10 0)
(0.001200696 5.0444556e-10 0)
(0.0011934072 3.0011662e-10 0)
(1 5.0375344e-09 0)
(0.99995965 1.4056165e-08 0)
(0.99989593 2.0553449e-08 0)
(0.99982409 2.6498419e-08 0)
(0.99974192 3.4492229e-08 0)
(0.99964737 4.4847733e-08 0)
(0.9995392 5.8041737e-08 0)
(0.99941578 7.5026761e-08 0)
(0.99927478 9.7104751e-08 0)
(0.99911323 1.2596297e-07 0)
(0.99892742 1.6386082e-07 0)
(0.99871266 2.1399388e-07 0)
(0.99846277 2.807804e-07 0)
(0.99816979 3.7126025e-07 0)
(0.99782167 4.9421883e-07 0)
(0.99740439 6.7029097e-07 0)
(0.9968866 9.1064965e-07 0)
(0.99625174 1.3148246e-06 0)
(0.99536987 1.8012474e-06 0)
(0.99432973 3.0737151e-06 0)
(0.9923384 4.0752276e-06 0)
(0.9904998 1.0296159e-05 0)
(0.98321561 5.2243448e-06 0)
(0.98582469 0.0011443957 0)
(0.029172816 0.0011577161 0)
(0.011618147 1.2199488e-05 0)
(0.0082683444 2.7678731e-06 0)
(0.0067892686 1.3259813e-06 0)
(0.0059336154 8.1195871e-07 0)
(0.0053463619 5.7086727e-07 0)
(0.0049097421 4.3174284e-07 0)
(0.0045646825 3.4311107e-07 0)
(0.0042825261 2.8086929e-07 0)
(0.0040461482 2.3516964e-07 0)
(0.0038439373 2.0064552e-07 0)
(0.0036680365 1.7373949e-07 0)
(0.0035130212 1.5219975e-07 0)
(0.0033749612 1.3461723e-07 0)
(0.0032508825 1.200534e-07 0)
(0.0031384833 1.078141e-07 0)
(0.0030360011 9.7437924e-08 0)
(0.0029419288 8.8538172e-08 0)
(0.0028551837 8.0810738e-08 0)
(0.0027747958 7.4075751e-08 0)
(0.0026999878 6.81545e-08 0)
(0.0026301053 6.2917961e-08 0)
(0.0025645957 5.8260376e-08 0)
(0.0025029897 5.4095547e-08 0)
(0.0024448859 5.0352449e-08 0)
(0.0023899402 4.6973221e-08 0)
(0.0023378528 4.3911303e-08 0)
(0.0022883608 4.1126664e-08 0)
(0.0022412347 3.8585029e-08 0)
(0.0021962724 3.6257425e-08 0)
(0.0021532955 3.4118459e-08 0)
(0.0021121472 3.2147197e-08 0)
(0.0020726864 3.0326378e-08 0)
(0.0020347863 2.8640233e-08 0)
(0.0019983338 2.7074769e-08 0)
(0.0019632272 2.5618046e-08 0)
(0.0019293748 2.4259231e-08 0)
(0.0018966946 2.2988248e-08 0)
(0.001865114 2.1796695e-08 0)
(0.0018345666 2.0678108e-08 0)
(0.0018049908 1.9626324e-08 0)
(0.0017763315 1.8634966e-08 0)
(0.0017485395 1.7698223e-08 0)
(0.0017215715 1.6811215e-08 0)
(0.0016953883 1.5969535e-08 0)
(0.0016699556 1.5168404e-08 0)
(0.0016452454 1.4403313e-08 0)
(0.0016212348 1.3670569e-08 0)
(0.001597905 1.2966723e-08 0)
(0.0015752426 1.228856e-08 0)
(0.0015532384 1.1633086e-08 0)
(0.0015318883 1.0997238e-08 0)
(0.0015111942 1.0377104e-08 0)
(0.0014911673 9.7664347e-09 0)
(0.0014718355 9.1598002e-09 0)
(0.0014532357 8.5542954e-09 0)
(0.0014354134 7.9465443e-09 0)
(0.0014184272 7.3336078e-09 0)
(0.0014023447 6.7125886e-09 0)
(0.0013872486 6.0758583e-09 0)
(0.0013732567 5.414103e-09 0)
(0.0013605156 4.7191902e-09 0)
(0.0013492088 3.9643275e-09 0)
(0.0013396564 3.1679075e-09 0)
(0.0013319857 2.2087055e-09 0)
(0.0013272608 1.1951189e-09 0)
(0.0013250577 1.4137588e-10 0)
(0.0013264748 -1.0811242e-09 0)
(0.0013319175 -2.3759004e-09 0)
(0.0013420397 -3.7596516e-09 0)
(0.0013574656 -5.1943004e-09 0)
(0.0013787189 -6.5720115e-09 0)
(0.0014057478 -7.7790196e-09 0)
(0.0014382525 -8.8123249e-09 0)
(0.0014760942 -9.5477106e-09 0)
(0.0015178214 -9.6317763e-09 0)
(0.0015599608 -8.9165906e-09 0)
(0.0015990406 -7.5132874e-09 0)
(0.0016316275 -5.8311317e-09 0)
(0.0016574034 -4.2846181e-09 0)
(0.001676684 -3.0152168e-09 0)
(0.0016907825 -2.0811725e-09 0)
(0.001700979 -1.4143881e-09 0)
(0.0017082213 -9.3658877e-10 0)
(0.0017131943 -5.8442565e-10 0)
(0.0017162917 -3.1484711e-10 0)
(0.0017177974 -1.0665342e-10 0)
(0.0017179265 6.4012929e-11 0)
(0.0017166783 2.1493252e-10 0)
(0.0017140791 3.4776622e-10 0)
(0.0017103096 4.6487371e-10 0)
(0.0017055209 5.6523312e-10 0)
(0.0016999036 6.4308961e-10 0)
(0.0016936814 7.0147301e-10 0)
(0.0016869892 7.4544634e-10 0)
(0.0016799575 7.7353421e-10 0)
(0.0016727481 7.8748038e-10 0)
(0.0016654595 7.9404918e-10 0)
(0.0016581291 7.9592997e-10 0)
(0.001650806 7.9115048e-10 0)
(0.0016435636 7.8092968e-10 0)
(0.0016364285 7.6957759e-10 0)
(0.0016293952 7.5921928e-10 0)
(0.0016224509 7.4916956e-10 0)
(0.0016156026 7.3897598e-10 0)
(0.001608846 7.2769242e-10 0)
(0.0016022055 7.3162876e-10 0)
(0.0015953766 7.2494219e-10 0)
(0.0015888596 7.9327525e-10 0)
(0.001580773 7.9637855e-10 0)
(0.0015742018 8.7509317e-10 -9.6064194e-24)
(0.0015646457 5.2044525e-10 1.4842264e-24)
(1 6.3191144e-09 0)
(0.9999595 1.7635394e-08 0)
(0.99989548 2.5790749e-08 0)
(0.99982331 3.3251466e-08 0)
(0.99974076 4.328211e-08 0)
(0.99964576 5.6275857e-08 0)
(0.99953709 7.2830776e-08 0)
(0.9994131 9.4141644e-08 0)
(0.99927147 1.218416e-07 0)
(0.9991092 1.5804704e-07 0)
(0.99892256 2.0559186e-07 0)
(0.99870687 2.68484e-07 0)
(0.99845591 3.522646e-07 0)
(0.9981617 4.657626e-07 0)
(0.99781215 6.1999451e-07 0)
(0.99739319 8.4083851e-07 0)
(0.99687338 1.1422964e-06 0)
(0.99623611 1.6491883e-06 0)
(0.995351 2.2591719e-06 0)
(0.9943072 3.8547817e-06 0)
(0.99230925 5.1105974e-06 0)
(0.99046463 1.2911453e-05 0)
(0.98315732 6.5592179e-06 0)
(0.98576337 0.001427504 0)
(0.036406336 0.0014474206 0)
(0.014547057 1.9124033e-05 0)
(0.010353325 4.3578845e-06 0)
(0.0085014493 2.0877796e-06 0)
(0.0074299813 1.2785128e-06 0)
(0.0066946102 8.9889213e-07 0)
(0.006147862 6.7982273e-07 0)
(0.005715777 5.402581e-07 0)
(0.0053624613 4.4225218e-07 0)
(0.0050664696 3.7029361e-07 0)
(0.0048132627 3.1593158e-07 0)
(0.0045930023 2.7356524e-07 0)
(0.0043988949 2.3964893e-07 0)
(0.004226019 2.1196377e-07 0)
(0.0040706505 1.8903186e-07 0)
(0.003929907 1.6976017e-07 0)
(0.0038015813 1.5342207e-07 0)
(0.0036837867 1.3940873e-07 1.19308e-25)
(0.0035751668 1.2724141e-07 0)
(0.0034745075 1.1663671e-07 -8.9703293e-35)
(0.003380835 1.0731332e-07 0)
(0.0032933303 9.906805e-08 0)
(0.0032113011 9.1734386e-08 0)
(0.0031341599 8.5176602e-08 0)
(0.0030614041 7.9282865e-08 0)
(0.0029926028 7.3962068e-08 0)
(0.0029273805 6.9140895e-08 0)
(0.0028654082 6.4756316e-08 0)
(0.0028063984 6.0754362e-08 0)
(0.0027500979 5.7089412e-08 0)
(0.0026962836 5.3721488e-08 0)
(0.002644759 5.0617622e-08 0)
(0.0025953474 4.775064e-08 0)
(0.0025478901 4.5095709e-08 0)
(0.0025022453 4.2630797e-08 0)
(0.002458286 4.0337105e-08 0)
(0.002415897 3.8197574e-08 0)
(0.0023749759 3.6196342e-08 0)
(0.0023354316 3.4320179e-08 0)
(0.0022971811 3.2558903e-08 0)
(0.0022601471 3.0902814e-08 0)
(0.0022242607 2.9341868e-08 0)
(0.0021894604 2.7866915e-08 0)
(0.0021556918 2.6470274e-08 0)
(0.0021229059 2.5145004e-08 0)
(0.0020910598 2.388358e-08 0)
(0.0020601184 2.2678904e-08 0)
(0.0020300528 2.152516e-08 0)
(0.0020008399 2.0416918e-08 0)
(0.0019724626 1.9349112e-08 0)
(0.0019449094 1.8317032e-08 0)
(0.0019181754 1.7315853e-08 0)
(0.0018922627 1.6339412e-08 0)
(0.0018671855 1.5377874e-08 0)
(0.0018429786 1.442269e-08 0)
(0.0018196883 1.3469282e-08 0)
(0.0017973717 1.2512336e-08 0)
(0.0017761019 1.1547222e-08 0)
(0.0017559637 1.0569371e-08 0)
(0.0017370609 9.5667736e-09 0)
(0.0017195407 8.5247618e-09 0)
(0.0017035868 7.4305221e-09 0)
(0.0016894291 6.2419076e-09 0)
(0.0016774682 4.9877434e-09 0)
(0.0016678646 3.4774924e-09 0)
(0.0016619479 1.8816033e-09 0)
(0.0016591909 2.2215296e-10 0)
(0.0016609664 -1.7027003e-09 0)
(0.0016677829 -3.7414201e-09 0)
(0.0016804589 -5.9201821e-09 0)
(0.0016997759 -8.1790379e-09 0)
(0.0017263895 -1.0348226e-08 0)
(0.0017602347 -1.2248638e-08 0)
(0.0018009362 -1.3875428e-08 0)
(0.0018483192 -1.5033003e-08 0)
(0.0019005658 -1.5165158e-08 0)
(0.0019533284 -1.4038993e-08 0)
(0.0020022593 -1.1829613e-08 -6.3212741e-25)
(0.0020430629 -9.1816193e-09 0)
(0.0020753377 -6.746261e-09 0)
(0.0020994806 -4.7476646e-09 0)
(0.0021171351 -3.2770124e-09 0)
(0.0021299038 -2.2271416e-09 0)
(0.0021389733 -1.4748136e-09 0)
(0.0021452012 -9.2029612e-10 0)
(0.0021490805 -4.9581782e-10 0)
(0.0021509666 -1.6799032e-10 0)
(0.0021511288 1.0074582e-10 0)
(0.0021495663 3.3838742e-10 0)
(0.0021463121 5.4755056e-10 0)
(0.0021415923 7.319479e-10 0)
(0.0021355964 8.8997127e-10 0)
(0.0021285628 1.0125642e-09 0)
(0.0021207718 1.1044951e-09 0)
(0.0021123922 1.173733e-09 0)
(0.0021035874 1.2179606e-09 0)
(0.0020945602 1.2399227e-09 0)
(0.0020854338 1.250266e-09 0)
(0.0020762551 1.2532261e-09 0)
(0.0020670853 1.2457015e-09 0)
(0.0020580168 1.2296104e-09 0)
(0.0020490826 1.2117356e-09 0)
(0.0020402757 1.1954239e-09 0)
(0.0020315804 1.1795979e-09 0)
(0.0020230053 1.163546e-09 0)
(0.0020145451 1.1457785e-09 0)
(0.0020062302 1.1519652e-09 0)
(0.0019976798 1.1414345e-09 0)
(0.0019895194 1.2489845e-09 0)
(0.0019793953 1.2538881e-09 0)
(0.001971167 1.3780861e-09 0)
(0.0019592011 8.1918277e-10 -8.4709413e-25)
(1 7.7012077e-09 0)
(0.99995932 2.1497012e-08 0)
(0.99989497 3.1443124e-08 0)
(0.99982242 4.0540185e-08 0)
(0.99973943 5.2769046e-08 0)
(0.99964394 6.8609883e-08 0)
(0.9995347 8.8791524e-08 0)
(0.99941008 1.1476997e-07 0)
(0.99926772 1.4853549e-07 0)
(0.99910463 1.9266725e-07 0)
(0.99891706 2.5061851e-07 0)
(0.99870032 3.2727301e-07 0)
(0.99844815 4.2938221e-07 0)
(0.99815255 5.6770348e-07 0)
(0.99780138 7.556574e-07 0)
(0.99738052 1.0247736e-06 0)
(0.99685842 1.3920976e-06 0)
(0.99621842 2.0097074e-06 0)
(0.99532966 2.7528472e-06 0)
(0.99428173 4.6966457e-06 0)
(0.99227634 6.2264637e-06 0)
(0.99042492 1.5729738e-05 0)
(0.9830916 8.0016068e-06 0)
(0.9856943 0.00172916 0)
(0.044121143 0.0017575719 0)
(0.017692324 2.8245076e-05 0)
(0.012592567 6.4609676e-06 0)
(0.010340385 3.0956397e-06 0)
(0.0090371135 1.8958193e-06 0)
(0.0081426515 1.3329093e-06 0)
(0.0074776143 1.0080612e-06 0)
(0.006952059 8.0110281e-07 0)
(0.0065223148 6.5577681e-07 0)
(0.0061622952 5.4907476e-07 0)
(0.0058543169 4.6846469e-07 0)
(0.0055864131 4.0564252e-07 0)
(0.0053503201 3.5535073e-07 0)
(0.0051400515 3.1429884e-07 0)
(0.0049510774 2.8029518e-07 0)
(0.0047798919 2.517191e-07 0)
(0.0046238101 2.2749284e-07 0)
(0.0044805377 2.0671379e-07 0)
(0.0043484244 1.8867221e-07 0)
(0.0042259934 1.7294759e-07 9.6763238e-35)
(0.0041120606 1.5912293e-07 0)
(0.0040056296 1.468969e-07 0)
(0.0039058584 1.3602261e-07 0)
(0.0038120326 1.2629878e-07 0)
(0.0037235405 1.1755961e-07 0)
(0.0036398583 1.0966999e-07 0)
(0.0035605293 1.0252121e-07 0)
(0.0034851531 9.6019811e-08 0)
(0.0034133802 9.0085763e-08 0)
(0.0033449027 8.4651421e-08 0)
(0.0032794489 7.965751e-08 0)
(0.0032167802 7.5055143e-08 0)
(0.0031566815 7.0804023e-08 0)
(0.0030989597 6.6867329e-08 0)
(0.0030434426 6.3212394e-08 0)
(0.0029899753 5.9811342e-08 0)
(0.0029384181 5.6638879e-08 0)
(0.0028886463 5.3671486e-08 0)
(0.002840549 5.0889545e-08 0)
(0.0027940252 4.8277956e-08 0)
(0.0027489813 4.5822336e-08 0)
(0.0027053329 4.3507794e-08 0)
(0.0026630056 4.132076e-08 0)
(0.0026219332 3.9249846e-08 0)
(0.002582056 3.7284758e-08 0)
(0.0025433218 3.5414343e-08 0)
(0.002505688 3.3628071e-08 0)
(0.0024691195 3.1917321e-08 0)
(0.0024335879 3.0274041e-08 0)
(0.0023990727 2.8690717e-08 0)
(0.0023655599 2.7160366e-08 0)
(0.0023330435 2.567583e-08 0)
(0.0023015259 2.4227973e-08 0)
(0.0022710245 2.2802214e-08 0)
(0.0022415818 2.1385875e-08 0)
(0.0022132538 1.9972167e-08 0)
(0.0021861101 1.8553211e-08 0)
(0.0021602397 1.7122139e-08 0)
(0.0021357457 1.5672167e-08 0)
(0.0021127543 1.4185486e-08 0)
(0.0020914446 1.2640346e-08 0)
(0.0020720402 1.1017731e-08 0)
(0.0020548207 9.255218e-09 0)
(0.0020402731 7.395301e-09 0)
(0.0020285944 5.1560602e-09 0)
(0.0020213972 2.7896384e-09 0)
(0.0020180459 3.2876088e-10 0)
(0.0020202068 -2.5253124e-09 0)
(0.0020284991 -5.5483253e-09 0)
(0.0020439182 -8.7789094e-09 0)
(0.0020674146 -1.2128185e-08 0)
(0.0020997851 -1.5344489e-08 0)
(0.0021409512 -1.8162266e-08 0)
(0.002190456 -2.0574132e-08 0)
(0.0022480855 -2.2290076e-08 0)
(0.0023116288 -2.2485743e-08 0)
(0.0023757994 -2.0815806e-08 0)
(0.0024353092 -1.7540115e-08 0)
(0.0024849375 -1.3613909e-08 0)
(0.0025241921 -1.0003147e-08 0)
(0.0025535576 -7.0398772e-09 0)
(0.0025750317 -4.859285e-09 0)
(0.0025905636 -3.3025711e-09 0)
(0.0026015961 -2.1870134e-09 0)
(0.0026091723 -1.3647516e-09 0)
(0.0026138917 -7.3531902e-10 0)
(0.0026161867 -2.4919679e-10 0)
(0.0026163848 1.4930553e-10 0)
(0.0026144851 5.0169268e-10 0)
(0.0026105276 8.1185182e-10 0)