/*--------------------------------*- C++ -*----------------------------------*\
| =========                 |                                                 |
| \\      /  F ield         | OpenFOAM: The Open Source CFD Toolbox           |
|  \\    /   O peration     | Version:  2206                                  |
|   \\  /    A nd           | Website:  www.openfoam.com                      |
|    \\/     M anipulation  |                                                 |
\*---------------------------------------------------------------------------*/
FoamFile
{
    version     2.0;
    format      ascii;
    arch        "LSB;label=32;scalar=64";
    class       volScalarField;
    location    "1900";
    object      k;
}
// * * * * * * * * * * * * * * * * * * * * * * * * * * * * * * * * * * * * * //

dimensions      [0 2 -2 0 0 0 0];

internalField   nonuniform List<scalar> 
7480
(
0.011444889
0.014109033
0.011690475
0.0076593126
0.004541362
0.0027807994
0.0019366693
0.0015256263
0.0012978368
0.0011495408
0.0010349959
0.00093676097
0.00085117825
0.00077714738
0.00071295621
0.00065695039
0.00060810498
0.00056521668
0.00052705188
0.00049284716
0.00046213515
0.0004344087
0.00040920152
0.0003862192
0.0003652283
0.00034597645
0.00032823954
0.00031187501
0.00029677005
0.00028279572
0.00026983972
0.00025782881
0.00024669853
0.00023637695
0.00022680368
0.00021793779
0.00020974187
0.0002021793
0.00019522527
0.00018886746
0.00018309545
0.00017789841
0.00017327657
0.00016923055
0.00016577549
0.00016293625
0.00016075504
0.00015927527
0.0001584867
0.00015837511
0.00015891889
0.000160089
0.00016182401
0.00016401147
0.00016654124
0.00016933737
0.00017223261
0.00017497743
0.00017732796
0.00017912407
0.00018032094
0.00018094017
0.00018103861
0.00018069169
0.0001799965
0.0001790411
0.00017790314
0.00017664472
0.00017531037
0.00017393317
0.00017253827
0.00017114048
0.00016974926
0.00016837467
0.00016701915
0.00016568407
0.00016436993
0.00016302247
0.00016164629
0.00016025769
0.00015886324
0.00015746618
0.00015606116
0.00015464613
0.00015322064
0.0001517844
0.00015033969
0.00014888714
0.00014743003
0.00014596945
0.0001445077
0.00014304572
0.00014158678
0.00014012278
0.00013867795
0.00013716404
0.00013584291
0.00013394195
0.0001328713
0.00012997117
0.0014157288
0.0025664805
0.0028347274
0.0024740555
0.0020070982
0.001560807
0.0011994531
0.00093123493
0.00073504197
0.000590871
0.00048467425
0.00040594164
0.00034683765
0.00030171954
0.00026652284
0.00023840662
0.00021547533
0.00019641859
0.00018030494
0.00016650337
0.00015458891
0.00014423922
0.00013520018
0.00012728192
0.00012020212
0.00011382067
0.00010805185
0.00010284507
9.8167012e-05
9.39886e-05
9.0286958e-05
8.7048188e-05
8.4262262e-05
8.1919998e-05
8.0016164e-05
7.8550936e-05
7.7528591e-05
7.6960705e-05
7.6870471e-05
7.7293654e-05
7.8276941e-05
7.9878333e-05
8.2170104e-05
8.5237619e-05
8.9185201e-05
9.4125097e-05
0.00010014134
0.00010729171
0.00011560016
0.00012505928
0.00013563663
0.00014733589
0.00015989438
0.00017301516
0.00018640981
0.0001996478
0.00021208988
0.00022314855
0.00023247974
0.00024001402
0.00024589996
0.00025040889
0.00025379758
0.00025616032
0.00025771784
0.00025866914
0.00025917191
0.00025934278
0.00025926698
0.0002590066
0.00025860467
0.0002580877
0.00025747956
0.0002567986
0.00025605169
0.0002552399
0.00025434353
0.00025315748
0.00025176767
0.00025024481
0.00024861174
0.00024687493
0.00024503647
0.00024310341
0.00024108241
0.00023898359
0.00023681695
0.00023459258
0.00023232147
0.00023001268
0.00022767521
0.00022531703
0.00022294601
0.00022056684
0.00021818344
0.00021579421
0.00021343635
0.0002107649
0.00020884923
0.00020445538
0.00021000709
0.00055720988
0.00084138131
0.00095105392
0.00092898409
0.00084358195
0.00075621744
0.00069803101
0.00065931481
0.00062435164
0.00059314355
0.00056408719
0.00053580316
0.00050887756
0.00048357152
0.00045990989
0.00043795551
0.00041772616
0.00039922389
0.00038245779
0.00036741722
0.00035405987
0.00034233824
0.00033219279
0.00032246199
0.00031327474
0.00030474581
0.00029700486
0.00029017944
0.00028438831
0.00027975023
0.00027638275
0.0002743952
0.00027389314
0.00027498698
0.00027779229
0.00028243635
0.00028908696
0.00029796975
0.00030937077
0.00032363503
0.00034117235
0.00036246501
0.00038806676
0.00041862638
0.00045479355
0.00049699394
0.00054544808
0.00060020163
0.00066109298
0.00072758523
0.00079924708
0.00087486738
0.0009527205
0.0010311244
0.001107534
0.0011784787
0.0012410142
0.0012936342
0.0013363067
0.0013700048
0.0013963509
0.001416123
0.0014304336
0.0014405663
0.0014475632
0.0014522273
0.001455143
0.0014567359
0.0014573147
0.0014570899
0.0014561906
0.0014547414
0.0014528339
0.0014505017
0.0014477461
0.0014444506
0.0014394352
0.0014332611
0.001426315
0.00141871
0.0014104767
0.001401633
0.0013922213
0.0013822812
0.0013718709
0.0013610457
0.0013498631
0.0013383829
0.0013266564
0.0013147331
0.001302659
0.0012904763
0.0012782224
0.0012658913
0.0012535803
0.0012411813
0.0012276455
0.0012174048
0.0011948833
3.6613434e-05
0.00011641802
0.00022889474
0.0003289141
0.00038970791
0.00041116039
0.00040819818
0.00039505301
0.00038064642
0.00036978639
0.00036656439
0.00037470347
0.000386195
0.00039601095
0.00040419139
0.00041047354
0.00041546553
0.00041966801
0.00042340008
0.00042692219
0.00043045111
0.00043417496
0.00043824951
0.00044278312
0.00044761364
0.00045255515
0.00045765453
0.00046312482
0.00046924327
0.00047631104
0.00048464657
0.00049458214
0.00050645812
0.00052062502
0.00053744772
0.00055730317
0.00058060772
0.00060789228
0.00063981604
0.00067715574
0.00072079665
0.00077173608
0.0008310894
0.0009000835
0.00098009098
0.0010721838
0.0011768382
0.0012939526
0.0014230893
0.0015633716
0.0017133543
0.001869966
0.0020313332
0.0021938924
0.0023543332
0.0025072939
0.0026463411
0.0027670588
0.0028680148
0.0029501771
0.0030160667
0.0030681586
0.003108043
0.0031384847
0.0031617588
0.0031796315
0.0031934336
0.0032041251
0.0032123971
0.0032187471
0.0032235076
0.0032268817
0.0032290863
0.0032302711
0.0032304843
0.0032297105
0.003227756
0.0032222921
0.0032146301
0.0032054389
0.0031948815
0.0031830112
0.0031698733
0.0031555527
0.0031401333
0.0031237272
0.0031064399
0.0030883795
0.0030696564
0.0030503683
0.0030306039
0.0030104537
0.0029899935
0.002969305
0.0029483533
0.0029274178
0.0029059593
0.0028832373
0.0028646668
0.0028272461
1.2523888e-05
2.7574726e-05
5.8629886e-05
9.9481046e-05
0.0001389878
0.00016943766
0.00018922184
0.00020027796
0.00020549768
0.00020736242
0.00020804107
0.00020960285
0.00021296394
0.00021862704
0.00022752498
0.000240638
0.00025528483
0.00027045249
0.00028572002
0.00030135164
0.00031749626
0.00033433771
0.00035194959
0.00037026385
0.00038900377
0.00040786351
0.00042732185
0.00044782797
0.00046970774
0.00049323946
0.00051870314
0.00054641058
0.00057671942
0.0006100348
0.00064680251
0.00068750451
0.00073274072
0.00078337083
0.00084043007
0.00090505956
0.0009785024
0.0010621103
0.001157347
0.0012657825
0.0013891337
0.0015278841
0.0016816166
0.0018495812
0.0020308587
0.002224105
0.0024273161
0.0026372672
0.0028492554
0.0030592768
0.0032642169
0.0034561131
0.0036272251
0.0037742358
0.0038973712
0.003998851
0.0040813168
0.0041476184
0.0042007134
0.0042433845
0.0042779884
0.0043063786
0.0043299606
0.0043497608
0.0043665224
0.0043807821
0.0043928933
0.0044030753
0.0044115938
0.0044186087
0.0044241573
0.0044281978
0.0044305471
0.0044302374
0.0044274555
0.0044224975
0.0044155244
0.0044066294
0.0043959028
0.0043834736
0.0043694765
0.0043540702
0.0043374047
0.0043196277
0.0043008871
0.0042813161
0.0042610304
0.0042401533
0.0042187817
0.0041970272
0.0041748478
0.0041526262
0.0041295475
0.004105671
0.0040847958
0.0040463532
9.3805105e-06
1.1752641e-05
1.8506571e-05
3.0348332e-05
4.5494812e-05
6.1125696e-05
7.5215218e-05
8.6943567e-05
9.6296029e-05
0.00010358909
0.00010922056
0.00011369843
0.00011751623
0.0001211246
0.00012503059
0.00012980816
0.0001357334
0.00014308194
0.00015227954
0.00016377474
0.00017689036
0.00019190766
0.00020810755
0.00022551177
0.00024420226
0.00026423659
0.00028584271
0.00030932311
0.00033501326
0.00036329212
0.00039457875
0.00042933177
0.0004680527
0.00051127842
0.00055959368
0.00061371445
0.00067463768
0.00074338752
0.00082098106
0.00090851087
0.0010071856
0.0011183351
0.0012434018
0.0013839571
0.0015416751
0.0017147857
0.0019013222
0.0021004674
0.0023115592
0.0025334224
0.0027640197
0.0030000382
0.003236671
0.0034696516
0.003695759
0.0039039976
0.0040874987
0.0042460241
0.0043811493
0.0044954172
0.0045918451
0.0046731367
0.0047417225
0.0047998893
0.004849674
0.0048927158
0.0049303053
0.0049634333
0.004992837
0.0050190586
0.0050424527
0.0050632454
0.0050817693
0.0050981824
0.0051125039
0.0051246702
0.0051345377
0.0051414538
0.0051453755
0.0051464882
0.0051449692
0.0051409597
0.005134602
0.0051260717
0.0051155551
0.0051032554
0.0050893627
0.0050740604
0.0050575295
0.0050399344
0.0050214117
0.0050021136
0.0049821536
0.0049616652
0.0049406119
0.0049194273
0.0048971717
0.0048744792
0.0048537694
0.0048171251
8.9898107e-06
9.2310201e-06
1.0392189e-05
1.3067199e-05
1.7353922e-05
2.2794181e-05
2.8764935e-05
3.4798409e-05
4.0624682e-05
4.610241e-05
5.1148739e-05
5.5732534e-05
5.9872598e-05
6.3624812e-05
6.7093217e-05
7.0434446e-05
7.3814194e-05
7.7407009e-05
8.142528e-05
8.6125586e-05
9.1694601e-05
9.8408278e-05
0.00010650656
0.00011619697
0.00012735141
0.00014017671
0.00015492087
0.00017143399
0.00018974308
0.00021021567
0.00023329029
0.00025948722
0.00028941754
0.00032376484
0.00036329577
0.00040892117
0.00046181973
0.00052346293
0.00059539396
0.0006792651
0.00077682403
0.00088989513
0.0010203635
0.00117023
0.0013416137
0.0015227473
0.0017160162
0.0019249498
0.0021499959
0.002389606
0.002640669
0.0028984743
0.0031569038
0.0034119494
0.0036611276
0.0038827316
0.0040755949
0.0042466854
0.0043984976
0.0045330899
0.0046525206
0.0047583069
0.0048518276
0.0049346873
0.0050084518
0.0050744031
0.0051336849
0.0051872714
0.0052359142
0.0052802002
0.0053205809
0.0053573843
0.0053909074
0.0054213305
0.0054486857
0.0054729262
0.0054939681
0.005511399
0.0055251047
0.005535212
0.0055419238
0.005545442
0.0055459742
0.0055437551
0.0055390313
0.0055320588
0.0055230746
0.0055123046
0.0054999705
0.0054862741
0.005471393
0.0054554983
0.0054387219
0.0054212202
0.0054029776
0.0053844422
0.0053646836
0.0053446002
0.0053258128
0.0052923021
8.9407723e-06
8.8618401e-06
8.9453604e-06
9.3735462e-06
1.0288603e-05
1.1705919e-05
1.3542363e-05
1.5694453e-05
1.8078458e-05
2.0628459e-05
2.3282792e-05
2.5982905e-05
2.8678669e-05
3.132952e-05
3.3911119e-05
3.6421387e-05
3.8877627e-05
4.1312682e-05
4.3779116e-05
4.6352737e-05
4.9120804e-05
5.2192528e-05
5.5695904e-05
5.9776742e-05
6.4567316e-05
7.0245668e-05
7.7052103e-05
8.5132612e-05
9.4552545e-05
0.00010555147
0.00011843774
0.00013358903
0.00015135468
0.00017185317
0.00019571787
0.00022371955
0.0002568324
0.00029630208
0.00034366394
0.00040074944
0.00046972451
0.00055310137
0.00065369692
0.00077455477
0.00091880389
0.001082575
0.0012631559
0.0014616287
0.0016783595
0.001912466
0.0021613142
0.0024202188
0.0026830009
0.002948129
0.0032141688
0.0034583153
0.0036787847
0.0038799765
0.0040627383
0.0042298946
0.0043832789
0.004523347
0.0046507627
0.0047668256
0.0048726557
0.0049691149
0.0050572602
0.0051380536
0.0052122269
0.0052804356
0.0053432491
0.0054010917
0.005454303
0.0055031122
0.0055475737
0.0055876851
0.0056234387
0.005654643
0.0056812184
0.0057032712
0.0057210237
0.0057347315
0.0057446695
0.0057511365
0.0057544452
0.0057549097
0.0057528198
0.0057484513
0.0057420759
0.0057339401
0.0057242611
0.0057132429
0.0057010457
0.0056878535
0.0056736846
0.0056589824
0.0056429126
0.0056264257
0.0056107862
0.0055810427
8.932772e-06
8.8091335e-06
8.7105682e-06
8.6774092e-06
8.7584594e-06
8.9873995e-06
9.374699e-06
9.9176566e-06
1.0611274e-05
1.1450439e-05
1.2427085e-05
1.3528029e-05
1.4736597e-05
1.6033315e-05
1.7398457e-05
1.8815233e-05
2.0271477e-05
2.1759714e-05
2.3279223e-05
2.4838278e-05
2.6453724e-05
2.8151882e-05
2.9970147e-05
3.1958121e-05
3.4174418e-05
3.6691744e-05
3.9604662e-05
4.3017523e-05
4.7039519e-05
5.1815157e-05
5.7538696e-05
6.4400059e-05
7.2614575e-05
8.2425515e-05
9.4178786e-05
0.00010831795
0.00012542111
0.00014623994
0.0001714681
0.00020215812
0.0002398779
0.00028663437
0.00034497324
0.00041807652
0.00050986363
0.00062313294
0.0007570216
0.00091181554
0.0010885468
0.001287558
0.0015078824
0.0017466528
0.0019991488
0.0022629909
0.0025355014
0.0028006257
0.0030436749
0.0032704192
0.0034832056
0.003683626
0.0038727686
0.0040493303
0.0042134282
0.0043664296
0.0045087194
0.0046404945
0.0047627331
0.0048761942
0.0049813737
0.0050789578
0.0051695678
0.0052536496
0.0053315568
0.0054035623
0.0054696967
0.0055300042
0.0055845676
0.0056333773
0.0056764433
0.0057138956
0.0057459774
0.0057729853
0.0057952565
0.0058131542
0.0058270589
0.0058373485
0.0058443718
0.0058484633
0.0058499558
0.0058491505
0.005846315
0.0058416974
0.0058354954
0.0058279298
0.0058190649
0.0058093337
0.0057980494
0.0057861036
0.0057746675
0.0057492492
8.9300732e-06
8.7999123e-06
8.6731855e-06
8.5570795e-06
8.4632513e-06
8.4039331e-06
8.3886243e-06
8.4242653e-06
8.5169714e-06
8.6726966e-06
8.8966148e-06
9.1920579e-06
9.5604426e-06
1.0001008e-05
1.0511225e-05
1.1087424e-05
1.1725204e-05
1.2419897e-05
1.3167487e-05
1.396554e-05
1.4813766e-05
1.571457e-05
1.6674221e-05
1.7703974e-05
1.882018e-05
2.0045119e-05
2.1409111e-05
2.2950607e-05
2.4716039e-05
2.676353e-05
2.9168549e-05
3.2022709e-05
3.5438363e-05
3.9554284e-05
4.4552544e-05
5.062759e-05
5.8054145e-05
6.7200325e-05
7.8496023e-05
9.2504097e-05
0.00011001044
0.00013208114
0.00016015
0.00019613157
0.00024246969
0.00030211785
0.00037782354
0.00047157538
0.00058580586
0.00072278278
0.00088419547
0.0010705622
0.0012806677
0.0015124561
0.0017632775
0.0020239581
0.0022816353
0.0025302876
0.0027637178
0.0029864455
0.0032004883
0.003405783
0.0036021307
0.0037897968
0.0039678602
0.004135219
0.0042930743
0.0044416263
0.0045808594
0.0047114604
0.0048338746
0.0049484225
0.005055398
0.0051551018
0.0052473693
0.0053322533
0.0054099254
0.0054804788
0.0055440013
0.0056006741
0.0056507596
0.0056945781
0.0057325165
0.0057649905
0.0057924396
0.0058153083
0.0058340055
0.0058489305
0.0058604844
0.0058690323
0.0058749043
0.0058784038
0.0058797789
0.0058792972
0.005877081
0.005873558
0.0058682155
0.0058618449
0.0058556666
0.005835257
8.9284781e-06
8.7968387e-06
8.6656186e-06
8.5358122e-06
8.4096335e-06
8.2901037e-06
8.1804602e-06
8.0839428e-06
8.0039634e-06
7.9442158e-06
7.9085474e-06
7.9007094e-06
7.9241797e-06
7.9819558e-06
8.0764838e-06
8.2096479e-06
8.3827158e-06
8.5963749e-06
8.8509026e-06
9.1464003e-06
9.4830165e-06
9.8612202e-06
1.0282116e-05
1.07479e-05
1.1262263e-05
1.1830865e-05
1.2461998e-05
1.3167263e-05
1.3962061e-05
1.4866502e-05
1.5907007e-05
1.7117327e-05
1.8540342e-05
2.0230455e-05
2.2258062e-05
2.4710019e-05
2.7700056e-05
3.1381065e-05
3.5950658e-05
4.1645574e-05
4.8802974e-05
5.7885031e-05
6.9528973e-05
8.4615887e-05
0.00010434744
0.00013034636
0.0001646459
0.00020946611
0.0002674189
0.00034145703
0.00043473744
0.00055031164
0.00069062374
0.00085721374
0.0010505944
0.001268073
0.0015024889
0.0017455768
0.0019879643
0.0022269605
0.0024575178
0.0026784325
0.0028932295
0.0031024957
0.0033057265
0.003501973
0.0036911859
0.0038724286
0.0040445202
0.0042082857
0.0043636405
0.0045106875
0.0046494432
0.0047797682
0.0049013819
0.0050143585
0.0051188632
0.005214959
0.0053027509
0.0053824411
0.0054542755
0.0055185635
0.0055757118
0.0056261546
0.0056703595
0.005708832
0.0057420403
0.0057704446
0.0057945125
0.0058146758
0.0058313361
0.0058448624
0.0058555693
0.0058637807
0.0058696895
0.0058737295
0.0058755764
0.0058759182
0.0058761026
0.0058615367
8.9274752e-06
8.7951554e-06
8.6628856e-06
8.5307103e-06
8.3989628e-06
8.2682192e-06
8.1392748e-06
8.0131195e-06
7.8909449e-06
7.7741527e-06
7.6643357e-06
7.5632414e-06
7.472737e-06
7.3947537e-06
7.3312317e-06
7.284085e-06
7.2551567e-06
7.2461639e-06
7.2586808e-06
7.2941519e-06
7.3539128e-06
7.4392381e-06
7.5513838e-06
7.6917086e-06
7.8618169e-06
8.0637186e-06
8.3001246e-06
8.5747762e-06
8.8926793e-06
9.2604119e-06
9.6866464e-06
1.0182805e-05
1.0763806e-05
1.1448947e-05
1.2263357e-05
1.3239352e-05
1.4418814e-05
1.5857205e-05
1.7627728e-05
1.9824709e-05
2.257562e-05
2.6056248e-05
3.050929e-05
3.6266839e-05
4.3804858e-05
5.3794537e-05
6.7162236e-05
8.5116871e-05
0.0001092277
0.00014150166
0.00018444365
0.00024105852
0.0003147359
0.00040903063
0.00052737725
0.00067217496
0.00084336287
0.0010380801
0.0012503268
0.0014744257
0.0017032739
0.0019316123
0.002158451
0.0023800276
0.002594368
0.0028048688
0.0030116455
0.0032143107
0.0034115812
0.0036031449
0.0037878187
0.0039648881
0.0041343105
0.0042952701
0.0044471931
0.0045900818
0.0047238691
0.0048483931
0.0049636505
0.0050697544
0.005166849
0.0052551676
0.0053350771
0.0054069692
0.0054712969
0.0055286
0.0055793775
0.0056241366
0.0056634059
0.0056976779
0.0057274299
0.0057531032
0.005775089
0.0057937795
0.0058094502
0.0058225565
0.005832969
0.0058412885
0.0058490368
0.0058413195
8.9269224e-06
8.7942234e-06
8.6615507e-06
8.5288478e-06
8.3961405e-06
8.2635034e-06
8.1310945e-06
7.9991747e-06
7.8681051e-06
7.7383383e-06
7.6104111e-06
7.4849455e-06
7.3626548e-06
7.2443436e-06
7.1309007e-06
7.023293e-06
6.9225558e-06
6.829775e-06
6.7460708e-06
6.6725885e-06
6.6104851e-06
6.5609201e-06
6.5250603e-06
6.5040929e-06
6.4992437e-06
6.5118069e-06
6.5432273e-06
6.595212e-06
6.6698159e-06
6.7695237e-06
6.8974692e-06
7.0576771e-06
7.2553149e-06
7.4971263e-06
7.7919615e-06
8.1511721e-06
8.5894635e-06
9.1261623e-06
9.7868129e-06
1.0604915e-05
1.1625157e-05
1.2908494e-05
1.4538773e-05
1.6632141e-05
1.9353775e-05
2.2940992e-05
2.7732979e-05
3.4202999e-05
4.3014832e-05
5.5087419e-05
7.1680501e-05
9.4492576e-05
0.00012575464
0.00016828906
0.00022550984
0.0003012085
0.00039893165
0.000521147
0.00066821741
0.00083858985
0.0010283624
0.0012323892
0.0014464334
0.0016650162
0.0018836625
0.0021020985
0.0023177166
0.002528086
0.0027360405
0.0029415888
0.0031443962
0.0033426812
0.0035359596
0.0037232787
0.0039027715
0.0040742915
0.0042373234
0.0043911918
0.0045355581
0.0046702761
0.0047952581
0.0049105202
0.0050162913
0.0051128296
0.0052005032
0.0052798358
0.0053512949
0.005415401
0.0054727215
0.0055237878
0.0055691458
0.0056093045
0.005644733
0.0056759001
0.0057031704
0.0057270343
0.0057475594
0.0057652818
0.005781936
0.005782269
8.9266113e-06
8.7936815e-06
8.6608096e-06
8.5279538e-06
8.395104e-06
8.2622527e-06
8.1294246e-06
7.9966956e-06
7.8641892e-06
7.732065e-06
7.6005098e-06
7.4697368e-06
7.3399936e-06
7.2115686e-06
7.0847953e-06
6.9600562e-06
6.8377853e-06
6.718469e-06
6.6026442e-06
6.4908976e-06
6.383863e-06
6.2822166e-06
6.1866752e-06
6.0979965e-06
6.016978e-06
5.9444582e-06
5.8813315e-06
5.8285705e-06
5.7872481e-06
5.7585697e-06
5.7439352e-06
5.7450124e-06
5.7638161e-06
5.8028605e-06
5.865355e-06
5.9553457e-06
6.0779836e-06
6.2399398e-06
6.4499784e-06
6.719695e-06
7.0643893e-06
7.5044855e-06
8.0677655e-06
8.7924437e-06
9.7321596e-06
1.0963681e-05
1.2598014e-05
1.4795203e-05
1.7786814e-05
2.190829e-05
2.7643813e-05
3.568815e-05
4.7038041e-05
6.3097018e-05
8.5796505e-05
0.00011769376
0.00016195312
0.00022210601
0.00030151814
0.00040284131
0.00052728597
0.00067426604
0.00084186698
0.0010265179
0.0012236826
0.0014299993
0.0016412595
0.001853205
0.0020659088
0.0022774153
0.0024853915
0.0026914288
0.0028957483
0.0030980262
0.0032964611
0.0034901103
0.0036780783
0.003858412
0.0040302968
0.0041932885
0.0043467899
0.0044903123
0.004623845
0.0047473516
0.0048609741
0.0049651383
0.0050601597
0.0051465062
0.0052247355
0.0052953653
0.005358986
0.0054161478
0.0054673842
0.0055132376
0.005554158
0.0055906783
0.0056230594
0.0056517927
0.0056788682
0.0056886685
8.9264304e-06
8.7933141e-06
8.6602845e-06
8.5273295e-06
8.3944474e-06
8.2616271e-06
8.1288722e-06
7.9962163e-06
7.863721e-06
7.7314662e-06
7.5995399e-06
7.4680357e-06
7.3370556e-06
7.2067136e-06
7.0771395e-06
6.9484815e-06
6.8209093e-06
6.6946174e-06
6.569827e-06
6.4467882e-06
6.3257821e-06
6.2071216e-06
6.0911525e-06
5.9782552e-06
5.868845e-06
5.7633722e-06
5.6623257e-06
5.5662369e-06
5.4756847e-06
5.3913026e-06
5.3137954e-06
5.2439595e-06
5.1827046e-06
5.1310931e-06
5.0904002e-06
5.0621804e-06
5.0483471e-06
5.0512941e-06
5.0740794e-06
5.1207032e-06
5.1963519e-06
5.3078066e-06
5.4641461e-06
5.6777086e-06
5.9656903e-06
6.3521652e-06
6.8715414e-06
7.5737478e-06
8.5317685e-06
9.8532354e-06
1.1697947e-05
1.4303584e-05
1.8026038e-05
2.3398012e-05
3.1210428e-05
4.2616356e-05
5.9255248e-05
8.3329826e-05
0.00011758396
0.00016514706
0.00022917571
0.00031238444
0.00041666499
0.00054258966
0.00068917337
0.00085447741
0.0010354099
0.0012278736
0.0014290578
0.0016355087
0.0018432147
0.0020521921
0.0022605466
0.002465846
0.0026702345
0.0028736903
0.0030753193
0.0032732243
0.0034662723
0.0036534036
0.0038326837
0.004002924
0.0041639413
0.0043150192
0.0044558531
0.004586692
0.0047074544
0.0048184605
0.0049201733
0.0050129951
0.005097511
0.0051742518
0.0052437806
0.0053066919
0.0053634978
0.0054147715
0.005460952
0.0055024965
0.0055417065
0.005562624
8.9263589e-06
8.7930778e-06
8.6598943e-06
8.5268232e-06
8.3938781e-06
8.2610588e-06
8.1283711e-06
7.9958408e-06
7.8635129e-06
7.7314447e-06
7.5996979e-06
7.4683349e-06
7.3374186e-06
7.2070147e-06
7.0771924e-06
6.9480262e-06
6.8195967e-06
6.6919929e-06
6.5653131e-06
6.4396664e-06
6.3151752e-06
6.1919759e-06
6.0702211e-06
5.9500811e-06
5.8317457e-06
5.7154255e-06
5.6013535e-06
5.4897877e-06
5.3810129e-06
5.2753428e-06
5.1731252e-06
5.0747472e-06
4.9806419e-06
4.8912983e-06
4.8072777e-06
4.7292348e-06
4.6579424e-06
4.5943272e-06
4.5395231e-06
4.4949497e-06
4.4624038e-06
4.4441825e-06
4.4432894e-06
4.4637109e-06
4.510896e-06
4.5923152e-06
4.7184446e-06
4.9043429e-06
5.1720725e-06
5.5542559e-06
6.0993977e-06
6.8807485e-06
8.0101652e-06
9.6599816e-06
1.2096958e-05
1.573295e-05
2.1199255e-05
2.9438767e-05
4.1801199e-05
6.0112849e-05
8.6689e-05
0.00012424262
0.00017568459
0.00024378382
0.00033075435
0.00043799477
0.00056576075
0.00071289102
0.0008774842
0.0010567581
0.0012469093
0.0014454116
0.0016489152
0.001853676
0.0020601139
0.0022659171
0.0024694926
0.0026723535
0.0028749467
0.0030753646
0.0032717465
0.0034629123
0.0036477934
0.0038240556
0.0039909323
0.0041484814
0.0042956928
0.0044326957
0.0045597095
0.0046768214
0.0047845396
0.0048832567
0.004973503
0.0050558754
0.0051308951
0.0051991572
0.0052612451
0.0053175773
0.0053708377
0.0054047634
8.9263927e-06
8.792972e-06
8.6596462e-06
8.52645e-06
8.3934109e-06
8.2605406e-06
8.1278522e-06
7.9953719e-06
7.8631399e-06
7.7312061e-06
7.5996242e-06
7.4684484e-06
7.3377325e-06
7.2075304e-06
7.0778965e-06
6.9488861e-06
6.8205555e-06
6.6929626e-06
6.5661676e-06
6.4402334e-06
6.3152264e-06
6.1912173e-06
6.0682821e-06
5.9465031e-06
5.8259698e-06
5.7067805e-06
5.589043e-06
5.4728765e-06
5.3584127e-06
5.2457975e-06
5.1351925e-06
5.0267779e-06
4.9207545e-06
4.817347e-06
4.7168087e-06
4.6194277e-06
4.5255348e-06
4.4355132e-06
4.3498142e-06
4.268979e-06
4.1936665e-06
4.1246901e-06
4.0630768e-06
4.0101486e-06
3.967643e-06
3.9378903e-06
3.9240972e-06
3.930774e-06
3.964445e-06
4.0346832e-06
4.15563e-06
4.3486695e-06
4.6467668e-06
5.1012857e-06
5.7928099e-06
6.8493661e-06
8.4749568e-06
1.0992488e-05
1.4902499e-05
2.0957337e-05
3.0242321e-05
4.4254482e-05
6.4928688e-05
9.4610826e-05
0.00013593273
0.00019160488
0.00026411773
0.00035535343
0.00046638598
0.00059724067
0.00074659285
0.00091250277
0.0010921626
0.001281881
0.0014794593
0.001681151
0.0018842619
0.0020891155
0.0022927334
0.0024947718
0.0026961409
0.0028973508
0.0030956822
0.0032894851
0.0034775295
0.0036588743
0.0038305913
0.0039929461
0.0041455876
0.0042879264
0.0044203426
0.0045428549
0.0046558732
0.0047598992
0.0048553668
0.0049428552
0.0050230249
0.0050962344
0.005165626
0.0052146748
8.926523e-06
8.7929906e-06
8.6595428e-06
8.5262287e-06
8.3930865e-06
8.2601381e-06
8.1274042e-06
7.9949135e-06
7.862705e-06
7.7308252e-06
7.5993247e-06
7.4682549e-06
7.3376673e-06
7.2076135e-06
7.078145e-06
6.9493129e-06
6.8211683e-06
6.6937621e-06
6.567145e-06
6.4413675e-06
6.3164803e-06
6.1925345e-06
6.0695817e-06
5.9476746e-06
5.8268672e-06
5.7072157e-06
5.5887787e-06
5.4716184e-06
5.3558009e-06
5.2413974e-06
5.128485e-06
5.0171479e-06
4.9074787e-06
4.7995795e-06
4.693564e-06
4.5895595e-06
4.4877096e-06
4.388177e-06
4.2911485e-06
4.1968412e-06
4.1055102e-06
4.0174595e-06
3.9330587e-06
3.8527657e-06
3.7771597e-06
3.7069895e-06
3.6432544e-06
3.5873224e-06
3.5411159e-06
3.5074039e-06
3.4902481e-06
3.4957299e-06
3.5331941e-06
3.6172169e-06
3.7707337e-06
4.0305923e-06
4.4569379e-06
5.1472557e-06
6.2591315e-06
8.043788e-06
1.0892394e-05
1.5398964e-05
2.2431185e-05
3.3201891e-05
4.932938e-05
7.2839821e-05
0.00010611063
0.00015173367
0.00021229357
0.00029008986
0.00038674385
0.00050303847
0.00063867425
0.00079203604
0.00096108379
0.0011426884
0.001333476
0.0015314765
0.0017320763
0.0019341784
0.0021375126
0.0023390336
0.0025391698
0.0027393076
0.0029381975
0.0031334712
0.0033236681
0.0035076333
0.0036836767
0.0038500358
0.0040070866
0.0041539877
0.0042909577
0.00441822
0.0045359588
0.0046446741
0.0047449777
0.0048371351
0.0049247876
0.004991239
8.9267381e-06
8.7931196e-06
8.6595728e-06
8.5261561e-06
8.3929159e-06
8.2598829e-06
8.127084e-06
7.9945513e-06
7.8623238e-06
7.7304463e-06
7.5989675e-06
7.4679374e-06
7.3374067e-06
7.2074262e-06
7.0780469e-06
6.9493196e-06
6.8212945e-06
6.6940215e-06
6.5675495e-06
6.4419269e-06
6.317201e-06
6.1934184e-06
6.0706246e-06
5.9488644e-06
5.8281817e-06
5.7086202e-06
5.5902227e-06
5.4730321e-06
5.3570917e-06
5.242445e-06
5.1291368e-06
5.017213e-06
4.9067221e-06
4.7977151e-06
4.6902465e-06
4.5843752e-06
4.4801658e-06
4.3776894e-06
4.2770253e-06
4.1782632e-06
4.0815052e-06
3.9868695e-06
3.8944945e-06
3.804546e-06
3.7172256e-06
3.6327838e-06
3.5515425e-06
3.4739272e-06
3.4005162e-06
3.3321189e-06
3.2698994e-06
3.2155716e-06
3.171728e-06
3.1423805e-06
3.1338457e-06
3.1562696e-06
3.2263624e-06
3.3715317e-06
3.637039e-06
4.0976417e-06
4.8746094e-06
6.1622621e-06
8.2655748e-06
1.1650359e-05
1.7008038e-05
2.5325388e-05
3.7950725e-05
5.6642623e-05
8.3540312e-05
0.00012109926
0.00017192072
0.00023850948
0.00032297769
0.00042663724
0.00054991619
0.0006920175
0.00085100265
0.0010246942
0.0012093558
0.0014021116
0.0016007656
0.00180055
0.0020017031
0.0022026627
0.0024022501
0.0026001856
0.002798726
0.0029945511
0.0031860239
0.0033717551
0.0035507821
0.003720443
0.0038808786
0.0040317199
0.0041726311
0.0043039477
0.0044260001
0.0045389246
0.0046467903
0.0047329642
8.9270253e-06
8.7933426e-06
8.659718e-06
8.5262161e-06
8.3928892e-06
8.2597751e-06
8.1269066e-06
7.994319e-06
7.862052e-06
7.7301498e-06
7.5986597e-06
7.4676308e-06
7.3371131e-06
7.207157e-06
7.0778133e-06
6.9491326e-06
6.8211654e-06
6.6939613e-06
6.5675694e-06
6.4420379e-06
6.3174138e-06
6.1937431e-06
6.0710704e-06
5.9494391e-06
5.8288911e-06
5.7094671e-06
5.5912061e-06
5.4741461e-06
5.3583236e-06
5.2437742e-06
5.1305322e-06
5.0186311e-06
4.908104e-06
4.7989835e-06
4.6913024e-06
4.5850935e-06
4.4803909e-06
4.3772297e-06
4.275647e-06
4.1756825e-06
4.0773798e-06
3.9807866e-06
3.8859569e-06
3.7929525e-06
3.7018457e-06
3.6127231e-06
3.5256909e-06
3.4408847e-06
3.3584818e-06
3.2787225e-06
3.2019427e-06
3.1286257e-06
3.0594876e-06
2.9956195e-06
2.9387235e-06
2.8915178e-06
2.8584544e-06
2.8468938e-06
2.8691267e-06
2.9458457e-06
3.1114642e-06
3.4229449e-06
3.9738688e-06
4.9142462e-06
6.4811036e-06
9.0406131e-06
1.3144588e-05
1.9599727e-05
2.9536599e-05
4.4473748e-05
6.635207e-05
9.7464751e-05
0.00014038659
0.00019773903
0.00027193476
0.00036481304
0.00047727407
0.00060928904
0.00075934887
0.00092516026
0.0011041886
0.001292314
0.001487256
0.0016853657
0.0018845863
0.0020845206
0.002282936
0.0024800449
0.0026766862
0.0028722143
0.003064159
0.0032509991
0.0034316416
0.0036042505
0.0037674959
0.003921552
0.0040660127
0.004200889
0.0043303956
0.0044384132
8.9273731e-06
8.7936439e-06
8.6599596e-06
8.5263885e-06
8.3929876e-06
8.2598002e-06
8.1268643e-06
7.9942184e-06
7.8619035e-06
7.7299638e-06
7.5984458e-06
7.4673979e-06
7.3368696e-06
7.2069109e-06
7.0775723e-06
6.9489043e-06
6.8209572e-06
6.6937808e-06
6.5674242e-06
6.4419358e-06
6.3173627e-06
6.193751e-06
6.0711454e-06
5.9495893e-06
5.8291246e-06
5.7097916e-06
5.5916289e-06
5.4746736e-06
5.3589609e-06
5.2445245e-06
5.1313964e-06
5.0196069e-06
4.9091847e-06
4.8001571e-06
4.6925501e-06
4.5863882e-06
4.481695e-06
4.3784934e-06
4.2768055e-06
4.1766529e-06
4.0780577e-06
3.981042e-06
3.885629e-06
3.7918432e-06
3.6997118e-06
3.6092652e-06
3.5205386e-06
3.4335751e-06
3.3484286e-06
3.26517e-06
3.1838951e-06
3.1047389e-06
3.027897e-06
2.9536623e-06
2.8824858e-06
2.8150801e-06
2.7526027e-06
2.6969644e-06
2.6513688e-06
2.6212488e-06
2.6157959e-06
2.6505861e-06
2.7519681e-06
2.9635787e-06
3.3570738e-06
4.0488602e-06
5.2237588e-06
7.1712321e-06
1.0334447e-05
1.5374968e-05
2.3248831e-05
3.5274733e-05
5.3194915e-05
7.9173648e-05
0.00011570743
0.00016549511
0.00023113986
0.00031488525
0.00041811947
0.00054115567
0.00068328297
0.00084221403
0.0010153895
0.0011992945
0.0013906948
0.001587327
0.0017844948
0.0019826656
0.0021799271
0.0023759834
0.0025707573
0.0027654514
0.0029572879
0.0031447956
0.0033265985
0.0035014216
0.0036671555
0.0038239078
0.0039754637
0.0041067993
8.9277715e-06
8.7940097e-06
8.6602805e-06
8.5266542e-06
8.3931911e-06
8.2599392e-06
8.1269408e-06
7.9942377e-06
7.8618725e-06
7.7298897e-06
7.5983358e-06
7.4672587e-06
7.3367075e-06
7.2067319e-06
7.077382e-06
6.9487082e-06
6.8207606e-06
6.6935889e-06
6.5672422e-06
6.4417688e-06
6.3172159e-06
6.1936298e-06
6.0710554e-06
5.949536e-06
5.8291138e-06
5.7098292e-06
5.591721e-06
5.4748262e-06
5.3591803e-06
5.2448166e-06
5.131767e-06
5.0200611e-06
4.909727e-06
4.8007908e-06
4.6932769e-06
4.5872078e-06
4.4826042e-06
4.3794855e-06
4.2778691e-06
4.1777713e-06
4.079207e-06
3.9821898e-06
3.8867325e-06
3.792847e-06
3.7005451e-06
3.6098381e-06
3.5207379e-06
3.4332575e-06
3.3474121e-06
3.2632207e-06
3.1807083e-06
3.0999098e-06