/*--------------------------------*- C++ -*----------------------------------*\
| =========                 |                                                 |
| \\      /  F ield         | OpenFOAM: The Open Source CFD Toolbox           |
|  \\    /   O peration     | Version:  2206                                  |
|   \\  /    A nd           | Website:  www.openfoam.com                      |
|    \\/     M anipulation  |                                                 |
\*---------------------------------------------------------------------------*/
FoamFile
{
    version     2.0;
    format      ascii;
    arch        "LSB;label=32;scalar=64";
    class       volScalarField;
    location    "1900";
    object      nut;
}
// * * * * * * * * * * * * * * * * * * * * * * * * * * * * * * * * * * * * * //

dimensions      [0 2 -1 0 0 0 0];

internalField   nonuniform List<scalar> 
7480
(
1.5120532e-06
1.8586988e-06
1.5440903e-06
1.016073e-06
6.0450245e-07
3.7086854e-07
2.5852876e-07
2.0375026e-07
1.7337205e-07
1.5358697e-07
1.3830041e-07
1.2518742e-07
1.13761e-07
1.0387517e-07
9.5301995e-08
8.7821034e-08
8.1295769e-08
7.5565737e-08
7.0466324e-08
6.5895674e-08
6.179145e-08
5.8085963e-08
5.4716966e-08
5.1645162e-08
4.8839395e-08
4.6265966e-08
4.3894944e-08
4.1707296e-08
3.968796e-08
3.7819713e-08
3.6087559e-08
3.4481712e-08
3.2993568e-08
3.1613516e-08
3.0333489e-08
2.914802e-08
2.8052114e-08
2.7040877e-08
2.6110996e-08
2.5260829e-08
2.4488986e-08
2.3794019e-08
2.3175964e-08
2.2634905e-08
2.2172868e-08
2.1793181e-08
2.150149e-08
2.1303602e-08
2.1198146e-08
2.1183223e-08
2.1255943e-08
2.1412421e-08
2.1644442e-08
2.193697e-08
2.227527e-08
2.264919e-08
2.3036359e-08
2.3403412e-08
2.3717736e-08
2.395792e-08
2.4117969e-08
2.4200775e-08
2.4213939e-08
2.4167547e-08
2.4074584e-08
2.3946825e-08
2.3794652e-08
2.3626371e-08
2.3447935e-08
2.3263768e-08
2.3077235e-08
2.2890313e-08
2.270427e-08
2.2520451e-08
2.233918e-08
2.2160644e-08
2.1984906e-08
2.1804712e-08
2.1620677e-08
2.143498e-08
2.1248501e-08
2.1061672e-08
2.0873777e-08
2.0684545e-08
2.0493912e-08
2.0301841e-08
2.0108637e-08
1.9914383e-08
1.9719519e-08
1.9524191e-08
1.9328705e-08
1.9133188e-08
1.8938078e-08
1.8742288e-08
1.8549063e-08
1.8346599e-08
1.8169915e-08
1.7915686e-08
1.7772501e-08
1.7384643e-08
1.4111334e-06
1.6301134e-06
1.5385105e-06
1.2880384e-06
1.0361717e-06
8.1128783e-07
6.43776e-07
5.1799026e-07
4.2142958e-07
3.4676102e-07
2.8964704e-07
2.4637356e-07
2.1351195e-07
1.8821881e-07
1.6833893e-07
1.5234814e-07
1.3921252e-07
1.2819542e-07
1.1879134e-07
1.1066836e-07
1.0359964e-07
9.7409005e-08
9.1962549e-08
8.7162398e-08
8.283687e-08
7.8905383e-08
7.5324272e-08
7.207172e-08
6.9134427e-08
6.650056e-08
6.4162546e-08
6.2117981e-08
6.036567e-08
5.8904487e-08
5.773596e-08
5.6864831e-08
5.6298069e-08
5.6047755e-08
5.6134294e-08
5.6586909e-08
5.7442484e-08
5.8746179e-08
6.0553658e-08
6.2929907e-08
6.595368e-08
6.9710371e-08
7.4263486e-08
7.9654795e-08
8.5902087e-08
9.2999073e-08
1.0091777e-07
1.0965458e-07
1.1901793e-07
1.2878585e-07
1.3874379e-07
1.4857253e-07
1.577994e-07
1.659938e-07
1.72908e-07
1.7849987e-07
1.8288283e-07
1.8626123e-07
1.8882038e-07
1.906317e-07
1.9185936e-07
1.9264787e-07
1.9311123e-07
1.9333302e-07
1.9337421e-07
1.9327915e-07
1.9307849e-07
1.9279088e-07
1.9243351e-07
1.9201957e-07
1.9155373e-07
1.9103678e-07
1.9045351e-07
1.896515e-07
1.8869552e-07
1.8763818e-07
1.864965e-07
1.8527521e-07
1.8397589e-07
1.8260409e-07
1.8116476e-07
1.7966559e-07
1.7811402e-07
1.7651757e-07
1.7488444e-07
1.7322131e-07
1.7153493e-07
1.6983121e-07
1.6811601e-07
1.6639299e-07
1.6466456e-07
1.6293161e-07
1.6121753e-07
1.5926766e-07
1.5790065e-07
1.5465017e-07
1.101415e-06
1.4048085e-06
1.4358659e-06
1.340987e-06
1.2076322e-06
1.0741044e-06
9.6691756e-07
8.8446312e-07
8.2037059e-07
7.6811134e-07
7.2394511e-07
6.7969716e-07
6.373826e-07
6.0225101e-07
5.725179e-07
5.4697513e-07
5.249416e-07
5.0592459e-07
4.895648e-07
4.7562501e-07
4.6394164e-07
4.5437732e-07
4.4683417e-07
4.4122027e-07
4.3362677e-07
4.2649575e-07
4.1999787e-07
4.1434211e-07
4.0973452e-07
4.063733e-07
4.0447012e-07
4.0424515e-07
4.059114e-07
4.0968269e-07
4.1578817e-07
4.2446888e-07
4.3598644e-07
4.5067532e-07
4.6896845e-07
4.9140003e-07
5.1860339e-07
5.5132416e-07
5.9043514e-07
6.3693306e-07
6.9196832e-07
7.5672895e-07
8.3202876e-07
9.1831802e-07
1.0157502e-06
1.1241053e-06
1.2423896e-06
1.3697867e-06
1.5043759e-06
1.6431991e-06
1.7833317e-06
1.9204343e-06
2.048597e-06
2.1627389e-06
2.2601852e-06
2.340722e-06
2.4060024e-06
2.4587723e-06
2.4999762e-06
2.5316987e-06
2.5562225e-06
2.5753342e-06
2.5903956e-06
2.602379e-06
2.6119839e-06
2.6197133e-06
2.6259051e-06
2.6307591e-06
2.634475e-06
2.6372004e-06
2.6389803e-06
2.6398139e-06
2.6394786e-06
2.6356987e-06
2.6295636e-06
2.6218334e-06
2.6127408e-06
2.6023513e-06
2.5907007e-06
2.5778793e-06
2.5639644e-06
2.5490707e-06
2.5333029e-06
2.516769e-06
2.4995817e-06
2.4818348e-06
2.4636222e-06
2.4450286e-06
2.4261317e-06
2.4070089e-06
2.3876302e-06
2.368255e-06
2.3485332e-06
2.3266003e-06
2.31122e-06
2.2731461e-06
5.0849569e-07
9.5920293e-07
1.1798399e-06
1.2284979e-06
1.2004395e-06
1.1429131e-06
1.0804134e-06
1.0213664e-06
9.6990343e-07
9.3010822e-07
9.0616403e-07
9.0239475e-07
9.0580169e-07
8.5770301e-07
8.2199875e-07
7.9458032e-07
7.7457101e-07
7.6006961e-07
7.5005094e-07
7.4387986e-07
7.4115457e-07
7.4159001e-07
7.4501807e-07
7.5128149e-07
7.5985065e-07
7.7021131e-07
7.8222789e-07
7.9611766e-07
8.1227106e-07
8.3116655e-07
8.5335349e-07
8.7944765e-07
9.1012195e-07
9.4610847e-07
9.8820539e-07
1.037269e-06
1.0942683e-06
1.1604756e-06
1.2374819e-06
1.3271844e-06
1.4317825e-06
1.5537973e-06
1.6961004e-06
1.8619229e-06
2.0548378e-06
2.2781913e-06
2.5344487e-06
2.8250208e-06
3.1503596e-06
3.5099567e-06
3.9018807e-06
4.3201982e-06
4.7615891e-06
5.2183389e-06
5.6819973e-06
6.1409167e-06
6.5799757e-06
6.9851758e-06
7.3476677e-06
7.6645098e-06
7.9381234e-06
8.1725006e-06
8.370285e-06
8.5384496e-06
8.6834161e-06
8.8104718e-06
8.9237648e-06
9.0263446e-06
9.1203915e-06
9.2074461e-06
9.2885389e-06
9.3642669e-06
9.4351452e-06
9.5015687e-06
9.563639e-06
9.6212874e-06
9.6740338e-06
9.7001968e-06
9.7153332e-06
9.7242044e-06
9.7275333e-06
9.7255827e-06
9.7185203e-06
9.7066712e-06
9.6903361e-06
9.6699219e-06
9.6458052e-06
9.6183659e-06
9.5879964e-06
9.5550295e-06
9.5197852e-06
9.4825715e-06
9.443654e-06
9.4033415e-06
9.3614786e-06
9.3192432e-06
9.2746455e-06
9.2242084e-06
9.1898927e-06
9.0978333e-06
2.2508162e-07
4.2729402e-07
6.9868943e-07
8.9336298e-07
9.8973116e-07
1.0235528e-06
1.0250696e-06
1.0107783e-06
9.8914731e-07
9.6538352e-07
9.4379925e-07
9.2879687e-07
9.2205296e-07
9.2310436e-07
9.3207157e-07
9.490537e-07
9.693625e-07
9.5335081e-07
9.29723e-07
9.1687095e-07
9.1367955e-07
9.1850152e-07
9.3041897e-07
9.4880592e-07
9.7330357e-07
1.0037446e-06
1.0384665e-06
1.0775245e-06
1.1214609e-06
1.1708085e-06
1.22617e-06
1.2882798e-06
1.3580482e-06
1.4365967e-06
1.525291e-06
1.6257452e-06
1.7395988e-06
1.8684836e-06
2.0151567e-06
2.1829481e-06
2.3756592e-06
2.5975641e-06
2.8534453e-06
3.148637e-06
3.4888774e-06
3.8791002e-06
4.3214564e-06
4.8169754e-06
5.3663053e-06
5.9693617e-06
6.6244829e-06
7.326653e-06
8.0665071e-06
8.8343869e-06
9.6196107e-06
1.0408371e-05
1.117687e-05
1.1901776e-05
1.2568607e-05
1.3171194e-05
1.3708211e-05
1.4182402e-05
1.4600098e-05
1.4969704e-05
1.5299826e-05
1.5598121e-05
1.5871042e-05
1.612366e-05
1.6359763e-05
1.6582115e-05
1.6792543e-05
1.6992007e-05
1.7181675e-05
1.7362312e-05
1.7534081e-05
1.7696786e-05
1.7849557e-05
1.7986603e-05
1.8107871e-05
1.8214883e-05
1.830871e-05
1.8389949e-05
1.8458956e-05
1.8516303e-05
1.8562628e-05
1.8598739e-05
1.862546e-05
1.864361e-05
1.8654047e-05
1.8657538e-05
1.865474e-05
1.8646382e-05
1.8633108e-05
1.8615571e-05
1.8593812e-05
1.8569444e-05
1.8541002e-05
1.8499829e-05
1.8478892e-05
1.8402021e-05
1.7530642e-07
2.1589375e-07
3.185908e-07
4.6498491e-07
6.0529263e-07
7.1037876e-07
7.7991557e-07
8.2295458e-07
8.480619e-07
8.6131986e-07
8.6701488e-07
8.6873044e-07
8.6926823e-07
8.7065909e-07
8.7466317e-07
8.82958e-07
8.9638454e-07
9.1558545e-07
9.4166613e-07
9.7588833e-07
1.0156791e-06
1.061865e-06
1.0570745e-06
1.0562722e-06
1.0671005e-06
1.0882501e-06
1.1196976e-06
1.1617506e-06
1.2148937e-06
1.2798339e-06
1.3575413e-06
1.4493455e-06
1.5571725e-06
1.6840494e-06
1.8350482e-06
2.0182024e-06
2.2360235e-06
2.4752657e-06
2.7408982e-06
3.0385995e-06
3.3741619e-06
3.7536977e-06
4.183952e-06
4.6728113e-06
5.2302693e-06
5.8556617e-06
6.5396719e-06
7.2801279e-06
8.0787759e-06
8.9367622e-06
9.8531378e-06
1.0823346e-05
1.1837567e-05
1.2882407e-05
1.39466e-05
1.4998035e-05
1.6005855e-05
1.695468e-05
1.7838301e-05
1.8655959e-05
1.9409746e-05
2.0102885e-05
2.0740061e-05
2.1327501e-05
2.1871845e-05
2.2379545e-05
2.2856706e-05
2.330849e-05
2.3738929e-05
2.4151159e-05
2.454625e-05
2.4923784e-05
2.5288569e-05
2.5641311e-05
2.5981805e-05
2.6309355e-05
2.6622266e-05
2.6918717e-05
2.7195504e-05
2.7451228e-05
2.7685803e-05
2.7899477e-05
2.8092471e-05
2.8265351e-05
2.8418897e-05
2.8554177e-05
2.867238e-05
2.8774737e-05
2.8862591e-05
2.8937204e-05
2.8999039e-05
2.9049837e-05
2.9090855e-05
2.912314e-05
2.9147146e-05
2.9164523e-05
2.9175593e-05
2.9165118e-05
2.9175108e-05
2.91336e-05
1.689061e-07
1.7480254e-07
1.9623125e-07
2.4160292e-07
3.0838208e-07
3.8396473e-07
4.5676248e-07
5.2099518e-07
5.752488e-07
6.1999299e-07
6.5627848e-07
6.8544124e-07
7.0895294e-07
7.2826402e-07
7.4482948e-07
7.6012635e-07
7.7549133e-07
7.9216226e-07
8.1147222e-07
8.3492169e-07
8.6346802e-07
8.984707e-07
9.4051558e-07
9.8986505e-07
1.0450246e-06
1.1061431e-06
1.1741718e-06
1.2083313e-06
1.2332721e-06
1.2729099e-06
1.3285317e-06
1.402028e-06
1.4958652e-06
1.6130572e-06
1.7575368e-06
1.9348009e-06
2.1514084e-06
2.4124945e-06
2.7238864e-06
3.0927822e-06
3.5277945e-06
4.0393408e-06
4.6408312e-06
5.3516875e-06
6.2046009e-06
6.969673e-06
7.8050602e-06
8.7625898e-06
9.839889e-06
1.1030702e-05
1.2322211e-05
1.3691058e-05
1.5103918e-05
1.6564132e-05
1.8073737e-05
1.9178315e-05
2.0095911e-05
2.1003618e-05
2.1904766e-05
2.2798186e-05
2.3678573e-05
2.4541103e-05
2.5382175e-05
2.6199217e-05
2.699069e-05
2.7757114e-05
2.8500285e-05
2.9221819e-05
2.9923305e-05
3.0606495e-05
3.1272629e-05
3.1921972e-05
3.2555009e-05
3.3171815e-05
3.3771574e-05
3.4352977e-05
3.4913571e-05
3.5451631e-05
3.5964091e-05
3.6448027e-05
3.6901781e-05
3.7324664e-05
3.7716433e-05
3.8077433e-05
3.8408429e-05
3.8710633e-05
3.8985505e-05
3.9234649e-05
3.9459911e-05
3.9663095e-05
3.984591e-05
4.0010103e-05
4.0157318e-05
4.0289049e-05
4.0406417e-05
4.0510802e-05
4.0605268e-05
4.0668495e-05
4.0745174e-05
4.078984e-05
1.6818116e-07
1.6866204e-07
1.7195879e-07
1.8126293e-07
1.989598e-07
2.2491008e-07
2.5729563e-07
2.9359641e-07
3.3183405e-07
3.7055069e-07
4.085838e-07
4.4502187e-07
4.7926275e-07
5.1098832e-07
5.4017681e-07
5.6708957e-07
5.92183e-07
6.1603968e-07
6.3938554e-07
6.6310948e-07
6.8813812e-07
7.1553267e-07
7.4637197e-07
7.8172478e-07
8.2235159e-07
8.691953e-07
9.2356565e-07
9.8583831e-07
1.0558476e-06
1.134786e-06
1.2243583e-06
1.3267092e-06
1.4276e-06
1.4948321e-06
1.5856509e-06
1.7047498e-06
1.8584034e-06
2.0546748e-06
2.3033394e-06
2.616058e-06
3.0068808e-06
3.4926639e-06
4.0933633e-06
4.8324274e-06
5.7385526e-06
6.7099474e-06
7.7077279e-06
8.817221e-06
1.0049885e-05
1.1405864e-05
1.2869906e-05
1.4407117e-05
1.5971959e-05
1.7627092e-05
1.9393051e-05
2.0670079e-05
2.1768821e-05
2.2849982e-05
2.3924354e-05
2.500051e-05
2.6080424e-05
2.7165185e-05
2.8250031e-05
2.9329552e-05
3.0400288e-05
3.1461053e-05
3.2510325e-05
3.354594e-05
3.4567336e-05
3.5574808e-05
3.6567923e-05
3.7545907e-05
3.8507826e-05
3.945239e-05
4.0377315e-05
4.1280146e-05
4.2157431e-05
4.3006072e-05
4.3822967e-05
4.4604632e-05
4.5348067e-05
4.6051279e-05
4.6713127e-05
4.733332e-05
4.791228e-05
4.8451052e-05
4.8951065e-05
4.9414051e-05
4.9842192e-05
5.0237707e-05
5.0603008e-05
5.0940278e-05
5.12516e-05
5.1538874e-05
5.180401e-05
5.2047936e-05
5.2276667e-05
5.2464903e-05
5.2652387e-05
5.2845226e-05
1.6814574e-07
1.678731e-07
1.6803262e-07
1.6934736e-07
1.7271477e-07
1.7877503e-07
1.8775969e-07
1.996139e-07
2.1419989e-07
2.314005e-07
2.5108146e-07
2.7274945e-07
2.9593568e-07
3.2016745e-07
3.4500863e-07
3.7010943e-07
3.9522211e-07
4.2020057e-07
4.4502449e-07
4.6982028e-07
4.9484294e-07
5.2047996e-07
5.4725194e-07
5.7580479e-07
6.0684329e-07
6.4117393e-07
6.7978341e-07
7.236474e-07
7.7365716e-07
8.3097292e-07
8.9714391e-07
9.7360375e-07
1.0618656e-06
1.1632913e-06
1.2800911e-06
1.415138e-06
1.5722253e-06
1.7564962e-06
1.9284429e-06
2.1213423e-06
2.3730616e-06
2.7009356e-06
3.127507e-06
3.6821113e-06
4.401834e-06
5.3212069e-06
6.2975003e-06
7.3654577e-06
8.5758431e-06
9.9379243e-06
1.145335e-05
1.3111365e-05
1.4888119e-05
1.6777158e-05
1.8775155e-05
2.0624785e-05
2.1909638e-05
2.3189925e-05
2.4438235e-05
2.5675458e-05
2.6933644e-05
2.821734e-05
2.9508734e-05
3.0809944e-05
3.2126987e-05
3.3455395e-05
3.4789571e-05
3.6126211e-05
3.7464633e-05
3.8802674e-05
4.0136509e-05
4.1464055e-05
4.278346e-05
4.4091323e-05
4.5382553e-05
4.6652744e-05
4.7896608e-05
4.9108908e-05
5.0285559e-05
5.1422422e-05
5.2515316e-05
5.3560923e-05
5.4556894e-05
5.5501812e-05
5.6395348e-05
5.7237975e-05
5.8030627e-05
5.8774784e-05
5.9472645e-05
6.0126567e-05
6.0739251e-05
6.1313296e-05
6.1851151e-05
6.2355032e-05
6.2827626e-05
6.3269314e-05
6.3688754e-05
6.4059169e-05
6.4409108e-05
6.4820204e-05
1.6819005e-07
1.6781433e-07
1.6749293e-07
1.6735589e-07
1.6761861e-07
1.6851679e-07
1.7024719e-07
1.7296384e-07
1.7680614e-07
1.8191429e-07
1.8841944e-07
1.9640036e-07
2.0588895e-07
2.1686789e-07
2.2935114e-07
2.4329006e-07
2.5851443e-07
2.7486527e-07
2.922148e-07
3.1047411e-07
3.2960244e-07
3.4961984e-07
3.7061917e-07
3.9277946e-07
4.1636428e-07
4.4173093e-07
4.6935893e-07
4.9983934e-07
5.3385538e-07
5.72228e-07
6.1598524e-07
6.6631973e-07
7.2461502e-07
7.924436e-07
8.7176145e-07
9.6453404e-07
1.0734944e-06
1.2022321e-06
1.3545268e-06
1.5352831e-06
1.7514997e-06
2.0125397e-06
2.3306158e-06
2.7213736e-06
3.1865685e-06
3.7661662e-06
4.5193842e-06
5.3772304e-06
6.3844529e-06
7.5555249e-06
8.9028147e-06
1.0432565e-05
1.2141181e-05
1.4023348e-05
1.6074661e-05
1.824625e-05
2.0452977e-05
2.2483803e-05
2.3873494e-05
2.5255744e-05
2.6660246e-05
2.807445e-05
2.9488742e-05
3.0935167e-05
3.2434256e-05
3.3955014e-05
3.5497373e-05
3.7070788e-05
3.8671611e-05
4.0292511e-05
4.1929054e-05
4.3581117e-05
4.5244055e-05
4.6911348e-05
4.8574204e-05
5.0225452e-05
5.1856553e-05
5.3459929e-05
5.502981e-05
5.6560291e-05
5.8045652e-05
5.9481259e-05
6.0863118e-05
6.2188094e-05
6.3454608e-05
6.4661991e-05
6.5810059e-05
6.6899503e-05
6.7931987e-05
6.8909545e-05
6.9834719e-05
7.0710195e-05
7.1538584e-05
7.2322232e-05
7.3064456e-05
7.3765034e-05
7.4434665e-05
7.5047201e-05
7.5616231e-05
7.6319595e-05
1.682436e-07
1.6785098e-07
1.6745977e-07
1.6708859e-07
1.6677841e-07
1.6658723e-07
1.6657979e-07
1.6682343e-07
1.6739123e-07
1.6836514e-07
1.6983461e-07
1.7189047e-07
1.7462063e-07
1.7810544e-07
1.8242114e-07
1.8763478e-07
1.9379404e-07
2.0092969e-07
2.0906048e-07
2.181992e-07
2.2838578e-07
2.3970466e-07
2.5217451e-07
2.658021e-07
2.8063886e-07
2.9679131e-07
3.1442975e-07
3.3380219e-07
3.5524129e-07
3.7917086e-07
4.0613218e-07
4.3680106e-07
4.7201411e-07
5.127967e-07
5.6042593e-07
6.1640765e-07
6.8262685e-07
7.6150757e-07
8.5599392e-07
9.6943551e-07
1.1064231e-06
1.2729999e-06
1.4771276e-06
1.7292516e-06
2.0426151e-06
2.433661e-06
2.9205824e-06
3.5193908e-06
4.2474156e-06
5.1231878e-06
6.1658725e-06
7.3935103e-06
8.8201602e-06
1.045594e-05
1.2308214e-05
1.4364113e-05
1.6579451e-05
1.8900474e-05
2.1257076e-05
2.3634731e-05
2.5605818e-05
2.7113994e-05
2.8631134e-05
3.0183527e-05
3.176939e-05
3.3371845e-05
3.5018281e-05
3.6741261e-05
3.8507615e-05
4.0312303e-05
4.2166965e-05
4.4073012e-05
4.6016363e-05
4.798724e-05
4.9977849e-05
5.197725e-05
5.3972948e-05
5.5956519e-05
5.7919546e-05
5.9852477e-05
6.1747781e-05
6.359896e-05
6.5399268e-05
6.714324e-05
6.8827312e-05
7.0448728e-05
7.2005493e-05
7.3496746e-05
7.4922736e-05
7.6284463e-05
7.7583717e-05
7.8822699e-05
8.0003846e-05
8.1129274e-05
8.2202661e-05
8.3223086e-05
8.4202605e-05
8.5117061e-05
8.5963848e-05
8.7033387e-05
1.6834533e-07
1.6795315e-07
1.6755467e-07
1.6715127e-07
1.6674941e-07
1.6636056e-07
1.6600057e-07
1.6568905e-07
1.6544985e-07
1.6531184e-07
1.6530933e-07
1.6548172e-07
1.65873e-07
1.6653083e-07
1.6750598e-07
1.6885169e-07
1.7062204e-07
1.7287028e-07
1.756482e-07
1.7900612e-07
1.8299548e-07
1.8767248e-07
1.9309196e-07
1.9930764e-07
2.0637725e-07
2.1436797e-07
2.2336904e-07
2.3354159e-07
2.4508895e-07
2.5817321e-07
2.7299227e-07
2.8983272e-07
3.0908634e-07
3.3126915e-07
3.5705455e-07
3.8728685e-07
4.2302708e-07
4.6563772e-07
5.1685745e-07
5.7884624e-07
6.5440589e-07
7.4723096e-07
8.6218856e-07
1.0056222e-06
1.1860559e-06
1.4146213e-06
1.7052122e-06
2.0735378e-06
2.5371351e-06
3.1152964e-06
3.828905e-06
4.6999487e-06
5.7504539e-06
7.0017074e-06
8.4741042e-06
1.0180652e-05
1.2116711e-05
1.4260037e-05
1.6566417e-05
1.9000899e-05
2.1511248e-05
2.4054792e-05
2.6629186e-05
2.8806797e-05
3.0461022e-05
3.2134035e-05
3.3855466e-05
3.5627649e-05
3.7434795e-05
3.9301812e-05
4.1270144e-05
4.3312887e-05
4.5415173e-05
4.7583986e-05
4.9808117e-05
5.2070075e-05
5.435965e-05
5.6669114e-05
5.8983864e-05
6.129046e-05
6.3580429e-05
6.5843159e-05
6.8067845e-05
7.0246618e-05
7.2372761e-05
7.4440048e-05
7.6443813e-05
7.8380603e-05
8.0248194e-05
8.2045669e-05
8.3773248e-05
8.5431844e-05
8.7023079e-05
8.8548334e-05
9.0011221e-05
9.1409875e-05
9.2757024e-05
9.4031066e-05
9.5214209e-05
9.6720539e-05
1.6852048e-07
1.6817136e-07
1.6780872e-07
1.6743212e-07
1.6704293e-07
1.6664385e-07
1.6623896e-07
1.6583366e-07
1.6543478e-07
1.650508e-07
1.6469225e-07
1.6437204e-07
1.6410569e-07
1.6391158e-07
1.6381097e-07
1.6382813e-07
1.6399026e-07
1.6432726e-07
1.6487147e-07
1.6565751e-07
1.6672236e-07
1.6810553e-07
1.6984904e-07
1.7199729e-07
1.7459742e-07
1.7770007e-07
1.8136198e-07
1.8565304e-07
1.9065902e-07
1.9647695e-07
2.0322051e-07
2.1102981e-07
2.2008342e-07
2.3065497e-07
2.4312338e-07
2.5783962e-07
2.7523398e-07
2.9590978e-07
3.2068497e-07
3.506428e-07
3.8720554e-07
4.3225469e-07
4.8830352e-07
5.5872713e-07
6.4814606e-07
7.6289134e-07
9.1149007e-07
1.1049292e-06
1.3570797e-06
1.6848205e-06
2.1080012e-06
2.6490658e-06
3.3322817e-06
4.1827797e-06
5.2260223e-06
6.4859163e-06
7.9800768e-06
9.7158364e-06
1.1684771e-05
1.3870514e-05
1.6241932e-05
1.8760909e-05
2.1401855e-05
2.4121554e-05
2.6880908e-05
2.9683518e-05
3.2159199e-05
3.3989439e-05
3.5842883e-05
3.7758152e-05
3.9739723e-05
4.1768773e-05
4.3877919e-05
4.6120428e-05
4.8441455e-05
5.0831911e-05
5.3304891e-05
5.5841035e-05
5.8417587e-05
6.1025344e-05
6.3653644e-05
6.6283462e-05
6.8901704e-05
7.1498265e-05
7.4060949e-05
7.6579241e-05
7.9044939e-05
8.1450571e-05
8.3790392e-05
8.6060575e-05
8.825858e-05
9.038295e-05
9.2433508e-05
9.4410096e-05
9.6315528e-05
9.8146472e-05
9.9915561e-05
0.00010160359
0.00010318055
0.00010518887
1.6867666e-07
1.6839204e-07
1.6809293e-07
1.6777786e-07
1.6744674e-07
1.6710022e-07
1.6673962e-07
1.6636673e-07
1.6598361e-07
1.6559262e-07
1.6519658e-07
1.6479898e-07
1.6440426e-07
1.6401803e-07
1.6364726e-07
1.6330046e-07
1.6298785e-07
1.6272151e-07
1.6251547e-07
1.6238579e-07
1.6235069e-07
1.6243063e-07
1.626484e-07
1.6302923e-07
1.6360093e-07
1.6439398e-07
1.6544209e-07
1.6678335e-07
1.6846142e-07
1.7052626e-07
1.730358e-07
1.7605843e-07
1.7967616e-07
1.8399402e-07
1.8914985e-07
1.9530964e-07
2.0267615e-07
2.1150794e-07
2.2215839e-07
2.3518291e-07
2.5119233e-07
2.7089799e-07
2.9532197e-07
3.2590588e-07
3.6468166e-07
4.1449967e-07
4.793658e-07
5.6486815e-07
6.7874048e-07
8.3152585e-07
1.0372551e-06
1.3140155e-06
1.6843467e-06
2.1747762e-06
2.8146226e-06
3.633872e-06
4.6598859e-06
5.9138366e-06
7.4076605e-06
9.1456691e-06
1.1122678e-05
1.3324643e-05
1.5735444e-05
1.8327643e-05
2.1066439e-05
2.3931682e-05
2.6888993e-05
2.989578e-05
3.2960428e-05
3.5738137e-05
3.7769766e-05
3.9818057e-05
4.1935773e-05
4.4132624e-05
4.6389267e-05
4.8757283e-05
5.1280872e-05
5.3891348e-05
5.6587736e-05
5.9379751e-05
6.2237761e-05
6.5137893e-05
6.8073055e-05
7.1026357e-05
7.3977787e-05
7.6914531e-05
7.9822902e-05
8.2690144e-05
8.550645e-05
8.8263757e-05
9.0955227e-05
9.35757e-05
9.6121889e-05
9.8590876e-05
0.00010098353
0.00010329415
0.00010553427
0.0001076863
0.00010971243
0.00011228056
1.6876885e-07
1.6852918e-07
1.682792e-07
1.6801712e-07
1.6774201e-07
1.6745348e-07
1.6715171e-07
1.6683723e-07
1.665107e-07
1.6617278e-07
1.6582405e-07
1.654652e-07
1.6509707e-07
1.6472086e-07
1.643382e-07
1.6395125e-07
1.6356287e-07
1.6317669e-07
1.6279727e-07
1.6243022e-07
1.6208232e-07
1.6176164e-07
1.6147773e-07
1.6124169e-07
1.6106636e-07
1.6096643e-07
1.6095866e-07
1.6106216e-07
1.6129876e-07
1.6169339e-07
1.6227473e-07
1.6307602e-07
1.6413599e-07
1.6550088e-07
1.6722735e-07
1.6938471e-07
1.7205786e-07
1.7535232e-07
1.7940343e-07
1.8439641e-07
1.9056822e-07
1.9821743e-07
2.0773953e-07
2.1969262e-07
2.3496842e-07
2.5460563e-07
2.8002069e-07
3.1335249e-07
3.5775668e-07
4.1783338e-07
5.0021644e-07
6.1440207e-07
7.7384607e-07
9.9715299e-07
1.3090133e-06
1.7402272e-06
2.3260767e-06
3.1016586e-06
4.0957716e-06
5.3272099e-06
6.8042354e-06
8.5276282e-06
1.0495547e-05
1.2701371e-05
1.51317e-05
1.7773005e-05
2.0602872e-05
2.3587218e-05
2.6708952e-05
2.9938604e-05
3.3230056e-05
3.6594635e-05
3.9599834e-05
4.1819988e-05
4.4075281e-05
4.6417365e-05
4.884856e-05
5.134757e-05
5.4009057e-05
5.6836125e-05
5.9753518e-05
6.2776982e-05
6.5905101e-05
6.909927e-05
7.2339479e-05
7.5614877e-05
7.8900581e-05
8.2180536e-05
8.544068e-05
8.8666528e-05
9.1845743e-05
9.4968008e-05
9.8025505e-05
0.00010101088
0.00010392156
0.00010674826
0.00010949995
0.00011215939
0.00011468564
0.00011786143
1.6881515e-07
1.6859883e-07
1.6837589e-07
1.6814491e-07
1.6790491e-07
1.6765521e-07
1.6739553e-07
1.6712591e-07
1.6684656e-07
1.6655765e-07
1.6625926e-07
1.6595139e-07
1.6563398e-07
1.6530703e-07
1.649706e-07
1.6462489e-07
1.6427028e-07
1.6390741e-07
1.6353719e-07
1.6316094e-07
1.6278041e-07
1.623979e-07
1.6201636e-07
1.6163945e-07
1.6127169e-07
1.6091858e-07
1.6058669e-07
1.6028385e-07
1.6001932e-07
1.5980396e-07
1.5965051e-07
1.5957392e-07
1.5959166e-07
1.5972435e-07
1.599965e-07
1.6043758e-07
1.6108314e-07
1.6197641e-07
1.631709e-07
1.6473486e-07
1.6675551e-07
1.6934406e-07
1.7264506e-07
1.7685192e-07
1.8224036e-07
1.8917966e-07
1.9817509e-07
2.0995213e-07
2.2568773e-07
2.4705929e-07
2.7631241e-07
3.1696317e-07
3.7441924e-07
4.568851e-07
5.7662847e-07
7.5163025e-07
1.0073074e-06
1.377143e-06
1.9007043e-06
2.6179889e-06
3.5617139e-06
4.7516771e-06
6.1954108e-06
7.8927851e-06
9.8408609e-06
1.2038151e-05
1.4481108e-05
1.7158133e-05
2.0057506e-05
2.3159363e-05
2.6428565e-05
2.984931e-05
3.3388497e-05
3.7000324e-05
4.0698409e-05
4.3787938e-05
4.6216671e-05
4.8697993e-05
5.1286534e-05
5.396735e-05
5.6736965e-05
5.9724576e-05
6.2873851e-05
6.6131377e-05
6.9508893e-05
7.2988632e-05
7.6530031e-05
8.0123301e-05
8.374724e-05
8.7378166e-05
9.0999204e-05
9.4592874e-05
9.8145988e-05
0.00010164467
0.00010508167
0.00010844245
0.00011173152
0.00011493073
0.00011799803
0.00012181511
1.6883688e-07
1.6863133e-07
1.6842122e-07
1.6820559e-07
1.679837e-07
1.6775493e-07
1.6751893e-07
1.6727564e-07
1.670251e-07
1.6676742e-07
1.665026e-07
1.6623056e-07
1.6595115e-07
1.6566416e-07
1.6536939e-07
1.6506661e-07
1.6475564e-07
1.6443632e-07
1.6410856e-07
1.6377236e-07
1.6342785e-07
1.630753e-07
1.6271521e-07
1.6234831e-07
1.6197565e-07
1.6159867e-07
1.6121924e-07
1.6083977e-07
1.6046328e-07
1.6009356e-07
1.5973523e-07
1.5939392e-07
1.5907645e-07
1.5879102e-07
1.585475e-07
1.5835781e-07
1.5823629e-07
1.5820034e-07
1.5827117e-07
1.5847501e-07
1.588446e-07
1.5942109e-07
1.6025689e-07
1.6142002e-07
1.6300148e-07
1.6512369e-07
1.6795384e-07
1.7172618e-07
1.7678953e-07
1.8365829e-07
1.9307545e-07
2.0616681e-07
2.2480398e-07
2.5182511e-07
2.9141521e-07
3.5037931e-07
4.3951791e-07
5.7540958e-07
7.8238681e-07
1.0937569e-06
1.5506509e-06
2.1974475e-06
3.0730024e-06
4.2029208e-06
5.597398e-06
7.2568146e-06
9.1792296e-06
1.1363408e-05
1.3810889e-05
1.6521108e-05
1.9482839e-05
2.2684396e-05
2.6103253e-05
2.9702134e-05
3.3466037e-05
3.7347232e-05
4.1313133e-05
4.5377807e-05
4.8386681e-05
5.1033871e-05
5.3762145e-05
5.6613894e-05
5.9554934e-05
6.266903e-05
6.6003332e-05
6.9489594e-05
7.3110273e-05
7.6863665e-05
8.0714632e-05
8.4631707e-05
8.8597549e-05
9.2583846e-05
9.6573084e-05
0.00010054264
0.0001044803
0.00010836413
0.00011219224
0.00011594464
0.00011957349
0.00012404487
1.6884641e-07
1.6864548e-07
1.6844098e-07
1.6823229e-07
1.6801889e-07
1.6780029e-07
1.6757621e-07
1.6734656e-07
1.6711139e-07
1.6687077e-07
1.6662476e-07
1.6637333e-07
1.6611638e-07
1.6585379e-07
1.6558537e-07
1.6531095e-07
1.6503029e-07
1.6474317e-07
1.6444937e-07
1.6414865e-07
1.638408e-07
1.6352562e-07
1.6320296e-07
1.6287271e-07
1.6253487e-07
1.621895e-07
1.6183684e-07
1.6147726e-07
1.6111137e-07
1.6074004e-07
1.6036446e-07
1.5998623e-07
1.596074e-07
1.592306e-07
1.5885916e-07
1.584972e-07
1.5814986e-07
1.5782348e-07
1.5752588e-07
1.5726673e-07
1.5705803e-07
1.5691476e-07
1.5685574e-07
1.5690494e-07
1.5709338e-07
1.5746183e-07
1.5806495e-07
1.5897767e-07
1.6030633e-07
1.6220522e-07
1.648999e-07
1.6872827e-07
1.742234e-07
1.8222223e-07
1.9402917e-07
2.1175719e-07
2.3913914e-07
2.8177278e-07
3.4876955e-07
4.5466264e-07
6.2137808e-07
8.8010086e-07
1.2713728e-06
1.8418516e-06
2.6369926e-06
3.6912217e-06
5.0223775e-06
6.6342045e-06
8.5250167e-06
1.0695348e-05
1.3147608e-05
1.5886277e-05
1.8910845e-05
2.2207843e-05
2.5764008e-05
2.9547377e-05
3.3521647e-05
3.7672918e-05
4.1927489e-05
4.6280126e-05
5.0558055e-05
5.345221e-05
5.6332215e-05
5.9331975e-05
6.2455752e-05
6.5686313e-05
6.9196868e-05
7.2903213e-05
7.6781859e-05
8.0807205e-05
8.4960986e-05
8.9202469e-05
9.3512435e-05
9.7859163e-05
0.00010222551
0.00010657982
0.00011091245
0.00011520088
0.00011937773
0.00012448634
1.6884999e-07
1.6865082e-07
1.6844854e-07
1.6824275e-07
1.6803307e-07
1.6781914e-07
1.6760073e-07
1.6737777e-07
1.671503e-07
1.6691841e-07
1.6668216e-07
1.6644159e-07
1.6619666e-07
1.6594732e-07
1.6569349e-07
1.6543506e-07
1.6517189e-07
1.6490385e-07
1.6463076e-07
1.6435244e-07
1.6406872e-07
1.6377939e-07
1.6348424e-07
1.6318306e-07
1.6287564e-07
1.6256178e-07
1.6224132e-07
1.619141e-07
1.6158003e-07
1.6123908e-07
1.6089132e-07
1.6053691e-07
1.601762e-07
1.598097e-07
1.5943817e-07
1.5906268e-07
1.5868464e-07
1.5830593e-07
1.5792896e-07
1.5755686e-07
1.5719356e-07
1.5684408e-07
1.5651477e-07
1.5621371e-07
1.5595125e-07
1.5574082e-07
1.556001e-07
1.5555286e-07
1.5563187e-07
1.5588346e-07
1.5637456e-07
1.5720403e-07
1.5852324e-07
1.6056871e-07
1.6371409e-07
1.6856412e-07
1.7614834e-07
1.8814851e-07
2.0736525e-07
2.386945e-07
2.8980759e-07
3.7292253e-07
5.0714256e-07
7.2045914e-07
1.0510927e-06
1.5461081e-06
2.2559487e-06
3.2249569e-06
4.4816817e-06
6.0375627e-06
7.8932521e-06
1.0048691e-05
1.2508499e-05
1.5278209e-05
1.836375e-05
2.1760084e-05
2.5449902e-05
2.9417341e-05
3.36137e-05
3.8008227e-05
4.2578414e-05
4.723695e-05
5.2007204e-05
5.5894819e-05
5.9006638e-05
6.2157907e-05
6.5464359e-05
6.8874998e-05
7.2531709e-05
7.6444872e-05
8.0562863e-05
8.4861828e-05
8.9311004e-05
9.3882319e-05
9.8547192e-05
0.00010326582
0.00010801936
0.00011278142
0.00011745211
0.00012313241
1.6885072e-07
1.6865202e-07
1.6845041e-07
1.6824564e-07
1.6803742e-07
1.678255e-07
1.6760967e-07
1.673899e-07
1.671662e-07
1.6693865e-07
1.6670733e-07
1.6647229e-07
1.6623354e-07
1.6599108e-07
1.6574488e-07
1.654949e-07
1.6524108e-07
1.6498335e-07
1.6472163e-07
1.6445581e-07
1.641858e-07
1.6391147e-07
1.6363268e-07
1.6334929e-07
1.6306115e-07
1.6276807e-07
1.624699e-07
1.6216644e-07
1.618575e-07
1.6154291e-07
1.6122248e-07
1.6089607e-07
1.6056354e-07
1.6022481e-07
1.5987986e-07
1.5952874e-07
1.5917163e-07
1.5880883e-07
1.5844084e-07
1.5806835e-07
1.5769239e-07
1.573143e-07
1.5693589e-07
1.5655956e-07
1.5618842e-07
1.5582658e-07
1.5547944e-07
1.5515422e-07
1.5486073e-07
1.5461265e-07
1.5442941e-07
1.5433935e-07
1.5438497e-07
1.5463177e-07
1.5518285e-07
1.5620431e-07
1.5797361e-07
1.6095442e-07
1.6593032e-07
1.7426063e-07
1.8822483e-07
2.1163935e-07
2.5111116e-07
3.1686539e-07
4.2507559e-07
6.0031804e-07
8.7756255e-07
1.3026615e-06
1.9290322e-06
2.8094732e-06
3.9854255e-06
5.4787083e-06
7.295975e-06
9.4374997e-06
1.190742e-05
1.47141e-05
1.7864565e-05
2.1363861e-05
2.5196445e-05
2.9339809e-05
3.376965e-05
3.8423415e-05
4.3279683e-05
4.827271e-05
5.3370801e-05
5.8441572e-05
6.1809776e-05
6.5157489e-05
6.8616481e-05
7.2219401e-05
7.6016859e-05
8.0138686e-05
8.447534e-05
8.9060655e-05
9.3824271e-05
9.8738731e-05
0.00010376912
0.00010888093
0.00011395454
0.00012006521
1.6885014e-07
1.6865134e-07
1.6844973e-07
1.6824512e-07
1.6803733e-07
1.6782614e-07
1.6761141e-07
1.6739309e-07
1.6717119e-07
1.6694578e-07
1.6671693e-07
1.6648468e-07
1.6624908e-07
1.6601014e-07
1.6576787e-07
1.6552227e-07
1.6527331e-07
1.6502098e-07
1.6476525e-07
1.6450607e-07
1.6424339e-07
1.6397717e-07
1.6370733e-07
1.6343381e-07
1.6315652e-07
1.6287536e-07
1.6259023e-07
1.6230102e-07
1.6200759e-07
1.6170981e-07
1.6140753e-07
1.6110059e-07
1.6078884e-07
1.604721e-07
1.6015023e-07
1.5982307e-07
1.5949048e-07
1.5915236e-07
1.5880865e-07
1.5845935e-07
1.5810452e-07
1.5774435e-07
1.5737915e-07
1.570094e-07
1.5663581e-07
1.5625939e-07
1.5588153e-07
1.5550413e-07
1.5512984e-07
1.5476238e-07
1.5440703e-07
1.540715e-07
1.5376727e-07
1.5351187e-07
1.5333278e-07
1.5327403e-07
1.5340842e-07
1.5385807e-07
1.5483081e-07
1.5668709e-07
1.6004743e-07
1.6598072e-07
1.7635265e-07
1.9428478e-07
2.249841e-07
2.7732223e-07
3.6484255e-07
5.0880725e-07
7.4068159e-07
1.1039038e-06
1.6530103e-06
2.4473312e-06
3.5401367e-06
4.9672334e-06
6.7436209e-06
8.8729302e-06
1.1357752e-05
1.4208046e-05
1.7433326e-05
2.1038692e-05
2.5022484e-05
2.935569e-05
3.4011504e-05
3.8938233e-05
4.4088765e-05
4.9438029e-05
5.4879393e-05
6.0444307e-05
6.4707699e-05
6.8292806e-05
7.193383e-05
7.5735901e-05
7.9678245e-05
8.4013417e-05