/*--------------------------------*- C++ -*----------------------------------*\
| =========                 |                                                 |
| \\      /  F ield         | OpenFOAM: The Open Source CFD Toolbox           |
|  \\    /   O peration     | Version:  2206                                  |
|   \\  /    A nd           | Website:  www.openfoam.com                      |
|    \\/     M anipulation  |                                                 |
\*---------------------------------------------------------------------------*/
FoamFile
{
    version     2.0;
    format      ascii;
    arch        "LSB;label=32;scalar=64";
    class       volScalarField;
    location    "1900";
    object      omega;
}
// * * * * * * * * * * * * * * * * * * * * * * * * * * * * * * * * * * * * * //

dimensions      [0 0 -1 0 0 0 0];

internalField   nonuniform List<scalar> 
7480
(
7569.1044
7590.8121
7571.1083
7538.1519
7512.5617
7498.0731
7491.1174
7487.7272
7485.8481
7484.6245
7483.6792
7482.8684
7482.162
7481.5508
7481.0208
7480.5586
7480.1554
7479.8011
7479.4859
7479.2035
7478.9498
7478.7208
7478.5127
7478.3228
7478.1495
7477.9904
7477.8439
7477.7088
7477.584
7477.4686
7477.3615
7477.2623
7477.1704
7477.0851
7477.006
7476.9328
7476.8651
7476.8026
7476.7451
7476.6926
7476.6449
7476.602
7476.5638
7476.5304
7476.5018
7476.4784
7476.4604
7476.4481
7476.4416
7476.4406
7476.4451
7476.4548
7476.4691
7476.4872
7476.5081
7476.5312
7476.5551
7476.5778
7476.5972
7476.612
7476.6219
7476.627
7476.6278
7476.6249
7476.6192
7476.6113
7476.6019
7476.5915
7476.5805
7476.5691
7476.5576
7476.546
7476.5345
7476.5232
7476.512
7476.5009
7476.4901
7476.4789
7476.4676
7476.4561
7476.4446
7476.433
7476.4214
7476.4097
7476.398
7476.3861
7476.3742
7476.3622
7476.3501
7476.3381
7476.326
7476.3139
7476.3019
7476.2898
7476.2778
7476.2653
7476.2544
7476.2387
7476.2298
7476.2059
1003.2565
1574.4184
1842.5142
1920.7932
1937.0325
1923.8634
1863.1529
1797.7846
1744.1632
1703.9718
1673.3271
1647.6673
1624.4414
1603.0254
1583.2513
1564.8804
1547.8157
1532.1811
1517.8291
1504.5256
1492.1762
1480.7586
1470.1656
1460.2847
1451.0703
1442.4956
1434.4891
1426.9823
1419.9439
1413.3505
1407.1598
1401.3364
1395.8639
1390.7259
1385.8982
1381.3623
1377.1092
1373.1273
1369.403
1365.9282
1362.7012
1359.7196
1356.98
1354.4851
1352.24
1350.2309
1348.4599
1346.9586
1345.72
1344.7369
1344.0312
1343.6364
1343.4478
1343.433
1343.5542
1343.7733
1344.0475
1344.3186
1344.5285
1344.6173
1344.5765
1344.3962
1344.1218
1343.7446
1343.2643
1342.7044
1342.0862
1341.4303
1340.7527
1340.0649
1339.3759
1338.6925
1338.0183
1337.3564
1336.7095
1336.0773
1335.4625
1334.8562
1334.2536
1333.6561
1333.0639
1332.4768
1331.8944
1331.3142
1330.7357
1330.1578
1329.5806
1329.0041
1328.4285
1327.8544
1327.2819
1326.7115
1326.1439
1325.5777
1325.0176
1324.4465
1323.9029
1323.3377
1322.6622
1322.0508
190.67026
396.64472
585.97485
709.21936
769.26078
785.38173
782.09091
789.21437
803.67924
812.84003
819.32116
823.53686
825.03347
824.13528
821.41025
817.39186
811.92523
805.26677
797.67785
789.37476
780.56901
771.46474
762.20561
752.89557
743.63948
734.53193
725.58894
716.81069
708.21331
699.82035
691.64622
683.70084
675.99777
668.54946
661.36317
654.44677
647.80994
641.45284
635.3727
629.57012
624.05113
618.8235
613.89471
609.27401
604.97912
600.99927
597.32784
593.96426
590.89491
588.10591
585.63371
583.48286
581.54838
579.79613
578.20112
576.71017
575.26139
573.81601
572.35759
570.89511
569.41126
567.90574
566.45457
565.00942
563.55279
562.08754
560.61989
559.15874
557.71242
556.28786
554.89053
553.52489
552.19404
550.90005
549.64478
548.42733
547.24847
546.1304
545.05665
544.01435
542.99682
542.0009
541.02468
540.06459
539.11871
538.18471
537.26134
536.34763
535.44273
534.54663
533.65857
532.77864
531.90693
531.04182
530.18736
529.3266
528.49214
527.65639
526.73685
525.65178
72.003431
121.36954
194.00492
267.73681
324.63769
359.74773
377.81665
386.78874
392.45807
397.57351
404.52321
415.23233
426.2139
437.93835
452.28735
470.56014
485.14979
496.53984
505.30899
511.86718
516.53842
519.6143
521.35392
522.02666
521.9483
521.36534
520.00726
517.82174
514.89672
511.3564
507.31997
502.89125
498.1611
493.20996
488.11243
482.94287
477.7489
472.51355
467.23644
461.93465
456.63438
451.36331
446.14692
441.00832
435.98095
431.05796
426.20701
421.39911
416.63055
411.90787
407.25179
402.76107
398.33665
393.99032
389.75751
385.59326
381.46211
377.41079
373.51961
369.86122
366.45598
363.32137
360.49062
357.88825
355.4648
353.18497
351.02185
348.95668
346.97664
345.07302
343.23973
341.47325
339.77143
338.13192
336.55316
335.03255
333.56922
332.18832
330.88213
329.63508
328.43696
327.28231
326.1683
325.09113
324.04793
323.03541
322.05086
321.09191
320.15619
319.24216
318.34792
317.47229
316.61405
315.77126
314.94526
314.12613
313.32295
312.57288
311.71929
310.76037
55.641538
64.533376
83.914088
111.35568
140.42985
165.53875
184.59414
198.14233
207.75236
214.79797
220.42936
225.67135
230.96715
236.83892
244.10677
253.55572
263.35332
273.15703
282.75313
292.01099
300.83711
309.31171
317.72805
326.71899
337.34935
349.83603
359.69796
366.93067
372.21296
375.99538
378.58435
380.20113
381.02414
381.22105
380.98276
380.52076
379.81355
378.46877
376.48234
373.93907
370.93419
367.55031
363.85545
359.91018
355.79098
351.4981
346.96189
342.1602
337.12369
331.898
326.53144
321.08402
315.62888
310.17562
304.76037
299.33748
293.93223
288.66952
283.66403
278.99754
274.73444
270.88874
267.41998
264.27104
261.38825
258.72517
256.24229
253.90859
251.70045
249.60012
247.59479
245.67648
243.83791
242.07327
240.37856
238.74991
237.18628
235.69052
234.26543
232.90696
231.60935
230.36814
229.18068
228.04364
226.95414
225.90879
224.90436
223.93779
223.00591
222.10622
221.23632
220.39398
219.57698
218.78306
218.01171
217.25755
216.51706
215.84983
215.10044
214.28303
53.509223
54.437151
58.088842
65.267348
75.161682
86.046627
96.440206
105.64808
113.54835
120.26785
125.97311
130.87884
135.18983
139.11829
142.94712
147.0151
151.42318
156.27371
161.71288
167.82119
174.1597
180.72697
187.52861
194.61667
202.10324
210.07198
218.0543
225.69213
232.81114
239.35024
245.32296
250.80875
255.97844
261.16188
266.96888
274.12057
281.53588
286.10887
288.75687
290.08751
290.45516
290.07716
289.10631
287.68855
286.00617
284.20599
281.84132
278.81852
275.23866
271.21023
266.83344
262.20643
257.42949
252.53405
247.57243
242.61695
237.7221
232.9726
228.44588
224.19449
220.2407
216.59062
213.22757
210.12297
207.24691
204.56909
202.06046
199.69693
197.45836
195.32824
193.29401
191.34748
189.4812
187.68927
185.96744
184.31181
182.72147
181.19132
179.7228
178.3175
176.9745
175.69182
174.46782
173.30004
172.18606
171.12289
170.10744
169.13661
168.20704
167.31585
166.46025
165.63762
164.84537
164.08107
163.3433
162.6287
161.93026
161.30211
160.63041
159.89036
53.223718
52.808273
52.958887
54.085435
56.274096
59.3653
62.975696
66.792191
70.621063
74.359568
77.937554
81.308989
84.452147
87.365035
90.078628
92.661499
95.183778
97.716103
100.34266
103.15409
106.1934
109.52864
113.24274
117.38667
121.86452
126.72565
131.94054
137.42528
143.08309
148.83004
154.59361
160.31663
165.9679
171.55737
177.14055
182.8235
188.52758
193.8034
198.43853
202.38787
205.6879
208.42607
210.75416
212.95125
215.48347
218.48189
219.85944
219.67818
218.49798
216.63228
214.30155
211.70565
209.01225
205.98419
202.56617
199.06192
195.62458
192.30217
189.05152
185.88299
182.82448
179.88915
177.07836
174.39402
171.83647
169.39855
167.0707
164.84606
162.71536
160.66964
158.70186
156.80723
154.98186
153.22303
151.52835
149.8949
148.32237
146.80659
145.34628
143.9431
142.59819
141.31162
140.0829
138.91061
137.79293
136.72753
135.71186
134.74315
133.81825
132.9343
132.08838
131.27786
130.50025
129.7531
129.03473
128.34247
127.66987
127.05772
126.43548
125.7345
53.161557
52.541994
52.020374
51.712429
51.711968
52.047105
52.633475
53.455874
54.48042
55.669737
56.98413
58.385681
59.839137
61.311617
62.777813
64.225105
65.651372
67.061723
68.470607
69.902088
71.382186
72.942202
74.622181
76.46776
78.515464
80.816899
83.42894
86.355553
89.551315
93.014425
96.734542
100.69203
104.86386
109.23049
113.7829
118.52172
123.42703
128.40633
133.35552
138.17826
142.79376
147.14004
151.17386
154.8793
158.27961
161.33882
163.88174
165.76978
167.00286
167.67393
167.93551
167.98772
167.98195
167.24988
165.73817
163.88997
162.06291
160.28336
158.32755
156.29825
154.25854
152.20738
150.1407
148.08021
146.04274
144.03207
142.05458
140.12245
138.23411
136.39013
134.59215
132.84148
131.13878
129.48704
127.88693
126.33691
124.83833
123.38954
121.98859
120.63635
119.33438
118.08387
116.8854
115.73855
114.64218
113.59492
112.59512
111.64068
110.72887
109.85733
109.02346
108.22488
107.45948
106.72503
106.0199
105.34179
104.686
104.08056
103.48835
102.80748
53.125178
52.474956
51.838555
51.240297
50.71054
50.272118
49.929241
49.684199
49.539117
49.483208
49.494234
49.59874
49.796623
50.077907
50.429048
50.836945
51.291353
51.784113
52.309982
52.867617
53.45883
54.08831
54.764808
55.501659
56.315062
57.225882
58.260707
59.445419
60.801505
62.354809
64.135414
66.146067
68.383962
70.855441
73.571938
76.542328
79.772987
83.256621
86.970598
90.884161
94.961442
99.161996
103.44182
107.75487
112.06176
116.26155
120.20985
123.79618
126.93175
129.56006
131.65427
133.2167
134.27813
134.88524
135.04557
134.79728
134.37891
133.85062
133.00087
132.01781
130.9973
129.85143
128.55168
127.16918
125.72956
124.2323
122.69967
121.1504
119.59131
118.0318
116.48124
114.94715
113.43475
111.95644
110.51441
109.1068
107.73825
106.40835
105.11502
103.8595
102.64342
101.46828
100.3353
99.244952
98.196588
97.19022
96.2254
95.300874
94.414406
93.564523
92.749372
91.967049
91.216214
90.494936
89.80194
89.135314
88.492265
87.890928
87.317232
86.648034
53.095134
52.438386
51.782398
51.131033
50.49112
49.870005
49.273203
48.705356
48.171242
47.674631
47.217076
46.802653
46.434948
46.115668
45.830269
45.572862
45.35609
45.185398
45.060986
44.981335
44.944347
44.947592
44.990174
45.073572
45.201236
45.378573
45.613516
45.915968
46.297257
46.770745
47.352674
48.059074
48.90647
49.91432
51.106348
52.489169
54.079597
55.896299
57.950881
60.252144
62.809285
65.629085
68.715747
72.070799
75.69459
79.565569
83.600669
87.698563
91.75506
95.662815
99.316396
102.61735
105.48132
107.85271
109.69298
110.92461
111.55517
111.76255
111.74566
111.56541
111.32765
110.96456
110.42371
109.77614
109.01946
108.09755
107.07388
105.97306
104.80056
103.57791
102.32156
101.04696
99.764487
98.506453
97.267586
96.045404
94.843341
93.66326
92.505366
91.371232
90.262732
89.181673
88.129977
87.109056
86.118402
85.159651
84.234964
83.343866
82.484778
81.65696
80.859502
80.09116
79.35184
78.639764
77.954282
77.294046
76.657817
76.056828
75.491976
74.82751
53.068752
52.408624
51.747467
51.085549
50.423992
49.764341
49.10836
48.45808
47.815907
47.184447
46.566169
45.963628
45.379402
44.8159
44.273837
43.753339
43.255797
42.783
42.336565
41.917662
41.521922
41.139043
40.77381
40.435721
40.130806
39.862574
39.633647
39.446306
39.303035
39.207922
39.167068
39.187925
39.279212
39.451219
39.716332
40.087139
40.578621
41.20913
41.998731
42.95858
44.108779
45.471357
47.070389
48.932086
51.085221
53.559784
56.374338
59.517718
62.960379
66.649329
70.507044
74.431714
78.300589
81.983424
85.357183
88.280636
90.623557
92.356244
93.520116
94.224066
94.589147
94.758499
94.787834
94.713191
94.549499
94.227074
93.787195
93.22952
92.523988
91.718571
90.833523
89.897622
88.92072
87.937476
86.941466
85.933791
84.920263
83.904877
82.890759
81.881762
80.881219
79.892289
78.918416
77.962418
77.025987
76.111495
75.221455
74.357085
73.518701
72.706594
71.920806
71.161071
70.427359
69.718982
69.03591
68.377157
67.742804
67.139366
66.576806
65.912521
53.030727
52.366719
51.701845
51.035868
50.368771
49.700598
49.031608
48.362395
47.693877
47.027198
46.3636
45.704393
45.050953
44.404712
43.766986
43.138952
42.521803
41.91677
41.325108
40.748059
40.186309
39.639472
39.107707
38.592141
38.094398
37.616247
37.158797
36.716271
36.283477
35.868988
35.483226
35.133386
34.824594
34.560862
34.345892
34.184874
34.084848
34.054812
34.105589
34.248662
34.497887
34.870408
35.385868
36.064079
36.933216
38.027518
39.386439
41.049104
43.051589
45.421571
48.171382
51.289606
54.732357
58.418698
62.233982
66.024745
69.603283
72.796452
75.47358
77.59768
79.180616
80.300523
81.055838
81.524576
81.797082
81.93899
81.961982
81.888062
81.680893
81.362291
80.9272
80.398303
79.795361
79.126144
78.398528
77.625983
76.818933
75.983567
75.126374
74.254174
73.37235
72.485967
71.600281
70.719496
69.847036
68.986515
68.141121
67.313248
66.504607
65.716468
64.949765
64.205093
63.482954
62.783442
62.106945
61.452846
60.822252
60.218805
59.65806
58.995088
52.972329
52.293229
51.615617
50.939138
50.26337
49.587808
48.912087
48.236133
47.560164
46.884586
46.209891
45.53661
44.865322
44.196655
43.531277
42.869885
42.213212
41.562032
40.917152
40.27942
39.649662
39.02858
38.416822
37.815089
37.224167
36.644932
36.078273
35.524396
34.982955
34.454543
33.940813
33.443982
32.966204
32.503641
32.049412
31.613343
31.207859
30.841029
30.518465
30.244213
30.023221
29.863168
29.77405
29.767914
29.860206
30.071113
30.42598
30.954923
31.696615
32.696313
34.004013
35.67015
37.738298
40.233785
43.151335
46.440394
49.990954
53.638923
57.187035
60.458457
63.315279
65.689206
67.58449
69.026073
70.074362
70.817027
71.310964
71.628073
71.818793
71.890666
71.863495
71.726198
71.497373
71.186886
70.775327
70.287963
69.738126
69.130676
68.47403
67.778069
67.050486
66.298204
65.528692
64.747898
63.961171
63.173972
62.390609
61.614789
60.849653
60.097571
59.36054
58.640099
57.937478
57.253571
56.589334
55.944683
55.321573
54.721908
54.164582
53.505026
52.921439
52.22148
51.523938
50.828838
50.135966
49.444895
48.755206
48.066675
47.379311
46.693294
46.008881
45.326355
44.646007
43.968147
43.29309
42.621168
41.95273
41.288142
40.627789
39.972079
39.32144
38.676304
38.037111
37.404313
36.778384
36.15983
35.549186
34.946956
34.353552
33.769402
33.195067
32.631282
32.078915
31.53831
31.009039
30.491816
29.988647
29.502154
29.033243
28.572208
28.123427
27.702256
27.318541
26.978475
26.686726
26.450396
26.280585
26.192311
26.205619
26.347094
26.650931
27.159612
27.926579
29.013109
30.482419
32.387977
34.75474
37.557008
40.703558
44.047222
47.406384
50.602936
53.501317
56.009268
58.086826
59.753396
61.038341
61.988849
62.678459
63.151757
63.471911
63.661752
63.741337
63.7406
63.648979
63.47344
63.22627
62.891558
62.478461
62.002542
61.471291
60.890922
60.272067
59.622316
58.948745
58.259329
57.559638
56.854985
56.150241
55.449058
54.754768
54.070004
53.396917
52.737324
52.092871
51.464156
50.853904
50.263076
49.712558
49.059889
52.891458
52.176804
51.463783
50.752741
50.0438
49.336849
48.631703
47.928249
47.226519
46.526671
45.828936
45.133574
44.440858
43.751067
43.064483
42.381387
41.702065
41.026801
40.355879
39.689586
39.028206
38.372023
37.721316
37.076362
36.437435
35.804809
35.178757
34.559556
33.947468
33.342751
32.745673
32.156534
31.575675
31.003418
30.439999
29.885699
29.340985
28.806543
28.283068
27.770081
27.267674
26.777699
26.302871
25.843875
25.389327
24.949037
24.539406
24.170058
23.847964
23.581733
23.385772
23.280495
23.294088
23.464817
23.842712
24.488961
25.474331
26.866215
28.708622
31.000666
33.681332
36.632042
39.699218
42.718984
45.545007
48.07726
50.255612
52.056738
53.504824
54.628756
55.468298
56.079042
56.501565
56.778524
56.951682
57.034365
57.043824
56.974189
56.825505
56.609236
56.314549
55.942977
55.513168
55.030476
54.502365
53.940679
53.351073
52.740861
52.11717
51.484988
50.849383
50.214283
49.582992
48.958487
48.343232
47.738676
47.148324
46.572746
46.034159
45.393305
52.876528
52.153848
51.431914
50.711159
49.991857
49.274096
48.557875
47.843215
47.130207
46.419031
45.709922
45.003149
44.298994
43.597752
42.89972
42.205199
41.514489
40.827886
40.145688
39.468187
38.795671
38.128423
37.466718
36.810823
36.161001
35.517499
34.880559
34.25041
33.62727
33.01134
32.402809
31.801859
31.20866
30.623374
30.046143
29.4771
28.916387
28.364175
27.820667
27.285965
26.760157
26.24351
25.736557
25.239822
24.752453
24.274889
23.809473
23.359339
22.916941
22.481469
22.074281
21.708353
21.393573
21.143131
20.978773
20.931769
21.045468
21.376695
21.992478
22.961461
24.339125
26.14711
28.357213
30.886919
33.610306
36.383892
39.068885
41.548286
43.74842
45.629842
47.180361
48.42362
49.385727
50.098913
50.619028
50.983828
51.220829
51.36328
51.434922
51.437094
51.366807
51.22321
51.019174
50.737933
50.387906
49.988375
49.538946
49.050511
48.532919
47.991687
47.434245
46.865852
46.291262
45.714963
45.140368
44.570035
44.008324
43.455836
42.936026
42.313466
52.869922
52.14317
51.416598
50.690645
49.965628
49.241716
48.519006
47.797588
47.077593
46.359211
45.642676
44.928252
44.216221
43.506878
42.800525
42.097466
41.398008
40.702458
40.011121
39.324299
38.642291
37.96539
37.293885
36.628058
35.968182
35.314526
34.667345
34.026887
33.393388
32.767073
32.148153
31.536824
30.933269
30.337654
29.750129
29.170824
28.599854
28.037317
27.4833
26.937869
26.401065
25.872927
25.353523
24.842944
24.341146
23.848124
23.364141
22.889777
22.42466
21.968424
21.523348
21.092966
20.670305
20.257256
19.8782
19.548432
19.282392
19.103762
19.047483
19.160873
19.502985
20.139039
21.128746
22.510732
24.284985
26.403441
28.773409
31.271731
33.769438
36.150159
38.320537
40.226011
41.840094
43.157875
44.207784
45.014072
45.609271
46.038264
46.34019
46.530094
46.635437
46.683302
46.666113
46.580832
46.430361
46.227998
45.94636
45.608818
45.226345
44.801526
44.345721
43.864645
43.364866
42.852761
42.332705
41.808783
41.286303
40.766315
40.27386
39.677726
52.86771
52.138906
51.409953
50.681285
49.953233
49.226007
48.49975
47.774592
47.050684
46.328216
45.607415
44.888534
44.171846
43.457636
42.746196
42.037827
41.332827
40.6315
39.934145
39.241063
38.552549
37.868896
37.190391
36.517317
35.849952
35.188563
34.533415
33.884762
33.24285
32.607915
31.980184
31.359874
30.747188
30.142318
29.545442
28.956723
28.376311
27.804335
27.240911
26.686136
26.140085
25.602815
25.074369
24.554776
24.044041
23.542147
23.049097
22.564945
22.089682
21.62325
21.16586
20.718105
20.279676
19.85058
19.43385
19.034028
18.637425
18.267399
17.946325
17.691772
17.529415
17.496817
17.643279
18.026366
18.706681
19.733256
21.12757
22.871418
24.902423
27.122995
29.415529
31.66497
33.772909
35.6647
37.303349
38.67309
39.779548
40.65192
41.311234
41.792851
42.132937
42.367887
42.502843
42.575004
42.590987
42.547687
42.44088
42.279338
42.061685
41.778626
41.451168
41.081054
40.677552
40.248992
39.800255
39.337586
38.867145
38.390966
37.936216
37.376518
52.867863
52.138019
51.407822
50.677703
49.948002
49.218958
48.490745
47.76352
47.03745
46.312725
45.589566
44.868218
44.148942
43.432013
42.717712
42.006329
41.298156
40.593483
39.892604
39.195808
38.503384
37.815615
37.132782
36.45516
35.783018
35.116619
34.456221
33.802072
33.154417
32.513489
31.879513
31.252707
30.633279
30.021427
29.417337
28.821187
28.233141
27.653351
27.081956
26.519082
25.964837
25.419317
24.882601
24.354752
23.835818
23.32583
22.824809
22.332776
21.849742
21.375705
20.910687
20.454766
20.007968
19.570316
19.142187
18.724445
18.316167
17.919524
17.539289
17.166888
16.820158
16.524242
16.298326
16.170742
16.181292
16.380089
16.822512
17.563839
18.640394
20.05764
21.780721
23.735379
25.82066
27.924559
29.945746
31.802151
33.438347
34.833
35.978061
36.889687
37.595708
38.117407
38.488957
38.748921
38.916492
38.995351
39.033965
39.017036
38.944239
38.816595
38.644129
38.407802
38.123783
37.801157
37.443374
37.059964
36.657023
36.238426
35.833578
35.32269
52.869336
52.138971
51.408114
50.67719
49.946549
49.21645
48.487097
47.758671
47.031351
46.305333
45.580838
44.858102
44.137382
43.418942
42.703059
41.990011
41.280082
40.573556
39.870717
39.171847
38.477224
37.787125
37.101821
36.421579
35.746659
35.077315
34.413797
33.756344
33.105192
32.460566
31.822685
31.191757
30.567986
29.951564
29.342674
28.741489
28.148175
27.562886
26.985764
26.416942
25.856541
25.304671
24.761429
24.226898
23.701153
23.184254
22.676251
22.177191
21.68711
21.206043
20.734021
20.271082
19.817263
19.3726
18.937167
18.511127
18.094506
17.687577
17.291154
16.904826
16.530573
16.17348
15.825138
15.50894
15.246944
15.059706
14.97852
15.045909
15.311615
15.829924
16.648679
17.789732
19.241649
20.95248
22.837421
24.793432
26.716243
28.519613
30.137144
31.532593
32.697663
33.633501
34.363837
34.913426
35.311187
35.581551
35.766822
35.869389
35.912226
35.912437
35.862765
35.761937
35.616897
35.423164
35.176589
34.893377
34.575835
34.231493
33.890732
33.444022
52.871577
52.140967
51.409758
50.678371
49.947163
49.21641
48.486342
47.757159
47.029057
46.30224
45.57693
44.853364
44.131791
43.412474
42.695681
41.981688
41.270771
40.56321
39.859281
39.15926
38.463421
37.772033
37.08536
36.403663
35.727195
35.056203
34.390928
33.731603
33.078456
32.431703
31.791555
31.158215
30.531875
29.91272
29.300926
28.69666
28.100079
27.511332
26.930557
26.357883
25.793429
25.237303
24.689605
24.150422
23.619834
23.097909
22.584707
22.080282
21.584684
21.097957
20.620143
20.151286
19.691427
19.240612
18.798889
18.366321
17.94297
17.52891
17.124297
16.729194
16.343879
15.96924
15.604915
15.253787
14.921383
14.59984
14.317844
14.094202
13.952617
13.927815
14.064541
14.413551
15.026232
15.939184
17.158057
18.651686
20.350847
22.16246
23.983918
25.721925
27.30676
28.689975
29.854298
30.79992
31.543064
32.107408
32.516664
32.801527
32.992311
33.108239
33.155212
33.165475
33.131427
33.051612
32.929096
32.768038
32.553571
32.302514
32.041917
31.677887
52.874283
52.143577
51.412188
50.680528
49.948958
49.217772
48.487217
47.757515
47.028878
46.301518
45.575663
44.851549
44.129426
43.409553
42.692197
41.977628
41.26612
40.557948
39.853385
39.152704
38.456172
37.764056
37.076615
36.394105
35.716775
35.044867
34.378616
33.718252
33.063994
32.416054
31.774638
31.139939
30.512147
29.891438
29.277981
28.671937
28.073456
27.482679
26.89974
26.32476
25.757852
25.19912
24.648657
24.10655
23.572872
23.04769
22.531063
22.023043
21.523675
21.033003
20.551064
20.077898
19.613542
19.158034
18.711414
18.273726
17.845018
17.425336
17.014733
16.613256
16.220958
15.837989
15.464421
15.100676
14.747848
14.405787
14.078427
13.766726
13.477177
13.232936
13.052975
12.965471
13.009337
13.231466
13.68345
14.410881
15.433408
16.737223
18.26897
19.943863
21.66398
23.332565
24.872623
26.231353
27.383189
28.326501
29.069034
29.636635
30.050818
30.341654
30.533046
30.65457
30.709364
30.722071
30.699286
30.635443
30.532233
30.393464
30.229124
29.968127
52.877279
52.146564
51.415091
50.683268
49.951457
49.219964
48.489055
47.758969
47.029931
46.302167
45.575909
44.851396
44.128879
43.408616
42.690873
41.975918
41.264022
40.555457
39.850494
39.149404
38.452451
37.759899
37.072005
36.389021
35.711193
35.038761
34.371956
33.711004
33.056121
32.407517
31.76539
31.129933
30.501328
29.879749
29.265359
28.658315
28.058761
27.466834
26.88266
26.306357
25.738033
25.177785
24.625702
24.081865
23.546343
23.019198
22.500482
21.990244
21.488521
20.99535
20.510762
20.034785
19.567445
19.108769
18.658783
18.217515
17.784994
17.36125
16.94631
16.5402
16.142933
15.754536
15.375031
15.004479
14.643068
14.290928
13.948699
13.617051
13.297485
12.99462
12.70638
12.451844
12.248806
12.119645
12.097633
12.225888
12.554325
13.132237
13.992295
15.133335
16.516486
18.066407
19.688172
21.284809
22.774092
24.100118
25.229356
26.157208
26.890598
27.45206
27.86409
28.153222
28.343671
28.464536
28.525135
28.538976
28.525358
28.474101
28.405511
28.265588
52.880465
52.149788
51.418288
50.686368
49.954389
49.222669
48.491486
47.761096
47.031738
46.303649
45.577066
44.852235
44.129408
43.408843
42.690804
41.97556
41.26338
40.554534
39.849293
39.147923
38.450689
37.757853
37.069668
36.386386
35.708251
35.035499
34.368362
33.707062
33.051813
32.402822
31.760286
31.124394
30.495326
29.873253
29.258336
28.650727
28.050568
27.457991
26.87312
26.296069
25.726941
25.165831
24.612823
24.067993
23.531407
23.003122
22.483187
21.971643
21.468525
20.97386
20.487672
20.009981
19.540803
19.080152
18.628041
18.184483
17.74949
17.323075
16.905247
16.496014
16.095374
15.703323
15.319855
14.944961
14.578654
14.220952
13.871951
13.531817
13.20089
12.880093
12.569911
12.273546
11.994821
11.736914
11.520369
11.363986
11.295964
11.355262
11.589635
12.049719
12.776487
13.780164
15.033618
16.47082
18.000298
19.525936
20.961368
22.246226
23.344801
24.248576
24.965176
25.512897
25.917274
26.198472
26.38565
26.502906
26.5673
26.585891
26.592891
26.547897
52.883776
52.153163
51.421671
50.689695
49.957597
49.2257
48.494296
47.763654
47.034027
46.30566
45.578801
44.853697
44.130606
43.409785
42.691501
41.976019
41.26361
40.554542
39.849084
39.147503
38.450061
37.757017
37.068627
36.385138
35.706794
35.033831
34.366478
33.704955
33.049476
32.400246
31.75746
31.121306
30.491963
29.869598
29.254372
28.646434
28.045925
27.452974
26.867704
26.290225
25.720638
25.159036
24.6055
24.060102
23.522908
22.993969
22.473333
21.961036
21.457109
20.961575
20.474453
19.995754
19.525489
19.063662
18.610277
18.165333
17.728831
17.300768
16.881141
16.469942
16.067155
15.672762
15.28674
14.90906
14.539692
14.178608
13.825791
13.481243
13.145006
12.817236
12.498127
12.188283
11.888754
11.600892
11.328905
11.073812
10.851441
10.678762
10.579806
10.589595
10.753153
11.12135
11.739849
12.629358
13.771821
15.109661
16.554901
18.011037
19.390301
20.629028
21.690971
22.564135
23.257754
23.78538
24.175224
24.445852
24.628281
24.742937
24.82277
24.849952
52.887172
52.156638
51.425174
50.693168
49.960982
49.228944
48.497356
47.766499
47.036636
46.308024
45.580917
44.85557
44.132241
43.411192
42.692689
41.976998
41.264388
40.555129
39.849487
39.147729
38.450116
37.756907
37.068355
36.384708
35.706208
35.033089
34.36558
33.703901
33.048264
32.398872
31.755922
31.119598
30.490079
29.867531
29.252113
28.643974
28.043252
27.450078
26.864569
26.286837
25.71698
25.15509
24.601246
24.05552
23.517972
22.988656
22.467615
21.954883
21.450488
20.954452
20.466788
19.987505
19.516608
19.054095
18.599963
18.154205
17.716811
17.28777
16.867066
16.454682
16.050592
15.654766
15.267169
14.887761
14.516496
14.153327
13.798206
13.451087
13.111933
12.780728
12.457481
12.142278
11.835328
11.536995
11.248179
10.969783
10.704945
10.456917
10.233521
10.051789
9.9324733
9.9070357
10.017751
10.315096
10.847428
11.64348
12.69284
13.944248
15.313041
16.702743
18.025365
19.215005
20.235882
21.073094
21.736742
22.240123
22.612656
22.872116
23.062489
23.178592
52.890623
52.160176
51.428752
50.696734
49.964482
49.232329
48.500584
47.769538
47.039465
46.310631
45.583297
44.857725
44.134176
43.412914
42.694207
41.978322
41.265528
40.556093
39.850285
39.148368
38.450604
37.757251
37.06856
36.38478
35.70615
35.032906
34.365274
33.703473
33.047716
32.398206
31.755136
31.118691
30.489049
29.866377
29.250831
28.642559
28.0417
27.448382
26.862724
26.284834
25.714811
25.152745
24.598715
24.05279
23.515032
22.985492
22.464211
21.951223
21.446555
20.950224
20.462244
19.982621
19.511355
19.048443
18.593877
18.147644
17.70973
17.280116
16.858781
16.445699
16.040838
15.644159
15.25562
14.875172
14.502761
14.138328
13.781814
13.433154
13.092287
12.759153
12.4337
12.115888
11.805712
11.503211
11.208536
10.921938
10.644073
10.37596
10.119628
9.8794046
9.6585932
9.472977
9.3410587
9.2912321
9.3633582
9.6069132
10.072032
10.792939
11.765312
12.94273
14.243321
15.570752
16.83744
17.97604
18.951112
19.747938
20.378696
20.856185
21.224893
21.474471
52.894113
52.163753
51.432377
50.700358
49.968056
49.235806
48.503925
47.772711
47.042447
46.313409
45.585865
44.860081
44.136324
43.41486
42.695958
41.979888
41.266918
40.557316
39.851351
39.149285
38.451379
37.757892
37.069074
36.385173
35.706428
35.033074
34.365335
33.703433
33.047576
32.397968
31.754803
31.118265
30.488529
29.865763
29.250123
28.641757
28.040801
27.447385
26.861625
26.28363
25.713498
25.151319
24.59717
24.05112
23.513231
22.983552
22.462124
21.94898
21.444147
20.94764
20.459472
19.979647
19.508164
19.045017
18.590196
18.143686
17.705467
17.275519
16.853815
16.440324
16.03501
15.63783
15.248735
14.867671
14.494578
14.129393
13.772045
13.422465
13.080579
12.746312
12.419592
12.100345
11.788508
11.484027
11.186874
10.897054
10.614661
10.339911
10.073271
9.8157592
9.5687206
9.3357212
9.1202804
8.9348008
8.7961322
8.73029
8.7750026
8.9786324
9.3923709
10.054178
10.964362
12.079787
13.320623
14.590327
15.801611
16.887108
17.814725
18.569297
19.18233
19.63813
52.897625
52.167354
51.436027
50.704015
49.971674
49.239343
48.507342
47.775976
47.045539
46.316311
45.588569
44.862584
44.138628
43.416969
42.69788
41.98163
41.268488
40.558724
39.852605
39.150394
38.452353
37.758737
37.069798
36.385782
35.706929
35.033471
34.365636
33.70364
33.047694
32.398001
31.754753
31.118135
30.488322
29.86548
29.249765
28.641324
28.040295
27.446804
26.86097
26.282899
25.712691
25.150432
24.596202
24.050069
23.512093
22.982323
22.460801
21.947559
21.442621
20.946006
20.457722
19.977774
19.50616
19.042873
18.5879
18.141226
17.702828
17.272683
16.850761
16.43703
16.03145
15.633975
15.244552
14.863125
14.489629
14.123996
13.766154
13.416027
13.073534
12.738595
12.411128
12.091049
11.778276
11.472727
11.174327
10.88301
10.598728
10.32147
10.051284
9.7883505
9.5330093
9.2860614
9.0487001
8.8238387
8.6153875
8.4325054
8.2912638
8.2155431
8.2415255
8.4163597
8.7920985
9.4088346
10.270637
11.335571
12.524632
13.740252
14.898542
15.93071
16.829787
17.551462
52.901149
52.170963
51.439688
50.707687
49.975317
49.242915
48.510807
47.779305
47.048707
46.319303
45.591374
44.865198
44.141049
43.419202
42.69993
41.983503
41.270193
40.56027
39.853999
39.151646
38.453469
37.759727
37.070669
36.386541
35.707582
35.034025
34.366096
33.704012
33.047982
32.398209
31.754886
31.118195
30.488313
29.865404
29.249624
28.641121
28.04003
27.446479
26.860585
26.282455
25.712187