/*--------------------------------*- C++ -*----------------------------------*\
| =========                 |                                                 |
| \\      /  F ield         | OpenFOAM: The Open Source CFD Toolbox           |
|  \\    /   O peration     | Version:  2206                                  |
|   \\  /    A nd           | Website:  www.openfoam.com                      |
|    \\/     M anipulation  |                                                 |
\*---------------------------------------------------------------------------*/
FoamFile
{
    version     2.0;
    format      ascii;
    arch        "LSB;label=32;scalar=64";
    class       volScalarField;
    location    "1900";
    object      p;
}
// * * * * * * * * * * * * * * * * * * * * * * * * * * * * * * * * * * * * * //

dimensions      [0 2 -2 0 0 0 0];

internalField   nonuniform List<scalar> 
7480
(
0.054560893
0.042309651
0.028191224
0.01638614
0.0057817515
0.00033664346
-0.00091756012
0.0001010829
0.0016565638
0.0026892644
0.0031671662
0.0033726029
0.0034661688
0.0034976565
0.0035025123
0.0035102328
0.003520682
0.0035169354
0.0035030033
0.0034877539
0.0034699658
0.0034454411
0.0034170095
0.0033880197
0.0033571941
0.0033221267
0.0032842336
0.0032450693
0.003203747
0.0031594628
0.0031133317
0.0030661245
0.0030172273
0.0029664495
0.0029146516
0.0028624392
0.0028098568
0.0027575646
0.0027067981
0.0026585781
0.0026137467
0.0025738623
0.0025414403
0.0025189179
0.0025102827
0.0025209873
0.0025532596
0.002606601
0.002681467
0.0027778895
0.0028941081
0.0030272458
0.0031728075
0.0033244764
0.0034800442
0.0036330971
0.0037655459
0.0038646011
0.0039225887
0.0039411758
0.0039235047
0.0038765289
0.0038087881
0.0037274506
0.0036375926
0.0035431741
0.0034475389
0.0033519645
0.003257361
0.0031642845
0.0030728546
0.0029825734
0.0028934734
0.0028055256
0.0027179337
0.0026312878
0.0025446682
0.0024559568
0.0023655672
0.0022736198
0.0021809237
0.0020870685
0.0019909129
0.0018935099
0.0017939378
0.0016928518
0.0015900777
0.0014856818
0.0013802882
0.0012735002
0.0011666178
0.0010593235
0.00095345418
0.00084839721
0.0007509775
0.00064778155
0.00059524733
0.00031258158
0.00083925342
-0.00087471704
0.049582718
0.039073185
0.027124996
0.016236935
0.0063822047
0.0011377764
-0.00021044996
0.00057067295
0.0018834492
0.0028131588
0.0032448775
0.0034317929
0.0035169989
0.003541674
0.0035424158
0.0035481056
0.0035525494
0.0035437253
0.003526889
0.0035093319
0.00348941
0.003462936
0.0034328958
0.0034025182
0.0033704165
0.0033341892
0.0032952928
0.003255231
0.0032130726
0.0031680237
0.0031212106
0.0030733784
0.003023895
0.0029725752
0.0029202794
0.0028676008
0.0028145763
0.0027618667
0.0027107034
0.0026621
0.0026168949
0.0025766466
0.0025438679
0.0025209902
0.0025121465
0.0025224488
0.0025541462
0.0026072065
0.0026817888
0.0027779254
0.00289388
0.0030267852
0.0031721519
0.0033236752
0.0034791561
0.0036321745
0.0037646442
0.0038638017
0.0039219379
0.0039406499
0.0039231847
0.0038764249
0.0038088277
0.0037276039
0.0036378281
0.0035434652
0.0034478646
0.0033523086
0.0032577124
0.0031646352
0.0030731993
0.0029829088
0.0028937976
0.0028058372
0.0027182325
0.0026315743
0.0025449486
0.0024562365
0.0023658436
0.0022738901
0.0021811874
0.0020873257
0.0019911646
0.0018937563
0.0017941793
0.0016930884
0.0015903092
0.0014859081
0.001380509
0.0012737155
0.0011668274
0.0010595274
0.00095365236
0.00084858966
0.00075116553
0.00064796159
0.00059549439
0.00031356205
0.00084146671
-0.00087422302
0.045522464
0.037392156
0.026761431
0.016511028
0.0077565307
0.0026663659
0.00096279349
0.0012326333
0.0022198977
0.0029975201
0.0033658488
0.0035326735
0.0036051454
0.0036147737
0.0036064072
0.0036049625
0.0036007702
0.0035846523
0.003563085
0.0035418693
0.0035183753
0.0034885448
0.0034559715
0.0034234683
0.0033893239
0.0033512554
0.0033108809
0.0032695485
0.0032261845
0.0031800372
0.0031322898
0.00308362
0.0030333429
0.0029812969
0.0029283548
0.0028750799
0.0028214916
0.0027682621
0.0027166191
0.0026675592
0.0026219121
0.0025812416
0.0025480575
0.0025247825
0.0025156979
0.0025257229
0.0025568148
0.0026093588
0.0026836082
0.0027793868
0.0028949917
0.0030275594
0.0031726037
0.0033238396
0.0034791036
0.003631954
0.00376428
0.0038634026
0.0039216102
0.0039403881
0.0039231536
0.0038766185
0.0038091923
0.003728111
0.0036384399
0.0035441473
0.0034485886
0.0033530506
0.0032584556
0.0031653678
0.0030739129
0.0029835981
0.0028944598
0.0028064705
0.002718836
0.0026321486
0.0025454939
0.0024567596
0.0023663505
0.0022743793
0.0021816593
0.0020877812
0.0019916052
0.0018941841
0.0017945947
0.0016934924
0.0015907019
0.0014862898
0.0013808798
0.0012740752
0.0011671764
0.0010598655
0.00095398018
0.00084890661
0.00075147515
0.00064825433
0.00059589575
0.00031513827
0.00084538948
-0.00087361144
0.04280162
0.036090521
0.026406487
0.016810497
0.0090426948
0.0041290677
0.002044781
0.0019266265
0.0026119042
0.0032350342
0.0035478092
0.0036902347
0.0037395664
0.0037195369
0.0036905925
0.0036772571
0.0036624723
0.0036358916
0.0036077449
0.0035822423
0.003554315
0.0035199647
0.003484199
0.0034491254
0.0034123626
0.0033718637
0.0033296887
0.0032868951
0.0032421052
0.0031946682
0.0031459134
0.0030963816
0.0030452734
0.0029924848
0.0029389275
0.0028851049
0.0028310062
0.0027773425
0.0027253416
0.0026759641
0.0026300219
0.0025890958
0.0025556914
0.0025322197
0.0025230488
0.0025331105
0.0025639216
0.0026159538
0.0026899635
0.0027854262
0.0029006423
0.0030327625
0.0031772929
0.0033279792
0.0034827211
0.0036350367
0.0037668217
0.0038654401
0.0039233762
0.0039418988
0.0039246479
0.0038781573
0.0038107822
0.0037297598
0.0036401326
0.0035458617
0.0034503032
0.0033547418
0.0032601068
0.0031669667
0.0030754505
0.0029850681
0.0028958606
0.0028078006
0.0027200945
0.0026333372
0.0025465815
0.0024577482
0.0023672825
0.002275264
0.0021825004
0.0020885814
0.001992368
0.0018949146
0.0017952952
0.001694166
0.00159135
0.001486914
0.0013814814
0.0012746548
0.0011677353
0.0010604038
0.00095449959
0.00084940637
0.00075196116
0.00064871287
0.00059651298
0.00031763292
0.00085181512
-0.00087256063
0.040332559
0.034496946
0.025781767
0.017162781
0.010110538
0.0053354601
0.0030836981
0.0026953276
0.0030881887
0.0035339614
0.0037696695
0.0038614557
0.0038787708
0.0038408294
0.0038008998
0.003777878
0.003750233
0.0037079807
0.0036689014
0.0036365783
0.0036022092
0.0035615235
0.0035215213
0.0034833322
0.0034433246
0.0033996321
0.0033551234
0.003310448
0.003263752
0.0032145792
0.0031645332
0.0031139338
0.0030617944
0.0030081184
0.002953891
0.0028995115
0.0028449056
0.0027908605
0.0027386239
0.0026890871
0.002643025
0.0026020459
0.0025686474
0.0025452075
0.0025362044
0.002546577
0.0025772618
0.0026289233
0.0027026915
0.0027977688
0.002912462
0.0030439244
0.003187641
0.0033374092
0.0034912675
0.0036427342
0.0037735314
0.0038710597
0.0039282962
0.0039461242
0.0039284699
0.0038817716
0.0038142555
0.0037331477
0.0036434496
0.0035491053
0.0034534668
0.0033578082
0.0032630646
0.003169807
0.0030781655
0.0029876528
0.002898317
0.0028101285
0.0027222935
0.00263541
0.0025484893
0.0024594948
0.0023689206
0.0022768068
0.0021839561
0.0020899556
0.0019936672
0.0018961482
0.001796468
0.0016952846
0.0015924183
0.0014879357
0.0013824597
0.0012755918
0.001168634
0.0010612655
0.00095532718
0.00085019979
0.00075272826
0.00064943911
0.00059745942
0.00032133825
0.000861318
-0.00087052084
0.038019047
0.03290468
0.025193482
0.017474588
0.010995372
0.0064324954
0.0040828514
0.003442826
0.0035860164
0.0038565701
0.0040042094
0.0040438224
0.0040302134
0.0039779816
0.0039246993
0.0038831556
0.003840083
0.0037880441
0.0037421844
0.003703958
0.0036620296
0.0036134539
0.0035675422
0.0035251383
0.0034810493
0.003433459
0.0033862464
0.0033394797
0.0032906092
0.0032394223
0.0031879209
0.0031361268
0.003082816
0.0030281882
0.0029733749
0.0029186206
0.0028636248
0.0028092431
0.002756848
0.0027072666
0.0026612251
0.0026203713
0.0025871938
0.0025640099
0.0025553497
0.0025660341
0.0025965049
0.0026478326
0.002721105
0.0028155173
0.0029294201
0.0030599414
0.0032025103
0.0033509874
0.0035036197
0.0036538605
0.0037831696
0.0038791666
0.0039354444
0.0039522941
0.00393399
0.0038869929
0.0038192595
0.0037380012
0.0036481692
0.0035536923
0.0034579196
0.0033621117
0.00326721
0.0031737864
0.0030819686
0.002991277
0.0029017708
0.0028134119
0.0027254045
0.0026383501
0.0025512438
0.0024620757
0.0023713543
0.0022790971
0.002186113
0.0020919866
0.0019955813
0.0018979583
0.0017981814
0.0016969112
0.0015939643
0.0014894077
0.0013838632
0.0012769301
0.0011699123
0.0010624868
0.00095649607
0.00085131748
0.00075380282
0.00065046072
0.00059877244
0.00032638028
0.00087400943
-0.00086702152
0.035917878
0.031426068
0.024640776
0.017703999
0.011753342
0.0074307333
0.0050189659
0.0041512142
0.0040703852
0.0041874925
0.0042499943
0.0042395335
0.0041938741
0.0041235758
0.0040528292
0.0039925243
0.0039356048
0.0038755111
0.0038215854
0.003773681
0.0037233541
0.0036695468
0.0036195441
0.0035732149
0.0035245104
0.0034725084
0.0034220133
0.0033725478
0.003320982
0.0032674313
0.0032143164
0.003161235
0.003106632
0.0030509775
0.0029956001
0.0029405172
0.0028851701
0.0028305493
0.0027781706
0.002728763
0.0026829896
0.0026425685
0.0026100032
0.0025876368
0.0025791279
0.0025892249
0.0026194699
0.0026706795
0.0027435281
0.0028372668
0.0029502411
0.0030795199
0.0032205776
0.0033675062
0.0035178133
0.003665089
0.0037922276
0.0038867868
0.0039424631
0.0039585357
0.0039397446
0.0038926817
0.0038249065
0.0037436243
0.0036537395
0.0035591796
0.0034633014
0.0033673537
0.003272293
0.0031786958
0.0030866888
0.0029958009
0.0029061048
0.0028175526
0.0027293459
0.0026420916
0.0025547766
0.0024654155
0.002374519
0.0022820829
0.0021889282
0.0020946382
0.0019980784
0.0019003164
0.0018004091
0.0016990211
0.0015959643
0.0014913065
0.0013856686
0.0012786471
0.001171548
0.0010640457
0.00095798393
0.00085273723
0.00075516136
0.00065175641
0.00060042823
0.00033270281
0.00088954038
-0.00086192888
0.034019212
0.030044194
0.02407401
0.017847492
0.012400022
0.0083219429
0.0058817824
0.0048287204
0.0045526765
0.0045284355
0.0045059167
0.0044441581
0.0043642983
0.0042725558
0.0041839502
0.0041069519
0.0040366633
0.003967141
0.0039034878
0.00384563
0.0037880798
0.0037296217
0.0036748459
0.0036229417
0.003569435
0.003514268
0.0034612003
0.0034090465
0.0033545017
0.0032983058
0.0032433191
0.0031887027
0.003132391
0.0030752377
0.0030189293
0.0029631609
0.0029071769
0.0028521975
0.0027998247
0.0027506431
0.002705235
0.0026654177
0.002633731
0.0026125355
0.0026042258
0.0026134919
0.0026434085
0.0026945781
0.002767118
0.0028602286
0.0029721648
0.0030998995
0.0032392104
0.0033846543
0.0035316797
0.0036745029
0.0037990923
0.0038925848
0.0039481408
0.0039638288
0.0039449072
0.0038981225
0.0038305761
0.0037494858
0.0036597125
0.0035651922
0.003469295
0.0033732627
0.00327808
0.0031843344
0.0030921554
0.0030010777
0.0029111883
0.0028224332
0.0027340119
0.0026465398
0.0025589942
0.0024694184
0.0023783274
0.0022856882
0.0021923362
0.0020978534
0.002001109
0.001903179
0.0018031123
0.0017015794
0.0015983867
0.0014936033
0.0013878491
0.001280718
0.0011735184
0.0010659207
0.00095977032
0.00085443951
0.00075678432
0.00065330836
0.00060239371
0.00034018101
0.00090738177
-0.00085539816
0.032298538
0.028752724
0.023499534
0.017926755
0.012950097
0.009112894
0.0066758539
0.0054778325
0.0050314412
0.0048756057
0.0047694547
0.0046555693
0.0045406053
0.0044257681
0.0043185438
0.0042250201
0.0041408942
0.0040608484
0.0039876391
0.0039207904
0.003856105
0.0037921843
0.003731875
0.0036743725
0.0036166179
0.003558381
0.0035021889
0.0034466867
0.0033893069
0.0033311111
0.0032745149
0.0032182278
0.003159987
0.0031011479
0.0030437176
0.002987062
0.0029302175
0.0028745431
0.002821715
0.0027722869
0.0027267974
0.0026871689
0.0026559834
0.0026354928
0.0026276943
0.0026369111
0.0026664756
0.0027172205
0.0027891482
0.0028814447
0.0029922755
0.0031185214
0.0032562243
0.0034002583
0.003544499
0.0036831255
0.0038048012
0.0038971718
0.0039525409
0.0039680512
0.0039492864
0.0039030175
0.0038358858
0.0037551781
0.0036656945
0.00357135
0.0034755395
0.0033795048
0.0032842667
0.0031904228
0.0030981079
0.0030068673
0.0029168051
0.0028278586
0.0027392255
0.0026515344
0.0025637496
0.0024739489
0.0023826554
0.0022898016
0.002196238
0.0021015452
0.0020045964
0.0019064787
0.0018062321
0.0017045341
0.0016011855
0.001496257
0.0013903681
0.0012831097
0.0011757933
0.0010680841
0.00096182967
0.00085640069
0.00075864921
0.00065509601
0.00060462585
0.0003486666
0.00092694987
-0.0008474903
0.030735246
0.02755299
0.022928763
0.017951894
0.013411489
0.0098104776
0.007403269
0.0060949639
0.0055014056
0.0052251478
0.0050389024
0.0048733465
0.0047227657
0.0045834593
0.0044569635
0.004346559
0.0042484004
0.0041572378
0.0040740143
0.0039982992
0.0039262457
0.0038563466
0.0037905934
0.0037279367
0.003665898
0.0036040937
0.003544485
0.0034857711
0.0034258005
0.0033655701
0.0033069083
0.0032485428
0.0031885799
0.0031284952
0.0030700647
0.0030124095
0.0029545474
0.0028979728
0.0028444897
0.0027945805
0.0027486828
0.0027088092
0.0026775828
0.0026570872
0.0026493042
0.002658377
0.0026874863
0.0027375403
0.0028086215
0.0028999561
0.0030096874
0.0031346506
0.0032709333
0.0034134937
0.003555854
0.0036917401
0.0038109157
0.0039012601
0.003955476
0.0039709271
0.0039525246
0.0039068848
0.0038403394
0.0037602432
0.0036712475
0.0035772043
0.0034816008
0.0033856836
0.0032904813
0.0031966093
0.0031042213
0.0030128746
0.0029226871
0.002833584
0.002744764
0.002656872
0.0025688573
0.0024788384
0.0023873493
0.0022942832
0.0022005083
0.0021056023
0.0020084424
0.0019101292
0.0018096926
0.0017078189
0.0016043023
0.0014992165
0.0013931803
0.0012857818
0.0011783361
0.0010705031
0.00096413218
0.00085859363
0.00076073063
0.00065709621
0.00060707589
0.00035801385
0.00094767405
-0.00083813425
0.029311897
0.026442716
0.022366632
0.017927733
0.013791447
0.010421572
0.0080654692
0.0066773634
0.005959489
0.0055749413
0.005313048
0.0050967482
0.0049102569
0.0047454145
0.0045990221
0.0044714751
0.0043589777
0.0042562777
0.0041629039
0.0040781803
0.0039986613
0.003922531
0.0038509605
0.0037831051
0.0037167266
0.0036511154
0.0035881052
0.0035263712
0.0034637459
0.0034011652
0.003340311
0.003280044
0.0032185222
0.0031571476
0.0030973757
0.0030385084
0.0029797265
0.0029224102
0.0028683626
0.0028179353
0.0027715228
0.0027312127
0.0026996842
0.0026788325
0.0026705615
0.0026790196
0.0027073641
0.0027564148
0.0028262698
0.0029162551
0.0030245515
0.0031479836
0.0032826574
0.0034236279
0.003564469
0.0036987877
0.0038164087
0.003904881
0.0039581074
0.0039735108
0.0039547461
0.0039092977
0.0038435574
0.0037643022
0.0036759166
0.0035823083
0.0034870887
0.0033914436
0.0032963647
0.0032025477
0.0031101851
0.0030188114
0.0029285584
0.0028393505
0.002750387
0.0026623292
0.0025741117
0.0024839009
0.0023922403
0.0022989797
0.0022050098
0.0021099027
0.0020125392
0.0019140357
0.001813411
0.0017113615
0.0016076742
0.0015024267
0.0013962376
0.0012886918
0.0011811093
0.0010731442
0.00096664775
0.0008609911
0.00076300334
0.00065928604
0.00060969372
0.0003680887
0.00096902012
-0.00082719843
0.028013258
0.025417008
0.021816868
0.017860686
0.014098506
0.010953417
0.0086647737
0.0072235875
0.0064032839
0.0059227127
0.0055901377
0.0053245408
0.0051022834
0.0049112621
0.0047444919
0.0045996299
0.0044725536
0.0043579884
0.0042543119
0.0041604366
0.0040732342
0.0039906432
0.003913149
0.0038400076
0.0037691733
0.0036997711
0.0036331038
0.0035680984
0.003502859
0.0034378451
0.0033747881
0.0033126901
0.0032495588
0.0031866978
0.0031255217
0.003065593
0.0030059837
0.0029478977
0.0028931021
0.0028420601
0.0027951974
0.0027544684
0.0027225818
0.002701288
0.002692425
0.0027000826
0.0027274153
0.0027751682
0.0028434152
0.002931616
0.0030380126
0.0031594359
0.0032920483
0.0034310669
0.0035701552
0.0037027974
0.00381893
0.0039065264
0.0039597064
0.0039752991
0.0039564873
0.003911397
0.0038464249
0.0037674359
0.0036793394
0.0035863733
0.0034917403
0.0033964436
0.0033015785
0.0032079481
0.0031157368
0.0030244033
0.0029341461
0.0028449058
0.0027558519
0.0026676746
0.0025793024
0.0024889456
0.0023971535
0.0023037329
0.0022096017
0.0021143207
0.0020167748
0.0019181004
0.0018173016
0.0017150871
0.0016112364
0.0015058314
0.0013994907
0.0012917968
0.0011840752
0.001075974
0.0009693466
0.00086356639
0.00076544275
0.00066164333
0.00061242939
0.0003787661
0.00099047853
-0.00081452053
0.026825969
0.024470067
0.021282818
0.01775752
0.014340491
0.011412514
0.0092037308
0.007732599
0.0068303537
0.0062660163
0.0058683146
0.0055555048
0.0052981056
0.0050806544
0.0048931796
0.0047308791
0.0045890476
0.0044623311
0.0043481775
0.0042450262
0.0041499459
0.0040607039
0.0039771984
0.0038986671
0.0038232358
0.0037499117
0.0036794942
0.0036111521
0.0035432079
0.003475836
0.0034104467
0.0033462444
0.0032814999
0.0032171625
0.0031545831
0.0030935841
0.0030331123
0.0029741665
0.0029185977
0.0028670357
0.0028197655
0.0027785691
0.0027462307
0.0027244713
0.0027150475
0.002721889
0.0027481292
0.00279444
0.0028608867
0.0029470545
0.0030512437
0.0031702826
0.0033004049
0.0034370169
0.0035738882
0.0037044177
0.0038187776
0.0039055068
0.0039585216
0.0039745802
0.0039567364
0.0039128353
0.0038487069
0.0037700232
0.0036824813
0.0035902217
0.003495692
0.0034003961
0.0033059062
0.0032126285
0.0031206023
0.003029359
0.0029392026
0.0028500278
0.0027609307
0.0026726961
0.0025842428
0.0024937937
0.0024019202
0.0023083913
0.002214146
0.0021187287
0.0020210354
0.0019222223
0.0018212747
0.0017189168
0.0016149197
0.0015093698
0.0014028871
0.0012950508
0.0011871936
0.0010789573
0.00097219756
0.00086629174
0.00076802358
0.00066414555
0.00061523285
0.00038992296
0.0010115312
-0.00079992255
0.025738266
0.023595769
0.020766891
0.017624402
0.014524422
0.011804933
0.0096852166
0.0082038689
0.0072385708
0.0066026214
0.0061458526
0.0057884586
0.0054969483
0.0052531567
0.0050448187
0.0048650225
0.0047083293
0.0045692381
0.0044444537
0.0043319223
0.0042288018
0.0041327295
0.0040431033
0.0039590774
0.0038789182
0.0038015344
0.0037273188
0.0036555814
0.0035848262
0.0035150138
0.0034472213
0.0033808622
0.003314459
0.0032486617
0.0031846683
0.0031224029
0.0030609764
0.0030012273
0.0029448834
0.0028927711
0.0028450666
0.0028033593
0.0027705789
0.0027483978
0.0027383972
0.0027443669
0.0027694384
0.0028142667
0.0028789024
0.0029629795
0.0030648349
0.0031813013
0.0033086928
0.0034425952
0.0035768872
0.0037049133
0.0038171143
0.0039026159
0.003955154
0.0039715668
0.0039547544
0.0039121669
0.003849164
0.0037716043
0.0036851971
0.003593658
0.0034992077
0.0034041292
0.0033100952
0.0032167408
0.0031245465
0.0030335102
0.0029435846
0.0028544935
0.0027654113
0.0026772299
0.0025887793
0.0024982803
0.0024063931
0.0023128224
0.0022185094
0.0021230018
0.0020252079
0.0019262971
0.0018252346
0.0017227652
0.0016186476
0.0015129744
0.0014063672
0.0012984019
0.0011904193
0.0010820544
0.00097516601
0.00086913668
0.00077071833
0.00066676847
0.00061805346
0.00040143118
0.0010316077
-0.00078323102
0.024739755
0.022787974
0.02027056
0.017466912
0.014656902
0.012136538
0.010112383
0.0086373668
0.0076261744
0.0069304901
0.0064210682
0.0060221685
0.0056979544
0.0054282459
0.0051990847
0.0050018276
0.0048302437
0.0046786255
0.0045430847
0.0044210855
0.0043097866
0.0042067194
0.004110863
0.0040212482
0.0039362418
0.0038546733
0.0037765979
0.0037013916
0.0036277201
0.0035553711
0.0034851421
0.0034165964
0.0033484605
0.0032811461
0.0032156959
0.0031521185
0.0030897054
0.0030291579
0.0029720456
0.00291924
0.0028710204
0.0028288325
0.002795596
0.002773008
0.0027623866
0.0027674172
0.0027913095
0.0028346711
0.0028974862
0.0029794158
0.0030788436
0.0031926623
0.0033172606
0.0034483482
0.0035798908
0.0037051999
0.0038149772
0.0038989346
0.0039506707
0.0039671707
0.0039513374
0.0039098304
0.0038479752
0.003771656
0.0036863568
0.0035956772
0.0035019423
0.003407585
0.0033139864
0.003220491
0.0031283181
0.0030375393
0.0029474391
0.0028581395
0.0027692023
0.0026811733
0.0025927307
0.0025022477
0.0024104561
0.0023169041
0.0022225607
0.0021270292
0.002029188
0.0019302194
0.0018290832
0.0017265421
0.0016223358
0.0015165692
0.0014098639
0.0013017908
0.0011937002
0.0010852198
0.00097821202
0.00087206617
0.00077349577
0.00066948492
0.00062083997
0.00041315247
0.0010500398
-0.00076429476
0.023821236
0.022040745
0.019794549
0.017290049
0.014744137
0.0124129
0.010488486
0.0090334626
0.0079917434
0.007247755
0.0066923222
0.0062553803
0.0059002261
0.0056053453
0.0053556114
0.0051410336
0.0049546095
0.0047903841
0.0046439955
0.0045124601
0.0043928704
0.0042826649
0.0041804757
0.0040851849
0.0039952209
0.0039093497
0.0038273448
0.0037485989
0.003671914
0.003596943
0.0035242384
0.0034534591
0.0033835099
0.0033146184
0.0032476784
0.0031827679
0.0031193261
0.0030579361
0.0030000253
0.0029464908
0.0028977235
0.0028550988
0.0028212852
0.0027981784
0.0027869965
0.0027910915
0.0028137733
0.0028556267
0.0029165698
0.0029962965
0.0030932585
0.0032044103
0.0033261858
0.0034543859
0.0035830657
0.0037055744
0.0038128498
0.0038951366
0.0039459167
0.0039623505
0.003947243
0.0039065829
0.0038457185
0.0037705011
0.003686237
0.003596478
0.0035035622
0.0034098655
0.0033167462
0.0032236163
0.0031319057
0.0030413433
0.0029510112
0.0028616919
0.0027728624
0.0026845876
0.0025959721
0.0025056453
0.0024139985
0.0023204732
0.0022261794
0.0021307203
0.0020328727
0.001933886
0.0018327294
0.0017301562
0.001625897
0.0015200749
0.0014133045
0.0013051507
0.0011969767
0.0010884004
0.00098128893
0.00087503901
0.00077631933
0.00067226331
0.00062354067
0.00042493504
0.0010660256
-0.00074300244
0.022974541
0.02134848
0.019338999
0.017098181
0.014791881
0.012639279
0.010816831
0.0093928874
0.0083342109
0.0075527523
0.0069580588
0.0064868538
0.0061028422
0.005783829
0.0055139849
0.0052823431
0.0050812138
0.0049043768
0.0047470918
0.0046059766
0.004478012
0.0043605486
0.0042519323
0.0041508851
0.0040558626
0.0039655785
0.0038795729
0.0037972206
0.0037174318
0.0036397553
0.0035645285
0.0034914666
0.003419631
0.003349107
0.0032806439
0.0032143685
0.0031498457
0.0030875666
0.0030288283
0.0029745457
0.0029252001
0.0028821008
0.0028477191
0.0028239792
0.0028121831
0.0028154047
0.0028368125
0.0028770837
0.0029361177
0.0030136089
0.0031080476
0.0032164932
0.0033354324
0.00346069
0.0035864475
0.0037061318
0.0038108759
0.0038914295
0.0039411731
0.0039574515
0.0039429694
0.0039030596
0.0038430885
0.0037687527
0.0036853893
0.0035964508
0.0035042795
0.0034111707
0.0033185632
0.003225878
0.0031345572
0.0030442361
0.0029541158
0.0028651287
0.002776325
0.0026877876
0.0025991961
0.0025088649
0.0024169652
0.0023234375
0.0022293352
0.0021339459
0.0020361252
0.0019372023
0.001836086
0.0017335137
0.0016292521
0.0015234167
0.001416615
0.001308412
0.0012001844
0.0010915368
0.00098434302
0.00087800688
0.00077914608
0.0006750664
0.0006261042
0.0004366122
0.0010786302
-0.0007193011
0.022192416
0.02070598
0.01890362
0.016895048
0.014805424
0.012820637
0.011100735
0.0097166809
0.0086528542
0.0078440378
0.0072168224
0.0067153731
0.0063048626
0.0059630259
0.0056737439
0.0054254231
0.0052098138
0.0050204392
0.0048522597
0.0047015511
0.0045651571
0.0044403417
0.0043252156
0.0042183398
0.0041181688
0.0040233712
0.0039332939
0.0038472709
0.0037642932
0.0036838293
0.0036060305
0.0035306389
0.0034568485
0.0033846358
0.0033146125
0.0032469369
0.0031812835
0.0031180721
0.0030584778
0.0030034207
0.0029534569
0.0029098388
0.0028748649
0.0028504557
0.0028379985
0.0028403212
0.0028604084
0.0028990423
0.0029561359
0.0030313534
0.0031232292
0.0032289298
0.0033449811
0.0034672389
0.0035900173
0.003706832
0.0038090289
0.0038878116
0.003936497
0.0039525928
0.0039386999
0.0038994995
0.0038403635
0.0037668658
0.003684377
0.0035960744
0.0035045362
0.0034119233
0.0033197424
0.0032274105
0.0031364206
0.0030463721
0.0029565179
0.0028677636
0.00277906
0.0026906763
0.0026023323
0.0025118776
0.0024197891
0.0023264215
0.0022322364
0.0021365764
0.0020388746
0.0019400984
0.0018390241
0.0017365174
0.001632333
0.0015265205
0.0014197237
0.0013115087
0.0012032577
0.0010945666
0.00098731551
0.00088091584
0.00078192723
0.00067785105
0.00062848079
0.00044800371
0.0010868606
-0.000693213
0.021468402
0.020108476
0.018487812
0.016683794
0.014789576
0.012961644
0.011343487
0.01000613
0.008947272
0.0081203951
0.0074672722
0.0069397613
0.0065053416
0.0061422309
0.0058343862
0.0055699063
0.0053401374
0.0051383803
0.0049593642
0.0047990836
0.0046542373
0.004522003
0.0044002994
0.0042875331
0.0041821357
0.0040827339
0.0039885161
0.0038987606
0.0038125143
0.0037291845
0.0036487625
0.0035709951
0.0034951844
0.0034212254
0.0033496029
0.0032804919
0.0032136604
0.0031494731
0.0030889912
0.0030331302
0.0029825081
0.0029383296
0.0029027338
0.002877628
0.0028644585
0.0028658369
0.0028845704
0.0029215311
0.0029766466
0.003049548
0.003138816
0.0032417161
0.0033548194
0.003474024
0.0035937751
0.0037076915
0.0038073399
0.0038842515
0.0039318789
0.003947781
0.0039344099
0.0038959069
0.0038375769
0.003765014
0.0036833918
0.0035956788
0.0035046233
0.0034125371
0.0033207193
0.0032285816
0.0031378144
0.0030479675
0.0029583103
0.0028697356
0.0027811688
0.0026929586
0.0026047344
0.0025143292
0.0024224628
0.0023293242
0.0022349377
0.0021391591
0.0020415458
0.00194261
0.0018414705
0.0017391466
0.0016350342
0.0015292823
0.0014225556
0.0013143738
0.0012061302
0.0010974308
0.00099014681
0.00088371188
0.00078461115
0.00068057026
0.0006306248
0.00045892111
0.0010898528
-0.00066484542
0.020796752
0.019551628
0.018090776
0.016467026
0.01474867
0.013066668
0.011548318
0.010262714
0.0092173593
0.0083808422
0.0077081984
0.0071588964
0.006703341
0.0063207155
0.0059953744
0.0057153928
0.0054718836
0.0052579815
0.0050682479
0.0048984569
0.004745169
0.0046054787
0.0044771481
0.0043584417
0.0042477524
0.004143667
0.0040452435
0.0039516969
0.0038621089
0.0037758385
0.0036927413
0.0036125519
0.0035346587
0.0034588961
0.0033856344
0.0033150524
0.0032469961
0.0031817879
0.0031203851
0.0030636894
0.0030123696
0.0029675883
0.0029313397
0.0029055041
0.0028915701
0.0028919603
0.0029093103
0.0029445592
0.0029976534
0.0030681956
0.0031548105
0.0032548582
0.0033649614
0.0034810646
0.0035977405
0.0037087196
0.0038057965
0.0038807721
0.0039273184
0.0039430011
0.0039301132
0.0038922942
0.0038347656
0.0037631361
0.0036823303
0.0035954031
0.0035046896
0.0034131932
0.0033216794
0.0032296927
0.0031390802
0.0030493232
0.0029597558
0.0028712804
0.0027827928
0.0026946987
0.0026065566
0.0025162599
0.0024245872
0.0023315672
0.0022372563
0.002141711
0.0020441113
0.0019450136
0.0018439642
0.0017415932
0.0016372533
0.0015316492
0.0014250367
0.0013169054
0.0012087279
0.0011000677
0.0009927778
0.00088634662
0.00078714753
0.00068317764
0.00063250082
0.00046917687
0.0010870808
-0.00063438767
0.020172342
0.019031514
0.017711594
0.016246878
0.014686564
0.013139766
0.011718369
0.010488061
0.0094632768
0.0086246307
0.0079385342
0.0073717253
0.0068979427
0.0064977381
0.0061561411
0.005861452
0.005604723
0.0053789975
0.0051787303
0.0049995355
0.0048378532
0.0046907012
0.0045557153
0.0044310337
0.0043150007
0.0042061645
0.0041034757
0.0040060838
0.003913087
0.003823806
0.0037379815
0.0036553248
0.0035752898
0.0034976672
0.0034227253
0.003350636
0.003281309
0.0032150345
0.0031526758
0.0030951138
0.0030430564
0.0029976287
0.0029606938
0.0029340929
0.0029193435
0.002918702
0.0029346363
0.0029681326
0.0030191617
0.0030873029
0.0031712203
0.0032683654
0.0033754173
0.0034883699
0.0036019208
0.0037099282
0.0038043616
0.0038774102
0.0039228363
0.0039382594
0.0039258012
0.0038886455
0.0038319366
0.0037612391
0.0036812395
0.003595106
0.0035048121
0.0034138478
0.0033226319
0.0032308721
0.0031403864
0.0030506604
0.0029611445
0.0028726875
0.0027841707
0.0026961014
0.0026079779
0.0025177449
0.0024262146
0.0023333019
0.0022391326
0.0021437324
0.0020461927
0.001947246
0.0018464165
0.00174389
0.0016394695
0.0015339424
0.0014271704
0.0013190489
0.0012110103
0.0011023827
0.00099514297
0.00088876512
0.00078948407
0.00068562849
0.0006340923
0.00047859831
0.0010784499
-0.00060211011
0.019590608
0.018544604
0.017349285
0.016025075
0.014606667
0.013184684
0.011856675
0.010683905
0.0096854186
0.0088512391
0.0081573652
0.0075772759
0.0070882602
0.0066725543
0.0063160969
0.0060076262
0.0057383001
0.0055011574
0.0052906082
0.0051021653
0.0049321747
0.0047775888
0.0046359433
0.0045052681
0.0043838548
0.0042702136
0.0041632072
0.0040619208
0.003965455
0.0038730984
0.0037844957
0.0036993271
0.0036170945
0.0035375569
0.0034608929
0.0033872594
0.0033166166
0.0032492304
0.0031858795
0.003127418
0.0030745826
0.0030284644
0.0029908073
0.0029634046
0.0029477891
0.0029460705
0.0029605547
0.002992258
0.0030411787
0.003106877
0.003188053
0.0032822457
0.0033861954
0.0034959482
0.003606326
0.003711328
0.0038030509
0.0038741763
0.00391844
0.0039335659
0.0039214755
0.0038849586
0.0038290783
0.0037593126
0.0036801403
0.0035947109
0.0035050452
0.0034145117
0.0033235872
0.0032320789
0.0031417206
0.0030520734
0.0029626253
0.0028741273
0.0027855277
0.0026974259
0.0026092278
0.0025189648
0.0024275017
0.002334653
0.002240595
0.002145298
0.0020478508
0.0019490519
0.0018483345
0.0017458775
0.0016416835
0.0015361517
0.0014292632
0.0013211989
0.001213071
0.0011043277
0.00099722805
0.00089087448
0.00079154854
0.00068786411
0.0006353837
0.00048704875
0.0010642574
-0.00056839042
0.019047478
0.018087733
0.017002853
0.015802998
0.014511961
0.013204855
0.011966141
0.010852047
0.0098843779
0.0090603616
0.008363935
0.0077746684
0.0072734505
0.0068444278
0.006474638
0.0061534349
0.0058722347
0.0056241655
0.0054036554
0.0052061726
0.0050280016
0.0048660448
0.0047177621
0.0045810939
0.0044542799
0.004335794
0.0042244267
0.0041192029
0.004019215
0.0039237237
0.0038322938
0.0037445701
0.0036600875
0.0035785815
0.0035001531
0.0034249383
0.0033529355
0.0032843921
0.0032200114
0.0031606162
0.0031069619
0.0030601083
0.0030216911
0.0029934484
0.0029769164
0.002974074
0.002987072
0.0030169423
0.0030637114
0.003126925
0.0032053158
0.0032965072
0.0033973043