/*--------------------------------*- C++ -*----------------------------------*\
| =========                 |                                                 |
| \\      /  F ield         | OpenFOAM: The Open Source CFD Toolbox           |
|  \\    /   O peration     | Version:  2206                                  |
|   \\  /    A nd           | Website:  www.openfoam.com                      |
|    \\/     M anipulation  |                                                 |
\*---------------------------------------------------------------------------*/
FoamFile
{
    version     2.0;
    format      ascii;
    arch        "LSB;label=32;scalar=64";
    class       surfaceScalarField;
    location    "1900";
    object      phi;
}
// * * * * * * * * * * * * * * * * * * * * * * * * * * * * * * * * * * * * * //

dimensions      [0 3 -1 0 0 0 0];

oriented        oriented;

internalField   nonuniform List<scalar> 
14782
(
0.00061767798
8.7779687e-05
-0.00070545767
0.00051028412
0.00010739386
0.00040011193
0.00011017218
0.00030664754
9.3464395e-05
0.00023997507
6.667247e-05
0.00019923606
4.0739007e-05
0.00017531941
2.3916654e-05
0.00016115015
1.4169261e-05
0.00015174043
9.4097152e-06
0.0001441721
7.5683328e-06
0.00013730153
6.8705691e-06
0.00013093947
6.3620617e-06
0.00012513142
5.8080443e-06
0.00011983958
5.2918421e-06
0.00011500117
4.8384107e-06
0.00011059513
4.406038e-06
0.0001065898
4.0053341e-06
0.0001029005
3.6893017e-06
9.9473518e-05
3.4269794e-06
9.6290226e-05
3.1832921e-06
9.3328853e-05
2.9613729e-06
9.0554674e-05
2.7741789e-06
8.7946389e-05
2.608285e-06
8.5494604e-05
2.4517851e-06
8.3186492e-05
2.308112e-06
8.1003447e-05
2.1830456e-06
7.8934487e-05
2.0689595e-06
7.6974838e-05
1.9596487e-06
7.5117176e-05
1.8576621e-06
7.3352037e-05
1.7651393e-06
7.1674284e-05
1.6777526e-06
7.0081565e-05
1.5927199e-06
6.8569685e-05
1.5118793e-06
6.7133941e-05
1.4357438e-06
6.5772128e-05
1.361813e-06
6.4483341e-05
1.2887879e-06
6.3265855e-05
1.2174853e-06
6.2118662e-05
1.1471936e-06
6.1042683e-05
1.0759791e-06
6.003966e-05
1.0030225e-06
5.9110804e-05
9.2885557e-07
5.8257789e-05
8.530153e-07
5.7483851e-05
7.7393778e-07
5.6792007e-05
6.9184411e-07
5.6185755e-05
6.0625176e-07
5.5676252e-05
5.0950352e-07
5.5273902e-05
4.0235022e-07
5.4980439e-05
2.9346274e-07
5.4795613e-05
1.8482583e-07
5.4718336e-05
7.7277027e-08
5.4744552e-05
-2.6216006e-08
5.4867432e-05
-1.2287979e-07
5.507477e-05
-2.0733793e-07
5.5346738e-05
-2.719686e-07
5.5670193e-05
-3.2345417e-07
5.6032357e-05
-3.6216415e-07
5.639991e-05
-3.6755347e-07
5.6734437e-05
-3.3452667e-07
5.7003398e-05
-2.6896151e-07
5.7190995e-05
-1.8759661e-07
5.7291376e-05
-1.0038064e-07
5.7309441e-05
-1.8065816e-08
5.7255513e-05
5.3928695e-08
5.714282e-05
1.1269299e-07
5.6984812e-05
1.5800812e-07
5.6793397e-05
1.9141481e-07
5.6579316e-05
2.1408119e-07
5.6350375e-05
2.2894037e-07
5.6112419e-05
2.3795639e-07
5.5869906e-05
2.4251337e-07
5.5626071e-05
2.4383409e-07
5.5382613e-05
2.4345806e-07
5.5141054e-05
2.4155923e-07
5.4902656e-05
2.383979e-07
5.4667318e-05
2.3533787e-07
5.443565e-05
2.3166819e-07
5.4204344e-05
2.31306e-07
5.3968946e-05
2.3539848e-07
5.3730753e-05
2.381924e-07
5.3491099e-05
2.3965428e-07
5.3250886e-05
2.4021323e-07
5.3010009e-05
2.4087703e-07
5.276722e-05
2.4278836e-07
5.2522703e-05
2.4451702e-07
5.2275858e-05
2.4684532e-07
5.2026946e-05
2.4891163e-07
5.1776043e-05
2.509034e-07
5.1523259e-05
2.5278381e-07
5.1269116e-05
2.541433e-07
5.1013471e-05
2.5564473e-07
5.0756905e-05
2.5656583e-07
5.0499273e-05
2.5763217e-07
5.0240737e-05
2.5853611e-07
4.9980992e-05
2.5974486e-07
4.9719195e-05
2.6179687e-07
4.9455232e-05
2.6396289e-07
4.9209941e-05
2.4529154e-07
4.8807292e-05
4.02649e-07
4.8816606e-05
-9.313621e-09
8.4008625e-07
0.00079173962
9.1057632e-05
-0.00079501756
0.00077876114
0.00012037234
0.00075192004
0.00013701328
0.00070876757
0.00013661687
0.00065522841
0.00012021163
0.0006011375
9.4829911e-05
0.00055304202
7.2012135e-05
0.00051310984
5.410144e-05
0.00048024773
4.2271832e-05
0.00045274978
3.506628e-05
0.00042912012
3.0500229e-05
0.00040845721
2.7024972e-05
0.00039014738
2.4117879e-05
0.00037370507
2.1734147e-05
0.00035878921
1.9754271e-05
0.0003451953
1.7999947e-05
0.00033274882
1.645182e-05
0.00032127412
1.5163997e-05
0.00031063678
1.4064322e-05
0.00030074601
1.3074059e-05
0.00029152387
1.2183521e-05
0.00028288868
1.1409368e-05
0.00027477813
1.0718828e-05
0.00026714638
1.0083538e-05
0.00025994992
9.5045693e-06
0.00025314508
8.9878934e-06
0.00024669904
8.5149912e-06
0.00024058917
8.0695192e-06
0.00023479299
7.6538428e-06
0.00022928723
7.2709057e-06
0.00022405504
6.9099407e-06
0.00021908503
6.5627274e-06
0.00021436545
6.2314628e-06
0.00020988482
5.9163748e-06
0.00020563573
5.6109e-06
0.000201614
5.3105209e-06
0.00019781593
5.0155579e-06
0.00019423985
4.7232704e-06
0.00019088798
4.4278446e-06
0.00018776526
4.1257429e-06
0.00018487721
3.8169095e-06
0.00018223104
3.4991836e-06
0.00017983713
3.167848e-06
0.00017770781
2.8211618e-06
0.00017585273
2.4613324e-06
0.00017430625
2.0559902e-06
0.00017308807
1.620522e-06
0.00017220083
1.1807053e-06
0.00017164746
7.3819373e-07
0.00017142006
3.046843e-07
0.00017150292
-1.0908101e-07
0.00017187189
-4.9184695e-07
0.00017248809
-8.2354387e-07
0.00017329651
-1.0803857e-06
0.00017424903
-1.2759728e-06
0.00017529088
-1.4040157e-06
0.00017632832
-1.4049977e-06
0.00017725455
-1.2607478e-06
0.00017799117
-1.0055818e-06
0.00017848775
-6.8417765e-07
0.00017873211
-3.4473898e-07
0.00017874267
-2.8633913e-08
0.00017854496
2.516464e-07
0.00017817674
4.8091341e-07
0.00017767669
6.5805288e-07
0.00017707932
7.8878521e-07
0.0001764147
8.7869997e-07
0.00017570579
9.3785015e-07
0.00017496993
9.7381986e-07
0.0001742202
9.9224269e-07
0.000173466
9.9803223e-07
0.00017271298
9.9648224e-07
0.00017196575
9.8878469e-07
0.00017122778
9.7637236e-07
0.00017049963
9.6348356e-07
0.00016978205
9.4924641e-07
0.00016906411
9.4924867e-07
0.00016833403
9.6548135e-07
0.00016759607
9.7615049e-07
0.00016685448
9.8124419e-07
0.00016611104
9.8365128e-07
0.00016536502
9.8689812e-07
0.00016461376
9.9404752e-07
0.00016385692
1.0013552e-06
0.00016309331
1.0104554e-06
0.00016232338
1.0188447e-06
0.00016154744
1.0268401e-06
0.00016076607
1.0341612e-06
0.00015998045
1.0397604e-06
0.00015919081
1.0452835e-06
0.00015839839
1.0489881e-06
0.00015760343
1.0525892e-06
0.00015680596
1.0560012e-06
0.00015600672
1.0589876e-06
0.00015519959
1.0689294e-06
0.00015439818
1.0653762e-06
0.0001535882
1.0552713e-06
0.00015257264
1.418209e-06
0.00015201697
5.4635065e-07
2.5234074e-06
0.00083153747
8.6587454e-05
-0.0008270673
0.00083705447
0.00011485535
0.00084158302
0.00013248472
0.00084048743
0.00013771246
0.00083137044
0.00012932862
0.00081408315
0.0001121172
0.00079123638
9.48589e-05
0.00076524401
8.0093816e-05
0.00073800451
6.9511336e-05
0.00071102834
6.2042449e-05
0.0006851554
5.6373165e-05
0.00066068275
5.1497627e-05
0.0006376181
4.7182528e-05
0.000615859
4.3493244e-05
0.00059534122
4.0272052e-05
0.00057603452
3.7306649e-05
0.00055787955
3.4606791e-05
0.00054078256
3.2260984e-05
0.00052465979
3.0187092e-05
0.00050944585
2.8287995e-05
0.00049507533
2.6554043e-05
0.00048147445
2.5010255e-05
0.00046858293
2.3610341e-05
0.00045635338
2.2313094e-05
0.0004447396
2.1118345e-05
0.00043369314
2.0034355e-05
0.00042317505
1.9033087e-05
0.00041315549
1.8089079e-05
0.00040360571
1.7203616e-05
0.00039449756
1.6379061e-05
0.00038580957
1.559793e-05
0.00037752596
1.4846342e-05
0.00036963172
1.4125698e-05
0.00036211331
1.3434787e-05
0.00035496191
1.2762303e-05
0.0003481729
1.2099525e-05
0.00034174357
1.144489e-05
0.00033567422
1.0792621e-05
0.00032996984
1.0132228e-05
0.00032463924
9.4563378e-06
0.00031969326
8.7628967e-06
0.00031514573
8.0467136e-06
0.00031101463
7.2989464e-06
0.00030732044
6.5153455e-06
0.00030408608
5.6956978e-06
0.00030134917
4.7928939e-06
0.00029913453
3.8351679e-06
0.00029744588
2.869353e-06
0.00029627801
1.9060633e-06
0.00029561369
9.6899971e-07
0.0002954227
8.1917493e-08
0.00029566212
-7.3127348e-07
0.00029627036
-1.4317803e-06
0.00029716663
-1.9766557e-06
0.00029827277
-2.3821123e-06
0.00029949383
-2.6250755e-06
0.00030069178
-2.6029462e-06
0.00030172149
-2.2904574e-06
0.00030247758
-1.7616772e-06
0.0003028994
-1.1059918e-06
0.00030297571
-4.2105698e-07
0.00030272845
2.1862563e-07
0.00030219443
7.8567387e-07
0.00030142697
1.24837e-06
0.00030047911
1.6059122e-06
0.00029939838
1.8695121e-06
0.00029822608
2.0510026e-06
0.0002969946
2.1693287e-06
0.00029572878
2.2396382e-06
0.00029444742
2.2736039e-06
0.00029316399
2.2814641e-06
0.0002918871
2.2733748e-06
0.00029062364
2.2522427e-06
0.00028937852
2.2214924e-06
0.000288153
2.1890043e-06
0.00028694722
2.1550232e-06
0.0002857439
2.1525681e-06
0.00028452812
2.181266e-06
0.00028330755
2.1967204e-06
0.00028208678
2.2020114e-06
0.00028086648
2.2039567e-06
0.00027964473
2.2086495e-06
0.00027841785
2.2209274e-06
0.00027718449
2.2347151e-06
0.00027594292
2.2520213e-06
0.00027469331
2.268452e-06
0.00027343596
2.2841908e-06
0.00027217161
2.2985083e-06
0.00027090172
2.3096592e-06
0.00026962681
2.3201842e-06
0.00026834835
2.327451e-06
0.00026706704
2.333905e-06
0.00026578261
2.3404273e-06
0.00026449693
2.3446631e-06
0.00026319916
2.3666993e-06
0.00026191508
2.3494576e-06
0.00026058564
2.3847183e-06
0.0002591016
2.9022454e-06
0.00025782954
1.8184075e-06
4.6006831e-06
0.00086132639
8.225882e-05
-0.00085699775
0.00086786223
0.00010831951
0.00087515259
0.00012519436
0.00088217857
0.00013068648
0.00088608601
0.00012542118
0.0008850721
0.00011313111
0.00088098635
9.8944648e-05
0.00087426156
8.6818609e-05
0.00086517499
7.8597905e-05
0.00085397054
7.3246896e-05
0.00084097829
6.9365425e-05
0.00082639908
6.6076837e-05
0.00081059764
6.2983967e-05
0.0007941636
5.992728e-05
0.00077743678
5.6998877e-05
0.00076064203
5.4101394e-05
0.00074391783
5.1330993e-05
0.00072735225
4.8826568e-05
0.00071103047
4.650887e-05
0.0006950312
4.4287268e-05
0.00067940955
4.2175693e-05
0.0006641925
4.0227304e-05
0.00064940168
3.8401161e-05
0.0006350554
3.6659371e-05
0.00062116251
3.5011236e-05
0.00060771964
3.3477223e-05
0.00059472367
3.2029053e-05
0.00058217252
3.0640233e-05
0.00057005978
2.9316362e-05
0.00055837587
2.8062963e-05
0.0005471144
2.6859401e-05
0.00053627153
2.5689216e-05
0.00052584252
2.4554702e-05
0.00051582322
2.3454087e-05
0.00050621355
2.2371979e-05
0.00049701741
2.1295668e-05
0.00048823974
2.0222553e-05
0.00047988692
1.9145439e-05
0.000471969
1.8050148e-05
0.0004644997
1.6925643e-05
0.00045749512
1.5767473e-05
0.0004509748
1.4567038e-05
0.00044496212
1.3311622e-05
0.00043948341
1.1994055e-05
0.00043457001
1.0609106e-05
0.00043025141
9.1114888e-06
0.00042654125
7.5453285e-06
0.00042343649
5.9741077e-06
0.00042092306
4.4194997e-06
0.00041897818
2.9138728e-06
0.00041756795
1.4921512e-06
0.00041664305
1.9363007e-07
0.00041613289
-9.2162287e-07
0.00041595416
-1.7979272e-06
0.00041602067
-2.4486184e-06
0.00041621477
-2.8191789e-06
0.00041638464
-2.7728183e-06
0.00041639394
-2.2997586e-06
0.00041615582
-1.5235555e-06
0.00041562545
-5.756218e-07
0.00041479774
4.066598e-07
0.00041369417
1.3221931e-06
0.00041234962
2.1302266e-06
0.00041081027
2.787718e-06
0.00040912173
3.2944502e-06
0.0004073258
3.665438e-06
0.00040545984
3.9169619e-06
0.00040355413
4.0750442e-06
0.00040163252
4.1612519e-06
0.00039971336
4.1927631e-06
0.00039780984
4.1849766e-06
0.00039593082
4.1523959e-06
0.00039408356
4.0995095e-06
0.0003922729
4.0321476e-06
0.0003904999
3.9620068e-06
0.00038876327
3.8916497e-06
0.00038705765
3.8581912e-06
0.0003853756
3.8633145e-06
0.00038371241
3.8599121e-06
0.00038206408
3.850343e-06
0.00038042768
3.8403537e-06
0.00037879967
3.8366553e-06
0.0003771753
3.8452971e-06
0.00037555193
3.858089e-06
0.00037392691
3.877045e-06
0.00037229948
3.8958761e-06
0.00037066929
3.9143803e-06
0.00036903656
3.9312364e-06
0.00036740228
3.9439447e-06
0.00036576671
3.9557537e-06
0.00036413089
3.9632659e-06
0.0003624955
3.9693026e-06
0.00036085969
3.9762365e-06
0.00035922585
3.9784978e-06
0.00035757985
4.0126978e-06
0.00035595383
3.9754859e-06
0.00035426496
4.0735848e-06
0.00035247048
4.696723e-06
0.00035066419
3.6247016e-06
6.8253346e-06
0.00089161415
7.8535346e-05
-0.00088789067
0.00089764651
0.00010228714
0.00090485298
0.00011798789
0.00091175852
0.00012378094
0.0009169247
0.00012025501
0.00091985406
0.00011020176
0.00092049568
9.8303019e-05
0.00091935199
8.79623e-05
0.00091746492
8.0484974e-05
0.00091491345
7.5798372e-05
0.00091162356
7.2655317e-05
0.00090737526
7.0325131e-05
0.00090192349
6.843574e-05
0.00089520767
6.6643103e-05
0.0008873012
6.4905348e-05
0.00087822535
6.3177245e-05
0.00086813045
6.1425886e-05
0.00085730493
5.965209e-05
0.00084591187
5.7901933e-05
0.00083407215
5.6126983e-05
0.00082188412
5.4363722e-05
0.00080942611
5.2685318e-05
0.0007967759
5.1051375e-05
0.00078401231
4.942296e-05
0.00077120445
4.7819095e-05
0.0007584083
4.6273372e-05
0.00074567664
4.4760715e-05
0.00073305692
4.3259952e-05
0.00072058693
4.1786345e-05
0.00070829695
4.0352945e-05
0.00069621591
3.8940447e-05
0.00068437095
3.7534173e-05
0.00067278507
3.6140585e-05
0.00066147938
3.4759777e-05
0.00065047756
3.3373792e-05
0.00063980567
3.1967565e-05
0.00062948429
3.0543928e-05
0.00061952955
2.9100186e-05
0.00060996078
2.7618911e-05
0.00060080099
2.6085436e-05
0.00059207513
2.4493331e-05
0.00058381086
2.2831311e-05
0.00057603856
2.1083917e-05
0.00056879405
1.9238571e-05
0.00056211091
1.7292246e-05
0.00055599761
1.5224781e-05
0.00055044944
1.3093501e-05
0.00054546264
1.0960909e-05
0.00054103013
8.8520118e-06
0.00053713845
6.8055467e-06
0.00053376412
4.8664843e-06
0.00053086656
3.091187e-06
0.00052838275
1.5621882e-06
0.00052624868
3.3614067e-07
0.00052437294
-5.7287488e-07
0.00052260917
-1.0554118e-06
0.00052082277
-9.8641498e-07
0.00051893675
-4.1373493e-07
0.00051691833
4.9486439e-07
0.00051475383
1.588874e-06
0.00051244761
2.7128777e-06
0.0005100133
3.7565016e-06
0.00050746891
4.6746232e-06
0.00050483936
5.417262e-06
0.00050214991
5.9839067e-06
0.00049942497
6.3903717e-06
0.00049668798
6.6539554e-06
0.00049395883
6.8041917e-06
0.00049125397
6.8661134e-06
0.00048858639
6.860339e-06
0.00048596546
6.8059124e-06
0.00048339791
6.7199456e-06
0.00048088956
6.6078625e-06
0.0004784436
6.4781046e-06
0.00047605972
6.3458852e-06
0.00047373507
6.2162961e-06
0.00047147082
6.1224505e-06
0.00046926535
6.0687824e-06
0.00046710819
6.0170725e-06
0.00046498925
5.9692807e-06
0.00046290203
5.9275718e-06
0.00046084109
5.8975943e-06
0.00045880047
5.8859208e-06
0.00045677615
5.8824055e-06
0.00045476432
5.8888766e-06
0.00045276294
5.8972556e-06
0.00045077052
5.9068026e-06
0.00044878624
5.9155142e-06
0.0004468101
5.9200822e-06
0.00044484159
5.9242678e-06
0.00044288092
5.9239335e-06
0.00044092823
5.9219922e-06
0.00043898182
5.922653e-06
0.00043704396
5.9163495e-06
0.00043509822
5.9584369e-06
0.00043317902
5.8946882e-06
0.00043119316
6.0594436e-06
0.00042914207
6.7478169e-06
0.00042690563
5.8611443e-06
9.1465742e-06
0.00092300487
7.5205765e-05
-0.00091967529
0.00092852361
9.6768398e-05
0.00093509633
0.00011141517
0.0009415154
0.00011736187
0.0009466652
0.0001151052
0.00094990967
0.00010695729
0.00095149868
9.6714009e-05
0.0009518736
8.7587376e-05
0.00095153493
8.0823651e-05
0.00095102352
7.6309783e-05
0.00095037602
7.3302809e-05
0.00094952651
7.1174646e-05
0.0009483758
6.9586443e-05
0.00094679737
6.8221535e-05
0.00094471448
6.6988245e-05
0.00094199099
6.5900733e-05
0.00093848597
6.4930904e-05
0.00093415811
6.3979947e-05
0.0009290135
6.3046541e-05
0.00092303145
6.2109041e-05
0.0009162654
6.1129764e-05
0.00090884279
6.0107931e-05
0.00090083954
5.9054626e-05
0.00089231447
5.7948033e-05
0.00088331989
5.6813676e-05
0.0008739083
5.5684959e-05
0.00086413623
5.4532787e-05
0.0008540579
5.3338274e-05
0.0008437259
5.2118346e-05
0.00083319175
5.08871e-05
0.00082250795
4.9624246e-05
0.00081172557
4.8316557e-05
0.00080089089
4.697526e-05
0.00079004681
4.5603861e-05
0.00077923613
4.4184473e-05
0.00076850176
4.2701929e-05
0.00075788567
4.1160018e-05
0.00074742948
3.9556378e-05
0.0007371748
3.7873589e-05
0.00072716309
3.6097151e-05
0.00071743531
3.4221107e-05
0.00070803386
3.2232762e-05
0.00069900336
3.0114417e-05
0.00069040074
2.7841187e-05
0.00068223669
2.5456303e-05
0.00067448569
2.2975782e-05
0.00066716939
2.0409793e-05
0.00066032158
1.7808726e-05
0.00065395983
1.5213754e-05
0.00064808407
1.2681306e-05
0.00064267639
1.027417e-05
0.00063769795
8.0696281e-06
0.00063309826
6.1618753e-06
0.00062884933
4.5850707e-06
0.0006248218
3.4546545e-06
0.00062082535
2.9410411e-06
0.0006168079
3.0310336e-06
0.00061279363
3.6005381e-06
0.00060880035
4.4881453e-06
0.00060483106
5.5581634e-06
0.00060088989
6.6540404e-06
0.00059697868
7.6677139e-06
0.00059309764
8.5556615e-06
0.00058925196
9.2629471e-06
0.00058544799
9.787871e-06
0.00058169306
1.0145302e-05
0.00057799574
1.0351282e-05
0.00057436403
1.0435896e-05
0.00057080527
1.0424872e-05
0.00056732578
1.0339829e-05
0.00056393069
1.0201011e-05
0.00056062311
1.0027523e-05
0.00055740514
9.8258338e-06
0.00055427734
9.6058975e-06
0.00055123756
9.3856686e-06
0.00054828177
9.1720861e-06
0.00054540822
8.9959981e-06
0.00054261547
8.8615312e-06
0.00053989664
8.7359119e-06
0.0005372417
8.6242188e-06
0.0005346425
8.5267643e-06
0.00053209214
8.4479538e-06
0.00052958356
8.3945057e-06
0.00052711152
8.3544418e-06
0.00052467103
8.3293666e-06
0.00052225871
8.3095779e-06
0.00051987175
8.2937673e-06
0.00051750804
8.2792159e-06
0.00051516634
8.2617837e-06
0.00051284522
8.2453957e-06
0.00051054389
8.2252595e-06
0.00050826142
8.2044633e-06
0.00050599497
8.1891054e-06
0.00050374622
8.165094e-06
0.00050149715
8.2075039e-06
0.00049928188
8.1099589e-06
0.00049700301
8.3383211e-06
0.00049469324
9.0575877e-06
0.00049206403
8.490347e-06
1.1596176e-05
0.00095538111
7.2206903e-05
-0.00095238225
0.00096046523
9.168428e-05
0.00096653465
0.00010534575
0.00097250432
0.0001113922
0.00097738725
0.00011022228
0.00098063472
0.00010370982
0.00098238808
9.496065e-05
0.00098314852
8.6826939e-05
0.00098335948
8.061269e-05
0.0009833452
7.6324056e-05
0.00098325646
7.3391555e-05
0.00098314184
7.128927e-05
0.00098299753
6.9730752e-05
0.0009827596
6.8459461e-05
0.00098238257
6.7365271e-05
0.00098182861
6.6454699e-05
0.00098104777
6.5711745e-05
0.00097997709
6.505062e-05
0.00097856621
6.4457422e-05
0.00097672848
6.3946774e-05
0.00097437104
6.3487201e-05
0.00097145244
6.3026539e-05
0.00096795134
6.2555724e-05
0.00096383589
6.206348e-05
0.00095912071
6.1528858e-05
0.00095385643
6.0949236e-05
0.00094807125
6.0317972e-05
0.00094179003
5.9619485e-05
0.00093503579
5.8872591e-05
0.00092783453
5.808836e-05
0.00092021943
5.7239343e-05
0.00091222649
5.6309505e-05
0.00090388722
5.5314531e-05
0.00089523367
5.4257408e-05
0.00088630417
5.3113968e-05
0.00087713821
5.1867895e-05
0.0008677778
5.0520428e-05
0.00085827008
4.90641e-05
0.00084866458
4.7479086e-05
0.00083901194
4.574979e-05
0.00082936366
4.3869385e-05
0.00081977337
4.1823056e-05
0.00081029814
3.9589645e-05
0.00080099781
3.7141512e-05
0.00079192463
3.4529491e-05
0.00078309915
3.1801263e-05
0.00077453791
2.8971029e-05
0.00076627432
2.6072316e-05
0.00075833853
2.3149545e-05
0.00075075018
2.0269651e-05
0.00074351351
1.7510847e-05
0.00073661376
1.4969377e-05
0.00073003636
1.2739275e-05
0.00072378813
1.0833296e-05
0.00071778765
9.4551333e-06
0.00071189592
8.8327766e-06
0.00070607371
8.8532401e-06
0.00070034068
9.3335704e-06
0.00069470884
1.0119989e-05
0.0006891833
1.1083701e-05
0.00068377417
1.2063168e-05
0.00067848356
1.2958327e-05
0.00067330808
1.373114e-05
0.00066824865
1.4322374e-05
0.00066330613
1.4730394e-05
0.00065848017
1.4971263e-05
0.00065377128
1.5060167e-05
0.00064918045
1.5026732e-05
0.00064470881
1.4896506e-05
0.00064035749
1.469115e-05
0.00063612801
1.443049e-05
0.0006320205
1.4135034e-05
0.00062803395
1.3812387e-05
0.0006241665
1.3473347e-05
0.00062041411
1.3138058e-05
0.00061677175
1.2814448e-05
0.00061323511
1.2532631e-05
0.00060980111
1.2295533e-05
0.00060646497
1.2072054e-05
0.00060321842
1.1870771e-05
0.00060005342
1.1691767e-05
0.00059696244
1.1538924e-05
0.00059393769
1.1419256e-05
0.00059097296
1.1319174e-05
0.00058806218
1.1240151e-05
0.00058520068
1.1171072e-05
0.00058238432
1.1110129e-05
0.00057960963
1.1053912e-05
0.00057687395
1.0997462e-05
0.00057417469
1.0944651e-05
0.00057150989
1.0890059e-05
0.00056887737
1.0836989e-05
0.00056627305
1.0793418e-05
0.00056369773
1.0740422e-05
0.0005611321
1.0773126e-05
0.00055860883
1.0633229e-05
0.00055602824
1.0918915e-05
0.00055344808
1.1637752e-05
0.00055044145
1.1496973e-05
1.4204941e-05
0.00098878356
6.9477698e-05
-0.00098605435
0.00099346132
8.7006517e-05
0.00099909189
9.9715182e-05
0.0010046737
0.00010581042
0.001009331
0.00010556491
0.0010125557
0.00010048517
0.0010144053
9.3111077e-05
0.0010153047
8.5927464e-05
0.0010156914
8.0226064e-05
0.0010158643
7.6151147e-05
0.0010159629
7.3292969e-05
0.0010160332
7.1218961e-05
0.0010161025
6.9661402e-05
0.0010161569
6.840506e-05
0.0010161685
6.7353743e-05
0.0010161329
6.6490299e-05
0.0010160463
6.5798276e-05
0.0010158827
6.5214289e-05
0.0010156209
6.4719197e-05
0.0010152367
6.433096e-05
0.0010146947
6.402918e-05
0.0010139539
6.3767349e-05
0.0010129741
6.3535485e-05
0.0010116942
6.3343375e-05
0.0010100514
6.3171721e-05
0.0010080081
6.2992537e-05
0.0010055326
6.279346e-05
0.0010025941
6.2557952e-05
0.00099919222
6.2274498e-05
0.00099534072
6.1939866e-05
0.00099104187
6.1538193e-05
0.00098629726
6.1054116e-05
0.00098111161
6.0500177e-05
0.00097549383
5.9875186e-05
0.00096945591
5.9151895e-05
0.00096301196
5.8311845e-05
0.00095617751
5.7354877e-05
0.00094896911
5.6272499e-05
0.00094140544
5.5042755e-05
0.00093351195
5.3643278e-05
0.00092531999
5.2061344e-05
0.00091686518
5.0277869e-05
0.00090818986
4.8264959e-05
0.00089933224
4.5999134e-05
0.00089037476
4.3486975e-05
0.00088140971
4.0766314e-05
0.00087247042
3.7910319e-05
0.00086358003
3.49627e-05
0.00085477158
3.1957994e-05
0.00084608442
2.8956812e-05
0.000837559
2.6036273e-05
0.00082923222
2.329615e-05
0.00082113263
2.0838873e-05
0.00081326793
1.8697991e-05
0.00080568163
1.7041432e-05
0.00079835567
1.6158742e-05
0.00079120929
1.599962e-05
0.00078420764
1.6335221e-05
0.00077731642
1.7011202e-05
0.00077053664
1.7863483e-05
0.00076388664
1.8713169e-05
0.00075737126
1.9473704e-05
0.00075099352
2.0108884e-05
0.00074476463
2.0551266e-05
0.00073869107
2.0803946e-05
0.00073277332
2.0889021e-05
0.00072701249
2.0820998e-05
0.00072140964
2.0629578e-05
0.00071596416
2.0341982e-05
0.00071067475
1.9980561e-05
0.00070554101
1.9564234e-05
0.00070056183
1.9114212e-05
0.00069573506
1.8639162e-05
0.00069105733
1.8151069e-05
0.00068652314
1.767225e-05
0.0006821266
1.7210987e-05
0.00067786203
1.6797203e-05
0.00067372477
1.6432797e-05
0.00066971047
1.6086352e-05
0.00066581225
1.5768988e-05
0.00066202291
1.5481111e-05
0.00065833499
1.5226846e-05
0.00065474027
1.5013968e-05
0.00065123182
1.4827631e-05
0.00064780258
1.4669388e-05
0.0006444467
1.4526955e-05
0.00064115867
1.4398152e-05
0.00063793363
1.427896e-05
0.00063476744
1.4163642e-05
0.00063165608
1.405602e-05
0.00062859615
1.394999e-05
0.00062558421
1.384892e-05
0.00062261496
1.376267e-05
0.00061968803
1.3667356e-05
0.00061678297
1.3678184e-05
0.0006139305
1.3485699e-05
0.0006110288
1.3820618e-05
0.00060815771
1.4508845e-05
0.00060476862
1.4886059e-05
1.7003709e-05
0.0010232492
6.6962504e-05
-0.001020734
0.0010275462
8.2709569e-05
0.0010327629
9.449847e-05
0.0010379845
0.00010058884
0.0010424359
0.00010111352
0.0010456401
9.7280938e-05
0.0010475904
9.1160754e-05
0.001048626
8.48919e-05
0.0010491365
7.9715507e-05
0.0010494062
7.5881426e-05
0.001049584
7.3115206e-05
0.0010497308
7.1072187e-05
0.0010498715
6.9520639e-05
0.0010499976
6.8278978e-05
0.0010501011
6.725028e-05
0.0010501842
6.6407222e-05
0.0010502569
6.5725511e-05
0.0010503104
6.5160827e-05
0.0010503273
6.4702294e-05
0.0010503096
6.4348627e-05
0.0010502544
6.4084408e-05
0.001050145
6.3876743e-05
0.001049966
6.3714445e-05
0.0010496989
6.3610549e-05
0.001049318
6.3552549e-05
0.0010487946
6.3515956e-05
0.0010480966
6.3491527e-05
0.0010471783
6.3476174e-05
0.0010459949
6.3457938e-05
0.0010445154
6.341941e-05
0.0010427055
6.3348081e-05
0.0010405349
6.3224681e-05
0.0010379966
6.3038461e-05
0.0010350871
6.2784702e-05
0.0010317955
6.2443487e-05
0.0010281099
6.1997426e-05
0.0010240191
6.1445672e-05
0.0010195158
6.0775875e-05
0.0010145959
5.9962626e-05
0.0010092554
5.8983752e-05
0.0010034896
5.7827203e-05
0.00099729433
5.6473094e-05
0.00099066901
5.4890278e-05
0.00098360956
5.3058586e-05
0.00097612764
5.0968898e-05
0.00096828158
4.8612365e-05
0.0009601405
4.6051403e-05
0.00095175096
4.3352236e-05
0.00094315416
4.05548e-05
0.00093439632
3.7714648e-05
0.00092553335
3.4899249e-05
0.00091663232
3.2197179e-05
0.00090775628
2.9714909e-05
0.00089893139
2.752288e-05
0.00089025782
2.5714998e-05
0.00088187482
2.4541747e-05
0.00087377856
2.4095876e-05
0.00086584306
2.4270722e-05
0.00085798706
2.4867204e-05
0.00085023106
2.5619482e-05
0.00084258144
2.6362793e-05
0.00083503303
2.7022113e-05
0.00082760273
2.7539183e-05
0.00082031583
2.7838163e-05
0.00081318302
2.793676e-05
0.00080621004
2.7862003e-05
0.00079940761
2.7623428e-05
0.00079278265
2.7254538e-05
0.00078633628
2.6788348e-05
0.00078006935
2.624749e-05
0.00077398367
2.5649918e-05
0.00076807893
2.5018947e-05
0.00076235325
2.4364848e-05
0.0007568035
2.3700812e-05
0.00075142407
2.3051681e-05
0.00074620919
2.2425872e-05
0.00074115326
2.1853131e-05
0.00073625113
2.1334921e-05
0.00073149841
2.0839078e-05
0.00072688904
2.037836e-05
0.0007224168
1.9953353e-05
0.00071807471
1.9568931e-05
0.00071385454
1.9234141e-05
0.00070974887
1.8933303e-05
0.00070574987
1.8668384e-05
0.00070185062
1.8426206e-05
0.00069804438
1.8204391e-05
0.00069432489
1.7998452e-05
0.00069068657
1.7801959e-05
0.00068712385
1.761874e-05
0.00068363184
1.7442002e-05
0.00068020572
1.727504e-05
0.00067683885
1.7129544e-05
0.00067352958
1.6976619e-05
0.0006702563
1.6951468e-05
0.00066704765
1.6694351e-05
0.00066379919
1.7069074e-05
0.00066061124
1.7696791e-05
0.00065682189
1.867541e-05
2.0023139e-05
0.0010588074
6.462164e-05
-0.0010564665
0.0010627532
7.8763791e-05
0.0010675808
8.9670873e-05
0.0010724639
9.570568e-05
0.0010767114
9.686605e-05
0.0010798809
9.4111446e-05
0.001081919
8.9122634e-05
0.001083089
8.372191e-05
0.001083729
7.9075488e-05
0.0010840993
7.5511177e-05
0.0010843478
7.28667e-05
0.0010845439
7.0876028e-05
0.00108472
6.9344601e-05
0.0010848788
6.8120121e-05
0.0010850188
6.7110288e-05
0.0010851438
6.6282243e-05
0.0010852572
6.5612113e-05
0.0010853551
6.5062955e-05
0.0010854379
6.4619519e-05
0.0010855086
6.4277871e-05
0.0010855723
6.4020731e-05
0.0010856246
6.3824442e-05
0.0010856509
6.3688114e-05
0.0010856498
6.3611619e-05
0.0010856207
6.3581664e-05
0.0010855521
6.3584545e-05
0.0010854332
6.3610489e-05
0.0010852488
6.366051e-05
0.0010849792
6.3727633e-05
0.0010846028
6.3795712e-05
0.0010840935
6.3857402e-05
0.001083416
6.3902198e-05
0.0010825364
6.3918063e-05
0.0010814291
6.389201e-05
0.0010800607
6.3811845e-05
0.0010784041
6.3654087e-05
0.0010764467
6.3403042e-05
0.0010741715
6.3051106e-05
0.0010715599
6.2574165e-05
0.0010685915
6.195222e-05
0.0010652432
6.1175488e-05
0.0010614906
6.0225702e-05
0.0010573075
5.9073324e-05
0.0010526646
5.7701519e-05
0.0010475258
5.6107744e-05
0.0010418681
5.4270039e-05
0.0010357006
5.2218932e-05
0.0010290418
5.0010978e-05
0.0010219092
4.7687454e-05
0.0010143264
4.5297432e-05
0.0010063288
4.2896814e-05
0.00099796831
4.0557674e-05
0.00098931307
3.837015e-05
0.00098042471
3.641124e-05
0.00097139551
3.4744195e-05
0.00096241882
3.3518444e-05
0.00095363243
3.2882262e-05
0.00094504013
3.2863021e-05
0.00093661469
3.3292652e-05
0.0009282961
3.3938064e-05
0.00092000624
3.4652654e-05
0.00091173763
3.5290722e-05
0.0009035407
3.5736115e-05
0.00089543642
3.5942441e-05
0.00088743099
3.5942197e-05
0.00087954833
3.574466e-05
0.00087181535
3.5356408e-05
0.00086424398
3.482591e-05
0.00085684104
3.4191287e-05
0.00084961737
3.3471164e-05
0.00084258162
3.2685661e-05
0.00083573652
3.1864045e-05
0.00082908352
3.1017857e-05
0.00082262315
3.0161179e-05
0.00081635229
2.9322535e-05
0.0008102676
2.8510562e-05
0.00080436592
2.7754815e-05
0.00079864328
2.7057565e-05
0.00079309584
2.6386514e-05
0.00078771859
2.5755611e-05
0.00078250649
2.5165455e-05
0.00077745338
2.4622035e-05
0.00077255148
2.4136046e-05
0.00076779335
2.3691428e-05
0.0007631707
2.3291038e-05
0.00075867582
2.2921087e-05
0.00075430097
2.2579242e-05
0.00075003866
2.2260759e-05
0.00074588197
2.1958654e-05
0.00074182383
2.1676873e-05
0.00073785786
2.1407973e-05
0.00073397778
2.1155122e-05
0.00073017557
2.0931755e-05
0.00072644822
2.0703968e-05
0.00072277285
2.0626835e-05
0.00071917608
2.0291123e-05
0.00071555028
2.0694874e-05
0.00071201518
2.1231897e-05
0.00070779857
2.2892021e-05
2.3294344e-05
0.001095492
6.2426943e-05
-0.0010932973
0.0010991189
7.5136916e-05
0.0011035833
8.5206436e-05
0.0011081485
9.1140474e-05
0.0011121943
9.2820291e-05
0.0011153135
9.0992258e-05
0.0011174197
8.7016342e-05
0.0011187103
8.2431389e-05
0.0011194742
7.8311606e-05
0.0011199475
7.5037855e-05
0.0011202735
7.2540677e-05
0.0011205253
7.062418e-05
0.00112074
6.9129989e-05
0.001120928
6.7932119e-05
0.001121092
6.6946265e-05
0.0011212377
6.6136529e-05
0.0011213701
6.5479759e-05
0.0011214891
6.4943909e-05
0.0011215968
6.451186e-05
0.0011216966
6.4178024e-05
0.0011217898
6.3927584e-05
0.0011218736
6.3740584e-05
0.0011219484
6.3613326e-05
0.0011220159
6.3544132e-05
0.0011220755
6.3522052e-05
0.0011221305
6.3529564e-05
0.0011221703
6.3570717e-05
0.001122185
6.3645728e-05
0.0011221778
6.3734889e-05
0.0011221405
6.3832969e-05
0.0011220649
6.3933011e-05
0.001121939
6.4028131e-05
0.0011217462
6.4110889e-05
0.0011214702
6.416799e-05
0.0011210884
6.4193592e-05
0.0011205726
6.416996e-05
0.0011198966
6.4078998e-05
0.0011190367
6.3911015e-05
0.0011179616
6.364922e-05
0.0011166458
6.3268079e-05
0.0011150718
6.2749426e-05
0.0011132132
6.2084304e-05
0.0011110393
6.12473e-05
0.001108516
6.0224818e-05
0.0011056041
5.901964e-05
0.0011022553
5.7618836e-05
0.0010984269
5.604728e-05
0.0010940857
5.4352188e-05
0.0010892002
5.2572999e-05
0.0010837442
5.0753399e-05