/*--------------------------------*- C++ -*----------------------------------*\
| =========                 |                                                 |
| \\      /  F ield         | OpenFOAM: The Open Source CFD Toolbox           |
|  \\    /   O peration     | Version:  2206                                  |
|   \\  /    A nd           | Website:  www.openfoam.com                      |
|    \\/     M anipulation  |                                                 |
\*---------------------------------------------------------------------------*/
FoamFile
{
    version     2.0;
    format      ascii;
    arch        "LSB;label=32;scalar=64";
    class       volVectorField;
    location    "1900";
    object      U;
}
// * * * * * * * * * * * * * * * * * * * * * * * * * * * * * * * * * * * * * //

dimensions      [0 1 -1 0 0 0 0];

internalField   nonuniform List<vector> 
7480
(
(0.82753656 0.011159899 0)
(0.70298576 0.020207383 0)
(0.56653422 0.021423342 0)
(0.43051522 0.014557641 0)
(0.33052836 0.0062880788 0)
(0.2665572 0.0019077991 0)
(0.23004694 0.0022281817 0)
(0.20851074 -0.00029126091 0)
(0.19444867 -0.00043004918 0)
(0.18411918 -0.00017525729 0)
(0.1752946 1.1192936e-06 0)
(0.16710551 5.4230608e-05 0)
(0.15953406 6.4857129e-05 0)
(0.15263545 6.7281359e-05 0)
(0.14634968 0.00019007105 0)
(0.14060043 0.0001121769 0)
(0.13536807 4.5212009e-05 0)
(0.13058731 4.4847627e-05 0)
(0.1261621 4.3752857e-05 0)
(0.12204781 4.0395616e-05 0)
(0.11822383 3.7179256e-05 0)
(0.11465445 3.5245533e-05 0)
(0.111303 3.2984018e-05 0)
(0.1081515 3.0267098e-05 0)
(0.10518731 2.7910119e-05 0)
(0.10239023 2.6173513e-05 0)
(0.099741003 2.4366014e-05 0)
(0.097230422 2.2413843e-05 0)
(0.094851884 2.0715302e-05 0)
(0.092594405 1.9306857e-05 0)
(0.090448366 1.7869584e-05 0)
(0.088409592 1.6403358e-05 0)
(0.086474421 1.5099284e-05 0)
(0.084636961 1.3929955e-05 0)
(0.082892647 1.2762628e-05 0)
(0.081239847 1.1611074e-05 0)
(0.079677022 1.0551664e-05 0)
(0.078202224 9.5384687e-06 0)
(0.076815324 8.5174335e-06 0)
(0.075518257 7.5069672e-06 0)
(0.074312978 6.5509415e-06 0)
(0.073200967 5.6320502e-06 0)
(0.072185608 4.7103583e-06 0)
(0.071270237 3.8290387e-06 0)
(0.070460177 1.6655266e-05 0)
(0.069760935 -2.3251736e-06 0)
(0.069191155 -1.7655155e-06 0)
(0.068758261 -1.7290761e-08 0)
(0.068461141 -6.6448127e-07 0)
(0.068299667 -1.4071339e-06 0)
(0.068270605 -2.2318092e-06 0)
(0.068367481 -2.8434326e-06 0)
(0.068579506 -3.2685844e-06 0)
(0.068884519 -3.404534e-06 0)
(0.069260811 -3.5086638e-06 0)
(0.069696587 -3.6133205e-06 0)
(0.070162591 -3.3044815e-06 0)
(0.070611441 -2.754483e-06 0)
(0.070994755 -2.2310029e-06 0)
(0.071280899 -6.4348097e-06 0)
(0.071458966 -2.5995185e-06 0)
(0.071529591 -7.7324069e-07 0)
(0.071503259 -3.8686531e-07 0)
(0.07139463 -1.667209e-07 0)
(0.07122151 -2.1421332e-10 0)
(0.07099983 1.1595981e-07 0)
(0.070743892 1.7611599e-07 0)
(0.070465304 2.1195411e-07 0)
(0.070172387 2.2896224e-07 0)
(0.069871395 2.3258492e-07 0)
(0.069567204 2.2730722e-07 0)
(0.069262681 2.2487091e-07 0)
(0.068959603 2.188241e-07 0)
(0.068659997 2.0792131e-07 0)
(0.068364349 2.069983e-07 0)
(0.068073008 1.9947645e-07 0)
(0.067786421 2.1194299e-07 0)
(0.067495105 2.4287203e-07 0)
(0.06719889 2.5021818e-07 0)
(0.066900459 2.5639652e-07 0)
(0.066600961 2.5562475e-07 0)
(0.066301029 2.5358665e-07 0)
(0.065999362 2.5988908e-07 0)
(0.065695363 2.5713094e-07 0)
(0.065388785 2.5998663e-07 0)
(0.065079367 2.5845537e-07 0)
(0.064767463 2.5728977e-07 0)
(0.064453035 2.5646069e-07 0)
(0.064136672 2.5225533e-07 0)
(0.063818472 2.5177431e-07 0)
(0.063498828 2.4649499e-07 0)
(0.063177826 2.4582406e-07 0)
(0.062856129 2.4025676e-07 0)
(0.062531632 2.4705988e-07 0)
(0.062210295 2.235277e-07 0)
(0.061870029 2.9531655e-07 0)
(0.061575988 9.927928e-07 0)
(0.061138295 1.1355483e-05 0)
(0.060898043 1.8971374e-05 0)
(0.060225919 1.0506805e-05 0)
(0.95864363 0.028029316 0)
(0.94940329 0.038589735 0)
(0.93027457 0.041836223 0)
(0.8850984 0.039313127 0)
(0.82438777 0.032446618 0)
(0.75681449 0.02395063 0)
(0.69433853 0.015508049 0)
(0.64136163 0.0094007166 0)
(0.59773358 0.0060295977 0)
(0.56167919 0.0043631172 0)
(0.53118989 0.0035597959 0)
(0.50473323 0.0030816929 0)
(0.48139421 0.0027031617 0)
(0.46055184 0.0023887398 0)
(0.44171981 0.0021288974 0)
(0.42457503 0.001886547 0)
(0.40891237 0.0016649989 0)
(0.39452266 0.0014836335 0)
(0.38121418 0.0013360269 0)
(0.36885166 0.0012047621 0)
(0.35734051 0.0010885552 0)
(0.34658452 0.00098959361 0)
(0.33649476 0.00090257309 0)
(0.32700842 0.00082365014 0)
(0.31807149 0.00075307706 0)
(0.30963217 0.00069126366 0)
(0.30164322 0.00063556556 0)
(0.29407181 0.00058409097 0)
(0.28689241 0.00053718808 0)
(0.28007696 0.00049499565 0)
(0.2736003 0.00045617016 0)
(0.26744603 0.00041988176 0)
(0.26160106 0.00038636425 0)
(0.25605101 0.00035552374 0)
(0.25078391 0.00032666495 0)
(0.24579318 0.00029940889 0)
(0.24107432 0.00027379756 0)
(0.23662377 0.00024956891 0)
(0.23244161 0.0002262795 0)
(0.22853263 0.00020373466 0)
(0.22490345 0.00018198788 0)
(0.22156122 0.00016090914 0)
(0.21851692 0.00014021787 0)
(0.21578393 0.0001199146 0)
(0.21337677 0.00010023291 0)
(0.21131791 8.6737289e-05 0)
(0.20964503 6.0472278e-05 0)
(0.20837777 3.7992422e-05 0)
(0.20751176 1.8425259e-05 0)
(0.20704707 5.6451089e-07 0)
(0.20696874 -1.5253924e-05 0)
(0.20725333 -2.8938457e-05 0)
(0.20786542 -3.9827312e-05 0)
(0.20874329 -4.7204912e-05 0)
(0.20982277 -5.2095776e-05 0)
(0.21105104 -5.4603642e-05 0)
(0.21233655 -5.2583141e-05 0)
(0.21355185 -4.6027894e-05 0)
(0.21458163 -3.8599389e-05 0)
(0.21531379 7.1046747e-06 0)
(0.21576476 -1.3965666e-05 0)
(0.21590933 -4.4114962e-06 0)
(0.2157851 3.0759148e-06 0)
(0.21543007 8.9400982e-06 0)
(0.21489369 1.311312e-05 0)
(0.21422064 1.5879941e-05 0)
(0.21345027 1.748774e-05 0)
(0.21261463 1.8294518e-05 0)
(0.21173763 1.8539488e-05 0)
(0.21083717 1.8388853e-05 0)
(0.20992693 1.7977812e-05 0)
(0.20901542 1.7443651e-05 0)
(0.20810831 1.681218e-05 0)
(0.20721109 1.6117506e-05 0)
(0.2063257 1.5454899e-05 0)
(0.2054531 1.4788304e-05 0)
(0.20459308 1.4458159e-05 0)
(0.20371817 1.4442567e-05 0)
(0.20282966 1.4260014e-05 0)
(0.2019356 1.3966696e-05 0)
(0.20103885 1.362299e-05 0)
(0.20014016 1.3294157e-05 0)
(0.19923646 1.3033333e-05 0)
(0.19832608 1.2766957e-05 0)
(0.19740805 1.25301e-05 0)
(0.19648188 1.2280349e-05 0)
(0.19554833 1.2028009e-05 0)
(0.19460763 1.1770815e-05 0)
(0.19366126 1.1494174e-05 0)
(0.1927098 1.1225692e-05 0)
(0.19175439 1.0938532e-05 0)
(0.19079548 1.0661067e-05 0)
(0.18983485 1.0385275e-05 0)
(0.18886807 1.0120534e-05 0)
(0.18790805 9.9129944e-06 0)
(0.18690706 9.6470235e-06 0)
(0.18601042 1.1006251e-05 0)
(0.18477379 3.9841215e-05 0)
(0.18403378 6.4564018e-05 0)
(0.18205736 2.6234191e-05 0)
(0.96798722 0.029709055 0)
(0.97307479 0.037720628 0)
(0.98236302 0.041542835 0)
(0.98422293 0.041014485 0)
(0.97935238 0.037119049 0)
(0.96359636 0.030584819 0)
(0.93922221 0.024151172 0)
(0.91007561 0.01911792 0)
(0.87831379 0.015501953 0)
(0.84611525 0.012898434 0)
(0.81511528 0.010958198 0)
(0.78571289 0.0094050288 0)
(0.75797697 0.0081188054 0)
(0.73182526 0.0070812284 0)
(0.70715448 0.0062357555 0)
(0.68390915 0.0055158036 0)
(0.66205199 0.0048998093 0)
(0.64149021 0.0043848654 0)
(0.62211206 0.003945197 0)
(0.60382936 0.0035577677 0)
(0.58657071 0.0032165734 0)
(0.57025329 0.0029215802 0)
(0.55479669 0.0026623878 0)
(0.54013822 0.0024299563 0)
(0.52622575 0.0022222014 0)
(0.5130032 0.0020385469 0)
(0.50041817 0.0018735824 0)
(0.48843108 0.0017228483 0)
(0.47700915 0.0015856039 0)
(0.46611864 0.0014613038 0)
(0.45572978 0.0013472383 0)
(0.44582142 0.0012413776 0)
(0.43637632 0.0011434801 0)
(0.42737747 0.0010530272 0)
(0.41881128 0.00096855975 0)
(0.41067021 0.00088904124 0)
(0.4029503 0.00081417171 0)
(0.39564987 0.00074324782 0)
(0.38877177 0.00067525314 0)
(0.38232443 0.00060958498 0)
(0.37631965 0.00054612431 0)
(0.37077132 0.00048450487 0)
(0.36569852 0.00042411682 0)
(0.3611234 0.00036480171 0)
(0.35707167 0.00030704682 0)
(0.35357941 0.00025834236 0)
(0.35068308 0.00018384111 0)
(0.34840897 0.00012784108 0)
(0.34674773 7.3865214e-05 0)
(0.34568853 2.3974444e-05 0)
(0.34520416 -2.0786652e-05 0)
(0.34525072 -5.9475302e-05 0)
(0.34577141 -9.0606555e-05 0)
(0.34667609 -0.00011259859 0)
(0.34787209 -0.00012706806 0)
(0.34926853 -0.00013393005 0)
(0.35072388 -0.00012962606 0)
(0.35206349 -0.00011284631 0)
(0.35313516 -8.4583191e-05 0)
(0.35382031 -5.9115864e-05 0)
(0.354106 -3.0209048e-05 0)
(0.35399436 -5.4455832e-06 0)
(0.35352148 1.5897314e-05 0)
(0.35274318 3.2060703e-05 0)
(0.35172473 4.3570313e-05 0)
(0.35052543 5.1210233e-05 0)
(0.34919764 5.5684538e-05 0)
(0.34778442 5.7875298e-05 0)
(0.3463188 5.8443312e-05 0)
(0.34482571 5.7870103e-05 0)
(0.34332409 5.6544214e-05 0)
(0.34182602 5.4821561e-05 0)
(0.34033997 5.2812601e-05 0)
(0.33887359 5.0628007e-05 0)
(0.33742991 4.8491394e-05 0)
(0.33601007 4.6380864e-05 0)
(0.33461239 4.5164614e-05 0)
(0.33319684 4.4759093e-05 0)
(0.33177081 4.3975001e-05 0)
(0.33034401 4.2913795e-05 0)
(0.32891796 4.1768129e-05 0)
(0.32749208 4.0691068e-05 0)
(0.32606202 3.9787272e-05 0)
(0.32462495 3.891442e-05 0)
(0.323179 3.8118851e-05 0)
(0.32172323 3.7311309e-05 0)
(0.32025827 3.6501401e-05 0)
(0.31878437 3.567984e-05 0)
(0.31730335 3.4818226e-05 0)
(0.31581603 3.3967586e-05 0)
(0.3143239 3.3081915e-05 0)
(0.31282764 3.2209442e-05 0)
(0.31132964 3.1356009e-05 0)
(0.30982451 3.050128e-05 0)
(0.30832794 2.98848e-05 0)
(0.30678099 2.8828256e-05 0)
(0.30536061 3.0961302e-05 0)
(0.30351689 7.2545033e-05 0)
(0.3023157 0.00011240301 0)
(0.29932085 -3.2289434e-06 0)
(0.97002335 0.027084586 0)
(0.97637282 0.03426683 0)
(0.98543045 0.038380509 0)
(0.9933968 0.03921412 0)
(1.0016001 0.036177785 0)
(1.0024883 0.0312029 0)
(0.99953098 0.026293476 0)
(0.99329117 0.022247536 0)
(0.98416096 0.019369194 0)
(0.97246948 0.017347202 0)
(0.95864468 0.015776712 0)
(0.9430842 0.014350107 0)
(0.92566436 0.013014745 0)
(0.90731961 0.011780503 0)
(0.88850384 0.010670154 0)
(0.8695026 0.0096645039 0)
(0.85051738 0.0087605664 0)
(0.83167239 0.0079707983 0)
(0.81305811 0.0072749041 0)
(0.79476694 0.0066465286 0)
(0.77687895 0.0060785617 0)
(0.75943921 0.005572594 0)
(0.74247182 0.0051173967 0)
(0.72599703 0.0047026159 0)
(0.71003316 0.0043262056 0)
(0.69458214 0.0039877518 0)
(0.67963829 0.0036804252 0)
(0.66519861 0.0033981215 0)
(0.65125923 0.003139415 0)
(0.63781037 0.0029031299 0)
(0.62484203 0.0026851845 0)
(0.61234872 0.0024823782 0)
(0.60032607 0.0022939297 0)
(0.58876857 0.0021187554 0)
(0.57767315 0.0019545128 0)
(0.56704216 0.0017994104 0)
(0.55688153 0.0016527932 0)
(0.54719718 0.0015135166 0)
(0.53799789 0.0013798987 0)
(0.52929729 0.0012508413 0)
(0.52111247 0.0011259649 0)
(0.51346316 0.0010045844 0)
(0.50637429 0.00088572464 0)
(0.49987293 0.00076887924 0)
(0.49399318 0.00065523916 0)
(0.4887728 0.0005461022 0)
(0.48423621 0.00041969335 0)
(0.48039169 0.00031170356 0)
(0.47722532 0.00020941654 0)
(0.47471727 0.00011528169 0)
(0.4728365 3.1130711e-05 0)
(0.47153709 -4.1497524e-05 0)
(0.4707529 -0.00010010982 0)
(0.47038793 -0.00014246325 0)
(0.47035502 -0.00017125659 0)
(0.47054517 -0.00018590294 0)
(0.47079238 -0.00017843776 0)
(0.47092515 -0.00015056164 0)
(0.47081797 -9.4188292e-05 0)
(0.47037783 -6.16259e-05 0)
(0.4696053 -1.4899335e-05 0)
(0.46850202 2.5967112e-05 0)
(0.46710397 6.0102995e-05 0)
(0.46545868 8.5980448e-05 0)
(0.46362004 0.00010419325 0)
(0.46163787 0.0001159547 0)
(0.45955736 0.00012242279 0)
(0.45741694 0.00012500879 0)
(0.45524697 0.00012481448 0)
(0.45307094 0.00012266885 0)
(0.45090682 0.00011925134 0)
(0.4487661 0.00011514598 0)
(0.44665764 0.00011055748 0)
(0.44458898 0.00010570338 0)
(0.44256294 0.00010095313 0)
(0.44058003 9.6351886e-05 0)
(0.43863607 9.2920748e-05 0)
(0.43672249 9.0700756e-05 0)
(0.4348323 8.8327014e-05 0)
(0.43296111 8.5773266e-05 0)
(0.43110479 8.3215656e-05 0)
(0.42926043 8.0846447e-05 0)
(0.42742257 7.8806019e-05 0)
(0.42558704 7.6883458e-05 0)
(0.4237508 7.5122038e-05 0)
(0.4219119 7.3379596e-05 0)
(0.42007006 7.1656778e-05 0)
(0.41822487 6.9931482e-05 0)
(0.41637751 6.8159106e-05 0)
(0.41452845 6.6410638e-05 0)
(0.41267865 6.4623221e-05 0)
(0.41082853 6.2856959e-05 0)
(0.4089803 6.1145009e-05 0)
(0.40712796 5.9410657e-05 0)
(0.40528772 5.8184747e-05 0)
(0.40339685 5.5973165e-05 0)
(0.40163749 5.8840557e-05 0)
(0.39945168 0.00010751447 0)
(0.39791953 0.0001575229 0)
(0.39438425 0.00013848937 0)
(0.9723786 0.025563782 0)
(0.977737 0.032401289 0)
(0.98582622 0.036409195 0)
(0.99413396 0.037070806 0)
(1.0012144 0.034670073 0)
(1.0055674 0.030637708 0)
(1.0079072 0.026374283 0)
(1.0070578 0.022757933 0)
(1.0052489 0.020142565 0)
(1.0027404 0.018354305 0)
(0.99953363 0.017017898 0)
(0.99552844 0.015924286 0)
(0.99023557 0.014972078 0)
(0.98356452 0.01407945 0)
(0.97553021 0.013226853 0)
(0.96625636 0.01237406 0)
(0.95564222 0.011537699 0)
(0.94413953 0.01074709 0)
(0.93194497 0.010009873 0)
(0.91920126 0.0093175275 0)
(0.90602453 0.0086712641 0)
(0.89251766 0.0080774075 0)
(0.87875781 0.0075276395 0)
(0.86483111 0.0070121931 0)
(0.85082185 0.0065305801 0)
(0.83679816 0.0060850433 0)
(0.82281817 0.0056701338 0)
(0.80893654 0.0052808275 0)
(0.79520068 0.0049172316 0)
(0.78164708 0.0045793428 0)
(0.76830699 0.0042631989 0)
(0.75521111 0.003965575 0)
(0.7423872 0.0036859194 0)
(0.7298587 0.0034230681 0)
(0.717649 0.0031741111 0)
(0.70578593 0.0029367616 0)
(0.69429818 0.0027106746 0)
(0.68320267 0.0024949206 0)
(0.67251791 0.0022873469 0)
(0.66226742 0.0020863061 0)
(0.65247777 0.0018910876 0)
(0.64317738 0.0017006757 0)
(0.63439878 0.0015137722 0)
(0.62617494 0.0013298208 0)
(0.61855375 0.0011476332 0)
(0.61155775 0.0009683033 0)
(0.60518391 0.00079174401 0)
(0.5994259 0.00062245039 0)
(0.59427932 0.00046602826 0)
(0.5897343 0.00032279312 0)
(0.5857712 0.00019444545 0)
(0.58235808 8.3241492e-05 0)
(0.57943748 -7.2560698e-06 0)
(0.57692678 -7.4659283e-05 0)
(0.57477352 -0.0001208999 0)
(0.57282775 -0.00014214781 0)
(0.57091157 -0.00013433361 0)
(0.56891487 -9.9930376e-05 0)
(0.56678894 -2.5378604e-05 0)
(0.56449175 8.3231811e-06 0)
(0.56204258 6.4812215e-05 0)
(0.55944291 0.00011381757 0)
(0.55671214 0.00015405382 0)
(0.55387382 0.00018388424 0)
(0.55095639 0.00020409532 0)
(0.54798718 0.00021616113 0)
(0.54499278 0.00022149979 0)
(0.54199716 0.00022186908 0)
(0.53902022 0.00021866877 0)
(0.536078 0.00021297998 0)
(0.53318287 0.00020570882 0)
(0.53034263 0.00019760074 0)
(0.52756457 0.00018892663 0)
(0.52485408 0.00018001159 0)
(0.52221223 0.00017135842 0)
(0.51963807 0.00016309024 0)
(0.51712565 0.00015636577 0)
(0.51468325 0.00015115429 0)
(0.5122998 0.00014598287 0)
(0.50996276 0.00014093279 0)
(0.5076631 0.00013612528 0)
(0.5053953 0.00013172099 0)
(0.50315269 0.00012786403 0)
(0.50092981 0.00012427545 0)
(0.49872236 0.00012098577 0)
(0.49652707 0.00011779848 0)
(0.49434234 0.00011469815 0)
(0.4921666 0.00011164423 0)
(0.48999986 0.00010857272 0)
(0.48784164 0.00010556748 0)
(0.48569194 0.00010254835 0)
(0.48355049 9.9579508e-05 0)
(0.48141875 9.6727078e-05 0)
(0.47928997 9.3841891e-05 0)
(0.4771798 9.1786467e-05 0)
(0.47502482 8.8162282e-05 0)
(0.47300146 9.1591814e-05 0)
(0.47057912 0.00014312375 0)
(0.46878476 0.00019785627 0)
(0.46489894 0.00016011128 0)
(0.97456666 0.024512149 0)
(0.97925886 0.030795114 0)
(0.98633084 0.034469899 0)
(0.99374331 0.035114158 0)
(1.0001393 0.033234993 0)
(1.0047659 0.029797434 0)
(1.0072599 0.025984167 0)
(1.0082461 0.022700256 0)
(1.0079221 0.020249184 0)
(1.0073692 0.018530095 0)
(1.0067391 0.017263918 0)
(1.0059823 0.016265214 0)
(1.0049512 0.015424943 0)
(1.0035318 0.014655154 0)
(1.0016103 0.013931072 0)
(0.99912108 0.013260685 0)
(0.99582781 0.012639756 0)
(0.99167708 0.012045744 0)
(0.98665408 0.01147115 0)
(0.98077305 0.010899269 0)
(0.97396777 0.010331209 0)
(0.96642809 0.0097846524 0)
(0.95824117 0.0092598242 0)
(0.94947174 0.0087545432 0)
(0.94017709 0.0082710838 0)
(0.9304134 0.0078125502 0)
(0.92023998 0.0073746912 0)
(0.90971322 0.0069535761 0)
(0.89889023 0.0065504809 0)
(0.88782715 0.0061666362 0)
(0.8765784 0.0057990196 0)
(0.86519894 0.0054454995 0)
(0.85374121 0.0051069252 0)
(0.84225191 0.0047831307 0)
(0.83077559 0.0044716524 0)
(0.81935758 0.0041705214 0)
(0.80804296 0.0038794767 0)
(0.79687636 0.0035978918 0)
(0.78590142 0.0033241338 0)
(0.77516211 0.0030568259 0)
(0.76470204 0.002795415 0)
(0.75456475 0.0025388143 0)
(0.74479682 0.0022856535 0)
(0.73544519 0.0020342881 0)
(0.7265862 0.0017882784 0)
(0.71816123 0.0015474418 0)
(0.71017754 0.0013123404 0)
(0.70267499 0.0010872335 0)
(0.69568265 0.00087549492 0)
(0.68920978 0.00068052959 0)
(0.68324665 0.00050532814 0)
(0.67776476 0.00035312294 0)
(0.67270976 0.00022790561 0)
(0.66802756 0.00013031821 0)
(0.66371794 6.4613673e-05 0)
(0.65950202 3.4949065e-05 0)
(0.65525132 3.9183064e-05 0)
(0.65099201 7.0801071e-05 0)
(0.64675624 0.00014544423 0)
(0.64253248 0.00017363358 0)
(0.63834422 0.00022744078 0)
(0.63418649 0.00027367751 0)
(0.63006064 0.0003107545 0)
(0.62596858 0.00033684678 0)
(0.621917 0.00035276545 0)
(0.61791325 0.00036001306 0)
(0.6139659 0.00036004217 0)
(0.61008394 0.00035473708 0)
(0.60627568 0.00034561012 0)
(0.60254832 0.00033384999 0)
(0.59890805 0.0003204698 0)
(0.5953593 0.00030633884 0)
(0.59190453 0.00029177544 0)
(0.58854567 0.00027715838 0)
(0.58528156 0.00026309036 0)
(0.58210948 0.00024975819 0)
(0.57902305 0.0002381687 0)
(0.57602473 0.00022831776 0)
(0.57310975 0.00021899269 0)
(0.57026764 0.00021028307 0)
(0.56748808 0.0002021862 0)
(0.56476384 0.00019480003 0)
(0.56208728 0.00018825441 0)
(0.55945188 0.00018220084 0)
(0.55685224 0.00017664993 0)
(0.55428385 0.0001713501 0)
(0.5517437 0.00016626391 0)
(0.54922895 0.00016132734 0)
(0.54673819 0.00015645284 0)
(0.54426977 0.00015172616 0)
(0.54182286 0.00014705015 0)
(0.53939602 0.00014249124 0)
(0.53698945 0.00013814845 0)
(0.53459563 0.0001337845 0)
(0.53222892 0.00013062131 0)
(0.52982686 0.00012530264 0)
(0.52755572 0.00012890649 0)
(0.52491885 0.00018049113 0)
(0.52289066 0.00023727276 0)
(0.51869627 0.00019677388 0)
(0.97653831 0.023526671 0)
(0.98069883 0.029153441 0)
(0.98695591 0.032518535 0)
(0.99357332 0.033277006 0)
(0.99938245 0.031816432 0)
(1.0036962 0.02888268 0)
(1.0062439 0.025506421 0)
(1.0073988 0.022523419 0)
(1.0077151 0.020237548 0)
(1.0076938 0.018572592 0)
(1.0075959 0.017319432 0)
(1.0074915 0.016319191 0)
(1.0073712 0.015485235 0)
(1.0071903 0.014745625 0)
(1.0068871 0.01407234 0)
(1.0064216 0.013464258 0)
(1.0057482 0.012910538 0)
(1.0048117 0.012387561 0)
(1.0035527 0.011890612 0)
(1.0019174 0.011424057 0)
(0.99977594 0.01098352 0)
(0.99707463 0.010556286 0)
(0.99378837 0.010137326 0)
(0.98989223 0.0097189103 0)
(0.9853423 0.0093028132 0)
(0.98021816 0.0088971551 0)
(0.97454724 0.0085004183 0)
(0.96835493 0.0081110855 0)
(0.96166571 0.0077317135 0)
(0.95450474 0.007363679 0)
(0.94690164 0.0070038103 0)
(0.93889247 0.0066500958 0)
(0.93051444 0.0063044275 0)
(0.92179638 0.0059672776 0)
(0.91277559 0.0056361919 0)
(0.90349234 0.0053096463 0)
(0.8939868 0.0049885245 0)
(0.88430613 0.0046728894 0)
(0.87449989 0.0043611074 0)
(0.86461937 0.0040520364 0)
(0.85471694 0.0037456184 0)
(0.84484626 0.0034411801 0)
(0.83506382 0.0031376656 0)
(0.82542952 0.0028336965 0)
(0.81600732 0.002531456 0)
(0.80683807 0.0022358819 0)
(0.79792469 0.0019514071 0)
(0.789298 0.001678943 0)
(0.78099397 0.0014203011 0)
(0.77303969 0.0011794025 0)
(0.76544802 0.00096035858 0)
(0.75821443 0.00076784293 0)
(0.75131275 0.00060633448 0)
(0.74473849 0.0004750675 0)
(0.73851363 0.0003805021 0)
(0.73244564 0.00033271761 0)
(0.72643821 0.00032663693 0)
(0.72051368 0.00034827663 0)
(0.71469595 0.00040867461 0)
(0.70897085 0.00042904162 0)
(0.70336795 0.00047106623 0)
(0.69788716 0.0005059744 0)
(0.69252644 0.00053226903 0)
(0.68728321 0.00054792009 0)
(0.68215967 0.00055370369 0)
(0.67715589 0.00055112993 0)
(0.67227146 0.0005415978 0)
(0.66750731 0.00052697929 0)
(0.66286483 0.00050877939 0)
(0.65834499 0.00048820742 0)
(0.65394911 0.00046629424 0)
(0.64967883 0.00044393711 0)
(0.645533 0.00042147159 0)
(0.64151067 0.00039932605 0)
(0.63760861 0.00037817168 0)
(0.63382241 0.00035821838 0)
(0.63014563 0.00034037793 0)
(0.62657568 0.00032461277 0)
(0.62310956 0.00030982712 0)
(0.61973991 0.00029617147 0)
(0.61645747 0.00028357696 0)
(0.61325475 0.00027208679 0)
(0.61012365 0.00026180956 0)
(0.60705694 0.00025232705 0)
(0.6040484 0.00024362579 0)
(0.60109241 0.00023539922 0)
(0.5981847 0.00022758367 0)
(0.59532113 0.00022008713 0)
(0.59249889 0.00021279397 0)
(0.58971503 0.00020578486 0)
(0.58696767 0.00019894092 0)
(0.5842541 0.00019232501 0)
(0.5815732 0.00018606904 0)
(0.57891664 0.00017983738 0)
(0.57629718 0.00017522183 0)
(0.57365388 0.0001678945 0)
(0.57114203 0.00017126201 0)
(0.56829568 0.00022118669 0)
(0.56605087 0.00027936849 0)
(0.56156547 0.00023752871 0)
(0.97833762 0.022613723 0)
(0.98203982 0.027632868 0)
(0.98758464 0.030751952 0)
(0.99352469 0.031605197 0)
(0.99883179 0.030477583 0)
(1.0028687 0.027995395 0)
(1.0053934 0.025029633 0)
(1.0066402 0.02231629 0)
(1.0071227 0.020162543 0)
(1.0072919 0.018544211 0)
(1.0073837 0.017306617 0)
(1.007464 0.016312304 0)
(1.0075288 0.015479645 0)
(1.0075987 0.014745539 0)
(1.0076389 0.014083169 0)
(1.0076256 0.013486642 0)
(1.0075678 0.012946961 0)
(1.007449 0.012446827 0)
(1.007244 0.011980975 0)
(1.0069301 0.011550816 0)
(1.0064783 0.01114936 0)
(1.0058506 0.010764886 0)
(1.0050079 0.01039502 0)
(1.0039048 0.010042349 0)
(1.0024628 0.0097041087 0)
(1.0006396 0.0093738295 0)
(0.99840612 0.0090470507 0)
(0.99572416 0.0087195266 0)
(0.99256996 0.0083932981 0)
(0.98897007 0.0080715106 0)
(0.98492625 0.007752425 0)
(0.98043828 0.0074346547 0)
(0.97550906 0.0071195999 0)
(0.97014732 0.0068078902 0)
(0.96436218 0.0064973671 0)
(0.95816686 0.0061864167 0)
(0.95157592 0.0058756707 0)
(0.94460697 0.0055650431 0)
(0.9372751 0.0052530209 0)
(0.92960157 0.0049384305 0)
(0.92161566 0.0046212624 0)
(0.91335088 0.0043009612 0)
(0.90484453 0.0039764023 0)
(0.8961432 0.003646328 0)
(0.88727561 0.0033144823 0)
(0.87837748 0.0029863139 0)
(0.86949752 0.002665705 0)
(0.86065072 0.0023558649 0)
(0.85186695 0.0020591865 0)
(0.84318349 0.0017798298 0)
(0.83464098 0.0015224925 0)
(0.82627881 0.0012927499 0)
(0.81813073 0.0010960795 0)
(0.81021888 0.00093173163 0)
(0.80253708 0.00080678457 0)
(0.79518035 0.00073681929 0)
(0.78801022 0.00071300016 0)
(0.78100952 0.00071660215 0)
(0.77413131 0.00075445263 0)
(0.76734212 0.00076302306 0)
(0.76068229 0.00078775774 0)
(0.75415566 0.00080604866 0)
(0.74776235 0.0008165703 0)
(0.74151048 0.00081692267 0)
(0.73541183 0.00080797439 0)
(0.72946794 0.0007914185 0)
(0.72367847 0.00076855601 0)
(0.7180455 0.00074119176 0)
(0.71256937 0.00071083691 0)
(0.70724847 0.00067868551 0)
(0.70208184 0.00064570306 0)
(0.69706949 0.00061279624 0)
(0.69220947 0.00058032351 0)
(0.6874994 0.00054872221 0)
(0.68293464 0.00051870532 0)
(0.6785095 0.00049047074 0)
(0.67421753 0.00046488288 0)
(0.67005368 0.00044183955 0)
(0.66601447 0.00042023616 0)
(0.66209425 0.00040028545 0)
(0.65828534 0.00038189117 0)
(0.65458086 0.00036506297 0)
(0.65097273 0.0003498945 0)
(0.64745336 0.00033590161 0)
(0.64401586 0.0003230461 0)
(0.64065372 0.00031096765 0)
(0.63736152 0.00029957391 0)
(0.63413386 0.00028874139 0)
(0.6309666 0.00027832243 0)
(0.62785543 0.00026838421 0)
(0.62479705 0.0002587829 0)
(0.62178758 0.00024957536 0)
(0.61882467 0.00024092157 0)
(0.61589909 0.0002323797 0)
(0.61302191 0.00022591187 0)
(0.6101337 0.00021622491 0)
(0.60737947 0.00021897382 0)
(0.6043181 0.00026627659 0)
(0.60186234 0.00032620912 0)
(0.59708493 0.00028192204 0)
(0.97998151 0.021776787 0)
(0.9832925 0.026248158 0)
(0.98820322 0.029132177 0)
(0.99352908 0.030041295 0)
(0.99837687 0.029193388 0)
(1.0021696 0.027114185 0)
(1.0046631 0.024525298 0)
(1.0060091 0.022066759 0)
(1.0066194 0.020048253 0)
(1.0068937 0.018487523 0)
(1.0070634 0.017270894 0)
(1.0072099 0.016283697 0)
(1.0073471 0.015452587 0)
(1.0074777 0.014722963 0)
(1.0075895 0.014067437 0)
(1.0076797 0.013475728 0)
(1.0077488 0.012939084 0)
(1.0078164 0.012443757 0)
(1.0078522 0.011985642 0)
(1.0078495 0.011563904 0)
(1.0078167 0.011172123 0)
(1.0077414 0.010802406 0)
(1.0076072 0.010451953 0)
(1.0073976 0.010121534 0)
(1.007092 0.0098075319 0)
(1.0066639 0.0095044166 0)
(1.0060866 0.0092106522 0)
(1.0053218 0.0089264372 0)
(1.0043195 0.0086498268 0)
(1.0030461 0.0083775032 0)
(1.001477 0.0081057065 0)
(0.99956786 0.0078315684 0)
(0.99730478 0.0075571894 0)
(0.99469111 0.0072836784 0)
(0.99171653 0.0070090841 0)
(0.98836862 0.0067319691 0)
(0.9846369 0.0064526158 0)
(0.98051187 0.0061704378 0)
(0.97598876 0.0058837241 0)
(0.97106401 0.0055914955 0)
(0.96573322 0.0052936702 0)
(0.95999227 0.0049894572 0)
(0.95383775 0.0046772839 0)
(0.9472715 0.004356626 0)
(0.94028334 0.00402963 0)
(0.93290612 0.0036976198 0)
(0.92522226 0.003366341 0)
(0.91727965 0.0030421961 0)
(0.90911837 0.0027289234 0)
(0.90077885 0.0024304943 0)
(0.89230936 0.0021514309 0)
(0.8837688 0.0018973104 0)
(0.87522739 0.0016734424 0)
(0.86673547 0.0014807272 0)
(0.85829183 0.0013259303 0)
(0.85009469 0.0012211656 0)
(0.84220823 0.001164719 0)
(0.83456048 0.0011459813 0)
(0.82698454 0.0011612087 0)
(0.81948295 0.0011569817 0)
(0.81209655 0.0011635713 0)
(0.80480344 0.0011642534 0)
(0.79761105 0.0011571684 0)
(0.79054684 0.0011398081 0)
(0.78362914 0.0011135924 0)
(0.77686056 0.0010804634 0)
(0.77024996 0.0010415351 0)
(0.76380852 0.00099867431 0)
(0.75753857 0.00095357325 0)
(0.75143986 0.00090738746 0)
(0.7455143 0.00086098232 0)
(0.73976329 0.0008153019 0)
(0.73418506 0.00077073026 0)
(0.7287777 0.00072770478 0)
(0.72353681 0.00068697736 0)
(0.71845656 0.00064871639 0)
(0.71353125 0.00061374499 0)
(0.70875564 0.00058189702 0)
(0.70412577 0.00055201315 0)
(0.69963666 0.00052433979 0)
(0.69528201 0.00049875731 0)
(0.6910559 0.00047525973 0)
(0.68695069 0.00045393795 0)
(0.68295878 0.00043424875 0)
(0.67907289 0.00041613221 0)
(0.67528581 0.00039917628 0)
(0.67159116 0.00038325879 0)
(0.66798246 0.0003682225 0)
(0.66445431 0.00035388432 0)
(0.66100114 0.0003402939 0)
(0.6576182 0.00032727749 0)
(0.65430041 0.00031487853 0)
(0.65104417 0.00030328071 0)
(0.64783936 0.00029193109 0)
(0.64469533 0.00028315802 0)
(0.64155395 0.0002707157 0)
(0.63855116 0.00027246398 0)
(0.63526492 0.00031657306 0)
(0.63259691 0.00037911382 0)
(0.62751731 0.00033036844 0)
(0.98148318 0.021001828 0)
(0.98445735 0.024977049 0)
(0.9888075 0.027627804 0)
(0.99357605 0.028570044 0)
(0.99799785 0.027962683 0)
(1.0015532 0.026238347 0)
(1.0039992 0.023992143 0)
(1.0054257 0.021779232 0)
(1.0061578 0.019902388 0)
(1.0065376 0.01840966 0)
(1.0067803 0.017221529 0)
(1.0069735 0.016245353 0)
(1.0071434 0.015417751 0)
(1.0072982 0.014691824 0)
(1.0074375 0.014040642 0)
(1.0075605 0.013452595 0)
(1.0076698 0.012918637 0)
(1.0077686 0.012427447 0)
(1.0078519 0.011973895 0)
(1.0079234 0.011554944 0)
(1.0079822 0.011165323 0)
(1.0080403 0.010798432 0)
(1.0080801 0.010452769 0)
(1.0080892 0.010128259 0)
(1.008077 0.0098209962 0)
(1.0080338 0.0095276808 0)
(1.0079502 0.0092466044 0)
(1.0078124 0.0089765161 0)
(1.0076057 0.0087155688 0)
(1.0073099 0.0084610995 0)
(1.0069063 0.0082122192 0)
(1.0063622 0.0079681603 0)
(1.0056443 0.0077271883 0)
(1.0047255 0.0074874283 0)
(1.0035855 0.0072458475 0)
(1.0021804 0.0070003095 0)
(1.0005039 0.0067518333 0)
(0.9985409 0.0065004692 0)
(0.99627446 0.0062448541 0)
(0.99368616 0.0059835441 0)
(0.99075605 0.0057160932 0)
(0.98746237 0.0054418035 0)
(0.98378142 0.0051589761 0)
(0.97968792 0.0048671835 0)
(0.97515217 0.0045672136 0)
(0.97013661 0.0042591891 0)
(0.9646389 0.0039479741 0)
(0.95867689 0.0036389585 0)
(0.95226611 0.0033359716 0)
(0.94542447 0.0030431196 0)
(0.93817824 0.0027646675 0)
(0.93056672 0.0025055786 0)
(0.92264742 0.0022712726 0)
(0.91448961 0.0020652587 0)
(0.90613756 0.0018913357 0)
(0.89772119 0.0017596406 0)
(0.8894692 0.0016730498 0)
(0.88140678 0.001622936 0)
(0.87351896 0.0016092586 0)
(0.86576004 0.0015897815 0)
(0.8580666 0.0015815708 0)
(0.85036416 0.0015674088 0)
(0.84271084 0.0015434883 0)
(0.83514406 0.0015087115 0)
(0.82766187 0.0014652883 0)
(0.82027876 0.0014147925 0)
(0.81302533 0.001358423 0)
(0.80592011 0.0012985547 0)
(0.79896687 0.0012370947 0)
(0.79217458 0.0011750651 0)
(0.78555443 0.0011133281 0)
(0.77911105 0.0010530129 0)
(0.77284507 0.00099450996 0)
(0.76675851 0.00093823354 0)
(0.76085001 0.0008850179 0)
(0.75511569 0.00083500052 0)
(0.74955275 0.00078895353 0)
(0.74415793 0.0007466778 0)
(0.73892776 0.00070696628 0)
(0.73385809 0.00067007165 0)
(0.72894411 0.00063584184 0)
(0.724181 0.00060426819 0)
(0.71956196 0.00057544864 0)
(0.71507989 0.00054878921 0)
(0.71072745 0.0005242157 0)
(0.70649705 0.00050126694 0)
(0.7023817 0.00047979106 0)
(0.69837409 0.00045959645 0)
(0.69446774 0.00044046222 0)
(0.69065599 0.00042241762 0)
(0.68693281 0.00040525443 0)
(0.68329188 0.00038899587 0)
(0.67972841 0.00037384397 0)
(0.67623139 0.0003591306 0)
(0.67280849 0.00034754478 0)
(0.66940265 0.00033190019 0)
(0.66614195 0.00033224151 0)
(0.66261868 0.00037273723 0)
(0.65973243 0.00043895948 0)
(0.65433524 0.00038322393 0)
(0.98285595 0.020277697 0)
(0.98553758 0.023808002 0)
(0.98939492 0.026234826 0)
(0.9936612 0.027194793 0)
(0.99768913 0.026791524 0)
(1.0010121 0.025375883 0)
(1.0033933 0.023439223 0)
(1.004875 0.021459945 0)
(1.0057102 0.019725681 0)
(1.006188 0.018306958 0)
(1.0065042 0.017153905 0)
(1.0067483 0.016194267 0)
(1.006953 0.015374569 0)
(1.0071316 0.014654603 0)
(1.0072891 0.014008851 0)
(1.0074276 0.013425009 0)
(1.0075511 0.012894137 0)
(1.0076634 0.012406195 0)
(1.007765 0.011955407 0)
(1.0078577 0.011538399 0)
(1.0079437 0.011150296 0)
(1.0080239 0.010785664 0)
(1.008095 0.010442741 0)
(1.0081587 0.010120149 0)
(1.0082156 0.0098148052 0)
(1.0082647 0.0095231367 0)
(1.0083156 0.0092444897 0)
(1.008336 0.0089786565 0)
(1.0083407 0.0087226914 0)
(1.0083224 0.0084750083 0)
(1.0082743 0.0082348322 0)
(1.0081862 0.0080003325 0)
(1.0080461 0.0077699689 0)