/*--------------------------------*- C++ -*----------------------------------*\
| =========                 |                                                 |
| \\      /  F ield         | OpenFOAM: The Open Source CFD Toolbox           |
|  \\    /   O peration     | Version:  2206                                  |
|   \\  /    A nd           | Website:  www.openfoam.com                      |
|    \\/     M anipulation  |                                                 |
\*---------------------------------------------------------------------------*/
FoamFile
{
    version     2.0;
    format      ascii;
    arch        "LSB;label=32;scalar=64";
    class       volScalarField;
    location    "200";
    object      p;
}
// * * * * * * * * * * * * * * * * * * * * * * * * * * * * * * * * * * * * * //

dimensions      [0 2 -2 0 0 0 0];

internalField   nonuniform List<scalar> 
3000
(
0.307111936127
0.307255999998
0.307540343665
0.307928291853
0.308395082656
0.308921061955
0.309490158502
0.310089070559
0.310706741315
0.311333979707
0.311963170402
0.31258804336
0.313203484893
0.313805378719
0.314390469521
0.314956244093
0.315500826784
0.316022887146
0.316521558353
0.316996363513
0.317447141518
0.317873972314
0.318277170132
0.318657450549
0.319015962917
0.319353385983
0.319669699585
0.319969710794
0.320261708903
0.320504018089
0.280209352914
0.280126049686
0.279957797209
0.279725716919
0.27944240037
0.279118163769
0.278761654632
0.278380347167
0.277980820841
0.277568910314
0.277149790133
0.276728025238
0.276307605043
0.275891971475
0.275484046655
0.275086262905
0.274700596002
0.274328601954
0.27397145765
0.273630001903
0.273304755861
0.272995899248
0.272703310331
0.272427024914
0.272168289238
0.27193070365
0.271721740802
0.271555537403
0.27144915685
0.271402425334
0.257730265979
0.257697758763
0.257632523616
0.257546584572
0.257447075976
0.257340015113
0.257230035466
0.25712064397
0.257014382461
0.256912984479
0.256817528534
0.256728578489
0.25664630748
0.256570604101
0.256501160849
0.256437545789
0.256379258937
0.256325774877
0.256276573312
0.256231160939
0.256189086618
0.256149948924
0.256113433984
0.256079497245
0.256048686644
0.256022248103
0.256001667079
0.25598755742
0.255978267897
0.255971626768
0.251474624442
0.251482038675
0.251496225511
0.25151571257
0.251537755024
0.251560716649
0.251583190032
0.251604120332
0.251622747581
0.251638568019
0.251651297522
0.251660833902
0.25166722038
0.251670611441
0.251671241881
0.251669399682
0.251665403145
0.251659582003
0.251652261038
0.251643746712
0.251634324599
0.251624281872
0.251613970201
0.251603911782
0.251594877508
0.251587738642
0.251582927276
0.251579822491
0.251577153398
0.251574842202
0.247152258757
0.247144996605
0.247129748118
0.247109261547
0.247084271224
0.247056086449
0.247025618093
0.246993695464
0.246961031408
0.246928233219
0.246895808499
0.246864169874
0.246833641299
0.246804465817
0.246776814419
0.246750795578
0.246726465056
0.246703835287
0.246682882815
0.246663555071
0.246645788559
0.246629559072
0.246614968096
0.246602317676
0.24659205646
0.246584493742
0.246579429992
0.24657612146
0.246573736804
0.246572019258
0.240224640345
0.240219253646
0.240207442654
0.240192028107
0.240173908731
0.240154378538
0.240134180755
0.240113936279
0.240094084717
0.240074930927
0.24005667401
0.24003943185
0.240023261991
0.240008178443
0.239994164894
0.239981184838
0.239969189123
0.23995812138
0.239947921749
0.239938531629
0.239929907783
0.239922054607
0.239915067325
0.239909142996
0.239904484588
0.239901109062
0.239898757241
0.239897018697
0.239895536636
0.239894336681
0.23357443199
0.233573800557
0.233571596139
0.233569026413
0.233565766629
0.233562143123
0.233558153642
0.23355389472
0.233549426033
0.233544803156
0.233540075943
0.233535289187
0.233530483251
0.233525694243
0.233520954085
0.233516290555
0.233511727254
0.233507283697
0.233502976571
0.233498825047
0.233494863345
0.233491159046
0.233487826203
0.233485004193
0.233482775038
0.233481082239
0.23347975516
0.233478591222
0.233477442877
0.233476451909
0.228035486058
0.228034443131
0.228031675613
0.228028330907
0.228024119296
0.228019426344
0.228014297211
0.228008884285
0.228003282656
0.227997580108
0.227991849731
0.22798615188
0.227980535705
0.227975040404
0.227969696518
0.227964527138
0.227959548899
0.227954773071
0.227950208657
0.227945871006
0.227941796992
0.227938060609
0.227934773561
0.227932045164
0.227929906961
0.227928278065
0.227927006809
0.227925925959
0.227924909716
0.227924059885
0.22293102878
0.222929563734
0.222925993253
0.222921539485
0.222916069712
0.222910074091
0.222903660594
0.22289703295
0.222890310824
0.222883598781
0.22287697572
0.222870501613
0.222864221089
0.222858166341
0.222852359604
0.222846815128
0.222841540728
0.222836539551
0.222831814521
0.222827378727
0.222823271018
0.222819568411
0.222816376467
0.222813778658
0.222811773697
0.222810265664
0.222809108706
0.222808153501
0.222807285706
0.222806574372
0.217970569458
0.2179694669
0.217966617348
0.217963097964
0.217958736808
0.217953962455
0.217948830551
0.217943513285
0.217938100081
0.217932677
0.2179273082
0.217922043882
0.217916922309
0.217911971904
0.217907213057
0.217902659557
0.217898319866
0.217894199175
0.217890304611
0.217886655387
0.217883295397
0.217880299307
0.21787775447
0.21787571196
0.217874145297
0.217872958673
0.217872030503
0.21787124656
0.21787052162
0.217869921633
0.213214415463
0.21321358828
0.213211328367
0.213208589665
0.213205160767
0.213201414675
0.213197367214
0.213193165492
0.213188873898
0.213184562742
0.213180282688
0.213176074481
0.213171969462
0.213167991265
0.21316415717
0.213160479193
0.213156965264
0.213153621715
0.213150459018
0.21314750094
0.213144793515
0.213142404921
0.213140402128
0.213138809342
0.213137585607
0.213136643219
0.213135885734
0.213135227476
0.213134605582
0.213134085407
0.20868894304
0.208688215463
0.208686194956
0.2086837667
0.208680716567
0.208677393927
0.208673801153
0.20867007697
0.208666274219
0.208662456885
0.208658668847
0.208654946028
0.20865131577
0.208647798637
0.208644409589
0.208641158986
0.208638053907
0.208635101188
0.208632313541
0.208629717765
0.208627360854
0.2086253048
0.208623600379
0.208622253603
0.20862121631
0.208620408928
0.208619751578
0.208619174756
0.20861862725
0.208618168735
0.204353679694
0.204353023596
0.204351172181
0.204348956479
0.204346166282
0.204343132998
0.204339850814
0.20433645257
0.204332983128
0.204329502699
0.204326050619
0.204322659861
0.204319355232
0.204316155382
0.204313073823
0.204310119909
0.204307300397
0.204304622958
0.204302102379
0.204299767721
0.204297665849
0.204295852089
0.20429436348
0.204293193184
0.204292290023
0.204291582123
0.204291001479
0.204290489624
0.204290003337
0.204289596268
0.200174234034
0.200173658592
0.200171989561
0.200170006368
0.200167499108
0.20016477926
0.200161832057
0.200158782799
0.200155668218
0.200152544202
0.200149445328
0.200146401517
0.200143434999
0.200140562567
0.200137796375
0.20013514495
0.200132614994
0.200130215214
0.200127962257
0.200125886585
0.200124033424
0.200122450334
0.200121162039
0.20012015253
0.20011937063
0.200118752402
0.200118240143
0.200117784925
0.200117350629
0.200116986521
0.196135347363
0.196134843981
0.19613333929
0.196131566641
0.196129315935
0.196126879896
0.196124236162
0.196121502695
0.196118709061
0.196115907089
0.196113126993
0.19611039592
0.19610773373
0.196105155532
0.196102672264
0.196100291779
0.196098020892
0.196095869384
0.196093855449
0.196092010228
0.196090376302
0.19608899327
0.19608787549
0.196087000847
0.19608631999
0.196085776449
0.196085321241
0.196084913285
0.196084522253
0.196084193807
0.192225776353
0.192225329357
0.192223956002
0.192222350491
0.192220304216
0.192218094
0.192215692198
0.192213210642
0.192210673312
0.192208128821
0.192205603857
0.19220312338
0.19220070532
0.192198363432
0.192196107674
0.19219394542
0.192191883739
0.192189933443
0.192188113969
0.192186456606
0.19218500078
0.19218377864
0.192182796257
0.192182027741
0.192181426354
0.1921809421
0.192180532961
0.19218016393
0.192179809067
0.192179510663
0.188433319191
0.188432918501
0.188431654186
0.188430186533
0.188428309407
0.188426285768
0.188424084177
0.188421811105
0.188419486065
0.188417154984
0.18841484162
0.188412569148
0.188410353879
0.188408208445
0.188406142004
0.188404161613
0.188402274693
0.188400493005
0.188398836936
0.188397337443
0.188396030453
0.188394941322
0.188394069614
0.188393387307
0.188392850604
0.188392415078
0.188392044354
0.18839170823
0.188391384227
0.188391111555
0.184747013617
0.18474665346
0.184745484945
0.184744138139
0.184742409526
0.184740549477
0.184738523558
0.184736433272
0.184734294356
0.184732150319
0.184730022364
0.184727932108
0.184725894433
0.184723921002
0.184722020303
0.184720199198
0.184718465518
0.184716831878
0.184715319322
0.184713958038
0.184712780222
0.184711805124
0.184711027271
0.18471041768
0.184709935609
0.184709541505
0.184709203696
0.184708895937
0.184708598595
0.184708348165
0.181157946192
0.18115762153
0.181156537466
0.181155296973
0.181153699221
0.18115198312
0.181150111895
0.181148182445
0.181146207321
0.181144227835
0.181142262961
0.181140332944
0.181138451406
0.181136629171
0.181134874168
0.181133193166
0.181131594438
0.181130091338
0.181128705313
0.181127465409
0.181126400025
0.181125523043
0.181124825171
0.181124277273
0.181123841628
0.18112348294
0.181123173491
0.181122890318
0.181122616153
0.181122385071
0.177658527847
0.177658233972
0.17765722383
0.1776560761
0.177654592757
0.177653002346
0.177651266326
0.177649477388
0.17764764541
0.177645809731
0.177643987396
0.177642197448
0.177640452406
0.177638762368
0.177637134809
0.17763557649
0.177634096129
0.177632707708
0.177631432838
0.17763029915
0.177629331313
0.177628538579
0.177627908827
0.177627413312
0.177627017189
0.177626688867
0.177626403948
0.1776261422
0.177625888313
0.177625674188
0.174242015556
0.174241748582
0.174240803593
0.174239737353
0.174238354712
0.174236874794
0.174235257752
0.1742335924
0.174231886376
0.174230177227
0.174228480325
0.174226813648
0.174225188743
0.174223615083
0.174222099777
0.174220649644
0.174219273835
0.174217986844
0.174216810239
0.174215770021
0.174214887291
0.17421416736
0.174213596067
0.174213145413
0.174212783247
0.174212481201
0.174212217685
0.174211974753
0.174211738741
0.174211539582
0.170902428652
0.170902185447
0.170901298465
0.170900304573
0.170899011486
0.170897629719
0.17089611845
0.17089456291
0.170892968838
0.170891372137
0.170889786713
0.170888229592
0.170886711459
0.170885241246
0.170883825773
0.170882471964
0.170881189379
0.170879992914
0.170878903899
0.170877946557
0.17087713864
0.170876482138
0.170875961473
0.170875549619
0.170875216921
0.170874937827
0.170874693142
0.170874466856
0.170874246702
0.170874060834
0.167634483839
0.167634261751
0.167633426712
0.167632497431
0.167631284448
0.167629990377
0.167628573688
0.167627116289
0.167625622301
0.16762412611
0.167622640335
0.167621181144
0.167619758454
0.167618380727
0.167617054563
0.167615787024
0.167614588045
0.167613472819
0.167612462268
0.167611578744
0.1676108369
0.167610235962
0.16760975942
0.167609381357
0.167609074412
0.167608815505
0.167608587491
0.167608376018
0.167608170009
0.167607996007
0.164433481297
0.164433278041
0.164432489697
0.164431618339
0.164430477283
0.164429261873
0.164427930088
0.164426560745
0.164425156584
0.164423750591
0.16442235425
0.164420982947
0.164419645919
0.164418351222
0.164417105291
0.164415915349
0.164414791668
0.164413749636
0.164412809619
0.164411992061
0.164411308781
0.164410756728
0.164410318838
0.164409970367
0.164409686063
0.164409445011
0.164409231838
0.164409033612
0.164408840285
0.164408676929
0.161295207647
0.161295021259
0.161294275079
0.161293455882
0.161292379696
0.16129123516
0.161289979929
0.161288689944
0.161287366766
0.161286042076
0.161284726357
0.161283434283
0.161282174484
0.161280954664
0.161279781144
0.161278661319
0.161277605758
0.161276629949
0.161275753576
0.161274995175
0.161274364007
0.161273855161
0.161273451306
0.161273128902
0.161272864617
0.161272639447
0.161272439555
0.161272253235
0.161272071329
0.161271917569
0.158215868843
0.158215697633
0.158214989696
0.158214217686
0.158213200269
0.158212119881
0.158210933985
0.158209715845
0.158208466002
0.158207214928
0.158205972214
0.158204751883
0.158203562021
0.158202410033
0.158201302166
0.158200245988
0.158199252326
0.158198336678
0.158197517942
0.158196812782
0.158196228166
0.15819575768
0.158195383951
0.158195084634
0.158194838148
0.158194627183
0.158194439233
0.158194263661
0.158194092086
0.158193947012
0.155192036366
0.155191878866
0.155191205753
0.1551904766
0.155189512635
0.155188490537
0.155187367689
0.155186214847
0.155185031679
0.155183847522
0.155182671178
0.155181516067
0.155180389792
0.155179299502
0.155178251401
0.155177253233
0.155176316036
0.155175455236
0.155174688865
0.155174031772
0.15517348889
0.155173052603
0.155172705663
0.155172426896
0.155172196317
0.155171998113
0.15517182095
0.155171655121
0.155171492928
0.155171355747
0.152220599946
0.152220454873
0.152219813582
0.152219123493
0.152218208314
0.152217239372
0.152216174054
0.152215080772
0.152213958437
0.152212835325
0.152211719531
0.15221062392
0.152209555666
0.152208521698
0.152207528203
0.152206583098
0.152205697589
0.152204886951
0.152204168289
0.152203554719
0.152203049373
0.152202643692
0.152202320677
0.152202060285
0.152201843986
0.152201657299
0.152201489917
0.152201332955
0.152201179312
0.152201049328
0.149298727274
0.149298593503
0.149297981389
0.149297327024
0.14929645652
0.149295536216
0.149294523569
0.149293484794
0.149292418145
0.149291350905
0.149290290535
0.149289249389
0.149288234253
0.149287251873
0.149286308445
0.14928541204
0.149284573997
0.149283809369
0.149283134292
0.149282560238
0.149282088759
0.149281710566
0.149281409004
0.149281165112
0.149280961686
0.149280785436
0.149280626958
0.149280478091
0.149280332267
0.149280208868
0.146423830368
0.146423706908
0.146423121627
0.146422500036
0.14642167057
0.146420794908
0.146419830632
0.146418841895
0.146417826381
0.146416810438
0.146415800961
0.146414809824
0.146413843472
0.146412908499
0.146412011119
0.146411159553
0.14641036523
0.146409642917
0.146409007755
0.146408469671
0.146408028839
0.146407675422
0.146407393168
0.146407164153
0.146406972379
0.14640680562
0.146406655275
0.146406513824
0.146406375173
0.146406257818
0.143593537262
0.143593423234
0.143592862703
0.143592271266
0.143591479604
0.143590645038
0.143589725312
0.143588782645
0.143587814222
0.143586845514
0.143585882901
0.143584937817
0.143584016402
0.14358312512
0.143582270222
0.143581460061
0.143580706117
0.143580022815
0.143579424292
0.143578919032
0.143578506013
0.143578174995
0.143577910185
0.143577694631
0.143577513442
0.143577355345
0.143577212453
0.143577077817
0.143576945766
0.143576833974
0.140805667612
0.140805562236
0.140805024593
0.140804460977
0.140803704235
0.140802907601
0.140802029017
0.140801128882
0.140800203943
0.140799278845
0.140798359507
0.140797456947
0.140796577037
0.140795726137
0.140794910538
0.140794138715
0.140793422158
0.140792774903
0.140792210084
0.140791734848
0.140791347135
0.140791036434
0.140790787431
0.140790584102
0.140790412562
0.140790262396
0.140790126355
0.140789997999
0.140789872035
0.140789765377
0.13805821175
0.13805811433
0.13805759791
0.138057060026
0.138056335622
0.13805557409
0.138054733598
0.138053872827
0.138052988145
0.138052103413
0.138051224134
0.138050360941
0.138049519468
0.138048705987
0.138047926839
0.138047190602
0.138046508743
0.138045894866
0.138045361114
0.138044913399
0.138044548773
0.13804425655
0.13804402192
0.138043829728
0.138043667012
0.13804352413
0.138043394403
0.138043271848
0.138043151516
0.138043049608
0.135349312566
0.135349222479
0.135348725782
0.135348211755
0.135347517368
0.135346788397
0.135345983255
0.135345159005
0.135344311677
0.135343464399
0.13534262229
0.135341795629
0.135340989836
0.135340211114
0.135339465857
0.135338762731
0.135338113145
0.135337530233
0.135337025172
0.135336602738
0.135336259223
0.135335983854
0.13533576233
0.135335580315
0.135335425692
0.13533528952
0.135335165628
0.135335048446
0.135334933335
0.135334835833
0.132677249869
0.132677166556
0.13267668823
0.132676196373
0.13267552991
0.132674831212
0.132674058948
0.132673268656
0.132672456068
0.132671643618
0.132670836078
0.132670043393
0.132669270796
0.132668524439
0.132667810765
0.132667138514
0.132666519002
0.132665964871
0.132665486354
0.13266508719
0.132664763024
0.132664503067
0.132664293529
0.132664120841
0.132663973662
0.132663843684
0.132663725198
0.132663613005
0.132663502745
0.132663409339
0.130040426572
0.130040349529
0.130039888351
0.130039417138
0.130038776707
0.130038106212
0.130037364592
0.130036605941
0.13003582573
0.130035045734
0.13003427041
0.130033509393
0.13003276775
0.130032051591
0.130031367413
0.13003072401
0.130030132578
0.130029605242
0.130029151325
0.130028773622
0.13002846723
0.130028221401
0.130028022853
0.130027858736
0.130027718422
0.130027594179
0.130027480713
0.130027373161
0.130027267418
0.130027177826
0.127437356835
0.127437285607
0.127436840466
0.127436388515
0.127435772399
0.127435128233
0.127434415232
0.127433686123
0.127432936146
0.127432186453
0.127431441213
0.12743070977
0.12742999705
0.127429309127
0.127428652551
0.127428036155
0.127427470985
0.127426968636
0.127426537555
0.127426179679
0.127425889649
0.127425656802
0.127425468355
0.127425312135
0.127425178168
0.127425059247
0.127424950452
0.127424847227
0.127424745699
0.127424659667
0.12486665547
0.124866589644
0.12486615953
0.124865725587
0.124865132226
0.124864512685
0.12486382646
0.124863124985
0.124862403294
0.12486168195
0.124860964856
0.124860261087
0.124859575442
0.124858913972
0.124858283276
0.124857692208
0.12485715164
0.124856672626
0.124856262777
0.124855923251
0.124855648313
0.124855427423
0.124855248284
0.124855099357
0.124854971271
0.124854857298
0.124854752859
0.124854653676
0.124854556089
0.124854473386
0.12232702873
0.122326967933
0.122326551925
0.122326134846
0.122325562818
0.122324966351
0.122324305224
0.122323629645
0.122322934465
0.122322239687
0.122321548973
0.122320871145
0.122320210894
0.122319574252
0.122318967864
0.12231840059
0.122317883104
0.122317425912
0.122317035833
0.122316713321
0.12231645233
0.122316242474
0.12231607193
0.122315929754
0.122315807131
0.122315697769
0.1223155974
0.122315502
0.122315408103
0.122315328519
0.119817266022
0.119817209913
0.119816807168
0.119816405908
0.119815853913
0.119815279102
0.119814641539
0.119813990267
0.119813319975
0.119812650137
0.119811984188
0.11981133072
0.119810694325
0.119810081027
0.119809497508
0.119808952622
0.119808456823
0.119808020067
0.119807648422
0.119807341708
0.119807093631
0.119806893979
0.11980673139
0.119806595476
0.119806477937
0.11980637288
0.119806276321
0.119806184467
0.119806094031
0.119806017374
0.117336232702
0.11733618097
0.117335790714
0.117335404319
0.117334871166
0.117334316712
0.117333701307
0.117333072888
0.117332425999
0.117331779608
0.117331136948
0.11733050639
0.117329892446
0.117329301131
0.117328739164
0.117328215374
0.117327739976
0.117327322383
0.11732696795
0.117326675929
0.117326439829
0.117326249632
0.117326094421
0.117325964328
0.11732585153
0.1173257505
0.117325657513
0.117325568989
0.117325481806
0.117325407899
0.114882863484
0.114882815845
0.114882437369
0.114882064961
0.114881549556
0.114881014269
0.114880419731
0.114879812831
0.11487918798
0.114878563669
0.114877942942
0.114877333966
0.114876741183
0.114876170602
0.114875628975
0.114875125091
0.114874668911
0.114874269308
0.114873930967
0.114873652631
0.11487342766
0.11487324624
0.114873097884
0.114872973213
0.114872864844
0.114872767588
0.114872677956
0.114872592563
0.114872508442
0.114872437123
0.112456156799
0.112456112991
0.112455745642
0.112455386416
0.112454887753
0.112454370538
0.112453795682
0.112453209074
0.112452605007
0.112452001519
0.112451401478
0.112450812864
0.112450240055
0.112449689061
0.112449166658
0.112448681582
0.112448243527
0.112447860832
0.112447537556
0.112447271987
0.112447057371
0.112446884115
0.112446742139
0.112446622528
0.112446518305
0.112446424591
0.112446338115
0.112446255672
0.112446174436
0.112446105557
0.110055169512
0.110055129297
0.110054772472
0.110054425686
0.11005394284
0.110053442689
0.110052886421
0.110052318975
0.110051734538
0.110051150714
0.110050570211
0.110050000833
0.110049446907
0.110048914442
0.110048410233
0.110047942951
0.110047522008
0.110047155224
0.110046846068
0.110046592423
0.11004638746
0.110046221808
0.110046085784
0.110045970903
0.110045870566
0.110045780182
0.110045696679
0.110045617019
0.110045538505
0.11004547193
0.107679012316
0.107678975475
0.107678628617
0.107678293587
0.107677825702
0.107677341683
0.107676802995
0.107676253667
0.107675687792
0.107675122563
0.10767456054
0.10767400936
0.107673473309
0.107672958395
0.107672471428
0.107672020998
0.107671616229
0.107671264432
0.107670968526
0.107670726035
0.107670530082
0.107670371526
0.107670241061
0.107670130608
0.107670033921
0.107669946673
0.107669865974
0.107669788943
0.107669713002
0.107669648603
0.105326845462
0.105326811792
0.105326474386
0.105326150479
0.105325696761
0.105325228015
0.105324705972
0.105324173797
0.105323625497
0.105323077872
0.105322533347
0.105321999407
0.105321480297
0.10532098203
0.10532051142
0.105320076969
0.105319687502
0.105319349836
0.105319066377
0.105318834332
0.105318646803
0.105318494878
0.105318369614
0.105318263314
0.105318170059
0.105318085768
0.105318007719
0.105317933173
0.105317859667
0.105317797329
0.102997875047
0.102997844361
0.102997515928
0.102997202557
0.102996762274
0.102996308001
0.102995801737
0.102995285821
0.102994754181
0.102994223245
0.102993695309
0.102993177718
0.102992674686
0.102992192226
0.102991737155
0.102991317869
0.102990942893
0.102990618565
0.102990346812
0.102990124562
0.102989944918
0.102989799199
0.10298967881
0.102989576411
0.102989486389
0.102989404889
0.102989329347
0.102989257154
0.102989185955
0.102989125568
0.100691349519
0.100691321644
0.100691001739
0.10069069836
0.100690270828
0.10068983029
0.100689339001
0.100688838513
0.100688322684
0.100687807585
0.100687295397
0.100686793331
0.100686305574
0.100685838143
0.100685397846
0.10068499297
0.10068463173
0.100684320003
0.10068405927
0.100683846216
0.100683673963
0.100683534062
0.100683418248
0.100683319518
0.100683232545
0.100683153685
0.100683080516
0.100683010555
0.100682941543
0.100682883009
0.0984065567523
0.0984065315273
0.0984062197381
0.098405925846
0.0984055104327
0.0984050829399
0.0984046058804
0.0984041200503
0.0984036192431
0.0984031191916
0.0984026219684
0.0984021346611
0.0984016614355
0.0984012083075
0.098400782076
0.0984003909022
0.0984000426945
0.0983997428826
0.0983994925369
0.0983992881263
0.0983991228113
0.0983989883698
0.0983988768556
0.0983987815825
0.0983986974895
0.0983986211275
0.0983985502098
0.0983984823669
0.098398415432
0.098398358656
0.0961428211044
0.0961427983819
0.0961424943233
0.0961422094488
0.0961418055649
0.0961413904787
0.0961409269536
0.0961404550638
0.0961399685447
0.0961394828054
0.0961389998188
0.096138526558
0.0961380671701
0.0961376276711
0.0961372148415
0.0961368367109
0.096136500878
0.0961362123436
0.0961359717963
0.0961357755198
0.0961356167249
0.0961354874153
0.0961353799478
0.0961352879354
0.0961352065657
0.0961351325716
0.0961350637907
0.0961349979602
0.0961349329997
0.0961348778954
0.0938995008853
0.0938994805276
0.0938991838401
0.0938989075451
0.0938985146408
0.0938981113647
0.0938976607259
0.0938972021074
0.0938967291917
0.0938962570792
0.0938957876504
0.0938953277718
0.0938948815752
0.0938944550751
0.093894055028
0.0938936893229
0.0938933652501
0.0938930873984
0.0938928561037
0.0938926674897
0.0938925148298
0.0938923903497
0.0938922866958
0.0938921977629
0.0938921189716
0.0938920472244
0.093891980474
0.0938919165577
0.0938918534758
0.0938917999624
0.0916759859859
0.0916759678646
0.0916756782121
0.0916754100877
0.091675027649
0.0916746356257
0.0916741972678
0.0916737512956
0.0916732913436
0.0916728322175
0.0916723757125
0.0916719285956
0.0916714949863
0.0916710808958
0.0916706930506
0.0916703391922
0.0916700263035
0.0916697585793
0.0916695360294
0.0916693546412
0.0916692077603
0.0916690878306
0.0916689877749
0.0916689017541
0.0916688254069
0.0916687557939
0.0916686909752
0.0916686288813
0.0916685675887
0.0916685155907
0.0894716957563
0.0894716797522
0.0894713968203
0.0894711364843
0.0894707640307
0.0894703827395
0.0894699560961
0.0894695221859
0.0894690745997
0.0894686278614
0.0894681836876
0.0894677487526
0.0894673271656
0.0894669249332
0.0894665487456
0.0894662061905
0.0894659039461
0.0894656458306
0.0894654315532
0.0894652569858
0.0894651155549
0.0894649999177
0.0894649032612
0.0894648199974
0.0894647459695
0.0894646783859
0.0894646154065
0.0894645550495
0.0894644954627
0.0894644449095
0.0872860770488
0.0872860630502
0.0872857865438
0.0872855336382
0.0872851707196
0.0872847996725
0.0872843842135
0.0872839618184
0.087283526038
0.0872830911272
0.08728265873
0.0872822354344
0.0872818253409
0.0872814344496
0.0872810694089
0.0872807376467
0.0872804455405
0.0872801965485
0.0872799901038
0.0872798219816
0.0872796856959
0.0872795741127
0.0872794806712
0.0872794000205
0.0872793281961
0.0872792625441
0.087279201318
0.0872791426177
0.0872790846587
0.0872790354842
0.085118602533
0.0851185904359
0.0851183200784
0.085118074268
0.0851177204625
0.0851173592028
0.0851169544314
0.0851165430389
0.0851161185397
0.0851156949318
0.0851152737918
0.0851148616272
0.0851144625316
0.0851140824964
0.0851137281226
0.0851134066736
0.0851131242301
0.0851128839078
0.0851126848857
0.0851125228595
0.0851123914365
0.0851122836864
0.085112193289
0.0851121151179
0.0851120453889
0.0851119815774
0.085111922024
0.0851118649056
0.085111808501
0.0851117606436
0.0829687690164
0.0829687587243
0.0829684942571
0.0829682552288
0.0829679101417
0.0829675582418
0.0829671636926
0.0829667628228
0.0829663491135
0.0829659363168
0.0829655259475
0.0829651244377
0.0829647358751
0.0829643662407
0.0829640220827
0.0829637104953
0.0829634372679
0.0829632051903
0.0829630132082
0.0829628569535
0.0829627301309
0.0829626260089
0.0829625384972
0.0829624626813
0.0829623949472
0.082962332891
0.0829622749348
0.0829622193279
0.0829621644093
0.0829621178108
0.0808360958278
0.0808360872498
0.0808358284287
0.0808355958876
0.0808352591472
0.0808349162047
0.0808345314402
0.0808341406418
0.0808337372603
0.0808333348129
0.0808329347571
0.0808325434546
0.0808321649881
0.080831805326
0.0808314709583
0.0808311688069
0.0808309043755
0.0808306801438
0.0808304948443
0.0808303440585
0.0808302215926
0.0808301209082
0.0808300361346
0.0808299625583
0.0808298967249
0.0808298363442
0.0808297799145
0.0808297257532
0.080829672256
0.080829626862
0.0787201235374
0.0787201165883
0.0787198631833
0.0787196368518
0.0787193081081
0.0787189737444
0.0787185983525
0.0787182172006
0.078717823712
0.0787174311789
0.0787170410063
0.0787166594898
0.0787162907078
0.0787159406138
0.0787156156348
0.0787153225175
0.0787150664859
0.0787148497256
0.0787146707739
0.0787145251747
0.0787144068383
0.0787143094141
0.0787142272412
0.0787141557963
0.0787140917756
0.0787140329956
0.0787139780259
0.0787139252483
0.0787138731119
0.0787138288711
0.0766204125779
0.0766204071781
0.0766201589729
0.0766199385903
0.0766196175141
0.0766192913727
0.0766189249657
0.0766185530604
0.0766181690552
0.076617786027
0.0766174053325
0.0766170332054
0.0766166737201
0.0766163328129
0.0766160168432
0.0766157323803
0.0766154843749
0.0766152747341
0.0766151018168
0.0766149611406
0.0766148467221
0.0766147523926
0.0766146726923
0.0766146032778
0.0766145409875
0.0766144837379
0.0766144301659
0.0766143787135
0.076614327881
0.0766142847451
0.0745365420891
0.0745365381635
0.0745362949532
0.074536080273
0.0745357665533
0.0745354482981
0.0745350905101
0.0745347274743
0.0745343525665
0.0745339786576
0.0745336070595
0.0745332439481
0.0745328933939
0.0745325613137
0.0745322539947
0.0745319778275
0.0745317374962
0.074531534644
0.0745313674677
0.0745312314683
0.07453112077
0.0745310293814
0.074530952034
0.0745308845555
0.0745308239184
0.0745307681334
0.0745307159002
0.0745306657182
0.0745306161358
0.0745305740595
0.0724681089189
0.0724681063966
0.0724678679878
0.0724676587775
0.0724673521208
0.0724670414346
0.0724666919203
0.0724663373982
0.0724659712236
0.0724656060701
0.0724652432085
0.0724648887602
0.0724645467919
0.0724642231985
0.072463924191
0.07246365598
0.0724634229903
0.0724632266154
0.0724630649048
0.0724629333518
0.0724628261895
0.0724627375977
0.0724626624914
0.0724625968606
0.0724625378043
0.0724624834219
0.0724624324723
0.0724623835089
0.072462335126
0.0724622940663
0.0704147266047
0.0704147254204
0.0704144916319
0.0704142876739
0.0704139878047
0.0704136843894
0.0704133428238
0.0704129964806
0.0704126386963
0.0704122819555
0.0704119274912
0.0704115813736
0.0704112476653
0.0704109322373
0.0704106412203
0.0704103806444
0.0704101546824
0.0704099644917
0.0704098079885
0.0704096806663
0.0704095768676
0.0704094909382
0.0704094179686
0.0704093541026
0.070409296559
0.0704092435208
0.0704091938028
0.0704091460092
0.0704090987779
0.0704090586944
0.0683760242647
0.0683760243562
0.0683757950156
0.0683755961032
0.0683753027602
0.0683750063332
0.068374672409
0.0683743339277
0.0683739842092
0.0683736355569
0.0683732891693
0.0683729510679
0.0683726253116
0.0683723177444
0.0683720344135
0.0683717811683
0.0683715619371
0.0683713776546
0.0683712261161
0.0683711028227
0.0683710022262
0.0683709188334
0.0683708479024
0.0683707857235
0.0683707296287
0.0683706778798
0.0683706293439
0.068370582674
0.0683705365492
0.0683704974037
0.0663516458605
0.0663516471686
0.0663514221116
0.0663512280483
0.066350940983
0.0663506512762
0.0663503247012
0.066349993781
0.0663496518204
0.0663493109492
0.0663489723342
0.0663486419511
0.0663483238541
0.0663480238585
0.0663477479243
0.0663475017207
0.066347288939
0.0663471103037
0.0663469635014
0.066346844047
0.0663467465013
0.066346665527
0.0663465965426
0.0663465359776
0.0663464812713
0.0663464307597
0.0663463833596
0.0663463377698
0.0663462927086
0.066346254465
0.0643412493432
0.0643412518128