/*--------------------------------*- C++ -*----------------------------------*\
| =========                 |                                                 |
| \\      /  F ield         | OpenFOAM: The Open Source CFD Toolbox           |
|  \\    /   O peration     | Version:  2206                                  |
|   \\  /    A nd           | Website:  www.openfoam.com                      |
|    \\/     M anipulation  |                                                 |
\*---------------------------------------------------------------------------*/
FoamFile
{
    version     2.0;
    format      ascii;
    arch        "LSB;label=32;scalar=64";
    class       surfaceScalarField;
    location    "200";
    object      phi;
}
// * * * * * * * * * * * * * * * * * * * * * * * * * * * * * * * * * * * * * //

dimensions      [0 3 -1 0 0 0 0];

oriented        oriented;

internalField   nonuniform List<scalar> 
5870
(
-2.62252904738e-08
1.26032276801e-06
-9.82008271981e-08
3.4046675854e-06
-2.06755104244e-07
5.05768459012e-06
-3.44779464177e-07
6.30551510034e-06
-5.06519892506e-07
7.22023297613e-06
-6.87136790499e-07
7.86215154305e-06
-8.82446098457e-07
8.28173860846e-06
-1.08876476185e-06
8.5211944538e-06
-1.30281979699e-06
8.61576766347e-06
-1.5216956609e-06
8.59485714225e-06
-1.74280373256e-06
8.48293744119e-06
-1.96386357675e-06
8.30033717995e-06
-2.18288952385e-06
8.06389474919e-06
-2.39817872577e-06
7.7875112981e-06
-2.60829863207e-06
7.48261755759e-06
-2.81207261179e-06
7.15856785489e-06
-3.0085610639e-06
6.82297069492e-06
-3.19703497097e-06
6.48196461263e-06
-3.37695908298e-06
6.14046732421e-06
-3.54806471104e-06
5.80246758844e-06
-3.71061045228e-06
5.47138374643e-06
-3.86556114618e-06
5.15012571286e-06
-4.01326842756e-06
4.83971756561e-06
-4.14773168372e-06
4.53497965493e-06
-4.2436146849e-06
4.2173696245e-06
-4.23711307472e-06
3.84890477845e-06
-4.00863520429e-06
3.37403523325e-06
-3.37945719068e-06
2.73366805224e-06
-2.1281032058e-06
1.88493402358e-06
7.94496394822e-07
-2.0561740708e-08
1.28088450881e-06
-7.55378138393e-08
3.45964365852e-06
-1.56661927995e-07
5.13880870435e-06
-2.56916913377e-07
6.40577008587e-06
-3.70494889506e-07
7.33381095237e-06
-4.92698881191e-07
7.98435553502e-06
-6.19812971089e-07
8.40885269852e-06
-7.48966308909e-07
8.6503477918e-06
-8.78001190049e-07
8.74480254467e-06
-1.00534991764e-06
8.72220586959e-06
-1.12992284947e-06
8.60751037346e-06
-1.25100880965e-06
8.42142313943e-06
-1.36818825219e-06
8.18107419257e-06
-1.48125912678e-06
7.90058217203e-06
-1.59017482757e-06
7.59153325832e-06
-1.69499222141e-06
7.26338524876e-06
-1.79582647433e-06
6.9238049477e-06
-1.89282203088e-06
6.57896016919e-06
-1.98619324084e-06
6.23383853508e-06
-2.07638702533e-06
5.89266137283e-06
-2.16406055773e-06
5.55905727818e-06
-2.24855138843e-06
5.23461654385e-06
-2.32258721652e-06
4.91375339421e-06
-2.36258383701e-06
4.57497627476e-06
-2.31989669128e-06
4.17468247874e-06
-2.12553787372e-06
3.65454596093e-06
-1.72072290227e-06
2.96922026203e-06
-1.11278338818e-06
2.12572853821e-06
-4.36108570957e-07
1.20825920654e-06
3.58387823776e-07
-1.0606700346e-08
1.29149120925e-06
-3.8867926841e-08
3.4879048851e-06
-8.11528147007e-08
5.18109359224e-06
-1.34501986651e-07
6.45911925782e-06
-1.9649717405e-07
7.39580613971e-06
-2.65157499101e-07
8.05301586005e-06
-3.38848302461e-07
8.48254350177e-06
-4.16207011686e-07
8.72770650091e-06
-4.96084829173e-07
8.82468036198e-06
-5.77502080334e-07
8.80362312044e-06
-6.59615045676e-07
8.68962333878e-06
-7.41692086489e-07
8.50350017973e-06
-8.23096982485e-07
8.26247908872e-06
-9.03277639172e-07
7.98076282825e-06
-9.81758076621e-07
7.67001369556e-06
-1.05813070998e-06
7.33975788195e-06
-1.13205091116e-06
6.99772514865e-06
-1.20326372445e-06
6.65017298233e-06
-1.27171065747e-06
6.30228546835e-06
-1.33754691955e-06
5.95849763472e-06
-1.40013275469e-06
5.62164311289e-06
-1.45423552309e-06
5.28871931227e-06
-1.48298233027e-06
4.94250020152e-06
-1.45246081755e-06
4.54445476164e-06
-1.31874231073e-06
4.04096397183e-06
-1.05496436032e-06
3.39076801047e-06
-6.88714441699e-07
2.60297034342e-06
-3.17668904217e-07
1.75468300069e-06
-6.78711300368e-08
9.58461432331e-07
2.90516693596e-07
-1.03183864173e-08
1.30180959564e-06
-3.8400943082e-08
3.51598744152e-06
-8.01948310437e-08
5.22288747974e-06
-1.32376614808e-07
6.51130104096e-06
-1.9219753243e-07
7.45562705657e-06
-2.57371946249e-07
8.11819027306e-06
-3.26000000566e-07
8.5511715552e-06
-3.96509400406e-07
8.79821589983e-06
-4.67609977903e-07
8.89578093852e-06
-5.38256393975e-07
8.87426953548e-06
-6.07616171515e-07
8.7589831155e-06
-6.75041386775e-07
8.57092539388e-06
-7.40043120811e-07
8.32748082214e-06
-8.0226814877e-07
8.0429878552e-06
-8.6147680504e-07
7.72922235104e-06
-9.17521542307e-07
7.39580261851e-06
-9.70338851092e-07
7.05054245673e-06
-1.01999290988e-06
6.69982704052e-06
-1.06672526666e-06
6.34901782489e-06
-1.11047710226e-06
6.00224946979e-06
-1.14855525818e-06
5.65972126813e-06
-1.1705679719e-06
5.3107320257e-06
-1.15362741494e-06
4.92555964438e-06
-1.06614125983e-06
4.45696860599e-06
-8.86802657238e-07
3.86162536895e-06
-6.30974235974e-07
3.13493958896e-06
-3.5943253445e-07
2.3314286417e-06
-1.47594431839e-07
1.54284489786e-06
-3.27574677621e-08
8.43624468055e-07
2.57759225696e-07
-8.83849325963e-09
1.31064808881e-06
-3.27950774838e-08
3.53994402543e-06
-6.82288656325e-08
5.25832126749e-06
-1.12120198926e-07
6.5551923738e-06
-1.61993984164e-07
7.50550084131e-06
-2.15844018445e-07
8.17204030687e-06
-2.72063853662e-07
8.6073913899e-06
-3.29383115347e-07
8.855535161e-06
-3.86810809025e-07
8.95320863167e-06
-4.43585657523e-07
8.93104438339e-06
-4.99133412559e-07
8.81453087016e-06
-5.5303074095e-07
8.6248227216e-06
-6.04975108495e-07
8.37942518947e-06
-6.54759739889e-07
8.09277248599e-06
-7.02252077949e-07
7.7767146887e-06
-7.47377992902e-07
7.44092853312e-06
-7.90131954543e-07
7.093296418e-06
-8.30624693682e-07
6.74031977937e-06
-8.68943375257e-07
6.38733650646e-06
-9.03970729296e-07
6.03727682357e-06
-9.30067925249e-07
5.68581846369e-06
-9.32683908899e-07
5.31334800925e-06
-8.88562405857e-07
4.88143814132e-06
-7.77203501495e-07
4.34560970131e-06
-6.00654697139e-07
3.68507656445e-06
-3.94210354746e-07
2.92849524645e-06
-2.10343565868e-07
2.14756185273e-06
-8.43731614933e-08
1.41687449338e-06
-1.86645940565e-08
7.7791590053e-07
2.39094631679e-07
-7.19040538542e-09
1.31783849411e-06
-2.65688812767e-08
3.55932250104e-06
-5.53389246492e-08
5.28709131052e-06
-9.11880936348e-08
6.59104154241e-06
-1.32215091437e-07
7.54652783869e-06
-1.76865967399e-07
8.21669118242e-06
-2.23878022181e-07
8.65440344423e-06
-2.72231517561e-07
8.90388865594e-06
-3.21108904493e-07
9.00208601814e-06
-3.69860422002e-07
8.97979590038e-06
-4.1797529569e-07
8.8626457435e-06
-4.65057694388e-07
8.67190511971e-06
-5.10806656309e-07
8.42517415118e-06
-5.54998930819e-07
8.13696475998e-06
-5.97474012228e-07
7.81918976974e-06
-6.38128417647e-07
7.48158293822e-06
-6.76939099803e-07
7.13210709984e-06
-7.13958554068e-07
6.77733923337e-06
-7.48841160772e-07
6.42221911314e-06
-7.78942172827e-07
6.06737783538e-06
-7.95761135608e-07
5.70263742612e-06
-7.82819359787e-07
5.30040623333e-06
-7.2096677592e-07
4.81958555741e-06
-6.02573372175e-07
4.2272162973e-06
-4.44194935687e-07
3.52669812782e-06
-2.82146331543e-07
2.7664466422e-06
-1.50256084835e-07
2.01567160593e-06
-6.19837973634e-08
1.32860220581e-06
-1.43156318183e-08
7.302477349e-07
2.24778999904e-07
-6.62945877954e-09
1.32446795291e-06
-2.45091638249e-08
3.57720220623e-06
-5.10700053527e-08
5.31365215245e-06
-8.41898461301e-08
6.62416138378e-06
-1.22120816239e-07
7.58445880951e-06
-1.63429418319e-07
8.25799978534e-06
-2.06945940024e-07
8.69791996681e-06
-2.51721889697e-07
8.94866460652e-06
-2.96994256203e-07
9.04735838554e-06
-3.42155212568e-07
9.02495685758e-06
-3.86726470614e-07
8.9072170025e-06
-4.30337534293e-07
8.71551618409e-06
-4.72707176884e-07
8.46754379475e-06
-5.13627245194e-07
8.17788482892e-06
-5.5294974826e-07
7.85851227352e-06
-5.90588279708e-07
7.51922147035e-06
-6.26536999937e-07
7.16805582066e-06
-6.60740673793e-07
6.8115429078e-06
-6.92193273372e-07
6.45367171344e-06
-7.16519344458e-07
6.09170390692e-06
-7.23046161852e-07
5.70916424379e-06
-6.95675146837e-07
5.27303521876e-06
-6.21529312666e-07
4.74543972368e-06
-5.03307465094e-07
4.10899444994e-06
-3.63036142034e-07
3.38642680505e-06
-2.3019794249e-07
2.63360844293e-06
-1.24895306822e-07
1.91036897053e-06
-5.30123029413e-08
1.25671920216e-06
-1.26889342984e-08
6.89924366469e-07
2.12090065751e-07
-6.279240859e-09
1.33074719381e-06
-2.32414255267e-08
3.59416439097e-06
-4.84227496818e-08
5.33883347676e-06
-7.9788569629e-08
6.65552720394e-06
-1.15666088638e-07
7.62033632877e-06
-1.54687325025e-07
8.29702102203e-06
-1.95740234309e-07
8.73897287639e-06
-2.37927022225e-07
8.99085139474e-06
-2.80528792562e-07
9.08996015616e-06
-3.22975523371e-07
9.06740358862e-06
-3.64820730449e-07
8.94906220992e-06
-4.0572010989e-07
8.75641556366e-06
-4.45413429644e-07
8.5072371149e-06
-4.83708982339e-07
8.21618038172e-06
-5.2047364777e-07
7.89527693915e-06
-5.55639569111e-07
7.55438739189e-06
-5.89192334602e-07
7.20160858631e-06
-6.2084533534e-07
6.84319590871e-06
-6.48709555849e-07
6.48153593428e-06
-6.66742247115e-07
6.10973659831e-06
-6.63167159293e-07
5.70558915596e-06
-6.24125744986e-07
5.23399380462e-06
-5.43285917976e-07
4.66459989686e-06
-4.29918717486e-07
3.99562724944e-06
-3.05980145803e-07
3.26248823346e-06
-1.93550501012e-07
2.52117879822e-06
-1.05262880204e-07
1.82208134981e-06
-4.46804943676e-08
1.1961368164e-06
-1.06296240269e-08
6.55873496192e-07
2.01460441737e-07
-5.87410367164e-09
1.33662129759e-06
-2.17428108573e-08
3.61003309834e-06
-4.53044644415e-08
5.3623951305e-06
-7.46589134344e-08
6.68488165306e-06
-1.082439099e-07
7.65392132532e-06
-1.44781445261e-07
8.33355855748e-06
-1.83231881391e-07
8.77742331257e-06
-2.22755063358e-07
9.03037457674e-06
-2.62677418155e-07
9.12988251096e-06
-3.02464089909e-07
9.10719026031e-06
-3.41695459667e-07
8.98829357973e-06
-3.80047339513e-07
8.79476744334e-06
-4.17274108767e-07
8.54446388426e-06
-4.5319470445e-07
8.25210097725e-06
-4.87686526189e-07
7.92976876083e-06
-5.20690923618e-07
7.58739178928e-06
-5.52136195855e-07
7.23305385847e-06
-5.81368038761e-07
6.87242775157e-06
-6.05492229373e-07
6.50566012501e-06
-6.17131584903e-07
6.12137595377e-06
-6.04539468671e-07
5.69299703956e-06
-5.57153106335e-07
5.1866074423e-06
-4.74206832102e-07
4.58165362267e-06
-3.68250766316e-07
3.88967118355e-06
-2.58851179801e-07
3.15308864691e-06
-1.62456791163e-07
2.42478440956e-06
-8.77168647333e-08
1.74734142336e-06
-3.69117575401e-08
1.14533170918e-06
-8.67965923897e-09
6.27641397866e-07
1.92780782345e-07
-5.52492775146e-09
1.34214622536e-06
-2.0444790117e-08
3.62495296062e-06
-4.26004198313e-08
5.38455075996e-06
-7.020917704e-08
6.71249040989e-06
-1.01804953082e-07
7.68551710088e-06
-1.36187823142e-07
8.36794142701e-06
-1.72381039257e-07
8.81361652809e-06
-2.09594706046e-07
9.06758824291e-06
-2.4719504948e-07
9.16748285374e-06
-2.84678406946e-07
9.14467361707e-06
-3.21649293765e-07
9.02526446596e-06
-3.57801853863e-07
8.83092000268e-06
-3.92904051263e-07
8.57956608119e-06
-4.26785414655e-07
8.28598233994e-06
-4.59334096584e-07
7.9623174422e-06
-4.90489789716e-07
7.61854748189e-06
-5.20066339259e-07
7.2626304075e-06
-5.46927017046e-07
6.89928842891e-06
-5.67174733631e-07
6.52590784135e-06
-5.72581844244e-07
6.12678306399e-06
-5.52340537352e-07
5.67275573222e-06
-4.99437492079e-07
5.13370439676e-06
-4.17197281382e-07
4.49941341176e-06
-3.19208873826e-07
3.79168277566e-06
-2.22149458472e-07
3.05602923131e-06
-1.38514585314e-07
2.34114953618e-06
-7.44681899811e-08
1.68329502783e-06
-3.12707411655e-08
1.10213426017e-06
-7.35649876059e-09
6.03727155294e-07
1.85424283424e-07
-5.24894399414e-09
1.34739516926e-06
-1.94228300504e-08
3.63912684637e-06
-4.04705352255e-08
5.40559846469e-06
-6.66985681276e-08
6.73871844227e-06
-9.67141879724e-08
7.71553272013e-06
-1.29377608718e-07
8.40060484714e-06
-1.63761115232e-07
8.84800003394e-06
-1.99114547788e-07
9.1029416748e-06
-2.34836066039e-07
9.20320437132e-06
-2.70447420154e-07
9.18028497048e-06
-3.05573092685e-07
9.06039013792e-06
-3.39922635975e-07
8.86526954525e-06
-3.73275749935e-07
8.6129191947e-06
-4.0547189267e-07
8.31817848203e-06
-4.36408213568e-07
7.99325376258e-06
-4.66004800738e-07
7.64814406859e-06
-4.93898054547e-07
7.29052366086e-06
-5.18389807867e-07
6.92378018184e-06
-5.34689412654e-07
6.54220744593e-06
-5.34235821811e-07
6.12632947281e-06
-5.07749252372e-07
5.64626916238e-06
-4.51493533961e-07
5.07744867812e-06
-3.71471461029e-07
4.41939133864e-06
-2.81043117752e-07
3.70125443209e-06
-1.94214827415e-07
2.96920094076e-06
-1.20657962301e-07
2.26759267087e-06
-6.48140814669e-08
1.62745114682e-06
-2.72573310612e-08
1.06457750961e-06
-6.43577858608e-09
5.82905602684e-07
1.78988504849e-07
-5.01329214866e-09
1.35240846132e-06
-1.85520453961e-08
3.65266559937e-06
-3.86566052724e-08
5.42570302432e-06
-6.3709073494e-08
6.76377091024e-06
-9.23789558528e-08
7.74420260223e-06
-1.23577442209e-07
8.43180333328e-06
-1.56418321127e-07
8.88084091263e-06
-1.90185008785e-07
9.13670836225e-06
-2.24302603045e-07
9.23732196536e-06
-2.58314262391e-07
9.21429662958e-06
-2.91861271614e-07
9.09393714701e-06
-3.24666150062e-07
8.89807442341e-06
-3.56518658057e-07
8.64477170266e-06
-3.87267213171e-07
8.3489270369e-06
-4.16813634953e-07
8.02280018421e-06
-4.4503381189e-07
7.67636424542e-06
-4.71325212987e-07
7.31681506183e-06
-4.9339397489e-07
6.94584894365e-06
-5.05742689711e-07
6.55455616081e-06
-4.99947710416e-07
6.12053449342e-06
-4.68550734133e-07
5.61487218594e-06
-4.10573169137e-07
5.0194711131e-06
-3.33583181603e-07
4.3424013511e-06
-2.50101510756e-07
3.61777276113e-06
-1.71863838487e-07
2.89096326844e-06
-1.06463367736e-07
2.20219220007e-06
-5.71313351327e-08
1.57811911419e-06
-2.40259162365e-08
1.03147209068e-06
-5.67421664131e-09
5.64553903068e-07
1.73314288325e-07
-4.80223623566e-09
1.35721069756e-06
-1.77713021388e-08
3.66563466532e-06
-3.7030126536e-08
5.44496184891e-06
-6.10290227782e-08
6.78776980678e-06
-8.84936059096e-08
7.77166718573e-06
-1.18380954927e-07
8.46169068273e-06
-1.49842166513e-07
8.91230212467e-06
-1.821907876e-07
9.1690569838e-06
-2.14876048249e-07
9.27000722646e-06
-2.47460249821e-07
9.24688083157e-06
-2.79599667809e-07
9.1260765655e-06
-3.11028386547e-07
8.92950314247e-06
-3.41545327193e-07
8.67528864383e-06
-3.71006963484e-07
8.37838867348e-06
-3.99313061796e-07
8.05110628288e-06
-4.26266428041e-07
7.70331761201e-06
-4.50973490553e-07
7.34152212463e-06
-4.70556595585e-07
6.96543204897e-06
-4.7903991389e-07
6.56303947952e-06
-4.68513420434e-07
6.11000800019e-06
-4.33401627729e-07
5.57976039336e-06
-3.74899132657e-07
4.96096861826e-06
-3.01348351459e-07
4.26885057014e-06
-2.24194445102e-07
3.54061885489e-06
-1.53295058704e-07
2.8200638822e-06
-9.46821176058e-08
2.14357925913e-06
-5.0724573007e-08
1.53416156973e-06
-2.13090358899e-08
1.00205655369e-06
-5.02760478482e-09
5.48272472076e-07
1.68286683624e-07
-4.61361258245e-09
1.36182431021e-06
-1.70730636148e-08
3.6780941166e-06
-3.55752939112e-08
5.4634640797e-06
-5.86317173781e-08
6.81082623092e-06
-8.50181990777e-08
7.79805366822e-06
-1.13732920767e-07
8.49040540532e-06
-1.43960408506e-07
8.94252961334e-06
-1.75041216068e-07
9.20013779233e-06
-2.06446211071e-07
9.30141222243e-06
-2.37754862313e-07
9.27818948372e-06
-2.68636888868e-07
9.15695859304e-06
-2.98836790018e-07
8.95970304442e-06
-3.28161937125e-07
8.70461379191e-06
-3.56475445496e-07
8.40670218257e-06
-3.83665709706e-07
8.07829654785e-06
-4.09431782469e-07
7.72908368549e-06
-4.32551713655e-07
7.36464205646e-06
-4.49615713124e-07
6.98249604905e-06
-4.54405252677e-07
6.56782901976e-06
-4.39787597883e-07
6.09539034589e-06
-4.01973818817e-07
5.54194661468e-06
-3.43783421071e-07
4.90277822098e-06
-2.73806210123e-07
4.19887335964e-06
-2.02367177291e-07
3.46917982239e-06
-1.37780569437e-07
2.7554772747e-06
-8.48834592553e-08
2.09068214927e-06
-4.54121445375e-08
1.49469025532e-06
-1.90649284029e-08
9.7570933782e-07
-4.49722622167e-09
5.33704770124e-07
1.63789457494e-07
-4.44550915068e-09
1.36626981943e-06
-1.64509177748e-08
3.69009952531e-06
-3.42790058438e-08
5.48129216779e-06
-5.6495542544e-08
6.8330427676e-06
-8.19211016842e-08
7.82347922729e-06
-1.09590442298e-07
8.51807474585e-06
-1.3871785024e-07
8.97165702116e-06
-1.6866793078e-07
9.23008787274e-06
-1.98930831548e-07
9.33167512304e-06
-2.29101326576e-07
9.30835997854e-06
-2.58861130988e-07
9.18671839733e-06
-2.8796411071e-07
8.98880602388e-06
-3.16225372381e-07
8.73287505352e-06
-3.43512435282e-07
8.43398924522e-06
-3.69690616995e-07
8.10447472939e-06
-3.94325317064e-07
7.7537183854e-06
-4.15846272367e-07
7.3861630116e-06
-4.30392537439e-07
6.99704231398e-06
-4.31721269146e-07
6.56915775146e-06
-4.13634852923e-07
6.07730392954e-06
-3.73945694428e-07
5.502257456e-06
-3.16631605414e-07
4.8454641319e-06
-2.50196276928e-07
4.13243803111e-06
-1.8389017581e-07
3.40287372115e-06
-1.24757172685e-07
2.69634427149e-06
-7.67051727483e-08
2.04263014926e-06
-4.09977480116e-08
1.45898283051e-06
-1.72072347359e-08
9.5191882448e-07
-4.05978656594e-09
5.20557321897e-07
1.59729670804e-07
-4.29430027475e-09
1.37056411977e-06
-1.58914054101e-08
3.70169663053e-06
-3.31132393429e-08
5.49851400173e-06
-5.45744027287e-08
6.85450393092e-06
-7.91356375535e-08
7.848040462e-06
-1.05864567422e-07
8.54480367558e-06
-1.34002221445e-07
8.999794675e-06
-1.62934821526e-07
9.25902047262e-06
-1.92169847816e-07
9.3609101491e-06
-2.21315836557e-07
9.33750596701e-06
-2.5006530114e-07
9.21546786172e-06
-2.78180621093e-07
9.0169213435e-06
-3.05483902398e-07
8.76017833469e-06
-3.31843898627e-07
8.46034924113e-06
-3.57089324029e-07
8.12972015456e-06
-3.80625141597e-07
7.77725420276e-06
-4.00530564862e-07
7.40606843464e-06
-4.12592539556e-07
7.00910428849e-06
-4.10730503466e-07
6.56729571532e-06
-3.89752844923e-07
6.05632627083e-06
-3.48850364445e-07
5.4613549753e-06
-2.92784920369e-07
4.78939868772e-06
-2.29773189165e-07
4.06942629982e-06
-1.68074946331e-07
3.34117547816e-06
-1.13684500101e-07
2.64195382515e-06
-6.97788260917e-08
1.99872447515e-06
-3.72656834797e-08
1.42646968781e-06
-1.56366647753e-08
9.3028980569e-07
-3.68930660466e-09
5.08609963646e-07
1.56040364052e-07
-4.15692922095e-09
1.37472104892e-06
-1.53830746402e-08
3.7129227757e-06
-3.20540978598e-08
5.51518502458e-06
-5.28289658964e-08
6.87527879851e-06
-7.66049145308e-08
7.87181641012e-06
-1.02479425312e-07
8.57067818583e-06
-1.29717824835e-07
9.02703307396e-06
-1.57725974545e-07
9.28702862175e-06
-1.86027102407e-07
9.38921127637e-06
-2.14242248291e-07
9.36572111228e-06
-2.42073751049e-07
9.24329936397e-06
-2.6929181423e-07
9.04413940605e-06
-2.95724692863e-07
8.78661121291e-06
-3.21238215514e-07
8.48586276321e-06
-3.45609889463e-07
8.15409182804e-06
-3.68062427844e-07
7.79970674072e-06
-3.86338530049e-07
7.42434453644e-06
-3.95979716584e-07
7.01874547467e-06
-3.91216075287e-07
6.5625320738e-06
-3.67867549616e-07
6.03297774484e-06
-3.26275361768e-07
5.4197627871e-06
-2.71696262315e-07
4.73481958803e-06
-2.11946537963e-07
4.00967657525e-06
-1.54391663725e-07
3.28362060366e-06
-1.04155241921e-07
2.59171740313e-06
-6.38338341528e-08
1.95840306719e-06
-3.40649238298e-08
1.39670077731e-06
-1.42891110954e-08
9.10513992802e-07
-3.37104413114e-09
4.97691896554e-07
1.52669319914e-07
-4.03142555589e-09
1.37875247439e-06
-1.49186321014e-08
3.72380998205e-06
-3.10863849991e-08
5.53135277736e-06
-5.12341900743e-08
6.89542660354e-06
-7.42926269834e-08
7.89487484702e-06
-9.93864580077e-08
8.59577201691e-06
-1.25803210795e-07
9.05344982681e-06
-1.5296669194e-07
9.31419210299e-06
-1.80414519211e-07
9.41665910374e-06
-2.07779158703e-07
9.39308575185e-06
-2.34771949793e-07
9.27029215523e-06
-2.61170320034e-07
9.07053777633e-06
-2.86807598089e-07
8.81224849119e-06
-3.11541559792e-07
8.51059672496e-06
-3.35083642328e-07
8.1776339107e-06
-3.56458673281e-07
7.8210817718e-06
-3.73100329317e-07
7.44098619258e-06
-3.80410472984e-07
7.02605561845e-06
-3.73039367149e-07
6.55516096818e-06
-3.47778769153e-07
6.00771714693e-06
-3.05905894159e-07
5.37788991213e-06
-2.52954665595e-07
4.68186835957e-06
-1.96284122701e-07
3.95300603247e-06
-1.4246198972e-07
3.22979847072e-06
-9.58862892701e-08
2.54514170275e-06
-5.86883660357e-08
1.92120514402e-06
-3.12980454916e-08
1.36931045684e-06
-1.31248819988e-08
8.92340829374e-07
-3.09618783999e-09
4.87663202456e-07
1.49573132251e-07
-3.91627951873e-09
1.38266875391e-06
-1.44925204118e-08
3.73438622297e-06
-3.01985313833e-08
5.54705878846e-06
-4.97710041623e-08
6.91499907651e-06
-7.21711040033e-08
7.9172749471e-06
-9.65486179085e-08
8.6201495311e-06
-1.2221143998e-07
9.07911264918e-06
-1.48599839958e-07
9.34058050328e-06
-1.75264638228e-07
9.44332390231e-06
-2.01848787372e-07
9.41966990126e-06
-2.28071914737e-07
9.29651528293e-06
-2.53718112799e-07
9.09618397459e-06
-2.78624405845e-07
8.8371547846e-06
-3.0263453467e-07
8.53460685397e-06
-3.25379545626e-07
8.20037892189e-06
-3.45677477177e-07
7.84137970358e-06
-3.60690633937e-07
7.45599934953e-06
-3.6577988106e-07
7.03114486577e-06
-3.56089525443e-07
6.54547061285e-06
-3.29314823502e-07
5.98094244514e-06
-2.87477253778e-07
5.3360523425e-06
-2.36227286147e-07
4.6306183921e-06
-1.82445772604e-07
3.89922451909e-06
-1.31993566518e-07
3.17934626473e-06
-8.86610978188e-08
2.50180923417e-06
-5.42034867252e-08
1.88674753304e-06
-2.88896119944e-08
1.34399658221e-06
-1.21121790308e-08
8.75563396498e-07
-2.85719894829e-09
4.78408222452e-07
1.46715933372e-07
-3.81015439415e-09
1.3864789084e-06
-1.40997959777e-08
3.74467586489e-06
-2.93802397608e-08
5.56233923282e-06
-4.84224432875e-08
6.9340412808e-06
-7.02157553201e-08
7.93906826002e-06
-9.39330228712e-08
8.64386679964e-06
-1.18900908504e-07
9.10408053584e-06
-1.44574854061e-07
9.36625444988e-06
-1.70517848104e-07
9.46926689739e-06
-1.96382512628e-07
9.44553456678e-06
-2.21896146945e-07
9.32202891829e-06
-2.46848954538e-07
9.12113678306e-06
-2.71079927872e-07
8.86138575895e-06
-2.94412121477e-07
8.55793904836e-06
-3.16383125607e-07
8.22234992683e-06
-3.35602006294e-07
7.86059858503e-06
-3.49004111712e-07
7.46940145563e-06
-3.51996942163e-07
7.03413769687e-06
-3.40262205491e-07
6.53373587687e-06
-3.12314610431e-07
5.95299485063e-06
-2.70754095247e-07
5.29449182778e-06
-2.21231380993e-07
4.58109567835e-06
-1.70150582789e-07
3.84814372137e-06
-1.22748435319e-07
3.13194411766e-06
-8.23040365898e-08
2.46136483583e-06
-5.02658419305e-08
1.85470933874e-06
-2.67772660379e-08
1.32050800664e-06
-1.1224306635e-08
8.60010437379e-07
-2.64765987962e-09
4.69831575937e-07
1.44068273546e-07
-3.7119166565e-09
1.39019082511e-06
-1.37362587176e-08
3.75470020704e-06
-2.86227593962e-08
5.57722573359e-06
-4.71740923969e-08
6.95259261389e-06
-6.84056924284e-08
7.96029986012e-06
-9.15117506645e-08
8.66697285796e-06
-1.15836302154e-07
9.12840508739e-06
-1.40848832684e-07
9.39126698047e-06
-1.66123594861e-07
9.49454165961e-06
-1.91322167908e-07
9.47073313983e-06
-2.16178985132e-07
9.34688573558e-06
-2.40489776168e-07
9.14544757404e-06
-2.64093402162e-07
8.88498938505e-06
-2.86785142143e-07
8.58063078829e-06
-3.07997895833e-07
8.24356268052e-06
-3.26135838048e-07
7.87873652725e-06
-3.37955409407e-07
7.48122102698e-06
-3.38985305846e-07
7.03516759331e-06
-3.25463233844e-07
6.52021380497e-06
-2.96632787501e-07
5.92416440428e-06
-2.55532268977e-07
5.2533913092e-06
-2.07730146745e-07
4.53329355615e-06
-1.59168788054e-07
3.79958236271e-06
-1.14534734141e-07
3.08731006373e-06
-7.66746456149e-08
2.4235047473e-06
-4.67852482236e-08
1.82481994135e-06
-2.49116933094e-08
1.29863445173e-06
-1.04403643243e-08
8.45539108388e-07
-2.46263413988e-09
4.61853845747e-07
1.41605639341e-07
-3.62063884075e-09
1.393811464e-06
-1.33984755869e-08
3.76447804383e-06
-2.79189375895e-08
5.59174619557e-06
-4.60141658293e-08
6.97068784206e-06
-6.67238308141e-08
7.98100952499e-06
-8.92619543835e-08
8.6895109814e-06
-1.12988712594e-07
9.15213184544e-06
-1.37386639898e-07
9.4156649076e-06
-1.62040455489e-07
9.519195475e-06
-1.86620069897e-07
9.49531275401e-06
-2.10866570482e-07
9.37113223601e-06
-2.34580563043e-07
9.16916156632e-06
-2.57598307675e-07
8.90800712958e-06
-2.7968003371e-07
8.60271251406e-06
-3.00144959731e-07
8.26402760635e-06
-3.17201949812e-07
7.89579351717e-06
-3.27477545921e-07
7.49149662292e-06
-3.26682513564e-07
7.03437256081e-06
-3.11609965768e-07
6.50514125713e-06
-2.82141535518e-07
5.89469597389e-06
-2.41637507673e-07
5.21288728118e-06
-1.9552703289e-07
4.48718308127e-06
-1.49313485684e-07
3.75336881542e-06
-1.07198506539e-07
3.04519508446e-06
-7.1661289638e-08
2.38796753031e-06
-4.36905852766e-08
1.7968492369e-06
-2.32542872398e-08
1.27819815362e-06
-9.74410247889e-09
8.32028923556e-07
-2.29830892088e-09
4.54408052126e-07
1.3930733032e-07
-3.535545789e-09
1.39734700975e-06
-1.30835792748e-08
3.77402607718e-06
-2.72628008966e-08
5.60592541699e-06
-4.49328203312e-08
6.98835786125e-06
-6.51558997254e-08
8.0012326041e-06
-8.7164546617e-08
8.711519628e-06
-1.10333983668e-07
9.17530128217e-06
-1.34158909512e-07
9.43948983312e-06
-1.58233801639e-07
9.54327036679e-06
-1.82236347936e-07
9.51931529994e-06
-2.05913850211e-07
9.394809738e-06
-2.2907104708e-07
9.1923187628e-06
-2.51538783368e-07
8.93047486565e-06
-2.7303503446e-07
8.6242087648e-06
-2.92758838931e-07
8.28375141054e-06
-3.08737884341e-07
7.91177256233e-06
-3.17516655628e-07
7.50027539395e-06
-3.15035567737e-07
7.0318914727e-06
-2.9862833384e-07
6.48873402312e-06
-2.68727483145e-07
5.864795123e-06
-2.28919869143e-07
5.17307966695e-06
-1.84457232786e-07
4.44272044477e-06
-1.40430734379e-07
3.70934231688e-06
-1.00614393212e-07
3.00537874312e-06
-6.71737009898e-08
2.35452683795e-06
-4.09245594517e-08
1.77060009524e-06
-2.17739749553e-08
1.25904756902e-06
-9.12241678791e-09
8.19377365297e-07
-2.15159276959e-09
4.47437228028e-07
1.37155737538e-07
-3.45597476618e-09
1.40080298446e-06
-1.2789117719e-08
3.78335922002e-06
-2.66492409685e-08
5.61978554023e-06
-4.39216386379e-08
7.00563025899e-06
-6.36896967093e-08
8.0210006623e-06
-8.52032076967e-08
8.73303313918e-06
-1.07851463766e-07
9.19794953845e-06
-1.31140538037e-07
9.46277890763e-06
-1.54674034423e-07
9.56680386342e-06
-1.78136925168e-07
9.54277819091e-06
-2.01282311641e-07
9.41795512476e-06
-2.23918207175e-07
9.21495465851e-06
-2.45866928795e-07
8.9524235876e-06
-2.66797303375e-07
8.64513913955e-06
-2.85784277728e-07
8.30273838512e-06
-3.00692034362e-07
7.92668031918e-06
-3.080280976e-07
7.50761145738e-06
-3.03997850228e-07
7.02786122551e-06
-2.86450791026e-07
6.47118696418e-06
-2.56289250073e-07
5.8346335822e-06
-2.1724927548e-07
5.13403969247e-06
-1.7438114366e-07
4.39985231311e-06
-1.3239220053e-07
3.66735337391e-06
-9.46789029023e-08
2.9676654456e-06
-6.31377498561e-08
2.32298568503e-06
-3.84402144666e-08
1.74590255997e-06
-2.04452827401e-08
1.2410526374e-06
-8.56454629672e-09
8.07496628951e-07
-2.0199406077e-09
4.40892622428e-07
1.35135797088e-07
-3.38135650424e-09
1.40418434096e-06
-1.25129842737e-08
3.79249084782e-06
-2.60738690807e-08
5.63334642519e-06
-4.29733894693e-08
7.02252977963e-06
-6.23147390174e-08
8.04034201215e-06
-8.33639184523e-08
8.75408231898e-06
-1.05523413142e-07
9.22010903352e-06
-1.28309962471e-07
9.48556545736e-06
-1.51335730693e-07
9.58982963204e-06
-1.74292532763e-07
9.56573499335e-06
-1.96938864855e-07
9.44060145729e-06
-2.19085027607e-07
9.23710082158e-06
-2.40541461116e-07
8.97388002155e-06
-2.60921470545e-07
8.66551914926e-06
-2.791745508e-07
8.3209914657e-06
-2.9302158373e-07
7.94052735242e-06
-2.9897440653e-07
7.51356428046e-06
-2.93527810598e-07
7.02241462985e-06
-2.75015667971e-07
6.45267482188e-06
-2.44736259184e-07
5.80435417365e-06
-2.06512689635e-07
5.0958161231e-06
-1.65180015645e-07
4.35851963934e-06
-1.25090275048e-07
3.62726363354e-06
-8.9306029376e-08
2.9318812001e-06
-5.94921487391e-08
2.29317180456e-06
-3.6198835927e-08
1.72260924732e-06
-1.92472390632e-08
1.22410104068e-06
-8.06164140172e-09
7.96311031417e-07
-1.90126220541e-09
4.34732243344e-07
1.33234534988e-07
-3.31120134669e-09
1.4074955424e-06
-1.22533668269e-08
3.80143301358e-06
-2.55329095964e-08
5.64662596841e-06
-4.2081851047e-08
7.03907872164e-06
-6.10220064751e-08
8.05928216822e-06
-8.163461468e-08
8.77469492789e-06
-1.03334564657e-07
9.24180898422e-06
-1.25648623983e-07
9.50787951742e-06
-1.48197007892e-07
9.61237801667e-06
-1.70677975049e-07
9.58821596118e-06
-1.92855008388e-07
9.46277849135e-06
-2.14539571473e-07
9.25878538524e-06
-2.35526714098e-07
8.99486716488e-06
-2.55368543104e-07
8.68536097879e-06
-2.72890153025e-07
8.33851307616e-06
-2.8569092843e-07
7.95332812834e-06
-2.90323818213e-07
7.5181971707e-06
-2.83588112108e-07
7.01567892419e-06
-2.6426671906e-07
6.43335342933e-06
-2.33987693017e-07
5.77407514798e-06
-1.9661176033e-07
5.05844019073e-06
-1.56752486759e-07
4.31866036613e-06
-1.18434287092e-07
3.58894543421e-06
-8.44238988936e-08
2.89787081218e-06
-5.61859374777e-08
2.26493384342e-06
-3.41683294414e-08
1.70059163953e-06
-1.81624901151e-08
1.20809520158e-06
-7.60638781104e-09
7.85754929301e-07
-1.79383174053e-09
4.28919687432e-07
1.31440703248e-07
-3.24508512078e-09
1.41074062759e-06
-1.2008695749e-08
3.81019662438e-06
-2.50230921707e-08
5.65964036509e-06
-4.12416341985e-08
7.05529726399e-06
-5.98036858139e-08
8.0778442202e-06
-8.00048460457e-08
8.79489608852e-06
-1.01271693034e-07
9.26307583161e-06
-1.23140445253e-07
9.52974827005e-06
-1.45238908713e-07
9.63447648053e-06
-1.67271421641e-07
9.61024847447e-06
-1.89006030382e-07
9.48451310051e-06
-2.10254099324e-07
9.28003345448e-06
-2.30791688504e-07
9.01540475449e-06
-2.501048611e-07
8.70467415165e-06
-2.66897557502e-07
8.35530577286e-06
-2.78670240178e-07
7.9651008113e-06
-2.82048985805e-07
7.52157591658e-06
-2.74144849799e-07
7.00777478843e-06
-2.54152552771e-07
6.4133611326e-06
-2.23971352407e-07
5.74389394783e-06
-1.87460645308e-07
5.0219294838e-06
-1.49011611481e-07
4.28021133251e-06
-1.12347365818e-07
3.55228118875e-06
-7.99720264147e-08
2.86549547292e-06