/*--------------------------------*- C++ -*----------------------------------*\
| =========                 |                                                 |
| \\      /  F ield         | OpenFOAM: The Open Source CFD Toolbox           |
|  \\    /   O peration     | Version:  2206                                  |
|   \\  /    A nd           | Website:  www.openfoam.com                      |
|    \\/     M anipulation  |                                                 |
\*---------------------------------------------------------------------------*/
FoamFile
{
    version     2.0;
    format      ascii;
    arch        "LSB;label=32;scalar=64";
    class       volVectorField;
    location    "200";
    object      U;
}
// * * * * * * * * * * * * * * * * * * * * * * * * * * * * * * * * * * * * * //

dimensions      [0 1 -1 0 0 0 0];

internalField   nonuniform List<vector> 
3000
(
(1.00514458059 -0.000744522706599 -2.80564068103e-13)
(1.00519974501 -0.00170310632788 -9.59242971338e-14)
(1.00531043586 -0.00269826283607 -6.29620720347e-14)
(1.00546243558 -0.00365899422773 -4.7876475185e-14)
(1.00564683019 -0.00457985139624 -3.87358897929e-14)
(1.00585649186 -0.00546342722401 -3.29254306021e-14)
(1.00608551792 -0.00631206599607 -2.97615844191e-14)
(1.00632890799 -0.00712708042522 -2.73571010863e-14)
(1.00658237122 -0.00790899147098 -2.5668140209e-14)
(1.00684220526 -0.00865780864084 -2.41040901188e-14)
(1.00710521505 -0.00937326446263 -2.29172096323e-14)
(1.00736865455 -0.0100549961322 -2.13615564271e-14)
(1.00763018162 -0.0107026777876 -2.23913485092e-14)
(1.0078878206 -0.0113161113085 -1.81612567873e-14)
(1.00813993925 -0.0118952842357 -2.09492361926e-14)
(1.00838525053 -0.0124404027883 -1.90668063351e-14)
(1.00862271866 -0.012951903168 -2.02792210388e-14)
(1.00885085625 -0.0134304281685 -2.4339924161e-14)
(1.00906629155 -0.0138767537768 -2.28964292324e-14)
(1.00926649508 -0.0142918094378 -1.13346071624e-14)
(1.00947305484 -0.0146774029265 -1.56281479594e-14)
(1.0097901034 -0.015038133788 -2.5216390664e-14)
(1.0104376391 -0.0153812308461 -1.55305288703e-14)
(1.0114915589 -0.0157035996832 -7.69232802259e-15)
(1.01178906063 -0.0159580706902 -2.5043220336e-14)
(1.00640478836 -0.016011234252 -2.22839518211e-14)
(0.982512281328 -0.0155819836094 -2.18017432679e-14)
(0.913706816669 -0.0140618328104 -1.41637444114e-14)
(0.750658833218 -0.0103476457082 -8.03136319232e-15)
(0.396854543204 -0.00366081918174 -1.033070236e-14)
(1.02739406081 -0.00057246017221 -7.25806285769e-13)
(1.02756270329 -0.00131409350713 -2.69187957844e-13)
(1.02790357505 -0.00205341167921 -1.72429731317e-13)
(1.02836903457 -0.00274438283403 -1.23619972506e-13)
(1.02892964848 -0.00337624342181 -1.03356056375e-13)
(1.02956199529 -0.00395211505917 -8.92966455737e-14)
(1.03024694399 -0.00447567655722 -7.74743515871e-14)
(1.03096863555 -0.00495116960371 -7.16511747023e-14)
(1.03171385082 -0.00538312021605 -6.58727680837e-14)
(1.03247156692 -0.00577607826997 -5.76995753281e-14)
(1.03323262078 -0.00613446712898 -5.97411463063e-14)
(1.03398944231 -0.00646248523821 -4.77127182629e-14)
(1.03473583501 -0.00676403767293 -5.80508782412e-14)
(1.03546679826 -0.00704269039978 -3.75844386423e-14)
(1.03617839765 -0.00730164324794 -4.9691758818e-14)
(1.03686756918 -0.00754371772165 -4.51736529129e-14)
(1.03753131986 -0.00777134928301 -4.68163205893e-14)
(1.03816530671 -0.00798657315804 -5.5193692189e-14)
(1.03876818298 -0.00819106360127 -5.6176838774e-14)
(1.03937125706 -0.00838650174114 -2.87465757077e-14)
(1.04009628063 -0.00857557356818 -3.57857797903e-14)
(1.04109861045 -0.00876193594538 -5.43932786305e-14)
(1.04192554749 -0.00894100791371 -3.84290263363e-14)
(1.0395908435 -0.0090689365753 -2.55102543816e-14)
(1.0252489452 -0.00901810452199 -5.23623183913e-14)
(0.98117974566 -0.00856999174086 -4.7948088012e-14)
(0.881876216515 -0.00747530909956 -4.15848191646e-14)
(0.70334356355 -0.00554013740562 -2.68599323855e-14)
(0.442257350808 -0.00283907212691 -1.32005355295e-14)
(0.139647664048 -0.000247218215862 -7.49002292555e-15)
(1.04476400269 -0.000294306556335 -9.38833626088e-13)
(1.04492110381 -0.000684130953767 -3.71468392403e-13)
(1.04523857597 -0.00106506516765 -2.33428042986e-13)
(1.04567053244 -0.00143628829502 -1.68903851819e-13)
(1.04618902532 -0.00178623612235 -1.4024977555e-13)
(1.04677177088 -0.00211845483253 -1.23100917617e-13)
(1.04740072936 -0.00243415965352 -1.05186999796e-13)
(1.04806109903 -0.00273466732086 -9.76206961583e-14)
(1.04874071361 -0.00302110836378 -9.01256354794e-14)
(1.04942959269 -0.00329435380078 -7.85685423023e-14)
(1.05011958536 -0.00355505143055 -8.00972820682e-14)
(1.05080408083 -0.00380366534352 -6.62656406424e-14)
(1.05147777055 -0.00404051685352 -7.59389010899e-14)
(1.05213646606 -0.00426582543537 -5.60767006377e-14)
(1.0527769469 -0.00447974695498 -6.64125859534e-14)
(1.05339650114 -0.00468240264198 -6.21811044547e-14)
(1.0539916058 -0.00487388663984 -6.52166013185e-14)
(1.05455897286 -0.00505429655905 -7.48493315013e-14)
(1.05511477091 -0.00522400707852 -7.02884584451e-14)
(1.05574408031 -0.00538429301789 -4.44759431043e-14)
(1.05657215967 -0.00553679178667 -5.20351651531e-14)
(1.05722131331 -0.0056765110172 -6.72321891168e-14)
(1.05505233121 -0.00577094249782 -5.2276393841e-14)
(1.04213219951 -0.0057287450234 -4.56206414369e-14)
(1.00295313069 -0.00539161318332 -6.35918521531e-14)
(0.916976611747 -0.00459886705934 -5.75217973869e-14)
(0.768905690243 -0.00332334123858 -4.54142172447e-14)
(0.563372890282 -0.0018015581201 -3.00155541314e-14)
(0.330956354831 -0.000545069416298 -1.50175402248e-14)
(0.107742004222 -3.94265936567e-06 -4.92918948065e-15)
(1.05270604396 -0.000287045118997 -1.0649435399e-12)
(1.05284838594 -0.000671771081591 -4.56752372879e-13)
(1.05313558704 -0.00104710942709 -2.85560578691e-13)
(1.05352718415 -0.00141094547019 -2.02575238086e-13)
(1.05399883743 -0.00174633276654 -1.7034846292e-13)
(1.05453096833 -0.00205805722759 -1.47977118724e-13)
(1.05510768821 -0.0023465280691 -1.27778923327e-13)
(1.05571581063 -0.00261295345541 -1.16940706053e-13)
(1.05634434603 -0.00285848721614 -1.08377543538e-13)
(1.05698412661 -0.00308423858601 -9.60663300011e-14)
(1.05762752055 -0.00329131048977 -9.55186388252e-14)
(1.05826820671 -0.0034808031226 -8.12382225616e-14)
(1.05890099705 -0.00365381431057 -8.85251264706e-14)
(1.05952170784 -0.00381143658954 -6.73338056937e-14)
(1.06012695664 -0.0039547508643 -7.94251666761e-14)
(1.06071338028 -0.00408481123549 -7.67657377421e-14)
(1.06127697409 -0.00420262198898 -8.08347870505e-14)
(1.06182154528 -0.00430921560667 -8.78078979078e-14)
(1.06239246613 -0.00440605923542 -7.91091018809e-14)
(1.06308597071 -0.00449517956721 -5.78048457014e-14)
(1.06372622699 -0.00457534744021 -6.54984436111e-14)
(1.06257812049 -0.00462799231206 -7.53551492046e-14)
(1.05381285485 -0.00459360776834 -6.28635675854e-14)
(1.0252245993 -0.00436151931769 -5.92461703346e-14)
(0.959791404531 -0.00381145914756 -6.83162165491e-14)
(0.843738488429 -0.00291404137712 -5.97890054409e-14)
(0.677905350733 -0.00182301094042 -4.5301229669e-14)
(0.481936368059 -0.000847836762257 -3.04988832516e-14)
(0.282001679674 -0.000250609889151 -1.64154880318e-14)
(0.092235821119 -1.51502858768e-05 -5.43553808224e-15)
(1.05842793207 -0.000243669755453 -1.16129752982e-12)
(1.05857363253 -0.000574950796901 -5.29929409964e-13)
(1.05886701526 -0.000893351363031 -3.27810370839e-13)
(1.0592670066 -0.00120030735141 -2.33738045826e-13)
(1.05974834707 -0.00147775754369 -1.95626765793e-13)
(1.06029068242 -0.00173282579974 -1.6873515915e-13)
(1.06087756014 -0.00196565403113 -1.46550416112e-13)
(1.06149533847 -0.00217814672897 -1.33657769957e-13)
(1.06213269188 -0.00237199414845 -1.23057665368e-13)
(1.06278021717 -0.00254880897128 -1.10464262769e-13)
(1.0634301342 -0.00271011453147 -1.07707580463e-13)
(1.06407604823 -0.00285732093848 -9.27626241329e-14)
(1.06471276424 -0.00299172143907 -9.89009973146e-14)
(1.06533613167 -0.00311449424676 -7.99696922509e-14)
(1.06594267403 -0.00322670565278 -8.91997504888e-14)
(1.0665287118 -0.00332930864371 -8.87658262845e-14)
(1.06709231264 -0.00342316380057 -9.32987716308e-14)
(1.06765084305 -0.00350922601044 -9.67177689126e-14)
(1.06826696449 -0.00358886255172 -8.61786102602e-14)
(1.06891761708 -0.00366254602648 -6.86302189451e-14)
(1.06871748725 -0.00372201325872 -7.47016777271e-14)
(1.06399936827 -0.00373281150119 -8.15457575198e-14)
(1.04595354634 -0.00361963221878 -7.11150124896e-14)
(1.00063377923 -0.00328533931356 -6.77125532474e-14)
(0.914301203702 -0.00268030981529 -6.99437968925e-14)
(0.782707132731 -0.0018799304448 -5.94293798401e-14)
(0.616615355 -0.00108180844235 -4.44987703038e-14)
(0.435827271921 -0.000482599416062 -3.02678598466e-14)
(0.256146575543 -0.000143785645537 -1.68556807865e-14)
(0.0842632977929 -6.1419859006e-06 -5.52575619547e-15)
(1.06474587031 -0.000197206062132 -1.21806488389e-12)
(1.06489001116 -0.000467611538218 -5.89505976953e-13)
(1.06518000951 -0.000724234607221 -3.56434484384e-13)
(1.06557530159 -0.000975919694846 -2.59418183945e-13)
(1.06605075326 -0.00120431857389 -2.1597098268e-13)
(1.06658619134 -0.00141751724721 -1.8577895828e-13)
(1.06716536646 -0.00161431554247 -1.61718078012e-13)
(1.06777481152 -0.00179634201048 -1.47270334491e-13)
(1.0684033782 -0.00196465637076 -1.34857866599e-13)
(1.06904183024 -0.00212029431389 -1.2218217556e-13)
(1.0696825412 -0.00226422502705 -1.17530021258e-13)
(1.07031925506 -0.00239734025124 -1.0319455995e-13)
(1.07094690102 -0.00252046214852 -1.0588838294e-13)
(1.07156139624 -0.00263434840296 -9.05932589081e-14)
(1.07215912842 -0.00273969374408 -9.81766838218e-14)
(1.07273662026 -0.00283713082674 -9.90754454195e-14)
(1.07329674677 -0.00292729259347 -1.02667075727e-13)
(1.07387011577 -0.00301103783422 -1.04543645041e-13)
(1.07449074462 -0.00308925657262 -9.27035309117e-14)
(1.07482349847 -0.00315932899723 -7.85314346551e-14)
(1.07290785809 -0.00320389836067 -8.25402362402e-14)
(1.06302274978 -0.00317543381279 -8.68065841996e-14)
(1.03444213739 -0.00299767760336 -7.74682567519e-14)
(0.974077450417 -0.00260715900546 -7.33066215454e-14)
(0.873599807379 -0.0020191445879 -7.03173292326e-14)
(0.736132456722 -0.00135306342096 -5.81961580782e-14)
(0.57531950139 -0.000766747223017 -4.42405342029e-14)
(0.406517900242 -0.000351735283198 -3.01176279433e-14)
(0.239620384226 -0.000110220490037 -1.69388791556e-14)
(0.0791579676102 -6.39204501288e-06 -5.52877156955e-15)
(1.07071292243 -0.000182250439673 -1.25499682221e-12)
(1.07085484371 -0.000431555344054 -6.41727810215e-13)
(1.07113989355 -0.000667199486285 -3.92017854043e-13)
(1.07152853835 -0.000900166331972 -2.82003260983e-13)
(1.07199622001 -0.00111110641933 -2.33892014048e-13)
(1.07252324897 -0.00130880200636 -2.00834827821e-13)
(1.07309374666 -0.00149118145222 -1.75115064915e-13)
(1.07369451134 -0.00166007351095 -1.59292836544e-13)
(1.07431459663 -0.00181629591643 -1.45572689923e-13)
(1.07494490642 -0.00196077470344 -1.32539093152e-13)
(1.07557790777 -0.00209437628135 -1.26303132359e-13)
(1.07620740378 -0.0022179070808 -1.12495865107e-13)
(1.07682835329 -0.00233212070508 -1.12696812927e-13)
(1.07743661604 -0.00243771829627 -9.97194545744e-14)
(1.07802841465 -0.00253534620186 -1.0579144456e-13)
(1.0786013976 -0.00262560650085 -1.0745848121e-13)
(1.07916521933 -0.0027091638627 -1.10346597014e-13)
(1.07975232051 -0.00278688399907 -1.0988526819e-13)
(1.08028714182 -0.00285868032566 -9.88826856945e-14)
(1.07990280921 -0.00291748846259 -8.66922247574e-14)
(1.0753279584 -0.00293664917741 -9.0220748828e-14)
(1.05907252159 -0.00286134397766 -9.16838941645e-14)
(1.01982625473 -0.00262655616039 -8.21504013441e-14)
(0.947049667969 -0.00220672575181 -7.62168799471e-14)
(0.837663442832 -0.00165786847393 -7.02694957085e-14)
(0.698859263242 -0.00109803147734 -5.75424185538e-14)
(0.54361012128 -0.000631530374543 -4.33636616729e-14)
(0.383543974085 -0.000298897183034 -2.96800953646e-14)
(0.22595804848 -9.73167075221e-05 -1.67638371234e-14)
(0.0746015594463 -6.42882416171e-06 -5.46197298713e-15)
(1.0759495956 -0.000172815124851 -1.2816422092e-12)
(1.07609154275 -0.000409230254468 -6.89731340695e-13)
(1.07637607781 -0.000632417165424 -4.14659463382e-13)
(1.07676404583 -0.000853539048222 -3.02893072676e-13)
(1.07723094877 -0.0010526686485 -2.50541416719e-13)
(1.0777571595 -0.00123936847841 -2.14870019636e-13)
(1.07832683747 -0.00141100125427 -1.87552590018e-13)
(1.07892680142 -0.00156974451896 -1.7037529897e-13)
(1.07954612464 -0.00171627793109 -1.54372065865e-13)
(1.08017572068 -0.00185155915814 -1.42065260997e-13)
(1.08080806287 -0.00197644552549 -1.34686830117e-13)
(1.0814369594 -0.00209173238065 -1.23091298762e-13)
(1.08205736034 -0.0021981585955 -1.21079138915e-13)
(1.08266503639 -0.00229640586179 -1.07997559984e-13)
(1.08325627892 -0.00238709917156 -1.12670995808e-13)
(1.08383110611 -0.00247083806224 -1.14889013121e-13)
(1.08440513926 -0.00254832474335 -1.17090382392e-13)
(1.08498564695 -0.00262021687716 -1.15408980291e-13)
(1.08527786595 -0.0026846533664 -1.04699768882e-13)
(1.08368408189 -0.0027291873239 -9.26223118361e-14)
(1.07557588221 -0.00271949627649 -9.61170751327e-14)
(1.05226247878 -0.0026004182207 -9.60374652569e-14)
(1.00302775864 -0.0023255049472 -8.59252351796e-14)
(0.920532521346 -0.00190125973996 -7.91530005335e-14)
(0.805715401178 -0.00140080392553 -7.12250753306e-14)
(0.667405336889 -0.00092222159026 -5.64419884848e-14)
(0.517039737671 -0.000532042517538 -4.22306632779e-14)
(0.363942451633 -0.000252202104207 -2.90411205681e-14)
(0.214073394677 -8.16355608276e-05 -1.66200465701e-14)
(0.0705802105168 -5.05295332907e-06 -5.7361849283e-15)
(1.08077082167 -0.000161520068641 -1.29953836167e-12)
(1.08091303867 -0.000382938289575 -7.3394398232e-13)
(1.08119769431 -0.00059156042451 -4.42054060749e-13)
(1.0815858496 -0.000798922482183 -3.22351716514e-13)
(1.08205295834 -0.000985052275187 -2.66034669867e-13)
(1.08257939114 -0.00116007817013 -2.27944071315e-13)
(1.08314929922 -0.00132079404878 -1.99132341135e-13)
(1.08374949422 -0.00146961868707 -1.80554606611e-13)
(1.08436904909 -0.0016070082147 -1.61954272124e-13)
(1.08499887507 -0.00173390323811 -1.50847849024e-13)
(1.08563144586 -0.00185108624033 -1.4254309358e-13)
(1.08626057085 -0.00195929303966 -1.34360469146e-13)
(1.08688117838 -0.00205920741052 -1.28168150242e-13)
(1.08748896756 -0.00215145969435 -1.15715452143e-13)
(1.08808071295 -0.00223663249111 -1.19970505182e-13)
(1.08865966775 -0.00231531343801 -1.21673801429e-13)
(1.0892412986 -0.00238818312867 -1.23190748737e-13)
(1.08976396482 -0.00245534946687 -1.20825851673e-13)
(1.08959270353 -0.00251240644074 -1.10332340395e-13)
(1.08626641012 -0.002541363996 -9.92776990241e-14)
(1.07394344586 -0.00250317398007 -1.01032572715e-13)
(1.04340610319 -0.00234834676946 -9.97355661923e-14)
(0.985335440539 -0.00205100011175 -8.89699264088e-14)
(0.895494603316 -0.0016397744883 -8.08993510075e-14)
(0.777491121284 -0.00118932739786 -7.18825657822e-14)
(0.640506713425 -0.000776110100261 -5.69978583214e-14)
(0.494566264223 -0.000444649989399 -4.22076659228e-14)
(0.347484548197 -0.000208916841169 -2.88939917395e-14)
(0.204215963877 -6.67801115958e-05 -1.65789380577e-14)
(0.0673095562493 -3.9354035235e-06 -5.72212509829e-15)
(1.08536311749 -0.000151847429394 -1.31014441806e-12)
(1.08550530647 -0.000360188200397 -7.74411075128e-13)
(1.08578956053 -0.000556089807943 -4.59216967176e-13)
(1.08617719732 -0.000751384646944 -3.40387458576e-13)
(1.08664368979 -0.000926257273725 -2.80489522576e-13)
(1.08716946448 -0.00109116967114 -2.40155484513e-13)
(1.08773870294 -0.00124242816474 -2.09943122431e-13)
(1.0883382396 -0.00138267436344 -1.90043179546e-13)
(1.08895716622 -0.001512151637 -1.70607964552e-13)
(1.08958640492 -0.00163180492802 -1.59017553836e-13)
(1.09021843801 -0.00174234553403 -1.4986757581e-13)
(1.09084707742 -0.00184446312148 -1.38344433829e-13)
(1.09146722151 -0.00193879638574 -1.34429798838e-13)
(1.09207457452 -0.00202593414193 -1.22817196851e-13)
(1.09266690019 -0.00210642922661 -1.25913960108e-13)
(1.09325036127 -0.00218086468159 -1.27925243692e-13)
(1.09382719704 -0.00224981097074 -1.28721205579e-13)
(1.09420967137 -0.00231243822682 -1.24809477175e-13)
(1.09331022271 -0.00236124613376 -1.15552046769e-13)
(1.08775878091 -0.00237331790715 -1.05347928355e-13)
(1.07077596936 -0.00230819196361 -1.05491976237e-13)
(1.0332360464 -0.00212586924508 -1.02970522065e-13)
(0.96761959482 -0.00181901971225 -9.12295490116e-14)
(0.872325614453 -0.00142880035654 -8.16323290362e-14)
(0.752577784789 -0.001023831588 -7.094018822e-14)
(0.617350824216 -0.000663074369767 -5.67197583994e-14)
(0.47549768226 -0.000377930535788 -4.21374734219e-14)
(0.333679766567 -0.000177047011634 -2.87594208034e-14)
(0.196025373187 -5.66013056802e-05 -1.63607390279e-14)
(0.0646125682082 -3.40196058986e-06 -5.30823582031e-15)
(1.08973490089 -0.000144277493457 -1.31548238675e-12)
(1.08987707425 -0.000342259246637 -8.11896102751e-13)
(1.09016096879 -0.000528181733661 -4.8012063841e-13)
(1.09054813074 -0.000713899651079 -3.57363130445e-13)
(1.09101405843 -0.000879837415561 -2.94087496543e-13)
(1.09153923394 -0.00103664415543 -2.51652368921e-13)
(1.09210786462 -0.00118025808288 -2.20119851097e-13)
(1.09270680663 -0.00131353415143 -1.98927838678e-13)
(1.09332516855 -0.00143652869905 -1.77597875039e-13)
(1.09395388265 -0.00155021456749 -1.66656981189e-13)
(1.09458543919 -0.00165524302502 -1.568555999e-13)
(1.09521364833 -0.00175227535831 -1.45667960189e-13)
(1.09583337899 -0.00184191747069 -1.40702245197e-13)
(1.09644048532 -0.00192472919826 -1.29516105731e-13)
(1.09703414031 -0.00200124775224 -1.32006926529e-13)
(1.097621054 -0.00207204621872 -1.33560300798e-13)
(1.09816965342 -0.00213745155472 -1.33899186099e-13)
(1.09830128389 -0.00219531049316 -1.29862539712e-13)
(1.09638766486 -0.00223479196707 -1.20406687789e-13)
(1.08818757944 -0.00222924504779 -1.10332075595e-13)
(1.0663185444 -0.00213977825397 -1.10289594001e-13)
(1.02222489678 -0.00193746356511 -1.05679839609e-13)
(0.950280353158 -0.0016296102056 -9.3104413655e-14)
(0.850959911508 -0.00126269693135 -8.26887975926e-14)
(0.730392116214 -0.000896870112794 -7.18823601631e-14)
(0.597121142215 -0.000578032012169 -5.65075545812e-14)
(0.459009926485 -0.000328882494099 -4.20051915874e-14)
(0.321793699003 -0.000154237018938 -2.8732442564e-14)
(0.188966077682 -4.95048203346e-05 -1.64760536288e-14)
(0.0622754296989 -3.03638648622e-06 -5.66635562235e-15)
(1.09388964226 -0.000137811211207 -1.3169272807e-12)
(1.09403188251 -0.000326951447443 -8.46900812294e-13)
(1.0943156081 -0.000504435676302 -5.0034608242e-13)
(1.09470254801 -0.000681983007444 -3.7355214614e-13)
(1.09516821005 -0.00084033391557 -3.07010201525e-13)
(1.0956931141 -0.000990223820399 -2.62554499578e-13)
(1.0962614789 -0.00112731614404 -2.29782857902e-13)
(1.09686017351 -0.00125464534946 -2.07344561079e-13)
(1.0974783155 -0.00137209579278 -1.85308026187e-13)
(1.09810684223 -0.00148067492053 -1.73899781989e-13)
(1.09873824741 -0.00158097536256 -1.63605906213e-13)
(1.09936633284 -0.00167363743532 -1.52738291798e-13)
(1.09998595485 -0.00175923794426 -1.45281496796e-13)
(1.10059331284 -0.00183831397609 -1.35987166249e-13)
(1.10118905403 -0.00191139331473 -1.39245481984e-13)
(1.10177528645 -0.00197901030299 -1.38183608533e-13)
(1.10225909214 -0.0020410751155 -1.38929817578e-13)
(1.10200541741 -0.00209377938525 -1.35760075642e-13)
(1.0987913117 -0.00212305227805 -1.25200270115e-13)
(1.08760902987 -0.00210000323668 -1.15709353847e-13)
(1.06080854141 -0.00198959138604 -1.13619940875e-13)
(1.01072254891 -0.00177387242157 -1.07857793334e-13)
(0.933519989657 -0.00147061141202 -9.45028491088e-14)
(0.831236862119 -0.00112706405616 -8.29871842446e-14)
(0.710453451272 -0.000794917765233 -7.09801990387e-14)
(0.57920299657 -0.000510352731478 -5.57346875851e-14)
(0.44450458504 -0.000289936146662 -4.26813633183e-14)
(0.311352639743 -0.000135959223555 -2.89978865949e-14)
(0.182756069526 -4.36574457983e-05 -1.65111943103e-14)
(0.0602137103345 -2.67559012383e-06 -5.34301761486e-15)
(1.09785762944 -0.000132008270165 -1.31527173378e-12)
(1.09799995653 -0.000313215218071 -8.79547122998e-13)
(1.09828358388 -0.000483156263545 -5.17811632916e-13)
(1.09867039597 -0.000653355922613 -3.89032600438e-13)
(1.09913590575 -0.000804930913566 -3.19201744448e-13)
(1.09966066364 -0.000948622787233 -2.72926121883e-13)
(1.10022889464 -0.00107989210385 -2.38990481507e-13)
(1.1008274778 -0.00120191544837 -2.15352319918e-13)
(1.10144553635 -0.00131442212124 -1.92811844087e-13)
(1.10207401064 -0.00141845561788 -1.80728172559e-13)
(1.10270539505 -0.00151455053474 -1.70082174693e-13)
(1.10333347967 -0.00160333077026 -1.59392487321e-13)
(1.10395314917 -0.00168534567654 -1.5075972069e-13)
(1.1045611493 -0.00176111399074 -1.42114392238e-13)
(1.10515899437 -0.00183115387587 -1.44892861569e-13)
(1.10573577256 -0.00189591002206 -1.45114307827e-13)
(1.10610437172 -0.00195468277309 -1.43733842946e-13)
(1.10531401435 -0.00200177608947 -1.38817567271e-13)
(1.10053074233 -0.00202025348424 -1.29686076473e-13)
(1.08612913372 -0.0019805160698 -1.19823028655e-13)
(1.05449010147 -0.00185283048999 -1.17549999223e-13)
(0.999011307138 -0.00162913027533 -1.0970450556e-13)
(0.917462780578 -0.00133400238856 -9.5744364965e-14)
(0.813018107258 -0.00101295084782 -8.30024161505e-14)
(0.692426329127 -0.000710092169226 -7.10609434792e-14)
(0.56319445984 -0.000454239487004 -5.64976168686e-14)
(0.43162227108 -0.000257540553742 -4.21646462767e-14)
(0.302104643136 -0.000120626043044 -2.87777498588e-14)
(0.177263107945 -3.86950536436e-05 -1.63960397326e-14)
(0.0583923201778 -2.36314861274e-06 -5.29473005546e-15)
(1.10166648384 -0.000126826192519 -1.31121231306e-12)
(1.10180889212 -0.000300927106122 -9.09796118129e-13)
(1.10209243481 -0.000464133294962 -5.3588249512e-13)
(1.10247913476 -0.00062773766398 -4.03769196489e-13)
(1.10294451197 -0.000773267078807 -3.31155568299e-13)
(1.10346914532 -0.000911406379901 -2.82838372678e-13)
(1.10403726524 -0.00103747332732 -2.47950268652e-13)
(1.10463576058 -0.00115475384587 -2.22999332151e-13)
(1.10525375936 -0.00126284194516 -2.00001566721e-13)
(1.10588220462 -0.00136281656891 -1.87103158963e-13)
(1.10651358976 -0.00145515662625 -1.76269410355e-13)
(1.1071416952 -0.00154047382916 -1.65270438072e-13)
(1.10776149912 -0.00161929221142 -1.56358606167e-13)
(1.10837042419 -0.00169211640242 -1.4800553444e-13)
(1.10896925522 -0.00175944861814 -1.49429261847e-13)
(1.10952225769 -0.00182157450279 -1.50021570289e-13)
(1.1097122914 -0.00187699473154 -1.48054296285e-13)
(1.10822501909 -0.0019180181551 -1.44882443967e-13)
(1.10163429745 -0.00192541953945 -1.33747412795e-13)
(1.08386717418 -0.00187026227609 -1.23714671079e-13)
(1.04757769291 -0.00172881654265 -1.20817166443e-13)
(0.987295899861 -0.00150130696413 -1.11382688132e-13)
(0.902165527144 -0.00121631605118 -9.65561509036e-14)
(0.796168106842 -0.000916360250367 -8.36731216842e-14)
(0.676045804918 -0.00063904995538 -7.05816222388e-14)
(0.548794567679 -0.000407513582421 -5.59717449475e-14)
(0.420097987173 -0.000230649321726 -4.16539997266e-14)
(0.29385555066 -0.000107942240194 -2.84403488308e-14)
(0.172370963777 -3.46188875171e-05 -1.62244446704e-14)
(0.056771651838 -2.11728381274e-06 -5.23911630365e-15)
(1.10533331006 -0.000122214114271 -1.30535195096e-12)
(1.10547579939 -0.000289971881203 -9.37930218429e-13)
(1.10575927711 -0.000447191845783 -5.5840122505e-13)
(1.10614588886 -0.000604902393695 -4.17836563517e-13)
(1.10661116276 -0.000745056707232 -3.41883728458e-13)
(1.10713570338 -0.000878236621608 -2.9227254215e-13)
(1.10770374545 -0.000999667296615 -2.54092633281e-13)
(1.1083021869 -0.00111271529322 -2.30318940298e-13)
(1.10892015953 -0.00121685908007 -2.06999324578e-13)
(1.10954860852 -0.00131321053441 -1.91651728677e-13)
(1.11018002466 -0.00140219633243 -1.82217064543e-13)
(1.11080818727 -0.00148441956898 -1.70874590966e-13)
(1.11142824904 -0.00156038135567 -1.61796273428e-13)
(1.11203826841 -0.00163057546337 -1.54313690041e-13)
(1.11263544426 -0.00169547431164 -1.54870378301e-13)
(1.11314428114 -0.00175512072505 -1.53493673368e-13)
(1.1130813683 -0.00180704852672 -1.52104326832e-13)
(1.11073575233 -0.0018415927613 -1.46837475727e-13)
(1.10213685658 -0.00183792812256 -1.37408892332e-13)
(1.08093669386 -0.00176888185034 -1.26049808112e-13)
(1.04024362758 -0.00161682962161 -1.22267583396e-13)
(0.975711824904 -0.00138859795607 -1.12790221507e-13)
(0.88763372388 -0.00111471900262 -9.7354529968e-14)
(0.780548828747 -0.000834237419636 -8.40643115044e-14)
(0.66108411773 -0.000579253220284 -7.11032099366e-14)
(0.535753179487 -0.000368442732235 -5.58267895333e-14)
(0.409708275098 -0.000208271775752 -4.14050488185e-14)
(0.286434288838 -9.74313026512e-05 -2.82461480593e-14)
(0.167972615264 -3.12549315216e-05 -1.61244127868e-14)
(0.0553143155393 -1.91600274894e-06 -5.20612437821e-15)
(1.108871212 -0.000118068124846 -1.2980690871e-12)
(1.10901378593 -0.000280113200332 -9.64166184694e-13)
(1.10929722372 -0.000431963031344 -5.7227987847e-13)
(1.1096837792 -0.000584360109977 -4.31317420437e-13)
(1.11014898855 -0.000719691017786 -3.51731889496e-13)
(1.11067347864 -0.00084840123187 -3.0137414589e-13)
(1.11124148712 -0.000965663940602 -2.62995966917e-13)
(1.11183991979 -0.00107490102636 -2.37426023078e-13)
(1.11245791104 -0.00117549377357 -2.13699161189e-13)
(1.11308640729 -0.00126858298022 -2.00300370914e-13)
(1.11371789558 -0.0013545469644 -1.87888013963e-13)
(1.11434617084 -0.00143398273412 -1.76242833264e-13)
(1.11496664046 -0.0015073706679 -1.6702035447e-13)
(1.11557767021 -0.00157519483927 -1.57914450377e-13)
(1.11616856907 -0.00163787557128 -1.58894096056e-13)
(1.11660656945 -0.00169512022805 -1.58246076744e-13)
(1.11620779642 -0.00174336587702 -1.55954857339e-13)
(1.11284771595 -0.00177111022223 -1.50115011378e-13)
(1.10208019681 -0.00175664567658 -1.40716861727e-13)
(1.07744377635 -0.00167536197661 -1.29879099774e-13)
(1.0326256611 -0.00151543846947 -1.25188642929e-13)
(0.964348210313 -0.00128873229437 -1.14084672583e-13)
(0.873847136117 -0.00102631860565 -9.81997198944e-14)
(0.766032610489 -0.000763693868069 -8.37344066904e-14)
(0.647350914751 -0.000528310688359 -7.07272061452e-14)
(0.523867577069 -0.000335319716487 -5.56733897374e-14)
(0.40027443316 -0.000189347395215 -4.12992831778e-14)
(0.279706563528 -8.85460316613e-05 -2.81702225119e-14)
(0.163986914256 -2.84061612346e-05 -1.60890882667e-14)
(0.0539934630956 -1.74294898596e-06 -5.19287941422e-15)
(1.1122923396 -0.000114302712599 -1.28972444063e-12)
(1.11243499932 -0.000271152002433 -9.88654866936e-13)
(1.11271841596 -0.00041813266185 -5.88598241962e-13)
(1.11310493908 -0.000565691585586 -4.4431643906e-13)
(1.11357011299 -0.000696649630291 -3.61501579005e-13)
(1.11409458406 -0.000821291805693 -3.10129942026e-13)
(1.11466259197 -0.000934771654499 -2.71860153157e-13)
(1.11526104938 -0.00104054453106 -2.44297890074e-13)
(1.1158790924 -0.00113791119743 -2.20143705362e-13)
(1.11650766783 -0.00122803655647 -2.05277095238e-13)
(1.11713925939 -0.00131125464373 -1.93312763032e-13)
(1.11776770265 -0.00138815804169 -1.81407748616e-13)
(1.11838871369 -0.00145920831742 -1.7209100618e-13)
(1.11900023121 -0.00152487832689 -1.63103581713e-13)
(1.11957784066 -0.00158550586927 -1.64087472391e-13)
(1.11991220604 -0.00164036810491 -1.62918595277e-13)
(1.11908891648 -0.00168472209721 -1.59540450461e-13)
(1.1145686327 -0.00170545592464 -1.53994573136e-13)
(1.10151180803 -0.00168066209557 -1.43760214879e-13)
(1.07348615727 -0.00158880292828 -1.32711839747e-13)
(1.02483420762 -0.00142332053206 -1.26976136846e-13)
(0.95326378769 -0.00119974802947 -1.15184240909e-13)
(0.8607743777 -0.000948775322635 -9.88565981285e-14)
(0.752507284167 -0.000702482490006 -8.40135549522e-14)
(0.634690330621 -0.00048440374983 -7.03943056143e-14)
(0.51297683429 -0.000306873649377 -5.54633852195e-14)
(0.391657828083 -0.000173116552112 -4.1172538643e-14)
(0.273570578065 -8.09234239908e-05 -2.80906475968e-14)
(0.160353640812 -2.59587741329e-05 -1.60514174607e-14)
(0.0527895213773 -1.59339833011e-06 -5.17864855578e-15)
(1.11560738269 -0.000110863922528 -1.28064059778e-12)
(1.11575012719 -0.000262961345721 -1.01152706159e-12)
(1.11603353542 -0.000405500636278 -5.9933870859e-13)
(1.11642004211 -0.000548630114984 -4.56861960657e-13)
(1.1168852001 -0.000675600674468 -3.71657226357e-13)
(1.11740967313 -0.000796519764507 -3.18491280866e-13)
(1.11797770237 -0.000906546983455 -2.79645379455e-13)
(1.11857620665 -0.00100915277935 -2.5088662875e-13)
(1.11919432312 -0.00110357233615 -2.26339376097e-13)
(1.11982299832 -0.00119098963736 -2.09103799092e-13)
(1.12045471525 -0.00127169865405 -1.98525588937e-13)
(1.12108338173 -0.00134628864089 -1.86396794003e-13)
(1.12170501631 -0.00141520399262 -1.77003465564e-13)
(1.12231588094 -0.0014789017843 -1.6823941049e-13)
(1.12287050407 -0.00153759992169 -1.6932797306e-13)
(1.12306280875 -0.00159005530975 -1.66127411755e-13)
(1.12172342548 -0.00163031221899 -1.63125775269e-13)
(1.11591114521 -0.00164393979794 -1.56431585519e-13)
(1.10048139714 -0.00160943441158 -1.46775115587e-13)
(1.06915107301 -0.0015085933625 -1.354096571e-13)
(1.01695626329 -0.00133946578266 -1.28220208504e-13)
(0.942495139123 -0.00112014703212 -1.16103184998e-13)
(0.848378093621 -0.000880353833133 -9.94519601728e-14)
(0.739874046014 -0.000648980080181 -8.52267295902e-14)
(0.622972771323 -0.000446252023066 -7.10041714212e-14)
(0.502950437438 -0.000282237351855 -5.55771340145e-14)
(0.383747364786 -0.000159081798462 -4.11572974063e-14)
(0.267944897347 -7.43365460563e-05 -2.80510539636e-14)
(0.157024206453 -2.38446581641e-05 -1.60275356568e-14)
(0.0516863975975 -1.46443831602e-06 -5.16816929233e-15)
(1.11882533446 -0.000107710199732 -1.2709882837e-12)
(1.11896816229 -0.000255444017874 -1.03287429297e-12)
(1.11925157244 -0.000393914675436 -6.15717197083e-13)
(1.11963807559 -0.000532972854359 -4.68957518247e-13)
(1.12010323349 -0.000656291530299 -3.81207093263e-13)
(1.12062772535 -0.000773789082547 -3.26625301964e-13)