/*--------------------------------*- C++ -*----------------------------------*\
| =========                 |                                                 |
| \\      /  F ield         | OpenFOAM: The Open Source CFD Toolbox           |
|  \\    /   O peration     | Version:  2206                                  |
|   \\  /    A nd           | Website:  www.openfoam.com                      |
|    \\/     M anipulation  |                                                 |
\*---------------------------------------------------------------------------*/
FoamFile
{
    version     2.0;
    format      ascii;
    arch        "LSB;label=32;scalar=64";
    class       volScalarField;
    location    "300";
    object      k;
}
// * * * * * * * * * * * * * * * * * * * * * * * * * * * * * * * * * * * * * //

dimensions      [0 2 -2 0 0 0 0];

internalField   nonuniform List<scalar> 
7480
(
0.011445308
0.014109621
0.011691128
0.0076598993
0.0045417786
0.0027810773
0.0019369123
0.0015258122
0.0012980264
0.0011497272
0.001035178
0.00093693769
0.00085134832
0.00077729787
0.00071309298
0.00065714156
0.00060828333
0.00056536354
0.00052718701
0.00049297544
0.0004622579
0.0004345261
0.00040931356
0.00038632578
0.0003653294
0.00034607216
0.00032833009
0.0003119606
0.00029685088
0.00028287198
0.00026991168
0.00025789672
0.00024676264
0.00023643744
0.0002268608
0.00021799178
0.00020979293
0.00020222757
0.00019527093
0.0001889107
0.00018313642
0.00017793726
0.00017331364
0.0001692648
0.00016580094
0.00016299399
0.00016079336
0.00015930253
0.00015851199
0.00015839944
0.00015894222
0.00016011131
0.00016184526
0.0001640316
0.00016656023
0.00016935518
0.00017224924
0.00017499333
0.0001773477
0.00017913493
0.00018033053
0.00018095156
0.00018105016
0.00018070324
0.00018000775
0.00017905192
0.0001779135
0.00017665466
0.00017531996
0.00017394248
0.00017254734
0.00017114937
0.000169758
0.00016838321
0.00016702748
0.00016569221
0.00016437788
0.00016303027
0.00016165387
0.000160265
0.00015887025
0.00015747291
0.0001560676
0.00015465221
0.00015322634
0.00015178972
0.00015034467
0.00014889178
0.00014743433
0.00014597342
0.00014451129
0.00014304893
0.00014158962
0.00014012526
0.00013868001
0.00013716595
0.0001358453
0.0001339435
0.00013287179
0.00012997265
0.0014157662
0.0025665666
0.0028348571
0.0024742123
0.0020072673
0.0015609341
0.0011995522
0.00093131903
0.00073511227
0.00059093045
0.00048472506
0.00040598567
0.00034687617
0.00030175305
0.000266552
0.00023843766
0.00021550569
0.00019644592
0.00018032969
0.00016652654
0.00015461097
0.00014426031
0.00013522034
0.00012730089
0.00012021981
0.00011383709
0.00010806709
0.00010285922
9.8180158e-05
9.4000818e-05
9.0298327e-05
8.7058778e-05
8.4272125e-05
8.1929176e-05
8.0024703e-05
7.8558878e-05
7.753596e-05
7.6967519e-05
7.6876763e-05
7.7299455e-05
7.8282261e-05
7.9883193e-05
8.2174524e-05
8.5241203e-05
8.9189042e-05
9.413072e-05
0.00010014293
0.00010729197
0.00011560057
0.00012505994
0.00013563702
0.00014733564
0.00015989338
0.00017301331
0.00018640713
0.00019964429
0.00021208563
0.00022314731
0.0002324729
0.00024000645
0.00024589707
0.00025040571
0.00025379502
0.00025615843
0.00025771665
0.00025866871
0.0002591723
0.00025934398
0.00025926901
0.00025900943
0.00025860828
0.00025809207
0.00025748464
0.00025680435
0.00025605806
0.00025524684
0.00025435099
0.00025316551
0.00025177614
0.00025025359
0.00024862073
0.00024688406
0.00024504564
0.00024311252
0.00024109144
0.00023899247
0.00023682565
0.00023460102
0.00023232962
0.00023002048
0.00022768258
0.00022532395
0.00022295241
0.00022057265
0.00021818865
0.00021579888
0.00021344071
0.00021076818
0.00020885123
0.0002044576
0.00021000915
0.00055721368
0.00084139487
0.00095108258
0.00092902958
0.0008436381
0.00075625923
0.00069806808
0.00065934947
0.00062438167
0.00059316773
0.000564106
0.00053581676
0.00050888658
0.00048357795
0.00045991549
0.00043796103
0.00041773151
0.00039922998
0.00038246536
0.0003674265
0.00035407082
0.00034235066
0.00033220482
0.00032247324
0.00031328512
0.00030475537
0.0002970137
0.00029018768
0.00028439605
0.00027975759
0.0002763898
0.00027440193
0.00027389952
0.00027499299
0.0002777979
0.00028244144
0.00028909145
0.00029797363
0.00030937402
0.00032363755
0.00034117413
0.00036246578
0.00038806506
0.00041863336
0.00045479095
0.00049697561
0.00054543132
0.00060018849
0.00066108314
0.00072757775
0.00079923741
0.00087485484
0.00095270461
0.0010311051
0.0011075111
0.0011784527
0.0012409944
0.0012936086
0.0013362656
0.0013699886
0.0013963325
0.001416107
0.0014304203
0.0014405561
0.0014475569
0.0014522251
0.0014551451
0.0014567424
0.0014573255
0.0014571049
0.0014562098
0.0014547646
0.0014528609
0.0014505325
0.0014477803
0.0014444881
0.0014394759
0.0014333047
0.0014263607
0.0014187573
0.0014105254
0.0014016824
0.0013922709
0.0013823308
0.0013719201
0.0013610943
0.0013499107
0.0013384292
0.0013267011
0.0013147758
0.0013026995
0.0012905141
0.0012782573
0.0012659231
0.0012536098
0.0012412132
0.0012276647
0.0012174181
0.0011948933
3.6612972e-05
0.00011641513
0.00022889038
0.0003289116
0.00038971059
0.00041116598
0.0004082048
0.00039506152
0.00038065538
0.00036979479
0.00036657072
0.00037470574
0.00038619307
0.00039600451
0.0004041809
0.00041046011
0.00041544995
0.00041965108
0.00042338284
0.00042690567
0.00043043614
0.00043416212
0.00043823912
0.00044277494
0.00044760722
0.00045255004
0.00045765036
0.00046312131
0.00046924021
0.00047630832
0.00048464414
0.00049457993
0.00050645602
0.00052062287
0.00053744538
0.00055730042
0.00058060426
0.00060788781
0.0006398104
0.00067714876
0.00072078801
0.00077172563
0.00083107642
0.00090006635
0.00098007741
0.0010721885
0.0011767906
0.0012938911
0.0014230361
0.0015633278
0.0017133157
0.0018699305
0.0020312932
0.0021938467
0.0023542807
0.0025072344
0.0026462756
0.0027669859
0.0028679533
0.002950118
0.0030160119
0.0030680997
0.0031079885
0.0031384338
0.0031617125
0.0031795911
0.0031934003
0.0032040995
0.0032123795
0.0032187377
0.0032235066
0.003226889
0.003229102
0.0032302951
0.0032305165
0.0032297507
0.0032278039
0.0032223458
0.0032146908
0.0032055056
0.0031949533
0.0031830873
0.0031699525
0.0031556341
0.0031402165
0.0031238114
0.0031065244
0.0030884635
0.0030697394
0.0030504494
0.0030306825
0.0030105292
0.0029900653
0.0029693721
0.0029484152
0.0029274775
0.0029060262
0.0028832729
0.0028646906
0.0028272686
1.2523785e-05
2.7573565e-05
5.8626948e-05
9.9476554e-05
0.00013898315
0.0001694325
0.0001892165
0.00020027361
0.00020549412
0.00020735955
0.0002080386
0.00020960019
0.00021296049
0.00021862198
0.00022751741
0.00024062747
0.00025527154
0.00027043697
0.00028570265
0.00030133293
0.00031747686
0.0003343183
0.00035193078
0.00037024609
0.00038898729
0.00040784836
0.00042730787
0.00044781495
0.00046969547
0.00049322769
0.00051869163
0.00054639908
0.00057670766
0.00061002244
0.00064678919
0.00068748974
0.00073272395
0.00078335154
0.00084040779
0.00090503381
0.00097847257
0.0010620759
0.001157307
0.001265736
0.001389093
0.0015278538
0.0016815117
0.0018494623
0.0020307463
0.0022240022
0.0024272198
0.0026371733
0.0028491616
0.0030591781
0.0032641089
0.0034559961
0.0036270998
0.0037740844
0.0038972477
0.0039987379
0.0040811942
0.0041474914
0.004200592
0.0042432676
0.004277877
0.0043062745
0.0043298653
0.0043496753
0.0043664476
0.0043807185
0.0043928413
0.0044030352
0.0044115658
0.0044185929
0.004424154
0.0044282069
0.0044305683
0.0044302703
0.0044274995
0.0044225515
0.0044155873
0.0044067003
0.0043959801
0.0043835561
0.0043695635
0.0043541608
0.0043374976
0.004319722
0.0043009818
0.0042814101
0.0042611228
0.0042402434
0.0042188684
0.0041971094
0.0041749246
0.0041527018
0.0041296293
0.0041057136
0.004084834
0.0040463946
9.3805721e-06
1.1752419e-05
1.8505651e-05
3.0346382e-05
4.5491915e-05
6.1121646e-05
7.5210144e-05
8.6938134e-05
9.629043e-05
0.00010358352
0.00010921517
0.00011369322
0.00011751114
0.00012111939
0.0001250249
0.00012980185
0.00013572639
0.00014307411
0.00015227063
0.00016376445
0.00017687883
0.00019189508
0.00020809451
0.00022549863
0.00024418936
0.00026422418
0.00028583095
0.00030931208
0.00033500296
0.00036328248
0.00039456962
0.00042932292
0.00046804383
0.00051126917
0.00055958355
0.00061370286
0.00067462381
0.00074337033
0.00082095956
0.0009084841
0.0010071526
0.0011182948
0.001243353
0.0013838991
0.001541608
0.001714698
0.0019012028
0.0021003312
0.0023114206
0.0025332879
0.0027638894
0.0029999093
0.0032365401
0.0034695154
0.0036956166
0.0039038461
0.0040873376
0.0042458212
0.0043809708
0.0044952581
0.0045916721
0.0046729586
0.0047415485
0.0047997193
0.0048495088
0.0048925572
0.0049301549
0.0049632926
0.0049927072
0.0050189407
0.0050423479
0.005063154
0.005081692
0.0050981199
0.0051124569
0.0051246389
0.0051345221
0.0051414536
0.0051453902
0.005146517
0.005145011
0.0051410133
0.0051346657
0.0051261442
0.0051156353
0.005103342
0.0050894543
0.0050741557
0.0050576271
0.0050400331
0.0050215103
0.0050022109
0.0049822485
0.0049617562
0.0049406983
0.0049195128
0.0048972573
0.0048745304
0.0048538226
0.0048171647
8.9899079e-06
9.2310555e-06
1.0392032e-05
1.3066668e-05
1.7352891e-05
2.2792472e-05
2.8762479e-05
3.4795364e-05
4.0621139e-05
4.609849e-05
5.114457e-05
5.5728228e-05
5.9868234e-05
6.3620395e-05
6.7088698e-05
7.0429852e-05
7.3809567e-05
7.7402342e-05
8.1420486e-05
8.6120568e-05
9.1689317e-05
9.8402713e-05
0.00010650077
0.00011619091
0.00012734527
0.00014017064
0.00015491502
0.0001714286
0.00018973831
0.00021021164
0.00023328706
0.0002594848
0.00028941589
0.00032376385
0.00036329521
0.00040892069
0.00046181899
0.00052346136
0.00059539069
0.00067925906
0.00077681408
0.00088987991
0.0010203414
0.0011701997
0.0013415675
0.0015226819
0.0017159398
0.0019248636
0.0021499047
0.0023895131
0.0026405751
0.0028983779
0.003156802
0.00341184
0.003661009
0.0038826043
0.0040754547
0.0042464994
0.0043983233
0.0045329351
0.0046523455
0.004758121
0.0048516393
0.0049344986
0.005008264
0.0050742179
0.0051335042
0.0051870966
0.0052357472
0.0052800425
0.005320434
0.0053572496
0.0053907866
0.0054212248
0.0054485966
0.0054728548
0.0054939147
0.0055113639
0.0055250878
0.0055352128
0.0055419414
0.0055454752
0.0055460213
0.0055438146
0.0055391019
0.0055321389
0.0055231625
0.0055123986
0.005500069
0.0054863756
0.0054714959
0.0054556013
0.0054388237
0.0054213192
0.0054030728
0.0053845362
0.0053647732
0.005344662
0.0053258783
0.0052923519
8.9408762e-06
8.8619295e-06
8.9454046e-06
9.373486e-06
1.0288369e-05
1.1705423e-05
1.3541534e-05
1.5693283e-05
1.8076944e-05
2.0626615e-05
2.3280655e-05
2.5980527e-05
2.8676102e-05
3.1326797e-05
3.3908258e-05
3.6418449e-05
3.887468e-05
4.1309774e-05
4.377625e-05
4.6349912e-05
4.9118024e-05
5.2189808e-05
5.5693266e-05
5.977422e-05
6.4564971e-05
7.024357e-05
7.705033e-05
8.5131167e-05
9.455156e-05
0.00010555108
0.00011843808
0.00013359019
0.00015135673
0.00017185621
0.00019572197
0.0002237247
0.00025683865
0.00029630942
0.00034367215
0.00040075814
0.00046973326
0.00055310941
0.00065370317
0.00077455764
0.00091879387
0.0010825556
0.0012631356
0.001461605
0.001678332
0.001912435
0.0021612797
0.0024201793
0.0026829542
0.0029480755
0.0032141062
0.0034582425
0.0036786971
0.0038798421
0.0040626022
0.0042297723
0.004383132
0.0045231823
0.0046505873
0.0047666434
0.0048724687
0.004968925
0.0050570688
0.0051378624
0.005212038
0.005280251
0.005343071
0.0054009224
0.0054541447
0.0055029674
0.0055474447
0.0055875738
0.0056233465
0.0056545709
0.0056811669
0.0057032404
0.005721013
0.00573474
0.0057446957
0.0057511789
0.0057545022
0.0057549794
0.0057529004
0.0057485407
0.0057421722
0.0057340414
0.0057243657
0.0057133493
0.0057011522
0.0056879584
0.0056737869
0.0056590832
0.0056430069
0.0056264984
0.005610862
0.0055811022
8.9328784e-06
8.8092337e-06
8.7106562e-06
8.6774698e-06
8.7584699e-06
8.9873283e-06
9.3745126e-06
9.9173338e-06
1.0610796e-05
1.1449794e-05
1.2426269e-05
1.3527047e-05
1.473546e-05
1.6032037e-05
1.7397052e-05
1.8813733e-05
2.0269928e-05
2.1758154e-05
2.3277678e-05
2.4836769e-05
2.6452274e-05
2.8150516e-05
2.9968887e-05
3.1957002e-05
3.4173479e-05
3.6691031e-05
3.9604222e-05
4.3017408e-05
4.7039802e-05
5.1815927e-05
5.7540057e-05
6.4402017e-05
7.2617248e-05
8.2429044e-05
9.4183298e-05
0.00010832356
0.00012542799
0.00014624829
0.00017147779
0.00020216926
0.00023989065
0.00028664873
0.00034498913
0.00041809337
0.00050987508
0.00062314277
0.00075703695
0.00091183415
0.0010885668
0.0012875784
0.0015079025
0.0017466711
0.0019991634
0.0022630015
0.0025355046
0.0028006161
0.0030436501
0.0032703531
0.0034831285
0.0036835558
0.0038726703
0.004049208
0.0042132872
0.0043662749
0.0045085536
0.0046403192
0.0047625493
0.0048760037
0.0049811784
0.0050787599
0.00516937
0.0052534548
0.0053313682
0.0054033832
0.0054695306
0.0055298541
0.0055844358
0.0056332659
0.0056763538
0.0057138289
0.0057459335
0.0057729637
0.0057952562
0.0058131738
0.0058270967
0.0058374025
0.0058444399
0.0058485432
0.0058500455
0.0058492476
0.0058464177
0.0058418037
0.0058356037
0.0058280381
0.005819172
0.0058094397
0.0057981486
0.0057861864
0.0057747522
0.0057493187
8.9301817e-06
8.8000157e-06
8.6732829e-06
8.5571671e-06
8.4633232e-06
8.40398e-06
8.3886352e-06
8.4242301e-06
8.51688e-06
8.6725398e-06
8.8963851e-06
9.1917503e-06
9.560055e-06
1.000054e-05
1.051068e-05
1.1086814e-05
1.1724545e-05
1.2419211e-05
1.3166793e-05
1.3964853e-05
1.4813107e-05
1.5713958e-05
1.6673677e-05
1.7703523e-05
1.8819849e-05
2.0044937e-05
2.1409103e-05
2.2950807e-05
2.4716488e-05
2.6764276e-05
2.9169648e-05
3.2024216e-05
3.544035e-05
3.955685e-05
4.4555798e-05
5.0631552e-05
5.8058972e-05
6.7206203e-05
7.8503069e-05
9.2512474e-05
0.00011002041
0.00013209292
0.00016016385
0.00019614747
0.00024248414
0.0003021336
0.00037784683
0.00047160556
0.00058584182
0.00072282385
0.00088424139
0.0010706122
0.0012807203
0.0015125094
0.0017633285
0.0020240021
0.0022816681
0.0025302825
0.0027636968
0.0029864312
0.0032004428
0.0034057117
0.0036020357
0.0037896827
0.0039677295
0.0041350727
0.0042929126
0.0044414507
0.0045806717
0.0047112624
0.004833669
0.0049482128
0.0050551877
0.0051548951
0.0052471708
0.005332067
0.0054097547
0.0054803271
0.0055438712
0.0056005673
0.0056506773
0.0056945206
0.0057324835
0.0057649808
0.0057924517
0.0058153402
0.005834055
0.0058489953
0.0058605621
0.0058691205
0.0058750007
0.0058785065
0.0058798858
0.0058794062
0.0058771909
0.0058736676
0.0058683195
0.005861937
0.0058557594
0.0058353372
8.9285888e-06
8.7969443e-06
8.6657191e-06
8.5359063e-06
8.4097196e-06
8.2901794e-06
8.1805226e-06
8.0839886e-06
8.0039892e-06
7.9442179e-06
7.9085223e-06
7.9006537e-06
7.9240908e-06
7.9818319e-06
8.0763242e-06
8.2094547e-06
8.3824944e-06
8.5961334e-06
8.8506497e-06
9.1461451e-06
9.4827695e-06
9.8609944e-06
1.0281926e-05
1.074776e-05
1.1262191e-05
1.1830877e-05
1.2462109e-05
1.3167496e-05
1.3962436e-05
1.4867044e-05
1.5907745e-05
1.711829e-05
1.8541568e-05
2.0231992e-05
2.2259968e-05
2.4712344e-05
2.7702884e-05
3.1384508e-05
3.5954773e-05
4.1650481e-05
4.8808857e-05
5.7892084e-05
6.9537414e-05
8.4625869e-05
0.00010435775
0.00013035845
0.00016466318
0.0002094892
0.0002674479
0.00034149225
0.00043477951
0.00055036095
0.00069068015
0.00085727647
0.0010506617
0.0012681414
0.0015025536
0.0017456173
0.0019879931
0.0022270197
0.0024575191
0.0026784087
0.0028931795
0.0031024254
0.0033056364
0.0035018633
0.0036910558
0.0038722792
0.0040443522
0.0042080999
0.0043634394
0.0045104745
0.0046492217
0.0047795434
0.0049011587
0.0050141414
0.005118657
0.0052147683
0.0053025793
0.0053822918
0.0054541508
0.0055184649
0.0055756398
0.0056261089
0.0056703388
0.0057088347
0.0057420644
0.0057704877
0.0057945723
0.0058147497
0.0058314216
0.0058449573
0.0058556715
0.0058638879
0.0058697999
0.0058738415
0.005875685
0.0058760188
0.0058762034
0.0058616284
8.9275882e-06
8.7952632e-06
8.6629882e-06
8.530807e-06
8.3990531e-06
8.2683023e-06
8.13935e-06
8.0131861e-06
7.891002e-06
7.7741996e-06
7.6643712e-06
7.5632644e-06
7.4727465e-06
7.3947488e-06
7.3312118e-06
7.2840504e-06
7.2551087e-06
7.2461051e-06
7.2586146e-06
7.2940822e-06
7.3538446e-06
7.4391779e-06
7.5513393e-06
7.6916881e-06
7.8618292e-06
8.063774e-06
8.3002345e-06
8.5749515e-06
8.892932e-06
9.2607554e-06
9.6870942e-06
1.0183372e-05
1.0764513e-05
1.1449815e-05
1.2264413e-05
1.3240619e-05
1.4420331e-05
1.5859024e-05
1.7629899e-05
1.9827291e-05
2.2578708e-05
2.6059953e-05
3.0513695e-05
3.6272054e-05
4.3810533e-05
5.3801337e-05
6.71717e-05
8.5129646e-05
0.00010924422
0.00014152255
0.00018446979
0.00024109088
0.00031477536
0.00040907776
0.00052743199
0.00067223615
0.00084342743
0.0010381362
0.0012503759
0.0014744815
0.0017033092
0.0019316289
0.0021584432
0.002379994
0.0025943131
0.0028047934
0.0030115498
0.0032141932
0.0034114414
0.0036029821
0.0037876349
0.0039646854
0.0041340915
0.0042950403
0.0044469567
0.0045898437
0.004723635
0.0048481685
0.0049634403
0.0050695629
0.0051666803
0.0052550244
0.0053349613
0.0054068813
0.0054712366
0.0055285662
0.0055793689
0.0056241511
0.0056634412
0.0056977315
0.0057274992
0.0057531858
0.0057751825
0.0057938816
0.0058095587
0.0058226693
0.0058330815
0.0058413968
0.0058491456
0.0058414231
8.9270376e-06
8.7943332e-06
8.6616552e-06
8.5289464e-06
8.396233e-06
8.2635894e-06
8.1311738e-06
7.9992472e-06
7.8681709e-06
7.7383973e-06
7.6104632e-06
7.4849906e-06
7.3626929e-06
7.2443745e-06
7.1309244e-06
7.0233096e-06
6.9225659e-06
6.8297793e-06
6.7460707e-06
6.6725856e-06
6.6104814e-06
6.5609186e-06
6.5250645e-06
6.5041069e-06
6.4992721e-06
6.511855e-06
6.5433013e-06
6.5953183e-06
6.669961e-06
6.7697148e-06
6.8977142e-06
7.0579845e-06
7.2556932e-06
7.4975868e-06
7.7925145e-06
8.1518306e-06
8.5902451e-06
9.1270885e-06
9.7879084e-06
1.0606201e-05
1.1626675e-05
1.291029e-05
1.4540899e-05
1.6634648e-05
1.935657e-05
2.2944348e-05
2.7737472e-05
3.4208984e-05
4.3022611e-05
5.5097403e-05
7.1693281e-05
9.450891e-05
0.00012577541
0.00016831522
0.00022554219
0.00030124746
0.00039897626
0.00052119272
0.00066826093
0.00083862231
0.0010284064
0.0012324245
0.0014464502
0.0016650118
0.0018836388
0.0021020555
0.00231765
0.0025279974
0.0027359298
0.0029414558
0.0031442402
0.0033425022
0.0035357581
0.0037230589
0.0039025367
0.0040740463
0.0042370733
0.0043909431
0.0045353166
0.0046700474
0.0047950477
0.0049103326
0.0050161295
0.0051126955
0.0052003977
0.0052797592
0.0053512466
0.0054153797
0.0054727252
0.0055238141
0.0055691924
0.0056093691
0.0056448131
0.0056759931
0.0057032737
0.0057271454
0.0057476741
0.0057653965
0.0057820521
0.0057823843
8.9267287e-06
8.7937934e-06
8.660916e-06
8.5280543e-06
8.3951983e-06
8.2623407e-06
8.1295062e-06
7.9967707e-06
7.8642581e-06
7.732128e-06
7.6005669e-06
7.4697885e-06
7.34004e-06
7.2116098e-06
7.0848317e-06
6.9600879e-06
6.8378128e-06
6.7184926e-06
6.6026645e-06
6.4909154e-06
6.3838793e-06
6.2822325e-06
6.1866923e-06
6.0980167e-06
6.0170034e-06
5.9444913e-06
5.8813754e-06
5.8286283e-06
5.7873234e-06
5.7586663e-06
5.7440573e-06
5.7451645e-06
5.7640029e-06
5.8030868e-06
5.8656268e-06
5.9556698e-06
6.0783665e-06
6.2403909e-06
6.4505064e-06
6.7203115e-06
7.0651112e-06
7.5053305e-06
8.0687533e-06
8.7935955e-06
9.7334519e-06
1.0965212e-05
1.2600004e-05
1.4797801e-05
1.7790161e-05
2.1912581e-05
2.7649292e-05
3.5695198e-05
4.7047151e-05
6.3108806e-05
8.5811653e-05
0.00011771297
0.00016197649
0.00022213259
0.00030154603
0.00040286777
0.00052731982
0.0006742986
0.00084188873
0.0010265262
0.0012236762
0.0014299767
0.0016412171
0.0018531431
0.0020658266
0.0022773098
0.0024852639
0.002691279
0.0028955755
0.0030978307
0.0032962448
0.0034898753
0.0036778289
0.003858155
0.0040300379
0.0041930335
0.0043465463
0.0044900857
0.0046236393
0.0047471708
0.0048608209
0.0049650144
0.0050600661
0.0051464425
0.0052247004
0.0052953572
0.0053590029
0.0054161877
0.0054674448
0.0055133162
0.0055542515
0.0055907841
0.0056231735
0.0056519113
0.0056789902
0.0056887943
8.9265499e-06
8.793428e-06
8.6603928e-06
8.5274318e-06
8.3945435e-06
8.2617169e-06
8.1289556e-06
7.9962933e-06
7.863792e-06
7.7315313e-06
7.5995994e-06
7.46809e-06
7.3371049e-06
7.2067584e-06
7.07718e-06
6.9485178e-06
6.820942e-06
6.6946468e-06
6.5698535e-06
6.4468122e-06
6.325804e-06
6.2071421e-06
6.0911723e-06
5.9782752e-06
5.868866e-06
5.7633955e-06
5.6623526e-06
5.5662689e-06
5.4757235e-06
5.39135e-06
5.3138536e-06
5.2440308e-06
5.1827913e-06
5.1311976e-06
5.0905255e-06
5.0623299e-06
5.048524e-06
5.0515018e-06
5.0743227e-06
5.1209876e-06
5.1966827e-06
5.3081909e-06
5.4645916e-06
5.6782235e-06
5.9662689e-06
6.3528419e-06
6.8723923e-06
7.5748285e-06
8.5331319e-06
9.8549557e-06
1.1700134e-05
1.4306387e-05
1.8029662e-05
2.3402741e-05
3.1216568e-05
4.2624335e-05
5.9265313e-05
8.3342044e-05
0.00011759763
0.00016516109
0.00022919447
0.00031240442
0.00041667967
0.00054259707
0.00068917147
0.000854464
0.0010353824
0.0012278301
0.0014289965
0.0016354271
0.0018431132
0.0020520696
0.0022604027
0.0024656808
0.0026700484
0.0028734824
0.0030750916
0.0032729803
0.0034660158
0.0036531397
0.003832422
0.00400267
0.0041636997
0.0043147968
0.0044556542
0.0045865204
0.0047073129
0.0048183497
0.0049200933
0.0050129455
0.0050974908
0.0051742598
0.0052438146
0.0053067494
0.0053635756
0.0054148665
0.0054610608
0.0055026153
0.0055418314
0.0055627578
8.9264805e-06
8.7931936e-06
8.6600044e-06
8.5269273e-06
8.393976e-06
8.2611503e-06
8.1284562e-06
7.9959196e-06
7.8635856e-06
7.7315116e-06
7.5997593e-06
7.468391e-06
7.3374698e-06
7.2070613e-06
7.0772348e-06
6.9480646e-06
6.8196316e-06
6.6920245e-06
6.5653417e-06
6.4396925e-06
6.315199e-06
6.1919979e-06
6.0702417e-06
5.9501007e-06
5.8317647e-06
5.7154444e-06
5.601373e-06
5.4898085e-06
5.3810357e-06
5.2753686e-06
5.1731548e-06
5.0747816e-06
4.9806824e-06
4.891346e-06
4.807334e-06
4.7293012e-06
4.6580206e-06
4.5944187e-06
4.53963e-06
4.4950745e-06
4.4625486e-06
4.4443504e-06
4.4434833e-06
4.4639335e-06
4.5111464e-06
4.5926051e-06
4.7187995e-06
4.9047826e-06
5.1726157e-06
5.5549279e-06
6.1002373e-06
6.8818091e-06
8.01152e-06
9.6617367e-06
1.2099249e-05
1.5735969e-05
2.1203144e-05
2.94437e-05
4.1806785e-05
6.0118646e-05
8.6697389e-05
0.00012425222
0.00017569157
0.00024378693
0.00033075195
0.00043798485
0.000565741
0.00071285926
0.00087743812
0.0010566957
0.0012468292
0.0014453122
0.0016487962
0.0018535376
0.0020599551
0.0022657405
0.0024692986
0.0026721408
0.0028747145
0.0030751174
0.0032714886
0.0034626495
0.0036475311
0.0038238043
0.0039906964
0.0041482676
0.0042955053
0.0044325365
0.004559581
0.0046767251
0.0047844759
0.0048832255
0.0049735028
0.0050559042
0.0051309497
0.0051992345
0.0052613423
0.0053176907
0.0053709609
0.0054049011
8.9265163e-06
8.7930898e-06
8.6597581e-06
8.5265558e-06
8.3935104e-06
8.2606338e-06
8.127939e-06
7.9954524e-06
7.8632143e-06
7.7312746e-06
7.5996872e-06
7.4685062e-06
7.3377853e-06
7.2075786e-06
7.0779405e-06
6.9489261e-06
6.8205918e-06
6.6929956e-06
6.5661976e-06
6.4402607e-06
6.3152514e-06
6.1912403e-06
6.0683034e-06
5.9465229e-06
5.8259885e-06
5.7067983e-06
5.5890603e-06
5.4728936e-06
5.3584299e-06
5.2458152e-06
5.1352112e-06
5.026798e-06
4.9207765e-06
4.8173714e-06
4.716836e-06
4.6194587e-06
4.5255701e-06
4.4355536e-06
4.3498607e-06
4.2690326e-06
4.1937281e-06
4.1247609e-06
4.0631581e-06
4.0102415e-06
3.9677472e-06
3.93801e-06
3.9242408e-06
3.9309486e-06
3.9646567e-06
4.0349402e-06
4.1559446e-06
4.3490596e-06
4.6472573e-06
5.1019113e-06
5.7936181e-06
6.8504268e-06
8.4763317e-06
1.0994263e-05
1.490455e-05
2.0959484e-05
3.0245676e-05
4.4258636e-05
6.4931609e-05
9.4611714e-05
0.00013593045
0.00019159788
0.00026410414
0.00035533119
0.00046635281
0.00059719442
0.00074653167
0.00091242452
0.0010920665
0.0012817664
0.0014793247
0.0016809997
0.0018840937
0.0020889285
0.0022925335
0.0024945588
0.002695909
0.0028971051
0.0030954279
0.0032892271
0.003477274
0.0036586316
0.0038303665
0.0039927428
0.0041454121
0.0042877818
0.0044202313
0.0045427786
0.0046558316
0.0047598915
0.00485539
0.0049429066
0.0050231024
0.0050963355
0.0051657413
0.0052148105
8.9266486e-06
8.7931103e-06
8.6596566e-06
8.5263362e-06
8.3931877e-06
8.2602329e-06
8.1274926e-06
7.9949956e-06
7.862781e-06
7.7308954e-06
7.5993893e-06
7.4683142e-06
7.3377216e-06
7.2076632e-06
7.0781903e-06
6.9493542e-06
6.8212059e-06
6.6937964e-06
6.5671762e-06
6.441396e-06
6.3165064e-06
6.1925584e-06
6.0696038e-06
5.947695e-06
5.8268863e-06
5.7072336e-06
5.5887958e-06
5.4716347e-06
5.3558167e-06
5.2414129e-06
5.1285004e-06
5.0171634e-06
4.9074944e-06
4.7995956e-06
4.6935809e-06
4.5895773e-06
4.4877285e-06
4.3881974e-06
4.2911708e-06
4.1968657e-06
4.1055373e-06
4.0174898e-06
3.9330926e-06
3.8528038e-06
3.7772019e-06
3.7070371e-06
3.6433103e-06
3.5873891e-06
3.5411954e-06
3.5074988e-06
3.4903623e-06
3.4958691e-06
3.5333662e-06
3.6174329e-06
3.7710085e-06
4.0309486e-06
4.4573995e-06
5.1478576e-06
6.2598283e-06
8.0445153e-06
1.0893594e-05
1.5400552e-05
2.2432359e-05
3.3202256e-05
4.9328302e-05
7.2836126e-05
0.00010610297
0.00015172039
0.00021227265
0.00029005917
0.00038670129
0.00050298172
0.00063860163
0.00079194621
0.00096097501
0.0011425618
0.0013333314
0.0015313123
0.0017318997
0.0019339885
0.0021373135
0.002338823
0.002538949
0.0027390698
0.0029379513
0.003133222
0.0033234233
0.0035073987
0.0036834634
0.0038498475
0.0040069282
0.0041538641
0.0042908699
0.0044181692
0.0045359427
0.0046446909
0.0047450266
0.0048372153
0.0049248876
0.0049913651
8.9268655e-06
8.7932411e-06
8.6596883e-06
8.5262653e-06
8.3930188e-06
8.2599793e-06
8.127174e-06
7.994635e-06
7.8624014e-06
7.7305181e-06
7.5990337e-06
7.4679983e-06
7.3374625e-06
7.2074773e-06
7.0780936e-06
6.9493622e-06
6.8213334e-06
6.6940569e-06
6.5675819e-06
6.4419565e-06
6.3172281e-06
6.1934433e-06
6.0706476e-06
5.9488857e-06
5.8282016e-06
5.7086388e-06
5.5902402e-06
5.4730488e-06
5.3571077e-06
5.2424604e-06
5.1291517e-06
5.0172276e-06
4.9067364e-06
4.7977291e-06
4.6902603e-06
4.584389e-06
4.4801795e-06
4.3777032e-06
4.2770393e-06
4.1782774e-06
4.0815198e-06
3.9868846e-06
3.8945104e-06
3.8045628e-06
3.7172433e-06
3.6328029e-06
3.5515639e-06
3.4739517e-06
3.4005444e-06
3.3321519e-06
3.2699383e-06
3.2156182e-06
3.1717848e-06
3.1424508e-06
3.1339341e-06
3.156383e-06
3.2265089e-06
3.3717242e-06
3.6372617e-06
4.0978723e-06
4.8750059e-06
6.1628248e-06
8.2660226e-06
1.1650546e-05
1.7007664e-05
2.5323944e-05
3.7947443e-05
5.663646e-05
8.3529612e-05
0.00012108227
0.00017189544
0.00023847368
0.00032292917
0.00042657399
0.00054983608
0.00069191965
0.00085088632
0.0010245578
0.0012092025
0.0014019422
0.0016005885
0.0018003619
0.0020015022
0.0022024565
0.0024020365
0.0025999562
0.0027984896
0.0029943148
0.003185793
0.0033715369
0.0035505842
0.0037202758
0.0038807444
0.0040316227
0.0041725697
0.0043039224
0.0044260106
0.0045389742
0.0046468666
0.004733072
8.9271546e-06
8.7934658e-06
8.6598352e-06
8.5263269e-06
8.3929936e-06
8.2598731e-06
8.1269982e-06
7.9944042e-06
7.8621312e-06
7.7302231e-06
7.5987273e-06
7.4676931e-06
7.3371703e-06
7.2072095e-06
7.0778613e-06
6.9491766e-06
6.8212055e-06
6.6939979e-06
6.5676029e-06
6.4420685e-06
6.3174419e-06
6.1937689e-06
6.0710943e-06
5.9494612e-06
5.8289117e-06
5.7094864e-06
5.5912243e-06
5.4741634e-06
5.3583402e-06
5.2437901e-06
5.1305474e-06
5.0186458e-06
4.9081183e-06
4.7989974e-06
4.6913158e-06
4.5851066e-06
4.4804035e-06
4.3772419e-06
4.2756587e-06
4.1756939e-06
4.0773907e-06
3.980797e-06
3.8859669e-06
3.7929621e-06
3.701855e-06
3.612732e-06
3.5256998e-06
3.4408938e-06
3.3584914e-06
3.278733e-06
3.2019544e-06
3.1286391e-06
3.0595036e-06
2.995639e-06
2.938748e-06
2.8915493e-06
2.8584955e-06
2.8469488e-06
2.8691909e-06
2.9459108e-06
3.1115824e-06
3.4231251e-06
3.9740215e-06
4.9143242e-06
6.4810154e-06
9.0401737e-06
1.3143469e-05
1.9597401e-05
2.953225e-05
4.4466261e-05
6.6339854e-05
9.7446004e-05
0.00014035924
0.00019770085
0.00027188341
0.00036474647
0.00047719042
0.00060918626
0.00075922711
0.00092501953
0.0011040336
0.0012921447
0.0014870709
0.001685177
0.0018843898
0.0020843221
0.0022827318
0.0024798372
0.0026764663
0.0028719948
0.0030639463
0.003250802
0.0034314676
0.0036041095
0.0037673874
0.0039214806
0.0040659803
0.0042008982
0.0043304387
0.0044384928
8.9275042e-06
8.7937689e-06
8.6600785e-06
8.526501e-06
8.3930936e-06
8.2598997e-06
8.1269574e-06
7.9943051e-06
7.8619841e-06
7.7300385e-06
7.5985148e-06
7.4674616e-06
7.3369282e-06
7.2069647e-06
7.0776216e-06
6.9489494e-06
6.8209985e-06
6.6938186e-06
6.5674588e-06
6.4419675e-06
6.3173918e-06
6.1937777e-06
6.0711701e-06
5.9496123e-06
5.829146e-06
5.7098117e-06
5.5916478e-06
5.4746915e-06
5.358978e-06
5.2445409e-06
5.1314122e-06
5.0196222e-06
4.9091995e-06
4.8001714e-06
4.6925639e-06
4.5864015e-06
4.4817079e-06
4.3785057e-06
4.2768171e-06
4.1766639e-06
4.078068e-06
3.9810515e-06
3.8856377e-06
3.7918511e-06
3.6997189e-06
3.6092713e-06
3.5205439e-06
3.4335795e-06
3.3484324e-06
3.2651731e-06
3.1838978e-06
3.1047413e-06
3.0278993e-06
2.9536649e-06
2.8824891e-06
2.8150848e-06
2.7526095e-06
2.6969748e-06
2.6513815e-06
2.6212607e-06
2.6158234e-06
2.6506342e-06
2.7520098e-06
2.9636033e-06
3.3570556e-06
4.0487413e-06
5.223431e-06
7.1705043e-06
1.0332991e-05
1.5372261e-05
2.3244067e-05
3.5266816e-05
5.3182434e-05
7.9154636e-05
0.00011567983
0.00016545667
0.00023108819
0.00031481781
0.00041803443
0.00054105153
0.00068316065
0.00084207378
0.0010152303
0.0011991226
0.0013905105
0.0015871436
0.0017843059
0.0019824692
0.0021797334
0.00237579
0.0025705576
0.0027652523
0.0029570973
0.003144623
0.0033264496
0.0035013068
0.0036670807
0.00382387
0.0039754647
0.0041068413
8.9279043e-06
8.7941364e-06
8.6604009e-06
8.5267682e-06
8.3932985e-06
8.2600401e-06
8.1270353e-06
7.9943259e-06
7.8619545e-06
7.7299658e-06
7.5984062e-06
7.4673237e-06
7.3367674e-06
7.2067869e-06
7.0774325e-06
6.9487545e-06
6.820803e-06
6.6936278e-06
6.5672778e-06
6.4418014e-06
6.3172459e-06
6.1936575e-06
6.0710809e-06
5.9495597e-06
5.8291359e-06
5.70985e-06
5.5917406e-06
5.4748448e-06
5.359198e-06
5.2448336e-06
5.1317833e-06
5.0200769e-06
4.9097423e-06
4.8008057e-06
4.6932913e-06
4.5872216e-06
4.4826176e-06
4.3794982e-06
4.2778812e-06
4.1777827e-06
4.0792176e-06
3.9821996e-06
3.8867414e-06
3.792855e-06
3.700552e-06
3.6098439e-06
3.5207426e-06
3.433261e-06
3.3474145e-06
3.263222e-06
3.1807086e-06
3.099909e-06