/*--------------------------------*- C++ -*----------------------------------*\
| =========                 |                                                 |
| \\      /  F ield         | OpenFOAM: The Open Source CFD Toolbox           |
|  \\    /   O peration     | Version:  2206                                  |
|   \\  /    A nd           | Website:  www.openfoam.com                      |
|    \\/     M anipulation  |                                                 |
\*---------------------------------------------------------------------------*/
FoamFile
{
    version     2.0;
    format      ascii;
    arch        "LSB;label=32;scalar=64";
    class       volScalarField;
    location    "300";
    object      nut;
}
// * * * * * * * * * * * * * * * * * * * * * * * * * * * * * * * * * * * * * //

dimensions      [0 2 -1 0 0 0 0];

internalField   nonuniform List<scalar> 
7480
(
1.5121083e-06
1.8587755e-06
1.5441759e-06
1.0161504e-06
6.045577e-07
3.7090548e-07
2.5856116e-07
2.0377504e-07
1.7339734e-07
1.5361185e-07
1.3832472e-07
1.2521101e-07
1.1378372e-07
1.0389527e-07
9.5320266e-08
8.7846574e-08
8.13196e-08
7.5585361e-08
7.0484383e-08
6.5912819e-08
6.1807856e-08
5.8101655e-08
5.4731942e-08
5.165941e-08
4.8852911e-08
4.6278761e-08
4.3907049e-08
4.1718739e-08
3.9698766e-08
3.782991e-08
3.609718e-08
3.4490793e-08
3.300214e-08
3.1621605e-08
3.0341128e-08
2.9155241e-08
2.8058942e-08
2.7047332e-08
2.6117104e-08
2.5266613e-08
2.4494465e-08
2.3799215e-08
2.3180921e-08
2.2639485e-08
2.2176272e-08
2.1800903e-08
2.1506615e-08
2.1307247e-08
2.1201528e-08
2.1186476e-08
2.1259064e-08
2.1415405e-08
2.1647286e-08
2.1939662e-08
2.227781e-08
2.2651572e-08
2.3038583e-08
2.3405539e-08
2.3720376e-08
2.3959372e-08
2.4119252e-08
2.4202299e-08
2.4215484e-08
2.4169092e-08
2.4076089e-08
2.3948271e-08
2.3796038e-08
2.3627699e-08
2.3449217e-08
2.3265013e-08
2.3078448e-08
2.2891502e-08
2.2705439e-08
2.2521593e-08
2.2340295e-08
2.2161731e-08
2.198597e-08
2.1805755e-08
2.1621691e-08
2.1435959e-08
2.1249438e-08
2.1062572e-08
2.087464e-08
2.0685358e-08
2.0494673e-08
2.0302553e-08
2.0109303e-08
1.9915003e-08
1.9720094e-08
1.9524722e-08
1.9329185e-08
1.9133618e-08
1.8938457e-08
1.8742621e-08
1.8549339e-08
1.8346854e-08
1.8170235e-08
1.7915895e-08
1.7772567e-08
1.7384841e-08
1.4111775e-06
1.630169e-06
1.5385761e-06
1.2881088e-06
1.0362394e-06
8.1134382e-07
6.4382434e-07
5.1802983e-07
4.2146494e-07
3.4679145e-07
2.8967331e-07
2.4639649e-07
2.1353163e-07
1.8823572e-07
1.6835547e-07
1.5236675e-07
1.3922976e-07
1.2821023e-07
1.1880511e-07
1.1068162e-07
1.036125e-07
9.7421477e-08
9.1974612e-08
8.7173848e-08
8.2847624e-08
7.8915438e-08
7.533367e-08
7.2080502e-08
6.9142634e-08
6.6508232e-08
6.4169727e-08
6.2124707e-08
6.0371965e-08
5.891037e-08
5.7741453e-08
5.6869957e-08
5.6302833e-08
5.6052163e-08
5.6138365e-08
5.6590658e-08
5.7445911e-08
5.8749298e-08
6.0556467e-08
6.2932041e-08
6.5956643e-08
6.9714662e-08
7.4263661e-08
7.965433e-08
8.5901908e-08
9.2999147e-08
1.0091772e-07
1.0965408e-07
1.1901689e-07
1.287842e-07
1.3874156e-07
1.4856972e-07
1.5779605e-07
1.6599304e-07
1.7290408e-07
1.7849416e-07
1.8288062e-07
1.8625894e-07
1.8881861e-07
1.9063044e-07
1.9185862e-07
1.926477e-07
1.9311168e-07
1.9333408e-07
1.9337588e-07
1.9328141e-07
1.9308132e-07
1.9279426e-07
1.924374e-07
1.9202394e-07
1.9155854e-07
1.9104199e-07
1.904591e-07
1.896575e-07
1.8870183e-07
1.8764471e-07
1.8650317e-07
1.8528199e-07
1.839827e-07
1.8261085e-07
1.8117147e-07
1.7967219e-07
1.7812049e-07
1.7652385e-07
1.7489051e-07
1.7322712e-07
1.7154044e-07
1.6983639e-07
1.681208e-07
1.6639736e-07
1.6466848e-07
1.629352e-07
1.612211e-07
1.5926991e-07
1.5790209e-07
1.5465177e-07
1.101438e-06
1.4048443e-06
1.43591e-06
1.3410358e-06
1.2076828e-06
1.0741618e-06
9.6696854e-07
8.8450868e-07
8.204083e-07
7.681399e-07
7.2396395e-07
6.7969413e-07
6.3737253e-07
6.0223598e-07
5.7249974e-07
5.469542e-07
5.249178e-07
5.0589957e-07
4.895396e-07
4.7560039e-07
4.6391814e-07
4.5435503e-07
4.4681297e-07
4.412116e-07
4.3361687e-07
4.2648458e-07
4.1998563e-07
4.14329e-07
4.0972073e-07
4.0635901e-07
4.0445549e-07
4.0423026e-07
4.0589619e-07
4.0966704e-07
4.15772e-07
4.2445204e-07
4.3596862e-07
4.5065624e-07
4.68948e-07
4.9137804e-07
5.1857948e-07
5.5129817e-07
5.9040643e-07
6.3689736e-07
6.9195759e-07
7.5669528e-07
8.3195029e-07
9.1824255e-07
1.0156823e-06
1.1240433e-06
1.2423315e-06
1.3697233e-06
1.504306e-06
1.6431223e-06
1.7832482e-06
1.9203447e-06
2.0485022e-06
2.1626681e-06
2.2600864e-06
2.3406208e-06
2.4059265e-06
2.4586992e-06
2.4999114e-06
2.5316415e-06
2.556173e-06
2.5752934e-06
2.5903642e-06
2.602357e-06
2.6119711e-06
2.6197094e-06
2.6259096e-06
2.6307716e-06
2.6344951e-06
2.6372276e-06
2.6390142e-06
2.6398542e-06
2.6395247e-06
2.6357505e-06
2.6296207e-06
2.6218947e-06
2.6128055e-06
2.6024189e-06
2.59077e-06
2.5779496e-06
2.5640355e-06
2.549142e-06
2.533374e-06
2.516839e-06
2.4996503e-06
2.4819012e-06
2.4636858e-06
2.4450891e-06
2.4261883e-06
2.4070609e-06
2.3876775e-06
2.3682979e-06
2.348574e-06
2.3266273e-06
2.3112383e-06
2.273164e-06
5.0849081e-07
9.5920345e-07
1.1798549e-06
1.2285221e-06
1.2004678e-06
1.1429454e-06
1.0804474e-06
1.0213991e-06
9.6993402e-07
9.3013431e-07
9.061827e-07
9.0240258e-07
9.0580137e-07
8.5769436e-07
8.2198225e-07
7.9455732e-07
7.7454323e-07
7.6003809e-07
7.5001718e-07
7.4384541e-07
7.4112076e-07
7.4155774e-07
7.4498775e-07
7.5125257e-07
7.5982231e-07
7.7018274e-07
7.8219844e-07
7.9608682e-07
8.1223848e-07
8.3113201e-07
8.5331686e-07
8.7940877e-07
9.1008057e-07
9.4606418e-07
9.8815778e-07
1.0372175e-06
1.094212e-06
1.1604138e-06
1.2374139e-06
1.3271094e-06
1.4316994e-06
1.5537053e-06
1.6959982e-06
1.8618023e-06
2.0547584e-06
2.2780503e-06
2.5342501e-06
2.8247828e-06
3.1501172e-06
3.5097245e-06
3.9016531e-06
4.3199718e-06
4.761347e-06
5.2180793e-06
5.6817187e-06
6.1406205e-06
6.5796648e-06
6.9849188e-06
7.3473097e-06
7.6641391e-06
7.9378063e-06
8.1722236e-06
8.3700384e-06
8.5382301e-06
8.6832192e-06
8.8102971e-06
8.923613e-06
9.0262159e-06
9.1202859e-06
9.2073628e-06
9.2884765e-06
9.3642248e-06
9.4351221e-06
9.5015634e-06
9.5636512e-06
9.6213167e-06
9.6740794e-06
9.7002863e-06
9.71544e-06
9.7243265e-06
9.7276687e-06
9.7257302e-06
9.7186764e-06
9.7068336e-06
9.6905044e-06
9.6700947e-06
9.6459808e-06
9.6185419e-06
9.5881714e-06
9.5552008e-06
9.5199511e-06
9.4827307e-06
9.4438046e-06
9.4034807e-06
9.3616075e-06
9.3193573e-06
9.2747396e-06
9.2242798e-06
9.189949e-06
9.0978791e-06
2.2507791e-07
4.2727899e-07
6.9867175e-07
8.9335342e-07
9.8973066e-07
1.0235574e-06
1.0250777e-06
1.0107884e-06
9.8915848e-07
9.6539456e-07
9.4380871e-07
9.2880268e-07
9.2205313e-07
9.2309733e-07
9.3205663e-07
9.4902975e-07
9.6932906e-07
9.5332595e-07
9.2969414e-07
9.1683912e-07
9.136461e-07
9.184679e-07
9.3038634e-07
9.4877494e-07
9.7327434e-07
1.0037168e-06
1.0384399e-06
1.0774985e-06
1.1214351e-06
1.1707823e-06
1.2261429e-06
1.2882512e-06
1.3580174e-06
1.436563e-06
1.5252535e-06
1.6257027e-06
1.7395495e-06
1.8684257e-06
2.0150886e-06
2.1828684e-06
2.3755659e-06
2.5974554e-06
2.8533193e-06
3.1484848e-06
3.4887242e-06
3.8788805e-06
4.3212528e-06
4.8166569e-06
5.365966e-06
5.9690261e-06
6.6241504e-06
7.3263185e-06
8.0661684e-06
8.8340321e-06
9.6192301e-06
1.0407964e-05
1.1176441e-05
1.1901441e-05
1.2568107e-05
1.3170681e-05
1.3707775e-05
1.4182011e-05
1.4599754e-05
1.496941e-05
1.5299574e-05
1.5597907e-05
1.5870864e-05
1.6123517e-05
1.6359654e-05
1.6582038e-05
1.6792497e-05
1.6991991e-05
1.7181686e-05
1.7362349e-05
1.7534143e-05
1.7696872e-05
1.7849669e-05
1.798674e-05
1.8108034e-05
1.8215068e-05
1.8308914e-05
1.8390172e-05
1.8459194e-05
1.8516551e-05
1.8562885e-05
1.8599002e-05
1.8625728e-05
1.8643877e-05
1.8654312e-05
1.8657796e-05
1.8654989e-05
1.8646618e-05
1.863333e-05
1.8615775e-05
1.8594003e-05
1.8569583e-05
1.8541048e-05
1.8500001e-05
1.8478982e-05
1.8402021e-05
1.7530559e-07
2.1588819e-07
3.1857591e-07
4.6496232e-07
6.0526919e-07
7.1035584e-07
7.7989459e-07
8.2293724e-07
8.4804752e-07
8.6130782e-07
8.6700451e-07
8.6872074e-07
8.6925802e-07
8.7064707e-07
8.7464817e-07
8.8293901e-07
8.963607e-07
9.1555625e-07
9.4163122e-07
9.7584757e-07
1.0156337e-06
1.0618165e-06
1.0570505e-06
1.0562495e-06
1.0670794e-06
1.0882309e-06
1.1196801e-06
1.1617347e-06
1.2148792e-06
1.2798205e-06
1.3575285e-06
1.4493328e-06
1.5571596e-06
1.6840365e-06
1.8350368e-06
2.0181932e-06
2.2360058e-06
2.4752306e-06
2.740845e-06
3.0385267e-06
3.3740672e-06
3.7535782e-06
4.1838048e-06
4.6726316e-06
5.2300616e-06
5.8554218e-06
6.5393277e-06
7.2797159e-06
8.0783274e-06
8.936304e-06
9.8526784e-06
1.0822882e-05
1.1837089e-05
1.2881903e-05
1.3946067e-05
1.4997471e-05
1.6005262e-05
1.6954226e-05
1.7837595e-05
1.8655192e-05
1.9409148e-05
2.010234e-05
2.0739574e-05
2.1327086e-05
2.1871498e-05
2.2379261e-05
2.2856483e-05
2.3308324e-05
2.3738816e-05
2.4151096e-05
2.4546254e-05
2.4923828e-05
2.5288649e-05
2.5641424e-05
2.5981952e-05
2.6309533e-05
2.6622476e-05
2.6918961e-05
2.7195778e-05
2.7451529e-05
2.7686128e-05
2.7899824e-05
2.8092836e-05
2.8265728e-05
2.8419281e-05
2.8554567e-05
2.8672772e-05
2.8775124e-05
2.8862972e-05
2.8937572e-05
2.8999394e-05
2.9050172e-05
2.9091167e-05
2.9123426e-05
2.9147413e-05
2.9164709e-05
2.9175688e-05
2.9165399e-05
2.9175205e-05
2.9133774e-05
1.6890592e-07
1.7480133e-07
1.9622678e-07
2.4159255e-07
3.0836524e-07
3.8394118e-07
4.5673372e-07
5.2096442e-07
5.7521758e-07
6.1996247e-07
6.5624939e-07
6.8541384e-07
7.089271e-07
7.282392e-07
7.4480495e-07
7.6010169e-07
7.7546615e-07
7.9213607e-07
8.1144442e-07
8.3489181e-07
8.6343602e-07
8.9843685e-07
9.4048072e-07
9.8982961e-07
1.0449898e-06
1.1061102e-06
1.1741417e-06
1.2083302e-06
1.2332738e-06
1.2729144e-06
1.3285388e-06
1.4020374e-06
1.4958768e-06
1.6130708e-06
1.757552e-06
1.9348175e-06
2.1514246e-06
2.4125069e-06
2.7238908e-06
3.092774e-06
3.5277696e-06
4.0392946e-06
4.6407619e-06
5.3515959e-06
6.2044586e-06
6.9692797e-06
7.8046345e-06
8.7621304e-06
9.8394079e-06
1.1030206e-05
1.2321697e-05
1.369051e-05
1.5103323e-05
1.6563517e-05
1.8073095e-05
1.9177917e-05
2.0095453e-05
2.1003322e-05
2.1904155e-05
2.2797391e-05
2.3677981e-05
2.4540552e-05
2.5381664e-05
2.6198774e-05
2.6990324e-05
2.7756825e-05
2.8500073e-05
2.9221682e-05
2.9923238e-05
3.0606493e-05
3.1272687e-05
3.1922086e-05
3.2555172e-05
3.3172024e-05
3.3771827e-05
3.4353271e-05
3.4913905e-05
3.5452003e-05
3.5964496e-05
3.6448461e-05
3.690224e-05
3.7325146e-05
3.7716933e-05
3.8077941e-05
3.840894e-05
3.8711143e-05
3.898601e-05
3.9235143e-05
3.9460389e-05
3.9663552e-05
3.9846341e-05
4.0010504e-05
4.0157688e-05
4.0289385e-05
4.0406725e-05
4.0511004e-05
4.0605393e-05
4.0668872e-05
4.0745274e-05
4.079003e-05
1.6818107e-07
1.6866179e-07
1.7195781e-07
1.8126017e-07
1.9895411e-07
2.2490016e-07
2.5728064e-07
2.9357686e-07
3.318105e-07
3.7052396e-07
4.0855487e-07
4.4499174e-07
4.7923222e-07
5.1095781e-07
5.4014649e-07
5.6705986e-07
5.9215425e-07
6.1601197e-07
6.3935863e-07
6.6308313e-07
6.881122e-07
7.1550719e-07
7.4634711e-07
7.8170086e-07
8.2232917e-07
8.6917502e-07
9.235482e-07
9.8582384e-07
1.0558371e-06
1.1347801e-06
1.2243577e-06
1.326714e-06
1.4276267e-06
1.4948626e-06
1.5856853e-06
1.7047881e-06
1.8584465e-06
2.0547231e-06
2.303392e-06
2.6161129e-06
3.0069358e-06
3.4927148e-06
4.0934055e-06
4.8324534e-06
5.7384985e-06
6.7097857e-06
7.707527e-06
8.8169843e-06
1.0049619e-05
1.140557e-05
1.2869572e-05
1.4406716e-05
1.5971473e-05
1.762662e-05
1.9392553e-05
2.0669745e-05
2.1768405e-05
2.2849692e-05
2.3923785e-05
2.4999641e-05
2.6079744e-05
2.716453e-05
2.8249392e-05
2.9328963e-05
3.0399774e-05
3.1460626e-05
3.2509993e-05
3.3545706e-05
3.4567197e-05
3.557476e-05
3.6567962e-05
3.7546028e-05
3.8508022e-05
3.9452656e-05
4.0377647e-05
4.1280537e-05
4.2157879e-05
4.3006571e-05
4.3823509e-05
4.4605209e-05
4.5348672e-05
4.6051908e-05
4.6713773e-05
4.7333971e-05
4.7912926e-05
4.8451689e-05
4.8951686e-05
4.9414651e-05
4.9842766e-05
5.0238249e-05
5.0603513e-05
5.0940744e-05
5.1252025e-05
5.1539258e-05
5.1804356e-05
5.2048159e-05
5.2276833e-05
5.2465366e-05
5.26525e-05
5.2845512e-05
1.6814565e-07
1.67873e-07
1.680324e-07
1.6934675e-07
1.7271336e-07
1.7877223e-07
1.877549e-07
1.9960675e-07
2.1419012e-07
2.3138789e-07
2.510661e-07
2.7273162e-07
2.9591575e-07
3.2014579e-07
3.4498563e-07
3.7008566e-07
3.9519828e-07
4.2017721e-07
4.4500187e-07
4.697986e-07
4.948224e-07
5.2046075e-07
5.472342e-07
5.7578883e-07
6.0682946e-07
6.4116264e-07
6.7977508e-07
7.2364248e-07
7.7365625e-07
8.3097671e-07
8.9715314e-07
9.7361813e-07
1.0618856e-06
1.1633175e-06
1.2801238e-06
1.4151768e-06
1.5722705e-06
1.7565479e-06
1.9284971e-06
2.1214027e-06
2.3731304e-06
2.7010141e-06
3.1275964e-06
3.6822103e-06
4.4018845e-06
5.3212326e-06
6.2974987e-06
7.3654518e-06
8.5758289e-06
9.9379017e-06
1.1453316e-05
1.3111311e-05
1.4888028e-05
1.6777028e-05
1.8774971e-05
2.0624486e-05
2.1909234e-05
2.3189566e-05
2.443766e-05
2.567448e-05
2.6932824e-05
2.8216512e-05
2.9507877e-05
3.0809098e-05
3.2126197e-05
3.3454688e-05
3.4788971e-05
3.612573e-05
3.7464272e-05
3.8802437e-05
4.0136398e-05
4.1464063e-05
4.2783583e-05
4.4091558e-05
4.5382893e-05
4.6653179e-05
4.7897133e-05
4.9109512e-05
5.0286227e-05
5.1423142e-05
5.2516078e-05
5.3561715e-05
5.4557704e-05
5.5502624e-05
5.639615e-05
5.7238759e-05
5.8031387e-05
5.8775512e-05
5.9473335e-05
6.0127216e-05
6.0739853e-05
6.1313849e-05
6.1851655e-05
6.2355486e-05
6.2828033e-05
6.3269587e-05
6.368899e-05
6.4059716e-05
6.4409269e-05
6.4820582e-05
1.6818996e-07
1.6781424e-07
1.6749284e-07
1.6735573e-07
1.6761828e-07
1.6851611e-07
1.7024596e-07
1.7296184e-07
1.7680317e-07
1.8191015e-07
1.8841396e-07
1.9639346e-07
2.0588058e-07
2.1685807e-07
2.2933988e-07
2.4327761e-07
2.5850117e-07
2.7485165e-07
2.9220117e-07
3.1046076e-07
3.2958972e-07
3.4960807e-07
3.7060866e-07
3.9277058e-07
4.163574e-07
4.4172642e-07
4.6935711e-07
4.9984062e-07
5.3386022e-07
5.7223695e-07
6.1599888e-07
6.6633849e-07
7.2463948e-07
7.9247451e-07
8.7179944e-07
9.6457856e-07
1.0735463e-06
1.2022921e-06
1.3545945e-06
1.5353582e-06
1.7515827e-06
2.0126304e-06
2.3307138e-06
2.7214759e-06
3.1866039e-06
3.766192e-06
4.5194881e-06
5.3773612e-06
6.3845997e-06
7.5556835e-06
8.9029846e-06
1.0432742e-05
1.2141354e-05
1.4023507e-05
1.607479e-05
1.8246316e-05
2.0452949e-05
2.2483387e-05
2.3872923e-05
2.5254709e-05
2.6659315e-05
2.8073397e-05
2.9487573e-05
3.0933963e-05
3.2433075e-05
3.39539e-05
3.5496369e-05
3.7069909e-05
3.8670872e-05
4.0291934e-05
4.192864e-05
4.3580864e-05
4.5243973e-05
4.6911434e-05
4.857445e-05
5.022585e-05
5.1857097e-05
5.3460599e-05
5.5030584e-05
5.6561152e-05
5.8046581e-05
5.9482237e-05
6.0864124e-05
6.2189104e-05
6.3455607e-05
6.4662967e-05
6.5811003e-05
6.6900406e-05
6.793284e-05
6.8910345e-05
6.9835462e-05
7.071088e-05
7.1539211e-05
7.23228e-05
7.3064965e-05
7.3765399e-05
7.4435008e-05
7.504784e-05
7.5616486e-05
7.6320056e-05
1.6824351e-07
1.6785089e-07
1.6745969e-07
1.6708851e-07
1.667783e-07
1.6658705e-07
1.6657948e-07
1.6682292e-07
1.6739045e-07
1.6836399e-07
1.6983302e-07
1.7188834e-07
1.746179e-07
1.7810206e-07
1.8241707e-07
1.8763004e-07
1.9378875e-07
2.0092399e-07
2.0905455e-07
2.1819323e-07
2.2837998e-07
2.3969931e-07
2.5216993e-07
2.6579857e-07
2.8063673e-07
2.9679089e-07
3.1443135e-07
3.3380621e-07
3.5524812e-07
3.7918092e-07
4.0614592e-07
4.368189e-07
4.720366e-07
5.1282452e-07
5.6045972e-07
6.1644786e-07
6.8267429e-07
7.6156329e-07
8.5605781e-07
9.6950809e-07
1.1065055e-06
1.2730925e-06
1.4772311e-06
1.7293645e-06
2.042717e-06
2.4337678e-06
2.9207303e-06
3.5195767e-06
4.2476312e-06
5.1234291e-06
6.1661401e-06
7.3938033e-06
8.8204738e-06
1.0456265e-05
1.2308536e-05
1.4364407e-05
1.6579682e-05
1.8900512e-05
2.1257012e-05
2.3634765e-05
2.5605123e-05
2.7112649e-05
2.862963e-05
3.0181883e-05
3.1767712e-05
3.33702e-05
3.5016748e-05
3.6739852e-05
3.8506363e-05
4.0311245e-05
4.2166094e-05
4.4072346e-05
4.6015934e-05
4.7987045e-05
4.9977879e-05
5.1977513e-05
5.397343e-05
5.5957189e-05
5.7920386e-05
5.9853463e-05
6.1748882e-05
6.3600145e-05
6.5400502e-05
6.7144494e-05
6.8828564e-05
7.044996e-05
7.2006691e-05
7.3497894e-05
7.4923824e-05
7.6285486e-05
7.7584672e-05
7.8823585e-05
8.0004659e-05
8.1130014e-05
8.2203326e-05
8.3223595e-05
8.4203092e-05
8.5117803e-05
8.5964241e-05
8.7033926e-05
1.6834523e-07
1.6795306e-07
1.6755459e-07
1.671512e-07
1.6674933e-07
1.6636047e-07
1.6600045e-07
1.656889e-07
1.6544963e-07
1.6531152e-07
1.6530889e-07
1.6548112e-07
1.6587222e-07
1.6652983e-07
1.6750473e-07
1.6885019e-07
1.7062031e-07
1.7286836e-07
1.7564614e-07
1.7900401e-07
1.8299342e-07
1.8767062e-07
1.9309047e-07
1.9930672e-07
2.063771e-07
2.1436885e-07
2.2337122e-07
2.335454e-07
2.4509469e-07
2.5818117e-07
2.7300275e-07
2.8984605e-07
3.0910295e-07
3.3128954e-07
3.5707925e-07
3.873163e-07
4.2306203e-07
4.6567907e-07
5.1690591e-07
5.7890252e-07
6.5447128e-07
7.4730664e-07
8.622749e-07
1.0057194e-06
1.1861539e-06
1.4147302e-06
1.7053563e-06
2.0737199e-06
2.537352e-06
3.1155461e-06
3.8291887e-06
4.7002672e-06
5.7508061e-06
7.002089e-06
8.4745054e-06
1.0181054e-05
1.2117081e-05
1.4260273e-05
1.6566553e-05
1.9001061e-05
2.1511185e-05
2.4054536e-05
2.6628728e-05
2.8804794e-05
3.0458878e-05
3.2131851e-05
3.3853303e-05
3.5625573e-05
3.7432881e-05
3.9300123e-05
4.1268674e-05
4.331169e-05
4.5414274e-05
4.7583377e-05
4.9807809e-05
5.2070092e-05
5.4359961e-05
5.6669687e-05
5.8984699e-05
6.1291523e-05
6.3581677e-05
6.5844549e-05
6.8069326e-05
7.0248155e-05
7.2374326e-05
7.4441612e-05
7.644535e-05
7.8382088e-05
8.0249611e-05
8.2047012e-05
8.3774511e-05
8.5433022e-05
8.7024166e-05
8.8549325e-05
9.0012112e-05
9.141059e-05
9.2757699e-05
9.4031927e-05
9.5214784e-05
9.672115e-05
1.6852038e-07
1.6817126e-07
1.6780864e-07
1.6743204e-07
1.6704285e-07
1.6664378e-07
1.6623888e-07
1.6583357e-07
1.6543467e-07
1.6505067e-07
1.646921e-07
1.6437184e-07
1.6410545e-07
1.6391127e-07
1.6381059e-07
1.6382768e-07
1.6398974e-07
1.6432668e-07
1.6487083e-07
1.6565686e-07
1.6672173e-07
1.6810499e-07
1.6984867e-07
1.7199719e-07
1.745977e-07
1.7770086e-07
1.8136346e-07
1.8565537e-07
1.9066241e-07
1.964816e-07
2.0322664e-07
2.1103767e-07
2.2009328e-07
2.3066725e-07
2.4313843e-07
2.5785772e-07
2.7525557e-07
2.9593543e-07
3.2071529e-07
3.5067834e-07
3.8724733e-07
4.3230375e-07
4.8836084e-07
5.5879346e-07
6.4821777e-07
7.6297442e-07
9.1159806e-07
1.1050675e-06
1.3572498e-06
1.6850244e-06
2.1082417e-06
2.6493458e-06
3.3326025e-06
4.1831403e-06
5.2264172e-06
6.4863338e-06
7.9804895e-06
9.7161756e-06
1.1685018e-05
1.3870624e-05
1.6242071e-05
1.8760883e-05
2.1401603e-05
2.412108e-05
2.6880262e-05
2.968273e-05
3.215647e-05
3.3986696e-05
3.5840239e-05
3.7755669e-05
3.9737496e-05
4.1766895e-05
4.3876397e-05
4.6119256e-05
4.8440702e-05
5.0831561e-05
5.3304884e-05
5.5841398e-05
5.8418329e-05
6.1026397e-05
6.3654972e-05
6.6285009e-05
6.8903408e-05
7.1500098e-05
7.406287e-05
7.6581204e-05
7.9046901e-05
8.1452489e-05
8.3792246e-05
8.6062354e-05
8.8260272e-05
9.0384538e-05
9.2434979e-05
9.4411441e-05
9.6316738e-05
9.8147476e-05
9.9916486e-05
0.00010160461
0.00010318136
0.00010518956
1.6867654e-07
1.6839193e-07
1.6809282e-07
1.6777777e-07
1.6744665e-07
1.6710013e-07
1.6673953e-07
1.6636663e-07
1.6598351e-07
1.6559252e-07
1.6519647e-07
1.6479886e-07
1.6440412e-07
1.6401788e-07
1.6364709e-07
1.6330028e-07
1.6298765e-07
1.627213e-07
1.6251524e-07
1.6238556e-07
1.6235049e-07
1.6243046e-07
1.626483e-07
1.6302925e-07
1.6360111e-07
1.6439439e-07
1.6544281e-07
1.6678447e-07
1.6846304e-07
1.705285e-07
1.730388e-07
1.7606232e-07
1.796811e-07
1.8400019e-07
1.8915747e-07
1.9531895e-07
2.0268737e-07
2.115214e-07
2.2217447e-07
2.3520213e-07
2.5121516e-07
2.7092493e-07
2.9535365e-07
3.2594293e-07
3.6472319e-07
4.1454869e-07
4.7942923e-07
5.6495015e-07
6.7884416e-07
8.3165507e-07
1.0374139e-06
1.3142095e-06
1.6845811e-06
2.1750547e-06
2.8149453e-06
3.634234e-06
4.6602667e-06
5.9141947e-06
7.4079609e-06
9.1458727e-06
1.1122904e-05
1.332476e-05
1.5735351e-05
1.8327339e-05
2.1065941e-05
2.3931005e-05
2.6888127e-05
2.9894769e-05
3.2959296e-05
3.5734849e-05
3.7766677e-05
3.981528e-05
4.1933359e-05
4.4130676e-05
4.6387887e-05
4.8756371e-05
5.1280386e-05
5.3891429e-05
5.6588282e-05
5.9380674e-05
6.2239064e-05
6.51395e-05
6.8074914e-05
7.1028463e-05
7.398007e-05
7.6916928e-05
7.9825346e-05
8.2692576e-05
8.5508846e-05
8.8266096e-05
9.0957481e-05
9.3577836e-05
9.6123881e-05
9.8592708e-05
0.00010098518
0.00010329556
0.00010553554
0.00010768753
0.00010971355
0.00011228137
1.6876873e-07
1.6852906e-07
1.6827908e-07
1.6801701e-07
1.6774189e-07
1.6745336e-07
1.6715159e-07
1.6683711e-07
1.6651058e-07
1.6617265e-07
1.6582392e-07
1.6546506e-07
1.6509694e-07
1.6472073e-07
1.6433806e-07
1.6395111e-07
1.6356272e-07
1.6317654e-07
1.6279713e-07
1.6243008e-07
1.6208219e-07
1.6176153e-07
1.6147765e-07
1.6124165e-07
1.6106638e-07
1.6096655e-07
1.6095891e-07
1.6106257e-07
1.6129939e-07
1.6169428e-07
1.6227596e-07
1.6307765e-07
1.6413812e-07
1.6550359e-07
1.6723074e-07
1.6938892e-07
1.7206302e-07
1.7535856e-07
1.7941095e-07
1.8440546e-07
1.9057901e-07
1.9823026e-07
2.0775472e-07
2.1971058e-07
2.3498911e-07
2.5463018e-07
2.8005193e-07
3.1339254e-07
3.5780756e-07
4.1789775e-07
5.0029793e-07
6.1450534e-07
7.7397675e-07
9.9731773e-07
1.309217e-06
1.740474e-06
2.3263593e-06
3.1019576e-06
4.0960527e-06
5.3274378e-06
6.8044929e-06
8.5278244e-06
1.0495568e-05
1.270121e-05
1.513135e-05
1.7772463e-05
2.060213e-05
2.3586289e-05
2.670785e-05
2.9937336e-05
3.3228673e-05
3.6593155e-05
3.9596334e-05
4.1816978e-05
4.4072836e-05
4.6415515e-05
4.8847407e-05
5.1347212e-05
5.4009209e-05
5.6836795e-05
5.9754677e-05
6.2778521e-05
6.5907042e-05
6.9101609e-05
7.2342088e-05
7.5617695e-05
7.8903518e-05
8.2183522e-05
8.5443703e-05
8.866954e-05
9.1848692e-05
9.4970836e-05
9.8028173e-05
0.00010101335
0.00010392381
0.00010675023
0.00010950172
0.00011216095
0.00011468718
0.00011786245
1.6881502e-07
1.685987e-07
1.6837576e-07
1.6814477e-07
1.6790477e-07
1.6765507e-07
1.6739538e-07
1.6712576e-07
1.6684641e-07
1.6655749e-07
1.662591e-07
1.6595123e-07
1.6563382e-07
1.6530686e-07
1.6497043e-07
1.6462473e-07
1.6427012e-07
1.6390725e-07
1.6353704e-07
1.6316079e-07
1.6278027e-07
1.6239777e-07
1.6201624e-07
1.6163935e-07
1.6127162e-07
1.6091854e-07
1.605867e-07
1.6028393e-07
1.6001948e-07
1.5980422e-07
1.596509e-07
1.5957447e-07
1.5959242e-07
1.5972535e-07
1.599978e-07
1.6043924e-07
1.6108521e-07
1.6197897e-07
1.6317404e-07
1.6473869e-07
1.6676013e-07
1.6934961e-07
1.7265168e-07
1.7685976e-07
1.8224945e-07
1.8919048e-07
1.981887e-07
2.0996941e-07
2.2570974e-07
2.4708709e-07
2.7634762e-07
3.1700813e-07
3.7447713e-07
4.5696023e-07
5.7672593e-07
7.5175623e-07
1.0074641e-06
1.3773296e-06
1.9008971e-06
2.6181647e-06
3.5619386e-06
4.7518861e-06
6.1954943e-06
7.8927275e-06
9.8406461e-06
1.2037761e-05
1.4480524e-05
1.7157347e-05
2.0056512e-05
2.3158165e-05
2.6427186e-05
2.9847762e-05
3.338683e-05
3.6998587e-05
4.0696614e-05
4.3784707e-05
4.6214337e-05
4.8696472e-05
5.1285821e-05
5.3967586e-05
5.6737778e-05
5.9725944e-05
6.28759e-05
6.6133918e-05
6.9511773e-05
7.2991828e-05
7.6533418e-05
8.0126842e-05
8.3750942e-05
8.7381928e-05
9.100295e-05
9.4596521e-05
9.8149485e-05
0.00010164796
0.0001050847
0.00010844517
0.00011173399
0.0001149328
0.00011800015
0.00012181649
1.6883675e-07
1.6863119e-07
1.6842108e-07
1.6820545e-07
1.6798355e-07
1.6775477e-07
1.6751878e-07
1.6727547e-07
1.6702493e-07
1.6676725e-07
1.6650242e-07
1.6623038e-07
1.6595096e-07
1.6566397e-07
1.653692e-07
1.6506643e-07
1.6475546e-07
1.6443614e-07
1.6410839e-07
1.6377219e-07
1.6342769e-07
1.6307515e-07
1.6271506e-07
1.6234818e-07
1.6197554e-07
1.6159857e-07
1.6121916e-07
1.6083971e-07
1.6046326e-07
1.6009357e-07
1.5973529e-07
1.5939404e-07
1.5907664e-07
1.587913e-07
1.585479e-07
1.5835834e-07
1.5823698e-07
1.5820123e-07
1.582723e-07
1.5847642e-07
1.5884634e-07
1.5942321e-07
1.6025948e-07
1.6142313e-07
1.6300513e-07
1.6512806e-07
1.679593e-07
1.7173307e-07
1.7679818e-07
1.8366915e-07
1.9308912e-07
2.0618421e-07
2.2482654e-07
2.5185445e-07
2.9145368e-07
3.5043028e-07
4.3958424e-07
5.7549453e-07
7.8248233e-07
1.0938528e-06
1.5507926e-06
2.1976061e-06
3.0730904e-06
4.2029154e-06
5.5972766e-06
7.256553e-06
9.1788042e-06
1.1362798e-05
1.3810074e-05
1.6520073e-05
1.9481584e-05
2.2682918e-05
2.6101579e-05
2.9700297e-05
3.3464051e-05
3.7345209e-05
4.1311102e-05
4.5375761e-05
4.8384331e-05
5.1032765e-05
5.3762084e-05
5.6614956e-05
5.955712e-05
6.2671642e-05
6.6006474e-05
6.9493122e-05
7.3114055e-05
7.6867791e-05
8.0719059e-05
8.4636255e-05
8.8602144e-05
9.2588393e-05
9.6577532e-05
0.0001005469
0.00010448429
0.00010836781
0.00011219568
0.00011594747
0.00011957644
0.00012404682
1.6884628e-07
1.6864533e-07
1.6844083e-07
1.6823214e-07
1.6801873e-07
1.6780012e-07
1.6757604e-07
1.6734638e-07
1.671112e-07
1.6687058e-07
1.6662457e-07
1.6637313e-07
1.6611618e-07
1.6585358e-07
1.6558517e-07
1.6531074e-07
1.6503008e-07
1.6474297e-07
1.6444918e-07
1.6414846e-07
1.6384062e-07
1.6352545e-07
1.632028e-07
1.6287257e-07
1.6253473e-07
1.6218938e-07
1.6183673e-07
1.6147716e-07
1.6111129e-07
1.6073997e-07
1.6036442e-07
1.5998621e-07
1.596074e-07
1.5923064e-07
1.5885923e-07
1.5849732e-07
1.5815003e-07
1.5782372e-07
1.575262e-07
1.5726715e-07
1.5705857e-07
1.5691544e-07
1.568566e-07
1.56906e-07
1.5709466e-07
1.5746338e-07
1.5806691e-07
1.5898016e-07
1.6030946e-07
1.6220915e-07
1.6490483e-07
1.6873452e-07
1.7423143e-07
1.8223263e-07
1.9404278e-07
2.1177527e-07
2.3916316e-07
2.8180459e-07
3.4880669e-07
4.547017e-07
6.2144213e-07
8.8018373e-07
1.2714305e-06
1.8418642e-06
2.6369347e-06
3.6910586e-06
5.0220825e-06
6.633754e-06
8.524387e-06
1.0694518e-05
1.3146562e-05
1.5884995e-05
1.8909326e-05
2.2206094e-05
2.5762033e-05
2.9545237e-05
3.3519379e-05
3.7670527e-05
4.1925162e-05
4.6277866e-05
5.0556137e-05
5.3451914e-05
5.6333241e-05
5.9334071e-05
6.2459084e-05
6.569004e-05
6.9201084e-05
7.2908135e-05
7.6787082e-05
8.0812585e-05
8.4966441e-05
8.9207955e-05
9.3517908e-05
9.7864497e-05
0.00010223063
0.0001065847
0.00011091705
0.0001152047
0.00011938175
0.00012448915
1.6884986e-07
1.6865068e-07
1.6844839e-07
1.6824259e-07
1.680329e-07
1.6781896e-07
1.6760055e-07
1.6737758e-07
1.671501e-07
1.6691821e-07
1.6668196e-07
1.6644138e-07
1.6619644e-07
1.6594711e-07
1.6569327e-07
1.6543484e-07
1.6517168e-07
1.6490363e-07
1.6463055e-07
1.6435225e-07
1.6406853e-07
1.6377921e-07
1.6348407e-07
1.631829e-07
1.6287549e-07
1.6256165e-07
1.622412e-07
1.61914e-07
1.6157994e-07
1.6123901e-07
1.6089125e-07
1.6053686e-07
1.6017616e-07
1.5980968e-07
1.5943816e-07
1.5906268e-07
1.5868466e-07
1.5830597e-07
1.5792903e-07
1.5755695e-07
1.5719369e-07
1.5684425e-07
1.5651499e-07
1.5621399e-07
1.5595161e-07
1.5574127e-07
1.5560068e-07
1.5555362e-07
1.5563284e-07
1.558847e-07
1.5637614e-07
1.5720606e-07
1.5852586e-07
1.6057211e-07
1.6371855e-07
1.6857004e-07
1.7615623e-07
1.8815915e-07
2.0737788e-07
2.3870797e-07
2.8983094e-07
3.7295595e-07
5.0716956e-07
7.2047078e-07
1.0510724e-06
1.5460304e-06
2.2557816e-06
3.2246683e-06
4.4812346e-06
6.0369353e-06
7.8924276e-06
1.0047651e-05
1.2507229e-05
1.5276696e-05
1.836198e-05
2.175807e-05
2.544766e-05
2.9414873e-05
3.3611111e-05
3.8005559e-05
4.2575914e-05
4.7234575e-05
5.2004899e-05
5.5894924e-05
5.9008584e-05
6.2161206e-05
6.5469042e-05
6.8880948e-05
7.2537705e-05
7.645125e-05
8.056922e-05
8.4868339e-05
8.9317549e-05
9.3888795e-05
9.8553582e-05
0.00010327209
0.00010802553
0.0001127865
0.00011745736
0.00012313639
1.6885058e-07
1.6865187e-07
1.6845026e-07
1.6824547e-07
1.6803725e-07
1.6782532e-07
1.6760949e-07
1.673897e-07
1.6716599e-07
1.6693844e-07
1.6670712e-07
1.6647207e-07
1.6623331e-07
1.6599085e-07
1.6574465e-07
1.6549467e-07
1.6524086e-07
1.6498313e-07
1.6472141e-07
1.644556e-07
1.641856e-07
1.6391128e-07
1.636325e-07
1.6334913e-07
1.63061e-07
1.6276794e-07
1.6246978e-07
1.6216633e-07
1.6185741e-07
1.6154283e-07
1.6122242e-07
1.6089602e-07
1.605635e-07
1.6022479e-07
1.5987984e-07
1.5952874e-07
1.5917163e-07
1.5880884e-07
1.5844085e-07
1.5806837e-07
1.5769241e-07
1.5731433e-07
1.5693593e-07
1.5655961e-07
1.5618849e-07
1.5582667e-07
1.5547955e-07
1.5515437e-07
1.5486094e-07
1.5461294e-07
1.544298e-07
1.5433987e-07
1.5438567e-07
1.5463272e-07
1.5518412e-07
1.5620604e-07
1.5797595e-07
1.6095766e-07
1.6593424e-07
1.742648e-07
1.8823231e-07
2.1165084e-07
2.511213e-07
3.1687133e-07
4.2507144e-07
6.0029222e-07
8.7749542e-07
1.3025246e-06
1.9287876e-06
2.809082e-06
3.9848505e-06
5.4779276e-06
7.2949749e-06
9.4362702e-06
1.1905947e-05
1.4712374e-05
1.7862575e-05
2.1361589e-05
2.5193926e-05
2.9337074e-05
3.3766841e-05
3.8420567e-05
4.3276772e-05
4.8270071e-05
5.3368342e-05
5.8442714e-05
6.181319e-05
6.5162462e-05
6.8622639e-05
7.2226917e-05
7.602432e-05
8.0146536e-05
8.4483074e-05
8.9068407e-05
9.3832162e-05
9.8746541e-05
0.00010377574
0.00010888761
0.00011396105
0.00012007064
1.6885001e-07
1.6865119e-07
1.6844957e-07
1.6824495e-07
1.6803715e-07
1.6782596e-07
1.6761122e-07
1.6739289e-07
1.6717098e-07
1.6694557e-07
1.6671671e-07
1.6648445e-07
1.6624885e-07
1.6600991e-07
1.6576764e-07
1.6552204e-07
1.6527308e-07
1.6502075e-07
1.6476502e-07
1.6450585e-07
1.6424318e-07
1.6397697e-07
1.6370715e-07
1.6343364e-07
1.6315636e-07
1.6287522e-07
1.6259011e-07
1.6230091e-07
1.620075e-07
1.6170974e-07
1.6140747e-07
1.6110055e-07
1.6078881e-07
1.6047209e-07
1.6015023e-07
1.5982308e-07
1.5949049e-07
1.5915238e-07
1.5880868e-07
1.5845937e-07
1.5810454e-07
1.5774437e-07
1.5737916e-07
1.5700941e-07
1.5663582e-07
1.562594e-07
1.5588153e-07
1.5550413e-07
1.5512984e-07
1.5476239e-07
1.5440706e-07
1.5407156e-07
1.5376737e-07
1.5351203e-07
1.5333302e-07
1.532744e-07
1.5340897e-07
1.5385889e-07
1.5483185e-07
1.566882e-07
1.6004955e-07
1.6598421e-07
1.7635592e-07
1.9428717e-07
2.2498392e-07
2.7731556e-07
3.6482209e-07
5.0876005e-07
7.4058627e-07
1.1037287e-06
1.6527134e-06
2.4468683e-06
3.5394705e-06
4.9663328e-06
6.7424772e-06
8.8715401e-06
1.1356106e-05
1.4206126e-05
1.7431124e-05
2.1036203e-05
2.5019763e-05
2.935277e-05
3.4008377e-05
3.8935084e-05
4.4085618e-05
4.9435286e-05
5.48769e-05
6.0441957e-05
6.4711759e-05
6.8299157e-05
7.1941856e-05
7.5745376e-05
7.9687472e-05
8.4022873e-05