/*--------------------------------*- C++ -*----------------------------------*\
| =========                 |                                                 |
| \\      /  F ield         | OpenFOAM: The Open Source CFD Toolbox           |
|  \\    /   O peration     | Version:  2206                                  |
|   \\  /    A nd           | Website:  www.openfoam.com                      |
|    \\/     M anipulation  |                                                 |
\*---------------------------------------------------------------------------*/
FoamFile
{
    version     2.0;
    format      ascii;
    arch        "LSB;label=32;scalar=64";
    class       volScalarField;
    location    "300";
    object      omega;
}
// * * * * * * * * * * * * * * * * * * * * * * * * * * * * * * * * * * * * * //

dimensions      [0 0 -1 0 0 0 0];

internalField   nonuniform List<scalar> 
7480
(
7569.1057
7590.8149
7571.1118
7538.1553
7512.5644
7498.0756
7491.1185
7487.7285
7485.8493
7484.6257
7483.6804
7482.8696
7482.1631
7481.5518
7481.0217
7480.5599
7480.1564
7479.802
7479.4868
7479.2043
7478.9506
7478.7216
7478.5133
7478.3235
7478.1501
7477.991
7477.8445
7477.7093
7477.5845
7477.469
7477.3619
7477.2627
7477.1707
7477.0854
7477.0063
7476.933
7476.8653
7476.8028
7476.7453
7476.6928
7476.6451
7476.6022
7476.564
7476.5305
7476.5019
7476.4787
7476.4605
7476.4482
7476.4417
7476.4407
7476.4452
7476.4549
7476.4692
7476.4873
7476.5082
7476.5313
7476.5552
7476.5778
7476.5973
7476.612
7476.6219
7476.627
7476.6279
7476.625
7476.6193
7476.6114
7476.602
7476.5916
7476.5805
7476.5692
7476.5576
7476.5461
7476.5346
7476.5232
7476.512
7476.501
7476.4901
7476.479
7476.4676
7476.4562
7476.4446
7476.4331
7476.4215
7476.4098
7476.398
7476.3861
7476.3742
7476.3622
7476.3501
7476.3381
7476.326
7476.3139
7476.3019
7476.2898
7476.2778
7476.2653
7476.2544
7476.2387
7476.2299
7476.2059
1003.2516
1574.4175
1842.5199
1920.8101
1937.0691
1923.8873
1863.1668
1797.8097
1744.1837
1703.9937
1673.3508
1647.6926
1624.4721
1603.0594
1583.269
1564.893
1547.8422
1532.2172
1517.8614
1504.5546
1492.2039
1480.7855
1470.192
1460.3105
1451.0954
1442.5199
1434.5125
1427.0048
1419.9656
1413.3712
1407.1795
1401.3551
1395.8818
1390.7429
1385.9142
1381.3775
1377.1236
1373.1409
1369.4158
1365.9402
1362.7125
1359.7302
1356.9901
1354.4961
1352.2375
1350.2285
1348.4782
1346.9697
1345.7277
1344.7428
1344.0358
1343.6403
1343.4512
1343.4358
1343.5565
1343.7751
1344.049
1344.3173
1344.5195
1344.618
1344.577
1344.3957
1344.1208
1343.7436
1343.2633
1342.7033
1342.0851
1341.4292
1340.7516
1340.0638
1339.375
1338.6917
1338.0176
1337.3559
1336.7092
1336.0771
1335.4625
1334.8563
1334.2538
1333.6565
1333.0643
1332.4774
1331.895
1331.3148
1330.7363
1330.1584
1329.5812
1329.0047
1328.429
1327.8549
1327.2823
1326.7119
1326.1441
1325.5778
1325.0177
1324.446
1323.9006
1323.3396
1322.6629
1322.0515
190.66815
396.63733
585.96631
709.21488
769.26623
785.39202
782.0929
789.21563
803.68455
812.8489
819.33324
823.55203
825.05235
824.15643
821.43041
817.41378
811.95263
805.29919
797.71282
789.41143
780.60725
771.50444
762.24659
752.93764
743.68243
734.57548
725.63283
716.85471
708.25726
699.86403
691.68944
683.74346
676.03968
668.59056
661.40334
654.48595
647.8481
641.48994
635.40867
629.60491
624.08476
618.85591
613.92587
609.3055
604.99859
601.02257
597.36214
593.99482
590.92145
588.12962
585.65506
583.50283
581.56706
579.81357
578.21734
576.72516
575.2753
573.82564
572.37132
570.90221
569.42247
567.91514
566.46287
565.01694
563.55971
562.09395
560.62584
559.16429
557.71764
556.29282
554.89531
553.52955
552.19864
550.90464
549.64937
548.43193
547.25311
546.1351
545.06137
544.01906
543.00151
542.00553
541.02926
540.0691
539.12311
538.18898
537.26547
536.35162
535.44658
534.55034
533.66213
532.78202
531.91014
531.04485
530.19016
529.32946
528.49653
527.65853
526.73848
525.65202
72.003213
121.36646
193.99876
267.72948
324.63227
359.74244
377.81089
386.78466
392.45492
397.57139
404.52187
415.23123
426.21341
437.93777
452.28544
470.55804
485.14963
496.54192
505.31294
511.8728
516.54568
519.62321
521.36445
522.03879
521.96197
521.38044
520.02367
517.83935
514.91541
511.37602
507.34036
502.91226
498.18259
493.23179
488.13447
482.965
477.771
472.53551
467.25813
461.95599
456.6553
451.38375
446.16673
441.02841
435.99339
431.07776
426.2267
421.41693
416.64731
411.92337
407.26604
402.77395
398.3486
394.00128
389.76751
385.60232
381.47035
377.41509
373.52732
369.86865
366.46256
363.32654
360.49461
357.89143
355.46745
353.18726
351.02386
348.95849
346.97832
345.07462
343.24132
341.47489
339.77315
338.13377
336.55516
335.0347
333.57153
332.1908
330.88474
329.6378
328.43977
327.28518
326.17121
325.09408
324.05089
323.03835
322.05376
321.09477
320.159
319.24493
318.35064
317.47493
316.6166
315.77372
314.94754
314.1287
313.32698
312.57431
311.71997
310.76128
55.642
64.532929
83.912006
111.35185
140.42522
165.53297
184.58748
198.13603
207.74641
214.79254
220.42454
225.66708
230.96336
236.83524
244.10256
253.55103
263.34869
273.15274
282.74912
292.00722
300.83366
309.30865
317.72541
326.71681
337.34777
349.83508
359.6978
366.93139
372.2146
375.99792
378.58778
380.20538
381.02918
381.22685
380.98932
380.52803
379.82123
378.47662
376.49031
373.94712
370.94231
367.55846
363.8635
359.91868
355.79753
351.5083
346.96768
342.16598
337.12989
331.90424
326.53745
321.08958
315.63371
310.17982
304.76409
299.34061
293.93484
288.66896
283.66549
278.99982
274.73588
270.88937
267.41974
264.27018
261.38697
258.72363
256.24061
253.90686
251.69874
249.59847
247.59327
245.67512
243.83677
242.07238
240.37793
238.74956
237.1862
235.69069
234.26584
232.90759
231.61018
230.36915
229.18183
228.04493
226.95555
225.91029
224.90592
223.9394
223.00757
222.10791
221.23803
220.3957
219.57869
218.78474
218.01329
217.2594
216.51962
215.85077
215.10125
214.28435
53.50983
54.437527
58.08867
65.266325
75.159806
86.043701
96.436294
105.6437
113.54367
120.26307
125.9684
130.87431
135.18557
139.11422
142.94308
147.01111
151.41939
156.27015
161.70941
167.81765
174.15613
180.7234
187.52507
194.61322
202.09995
210.0689
218.05147
225.68961
232.80899
239.34852
245.32171
250.80805
255.97843
261.16285
266.97133
274.12463
281.53958
286.11152
288.75913
290.0897
290.45746
290.07961
289.10896
287.69166
286.00816
284.20821
281.84339
278.82039
275.24065
271.21236
266.83562
262.20852
257.43136
252.53556
247.57336
242.61736
237.72209
232.97036
228.44492
224.19457
220.23987
216.58915
213.22544
210.12032
207.24389
204.56583
202.05707
199.69349
197.45495
195.32492
193.29084
191.34451
189.47848
187.68684
185.96532
184.31002
182.72
181.19017
179.72196
178.31696
176.97424
175.69181
174.46802
173.30045
172.18666
171.12364
170.10833
169.13761
168.20813
167.31702
166.46148
165.6389
164.84668
164.08238
163.34457
162.63014
161.93192
161.30289
160.63133
159.8913
53.224352
52.80884
52.959295
54.085557
56.273821
59.36449
62.974285
66.790289
70.618736
74.356903
77.934654
81.305957
84.44907
87.361948
90.075527
92.65846
95.180902
97.713442
100.34019
103.15177
106.19121
109.52658
113.24078
117.38476
121.86269
126.72393
131.93895
137.42383
143.0818
148.82894
154.59271
160.31596
165.96748
171.55727
177.14085
182.82426
188.52862
193.8045
198.43961
202.38894
205.68904
208.42737
210.75579
212.95357
215.48546
218.48483
219.86164
219.67987
218.4994
216.63359
214.30289
211.70708
209.01373
205.98524
202.5668
199.06213
195.62446
192.30008
189.0501
185.88246
182.82326
179.88739
177.076
174.39119
171.83326
169.39505
167.06699
164.84223
162.71149
160.66579
158.69811
156.80363
154.97847
153.2199
151.52552
149.89239
148.3202
146.80475
145.34478
143.94193
142.59735
141.31106
140.08261
138.91057
137.79312
136.72791
135.71242
134.74385
133.81907
132.93523
132.0894
131.27894
130.50137
129.75425
129.03586
128.3437
127.67111
127.05847
126.43641
125.73531
53.162203
52.542604
52.020927
51.712882
51.712273
52.047199
52.633318
53.455448
54.479721
55.668776
56.982934
58.38429
59.837592
61.309948
62.776041
64.223288
65.649584
67.060018
68.469006
69.900605
71.380836
72.940997
74.621131
76.466873
78.514752
80.816371
83.428596
86.355354
89.551279
93.014567
96.734868
100.69254
104.86457
109.23141
113.78404
118.52308
123.42862
128.40808
133.35736
138.18013
142.79564
147.14189
151.17568
154.88112
158.28061
161.33982
163.88339
165.77154
167.00454
167.67553
167.93719
167.98965
167.98414
167.25133
165.73919
163.89074
162.06353
160.28243
158.32679
156.29811
154.25791
152.20627
150.13903
148.07807
146.0402
144.02919
142.0514
140.11904
138.23054
136.38647
134.58848
132.83786
131.13528
129.48371
127.88382
126.33408
124.83579
123.38732
121.98671
120.6348
119.33316
118.08297
116.88479
115.73822
114.64209
113.59506
112.59546
111.64119
110.72952
109.8581
109.02433
108.22582
107.46048
106.72606
106.02093
105.34287
104.68702
104.0813
103.48923
102.80821
53.125838
52.475584
51.839147
51.240839
50.711017
50.272508
49.929523
49.684361
49.539147
49.483119
49.494012
49.598381
49.796135
50.077301
50.428339
50.836158
51.290526
51.783281
52.309168
52.866842
53.458118
54.087683
54.764281
55.501254
56.314799
57.225778
58.260773
59.445664
60.801941
62.35545
64.136271
66.147101
68.385188
70.856875
73.573586
76.544188
79.77507
83.258923
86.973086
90.886795
94.964197
99.164824
103.44468
107.75767
112.0639
116.26356
120.21232
123.79881
126.9343
129.56241
131.65641
133.21865
134.27994
134.88692
135.04706
134.79866
134.38029
133.85091
133.00108
132.01839
130.9975
129.85116
128.55089
127.16793
125.7279
124.23026
122.69727
121.1477
119.58834
118.02864
116.47795
114.9438
113.43141
111.95316
110.51126
109.10385
107.73553
106.4059
105.11287
103.85767
102.64191
101.46709
100.33441
99.244353
98.19626
97.190135
96.225528
95.301189
94.414879
93.565129
92.750089
91.967852
91.217081
90.495847
89.802867
89.136274
88.493153
87.891653
87.318054
86.648715
53.095809
52.439028
51.783007
51.131604
50.491648
49.870483
49.273624
48.705714
48.171534
47.674854
47.217228
46.802732
46.434953
46.115601
45.830147
45.572685
45.355866
45.185141
45.060712
44.981057
44.944082
44.947356
44.989982
45.073443
45.201188
45.378623
45.613675
45.916251
46.297677
46.771317
47.353411
48.059982
48.907562
49.915612
51.107854
52.490854
54.08148
55.898399
57.95319
60.254653
62.811996
65.631979
68.718796
72.073933
75.697384
79.568356
83.6039
87.702043
91.758584
95.666243
99.319659
102.6204
105.48414
107.85529
109.69527
110.92662
111.55692
111.76362
111.74656
111.56666
111.32855
110.96506
110.42372
109.77571
109.01862
108.0963
107.07222
105.97102
104.79819
103.57525
102.31866
101.0439
99.761334
98.50324
97.264414
96.042348
94.840457
93.660599
92.502969
91.369128
90.260936
89.180189
88.128804
87.108186
86.117819
85.159328
84.234872
83.343979
82.485067
81.657398
80.860064
80.091822
79.35258
78.64056
77.955109
77.294902
76.65862
76.057535
75.492747
74.828176
53.069441
52.409281
51.748091
51.086137
50.424542
49.76485
49.108826
48.458502
47.816285
47.18478
46.566458
45.963871
45.379601
44.816055
44.27395
43.753413
43.255837
42.783012
42.336556
41.917639
41.521894
41.139019
40.773798
40.435732
40.130852
39.862667
39.633798
39.446527
39.303335
39.208313
39.167562
39.188529
39.279936
39.452077
39.717337
40.088295
40.579943
41.210636
42.000403
42.960426
44.110814
45.473587
47.072808
48.934664
51.087719
53.562402
56.3774
59.521135
62.964011
66.653066
70.510807
74.435433
78.304201
81.986871
85.360409
88.28359
90.626204
92.3582
93.521757
94.226436
94.590564
94.759538
94.788422
94.713425
94.549363
94.226523
93.786201
93.228115
92.52218
91.716387
90.830997
89.894831
88.917736
87.934335
86.938275
85.930631
84.917203
83.901983
82.888084
81.879347
80.879094
79.890471
78.916914
77.961231
77.025101
76.110889
75.221103
74.356961
73.518776
72.70684
71.921197
71.161581
70.427964
69.719661
69.036638
68.377924
67.743546
67.140055
66.577541
65.913194
53.031429
52.367389
51.702482
51.03647
50.369335
49.701123
49.032095
48.362843
47.694288
47.027572
46.363938
45.704696
45.051224
44.40495
43.767192
43.13913
42.521954
41.916897
41.325215
40.74815
40.186388
39.639544
39.107777
38.592216
38.094484
37.616352
37.158925
36.716422
36.283658
35.869212
35.483504
35.133728
34.825008
34.561355
34.346473
34.185544
34.085618
34.055695
34.106592
34.249792
34.499158
34.871834
35.387433
36.06578
36.93495
38.029398
39.388661
41.05166
43.054423
45.424636
48.174642
51.293017
54.735867
58.422244
62.237495
66.028147
69.606484
72.79918
75.47592
77.599955
79.182491
80.302067
81.056941
81.525306
81.797448
81.938967
81.96157
81.887238
81.679627
81.36059
80.925092
80.395837
79.792601
79.123182
78.395424
77.622812
76.815773
75.980496
75.123453
74.25146
73.369889
72.483793
71.598414
70.717943
69.845792
68.985566
68.140448
67.312829
66.504415
65.716473
64.949941
64.205415
63.483397
62.783985
62.107561
61.45352
60.822935
60.219471
59.658765
58.995775
52.973045
52.293912
51.616266
50.939751
50.263946
49.588347
48.912587
48.236597
47.560592
46.88498
46.210251
45.536939
44.865622
44.196926
43.531521
42.870104
42.213409
41.562207
40.917309
40.27956
39.649788
39.028695
38.41693
37.815192
37.22427
36.645039
36.078388
35.524522
34.983094
34.454701
33.940994
33.444192
32.966446
32.503907
32.049703
31.613677
31.208251
30.841486
30.518996
30.244813
30.023899
29.863933
29.774907
29.768866
29.861215
30.072238
30.427305
30.956467
31.698373
32.698282
34.006195
35.672547
37.7409
40.23657
43.154264
46.44341
49.993958
53.641756
57.189549
60.460315
63.317443
65.691175
67.58607
69.02725
70.075165
70.817458
71.311019
71.627719
71.818018
71.889477
71.861894
71.724186
71.494986
71.184208
70.772405
70.284871
69.734947
69.127493
68.470916
67.775092
67.047711
66.29568
65.526449
64.745955
63.959534
63.17264
62.389572
61.61403
60.849148
60.097293
59.360464
58.6402
57.937733
57.253957
56.589823
55.945256
55.322193
54.722544
54.16526
53.505731
52.92217
52.222179
51.524603
50.829466
50.136557
49.445448
48.755722
48.067154
47.379755
46.693704
46.009259
45.326701
44.646325
43.968437
43.293355
42.621409
41.952949
41.288341
40.62797
39.972244
39.32159
38.676442
38.037239
37.404433
36.778498
36.15994
35.549296
34.947068
34.353667
33.769524
33.195198
32.631425
32.079071
31.538482
31.009226
30.492022
29.988876
29.50241
29.033518
28.572495
28.123746
27.702621
27.318956
26.978942
26.687231
26.450963
26.28126
26.193109
26.206546
26.348161
26.652131
27.160965
27.928101
29.014813
30.484306
32.390036
34.756914
37.559229
40.705673
44.049134
47.408466
50.604933
53.503015
56.010652
58.087894
59.754141
61.038729
61.988875
62.678115
63.151033
63.470788
63.660234
63.73943
63.738326
63.646374
63.470564
63.223186
62.888376
62.475256
61.999384
61.468267
60.888093
60.269469
59.619985
58.946704
58.25759
57.558205
56.853847
56.149381
55.448453
54.754397
54.069846
53.396949
52.737523
52.093209
51.464609
50.854444
50.263667
49.713204
49.060603
52.892204
52.177518
51.464464
50.753385
50.044407
49.337419
48.632236
47.928746
47.226981
46.527099
45.829331
45.133939
44.441194
43.751375
43.064765
42.381646
41.702302
41.027017
40.356077
39.689767
39.028373
38.372177
37.721458
37.076494
36.43756
35.804927
35.178871
34.559667
33.947578
33.342861
32.745785
32.156649
31.575794
31.003543
30.44013
29.885839
29.341133
28.806702
28.283238
27.77026
27.267865
26.777904
26.303092
25.844105
25.389555
24.949289
24.539707
24.170417
23.848383
23.582218
23.386332
23.281144
23.294836
23.465683
23.843692
24.490073
25.475563
26.867564
28.70999
31.001975
33.682814
36.633543
39.700534
42.72011
45.545934
48.077973
50.256084
52.056944
53.504739
54.628345
55.467554
56.077964
56.500135
56.776727
56.949551
57.031905
57.041066
56.971207
56.82238
56.606027
56.311398
55.939936
55.510273
55.027797
54.499941
53.938539
53.349235
52.739322
52.11592
51.484016
50.848675
50.213823
49.58276
48.95846
48.343383
47.738978
47.148755
46.573267
46.034754
45.39401
52.877287
52.154576
51.432609
50.711818
49.99248
49.274682
48.558425
47.843728
47.130686
46.419476
45.710335
45.00353
44.299346
43.598077
42.900019
42.205474
41.514741
40.828118
40.145901
39.468383
38.795851
38.128589
37.466871
36.810966
36.161134
35.517625
34.880679
34.250525
33.62738
33.011447
32.402915
31.801964
31.208766
30.62348
30.046251
29.477211
28.916501
28.364292
27.820786
27.286089
26.760285
26.243642
25.736693
25.239962
24.752592
24.275032
23.809629
23.359511
22.917113
22.48166
22.074506
21.70862
21.393883
21.143496
20.9792
20.932276
21.046054
21.377382
21.993187
22.962133
24.339945
26.147979
28.357959
30.887539
33.610796
36.384246
39.069096
41.548338
43.748291
45.629508
47.179795
48.422799
49.384629
50.097525
50.617359
50.981859
51.21858
51.36076
51.432148
51.434122
51.363733
51.220105
51.016083
50.735004
50.385168
49.985882
49.536727
49.048569
48.531264
47.990323
47.433164
46.86505
46.290722
45.714668
45.140289
44.570145
44.008606
43.456253
42.936543
42.314134
52.870694
52.143911
51.417306
50.691318
49.966264
49.242317
48.51957
47.798116
47.078087
46.359671
45.643104
44.928649
44.216589
43.507218
42.800838
42.097755
41.398275
40.702703
40.011347
39.324507
38.642482
37.965566
37.294048
36.628209
35.968323
35.314658
34.667469
34.027004
33.393501
32.767182
32.148258
31.536926
30.933369
30.337753
29.750227
29.170922
28.599952
28.037415
27.483398
26.937967
26.401163
25.873026
25.353621
24.843042
24.341241
23.848218
23.364237
22.889875
22.424759
21.968524
21.523453
21.093078
20.670412
20.257379
19.878349
19.548615
19.282611
19.104027
19.047779
19.161155
19.503366
20.139476
21.129092
22.510973
24.285105
26.403429
28.773262
31.271453
33.769031
36.149624
38.319865
40.225183
41.839097
43.156685
44.206384
45.01246
45.607442
46.036219
46.337907
46.527613
46.632708
46.680411
46.663125
46.577849
46.427441
46.225256
45.943829
45.606507
45.224302
44.799767
44.344251
43.863473
43.363982
42.852154
42.332349
41.808653
41.286389
40.766583
40.274259
39.678318
52.868495
52.139659
51.410673
50.68197
49.953882
49.22662
48.500327
47.775133
47.051191
46.328689
45.607856
44.888944
44.172227
43.457989
42.746523
42.038129
41.333106
40.631757
39.934382
39.241281
38.55275
37.869081
37.190562
36.517476
35.850099
35.188701
34.533544
33.884883
33.242964
32.608024
31.980289
31.359974
30.747285
30.142412
29.545534
28.956813
28.376399
27.804422
27.240997
26.68622
26.140167
25.602896
25.074448
24.554853
24.044114
23.542217
23.049165
22.565012
22.089747
21.623311
21.165919
20.718162
20.279729
19.850632
19.433903
19.034085
18.637484
18.267473
17.946411
17.691852
17.52954
17.496974
17.643402
18.026441
18.706683
19.733126
21.127286
22.870971
24.901808
27.12223
29.414632
31.663951
33.771782
35.663463
37.301987
38.671606
39.777925
40.650142
41.309315
41.790789
42.130663
42.365436
42.500286
42.572275
42.588184
42.544893
42.438167
42.27674
42.059324
41.776511
41.449318
41.079506
40.676302
40.248042
39.799582
39.337169
38.866983
38.391039
37.936455
37.37699
52.86866
52.138784
51.408554
50.6784
49.948664
49.219583
48.491334
47.764074
47.037969
46.313211
45.59002
44.868641
44.149335
43.432377
42.71805
42.006642
41.298445
40.59375
39.89285
39.196036
38.503594
37.815809
37.132961
36.455325
35.783171
35.116762
34.456354
33.802197
33.154534
32.513599
31.879618
31.252807
30.633375
30.021518
29.417426
28.821272
28.233224
27.653431
27.082034
26.519156
25.964909
25.419387
24.882667
24.354815
23.835877
23.325885
22.824861
22.332825
21.849787
21.375747
20.910724
20.454798
20.007996
19.570339
19.142205
18.72446
18.316178
17.919533
17.539294
17.166885
16.820171
16.52427
16.298341
16.17074
16.181249
16.379978
16.822303
17.563499
18.639866
20.05691
21.779793
23.734271
25.819402
27.923183
29.94427
31.800598
33.436721
34.831285
35.976274
36.88782
37.593755
38.11534
38.486801
38.746612
38.914085
38.992785
39.031346
39.014433
38.941728
38.814224
38.641945
38.405912
38.122173
37.799852
37.442353
37.05922
36.656563
36.23825
35.83361
35.322991
52.870144
52.139747
51.408857
50.677898
49.947221
49.217086
48.487698
47.759236
47.031881
46.30583
45.581302
44.858535
44.137785
43.419318
42.703407
41.990334
41.280381
40.573833
39.870973
39.172083
38.477442
37.787327
37.102007
36.421751
35.746818
35.077463
34.413934
33.756473
33.105312
32.460679
31.822791
31.191858
30.568082
29.951655
29.34276
28.741572
28.148254
27.562961
26.985836
26.41701
25.856607
25.304733
24.761487
24.226952
23.701203
23.184299
22.676293
22.177228
21.687143
21.206071
20.734045
20.271101
19.817276
19.372608
18.93717
18.511124
18.094497
17.687563
17.291133
16.904795
16.530544
16.173454
15.825107
15.508895
15.246885
15.059622
14.978391
15.045705
15.311302
15.829463
16.648016
17.788845
19.240538
20.951164
22.835933
24.791817
26.714537
28.517834
30.135323
31.530736
32.695792
33.631588
34.361872
34.911425
35.309132
35.579362
35.764548
35.867107
35.909854
35.910082
35.860492
35.759813
35.614973
35.42153
35.175218
34.892291
34.575051
34.231021
33.890514
33.4441
52.872395
52.141754
51.410512
50.67909
49.947846
49.217057
48.486953
47.757734
47.029597
46.302748
45.577405
44.853807
44.132204
43.412859
42.696039
41.98202
41.27108
40.563495
39.859545
39.159504
38.463647
37.772241
37.085553
36.403841
35.72736
35.056356
34.39107
33.731736
33.078579
32.431819
31.791664
31.158317
30.531971
29.912811
29.301012
28.696742
28.100157
27.511406
26.930626
26.357948
25.79349
25.23736
24.689658
24.150471
23.619878
23.097947
22.58474
22.080311
21.584708
21.097976
20.620157
20.151294
19.69143
19.240609
18.79888
18.366307
17.94295
17.528885
17.124264
16.729152
16.343835
15.969194
15.604862
15.253726
14.921313
14.599762
14.317749
14.094079
13.952448
13.927572
14.064185
14.413042
15.025534
15.938247
17.156873
18.650276
20.349245
22.160708
23.982069
25.720018
27.304841
28.688052
29.852361
30.797996
31.541137
32.10548
32.5147
32.799554
32.990259
33.106172
33.153109
33.163364
33.129406
33.049743
32.927416
32.766636
32.552459
32.301714
32.041407
31.677694
52.87511
52.144375
51.412952
50.681257
49.949651
49.218429
48.487838
47.758101
47.029428
46.302035
45.576147
44.852002
44.129849
43.409947
42.692564
41.977969
41.266437
40.558242
39.853657
39.152955
38.456405
37.764271
37.076815
36.39429
35.716946
35.045025
34.378764
33.718389
33.064121
32.416173
31.774749
31.140044
30.512245
29.89153
29.278068
28.672019
28.073533
27.482752
26.899808
26.324824
25.757911
25.199174
24.648708
24.106595
23.572912
23.047725
22.531093
22.023067
21.523694
21.033016
20.551072
20.0779
19.613538
19.158024
18.711398
18.273704
17.84499
17.425302
17.014693
16.613207
16.220906
15.837934
15.464359
15.100608
14.747773
14.405706
14.078337
13.766638
13.477071
13.2328
13.052793
12.965219
13.008983
13.230962
13.682754
14.409966
15.432236
16.735803
18.267336
19.942065
21.662081
23.330614
24.870645
26.229389
27.381244
28.324605
29.067157
29.63477
30.04899
30.339842
30.531193
30.652703
30.707466
30.720186
30.697511
30.633827
30.530832
30.392332
30.228301
29.967627
52.878117
52.147371
51.415865
50.684007
49.95216
49.220631
48.489686
47.759564
47.030491
46.302694
45.576402
44.851858
44.129311
43.409019
42.691249
41.976267
41.264346
40.555758
39.850774
39.149663
38.452691
37.760121
37.072211
36.389211
35.71137
35.038925
34.372108
33.711146
33.056253
32.40764
31.765505
31.130041
30.501429
29.879844
29.265449
28.658399
28.05884
27.466908
26.882729
26.306421
25.738092
25.17784
24.625752
24.08191
23.546382
23.019231
22.50051
21.990266
21.488538
20.995361
20.510767
20.034783
19.567437
19.108755
18.658763
18.217488
17.784961
17.361211
16.946265
16.540147
16.142876
15.754474
15.374964
15.004406
14.642989
14.290844
13.94861
13.616958
13.297385
12.994511
12.70626
12.451699
12.248618
12.119398
12.097293
12.225416
12.553677
13.131375
13.991175
15.131961
16.514888
18.064633
19.686274
21.282846
22.772108
24.098164
25.22744
26.155323
26.888779
27.450293
27.862402
28.151567
28.341985
28.46285
28.523531
28.537368
28.523866
28.472803
28.404408
28.264768
52.881312
52.150604
51.419072
50.687116
49.955102
49.223345
48.492126
47.7617
47.032307
46.304184
45.577568
44.852706
44.129848
43.409254
42.691188
41.975917
41.263712
40.554843
39.84958
39.148189
38.450936
37.758081
37.06988
36.386582
35.708433
35.035668
34.368519
33.707208
33.051949
32.402949
31.760405
31.124505
30.495431
29.873351
29.258428
28.650813
28.050649
27.458067
26.873191
26.296135
25.727002
25.165887
24.612874
24.068038
23.531447
23.003156
22.483215
21.971665
21.46854
20.973869
20.487675
20.009978
19.540793
19.080136
18.628019
18.184454
17.749455
17.323033
16.905199
16.495958
16.095313
15.703257
15.319784
14.944885
14.578573
14.220866
13.871861
13.531723
13.200791
12.87999
12.569802
12.273429
11.994706
11.736776
11.520195
11.363758
11.295655
11.354838
11.589044
12.048923
12.775446
13.778871
15.032089
16.469099
17.99844
19.524007
20.95942
22.244284
23.342909
24.246743
24.963447
25.511243
25.915717
26.196959
26.384208
26.501468
26.565946
26.58462
26.591685
26.54689
52.884632
52.153989
51.422464
50.690453
49.958318
49.226385
48.494945
47.764267
47.034604
46.306204
45.579311
44.854176
44.131054
43.410204
42.691892
41.976384
41.26395
40.554858
39.849378
39.147775
38.450314
37.757252
37.068844
36.38534
35.706982
35.034005
34.366639
33.705105
33.049616
32.400377
31.757582
31.121421
30.49207
29.869699
29.254467
28.646523
28.046008
27.453053
26.867777
26.290293
25.720701
25.159093
24.605552
24.060149
23.522948
22.994004
22.473362
21.961059
21.457125
20.961585
20.474456
19.995751
19.525479
19.063646
18.610254
18.165303
17.728795
17.300726
16.881092
16.469885
16.067092
15.672695
15.286667
14.908982
14.539609
14.178521
13.825699
13.481147
13.144907
12.817134
12.498021
12.188174
11.888642
11.600774
11.328778
11.073672
10.851274
10.67855
10.579527
10.589215
10.752628
11.120637
11.738909
12.628162
13.77038
15.108017
16.553111
18.009155
19.388389
20.627129
21.689143
22.562388
23.256127
23.783839
24.173765
24.444505
24.627039
24.741777
24.821665
24.848926
52.888036
52.157472
51.425975
50.693934
49.961712
49.229637
48.498013
47.76712
47.037222
46.308576
45.581436
44.856057
44.132697
43.411619
42.693087
41.977369
41.264735
40.555451
39.849787
39.148008
38.450375
37.757147
37.068578
36.384915
35.7064
35.033268
34.365746
33.704056
33.048408
32.399007
31.756048
31.119716
30.49019
29.867635
29.252211
28.644066
28.043338
27.450158
26.864644
26.286907
25.717045
25.155149
24.6013
24.055568
23.518015
22.988693
22.467645
21.954907
21.450506
20.954463
20.466793
19.987503
19.516599
19.054079
18.599941
18.154176
17.716775
17.287727
16.867017
16.454626
16.050529
15.654698
15.267096
14.887682
14.516413
14.153239
13.798114
13.450991
13.111833
12.780625
12.457376
12.14217
11.835218
11.536883
11.248064
10.969664
10.704819
10.456787
10.233367
10.0516
9.9322263
9.9067014
10.017288
10.314454
10.846571
11.642377
12.691495
13.94269
15.311323
16.700926
18.023523
19.213185
20.234144
21.071446
21.735178
22.238684
22.611347
22.871002
23.061457
23.177615
52.891496
52.161018
51.429561
50.697509
49.96522
49.23303
48.501249
47.770166
47.040058
46.31119
45.583823
44.858219
44.134639
43.413348
42.694612
41.978701
41.265881
40.556422
39.850591
39.148653
38.450869
37.757497
37.068789
36.384992
35.706347
35.033089
34.365444
33.703632
33.047865
32.398344
31.755265
31.118813
30.489163
29.866484
29.250931
28.642653
28.041788
27.448465
26.862801
26.284906
25.714878
25.152806
24.598771
24.052841
23.515077
22.98553
22.464243
21.951249
21.446574
20.950237
20.462251
19.982621
19.511348
19.048429
18.593856
18.147616
17.709695
17.280075
16.858733
16.445644
16.040776
15.644091
15.255547
14.875094
14.502677
14.13824
13.781722
13.433058
13.092188
12.759051
12.433594
12.115781
11.805603
11.5031
11.208424
10.921825
10.643958
10.375843
10.119507
9.8792747
9.6584479
9.4728034
9.3408353
9.2909348
9.3629485
9.6063445
10.071261
10.79193
11.764061
12.941263
14.241695
15.569027
16.835693
17.974321
18.949441
19.746361
20.377245
20.854941
21.223754
21.473482
52.894993
52.164603
51.433194
50.70114
49.968802
49.236515
48.504597
47.773347
47.043048
46.313976
45.586398
44.860582
44.136794
43.4153
42.69637
41.980273
41.267277
40.557651
39.851663
39.149575
38.45165
37.758143
37.069308
36.38539
35.70663
35.033261
34.36551
33.703596
33.047728
32.39811
31.754936
31.118389
30.488646
29.865873
29.250227
28.641854
28.040892
27.44747
26.861705
26.283704
25.713567
25.151382
24.597228
24.051173
23.513277
22.983592
22.462158
21.949008
21.444168
20.947655
20.45948
19.979649
19.508159
19.045005
18.590177
18.14366
17.705434
17.275479
16.853768
16.44027
16.034949
15.637763
15.248663
14.867594
14.494496
14.129305
13.771954
13.422369
13.080479
12.74621
12.419486
12.100238
11.788399
11.483916
11.186762
10.896942
10.614549
10.339799
10.073158
9.8156451
9.5686036
9.3355979
9.1201461
8.9346436
8.795936
8.7300294
8.7746423
8.9781277
9.3916775
10.053256
10.963207
12.078423
13.319103
14.588714
15.799953
16.885463
17.813156
18.567897
19.181023
19.63697
52.898512
52.168211
51.436851
50.704804
49.972427
49.240059
48.508021
47.77662
47.046147
46.316885
45.589109
44.863092
44.139104
43.417416
42.698298
41.982021
41.268853
40.559065
39.852923
39.15069
38.452628
37.758993
37.070036
36.386004
35.707135
35.033663
34.365814
33.703807
33.04785
32.398147
31.754889
31.118263
30.488442
29.865593
29.249871
28.641424
28.040389
27.446892
26.861052
26.282976
25.712762
25.150498
24.596262
24.050123
23.512141
22.982365
22.460837
21.947589
21.442645
20.946023
20.457732
19.977778
19.506157
19.042863
18.587883
18.141201
17.702796
17.272644
16.850716
16.436978
16.031391
15.633909
15.244481
14.863048
14.489547
14.12391
13.766063
13.415931
13.073435
12.738493
12.411023
12.090942
11.778166
11.472616
11.174215
10.882897
10.598616
10.321358
10.051172
9.7882399
9.5328993
9.2859513
9.0485888
8.8237232
8.6152656
8.4323646
8.2910901
8.215313
8.2412076
8.4159076
8.7914704
9.407999
10.269583
11.33432
12.523219
13.73873
14.896994
15.929237
16.828347
17.550115
52.902044
52.171828
51.440519
50.708483
49.976076
49.243638
48.511494
47.779955
47.049322
46.319883
45.59192
44.865711
44.141532
43.419655
42.700354
41.9839
41.270564
40.560616
39.854322
39.151946
38.45375
37.759988
37.070912
36.386767
35.707793
35.034221
34.366279
33.704182
33.048142
32.398358
31.755025
31.118326
30.488435
29.865519
29.249733
28.641223
28.040126
27.446569
26.860669
26.282534