/*--------------------------------*- C++ -*----------------------------------*\
| =========                 |                                                 |
| \\      /  F ield         | OpenFOAM: The Open Source CFD Toolbox           |
|  \\    /   O peration     | Version:  2206                                  |
|   \\  /    A nd           | Website:  www.openfoam.com                      |
|    \\/     M anipulation  |                                                 |
\*---------------------------------------------------------------------------*/
FoamFile
{
    version     2.0;
    format      ascii;
    arch        "LSB;label=32;scalar=64";
    class       volScalarField;
    location    "300";
    object      p;
}
// * * * * * * * * * * * * * * * * * * * * * * * * * * * * * * * * * * * * * //

dimensions      [0 2 -2 0 0 0 0];

internalField   nonuniform List<scalar> 
7480
(
0.054592155
0.042339988
0.028220454
0.016414994
0.0058102562
0.00036551986
-0.00088825873
0.00012964189
0.0016842957
0.0027162729
0.0031934174
0.0033980646
0.003490822
0.0035214061
0.0035249648
0.0035310914
0.0035410767
0.0035371171
0.0035226013
0.003506684
0.0034881951
0.0034629609
0.0034338203
0.0034041252
0.0033726041
0.0033368545
0.0032982882
0.0032584516
0.0032164583
0.0031715027
0.0031246966
0.0030768053
0.0030272114
0.0029757251
0.002923208
0.0028702615
0.0028169269
0.0027638707
0.0027123326
0.0026633301
0.0026177039
0.0025770181
0.0025437888
0.0025204061
0.0025111774
0.0025199682
0.0025516105
0.0026052522
0.0026796162
0.0027754681
0.0028910844
0.0030236101
0.0031685754
0.0033196793
0.003474726
0.0036272985
0.0037593147
0.003857969
0.0039151496
0.0039339299
0.0039165823
0.003869464
0.0038016234
0.0037201492
0.0036301661
0.0035356676
0.0034399972
0.0033444248
0.0032498509
0.0031568181
0.0030654409
0.002975222
0.0028861839
0.0027983038
0.0027107918
0.0026242286
0.0025376977
0.0024490736
0.002358778
0.0022669359
0.0021743555
0.002080636
0.0019846145
0.0018873631
0.0017879807
0.0016871071
0.0015845699
0.0014804253
0.0013753129
0.0012688231
0.0011622616
0.0010553271
0.00094983687
0.00084517662
0.0007481607
0.00064535219
0.00059359334
0.00031131263
0.00083786961
-0.00087513545
0.049615074
0.039104129
0.027154664
0.016266011
0.00641085
0.0011665179
-0.00018146489
0.00059913699
0.0019111576
0.0028401529
0.0032711219
0.0034572528
0.003541643
0.0035654066
0.0035650426
0.003569802
0.0035736289
0.0035641709
0.0035466111
0.0035283191
0.0035076615
0.0034804608
0.0034497042
0.0034186196
0.0033858232
0.0033489154
0.0033093476
0.003268615
0.0032257865
0.0031800666
0.0031325786
0.0030840621
0.0030338817
0.0029818529
0.0029288375
0.0028754244
0.0028216474
0.0027681734
0.0027162384
0.0026668525
0.0026208526
0.0025798029
0.0025462167
0.0025224785
0.0025129766
0.0025217072
0.0025527395
0.0026059069
0.0026799578
0.0027755089
0.0028908556
0.0030231482
0.0031679192
0.0033188785
0.0034738389
0.003626377
0.0037584141
0.0038571694
0.0039145023
0.0039334449
0.0039163067
0.0038693653
0.0038016679
0.0037203066
0.0036304049
0.0035359613
0.0034403248
0.0033447704
0.0032502033
0.0031571695
0.0030657861
0.0029755578
0.0028865084
0.0027986156
0.0027110908
0.0026245152
0.0025379781
0.0024493533
0.0023590545
0.0022672063
0.0021746192
0.0020808934
0.0019848663
0.0018876096
0.0017882223
0.0016873437
0.0015848015
0.0014806517
0.0013755338
0.0012690385
0.0011624712
0.001055531
0.00095003512
0.00084536914
0.00074834877
0.00064553255
0.0005938381
0.00031229259
0.00084008732
-0.00087464676
0.045555634
0.037423435
0.026791418
0.016540293
0.0077853762
0.0026949531
0.00099135222
0.0012609223
0.002247525
0.0030244697
0.0033920734
0.0035581272
0.003629787
0.0036385143
0.0036291825
0.0036269261
0.0036220703
0.0036052521
0.0035829079
0.0035609135
0.0035366533
0.003506077
0.0034727771
0.0034395625
0.0034047232
0.0033659759
0.0033249323
0.0032829313
0.0032388991
0.0031920822
0.0031436607
0.0030943069
0.0030433326
0.0029905772
0.0029369152
0.0028829053
0.002828564
0.0027745698
0.0027221547
0.0026723121
0.0026258702
0.0025843982
0.0025504062
0.0025262704
0.0025164355
0.0025252379
0.0025557207
0.0026081349
0.0026818118
0.0027769825
0.0028919692
0.0030239211
0.0031683698
0.0033190425
0.0034737868
0.0036261575
0.0037580509
0.003856768
0.003914193
0.0039332359
0.0039163166
0.0038695691
0.0038020386
0.003720818
0.0036310203
0.0035366462
0.003441051
0.0033455139
0.0032509476
0.0031579029
0.0030665003
0.0029762474
0.0028871709
0.0027992491
0.0027116944
0.0026250897
0.0025385235
0.0024498765
0.0023595614
0.0022676956
0.0021750912
0.002081349
0.001985307
0.0018880375
0.0017886379
0.0016877478
0.0015851944
0.0014810335
0.0013759046
0.0012693983
0.0011628203
0.0010558692
0.00095036301
0.00084568617
0.00074865846
0.00064582562
0.00059423724
0.00031386851
0.00084401557
-0.00087404427
0.042834862
0.036121905
0.026436615
0.016839826
0.0090716056
0.0041575131
0.0020730005
0.0019546953
0.0026394185
0.0032619243
0.0035740115
0.00371569
0.0037642196
0.0037433051
0.0037134406
0.0036993226
0.0036838616
0.003656559
0.0036276175
0.0036013143
0.0035726012
0.0035374907
0.0035009896
0.003465201
0.0034277439
0.0033865697
0.0033437302
0.0033002723
0.0032548181
0.0032067145
0.0031572877
0.0031070731
0.0030552679
0.0030017698
0.002947492
0.0028929335
0.0028380809
0.0027836516
0.0027308781
0.0026807175
0.0026339801
0.0025922525
0.0025580395
0.0025337088
0.0025236359
0.0025329277
0.0025632951
0.0026148472
0.0026882238
0.0027830452
0.0028976254
0.0030291229
0.0031730566
0.0033231808
0.0034774045
0.0036292412
0.0037605939
0.0038587933
0.0039160173
0.0039348395
0.0039178571
0.0038711281
0.0038036394
0.0037224741
0.0036327188
0.0035383654
0.0034427694
0.0033472078
0.0032526006
0.003159503
0.0030680388
0.0029777182
0.0028885722
0.0028005796
0.0027129532
0.0026262784
0.0025396112
0.0024508652
0.0023604935
0.0022685804
0.0021759324
0.0020821493
0.0019860699
0.0018887681
0.0017893385
0.0016884216
0.0015858426
0.0014816578
0.0013765063
0.001269978
0.0011633793
0.0010564077
0.00095088254
0.00084618606
0.00074914457
0.00064628469
0.00059485092
0.00031636239
0.00085044941
-0.00087299398
0.040365704
0.034528269
0.025811822
0.017192036
0.010139348
0.0053638314
0.0031118215
0.0027232729
0.0031156498
0.0035608422
0.0037958928
0.0038869511
0.0039034701
0.0038646549
0.0038238219
0.0038000044
0.0037716512
0.0037286569
0.0036887728
0.0036556371
0.0036204724
0.0035790198
0.003538279
0.0034993748
0.0034586761
0.003414314
0.0033691477
0.0033238142
0.0032764594
0.0032266248
0.0031759104
0.0031246305
0.0030717951
0.0030174095
0.0029624612
0.002907345
0.0028519839
0.0027971719
0.0027441618
0.0026938411
0.0026469832
0.0026052024
0.0025709942
0.0025466962
0.0025366926
0.0025466317
0.0025770025
0.0026279422
0.0027010198
0.002795418
0.0029094531
0.0030402836
0.0031834015
0.0033326088
0.0034859508
0.0036369399
0.0037673051
0.0038643849
0.0039210444
0.003939209
0.0039217322
0.0038747686
0.0038071275
0.0037258719
0.0036360437
0.0035416158
0.0034459382
0.003350278
0.0032555611
0.0031623452
0.003070755
0.0029803037
0.0028910292
0.002802908
0.0027151526
0.0026283514
0.0025415192
0.0024526119
0.0023621317
0.0022701234
0.0021773883
0.0020835236
0.0019873693
0.0018900018
0.0017905115
0.0016895404
0.001586911
0.0014826797
0.0013774848
0.0012709151
0.0011642781
0.0010572696
0.00095171028
0.00084697965
0.00074991181
0.00064701176
0.00059579191
0.00032006613
0.00085996239
-0.00087094312
0.03805209
0.032935903
0.025223413
0.017503721
0.01102405
0.0064607972
0.0041109218
0.0034707066
0.0036134709
0.0038834869
0.0040304952
0.0040693941
0.0040549919
0.0040018915
0.0039477102
0.0039053445
0.0038615232
0.0038087158
0.0037620374
0.0037229861
0.0036802542
0.0036309079
0.0035842565
0.0035411388
0.0034963632
0.0034481104
0.0034002481
0.0033528303
0.0033033079
0.0032514651
0.0031993002
0.0031468287
0.0030928235
0.0030374866
0.0029819525
0.0029264607
0.002870708
0.0028155579
0.0027623879
0.0027120216
0.0026651832
0.0026235273
0.0025895387
0.0025654962
0.0025558453
0.0025661985
0.0025963663
0.0026469401
0.002719487
0.0028131904
0.0029264171
0.0030562986
0.0031982671
0.0033461848
0.0034983027
0.0036480672
0.0037769449
0.0038724491
0.0039283426
0.0039455703
0.0039273127
0.0038800195
0.003812149
0.0037307371
0.003640773
0.0035462111
0.0034503977
0.0033545864
0.0032597098
0.0031663268
0.0030745597
0.0029839291
0.0028944838
0.0028061919
0.002718264
0.0026312918
0.0025442739
0.0024551929
0.0023645655
0.0022724138
0.0021795453
0.0020855549
0.0019892834
0.001891812
0.001792225
0.0016911672
0.0015884572
0.0014841518
0.0013788884
0.0012722536
0.0011655566
0.0010584911
0.00095287934
0.00084809756
0.00075098657
0.00064803458
0.00059709713
0.00032510558
0.00087266751
-0.00086743962
0.035950818
0.03145718
0.02467058
0.017733009
0.011781899
0.0074589626
0.0050469895
0.0041790557
0.0040978544
0.0042144645
0.0042763618
0.0042652006
0.0042187499
0.0041475844
0.0040759357
0.0040147791
0.0039570704
0.0038961794
0.0038414182
0.0037926753
0.0037415367
0.0036869552
0.0036362116
0.0035891695
0.0035397825
0.0034871254
0.0034359889
0.0033858797
0.0033336693
0.0032794693
0.0032256966
0.0031719419
0.0031166467
0.0030602841
0.0030041864
0.0029483654
0.0028922597
0.0028368686
0.0027837135
0.0027335196
0.0026869481
0.0026457239
0.0026123462
0.0025891232
0.0025796538
0.0025894252
0.0026193523
0.0026698155
0.0027419282
0.0028349474
0.0029472377
0.0030758735
0.0032163308
0.0033627014
0.003512496
0.0036592966
0.0037860045
0.0038800201
0.0039355302
0.0039520263
0.0039331339
0.0038857402
0.003817815
0.0037363731
0.0036463541
0.0035517079
0.0034557871
0.003359834
0.0032647967
0.0031712388
0.0030792818
0.0029884544
0.0028988187
0.0028103332
0.0027222057
0.0026350335
0.0025478068
0.0024585325
0.0023677301
0.0022753995
0.0021823606
0.0020882066
0.0019917806
0.0018941703
0.0017944529
0.0016932772
0.0015904574
0.0014860508
0.001380694
0.0012739707
0.0011671925
0.0010600501
0.00095436739
0.00084951755
0.00075234535
0.00064933188
0.00059874256
0.00033142454
0.00088821745
-0.00086235662
0.034052052
0.030075192
0.024103687
0.017876378
0.012428465
0.0083501002
0.0059097632
0.0048565358
0.004580168
0.0045554683
0.0045323682
0.0044699239
0.0043892762
0.0042966666
0.0042071536
0.0041292738
0.0040581574
0.0039878091
0.0039233015
0.0038645902
0.0038062196
0.0037469835
0.0036914649
0.0036388477
0.0035846622
0.0035288475
0.0034751469
0.0034223565
0.0033671746
0.0033103366
0.0032546986
0.0031994135
0.0031424125
0.0030845527
0.003027525
0.0029710183
0.0029142743
0.0028585227
0.002805372
0.0027554025
0.0027091946
0.0026685732
0.0026360727
0.0026140242
0.0026047855
0.0026136967
0.0026432714
0.0026937092
0.0027655136
0.0028579048
0.0029691566
0.0030962488
0.0032349604
0.0033798478
0.0035263621
0.0036687111
0.0037928703
0.0038857735
0.0039413661
0.003957524
0.0039383642
0.0038912135
0.0038235046
0.0037422478
0.0036523382
0.0035577303
0.0034617888
0.003365749
0.0032705879
0.0031768802
0.0030847505
0.0029937327
0.0029039031
0.0028152144
0.0027268722
0.0026394819
0.0025520244
0.0024625353
0.0023715384
0.0022790048
0.0021857686
0.0020914219
0.0019948111
0.0018970329
0.0017971563
0.0016958356
0.0015928799
0.0014883476
0.0013828747
0.0012760417
0.001169163
0.0010619253
0.00095615399
0.00085122009
0.00075396861
0.00065088583
0.00060069508
0.00033889826
0.00090608287
-0.00085583538
0.032331278
0.028783606
0.023529083
0.017955516
0.012978427
0.0091409748
0.0067037886
0.0055056239
0.0050589524
0.0049026953
0.0047959893
0.0046814309
0.0045656832
0.0044499768
0.0043418374
0.0042474102
0.0041624194
0.0040815193
0.0040074364
0.0039397179
0.0038742022
0.0038094991
0.0037484442
0.0036902277
0.0036317976
0.0035729203
0.0035161036
0.0034599716
0.0034019626
0.0033431323
0.0032858917
0.0032289412
0.0031700144
0.0031104711
0.0030523232
0.0029949297
0.0029373236
0.0028808754
0.0028272679
0.0027770504
0.0027307592
0.0026903255
0.0026583249
0.0026369856
0.002628286
0.0026371128
0.0026663082
0.0027163351
0.0027875314
0.0028791123
0.0029892613
0.0031148669
0.0032519722
0.0033954509
0.0035391815
0.0036773343
0.0037985802
0.0038903257
0.003945894
0.003961919
0.0039428055
0.0038961388
0.0038288341
0.0037479533
0.003658331
0.0035638977
0.0034680411
0.0033719972
0.0032767788
0.0031829715
0.003090705
0.0029995239
0.002909521
0.0028206405
0.0027320863
0.0026444767
0.0025567798
0.0024670656
0.0023758661
0.002283118
0.0021896704
0.0020951138
0.0019982984
0.0019003326
0.0018002762
0.0016987905
0.0015956788
0.0014910015
0.0013853938
0.0012784335
0.001171438
0.0010640889
0.00095821355
0.00085318156
0.00075583383
0.00065267586
0.00060291186
0.00034737855
0.0009256792
-0.00084793344
0.030767885
0.027583752
0.022958183
0.017980527
0.013439705
0.009838476
0.0074311515
0.0061227288
0.0055289307
0.0052522881
0.0050655144
0.0048992995
0.0047479409
0.004607764
0.004480345
0.0043690163
0.0042699605
0.0041779128
0.0040937957
0.0040171979
0.0039443019
0.0038736151
0.0038071134
0.0037437405
0.0036810287
0.0036185912
0.0035583658
0.0034990285
0.0034384366
0.0033775795
0.0033182806
0.0032592573
0.0031986122
0.0031378261
0.0030786803
0.003020288
0.0029616631
0.0029043131
0.0028500493
0.0027993492
0.0027526479
0.0027119678
0.0026799255
0.0026585855
0.0026499253
0.002658574
0.0026872875
0.0027366361
0.002806991
0.0028976148
0.0030066677
0.0031309934
0.0032666801
0.0034086861
0.0035505368
0.0036859493
0.0038046955
0.0038943891
0.0039489203
0.0039649277
0.0039460935
0.0039000306
0.0038333055
0.0037530306
0.0036638941
0.0035697609
0.0034741097
0.0033781815
0.0032829973
0.0031891607
0.0030968205
0.0030055328
0.002915404
0.0028263667
0.0027376253
0.0026498146
0.0025618875
0.0024719548
0.0023805597
0.0022875994
0.0021939406
0.0020991708
0.0020021443
0.001903983
0.0018037368
0.0017020754
0.0015987958
0.0014939611
0.0013882061
0.0012811057
0.0011739809
0.0010665082
0.00096051628
0.0008553748
0.00075791562
0.0006546788
0.00060534446
0.00035671986
0.00094643473
-0.00083858083
0.029344435
0.026473357
0.02239592
0.017956237
0.013819546
0.010449483
0.0080932938
0.0067050986
0.0059870228
0.0056021263
0.0053397321
0.0051227893
0.0049355273
0.0047698143
0.0046224909
0.0044940003
0.0043805763
0.0042769616
0.0041826737
0.0040970533
0.0040166803
0.0039397526
0.0038674293
0.003798859
0.0037318076
0.0036655692
0.0036019507
0.0035395993
0.0034763606
0.0034131611
0.0033516777
0.0032907586
0.0032285587
0.0031664858
0.0031060014
0.0030463982
0.0029868525
0.0029287593
0.0028739299
0.0028227104
0.0027754922
0.0027343743
0.0027020293
0.0026803372
0.0026712097
0.0026792121
0.0027071355
0.0027554918
0.0028246258
0.0029139052
0.0030215267
0.0031443241
0.0032784035
0.0034188203
0.0035591519
0.0036929971
0.0038101895
0.0038979936
0.0039516074
0.0039676032
0.0039483475
0.0039024591
0.0038365376
0.0037570999
0.0036685719
0.0035748728
0.0034796039
0.0033839463
0.0032888842
0.0031951013
0.0031027861
0.0030114711
0.0029212763
0.002832134
0.0027432489
0.0026552721
0.0025671421
0.002477017
0.0023854504
0.0022922956
0.0021984419
0.0021034712
0.0020062408
0.0019078893
0.0018074552
0.001705618
0.0016021678
0.0014971714
0.0013912635
0.0012840157
0.0011767542
0.0010691495
0.00096303205
0.00085777258
0.00076018874
0.00065687171
0.00060794328
0.00036678826
0.0009678142
-0.0008276477
0.028045694
0.025447527
0.021846023
0.017889058
0.014126486
0.010981234
0.0086925348
0.0072512892
0.0064308213
0.0059499369
0.0056168891
0.0053506669
0.0051276477
0.0049357566
0.0047680482
0.0046222249
0.0044941949
0.004378687
0.0042740751
0.0041792878
0.0040912191
0.00400782
0.0039295675
0.003855711
0.0037842062
0.003714179
0.0036469083
0.0035812953
0.0035154509
0.0034498258
0.0033861475
0.0033234041
0.0032595992
0.0031960432
0.0031341581
0.0030734948
0.0030131208
0.0029542566
0.0028986784
0.0028468429
0.0027991722
0.002757634
0.0027249305
0.0027027999
0.0026930977
0.0027002711
0.002727159
0.0027742268
0.0028417579
0.0029292573
0.0030349826
0.003155774
0.0032877937
0.0034262592
0.0035648383
0.0036970071
0.0038127122
0.0038996354
0.0039532274
0.0039694316
0.0039500995
0.0039045628
0.0038394135
0.003760241
0.0036720017
0.0035789443
0.0034842609
0.0033889503
0.0032941007
0.0032005035
0.0031083391
0.0030170643
0.0029268648
0.00283769
0.0027487145
0.0026606179
0.0025723328
0.0024820615
0.0023903632
0.0022970484
0.0022030336
0.0021078891
0.0020104761
0.0019119537
0.0018113458
0.0017093437
0.0016057301
0.001500576
0.0013945168
0.0012871207
0.0011797201
0.0010719794
0.00096573108
0.00086034815
0.00076262857
0.00065923236
0.0006106589
0.00037745892
0.00098930708
-0.00081497271
0.026858302
0.02450046
0.021311837
0.017785758
0.014368349
0.011440233
0.0092314231
0.0077602628
0.0068578896
0.0062932744
0.0058951286
0.0055817128
0.0053235622
0.0051052433
0.004916824
0.0047535457
0.0046107354
0.0044830497
0.0043679394
0.0042638596
0.0041678997
0.0040778382
0.0039935679
0.0039143201
0.0038382199
0.0037642723
0.0036932557
0.0036243148
0.0035557742
0.0034877994
0.0034217959
0.0033569553
0.0032915437
0.0032265147
0.0031632302
0.0031014987
0.0030402614
0.0029805364
0.0029241842
0.0028718274
0.0028237469
0.0027817401
0.0027485844
0.0027259909
0.0027157423
0.002722074
0.0027478473
0.0027934805
0.0028592161
0.0029446866
0.0030482078
0.0031666177
0.003296149
0.0034322087
0.0035685711
0.0036986277
0.0038125616
0.0038986331
0.0039520283
0.0039686893
0.0039503361
0.0039059921
0.0038416959
0.0037628312
0.0036751479
0.0035827978
0.0034882171
0.0033929058
0.0032984302
0.0032051848
0.0031132053
0.0030220207
0.0029319218
0.0028428126
0.002753794
0.0026656398
0.0025772736
0.0024869093
0.0023951295
0.0023017064
0.0022075775
0.002112297
0.0020147362
0.0019160753
0.0018153189
0.0017131734
0.0016094134
0.0015041145
0.0013979132
0.0012903747
0.0011828386
0.0010749628
0.0009685822
0.00086307378
0.00076520985
0.00066173819
0.00061344186
0.0003886089
0.0010103944
-0.0008003781
0.025770494
0.023626035
0.020795772
0.017652503
0.014552155
0.01183255
0.009712835
0.0082314905
0.0072661004
0.0066299082
0.0061727246
0.0058147452
0.0055224953
0.0052778394
0.0050685514
0.0048877624
0.0047300674
0.0045899818
0.0044642192
0.004350742
0.0042467276
0.0041498238
0.004059425
0.00397468
0.0038938525
0.0038158466
0.0037410357
0.0036687075
0.0035973643
0.0035269575
0.0034585581
0.003391568
0.0033245048
0.0032580211
0.0031933245
0.0031303285
0.0030681386
0.0030076089
0.0029504815
0.0028975734
0.0028490558
0.0028065371
0.0027729391
0.0027499259
0.0027391121
0.0027445493
0.0027691331
0.0028132897
0.0028772185
0.0029606019
0.0030617927
0.0031776329
0.0033044351
0.0034377862
0.0035715699
0.0036991238
0.0038109006
0.0038957801
0.003948619
0.0039655947
0.0039483209
0.0039053004
0.0038421446
0.0037644097
0.0036778649
0.0035862375
0.0034917361
0.0033966407
0.0033026202
0.0032092976
0.0031171495
0.0030261719
0.0029363039
0.0028472785
0.0027582751
0.002670174
0.0025818104
0.0024913958
0.0023996019
0.0023061371
0.0022119405
0.0021165698
0.0020189083
0.0019201498
0.0018192787
0.0017170218
0.0016131413
0.001507719
0.0014013934
0.0012937258
0.0011860643
0.00107806
0.00097155078
0.00086591896
0.00076790506
0.00066436492
0.00061624217
0.00040011027
0.0010305051
-0.00078369018
0.024771878
0.022818112
0.020299301
0.017494873
0.014684506
0.012164048
0.010139922
0.0086649415
0.0076536926
0.0069578005
0.0064479936
0.0060485302
0.0057235898
0.0054530215
0.0052229059
0.0050246424
0.0048520354
0.0046993989
0.0045628583
0.0044398954
0.0043276873
0.0042237759
0.0041271384
0.0040368007
0.0039511255
0.0038689358
0.0037902685
0.0037144789
0.0036402276
0.0035672927
0.0034964645
0.0034272953
0.0033585065
0.0032905117
0.003224361
0.0031600547
0.0030968804
0.0030355529
0.0029776551
0.0029240521
0.0028750188
0.0028320184
0.0027979642
0.0027745453
0.0027631202
0.002767598
0.0027909831
0.0028336772
0.0028957892
0.0029770284
0.0030757946
0.0031889898
0.0033130008
0.003443538
0.003574573
0.003699411
0.003808766
0.0038921492
0.0039440812
0.0039610822
0.0039448548
0.0039029284
0.0038409392
0.0037644539
0.0036790231
0.0035882584
0.0034944726
0.0034000975
0.003306512
0.0032130476
0.0031209201
0.0030302006
0.0029401583
0.0028509244
0.0027620663
0.0026741179
0.0025857621
0.002495363
0.0024036645
0.0023102182
0.0022159913
0.0021205971
0.0020228878
0.0019240715
0.0018231271
0.0017207986
0.0016168295
0.0015113138
0.0014048903
0.0012971146
0.0011893451
0.0010812255
0.00097459688
0.00086884867
0.00077068296
0.00066708532
0.00061900914
0.00041182487
0.0010489699
-0.00076475727
0.023853251
0.022070753
0.019823148
0.017317867
0.014771609
0.012440299
0.010515942
0.0090609858
0.0080192453
0.0072750839
0.0067192962
0.0062818137
0.0059259476
0.0056302126
0.0053795212
0.0051639247
0.004976458
0.0048111916
0.0046637818
0.0045312642
0.0044107492
0.004299686
0.0041967063
0.0041006876
0.0040100532
0.0039235612
0.0038409675
0.0037616452
0.0036843884
0.00360884
0.0035355442
0.0034641492
0.0033935547
0.003323989
0.0032563518
0.0031907146
0.003126514
0.0030643451
0.0030056473
0.0029513132
0.0029017316
0.0028582925
0.0028236624
0.002799727
0.002787748
0.0027912719
0.002813428
0.0028546166
0.0029148598
0.0029938994
0.0030902026
0.0032007336
0.0033219233
0.0034495743
0.0035777473
0.0036997859
0.0038066413
0.0038884028
0.0039392733
0.0039561415
0.0039407029
0.0038996371
0.003838661
0.003763288
0.0036788997
0.0035890596
0.0034960938
0.003402379
0.003309272
0.003216172
0.0031245061
0.0030340037
0.0029437297
0.0028544757
0.0027657264
0.002677533
0.0025890038
0.0024987603
0.0024072067
0.0023137869
0.0022196095
0.0021242878
0.0020265718
0.0019277375
0.001826773
0.0017244124
0.0016203906
0.0015148195
0.0014083309
0.0013004744
0.0011926215
0.0010844062
0.00097767384
0.0008718217
0.000773507
0.00066986774
0.00062169162
0.00042360104
0.0010649864
-0.00074346752
0.023006449
0.021378357
0.019367454
0.017125854
0.014819219
0.012666562
0.010844199
0.0094203544
0.0083616914
0.0075800946
0.0069850769
0.0065133551
0.0061286471
0.0058087867
0.005537983
0.0053053118
0.0051031218
0.0049252223
0.0047668951
0.0046247786
0.0044958721
0.0043775369
0.0042681198
0.0041663387
0.0040706433
0.0039797382
0.0038931463
0.0038102239
0.003729871
0.0036516255
0.0035758155
0.003502146
0.0034296728
0.0033584813
0.003289325
0.0032223255
0.0031570467
0.0030939901
0.0030344635
0.0029793795
0.0029292186
0.0028853034
0.0028501041
0.0028255401
0.0028129543
0.0028155856
0.0028364491
0.0028760568
0.0029343948
0.0030112022
0.0031049849
0.0032128115
0.0033311667
0.0034558766
0.0035811284
0.0037003441
0.00380467
0.0038847405
0.0039344841
0.0039511364
0.0039363716
0.0038960683
0.0038360089
0.0037615277
0.0036780476
0.0035890325
0.0034968126
0.0034036857
0.0033110897
0.003218433
0.0031271563
0.0030368954
0.0029468326
0.0028579108
0.0027691888
0.0026807334
0.0025922277
0.0025019798
0.0024101736
0.0023167508
0.0022227649
0.0021275132
0.0020298235
0.0019310529
0.0018301291
0.0017277696
0.0016237457
0.0015181612
0.0014116414
0.0013037356
0.001195829
0.0010875425
0.00098072795
0.00087478973
0.00077633428
0.00067267484
0.00062423874
0.00043527221
0.0010776191
-0.0007197675
0.022224214
0.020735724
0.018931929
0.016922574
0.014832624
0.012847802
0.011128011
0.009744087
0.0086803085
0.0078713884
0.0072438798
0.0067419383
0.0063307482
0.0059880723
0.0056978299
0.0054484703
0.0052317839
0.0050413265
0.0048720841
0.004720355
0.0045830019
0.0044572999
0.0043413618
0.004233745
0.0041328977
0.0040374782
0.0039468169
0.0038602293
0.0037766948
0.0036956702
0.0036172965
0.0035413057
0.0034668857
0.0033940123
0.0033233002
0.0032549039
0.0031884974
0.0031245102
0.0030641268
0.0030082667
0.0029574868
0.0029130511
0.0028772586
0.0028520296
0.002838789
0.0028405027
0.0028600275
0.0028979991
0.0029544
0.003028937
0.0031201594
0.0032252426
0.0033407116
0.0034624235
0.0035846976
0.0037010449
0.0038028251
0.0038811585
0.0039297715
0.0039461912
0.0039320494
0.0038924654
0.0038332644
0.0037596302
0.0036770316
0.0035886567
0.0034970715
0.0034044408
0.0033122707
0.003219966
0.0031290193
0.0030390306
0.0029492331
0.0028605443
0.002771923
0.0026836217
0.0025953636
0.0025049925
0.0024129977
0.0023197348
0.0022256665
0.0021301433
0.0020325716
0.001933948
0.0018330666
0.0017307729
0.0016268264
0.0015212648
0.0014147501
0.001306832
0.001198902
0.0010905723
0.00098370043
0.00087769884
0.00077911598
0.00067546338
0.00062660112
0.00044665827
0.0010858743
-0.00069367915
0.021500092
0.020138086
0.018515974
0.016711171
0.014816636
0.012988687
0.011370666
0.01003347
0.0089746953
0.0081477491
0.0074943643
0.0069663864
0.0065313048
0.0061673642
0.0058585597
0.0055930329
0.0053621719
0.0051593128
0.0049792136
0.0048178932
0.00467207
0.0045389339
0.0044164064
0.0043028911
0.0041968129
0.0040967877
0.0040019875
0.0039116724
0.0038248763
0.0037409939
0.0036600053
0.0035816472
0.0035052152
0.0034306026
0.0033582964
0.0032884685
0.0032208871
0.0031559258
0.0030946546
0.0030379893
0.0029865502
0.0029415526
0.0029051375
0.0028792153
0.0028652672
0.0028660196
0.0028841737
0.002920472
0.0029748979
0.0030471217
0.0031357388
0.0032380233
0.0033505459
0.0034692064
0.0035884547
0.003701905
0.0038011367
0.003877626
0.003925125
0.0039413117
0.0039277133
0.0038888344
0.0038304631
0.0037577706
0.003676045
0.0035882636
0.0034971622
0.0034050589
0.0033132513
0.0032211392
0.0031304141
0.0030406263
0.0029510247
0.0028625153
0.0027740313
0.0026859037
0.0025977657
0.002507444
0.002415671
0.0023226376
0.0022283679
0.0021327253
0.0020352419
0.0019364592
0.0018355123
0.0017334016
0.0016295272
0.0015240261
0.0014175818
0.0013096968
0.0012017742
0.0010934365
0.00098653168
0.00088049503
0.00078180048
0.00067818623
0.00062873349
0.00045757095
0.0010888878
-0.00066530956
0.020828334
0.019581105
0.01811879
0.016494253
0.014775586
0.013093584
0.011575396
0.010289985
0.0092447466
0.0084081945
0.0077353203
0.0071855773
0.0067293786
0.0063459336
0.0060196343
0.0057385994
0.0054939845
0.0052789623
0.0050881259
0.0049172758
0.004762993
0.004622385
0.0044932179
0.0043737536
0.0042623782
0.0041576673
0.0040586623
0.0039645606
0.0038744294
0.0037876142
0.0037039588
0.0036231874
0.0035446812
0.0034682725
0.0033943326
0.0033230379
0.0032542353
0.0031882552
0.0031260631
0.0030685623
0.0030164248
0.002970823
0.0029337544
0.002907105
0.0028923959
0.0028921448
0.0029088994
0.0029434851
0.0029958922
0.0030657595
0.0031517258
0.0032511596
0.0033606839
0.0034762447
0.0035924193
0.0037029336
0.0037995926
0.0038741666
0.0039205429
0.0039364807
0.0039233795
0.0038851927
0.0038276445
0.0037558903
0.0036749853
0.0035879926
0.0034972342
0.0034057215
0.0033142173
0.0032222546
0.0031316828
0.003041984
0.0029524707
0.00286406
0.0027756553
0.002687644
0.0025995883
0.0025093747
0.0024177953
0.0023248806
0.0022306862
0.0021352766
0.0020378067
0.001938862
0.0018380056
0.0017358482
0.0016317455
0.001526392
0.0014200627
0.0013122279
0.0012043715
0.0010960732
0.00098916258
0.00088312989
0.00078433743
0.00068079683
0.00063060071
0.00046782296
0.0010861336
-0.00063484798
0.020203817
0.019060857
0.017739459
0.016273952
0.014713336
0.013166554
0.011745343
0.010515258
0.0094906236
0.0086519764
0.0079656811
0.0073984578
0.0069240514
0.0065230387
0.0061804865
0.0058847388
0.005626892
0.0054000296
0.0051986406
0.0050183674
0.004855672
0.004707586
0.0045717502
0.004446301
0.0043295759
0.0042201111
0.0041168413
0.004018898
0.0039253641
0.0038355459
0.0037491716
0.0036659415
0.0035853021
0.0035070412
0.003431427
0.0033586297
0.0032885603
0.0032215163
0.0031583688
0.0031000011
0.0030471253
0.003000876
0.0029631206
0.002935708
0.0029201857
0.0029188888
0.0029342126
0.0029670445
0.0030173884
0.0030848569
0.003168128
0.0032646607
0.0033711354
0.0034835474
0.0035965986
0.0037041425
0.0037981578
0.0038708175
0.0039160446
0.0039316996
0.0039190431
0.0038815338
0.0038248178
0.0037539985
0.0036739024
0.0035877039
0.0034973656
0.0034063851
0.0033151779
0.0032234406
0.0031329943
0.0030433253
0.0029538616
0.0028654684
0.0027770344
0.0026890476
0.0026010106
0.0025108602
0.0024194231
0.0023266154
0.0022325625
0.002137298
0.0020398873
0.001941093
0.0018404574
0.0017381446
0.0016339605
0.0015286845
0.0014221965
0.0013143707
0.0012066535
0.0010983879
0.00099152763
0.00088554844
0.00078667446
0.00068325026
0.00063218601
0.00047724189
0.0010775168
-0.00060256486
0.019621977
0.018573814
0.017377
0.016051996
0.014633292
0.013211341
0.011883541
0.010711024
0.0097127202
0.0088785735
0.0081845324
0.0076040556
0.0071144365
0.006697935
0.0063405265
0.0060309934
0.0057605386
0.0055222433
0.005310554
0.0051210136
0.0049499916
0.004794455
0.0046519458
0.0045204925
0.0043983799
0.0042841066
0.004176519
0.0040746844
0.0039776871
0.0038848005
0.0037956563
0.003709923
0.0036270948
0.0035469267
0.0034695967
0.0033952604
0.0033238794
0.0032557264
0.0031915875
0.0031323202
0.003078666
0.0030317252
0.002993247
0.0029650341
0.0029486471
0.0029462603
0.0029601198
0.0029911566
0.0030393937
0.0031044214
0.003184953
0.0032785349
0.003381909
0.0034911229
0.0036010026
0.0037055426
0.0037968482
0.0038675905
0.0039116368
0.0039269732
0.0039147063
0.0038778589
0.0038219729
0.003752086
0.0036728179
0.0035873223
0.0034976117
0.0034070609
0.0033161435
0.0032246562
0.0031343358
0.0030447442
0.0029553465
0.0028669113
0.002778394
0.0026903744
0.0026022625
0.0025120815
0.0024207111
0.0023279673
0.0022340254
0.0021388642
0.0020415449
0.0019428979
0.0018423745
0.0017401312
0.0016361732
0.0015308931
0.001424289
0.0013165203
0.001208714
0.0011003326
0.00099361262
0.00088765765
0.0007887392
0.00068548771
0.00063347359
0.00048569119
0.0010633348
-0.00056883808
0.019078742
0.018116812
0.01703042
0.015829764
0.014538437
0.013231378
0.011992897
0.010879083
0.00991163
0.0090876799
0.0083911178
0.007801491
0.0072996907
0.0068698858
0.0064991504
0.0061768822
0.0058945439
0.0056453075
0.0054236397
0.0052250408
0.0050458199
0.0048828954
0.0047337346
0.0045962771
0.0044687561
0.0043496337
0.0042376844
0.0041319148
0.0040314005
0.0039353863
0.0038434229
0.0037551432
0.0036700737
0.0035879453
0.0035088578
0.0034329457
0.0033602093
0.0032909021
0.0032257346
0.0031655337
0.0031110603
0.0030633832
0.0030241445
0.0029950927
0.0029777896
0.0029742671
0.0029866274
0.0030158284
0.003061915
0.0031244597
0.0032022078