/*--------------------------------*- C++ -*----------------------------------*\
| =========                 |                                                 |
| \\      /  F ield         | OpenFOAM: The Open Source CFD Toolbox           |
|  \\    /   O peration     | Version:  2206                                  |
|   \\  /    A nd           | Website:  www.openfoam.com                      |
|    \\/     M anipulation  |                                                 |
\*---------------------------------------------------------------------------*/
FoamFile
{
    version     2.0;
    format      ascii;
    arch        "LSB;label=32;scalar=64";
    class       surfaceScalarField;
    location    "300";
    object      phi;
}
// * * * * * * * * * * * * * * * * * * * * * * * * * * * * * * * * * * * * * //

dimensions      [0 3 -1 0 0 0 0];

oriented        oriented;

internalField   nonuniform List<scalar> 
14782
(
0.00061770052
8.7781504e-05
-0.00070548203
0.0005103054
0.00010739512
0.00040013226
0.00011017314
0.00030666606
9.3466201e-05
0.0002399898
6.6676258e-05
0.00019925003
4.0739766e-05
0.00017533397
2.391606e-05
0.0001611642
1.4169771e-05
0.00015175602
9.4081833e-06
0.00014418849
7.567528e-06
0.00013731845
6.8700413e-06
0.00013095669
6.3617575e-06
0.00012514788
5.808812e-06
0.00011985527
5.292605e-06
0.00011502017
4.835105e-06
0.00011061648
4.4036921e-06
0.00010660998
4.0064944e-06
0.0001029188
3.6911862e-06
9.9491231e-05
3.4275661e-06
9.6307785e-05
3.1834455e-06
9.3346276e-05
2.9615098e-06
9.0571918e-05
2.774357e-06
8.7963412e-05
2.6085069e-06
8.5511358e-05
2.4520539e-06
8.320294e-05
2.3084174e-06
8.1019576e-05
2.1833644e-06
7.8950299e-05
2.0692769e-06
7.6990323e-05
1.9599761e-06
7.5132326e-05
1.8579971e-06
7.336685e-05
1.7654756e-06
7.1688768e-05
1.6780818e-06
7.0095725e-05
1.5930437e-06
6.8583519e-05
1.5122061e-06
6.7147444e-05
1.4360745e-06
6.5785309e-05
1.3621352e-06
6.4496205e-05
1.2891035e-06
6.3278394e-05
1.2178118e-06
6.2130863e-05
1.1475306e-06
6.1054551e-05
1.0763117e-06
6.0051199e-05
1.0033522e-06
5.9122004e-05
9.291953e-07
5.8268668e-05
8.5333539e-07
5.7494388e-05
7.742802e-07
5.680158e-05
6.9280813e-07
5.619809e-05
6.0349028e-07
5.5688751e-05
5.0933892e-07
5.5283463e-05
4.0528747e-07
5.4988882e-05
2.9458133e-07
5.4803523e-05
1.8535874e-07
5.4725908e-05
7.7615217e-08
5.4751752e-05
-2.5843732e-08
5.4874235e-05
-1.224829e-07
5.5081161e-05
-2.0692595e-07
5.5352706e-05
-2.7154515e-07
5.5675736e-05
-3.230304e-07
5.6037469e-05
-3.6173233e-07
5.6404503e-05
-3.6703409e-07
5.6739972e-05
-3.3546977e-07
5.7008081e-05
-2.6810819e-07
5.7194001e-05
-1.8591985e-07
5.7294418e-05
-1.0041787e-07
5.7312581e-05
-1.8162327e-08
5.7258555e-05
5.402557e-08
5.7145718e-05
1.1283705e-07
5.6987529e-05
1.58189e-07
5.6795938e-05
1.9159079e-07
5.6581702e-05
2.1423634e-07
5.6352633e-05
2.2906873e-07
5.6114578e-05
2.3805539e-07
5.5871988e-05
2.4258996e-07
5.5628094e-05
2.4389422e-07
5.5384593e-05
2.4350051e-07
5.5142997e-05
2.4159666e-07
5.4904561e-05
2.3843514e-07
5.4669193e-05
2.3536883e-07
5.4437497e-05
2.3169562e-07
5.4206169e-05
2.3132746e-07
5.3970745e-05
2.3542472e-07
5.3732517e-05
2.3822784e-07
5.3492819e-05
2.3969814e-07
5.3252556e-05
2.4026295e-07
5.3011636e-05
2.4092002e-07
5.276879e-05
2.4284542e-07
5.2524199e-05
2.4459139e-07
5.227728e-05
2.4691905e-07
5.2028296e-05
2.4898368e-07
5.1777325e-05
2.509714e-07
5.1524469e-05
2.5285561e-07
5.1270258e-05
2.5421131e-07
5.1014541e-05
2.557172e-07
5.0757894e-05
2.5664639e-07
5.0500186e-05
2.5770827e-07
5.0241578e-05
2.5860822e-07
4.9981764e-05
2.5981403e-07
4.9719903e-05
2.6186065e-07
4.9456064e-05
2.6383895e-07
4.9210747e-05
2.4531715e-07
4.8807597e-05
4.0315002e-07
4.8816662e-05
-9.0649805e-09
8.4007885e-07
0.0007917598
9.1061001e-05
-0.0007950393
0.0007787826
0.00012037232
0.00075194239
0.00013701336
0.00070879085
0.00013661774
0.00065525128
0.00012021583
0.00060116307
9.482797e-05
0.00055307086
7.2008275e-05
0.00051313832
5.4102311e-05
0.00048027633
4.2270169e-05
0.00045277872
3.506514e-05
0.00042914924
3.0499527e-05
0.0004084863
2.7024695e-05
0.00039017665
2.4118459e-05
0.00037373541
2.1733851e-05
0.00035881913
1.9751377e-05
0.00034522384
1.7998982e-05
0.00033277703
1.6453304e-05
0.00032130188
1.5166344e-05
0.00031066367
1.4065772e-05
0.00030077213
1.307499e-05
0.00029154925
1.2184389e-05
0.00028291334
1.1410263e-05
0.00027480207
1.0719775e-05
0.00026716955
1.0084573e-05
0.00025997229
9.505681e-06
0.00025316663
8.9890193e-06
0.00024671983
8.5160795e-06
0.0002406092
8.0706112e-06
0.00023481225
7.654941e-06
0.00022930573
7.2719945e-06
0.00022407283
6.9109887e-06
0.00021910213
6.563741e-06
0.00021438186
6.2324751e-06
0.00020990054
5.9173991e-06
0.00020565079
5.6118841e-06
0.00020162843
5.3114619e-06
0.00019782971
5.016533e-06
0.00019425295
4.7242864e-06
0.00019090044
4.4288262e-06
0.00018777711
4.1266779e-06
0.00018488842
3.8178854e-06
0.00018224167
3.5000929e-06
0.00017984716
3.1687819e-06
0.00017771568
2.8242925e-06
0.00017586721
2.4519602e-06
0.00017432128
2.0552726e-06
0.00017309684
1.6297225e-06
0.00017220766
1.1837629e-06
0.00017165303
7.3998831e-07
0.00017142487
3.0577553e-07
0.00017150701
-1.079803e-07
0.00017187524
-4.9071864e-07
0.00017249073
-8.2241104e-07
0.00017329843
-1.079245e-06
0.00017425028
-1.274888e-06
0.00017529153
-1.4029796e-06
0.0001763281
-1.4036058e-06
0.00017725894
-1.2663027e-06
0.00017799137
-1.0005431e-06
0.0001784843
-6.7884624e-07
0.00017873006
-3.4618084e-07
0.00017874017
-2.827524e-08
0.00017854264
2.515608e-07
0.00017817458
4.809e-07
0.00017767461
6.5815504e-07
0.00017707731
7.8889444e-07
0.00017641279
8.7874975e-07
0.00017570404
9.3782644e-07
0.00017496836
9.7372809e-07
0.00017421886
9.9209087e-07
0.00017346491
9.9784826e-07
0.00017271213
9.9627741e-07
0.00017196516
9.885625e-07
0.00017122744
9.761584e-07
0.00017049953
9.6327961e-07
0.00016978217
9.4905376e-07
0.00016906443
9.4907103e-07
0.00016833453
9.6532485e-07
0.00016759672
9.7603999e-07
0.00016685523
9.8118647e-07
0.00016611186
9.8363499e-07
0.00016536588
9.8689113e-07
0.00016461464
9.9408827e-07
0.00016385777
1.0014614e-06
0.00016309411
1.0105772e-06
0.00016232412
1.018972e-06
0.00016154813
1.0269675e-06
0.00016076667
1.0343101e-06
0.00015998098
1.0399064e-06
0.00015919125
1.0454499e-06
0.00015839871
1.0491876e-06
0.00015760363
1.0527865e-06
0.00015680604
1.0561909e-06
0.00015600666
1.0591957e-06
0.00015519951
1.069012e-06
0.0001543973
1.0660539e-06
0.00015358746
1.0551543e-06
0.00015257211
1.4185029e-06
0.00015201736
5.456822e-07
2.5280329e-06
0.00083157116
8.6589522e-05
-0.00082709968
0.0008370877
0.00011485578
0.00084161606
0.000132485
0.00084052084
0.00013771296
0.000831405
0.00012933166
0.00081412025
0.00011211272
0.00079127545
9.4853082e-05
0.00076528414
8.0093617e-05
0.00073804565
6.950866e-05
0.00071107076
6.2040031e-05
0.0006851991
5.6371188e-05
0.00066072762
5.1496171e-05
0.00063766426
4.7181821e-05
0.00061590636
4.3491749e-05
0.00059538901
4.0268726e-05
0.00057608284
3.7305157e-05
0.00055792843
3.4607716e-05
0.00054083174
3.2263035e-05
0.00052470889
3.0188617e-05
0.00050949472
2.8289156e-05
0.00049512386
2.655525e-05
0.00048152254
2.501159e-05
0.00046863048
2.3611828e-05
0.00045640026
2.2314798e-05
0.00044478569
2.1120253e-05
0.00043373834
2.0036363e-05
0.00042321932
1.9035106e-05
0.00041319876
1.809117e-05
0.00040364792
1.7205777e-05
0.00039453866
1.6381256e-05
0.00038584955
1.56001e-05
0.0003775648
1.4848487e-05
0.00036966941
1.412787e-05
0.00036214981
1.3437003e-05
0.00035499723
1.2764464e-05
0.00034820707
1.2101623e-05
0.00034177654
1.1447057e-05
0.00033570596
1.0794868e-05
0.00033000037
1.0134418e-05
0.0003246686
9.4584478e-06
0.0003197214
8.765082e-06
0.00031517272
8.0487727e-06
0.00031104034
7.3011646e-06
0.00030734434
6.520288e-06
0.00030411416
5.6821458e-06
0.00030137878
4.7906506e-06
0.00029915925
3.8492569e-06
0.00029746672
2.8762861e-06
0.00029629623
1.9104798e-06
0.0002956302
9.7180961e-07
0.00029543775
8.446885e-08
0.00029567581
-7.2877686e-07
0.00029628271
-1.4293162e-06
0.00029717767
-1.9741994e-06
0.00029828254
-2.3797599e-06
0.00029950237
-2.6228098e-06
0.00030069873
-2.5999633e-06
0.00030173199
-2.2995719e-06
0.00030248504
-1.753586e-06
0.00030290359
-1.0974e-06
0.00030297966
-4.2224648e-07
0.00030273103
2.2035576e-07
0.00030219689
7.8569629e-07
0.00030142931
1.2484796e-06
0.00030048127
1.6061976e-06
0.00029940037
1.8697932e-06
0.00029822796
2.0511621e-06
0.00029699645
2.1693397e-06
0.00029573066
2.2395089e-06
0.00029444941
2.2733444e-06
0.00029316613
2.2811261e-06
0.00029188943
2.2729844e-06
0.00029062618
2.2518041e-06
0.00028938128
2.2210593e-06
0.00028815597
2.1885911e-06
0.00028695039
2.1546299e-06
0.00028574725
2.1522145e-06
0.00028453162
2.1809555e-06
0.00028331117
2.1964935e-06
0.00028209046
2.2018942e-06
0.00028087017
2.203925e-06
0.00027964841
2.2086479e-06
0.00027842148
2.2210179e-06
0.00027718801
2.2349339e-06
0.0002759463
2.2522835e-06
0.00027469654
2.2687313e-06
0.00027343904
2.2844751e-06
0.00027217452
2.2988316e-06
0.00027090444
2.3099815e-06
0.00026962934
2.3205473e-06
0.00026835065
2.3278789e-06
0.0002670691
2.3343389e-06
0.00026578444
2.3408515e-06
0.00026449851
2.345126e-06
0.00026320057
2.3669546e-06
0.00026191598
2.3506421e-06
0.00026058663
2.3844989e-06
0.000259102
2.90314e-06
0.00025783055
1.8171245e-06
4.6094696e-06
0.00086136588
8.2259483e-05
-0.00085703584
0.00086790212
0.00010831954
0.0008751927
0.00012519442
0.00088221914
0.00013068653
0.00088612779
0.00012542301
0.00088511296
0.00011312755
0.00088102691
9.8939135e-05
0.00087430362
8.6816907e-05
0.00086521772
7.8594555e-05
0.00085401429
7.3243463e-05
0.00084102328
6.9362199e-05
0.00082644547
6.607398e-05
0.00081064563
6.2981656e-05
0.00079421309
5.9924294e-05
0.00077748726
5.6994559e-05
0.00076069369
5.4098723e-05
0.00074397073
5.133068e-05
0.00072740622
4.8827538e-05
0.00071108518
4.6509658e-05
0.00069508642
4.4287917e-05
0.00067946511
4.2176565e-05
0.00066424824
4.022846e-05
0.00064945744
3.8402624e-05
0.00063511101
3.6661231e-05
0.00062121778
3.501348e-05
0.00060777443
3.3479713e-05
0.00059477787
3.2031667e-05
0.00058222598
3.0643054e-05
0.00057011238
2.9319381e-05
0.00055842751
2.8066124e-05
0.000547165
2.686261e-05
0.00053632102
2.5692467e-05
0.00052589084
2.4558057e-05
0.00051587028
2.3457561e-05
0.00050625932
2.2375421e-05
0.00049706188
2.1299063e-05
0.00048828286
2.0226084e-05
0.00047992861
1.9149113e-05
0.00047200926
1.8053765e-05
0.00046453854
1.6929172e-05
0.00045753249
1.5771127e-05
0.00045101072
1.4570544e-05
0.00044499649
1.3315394e-05
0.0004395166
1.2000179e-05
0.00043460386
1.0594886e-05
0.0004302858
9.108709e-06
0.00042657331
7.5617517e-06
0.00042346471
5.9848869e-06
0.00042094829
4.4268968e-06
0.00041900116
2.9189403e-06
0.00041758897
1.4966561e-06
0.00041666226
1.9793093e-07
0.00041615038
-9.1743294e-07
0.00041596996
-1.7937765e-06
0.00041603482
-2.4446193e-06
0.00041622731
-2.8152987e-06
0.00041639522
-2.76788e-06
0.00041640681
-2.3111596e-06
0.0004161665
-1.5132717e-06
0.0004156335
-5.6440333e-07
0.00041480455
4.0670048e-07
0.00041369916
1.3257546e-06
0.00041235415
2.1307045e-06
0.00041081445
2.7881725e-06
0.00040912558
3.2950696e-06
0.00040732937
3.6660017e-06
0.00040546322
3.917318e-06
0.0004035574
4.0751575e-06
0.00040163578
4.1611323e-06
0.0003997167
4.1924221e-06
0.00039781333
4.1844904e-06
0.00039593451
4.1518076e-06
0.00039408749
4.098829e-06
0.00039227708
4.0314617e-06
0.00039050433
3.9613482e-06
0.00038876794
3.8910184e-06
0.00038706254
3.8576134e-06
0.00038538068
3.862812e-06
0.00038371762
3.8595539e-06
0.00038206936
3.8501602e-06
0.00038043297
3.8403085e-06
0.00037880495
3.8366673e-06
0.00037718052
3.8454511e-06
0.00037555701
3.8584425e-06
0.00037393181
3.8774811e-06
0.0003723042
3.8963464e-06
0.00037067381
3.914863e-06
0.00036904087
3.9317748e-06
0.00036740636
3.9444853e-06
0.00036577055
3.956357e-06
0.00036413446
3.9639694e-06
0.00036249877
3.9700275e-06
0.00036086267
3.9769524e-06
0.00035922852
3.9792779e-06
0.00035758226
4.0132107e-06
0.00035595599
3.9769155e-06
0.00035426717
4.0733249e-06
0.00035247158
4.6987237e-06
0.00035066573
3.6229773e-06
6.8372516e-06
0.00089165718
7.8534764e-05
-0.00088793246
0.00089769024
0.00010228647
0.00090489724
0.00011798742
0.00091180306
0.0001237807
0.00091697035
0.00012025572
0.00091989925
0.00011019864
0.00092054032
9.829807e-05
0.00091939751
8.7959718e-05
0.00091751064
8.0481422e-05
0.00091495949
7.5794615e-05
0.0009116701
7.2651589e-05
0.00090742249
7.0321585e-05
0.00090197165
6.8432502e-05
0.00089525675
6.6639192e-05
0.00088735095
6.490036e-05
0.00087827608
6.3173591e-05
0.00086818243
6.1424333e-05
0.00085735814
5.9651829e-05
0.00084596607
5.7901725e-05
0.00083412717
5.612682e-05
0.00082193981
5.4363922e-05
0.00080948234
5.2685927e-05
0.00079683254
5.1052423e-05
0.0007840692
4.9424575e-05
0.00077126141
4.7821272e-05
0.00075846517
4.6275948e-05
0.00074573329
4.4763547e-05
0.0007331132
4.3263149e-05
0.00072064269
4.1789895e-05
0.00070835203
4.0356777e-05
0.0006962702
3.8944439e-05
0.00068442436
3.7538312e-05
0.00067283747
3.6144945e-05
0.00066153067
3.4764366e-05
0.00065052768
3.3378408e-05
0.00063985456
3.1972185e-05
0.00062953185
3.0548787e-05
0.00061957568
2.9105285e-05
0.00061000546
2.7623984e-05
0.0006008442
2.6090439e-05
0.00059211679
2.4498532e-05
0.00058385095
2.2836388e-05
0.00057607702
2.1089326e-05
0.00056883192
1.9245274e-05
0.00056214708
1.7279727e-05
0.00055603215
1.5223636e-05
0.00055048276
1.3111146e-05
0.00054549337
1.0974277e-05
0.0005410583
8.8619712e-06
0.00053716424
6.8129941e-06
0.00053378772
4.8731797e-06
0.00053088809
3.0975618e-06
0.00052840228
1.5683782e-06
0.00052626625
3.4224539e-07
0.00052438861
-5.6698019e-07
0.00052262299
-1.0496704e-06
0.0005208345
-9.7939853e-07
0.00051894946
-4.2611386e-07
0.00051692936
5.0682402e-07
0.0005147629
1.6020654e-06
0.00051245494
2.7146532e-06
0.0005100186
3.7620995e-06
0.00050747349
4.6758092e-06
0.00050484344
5.4182294e-06
0.00050215356
5.9849513e-06
0.0004994283
6.3912587e-06
0.0004966911
6.6545168e-06
0.00049396186
6.8043935e-06
0.00049125702
6.8659715e-06
0.00048858958
6.8598667e-06
0.00048596886
6.8052138e-06
0.00048340158
6.7190844e-06
0.00048089355
6.606856e-06
0.00047844794
6.477076e-06
0.00047606439
6.3448911e-06
0.00047374007
6.2153399e-06
0.00047147612
6.1215634e-06
0.00046927092
6.0680141e-06
0.00046711395
6.0165238e-06
0.00046499513
5.968981e-06
0.00046290797
5.927471e-06
0.00046084705
5.8975868e-06
0.00045880639
5.8861105e-06
0.00045678196
5.8828718e-06
0.00045476996
5.8894743e-06
0.0004527684
5.8979118e-06
0.00045077578
5.9074825e-06
0.00044879129
5.9162672e-06
0.00044681493
5.9208432e-06
0.00044484617
5.9251145e-06
0.00044288522
5.9249197e-06
0.00044093223
5.9230229e-06
0.0004389855
5.9236801e-06
0.0004370473
5.9174759e-06
0.00043510127
5.9592391e-06
0.00043318197
5.8962208e-06
0.00043119606
6.0592318e-06
0.00042914374
6.7510433e-06
0.00042690751
5.8592111e-06
9.1609533e-06
0.00092305043
7.520404e-05
-0.0009197197
0.00092857002
9.6766881e-05
0.00093514344
0.000111414
0.00094156308
0.00011736106
0.00094671387
0.00011510493
0.00094995815
0.00010695436
0.00095154667
9.6709546e-05
0.00095192213
8.7584258e-05
0.00095158368
8.0819879e-05
0.00095107257
7.6305716e-05
0.00095042541
7.3298755e-05
0.00094957621
7.1170781e-05
0.00094842594
6.9582773e-05
0.00094684789
6.8217246e-05
0.00094476515
6.6983096e-05
0.00094204209
6.5896655e-05
0.00093853781
6.4928611e-05
0.00093421081
6.3978824e-05
0.00092906696
6.3045582e-05
0.00092308557
6.2108211e-05
0.00091632015
6.112934e-05
0.0009088981
6.0107975e-05
0.00090089534
5.9055189e-05
0.00089237063
5.7949282e-05
0.00088337628
5.6815624e-05
0.00087396479
5.5687432e-05
0.00086419271
5.4535626e-05
0.00085411424
5.3341627e-05
0.00084378193
5.2122202e-05
0.00083324733
5.0891378e-05
0.00082256296
4.9628805e-05
0.00081177989
4.8321381e-05
0.0008009444
4.6980438e-05
0.00079009937
4.5609397e-05
0.00077928766
4.4190118e-05
0.0007685522
4.2707649e-05
0.00075793489
4.1166094e-05
0.00074747737
3.9562805e-05
0.00073722132
3.7880036e-05
0.00072720819
3.6103567e-05
0.00071747891
3.4227812e-05
0.0007080759
3.2239396e-05
0.00069904385
3.0121381e-05
0.0006904406
2.7848523e-05
0.00068227398
2.5446341e-05
0.00067452077
2.2976849e-05
0.00066720314
2.042878e-05
0.00066035316
1.7824253e-05
0.00065398925
1.5225883e-05
0.00064811123
1.2691008e-05
0.00064270132
1.0283098e-05
0.00063772067
8.0782101e-06
0.0006331188
6.1702427e-06
0.00062886773
4.593321e-06
0.0006248381
3.4626429e-06
0.00062083958
2.9488494e-06
0.00061682
3.0401813e-06
0.00061280541
3.5884759e-06
0.00060881086
4.5013773e-06
0.00060484016
5.5727698e-06
0.0006008968
6.6580084e-06
0.0005969834
7.6755e-06
0.00059310145
8.5577614e-06
0.00058925509
9.2645923e-06
0.0005854506
9.7894429e-06
0.00058169529
1.0146562e-05
0.00057799775
1.0352058e-05
0.00057436598
1.0436165e-05
0.00057080729
1.0424661e-05
0.00056732799
1.0339162e-05
0.00056393319
1.0200019e-05
0.00056062598
1.0026288e-05
0.00055740845
9.8243885e-06
0.00055428112
9.6044059e-06
0.0005512418
9.3842163e-06
0.00054828645
9.1706848e-06
0.00054541332
8.9946923e-06
0.00054262094
8.8603958e-06
0.00053990239
8.7350744e-06
0.00053724766
8.6237127e-06
0.0005346486
8.5265288e-06
0.00053209833
8.4478587e-06
0.00052958977
8.3946702e-06
0.00052711767
8.3549658e-06
0.00052467707
8.3300798e-06
0.0005222646
8.3103822e-06
0.00051987747
8.2946132e-06
0.00051751358
8.2801566e-06
0.00051517168
8.262743e-06
0.00051285032
8.2464686e-06
0.00051054873
8.2265163e-06
0.00050826596
8.2057947e-06
0.00050599919
8.190446e-06
0.00050375009
8.1665794e-06
0.00050150072
8.2086038e-06
0.00049928539
8.1115531e-06
0.00049700636
8.338266e-06
0.00049469538
9.0620154e-06
0.00049206622
8.4883775e-06
1.1612579e-05
0.00095542878
7.2204119e-05
-0.00095242886
0.00096051381
9.168185e-05
0.00096658404
0.00010534377
0.00097255444
0.00011139066
0.0009774383
0.00011022107
0.00098068588
0.00010370678
0.00098243902
9.4956405e-05
0.00098319983
8.6823455e-05
0.00098341094
8.0608768e-05
0.00098339686
7.6319796e-05
0.00098330842
7.338719e-05
0.00098319417
7.1285034e-05
0.00098305022
6.9726723e-05
0.00098281251
6.8454951e-05
0.00098243549
6.7360119e-05
0.0009818817
6.6450441e-05
0.00098110129
6.5709028e-05
0.00098003114
6.5048974e-05
0.00097862069
6.4456032e-05
0.00097678331
6.3945592e-05
0.00097442621
6.3486437e-05
0.00097150795
6.302623e-05
0.00096800718
6.2555956e-05
0.00096389201
6.2064457e-05
0.00095917704
6.1530598e-05
0.00095391289
6.0951581e-05
0.00094812775
6.0320764e-05
0.00094184645
5.9622921e-05
0.000935092
5.8876657e-05
0.0009278904
5.8092977e-05
0.00092027485
5.7244352e-05
0.00091228134
5.6314896e-05
0.00090394136
5.5320413e-05
0.00089528697
5.4263789e-05
0.00088635654
5.3120548e-05
0.00087718956
5.1874634e-05
0.00086782801
5.0527647e-05
0.00085831903
4.9071785e-05
0.00084871222
4.7486844e-05
0.00083905822
4.575756e-05
0.00082940849
4.3877545e-05
0.00081981668
4.1831203e-05
0.00081033999
3.9598073e-05
0.00080103884
3.7149674e-05
0.00079196292
3.4522261e-05
0.0007831352
3.1804576e-05
0.00077457251
2.899147e-05
0.00076630679
2.6089972e-05
0.00075836889
2.3163781e-05
0.00075077833
2.0281563e-05
0.00074353941
1.7522022e-05
0.00073663739
1.4980233e-05
0.00073005771
1.2749924e-05
0.0007238072
1.0843824e-05
0.00071780443
9.4654116e-06
0.0007119104
8.8428787e-06
0.00070608602
8.8645642e-06
0.00070035145
9.3230509e-06
0.0006947187
1.0134124e-05
0.00068919223
1.1099241e-05
0.00068378042
1.2069815e-05
0.00067848744
1.2968484e-05
0.00067331085
1.3734348e-05
0.00066825057
1.4324874e-05
0.00066330739
1.4732625e-05
0.00065848097
1.4972982e-05
0.00065377182
1.5061201e-05
0.00064918092
1.5027074e-05
0.00064470938
1.4896199e-05
0.0006403583
1.4690236e-05
0.00063612919
1.4429129e-05
0.00063202216
1.4133326e-05
0.00062803616
1.3810386e-05
0.0006241693
1.3471263e-05
0.00062041751
1.313601e-05
0.00061677573
1.2812463e-05
0.00061323965
1.2530771e-05
0.00060980615
1.2293897e-05
0.00060647042
1.20708e-05
0.0006032242
1.186994e-05
0.00060005944
1.1691289e-05
0.00059696865
1.1538645e-05
0.00059394401
1.1419307e-05
0.00059097931
1.1319674e-05
0.00058806848
1.1240907e-05
0.0005852069
1.1171963e-05
0.00058239042
1.1111088e-05
0.00057961558
1.1054995e-05
0.00057687975
1.0998581e-05
0.00057418029
1.0945919e-05
0.00057151525
1.0891563e-05
0.00056888244
1.0838606e-05
0.00056627782
1.0795067e-05
0.00056370212
1.0742271e-05
0.0005611362
1.0774527e-05
0.00055861287
1.0634885e-05
0.000556032
1.0919138e-05
0.00055345067
1.1643344e-05
0.00055044397
1.1495074e-05
1.4222982e-05
0.00098883319
6.9473913e-05
-0.00098610299
0.00099351189
8.700315e-05
0.00099914332
9.9712348e-05
0.0010047259
0.00010580807
0.0010093842
0.0001055628
0.0010126091
0.00010048183
0.0010144587
9.3106803e-05
0.0010153586
8.5923574e-05
0.0010157455
8.0221883e-05
0.0010159186
7.6146692e-05
0.0010160174
7.3288401e-05
0.001016088
7.1214414e-05
0.0010161579
6.9656806e-05
0.0010162126
6.8400267e-05
0.001016224
6.7348724e-05
0.0010161885
6.64859e-05
0.0010161023
6.5795232e-05
0.0010159391
6.5212257e-05
0.0010156776
6.4717531e-05
0.0010152936
6.4329583e-05
0.0010147518
6.4028257e-05
0.0010140111
6.3766872e-05
0.0010130315
6.3535557e-05
0.0010117517
6.334424e-05
0.0010101089
6.3173392e-05
0.0010080657
6.2994843e-05
0.0010055902
6.2796263e-05
0.0010026516
6.2561497e-05
0.00099924951
6.2278744e-05
0.00099539772
6.1944769e-05
0.00099109849
6.1543584e-05
0.00098635338
6.106e-05
0.00098116711
6.0506685e-05
0.00097554856
5.9882336e-05
0.00096950977
5.9159338e-05
0.00096306487
5.8319539e-05
0.00095622932
5.7363194e-05
0.00094901969
5.628142e-05
0.00094145471
5.505182e-05
0.00093355986
5.365241e-05
0.00092536642
5.2070981e-05
0.00091691008
5.0287551e-05
0.0009082333
4.8274853e-05
0.00089937462
4.6008353e-05
0.00089041429
4.3482587e-05
0.00088144699
4.0771871e-05
0.00087250625
3.793221e-05
0.00086361374
3.4982487e-05
0.00085480311
3.1974407e-05
0.00084611368
2.8970994e-05
0.00083758595
2.6049751e-05
0.00082925685
2.330934e-05
0.00082115488
2.0851889e-05
0.00081328779
1.8710914e-05
0.00080569902
1.7054186e-05
0.00079837054
1.6171353e-05
0.00079122195
1.6013162e-05
0.00078421764
1.632736e-05
0.00077732584
1.7025923e-05
0.00077054556
1.7879518e-05
0.00076389238
1.8723e-05
0.00075737439
1.9486475e-05
0.00075099533
2.0113403e-05
0.00074476538
2.0554822e-05
0.000738691
2.0807005e-05
0.00073277265
2.0891331e-05
0.00072701147
2.0822385e-05
0.0007214085
2.0630049e-05
0.0007159631
2.0341597e-05
0.00071067395
1.9979381e-05
0.00070554063
1.9562454e-05
0.000700562
1.9111955e-05
0.00069573588
1.8636504e-05
0.00069105887
1.8148271e-05
0.00068652541
1.766947e-05
0.0006821296
1.7208274e-05
0.00067786573
1.6794641e-05
0.00067372912
1.6430512e-05
0.00066971538
1.6084532e-05
0.00066581763
1.5767689e-05
0.00066202867
1.5480256e-05
0.00065834105
1.522626e-05
0.00065474657
1.5013792e-05
0.00065123824
1.4828003e-05
0.00064780905
1.4670094e-05
0.00064445317
1.4527849e-05
0.0006411651
1.4399153e-05
0.00063793997
1.4280124e-05
0.00063477368
1.4164871e-05
0.00063166216
1.4057441e-05
0.00062860201
1.3951708e-05
0.00062558982
1.38508e-05
0.00062262027
1.3764615e-05
0.00061969298
1.3669564e-05
0.00061678762
1.3679885e-05
0.00061393507
1.3487433e-05
0.00061103297
1.3821236e-05
0.00060816074
1.4515577e-05
0.00060477148
1.4884338e-05
1.7023101e-05
0.0010233008
6.6957754e-05
-0.0010207847
0.0010275987
8.2705256e-05
0.0010328163
9.4494743e-05
0.0010380388
0.00010058564
0.001042491
0.00010111055
0.0010456957
9.7277169e-05
0.0010476462
9.1156282e-05
0.0010486822
8.4887583e-05
0.0010491931
7.9710984e-05
0.0010494631
7.5876678e-05
0.0010496411
7.3110356e-05
0.0010497882
7.1067325e-05
0.0010499293
6.9515727e-05
0.0010500556
6.8273945e-05
0.0010501592
6.7245139e-05
0.0010502424
6.6402674e-05
0.0010503156
6.5722028e-05
0.0010503695
6.5158418e-05
0.0010503865
6.4700508e-05
0.001050369
6.4347064e-05
0.0010503139
6.4083353e-05
0.0010502046
6.3876153e-05
0.0010500258
6.3714446e-05
0.0010497586
6.361138e-05
0.0010493778
6.3554233e-05
0.0010488543
6.3518295e-05
0.0010481562
6.3494385e-05
0.0010472378
6.3479868e-05
0.0010460542
6.3462394e-05
0.0010445744
6.3424596e-05
0.0010427641
6.3353843e-05
0.0010405931
6.3231026e-05
0.0010380542
6.3045518e-05
0.001035144
6.2792534e-05
0.0010318517
6.2451702e-05
0.0010281652
6.2005986e-05
0.0010240734
6.145501e-05
0.0010195689
6.0785968e-05
0.0010146477
5.9972948e-05
0.0010093059
5.8994218e-05
0.0010035386
5.7838322e-05
0.0009973418
5.6484339e-05
0.00099071497
5.4901687e-05
0.00098365421
5.3069113e-05
0.00097616927
5.0967527e-05
0.0009683209
4.8620236e-05
0.00096017839
4.607472e-05
0.00095178674
4.3374142e-05
0.00094318766
4.0573482e-05
0.00093442744
3.7731218e-05
0.00092556204
3.491515e-05
0.00091665857
3.2212812e-05
0.00090778005
2.9730408e-05
0.00089895263
2.753833e-05
0.00089027648
2.5730342e-05
0.00088189086
2.4556975e-05
0.00087379233
2.4111687e-05
0.00086585315
2.4266544e-05
0.00085799677
2.4882299e-05
0.00085024062
2.5635666e-05
0.00084258725
2.6376373e-05
0.00083503589
2.7037831e-05
0.00082760404
2.7545257e-05
0.00082031583
2.7843026e-05
0.00081318197
2.7940874e-05
0.00080620819
2.7865108e-05
0.00079940523
2.7625346e-05
0.00079278
2.7255275e-05
0.00078633362
2.6787977e-05
0.0007800669
2.6246096e-05
0.00077398163
2.5647731e-05
0.00076807747
2.5016115e-05
0.0007623525
2.4361474e-05
0.00075680356
2.3697212e-05
0.00075142497
2.3048056e-05
0.00074621095
2.2422296e-05
0.00074115587
2.1849722e-05
0.00073625455
2.1331832e-05
0.00073150255
2.083653e-05
0.00072689381
2.0376432e-05
0.0007224221
1.9951966e-05
0.00071808047
1.9567892e-05
0.00071386066
1.9233601e-05
0.00070975524
1.8933418e-05
0.00070575641
1.8668923e-05
0.00070185726
1.8427e-05
0.00069805107
1.8205345e-05
0.00069433157
1.799962e-05
0.00069069321
1.7803232e-05
0.00068713039
1.7620261e-05
0.00068363821
1.7443893e-05
0.00068021185
1.7277155e-05
0.0006768447
1.7131768e-05
0.00067353508
1.6979181e-05
0.0006702615
1.6953469e-05
0.00066705275
1.6696183e-05
0.00066380379
1.7070192e-05
0.00066061471
1.7704657e-05
0.00065682509
1.8673957e-05
2.0043672e-05
0.001058861
6.4615942e-05
-0.0010565192
0.0010628077
7.8758526e-05
0.0010676362
8.9666228e-05
0.0010725203
9.5701584e-05
0.0010767686
9.6862218e-05
0.0010799386
9.4107146e-05
0.0010819771
8.9117832e-05
0.0010831475
8.371714e-05
0.0010837879
7.9070568e-05
0.0010841585
7.5506074e-05
0.0010844074
7.2861503e-05
0.0010846039
7.0870814e-05
0.0010847803
6.9339359e-05
0.0010849394
6.8114816e-05
0.0010850796
6.7104976e-05
0.0010852047
6.6277492e-05
0.0010853184
6.5608342e-05
0.0010854166
6.5060197e-05
0.0010854997
6.4617411e-05
0.0010855707
6.4276138e-05
0.0010856347
6.4019347e-05
0.0010856871
6.3823772e-05
0.0010857132
6.3688305e-05
0.0010857122
6.3612389e-05
0.0010856831
6.3583351e-05
0.0010856144
6.358692e-05
0.0010854954
6.3613437e-05
0.0010853109
6.3664381e-05
0.001085041
6.373231e-05
0.0010846644
6.3801179e-05
0.0010841547
6.38635e-05
0.0010834768
6.3908961e-05
0.0010825967
6.3925631e-05
0.0010814887
6.3900464e-05
0.0010801197
6.3820775e-05
0.0010784622
6.3663443e-05
0.0010765039
6.3413291e-05
0.0010742276
6.3062261e-05
0.001071615
6.2585634e-05
0.0010686453
6.1963914e-05
0.0010652956
6.1188011e-05
0.0010615415
6.0238448e-05
0.0010573569
5.9086226e-05
0.0010527125
5.7713498e-05
0.0010475706
5.6109464e-05
0.0010419106
5.4280265e-05
0.0010357416
5.224366e-05
0.0010290808
5.003499e-05
0.0010219458
4.7708493e-05
0.0010143605
4.531652e-05
0.0010063603
4.2915294e-05
0.00099799722
4.0575917e-05
0.00098933933
3.8388297e-05
0.00098044828
3.6429379e-05
0.00097141636
3.476226e-05
0.00096243694
3.3536401e-05
0.00095364828
3.2900345e-05
0.00094505148
3.2863343e-05
0.0009366258
3.3307979e-05
0.00092830727
3.3954199e-05
0.00092001299
3.4670651e-05
0.00091174104
3.5309788e-05
0.00090354226
3.574403e-05
0.00089543637
3.5948921e-05
0.00088742957
3.5947672e-05
0.00087954581
3.5748863e-05
0.00087181202
3.535914e-05
0.00086424014
3.4827152e-05
0.000856837
3.4191126e-05
0.00084961338
3.3469711e-05
0.00084257794
3.268317e-05
0.00083573337
3.1860691e-05
0.00082908106
3.1013775e-05
0.00082262154
3.0156741e-05
0.0008163516
2.9317988e-05
0.00081026788
2.8506019e-05
0.00080436717
2.775043e-05
0.00079864549
2.7053519e-05
0.00079309894
2.6383074e-05
0.00078772249
2.5752883e-05
0.00078251109
2.5163366e-05
0.00077745861
2.4620375e-05
0.00077255723
2.4134978e-05
0.00076779952
2.3691132e-05
0.00076317717
2.3291268e-05
0.00075868252
2.2921656e-05
0.00075430782
2.2580039e-05
0.00075004561
2.2261835e-05
0.00074588895
2.1959891e-05
0.00074183078
2.1678427e-05
0.00073786469
2.1409984e-05
0.00073398441
2.1157432e-05
0.00073018195
2.0934234e-05
0.00072645426
2.0706867e-05
0.0007227786
2.0629132e-05
0.00071918172
2.0293064e-05
0.00071555532
2.0696585e-05
0.00071201907
2.124091e-05
0.00070780212
2.2890905e-05
2.3315864e-05
0.0010955476
6.2420301e-05
-0.001093352
0.0010991754
7.5130694e-05
0.0011036408
8.5200853e-05
0.0011082069
9.1135469e-05
0.0011122536
9.28156e-05
0.0011153734
9.0987344e-05
0.0011174801
8.7011101e-05
0.0011187711
8.242613e-05
0.0011195354
7.8306241e-05
0.0011200091
7.5032348e-05
0.0011203356
7.2535089e-05
0.0011205878
7.0618581e-05
0.0011208028
6.9124386e-05
0.0011209911
6.7926507e-05
0.0011211553
6.6940732e-05
0.0011213013
6.6131536e-05
0.0011214339
6.5475673e-05
0.0011215534
6.4940788e-05
0.0011216613
6.4509429e-05
0.0011217614
6.4176059e-05
0.0011218547
6.3926066e-05
0.0011219387
6.3739794e-05
0.0011220136
6.3613386e-05
0.0011220811
6.3544921e-05
0.0011221409
6.3523482e-05
0.001122196
6.3531874e-05
0.0011222353
6.3574114e-05
0.0011222498
6.3649863e-05
0.0011222424
6.3739769e-05
0.0011222048
6.3838695e-05
0.0011221289
6.3939424e-05
0.0011220026
6.4035298e-05
0.0011218093
6.4118936e-05
0.0011215327
6.417702e-05
0.0011211504
6.4203144e-05
0.0011206338
6.4180015e-05
0.001119957
6.4090082e-05
0.0011190961
6.3923165e-05
0.00111802
6.3661747e-05
0.001116703
6.3280872e-05
0.0011151278
6.2763234e-05
0.0011132678
6.2098428e-05
0.0011110924
6.1261598e-05
0.0011085677
6.0238262e-05
0.0011056528
5.9024379e-05
0.0011023017
5.7631358e-05
0.001098472
5.6073323e-05
0.0010941288
5.4378199e-05
0.0010892409
5.2596383e-05
0.0010837824
5.077505e-05
0.0010777358
4.8961906e-05
0.0010710966