/*--------------------------------*- C++ -*----------------------------------*\
| =========                 |                                                 |
| \\      /  F ield         | OpenFOAM: The Open Source CFD Toolbox           |
|  \\    /   O peration     | Version:  2206                                  |
|   \\  /    A nd           | Website:  www.openfoam.com                      |
|    \\/     M anipulation  |                                                 |
\*---------------------------------------------------------------------------*/
FoamFile
{
    version     2.0;
    format      ascii;
    arch        "LSB;label=32;scalar=64";
    class       volVectorField;
    location    "300";
    object      U;
}
// * * * * * * * * * * * * * * * * * * * * * * * * * * * * * * * * * * * * * //

dimensions      [0 1 -1 0 0 0 0];

internalField   nonuniform List<vector> 
7480
(
(0.82757339 0.011161712 0)
(0.70301223 0.020209671 0)
(0.56656052 0.021424954 0)
(0.43054037 0.014558594 0)
(0.330548 0.0062886864 0)
(0.2665675 0.001912401 0)
(0.2300712 0.0022251408 0)
(0.2085266 -0.00029151693 0)
(0.19446772 -0.00043026823 0)
(0.18413928 -0.0001755432 0)
(0.17531544 7.7865351e-07 0)
(0.1671269 5.4000636e-05 0)
(0.15955576 6.4723248e-05 0)
(0.15265519 6.6838205e-05 0)
(0.14636893 0.00017069003 0)
(0.14062733 0.00013335941 0)
(0.13539617 6.9811677e-05 0)
(0.13061033 4.9509015e-05 0)
(0.12618427 4.4675185e-05 0)
(0.12206978 4.0539916e-05 0)
(0.11824566 3.7183291e-05 0)
(0.11467609 3.5253939e-05 0)
(0.11132439 3.3024746e-05 0)
(0.10817258 3.033648e-05 0)
(0.10520803 2.7995779e-05 0)
(0.10241056 2.6262632e-05 0)
(0.099760932 2.4448507e-05 0)
(0.097249949 2.2484115e-05 0)
(0.094870997 2.0770823e-05 0)
(0.092613097 1.9347484e-05 0)
(0.090466641 1.7896471e-05 0)
(0.088427461 1.6418799e-05 0)
(0.086491885 1.5106436e-05 0)
(0.084654013 1.3932242e-05 0)
(0.08290929 1.276253e-05 0)
(0.081256094 1.1610269e-05 0)
(0.079692871 1.0552163e-05 0)
(0.078217658 9.5420078e-06 0)
(0.076830338 8.5244216e-06 0)
(0.07553286 7.5168122e-06 0)
(0.074327164 6.5638381e-06 0)
(0.073214724 5.6477832e-06 0)
(0.07219903 4.7255004e-06 0)
(0.071282919 3.8435395e-06 0)
(0.070472207 1.5788919e-05 0)
(0.069779962 3.7516671e-06 0)
(0.069205294 -2.3576034e-07 0)
(0.068768852 -7.0287292e-08 0)
(0.068471189 -8.1063547e-07 0)
(0.068309331 -1.5078658e-06 0)
(0.068279822 -2.2765165e-06 0)
(0.068376215 -2.8416237e-06 0)
(0.068587738 -3.2439598e-06 0)
(0.068892226 -3.3739638e-06 0)
(0.069267994 -3.4800648e-06 0)
(0.069703233 -3.5864057e-06 0)
(0.070168706 -3.2787353e-06 0)
(0.070616981 -2.8221391e-06 0)
(0.071001084 -1.9781799e-06 0)
(0.071286184 -4.6210218e-06 0)
(0.071462321 -7.411438e-07 0)
(0.071533613 -2.7872647e-07 0)
(0.071507118 2.6329675e-08 0)
(0.071398347 1.5313914e-07 0)
(0.071225014 2.2561089e-07 0)
(0.071003105 2.7686588e-07 0)
(0.070746959 2.9313981e-07 0)
(0.070468192 2.9852144e-07 0)
(0.070175134 2.9389604e-07 0)
(0.069874035 2.8128185e-07 0)
(0.069569759 2.6313298e-07 0)
(0.069265173 2.5053519e-07 0)
(0.068962049 2.3687177e-07 0)
(0.068662396 2.2032539e-07 0)
(0.068366706 2.1544115e-07 0)
(0.068075327 2.0542028e-07 0)
(0.067788711 2.1616797e-07 0)
(0.067497368 2.4614999e-07 0)
(0.067201115 2.5299876e-07 0)
(0.066902635 2.5879228e-07 0)
(0.066603074 2.5777517e-07 0)
(0.066303086 2.5542404e-07 0)
(0.066001362 2.6180112e-07 0)
(0.065697277 2.5914046e-07 0)
(0.065390605 2.6187504e-07 0)
(0.065081095 2.6031483e-07 0)
(0.064769105 2.5913225e-07 0)
(0.064454589 2.583747e-07 0)
(0.064138139 2.5407777e-07 0)
(0.063819853 2.5360976e-07 0)
(0.063500112 2.4830375e-07 0)
(0.063179012 2.4744984e-07 0)
(0.062857221 2.4164915e-07 0)
(0.062532637 2.4824835e-07 0)
(0.06221122 2.2446896e-07 0)
(0.061870792 3.0706422e-07 0)
(0.061577054 8.6014815e-07 0)
(0.06113903 1.1202758e-05 0)
(0.060898152 1.9117519e-05 0)
(0.060226372 7.5946965e-06 0)
(0.95866928 0.02803563 0)
(0.94942866 0.038590904 0)
(0.93030099 0.04183677 0)
(0.88512687 0.039313811 0)
(0.82441399 0.032448349 0)
(0.75682369 0.023986702 0)
(0.69437289 0.015507269 0)
(0.64139524 0.0094013553 0)
(0.59776814 0.0060293897 0)
(0.56171406 0.0043630806 0)
(0.53122501 0.003559863 0)
(0.50476849 0.0030817886 0)
(0.48142941 0.0027035137 0)
(0.46058765 0.0023890165 0)
(0.4417559 0.0021306287 0)
(0.424611 0.0018797624 0)
(0.40894692 0.0016573508 0)
(0.3945563 0.0014836711 0)
(0.38124708 0.0013367509 0)
(0.36888364 0.0012052539 0)
(0.3573716 0.0010888643 0)
(0.34661473 0.00098979445 0)
(0.33652412 0.0009027131 0)
(0.32703687 0.0008237561 0)
(0.31809898 0.00075315807 0)
(0.30965868 0.00069132055 0)
(0.30166877 0.00063560231 0)
(0.29409643 0.00058412109 0)
(0.28691611 0.00053721759 0)
(0.28009974 0.00049502747 0)
(0.27362219 0.00045620479 0)
(0.26746707 0.0004199221 0)
(0.26162127 0.00038641347 0)
(0.25607038 0.0003555808 0)
(0.25080246 0.00032672337 0)
(0.24581096 0.00029946774 0)
(0.24109134 0.00027386089 0)
(0.23663999 0.00024963371 0)
(0.23245702 0.00022633851 0)
(0.22854728 0.00020378759 0)
(0.22491736 0.00018203951 0)
(0.22157434 0.00016095078 0)
(0.21852961 0.00014026408 0)
(0.21579489 0.00012007205 0)
(0.21338668 0.00010042859 0)
(0.21132536 5.191963e-05 0)
(0.20966105 5.8246503e-05 0)
(0.20838554 3.7705774e-05 0)
(0.20751879 1.8422632e-05 0)
(0.2070533 6.501493e-07 0)
(0.20697409 -1.515929e-05 0)
(0.2072578 -2.8870961e-05 0)
(0.20786903 -3.9784922e-05 0)
(0.20874602 -4.7177125e-05 0)
(0.20982468 -5.2076475e-05 0)
(0.21105219 -5.4588203e-05 0)
(0.21233705 -5.2549667e-05 0)
(0.21355219 -4.5938273e-05 0)
(0.21456625 -3.3542101e-05 0)
(0.21532096 -3.7372809e-05 0)
(0.21576018 -1.4730265e-05 0)
(0.21590697 -5.2320096e-06 0)
(0.21578216 2.5786382e-06 0)
(0.21542738 8.5853962e-06 0)
(0.21489112 1.2863114e-05 0)
(0.21421815 1.5700221e-05 0)
(0.21344788 1.7356453e-05 0)
(0.21261239 1.8197057e-05 0)
(0.2117356 1.8465519e-05 0)
(0.2108354 1.8331941e-05 0)
(0.20992545 1.7934467e-05 0)
(0.20901424 1.7411042e-05 0)
(0.20810744 1.6788036e-05 0)
(0.20721053 1.6100157e-05 0)
(0.20632544 1.5442289e-05 0)
(0.2054531 1.4778908e-05 0)
(0.20459335 1.445109e-05 0)
(0.20371867 1.4437169e-05 0)
(0.20283036 1.425588e-05 0)
(0.20193645 1.3963697e-05 0)
(0.20103979 1.3620818e-05 0)
(0.20014117 1.3292243e-05 0)
(0.19923753 1.3032281e-05 0)
(0.19832713 1.2766771e-05 0)
(0.19740904 1.2529995e-05 0)
(0.19648281 1.2280268e-05 0)
(0.1955492 1.2027847e-05 0)
(0.1946084 1.1770877e-05 0)
(0.19366195 1.1494176e-05 0)
(0.19271039 1.1225932e-05 0)
(0.19175485 1.0939146e-05 0)
(0.19079579 1.066163e-05 0)
(0.18983501 1.0385931e-05 0)
(0.18886808 1.0121332e-05 0)
(0.18790799 9.9132259e-06 0)
(0.18690591 9.6382183e-06 0)
(0.18600542 1.185097e-05 0)
(0.18477614 3.9441294e-05 0)
(0.1840342 6.5079629e-05 0)
(0.18205898 3.3929059e-05 0)
(0.96802721 0.029707661 0)
(0.97311432 0.037720099 0)
(0.98240139 0.041542737 0)
(0.9842623 0.041014694 0)
(0.97939103 0.037121024 0)
(0.9636221 0.030611884 0)
(0.93926824 0.024147143 0)
(0.91012119 0.019116868 0)
(0.87836124 0.015500685 0)
(0.84616411 0.012897555 0)
(0.81516564 0.010957599 0)
(0.78576472 0.0094046493 0)
(0.75803017 0.0081186649 0)
(0.73187983 0.0070810666 0)
(0.70721018 0.0062338608 0)
(0.68396553 0.0055130094 0)
(0.66210895 0.004898784 0)
(0.64154749 0.0043849435 0)
(0.62216949 0.0039453898 0)
(0.60388665 0.0035580106 0)
(0.58662766 0.0032168359 0)
(0.57030978 0.0029218339 0)
(0.55485261 0.0026626307 0)
(0.54019343 0.0024302046 0)
(0.52628009 0.0022224609 0)
(0.51305654 0.0020388081 0)
(0.50047046 0.0018738345 0)
(0.48848223 0.0017230968 0)
(0.47705909 0.0015858462 0)
(0.46616731 0.001461535 0)
(0.45577715 0.0013474521 0)
(0.44586746 0.0012415756 0)
(0.43642103 0.0011436692 0)
(0.4274208 0.0010532107 0)
(0.41885322 0.00096873065 0)
(0.41071079 0.00088920074 0)
(0.40298951 0.00081433268 0)
(0.39568766 0.00074341149 0)
(0.38880812 0.00067540864 0)
(0.38235941 0.00060973095 0)
(0.37635323 0.00054627263 0)
(0.37080347 0.00048464079 0)
(0.36572958 0.00042425531 0)
(0.36115207 0.00036508969 0)
(0.35709944 0.0003053644 0)
(0.35360243 0.00019876333 0)
(0.35071674 0.00018704043 0)
(0.34843433 0.00012845272 0)
(0.34677001 7.4256049e-05 0)
(0.34570869 2.4086136e-05 0)
(0.34522254 -2.070416e-05 0)
(0.34526748 -5.937748e-05 0)
(0.3457866 -9.0499555e-05 0)
(0.34668973 -0.00011248861 0)
(0.34788424 -0.00012696541 0)
(0.34927922 -0.00013383586 0)
(0.35073322 -0.00012950324 0)
(0.35207145 -0.00011307434 0)
(0.35313063 -9.120783e-05 0)
(0.35382752 -5.8675545e-05 0)
(0.35410957 -3.0348023e-05 0)
(0.35399816 -5.0546713e-06 0)
(0.3535244 1.5980876e-05 0)
(0.35274601 3.2096416e-05 0)
(0.35172734 4.3595222e-05 0)
(0.35052783 5.1227624e-05 0)
(0.34919986 5.5694091e-05 0)
(0.34778656 5.7878224e-05 0)
(0.34632094 5.8441166e-05 0)
(0.34482794 5.7863802e-05 0)
(0.34332647 5.6535633e-05 0)
(0.34182861 5.4811629e-05 0)
(0.34034281 5.2801541e-05 0)
(0.33887668 5.0617338e-05 0)
(0.33743325 4.8481416e-05 0)
(0.33601365 4.6371571e-05 0)
(0.3346162 4.5156467e-05 0)
(0.33320084 4.4751996e-05 0)
(0.33177498 4.3969852e-05 0)
(0.33034828 4.2911114e-05 0)
(0.32892227 4.1767245e-05 0)
(0.32749639 4.0690719e-05 0)
(0.32606632 3.9788766e-05 0)
(0.32462915 3.8918339e-05 0)
(0.32318303 3.8123353e-05 0)
(0.32172709 3.7315921e-05 0)
(0.32026195 3.6505941e-05 0)
(0.31878786 3.5684948e-05 0)
(0.31730663 3.4823152e-05 0)
(0.31581911 3.3973026e-05 0)
(0.31432673 3.3088196e-05 0)
(0.31283019 3.2215539e-05 0)
(0.31133191 3.136174e-05 0)
(0.30982649 3.05073e-05 0)
(0.30832971 2.9887637e-05 0)
(0.30678161 2.8845216e-05 0)
(0.30535857 3.196286e-05 0)
(0.30352052 7.1907173e-05 0)
(0.30231658 0.00011339706 0)
(0.29932279 7.6258703e-05 0)
(0.9700686 0.027084155 0)
(0.97641778 0.034266424 0)
(0.98547595 0.038380185 0)
(0.99344231 0.039213851 0)
(1.0016471 0.036177527 0)
(1.0025346 0.031202319 0)
(0.99957709 0.026293516 0)
(0.99333777 0.022247427 0)
(0.98420879 0.019368474 0)
(0.97251833 0.01734645 0)
(0.95869483 0.015776038 0)
(0.94313587 0.014349552 0)
(0.9257177 0.013014361 0)
(0.9073747 0.011779973 0)
(0.88856045 0.010669076 0)
(0.86956049 0.0096635215 0)
(0.85057659 0.0087601042 0)
(0.83173284 0.0079706614 0)
(0.8131196 0.0072748137 0)
(0.79482916 0.0066464939 0)
(0.77694165 0.0060786202 0)
(0.7595022 0.0055727319 0)
(0.74253492 0.005117599 0)
(0.72606006 0.004702882 0)
(0.7100959 0.0043265242 0)
(0.6946444 0.0039880982 0)
(0.67969994 0.0036807793 0)
(0.6652595 0.0033984896 0)
(0.65131923 0.0031397927 0)
(0.63786933 0.0029035075 0)
(0.62489984 0.0026855497 0)
(0.61240532 0.0024827296 0)
(0.60038138 0.0022942741 0)
(0.58882249 0.0021190947 0)
(0.57772562 0.0019548337 0)
(0.56709318 0.0017997129 0)
(0.55693105 0.0016530963 0)
(0.54724512 0.0015138218 0)
(0.5380442 0.0013801892 0)
(0.529342 0.0012511155 0)
(0.52115554 0.0011262414 0)
(0.51350455 0.0010048402 0)
(0.50641423 0.00088598379 0)
(0.49991063 0.00076955719 0)
(0.49402992 0.00065239926 0)
(0.48880242 0.00046019408 0)
(0.48427501 0.00042567304 0)
(0.48042517 0.00031328145 0)
(0.47725516 0.00020984747 0)
(0.4747444 0.00011556909 0)
(0.47286131 3.1369395e-05 0)
(0.47155979 -4.1285203e-05 0)
(0.47077363 -9.9903952e-05 0)
(0.47040672 -0.00014225766 0)
(0.47037195 -0.00017105885 0)
(0.47056025 -0.00018571518 0)
(0.47080573 -0.00017818476 0)
(0.47093633 -0.00015125007 0)
(0.4708177 -0.00012139385 0)
(0.4703892 -6.0924988e-05 0)
(0.46961264 -1.4918023e-05 0)
(0.46850857 2.6260122e-05 0)
(0.46710928 6.0225023e-05 0)
(0.4654636 8.6067359e-05 0)
(0.46362456 0.00010426507 0)
(0.46164204 0.00011600965 0)
(0.45956126 0.00012245976 0)
(0.45742066 0.00012503009 0)
(0.45525062 0.00012482325 0)
(0.45307465 0.00012266741 0)
(0.45091066 0.00011924351 0)
(0.44877014 0.00011513386 0)
(0.44666194 0.00011054191 0)
(0.44459357 0.00010568734 0)
(0.4425678 0.00010093766 0)
(0.44058517 9.6337106e-05 0)
(0.43864147 9.2907178e-05 0)
(0.43672814 9.0689023e-05 0)
(0.43483813 8.8319174e-05 0)
(0.43296705 8.5769791e-05 0)
(0.43111077 8.3215363e-05 0)
(0.42926641 8.0847256e-05 0)
(0.42742852 7.8809864e-05 0)
(0.42559287 7.6891454e-05 0)
(0.42375645 7.5131374e-05 0)
(0.42191734 7.3389232e-05 0)
(0.42007528 7.1666297e-05 0)
(0.41822986 6.9941792e-05 0)
(0.41638225 6.8169104e-05 0)
(0.41453294 6.6421432e-05 0)
(0.41268284 6.4635414e-05 0)
(0.4108324 6.286903e-05 0)
(0.40898384 6.1156471e-05 0)
(0.40713116 5.9422679e-05 0)
(0.40529061 5.8192089e-05 0)
(0.40339871 5.599793e-05 0)
(0.40163776 5.999441e-05 0)
(0.39945584 0.00010673021 0)
(0.39792071 0.00015724228 0)
(0.39438582 9.1323137e-05 0)
(0.97242639 0.025563804 0)
(0.9777845 0.032401195 0)
(0.98587461 0.036409121 0)
(0.99418273 0.037070771 0)
(1.0012637 0.034670299 0)
(1.0056171 0.030637127 0)
(1.0079563 0.026373372 0)
(1.0071071 0.022757712 0)
(1.0052987 0.020141957 0)
(1.0027906 0.01835363 0)
(0.99958425 0.017017215 0)
(0.99557971 0.015923639 0)
(0.99028771 0.014971509 0)
(0.98361768 0.014078722 0)
(0.97558431 0.013225847 0)
(0.96631137 0.012373323 0)
(0.95569845 0.011537404 0)
(0.94419708 0.010747045 0)
(0.93200376 0.01000983 0)
(0.91926106 0.0093174936 0)
(0.90608515 0.0086712983 0)
(0.89257894 0.0080775146 0)
(0.87881963 0.0075278185 0)
(0.86489328 0.007012455 0)
(0.85088419 0.0065309172 0)
(0.83686049 0.0060854274 0)
(0.82288033 0.0056705411 0)
(0.80899837 0.005281268 0)
(0.79526201 0.0049177001 0)
(0.78170774 0.0045798269 0)
(0.76836685 0.0042636818 0)
(0.75527006 0.0039660535 0)
(0.74244511 0.0036864006 0)
(0.72991544 0.0034235519 0)
(0.71770448 0.003174577 0)
(0.7058401 0.0029372082 0)
(0.69435096 0.0027111257 0)
(0.68325393 0.0024953768 0)
(0.67256759 0.0022877847 0)
(0.6623155 0.0020867228 0)
(0.6525242 0.0018915075 0)
(0.64322209 0.0017010712 0)
(0.63444187 0.0015141885 0)
(0.62621603 0.0013302593 0)
(0.61859436 0.0011477259 0)
(0.61159725 0.00096801365 0)
(0.60522097 0.00079030289 0)
(0.59946083 0.00062345185 0)
(0.59431145 0.00046700808 0)
(0.58976375 0.00032334784 0)
(0.58579817 0.00019484124 0)
(0.58238272 8.3589963e-05 0)
(0.57945991 -6.9260138e-06 0)
(0.57694704 -7.4337168e-05 0)
(0.5747917 -0.00012059213 0)
(0.57284387 -0.00014185555 0)
(0.5709258 -0.00013399201 0)
(0.56892642 -0.00010079706 0)
(0.56679021 -6.7544408e-05 0)
(0.56450356 9.4387866e-06 0)
(0.56205065 6.4849942e-05 0)
(0.55944968 0.00011411917 0)
(0.55671745 0.00015417049 0)
(0.55387852 0.00018398279 0)
(0.55096057 0.00020418454 0)
(0.54799096 0.00021623184 0)
(0.54499626 0.0002215478 0)
(0.54200049 0.00022189634 0)
(0.53902351 0.00021867883 0)
(0.53608138 0.00021297562 0)
(0.53318645 0.00020569517 0)
(0.53034648 0.00019758077 0)
(0.52756875 0.00018890156 0)
(0.52485863 0.0001799857 0)
(0.52221716 0.00017133354 0)
(0.51964336 0.00016306658 0)
(0.51713129 0.00015634434 0)
(0.51468922 0.00015113618 0)
(0.51230602 0.00014597057 0)
(0.50996914 0.00014092695 0)
(0.50766957 0.00013612429 0)
(0.50540181 0.00013172197 0)
(0.50315921 0.00012786944 0)
(0.50093624 0.00012428687 0)
(0.49872864 0.00012099953 0)
(0.49653315 0.00011781292 0)
(0.4943482 0.00011471254 0)
(0.49217224 0.00011165964 0)
(0.49000526 0.00010858775 0)
(0.4878468 0.00010558364 0)
(0.4856968 0.00010256652 0)
(0.48355503 9.9597772e-05 0)
(0.48142294 9.67446e-05 0)
(0.47929382 9.3860408e-05 0)
(0.47718329 9.1798904e-05 0)
(0.47502744 8.8190797e-05 0)
(0.4730031 9.2851858e-05 0)
(0.4705834 0.00014228308 0)
(0.46878639 0.00019678196 0)
(0.46490195 0.00013633255 0)
(0.97461568 0.024511785 0)
(0.97930758 0.030794783 0)
(0.98638059 0.034469685 0)
(0.99379366 0.035114064 0)
(1.0001903 0.033235118 0)
(1.0048174 0.029796624 0)
(1.007311 0.025982981 0)
(1.0082972 0.022699594 0)
(1.0079735 0.020248342 0)
(1.0074209 0.018529225 0)
(1.0067913 0.017263079 0)
(1.0060347 0.016264425 0)
(1.005004 0.01542421 0)
(1.003585 0.014654283 0)
(1.0016639 0.013930009 0)
(0.99917498 0.013259883 0)
(0.99588231 0.012639346 0)
(0.99173241 0.012045577 0)
(0.98671029 0.011471007 0)
(0.98083001 0.01089915 0)
(0.97402545 0.010331167 0)
(0.9664864 0.0097846933 0)
(0.95830003 0.0092599497 0)
(0.94953106 0.00875477 0)
(0.94023672 0.0082714045 0)
(0.93047321 0.0078129336 0)
(0.92029984 0.0073751113 0)
(0.90977299 0.006954048 0)
(0.89894975 0.0065509994 0)
(0.88788627 0.0061671874 0)
(0.87663698 0.0057995833 0)
(0.86525685 0.0054460718 0)
(0.85379832 0.0051075141 0)
(0.84230808 0.0047837347 0)
(0.83083071 0.0044722443 0)
(0.81941158 0.0041710977 0)
(0.80809574 0.0038800652 0)
(0.79692778 0.0035984915 0)
(0.7859514 0.0033247142 0)
(0.77521062 0.0030573836 0)
(0.764749 0.0027959791 0)
(0.75461009 0.0025393528 0)
(0.74484056 0.002286205 0)
(0.73548718 0.0020349084 0)
(0.72662744 0.0017875348 0)
(0.71820007 0.0015465673 0)
(0.71021368 0.0013129253 0)
(0.70270945 0.0010880331 0)
(0.69571495 0.00087615766 0)
(0.68923972 0.00068110371 0)
(0.6832742 0.00050586482 0)
(0.67778996 0.00035362542 0)
(0.67273264 0.00022838251 0)
(0.66804814 0.00013077732 0)
(0.66373629 6.5043881e-05 0)
(0.65951818 3.5358752e-05 0)
(0.65526549 3.9649906e-05 0)
(0.65100302 6.9824178e-05 0)
(0.64675756 0.00010108997 0)
(0.64254363 0.00017498223 0)
(0.6383519 0.00022763431 0)
(0.63419253 0.00027406809 0)
(0.63006506 0.00031089047 0)
(0.6259722 0.00033695972 0)
(0.62191998 0.00035286809 0)
(0.61791576 0.00036009402 0)
(0.61396809 0.00036009581 0)
(0.61008599 0.00035476518 0)
(0.60627773 0.00034561654 0)
(0.60255052 0.00033383797 0)
(0.59891052 0.00032044555 0)
(0.59536212 0.00030630609 0)
(0.5919078 0.00029173602 0)
(0.58854942 0.00027711803 0)
(0.58528581 0.00026305178 0)
(0.5821142 0.00024972173 0)
(0.57902823 0.0002381356 0)
(0.57603034 0.00022828992 0)
(0.57311571 0.00021897331 0)
(0.57027387 0.0002102726 0)
(0.56749447 0.00020218259 0)
(0.56477036 0.00019479961 0)
(0.56209386 0.00018826002 0)
(0.55945844 0.00018221451 0)
(0.5568587 0.00017666718 0)
(0.55429016 0.00017136861 0)
(0.55174985 0.00016628258 0)
(0.54923491 0.00016134735 0)
(0.54674395 0.0001564725 0)
(0.54427531 0.00015174735 0)
(0.54182814 0.00014707407 0)
(0.53940099 0.00014251561 0)
(0.53699409 0.00013817207 0)
(0.53459993 0.00013380973 0)
(0.53223284 0.00013063912 0)
(0.52983005 0.00012533223 0)
(0.52755817 0.00013021278 0)
(0.52492317 0.00017964176 0)
(0.52289274 0.00023618151 0)
(0.51869938 0.00018614919 0)
(0.97658799 0.023525951 0)
(0.98074814 0.029152831 0)
(0.98700632 0.032518072 0)
(0.99362444 0.033276685 0)
(0.99943433 0.03181625 0)
(1.0037486 0.028881877 0)
(1.0062962 0.025505288 0)
(1.0074511 0.022522601 0)
(1.0077677 0.020236614 0)
(1.0077466 0.018571597 0)
(1.0076489 0.017318447 0)
(1.0075449 0.016318273 0)
(1.007425 0.015484394 0)
(1.0072445 0.014744688 0)
(1.0069413 0.014071253 0)
(1.0064759 0.01346339 0)
(1.0058028 0.012910022 0)
(1.0048668 0.012387271 0)
(1.0036083 0.011890372 0)
(1.0019734 0.011423858 0)
(0.99983231 0.010983401 0)
(0.99713135 0.01055625 0)
(0.99384545 0.010137378 0)
(0.98994961 0.0097190747 0)
(0.98539994 0.0093030892 0)
(0.98027598 0.0088975114 0)
(0.97460514 0.0085008279 0)
(0.96841282 0.008111568 0)
(0.96172344 0.0077322606 0)
(0.95456218 0.0073642758 0)
(0.94695868 0.0070044332 0)
(0.93894898 0.0066507409 0)
(0.93057031 0.0063051043 0)
(0.92185145 0.005967984 0)
(0.91282974 0.0056368938 0)
(0.90354549 0.0053103389 0)
(0.89403885 0.0049892399 0)
(0.88435695 0.0046736247 0)
(0.87454938 0.0043618244 0)
(0.86466749 0.0040527303 0)
(0.85476362 0.0037463235 0)
(0.84489142 0.0034418603 0)
(0.83510746 0.0031383532 0)
(0.82547162 0.0028343766 0)
(0.8160483 0.0025307733 0)
(0.80687657 0.0022357097 0)
(0.79796063 0.0019526355 0)
(0.78933221 0.001680045 0)
(0.78102615 0.0014211902 0)
(0.77306967 0.001180147 0)
(0.76547571 0.00096105482 0)
(0.7582398 0.00076850546 0)
(0.75133578 0.00060696532 0)
(0.74475917 0.00047567222 0)
(0.73853201 0.00038107421 0)
(0.73246165 0.00033326343 0)
(0.72645214 0.00032723585 0)
(0.72052398 0.00034749978 0)
(0.71469678 0.00037189978 0)
(0.70898121 0.0004302519 0)
(0.70337499 0.00047144313 0)
(0.69789224 0.000506484 0)
(0.69252975 0.00053244523 0)
(0.68728555 0.00054805829 0)
(0.68216123 0.00055382459 0)
(0.67715689 0.00055122293 0)
(0.67227209 0.00054165711 0)
(0.66750777 0.00052700708 0)
(0.66286531 0.00050878004 0)
(0.65834565 0.00048818471 0)
(0.6539501 0.00046625573 0)
(0.64968025 0.00044388752 0)
(0.64553497 0.00042141344 0)
(0.64151324 0.00039926667 0)
(0.63761179 0.00037811485 0)
(0.63382619 0.00035816478 0)
(0.63015001 0.00034032921 0)
(0.62658061 0.00032457151 0)
(0.62311496 0.00030979719 0)
(0.61974568 0.00029615332 0)
(0.61646353 0.00028356806 0)
(0.61326103 0.0002720827 0)
(0.61013009 0.00026181339 0)
(0.60706345 0.0002523412 0)
(0.60405489 0.00024364504 0)
(0.60109882 0.00023542058 0)
(0.59819102 0.00022760563 0)
(0.59532731 0.00022011089 0)
(0.59250492 0.00021281758 0)
(0.58972088 0.00020581056 0)
(0.5869733 0.00019897021 0)
(0.58425944 0.00019235528 0)
(0.58157824 0.00018609875 0)
(0.57892135 0.00017986948 0)
(0.57630152 0.00017524512 0)
(0.57365757 0.00016792474 0)
(0.57114508 0.00017257191 0)
(0.56830009 0.00022033854 0)
(0.56605338 0.00027838476 0)
(0.56156882 0.00023213851 0)
(0.97838773 0.022612675 0)
(0.9820895 0.027631971 0)
(0.98763543 0.030751233 0)
(0.99357623 0.031604635 0)
(0.9988841 0.030477118 0)
(1.0029215 0.02799452 0)
(1.0054464 0.0250285 0)
(1.0066934 0.02231534 0)
(1.0071762 0.020161528 0)
(1.0073457 0.01854315 0)
(1.0074377 0.017305558 0)
(1.0075182 0.016311293 0)
(1.0075833 0.015478673 0)
(1.007654 0.014744515 0)
(1.007694 0.014082094 0)
(1.0076807 0.013485757 0)
(1.0076232 0.012946389 0)
(1.0075048 0.012446472 0)
(1.0073 0.011980675 0)
(1.0069865 0.011550566 0)
(1.0065348 0.011149197 0)
(1.0059072 0.010764804 0)
(1.0050647 0.010395033 0)
(1.0039618 0.010042488 0)
(1.0025199 0.0097043659 0)
(1.0006967 0.0093741734 0)
(0.99846325 0.0090474528 0)
(0.9957812 0.0087200139 0)
(0.99262687 0.0083938643 0)
(0.98902675 0.0080721428 0)
(0.98498261 0.0077530984 0)
(0.9804942 0.0074353648 0)
(0.97556443 0.0071203566 0)
(0.97020199 0.0068086911 0)
(0.96441604 0.0064981717 0)
(0.95821981 0.0061872193 0)
(0.95162786 0.0058765076 0)
(0.94465775 0.0055659097 0)
(0.93732461 0.0052538718 0)
(0.92964976 0.004939259 0)
(0.92166244 0.0046221079 0)
(0.91339616 0.0043017825 0)
(0.90488831 0.0039772216 0)
(0.89618551 0.0036470847 0)
(0.88731648 0.0033139863 0)
(0.87841587 0.0029866067 0)
(0.86953358 0.0026673227 0)
(0.86068507 0.0023572674 0)
(0.85189929 0.0020603126 0)
(0.84321363 0.0017807744 0)
(0.83466885 0.0015233656 0)
(0.82630438 0.0012935774 0)
(0.81815397 0.0010968682 0)
(0.81023974 0.00093248791 0)
(0.80255558 0.00080750415 0)
(0.79519633 0.00073750747 0)
(0.78802406 0.00071372755 0)
(0.78101932 0.0007160507 0)
(0.77413149 0.00072679683 0)
(0.76735193 0.00076402196 0)
(0.76068883 0.0007882784 0)
(0.75415995 0.00080667902 0)
(0.74776471 0.00081679632 0)
(0.74151168 0.00081709591 0)
(0.73541209 0.00080812065 0)
(0.7294675 0.00079152833 0)
(0.72367758 0.00076862398 0)
(0.71804437 0.00074122062 0)
(0.71256822 0.00071083166 0)
(0.7072475 0.00067865083 0)
(0.70208121 0.00064564799 0)
(0.69706935 0.0006127265 0)
(0.69220994 0.00058024262 0)
(0.68750056 0.00054863935 0)
(0.68293653 0.00051862553 0)
(0.67851212 0.00049039526 0)
(0.67422086 0.00046481395 0)
(0.67005769 0.00044178044 0)
(0.66601908 0.00042019149 0)
(0.66209938 0.00040025579 0)
(0.65829088 0.00038187358 0)
(0.65458674 0.00036505222 0)
(0.65097888 0.00034989388 0)
(0.64745968 0.00033591386 0)
(0.64402227 0.0003230653 0)
(0.64066014 0.00031099012 0)
(0.63736792 0.00029959772 0)
(0.6341402 0.00028876772 0)
(0.63097284 0.00027834903 0)
(0.62786155 0.00026841365 0)
(0.62480299 0.000258817 0)
(0.62179328 0.00024961119 0)
(0.61883008 0.00024095722 0)
(0.61590419 0.0002324187 0)
(0.61302665 0.0002259407 0)
(0.61013787 0.00021625607 0)
(0.60738302 0.00022027162 0)
(0.60432265 0.00026542785 0)
(0.60186527 0.00032534016 0)
(0.59708846 0.00027917234 0)
(0.98003195 0.021775426 0)
(0.98334244 0.02624697 0)
(0.98825428 0.029131193 0)
(0.9935809 0.030040487 0)
(0.99842944 0.029192671 0)
(1.0022227 0.027113209 0)
(1.0047166 0.024524132 0)
(1.0060628 0.022065696 0)
(1.0066735 0.020047156 0)
(1.006948 0.0184864 0)
(1.0071181 0.01726978 0)
(1.0072648 0.016282614 0)
(1.0074024 0.015451525 0)
(1.0075333 0.014721897 0)
(1.0076452 0.01406637 0)
(1.0077356 0.013474818 0)
(1.0078048 0.01293843 0)
(1.0078731 0.012443321 0)
(1.0079089 0.011985321 0)
(1.0079065 0.011563638 0)
(1.0078738 0.011171953 0)
(1.0077986 0.010802322 0)
(1.0076645 0.010451949 0)
(1.0074549 0.010121658 0)
(1.0071493 0.0098077839 0)
(1.0067212 0.0095047578 0)
(1.0061439 0.0092110605 0)
(1.0053789 0.0089269487 0)
(1.0043765 0.0086504248 0)
(1.0031028 0.0083781766 0)
(1.0015334 0.0081064271 0)
(0.99962389 0.0078323334 0)
(0.99736035 0.007558014 0)
(0.99474609 0.0072845629 0)
(0.99177081 0.007009983 0)
(0.9884221 0.0067328753 0)
(0.98468949 0.0064535694 0)
(0.98056341 0.0061714326 0)
(0.97603913 0.0058847069 0)
(0.97111314 0.0055924585 0)
(0.96578099 0.0052946588 0)
(0.96003858 0.0049904236 0)
(0.95388255 0.0046782384 0)
(0.94731484 0.0043574842 0)
(0.94032494 0.0040293843 0)
(0.93294516 0.0036981559 0)
(0.92525916 0.0033681267 0)
(0.9173149 0.0030438049 0)
(0.90915161 0.0027302461 0)
(0.90080985 0.0024316241 0)
(0.89233805 0.0021524785 0)
(0.88379515 0.0018983048 0)
(0.87525138 0.0016743929 0)
(0.86675704 0.0014816412 0)
(0.85831099 0.0013268052 0)
(0.85011133 0.0012220055 0)
(0.84222272 0.0011655787 0)
(0.83457051 0.0011456768 0)
(0.82698457 0.0011417033 0)
(0.81949295 0.0011578158 0)
(0.8121032 0.0011642521 0)
(0.80480751 0.0011650122 0)
(0.79761297 0.0011574546 0)
(0.79054739 0.0011400281 0)
(0.78362855 0.0011137742 0)
(0.77685909 0.0010805982 0)
(0.77024786 0.0010416181 0)
(0.76380604 0.00099870862 0)
(0.75753596 0.0009535646 0)
(0.75143736 0.00090734172 0)
(0.7455121 0.00086091014 0)
(0.73976156 0.00081521018 0)
(0.73418397 0.00077062374 0)
(0.72877735 0.00072759472 0)
(0.72353726 0.00068687029 0)
(0.71845783 0.00064861438 0)
(0.71353336 0.00061365112 0)
(0.70875855 0.00058181528 0)
(0.70412942 0.00055194904 0)
(0.69964096 0.00052429419 0)
(0.69528686 0.00049872698 0)
(0.69106122 0.00047523866 0)
(0.68695641 0.00045392957 0)
(0.6829648 0.00043425611 0)
(0.67907911 0.00041614874 0)
(0.67529215 0.00039919764 0)
(0.67159756 0.00038328259 0)
(0.66798889 0.00036824984 0)
(0.66446071 0.00035391265 0)
(0.66100747 0.00034032609 0)
(0.65762441 0.00032731564 0)
(0.65430642 0.00031491942 0)
(0.65104992 0.00030332205 0)
(0.64784483 0.00029197692 0)
(0.64470044 0.00028319243 0)
(0.64155855 0.00027074824 0)
(0.63855514 0.00027374502 0)
(0.63526964 0.00031572166 0)
(0.63260021 0.00037833946 0)
(0.62752102 0.00032897071 0)
(0.9815339 0.021000161 0)
(0.98450752 0.024975567 0)
(0.98885878 0.027626548 0)
(0.99362809 0.028568982 0)
(0.99805062 0.027961721 0)
(1.0016065 0.026237239 0)
(1.004053 0.023990908 0)
(1.0054798 0.021778057 0)
(1.0062123 0.019901202 0)
(1.0065925 0.01840846 0)
(1.0068354 0.017220343 0)
(1.007029 0.016244199 0)
(1.0071992 0.015416623 0)
(1.0073543 0.014690711 0)
(1.0074939 0.014039551 0)
(1.007617 0.013451654 0)
(1.0077265 0.012917928 0)
(1.0078256 0.012426954 0)
(1.0079092 0.011973535 0)
(1.007981 0.011554652 0)
(1.0080398 0.011165104 0)
(1.0080986 0.01079832 0)
(1.0081379 0.010452793 0)
(1.0081471 0.010128391 0)
(1.0081349 0.0098212651 0)
(1.0080917 0.0095280528 0)
(1.008008 0.0092470314 0)
(1.0078701 0.0089770421 0)
(1.0076632 0.0087161885 0)
(1.0073672 0.008461804 0)
(1.0069633 0.008212983 0)
(1.0064188 0.0079689835 0)
(1.0057005 0.0077280804 0)
(1.0047812 0.0074883921 0)
(1.0036405 0.0072468296 0)
(1.0022347 0.0070013029 0)
(1.0005575 0.0067528875 0)
(0.99859356 0.0065015804 0)
(0.99632609 0.006245961 0)
(0.99373668 0.0059846356 0)
(0.99080536 0.0057172219 0)
(0.98751032 0.005442914 0)
(0.98382796 0.0051600677 0)
(0.97973304 0.0048681624 0)
(0.97519541 0.0045672285 0)
(0.97017729 0.0042599292 0)
(0.96467758 0.0039498826 0)
(0.95871399 0.0036407331 0)
(0.95230121 0.0033374661 0)
(0.94545731 0.003044424 0)
(0.9382087 0.0027658875 0)
(0.93059476 0.0025067425 0)
(0.92267303 0.0022723909 0)
(0.91451272 0.0020663388 0)
(0.90615819 0.0018923759 0)
(0.8977393 0.0017606424 0)
(0.88948516 0.0016740399 0)
(0.88141801 0.0016228264 0)
(0.87351967 0.0015946082 0)
(0.86577119 0.0015906424 0)
(0.85807414 0.0015824257 0)
(0.85036878 0.0015683089 0)
(0.84271307 0.0015438455 0)
(0.83514469 0.0015089916 0)
(0.82766111 0.001465518 0)
(0.82027686 0.0014149636 0)
(0.81302253 0.0013585307 0)
(0.8059167 0.0012986021 0)
(0.79896314 0.0012370884 0)
(0.79217078 0.0011750124 0)
(0.78555081 0.0011132409 0)
(0.77910783 0.0010528996 0)
(0.77284243 0.00099437681 0)
(0.7667566 0.00093809401 0)
(0.76084892 0.00088488018 0)
(0.7551155 0.00083486792 0)
(0.74955346 0.00078883023 0)
(0.74415955 0.00074656856 0)
(0.73893024 0.00070687774 0)
(0.73386137 0.00067000525 0)
(0.72894808 0.00063579415 0)
(0.72418558 0.0006042325 0)
(0.71956708 0.00057542852 0)
(0.71508544 0.00054878807 0)
(0.71073334 0.00052422637 0)
(0.70650318 0.00050128445 0)
(0.702388 0.00047981252 0)
(0.69838051 0.00045962286 0)
(0.69447422 0.00044049069 0)
(0.69066248 0.00042245129 0)
(0.68693922 0.00040529569 0)
(0.68329815 0.00038904117 0)
(0.67973445 0.00037389061 0)
(0.67623718 0.00035918308 0)
(0.67281394 0.00034758474 0)
(0.66940762 0.00033193449 0)
(0.6661463 0.00033350653 0)
(0.6626236 0.00037188406 0)
(0.65973607 0.00043826055 0)
(0.65433914 0.00038243183 0)
(0.98290693 0.020275729 0)
(0.98558797 0.023806225 0)
(0.98944639 0.026233291 0)
(0.99371343 0.027193468 0)
(0.9977421 0.026790319 0)
(1.0010657 0.025374618 0)
(1.0034473 0.023437886 0)
(1.0049294 0.02145865 0)
(1.0057651 0.019724393 0)
(1.0062432 0.018305668 0)
(1.0065597 0.017152633 0)
(1.0068043 0.016193032 0)
(1.0070092 0.015373368 0)
(1.0071882 0.01465343 0)
(1.0073459 0.014007721 0)
(1.0074846 0.013424025 0)
(1.0076084 0.012893368 0)
(1.007721 0.012405638 0)
(1.0078229 0.011954991 0)
(1.0079159 0.011538071 0)
(1.008002 0.011150049 0)
(1.0080823 0.010785541 0)
(1.0081535 0.010442763 0)
(1.0082173 0.010120278 0)
(1.008274 0.0098150414 0)
(1.0083238 0.0095234758 0)
(1.0083741 0.0092449517 0)
(1.0083943 0.008979233 0)
(1.0083988 0.0087233543 0)
(1.0083803 0.0084757634 0)
(1.008332 0.0082356488 0)
(1.0082435 0.0080012001 0)
(1.008103 0.0077709121 0)
(1.0078951 0.007543364 0)