/*--------------------------------*- C++ -*----------------------------------*\
| =========                 |                                                 |
| \\      /  F ield         | OpenFOAM: The Open Source CFD Toolbox           |
|  \\    /   O peration     | Version:  2206                                  |
|   \\  /    A nd           | Website:  www.openfoam.com                      |
|    \\/     M anipulation  |                                                 |
\*---------------------------------------------------------------------------*/
FoamFile
{
    version     2.0;
    format      ascii;
    arch        "LSB;label=32;scalar=64";
    class       volScalarField;
    location    "1000";
    object      k;
}
// * * * * * * * * * * * * * * * * * * * * * * * * * * * * * * * * * * * * * //

dimensions      [0 2 -2 0 0 0 0];

internalField   nonuniform List<scalar> 
7480
(
0.011445314
0.014109678
0.011691224
0.0076600161
0.0045418879
0.0027811849
0.0019369659
0.001525864
0.0012980749
0.0011497728
0.0010352213
0.00093697875
0.00085138722
0.00077733188
0.000713117
0.00065718294
0.00060832191
0.00056539832
0.00052721829
0.00049300474
0.00046228581
0.00043455274
0.00040933894
0.00038634983
0.00036535207
0.00034609345
0.00032835
0.00031197914
0.00029686808
0.00028288789
0.00026992636
0.00025791024
0.00024677507
0.00023644888
0.00022687135
0.00021800152
0.00020980194
0.00020223596
0.00019527881
0.00018891813
0.00018314346
0.00017794401
0.00017332015
0.00016927105
0.00016580225
0.00016300857
0.00016080181
0.00015930876
0.00015851798
0.00015840552
0.00015894849
0.00016011783
0.00016185204
0.00016403862
0.00016656747
0.00016936261
0.00017225681
0.00017500129
0.00017735711
0.00017913941
0.00018033729
0.00018095903
0.00018105787
0.00018071101
0.00018001546
0.00017905942
0.00017792071
0.0001766615
0.00017532641
0.00017394851
0.00017255291
0.00017115446
0.00016976258
0.00016838724
0.00016703093
0.00016569505
0.00016438011
0.00016303186
0.00016165483
0.00016026534
0.00015887
0.00015747211
0.00015606628
0.00015465041
0.00015322409
0.00015178708
0.00015034167
0.00014888845
0.00014743074
0.0001459696
0.00014450728
0.00014304477
0.00014158535
0.00014012093
0.00013867556
0.00013716204
0.00013584086
0.00013394059
0.00013286979
0.00012997153
0.0014157574
0.0025665632
0.0028348641
0.0024742301
0.0020072888
0.0015609545
0.0011995691
0.00093133097
0.00073512106
0.00059093727
0.00048473044
0.00040598993
0.00034687953
0.00030175565
0.00026655356
0.00023843988
0.00021550852
0.00019644875
0.00018033234
0.00016652909
0.00015461346
0.00014426274
0.00013522267
0.00012730291
0.0001202215
0.00011383848
0.00010806823
0.00010286015
9.8180902e-05
9.4001402e-05
9.0298768e-05
8.7059088e-05
8.4272309e-05
8.1929244e-05
8.0024663e-05
7.8558739e-05
7.7535727e-05
7.6967206e-05
7.6876387e-05
7.7299024e-05
7.8281786e-05
7.988269e-05
8.2174002e-05
8.5240605e-05
8.918881e-05
9.4130991e-05
0.00010014145
0.00010729108
0.00011560021
0.00012505986
0.00013563703
0.00014733568
0.00015989341
0.00017301331
0.00018640718
0.00019964435
0.00021208595
0.00022314792
0.00023247275
0.00024000739
0.00024589906
0.00025040768
0.00025379714
0.00025616081
0.00025771924
0.00025867147
0.00025917519
0.00025934696
0.00025927201
0.00025901239
0.00025861113
0.00025809475
0.00025748709
0.00025680648
0.00025605983
0.00025524817
0.00025435184
0.00025316588
0.00025177591
0.00025025279
0.00024861937
0.00024688217
0.00024504323
0.00024310964
0.00024108813
0.00023898877
0.0002368216
0.00023459667
0.00023232503
0.00023001567
0.00022767762
0.0002253189
0.00022294733
0.0002205676
0.00021818371
0.0002157942
0.00021343589
0.00021076406
0.00020884735
0.00020445579
0.0002100066
0.00055720681
0.00084138741
0.00095107804
0.00092902885
0.00084363701
0.00075625935
0.00069806686
0.00065934567
0.00062437502
0.00059315825
0.00056409464
0.00053580415
0.00050887335
0.00048356502
0.00045990375
0.00043795067
0.00041772242
0.00039922211
0.00038245862
0.00036742071
0.00035406575
0.00034234608
0.00033219903
0.00032246647
0.00031327762
0.00030474739
0.00029700543
0.00029017927
0.00028438761
0.00027974918
0.00027638143
0.0002743936
0.00027389119
0.00027498464
0.00027778949
0.00028243293
0.00028908283
0.0002979649
0.00030936517
0.00032362856
0.00034116502
0.00036245655
0.00038805528
0.00041862988
0.0004547802
0.00049695536
0.00054541779
0.00060017872
0.00066107486
0.00072756983
0.00079922903
0.00087484576
0.00095269476
0.0010310948
0.0011075005
0.0011784429
0.0012409862
0.0012935935
0.0013362617
0.0013699868
0.0013963305
0.0014161063
0.0014304214
0.0014405588
0.0014475611
0.0014522308
0.001455152
0.0014567502
0.0014573339
0.0014571134
0.0014562182
0.0014547724
0.0014528677
0.001450538
0.0014477841
0.0014444899
0.0014394758
0.001433302
0.0014263553
0.0014187493
0.0014105147
0.0014016691
0.0013922552
0.001382313
0.0013719003
0.0013610727
0.0013498875
0.0013384047
0.0013266755
0.0013147493
0.0013026725
0.0012904869
0.0012782301
0.0012658966
0.0012535842
0.0012411854
0.001227643
0.0012173962
0.001194885
3.6612378e-05
0.00011641247
0.00022888568
0.00032890589
0.00038970511
0.00041116076
0.00040820021
0.00039505759
0.00038065154
0.00036979044
0.00036656522
0.00037469839
0.00038618358
0.00039599327
0.00040416845
0.00041044719
0.00041543723
0.00041963905
0.00042337176
0.00042689571
0.00043042732
0.00043415435
0.00043823218
0.0004427683
0.00044760043
0.0004525428
0.00045764252
0.00046311284
0.00046923113
0.00047629869
0.00048463401
0.00049456932
0.00050644492
0.00052061125
0.0005374332
0.00055728761
0.00058059073
0.00060787355
0.00063979541
0.00067713304
0.00072077154
0.00077170845
0.00083105851
0.00090004727
0.00098007493
0.0010721544
0.0011767399
0.0012938592
0.0014230125
0.0015633073
0.0017132958
0.0018699095
0.0020312697
0.0021938205
0.0023542522
0.0025072037
0.0026462445
0.0027669568
0.0028679145
0.0029500868
0.0030159882
0.0030680805
0.0031079717
0.0031384202
0.0031617023
0.0031795845
0.0031933971
0.0032040995
0.0032123824
0.0032187429
0.0032235135
0.0032268972
0.0032291105
0.0032303033
0.0032305238
0.0032297563
0.0032278072
0.0032223481
0.0032146894
0.0032055001
0.0031949435
0.0031830732
0.0031699339
0.0031556113
0.0031401898
0.0031237809
0.0031064904
0.0030884264
0.0030696995
0.0030504072
0.0030306383
0.0030104837
0.0029900189
0.0029693253
0.0029483694
0.0029274319
0.0029059742
0.0028832351
0.0028646531
0.0028272483
1.2523686e-05
2.7572885e-05
5.8625258e-05
9.9473742e-05
0.00013897956
0.00016942835
0.0001892121
0.00020026938
0.0002054901
0.00020735564
0.00020803466
0.00020959599
0.00021295584
0.0002186167
0.00022751136
0.00024062049
0.00025526396
0.00027042917
0.00028569492
0.00030132555
0.00031747005
0.00033431217
0.00035192534
0.00037024118
0.0003889826
0.00040784356
0.00042730282
0.00044780945
0.0004696893
0.00049322067
0.0005186836
0.00054638988
0.00057669715
0.0006100105
0.00064677564
0.0006874744
0.00073270666
0.00078333224
0.00084038644
0.00090501036
0.00097844697
0.0010620482
0.001157277
0.0012657037
0.0013890607
0.0015277739
0.001681456
0.0018494152
0.0020307027
0.0022239607
0.0024271785
0.0026371303
0.0028491154
0.003059128
0.0032640549
0.0034559379
0.0036270399
0.0037740275
0.0038971846
0.0039986762
0.0040811439
0.0041474483
0.0042005529
0.0042432334
0.004277848
0.0043062509
0.0043298473
0.0043496628
0.0043664402
0.0043807157
0.0043928426
0.0044030398
0.004411573
0.0044186019
0.0044241638
0.0044282165
0.0044305767
0.0044302769
0.0044275029
0.0044225512
0.0044155829
0.0044066915
0.0043959666
0.0043835379
0.0043695409
0.0043541337
0.0043374664
0.0043196869
0.0043009431
0.0042813683
0.0042610783
0.0042401967
0.0042188203
0.0041970603
0.0041748764
0.0041526525
0.004129572
0.004105673
0.004084795
0.0040463571
9.3805714e-06
1.1752291e-05
1.8505209e-05
3.0345445e-05
4.5490438e-05
6.1119629e-05
7.5207686e-05
8.6935475e-05
9.6287692e-05
0.00010358075
0.00010921239
0.00011369044
0.00011750832
0.00012111649
0.00012502186
0.00012979862
0.00013572304
0.00014307072
0.00015226725
0.00016376107
0.00017687561
0.00019189215
0.00020809199
0.00022549659
0.00024418778
0.00026422298
0.00028583
0.00030931125
0.00033500208
0.00036328133
0.00039456796
0.00042932048
0.00046804033
0.00051126427
0.00055957684
0.00061369389
0.00067461219
0.00074335571
0.00082094158
0.00090846244
0.0010071269
0.0011182649
0.0012433186
0.00138386
0.0015415634
0.0017146437
0.0019011477
0.0021002752
0.0023113632
0.0025332295
0.0027638297
0.002999847
0.0032364741
0.0034694448
0.0036955412
0.0039037648
0.0040872534
0.0042457416
0.0043808846
0.0044951712
0.0045915977
0.0046728935
0.0047414893
0.0047996662
0.0048494622
0.0048925173
0.004930122
0.0049632668
0.0049926882
0.0050189283
0.0050423414
0.005063153
0.0050816958
0.0050981276
0.0051124675
0.0051246514
0.0051345352
0.0051414663
0.0051454013
0.0051465255
0.0051450162
0.0051410147
0.0051346627
0.0051261366
0.005115623
0.005103325
0.0050894326
0.0050741294
0.0050575966
0.0050399987
0.0050214725
0.0050021702
0.0049822056
0.0049617117
0.0049406542
0.0049194661
0.0048972031
0.0048744909
0.0048537826
0.0048171295
8.9899236e-06
9.231046e-06
1.0391946e-05
1.306643e-05
1.7352438e-05
2.2791758e-05
2.8761498e-05
3.4794182e-05
4.061981e-05
4.609705e-05
5.1143056e-05
5.5726675e-05
5.9866667e-05
6.3618825e-05
6.7087118e-05
7.0428273e-05
7.3808018e-05
7.7400858e-05
8.1419088e-05
8.6119284e-05
9.1688196e-05
9.8401816e-05
0.00010650017
0.00011619061
0.00012734534
0.00014017111
0.0001549159
0.00017142985
0.00018973988
0.00021021348
0.00023328904
0.0002594868
0.00028941774
0.00032376533
0.00036329603
0.00040892049
0.00046181742
0.00052345798
0.00059538499
0.00067925047
0.00077680202
0.00088986372
0.0010203204
0.0011701731
0.0013415332
0.0015226459
0.0017159037
0.0019248263
0.0021498648
0.0023894703
0.0026405288
0.0028983271
0.0031567456
0.0034117767
0.0036609379
0.0038825221
0.0040753671
0.0042464146
0.004398233
0.0045328398
0.0046522593
0.0047580434
0.0048515677
0.004934433
0.005008205
0.0050741659
0.0051334594
0.0051870595
0.0052357177
0.0052800206
0.0053204196
0.0053572424
0.005390786
0.0054212302
0.005448607
0.005472869
0.0054939316
0.0055113823
0.0055251063
0.0055352301
0.0055419565
0.0055454872
0.0055460294
0.0055438182
0.0055391008
0.0055321327
0.0055231512
0.0055123821
0.0055000475
0.0054863493
0.0054714654
0.0054555671
0.0054387864
0.0054212794
0.0054030325
0.0053844922
0.005364723
0.0053446233
0.0053258374
0.005292313
8.9408948e-06
8.8619417e-06
8.9453992e-06
9.3734416e-06
1.028826e-05
1.1705223e-05
1.3541227e-05
1.5692876e-05
1.8076448e-05
2.062604e-05
2.3280017e-05
2.5979845e-05
2.8675396e-05
3.1326083e-05
3.3907547e-05
3.6417758e-05
3.8874035e-05
4.1309196e-05
4.3775753e-05
4.6349513e-05
4.9117747e-05
5.2189677e-05
5.5693312e-05
5.9774478e-05
6.4565481e-05
7.0244373e-05
7.7051468e-05
8.5132614e-05
9.4553347e-05
0.00010555322
0.00011844057
0.00013359302
0.00015135977
0.00017185942
0.00019572523
0.00022372788
0.00025684159
0.0002963119
0.00034367387
0.00040075872
0.00046973226
0.00055310624
0.00065369711
0.0007745478
0.00091877797
0.0010825379
0.001263118
0.0014615863
0.001678311
0.0019124109
0.0021612517
0.0024201463
0.0026829154
0.0029480289
0.0032140504
0.003458174
0.00367862
0.0038797644
0.0040625189
0.0042296792
0.0043830421
0.0045230983
0.004650508
0.0047665692
0.0048724005
0.0049688631
0.0050570139
0.0051378151
0.0052119987
0.0052802199
0.0053430483
0.0054009082
0.0054541388
0.0055029693
0.0055474538
0.005587589
0.0056233666
0.0056545945
0.0056811926
0.0057032666
0.0057210384
0.0057347633
0.0057447157
0.0057511947
0.0057545132
0.005754985
0.0057529002
0.0057485345
0.0057421601
0.0057340236
0.0057243425
0.0057133212
0.00570112
0.0056879226
0.0056737495
0.0056590412
0.0056429594
0.0056264593
0.0056108195
0.0055810596
8.932898e-06
8.8092498e-06
8.7106667e-06
8.6774698e-06
8.7584522e-06
8.9872839e-06
9.3744339e-06
9.9172187e-06
1.0610645e-05
1.1449608e-05
1.242605e-05
1.3526804e-05
1.4735202e-05
1.6031774e-05
1.7396794e-05
1.8813491e-05
2.0269717e-05
2.1757991e-05
2.3277574e-05
2.4836737e-05
2.6452326e-05
2.8150664e-05
2.9969142e-05
3.1957381e-05
3.4174002e-05
3.6691716e-05
3.9605088e-05
4.3018475e-05
4.7041093e-05
5.1817466e-05
5.7541873e-05
6.4404084e-05
7.2619576e-05
8.2431638e-05
9.4186145e-05
0.00010832663
0.00012543126
0.00014625169
0.00017148111
0.00020217235
0.00023989335
0.00028665079
0.00034499018
0.00041809285
0.00050987141
0.00062313704
0.00075703173
0.00091182883
0.0010885604
0.0012875701
0.0015078914
0.0017466559
0.0019991429
0.0022629738
0.0025354682
0.0028005666
0.0030435899
0.0032702889
0.0034830581
0.003683471
0.0038725817
0.004049122
0.0042132042
0.0043661955
0.0045084789
0.0046402499
0.004762486
0.0048759473
0.0049811296
0.0050787194
0.0051693384
0.0052534326
0.0053313556
0.0054033802
0.0054695368
0.0055298686
0.0055844576
0.0056332937
0.0056763859
0.0057138635
0.005745969
0.0057729986
0.0057952888
0.0058132028
0.0058271209
0.0058374211
0.0058444521
0.0058485488
0.0058500441
0.0058492395
0.0058464029
0.0058417829
0.0058355774
0.0058280069
0.0058191377
0.0058093997
0.0057981032
0.0057861462
0.0057747081
0.0057492732
8.9302021e-06
8.800033e-06
8.6732966e-06
8.5571762e-06
8.4633262e-06
8.4039746e-06
8.3886191e-06
8.424202e-06
8.5168395e-06
8.6724866e-06
8.8963199e-06
9.1916756e-06
9.5599741e-06
1.0000458e-05
1.0510602e-05
1.1086746e-05
1.1724496e-05
1.2419192e-05
1.3166812e-05
1.3964919e-05
1.4813227e-05
1.5714139e-05
1.6673926e-05
1.7703848e-05
1.882026e-05
2.0045441e-05
2.1409706e-05
2.2951519e-05
2.4717318e-05
2.6765236e-05
2.9170752e-05
3.202547e-05
3.5441768e-05
3.9558447e-05
4.455759e-05
5.0633509e-05
5.8061109e-05
6.7208525e-05
7.8505535e-05
9.2515046e-05
0.00011002305
0.00013209555
0.00016016633
0.0001961496
0.00024248492
0.00030213332
0.00037784704
0.00047160606
0.00058584211
0.00072282347
0.00088423967
0.0010706081
0.0012807125
0.0015124964
0.0017633086
0.0020239721
0.0022816274
0.0025302348
0.0027636432
0.0029863588
0.0032003609
0.0034056282
0.0036019531
0.0037896016
0.0039676518
0.0041349986
0.004292843
0.0044413869
0.0045806145
0.0047112127
0.004833628
0.0049481814
0.0050551667
0.005154885
0.0052471717
0.0053320783
0.0054097757
0.0054803565
0.0055439076
0.0056006087
0.0056507218
0.0056945663
0.0057325284
0.0057650232
0.00579249
0.005815373
0.0058340812
0.0058490143
0.0058605735
0.005869124
0.0058749965
0.0058784948
0.0058798672
0.0058793813
0.005877161
0.005873631
0.0058682769
0.0058618963
0.0058557145
0.0058352899
8.92861e-06
8.7969624e-06
8.6657338e-06
8.5359175e-06
8.4097271e-06
8.2901828e-06
8.1805214e-06
8.0839826e-06
8.0039784e-06
7.9442023e-06
7.9085023e-06
7.9006301e-06
7.924065e-06
7.9818059e-06
8.0763006e-06
8.2094369e-06
8.3824866e-06
8.5961408e-06
8.8506778e-06
9.1461989e-06
9.4828541e-06
9.8611154e-06
1.0282088e-05
1.0747968e-05
1.126245e-05
1.183119e-05
1.246248e-05
1.3167928e-05
1.3962934e-05
1.4867612e-05
1.5908386e-05
1.7119007e-05
1.8542367e-05
2.023288e-05
2.2260949e-05
2.471342e-05
2.7704064e-05
3.1385802e-05
3.5956161e-05
4.1651961e-05
4.8810428e-05
5.7893731e-05
6.9539102e-05
8.4627528e-05
0.00010435904
0.00013035945
0.00016466442
0.00020949067
0.00026744942
0.00034149365
0.00043478045
0.00055036079
0.00069067802
0.00085727116
0.0010506518
0.0012681246
0.001502528
0.0017455846
0.0019879553
0.0022269557
0.0024574486
0.0026783333
0.0028931035
0.003102349
0.0033055605
0.0035017887
0.0036909834
0.0038722109
0.0040442888
0.0042080426
0.0043633898
0.0045104339
0.0046491914
0.0047795245
0.0049011517
0.0050141465
0.0051186738
0.005214796
0.0053026166
0.0053823368
0.0054542016
0.0055185193
0.0055756956
0.0056261638
0.0056703909
0.005708882
0.0057421056
0.0057705217
0.0057945982
0.005814767
0.0058314301
0.0058449572
0.0058556631
0.0058638716
0.0058697768
0.0058738103
0.0058756465
0.005875979
0.0058761589
0.0058615803
8.9276102e-06
8.7952819e-06
8.6630036e-06
8.5308191e-06
8.3990619e-06
8.2683079e-06
8.1393523e-06
8.0131853e-06
7.8909984e-06
7.7741933e-06
7.6643625e-06
7.5632538e-06
7.4727346e-06
7.3947364e-06
7.3312002e-06
7.2840411e-06
7.2551036e-06
7.2461066e-06
7.2586255e-06
7.2941054e-06
7.3538831e-06
7.439235e-06
7.5514183e-06
7.6917921e-06
7.8619608e-06
8.0639361e-06
8.3004298e-06
8.575182e-06
8.8931993e-06
9.2610611e-06
9.6874393e-06
1.0183758e-05
1.0764941e-05
1.1450287e-05
1.2264929e-05
1.3241179e-05
1.4420937e-05
1.5859681e-05
1.7630603e-05
1.9828041e-05
2.2579508e-05
2.6060799e-05
3.0514563e-05
3.6272924e-05
4.3811294e-05
5.3802025e-05
6.7172487e-05
8.5130534e-05
0.00010924514
0.00014152342
0.0001844705
0.00024109111
0.00031477462
0.00040907533
0.00052742686
0.00067222685
0.00084341196
0.0010381148
0.0012503513
0.0014744448
0.0017032555
0.0019315673
0.0021583776
0.0023799273
0.0025942449
0.0028047245
0.0030114809
0.0032141257
0.0034113763
0.0036029209
0.0037875797
0.0039646374
0.0041340526
0.0042950122
0.0044469404
0.00458984
0.0047236444
0.0048481905
0.0049634741
0.0050696073
0.0051667333
0.0052550839
0.0053350249
0.0054069464
0.0054713007
0.0055286273
0.005579425
0.0056242007
0.0056634828
0.0056977643
0.0057275226
0.0057531997
0.0057751869
0.0057938766
0.0058095451
0.005822646
0.0058330492
0.0058413599
0.0058491032
0.0058413758
8.9270604e-06
8.7943527e-06
8.6616714e-06
8.5289592e-06
8.3962426e-06
8.2635958e-06
8.1311773e-06
7.9992479e-06
7.8681691e-06
7.7383932e-06
7.6104572e-06
7.484983e-06
7.362684e-06
7.2443648e-06
7.1309144e-06
7.0233e-06
6.9225575e-06
6.8297732e-06
6.7460682e-06
6.6725881e-06
6.6104904e-06
6.5609358e-06
6.5250918e-06
6.5041461e-06
6.4993248e-06
6.5119232e-06
6.5433866e-06
6.5954222e-06
6.6700847e-06
6.7698591e-06
6.8978799e-06
7.0581723e-06
7.2559032e-06
7.4978193e-06
7.792769e-06
8.1521067e-06
8.5905431e-06
9.1274084e-06
9.788249e-06
1.0606559e-05
1.162705e-05
1.2910681e-05
1.4541298e-05
1.6635045e-05
1.9356929e-05
2.294468e-05
2.773782e-05
3.4209347e-05
4.3022953e-05
5.5097688e-05
7.1693445e-05
9.4508817e-05
0.00012577483
0.00016831377
0.0002255393
0.00030124225
0.00039896724
0.00052117953
0.00066824737
0.00083860159
0.0010283683
0.0012323789
0.001446398
0.0016649556
0.0018835793
0.0021019935
0.0023175888
0.0025279364
0.0027358698
0.002941397
0.0031441848
0.0033424514
0.0035357139
0.0037230237
0.0039025116
0.0040740331
0.0042370732
0.0043909564
0.0045353431
0.0046700865
0.0047950981
0.0049103925
0.0050161963
0.0051127667
0.0052004708
0.0052798316
0.0053513161
0.0054154441
0.0054727827
0.0055238633
0.0055692322
0.0056093989
0.0056448325
0.0056760018
0.005703272
0.0057271326
0.0057476505
0.0057653648
0.0057820141
0.0057823396
8.9267523e-06
8.7938136e-06
8.6609328e-06
8.5280677e-06
8.3952085e-06
8.2623478e-06
8.1295103e-06
7.9967722e-06
7.8642571e-06
7.7321248e-06
7.6005618e-06
7.4697817e-06
7.3400318e-06
7.2116005e-06
7.0848216e-06
6.9600773e-06
6.8378022e-06
6.7184825e-06
6.6026555e-06
6.4909081e-06
6.3838744e-06
6.2822308e-06
6.1866947e-06
6.0980241e-06
6.0170167e-06
5.9445116e-06
5.8814036e-06
5.8286654e-06
5.7873701e-06
5.7587233e-06
5.7441252e-06
5.7452437e-06
5.7640937e-06
5.8031891e-06
5.8657407e-06
5.9557949e-06
6.0785022e-06
6.2405366e-06
6.4506608e-06
6.7204734e-06
7.0652797e-06
7.5055033e-06
8.0689265e-06
8.7937644e-06
9.7336023e-06
1.0965345e-05
1.2600135e-05
1.4797924e-05
1.7790257e-05
2.1912633e-05
2.7649254e-05
3.5695007e-05
4.7046698e-05
6.3107915e-05
8.5810038e-05
0.00011771018
0.00016197162
0.00022212526
0.00030153783
0.00040285279
0.00052729589
0.00067426774
0.00084185105
0.0010264827
0.0012236276
0.0014299238
0.0016411629
0.0018530879
0.0020657708
0.0022772575
0.0024852142
0.0026912325
0.0028955321
0.0030977932
0.0032962148
0.0034898547
0.0036778194
0.0038581583
0.0040300546
0.0041930637
0.0043465896
0.0044901408
0.0046237041
0.0047472431
0.0048608982
0.0049650942
0.0050601458
0.0051465194
0.0052247722
0.0052954221
0.0053590593
0.0054162344
0.0054674807
0.0055133406
0.0055542641
0.0055907842
0.0056231612
0.0056518876
0.0056789588
0.0056887543
8.9265743e-06
8.7934489e-06
8.6604102e-06
8.5274459e-06
8.3945543e-06
8.2617246e-06
8.1289603e-06
7.9962954e-06
7.8637916e-06
7.7315286e-06
7.5995948e-06
7.4680837e-06
7.3370971e-06
7.2067493e-06
7.0771699e-06
6.948507e-06
6.8209307e-06
6.6946353e-06
6.569842e-06
6.4468011e-06
6.3257938e-06
6.2071329e-06
6.0911647e-06
5.9782695e-06
5.8688627e-06
5.7633951e-06
5.6623555e-06
5.5662757e-06
5.4757345e-06
5.3913658e-06
5.3138745e-06
5.244057e-06
5.1828231e-06
5.1312351e-06
5.0905688e-06
5.0623788e-06
5.0485782e-06
5.0515608e-06
5.0743861e-06
5.1210546e-06
5.1967523e-06
5.3082616e-06
5.4646616e-06
5.6782903e-06
5.9663269e-06
6.3528903e-06
6.8724344e-06
7.5748605e-06
8.5331449e-06
9.8549389e-06
1.170007e-05
1.4306249e-05
1.8029397e-05
2.3402274e-05
3.1215764e-05
4.2622988e-05
5.9262971e-05
8.3338481e-05
0.00011759361
0.00016515343
0.00022918074
0.00031238572
0.00041665562
0.00054256741
0.00068913626
0.00085442351
0.001035338
0.0012277829
0.0014289471
0.0016353793
0.0018430668
0.002052025
0.0022603643
0.0024656474
0.0026700208
0.0028734601
0.0030750775
0.0032729762
0.0034660229
0.0036531592
0.0038324551
0.0040027159
0.0041637571
0.0043148645
0.0044557301
0.0045866022
0.0047073979
0.004818435
0.0049201764
0.005013024
0.0050975626
0.0051743229
0.0052438674
0.0053067905
0.0053636041
0.0054148816
0.0054610623
0.0055026023
0.0055418092
0.005562725
8.9265057e-06
8.7932152e-06
8.6600225e-06
8.5269419e-06
8.3939874e-06
8.2611586e-06
8.1284616e-06
7.9959222e-06
7.8635857e-06
7.7315094e-06
7.5997551e-06
7.4683851e-06
7.3374624e-06
7.2070525e-06
7.0772249e-06
6.9480539e-06
6.8196202e-06
6.6920127e-06
6.5653296e-06
6.4396804e-06
6.3151871e-06
6.1919863e-06
6.0702306e-06
5.9500904e-06
5.8317554e-06
5.7154363e-06
5.6013663e-06
5.4898034e-06
5.3810325e-06
5.2753673e-06
5.1731557e-06
5.074785e-06
4.9806882e-06
4.8913544e-06
4.807345e-06
4.729315e-06
4.6580369e-06
4.5944373e-06
4.5396507e-06
4.4950969e-06
4.4625723e-06
4.4443746e-06
4.4435071e-06
4.4639556e-06
4.5111646e-06
4.5926185e-06
4.7188086e-06
4.9047854e-06
5.1726081e-06
5.5549049e-06
6.1001919e-06
6.8817294e-06
8.011386e-06
9.6615175e-06
1.2098893e-05
1.5735395e-05
2.1202158e-05
2.9442199e-05
4.1805087e-05
6.0115208e-05
8.6690654e-05
0.00012424248
0.00017567836
0.00024376964
0.0003307301
0.00043795811
0.00056570963
0.00071282375
0.00087739895
0.0010566548
0.0012467878
0.0014452707
0.0016487594
0.0018535048
0.0020599264
0.0022657208
0.0024692864
0.002672136
0.0028747165
0.003075129
0.0032715111
0.0034626838
0.0036475772
0.0038238626
0.0039907652
0.0041483453
0.0042955896
0.0044326247
0.0045596705
0.0046768132
0.0047845601
0.0048833031
0.0049735714
0.0050559619
0.0051309947
0.0051992659
0.0052613595
0.0053176912
0.0053709504
0.0054048778
8.9265422e-06
8.7931121e-06
8.6597768e-06
8.5265711e-06
8.3935224e-06
8.2606426e-06
8.1279449e-06
7.9954555e-06
7.863215e-06
7.731273e-06
7.5996835e-06
7.4685007e-06
7.3377782e-06
7.2075701e-06
7.0779309e-06
6.9489155e-06
6.8205805e-06
6.6929838e-06
6.5661855e-06
6.4402484e-06
6.315239e-06
6.191228e-06
6.0682914e-06
5.9465112e-06
5.8259773e-06
5.7067877e-06
5.5890504e-06
5.4728844e-06
5.3584216e-06
5.2458078e-06
5.1352047e-06
5.0267925e-06
4.9207721e-06
4.8173681e-06
4.7168339e-06
4.6194577e-06
4.5255703e-06
4.4355548e-06
4.3498628e-06
4.2690355e-06
4.1937315e-06
4.1247647e-06
4.0631617e-06
4.0102443e-06
3.9677484e-06
3.9380091e-06
3.9242377e-06
3.9309424e-06
3.9646457e-06
4.0349221e-06
4.1559163e-06
4.3490167e-06
4.6471924e-06
5.1018128e-06
5.7934676e-06
6.8501951e-06
8.4759464e-06
1.0993687e-05
1.49039e-05
2.0958136e-05
3.0242876e-05
4.4254365e-05
6.4925476e-05
9.4603204e-05
0.00013591901
0.00019158299
0.00026408546
0.0003553086
0.00046632631
0.0005971647
0.00074649954
0.0009123906
0.0010920333
0.001281735
0.0014792956
0.0016809782
0.0018840783
0.002088919
0.0022925347
0.0024945685
0.0026959249
0.0028971301
0.0030954632
0.0032892732
0.0034773312
0.0036586997
0.003830444
0.0039928275
0.0041455018
0.0042878739
0.004420323
0.0045428668
0.0046559133
0.004759964
0.0048554508
0.0049429544
0.0050231367
0.0050963517
0.0051657445
0.0052147992
8.9266752e-06
8.7931332e-06
8.6596759e-06
8.5263521e-06
8.3932002e-06
8.2602424e-06
8.127499e-06
7.9949993e-06
7.8627822e-06
7.7308942e-06
7.599386e-06
7.4683091e-06
7.3377149e-06
7.2076551e-06
7.078181e-06
6.9493439e-06
6.8211949e-06
6.6937847e-06
6.5671641e-06
6.4413837e-06
6.316494e-06
6.1925461e-06
6.0695916e-06
5.9476831e-06
5.8268746e-06
5.7072224e-06
5.5887849e-06
5.4716244e-06
5.3558068e-06
5.2414035e-06
5.1284915e-06
5.017155e-06
4.9074865e-06
4.7995883e-06
4.693574e-06
4.5895709e-06
4.4877226e-06
4.3881919e-06
4.2911656e-06
4.1968608e-06
4.1055326e-06
4.0174852e-06
3.9330879e-06
3.8527987e-06
3.7771962e-06
3.7070305e-06
3.6433027e-06
3.5873801e-06
3.5411843e-06
3.5074848e-06
3.4903441e-06
3.4958449e-06
3.5333335e-06
3.6173877e-06
3.7709444e-06
4.0308554e-06
4.4572528e-06
5.147645e-06
6.2595915e-06
8.0440311e-06
1.0892564e-05
1.5398921e-05
2.2429925e-05
3.3198709e-05
4.9323263e-05
7.2829144e-05
0.00010609363
0.00015170834
0.00021225762
0.00029004114
0.00038668046
0.00050295837
0.00063857681
0.00079192099
0.00096095011
0.00114254
0.0013333134
0.0015312985
0.0017318954
0.0019339916
0.002137327
0.0023388446
0.0025389786
0.0027391058
0.0029379964
0.0031332771
0.0033234886
0.0035074736
0.0036835466
0.0038499368
0.004007021
0.0041539571
0.0042909599
0.0044182528
0.0045360169
0.0046447537
0.0047450784
0.0048372488
0.004924906
0.0049913677
8.9268929e-06
8.7932647e-06
8.6597082e-06
8.5262818e-06
8.3930319e-06
8.2599893e-06
8.127181e-06
7.9946392e-06
7.8624031e-06
7.7305174e-06
7.5990309e-06
7.4679936e-06
7.3374561e-06
7.2074695e-06
7.0780846e-06
6.9493522e-06
6.8213225e-06
6.6940454e-06
6.5675699e-06
6.4419443e-06
6.3172158e-06
6.193431e-06
6.0706353e-06
5.9488736e-06
5.8281898e-06
5.7086273e-06
5.5902292e-06
5.4730381e-06
5.3570974e-06
5.2424505e-06
5.1291421e-06
5.0172184e-06
4.9067275e-06
4.7977205e-06
4.690252e-06
4.5843808e-06
4.4801716e-06
4.3776953e-06
4.2770315e-06
4.1782697e-06
4.0815121e-06
3.9868769e-06
3.8945026e-06
3.8045548e-06
3.7172349e-06
3.6327941e-06
3.5515546e-06
3.4739418e-06
3.4005337e-06
3.33214e-06
3.2699247e-06
3.2156024e-06
3.1717658e-06
3.1424273e-06
3.133904e-06
3.156343e-06
3.226451e-06
3.3716447e-06
3.6371751e-06
4.0977044e-06
4.8746543e-06
6.1622604e-06
8.2651608e-06
1.1649248e-05
1.7005741e-05
2.5321151e-05
3.7943495e-05
5.6631058e-05
8.3522437e-05
0.00012107311
0.0001718842
0.00023846034
0.000322914
0.00042655751
0.00054981876
0.00069190275
0.0008508708
0.0010245444
0.001209194
0.0014019389
0.0016005952
0.0018003757
0.0020015223
0.0022024866
0.0024020744
0.0025999998
0.0027985419
0.0029943765
0.0031858638
0.0033716162
0.0035506707
0.0037203664
0.0038808361
0.0040317118
0.0041726529
0.0043039967
0.0044260788
0.0045390251
0.0046469009
0.0047330895
8.9271827e-06
8.7934901e-06
8.6598557e-06
8.5263439e-06
8.3930073e-06
8.2598836e-06
8.1270056e-06
7.9944089e-06
7.8621333e-06
7.7302228e-06
7.5987249e-06
7.4676888e-06
7.3371643e-06
7.207202e-06
7.0778525e-06
6.9491667e-06
6.8211948e-06
6.6939866e-06
6.5675911e-06
6.4420564e-06
6.3174296e-06
6.1937566e-06
6.071082e-06
5.9494492e-06
5.8289e-06
5.7094749e-06
5.5912132e-06
5.4741527e-06
5.3583298e-06
5.24378e-06
5.1305377e-06
5.0186365e-06
4.9081092e-06
4.7989885e-06
4.6913071e-06
4.585098e-06
4.480395e-06
4.3772334e-06
4.2756502e-06
4.1756853e-06
4.077382e-06
3.9807883e-06
3.885958e-06
3.792953e-06
3.7018457e-06
3.6127225e-06
3.52569e-06
3.4408837e-06
3.3584809e-06
3.2787219e-06
3.2019427e-06
3.1286267e-06
3.05949e-06
2.9956239e-06
2.9387307e-06
2.8915288e-06
2.8584692e-06
2.8469158e-06
2.8691558e-06
2.9458504e-06
3.1114645e-06
3.4229384e-06
3.9737361e-06
4.9138898e-06
6.4803582e-06
9.0391877e-06
1.3142016e-05
1.9595313e-05
2.9529332e-05
4.4462321e-05
6.6334739e-05
9.7439605e-05
0.00014035157
0.00019769208
0.00027187377
0.00036473641
0.00047718047
0.00060917697
0.00075921978
0.00092501494
0.0011040343
0.0012921505
0.0014870817
0.0016851975
0.0018844172
0.0020843587
0.0022827756
0.0024798883
0.0026765234
0.0028720602
0.0030640199
0.0032508826
0.0034315533
0.0036041968
0.0037674731
0.003921561
0.0040660567
0.0042009635
0.0043304881
0.004438525
8.927533e-06
8.7937938e-06
8.6600996e-06
8.5265185e-06
8.3931077e-06
8.2599107e-06
8.1269653e-06
7.9943103e-06
7.8619867e-06
7.7300386e-06
7.5985128e-06
7.4674576e-06
7.3369224e-06
7.2069574e-06
7.077613e-06
6.9489398e-06
6.820988e-06
6.6938074e-06
6.5674471e-06
6.4419554e-06
6.3173795e-06
6.1937654e-06
6.0711579e-06
5.9496002e-06
5.8291342e-06
5.7098002e-06
5.5916367e-06
5.4746807e-06
5.3589676e-06
5.2445309e-06
5.1314025e-06
5.0196127e-06
4.9091903e-06
4.8001625e-06
4.6925551e-06
4.5863928e-06
4.4816992e-06
4.3784971e-06
4.2768085e-06
4.1766552e-06
4.0780592e-06
3.9810426e-06
3.8856286e-06
3.7918418e-06
3.6997093e-06
3.6092616e-06
3.5205339e-06
3.4335693e-06
3.348422e-06
3.2651625e-06
3.1838869e-06
3.1047301e-06
3.0278878e-06
2.9536529e-06
2.8824764e-06
2.8150711e-06
2.7525941e-06
2.6969574e-06
2.6513635e-06
2.6212353e-06
2.6157811e-06
2.6505711e-06
2.7519165e-06
2.9634636e-06
3.3568438e-06
4.0484195e-06
5.2229463e-06
7.1697856e-06
1.0331947e-05
1.5370787e-05
2.3242064e-05
3.5264193e-05
5.3179138e-05
7.9150731e-05
0.00011567543
0.00016545199
0.0002310835
0.00031481344
0.00041803089
0.0005410493
0.00068316083
0.00084207684
0.0010152366
0.0011991343
0.0013905275
0.00158717
0.0017843386
0.0019825078
0.0021797805
0.0023758439
0.0025706167
0.0027653184
0.0029571699
0.0031447007
0.0033265298
0.0035013859
0.0036671549
0.0038239421
0.0039755252
0.0041068859
8.9279337e-06
8.7941619e-06
8.6604226e-06
8.5267862e-06
8.3933132e-06
8.2600515e-06
8.1270437e-06
7.9943314e-06
7.8619575e-06
7.7299663e-06
7.5984045e-06
7.46732e-06
7.3367619e-06
7.2067799e-06
7.0774242e-06
6.9487451e-06
6.8207927e-06
6.6936167e-06
6.5672662e-06
6.4417894e-06
6.3172337e-06
6.1936452e-06
6.0710687e-06
5.9495477e-06
5.8291241e-06
5.7098384e-06
5.5917294e-06
5.474834e-06
5.3591875e-06
5.2448235e-06
5.1317736e-06
5.0200674e-06
4.9097331e-06
4.8007967e-06
4.6932825e-06
4.5872129e-06
4.4826089e-06
4.3794896e-06
4.2778726e-06
4.177774e-06
4.0792088e-06
3.9821906e-06
3.8867322e-06
3.7928456e-06
3.7005425e-06
3.6098342e-06
3.5207326e-06
3.4332509e-06
3.3474041e-06
3.2632115e-06
3.1806979e-06
3.0998982e-06