/*--------------------------------*- C++ -*----------------------------------*\
| =========                 |                                                 |
| \\      /  F ield         | OpenFOAM: The Open Source CFD Toolbox           |
|  \\    /   O peration     | Version:  2206                                  |
|   \\  /    A nd           | Website:  www.openfoam.com                      |
|    \\/     M anipulation  |                                                 |
\*---------------------------------------------------------------------------*/
FoamFile
{
    version     2.0;
    format      ascii;
    arch        "LSB;label=32;scalar=64";
    class       volScalarField;
    location    "1000";
    object      nut;
}
// * * * * * * * * * * * * * * * * * * * * * * * * * * * * * * * * * * * * * //

dimensions      [0 2 -1 0 0 0 0];

internalField   nonuniform List<scalar> 
7480
(
1.5121093e-06
1.8587831e-06
1.5441886e-06
1.0161659e-06
6.0457222e-07
3.7091981e-07
2.585683e-07
2.0378195e-07
1.7340382e-07
1.5361794e-07
1.383305e-07
1.252165e-07
1.1378891e-07
1.0389982e-07
9.5323478e-08
8.7852106e-08
8.1324756e-08
7.5590011e-08
7.0488564e-08
6.5916737e-08
6.1811587e-08
5.8105217e-08
5.4735335e-08
5.1662626e-08
4.8855942e-08
4.6281607e-08
4.3909712e-08
4.1721218e-08
3.9701066e-08
3.7832038e-08
3.6099143e-08
3.4492601e-08
3.3003803e-08
3.1623135e-08
3.0342538e-08
2.9156543e-08
2.8060148e-08
2.7048455e-08
2.6118157e-08
2.5267606e-08
2.4495407e-08
2.3800117e-08
2.3181793e-08
2.2640321e-08
2.2176447e-08
2.1802854e-08
2.1507746e-08
2.1308081e-08
2.1202329e-08
2.1187291e-08
2.1259901e-08
2.1416276e-08
2.1648192e-08
2.1940601e-08
2.2278778e-08
2.2652565e-08
2.3039596e-08
2.3406603e-08
2.3721634e-08
2.3959971e-08
2.4120157e-08
2.4203297e-08
2.4216515e-08
2.4170131e-08
2.407712e-08
2.3949275e-08
2.3797001e-08
2.3628615e-08
2.345008e-08
2.3265819e-08
2.3079193e-08
2.2892183e-08
2.2706052e-08
2.2522132e-08
2.2340756e-08
2.2162111e-08
2.1986267e-08
2.1805968e-08
2.1621819e-08
2.1436004e-08
2.1249404e-08
2.1062465e-08
2.0874463e-08
2.0685117e-08
2.0494373e-08
2.0302199e-08
2.0108901e-08
1.9914559e-08
1.9719614e-08
1.9524211e-08
1.9328649e-08
1.9133061e-08
1.8937885e-08
1.8742041e-08
1.8548744e-08
1.8346331e-08
1.8169641e-08
1.7915505e-08
1.7772298e-08
1.7384692e-08
1.4111775e-06
1.6301722e-06
1.5385826e-06
1.288118e-06
1.0362494e-06
8.1135208e-07
6.4382985e-07
5.1803349e-07
4.2146781e-07
3.467937e-07
2.8967502e-07
2.4639771e-07
2.1353234e-07
1.8823596e-07
1.6835552e-07
1.523677e-07
1.3923083e-07
1.2821109e-07
1.1880594e-07
1.1068248e-07
1.036134e-07
9.7422391e-08
9.1975514e-08
8.717458e-08
8.2848167e-08
7.8915816e-08
7.5333913e-08
7.2080632e-08
6.9142669e-08
6.6508187e-08
6.4169611e-08
6.2124526e-08
6.0371719e-08
5.8910062e-08
5.7741089e-08
5.6869538e-08
5.630236e-08
5.6051645e-08
5.613781e-08
5.659007e-08
5.7445296e-08
5.8748665e-08
6.0555821e-08
6.2931328e-08
6.5956197e-08
6.9714455e-08
7.4262212e-08
7.9653324e-08
8.5901315e-08
9.2998771e-08
1.0091738e-07
1.0965375e-07
1.1901653e-07
1.2878381e-07
1.3874118e-07
1.4856934e-07
1.5779587e-07
1.6599296e-07
1.7290323e-07
1.7849437e-07
1.8288168e-07
1.8625997e-07
1.8881973e-07
1.9063173e-07
1.9186007e-07
1.9264928e-07
1.9311336e-07
1.9333583e-07
1.9337766e-07
1.9328318e-07
1.9308302e-07
1.9279586e-07
1.9243884e-07
1.9202516e-07
1.9155951e-07
1.9104267e-07
1.9045944e-07
1.896575e-07
1.8870142e-07
1.876439e-07
1.8650198e-07
1.8528043e-07
1.8398077e-07
1.826086e-07
1.8116892e-07
1.7966938e-07
1.7811744e-07
1.7652059e-07
1.7488708e-07
1.7322355e-07
1.7153677e-07
1.6983266e-07
1.6811706e-07
1.6639365e-07
1.6466486e-07
1.6293177e-07
1.6121747e-07
1.5926697e-07
1.5789931e-07
1.546505e-07
1.1014342e-06
1.4048425e-06
1.4359105e-06
1.3410382e-06
1.2076864e-06
1.0741638e-06
9.6697003e-07
8.8450821e-07
8.2040416e-07
7.6813227e-07
7.2395304e-07
6.7968274e-07
6.3735999e-07
6.0222314e-07
5.724873e-07
5.4694297e-07
5.2490792e-07
5.0589092e-07
4.8953222e-07
4.7559413e-07
4.6391279e-07
4.5435035e-07
4.4680865e-07
4.4120369e-07
4.3360739e-07
4.2647389e-07
4.1997406e-07
4.1431683e-07
4.0970816e-07
4.0634624e-07
4.0444264e-07
4.0421736e-07
4.0588325e-07
4.0965403e-07
4.157589e-07
4.2443881e-07
4.3595519e-07
4.506426e-07
4.6893416e-07
4.9136398e-07
5.1856518e-07
5.5128368e-07
5.9039175e-07
6.3688153e-07
6.9195056e-07
7.566745e-07
8.3191938e-07
9.1822058e-07
1.0156663e-06
1.1240301e-06
1.2423193e-06
1.3697103e-06
1.5042919e-06
1.6431067e-06
1.7832318e-06
1.9203273e-06
2.0484861e-06
2.162652e-06
2.2600626e-06
2.34061e-06
2.4059231e-06
2.4586955e-06
2.4999087e-06
2.5316403e-06
2.5561734e-06
2.5752953e-06
2.5903677e-06
2.6023619e-06
2.6119772e-06
2.6197161e-06
2.6259164e-06
2.6307783e-06
2.6345009e-06
2.6372319e-06
2.6390167e-06
2.6398544e-06
2.6395222e-06
2.6357459e-06
2.6296124e-06
2.6218827e-06
2.6127899e-06
2.6023998e-06
2.5907474e-06
2.5779238e-06
2.5640069e-06
2.5491107e-06
2.5333403e-06
2.5168033e-06
2.4996129e-06
2.4818624e-06
2.4636459e-06
2.4450486e-06
2.4261478e-06
2.4070208e-06
2.3876392e-06
2.3682607e-06
2.3485352e-06
2.3265958e-06
2.3112042e-06
2.2731505e-06
5.0848452e-07
9.5919364e-07
1.1798479e-06
1.2285176e-06
1.2004646e-06
1.1429425e-06
1.0804446e-06
1.0213957e-06
9.6992922e-07
9.3012744e-07
9.0617281e-07
9.0238864e-07
9.0578565e-07
8.5767727e-07
8.2196484e-07
7.9454051e-07
7.7452764e-07
7.6002431e-07
7.5000567e-07
7.4383623e-07
7.411138e-07
7.4155274e-07
7.4498432e-07
7.5124977e-07
7.5981935e-07
7.7017904e-07
7.8219374e-07
7.9608103e-07
8.1223166e-07
8.3112426e-07
8.533083e-07
8.7939949e-07
9.1007061e-07
9.4605357e-07
9.8814652e-07
1.0372055e-06
1.0941994e-06
1.1604006e-06
1.2374003e-06
1.3270956e-06
1.4316856e-06
1.5536917e-06
1.6959854e-06
1.8617891e-06
2.0547241e-06
2.278074e-06
2.5342679e-06
2.8247604e-06
3.1501118e-06
3.5097315e-06
3.9016671e-06
4.319989e-06
4.761364e-06
5.2180949e-06
5.681733e-06
6.1406329e-06
6.5796771e-06
6.9849294e-06
7.3473272e-06
7.6641461e-06
7.93782e-06
8.1722451e-06
8.3700619e-06
8.5382514e-06
8.6832368e-06
8.8103104e-06
8.9236222e-06
9.0262216e-06
9.1202884e-06
9.2073619e-06
9.2884721e-06
9.364217e-06
9.4351107e-06
9.5015478e-06
9.5636313e-06
9.6212925e-06
9.6740507e-06
9.7002677e-06
9.7154141e-06
9.7242927e-06
9.7276271e-06
9.7256811e-06
9.7186196e-06
9.7067693e-06
9.6904338e-06
9.6700181e-06
9.6458987e-06
9.6184548e-06
9.5880802e-06
9.5551062e-06
9.5198539e-06
9.4826324e-06
9.4437066e-06
9.4033841e-06
9.3615173e-06
9.3192689e-06
9.274656e-06
9.2242094e-06
9.1898577e-06
9.0978469e-06
2.2507593e-07
4.272705e-07
6.9865932e-07
8.9334132e-07
9.8972021e-07
1.023548e-06
1.025069e-06
1.0107801e-06
9.8915011e-07
9.6538572e-07
9.4379887e-07
9.2879117e-07
9.2203938e-07
9.2308119e-07
9.3203833e-07
9.4900962e-07
9.693081e-07
9.5330924e-07
9.2967995e-07
9.1682764e-07
9.1363744e-07
9.1846209e-07
9.3038316e-07
9.4877385e-07
9.732746e-07
1.0037175e-06
1.0384397e-06
1.0774971e-06
1.1214322e-06
1.1707777e-06
1.2261362e-06
1.2882424e-06
1.3580062e-06
1.4365494e-06
1.5252373e-06
1.6256837e-06
1.7395272e-06
1.8684001e-06
2.0150601e-06
2.1828372e-06
2.3755325e-06
2.5974203e-06
2.8532831e-06
3.1484473e-06
3.4886991e-06
3.8789546e-06
4.3211759e-06
4.816616e-06
5.3659445e-06
5.9690195e-06
6.6241574e-06
7.3263355e-06
8.0661914e-06
8.8340586e-06
9.6192596e-06
1.0407997e-05
1.1176477e-05
1.1901475e-05
1.2568161e-05
1.3170738e-05
1.3707835e-05
1.4182083e-05
1.4599836e-05
1.4969494e-05
1.5299654e-05
1.5597981e-05
1.587093e-05
1.6123575e-05
1.6359704e-05
1.6582079e-05
1.6792528e-05
1.6992012e-05
1.7181697e-05
1.736235e-05
1.7534134e-05
1.7696852e-05
1.7849638e-05
1.79867e-05
1.810798e-05
1.8215002e-05
1.8308836e-05
1.8390084e-05
1.8459095e-05
1.8516442e-05
1.8562767e-05
1.8598876e-05
1.8625594e-05
1.8643737e-05
1.8654167e-05
1.8657648e-05
1.8654838e-05
1.8646468e-05
1.8633183e-05
1.8615633e-05
1.859387e-05
1.8569464e-05
1.8540994e-05
1.8499894e-05
1.8478823e-05
1.8402068e-05
1.7530521e-07
2.1588576e-07
3.1856927e-07
4.6495143e-07
6.0525618e-07
7.1034206e-07
7.7988087e-07
8.2292425e-07
8.4803518e-07
8.6129589e-07
8.6699273e-07
8.687088e-07
8.6924557e-07
8.7063385e-07
8.7463402e-07
8.8292395e-07
8.9634504e-07
9.1554045e-07
9.4161586e-07
9.75833e-07
1.0156207e-06
1.0618058e-06
1.0570468e-06
1.056249e-06
1.0670816e-06
1.0882352e-06
1.1196858e-06
1.1617413e-06
1.2148859e-06
1.2798267e-06
1.3575335e-06
1.4493359e-06
1.5571604e-06
1.6840346e-06
1.8350322e-06
2.0181851e-06
2.2359881e-06
2.4752003e-06
2.7408028e-06
3.0384727e-06
3.3740016e-06
3.7535009e-06
4.1837158e-06
4.6725305e-06
5.2299524e-06
5.855269e-06
6.5391754e-06
7.2795762e-06
8.0781998e-06
8.9361877e-06
9.8525737e-06
1.0822787e-05
1.1837003e-05
1.2881823e-05
1.3945995e-05
1.4997404e-05
1.60052e-05
1.6954162e-05
1.7837588e-05
1.8655216e-05
1.9409172e-05
2.0102396e-05
2.0739665e-05
2.1327197e-05
2.1871622e-05
2.2379393e-05
2.2856616e-05
2.3308455e-05
2.3738942e-05
2.4151213e-05
2.454636e-05
2.4923921e-05
2.5288728e-05
2.5641487e-05
2.5981997e-05
2.630956e-05
2.6622484e-05
2.6918946e-05
2.7195739e-05
2.7451466e-05
2.7686042e-05
2.7899716e-05
2.8092706e-05
2.8265576e-05
2.8419109e-05
2.8554375e-05
2.8672563e-05
2.87749e-05
2.8862734e-05
2.8937324e-05
2.8999137e-05
2.9049911e-05
2.9090906e-05
2.912317e-05
2.9147163e-05
2.9164487e-05
2.917556e-05
2.9165193e-05
2.9174957e-05
2.9133695e-05
1.6890582e-07
1.7480084e-07
1.9622504e-07
2.4158847e-07
3.0835836e-07
3.8393161e-07
4.5672215e-07
5.20952e-07
5.7520496e-07
6.1994993e-07
6.562371e-07
6.8540186e-07
7.0891542e-07
7.2822771e-07
7.447935e-07
7.6009026e-07
7.7545483e-07
7.9212503e-07
8.1143387e-07
8.3488201e-07
8.6342739e-07
8.9842986e-07
9.4047588e-07
9.8982692e-07
1.0449895e-06
1.1061123e-06
1.1741461e-06
1.208339e-06
1.2332844e-06
1.2729262e-06
1.3285513e-06
1.4020502e-06
1.4958892e-06
1.6130821e-06
1.7575614e-06
1.9348239e-06
2.1514262e-06
2.4125013e-06
2.7238754e-06
3.0927462e-06
3.5277271e-06
4.039235e-06
4.6406826e-06
5.3514946e-06
6.2043266e-06
6.9691849e-06
7.8045588e-06
8.7620667e-06
9.8393537e-06
1.1030162e-05
1.2321661e-05
1.369048e-05
1.5103297e-05
1.6563487e-05
1.8073058e-05
1.9177859e-05
2.0095387e-05
2.1003239e-05
2.1904152e-05
2.2797446e-05
2.3678014e-05
2.4540626e-05
2.5381791e-05
2.6198938e-05
2.6990518e-05
2.775704e-05
2.8500301e-05
2.9221916e-05
2.9923472e-05
3.0606721e-05
3.1272905e-05
3.192229e-05
3.2555359e-05
3.317219e-05
3.377197e-05
3.4353388e-05
3.4913994e-05
3.5452059e-05
3.5964517e-05
3.6448446e-05
3.6902187e-05
3.7325057e-05
3.7716806e-05
3.8077776e-05
3.8408739e-05
3.8710907e-05
3.8985742e-05
3.9234846e-05
3.9460067e-05
3.9663208e-05
3.984598e-05
4.0010132e-05
4.0157309e-05
4.0289006e-05
4.0406343e-05
4.0510664e-05
4.0605164e-05
4.0668536e-05
4.0744912e-05
4.0789933e-05
1.6818101e-07
1.6866167e-07
1.7195744e-07
1.8125917e-07
1.9895205e-07
2.2489667e-07
2.5727557e-07
2.9357048e-07
3.3180312e-07
3.7051584e-07
4.0854633e-07
4.4498305e-07
4.7922363e-07
5.1094945e-07
5.4013842e-07
5.670522e-07
5.9214714e-07
6.1600552e-07
6.393529e-07
6.6307823e-07
6.8810832e-07
7.1550454e-07
7.4634596e-07
7.8170147e-07
8.223318e-07
8.6917988e-07
9.2355548e-07
9.8583319e-07
1.0558485e-06
1.1347935e-06
1.2243729e-06
1.3267306e-06
1.4276386e-06
1.494875e-06
1.5856977e-06
1.7048001e-06
1.8584574e-06
2.054732e-06
2.3033974e-06
2.6161122e-06
3.0069265e-06
3.4926932e-06
4.0933668e-06
4.8323916e-06
5.738398e-06
6.709721e-06
7.7074735e-06
8.8169414e-06
1.0049586e-05
1.1405545e-05
1.2869552e-05
1.44067e-05
1.5971459e-05
1.7626596e-05
1.9392513e-05
2.0669657e-05
2.1768293e-05
2.2849557e-05
2.3923735e-05
2.4999666e-05
2.6079732e-05
2.7164566e-05
2.8249498e-05
2.9329127e-05
3.0399988e-05
3.1460882e-05
3.2510283e-05
3.3546021e-05
3.4567527e-05
3.5575098e-05
3.65683e-05
3.7546359e-05
3.850834e-05
3.9452954e-05
4.037792e-05
4.128078e-05
4.2158086e-05
4.3006736e-05
4.3823628e-05
4.4605278e-05
4.5348689e-05
4.6051872e-05
4.6713682e-05
4.7333823e-05
4.7912725e-05
4.8451436e-05
4.8951386e-05
4.9414306e-05
4.9842381e-05
5.0237831e-05
5.0603068e-05
5.0940278e-05
5.1251543e-05
5.1538768e-05
5.1803855e-05
5.2047707e-05
5.2276499e-05
5.2464899e-05
5.2652026e-05
5.2845331e-05
1.6814558e-07
1.6787293e-07
1.6803229e-07
1.6934652e-07
1.7271286e-07
1.7877131e-07
1.8775341e-07
1.9960467e-07
2.1418746e-07
2.3138466e-07
2.510624e-07
2.7272761e-07
2.9591159e-07
3.2014166e-07
3.4498168e-07
3.7008206e-07
3.9519523e-07
4.2017487e-07
4.4500036e-07
4.6979802e-07
4.9482284e-07
5.2046231e-07
5.4723697e-07
5.7579296e-07
6.0683511e-07
6.4116996e-07
6.797842e-07
7.2365348e-07
7.736692e-07
8.3099168e-07
8.9717015e-07
9.7363671e-07
1.0619055e-06
1.1633385e-06
1.2801453e-06
1.4151983e-06
1.5722915e-06
1.7565677e-06
1.9284972e-06
2.1214006e-06
2.3731255e-06
2.7010045e-06
3.1275793e-06
3.6821812e-06
4.401829e-06
5.3211552e-06
6.2974661e-06
7.365429e-06
8.5758144e-06
9.9378946e-06
1.1453314e-05
1.311131e-05
1.4888025e-05
1.6777013e-05
1.8774938e-05
2.0624326e-05
2.1909045e-05
2.3189346e-05
2.443752e-05
2.5674425e-05
2.6932714e-05
2.821646e-05
2.9507909e-05
3.0809205e-05
3.2126376e-05
3.3454934e-05
3.4789279e-05
3.6126088e-05
3.746467e-05
3.8802867e-05
4.0136849e-05
4.1464522e-05
4.2784041e-05
4.4092005e-05
4.5383318e-05
4.6653573e-05
4.7897487e-05
4.9109815e-05
5.0286472e-05
5.1423324e-05
5.251619e-05
5.3561756e-05
5.4557671e-05
5.5502516e-05
5.639597e-05
5.7238509e-05
5.8031073e-05
5.8775139e-05
5.947291e-05
6.0126744e-05
6.0739344e-05
6.131331e-05
6.1851091e-05
6.2354907e-05
6.2827431e-05
6.326904e-05
6.3688559e-05
6.4059138e-05
6.4408696e-05
6.4820292e-05
1.6818989e-07
1.6781418e-07
1.6749277e-07
1.6735565e-07
1.6761814e-07
1.6851588e-07
1.7024558e-07
1.7296129e-07
1.7680242e-07
1.819092e-07
1.8841282e-07
1.9639217e-07
2.0587921e-07
2.168567e-07
2.2933863e-07
2.4327661e-07
2.5850057e-07
2.7485161e-07
2.9220185e-07
3.1046227e-07
3.2959217e-07
3.4961156e-07
3.7061326e-07
3.927764e-07
4.1636452e-07
4.4173491e-07
4.69367e-07
4.9985199e-07
5.3387314e-07
5.7225147e-07
6.1601504e-07
6.6635624e-07
7.2465879e-07
7.9249531e-07
8.7182161e-07
9.6460144e-07
1.0735697e-06
1.2023157e-06
1.3546174e-06
1.5353797e-06
1.7516022e-06
2.012647e-06
2.3307261e-06
2.7214824e-06
3.1865526e-06
3.7661241e-06
4.5194756e-06
5.3773546e-06
6.3845976e-06
7.5556857e-06
8.9029891e-06
1.0432745e-05
1.214135e-05
1.402349e-05
1.6074751e-05
1.8246237e-05
2.045283e-05
2.2483065e-05
2.3872651e-05
2.5254533e-05
2.6659089e-05
2.8073223e-05
2.948748e-05
3.0933951e-05
3.2433161e-05
3.3954086e-05
3.5496643e-05
3.7070263e-05
3.86713e-05
4.0292427e-05
4.1929181e-05
4.3581439e-05
4.524457e-05
4.6912037e-05
4.8575042e-05
5.0226417e-05
5.1857622e-05
5.3461066e-05
5.5030982e-05
5.6561472e-05
5.8046814e-05
5.9482377e-05
6.0864167e-05
6.218905e-05
6.345546e-05
6.4662733e-05
6.5810687e-05
6.6900014e-05
6.7932382e-05
6.8909829e-05
6.9834898e-05
7.0710277e-05
7.1538574e-05
7.2322139e-05
7.3064274e-05
7.3764766e-05
7.4434484e-05
7.5047175e-05
7.5615824e-05
7.6319648e-05
1.6824343e-07
1.6785082e-07
1.6745962e-07
1.6708844e-07
1.6677823e-07
1.6658696e-07
1.6657935e-07
1.6682275e-07
1.6739023e-07
1.6836373e-07
1.6983271e-07
1.7188799e-07
1.7461754e-07
1.7810172e-07
1.824168e-07
1.8762992e-07
1.9378886e-07
2.0092444e-07
2.0905546e-07
2.181947e-07
2.2838214e-07
2.3970228e-07
2.5217381e-07
2.6580342e-07
2.8064263e-07
2.9679789e-07
3.144395e-07
3.3381557e-07
3.5525873e-07
3.7919282e-07
4.0615912e-07
4.368334e-07
4.7205242e-07
5.1284165e-07
5.6047814e-07
6.164674e-07
6.8269489e-07
7.6158484e-07
8.5607974e-07
9.6953003e-07
1.1065271e-06
1.2731132e-06
1.47725e-06
1.7293805e-06
2.0427253e-06
2.4337701e-06
2.920734e-06
3.5195823e-06
4.2476378e-06
5.1234364e-06
6.1661468e-06
7.3938057e-06
8.8204671e-06
1.0456243e-05
1.2308491e-05
1.4364325e-05
1.6579554e-05
1.8900353e-05
2.1256835e-05
2.363445e-05
2.5604782e-05
2.7112342e-05
2.8629354e-05
3.0181708e-05
3.1767661e-05
3.3370282e-05
3.5016934e-05
3.6740154e-05
3.8506786e-05
4.0311765e-05
4.2166694e-05
4.4073019e-05
4.6016663e-05
4.7987804e-05
4.9978647e-05
5.197827e-05
5.3974151e-05
5.5957851e-05
5.7920973e-05
5.9853957e-05
6.174927e-05
6.3600415e-05
6.5400649e-05
6.7144519e-05
6.8828471e-05
7.0449756e-05
7.2006382e-05
7.3497489e-05
7.4923334e-05
7.6284924e-05
7.7584051e-05
7.8822912e-05
8.0003944e-05
8.1129266e-05
8.2202542e-05
8.3222869e-05
8.4202467e-05
8.5117064e-05
8.5963493e-05
8.7033388e-05
1.6834515e-07
1.6795299e-07
1.6755452e-07
1.6715113e-07
1.6674927e-07
1.663604e-07
1.6600038e-07
1.6568881e-07
1.6544953e-07
1.6531142e-07
1.6530878e-07
1.6548101e-07
1.6587211e-07
1.6652974e-07
1.6750468e-07
1.6885021e-07
1.7062044e-07
1.7286865e-07
1.7564666e-07
1.7900482e-07
1.829946e-07
1.8767225e-07
1.9309263e-07
1.9930948e-07
2.0638054e-07
2.1437303e-07
2.2337623e-07
2.3355132e-07
2.4510157e-07
2.5818902e-07
2.7301156e-07
2.8985584e-07
3.0911373e-07
3.3130132e-07
3.5709203e-07
3.8733001e-07
4.2307667e-07
4.6569463e-07
5.1692222e-07
5.789194e-07
6.5448861e-07
7.4732416e-07
8.6229193e-07
1.0057353e-06
1.1861662e-06
1.4147396e-06
1.7053662e-06
2.0737304e-06
2.5373619e-06
3.1155551e-06
3.8291956e-06
4.7002693e-06
5.7507991e-06
7.0020671e-06
8.474461e-06
1.0180977e-05
1.2116958e-05
1.4260113e-05
1.6566379e-05
1.9000798e-05
2.1510838e-05
2.405418e-05
2.6628395e-05
2.8804414e-05
3.045863e-05
3.2131745e-05
3.3853345e-05
3.5625783e-05
3.7433268e-05
3.9300626e-05
4.1269302e-05
4.3312448e-05
4.5415118e-05
4.758428e-05
4.9808757e-05
5.2071054e-05
5.4360899e-05
5.6670577e-05
5.8985517e-05
6.1292238e-05
6.358227e-05
6.5845e-05
6.8069626e-05
7.0248305e-05
7.2374329e-05
7.4441471e-05
7.6445072e-05
7.8381685e-05
8.0249099e-05
8.2046407e-05
8.3773827e-05
8.5432269e-05
8.7023354e-05
8.854847e-05
9.0011214e-05
9.1409747e-05
9.2756946e-05
9.4031114e-05
9.5213937e-05
9.6720461e-05
1.685203e-07
1.6817118e-07
1.6780856e-07
1.6743197e-07
1.6704278e-07
1.666437e-07
1.6623881e-07
1.658335e-07
1.6543459e-07
1.6505059e-07
1.6469202e-07
1.6437176e-07
1.6410538e-07
1.6391121e-07
1.6381055e-07
1.6382767e-07
1.6398977e-07
1.6432678e-07
1.6487103e-07
1.6565719e-07
1.6672222e-07
1.6810569e-07
1.6984962e-07
1.7199844e-07
1.745993e-07
1.7770286e-07
1.8136592e-07
1.8565833e-07
1.9066592e-07
1.9648569e-07
2.0323135e-07
2.1104303e-07
2.2009929e-07
2.3067397e-07
2.4314585e-07
2.5786579e-07
2.752643e-07
2.9594478e-07
3.2072522e-07
3.5068874e-07
3.8725816e-07
4.323149e-07
4.8837206e-07
5.5880439e-07
6.4822728e-07
7.6298277e-07
9.1160648e-07
1.1050759e-06
1.3572574e-06
1.6850305e-06
2.1082455e-06
2.6493452e-06
3.3325944e-06
4.1831203e-06
5.2263791e-06
6.486269e-06
7.9803834e-06
9.7160338e-06
1.1684882e-05
1.3870422e-05
1.624173e-05
1.8760514e-05
2.1401218e-05
2.4120713e-05
2.6879927e-05
2.9682437e-05
3.2156269e-05
3.3986704e-05
3.584045e-05
3.775608e-05
3.973812e-05
4.1767725e-05
4.3877324e-05
4.612029e-05
4.8441843e-05
5.0832735e-05
5.3306053e-05
5.584255e-05
5.8419421e-05
6.1027386e-05
6.365583e-05
6.6285707e-05
6.8903935e-05
7.1500449e-05
7.4063037e-05
7.6581187e-05
7.9046705e-05
8.1452128e-05
8.3791742e-05
8.6061724e-05
8.8259531e-05
9.0383699e-05
9.2434058e-05
9.4410458e-05
9.63157e-05
9.8146483e-05
9.9915567e-05
0.0001016037
0.0001031804
0.00010518869
1.6867645e-07
1.6839184e-07
1.6809274e-07
1.6777769e-07
1.6744657e-07
1.6710005e-07
1.6673945e-07
1.6636655e-07
1.6598343e-07
1.6559243e-07
1.6519638e-07
1.6479877e-07
1.6440404e-07
1.6401781e-07
1.6364703e-07
1.6330022e-07
1.6298762e-07
1.6272129e-07
1.6251527e-07
1.6238564e-07
1.6235063e-07
1.6243069e-07
1.6264863e-07
1.6302971e-07
1.6360173e-07
1.6439518e-07
1.6544381e-07
1.6678572e-07
1.6846457e-07
1.7053032e-07
1.7304095e-07
1.7606482e-07
1.7968396e-07
1.8400343e-07
1.891611e-07
1.9532297e-07
2.0269177e-07
2.1152617e-07
2.2217959e-07
2.3520758e-07
2.5122089e-07
2.7093085e-07
2.9535964e-07
3.2594882e-07
3.6472849e-07
4.1455343e-07
4.7943389e-07
5.6495456e-07
6.7884779e-07
8.3165737e-07
1.0374139e-06
1.3142057e-06
1.6845712e-06
2.1750356e-06
2.8149124e-06
3.6341811e-06
4.660181e-06
5.9140794e-06
7.4078496e-06
9.1456773e-06
1.1122609e-05
1.3324415e-05
1.5734969e-05
1.8326939e-05
2.106554e-05
2.3930618e-05
2.6887795e-05
2.9894502e-05
3.2959097e-05
3.5734993e-05
3.7767122e-05
3.9815979e-05
4.1934286e-05
4.4131829e-05
4.6389237e-05
4.8757751e-05
5.1281804e-05
5.3892892e-05
5.6589688e-05
5.9381986e-05
6.2240248e-05
6.5140517e-05
6.8075753e-05
7.1029104e-05
7.3980492e-05
7.6917122e-05
7.9825313e-05
8.2692332e-05
8.5508414e-05
8.826549e-05
9.0956714e-05
9.3576926e-05
9.6122852e-05
9.8591585e-05
0.00010098398
0.00010329439
0.00010553441
0.00010768651
0.00010971243
0.00011228028
1.6876863e-07
1.6852897e-07
1.68279e-07
1.6801692e-07
1.677418e-07
1.6745328e-07
1.671515e-07
1.6683702e-07
1.6651049e-07
1.6617256e-07
1.6582383e-07
1.6546497e-07
1.6509685e-07
1.6472064e-07
1.6433798e-07
1.6395103e-07
1.6356266e-07
1.6317649e-07
1.6279709e-07
1.6243006e-07
1.6208219e-07
1.6176156e-07
1.6147772e-07
1.6124177e-07
1.6106656e-07
1.609668e-07
1.6095924e-07
1.6106301e-07
1.6129994e-07
1.6169497e-07
1.622768e-07
1.6307865e-07
1.6413929e-07
1.6550495e-07
1.672323e-07
1.6939067e-07
1.7206497e-07
1.753607e-07
1.7941328e-07
1.8440796e-07
1.9058165e-07
1.98233e-07
2.0775749e-07
2.1971331e-07
2.3499158e-07
2.5463235e-07
2.8005392e-07
3.1339423e-07
3.5780862e-07
4.178978e-07
5.0029639e-07
6.1450122e-07
7.7396848e-07
9.9730303e-07
1.3091923e-06
1.7404346e-06
2.3262947e-06
3.1018692e-06
4.0959684e-06
5.3272845e-06
6.8042404e-06
8.5275213e-06
1.0495224e-05
1.2700831e-05
1.5130948e-05
1.7772049e-05
2.060173e-05
2.3585921e-05
2.6707523e-05
2.9937109e-05
3.3228539e-05
3.6593108e-05
3.9597005e-05
4.1818013e-05
4.4074141e-05
4.6417033e-05
4.8849116e-05
5.1349049e-05
5.4010959e-05
5.6838487e-05
5.975624e-05
6.2779924e-05
6.590828e-05
6.9102631e-05
7.234286e-05
7.5618203e-05
7.8903752e-05
8.2183502e-05
8.5443442e-05
8.8669041e-05
9.1847967e-05
9.4969906e-05
9.8027069e-05
0.0001010121
0.00010392245
0.00010674886
0.00010950033
0.00011215978
0.00011468585
0.00011786109
1.6881493e-07
1.685986e-07
1.6837566e-07
1.6814468e-07
1.6790468e-07
1.6765498e-07
1.6739529e-07
1.6712567e-07
1.6684631e-07
1.665574e-07
1.6625901e-07
1.6595113e-07
1.6563372e-07
1.6530677e-07
1.6497035e-07
1.6462465e-07
1.6427005e-07
1.6390718e-07
1.6353698e-07
1.6316074e-07
1.6278023e-07
1.6239775e-07
1.6201623e-07
1.6163936e-07
1.6127165e-07
1.609186e-07
1.6058678e-07
1.6028405e-07
1.6001964e-07
1.5980443e-07
1.5965118e-07
1.5957481e-07
1.5959283e-07
1.5972584e-07
1.5999837e-07
1.604399e-07
1.6108597e-07
1.6197982e-07
1.6317497e-07
1.647397e-07
1.6676122e-07
1.6935074e-07
1.7265283e-07
1.7686088e-07
1.8225047e-07
1.8919135e-07
1.9818944e-07
2.0996995e-07
2.2570988e-07
2.4708662e-07
2.7634627e-07
3.1700541e-07
3.7447219e-07
4.5695182e-07
5.7671203e-07
7.5173376e-07
1.007426e-06
1.3772744e-06
1.9008412e-06
2.6180564e-06
3.561743e-06
4.751638e-06
6.195203e-06
7.8923979e-06
9.8402841e-06
1.2037373e-05
1.4480126e-05
1.7156953e-05
2.0056133e-05
2.3157835e-05
2.642692e-05
2.9847563e-05
3.3386769e-05
3.6998644e-05
4.0696771e-05
4.3786041e-05
4.6216057e-05
4.8698401e-05
5.1287889e-05
5.396975e-05
5.6739783e-05
5.9727822e-05
6.2877642e-05
6.6135406e-05
6.9512994e-05
7.2992752e-05
7.6534034e-05
8.0127174e-05
8.3750972e-05
8.7381648e-05
9.100237e-05
9.4595665e-05
9.8148383e-05
0.00010164664
0.00010508321
0.00010844362
0.00011173234
0.00011493145
0.00011799857
0.0001218148
1.6883665e-07
1.6863109e-07
1.6842098e-07
1.6820535e-07
1.6798345e-07
1.6775468e-07
1.6751868e-07
1.6727537e-07
1.6702483e-07
1.6676714e-07
1.6650232e-07
1.6623028e-07
1.6595086e-07
1.6566388e-07
1.6536911e-07
1.6506635e-07
1.6475539e-07
1.6443607e-07
1.6410833e-07
1.6377214e-07
1.6342764e-07
1.6307511e-07
1.6271503e-07
1.6234816e-07
1.6197553e-07
1.6159857e-07
1.6121918e-07
1.6083974e-07
1.604633e-07
1.6009363e-07
1.5973536e-07
1.5939413e-07
1.5907676e-07
1.5879145e-07
1.5854808e-07
1.5835855e-07
1.5823723e-07
1.5820152e-07
1.5827262e-07
1.5847677e-07
1.5884672e-07
1.5942362e-07
1.6025989e-07
1.6142353e-07
1.6300549e-07
1.6512835e-07
1.6795952e-07
1.7173319e-07
1.7679812e-07
1.836688e-07
1.9308835e-07
2.0618281e-07
2.248241e-07
2.5185045e-07
2.9144726e-07
3.5042005e-07
4.3956678e-07
5.7546839e-07
7.8245414e-07
1.0937941e-06
1.5506743e-06
2.197439e-06
3.0728753e-06
4.2026542e-06
5.5969742e-06
7.256217e-06
9.1784454e-06
1.1362427e-05
1.3809702e-05
1.6519719e-05
1.9481265e-05
2.2682643e-05
2.6101386e-05
2.9700198e-05
3.346404e-05
3.7345365e-05
4.1311381e-05
4.5376134e-05
4.8386355e-05
5.1035098e-05
5.3764541e-05
5.661745e-05
5.9559532e-05
6.2673708e-05
6.600827e-05
6.9494573e-05
7.3115177e-05
7.6868602e-05
8.0719498e-05
8.4636322e-05
8.8601842e-05
9.2587743e-05
9.6576552e-05
0.00010054562
0.00010448276
0.00010836614
0.00011219379
0.00011594591
0.00011957459
0.00012404479
1.6884617e-07
1.6864523e-07
1.6844073e-07
1.6823204e-07
1.6801862e-07
1.6780002e-07
1.6757593e-07
1.6734627e-07
1.671111e-07
1.6687048e-07
1.6662446e-07
1.6637303e-07
1.6611608e-07
1.6585349e-07
1.6558508e-07
1.6531066e-07
1.6503001e-07
1.6474291e-07
1.6444912e-07
1.6414841e-07
1.6384058e-07
1.6352541e-07
1.6320277e-07
1.6287255e-07
1.6253472e-07
1.6218938e-07
1.6183673e-07
1.6147717e-07
1.611113e-07
1.6074e-07
1.6036445e-07
1.5998624e-07
1.5960745e-07
1.5923069e-07
1.5885929e-07
1.5849738e-07
1.5815011e-07
1.578238e-07
1.5752629e-07
1.5726725e-07
1.5705868e-07
1.5691555e-07
1.5685671e-07
1.5690611e-07
1.5709475e-07
1.5746345e-07
1.5806694e-07
1.5898014e-07
1.6030937e-07
1.6220893e-07
1.6490444e-07
1.6873387e-07
1.7423038e-07
1.8223098e-07
1.9404019e-07
2.1177122e-07
2.3915627e-07
2.8179427e-07
3.4879529e-07
4.5467732e-07
6.2138924e-07
8.8010136e-07
1.2713123e-06
1.8417028e-06
2.6367261e-06
3.6908034e-06
5.0217888e-06
6.6334338e-06
8.5240528e-06
1.0694185e-05
1.3146246e-05
1.5884706e-05
1.8909085e-05
2.2205919e-05
2.5761928e-05
2.9545242e-05
3.3519492e-05
3.7670732e-05
4.192554e-05
4.6278352e-05
5.0558639e-05
5.3454711e-05
5.6336065e-05
5.933681e-05
6.2461668e-05
6.5692178e-05
6.920288e-05
7.2909576e-05
7.6788057e-05
8.0813135e-05
8.4966561e-05
8.9207665e-05
9.3517201e-05
9.7863398e-05
0.0001022292
0.00010658301
0.00011091503
0.00011520292
0.00011937982
0.00012448677
1.6884975e-07
1.6865057e-07
1.6844829e-07
1.6824248e-07
1.6803279e-07
1.6781886e-07
1.6760044e-07
1.6737747e-07
1.6715e-07
1.669181e-07
1.6668185e-07
1.6644127e-07
1.6619634e-07
1.6594701e-07
1.6569318e-07
1.6543476e-07
1.651716e-07
1.6490357e-07
1.6463049e-07
1.643522e-07
1.6406849e-07
1.6377918e-07
1.6348405e-07
1.6318289e-07
1.6287549e-07
1.6256166e-07
1.6224122e-07
1.6191402e-07
1.6157997e-07
1.6123904e-07
1.6089129e-07
1.605369e-07
1.601762e-07
1.5980971e-07
1.594382e-07
1.5906272e-07
1.5868469e-07
1.58306e-07
1.5792906e-07
1.5755698e-07
1.5719371e-07
1.5684427e-07
1.5651501e-07
1.56214e-07
1.5595161e-07
1.5574125e-07
1.5560065e-07
1.5555357e-07
1.5563276e-07
1.5588457e-07
1.5637594e-07
1.5720576e-07
1.5852541e-07
1.6057145e-07
1.6371755e-07
1.6856853e-07
1.7615376e-07
1.8815549e-07
2.0737382e-07
2.3869921e-07
2.8981163e-07
3.7292436e-07
5.0712101e-07
7.2039825e-07
1.0509678e-06
1.5458858e-06
2.2555929e-06
3.2244375e-06
4.4809696e-06
6.0366513e-06
7.8921422e-06
1.0047379e-05
1.2506987e-05
1.5276501e-05
1.8361841e-05
2.1758008e-05
2.5447683e-05
2.9414979e-05
3.3611337e-05
3.8005887e-05
4.2576425e-05
4.7235178e-05
5.2005543e-05
5.5897967e-05
5.901171e-05
6.2164193e-05
6.5471782e-05
6.888329e-05
7.2539425e-05
7.6452477e-05
8.0569924e-05
8.4868566e-05
8.9317275e-05
9.3888052e-05
9.8552412e-05
0.00010327056
0.00010802315
0.00011278441
0.00011745538
0.00012313372
1.6885047e-07
1.6865176e-07
1.6845015e-07
1.6824536e-07
1.6803714e-07
1.6782521e-07
1.6760938e-07
1.6738959e-07
1.6716588e-07
1.6693833e-07
1.6670701e-07
1.6647196e-07
1.6623321e-07
1.6599075e-07
1.6574456e-07
1.6549459e-07
1.6524078e-07
1.6498306e-07
1.6472135e-07
1.6445556e-07
1.6418556e-07
1.6391125e-07
1.6363248e-07
1.6334912e-07
1.63061e-07
1.6276795e-07
1.624698e-07
1.6216636e-07
1.6185745e-07
1.6154288e-07
1.6122247e-07
1.6089607e-07
1.6056355e-07
1.6022483e-07
1.5987989e-07
1.5952878e-07
1.5917167e-07
1.5880887e-07
1.5844088e-07
1.580684e-07
1.5769243e-07
1.5731434e-07
1.5693593e-07
1.565596e-07
1.5618847e-07
1.5582665e-07
1.5547952e-07
1.5515433e-07
1.5486088e-07
1.5461286e-07
1.544297e-07
1.5433974e-07
1.5438548e-07
1.5463245e-07
1.5518374e-07
1.5620548e-07
1.5797509e-07
1.6095641e-07
1.6593284e-07
1.7426193e-07
1.8822603e-07
2.1164035e-07
2.5110457e-07
3.1684528e-07
4.2503149e-07
6.0023222e-07
8.7740833e-07
1.302404e-06
1.9286297e-06
2.8088892e-06
3.9846328e-06
5.4777001e-06
7.2947571e-06
9.4360823e-06
1.1905803e-05
1.4712289e-05
1.786256e-05
2.1361648e-05
2.5194076e-05
2.9337313e-05
3.3767205e-05
3.8421025e-05
4.3277291e-05
4.827073e-05
5.3369045e-05
5.8446172e-05
6.1816651e-05
6.5165617e-05
6.8625401e-05
7.2229185e-05
7.6025869e-05
8.0147498e-05
8.4483412e-05
8.9068205e-05
9.38314e-05
9.8745391e-05
0.0001037736
0.00010888507
0.00011395881
0.00012006781
1.6884989e-07
1.6865108e-07
1.6844945e-07
1.6824484e-07
1.6803704e-07
1.6782584e-07
1.6761111e-07
1.6739278e-07
1.6717087e-07
1.6694545e-07
1.6671659e-07
1.6648434e-07
1.6624874e-07
1.6600981e-07
1.6576754e-07
1.6552195e-07
1.65273e-07
1.6502068e-07
1.6476496e-07
1.645058e-07
1.6424314e-07
1.6397694e-07
1.6370713e-07
1.6343364e-07
1.6315637e-07
1.6287524e-07
1.6259014e-07
1.6230095e-07
1.6200755e-07
1.6170979e-07
1.6140753e-07
1.6110061e-07
1.6078887e-07
1.6047215e-07
1.6015029e-07
1.5982313e-07
1.5949055e-07
1.5915243e-07
1.5880872e-07
1.5845941e-07
1.5810457e-07
1.5774439e-07
1.5737918e-07
1.5700941e-07
1.5663582e-07
1.5625939e-07
1.5588151e-07
1.555041e-07
1.5512981e-07
1.5476234e-07
1.54407e-07
1.5407149e-07
1.5376728e-07
1.5351192e-07
1.5333288e-07
1.532742e-07
1.5340868e-07
1.5385847e-07
1.5483138e-07
1.5668729e-07
1.6004762e-07
1.6598098e-07
1.7635073e-07
1.9427893e-07
2.2497087e-07
2.7729506e-07
3.6479059e-07
5.0871293e-07
7.4051822e-07
1.1036352e-06
1.6525929e-06
2.446724e-06
3.5393124e-06
4.9661792e-06
6.7423473e-06
8.8714522e-06
1.1356075e-05
1.4206162e-05
1.7431238e-05
2.1036397e-05
2.5020053e-05
2.9353145e-05
3.4008822e-05
3.8935627e-05
4.4086223e-05
4.9436025e-05
5.4877659e-05
6.0442689e-05
6.4715352e-05
6.8302449e-05
7.1944639e-05
7.5747507e-05
7.9688735e-05
8.4023464e-05
8.8613208e-05