/*--------------------------------*- C++ -*----------------------------------*\
| =========                 |                                                 |
| \\      /  F ield         | OpenFOAM: The Open Source CFD Toolbox           |
|  \\    /   O peration     | Version:  2206                                  |
|   \\  /    A nd           | Website:  www.openfoam.com                      |
|    \\/     M anipulation  |                                                 |
\*---------------------------------------------------------------------------*/
FoamFile
{
    version     2.0;
    format      ascii;
    arch        "LSB;label=32;scalar=64";
    class       volScalarField;
    location    "1000";
    object      omega;
}
// * * * * * * * * * * * * * * * * * * * * * * * * * * * * * * * * * * * * * //

dimensions      [0 0 -1 0 0 0 0];

internalField   nonuniform List<scalar> 
7480
(
7569.1051
7590.8144
7571.1115
7538.1554
7512.5648
7498.0761
7491.1188
7487.7287
7485.8495
7484.6258
7483.6805
7482.8697
7482.1632
7481.5519
7481.0217
7480.5599
7480.1565
7479.8021
7479.4868
7479.2043
7478.9506
7478.7216
7478.5134
7478.3235
7478.1501
7477.991
7477.8445
7477.7093
7477.5845
7477.469
7477.3619
7477.2627
7477.1707
7477.0854
7477.0063
7476.933
7476.8653
7476.8028
7476.7453
7476.6928
7476.6451
7476.6021
7476.5639
7476.5305
7476.5018
7476.4788
7476.4605
7476.4482
7476.4417
7476.4407
7476.4452
7476.4549
7476.4692
7476.4873
7476.5082
7476.5313
7476.5552
7476.5779
7476.5973
7476.612
7476.622
7476.6271
7476.6279
7476.625
7476.6193
7476.6114
7476.602
7476.5916
7476.5806
7476.5692
7476.5577
7476.5461
7476.5346
7476.5233
7476.512
7476.501
7476.4901
7476.479
7476.4676
7476.4562
7476.4446
7476.4331
7476.4215
7476.4098
7476.398
7476.3861
7476.3742
7476.3622
7476.3501
7476.3381
7476.326
7476.3139
7476.3018
7476.2897
7476.2778
7476.2653
7476.2544
7476.2387
7476.2298
7476.2059
1003.2454
1574.4123
1842.5167
1920.8102
1937.0712
1923.8928
1863.1772
1797.82
1744.1926
1704.0023
1673.3595
1647.7017
1624.4824
1603.0712
1583.2778
1564.8979
1547.8506
1532.229
1517.8731
1504.566
1492.215
1480.7965
1470.203
1460.3215
1451.1063
1442.5307
1434.5231
1427.0151
1419.9756
1413.3809
1407.1889
1401.3642
1395.8905
1390.7513
1385.9223
1381.3852
1377.131
1373.148
1369.4226
1365.9468
1362.7188
1359.7363
1356.9959
1354.5019
1352.2431
1350.2363
1348.4845
1346.9756
1345.7327
1344.7475
1344.0403
1343.6447
1343.4554
1343.4399
1343.5605
1343.7789
1344.0526
1344.3216
1344.5253
1344.6216
1344.58
1344.3988
1344.124
1343.7469
1343.2667
1342.7067
1342.0883
1341.4324
1340.7547
1340.0669
1339.3779
1338.6945
1338.0203
1337.3585
1336.7116
1336.0794
1335.4646
1334.8582
1334.2555
1333.658
1333.0656
1332.4784
1331.8959
1331.3154
1330.7367
1330.1586
1329.5812
1329.0045
1328.4287
1327.8545
1327.2818
1326.7112
1326.1434
1325.5771
1325.0169
1324.4452
1323.9005
1323.3381
1322.6616
1322.0507
190.66649
396.63294
585.96091
709.21025
769.26333
785.38955
782.09182
789.21468
803.68397
812.8483
819.3325
823.55118
825.05156
824.1556
821.42893
817.41161
811.95085
805.29824
797.71223
789.41102
780.60699
771.50436
762.24672
752.93802
743.68306
734.57633
725.63383
716.85582
708.25844
699.86524
691.69062
683.74458
676.0407
668.59146
661.4041
654.48655
647.84855
641.49024
635.40881
629.6049
624.08463
618.85566
613.9255
609.30528
604.9997
601.02488
597.36
593.9943
590.9212
588.12917
585.65445
583.50224
581.56651
579.81307
578.21692
576.72485
575.275
573.82611
572.37066
570.90318
569.42253
567.9152
566.46319
565.0176
563.56069
562.09518
560.62728
559.16588
557.71933
556.29458
554.8971
553.53133
552.20038
550.90631
549.65092
548.43333
547.25431
546.13604
545.06207
544.0195
543.00167
542.0054
541.02886
540.06843
539.12218
538.1878
537.26406
536.35001
535.44477
534.54837
533.66001
532.77978
531.90778
531.0424
530.18757
529.32693
528.49343
527.65631
526.73673
525.65151
72.002936
121.36493
193.99593
267.72584
324.62859
359.73881
377.80762
386.78211
392.4529
397.56964
404.52022
415.22951
426.21147
437.93557
452.28268
470.55454
485.14591
496.53821
505.30917
511.86895
516.54177
519.61925
521.36049
522.03488
521.95819
521.37679
520.02003
517.83573
514.91182
511.37247
507.33685
502.90877
498.17911
493.22832
488.13099
482.96149
477.76744
472.53187
467.2544
461.95216
456.65138
451.37975
446.16263
441.02437
435.99399
431.06953
426.21506
421.41036
416.64252
411.91906
407.26187
402.76983
398.34459
393.9974
389.76378
385.59876
381.46692
377.41231
373.52391
369.8659
366.46015
363.32432
360.49267
357.88989
355.46632
353.18652
351.0235
348.95845
346.97857
345.07511
343.24202
341.47574
339.77413
338.13483
336.55625
335.03577
333.57253
332.19167
330.88547
329.63838
328.44017
327.28537
326.17121
325.09388
324.05048
323.03775
322.05298
321.09382
320.15789
319.24367
318.34924
317.47341
316.61497
315.77199
314.94568
314.12677
313.3242
312.5726
311.71898
310.76015
55.64205
64.53262
83.911081
111.35021
140.42308
165.53043
184.58474
198.13347
207.7441
214.79046
220.42266
225.66535
230.96176
236.83367
244.10086
253.54905
263.34656
273.15055
282.74686
292.00489
300.83126
309.30622
317.72301
326.71467
337.34618
349.83373
359.69548
366.92848
372.21132
375.99441
378.5841
380.2016
381.02532
381.22296
380.98542
380.52414
379.81722
378.47242
376.48593
373.94258
370.93764
367.55367
363.8586
359.91375
355.7928
351.49512
346.95843
342.15887
337.12382
331.89867
326.53212
321.08435
315.62855
310.17475
304.75917
299.33582
293.93021
288.66487
283.6612
278.99573
274.73221
270.88606
267.41674
264.26751
261.38469
258.72174
256.2391
253.90573
251.69794
249.598
247.59309
245.67519
243.83706
242.07285
240.37854
238.75026
237.18695
235.69145
234.26659
232.90829
231.61081
230.36968
229.18225
228.04524
226.95574
225.91036
224.90587
223.93924
223.00729
222.10753
221.23755
220.39511
219.57801
218.78397
218.01243
217.2584
216.51795
215.84978
215.10082
214.2829
53.509941
54.437548
58.088493
65.265838
75.158982
86.042532
96.434839
105.64214
113.5421
120.26151
125.9669
130.8729
135.18426
139.113
142.94191
147.00997
151.4183
156.26914
161.70846
167.8167
174.15518
180.72246
187.52415
194.61235
202.09918
210.06823
218.05074
225.68875
232.80798
239.34737
245.32045
250.80671
255.9771
261.16168
266.97052
274.12416
281.53844
286.10952
288.75662
290.08687
290.45439
290.07637
289.10556
287.68816
286.00431
284.20305
281.83837
278.81563
275.23603
271.2078
266.83109
262.20398
257.4268
252.53099
247.5688
242.61285
237.7177
232.96634
228.44089
224.19046
220.23604
216.58565
213.22218
210.11733
207.24119
204.56345
202.05501
199.69177
197.45356
195.32385
193.29008
191.34402
189.47825
187.68684
185.96551
184.31036
182.72047
181.19073
179.72258
178.31761
176.97488
175.69243
174.4686
173.30098
172.18713
171.12404
170.10865
169.13785
168.2083
167.31711
166.46149
165.63883
164.84654
164.08217
163.34429
162.62972
161.93106
161.30238
160.63112
159.89031
53.224476
52.808932
52.959326
54.085485
56.273609
59.364108
62.97373
66.789611
70.617975
74.356085
77.933808
81.305111
84.448251
87.361171
90.07479
92.657776
95.180294
97.71293
100.33977
103.15144
106.19097
109.52643
113.24072
117.38477
121.86279
126.72412
131.9392
137.42412
143.08211
148.82924
154.59297
160.31616
165.96763
171.55736
177.14091
182.82429
188.52849
193.80411
198.43894
202.388
205.68786
208.42599
210.75426
212.95194
215.48355
218.48263
219.85916
219.6772
218.49654
216.63058
214.29975
211.70383
209.01037
205.98179
202.56328
199.0586
195.62095
192.29683
189.0468
185.87893
182.81983
179.88415
177.07292
174.38828
171.83055
169.39256
167.06475
164.84027
162.7098
160.66439
158.69699
156.80279
154.97789
153.21956
151.5254
149.89246
148.32042
146.80511
145.34524
143.94246
142.59792
141.31165
140.0832
138.91116
137.79367
136.72842
135.71288
134.74426
133.81942
132.93551
132.08961
131.27909
130.50146
129.75428
129.03583
128.34355
127.67068
127.05821
126.43629
125.73457
53.162334
52.542714
52.021008
51.712923
51.71226
52.047117
52.633164
53.455225
54.479439
55.668443
56.982564
58.383897
59.837192
61.309553
62.775661
64.222937
65.649282
67.059782
68.468842
69.90052
71.380836
72.941085
74.621308
76.467143
78.515122
80.816842
83.429171
86.356003
89.552001
93.015352
96.735703
100.6934
104.86545
109.2323
113.78492
118.52393
123.4294
128.40875
133.35788
138.18047
142.79578
147.14182
151.17539
154.8806
158.27974
161.33874
163.88223
165.77022
167.00301
167.67379
167.93526
167.98756
167.98186
167.24891
165.73666
163.88814
162.06087
160.27993
158.32425
156.29528
154.25504
152.20349
150.13632
148.07545
146.03768
144.02682
142.0492
140.11703
138.22875
136.38491
134.58716
132.83679
131.13445
129.48313
127.88347
126.33392
124.83582
123.38751
121.98703
120.63522
119.33366
118.08351
116.88536
115.7388
114.64266
113.5956
112.59596
111.64165
110.72993
109.85844
109.02461
108.22604
107.46064
106.72617
106.02099
105.34283
104.68679
104.08114
103.48914
102.80765
53.125974
52.475701
51.839242
51.24091
50.71106
50.272518
49.9295
49.684303
49.539058
49.483003
49.49387
49.598221
49.795962
50.077125
50.428166
50.835997
51.29039
51.783181
52.309112
52.86684
53.458176
54.087805
54.76447
55.501515
56.315136
57.226193
58.261266
59.446236
60.802592
62.35618
64.13708
66.147962
68.386098
70.857829
73.574574
76.545196
79.776084
83.259923
86.974041
90.887677
94.964983
99.165486
103.44519
107.758
112.06394
116.26342
120.21212
123.79847
126.93377
129.56166
131.65546
133.2175
134.27858
134.88538
135.04536
134.79681
134.37829
133.84898
132.9991
132.01609
130.99503
129.84874
128.5485
127.16557
125.72561
124.22805
122.69517
121.14572
119.58653
118.02701
116.47652
114.94258
113.43042
111.9524
110.51073
109.10352
107.7354
106.40595
105.11308
103.858
102.64235
101.4676
100.33497
99.244933
98.196842
97.190701
96.226063
95.301681
94.41532
93.565512
92.750412
91.968113
91.217282
90.49599
89.802956
89.136275
88.493025
87.891541
87.317964
86.648276
53.095952
52.439151
51.783109
51.131685
50.491707
49.870521
49.273639
48.705709
48.171509
47.674811
47.217168
46.802659
46.434869
46.115512
45.830054
45.572595
45.355785
45.185078
45.060673
44.981049
44.94411
44.947424
44.990095
45.073605
45.201402
45.378892
45.613999
45.91663
46.298112
46.771809
47.35396
48.060583
48.908216
49.916317
51.108609
52.491637
54.082291
55.899231
57.954027
60.255482
62.812804
65.632746
68.719499
72.074543
75.697819
79.56867
83.604177
87.702244
91.758658
95.666165
99.319415
102.61998
105.48353
107.85449
109.6943
110.92545
111.55559
111.76222
111.74509
111.56483
111.32644
110.96293
110.42158
109.77355
109.0165
108.09422
107.07019
105.96909
104.79637
103.57356
102.31715
101.04257
99.76021
98.502336
97.263734
96.041887
94.840207
93.660543
92.503088
91.369395
90.261324
89.180671
88.129354
87.108778
86.118423
85.159925
84.235446
83.344515
82.485553
81.657825
80.86043
80.092123
79.352818
78.640737
77.955225
77.294939
76.658552
76.057448
75.492662
74.827828
53.06959
52.40941
51.748198
51.086224
50.424609
49.764898
49.108855
48.458514
47.816281
47.184761
46.566426
45.963828
45.379548
44.815995
44.273885
43.753346
43.255772
42.782952
42.336507
41.917603
41.521873
41.139013
40.773815
40.435778
40.130932
39.862782
39.633951
39.446717
39.303564
39.20858
39.167867
39.188869
39.280313
39.452489
39.717783
40.088771
40.580448
41.211169
42.000949
42.96098
44.111373
45.474142
47.073347
48.93517
51.088141
53.562764
56.377754
59.521458
62.964271
66.653241
70.510882
74.435387
78.304018
81.986538
85.359919
88.282926
90.625357
92.357248
93.520757
94.224983
94.588944
94.757789
94.786614
94.71154
94.547451
94.224589
93.784264
93.226236
92.520367
91.714672
90.829413
89.893405
88.916493
87.933301
86.937458
85.930036
84.916827
83.901818
82.888112
81.879546
80.879439
79.890934
78.917467
77.961844
77.025744
76.111537
75.221736
74.357562
73.519329
72.707335
71.921628
71.161945
70.42826
69.719891
69.036801
68.378008
67.743535
67.139998
66.577475
65.912923
53.031585
52.367523
51.702595
51.036562
50.369408
49.701177
49.032131
48.362863
47.694292
47.027563
46.363917
45.704664
45.051182
44.4049
43.767136
43.139069
42.521891
41.916834
41.325155
40.748095
40.18634
39.639505
39.10775
38.592203
38.094487
37.616374
37.158966
36.716478
36.28373
35.869307
35.483623
35.133873
34.825179
34.561549
34.34669
34.18578
34.085873
34.055966
34.106879
34.25009
34.499466
34.872148
35.38774
36.066074
36.935208
38.029632
39.388894
41.051882
43.054615
45.424786
48.174738
51.293042
54.735806
58.422081
62.237216
66.027735
69.605917
72.798496
75.475234
77.599098
79.181275
80.300691
81.05549
81.523788
81.795843
81.9373
81.959838
81.885486
81.677883
81.358888
80.923485
80.394345
79.79126
79.122024
78.394465
77.622065
76.815247
75.980189
75.123355
74.251555
73.370156
72.484204
71.59894
70.718553
69.846455
68.986255
68.141138
67.313498
66.505045
65.71705
64.950456
64.205863
63.483775
62.784291
62.107793
61.453672
60.822992
60.219461
59.658736
58.995579
52.973207
52.294052
51.616385
50.93985
50.264025
49.588407
48.91263
48.236623
47.560604
46.884978
46.210237
45.536914
44.865587
44.196883
43.531471
42.870048
42.213348
41.562144
40.917244
40.279496
39.649726
39.028637
38.416877
37.815146
37.224232
36.64501
36.078369
35.524514
34.983098
34.454717
33.941023
33.444234
32.966501
32.503968
32.049772
31.613758
31.208345
30.841592
30.519113
30.244936
30.024028
29.864066
29.77504
29.768995
29.86133
30.072344
30.427406
30.956559
31.698447
32.698332
34.006212
35.672519
37.740815
40.236416
43.154026
46.443071
49.993492
53.641181
57.189054
60.459704
63.316423
65.690038
67.584844
69.025969
70.073824
70.816068
71.309575
71.626211
71.816482
71.887914
71.860355
71.722704
71.493601
71.182968
70.771327
70.283986
69.734269
69.127031
68.470671
67.775055
67.047867
66.296006
65.526917
64.746534
63.960193
63.173349
62.390305
61.61476
60.849853
60.097955
59.361073
58.640746
57.938208
57.254358
56.590144
55.945495
55.322333
54.722598
54.165287
53.505613
52.922338
52.222325
51.524728
50.829571
50.136642
49.445514
48.755771
48.067187
47.379773
46.693708
46.009251
45.326683
44.646297
43.9684
43.29331
42.621359
41.952893
41.288282
40.627908
39.97218
39.321526
38.676378
38.037177
37.404373
36.778443
36.159889
35.54925
34.947028
34.353634
33.769498
33.195179
32.631413
32.079067
31.538484
31.009234
30.492035
29.988895
29.502433
29.033544
28.57252
28.123774
27.702653
27.318989
26.978973
26.687255
26.450982
26.281277
26.193122
26.206548
26.34815
26.652096
27.160899
27.927996
29.014658
30.484088
32.389739
34.756509
37.558722
40.705177
44.048437
47.407573
50.603928
53.501921
56.0095
58.086694
59.752902
61.037467
61.987581
62.676804
63.149699
63.469439
63.658909
63.738127
63.737092
63.645249
63.469585
63.222376
62.887769
62.47486
61.999197
61.468287
60.888302
60.269842
59.620495
58.947324
58.258289
57.558954
56.854617
56.150146
55.449193
54.755096
54.070492
53.39753
52.73803
52.093634
51.464949
50.854682
50.263803
49.713301
49.06057
52.892378
52.177669
51.464594
50.753495
50.044498
49.337491
48.632291
47.928785
47.227004
46.527109
45.829329
45.133925
44.44117
43.751343
43.064725
42.381599
41.702249
41.02696
40.356017
39.689705
39.028309
38.372112
37.721394
37.076431
36.437498
35.804868
35.178815
34.559615
33.947529
33.342817
32.745745
32.156613
31.575762
31.003515
30.440106
29.885818
29.341115
28.806686
28.283224
27.770247
27.267852
26.777891
26.303078
25.844089
25.389535
24.949267
24.539683
24.170389
23.848349
23.582175
23.386278
23.281074
23.294744
23.46556
23.843528
24.489854
25.475264
26.867181
28.709599
31.001429
33.682047
36.632652
39.699546
42.719048
45.544817
48.076815
50.254908
52.055754
53.503541
54.627162
55.466381
56.076815
56.499005
56.775629
56.948525
57.03095
57.040222
56.970512
56.821862
56.605694
56.311273
55.940005
55.510518
55.028204
54.500484
53.939191
53.349966
52.7401
52.11672
51.484814
50.849452
50.214562
49.583443
48.959076
48.343918
47.739429
47.149102
46.573501
46.034939
45.394071
52.877467
52.154733
51.432745
50.711934
49.992576
49.274759
48.558484
47.843771
47.130714
46.41949
45.710336
45.00352
44.299326
43.598047
42.899982
42.20543
41.51469
40.828062
40.145842
39.46832
38.795787
38.128524
37.466806
36.810901
36.16107
35.517563
34.880618
34.250467
33.627325
33.011395
32.402866
31.801918
31.208722
30.623439
30.046212
29.477174
28.916466
28.364258
27.820754
27.286057
26.760253
26.243609
25.736659
25.239926
24.752554
24.274991
23.809586
23.359464
22.917065
22.481609
22.07445
21.708555
21.393808
21.143405
20.97909
20.932138
21.045871
21.377149
21.99294
22.96177
24.339391
26.147294
28.35716
30.886638
33.609812
36.383196
39.068005
41.547223
43.747164
45.628394
47.1787
48.421731
49.383617
50.09656
50.616459
50.981019
51.217824
51.360109
51.4316
51.433711
51.363487
51.220031
51.016181
50.73528
50.385599
49.986448
49.537399
49.049318
48.532065
47.99115
47.433995
46.865862
46.291495
45.715385
45.140933
44.570709
44.00907
43.456597
42.936828
42.314298
52.870879
52.144073
51.417447
50.691438
49.966365
49.242399
48.519634
47.798164
47.078119
46.359689
45.643109
44.928642
44.216571
43.507191
42.800803
42.097712
41.398225
40.702649
40.011288
39.324444
38.642417
37.9655
37.293981
36.628141
35.968256
35.314592
34.667405
34.026942
33.39344
32.767124
32.148202
31.536873
30.933318
30.337704
29.75018
29.170877
28.599908
28.037372
27.483356
26.937926
26.401122
25.872984
25.353578
24.842998
24.341195
23.84817
23.364187
22.889823
22.424705
21.968467
21.523392
21.093013
20.670348
20.257311
19.878271
19.548525
19.2825
19.103894
19.047634
19.160951
19.503048
20.139064
21.128575
22.510347
24.284373
26.402599
28.772352
31.270484
33.768021
36.148599
38.318843
40.224175
41.838133
43.155772
44.205531
45.011696
45.606762
46.035632
46.33741
46.527226
46.632412
46.680246
46.663109
46.577992
46.427737
46.225704
45.944404
45.607185
45.225063
44.800585
44.345101
43.864329
43.364822
42.852956
42.333091
41.809325
41.286972
40.767048
40.274654
39.678596
52.868686
52.139827
51.410819
50.682095
49.953987
49.226706
48.500396
47.775185
47.051227
46.328711
45.607865
44.888941
44.172212
43.457964
42.74649
42.038087
41.333058
40.631703
39.934323
39.241218
38.552684
37.869013
37.190493
36.517406
35.850029
35.188632
34.533476
33.884816
33.242899
32.607961
31.980228
31.359915
30.747228
30.142357
29.54548
28.956762
28.376349
27.804373
27.240949
26.686172
26.14012
25.602849
25.0744
24.554804
24.044064
23.542165
23.049112
22.564957
22.08969
21.623253
21.165858
20.718099
20.279664
19.850564
19.433832
19.034009
18.637407
18.267387
17.946319
17.691736
17.529373
17.496759
17.643128
18.026095
18.706252
19.732599
21.126662
22.870258
24.901021
27.121387
29.413755
31.663058
33.770899
35.662608
37.301173
38.670861
39.777256
40.649556
41.30884
41.790417
42.130378
42.365257
42.500232
42.572325
42.588365
42.545208
42.438613
42.277309
42.060003
41.777275
41.450145
41.080368
40.677174
40.248899
39.800399
39.337932
38.867681
38.391628
37.936963
37.377384
52.868855
52.138956
51.408705
50.67853
49.948773
49.219673
48.491407
47.76413
47.038009
46.313236
45.590032
44.86864
44.149323
43.432355
42.718019
42.006603
41.298398
40.593697
39.892792
39.195973
38.503528
37.81574
37.132891
36.455254
35.783099
35.11669
34.456282
33.802127
33.154465
32.513532
31.879552
31.252743
30.633312
30.021458
29.417367
28.821215
28.233168
27.653376
27.08198
26.519103
25.964856
25.419334
24.882614
24.354762
23.835823
23.32583
22.824806
22.332768
21.849729
21.375688
20.910664
20.454736
20.007933
19.570274
19.142138
18.724391
18.316107
17.91946
17.53922
17.166812
16.820078
16.524156
16.298203
16.170566
16.18103
16.379703
16.821961
17.563081
18.639367
20.056337
21.779157
23.733586
25.818688
27.922461
29.943554
31.799913
33.436081
34.830703
35.975778
36.887413
37.59346
38.115145
38.486711
38.746618
38.914201
38.992991
39.031668
39.014879
38.942289
38.81489
38.642701
38.406732
38.123034
37.800726
37.443215
37.06005
36.657366
36.238962
35.834232
35.323502
52.870344
52.139925
51.409012
50.678032
49.947335
49.217181
48.487774
47.759295
47.031925
46.305859
45.581317
44.858538
44.137776
43.419298
42.703378
41.990296
41.280336
40.573781
39.870915
39.17202
38.477376
37.787258
37.101936
36.421679
35.746745
35.07739
34.413861
33.7564
33.105241
32.460609
31.822722
31.191791
30.568016
29.95159
29.342697
28.74151
28.148194
27.562902
26.985777
26.416953
25.856549
25.304676
24.76143
24.226895
23.701145
23.184241
22.676234
22.177169
21.687083
21.206011
20.733983
20.271038
19.817213
19.372544
18.937105
18.511058
18.09443
17.687496
17.291066
16.904727
16.530469
16.173373
15.825025
15.508799
15.246772
15.059484
14.978221
15.045495
15.311043
15.829148
16.647642
17.788415
19.240061
20.950653
22.835399
24.791275
26.714003
28.517321
30.134853
31.530322
32.695459
33.631338
34.36171
34.911373
35.30918
35.579496
35.764783
35.867452
35.91029
35.910623
35.861134
35.760542
35.615773
35.422374
35.176082
34.893149
34.575918
34.231835
33.891242
33.44472
52.872601
52.141935
51.410671
50.679229
49.947963
49.217156
48.487033
47.757797
47.029645
46.30278
45.577423
44.853812
44.132198
43.412841
42.696012
41.981984
41.271036
40.563444
39.859488
39.159443
38.463581
37.772173
37.085482
36.403768
35.727286
35.056281
34.390996
33.731662
33.078506
32.431747
31.791593
31.158247
30.531903
29.912744
29.300947
28.696677
28.100093
27.511343
26.930565
26.357887
25.79343
25.2373
24.689598
24.15041
23.619817
23.097886
22.584679
22.08025
21.584646
21.097913
20.620094
20.151231
19.691366
19.240544
18.798815
18.366242
17.942884
17.528819
17.1242
16.729087
16.343767
15.969126
15.604792
15.253654
14.921237
14.599681
14.317656
14.093972
13.95232
13.927417
14.063998
14.41282
15.025274
15.937953
17.156552
18.649933
20.348888
22.160345
23.98171
25.719675
27.304532
28.687789
29.852154
30.797868
31.54109
32.105536
32.514847
32.799794
32.990587
33.106597
33.153617
33.163967
33.130096
33.050504
32.928233
32.767477
32.553322
32.302583
32.042211
31.678402
52.875321
52.144561
51.413116
50.6814
49.949773
49.218531
48.487922
47.758167
47.029479
46.302071
45.576168
44.85201
44.129845
43.409932
42.692539
41.977935
41.266395
40.558193
39.853602
39.152895
38.45634
37.764203
37.076744
36.394217
35.716872
35.04495
34.378688
33.718314
33.064047
32.4161
31.774677
31.139973
30.512175
29.891461
29.278001
28.671952
28.073468
27.482688
26.899744
26.32476
25.757848
25.199112
24.648645
24.106532
23.572849
23.047662
22.53103
22.023003
21.52363
21.032952
20.551007
20.077835
19.613473
19.157958
18.711332
18.273639
17.844925
17.425237
17.014629
16.613144
16.220841
15.83787
15.464295
15.100544
14.74771
14.405641
14.078271
13.766575
13.477001
13.232719
13.0527
12.96511
13.008854
13.230815
13.682593
14.409792
15.432051
16.735611
18.267139
19.941863
21.66188
23.33042
24.870468
26.229245
27.381145
28.324574
29.067198
29.634888
30.049203
30.340143
30.531576
30.653177
30.708018
30.720823
30.698225
30.634594
30.53165
30.393189
30.22913
29.96839
52.878332
52.147562
51.416033
50.684153
49.952285
49.220737
48.489773
47.759634
47.030545
46.302732
45.576426
44.851868
44.129309
43.409007
42.691226
41.976235
41.264306
40.55571
39.85072
39.149603
38.452627
37.760053
37.07214
36.389139
35.711295
35.038849
34.372033
33.71107
33.056178
32.407565
31.765432
31.129968
30.501358
29.879774
29.26538
28.658331
28.058773
27.466841
26.882664
26.306357
25.738028
25.177775
24.625688
24.081845
23.546318
23.019167
22.500446
21.990201
21.488472
20.995295
20.510701
20.034717
19.567371
19.108689
18.658697
18.217422
17.784896
17.361146
16.946201
16.540084
16.142812
15.754412
15.374902
15.004346
14.64293
14.290786
13.948553
13.616902
13.29733
12.994454
12.706202
12.451637
12.248551
12.119325
12.097214
12.225334
12.553595
13.131294
13.991101
15.131893
16.514822
18.064564
19.6862
21.282771
22.772038
24.098116
25.227427
26.155355
26.888877
27.450462
27.862659
28.151905
28.342401
28.463352
28.524112
28.538012
28.524588
28.473571
28.405196
28.265538
52.881531
52.150799
51.419243
50.687266
49.95523
49.223454
48.492216
47.761773
47.032364
46.304225
45.577595
44.852719
44.129849
43.409243
42.691167
41.975887
41.263673
40.554797
39.849527
39.14813
38.450873
37.758014
37.069809
36.38651
35.708358
35.035593
34.368443
33.707132
33.051873
32.402874
31.76033
31.124432
30.495358
29.87328
29.258358
28.650744
28.05058
27.458
26.873125
26.296069
25.726937
25.165822
24.612809
24.067973
23.531382
23.003091
22.483149
21.971599
21.468474
20.973803
20.487609
20.009911
19.540726
19.080069
18.627952
18.184388
17.749389
17.322968
16.905135
16.495895
16.09525
15.703195
15.319723
14.944826
14.578515
14.220811
13.871807
13.531671
13.200741
12.879941
12.569755
12.273382
11.994662
11.736731
11.520149
11.363713
11.295612
11.3548
11.58902
12.048917
12.775459
13.778899
15.032124
16.469134
17.998467
19.524025
20.959434
22.244305
23.342954
24.246826
24.963586
25.511445
25.916
26.197318
26.384638
26.501972
26.566525
26.585244
26.592362
26.547596
52.884855
52.154187
51.422639
50.690606
49.95845
49.226497
48.495039
47.764343
47.034664
46.306248
45.579341
44.854192
44.131057
43.410196
42.691873
41.976355
41.263912
40.554813
39.849326
39.147718
38.450251
37.757185
37.068774
36.385268
35.706907
35.03393
34.366563
33.705029
33.04954
32.400301
31.757507
31.121347
30.491997
29.869627
29.254396
28.646453
28.045939
27.452984
26.86771
26.290226
25.720634
25.159027
24.605485
24.060083
23.522882
22.993938
22.473296
21.960992
21.457058
20.961518
20.474389
19.995684
19.525412
19.063578
18.610186
18.165236
17.728728
17.30066
16.881027
16.469821
16.067029
15.672633
15.286607
14.908923
14.539552
14.178466
13.825646
13.481096
13.144858
12.817087
12.497977
12.188132
11.888603
11.600737
11.328743
11.073638
10.851243
10.678525
10.579509
10.589211
10.752646
11.12068
11.738975
12.628254
13.770488
15.108128
16.553212
18.009242
19.388465
20.627203
21.689231
22.562503
23.25629
23.784059
24.174045
24.44486
24.627461
24.74224
24.822188
24.849504
52.888263
52.157674
51.426154
50.694091
49.961847
49.229753
48.49811
47.767199
47.037284
46.308622
45.581468
44.856075
44.132702
43.411612
42.69307
41.977342
41.264699
40.555408
39.849737
39.147951
38.450313
37.757081
37.068509
36.384843
35.706326
35.033192
34.36567
33.703979
33.048332
32.398931
31.755973
31.119642
30.490116
29.867562
29.252139
28.643995
28.043269
27.450089
26.864576
26.286839
25.716978
25.155082
24.601233
24.055501
23.517948
22.988626
22.467578
21.95484
21.450439
20.954396
20.466725
19.987435
19.516531
19.054011
18.599873
18.154108
17.716708
17.287661
16.866952
16.454561
16.050466
15.654636
15.267035
14.887623
14.516356
14.153184
13.798061
13.45094
13.111785
12.780579
12.457333
12.142129
11.83518
11.536848
11.248031
10.969634
10.704792
10.456763
10.233349
10.051589
9.9322267
9.9067196
10.017326
10.314526
10.846679
11.642518
12.691657
13.942858
15.311481
16.701066
18.023644
19.213294
20.234256
21.071578
21.735342
22.238901
22.611618
22.871301
23.061806
23.178031
52.891727
52.161224
51.429744
50.697668
49.965359
49.233149
48.501348
47.770248
47.040123
46.311239
45.583858
44.858239
44.134646
43.413343
42.694597
41.978675
41.265847
40.55638
39.850542
39.148597
38.450808
37.757431
37.06872
36.38492
35.706273
35.033014
34.365368
33.703556
33.047788
32.398268
31.755189
31.118738
30.489089
29.86641
29.250859
28.642582
28.041718
27.448395
26.862732
26.284837
25.71481
25.152739
24.598703
24.052774
23.51501
22.985463
22.464176
21.951181
21.446506
20.950169
20.462182
19.982552
19.51128
19.048361
18.593788
18.147548
17.709628
17.280008
16.858667
16.445579
16.040712
15.644029
15.255486
14.875034
14.50262
14.138185
13.781668
13.433007
13.092139
12.759004
12.433551
12.11574
11.805565
11.503065
11.208392
10.921796
10.643932
10.375821
10.119488
9.8792598
9.6584387
9.472803
9.3408485
9.2909667
9.3630067
9.6064393
10.071395
10.792103
11.76426
12.94147
14.24189
15.569198
16.835836
17.974444
18.949557
19.746494
20.377403
20.855094
21.223938
21.473724
52.895227
52.164813
51.433379
50.701303
49.968943
49.236637
48.5047
47.773431
47.043115
46.314027
45.586434
44.860604
44.136803
43.415297
42.696356
41.980249
41.267244
40.55761
39.851614
39.14952
38.451589
37.758078
37.069239
36.385319
35.706556
35.033186
34.365434
33.703519
33.047651
32.398034
31.75486
31.118314
30.488572
29.865799
29.250154
28.641782
28.040821
27.4474
26.861635
26.283635
25.713499
25.151314
24.59716
24.051105
23.51321
22.983524
22.46209
21.94894
21.4441
20.947587
20.459412
19.97958
19.50809
19.044936
18.590108
18.143591
17.705366
17.275412
16.853702
16.440205
16.034885
15.6377
15.248601
14.867534
14.494438
14.129249
13.7719
13.422318
13.08043
12.746163
12.419442
12.100196
11.78836
11.483881
11.18673
10.896913
10.614523
10.339776
10.073139
9.8156285
9.5685909
9.3355898
9.1201439
8.9346503
8.7959559
8.7300693
8.7747107
8.9782347
9.3918272
10.053448
10.963429
12.078651
13.319316
14.588896
15.800098
16.885587
17.813266
18.56796
19.181083
19.637061
52.89875
52.168423
51.43704
50.70497
49.972572
49.240183
48.508126
47.776706
47.046216
46.316938
45.589147
44.863116
44.139115
43.417415
42.698286
41.981998
41.268821
40.559025
39.852875
39.150636
38.452569
37.758929
37.069968
36.385932
35.707061
35.033588
34.365738
33.70373
33.047773
32.39807
31.754813
31.118187
30.488367
29.865518
29.249798
28.641352
28.040317
27.446821
26.860982
26.282907
25.712693
25.150429
24.596194
24.050055
23.512073
22.982297
22.460769
21.94752
21.442576
20.945954
20.457663
19.977709
19.506088
19.042794
18.587814
18.141132
17.702728
17.272576
16.850649
16.436912
16.031326
15.633846
15.244419
14.862988
14.489488
14.123853
13.766009
13.415879
13.073385
12.738446
12.410978
12.0909
11.778127
11.47258
11.174182
10.882867
10.598589
10.321334
10.051152
9.7882222
9.5328847
9.2859402
9.0485814
8.8237204
8.6152678
8.4323758
8.2911146
8.2153583
8.2412823
8.4160191
8.7916293
9.4081986
10.269812
11.334551
12.523426
13.738907
14.897127
15.929283
16.828348
17.550106
52.902284
52.172043
51.44071
50.708652
49.976223
49.243764
48.511601
47.780044
47.049393
46.319938
45.59196
44.865737
44.141545
43.419655
42.700343
41.983879
41.270534
40.560577
39.854275
39.151893
38.453691
37.759924
37.070844
36.386696
35.707719
35.034146
34.366202
33.704105
33.048064
32.398281
31.754948
31.11825
30.48836
29.865444
29.249659
28.64115
28.040054
27.446498
26.860599
26.282464
25.712191
25.149868
24.595573
24.049374
23.511331