/*--------------------------------*- C++ -*----------------------------------*\
| =========                 |                                                 |
| \\      /  F ield         | OpenFOAM: The Open Source CFD Toolbox           |
|  \\    /   O peration     | Version:  2206                                  |
|   \\  /    A nd           | Website:  www.openfoam.com                      |
|    \\/     M anipulation  |                                                 |
\*---------------------------------------------------------------------------*/
FoamFile
{
    version     2.0;
    format      ascii;
    arch        "LSB;label=32;scalar=64";
    class       volScalarField;
    location    "1000";
    object      p;
}
// * * * * * * * * * * * * * * * * * * * * * * * * * * * * * * * * * * * * * //

dimensions      [0 2 -2 0 0 0 0];

internalField   nonuniform List<scalar> 
7480
(
0.054679702
0.042425788
0.028304439
0.01649761
0.0058918246
0.00044635571
-0.00080808112
0.000208903
0.0017625388
0.002793468
0.0032695093
0.0034730021
0.003564564
0.0035939029
0.0035961385
0.0036008347
0.0036094604
0.0036041876
0.003588389
0.0035711569
0.0035513353
0.003524761
0.0034942785
0.0034632443
0.0034303922
0.0033933232
0.0033534503
0.0033123202
0.0032690474
0.0032228261
0.0031747668
0.0031256328
0.0030748045
0.0030220907
0.0029683507
0.002914183
0.0028596273
0.0028053487
0.0027525852
0.0027023525
0.0026554918
0.0026135657
0.002579088
0.0025544462
0.0025439946
0.0025513096
0.0025816962
0.0026342498
0.002707404
0.0028020409
0.0029164281
0.0030477107
0.0031914254
0.0033412796
0.0034950871
0.0036464347
0.0037772605
0.0038747562
0.0039307895
0.0039487727
0.0039305803
0.0038823854
0.0038134723
0.003730954
0.0036399616
0.0035445107
0.0034479493
0.0033515445
0.0032561924
0.0031624293
0.0030703682
0.0029795101
0.0028898711
0.0028014304
0.002713401
0.0026263598
0.0025393881
0.0024503544
0.0023596834
0.002267502
0.0021746153
0.0020806222
0.0019843524
0.0018868817
0.0017873146
0.0016862862
0.0015836226
0.0014793796
0.0013741942
0.0012676551
0.0011610696
0.0010541361
0.00094867152
0.00084406181
0.00074710194
0.00064442175
0.00059240483
0.00030977977
0.00083654415
-0.00087451591
0.049702986
0.039190133
0.027238849
0.01634877
0.0064924934
0.0012473451
-0.00010134627
0.00067836908
0.0019893908
0.0029173453
0.0033472165
0.0035321959
0.0036153903
0.0036379072
0.0036362282
0.0036396317
0.0036421078
0.003631328
0.003612445
0.0035928179
0.0035708152
0.0035422664
0.0035101633
0.0034777372
0.0034436088
0.0034053816
0.0033645077
0.0033224823
0.0032783749
0.00323139
0.0031826493
0.0031328903
0.0030814757
0.0030282194
0.002973981
0.0029193465
0.0028643482
0.0028096518
0.0027564913
0.002705875
0.0026586405
0.0026163505
0.0025815157
0.0025565183
0.0025457705
0.0025531124
0.0025828911
0.0026349158
0.0027077508
0.0028020831
0.0029161986
0.0030472474
0.003190768
0.0033404781
0.0034941997
0.0036455133
0.0037763601
0.0038739574
0.0039301438
0.0039482894
0.0039303019
0.0038822842
0.0038135144
0.0037311094
0.0036401992
0.0035448036
0.0034482764
0.0033518897
0.0032565445
0.0031627806
0.0030707133
0.0029798459
0.0028901957
0.0028017424
0.0027137002
0.0026266466
0.0025396687
0.0024506343
0.00235996
0.0022677725
0.0021748792
0.0020808797
0.0019846042
0.0018871284
0.0017875563
0.001686523
0.0015838542
0.001479606
0.0013744152
0.0012678706
0.0011612793
0.00105434
0.0009488698
0.00084425435
0.00074729003
0.00064460206
0.00059265082
0.00031076224
0.00083876101
-0.00087399128
0.045643783
0.037509545
0.026875757
0.016623176
0.0078671037
0.002775772
0.0010713864
0.0013401009
0.002325727
0.0031016443
0.0034681609
0.0036330711
0.0037035394
0.003711023
0.0037003785
0.0036967771
0.0036906018
0.0036724633
0.0036487812
0.0036254391
0.0035998239
0.0035678917
0.0035332393
0.0034986794
0.0034625058
0.0034224383
0.0033800888
0.0033367955
0.0032914853
0.0032434042
0.0031937308
0.0031431352
0.0030909271
0.0030369445
0.0029820595
0.0029268282
0.0028712655
0.0028160487
0.0027624079
0.0027113348
0.0026636581
0.0026209456
0.0025857051
0.00256031
0.0025492013
0.0025566907
0.0025859411
0.0026371564
0.0027096124
0.0028035604
0.0029173126
0.0030480192
0.0031912171
0.003340641
0.003494147
0.0036452935
0.0037759969
0.0038735561
0.0039298385
0.0039480821
0.0039303098
0.003882486
0.0038138826
0.0037316184
0.0036408127
0.0035454874
0.0034490018
0.0033526327
0.0032572884
0.0031635136
0.0030714273
0.0029805355
0.0028908581
0.0028023759
0.0027143039
0.0026272211
0.0025402143
0.0024511576
0.0023604671
0.002268262
0.0021753514
0.0020813354
0.0019850451
0.0018875564
0.0017879719
0.0016869272
0.0015842472
0.0014799879
0.0013747861
0.0012682304
0.0011616285
0.0010546783
0.00094919773
0.00084457141
0.00074759974
0.00064489509
0.0005930515
0.00031234105
0.00084268766
-0.00087336976
0.042923078
0.03620811
0.026521077
0.016922801
0.0091533867
0.0042383097
0.0021529458
0.0020337929
0.0027175627
0.00333906
0.0036500781
0.0037906285
0.0038379772
0.0038158254
0.0037846593
0.0037692129
0.0037524402
0.003723813
0.0036935259
0.0036658665
0.0036357899
0.0035993152
0.0035614544
0.0035243152
0.0034855205
0.0034430246
0.003398879
0.0033541297
0.0033073989
0.0032580328
0.0032073557
0.0031559005
0.0031028626
0.0030481379
0.0029926375
0.0029368578
0.0028807837
0.0028251316
0.002771132
0.0027197406
0.0026717682
0.0026287999
0.0025933382
0.0025677478
0.0025563796
0.0025644186
0.0025935743
0.0026438894
0.0027160383
0.0028096302
0.0029229704
0.0030532195
0.0031959014
0.0033447771
0.0034977633
0.0036483765
0.0037785399
0.0038755805
0.0039316725
0.0039496928
0.003931851
0.0038840421
0.003815479
0.0037332702
0.0036425079
0.0035472044
0.0034507187
0.0033543256
0.0032589407
0.0031651132
0.0030729654
0.002982006
0.0028922594
0.0028037065
0.0027155628
0.0026284101
0.0025413022
0.0024521466
0.0023613994
0.002269147
0.0021761929
0.0020821359
0.0019858082
0.0018882872
0.0017886727
0.001687601
0.0015848956
0.0014806124
0.0013753879
0.0012688102
0.0011621875
0.0010552168
0.0009497173
0.00084507134
0.00074808591
0.00064535413
0.00059366786
0.00031484005
0.00084912238
-0.00087232158
0.04045394
0.034614508
0.025896315
0.017275039
0.010221131
0.0054445959
0.0031917025
0.0028022916
0.0031937313
0.0036379348
0.0038719361
0.0039618848
0.0039772367
0.0039371947
0.0038950728
0.0038699363
0.0038402686
0.0037959441
0.0037547084
0.003720209
0.0036836733
0.0036408493
0.0035987422
0.003558482
0.0035164424
0.003470757
0.0034242845
0.0033776606
0.0033290312
0.0032779364
0.003225974
0.0031734555
0.0031193891
0.0030637782
0.0030076082
0.0029512711
0.0028946886
0.0028386536
0.002784417
0.0027328651
0.0026847719
0.0026417501
0.0026062926
0.0025807342
0.0025694357
0.0025781384
0.0026073016
0.0026570069
0.0027288507
0.0028220113
0.0029348002
0.0030643783
0.0032062429
0.0033542019
0.0035063073
0.0036560738
0.003785251
0.0038811692
0.003936717
0.0039540819
0.0039357292
0.0038876783
0.0038189608
0.0037366618
0.0036458279
0.0035504514
0.0034538852
0.0033573941
0.0032618999
0.0031679543
0.0030756809
0.0029845911
0.0028947162
0.0028060348
0.0027177623
0.0026304833
0.0025432105
0.0024538936
0.0023630379
0.0022706903
0.002177649
0.0020835106
0.0019871078
0.0018895212
0.001789846
0.0016887201
0.0015859642
0.0014816344
0.0013763665
0.0012697474
0.0011630865
0.0010560787
0.00095054513
0.000845865
0.00074885326
0.00064608116
0.00059461314
0.00031855216
0.00085864439
-0.0008702983
0.038140335
0.033022153
0.025307903
0.017586714
0.011105803
0.0065415109
0.0041907312
0.0035496463
0.0036914898
0.0039605381
0.0041065188
0.0041443283
0.004128775
0.0040744601
0.0040190019
0.0039753231
0.003930182
0.0038760375
0.0038279997
0.0037875759
0.0037434647
0.0036927392
0.0036447145
0.0036002356
0.0035541155
0.0035045378
0.0034553693
0.0034066623
0.0033558675
0.0033027671
0.0032493569
0.0031956496
0.0031404158
0.0030838554
0.0030271007
0.0029703887
0.0029134151
0.0028570419
0.002802645
0.0027510469
0.0027029728
0.0026600754
0.0026248371
0.0025995337
0.0025885908
0.0025977118
0.0026266759
0.0026760176
0.0027473281
0.0028397892
0.0029517646
0.0030803903
0.0032211042
0.003367774
0.0035186565
0.0036671993
0.0037948909
0.0038892284
0.003944039
0.0039604729
0.0039413145
0.0038929239
0.0038239745
0.003741519
0.0036505508
0.0035550422
0.0034583417
0.0033617003
0.0032660469
0.0031719345
0.0030794845
0.0029882158
0.0028981703
0.0028093186
0.0027208738
0.0026334239
0.0025459654
0.0024564749
0.002365472
0.002272981
0.0021798063
0.0020855421
0.0019890222
0.0018913316
0.0017915598
0.0016903471
0.0015875106
0.0014831067
0.0013777703
0.001271086
0.0011643651
0.0010573003
0.00095171429
0.00084698298
0.0007499282
0.00064710391
0.0005959247
0.00032360419
0.00087136606
-0.00086684983
0.036039069
0.031543433
0.02475506
0.017815982
0.011863614
0.0075396198
0.0051267263
0.0042579197
0.0041758142
0.0042914778
0.0043523705
0.0043401417
0.0042925568
0.0042201894
0.0041472749
0.0040848095
0.0040257762
0.0039635404
0.0039074107
0.0038572848
0.0038047574
0.0037487881
0.003696664
0.0036482548
0.0035975195
0.0035435355
0.0034910925
0.003439695
0.0033862143
0.0033307595
0.0032757445
0.003220757
0.0031642358
0.0031066522
0.0030493354
0.0029922953
0.0029349693
0.0028783554
0.002823973
0.0027725468
0.0027247391
0.0026822728
0.0026476448
0.0026231607
0.0026124033
0.002620942
0.0026496646
0.0026988972
0.0027697725
0.0028615469
0.0029725832
0.0030999611
0.0032391633
0.0033842866
0.0035328469
0.0036784265
0.0038039506
0.003896793
0.0039512532
0.0039669632
0.0039471416
0.0038986388
0.0038296319
0.0037471459
0.0036561244
0.0035605336
0.0034637274
0.0033669452
0.0032711316
0.0031768447
0.0030842053
0.0029927402
0.0029025047
0.0028134596
0.0027248155
0.0026371657
0.0025494986
0.0024598148
0.0023686369
0.002275967
0.0021826218
0.0020881941
0.0019915196
0.0018936901
0.0017937879
0.0016924574
0.001589511
0.0014850058
0.0013795761
0.0012728033
0.001166001
0.0010588595
0.00095320243
0.00084840304
0.00075128723
0.00064840111
0.00059757875
0.00032994061
0.00088693673
-0.00086185138
0.034140306
0.030161444
0.024188153
0.017959327
0.01251014
0.0084307025
0.0059894323
0.0049353307
0.004658074
0.0046324481
0.0046083649
0.004544875
0.0044631108
0.0043693127
0.0042785442
0.0041993592
0.004126914
0.004055213
0.003989327
0.0039292218
0.0038694524
0.0038088195
0.0037519124
0.0036979217
0.0036423836
0.0035852397
0.0035302316
0.0034761536
0.0034197033
0.0033616132
0.003304736
0.0032482212
0.0031899972
0.003130919
0.0030726742
0.0030149498
0.0029569865
0.0029000125
0.0028456342
0.0027944319
0.0027469875
0.0027051233
0.0026713719
0.0026480621
0.0026375395
0.0026452164
0.0026735828
0.0027227899
0.0027933565
0.0028845014
0.0029944979
0.0031203316
0.0032577884
0.0034014293
0.0035467103
0.0036878387
0.0038108165
0.0039025399
0.0039571127
0.0039724939
0.0039523783
0.0039041063
0.0038353126
0.0037530112
0.0036621004
0.0035665501
0.0034697249
0.0033728572
0.0032769204
0.0031824842
0.0030896724
0.0029980174
0.0029075884
0.0028183405
0.0027294819
0.0026416142
0.0025537164
0.0024638177
0.0023724453
0.0022795724
0.00218603
0.0020914097
0.0019945503
0.0018965528
0.0017964915
0.001695016
0.0015919336
0.0014873028
0.0013817568
0.0012748744
0.0011679717
0.0010607348
0.00095498912
0.00085010563
0.00075291079
0.00064995492
0.0005995423
0.00033743683
0.00090482546
-0.00085542356
0.032419535
0.028869852
0.023613533
0.018038438
0.013060062
0.0092215229
0.0067833932
0.0055843539
0.0051368072
0.0049796433
0.004871976
0.0047563918
0.0046395447
0.0045226633
0.0044132788
0.0043175514
0.0042312281
0.004148968
0.0040734972
0.0040043737
0.003937449
0.0038713399
0.0038088882
0.0037492912
0.0036895036
0.0036292941
0.0035711688
0.0035137494
0.0034544735
0.0033943937
0.003335917
0.00327774
0.0032175934
0.0031568345
0.0030974717
0.0030388622
0.0029800381
0.0029223682
0.002867533
0.0028160824
0.0027685544
0.0027268772
0.0026936251
0.0026710245
0.0026610446
0.0026686347
0.0026966174
0.0027454128
0.0028153704
0.0029057043
0.0030145978
0.0031389453
0.0032747963
0.0034170296
0.0035595274
0.0036964599
0.0038165264
0.0039070861
0.0039616578
0.0039769166
0.0039568254
0.0039090258
0.0038406337
0.0037587074
0.0036680851
0.0035727116
0.003475973
0.0033791022
0.0032831088
0.0031885733
0.0030956253
0.0030038075
0.0029132055
0.0028237661
0.0027346959
0.002646609
0.0025584719
0.0024683481
0.0023767731
0.0022836857
0.0021899319
0.0020951016
0.0019980377
0.0018998526
0.0017996115
0.001697971
0.0015947327
0.0014899568
0.0013842761
0.0012772663
0.0011702467
0.0010628985
0.00095704875
0.00085206713
0.0007547764
0.00065174476
0.00060177247
0.00034594448
0.00092444665
-0.00084761066
0.030856142
0.027669991
0.023042615
0.01806342
0.013521297
0.0099189696
0.0075106932
0.006201396
0.0056067349
0.0053292036
0.0051414896
0.0049742682
0.0048218272
0.0046804892
0.0045518352
0.0044392116
0.0043388209
0.004245406
0.0041598924
0.00408188
0.0040075644
0.0039354623
0.0038675553
0.0038027945
0.0037387198
0.0036749469
0.0036134112
0.0035527861
0.0034909287
0.0034288246
0.0033682925
0.0033080459
0.0032461843
0.0031841856
0.0031238273
0.0030642208
0.0030043797
0.002945809
0.0028903175
0.0028383841
0.0027904457
0.0027485216
0.0027152272
0.002692626
0.0026826886
0.0026900981
0.0027175943
0.0027657101
0.0028348255
0.002924202
0.0030319997
0.0031550679
0.0032895013
0.0034302626
0.0035708812
0.0037050734
0.0038226418
0.0039111442
0.0039646937
0.003979946
0.0039601174
0.0039129114
0.0038450972
0.0037637761
0.0036736405
0.0035785691
0.0034820374
0.0033852834
0.0032893248
0.0031947604
0.0031017391
0.0030098152
0.0029190876
0.0028294918
0.0027402347
0.0026519468
0.0025635796
0.0024732373
0.0023814667
0.002288167
0.0021942021
0.0020991587
0.0020018835
0.001903503
0.0018030721
0.0017012559
0.0015978497
0.0014929164
0.0013870885
0.0012799385
0.0011727897
0.0010653177
0.00095935152
0.00085426038
0.00075685864
0.00065374746
0.00060422073
0.00035531748
0.00094522803
-0.00083833808
0.029432691
0.026559585
0.02248033
0.018039098
0.013901095
0.010529921
0.0081727731
0.0067837038
0.0060647761
0.0056790079
0.0054156933
0.0051977634
0.0050094361
0.0048425761
0.0046940282
0.0045642483
0.004449488
0.0043445
0.0042488075
0.0041617632
0.0040799605
0.0040016076
0.0039278704
0.0038579052
0.0037894848
0.0037219073
0.0036569765
0.0035933366
0.0035288334
0.0034643889
0.003401675
0.0033395359
0.0032761227
0.0032128404
0.0031511461
0.0030903309
0.0030295708
0.0029702581
0.0029142013
0.0028617483
0.0028132931
0.0027709306
0.0027373331
0.00271438
0.0027039777
0.0027107383
0.0027374401
0.0027845623
0.002852456
0.0029404877
0.0030468546
0.0031683953
0.0033012223
0.0034403952
0.0035794953
0.0037121201
0.0038281357
0.0039147434
0.003967384
0.0039826323
0.0039623701
0.0039153317
0.003848321
0.0037678371
0.0036783113
0.0035836756
0.0034875279
0.0033910453
0.0032952094
0.003200699
0.003107703
0.0030157523
0.002924959
0.0028352585
0.0027458581
0.0026574043
0.0025688342
0.0024782995
0.0023863573
0.0022928631
0.0021987032
0.0021034591
0.0020059799
0.0019074092
0.0018067905
0.0017047985
0.0016012217
0.0014961267
0.0013901459
0.0012828486
0.001175563
0.001067959
0.00096186731
0.00085665813
0.00075913226
0.00065594003
0.0006068372
0.0003654212
0.00096663399
-0.00082747549
0.028133948
0.025533742
0.02193041
0.017971884
0.014207989
0.011061617
0.008771952
0.0073298331
0.0065085232
0.0060267833
0.0056928342
0.0054256439
0.0052015767
0.0050085531
0.004839631
0.0046925244
0.0045631578
0.0044462716
0.0043402478
0.0042440277
0.0041545194
0.0040696852
0.0039900099
0.0039147511
0.0038418712
0.0037705
0.0037019143
0.0036350122
0.0035679039
0.0035010357
0.0034361295
0.003372169
0.0033071542
0.0032423922
0.0031792997
0.0031174268
0.0030558405
0.0029957583
0.002938953
0.002885884
0.0028369765
0.0027941932
0.0027602368
0.0027368453
0.0027258704
0.0027317996
0.0027574618
0.002803294
0.002869584
0.0029558356
0.0030603067
0.0031798421
0.0033106102
0.0034478325
0.0035851807
0.0037161291
0.003830658
0.0039163804
0.0039690037
0.0039844572
0.003964108
0.0039174224
0.0038511873
0.0037709702
0.0036817345
0.0035877424
0.0034921816
0.003396047
0.003300424
0.0032060993
0.0031132544
0.0030213444
0.0029305467
0.002840814
0.0027513234
0.00266275
0.002574025
0.0024833439
0.0023912699
0.0022976157
0.0022032946
0.0021078768
0.002010215
0.0019114733
0.0018106809
0.001708524
0.0016047839
0.0014995313
0.0013933991
0.0012859535
0.0011785289
0.001070789
0.00096456633
0.00085923366
0.00076157266
0.00065830027
0.00060957216
0.00037613
0.00098815388
-0.00081486262
0.026946552
0.024586661
0.021396198
0.017868548
0.014449805
0.011520559
0.0093107781
0.0078387457
0.0069355398
0.0063700842
0.0059710556
0.0056566904
0.0053975092
0.0051780726
0.0049884509
0.0048238959
0.0046797498
0.0045506817
0.0044341528
0.0043286318
0.0042312227
0.0041397162
0.004054014
0.003973356
0.0038958742
0.0038205775
0.0037482426
0.0036780114
0.003608207
0.0035389903
0.0034717614
0.0034057069
0.0033390887
0.003272857
0.0032083681
0.0031454295
0.0030829821
0.0030220407
0.0029644619
0.0029108719
0.002861555
0.0028183026
0.0027838937
0.0027600396
0.0027485198
0.002753605
0.0027781487
0.0028225448
0.0028870384
0.0029712609
0.0030735282
0.0031906827
0.0033189632
0.0034537804
0.0035889124
0.0037177486
0.0038305065
0.0039153739
0.0039678148
0.0039836895
0.0039642915
0.0039188346
0.0038534599
0.0037735527
0.0036848747
0.003591592
0.0034961354
0.0034000008
0.0033047519
0.0032107793
0.0031181193
0.0030262997
0.0029356028
0.002845936
0.0027564026
0.0026677718
0.0025789658
0.0024881917
0.0023960361
0.0023022735
0.0022078383
0.0021122844
0.0020144748
0.0019155945
0.0018146537
0.0017123534
0.001608467
0.0015030696
0.0013967955
0.0012892074
0.0011816472
0.0010737723
0.00096741741
0.00086195922
0.00076415454
0.00066080555
0.00061237573
0.0003873201
0.0010092687
-0.00080032307
0.02585874
0.02371222
0.020880106
0.017735254
0.014633562
0.011912819
0.0097921279
0.0083099124
0.0073436982
0.0067066802
0.0062486314
0.0058897213
0.0055964583
0.0053506998
0.0051402211
0.0049581624
0.0047991332
0.0046576623
0.0045304751
0.0044155488
0.0043100759
0.0042117172
0.0041198773
0.0040337138
0.0039514978
0.0038721371
0.0037960041
0.0037223838
0.0036497765
0.003578129
0.0035085063
0.0034403052
0.0033720387
0.0033043556
0.0032384579
0.0031742577
0.0031108597
0.0030491158
0.0029907624
0.0029366213
0.0028868678
0.0028431032
0.0028082519
0.0027839784
0.0027718946
0.0027760829
0.0027994336
0.0028423514
0.0029050373
0.0029871723
0.0030871094
0.0032016947
0.0033272467
0.0034593559
0.0035919097
0.0037182435
0.0038288442
0.003912519
0.0039644105
0.0039805593
0.0039622208
0.0039181244
0.0038538978
0.0037751235
0.0036875863
0.0035950285
0.0034996528
0.0034037347
0.0033089412
0.0032148912
0.0031220625
0.0030304501
0.0029399841
0.0028504013
0.0027608835
0.002672306
0.0025835027
0.0024926782
0.0024005085
0.0023067041
0.0022122011
0.0021165571
0.0020186465
0.0019196686
0.0018186132
0.0017162015
0.0016121947
0.0015066739
0.0014002755
0.0012925583
0.0011848727
0.0010768694
0.0009703859
0.0008648043
0.0007668504
0.0006634316
0.0006151974
0.00039886273
0.0010294072
-0.00078368432
0.02486012
0.02290428
0.020383606
0.017577584
0.014765863
0.012244259
0.010219153
0.0087433023
0.0077312375
0.0070345334
0.0065238785
0.0061235026
0.0057975667
0.0055259111
0.0052946168
0.0050950914
0.0049211528
0.0047671288
0.0046291585
0.0045047391
0.0043910634
0.0042856873
0.0041875993
0.0040958346
0.0040087634
0.0039252129
0.0038452191
0.0037681352
0.003692619
0.003618444
0.0035463945
0.0034760171
0.0034060283
0.0033368373
0.0032694891
0.0032039816
0.0031396015
0.0030770614
0.0030179394
0.0029631043
0.0029128349
0.0028685883
0.0028332807
0.0028086018
0.0027959077
0.0027991344
0.0028212831
0.0028627367
0.0029236047
0.0030035952
0.0031011078
0.0032130484
0.0033358096
0.0034651056
0.0035949112
0.0037185294
0.0038267079
0.0039088885
0.0039598587
0.0039760178
0.0039587321
0.0039157364
0.0038526821
0.0037751605
0.0036887395
0.0035970469
0.0035023884
0.0034071914
0.0033128331
0.0032186409
0.0031258324
0.0030344781
0.0029438378
0.0028540466
0.0027646744
0.00267625
0.0025874547
0.0024966456
0.0024045713
0.0023107853
0.0022162518
0.0021205842
0.0020226256
0.0019235899
0.0018224613
0.001719978
0.0016158825
0.0015102684
0.0014037721
0.0012959469
0.0011881533
0.0010800347
0.00097343189
0.00086773389
0.00076962898
0.00066615115
0.00061798591
0.00041061889
0.0010479003
-0.00076479573
0.023941489
0.022156903
0.019907422
0.017400537
0.014852915
0.012520451
0.01059511
0.0091392854
0.0080967368
0.0073517764
0.0067951574
0.0063567804
0.0059999362
0.0057031295
0.0054512719
0.0052344218
0.0050456267
0.0048789718
0.0047301278
0.0045961466
0.0044741554
0.004361618
0.0042571782
0.0041597237
0.0040676856
0.0039798262
0.0038959013
0.0038152818
0.003736759
0.0036599708
0.0035854553
0.0035128547
0.0034410633
0.0033703049
0.0033014737
0.0032346385
0.0031692346
0.0031058549
0.0030459348
0.0029903697
0.0029395519
0.0028948668
0.0028589828
0.0028337875
0.0028205407
0.0028228114
0.002843728
0.0028836743
0.0029426723
0.0030204626
0.0031155122
0.0032247887
0.0033447292
0.0034711396
0.0035980837
0.0037189029
0.0038245811
0.0039051425
0.0039550333
0.0039710523
0.0039545656
0.0039124336
0.0038503961
0.0037739887
0.003688612
0.0035978463
0.0035040095
0.0034094735
0.0033155937
0.0032217655
0.0031294182
0.0030382808
0.0029474086
0.0028575972
0.0027683342
0.002679665
0.0025906966
0.0025000431
0.0024081136
0.0023143541
0.00221987
0.0021242749
0.0020263093
0.0019272554
0.0018261068
0.0017235915
0.0016194433
0.0015137738
0.0014072124
0.0012993064
0.0011914295
0.0010832152
0.0009765087
0.00087070676
0.00077245371
0.00066893254
0.00062068947
0.00042243607
0.0010639454
-0.0007435462
0.023094682
0.021464489
0.019451698
0.017208482
0.014900472
0.012746654
0.010923304
0.0094985924
0.0084391288
0.0076567456
0.0070609127
0.006588314
0.0062026455
0.0058817291
0.005609772
0.005375856
0.0051723418
0.0049930534
0.0048332883
0.004689702
0.0045593108
0.004439492
0.0043286052
0.0042253792
0.0041282719
0.0040359925
0.0039480642
0.0038638412
0.0037822207
0.0037027353
0.003625707
0.0035508344
0.0034771674
0.0034047865
0.0033344397
0.0032662456
0.0031997661
0.0031355009
0.003074754
0.0030184402
0.0029670433
0.0029218822
0.0028854289
0.0028596048
0.002845752
0.0028471287
0.0028667496
0.002905113
0.0029622046
0.0030377619
0.0031302908
0.0032368632
0.0033539695
0.0034774393
0.0036014626
0.0037194594
0.0038226073
0.00390148
0.0039502265
0.0039660234
0.0039502207
0.0039088545
0.0038477376
0.0037722234
0.0036877563
0.0035978177
0.0035047284
0.0034107812
0.0033174127
0.0032240274
0.0031320687
0.0030411724
0.002950511
0.0028610317
0.0027717961
0.0026828654
0.0025939207
0.0025032629
0.002411081
0.0023173184
0.0022230258
0.0021275005
0.0020295608
0.0019305706
0.0018294626
0.0017269482
0.001622798
0.001517115
0.0014105225
0.0013025672
0.0011946366
0.0010863512
0.00097956262
0.00087367461
0.00077528167
0.00067173842
0.0006232565
0.00043414688
0.0010766068
-0.00071988283
0.022312444
0.020821838
0.019016141
0.017005158
0.014913824
0.012927834
0.011207051
0.0098222631
0.0087576912
0.0079479967
0.0073196886
0.0068168876
0.0064047543
0.0060610383
0.0057696556
0.0055190605
0.0053010549
0.0051092092
0.0049385258
0.004785321
0.0046464753
0.0045192804
0.0044018631
0.0042927922
0.0041905246
0.0040937234
0.00400172
0.0039138281
0.0038290239
0.003746759
0.003667168
0.0035899762
0.0035143654
0.003440306
0.0033684071
0.0032988195
0.0032312152
0.0031660216
0.0031044201
0.0030473317
0.002995316
0.0029496347
0.0029125882
0.0028860986
0.0028715918
0.0028720496
0.0028903289
0.0029270541
0.0029822071
0.0030554931
0.0031454615
0.0032492908
0.0033635113
0.0034839834
0.0036050293
0.0037201584
0.0038207597
0.0038978969
0.0039454964
0.0039610543
0.0039458844
0.0039052414
0.003844987
0.003770321
0.003686737
0.0035974403
0.0035049872
0.0034115373
0.0033185952
0.0032255616
0.0031339323
0.0030433077
0.0029529111
0.0028636645
0.0027745299
0.0026857535
0.0025970568
0.002506276
0.0024139056
0.002320303
0.0022259278
0.002130131
0.002032309
0.0019334655
0.0018323999
0.0017299513
0.0016258783
0.0015202182
0.0014136308
0.0013056632
0.0011977093
0.0010893807
0.00098253487
0.00087658351
0.00077806402
0.00067452554
0.00062563697
0.00044557041
0.0010848907
-0.00069382787
0.02158832
0.020224182
0.018600153
0.01679371
0.014897782
0.013068658
0.011449643
0.010111584
0.0090520226
0.0082243137
0.0075701444
0.0070413241
0.0066053166
0.0062403519
0.0059304205
0.0056636681
0.0054314935
0.0052272474
0.005045705
0.0048829036
0.0047355803
0.0046009423
0.004476926
0.0043619473
0.00425444
0.0041530255
0.0040568771
0.0039652534
0.0038771852
0.0037920616
0.0037098564
0.0036302992
0.0035526792
0.003476884
0.0034033945
0.0033323789
0.0032636027
0.0031974375
0.0031349504
0.0030770583
0.0030243842
0.0029781412
0.002940472
0.0029132891
0.0028980752
0.0028975705
0.0029144763
0.0029495262
0.0030027026
0.0030736744
0.0031610371
0.0032620679
0.0033733422
0.0034907632
0.0036087837
0.0037210166
0.0038190702
0.003894362
0.0039408324
0.0039561508
0.0039415331
0.0039015997
0.0038421791
0.0037684564
0.0036857469
0.0035970455
0.0035050773
0.0034121559
0.0033195772
0.0032267361
0.0031353279
0.0030449038
0.0029547025
0.0028656348
0.0027766376
0.0026880351
0.0025994589
0.0025087278
0.0024165795
0.0023232065
0.00222863
0.0021327137
0.0020349796
0.0019359766
0.0018348456
0.0017325799
0.0016285789
0.0015229791
0.0014164622
0.0013085276
0.0012005811
0.0010922446
0.00098536587
0.00087937945
0.0007807491
0.00067724679
0.00062778494
0.00045651764
0.0010879326
-0.00066548853
0.020916559
0.019667182
0.018202938
0.016576747
0.014856678
0.013173494
0.011654309
0.010368036
0.009322018
0.0084847144
0.0078110704
0.0072605018
0.0068033943
0.0064189412
0.0060915287
0.0058092784
0.0055633561
0.0053469492
0.005154668
0.0049823322
0.0048265423
0.0046844237
0.0045537584
0.0044328211
0.0043200077
0.0042138994
0.0041135398
0.0040181248
0.0039267184
0.0038386609
0.0037537892
0.0036718204
0.0035921289
0.0035145407
0.0034394211
0.0033669423
0.0032969481
0.0032297667
0.0031663612
0.0031076353
0.0030542634
0.0030074168
0.0029690942
0.0029411839
0.0029252094
0.0029236999
0.0029392036
0.0029725387
0.0030236947
0.0030923089
0.0031770204
0.0032752005
0.0033834766
0.0034977982
0.0036127453
0.0037220428
0.0038175268
0.0038908986
0.0039362325
0.0039512957
0.003937183
0.0038979465
0.0038393534
0.0037665709
0.0036846831
0.0035967728
0.003505148
0.0034128185
0.0033205442
0.0032278526
0.0031365974
0.003046262
0.0029561482
0.0028671788
0.0027782609
0.0026897748
0.0026012813
0.0025106587
0.0024187042
0.0023254502
0.0022309491
0.0021352659
0.002037545
0.0019383798
0.0018373391
0.0017350264
0.001630797
0.0015253448
0.0014189428
0.0013110585
0.0012031781
0.001094881
0.00098799653
0.00088201402
0.00078328655
0.00067985566
0.00062966471
0.00046680066
0.0010852062
-0.000635054
0.020292042
0.019146918
0.017823574
0.016356403
0.014794373
0.013246402
0.011824191
0.010593247
0.0095678386
0.0087284507
0.0080413999
0.0074733672
0.006998069
0.0065960643
0.0062524128
0.0059554606
0.0056963132
0.0054680688
0.0052652342
0.0050834713
0.0049192621
0.0047696572
0.0046323139
0.0045053822
0.0043872098
0.0042763395
0.0041717081
0.0040724464
0.003977634
0.0038865718
0.0037989812
0.0037145551
0.0036327329
0.0035532956
0.0034765052
0.0034025273
0.0033312697
0.0032630273
0.0031986688
0.0031390779
0.0030849687
0.0030374752
0.0029984658
0.0029697923
0.0029530048
0.0029504483
0.0029645187
0.0029960978
0.0030451889
0.0031114032
0.0031934189
0.0032886979
0.0033939246
0.0035050975
0.0036169214
0.0037232492
0.0038160909
0.0038875449
0.0039317172
0.0039464909
0.0039328296
0.0038942756
0.0038365182
0.0037646735
0.0036835966
0.0035964818
0.0035052776
0.0034134816
0.0033215053
0.003229039
0.0031379094
0.0030476035
0.0029575387
0.0028685864
0.0027796392
0.0026911776
0.0026027032
0.002512144
0.0024203323
0.0023271857
0.0022328262
0.0021372883
0.0020396264
0.0019406115
0.0018397914
0.0017373231
0.0016330121
0.0015276372
0.0014210763
0.0013132011
0.0012054598
0.0010971954
0.00099036135
0.00088443224
0.000785624
0.00068230737
0.00063125924
0.0004762466
0.0010766167
-0.00060279454
0.019710202
0.018659859
0.017461085
0.016134402
0.014714274
0.013291128
0.011962325
0.010788949
0.0097898784
0.0089550013
0.0082602185
0.0076789483
0.0071884542
0.0067709768
0.0064124832
0.0061017566
0.0058300087
0.005590335
0.0053771999
0.0051861664
0.0050136245
0.004856561
0.004712535
0.0045795897
0.0044560206
0.0043403332
0.0042313769
0.0041282182
0.0040299386
0.003935806
0.0038454452
0.003758517
0.0036745081
0.0035931666
0.003514664
0.0034391507
0.0033665848
0.0032972364
0.0032318892
0.0031714007
0.0031165142
0.0030683298
0.003028598
0.0029991242
0.002981472
0.0029778243
0.0029904281
0.0030202099
0.0030671924
0.0031309647
0.0032102403
0.0033025683
0.0034046943
0.0035126693
0.003621322
0.0037246466
0.0038147774
0.0038843131
0.0039272929
0.0039417414
0.0039284754
0.0038905884
0.0038336636
0.0037627545
0.003682508
0.0035960972
0.0035055222
0.0034141568
0.0033224707
0.0032302546
0.0031392508
0.0030490221
0.0029590229
0.0028700284
0.0027809977
0.0026925034
0.0026039546
0.002513365
0.0024216204
0.0023285381
0.0022342899
0.0021388555
0.002041285
0.0019424172
0.0018417094
0.0017393103
0.0016352254
0.0015298459
0.0014231688
0.0013153504
0.00120752
0.0010991398
0.0009924461
0.00088654112
0.00078768917
0.00068454333
0.00063255318
0.00048471863
0.0010624615
-0.00056908778
0.01916697
0.018202842
0.017114474
0.015912127
0.014619365
0.013311104
0.012071617
0.010956946
0.0099887311
0.0091640606
0.0084667702
0.0078763656
0.0073737068
0.006942942
0.0065711357
0.0062476856
0.0059640622
0.0057134516
0.0054903385
0.0052902436
0.0051094973
0.0049450382
0.0047943517
0.0046553927
0.0045264058
0.0044058606
0.004292535
0.0041854355
0.0040836346
0.0039863719
0.0038931912
0.0038037173
0.0037174692
0.0036341702
0.0035539134
0.0034768279
0.0034029101
0.0033324105
0.0032660375
0.0032046177
0.0031489133
0.0030999935
0.0030595015
0.0030291888
0.0030106204
0.0030058358
0.0030169382
0.0030448821
0.0030897122
0.0031510002
0.0032274916
0.0033168195
0.0034157946
0.0035205231
0.0036259571