/*--------------------------------*- C++ -*----------------------------------*\
| =========                 |                                                 |
| \\      /  F ield         | OpenFOAM: The Open Source CFD Toolbox           |
|  \\    /   O peration     | Version:  2206                                  |
|   \\  /    A nd           | Website:  www.openfoam.com                      |
|    \\/     M anipulation  |                                                 |
\*---------------------------------------------------------------------------*/
FoamFile
{
    version     2.0;
    format      ascii;
    arch        "LSB;label=32;scalar=64";
    class       surfaceScalarField;
    location    "1000";
    object      phi;
}
// * * * * * * * * * * * * * * * * * * * * * * * * * * * * * * * * * * * * * //

dimensions      [0 3 -1 0 0 0 0];

oriented        oriented;

internalField   nonuniform List<scalar> 
14782
(
0.00061770677
8.7781257e-05
-0.00070548802
0.00051031172
0.00010739505
0.00040013888
0.00011017284
0.0003066728
9.3466082e-05
0.00023999614
6.667666e-05
0.00019925589
4.0740252e-05
0.00017533959
2.3916297e-05
0.00016116971
1.4169888e-05
0.00015176176
9.4079467e-06
0.00014419444
7.5673164e-06
0.00013732457
6.8698709e-06
0.00013096292
6.3616489e-06
0.00012515397
5.8089499e-06
0.00011986105
5.2929222e-06
0.00011502647
4.8345807e-06
0.00011062354
4.4029295e-06
0.00010661718
4.0063617e-06
0.00010292558
3.6916012e-06
9.9497797e-05
3.427781e-06
9.6314234e-05
3.1835625e-06
9.335264e-05
2.9615946e-06
9.0578182e-05
2.7744582e-06
8.796955e-05
2.6086319e-06
8.5517344e-05
2.4522058e-06
8.3208753e-05
2.3085913e-06
8.1025202e-05
2.1835506e-06
7.8955731e-05
2.0694706e-06
7.6995554e-05
1.9601778e-06
7.5137351e-05
1.8582026e-06
7.3371671e-05
1.76568e-06
7.169339e-05
1.6782807e-06
7.0100155e-05
1.5932357e-06
6.8587764e-05
1.5123909e-06
6.7151514e-05
1.4362493e-06
6.5789217e-05
1.362297e-06
6.4499964e-05
1.2892536e-06
6.3282012e-05
1.2179515e-06
6.2134354e-05
1.1476581e-06
6.1057928e-05
1.0764266e-06
6.005447e-05
1.0034578e-06
5.9125179e-05
9.2929079e-07
5.827176e-05
8.5341926e-07
5.7497403e-05
7.7435663e-07
5.6804395e-05
6.9300812e-07
5.6201545e-05
6.0284987e-07
5.5692403e-05
5.0914187e-07
5.5286481e-05
4.0592233e-07
5.4991556e-05
2.949254e-07
5.4806092e-05
1.8546328e-07
5.4728457e-05
7.763544e-08
5.4754277e-05
-2.582019e-08
5.4876737e-05
-1.2245952e-07
5.5083631e-05
-2.0689459e-07
5.5355134e-05
-2.7150266e-07
5.5678115e-05
-3.2298078e-07
5.6039778e-05
-3.6166382e-07
5.6406822e-05
-3.670435e-07
5.6742123e-05
-3.3530059e-07
5.7009706e-05
-2.675831e-07
5.7195566e-05
-1.8586064e-07
5.7296228e-05
-1.0066149e-07
5.7314474e-05
-1.8246495e-08
5.7260449e-05
5.402534e-08
5.7147566e-05
1.128828e-07
5.6989302e-05
1.582638e-07
5.679762e-05
1.9168267e-07
5.6583284e-05
2.1433558e-07
5.6354114e-05
2.2916967e-07
5.6115959e-05
2.3815581e-07
5.5873265e-05
2.4269322e-07
5.5629265e-05
2.4400007e-07
5.5385659e-05
2.4360657e-07
5.514395e-05
2.4170927e-07
5.4905394e-05
2.3855529e-07
5.4669902e-05
2.3549212e-07
5.4438082e-05
2.3182044e-07
5.4206632e-05
2.3144987e-07
5.3971082e-05
2.3555016e-07
5.3732725e-05
2.3835648e-07
5.3492901e-05
2.398239e-07
5.3252518e-05
2.4038343e-07
5.3011486e-05
2.410317e-07
5.2768533e-05
2.4295345e-07
5.2523837e-05
2.4469548e-07
5.2276823e-05
2.4701398e-07
5.2027754e-05
2.4906958e-07
5.1776705e-05
2.5104873e-07
5.1523781e-05
2.5292393e-07
5.126951e-05
2.5427096e-07
5.101374e-05
2.5577027e-07
5.0757047e-05
2.5669256e-07
5.04993e-05
2.577475e-07
5.0240662e-05
2.5863807e-07
4.9980819e-05
2.5984231e-07
4.9718985e-05
2.6183451e-07
4.9455245e-05
2.6373993e-07
4.921006e-05
2.4518524e-07
4.8807021e-05
4.0303857e-07
4.8815988e-05
-8.967175e-09
8.3934078e-07
0.00079176761
9.1061597e-05
-0.00079504795
0.00077879108
0.00012037158
0.00075195124
0.00013701268
0.00070880029
0.00013661703
0.00065526152
0.00012021543
0.00060117448
9.4827289e-05
0.00055308352
7.2007257e-05
0.0005131516
5.4101817e-05
0.00048029003
4.2269515e-05
0.00045279293
3.5064415e-05
0.00042916394
3.0498857e-05
0.00040850144
2.7024154e-05
0.00039019223
2.4118155e-05
0.0003737516
2.1733553e-05
0.00035883561
1.9750573e-05
0.00034524041
1.7998133e-05
0.00033279371
1.6453064e-05
0.00032131869
1.516662e-05
0.00031068051
1.4065961e-05
0.00030078893
1.3075144e-05
0.00029156596
1.2184564e-05
0.00028292992
1.1410494e-05
0.00027481848
1.0720072e-05
0.00026718573
1.0084958e-05
0.00025998818
9.5061397e-06
0.00025318221
8.9895166e-06
0.00024673509
8.5165928e-06
0.00024062411
8.0711558e-06
0.00023482681
7.6555052e-06
0.00022931993
7.2725613e-06
0.00022408667
6.9115397e-06
0.00021911563
6.564275e-06
0.00021439502
6.232998e-06
0.00020991337
5.9179062e-06
0.00020566331
5.6123541e-06
0.00020164067
5.3118976e-06
0.00019784166
5.0169563e-06
0.00019426463
4.7246925e-06
0.00019091186
4.4291959e-06
0.0001877883
4.1270198e-06
0.00018489937
3.8182184e-06
0.00018225239
3.5003952e-06
0.0001798577
3.1690493e-06
0.00017772568
2.8250306e-06
0.0001758784
2.4501294e-06
0.0001743328
2.0547399e-06
0.00017310707
1.6316524e-06
0.00017221708
1.1849183e-06
0.00017166208
7.4045795e-07
0.00017143374
3.0597409e-07
0.00017151567
-1.0774975e-07
0.00017188369
-4.9047789e-07
0.00017249894
-8.2214596e-07
0.00017330639
-1.0789452e-06
0.00017425798
-1.2745742e-06
0.00017529884
-1.4025256e-06
0.00017633532
-1.4035201e-06
0.00017726524
-1.2652267e-06
0.00017799717
-9.9950631e-07
0.00017849019
-6.788855e-07
0.00017873621
-3.4667506e-07
0.00017874648
-2.8524516e-08
0.00017854885
2.5165894e-07
0.0001781806
4.8112944e-07
0.0001776804
6.5846211e-07
0.00017708285
7.8923337e-07
0.0001764181
8.7909283e-07
0.0001757091
9.3816293e-07
0.0001749732
9.7405508e-07
0.00017422347
9.9242263e-07
0.00017346929
9.981893e-07
0.00017271628
9.9661648e-07
0.00017196906
9.8892411e-07
0.00017123107
9.7654852e-07
0.00017050288
9.6367968e-07
0.00016978524
9.4946349e-07
0.00016906722
9.4947053e-07
0.00016833702
9.6574484e-07
0.0001675989
9.7648242e-07
0.0001668571
9.8162222e-07
0.00016611342
9.840633e-07
0.00016536716
9.8728572e-07
0.00016461563
9.9448327e-07
0.00016385847
1.0018567e-06
0.00016309455
1.0109375e-06
0.00016232431
1.0193058e-06
0.00016154809
1.0272721e-06
0.00016076642
1.03459e-06
0.00015998054
1.0401537e-06
0.00015919063
1.0456773e-06
0.00015839793
1.0493947e-06
0.00015760272
1.0529609e-06
0.00015680503
1.0563293e-06
0.00015600555
1.0593145e-06
0.00015519846
1.0689247e-06
0.00015439635
1.0658569e-06
0.00015358716
1.0543754e-06
0.00015257216
1.418034e-06
0.00015201608
5.4711868e-07
2.5243283e-06
0.00083158366
8.658985e-05
-0.00082711191
0.00083709994
0.00011485529
0.00084162803
0.00013248458
0.00084053276
0.0001377123
0.00083141704
0.00012933115
0.00081413285
0.00011211148
0.00079128874
9.4851363e-05
0.00076529783
8.0092729e-05
0.00073805962
6.9507723e-05
0.00071108517
6.203887e-05
0.00068521397
5.6370055e-05
0.00066074292
5.1495201e-05
0.00063767999
4.7181083e-05
0.00061592256
4.3490981e-05
0.00059540558
4.026756e-05
0.00057609963
3.7304076e-05
0.00055794543
3.4607263e-05
0.00054084897
3.2263081e-05
0.00052472628
3.0188656e-05
0.00050951219
2.8289232e-05
0.00049514134
2.6555416e-05
0.00048153998
2.5011856e-05
0.00046864784
2.361221e-05
0.00045641746
2.2315334e-05
0.00044480267
2.1120928e-05
0.00043375507
2.0037121e-05
0.00042323575
1.9035911e-05
0.00041321486
1.809205e-05
0.00040366365
1.7206712e-05
0.000394554
1.6382216e-05
0.00038586449
1.560105e-05
0.00037757934
1.4849422e-05
0.00036968354
1.4128799e-05
0.00036216353
1.3437914e-05
0.00035501057
1.2765316e-05
0.00034822004
1.2102418e-05
0.00034178917
1.1447835e-05
0.00033571824
1.0795616e-05
0.00033001234
1.0135098e-05
0.00032468029
9.4590736e-06
0.00031973282
8.7656904e-06
0.00031518388
8.0493281e-06
0.00031105127
7.3016611e-06
0.00030735502
6.5212765e-06
0.00030412547
5.6796833e-06
0.00030139053
4.7896834e-06
0.00029917032
3.8518592e-06
0.00029747685
2.8783869e-06
0.00029630586
1.9114447e-06
0.0002956396
9.7223874e-07
0.00029544694
8.490806e-08
0.0002956848
-7.283369e-07
0.0002962915
-1.4288472e-06
0.00029718624
-1.9736784e-06
0.00029829088
-2.3792175e-06
0.00029951038
-2.6220256e-06
0.00030070675
-2.5998911e-06
0.00030173912
-2.2975914e-06
0.00030249144
-1.7518335e-06
0.00030291017
-1.0976126e-06
0.00030298655
-4.2305458e-07
0.00030273813
2.1989603e-07
0.00030220402
7.8576613e-07
0.00030143636
1.2487883e-06
0.00030048817
1.6066557e-06
0.00029940708
1.8703258e-06
0.00029823445
2.0517227e-06
0.0002970027
2.1699071e-06
0.00029573668
2.2400764e-06
0.00029445517
2.2739363e-06
0.00029317161
2.2817505e-06
0.0002918946
2.2736215e-06
0.00029063103
2.2524972e-06
0.00028938576
2.2218199e-06
0.00028816005
2.1893868e-06
0.00028695406
2.1554584e-06
0.00028575049
2.153031e-06
0.00028453442
2.1818195e-06
0.00028331349
2.197415e-06
0.0002820923
2.2028109e-06
0.00028087153
2.2048306e-06
0.00027964932
2.2094923e-06
0.00027842195
2.221861e-06
0.00027718803
2.2357727e-06
0.00027594591
2.253053e-06
0.00027469578
2.269445e-06
0.00027343792
2.2851272e-06
0.00027217308
2.2994305e-06
0.00027090272
2.3105122e-06
0.00026962737
2.321033e-06
0.00026834844
2.3283194e-06
0.00026706669
2.3347106e-06
0.00026578187
2.3411463e-06
0.0002644958
2.3453852e-06
0.00026319795
2.3667815e-06
0.00026191349
2.3503152e-06
0.00026058479
2.3830775e-06
0.00025910068
2.9021452e-06
0.00025782847
1.8193237e-06
4.6024586e-06
0.00086138031
8.2259461e-05
-0.00085704992
0.0008679165
0.0001083191
0.00087520708
0.000125194
0.00088223348
0.0001306859
0.00088614206
0.00012542258
0.00088512701
0.00011312652
0.00088104088
9.8937491e-05
0.00087431775
8.6815865e-05
0.00086523196
7.8593513e-05
0.00085402865
7.3242179e-05
0.00084103781
6.9360892e-05
0.00082646022
6.6072791e-05
0.00081066066
6.2980639e-05
0.00079422842
5.9923223e-05
0.0007775028
5.6993178e-05
0.00076070939
5.4097491e-05
0.00074398661
5.1330047e-05
0.0007274223
4.8827384e-05
0.00071110139
4.6509567e-05
0.0006951027
4.4287926e-05
0.0006794814
4.2176716e-05
0.00066426451
4.0228744e-05
0.00064947366
3.8403061e-05
0.00063512712
3.6661876e-05
0.00062123373
3.501432e-05
0.00060779017
3.3480676e-05
0.00059479337
3.2032711e-05
0.0005822412
3.0644222e-05
0.00057012726
2.9320648e-05
0.00055844203
2.8067445e-05
0.00054717915
2.6863938e-05
0.00053633477
2.5693794e-05
0.00052590418
2.4559395e-05
0.00051588321
2.3458887e-05
0.00050627185
2.2376673e-05
0.00049707402
2.1300242e-05
0.00048829462
2.0227244e-05
0.00047994
1.9150232e-05
0.00047202031
1.8054786e-05
0.00046454927
1.6930112e-05
0.00045754293
1.5772037e-05
0.00045102088
1.4571379e-05
0.00044500638
1.3316159e-05
0.00043952652
1.200113e-05
0.00043461385
1.059236e-05
0.00043029549
9.1080385e-06
0.00042658271
7.5646441e-06
0.0004234738
5.9872907e-06
0.00042095705
4.4282004e-06
0.00041900962
2.9196658e-06
0.00041759722
1.4973134e-06
0.00041667033
1.9855288e-07
0.00041615827
-9.1678905e-07
0.00041597767
-1.7930764e-06
0.00041604235
-2.443896e-06
0.00041623458
-2.8142564e-06
0.00041640255
-2.7678616e-06
0.00041641342
-2.3084645e-06
0.00041617242
-1.5108342e-06
0.00041563967
-5.648587e-07
0.00041481113
4.054797e-07
0.00041370599
1.3250429e-06
0.00041236112
2.1306342e-06
0.00041082148
2.7884223e-06
0.0004091326
3.2955374e-06
0.00040733633
3.666599e-06
0.00040547007
3.9179857e-06
0.00040356411
4.0758647e-06
0.00040164232
4.1618683e-06
0.00039972303
4.1932205e-06
0.00039781942
4.1853628e-06
0.00039594031
4.1527266e-06
0.00039409296
4.0998552e-06
0.00039228216
4.0326125e-06
0.00039050897
3.9625791e-06
0.00038877211
3.8923233e-06
0.0003870662
3.8589377e-06
0.00038538379
3.8642264e-06
0.00038372015
3.8610541e-06
0.0003820713
3.851663e-06
0.00038043433
3.8418004e-06
0.00037880575
3.8380745e-06
0.00037718076
3.8468527e-06
0.0003755567
3.8598304e-06
0.00037393099
3.8787622e-06
0.0003723029
3.8975363e-06
0.00037067207
3.915952e-06
0.00036903873
3.9327742e-06
0.00036740387
3.9453741e-06
0.00036576773
3.9571683e-06
0.00036413135
3.9647034e-06
0.00036249541
3.9706506e-06
0.00036085911
3.9774502e-06
0.00035922477
3.9797258e-06
0.00035757858
4.012964e-06
0.0003559524
3.9764942e-06
0.00035426411
4.0713737e-06
0.00035246922
4.6970354e-06
0.0003506632
3.6253432e-06
6.8271448e-06
0.00089167276
7.8534437e-05
-0.00088794774
0.00089770588
0.00010228598
0.00090491295
0.00011798694
0.00091181872
0.00012378014
0.000916986
0.0001202553
0.00091991477
0.00011019775
0.00092055564
9.829662e-05
0.00091941282
8.7958686e-05
0.00091752586
8.048047e-05
0.00091497461
7.579343e-05
0.00091168515
7.2650349e-05
0.00090743753
7.0320416e-05
0.00090198672
6.8431452e-05
0.00089527187
6.6638065e-05
0.00088736608
6.4898975e-05
0.00087829121
6.3172362e-05
0.00086819761
6.142364e-05
0.00085737341
5.9651587e-05
0.00084598137
5.7901605e-05
0.00083414244
5.6126855e-05
0.00082195502
5.4364141e-05
0.00080949746
5.2686304e-05
0.00079684754
5.105298e-05
0.00078408403
4.9425385e-05
0.00077127603
4.7822321e-05
0.00075847956
4.6277151e-05
0.00074574741
4.4764853e-05
0.00073312702
4.326462e-05
0.00072065616
4.1791502e-05
0.00070836514
4.0358466e-05
0.00069628293
3.8946151e-05
0.00068443668
3.7540038e-05
0.00067284938
3.6146699e-05
0.00066154215
3.4766118e-05
0.00065053874
3.3380076e-05
0.00063986522
3.1973769e-05
0.0006295421
3.0550356e-05
0.00061958553
2.9106806e-05
0.00061001494
2.7625378e-05
0.00060085332
2.6091727e-05
0.00059212558
2.449978e-05
0.00058385942
2.2837536e-05
0.00057608521
2.1090373e-05
0.0005688401
1.9246239e-05
0.00056215495
1.7277513e-05
0.00055603962
1.5223369e-05
0.00055049002
1.3114243e-05
0.00054550046
1.0976848e-05
0.0005410652
8.8634605e-06
0.00053717091
6.813954e-06
0.00053379419
4.8740357e-06
0.0005308944
3.0983405e-06
0.00052840845
1.5691587e-06
0.0005262723
3.4307488e-07
0.00052439453
-5.6612474e-07
0.00052262872
-1.0484398e-06
0.0005208403
-9.7944769e-07
0.00051895479
-4.2295228e-07
0.00051693409
5.0986604e-07
0.00051476793
1.6012992e-06
0.00051246057
2.7128439e-06
0.00051002456
3.761054e-06
0.0005074797
4.6754865e-06
0.00050484985
5.4182787e-06
0.00050216011
5.9852743e-06
0.00049943494
6.3917669e-06
0.00049669778
6.6551465e-06
0.00049396854
6.8051085e-06
0.00049126365
6.8667588e-06
0.0004885961
6.8607703e-06
0.00048597521
6.8062494e-06
0.00048340772
6.7202184e-06
0.00048089941
6.608165e-06
0.00047845344
6.478584e-06
0.00047606947
6.3465431e-06
0.00047374467
6.2171246e-06
0.00047148019
6.1234234e-06
0.00046927439
6.070021e-06
0.0004671168
6.0186474e-06
0.00046499734
5.9711231e-06
0.00046290953
5.92961e-06
0.00046084798
5.8996244e-06
0.00045880669
5.8881388e-06
0.00045678165
5.8848756e-06
0.00045476908
5.8913342e-06
0.00045276697
5.8996424e-06
0.00045077385
5.9090705e-06
0.0004487889
5.9177258e-06
0.00044681213
5.9221462e-06
0.00044484299
5.9263038e-06
0.0004428817
5.9259955e-06
0.00044092841
5.9239429e-06
0.00043898143
5.9244235e-06
0.00043704301
5.9181529e-06
0.00043509702
5.9589512e-06
0.00043317773
5.8957801e-06
0.00043119222
6.0568853e-06
0.00042914069
6.7485674e-06
0.00042690465
5.8613826e-06
9.1481693e-06
0.0009230669
7.5203436e-05
-0.0009197359
0.00092858662
9.6766263e-05
0.00093516013
0.00011141343
0.00094157978
0.00011736048
0.00094673061
0.00011510447
0.00094997481
0.00010695356
0.00095156313
9.6708304e-05
0.0009519385
8.7583313e-05
0.00095159997
8.0819006e-05
0.00095108874
7.6304656e-05
0.00095044142
7.329767e-05
0.00094959209
7.1169744e-05
0.00094844172
6.958182e-05
0.00094686358
6.8216214e-05
0.00094478069
6.6981858e-05
0.00094205748
6.5895577e-05
0.00093855312
6.4927995e-05
0.0009342261
6.397861e-05
0.00092908218
6.3045524e-05
0.00092310068
6.2108352e-05
0.00091633513
6.1129698e-05
0.00090891291
6.0108515e-05
0.00090090996
5.9055937e-05
0.00089238501
5.7950328e-05
0.00088339038
5.6816952e-05
0.00087397859
5.5688942e-05
0.00086420618
5.4537262e-05
0.00085412733
5.3343468e-05
0.00084379462
5.2124212e-05
0.00083325959
5.0893496e-05
0.00082257478
4.9630961e-05
0.00081179126
4.8323563e-05
0.00080095529
4.6982665e-05
0.00079010978
4.5611632e-05
0.0007792976
4.4192258e-05
0.00076856167
4.2709693e-05
0.00075794391
4.1168124e-05
0.00074748593
3.9564777e-05
0.00073722946
3.7881854e-05
0.00072721593
3.6105253e-05
0.00071748626
3.4229449e-05
0.0007080829
3.2240905e-05
0.00069905052
3.0122744e-05
0.00069044713
2.7849632e-05
0.00068228008
2.5444566e-05
0.00067452649
2.2976961e-05
0.00066720866
2.0432067e-05
0.0006603585
1.7827011e-05
0.00065399441
1.5227552e-05
0.00064811618
1.2692178e-05
0.00064270607
1.0284146e-05
0.00063772527
8.0791425e-06
0.00063312328
6.1711492e-06
0.0006288721
4.5942625e-06
0.00062484235
3.4636202e-06
0.00062084368
2.9502307e-06
0.00061682416
3.0400732e-06
0.00061280934
3.5918693e-06
0.00060881421
4.5049944e-06
0.00060484384
5.5716685e-06
0.00060090126
6.6554194e-06
0.00059698828
7.6740377e-06
0.00059310667
8.5570921e-06
0.00058926063
9.2643241e-06
0.00058545641
9.7894898e-06
0.00058170134
1.0146844e-05
0.00057800397
1.0352512e-05
0.00057437232
1.0436755e-05
0.00057081371
1.0425375e-05
0.00056733442
1.0340055e-05
0.00056393956
1.0201113e-05
0.00056063223
1.0027547e-05
0.00055741449
9.8259053e-06
0.00055428686
9.6062108e-06
0.00055124716
9.3862453e-06
0.00054829136
9.1729214e-06
0.00054541772
8.9970704e-06
0.00054262475
8.862988e-06
0.00053990557
8.7378297e-06
0.00053725018
8.6265138e-06
0.00053465044
8.5293431e-06
0.00053209951
8.4505627e-06
0.00052959028
8.3973641e-06
0.00052711753
8.3576254e-06
0.0005246763
8.3325605e-06
0.00052226325
8.3126962e-06
0.00051987558
8.2967427e-06
0.00051751119
8.2821161e-06
0.00051516883
8.2645015e-06
0.00051284706
8.2480756e-06
0.00051054508
8.2279721e-06
0.00050826198
8.2070488e-06
0.00050599493
8.1914712e-06
0.00050374557
8.1675158e-06
0.00050149621
8.2083123e-06
0.00049928082
8.1111711e-06
0.00049700206
8.335637e-06
0.00049469192
9.0587154e-06
0.00049206318
8.4901231e-06
1.1597456e-05
0.00095544605
7.2203267e-05
-0.00095244588
0.00096053123
9.1681079e-05
0.00096660157
0.0001053431
0.00097257202
0.00011139003
0.00097745595
0.00011022054
0.00098070348
0.00010370602
0.00098245647
9.4955321e-05
0.00098321717
8.6822605e-05
0.0009834282
8.0607978e-05
0.00098341401
7.6318846e-05
0.0009833254
7.3386279e-05
0.00098321097
7.1284177e-05
0.00098306688
6.9725907e-05
0.00098282904
6.8454059e-05
0.00098245182
6.7359078e-05
0.00098189782
6.6449568e-05
0.00098111726
6.5708563e-05
0.000980047
6.5048864e-05
0.00097863642
6.4456104e-05
0.00097679888
6.3945899e-05
0.00097444159
6.3486983e-05
0.00097152314
6.3026967e-05
0.00096802215
6.2556925e-05
0.00096390671
6.2065768e-05
0.00095919143
6.1532232e-05
0.00095392694
6.0953432e-05
0.00094814144
6.0322765e-05
0.00094185973
5.9625175e-05
0.00093510483
5.8879118e-05
0.00092790274
5.8095579e-05
0.00092028669
5.7247013e-05
0.00091229265
5.6317605e-05
0.00090395212
5.5323189e-05
0.00089529717
5.4266589e-05
0.00088636618
5.3123246e-05
0.00087719865
5.1877225e-05
0.00086783654
5.0530225e-05
0.00085832703
4.9074295e-05
0.00084871971
4.7489169e-05
0.00083906524
4.5759725e-05
0.00082941504
4.3879648e-05
0.0008198228
4.1833144e-05
0.00081034573
3.9599814e-05
0.00080104431
3.7151048e-05
0.00079196785
3.4521032e-05
0.00078313969
3.1805118e-05
0.00077457678
2.8994982e-05
0.00076631081
2.6092977e-05
0.00075837266
2.3165699e-05
0.00075078186
2.0282985e-05
0.00074354271
1.7523293e-05
0.0007366405
1.4981347e-05
0.00073006068
1.2750977e-05
0.00072381005
1.084489e-05
0.00071780716
9.466504e-06
0.00071191304
8.8443607e-06
0.0007060887
8.8644099e-06
0.00070035408
9.3264864e-06
0.00069472072
1.0138355e-05
0.00068919457
1.1097823e-05
0.0006837837
1.2066281e-05
0.00067849119
1.2966548e-05
0.00067331502
1.3733267e-05
0.00066825514
1.4324202e-05
0.00066331234
1.4732294e-05
0.00065848626
1.4972925e-05
0.00065377741
1.5061361e-05
0.00064918675
1.5027417e-05
0.0006447154
1.4896719e-05
0.00064036445
1.4691002e-05
0.0006361354
1.4430172e-05
0.00063202833
1.4134611e-05
0.00062804221
1.3812022e-05
0.00062417514
1.3473289e-05
0.00062042303
1.3138355e-05
0.00061678084
1.2815104e-05
0.00061324428
1.2533631e-05
0.00060981022
1.229705e-05
0.00060647388
1.2074175e-05
0.00060322699
1.1873399e-05
0.00060006155
1.1694786e-05
0.00059697008
1.1542031e-05
0.00059394476
1.1422686e-05
0.00059097937
1.1323013e-05
0.0005880679
1.1244036e-05
0.0005852057
1.117489e-05
0.00058238865
1.111379e-05
0.00057961328
1.1057487e-05
0.00057687696
1.1000828e-05
0.00057417706
1.0947977e-05
0.0005715116
1.0893431e-05
0.00056887842
1.0840226e-05
0.00056627349
1.0796404e-05
0.00056369751
1.074349e-05
0.00056113156
1.0774266e-05
0.0005586081
1.0634629e-05
0.00055602743
1.0916308e-05
0.00055344694
1.1639206e-05
0.00055044078
1.1496289e-05
1.4205842e-05
0.00098885123
6.9472834e-05
-0.0009861208
0.0009935301
8.7002211e-05
0.00099916165
9.9711545e-05
0.0010047443
0.00010580736
0.0010094026
0.00010556221
0.0010126276
0.00010048109
0.0010144771
9.3105838e-05
0.0010153769
8.5922794e-05
0.0010157637
8.0221176e-05
0.0010159366
7.6145882e-05
0.0010160354
7.328757e-05
0.0010161059
7.1213678e-05
0.0010161757
6.9656095e-05
0.0010162301
6.8399574e-05
0.0010162412
6.7348031e-05
0.0010162055
6.6485232e-05
0.0010161192
6.5794927e-05
0.0010159557
6.5212283e-05
0.0010156941
6.4717773e-05
0.0010153099
6.4330088e-05
0.0010147679
6.4029018e-05
0.001014027
6.3767827e-05
0.0010130472
6.3536758e-05
0.0010117671
6.334582e-05
0.001010124
6.317533e-05
0.0010080804
6.2997018e-05
0.0010056046
6.2798617e-05
0.0010026656
6.256416e-05
0.00099926306
6.2281652e-05
0.00099541077
6.194786e-05
0.00099111102
6.1546766e-05
0.00098636537
6.106326e-05
0.00098117851
6.0510047e-05
0.00097555935
5.9885751e-05
0.00096951993
5.9162657e-05
0.00096307441
5.8322753e-05
0.00095623822
5.7366409e-05
0.00094902795
5.6284568e-05
0.00094146236
5.505476e-05
0.00093356692
5.3655164e-05
0.00092537291
5.207366e-05
0.00091691602
5.029003e-05
0.00090823876
4.8277075e-05
0.00089937968
4.6010124e-05
0.00089041868
4.3482036e-05
0.00088145084
4.0772959e-05
0.00087250978
3.7936041e-05
0.00086361691
3.4985843e-05
0.00085480593
3.1976685e-05
0.00084611615
2.897276e-05
0.00083758813
2.6051321e-05
0.00082925877
2.3310702e-05
0.00082115661
2.0853141e-05
0.00081328936
1.871214e-05
0.00080570046
1.70554e-05
0.00079837192
1.6172897e-05
0.00079122335
1.6012982e-05
0.00078421914
1.6330699e-05
0.00077732662
1.703087e-05
0.00077054661
1.7877839e-05
0.0007638945
1.8718388e-05
0.00075737701
1.9484036e-05
0.00075099841
2.0111874e-05
0.00074476892
2.055369e-05
0.00073869499
2.0806219e-05
0.00073277707
2.0890843e-05
0.00072701629
2.082215e-05
0.00072141367
2.0630036e-05
0.00071596858
2.034181e-05
0.00071067967
1.9979907e-05
0.00070554651
1.9563335e-05
0.00070056796
1.9113159e-05
0.00069574182
1.8638161e-05
0.00069106468
1.815043e-05
0.00068653098
1.7672053e-05
0.00068213483
1.7211255e-05
0.00067787053
1.6797931e-05
0.0006737334
1.6434184e-05
0.00066971907
1.6088499e-05
0.00066582068
1.577179e-05
0.00066203103
1.5484431e-05
0.00065834273
1.5230332e-05
0.00065474755
1.5017867e-05
0.00065123853
1.4832036e-05
0.00064780868
1.467389e-05
0.00064445215
1.4531413e-05
0.00064116349
1.4402454e-05
0.0006379378
1.4283177e-05
0.00063477099
1.4167636e-05
0.00063165899
1.405998e-05
0.0006285984
1.395402e-05
0.00062558581
1.3852816e-05
0.00062261592
1.3766293e-05
0.00061968832
1.3671089e-05
0.0006167829
1.3679689e-05
0.00061393016
1.3487362e-05
0.00061102821
1.3818265e-05
0.00060815682
1.4510589e-05
0.00060476815
1.4884966e-05
1.7004193e-05
0.0010233196
6.6956464e-05
-0.0010208033
0.0010276177
8.2704144e-05
0.0010328354
9.4493808e-05
0.001038058
0.00010058484
0.0010425103
0.00010110988
0.0010457149
9.7276431e-05
0.0010476654
9.1155406e-05
0.0010487013
8.4886863e-05
0.0010492121
7.9710348e-05
0.001049482
7.5875991e-05
0.0010496599
7.3109655e-05
0.0010498069
7.1066698e-05
0.0010499479
6.9515157e-05
0.001050074
6.8273423e-05
0.0010501774
6.7244644e-05
0.0010502604
6.6402242e-05
0.0010503335
6.5721844e-05
0.0010503871
6.5158656e-05
0.0010504038
6.4701054e-05
0.0010503862
6.4347746e-05
0.0010503309
6.4084323e-05
0.0010502213
6.3877332e-05
0.0010500422
6.3715898e-05
0.0010497748
6.3613235e-05
0.0010493936
6.3556474e-05
0.0010488699
6.3520785e-05
0.0010481714
6.3497068e-05
0.0010472527
6.348291e-05
0.0010460686
6.3465717e-05
0.0010445883
6.3428139e-05
0.0010427776
6.3357517e-05
0.001040606
6.3234819e-05
0.0010380666
6.304945e-05
0.0010351558
6.279656e-05
0.0010318628
6.245565e-05
0.0010281757
6.2009844e-05
0.0010240832
6.1458901e-05
0.001019578
6.078981e-05
0.0010146562
5.9976571e-05
0.0010093137
5.8997642e-05
0.0010035457
5.7841674e-05
0.00099734827
5.6487462e-05
0.00099072084
5.4904503e-05
0.00098365953
5.3071432e-05
0.00097617379
5.096778e-05
0.00096832478
4.862197e-05
0.00096018185
4.6078969e-05
0.00095178973
4.3377964e-05
0.00094319016
4.0576251e-05
0.00093442947
3.7733451e-05
0.00092556366
3.4917133e-05
0.00091665983
3.2214527e-05
0.00090778102
2.9731955e-05
0.00089895336
2.7539798e-05
0.00089027703
2.5731735e-05
0.00088189132
2.4558603e-05
0.00087379275
2.4111549e-05
0.00086585374
2.4269718e-05
0.00085799647
2.4888131e-05
0.00085024049
2.5633824e-05
0.00084258828
2.6370594e-05
0.00083503742
2.7034897e-05
0.00082760602
2.7543276e-05
0.0008203183
2.7841408e-05
0.00081318493
2.7939587e-05
0.00080621165
2.7864127e-05
0.00079940916
2.7624638e-05
0.00079278438
2.7254816e-05
0.00078633841
2.6787782e-05
0.00078007204
2.6246275e-05
0.00077398704
2.5648338e-05
0.00076808307
2.5017127e-05
0.00076235819
2.4363043e-05
0.00075680922
2.36994e-05
0.00075143049
2.3050783e-05
0.00074621621
2.2425536e-05
0.00074116077
2.1853371e-05
0.00073625899
2.1335965e-05
0.00073150644
2.0841045e-05
0.00072689709
2.0381145e-05
0.00072242472
1.9956801e-05
0.00071808241
1.9572641e-05
0.0007138619
1.9238372e-05
0.00070975578
1.8938154e-05
0.00070575627
1.8673404e-05
0.00070185646
1.8431223e-05
0.00069804964
1.8209274e-05
0.00069432955
1.8003265e-05
0.00069069064
1.7806548e-05
0.0006871273
1.7623316e-05
0.00068363464
1.7446682e-05
0.00068020786
1.7279599e-05
0.00067684033
1.7133819e-05
0.00067353039
1.6981035e-05
0.0006702567
1.6953371e-05
0.00066704771
1.6696351e-05
0.00066379885
1.7067127e-05
0.00066061063
1.7698809e-05
0.00065682164
1.8673958e-05
2.0023176e-05
0.0010588806
6.4614451e-05
-0.0010565386
0.0010628275
7.8757238e-05
0.0010676561
8.9665156e-05
0.0010725403
9.5700691e-05
0.0010767887
9.6861478e-05
0.0010799587
9.4106398e-05
0.0010819971
8.9117022e-05
0.0010831675
8.3716473e-05
0.0010838079
7.9069998e-05
0.0010841784
7.5505493e-05
0.0010844271
7.2860934e-05
0.0010846235
7.0870317e-05
0.0010847997
6.9338928e-05
0.0010849587
6.8114447e-05
0.0010850986
6.710466e-05
0.0010852236
6.6277268e-05
0.0010853371
6.5608367e-05
0.0010854351
6.5060614e-05
0.0010855181
6.4618135e-05
0.0010855888
6.4277056e-05
0.0010856526
6.4020456e-05
0.0010857047
6.3825248e-05
0.0010857304
6.3690176e-05
0.0010857292
6.3614491e-05
0.0010856998
6.3585873e-05
0.0010856308
6.3589709e-05
0.0010855115
6.3616447e-05
0.0010853266
6.3667797e-05
0.0010850563
6.373603e-05
0.0010846793
6.3805148e-05
0.0010841691
6.3867625e-05
0.0010834907
6.391324e-05
0.0010826101
6.3930092e-05
0.0010815016
6.3905061e-05
0.0010801319
6.3825324e-05
0.0010784738
6.3667929e-05
0.0010765149
6.3417846e-05
0.0010742379
6.3066797e-05
0.0010716245
6.2589955e-05
0.0010686541
6.1968038e-05
0.0010653037
6.1192084e-05
0.0010615489
6.0242278e-05
0.0010573637
5.9089718e-05
0.0010527186
5.771648e-05
0.0010475758
5.6110615e-05
0.001041915
5.4282728e-05
0.0010357456
5.2248417e-05
0.0010290842
5.003938e-05
0.0010219485
4.7711869e-05
0.0010143627
4.5319342e-05
0.001006362
4.2917813e-05
0.00099799839
4.0578109e-05
0.00098934009
3.8390259e-05
0.00098044868
3.6431204e-05
0.00097141647
3.4763941e-05
0.00096243687
3.353821e-05
0.00095364806
3.2900361e-05
0.00094505145
3.2866327e-05
0.00093662464
3.3314939e-05
0.00092830611
3.3952358e-05
0.00092001303
3.4663666e-05
0.00091174152
3.5306407e-05
0.00090354318
3.5741619e-05
0.00089543777
3.594682e-05
0.00088743148
3.5945871e-05
0.00087954825
3.5747361e-05
0.00087181498
3.535791e-05
0.00086424362
3.4826177e-05
0.00085684096
3.4190441e-05
0.00084961778
3.3469447e-05
0.00084258273
3.2683395e-05
0.00083573846
3.1861394e-05
0.00082908636
3.101514e-05
0.00082262692
3.0158843e-05
0.00081635695
2.9320749e-05
0.00081027308
2.8509415e-05
0.0008043721
2.7754346e-05
0.00079865003
2.7058033e-05
0.00079310301
2.6388071e-05
0.00078772599
2.5758158e-05
0.00078251397
2.5168825e-05
0.00077746083
2.462578e-05
0.00077255877
2.4140437e-05
0.00076780035
2.3696573e-05
0.0007631773
2.3296447e-05
0.00075868197
2.2926561e-05
0.00075430662
2.2584623e-05
0.00075004378
2.2266105e-05
0.00074588653
2.1963796e-05
0.00074182781
2.1682038e-05
0.0007378612
2.1413292e-05
0.00073398045
2.1160345e-05
0.00073017758
2.0936692e-05
0.00072644953
2.0709081e-05
0.00072277374
2.0629169e-05
0.00071917656
2.0293529e-05
0.00071555022
2.0693469e-05
0.00071201484
2.1234188e-05
0.00070779855
2.2890242e-05
2.3293908e-05
0.0010955681
6.2418616e-05
-0.0010933722
0.0010991961
7.512923e-05
0.0011036616
8.519964e-05
0.0011082278
9.113447e-05
0.0011122745
9.281478e-05
0.0011153943
9.0986576e-05
0.001117501
8.7010336e-05
0.001118792
8.2425508e-05
0.0011195562
7.8305731e-05
0.0011200299
7.5031863e-05
0.0011203562
7.2534641e-05
0.0011206083
7.0618212e-05
0.0011208231
6.9124096e-05
0.0011210113
6.7926292e-05
0.0011211753
6.6940593e-05
0.0011213211
6.6131514e-05
0.0011214535
6.5475897e-05
0.0011215728
6.494138e-05
0.0011216806
6.4510334e-05
0.0011217804
6.4177192e-05
0.0011218735
6.3927432e-05
0.0011219572
6.3741529e-05
0.0011220319
6.3615512e-05
0.001122099
6.3547345e-05
0.0011221587
6.3526166e-05
0.0011222135
6.3534964e-05
0.0011222522
6.3577685e-05
0.0011222663
6.365369e-05
0.0011222585
6.3743866e-05
0.0011222206
6.3843069e-05
0.0011221442
6.3943982e-05
0.0011220174
6.4040051e-05
0.0011218236
6.4123901e-05
0.0011215465
6.4182157e-05
0.0011211636
6.4208249e-05
0.0011206464
6.4185079e-05
0.001119969
6.4095262e-05
0.0011191074
6.3928369e-05
0.0011180306
6.3666747e-05
0.001116713
6.3285683e-05
0.001115137
6.276803e-05
0.0011132763
6.2102977e-05
0.0011111003
6.1265798e-05
0.0011085748
6.0241969e-05
0.0011056589
5.9026483e-05
0.001102307
5.7634608e-05
0.0010984768
5.6078646e-05
0.001094133
5.4383222e-05
0.0010892444
5.2600447e-05
0.0010837852
5.0778554e-05
0.0010777379