/*--------------------------------*- C++ -*----------------------------------*\
| =========                 |                                                 |
| \\      /  F ield         | OpenFOAM: The Open Source CFD Toolbox           |
|  \\    /   O peration     | Version:  2206                                  |
|   \\  /    A nd           | Website:  www.openfoam.com                      |
|    \\/     M anipulation  |                                                 |
\*---------------------------------------------------------------------------*/
FoamFile
{
    version     2.0;
    format      ascii;
    arch        "LSB;label=32;scalar=64";
    class       volVectorField;
    location    "1000";
    object      U;
}
// * * * * * * * * * * * * * * * * * * * * * * * * * * * * * * * * * * * * * //

dimensions      [0 1 -1 0 0 0 0];

internalField   nonuniform List<vector> 
7480
(
(0.82757958 0.011162227 0)
(0.7030197 0.020211021 0)
(0.56656853 0.021425792 0)
(0.43054907 0.014558933 0)
(0.33055623 0.0062886776 0)
(0.26657725 0.0019108206 0)
(0.23007603 0.0022247589 0)
(0.20853317 -0.00029147685 0)
(0.19447477 -0.00043018748 0)
(0.18414659 -0.0001754863 0)
(0.17532298 8.1234749e-07 0)
(0.16713463 5.4024993e-05 0)
(0.1595636 6.4733885e-05 0)
(0.15266262 6.6765348e-05 0)
(0.14637514 0.000210957 0)
(0.1406374 0.00018522151 0)
(0.13540549 7.0683905e-05 0)
(0.13061902 5.2121163e-05 0)
(0.12619254 4.5274935e-05 0)
(0.12207787 4.0657852e-05 0)
(0.11825366 3.7177803e-05 0)
(0.11468398 3.5219247e-05 0)
(0.11133213 3.2993157e-05 0)
(0.10818015 3.0319301e-05 0)
(0.1052154 2.799498e-05 0)
(0.1024177 2.6275692e-05 0)
(0.099767834 2.4470978e-05 0)
(0.097256604 2.2511556e-05 0)
(0.094877397 2.079956e-05 0)
(0.092619239 1.937475e-05 0)
(0.090472531 1.7920431e-05 0)
(0.088433106 1.6438373e-05 0)
(0.086497295 1.5121437e-05 0)
(0.084659198 1.3943163e-05 0)
(0.082914264 1.2770183e-05 0)
(0.081260874 1.1615379e-05 0)
(0.07969747 1.0555541e-05 0)
(0.078222089 9.544677e-06 0)
(0.076834619 8.5271628e-06 0)
(0.075537004 7.5199232e-06 0)
(0.074331182 6.5674307e-06 0)
(0.073218631 5.6520025e-06 0)
(0.072202841 4.7288536e-06 0)
(0.071286602 3.8551128e-06 0)
(0.070474088 1.5632809e-05 0)
(0.069786679 6.6903862e-06 0)
(0.069209583 1.082064e-07 0)
(0.068772234 -1.5667617e-07 0)
(0.068474407 -8.7746074e-07 0)
(0.068312529 -1.5765652e-06 0)
(0.068282985 -2.3193406e-06 0)
(0.068379351 -2.858666e-06 0)
(0.068590843 -3.2447103e-06 0)
(0.068895284 -3.3677935e-06 0)
(0.069270995 -3.4736266e-06 0)
(0.069706159 -3.5828601e-06 0)
(0.070171548 -3.2776124e-06 0)
(0.070619934 -2.772532e-06 0)
(0.071003984 -2.3152985e-06 0)
(0.071287353 -4.9955929e-06 0)
(0.071464439 -1.0357911e-06 0)
(0.071535945 -5.0371602e-07 0)
(0.071509504 -1.4161696e-07 0)
(0.071400688 3.6098095e-08 0)
(0.07122728 1.4526775e-07 0)
(0.071005265 2.1990426e-07 0)
(0.070748997 2.506718e-07 0)
(0.070470104 2.6783842e-07 0)
(0.07017692 2.7297173e-07 0)
(0.069875695 2.6814329e-07 0)
(0.069571287 2.5567109e-07 0)
(0.06926657 2.4666884e-07 0)
(0.06896331 2.3517459e-07 0)
(0.068663511 2.197636e-07 0)
(0.068367669 2.1523486e-07 0)
(0.068076134 2.052605e-07 0)
(0.067789363 2.158745e-07 0)
(0.067497868 2.4583537e-07 0)
(0.067201455 2.5280003e-07 0)
(0.066902814 2.5876291e-07 0)
(0.066603099 2.5791653e-07 0)
(0.066302967 2.5553972e-07 0)
(0.066001105 2.6202015e-07 0)
(0.065696888 2.5952388e-07 0)
(0.065390091 2.6223427e-07 0)
(0.065080468 2.6061907e-07 0)
(0.064768376 2.5934277e-07 0)
(0.064453769 2.5854238e-07 0)
(0.06413724 2.5418796e-07 0)
(0.063818884 2.5370096e-07 0)
(0.063499081 2.4842275e-07 0)
(0.063177928 2.4755831e-07 0)
(0.062856092 2.4172424e-07 0)
(0.062531482 2.4840579e-07 0)
(0.062210009 2.2386848e-07 0)
(0.061869762 3.0907361e-07 0)
(0.061576116 8.3271282e-07 0)
(0.061138187 1.1233435e-05 0)
(0.060897483 1.9071483e-05 0)
(0.060226127 1.0253918e-05 0)
(0.95867847 0.028037689 0)
(0.94943851 0.038590782 0)
(0.93031137 0.041836511 0)
(0.88513814 0.039313766 0)
(0.82442574 0.032448539 0)
(0.75684041 0.023980031 0)
(0.69438773 0.015507328 0)
(0.64141085 0.0094014041 0)
(0.59778438 0.0060292639 0)
(0.5617309 0.0043629418 0)
(0.53124248 0.0035597305 0)
(0.50478656 0.0030816718 0)
(0.48144797 0.0027034686 0)
(0.46060683 0.0023890424 0)
(0.44177551 0.0021310549 0)
(0.42463106 0.0018772956 0)
(0.40896713 0.0016551424 0)
(0.39457652 0.0014830776 0)
(0.38126739 0.0013368192 0)
(0.36890397 0.0012053967 0)
(0.35739185 0.0010889776 0)
(0.34663485 0.00098989232 0)
(0.33654406 0.00090280423 0)
(0.32705656 0.00082384383 0)
(0.31811836 0.0007532391 0)
(0.30967769 0.00069139008 0)
(0.3016874 0.00063565923 0)
(0.29411466 0.0005841688 0)
(0.28693392 0.00053725708 0)
(0.2801171 0.00049506001 0)
(0.27363912 0.00045623173 0)
(0.26748357 0.00041994612 0)
(0.26163737 0.00038643694 0)
(0.25608607 0.00035560424 0)
(0.25081776 0.00032674585 0)
(0.2458259 0.00029949003 0)
(0.24110594 0.00027388415 0)
(0.23665424 0.00024965674 0)
(0.23247095 0.00022635965 0)
(0.22856092 0.00020380718 0)
(0.22493071 0.00018205793 0)
(0.22158742 0.00016096648 0)
(0.21854247 0.00014027921 0)
(0.21580734 0.00012006943 0)
(0.2133986 0.00010043461 0)
(0.2113474 6.6801007e-05 0)
(0.20967466 5.7766886e-05 0)
(0.20839697 3.7664762e-05 0)
(0.20752981 1.8510864e-05 0)
(0.20706414 7.0702495e-07 0)
(0.20698468 -1.5111231e-05 0)
(0.20726814 -2.8837291e-05 0)
(0.2078791 -3.9765567e-05 0)
(0.20875579 -4.7166767e-05 0)
(0.20983414 -5.2069813e-05 0)
(0.21106124 -5.4575824e-05 0)
(0.21234567 -5.2554477e-05 0)
(0.21356096 -4.6015688e-05 0)
(0.21457749 -3.4431996e-05 0)
(0.21532593 -2.5391194e-05 0)
(0.21576756 -1.4478832e-05 0)
(0.21591451 -5.0032016e-06 0)
(0.21578979 2.7663976e-06 0)
(0.21543479 8.7270728e-06 0)
(0.21489828 1.2967366e-05 0)
(0.21422501 1.5777924e-05 0)
(0.21345444 1.7416363e-05 0)
(0.21261866 1.8242916e-05 0)
(0.21174159 1.8499775e-05 0)
(0.21084111 1.8357023e-05 0)
(0.20993088 1.7952491e-05 0)
(0.20901939 1.742396e-05 0)
(0.2081123 1.6798244e-05 0)
(0.20721508 1.6108991e-05 0)
(0.20632965 1.5450302e-05 0)
(0.20545697 1.4786607e-05 0)
(0.20459688 1.4458264e-05 0)
(0.20372186 1.4444489e-05 0)
(0.20283318 1.4263345e-05 0)
(0.20193889 1.3970649e-05 0)
(0.20104185 1.3627197e-05 0)
(0.20014288 1.3297832e-05 0)
(0.1992389 1.3037639e-05 0)
(0.19832814 1.2771791e-05 0)
(0.19740972 1.2534333e-05 0)
(0.19648318 1.2284161e-05 0)
(0.19554928 1.2031348e-05 0)
(0.19460822 1.1774012e-05 0)
(0.19366152 1.1496891e-05 0)
(0.19270974 1.1228393e-05 0)
(0.191754 1.0941282e-05 0)
(0.19079476 1.0663361e-05 0)
(0.18983383 1.0387241e-05 0)
(0.18886681 1.0122275e-05 0)
(0.18790657 9.9126068e-06 0)
(0.18690482 9.6323503e-06 0)
(0.18600618 1.1501436e-05 0)
(0.18477361 3.948351e-05 0)
(0.18403212 6.4923213e-05 0)
(0.18205798 3.3891902e-05 0)
(0.96804143 0.02970695 0)
(0.97312888 0.037719774 0)
(0.98241544 0.04154279 0)
(0.9842764 0.041014534 0)
(0.97940497 0.037120885 0)
(0.96363945 0.030605531 0)
(0.93928353 0.024146351 0)
(0.91013697 0.01911643 0)
(0.87837731 0.015500393 0)
(0.84618067 0.012897267 0)
(0.81518275 0.010957356 0)
(0.78578236 0.0094044651 0)
(0.7580483 0.008118553 0)
(0.73189844 0.0070809591 0)
(0.70722931 0.0062333557 0)
(0.68398509 0.0055123483 0)
(0.66212876 0.0048984152 0)
(0.6415675 0.004384874 0)
(0.62218972 0.003945419 0)
(0.60390704 0.0035580802 0)
(0.5866481 0.0032169286 0)
(0.5703302 0.0029219256 0)
(0.55487296 0.0026627177 0)
(0.54021365 0.0024302955 0)
(0.52630009 0.0022225593 0)
(0.51307626 0.002038911 0)
(0.50048985 0.0018739397 0)
(0.48850125 0.0017232076 0)
(0.4770777 0.0015859595 0)
(0.46618547 0.0014616461 0)
(0.45579483 0.0013475568 0)
(0.44588468 0.0012416731 0)
(0.43643777 0.0011437604 0)
(0.42743706 0.0010532949 0)
(0.41886902 0.00096880505 0)
(0.41072616 0.00088926661 0)
(0.40300446 0.00081439432 0)
(0.3957022 0.0007434687 0)
(0.38882228 0.00067545917 0)
(0.38237322 0.00060977652 0)
(0.37636672 0.00054631632 0)
(0.37081665 0.00048467969 0)
(0.3657425 0.00042428784 0)
(0.36116462 0.00036527139 0)
(0.35711181 0.00030462538 0)
(0.35362227 0.00022283849 0)
(0.35073055 0.00018883679 0)
(0.34844643 0.00012885614 0)
(0.34678141 7.4190095e-05 0)
(0.3457198 2.4087314e-05 0)
(0.34523339 -2.0685846e-05 0)
(0.3452781 -5.935817e-05 0)
(0.345797 -9.0475132e-05 0)
(0.34669988 -0.00011245952 0)
(0.34789413 -0.00012693504 0)
(0.34928877 -0.00013379486 0)
(0.3507424 -0.00012949562 0)
(0.35208102 -0.00011303514 0)
(0.35314167 -8.9751349e-05 0)
(0.35383476 -5.8636938e-05 0)
(0.35411758 -3.0415957e-05 0)
(0.35400631 -5.0869711e-06 0)
(0.35353278 1.5975256e-05 0)
(0.35275431 3.2104971e-05 0)
(0.35173552 4.3611874e-05 0)
(0.3505358 5.124732e-05 0)
(0.34920758 5.5713885e-05 0)
(0.34779401 5.7897414e-05 0)
(0.34632812 5.8459716e-05 0)
(0.34483483 5.7882524e-05 0)
(0.34333304 5.6554651e-05 0)
(0.34183484 5.4830218e-05 0)
(0.34034868 5.2820883e-05 0)
(0.33888214 5.0637634e-05 0)
(0.33743826 4.8501691e-05 0)
(0.33601818 4.6391771e-05 0)
(0.33462023 4.5175457e-05 0)
(0.33320438 4.4771377e-05 0)
(0.33177797 4.3989862e-05 0)
(0.33035071 4.2930276e-05 0)
(0.32892413 4.1785507e-05 0)
(0.32749771 4.0707076e-05 0)
(0.32606711 3.9804635e-05 0)
(0.32462942 3.8933705e-05 0)
(0.32318281 3.8136959e-05 0)
(0.3217264 3.7328148e-05 0)
(0.32026084 3.6516759e-05 0)
(0.31878636 3.5694587e-05 0)
(0.31730478 3.4831415e-05 0)
(0.31581694 3.3980386e-05 0)
(0.31432427 3.3094689e-05 0)
(0.31282748 3.2220836e-05 0)
(0.31132898 3.1365786e-05 0)
(0.30982343 3.051071e-05 0)
(0.30832643 2.9885027e-05 0)
(0.30677878 2.884009e-05 0)
(0.3053573 3.1468259e-05 0)
(0.30351656 7.1947554e-05 0)
(0.30231327 0.00011309739 0)
(0.29932147 5.3935297e-05 0)
(0.97008449 0.027083898 0)
(0.9764341 0.034266097 0)
(0.98549228 0.038379825 0)
(0.99345858 0.039213558 0)
(1.0016634 0.036177301 0)
(1.0025505 0.031201928 0)
(0.9995929 0.026293194 0)
(0.99335362 0.022247222 0)
(0.9842248 0.01936819 0)
(0.97253448 0.017346128 0)
(0.95871114 0.015775736 0)
(0.94315242 0.014349304 0)
(0.92573452 0.013014162 0)
(0.90739184 0.011779779 0)
(0.88857791 0.010668766 0)
(0.86957819 0.0096631556 0)
(0.85059447 0.0087598226 0)
(0.8317509 0.0079704941 0)
(0.81313786 0.0072746909 0)
(0.79484755 0.0066464158 0)
(0.77696008 0.0060785892 0)
(0.75952063 0.0055727396 0)
(0.74255331 0.0051176401 0)
(0.72607836 0.0047029578 0)
(0.71011404 0.0043266285 0)
(0.69466233 0.0039882191 0)
(0.67971762 0.00368091 0)
(0.66527689 0.0033986344 0)
(0.65133625 0.0031399469 0)
(0.63788596 0.0029036647 0)
(0.62491605 0.0026857032 0)
(0.61242109 0.0024828776 0)
(0.6003967 0.0022944172 0)
(0.58883734 0.0021192305 0)
(0.57774 0.0019549562 0)
(0.56710712 0.0017998231 0)
(0.55694456 0.0016531999 0)
(0.54725819 0.0015139177 0)
(0.53805688 0.0013802733 0)
(0.52935431 0.0012511904 0)
(0.5211675 0.0011263121 0)
(0.51351618 0.0010049037 0)
(0.50642557 0.0008860397 0)
(0.4999216 0.00076955078 0)
(0.49404118 0.00065247026 0)
(0.48882619 0.0005576605 0)
(0.48428573 0.0004252084 0)
(0.48043557 0.0003134495 0)
(0.47726526 0.000210138 0)
(0.47475411 0.00011564179 0)
(0.47287073 3.139481e-05 0)
(0.471569 -4.1263275e-05 0)
(0.47078264 -9.9877222e-05 0)
(0.47041554 -0.00014222301 0)
(0.47038057 -0.00017102027 0)
(0.4705686 -0.0001856583 0)
(0.47081382 -0.00017818947 0)
(0.47094488 -0.00015107847 0)
(0.47082731 -0.00011610132 0)
(0.47039573 -6.1012019e-05 0)
(0.46962001 -1.5005509e-05 0)
(0.46851612 2.6191774e-05 0)
(0.46711714 6.0193215e-05 0)
(0.46547153 8.6057342e-05 0)
(0.46363253 0.00010427055 0)
(0.46164996 0.00011602426 0)
(0.45956908 0.000122479 0)
(0.45742833 0.00012505169 0)
(0.45525812 0.00012484629 0)
(0.45308194 0.0001226927 0)
(0.45091769 0.00011927106 0)
(0.44877687 0.00011516237 0)
(0.44666833 0.00011057295 0)
(0.44459955 0.00010572109 0)
(0.44257331 0.00010097248 0)
(0.44059016 9.6372661e-05 0)
(0.43864591 9.2941993e-05 0)
(0.43673198 9.0724968e-05 0)
(0.43484132 8.8355944e-05 0)
(0.43296958 8.5805329e-05 0)
(0.43111263 8.3249474e-05 0)
(0.42926762 8.087829e-05 0)
(0.4274291 7.8839859e-05 0)
(0.42559282 7.6920323e-05 0)
(0.4237558 7.5157157e-05 0)
(0.42191613 7.3412433e-05 0)
(0.42007355 7.168686e-05 0)
(0.41822765 6.9960082e-05 0)
(0.41637962 6.8184839e-05 0)
(0.41452992 6.6435366e-05 0)
(0.41267947 6.4647647e-05 0)
(0.41082873 6.2879069e-05 0)
(0.4089799 6.1164203e-05 0)
(0.40712704 5.9429408e-05 0)
(0.40528622 5.8187988e-05 0)
(0.40339478 5.5990787e-05 0)
(0.40163493 5.9401988e-05 0)
(0.39945103 0.00010673106 0)
(0.39791686 0.00015745361 0)
(0.39438531 9.0611058e-05 0)
(0.97244302 0.025563755 0)
(0.9778016 0.032401033 0)
(0.98589184 0.036408917 0)
(0.99419997 0.037070538 0)
(1.0012809 0.03467014 0)
(1.0056342 0.03063687 0)
(1.0079731 0.02637296 0)
(1.0071238 0.022757455 0)
(1.0053154 0.020141743 0)
(1.0028072 0.018353358 0)
(0.99960074 0.017016936 0)
(0.99559615 0.015923389 0)
(0.99030416 0.014971303 0)
(0.98363418 0.014078506 0)
(0.97560086 0.013225566 0)
(0.96632793 0.01237306 0)
(0.95571505 0.011537239 0)
(0.94421375 0.010746967 0)
(0.9320205 0.010009769 0)
(0.91927781 0.0093174561 0)
(0.90610184 0.0086712913 0)
(0.89259554 0.0080775351 0)
(0.87883612 0.0075278694 0)
(0.86490962 0.0070125453 0)
(0.85090032 0.0065310427 0)
(0.83687637 0.0060855743 0)
(0.82289593 0.0056707011 0)
(0.80901367 0.0052814476 0)
(0.79527695 0.0049178939 0)
(0.78172229 0.0045800269 0)
(0.76838099 0.0042638801 0)
(0.75528376 0.003966248 0)
(0.74245837 0.0036865922 0)
(0.72992823 0.0034237368 0)
(0.71771681 0.0031747464 0)
(0.70585198 0.0029373629 0)
(0.69436239 0.0027112728 0)
(0.68326492 0.0024955137 0)
(0.67257816 0.0022879051 0)
(0.66232567 0.0020868299 0)
(0.65253399 0.0018916078 0)
(0.64323153 0.0017011601 0)
(0.63445099 0.0015142675 0)
(0.6262248 0.0013303669 0)
(0.61860326 0.001147535 0)
(0.61160579 0.00096763657 0)
(0.60522892 0.00079045398 0)
(0.59946862 0.00062363895 0)
(0.59431913 0.00046704386 0)
(0.58977118 0.00032339959 0)
(0.58580535 0.00019488853 0)
(0.58238971 8.3627245e-05 0)
(0.57946674 -6.8872287e-06 0)
(0.57695373 -7.4292287e-05 0)
(0.57479826 -0.00012054398 0)
(0.57285021 -0.00014178593 0)
(0.57093197 -0.00013398562 0)
(0.5689331 -0.00010056545 0)
(0.56679784 -5.9319327e-05 0)
(0.56450863 9.2685505e-06 0)
(0.56205665 6.4744379e-05 0)
(0.559456 0.00011403368 0)
(0.55672415 0.00015412663 0)
(0.55388545 0.00018396388 0)
(0.55096769 0.00020418423 0)
(0.5479982 0.00021624357 0)
(0.54500358 0.00022156668 0)
(0.54200781 0.00022191959 0)
(0.53903081 0.00021870524 0)
(0.53608859 0.00021300628 0)
(0.53319351 0.00020573008 0)
(0.53035333 0.00019761823 0)
(0.52757534 0.00018894357 0)
(0.52486486 0.00018003248 0)
(0.52222297 0.0001713829 0)
(0.51964867 0.00016311793 0)
(0.51713605 0.00015639565 0)
(0.51469335 0.00015118961 0)
(0.51230948 0.00014602546 0)
(0.50997191 0.00014098048 0)
(0.50767163 0.00013617601 0)
(0.50540317 0.00013176956 0)
(0.50315988 0.00012791538 0)
(0.50093623 0.00012433095 0)
(0.49872796 0.00012103913 0)
(0.49653186 0.00011784862 0)
(0.49434635 0.00011474426 0)
(0.49216986 0.00011168787 0)
(0.4900024 0.00010861215 0)
(0.48784351 0.00010560521 0)
(0.48569312 0.00010258544 0)
(0.483551 9.9613411e-05 0)
(0.48141861 9.6756785e-05 0)
(0.47928927 9.3871158e-05 0)
(0.47717844 9.1793812e-05 0)
(0.475023 8.8183033e-05 0)
(0.47299935 9.218853e-05 0)
(0.47057819 0.00014223006 0)
(0.46878233 0.00019725884 0)
(0.46490008 0.00014656325 0)
(0.97463271 0.024511631 0)
(0.97932509 0.030794609 0)
(0.98639829 0.034469534 0)
(0.9938114 0.03511391 0)
(1.0002081 0.033235019 0)
(1.0048351 0.029796413 0)
(1.0073285 0.025982629 0)
(1.0083145 0.022699343 0)
(1.0079908 0.020248127 0)
(1.0074381 0.018528978 0)
(1.0068083 0.017262832 0)
(1.0060516 0.016264195 0)
(1.0050208 0.015424007 0)
(1.0036017 0.014654068 0)
(1.0016804 0.013929749 0)
(0.99919135 0.013259656 0)
(0.99589856 0.01263922 0)
(0.99174861 0.012045533 0)
(0.98672645 0.011470987 0)
(0.98084608 0.010899159 0)
(0.97404139 0.010331209 0)
(0.96650218 0.0097847618 0)
(0.95831562 0.0092600477 0)
(0.94954643 0.0087549088 0)
(0.94025182 0.0082715795 0)
(0.93048799 0.0078131291 0)
(0.92031428 0.0073753187 0)
(0.90978706 0.0069542767 0)
(0.89896341 0.0065512436 0)
(0.88789949 0.0061674386 0)
(0.87664973 0.0057998323 0)
(0.86526913 0.005446317 0)
(0.85381011 0.005107757 0)
(0.84231936 0.0047839709 0)
(0.83084148 0.004472463 0)
(0.81942185 0.0041712994 0)
(0.80810552 0.0038802583 0)
(0.79693708 0.0035986723 0)
(0.78596024 0.0033248746 0)
(0.77521902 0.0030575268 0)
(0.76475699 0.0027961132 0)
(0.75461768 0.0025394721 0)
(0.74484779 0.0022863092 0)
(0.73549406 0.0020349976 0)
(0.7266342 0.0017874013 0)
(0.71820644 0.0015464596 0)
(0.71021956 0.0013130456 0)
(0.70271515 0.0010881933 0)
(0.69572052 0.0008762527 0)
(0.68924508 0.00068116196 0)
(0.68327933 0.0005059203 0)
(0.67779491 0.0003536768 0)
(0.67273745 0.00022843387 0)
(0.66805282 0.00013083222 0)
(0.66374087 6.5101832e-05 0)
(0.65952255 3.5439102e-05 0)
(0.65526976 3.9653514e-05 0)
(0.65100783 7.0087524e-05 0)
(0.6467633 0.00010996656 0)
(0.64254708 0.00017480097 0)
(0.63835639 0.00022748478 0)
(0.63419747 0.00027396371 0)
(0.63007044 0.00031083348 0)
(0.62597791 0.00033692998 0)
(0.62192602 0.00035285912 0)
(0.61792206 0.00036009938 0)
(0.61397461 0.00036011056 0)
(0.61009266 0.00035478634 0)
(0.60628451 0.00034564276 0)
(0.60255735 0.00033387065 0)
(0.59891731 0.00032048477 0)
(0.59536883 0.00030634987 0)
(0.59191433 0.00029178684 0)
(0.58855568 0.00027717618 0)
(0.58529171 0.0002631146 0)
(0.58211965 0.00024978835 0)
(0.57903317 0.0002382037 0)
(0.5760347 0.00022836157 0)
(0.57311941 0.00021904704 0)
(0.57027689 0.00021034507 0)
(0.56749678 0.00020225304 0)
(0.56477195 0.00019486503 0)
(0.56209475 0.0001883232 0)
(0.55945862 0.00018227504 0)
(0.55685821 0.00017672183 0)
(0.55428903 0.00017141798 0)
(0.55174812 0.00016632657 0)
(0.54923263 0.00016138656 0)
(0.54674116 0.00015650654 0)
(0.54427206 0.00015177749 0)
(0.54182447 0.00014710053 0)
(0.53939694 0.00014253764 0)
(0.53698971 0.00013818945 0)
(0.53459529 0.00013382514 0)
(0.53222789 0.00013063363 0)
(0.52982544 0.00012532492 0)
(0.52755397 0.00012950823 0)
(0.52491784 0.00017954114 0)
(0.52288863 0.00023677847 0)
(0.51869726 0.0001903157 0)
(0.97660528 0.023525716 0)
(0.98076592 0.029152615 0)
(0.98702431 0.032517889 0)
(0.99364249 0.033276517 0)
(0.99945242 0.031816124 0)
(1.0037667 0.028881685 0)
(1.0063142 0.025505005 0)
(1.0074689 0.022522391 0)
(1.0077854 0.020236422 0)
(1.0077642 0.018571368 0)
(1.0076664 0.017318228 0)
(1.0075622 0.016318074 0)
(1.0074422 0.015484218 0)
(1.0072615 0.014744497 0)
(1.0069581 0.014071019 0)
(1.0064925 0.013463192 0)
(1.0058193 0.012909914 0)
(1.0048831 0.012387237 0)
(1.0036245 0.011890371 0)
(1.0019894 0.011423896 0)
(0.99984818 0.010983476 0)
(0.99714702 0.010556355 0)
(0.99386092 0.010137516 0)
(0.98996482 0.009719259 0)
(0.98541487 0.0093033153 0)
(0.98029057 0.0088977609 0)
(0.97461937 0.0085010906 0)
(0.96842664 0.0081118558 0)
(0.96173682 0.0077325658 0)
(0.95457509 0.0073645888 0)
(0.94697107 0.0070047435 0)
(0.93896085 0.0066510471 0)
(0.93058162 0.0063054085 0)
(0.92186219 0.005968281 0)
(0.9128399 0.0056371706 0)
(0.90355508 0.0053105959 0)
(0.89404787 0.0049894873 0)
(0.88436541 0.0046738573 0)
(0.8745573 0.0043620322 0)
(0.86467492 0.004052917 0)
(0.85477056 0.0037464986 0)
(0.8448979 0.0034420164 0)
(0.83511352 0.0031384892 0)
(0.82547729 0.0028344817 0)
(0.81605368 0.0025306403 0)
(0.80688147 0.0022357155 0)
(0.79796506 0.0019528818 0)
(0.78933642 0.0016802395 0)
(0.78103015 0.0014213081 0)
(0.7730734 0.0011802329 0)
(0.76547919 0.00096113201 0)
(0.75824308 0.00076857325 0)
(0.75133889 0.00060702935 0)
(0.74476215 0.00047573649 0)
(0.73853487 0.00038113852 0)
(0.73246434 0.00033334958 0)
(0.7264548 0.00032723239 0)
(0.7205272 0.00034772854 0)
(0.71470093 0.00037954821 0)
(0.70898317 0.00043010524 0)
(0.70337805 0.00047123774 0)
(0.69789585 0.00050635947 0)
(0.69253383 0.00053237244 0)
(0.68729003 0.00054801376 0)
(0.68216612 0.00055380217 0)
(0.67716215 0.00055121675 0)
(0.67227768 0.0005416625 0)
(0.66751364 0.00052702104 0)
(0.6628714 0.00050880126 0)
(0.65835191 0.00048821497 0)
(0.65395645 0.00046629527 0)
(0.64968662 0.00044393417 0)
(0.64554126 0.00042147014 0)
(0.64151935 0.00039933383 0)
(0.63761763 0.00037818935 0)
(0.63383166 0.00035824543 0)
(0.63015502 0.00034041323 0)
(0.62658508 0.00032466087 0)
(0.62311882 0.00030988972 0)
(0.61974889 0.000296245 0)
(0.61646604 0.00028365775 0)
(0.61326284 0.00027216665 0)
(0.6101312 0.00026189459 0)
(0.60706385 0.00025241898 0)
(0.60405461 0.00024371558 0)
(0.60109789 0.00023548448 0)
(0.59818948 0.00022766276 0)
(0.59532521 0.00022016193 0)
(0.5925023 0.0002128621 0)
(0.58971778 0.00020585005 0)
(0.58696975 0.00019900494 0)
(0.5842555 0.00019238441 0)
(0.58157395 0.00018612197 0)
(0.57891678 0.00017989006 0)
(0.57629663 0.0001752399 0)
(0.57365296 0.00016791912 0)
(0.57114068 0.00017184628 0)
(0.56829476 0.00022020643 0)
(0.56604929 0.00027901698 0)
(0.56156646 0.00023440196 0)
(0.97840521 0.022612366 0)
(0.98210747 0.027631706 0)
(0.98765363 0.030751012 0)
(0.99359451 0.031604442 0)
(0.99890243 0.030476965 0)
(1.0029399 0.027994323 0)
(1.0054647 0.025028238 0)
(1.0067115 0.022315139 0)
(1.0071943 0.020161348 0)
(1.0073636 0.018542941 0)
(1.0074554 0.017305357 0)
(1.007536 0.016311116 0)
(1.0076009 0.015478502 0)
(1.0076716 0.014744339 0)
(1.0077111 0.014081913 0)
(1.0076977 0.013485601 0)
(1.00764 0.012946315 0)
(1.0075214 0.012446463 0)
(1.0073165 0.011980694 0)
(1.0070027 0.011550629 0)
(1.0065509 0.011149303 0)
(1.0059231 0.010764941 0)
(1.0050803 0.010395207 0)
(1.0039772 0.010042715 0)
(1.002535 0.0097046388 0)
(1.0007115 0.0093744729 0)
(0.99847771 0.0090477677 0)
(0.99579529 0.0087203588 0)
(0.99264054 0.0083942308 0)
(0.98903995 0.0080725207 0)
(0.9849953 0.0077534757 0)
(0.98050635 0.0074357394 0)
(0.97557602 0.0071207304 0)
(0.97021298 0.0068090582 0)
(0.96442642 0.0064985165 0)
(0.95822957 0.0061875418 0)
(0.95163699 0.0058768195 0)
(0.94466626 0.0055662048 0)
(0.93733249 0.0052541375 0)
(0.92965704 0.0049394992 0)
(0.92166914 0.0046223336 0)
(0.91340231 0.0043019842 0)
(0.90489394 0.0039773966 0)
(0.89619068 0.0036472187 0)
(0.88732121 0.0033139094 0)
(0.87841999 0.0029866633 0)
(0.86953719 0.0026676012 0)
(0.86068837 0.0023575044 0)
(0.85190225 0.0020604662 0)
(0.84321624 0.0017808903 0)
(0.83467114 0.0015234679 0)
(0.82630639 0.0012936643 0)
(0.81815577 0.0010969461 0)
(0.81024136 0.00093256194 0)
(0.80255707 0.00080757566 0)
(0.79519765 0.00073759794 0)
(0.78802541 0.00071371916 0)
(0.78102124 0.0007162482 0)
(0.77413435 0.00073278902 0)
(0.76735256 0.00076390984 0)
(0.76069059 0.00078802904 0)
(0.75416232 0.0008065375 0)
(0.74776755 0.00081670817 0)
(0.74151496 0.00081703445 0)
(0.73541584 0.00080808113 0)
(0.72947169 0.00079150617 0)
(0.72368217 0.00076861525 0)
(0.71804934 0.00074122256 0)
(0.71257352 0.00071084314 0)
(0.70725307 0.00067867416 0)
(0.70208699 0.00064568363 0)
(0.69707525 0.0006127722 0)
(0.69221587 0.00058030188 0)
(0.68750641 0.00054871269 0)
(0.6829422 0.00051870941 0)
(0.67851749 0.00049048816 0)
(0.67422586 0.00046491254 0)
(0.6700622 0.00044188656 0)
(0.66602304 0.00042030227 0)
(0.66210272 0.00040036648 0)
(0.65829357 0.00038198258 0)
(0.65458874 0.00036515499 0)
(0.6509802 0.00034999351 0)
(0.64746031 0.00033600941 0)
(0.64402221 0.00032315235 0)
(0.64065944 0.00031106923 0)
(0.6373666 0.00029966867 0)
(0.63413831 0.00028883127 0)
(0.63097041 0.00027840473 0)
(0.62785863 0.00026846318 0)
(0.62479961 0.00025886068 0)
(0.62178948 0.00024964804 0)
(0.61882592 0.00024098686 0)
(0.61589973 0.0002324449 0)
(0.61302187 0.00022593636 0)
(0.6101333 0.00021625322 0)
(0.60737853 0.00021953426 0)
(0.60431737 0.00026527933 0)
(0.60186121 0.00032596882 0)
(0.59708593 0.00028030426 0)
(0.98004961 0.021775047 0)
(0.98336058 0.026246652 0)
(0.98827264 0.029130933 0)
(0.99359936 0.030040269 0)
(0.99844796 0.029192495 0)
(1.0022413 0.027113008 0)
(1.004735 0.02452389 0)
(1.0060811 0.022065504 0)
(1.0066918 0.020046988 0)
(1.0069663 0.018486218 0)
(1.0071362 0.017269597 0)
(1.0072828 0.016282453 0)
(1.0074202 0.01545138 0)
(1.007551 0.014721763 0)
(1.0076627 0.014066242 0)
(1.007753 0.013474703 0)
(1.0078219 0.012938373 0)
(1.0078902 0.012443337 0)
(1.0079255 0.011985392 0)
(1.007923 0.011563741 0)
(1.0078901 0.011172103 0)
(1.0078147 0.010802501 0)
(1.0076804 0.010452158 0)
(1.0074705 0.010121922 0)
(1.0071647 0.0098081006 0)
(1.0067363 0.0095051021 0)
(1.0061587 0.0092114239 0)
(1.0053934 0.0089273501 0)
(1.0043906 0.0086508511 0)
(1.0031165 0.0083786177 0)
(1.0015466 0.0081068694 0)
(0.99963659 0.0078327748 0)
(0.99737251 0.0075584575 0)
(0.99475769 0.0072850025 0)
(0.99178181 0.0070104001 0)
(0.98843249 0.0067332695 0)
(0.98469924 0.0064539533 0)
(0.9805725 0.0061717984 0)
(0.97604756 0.0058850397 0)
(0.97112092 0.005592762 0)
(0.96578812 0.0052949457 0)
(0.96004508 0.0049906815 0)
(0.95388845 0.0046784629 0)
(0.94732017 0.0043576604 0)
(0.94032969 0.0040293699 0)
(0.93294921 0.0036982678 0)
(0.92526264 0.003368443 0)
(0.91731796 0.003044079 0)
(0.90915423 0.0027304355 0)
(0.90081201 0.0024317725 0)
(0.89233978 0.0021526078 0)
(0.88379652 0.0018984136 0)
(0.87525244 0.0016744877 0)
(0.86675785 0.001481728 0)
(0.85831159 0.001326885 0)
(0.85011172 0.0012220989 0)
(0.84222315 0.0011655681 0)
(0.83457148 0.0011458501 0)
(0.82698643 0.0011461422 0)
(0.81949244 0.0011577306 0)
(0.81210382 0.0011639596 0)
(0.80480875 0.0011648588 0)
(0.79761467 0.0011573531 0)
(0.79054953 0.001139949 0)
(0.78363117 0.001113715 0)
(0.77686219 0.0010805566 0)
(0.77025142 0.0010415913 0)
(0.76381004 0.00099869417 0)
(0.75754038 0.00095356187 0)
(0.75144214 0.00090735367 0)
(0.74551718 0.00086093756 0)
(0.73976687 0.00081525086 0)
(0.73418942 0.00077068183 0)
(0.72878282 0.00072767093 0)
(0.72354265 0.0006869607 0)
(0.71846303 0.00064871718 0)
(0.71353825 0.00061376237 0)
(0.70876305 0.00058193666 0)
(0.70413343 0.00055207702 0)
(0.69964441 0.00052442324 0)
(0.6952897 0.00049885497 0)
(0.69106341 0.00047536021 0)
(0.68695794 0.00045404779 0)
(0.68296565 0.00043436976 0)
(0.67907929 0.00041625278 0)
(0.67529168 0.00039929254 0)
(0.67159648 0.00038336803 0)
(0.66798722 0.00036832661 0)
(0.66445849 0.00035398024 0)
(0.66100475 0.00034038638 0)
(0.65762121 0.00032736896 0)
(0.65430278 0.00031496464 0)
(0.65104589 0.00030335871 0)
(0.64784047 0.00029200918 0)
(0.64469576 0.00028318958 0)
(0.64155403 0.00027074917 0)
(0.6385506 0.00027300087 0)
(0.63526442 0.00031556699 0)
(0.63259619 0.00037895062 0)
(0.62751838 0.00032949599 0)
(0.98155171 0.020999717 0)
(0.98452581 0.024975195 0)
(0.9888773 0.027626247 0)
(0.99364671 0.028568736 0)
(0.99806931 0.027961523 0)
(1.0016253 0.026237037 0)
(1.0040716 0.023990685 0)
(1.0054983 0.021777878 0)
(1.0062308 0.019901051 0)
(1.0066109 0.018408305 0)
(1.0068538 0.017220192 0)
(1.0070472 0.016244069 0)
(1.0072173 0.01541651 0)
(1.0073723 0.014690614 0)
(1.0075117 0.014039464 0)
(1.0076347 0.013451586 0)
(1.007744 0.012917911 0)
(1.0078429 0.012427014 0)
(1.0079263 0.01197365 0)
(1.0079979 0.011554794 0)
(1.0080565 0.011165278 0)
(1.0081152 0.010798539 0)
(1.008154 0.010453067 0)
(1.008163 0.010128706 0)
(1.0081505 0.0098216348 0)
(1.0081071 0.0095284542 0)
(1.0080231 0.0092474436 0)
(1.0078848 0.008977492 0)
(1.0076776 0.008716667 0)
(1.0073812 0.0084623008 0)
(1.0069769 0.0082134849 0)
(1.006432 0.0079694893 0)
(1.0057132 0.0077285911 0)
(1.0047934 0.0074889016 0)
(1.0036522 0.0072473165 0)
(1.0022458 0.0070017665 0)
(1.000568 0.006753343 0)
(0.9986034 0.0065020193 0)
(0.99633527 0.0062463651 0)
(0.99374522 0.0059850079 0)
(0.99081324 0.0057175767 0)
(0.98751754 0.0054432358 0)
(0.98383452 0.0051603507 0)
(0.97973898 0.0048683925 0)
(0.97520066 0.004567287 0)
(0.97018178 0.0042601 0)
(0.96468145 0.0039502386 0)
(0.95871737 0.0036410486 0)
(0.95230406 0.0033376965 0)
(0.9454596 0.0030446096 0)
(0.93821046 0.0027660486 0)
(0.93059606 0.0025068782 0)
(0.9226739 0.0022725081 0)
(0.91451324 0.002066444 0)
(0.90615841 0.00189247 0)
(0.89773921 0.0017607436 0)
(0.88948504 0.0016740333 0)
(0.88141838 0.0016229995 0)
(0.8735209 0.0015981088 0)
(0.86576978 0.0015905725 0)
(0.85807382 0.0015821122 0)
(0.85036903 0.0015681508 0)
(0.84271372 0.0015437342 0)
(0.83514576 0.0015088955 0)
(0.82766265 0.0014654386 0)
(0.82027889 0.0014149008 0)
(0.81302504 0.0013584831 0)
(0.80591969 0.0012985678 0)
(0.79896661 0.0012370676 0)
(0.79217469 0.0011750089 0)
(0.7855551 0.0011132559 0)
(0.77911244 0.0010529311 0)
(0.77284728 0.00099442969 0)
(0.76676159 0.00093816928 0)
(0.76085394 0.00088497367 0)
(0.75512042 0.00083497761 0)
(0.74955819 0.00078895155 0)
(0.74416397 0.00074670308 0)
(0.73893426 0.00070702129 0)
(0.7338649 0.00067015151 0)
(0.72895105 0.00063594039 0)
(0.72418795 0.00060437244 0)
(0.71956883 0.00057556524 0)
(0.71508654 0.00054891998 0)
(0.71073378 0.00052434779 0)
(0.70650297 0.00050139572 0)
(0.70238718 0.00047991314 0)
(0.69837908 0.00045971359 0)
(0.69447224 0.00044057096 0)
(0.69065996 0.00042252314 0)
(0.68693621 0.00040535944 0)
(0.68329467 0.00038909549 0)
(0.67973057 0.00037393494 0)
(0.67623295 0.00035922189 0)
(0.67280938 0.00034758402 0)
(0.66940317 0.00033194021 0)
(0.66614176 0.00033275839 0)
(0.66261842 0.00037172889 0)
(0.65973207 0.00043885142 0)
(0.65433641 0.0003826228 0)
(0.98292489 0.020275221 0)
(0.9856064 0.023805798 0)
(0.98946506 0.026232948 0)
(0.9937322 0.027193193 0)
(0.99776093 0.026790099 0)
(1.0010846 0.025374411 0)
(1.0034661 0.023437678 0)
(1.0049482 0.021458484 0)
(1.0057838 0.019724257 0)
(1.0062618 0.018305538 0)
(1.0065783 0.017152513 0)
(1.0068227 0.016192932 0)
(1.0070275 0.015373288 0)
(1.0072064 0.014653367 0)
(1.007364 0.014007674 0)
(1.0075025 0.013424001 0)
(1.0076261 0.012893394 0)
(1.0077385 0.012405736 0)
(1.0078403 0.011955142 0)
(1.0079331 0.011538256 0)
(1.008019 0.011150266 0)
(1.0080991 0.010785812 0)
(1.00817 0.01044309 0)
(1.0082336 0.010120639 0)
(1.00829 0.009815439 0)
(1.0083399 0.0095239086 0)
(1.0083895 0.0092454295 0)
(1.0084093 0.0089797483 0)
(1.0084135 0.0087238924 0)
(1.0083946 0.0084763218 0)
(1.0083459 0.0082362113 0)
(1.008257 0.0080017629 0)
(1.0081161 0.0077714828 0)
(1.0079077 0.0075439368 0)