# y+ ()             
# Time              	patch               	min                 	max                 	average             
1000                	top	0.000000000000e+00	0.000000000000e+00	0.000000000000e+00
