# Region            : all region0
# Cells             : 3000
# Volume            : 8.000000000000e-02
# Time              	max(p)	max(k)	max(omega)	max(nut)	max(epsilon)	max(nuTilda)
1                   	2.553961049970e-01	1.689036617412e-03	9.050327201733e+03	2.063015069025e-05
2                   	2.734156123836e-01	1.764969850110e-03	9.055746551455e+03	1.289471260932e-03
3                   	2.289589530059e-01	2.151528913008e-03	9.060328145356e+03	4.355052798406e-05
4                   	2.048435838533e-01	2.346112245231e-03	9.062720333500e+03	3.678133819903e-05
5                   	1.988574090096e-01	2.453120333255e-03	9.063924257142e+03	2.282721700935e-05
6                   	1.977688107749e-01	2.515219989784e-03	9.064586268145e+03	2.350752475946e-05
7                   	1.975177467729e-01	2.553962276496e-03	9.064970428672e+03	2.419412982159e-05
8                   	1.976537008489e-01	2.578705331306e-03	9.065210087731e+03	2.482386112584e-05
9                   	1.984269569510e-01	2.595128703864e-03	9.065363144488e+03	2.531667291754e-05
10                  	1.997403175193e-01	2.606101886528e-03	9.065464735535e+03	2.558568805741e-05
11                  	2.015855250181e-01	2.613593889512e-03	9.065532612379e+03	2.555658247009e-05
12                  	2.039087085388e-01	2.618733438217e-03	9.065578955389e+03	2.518895189896e-05
13                  	2.067738817515e-01	2.622333915100e-03	9.065610746771e+03	2.449211230702e-05
14                  	2.102143307190e-01	2.624890208220e-03	9.065633017947e+03	2.352722737807e-05
15                  	2.143234899418e-01	2.768999552737e-03	9.065648830168e+03	2.568927109819e-05
16                  	2.191848765265e-01	3.307535078209e-03	9.065660306871e+03	3.286824678807e-05
17                  	2.249014074316e-01	3.879480480538e-03	9.065668772638e+03	4.192816290453e-05
18                  	2.315485517551e-01	4.464419039884e-03	9.065675138921e+03	5.336648409575e-05
19                  	2.391738583451e-01	5.088944575353e-03	9.065679992414e+03	6.708775749291e-05
20                  	2.477729100218e-01	5.682335771679e-03	9.065683742489e+03	8.302984880440e-05
21                  	2.572917606259e-01	6.226035805175e-03	9.065686665531e+03	1.016173165259e-04
22                  	2.676302242089e-01	6.742735180309e-03	9.065688959859e+03	1.221959976384e-04
23                  	2.786548184135e-01	7.203276394874e-03	9.065690766391e+03	1.447854090395e-04
24                  	2.902089008370e-01	7.625535753691e-03	9.065692190044e+03	1.695124250285e-04
25                  	3.021213446060e-01	7.997025249914e-03	9.065693308764e+03	1.954401328792e-04
26                  	3.142079693946e-01	8.333267350026e-03	9.065694182714e+03	2.230784510372e-04
27                  	3.262709030512e-01	8.628396491218e-03	9.065694859133e+03	2.525223534746e-04
28                  	3.380952897110e-01	8.902940081584e-03	9.065695375674e+03	2.829600322759e-04
29                  	3.494454799195e-01	9.147659821357e-03	9.065695762245e+03	3.147241721001e-04
30                  	3.600308476255e-01	9.392282784529e-03	9.065696043661e+03	3.488879586602e-04
31                  	3.693911208665e-01	9.617413606969e-03	9.065696241040e+03	3.841894724739e-04
32                  	3.767646422965e-01	9.864413831377e-03	9.065696372469e+03	4.206675965945e-04
33                  	3.813802870280e-01	1.009223915327e-02	9.065696453352e+03	4.594326898885e-04
34                  	3.830118695409e-01	1.031635484805e-02	9.065696496632e+03	4.975674971925e-04
35                  	3.820796458519e-01	1.050496393174e-02	9.065696512970e+03	5.359695576307e-04
36                  	3.793208009426e-01	1.066172627027e-02	9.065696510975e+03	5.728742336165e-04
37                  	3.754560849259e-01	1.080007640210e-02	9.065696497442e+03	6.085264295850e-04
38                  	3.710429259314e-01	1.090077302295e-02	9.065696477556e+03	6.403666905658e-04
39                  	3.664628545992e-01	1.096567939569e-02	9.065696455153e+03	6.711796636587e-04
40                  	3.619576154981e-01	1.099696378046e-02	9.065696433002e+03	6.980583230417e-04
41                  	3.576694327608e-01	1.099701715390e-02	9.065696413025e+03	7.207683203109e-04
42                  	3.536729610363e-01	1.096837643390e-02	9.065696396469e+03	7.394072454163e-04
43                  	3.499986537631e-01	1.091366539071e-02	9.065696384044e+03	7.558814203400e-04
44                  	3.466498305460e-01	1.083555471980e-02	9.065696376056e+03	7.683601818565e-04
45                  	3.436139762583e-01	1.073673564080e-02	9.065696372503e+03	7.769975156987e-04
46                  	3.408701204788e-01	1.061990084206e-02	9.065696373142e+03	7.820603569267e-04
47                  	3.383939533974e-01	1.050055097034e-02	9.065696377544e+03	7.838401413655e-04
48                  	3.361607199853e-01	1.036969021706e-02	9.065696385157e+03	7.826461929731e-04
49                  	3.341471592191e-01	1.022923971108e-02	9.065696395356e+03	7.788008552233e-04
50                  	3.323317414172e-01	1.008774577054e-02	9.065696407501e+03	7.726361263603e-04
51                  	3.306957948366e-01	9.951338875915e-03	9.065696420971e+03	7.644907450584e-04
52                  	3.292227975887e-01	9.811838957190e-03	9.065696435191e+03	7.547071724525e-04
53                  	3.278995243968e-01	9.683756589816e-03	9.065696449655e+03	7.436291656546e-04
54                  	3.267155814454e-01	9.560121309505e-03	9.065696463934e+03	7.315975771670e-04
55                  	3.256618779630e-01	9.444414537837e-03	9.065696477680e+03	7.189443961170e-04
56                  	3.247307465375e-01	9.341132763019e-03	9.065696490627e+03	7.059873467165e-04
57                  	3.239154627537e-01	9.241070337036e-03	9.065696502582e+03	6.930228677541e-04
58                  	3.232098009861e-01	9.157897651505e-03	9.065696513421e+03	6.803186926237e-04
59                  	3.226075578498e-01	9.080408159377e-03	9.065696523081e+03	6.681069915154e-04
60                  	3.221023176117e-01	9.007569635387e-03	9.065696531550e+03	6.565792249694e-04
61                  	3.216872539877e-01	8.944717107057e-03	9.065696538854e+03	6.458830916712e-04
62                  	3.213550601031e-01	8.892363116027e-03	9.065696545053e+03	6.363194965317e-04
63                  	3.210979490152e-01	8.844701824835e-03	9.065696550227e+03	6.278259859173e-04
64                  	3.209077693681e-01	8.801915155472e-03	9.065696554469e+03	6.202817194952e-04
65                  	3.207761913123e-01	8.764083888940e-03	9.065696557883e+03	6.136863637695e-04
66                  	3.206949319858e-01	8.731191934272e-03	9.065696560571e+03	6.080129823061e-04
67                  	3.206558936543e-01	8.703132378005e-03	9.065696562638e+03	6.032040641231e-04
68                  	3.206512828661e-01	8.679715022817e-03	9.065696564182e+03	5.991979918897e-04
69                  	3.206739845140e-01	8.660677020747e-03	9.065696565297e+03	5.959249801729e-04
70                  	3.207179549547e-01	8.645695716638e-03	9.065696566070e+03	5.933091649181e-04
71                  	3.207771613696e-01	8.634402776454e-03	9.065696566576e+03	5.912721036287e-04
72                  	3.208468239715e-01	8.626398597545e-03	9.065696566883e+03	5.897362117275e-04
73                  	3.209227774122e-01	8.621266698067e-03	9.065696567048e+03	5.886272654419e-04
74                  	3.210015780167e-01	8.619986403051e-03	9.065696567117e+03	5.878759474358e-04
75                  	3.210804475271e-01	8.621682981810e-03	9.065696567129e+03	5.874188569756e-04
76                  	3.211572257277e-01	8.624739199698e-03	9.065696567115e+03	5.871989699272e-04
77                  	3.212302851435e-01	8.628665114359e-03	9.065696567095e+03	5.871658423745e-04
78                  	3.212984653875e-01	8.633003107430e-03	9.065696567088e+03	5.872755271858e-04
79                  	3.213610069869e-01	8.637523989541e-03	9.065696567103e+03	5.874903167100e-04
80                  	3.214174851567e-01	8.642041977974e-03	9.065696567148e+03	5.877784770930e-04
81                  	3.214677411433e-01	8.646412227876e-03	9.065696567226e+03	5.881133481159e-04
82                  	3.215118380748e-01	8.650527033228e-03	9.065696567337e+03	5.884734873898e-04
83                  	3.215500553762e-01	8.654341094789e-03	9.065696567479e+03	5.888417784234e-04
84                  	3.215826239837e-01	8.657897775373e-03	9.065696567647e+03	5.892049791813e-04
85                  	3.216100046557e-01	8.661062741269e-03	9.065696567837e+03	5.895531912847e-04
86                  	3.216326969195e-01	8.663826818244e-03	9.065696568043e+03	5.898793991080e-04
87                  	3.216512080265e-01	8.666196871286e-03	9.065696568259e+03	5.901789730061e-04
88                  	3.216660439380e-01	8.668297610455e-03	9.065696568479e+03	5.904492503041e-04
89                  	3.216776988624e-01	8.670073930384e-03	9.065696568700e+03	5.906891580583e-04
90                  	3.216866417873e-01	8.671561826518e-03	9.065696568918e+03	5.908988656457e-04
91                  	3.216933105747e-01	8.672825570292e-03	9.065696569128e+03	5.910794747764e-04
92                  	3.216981051585e-01	8.673821455433e-03	9.065696569328e+03	5.912327194512e-04
93                  	3.217013825644e-01	8.674585804567e-03	9.065696569517e+03	5.913610804183e-04
94                  	3.217034581635e-01	8.675153967546e-03	9.065696569692e+03	5.914667697521e-04
95                  	3.217046005667e-01	8.675559240019e-03	9.065696569853e+03	5.915524467273e-04
96                  	3.217050382392e-01	8.675832137185e-03	9.065696569999e+03	5.916207142114e-04
97                  	3.217049896572e-01	8.675999946579e-03	9.065696570130e+03	5.916740797699e-04
98                  	3.217045195280e-01	8.676086522901e-03	9.065696570247e+03	5.917148947415e-04
99                  	3.217038683123e-01	8.676112269218e-03	9.065696570349e+03	5.917453165612e-04
100                 	3.217030854636e-01	8.676094257588e-03	9.065696570439e+03	5.917675722335e-04
101                 	3.217022379216e-01	8.676062729548e-03	9.065696570516e+03	5.917825741781e-04
102                 	3.217013839008e-01	8.676006902092e-03	9.065696570582e+03	5.917923257150e-04
103                 	3.217005725184e-01	8.675934940403e-03	9.065696570638e+03	5.917980347015e-04
104                 	3.216998114887e-01	8.675854933373e-03	9.065696570685e+03	5.918007229478e-04
105                 	3.216991314263e-01	8.675772919961e-03	9.065696570724e+03	5.918012286626e-04
106                 	3.216985382007e-01	8.675693223515e-03	9.065696570757e+03	5.918002254634e-04
107                 	3.216980180955e-01	8.675618760750e-03	9.065696570783e+03	5.917982435931e-04
108                 	3.216975946133e-01	8.675551325133e-03	9.065696570806e+03	5.917956910725e-04
109                 	3.216972269004e-01	8.675491839861e-03	9.065696570824e+03	5.917928726169e-04
110                 	3.216969271835e-01	8.675447298252e-03	9.065696570839e+03	5.917900087970e-04
111                 	3.216967039549e-01	8.675410703464e-03	9.065696570851e+03	5.917872524028e-04
112                 	3.216965272174e-01	8.675380934289e-03	9.065696570861e+03	5.917847016280e-04
113                 	3.216963917879e-01	8.675357214073e-03	9.065696570870e+03	5.917824134671e-04
114                 	3.216962916851e-01	8.675338722859e-03	9.065696570878e+03	5.917804139696e-04
115                 	3.216962947746e-01	8.675324652587e-03	9.065696570885e+03	5.917787093973e-04
116                 	3.216961267433e-01	8.675314239029e-03	9.065696570891e+03	5.917772835643e-04
117                 	3.216961290946e-01	8.675306790124e-03	9.065696570896e+03	5.917761164652e-04
118                 	3.216961314988e-01	8.675301696113e-03	9.065696570902e+03	5.917751819286e-04
119                 	3.216961334471e-01	8.675298428479e-03	9.065696570907e+03	5.917744505603e-04
120                 	3.216961341657e-01	8.675296545860e-03	9.065696570912e+03	5.917738928897e-04
121                 	3.216961346745e-01	8.675295685902e-03	9.065696570917e+03	5.917734807092e-04
122                 	3.216961333181e-01	8.675295556060e-03	9.065696570922e+03	5.917731865254e-04
123                 	3.216961337920e-01	8.675295926221e-03	9.065696570926e+03	5.917729878773e-04
124                 	3.216961341435e-01	8.675296618101e-03	9.065696570931e+03	5.917728638237e-04
125                 	3.216961308670e-01	8.675297495312e-03	9.065696570936e+03	5.917727958103e-04
126                 	3.216961312831e-01	8.675298458746e-03	9.065696570940e+03	5.917727705695e-04
127                 	3.216961284468e-01	8.675299437615e-03	9.065696570945e+03	5.917727776409e-04
128                 	3.216961287891e-01	8.675300381228e-03	9.065696570949e+03	5.917728048951e-04
129                 	3.216962786038e-01	8.675301259950e-03	9.065696570953e+03	5.917728470535e-04
130                 	3.216962789533e-01	8.675302057744e-03	9.065696570956e+03	5.917728960907e-04
131                 	3.216962796882e-01	8.675302767917e-03	9.065696570959e+03	5.917729478269e-04
132                 	3.216961203430e-01	8.675303391311e-03	9.065696570962e+03	5.917729969415e-04
133                 	3.216961204769e-01	8.675303927628e-03	9.065696570964e+03	5.917730417649e-04
134                 	3.216962286534e-01	8.675304382274e-03	9.065696570967e+03	5.917730849040e-04
135                 	3.216962278725e-01	8.675304755726e-03	9.065696570969e+03	5.917731238310e-04
136                 	3.216962279153e-01	8.675305052706e-03	9.065696570971e+03	5.917731570371e-04
137                 	3.216962285227e-01	8.675305284083e-03	9.065696570973e+03	5.917731851182e-04
138                 	3.216962304992e-01	8.675305459401e-03	9.065696570974e+03	5.917732077045e-04
139                 	3.216962306421e-01	8.675305587647e-03	9.065696570976e+03	5.917732252443e-04
140                 	3.216962308452e-01	8.675305677355e-03	9.065696570977e+03	5.917732384376e-04
141                 	3.216962310562e-01	8.675305735120e-03	9.065696570978e+03	5.917732478843e-04
142                 	3.216962312605e-01	8.675305766760e-03	9.065696570979e+03	5.917732541573e-04
143                 	3.216962314369e-01	8.675305777422e-03	9.065696570979e+03	5.917732577252e-04
144                 	3.216960949588e-01	8.675305770146e-03	9.065696570980e+03	5.917732567194e-04
145                 	3.216960951467e-01	8.675305747757e-03	9.065696570981e+03	5.917732537735e-04
146                 	3.216962404879e-01	8.675305714778e-03	9.065696570981e+03	5.917732526902e-04
147                 	3.216962407270e-01	8.675305670645e-03	9.065696570982e+03	5.917732509524e-04
148                 	3.216962448771e-01	8.675305618239e-03	9.065696570982e+03	5.917732483491e-04
149                 	3.216962450801e-01	8.675305565460e-03	9.065696570982e+03	5.917732451425e-04
150                 	3.216962449499e-01	8.675305516743e-03	9.065696570982e+03	5.917732411650e-04
151                 	3.216961182250e-01	8.675305473574e-03	9.065696570983e+03	5.917732348245e-04
152                 	3.216961183395e-01	8.675305436434e-03	9.065696570983e+03	5.917732288284e-04
153                 	3.216962269196e-01	8.675305404815e-03	9.065696570983e+03	5.917732260983e-04
154                 	3.216962269389e-01	8.675305373698e-03	9.065696570983e+03	5.917732240081e-04
155                 	3.216962269699e-01	8.675305342514e-03	9.065696570983e+03	5.917732218040e-04
156                 	3.216962269904e-01	8.675305315676e-03	9.065696570983e+03	5.917732196880e-04
157                 	3.216962270162e-01	8.675305295353e-03	9.065696570984e+03	5.917732178778e-04
158                 	3.216962270527e-01	8.675305282597e-03	9.065696570984e+03	5.917732164697e-04
159                 	3.216961382694e-01	8.675305275413e-03	9.065696570984e+03	5.917732131494e-04
160                 	3.216961388501e-01	8.675305272456e-03	9.065696570984e+03	5.917732097636e-04
161                 	3.216962171465e-01	8.675305272864e-03	9.065696570984e+03	5.917732098678e-04
162                 	3.216962171886e-01	8.675305271261e-03	9.065696570984e+03	5.917732104548e-04
163                 	3.216962172178e-01	8.675305266456e-03	9.065696570984e+03	5.917732108634e-04
164                 	3.216962172208e-01	8.675305262491e-03	9.065696570984e+03	5.917732111817e-04
165                 	3.216962161577e-01	8.675305261046e-03	9.065696570985e+03	5.917732112821e-04
166                 	3.216962158924e-01	8.675305262967e-03	9.065696570984e+03	5.917732112094e-04
167                 	3.216962159404e-01	8.675305268174e-03	9.065696570984e+03	5.917732113550e-04
168                 	3.216962181492e-01	8.675305275589e-03	9.065696570984e+03	5.917732118988e-04
169                 	3.216962174131e-01	8.675305283776e-03	9.065696570984e+03	5.917732120968e-04
170                 	3.216962172702e-01	8.675305292062e-03	9.065696570985e+03	5.917732123130e-04
171                 	3.216962170555e-01	8.675305300195e-03	9.065696570985e+03	5.917732125470e-04
172                 	3.216961263535e-01	8.675305306678e-03	9.065696570986e+03	5.917732112567e-04
173                 	3.216961261987e-01	8.675305310861e-03	9.065696570986e+03	5.917732101410e-04
174                 	3.216962301885e-01	8.675305313034e-03	9.065696570986e+03	5.917732112354e-04
175                 	3.216962300863e-01	8.675305310626e-03	9.065696570986e+03	5.917732123112e-04
176                 	3.216962304550e-01	8.675305304330e-03	9.065696570986e+03	5.917732131515e-04
177                 	3.216962303609e-01	8.675305298566e-03	9.065696570986e+03	5.917732141062e-04
178                 	3.216962302585e-01	8.675305295417e-03	9.065696570986e+03	5.917732150501e-04
179                 	3.216962301499e-01	8.675305296183e-03	9.065696570985e+03	5.917732158629e-04
180                 	3.216962300374e-01	8.675305301019e-03	9.065696570985e+03	5.917732165334e-04
181                 	3.216962299188e-01	8.675305309417e-03	9.065696570985e+03	5.917732171133e-04
182                 	3.216961008126e-01	8.675305318364e-03	9.065696570985e+03	5.917732145018e-04
183                 	3.216961006247e-01	8.675305326196e-03	9.065696570985e+03	5.917732119037e-04
184                 	3.216962329620e-01	8.675305332560e-03	9.065696570985e+03	5.917732133470e-04
185                 	3.216962327761e-01	8.675305331528e-03	9.065696570985e+03	5.917732150684e-04
186                 	3.216962325192e-01	8.675305323289e-03	9.065696570986e+03	5.917732163214e-04
187                 	3.216962340297e-01	8.675305314272e-03	9.065696570986e+03	5.917732167658e-04
188                 	3.216962337266e-01	8.675305307811e-03	9.065696570987e+03	5.917732169444e-04
189                 	3.216961375273e-01	8.675305304737e-03	9.065696570987e+03	5.917732155757e-04
190                 	3.216961372727e-01	8.675305304151e-03	9.065696570987e+03	5.917732143602e-04
191                 	3.216961376628e-01	8.675305303864e-03	9.065696570987e+03	5.917732128801e-04
192                 	3.216962679278e-01	8.675305301931e-03	9.065696570988e+03	5.917732145216e-04
193                 	3.216962677121e-01	8.675305296983e-03	9.065696570988e+03	5.917732160535e-04
194                 	3.216962682942e-01	8.675305289836e-03	9.065696570988e+03	5.917732174052e-04
195                 	3.216961397288e-01	8.675305284421e-03	9.065696570989e+03	5.917732152756e-04
196                 	3.216961394913e-01	8.675305282749e-03	9.065696570989e+03	5.917732130621e-04
197                 	3.216961392756e-01	8.675305284711e-03	9.065696570990e+03	5.917732115061e-04
198                 	3.216962559388e-01	8.675305286288e-03	9.065696570990e+03	5.917732130660e-04
199                 	3.216962557759e-01	8.675305284292e-03	9.065696570991e+03	5.917732148010e-04
200                 	3.216962582008e-01	8.675305279293e-03	9.065696570991e+03	5.917732154239e-04
201                 	3.216962581069e-01	8.675305277214e-03	9.065696570992e+03	5.917732156193e-04
202                 	3.216961136238e-01	8.675305278832e-03	9.065696570992e+03	5.917732131629e-04
203                 	3.216961135485e-01	8.675305283258e-03	9.065696570993e+03	5.917732110141e-04
204                 	3.216962216721e-01	8.675305289807e-03	9.065696570993e+03	5.917732118604e-04
205                 	3.216962214896e-01	8.675305292932e-03	9.065696570993e+03	5.917732130888e-04
206                 	3.216962298393e-01	8.675305291559e-03	9.065696570994e+03	5.917732133293e-04
207                 	3.216962297680e-01	8.675305289886e-03	9.065696570994e+03	5.917732134736e-04
208                 	3.216962296891e-01	8.675305289872e-03	9.065696570994e+03	5.917732137161e-04
209                 	3.216962295854e-01	8.675305291666e-03	9.065696570994e+03	5.917732140172e-04
210                 	3.216962294346e-01	8.675305295178e-03	9.065696570994e+03	5.917732143493e-04
211                 	3.216961140213e-01	8.675305299028e-03	9.065696570995e+03	5.917732131381e-04
212                 	3.216961139604e-01	8.675305302084e-03	9.065696570995e+03	5.917732117973e-04
213                 	3.216962340333e-01	8.675305304595e-03	9.065696570995e+03	5.917732123547e-04
214                 	3.216962340332e-01	8.675305303925e-03	9.065696570995e+03	5.917732131037e-04
215                 	3.216962343674e-01	8.675305299842e-03	9.065696570995e+03	5.917732137173e-04
216                 	3.216962352664e-01	8.675305296111e-03	9.065696570995e+03	5.917732143880e-04
217                 	3.216962354738e-01	8.675305294526e-03	9.065696570995e+03	5.917732150669e-04
218                 	3.216961339491e-01	8.675305295632e-03	9.065696570995e+03	5.917732127900e-04
219                 	3.216961340689e-01	8.675305297887e-03	9.065696570994e+03	5.917732111523e-04
220                 	3.216962167886e-01	8.675305301516e-03	9.065696570994e+03	5.917732122771e-04
221                 	3.216962167641e-01	8.675305301478e-03	9.065696570994e+03	5.917732134619e-04
222                 	3.216962165775e-01	8.675305297401e-03	9.065696570994e+03	5.917732140175e-04
223                 	3.216962165785e-01	8.675305293399e-03	9.065696570994e+03	5.917732144317e-04
224                 	3.216962166873e-01	8.675305291374e-03	9.065696570994e+03	5.917732145595e-04
225                 	3.216962198362e-01	8.675305291636e-03	9.065696570994e+03	5.917732141545e-04
226                 	3.216962195942e-01	8.675305294113e-03	9.065696570993e+03	5.917732136971e-04
227                 	3.216962142330e-01	8.675305298460e-03	9.065696570993e+03	5.917732143627e-04
228                 	3.216962114151e-01	8.675305302671e-03	9.065696570993e+03	5.917732143970e-04
229                 	3.216962102074e-01	8.675305306495e-03	9.065696570993e+03	5.917732144525e-04
230                 	3.216962093861e-01	8.675305311046e-03	9.065696570994e+03	5.917732144234e-04
231                 	3.216962086653e-01	8.675305315685e-03	9.065696570994e+03	5.917732143470e-04
232                 	3.216962083276e-01	8.675305320344e-03	9.065696570995e+03	5.917732143857e-04
233                 	3.216961314041e-01	8.675305323475e-03	9.065696570995e+03	5.917732124554e-04
234                 	3.216961312402e-01	8.675305324692e-03	9.065696570995e+03	5.917732107768e-04
235                 	3.216962233355e-01	8.675305324344e-03	9.065696570995e+03	5.917732119073e-04
236                 	3.216962231569e-01	8.675305319016e-03	9.065696570995e+03	5.917732130461e-04
237                 	3.216962229797e-01	8.675305309339e-03	9.065696570995e+03	5.917732136921e-04
238                 	3.216962228305e-01	8.675305300350e-03	9.065696570995e+03	5.917732140892e-04
239                 	3.216962218149e-01	8.675305294053e-03	9.065696570995e+03	5.917732138768e-04
240                 	3.216962214568e-01	8.675305291626e-03	9.065696570995e+03	5.917732137855e-04
241                 	3.216962212327e-01	8.675305293164e-03	9.065696570995e+03	5.917732141986e-04
242                 	3.216961346206e-01	8.675305295733e-03	9.065696570995e+03	5.917732128114e-04
243                 	3.216961346601e-01	8.675305298428e-03	9.065696570995e+03	5.917732115812e-04
244                 	3.216961348678e-01	8.675305300244e-03	9.065696570995e+03	5.917732101863e-04
245                 	3.216962608365e-01	8.675305299145e-03	9.065696570995e+03	5.917732121459e-04
246                 	3.216962647779e-01	8.675305294401e-03	9.065696570995e+03	5.917732137424e-04
247                 	3.216962660906e-01	8.675305286990e-03	9.065696570994e+03	5.917732146029e-04
248                 	3.216961470975e-01	8.675305281866e-03	9.065696570995e+03	5.917732132140e-04
249                 	3.216961470256e-01	8.675305280104e-03	9.065696570995e+03	5.917732115943e-04
250                 	3.216961448443e-01	8.675305280704e-03	9.065696570995e+03	5.917732100495e-04
251                 	3.216962471185e-01	8.675305281363e-03	9.065696570995e+03	5.917732117692e-04
252                 	3.216962512524e-01	8.675305279728e-03	9.065696570994e+03	5.917732130233e-04
253                 	3.216962515182e-01	8.675305275815e-03	9.065696570994e+03	5.917732138939e-04
254                 	3.216962513903e-01	8.675305274926e-03	9.065696570994e+03	5.917732144759e-04
255                 	3.216961297009e-01	8.675305276646e-03	9.065696570994e+03	5.917732122149e-04
256                 	3.216961294151e-01	8.675305281128e-03	9.065696570994e+03	5.917732100193e-04
257                 	3.216962158626e-01	8.675305287949e-03	9.065696570994e+03	5.917732113385e-04
258                 	3.216962155046e-01	8.675305290464e-03	9.065696570994e+03	5.917732122953e-04
259                 	3.216962152339e-01	8.675305288304e-03	9.065696570994e+03	5.917732129460e-04
260                 	3.216962152487e-01	8.675305286249e-03	9.065696570994e+03	5.917732130790e-04
261                 	3.216962155421e-01	8.675305285850e-03	9.065696570993e+03	5.917732133627e-04
262                 	3.216962156579e-01	8.675305287765e-03	9.065696570993e+03	5.917732135158e-04
263                 	3.216962184660e-01	8.675305291143e-03	9.065696570993e+03	5.917732134458e-04
264                 	3.216962187242e-01	8.675305295448e-03	9.065696570994e+03	5.917732130140e-04
265                 	3.216962074642e-01	8.675305300787e-03	9.065696570994e+03	5.917732136737e-04
266                 	3.216962063496e-01	8.675305306299e-03	9.065696570994e+03	5.917732142127e-04
267                 	3.216962052597e-01	8.675305310486e-03	9.065696570994e+03	5.917732141645e-04
268                 	3.216962046424e-01	8.675305314635e-03	9.065696570994e+03	5.917732142084e-04
269                 	3.216962044296e-01	8.675305318287e-03	9.065696570994e+03	5.917732142155e-04
270                 	3.216962043214e-01	8.675305321571e-03	9.065696570994e+03	5.917732141945e-04
271                 	3.216962042823e-01	8.675305324208e-03	9.065696570994e+03	5.917732142305e-04
272                 	3.216962042094e-01	8.675305326372e-03	9.065696570994e+03	5.917732143234e-04
273                 	3.216962042283e-01	8.675305328002e-03	9.065696570994e+03	5.917732143765e-04
274                 	3.216962042088e-01	8.675305328739e-03	9.065696570994e+03	5.917732144835e-04
275                 	3.216962042709e-01	8.675305329063e-03	9.065696570994e+03	5.917732145731e-04
276                 	3.216962042846e-01	8.675305328627e-03	9.065696570994e+03	5.917732146208e-04
277                 	3.216962043730e-01	8.675305327791e-03	9.065696570994e+03	5.917732146639e-04
278                 	3.216962043859e-01	8.675305326766e-03	9.065696570994e+03	5.917732146595e-04
279                 	3.216962044569e-01	8.675305325519e-03	9.065696570994e+03	5.917732146243e-04
280                 	3.216962044535e-01	8.675305324128e-03	9.065696570995e+03	5.917732145753e-04
281                 	3.216962044787e-01	8.675305322793e-03	9.065696570994e+03	5.917732147533e-04
282                 	3.216962044380e-01	8.675305320869e-03	9.065696570995e+03	5.917732146413e-04
283                 	3.216962043688e-01	8.675305318752e-03	9.065696570995e+03	5.917732144528e-04
284                 	3.216962043049e-01	8.675305316645e-03	9.065696570995e+03	5.917732142192e-04
285                 	3.216962041704e-01	8.675305314652e-03	9.065696570995e+03	5.917732139937e-04
286                 	3.216962040169e-01	8.675305312987e-03	9.065696570995e+03	5.917732138262e-04
287                 	3.216962038284e-01	8.675305311540e-03	9.065696570995e+03	5.917732136991e-04
288                 	3.216962036394e-01	8.675305310307e-03	9.065696570995e+03	5.917732136122e-04
289                 	3.216962033828e-01	8.675305309093e-03	9.065696570995e+03	5.917732135710e-04
290                 	3.216962031736e-01	8.675305308172e-03	9.065696570995e+03	5.917732135332e-04
291                 	3.216962028747e-01	8.675305307203e-03	9.065696570995e+03	5.917732135218e-04
292                 	3.216962026520e-01	8.675305306558e-03	9.065696570995e+03	5.917732135406e-04
293                 	3.216962023422e-01	8.675305306078e-03	9.065696570995e+03	5.917732135569e-04
294                 	3.216962021153e-01	8.675305305701e-03	9.065696570995e+03	5.917732135926e-04
295                 	3.216962018210e-01	8.675305305495e-03	9.065696570995e+03	5.917732136370e-04
296                 	3.216962015985e-01	8.675305305400e-03	9.065696570995e+03	5.917732136666e-04
297                 	3.216962013266e-01	8.675305305309e-03	9.065696570995e+03	5.917732136936e-04
298                 	3.216962011246e-01	8.675305305303e-03	9.065696570995e+03	5.917732137198e-04
299                 	3.216962008876e-01	8.675305305284e-03	9.065696570995e+03	5.917732137269e-04
300                 	3.216962007150e-01	8.675305305161e-03	9.065696570995e+03	5.917732137276e-04
301                 	3.216962005167e-01	8.675305304991e-03	9.065696570995e+03	5.917732137146e-04
302                 	3.216962003842e-01	8.675305304680e-03	9.065696570995e+03	5.917732136788e-04
303                 	3.216962002276e-01	8.675305304202e-03	9.065696570995e+03	5.917732136344e-04
304                 	3.216962001324e-01	8.675305303639e-03	9.065696570995e+03	5.917732135722e-04
305                 	3.216962000209e-01	8.675305302898e-03	9.065696570995e+03	5.917732134912e-04
306                 	3.216961999577e-01	8.675305301994e-03	9.065696570994e+03	5.917732134042e-04
307                 	3.216961998863e-01	8.675305300968e-03	9.065696570994e+03	5.917732133011e-04