# Region        : all region0
# Cells         : 13056
# Volume        : 2.33333000e+00
# Time          	max(U)
0.000120005     	(1.00026611e+00 5.00837010e-04 2.36052534e-32)
0.000264017     	(1.00048182e+00 9.44092795e-04 8.70907238e-33)
0.000436833     	(1.00068301e+00 1.29703304e-03 9.40664290e-33)
0.000644211     	(1.00088679e+00 1.63359625e-03 9.92220006e-33)
0.000893055     	(1.00109977e+00 1.99017763e-03 1.03053425e-32)
0.00119165      	(1.00132481e+00 2.37418459e-03 1.08558035e-32)
0.0015499       	(1.00156829e+00 2.78764333e-03 1.15027561e-32)
0.00197972      	(1.00182846e+00 3.23435018e-03 1.22313514e-32)
0.00249549      	(1.00211339e+00 3.71908867e-03 1.32720218e-32)
0.00311429      	(1.00241843e+00 4.24666183e-03 1.44243479e-32)
0.00385657      	(1.00275678e+00 4.82214197e-03 1.56865758e-32)
0.00472354      	(1.00311622e+00 5.44899428e-03 1.72123735e-32)
0.00571288      	(1.00351236e+00 6.12954481e-03 1.87921416e-32)
0.00682257      	(1.00393033e+00 6.86580570e-03 2.03763570e-32)
0.00800916      	(1.00438703e+00 7.65133018e-03 2.21362627e-32)
0.00917896      	(1.00484951e+00 8.48207342e-03 2.38831138e-32)
0.0103338       	(1.00566734e+00 9.34784998e-03 2.49239046e-32)
0.0114753       	(1.00697050e+00 1.02629167e-02 2.58606125e-32)
0.0126024       	(1.00844690e+00 1.12054805e-02 2.67361493e-32)
0.0137169       	(1.01005885e+00 1.21797758e-02 2.75294410e-32)
0.0148201       	(1.01184369e+00 1.31907227e-02 2.82590887e-32)
0.0159135       	(1.01376885e+00 1.42230307e-02 2.89287416e-32)
0.0169973       	(1.01579802e+00 1.52730680e-02 2.95416425e-32)
0.0180728       	(1.01800615e+00 1.63497789e-02 3.00920871e-32)
0.019139        	(1.02032802e+00 1.74499515e-02 3.05892603e-32)
0.0201959       	(1.02273440e+00 1.85606878e-02 3.10191540e-32)
0.0212461       	(1.02521643e+00 1.96799420e-02 3.13986887e-32)
0.0222884       	(1.02782608e+00 2.08038792e-02 3.17409244e-32)
0.0233241       	(1.03054447e+00 2.19303712e-02 3.20301348e-32)
0.0243544       	(1.03331613e+00 2.30673402e-02 3.22865602e-32)
0.0253781       	(1.03612895e+00 2.42156292e-02 3.25042579e-32)
0.0263966       	(1.03897416e+00 2.53612266e-02 3.26791217e-32)
0.0274086       	(1.04184060e+00 2.65011371e-02 3.28183227e-32)
0.0284154       	(1.04472056e+00 2.76339968e-02 3.29207813e-32)
0.0294181       	(1.04769636e+00 2.87583385e-02 3.30057573e-32)
0.0304156       	(1.05069568e+00 2.98716229e-02 3.30615616e-32)
0.0314091       	(1.05368847e+00 3.09729715e-02 3.30892891e-32)
0.0323984       	(1.05666690e+00 3.20608091e-02 3.31845373e-32)
0.0333838       	(1.05962393e+00 3.31338092e-02 3.33588289e-32)
0.0343651       	(1.06255317e+00 3.41908317e-02 3.35109218e-32)
0.0353434       	(1.06545027e+00 3.52313944e-02 3.36474722e-32)
0.0363178       	(1.06830835e+00 3.62665242e-02 3.37646671e-32)
0.0372893       	(1.07112436e+00 3.72913886e-02 3.38648537e-32)
0.0382569       	(1.07389263e+00 3.82972320e-02 3.39467934e-32)
0.0392215       	(1.07661116e+00 3.92841363e-02 3.40144133e-32)
0.0401832       	(1.07927668e+00 4.02515010e-02 3.40742892e-32)
0.0411421       	(1.08188655e+00 4.11989130e-02 3.41189200e-32)
0.042099        	(1.08443985e+00 4.21266075e-02 3.41606557e-32)
0.0430531       	(1.08700461e+00 4.30337126e-02 3.41878900e-32)
0.0440053       	(1.08951401e+00 4.39207031e-02 3.42081131e-32)
0.0449556       	(1.09196020e+00 4.47874075e-02 3.42237858e-32)
0.0459031       	(1.09434089e+00 4.56332967e-02 3.42219607e-32)
0.0468486       	(1.09665696e+00 4.64590254e-02 3.42158935e-32)
0.0477924       	(1.09890798e+00 4.72646110e-02 3.42074927e-32)
0.0487342       	(1.10109386e+00 4.80501773e-02 3.41923658e-32)
0.0496742       	(1.10321480e+00 4.88159097e-02 3.41708685e-32)
0.0506123       	(1.10527120e+00 4.95620311e-02 3.41438994e-32)
0.0515495       	(1.10726478e+00 5.02892228e-02 3.41220624e-32)
0.0524849       	(1.10919502e+00 5.09972286e-02 3.40897073e-32)
0.0534184       	(1.11106293e+00 5.16864136e-02 3.40481860e-32)
0.054351        	(1.11287059e+00 5.23575114e-02 3.40136172e-32)
0.0552817       	(1.11461800e+00 5.30103584e-02 3.39690220e-32)
0.0562116       	(1.11630743e+00 5.36457362e-02 3.39278465e-32)
0.0571405       	(1.11794003e+00 5.42639101e-02 3.38883844e-32)
0.0580685       	(1.11951708e+00 5.48651956e-02 3.38463365e-32)
0.0589947       	(1.12103907e+00 5.54495725e-02 3.37896932e-32)
0.05992         	(1.12250839e+00 5.60178169e-02 3.37381418e-32)
0.0608444       	(1.12392637e+00 5.65702176e-02 3.36891622e-32)
0.0617678       	(1.12529443e+00 5.71070997e-02 3.36384459e-32)
0.0626904       	(1.12661401e+00 5.76288002e-02 3.35860104e-32)
0.063612        	(1.12788654e+00 5.81356575e-02 3.35319928e-32)
0.0645336       	(1.12911415e+00 5.86283109e-02 3.34895586e-32)
0.0654544       	(1.13029744e+00 5.91067171e-02 3.34373913e-32)
0.0663742       	(1.13143787e+00 5.95712462e-02 3.33794648e-32)
0.0672931       	(1.13253684e+00 6.00222372e-02 3.33203384e-32)
0.068212        	(1.13359634e+00 6.04602908e-02 3.32738483e-32)
0.0691301       	(1.13461702e+00 6.08853897e-02 3.32174783e-32)
0.0700481       	(1.13560080e+00 6.12981481e-02 3.31696650e-32)
0.0709652       	(1.13654834e+00 6.16985721e-02 3.31117037e-32)
0.0718823       	(1.13746148e+00 6.20872564e-02 3.30627008e-32)
0.0727985       	(1.13834084e+00 6.24642168e-02 3.30034887e-32)
0.0737147       	(1.13918820e+00 6.28300268e-02 3.29536528e-32)
0.07463         	(1.14000416e+00 6.31847120e-02 3.28934953e-32)
0.0755453       	(1.14079040e+00 6.35288260e-02 3.28430708e-32)
0.0764597       	(1.14154751e+00 6.38624029e-02 3.27822050e-32)
0.0773741       	(1.14227706e+00 6.41859762e-02 3.27314130e-32)
0.0782885       	(1.14298007e+00 6.45031215e-02 3.26848688e-32)
0.079202        	(1.14365711e+00 6.48141775e-02 3.26233690e-32)
0.0801155       	(1.14430963e+00 6.51158674e-02 3.25722640e-32)
0.081029        	(1.14493856e+00 6.54084360e-02 3.25255059e-32)
0.0819416       	(1.14554444e+00 6.56919332e-02 3.24636333e-32)
0.0828542       	(1.14612859e+00 6.59668522e-02 3.24125643e-32)
0.0837667       	(1.14669187e+00 6.62334287e-02 3.23659124e-32)
0.0846793       	(1.14723511e+00 6.64919008e-02 3.23194098e-32)
0.0855919       	(1.14775914e+00 6.67425072e-02 3.22729538e-32)
0.0865036       	(1.14826441e+00 6.69853061e-02 3.22109792e-32)
0.0874152       	(1.14875204e+00 6.72207394e-02 3.21603976e-32)
0.0883269       	(1.14922278e+00 6.74490209e-02 3.21143245e-32)
0.0892386       	(1.14967734e+00 6.76703622e-02 3.20684954e-32)
0.0901503       	(1.15011640e+00 6.78849732e-02 3.20228114e-32)
0.0910619       	(1.15054062e+00 6.80930603e-02 3.19773216e-32)
0.0919736       	(1.15095064e+00 6.82948239e-02 3.19321129e-32)
0.0928853       	(1.15134706e+00 6.84904574e-02 3.18867504e-32)
0.093797        	(1.15173047e+00 6.86801486e-02 3.18417418e-32)
0.0947086       	(1.15210144e+00 6.88640797e-02 3.17969848e-32)
0.0956194       	(1.15246025e+00 6.90422870e-02 3.17361553e-32)
0.0965301       	(1.15280771e+00 6.92151069e-02 3.16876125e-32)
0.0974409       	(1.15314432e+00 6.93827001e-02 3.16436446e-32)
0.0983517       	(1.15347055e+00 6.95452210e-02 3.16000120e-32)
0.0992624       	(1.15378686e+00 6.97028225e-02 3.15566130e-32)
0.100173        	(1.15409369e+00 6.98556543e-02 3.15134445e-32)
0.101084        	(1.15439144e+00 7.00038618e-02 3.14705047e-32)
0.101995        	(1.15468052e+00 7.01475867e-02 3.14278036e-32)
0.102905        	(1.15496130e+00 7.02869662e-02 3.13853497e-32)
0.103816        	(1.15523414e+00 7.04221339e-02 3.13431518e-32)
0.104728        	(1.15549960e+00 7.05533332e-02 3.13180943e-32)
0.105639        	(1.15575759e+00 7.06804485e-02 3.12637065e-32)
0.106548        	(1.15600845e+00 7.08036238e-02 3.12010400e-32)
0.107457        	(1.15625248e+00 7.09230044e-02 3.11386502e-32)
0.108366        	(1.15649021e+00 7.10388294e-02 3.10937658e-32)
0.109274        	(1.15672175e+00 7.11511056e-02 3.10365148e-32)
0.110181        	(1.15694738e+00 7.12599550e-02 3.09754170e-32)
0.111087        	(1.15716739e+00 7.13655015e-02 3.09146710e-32)
0.111994        	(1.15738221e+00 7.14679598e-02 3.08714860e-32)
0.112899        	(1.15759194e+00 7.15673326e-02 3.08157269e-32)
0.113803        	(1.15779680e+00 7.16637263e-02 3.07560946e-32)
0.114707        	(1.15799718e+00 7.17573416e-02 3.07139861e-32)
0.115611        	(1.15819315e+00 7.18481788e-02 3.06591633e-32)
0.116514        	(1.15838507e+00 7.19364215e-02 3.06177449e-32)
0.117416        	(1.15857296e+00 7.20220688e-02 3.05634230e-32)
0.118318        	(1.15875703e+00 7.21052106e-02 3.05052865e-32)
0.11922         	(1.15893760e+00 7.21860233e-02 3.04647685e-32)
0.12012         	(1.15911469e+00 7.22644999e-02 3.04113765e-32)
0.121021        	(1.15928864e+00 7.23407988e-02 3.03715277e-32)
0.12192         	(1.15945943e+00 7.24149114e-02 3.03186558e-32)
0.12282         	(1.15962736e+00 7.24869888e-02 3.02793699e-32)
0.123719        	(1.15979243e+00 7.25570195e-02 3.02270030e-32)
0.124618        	(1.15995491e+00 7.26251462e-02 3.01882770e-32)
0.125515        	(1.16011480e+00 7.26913546e-02 3.01364212e-32)
0.126413        	(1.16027233e+00 7.27557791e-02 3.00982660e-32)
0.12731         	(1.16042751e+00 7.28184029e-02 3.00469257e-32)
0.128207        	(1.16058056e+00 7.28793532e-02 3.00093301e-32)
0.129103        	(1.16073145e+00 7.29386109e-02 2.99585010e-32)
0.129999        	(1.16088042e+00 7.29962966e-02 2.99214524e-32)
0.130894        	(1.16102742e+00 7.30523894e-02 2.98711238e-32)
0.131789        	(1.16117267e+00 7.31070042e-02 2.98346274e-32)
0.132683        	(1.16131612e+00 7.31601187e-02 2.97848028e-32)
0.133577        	(1.16145797e+00 7.32118428e-02 2.97488389e-32)
0.134471        	(1.16159817e+00 7.32621534e-02 2.96995097e-32)
0.135364        	(1.16173691e+00 7.33111560e-02 2.96640773e-32)
0.136256        	(1.16187413e+00 7.33588275e-02 2.96152378e-32)
0.137148        	(1.16201002e+00 7.34052694e-02 2.95803349e-32)
0.138041        	(1.16214463e+00 7.34505221e-02 2.95497614e-32)
0.138932        	(1.16227790e+00 7.34945529e-02 2.95016151e-32)
0.139823        	(1.16240999e+00 7.35374607e-02 2.94673844e-32)
0.140714        	(1.16254082e+00 7.35792246e-02 2.94196476e-32)
0.141604        	(1.16267057e+00 7.36199402e-02 2.93859525e-32)
0.142495        	(1.16279929e+00 7.36596458e-02 2.93565837e-32)
0.143384        	(1.16292690e+00 7.36983100e-02 2.93095797e-32)
0.144274        	(1.16305355e+00 7.37360253e-02 2.92765894e-32)
0.145162        	(1.16317918e+00 7.37727723e-02 2.92300098e-32)
0.146051        	(1.16330393e+00 7.38086406e-02 2.91975539e-32)
0.14694         	(1.16343785e+00 7.38436671e-02 2.91694388e-32)
0.147827        	(1.16358362e+00 7.38778200e-02 2.91236027e-32)
0.148715        	(1.16372865e+00 7.39111857e-02 2.90918625e-32)
0.149602        	(1.16387284e+00 7.39437442e-02 2.90464593e-32)
0.150489        	(1.16401636e+00 7.39755787e-02 2.90152628e-32)
0.151375        	(1.16415925e+00 7.40067224e-02 2.89883768e-32)
0.152261        	(1.16430142e+00 7.40371408e-02 2.89437031e-32)
0.153147        	(1.16444301e+00 7.40669131e-02 2.89131994e-32)
0.154033        	(1.16458407e+00 7.40960707e-02 2.88869882e-32)
0.154918        	(1.16472450e+00 7.41245776e-02 2.88429472e-32)
0.155803        	(1.16486444e+00 7.41525078e-02 2.88131144e-32)
0.156688        	(1.16500393e+00 7.41798893e-02 2.87875663e-32)
0.157571        	(1.16514288e+00 7.42066828e-02 2.87441453e-32)
0.158455        	(1.16528142e+00 7.42329575e-02 2.87149661e-32)
0.159339        	(1.16541958e+00 7.42587375e-02 2.86900670e-32)
0.160222        	(1.16555727e+00 7.42839803e-02 2.86472462e-32)
0.161106        	(1.16569462e+00 7.43087501e-02 2.86186978e-32)
0.161989        	(1.16583165e+00 7.43330676e-02 2.85944140e-32)
0.162871        	(1.16596827e+00 7.43568873e-02 2.85521652e-32)
0.163753        	(1.16610460e+00 7.43802693e-02 2.85242155e-32)
0.164635        	(1.16624066e+00 7.44032312e-02 2.85005153e-32)
0.165516        	(1.16637635e+00 7.44257254e-02 2.84588132e-32)
0.166397        	(1.16651178e+00 7.44478086e-02 2.84314212e-32)
0.167278        	(1.16664697e+00 7.44694963e-02 2.84082702e-32)
0.168159        	(1.16678180e+00 7.44907397e-02 2.83670676e-32)
0.169039        	(1.16691641e+00 7.45115933e-02 2.83402113e-32)
0.169919        	(1.16705078e+00 7.45320716e-02 2.83175942e-32)
0.170799        	(1.16718482e+00 7.45521258e-02 2.82768791e-32)
0.171678        	(1.16731863e+00 7.45718090e-02 2.82505353e-32)
0.172557        	(1.16745221e+00 7.45911361e-02 2.82284165e-32)
0.173436        	(1.16758546e+00 7.46100590e-02 2.81881632e-32)
0.174314        	(1.16771847e+00 7.46286307e-02 2.81623221e-32)
0.175192        	(1.16785125e+00 7.46468672e-02 2.81406833e-32)
0.17607         	(1.16798368e+00 7.46647217e-02 2.81008852e-32)
0.176947        	(1.16811588e+00 7.46822480e-02 2.80755232e-32)
0.177825        	(1.16824784e+00 7.46994635e-02 2.80543652e-32)
0.178702        	(1.16837956e+00 7.47163724e-02 2.80333806e-32)
0.179579        	(1.16851092e+00 7.47329313e-02 2.79941105e-32)
0.180455        	(1.16864202e+00 7.47491969e-02 2.79693209e-32)
0.181332        	(1.16877287e+00 7.47651895e-02 2.79487411e-32)
0.182207        	(1.16890336e+00 7.47808674e-02 2.79099407e-32)
0.183083        	(1.16903359e+00 7.47962865e-02 2.78856571e-32)
0.183959        	(1.16916358e+00 7.48114679e-02 2.78655843e-32)
0.184834        	(1.16929334e+00 7.48264188e-02 2.78456880e-32)
0.185709        	(1.16942273e+00 7.48410994e-02 2.78074547e-32)
0.186583        	(1.16955188e+00 7.48555673e-02 2.77837622e-32)
0.187458        	(1.16968080e+00 7.48698452e-02 2.77642970e-32)
0.188332        	(1.16980938e+00 7.48838931e-02 2.77265560e-32)
0.189205        	(1.16993774e+00 7.48977662e-02 2.77033686e-32)
0.190079        	(1.17006589e+00 7.49114858e-02 2.76844279e-32)
0.190953        	(1.17019386e+00 7.49250588e-02 2.76656518e-32)
0.191826        	(1.17032153e+00 7.49384435e-02 2.76284497e-32)
0.192698        	(1.17044901e+00 7.49516954e-02 2.76059031e-32)
0.193571        	(1.17057633e+00 7.49648341e-02 2.75875293e-32)
0.194443        	(1.17070338e+00 7.49778164e-02 2.75508314e-32)
0.195315        	(1.17083029e+00 7.49906931e-02 2.75287551e-32)
0.196187        	(1.17095707e+00 7.50034815e-02 2.75108908e-32)
0.197058        	(1.17108375e+00 7.50161828e-02 2.74931958e-32)
0.197929        	(1.17121021e+00 7.50287504e-02 2.74570386e-32)
0.1988          	(1.17133657e+00 7.50412336e-02 2.74354408e-32)
0.199671        	(1.17146285e+00 7.50536463e-02 2.74181562e-32)
0.200542        	(1.17158907e+00 7.50659866e-02 2.74009920e-32)
0.201412        	(1.17171510e+00 7.50782040e-02 2.73653093e-32)
0.202282        	(1.17184107e+00 7.50903444e-02 2.73443014e-32)
0.203152        	(1.17196700e+00 7.51024188e-02 2.73275074e-32)
0.204021        	(1.17209277e+00 7.51143740e-02 2.72921866e-32)
0.20489         	(1.17221850e+00 7.51262517e-02 2.72716827e-32)
0.205759        	(1.17234421e+00 7.51380603e-02 2.72552410e-32)
0.206627        	(1.17246989e+00 7.51497925e-02 2.72390381e-32)
0.207496        	(1.17259543e+00 7.51613932e-02 2.72040643e-32)
0.208364        	(1.17272094e+00 7.51729037e-02 2.71839495e-32)
0.209232        	(1.17284641e+00 7.51843315e-02 2.71680341e-32)
0.2101          	(1.17297186e+00 7.51956685e-02 2.71521450e-32)
0.210967        	(1.17309715e+00 7.52068586e-02 2.71176561e-32)
0.211834        	(1.17322239e+00 7.52179427e-02 2.70978325e-32)
0.212701        	(1.17334757e+00 7.52289282e-02 2.70823380e-32)
0.213568        	(1.17347271e+00 7.52398073e-02 2.70668378e-32)
0.214434        	(1.17359766e+00 7.52505244e-02 2.70326989e-32)
0.2153          	(1.17372252e+00 7.52611215e-02 2.70133072e-32)
0.216166        	(1.17384729e+00 7.52716072e-02 2.69980998e-32)
0.217032        	(1.17397197e+00 7.52819750e-02 2.69830095e-32)
0.217897        	(1.17409642e+00 7.52921713e-02 2.69491514e-32)
0.218763        	(1.17422074e+00 7.53022398e-02 2.69301245e-32)
0.219628        	(1.17434492e+00 7.53121913e-02 2.69152644e-32)
0.220493        	(1.17446897e+00 7.53220217e-02 2.69005141e-32)
0.221357        	(1.17459273e+00 7.53316799e-02 2.68669895e-32)
0.222221        	(1.17471632e+00 7.53412116e-02 2.68482525e-32)
0.223086        	(1.17483973e+00 7.53506306e-02 2.68337753e-32)
0.22395         	(1.17496295e+00 7.53599351e-02 2.68193518e-32)
0.224813        	(1.17508585e+00 7.53690767e-02 2.67861710e-32)
0.225676        	(1.17520853e+00 7.53781033e-02 2.67677240e-32)
0.226539        	(1.17533100e+00 7.53870314e-02 2.67536247e-32)
0.227403        	(1.17545324e+00 7.53958612e-02 2.67395179e-32)
0.228265        	(1.17557513e+00 7.54045464e-02 2.67066622e-32)
0.229127        	(1.17569677e+00 7.54131372e-02 2.66885471e-32)
0.22999         	(1.17581817e+00 7.54216515e-02 2.66748065e-32)
0.230852        	(1.17593933e+00 7.54300914e-02 2.66610445e-32)
0.231713        	(1.17606013e+00 7.54384117e-02 2.66285076e-32)
0.232574        	(1.17618066e+00 7.54466640e-02 2.66107576e-32)
0.233436        	(1.17630095e+00 7.54548668e-02 2.65973652e-32)
0.234297        	(1.17642100e+00 7.54630232e-02 2.65839743e-32)
0.235158        	(1.17654081e+00 7.54711360e-02 2.65707046e-32)
0.236019        	(1.17666026e+00 7.54791620e-02 2.65384492e-32)
0.236879        	(1.17677945e+00 7.54871537e-02 2.65211644e-32)
0.237739        	(1.17689841e+00 7.54951300e-02 2.65081464e-32)
0.2386          	(1.17701716e+00 7.55030936e-02 2.64952230e-32)
0.239459        	(1.17713558e+00 7.55109985e-02 2.64633042e-32)
0.240318        	(1.17725377e+00 7.55188953e-02 2.64465117e-32)
0.241178        	(1.17737177e+00 7.55268021e-02 2.64338259e-32)
0.242037        	(1.17748959e+00 7.55347197e-02 2.64213202e-32)
0.242896        	(1.17760713e+00 7.55426005e-02 2.63897219e-32)
0.243754        	(1.17772448e+00 7.55504935e-02 2.63733199e-32)
0.244612        	(1.17784168e+00 7.55584148e-02 2.63610407e-32)
0.245471        	(1.17795876e+00 7.55663636e-02 2.63488968e-32)
0.246328        	(1.17807895e+00 7.55742895e-02 2.63176718e-32)
0.247186        	(1.17821493e+00 7.55822397e-02 2.63016028e-32)
0.248043        	(1.17835077e+00 7.55902284e-02 2.62897238e-32)
0.2489          	(1.17848648e+00 7.55982522e-02 2.62779344e-32)
0.249758        	(1.17862207e+00 7.56063074e-02 2.62661961e-32)
0.250614        	(1.17875742e+00 7.56143422e-02 2.62353114e-32)
0.251471        	(1.17889266e+00 7.56224026e-02 2.62196218e-32)
0.252327        	(1.17902780e+00 7.56305003e-02 2.62081138e-32)
0.253184        	(1.17916285e+00 7.56386295e-02 2.61967328e-32)
0.254039        	(1.17929770e+00 7.56467343e-02 2.61661718e-32)
0.254895        	(1.17943246e+00 7.56548583e-02 2.61508075e-32)
0.25575         	(1.17956715e+00 7.56630112e-02 2.61396459e-32)
0.256605        	(1.17970179e+00 7.56711856e-02 2.61285833e-32)
0.257461        	(1.17983636e+00 7.56793736e-02 2.61175540e-32)
0.258315        	(1.17997076e+00 7.56875187e-02 2.60872727e-32)
0.25917         	(1.18010510e+00 7.56956641e-02 2.60722261e-32)
0.260024        	(1.18023938e+00 7.57038185e-02 2.60613862e-32)
0.260879        	(1.18037361e+00 7.57119732e-02 2.60506488e-32)
0.261732        	(1.18050768e+00 7.57200687e-02 2.60206266e-32)
0.262586        	(1.18064169e+00 7.57281469e-02 2.60058530e-32)
0.263439        	(1.18077565e+00 7.57362161e-02 2.59952847e-32)
0.264293        	(1.18090956e+00 7.57442668e-02 2.59848076e-32)
0.265146        	(1.18104342e+00 7.57522899e-02 2.59743449e-32)
0.265999        	(1.18117709e+00 7.57602275e-02 2.59445078e-32)
0.266851        	(1.18131069e+00 7.57681228e-02 2.59299717e-32)
0.267704        	(1.18144422e+00 7.57759845e-02 2.59196448e-32)
0.268556        	(1.18157767e+00 7.57838039e-02 2.59094044e-32)
0.269409        	(1.18171105e+00 7.57915725e-02 2.58991687e-32)
0.27026         	(1.18184421e+00 7.57992332e-02 2.58695056e-32)
0.271112        	(1.18197726e+00 7.58068303e-02 2.58551807e-32)
0.271963        	(1.18211020e+00 7.58143740e-02 2.58450763e-32)
0.272815        	(1.18224303e+00 7.58218572e-02 2.58350459e-32)
0.273665        	(1.18237561e+00 7.58292217e-02 2.58055530e-32)
0.274516        	(1.18250806e+00 7.58365126e-02 2.57914303e-32)
0.275366        	(1.18264036e+00 7.58437412e-02 2.57815135e-32)
0.276217        	(1.18277251e+00 7.58509016e-02 2.57716718e-32)
0.277067        	(1.18290450e+00 7.58579882e-02 2.57618230e-32)
0.277917        	(1.18303620e+00 7.58649469e-02 2.57324380e-32)
0.278766        	(1.18316770e+00 7.58718256e-02 2.57184634e-32)
0.279616        	(1.18329901e+00 7.58786380e-02 2.57087258e-32)
0.280465        	(1.18343011e+00 7.58853804e-02 2.56990453e-32)
0.281315        	(1.18356101e+00 7.58920493e-02 2.56893691e-32)
0.282163        	(1.18369156e+00 7.58985927e-02 2.56600981e-32)
0.283012        	(1.18382186e+00 7.59050606e-02 2.56462903e-32)
0.28386         	(1.18395193e+00 7.59114690e-02 2.56367201e-32)
0.284709        	(1.18408175e+00 7.59178161e-02 2.56272291e-32)
0.285557        	(1.18421132e+00 7.59241006e-02 2.56177362e-32)
0.286405        	(1.18434050e+00 7.59302722e-02 2.55885952e-32)
0.287252        	(1.18446940e+00 7.59363827e-02 2.55749669e-32)
0.2881          	(1.18459803e+00 7.59424500e-02 2.55655915e-32)
0.288947        	(1.18472638e+00 7.59484739e-02 2.55563032e-32)
0.289795        	(1.18485445e+00 7.59544544e-02 2.55470102e-32)
0.290641        	(1.18498212e+00 7.59603425e-02 2.55180180e-32)
0.291488        	(1.18510948e+00 7.59661911e-02 2.55045922e-32)
0.292334        	(1.18523655e+00 7.59720193e-02 2.54954340e-32)
0.293181        	(1.18536334e+00 7.59778278e-02 2.54863642e-32)
0.294027        	(1.18548983e+00 7.59836172e-02 2.54773017e-32)
0.294873        	(1.18561592e+00 7.59893389e-02 2.54484806e-32)
0.295718        	(1.18574170e+00 7.59950462e-02 2.54352802e-32)
0.296564        	(1.18586720e+00 7.60007587e-02 2.54263647e-32)
0.297409        	(1.18599242e+00 7.60064770e-02 2.54175415e-32)
0.298255        	(1.18611736e+00 7.60122016e-02 2.54087285e-32)
0.299099        	(1.18624191e+00 7.60178831e-02 2.53801027e-32)
0.299944        	(1.18636617e+00 7.60235747e-02 2.53671516e-32)
0.300788        	(1.18649018e+00 7.60292955e-02 2.53584983e-32)
0.301633        	(1.18661393e+00 7.60350454e-02 2.53499435e-32)
0.302477        	(1.18673743e+00 7.60408240e-02 2.53414026e-32)
0.30332         	(1.18686058e+00 7.60465803e-02 2.53129894e-32)
0.304164        	(1.18698347e+00 7.60523668e-02 2.53003031e-32)
0.305007        	(1.18710614e+00 7.60582016e-02 2.52919333e-32)
0.305851        	(1.18722860e+00 7.60640831e-02 2.52836578e-32)
0.306694        	(1.18735085e+00 7.60700096e-02 2.52754018e-32)
0.307537        	(1.18747279e+00 7.60759278e-02 2.52472087e-32)
0.308379        	(1.18759452e+00 7.60818895e-02 2.52347984e-32)
0.309221        	(1.18771608e+00 7.60879109e-02 2.52267123e-32)
0.310064        	(1.18783747e+00 7.60939890e-02 2.52187259e-32)
0.310906        	(1.18795871e+00 7.61001202e-02 2.52107580e-32)
0.311749        	(1.18807979e+00 7.61063027e-02 2.52028019e-32)
0.31259         	(1.18820062e+00 7.61124814e-02 2.51748325e-32)
0.313431        	(1.18832129e+00 7.61187072e-02 2.51627529e-32)
0.314273        	(1.18844185e+00 7.61249952e-02 2.51550848e-32)
0.315114        	(1.18856229e+00 7.61313393e-02 2.51472062e-32)
0.315956        	(1.18868263e+00 7.61377340e-02 2.51395025e-32)
0.316796        	(1.18880275e+00 7.61441211e-02 2.51117570e-32)
0.317636        	(1.18892277e+00 7.61505507e-02 2.50999278e-32)
0.318477        	(1.18904271e+00 7.61570360e-02 2.50924416e-32)
0.319317        	(1.18916259e+00 7.61635706e-02 2.50850452e-32)
0.320157        	(1.18928241e+00 7.61701476e-02 2.50776556e-32)
0.320997        	(1.18940205e+00 7.61767066e-02 2.50500980e-32)
0.321836        	(1.18952162e+00 7.61832966e-02 2.50384929e-32)
0.322675        	(1.18964114e+00 7.61899298e-02 2.50312406e-32)
0.323515        	(1.18976063e+00 7.61965985e-02 2.50240751e-32)
0.324354        	(1.18988009e+00 7.62032947e-02 2.50169127e-32)
0.325193        	(1.18999951e+00 7.62100124e-02 2.50097497e-32)
0.326031        	(1.19011877e+00 7.62166908e-02 2.49823183e-32)
0.32687         	(1.19023798e+00 7.62233789e-02 2.49709226e-32)
0.327708        	(1.19035716e+00 7.62300886e-02 2.49638863e-32)
0.328546        	(1.19047632e+00 7.62368116e-02 2.49569374e-32)
0.329385        	(1.19059545e+00 7.62435393e-02 2.49499887e-32)
0.330222        	(1.19071443e+00 7.62502093e-02 2.49227010e-32)
0.331059        	(1.19083337e+00 7.62568706e-02 2.49114881e-32)
0.331896        	(1.19095228e+00 7.62635350e-02 2.49046433e-32)
0.332733        	(1.19107116e+00 7.62701940e-02 2.48978744e-32)
0.333571        	(1.19119001e+00 7.62768392e-02 2.48910963e-32)
0.334408        	(1.19130881e+00 7.62834644e-02 2.48842995e-32)
0.335244        	(1.19142745e+00 7.62900079e-02 2.48570647e-32)
0.33608         	(1.19154602e+00 7.62965197e-02 2.48459786e-32)
0.336916        	(1.19166454e+00 7.63030124e-02 2.48392746e-32)
0.337753        	(1.19178300e+00 7.63094780e-02 2.48326635e-32)
0.338589        	(1.19190141e+00 7.63159088e-02 2.48259970e-32)
0.339424        	(1.19201961e+00 7.63222424e-02 2.47988307e-32)
0.340259        	(1.19213772e+00 7.63285294e-02 2.47878643e-32)
0.341094        	(1.19225575e+00 7.63347832e-02 2.47812856e-32)
0.341929        	(1.19237370e+00 7.63409966e-02 2.47747719e-32)
0.342764        	(1.19249746e+00 7.63471626e-02 2.47682368e-32)
0.343599        	(1.19263069e+00 7.63532766e-02 2.47616702e-32)
0.344433        	(1.19276367e+00 7.63592779e-02 2.47344888e-32)
0.345268        	(1.19289650e+00 7.63652192e-02 2.47235762e-32)
0.346102        	(1.19302917e+00 7.63711150e-02 2.47170719e-32)
0.346936        	(1.19316170e+00 7.63769595e-02 2.47106319e-32)
0.34777         	(1.19329406e+00 7.63827471e-02 2.47041688e-32)
0.348604        	(1.19342625e+00 7.63884745e-02 2.46976724e-32)
0.349437        	(1.19355814e+00 7.63940825e-02 2.46704637e-32)
0.35027         	(1.19368984e+00 7.63996250e-02 2.46596045e-32)
0.351103        	(1.19382133e+00 7.64051185e-02 2.46531694e-32)
0.351936        	(1.19395264e+00 7.64105587e-02 2.46467963e-32)
0.352769        	(1.19408373e+00 7.64159412e-02 2.46404012e-32)
0.353602        	(1.19421461e+00 7.64212643e-02 2.46339674e-32)
0.354434        	(1.19434514e+00 7.64264700e-02 2.46067372e-32)
0.355266        	(1.19447543e+00 7.64316140e-02 2.45959183e-32)
0.356097        	(1.19460548e+00 7.64367142e-02 2.45895567e-32)
0.356929        	(1.19473530e+00 7.64417677e-02 2.45832535e-32)
0.357761        	(1.19486487e+00 7.64467714e-02 2.45769263e-32)
0.358593        	(1.19499418e+00 7.64517250e-02 2.45705737e-32)
0.359424        	(1.19512311e+00 7.64565715e-02 2.45433258e-32)
0.360255        	(1.19525177e+00 7.64613679e-02 2.45325594e-32)
0.361086        	(1.19538015e+00 7.64661336e-02 2.45262671e-32)
0.361917        	(1.19550826e+00 7.64708665e-02 2.45200492e-32)
0.362747        	(1.19563610e+00 7.64755648e-02 2.45138105e-32)
0.363578        	(1.19576365e+00 7.64802289e-02 2.45075436e-32)
0.364408        	(1.19589080e+00 7.64848025e-02 2.44802770e-32)
0.365238        	(1.19601764e+00 7.64893435e-02 2.44696054e-32)
0.366067        	(1.19614419e+00 7.64938723e-02 2.44634125e-32)
0.366897        	(1.19627046e+00 7.64983873e-02 2.44573101e-32)
0.367727        	(1.19639644e+00 7.65028875e-02 2.44511728e-32)
0.368557        	(1.19652212e+00 7.65073733e-02 2.44450261e-32)
0.369385        	(1.19664739e+00 7.65117885e-02 2.44177820e-32)
0.370214        	(1.19677234e+00 7.65161919e-02 2.44072193e-32)
0.371043        	(1.19689701e+00 7.65206038e-02 2.44011632e-32)
0.371871        	(1.19702139e+00 7.65250230e-02 2.43951885e-32)
0.3727          	(1.19714548e+00 7.65294482e-02 2.43892060e-32)
0.373529        	(1.19726927e+00 7.65338799e-02 2.43831970e-32)
0.374356        	(1.19739267e+00 7.65382610e-02 2.43560169e-32)
0.375184        	(1.19751576e+00 7.65426506e-02 2.43455856e-32)
0.376011        	(1.19763857e+00 7.65470689e-02 2.43396991e-32)
0.376839        	(1.19776111e+00 7.65515142e-02 2.43338961e-32)
0.377667        	(1.19788339e+00 7.65559845e-02 2.43280886e-32)
0.378494        	(1.19800539e+00 7.65604801e-02 2.43222689e-32)
0.379322        	(1.19812712e+00 7.65650020e-02 2.43164421e-32)
0.380148        	(1.19824848e+00 7.65694919e-02 2.42893162e-32)
0.380975        	(1.19836956e+00 7.65740087e-02 2.42790580e-32)
0.381801        	(1.19849039e+00 7.65785724e-02 2.42733802e-32)
0.382628        	(1.19861099e+00 7.65831802e-02 2.42677947e-32)
0.383454        	(1.19873135e+00 7.65878292e-02 2.42622137e-32)
0.384281        	(1.19885148e+00 7.65925186e-02 2.42566277e-32)
0.385106        	(1.19897127e+00 7.65971877e-02 2.42296371e-32)
0.385931        	(1.19909082e+00 7.66018954e-02 2.42195978e-32)
0.386757        	(1.19921017e+00 7.66066604e-02 2.42141592e-32)
0.387582        	(1.19932932e+00 7.66114791e-02 2.42088153e-32)
0.388407        	(1.19944828e+00 7.66163472e-02 2.42035272e-32)
0.389233        	(1.19956705e+00 7.66212628e-02 2.41981205e-32)
0.390058        	(1.19968564e+00 7.66262249e-02 2.41927632e-32)
0.390882        	(1.19980392e+00 7.66311710e-02 2.41658828e-32)
0.391707        	(1.19992203e+00 7.66361595e-02 2.41560655e-32)
0.392531        	(1.20003997e+00 7.66412084e-02 2.41508804e-32)
0.393355        	(1.20015777e+00 7.66463126e-02 2.41457923e-32)
0.394179        	(1.20027542e+00 7.66514668e-02 2.41407097e-32)
0.395004        	(1.20039293e+00 7.66566678e-02 2.41356233e-32)
0.395828        	(1.20051031e+00 7.66619136e-02 2.41305369e-32)
0.396651        	(1.20062743e+00 7.66671391e-02 2.41037824e-32)
0.397474        	(1.20074442e+00 7.66724031e-02 2.40941988e-32)
0.398297        	(1.20086129e+00 7.66777225e-02 2.40892736e-32)
0.39912         	(1.20097806e+00 7.66830913e-02 2.40844440e-32)
0.399943        	(1.20109473e+00 7.66885031e-02 2.40796181e-32)
0.400767        	(1.20121131e+00 7.66939536e-02 2.40747858e-32)
0.40159         	(1.20132779e+00 7.66994398e-02 2.40699501e-32)
0.402412        	(1.20144405e+00 7.67048950e-02 2.40433027e-32)
0.403234        	(1.20156022e+00 7.67103779e-02 2.40339345e-32)
0.404056        	(1.20167631e+00 7.67159050e-02 2.40292499e-32)
0.404878        	(1.20179233e+00 7.67214693e-02 2.40246569e-32)
0.4057          	(1.20190829e+00 7.67270638e-02 2.40200628e-32)