/*--------------------------------*- C++ -*----------------------------------*\
| =========                 |                                                 |
| \\      /  F ield         | OpenFOAM: The Open Source CFD Toolbox           |
|  \\    /   O peration     | Version:  2206                                  |
|   \\  /    A nd           | Website:  www.openfoam.com                      |
|    \\/     M anipulation  |                                                 |
\*---------------------------------------------------------------------------*/
FoamFile
{
    version     2.0;
    format      ascii;
    arch        "LSB;label=32;scalar=64";
    class       volScalarField;
    location    "800";
    object      k;
}
// * * * * * * * * * * * * * * * * * * * * * * * * * * * * * * * * * * * * * //

dimensions      [0 2 -2 0 0 0 0];

internalField   nonuniform List<scalar> 
7480
(
0.011444565
0.014108724
0.011690327
0.0076593802
0.0045415651
0.002781089
0.0019369139
0.0015258223
0.0012980292
0.0011497111
0.0010351458
0.00093689315
0.00085129414
0.00077723229
0.00071301612
0.00065707225
0.00060821137
0.00056529479
0.00052711702
0.00049290374
0.00046218566
0.00043445443
0.00040924308
0.00038625688
0.00036526247
0.00034600744
0.00032826753
0.00031190014
0.0002967925
0.00028281568
0.00026985735
0.00025784423
0.00024671191
0.00023638851
0.00022681363
0.00021794625
0.000209749
0.00020218537
0.00019523048
0.00018887188
0.00018309921
0.00017790175
0.00017327941
0.0001692323
0.00016576836
0.00016296144
0.0001607671
0.00015927925
0.00015848951
0.00015837826
0.00015892256
0.00016009337
0.00016182918
0.00016401756
0.00016654832
0.00016934546
0.00017224173
0.00017498817
0.00017734924
0.00017913182
0.00018033012
0.00018095097
0.0001810502
0.00018070421
0.00018000976
0.00017905487
0.00017791719
0.00017665884
0.0001753244
0.00017394697
0.00017255175
0.0001711536
0.00016976196
0.00016838689
0.00016703086
0.00016569527
0.00016438063
0.00016303259
0.00016165593
0.00016026689
0.00015887204
0.00015747463
0.00015606928
0.00015465395
0.00015322818
0.00015179168
0.00015034671
0.00014889388
0.0001474365
0.00014597562
0.00014451355
0.00014305124
0.00014159195
0.00014012753
0.00013868237
0.00013716746
0.00013584566
0.00013394366
0.00013287269
0.00012997023
0.0014156731
0.0025663869
0.0028346279
0.0024739769
0.0020070426
0.0015607766
0.0011994365
0.00093122594
0.00073503445
0.00059086246
0.00048466436
0.00040593153
0.00034682793
0.00030170978
0.00026651287
0.00023840164
0.00021547205
0.00019641489
0.00018030097
0.00016649957
0.0001545853
0.00014423572
0.0001351967
0.00012727751
0.00012019693
0.00011381504
0.00010804605
0.00010283925
9.8161262e-05
9.398295e-05
9.0281409e-05
8.7042719e-05
8.4256851e-05
8.1914639e-05
8.0010848e-05
7.8545638e-05
7.7523301e-05
7.695544e-05
7.6865235e-05
7.7288419e-05
7.8271699e-05
7.9873083e-05
8.216476e-05
8.5231866e-05
8.9180931e-05
9.4119975e-05
0.00010013263
0.00010728504
0.00011559526
0.00012505497
0.00013563199
0.00014733067
0.00015988871
0.00017300928
0.00018640412
0.00019964239
0.00021208516
0.0002231487
0.00023247494
0.00024000921
0.00024590094
0.00025040984
0.00025379908
0.00025616263
0.00025772084
0.0002586728
0.00025917617
0.00025934751
0.0002592721
0.00025901197
0.00025861019
0.00025809329
0.00025748512
0.00025680407
0.00025605705
0.0002552451
0.00025434856
0.00025316185
0.00025177188
0.00025024902
0.00024861599
0.00024687926
0.00024504089
0.00024310796
0.00024108714
0.00023898846
0.00023682194
0.00023459763
0.00023232654
0.00023001768
0.00022768006
0.00022532168
0.00022295037
0.00022057083
0.00021818697
0.00021579707
0.00021343895
0.00021076621
0.00020885038
0.00020445291
0.00020999508
0.00055716576
0.00084131802
0.00095098561
0.00092892645
0.00084353799
0.00075615639
0.00069795034
0.00065923597
0.00062427299
0.00059306504
0.00056401615
0.00053574019
0.00050882241
0.000483525
0.00045987214
0.00043792421
0.00041769923
0.0003992011
0.00038243862
0.00036740075
0.00035404514
0.00034232439
0.00033217143
0.00032243584
0.00031324606
0.00030471615
0.00029697518
0.00029015028
0.00028435992
0.00027972268
0.00027635597
0.00027436909
0.00027386759
0.00027496187
0.00027776745
0.00028241166
0.0002890624
0.00029794523
0.00030934613
0.00032361019
0.00034114716
0.00036243896
0.00038803833
0.00041861436
0.00045474989
0.00049693336
0.00054540835
0.0006001745
0.00066106982
0.0007275591
0.00079921625
0.00087483227
0.00095268245
0.0010310856
0.0011074953
0.0011784423
0.0012409936
0.0012935949
0.0013362684
0.0013699979
0.0013963434
0.0014161201
0.0014304346
0.0014405706
0.0014475712
0.0014522388
0.0014551577
0.0014567534
0.0014573343
0.0014571111
0.001456213
0.0014547643
0.001452857
0.001450525
0.0014477691
0.0014444732
0.0014394538
0.0014332793
0.0014263334
0.001418729
0.0014104965
0.0014016536
0.0013922429
0.001382304
0.0013718948
0.0013610707
0.0013498888
0.001338409
0.0013266826
0.0013147589
0.0013026841
0.0012905001
0.0012782447
0.0012659113
0.0012535976
0.0012412008
0.0012276525
0.0012174107
0.0011948706
3.6610887e-05
0.00011640451
0.00022886834
0.00032887693
0.00038966751
0.00041111951
0.0004081566
0.00039501188
0.00038060487
0.00036974246
0.00036651538
0.00037464757
0.00038613994
0.00039595774
0.00040414099
0.00041042747
0.00041542463
0.00041963244
0.00042336967
0.00042689648
0.00043042933
0.00043415612
0.00043823247
0.00044276561
0.00044759432
0.00045253354
0.00045763089
0.00046309966
0.00046921706
0.00047628415
0.0004846192
0.00049455432
0.0005064298
0.00052059611
0.00053741809
0.0005572726
0.00058057608
0.00060785958
0.00063978229
0.00067712083
0.0007207605
0.00077169854
0.00083104949
0.00090003968
0.00098006889
0.0010721255
0.0011767254
0.0012938645
0.001423033
0.0015633284
0.001713308
0.0018699083
0.0020312641
0.0021938139
0.0023542492
0.0025072057
0.0026462533
0.0027669811
0.0028679234
0.0029501019
0.0030160149
0.0030681174
0.0031080117
0.0031384608
0.0031617416
0.0031796216
0.0031934313
0.00320413
0.0032124085
0.0032187641
0.0032235293
0.0032269074
0.0032291149
0.0032303019
0.0032305167
0.0032297438
0.0032277896
0.0032223172
0.0032146549
0.0032054646
0.0031949085
0.0031830397
0.0031699033
0.0031555846
0.0031401678
0.003123764
0.0031064788
0.0030884203
0.0030696986
0.0030504112
0.0030306469
0.0030104963
0.0029900348
0.0029693442
0.0029483891
0.0029274502
0.0029060001
0.0028832499
0.0028646657
0.0028272336
1.2523416e-05
2.7571575e-05
5.8621787e-05
9.9466618e-05
0.00013896871
0.0001694149
0.00018919699
0.0002002537
0.0002054745
0.0002073402
0.00020801913
0.00020958032
0.00021294085
0.00021860311
0.00022749986
0.00024061281
0.00025526086
0.00027043125
0.00028570169
0.00030133636
0.00031748398
0.00033432811
0.00035194203
0.00037025714
0.00038899639
0.00040785438
0.00042731102
0.00044781526
0.0004696929
0.00049322221
0.0005186832
0.00054638767
0.00057669327
0.00061000511
0.00064676892
0.00068746656
0.00073269818
0.00078332384
0.00084037877
0.00090500399
0.00097844252
0.001062046
0.0011572772
0.0012657072
0.0013890681
0.0015277813
0.0016814617
0.0018494378
0.0020307442
0.0022240065
0.0024272161
0.0026371547
0.0028491262
0.0030591327
0.0032640623
0.003455948
0.003627057
0.0037740668
0.0038972062
0.0039986977
0.0040811867
0.0041475077
0.0042006199
0.0042433037
0.004277919
0.0043063211
0.004329915
0.0043497266
0.004366499
0.0043807686
0.0043928885
0.0044030784
0.0044116034
0.0044186237
0.0044241769
0.0044282206
0.0044305721
0.0044302614
0.0044274802
0.0044225234
0.0044155515
0.0044066579
0.0043959325
0.0043835048
0.0043695098
0.0043541057
0.004337442
0.0043196669
0.0043009276
0.0042813575
0.004261072
0.0042401947
0.0042188219
0.0041970657
0.0041748828
0.0041526585
0.0041295906
0.004105683
0.0040847957
0.004046345
9.3804284e-06
1.1752022e-05
1.8504598e-05
3.034407e-05
4.5488091e-05
6.1116511e-05
7.5204056e-05
8.6931863e-05
9.6284557e-05
0.00010357826
0.00010921051
0.00011368906
0.00011750742
0.00012111613
0.00012502215
0.00012979988
0.0001357257
0.00014307521
0.00015227394
0.00016377054
0.00017688786
0.00019190707
0.00020810898
0.00022551498
0.00024420674
0.00026424175
0.00028584813
0.0003093284
0.00033501799
0.00036329579
0.00039458082
0.0004293316
0.00046804958
0.00051127145
0.00055958173
0.00061369624
0.00067461238
0.00074335464
0.00082094013
0.00090846141
0.001007127
0.0011182668
0.0012433227
0.0013838675
0.0015415731
0.0017146575
0.0019011683
0.0021003073
0.002311407
0.0025332761
0.0027638689
0.0029998742
0.00323649
0.003469454
0.0036955467
0.0039037685
0.0040872643
0.0042457809
0.0043809166
0.0044951982
0.004591649
0.0046729658
0.0047415744
0.0047997594
0.0048495604
0.0048926184
0.0049302237
0.0049633669
0.0049927851
0.0050190204
0.0050424268
0.0050632312
0.0050817655
0.0050981875
0.0051125167
0.0051246889
0.0051345608
0.0051414785
0.0051454017
0.005146516
0.0051449981
0.0051409896
0.0051346322
0.0051261026
0.005115587
0.0051032882
0.0050893964
0.005074095
0.0050575647
0.0050399699
0.0050214472
0.0050021485
0.0049821873
0.0049616973
0.0049406407
0.0049194543
0.0048972079
0.0048744895
0.0048537702
0.0048171136
8.9897939e-06
9.2309025e-06
1.039177e-05
1.306616e-05
1.7352036e-05
2.2791287e-05
2.8761067e-05
3.4794021e-05
4.0620179e-05
4.609812e-05
5.1144878e-05
5.5729211e-05
5.9869846e-05
6.3622576e-05
6.7091365e-05
7.043299e-05
7.3813267e-05
7.7406706e-05
8.142561e-05
8.6126628e-05
9.169649e-05
9.8411192e-05
0.00010651074
0.00011620248
0.00012735834
0.000140185
0.00015493046
0.00017144459
0.00018975451
0.0002102277
0.00023330265
0.00025949961
0.00028942956
0.00032377593
0.00036330521
0.00040892809
0.00046182333
0.00052346229
0.00059538807
0.0006792529
0.00077680427
0.00088986634
0.0010203239
0.0011701783
0.0013415381
0.0015226693
0.0017159395
0.0019248686
0.0021499095
0.0023895116
0.002640561
0.0028983471
0.0031567545
0.0034117763
0.0036609306
0.0038825
0.0040753509
0.0042464283
0.0043982479
0.0045328512
0.0046522965
0.0047581055
0.0048516484
0.004934528
0.0050083113
0.0050742811
0.0051335808
0.0051871846
0.0052358444
0.0052801469
0.0053205434
0.0053573619
0.0053908992
0.0054213349
0.0054487011
0.0054729508
0.0054939997
0.0055114349
0.0055251435
0.0055352528
0.0055419656
0.0055454839
0.0055460154
0.0055437953
0.0055390705
0.0055320967
0.0055231113
0.0055123402
0.005500005
0.0054863073
0.0054714249
0.0054555287
0.0054387505
0.0054212467
0.0054030007
0.0053844636
0.0053647117
0.0053446094
0.0053258152
0.0052922931
8.9407672e-06
8.8618089e-06
8.9452641e-06
9.3733063e-06
1.0288135e-05
1.1705146e-05
1.3541256e-05
1.5693119e-05
1.807704e-05
2.0627109e-05
2.3281653e-05
2.5982078e-05
2.8678222e-05
3.1329471e-05
3.3911444e-05
3.6422104e-05
3.8878789e-05
4.1314314e-05
4.3781187e-05
4.6355249e-05
4.9123779e-05
5.2196011e-05
5.5699968e-05
5.9781484e-05
6.4572832e-05
7.0252052e-05
7.7059479e-05
8.5140942e-05
9.4561871e-05
0.0001055618
0.00011844908
0.00013360134
0.00015136761
0.00017186657
0.00019573151
0.00022373315
0.00025684564
0.00029631451
0.000343675
0.00040075849
0.00046973068
0.00055310352
0.00065369357
0.00077454401
0.00091877282
0.0010825425
0.0012631319
0.001461604
0.0016783268
0.0019124203
0.0021612515
0.0024201355
0.0026828949
0.0029479965
0.0032140084
0.0034581177
0.0036785658
0.0038797357
0.0040624972
0.0042296567
0.0043830447
0.0045231282
0.0046505615
0.0047666429
0.0048724921
0.0049689702
0.0050571339
0.0051379458
0.0052121379
0.0052803655
0.0053431979
0.0054010594
0.0054542888
0.0055031151
0.005547592
0.0055877166
0.005623481
0.0056546932
0.005681274
0.0057033303
0.0057210845
0.0057347922
0.0057447286
0.0057511931
0.0057544987
0.0057549596
0.0057528661
0.005748494
0.0057421152
0.0057339761
0.0057242941
0.0057132731
0.005701073
0.005687878
0.0056737053
0.0056590012
0.0056429359
0.0056264362
0.0056107918
0.0055810385
8.9327706e-06
8.8091171e-06
8.7105303e-06
8.6773345e-06
8.7583276e-06
8.9871885e-06
9.374396e-06
9.9172837e-06
1.0610875e-05
1.1450073e-05
1.2426815e-05
1.3527919e-05
1.4736701e-05
1.6033669e-05
1.7399078e-05
1.8816141e-05
2.027271e-05
2.176129e-05
2.3281131e-05
2.4840509e-05
2.645627e-05
2.8154738e-05
2.9973316e-05
3.196163e-05
3.4178298e-05
3.6696029e-05
3.9609397e-05
4.3022757e-05
4.7045309e-05
5.1821565e-05
5.7545804e-05
6.4407839e-05
7.2623046e-05
8.2434686e-05
9.418864e-05
0.00010832846
0.00012543222
0.00014625155
0.00017147968
0.00020216954
0.00023988889
0.0002866445
0.00034498189
0.00041808243
0.00050985791
0.00062312411
0.00075702328
0.0009118206
0.0010885474
0.0012875484
0.0015078583
0.0017466102
0.0019990846
0.0022629013
0.0025353839
0.0028004718
0.0030434934
0.0032702071
0.0034829842
0.003683397
0.0038725301
0.0040490995
0.0042132087
0.0043662251
0.0045085322
0.0046403243
0.0047625799
0.0048760592
0.0049812578
0.0050788621
0.0051694936
0.0052535975
0.005331527
0.0054035542
0.0054697091
0.005530035
0.0055846141
0.0056334365
0.005676512
0.0057139709
0.0057460564
0.0057730654
0.0057953354
0.0058132299
0.0058271301
0.0058374143
0.0058444318
0.0058485175
0.0058500045
0.0058491938
0.0058463536
0.0058417317
0.0058355258
0.0058279566
0.0058190874
0.0058093541
0.0057980724
0.0057861184
0.0057746788
0.0057492522
8.9300743e-06
8.7998996e-06
8.6731582e-06
8.5570352e-06
8.463187e-06
8.4038452e-06
8.3885107e-06
8.424132e-06
8.5168323e-06
8.6725721e-06
8.8965305e-06
9.1920431e-06
9.5605277e-06
1.000122e-05
1.0511586e-05
1.1087956e-05
1.1725932e-05
1.2420844e-05
1.316866e-05
1.3966935e-05
1.4815381e-05
1.5716398e-05
1.6676259e-05
1.7706223e-05
1.8822642e-05
2.0047796e-05
2.1412004e-05
2.295373e-05
2.4719411e-05
2.6767171e-05
2.9172486e-05
3.2026967e-05
3.5442974e-05
3.9559283e-05
4.4557971e-05
5.063341e-05
5.8060398e-05
6.7207023e-05
7.8503088e-05
9.25115e-05
0.00011001812
0.00013208898
0.0001601578
0.00019613868
0.00024247109
0.00030211745
0.00037783028
0.00047158595
0.00058581505
0.00072278616
0.00088418938
0.0010705428
0.0012806314
0.0015123988
0.0017631954
0.0020238453
0.0022814924
0.0025301088
0.0027635241
0.0029862351
0.003200255
0.0034055476
0.0036018995
0.0037895747
0.0039676519
0.0041350231
0.0042928914
0.0044414593
0.0045807097
0.0047113301
0.0048337666
0.0049483386
0.0050553392
0.0051550692
0.0052473622
0.00533227
0.0054099636
0.0054805356
0.005544073
0.005600757
0.0056508502
0.0056946728
0.005732612
0.0057650838
0.0057925284
0.005815391
0.0058340813
0.0058489991
0.0058605457
0.0058690867
0.0058749524
0.0058784463
0.0058798164
0.0058793302
0.0058771094
0.0058735837
0.0058682427
0.005861867
0.0058556859
0.0058352696
8.9284815e-06
8.7968281e-06
8.6655942e-06
8.535774e-06
8.4095819e-06
8.2900395e-06
8.1803845e-06
8.0838585e-06
8.0038757e-06
7.9441321e-06
7.9084775e-06
7.900665e-06
7.9241746e-06
7.9820043e-06
8.0766e-06
8.2098462e-06
8.3830126e-06
8.5967862e-06
8.851439e-06
9.1470677e-06
9.4838189e-06
9.8621607e-06
1.0283194e-05
1.0749114e-05
1.1263613e-05
1.1832345e-05
1.2463603e-05
1.3168996e-05
1.3963919e-05
1.4868487e-05
1.590912e-05
1.7119571e-05
1.8542725e-05
2.0232985e-05
2.226075e-05
2.471287e-05
2.7703088e-05
3.1384291e-05
3.5954048e-05
4.1649134e-05
4.88067e-05
5.7888897e-05
6.9532906e-05
8.4619605e-05
0.00010434889
0.00013034714
0.00016464996
0.00020947241
0.00026742482
0.00034146001
0.00043473502
0.00055030089
0.00069060128
0.00085717568
0.0010505367
0.0012679904
0.0015023778
0.0017454298
0.0019877989
0.0022267726
0.0024573009
0.0026782083
0.0028930039
0.0031022724
0.003305508
0.0035017597
0.003690979
0.0038722332
0.0040443371
0.0042081184
0.0043634935
0.0045105635
0.004649345
0.0047796985
0.0049013411
0.0050143461
0.005118878
0.0052149986
0.0053028116
0.0053825193
0.0054543669
0.0055186639
0.005575817
0.0056262604
0.0056704627
0.0057089302
0.005742132
0.0057705287
0.0057945885
0.0058147439
0.0058313969
0.0058449166
0.0058556176
0.0058638237
0.0058697273
0.0058737642
0.0058756114
0.0058759503
0.0058761321
0.0058615606
8.9274809e-06
8.7951467e-06
8.662863e-06
8.5306742e-06
8.3989145e-06
8.26816e-06
8.1392063e-06
8.0130439e-06
7.890865e-06
7.7740719e-06
7.6642578e-06
7.5631711e-06
7.4726799e-06
7.394716e-06
7.3312202e-06
7.2841071e-06
7.2552207e-06
7.2462786e-06
7.2588539e-06
7.2943896e-06
7.3542205e-06
7.4396207e-06
7.5518445e-06
7.6922487e-06
7.8624364e-06
8.0644175e-06
8.3009019e-06
8.5756288e-06
8.8936042e-06
9.2614057e-06
9.6877048e-06
1.0183925e-05
1.0764986e-05
1.1450184e-05
1.2264647e-05
1.324069e-05
1.4420202e-05
1.5858642e-05
1.7629204e-05
1.9826221e-05
2.2577161e-05
2.6057805e-05
3.0510806e-05
3.6268188e-05
4.3805277e-05
5.3794589e-05
6.7163451e-05
8.5118956e-05
0.00010922952
0.00014150195
0.00018444103
0.00024105115
0.00031472136
0.00040900582
0.00052733839
0.00067211748
0.00084328123
0.001037967
0.0012501904
0.0014742592
0.0017030855
0.001931411
0.0021582385
0.0023798171
0.0025941566
0.0028046574
0.0030114334
0.0032141015
0.003411377
0.0036029492
0.0037876381
0.0039647253
0.0041341704
0.0042951574
0.0044471092
0.0045900284
0.0047238468
0.0048484005
0.0049636852
0.0050698131
0.0051669279
0.0052552619
0.005335182
0.0054070797
0.0054714088
0.0055287101
0.0055794833
0.0056242361
0.0056634977
0.0056977619
0.0057275062
0.0057531723
0.0057751513
0.0057938358
0.0058095006
0.0058226032
0.0058330148
0.0058413326
0.0058490783
0.0058413559
8.9269304e-06
8.7942166e-06
8.6615297e-06
8.5288132e-06
8.3960938e-06
8.2634459e-06
8.131028e-06
7.9991011e-06
7.8680265e-06
7.7382566e-06
7.6103284e-06
7.4848641e-06
7.3625772e-06
7.2442723e-06
7.1308387e-06
7.0232434e-06
6.9225224e-06
6.8297616e-06
6.7460816e-06
6.6726271e-06
6.6105551e-06
6.561025e-06
6.525203e-06
6.5042758e-06
6.4994682e-06
6.5120744e-06
6.5435383e-06
6.5955658e-06
6.6702111e-06
6.7699582e-06
6.8979407e-06
7.0581824e-06
7.25585e-06
7.4976875e-06
7.7925429e-06
8.1517697e-06
8.5900733e-06
9.126778e-06
9.7874254e-06
1.0605515e-05
1.1625737e-05
1.2909041e-05
1.4539258e-05
1.6632503e-05
1.9353737e-05
2.2940726e-05
2.7733001e-05
3.4203221e-05
4.3014804e-05
5.5086575e-05
7.167816e-05
9.4487769e-05
0.00012574597
0.00016827456
0.00022548683
0.00030117346
0.00039887924
0.00052107098
0.00066811775
0.00083846325
0.0010282199
0.0012322261
0.0014462487
0.0016648215
0.0018834602
0.0021018901
0.0023175135
0.002527883
0.0027358384
0.0029413867
0.0031442001
0.0033424946
0.0035357873
0.0037231279
0.0039026447
0.004074193
0.0042372558
0.004391156
0.0045355537
0.0046703013
0.0047953102
0.004910595
0.0050163835
0.0051129342
0.0052006155
0.0052799516
0.0053514106
0.0054155135
0.0054728286
0.0055238883
0.0055692393
0.0056093909
0.0056448123
0.0056759726
0.0057032363
0.0057270958
0.0057476186
0.0057653398
0.005781991
0.005782319
8.9266216e-06
8.7936766e-06
8.6607902e-06
8.5279207e-06
8.3950586e-06
8.2621965e-06
8.1293594e-06
7.996623e-06
7.8641111e-06
7.7319831e-06
7.6004256e-06
7.4696519e-06
7.3399094e-06
7.2114863e-06
7.0847164e-06
6.959982e-06
6.8377175e-06
6.7184091e-06
6.602594e-06
6.4908588e-06
6.3838374e-06
6.2822059e-06
6.1866811e-06
6.0980206e-06
6.0170215e-06
5.9445224e-06
5.8814172e-06
5.828678e-06
5.7873773e-06
5.7587201e-06
5.7441058e-06
5.7452017e-06
5.7640219e-06
5.8030802e-06
5.8655857e-06
5.9555838e-06
6.0782248e-06
6.2401794e-06
6.4502098e-06
6.7199128e-06
7.0645864e-06
7.5046517e-06
8.0678846e-06
8.7924864e-06
9.7320269e-06
1.0963416e-05
1.2597783e-05
1.4794969e-05
1.7786402e-05
2.1907466e-05
2.764227e-05
3.5685443e-05
4.7033498e-05
6.3089629e-05
8.5784796e-05
0.00011767561
0.00016192484
0.0002220632
0.00030145974
0.00040276269
0.00052718803
0.00067414834
0.00084172451
0.0010263555
0.0012235041
0.0014298073
0.0016410648
0.0018530066
0.0020657067
0.0022772224
0.0024852024
0.0026912444
0.0028955671
0.0030978557
0.0032963058
0.0034899747
0.0036779671
0.0038583303
0.0040302466
0.0041932699
0.0043468032
0.0044903543
0.0046239113
0.0047474379
0.0048610758
0.0049652508
0.0050602785
0.005146627
0.005224855
0.0052954814
0.0053590972
0.0054162529
0.0054674825
0.0055133289
0.0055542421
0.0055907573
0.0056231346
0.0056518665
0.0056789382
0.0056887332
8.926443e-06
8.7933111e-06
8.6602667e-06
8.5272979e-06
8.3944033e-06
8.2615722e-06
8.128808e-06
7.9961446e-06
7.8636436e-06
7.7313846e-06
7.5994556e-06
7.46795e-06
7.3369695e-06
7.2066282e-06
7.0770556e-06
6.9483998e-06
6.8208307e-06
6.6945426e-06
6.5697567e-06
6.4467232e-06
6.325723e-06
6.2070691e-06
6.0911074e-06
5.9782182e-06
5.8688166e-06
5.7633532e-06
5.6623166e-06
5.5662381e-06
5.4756963e-06
5.3913246e-06
5.3138277e-06
5.2440016e-06
5.1827555e-06
5.1311516e-06
5.0904649e-06
5.0622496e-06
5.0484182e-06
5.0513643e-06
5.0741456e-06
5.1207615e-06
5.1963974e-06
5.307834e-06
5.4641468e-06
5.6776692e-06
5.9655751e-06
6.3519833e-06
6.8713415e-06
7.5735133e-06
8.5314332e-06
9.8527077e-06
1.1697106e-05
1.4302245e-05
1.8023914e-05
2.3394664e-05
3.1205193e-05
4.260821e-05
5.9242261e-05
8.3309573e-05
0.00011755548
0.00016510507
0.00022911908
0.00031231211
0.00041657151
0.0005424748
0.00068903797
0.00085432253
0.0010352409
0.0012276931
0.0014288672
0.0016353208
0.0018430272
0.0020520044
0.0022603729
0.0024656801
0.0026700777
0.0028735401
0.0030751839
0.0032731087
0.0034661805
0.003653339
0.0038326517
0.0040029232
0.0041639693
0.0043150746
0.0044559318
0.0045867898
0.0047075665
0.0048185817
0.0049202995
0.0050131231
0.0050976381
0.0051743754
0.0052438989
0.0053068037
0.0053636024
0.0054148704
0.0054610455
0.0055025881
0.0055417933
0.0055627047
8.9263738e-06
8.7930766e-06
8.6598781e-06
8.526793e-06
8.3938353e-06
8.261005e-06
8.128308e-06
7.99577e-06
7.8634362e-06
7.7313636e-06
7.5996139e-06
7.4682491e-06
7.3373321e-06
7.2069283e-06
7.077107e-06
6.9479423e-06
6.819515e-06
6.6919137e-06
6.5652367e-06
6.4395933e-06
6.3151055e-06
6.1919099e-06
6.0701591e-06
5.9500233e-06
5.8316922e-06
5.7153765e-06
5.6013092e-06
5.4897483e-06
5.3809784e-06
5.2753133e-06
5.1731006e-06
5.0747274e-06
4.9806266e-06
4.891287e-06
4.8072698e-06
4.7292295e-06
4.6579387e-06
4.5943236e-06
4.5395182e-06
4.4949415e-06
4.4623898e-06
4.4441599e-06
4.4432541e-06
4.463657e-06
4.5108105e-06
4.5921988e-06
4.7183111e-06
4.904185e-06
5.1718652e-06
5.5539649e-06
6.0989782e-06
6.8801324e-06
8.0092444e-06
9.6585893e-06
1.2094834e-05
1.5729681e-05
2.1194014e-05
2.9430473e-05
4.178922e-05
6.0093995e-05
8.6661867e-05
0.00012420587
0.00017563377
0.00024371677
0.00033066929
0.00043789034
0.00056563758
0.00071275035
0.00087732701
0.0010565907
0.0012467343
0.0014452301
0.0016487418
0.0018535072
0.0020599489
0.00226577
0.0024693581
0.00267223
0.0028748327
0.0030752689
0.0032716738
0.0034628664
0.0036477758
0.0038240701
0.003990976
0.0041485521
0.0042957861
0.0044328064
0.0045598335
0.0046769545
0.0047846779
0.004883396
0.0049736401
0.0050560079
0.0051310213
0.005199278
0.0052613592
0.0053176887
0.0053709432
0.0054048618
8.9264097e-06
8.7929727e-06
8.6596315e-06
8.5264212e-06
8.3933694e-06
8.2604879e-06
8.12779e-06
7.995302e-06
7.8630639e-06
7.7311255e-06
7.5995405e-06
7.4683627e-06
7.3376459e-06
7.2074438e-06
7.0778107e-06
6.9488015e-06
6.8204727e-06
6.6928819e-06
6.5660894e-06
6.4401578e-06
6.3151535e-06
6.1911473e-06
6.068215e-06
5.9464388e-06
5.8259084e-06
5.7067218e-06
5.5889871e-06
5.4728233e-06
5.3583622e-06
5.2457495e-06
5.1351471e-06
5.0267349e-06
4.9207138e-06
4.8173083e-06
4.7167718e-06
4.6193923e-06
4.5255004e-06
4.4354793e-06
4.3497801e-06
4.268944e-06
4.1936293e-06
4.1246495e-06
4.0630311e-06
4.0100953e-06
3.9675769e-06
3.9378112e-06
3.9240087e-06
3.9306731e-06
3.9643222e-06
4.034526e-06
4.1554218e-06
4.3483865e-06
4.6463713e-06
5.100719e-06
5.7919804e-06
6.8481287e-06
8.4730101e-06
1.0989428e-05
1.4898024e-05
2.0949997e-05
3.0231253e-05
4.4238764e-05
6.4905629e-05
9.4578401e-05
0.00013588868
0.00019154693
0.00026404408
0.00035526282
0.00046627748
0.00059711569
0.00074645308
0.00091234927
0.0010920029
0.0012817176
0.0014792932
0.0016809976
0.0018841166
0.0020889766
0.0022926149
0.0024946686
0.0026960454
0.002897273
0.0030956274
0.0032894569
0.0034775304
0.0036589072
0.0038306532
0.0039930337
0.0041456976
0.0042880543
0.0044204836
0.0045430036
0.0046560251
0.0047600503
0.0048555142
0.0049429989
0.0050231611
0.0050963675
0.0051657526
0.0052147931
8.9265423e-06
8.7929931e-06
8.6595298e-06
8.5262013e-06
8.3930461e-06
8.2600865e-06
8.1273429e-06
7.9948443e-06
7.8626296e-06
7.730745e-06
7.5992412e-06
7.4681693e-06
7.3375807e-06
7.2075267e-06
7.0780587e-06
6.9492278e-06
6.8210849e-06
6.6936808e-06
6.5670659e-06
6.4412909e-06
6.3164063e-06
6.1924631e-06
6.0695128e-06
5.9476082e-06
5.8268032e-06
5.707154e-06
5.5887192e-06
5.4715609e-06
5.3557452e-06
5.2413435e-06
5.1284327e-06
5.017097e-06
4.9074291e-06
4.7995311e-06
4.6935167e-06
4.589513e-06
4.4876637e-06
4.3881315e-06
4.2911033e-06
4.1967958e-06
4.1054642e-06
4.0174124e-06
3.9330098e-06
3.8527142e-06
3.7771036e-06
3.7069283e-06
3.6431892e-06
3.5872518e-06
3.5410366e-06
3.5073115e-06
3.4901366e-06
3.4955911e-06
3.5330154e-06
3.6169787e-06
3.7704056e-06
4.0301262e-06
4.4562343e-06
5.146181e-06
6.2575742e-06
8.0411971e-06
1.0888394e-05
1.5393145e-05
2.2422234e-05
3.3188614e-05
4.931023e-05
7.2813038e-05
0.00010607424
0.00015168565
0.00021223194
0.0002900133
0.00038665159
0.00050292983
0.00063855144
0.00079190125
0.00096093829
0.0011425403
0.0013333273
0.0015313279
0.0017319439
0.001934057
0.002137411
0.0023389462
0.0025390986
0.0027392488
0.0029381615
0.0031334625
0.0033236896
0.0035076853
0.0036837595
0.0038501453
0.0040072183
0.0041541358
0.0042911166
0.0044183842
0.0045361242
0.0046448394
0.0047451368
0.0048372911
0.0049249372
0.0049913795
8.9267595e-06
8.7931239e-06
8.6595613e-06
8.52613e-06
8.3928768e-06
8.2598323e-06
8.1270236e-06
7.9944829e-06
7.8622489e-06
7.7303666e-06
7.5988843e-06
7.4678519e-06
7.33732e-06
7.2073392e-06
7.0779603e-06
6.9492341e-06
6.8212106e-06
6.6939395e-06
6.5674698e-06
6.4418496e-06
6.3171262e-06
6.1933461e-06
6.0705549e-06
5.9487971e-06
5.8281167e-06
5.7085573e-06
5.5901618e-06
5.4729732e-06
5.3570344e-06
5.2423892e-06
5.1290823e-06
5.0171597e-06
4.9066697e-06
4.7976636e-06
4.6901956e-06
4.5843249e-06
4.480116e-06
4.3776399e-06
4.2769761e-06
4.178214e-06
4.081456e-06
3.98682e-06
3.8944446e-06
3.8044954e-06
3.7171736e-06
3.6327302e-06
3.5514875e-06
3.4738704e-06
3.4004564e-06
3.3320547e-06
3.2698287e-06
3.2154917e-06
3.1716347e-06
3.1422676e-06
3.1337034e-06
3.1560828e-06
3.2260999e-06
3.3711525e-06
3.6365079e-06
4.0967688e-06
4.8732598e-06
6.1602916e-06
8.2624668e-06
1.1645591e-05
1.7000887e-05
2.5314869e-05
3.7935589e-05
5.6621342e-05
8.3511226e-05
0.00012106058
0.00017187073
0.00023844631
0.00032290039
0.00042654552
0.00054980976
0.00069189902
0.00085087432
0.0010245577
0.0012092198
0.0014019783
0.0016006497
0.0018004445
0.0020016078
0.0022025889
0.0024021947
0.0026001446
0.0027987101
0.0029945647
0.0031860689
0.0033718323
0.0035508898
0.0037205769
0.0038810327
0.0040318878
0.0041728078
0.0043041302
0.0044261821
0.0045391036
0.0046469639
0.0047331288
8.9270488e-06
8.7933487e-06
8.659708e-06
8.5261913e-06
8.3928512e-06
8.2597255e-06
8.1268471e-06
7.9942512e-06
7.8619777e-06
7.7300704e-06
7.5985766e-06
7.4675453e-06
7.3370262e-06
7.2070697e-06
7.0777264e-06
6.9490467e-06
6.8210809e-06
6.6938787e-06
6.567489e-06
6.4419599e-06
6.3173383e-06
6.1936701e-06
6.0709999e-06
5.949371e-06
5.8288254e-06
5.7094035e-06
5.5911445e-06
5.4740863e-06
5.3582655e-06
5.2437175e-06
5.1304768e-06
5.0185768e-06
4.9080506e-06
4.7989309e-06
4.6912503e-06
4.585042e-06
4.4803397e-06
4.3771788e-06
4.2755963e-06
4.175632e-06
4.0773293e-06
3.9807362e-06
3.8859065e-06
3.792902e-06
3.701795e-06
3.6126721e-06
3.5256397e-06
3.4408331e-06
3.3584296e-06
3.2786693e-06
3.2018878e-06
3.1285683e-06
3.0594264e-06
2.9955525e-06
2.9386478e-06
2.8914287e-06
2.8583425e-06
2.8467472e-06
2.8689354e-06
2.9455482e-06
3.1110172e-06
3.4223037e-06
3.9728548e-06
4.9126796e-06
6.4786987e-06
9.0369544e-06
1.3139106e-05
1.9591661e-05
2.9524954e-05
4.4457299e-05
6.6329474e-05
9.7434326e-05
0.00014034665
0.00019768807
0.00027187112
0.00036473591
0.00047718321
0.00060918468
0.00075923445
0.00092503849
0.001104068
0.0012921958
0.0014871419
0.0016852707
0.0018845056
0.0020844624
0.0022828979
0.0024800302
0.0026766941
0.0028722532
0.0030642312
0.0032511038
0.0034317758
0.0036044086
0.0037676726
0.0039217427
0.004066215
0.0042010888
0.004330592
0.0044386026
8.9273987e-06
8.7936518e-06
8.6599511e-06
8.526365e-06
8.3929507e-06
8.2597515e-06
8.1268055e-06
7.9941512e-06
7.8618296e-06
7.7298847e-06
7.5983628e-06
7.4673124e-06
7.3367826e-06
7.2068233e-06
7.077485e-06
6.9488179e-06
6.8208722e-06
6.6936976e-06
6.5673432e-06
6.4418571e-06
6.3172864e-06
6.1936772e-06
6.0710742e-06
5.9495205e-06
5.8290582e-06
5.7097273e-06
5.5915667e-06
5.4746132e-06
5.3589021e-06
5.2444672e-06
5.1313404e-06
5.019552e-06
4.9091307e-06
4.8001039e-06
4.6924974e-06
4.586336e-06
4.4816432e-06
4.3784419e-06
4.2767541e-06
4.1766018e-06
4.0780067e-06
3.9809911e-06
3.8855781e-06
3.7917925e-06
3.6996613e-06
3.6092147e-06
3.5204884e-06
3.4335251e-06
3.3483789e-06
3.2651204e-06
3.1838456e-06
3.1046893e-06
3.0278469e-06
2.9536112e-06
2.8824328e-06
2.8150239e-06
2.7525405e-06
2.696893e-06
2.6512855e-06
2.6211346e-06
2.615638e-06
2.6503717e-06
2.7516412e-06
2.9630811e-06
3.3563077e-06
4.047681e-06
5.2219547e-06
7.1684955e-06
1.0330343e-05
1.5368915e-05
2.3240098e-05
3.5262318e-05
5.3177551e-05
7.9150136e-05
0.00011567612
0.00016545425
0.00023108779
0.00031482043
0.00041804153
0.00054106495
0.00068318271
0.00084210658
0.0010152776
0.0011991871
0.0013905944
0.0015872472
0.0017844309
0.0019826198
0.0021799085
0.0023759912
0.0025707917
0.0027655177
0.0029573881
0.0031449277
0.0033267591
0.0035016057
0.0036673653
0.0038241211
0.0039756791
0.0041070119
8.927799e-06
8.7940193e-06
8.6602734e-06
8.5266319e-06
8.3931552e-06
8.2598913e-06
8.1268828e-06
7.9941712e-06
7.8617991e-06
7.7298109e-06
7.598253e-06
7.4671732e-06
7.3366204e-06
7.2066441e-06
7.0772943e-06
6.9486213e-06
6.8206751e-06
6.6935051e-06
6.5671605e-06
6.4416894e-06
6.317139e-06
6.1935554e-06
6.0709834e-06
5.9494665e-06
5.8290466e-06
5.7097642e-06
5.591658e-06
5.4747652e-06
5.3591209e-06
5.2447587e-06
5.1317104e-06
5.0200056e-06
4.9096725e-06
4.8007371e-06
4.6932238e-06
4.5871552e-06
4.482552e-06
4.3794335e-06
4.2778174e-06
4.1777197e-06
4.0791555e-06
3.9821384e-06
3.8866812e-06
3.792796e-06
3.7004943e-06
3.6097875e-06
3.5206876e-06
3.4332076e-06
3.3473627e-06
3.2631718e-06
3.1806601e-06
3.0998622e-06
3.020828e-06