/*--------------------------------*- C++ -*----------------------------------*\
| =========                 |                                                 |
| \\      /  F ield         | OpenFOAM: The Open Source CFD Toolbox           |
|  \\    /   O peration     | Version:  2206                                  |
|   \\  /    A nd           | Website:  www.openfoam.com                      |
|    \\/     M anipulation  |                                                 |
\*---------------------------------------------------------------------------*/
FoamFile
{
    version     2.0;
    format      ascii;
    arch        "LSB;label=32;scalar=64";
    class       volScalarField;
    location    "800";
    object      nut;
}
// * * * * * * * * * * * * * * * * * * * * * * * * * * * * * * * * * * * * * //

dimensions      [0 2 -1 0 0 0 0];

internalField   nonuniform List<scalar> 
7480
(
1.5120116e-06
1.8586594e-06
1.5440717e-06
1.0160823e-06
6.0452955e-07
3.709071e-07
2.5856141e-07
2.0377642e-07
1.7339773e-07
1.5360971e-07
1.3832044e-07
1.2520508e-07
1.1377649e-07
1.0388652e-07
9.5310006e-08
8.7837323e-08
8.1309992e-08
7.557618e-08
7.0475035e-08
6.5903241e-08
6.1798205e-08
5.8092078e-08
5.4722524e-08
5.1650202e-08
4.8843966e-08
4.6270111e-08
4.3898688e-08
4.1710657e-08
3.9690963e-08
3.7822384e-08
3.6089917e-08
3.4483775e-08
3.2995358e-08
3.1615063e-08
3.0334821e-08
2.9149152e-08
2.8053069e-08
2.7041689e-08
2.6111695e-08
2.5261422e-08
2.4489489e-08
2.3794466e-08
2.3176344e-08
2.2635139e-08
2.2171915e-08
2.1796551e-08
2.1503103e-08
2.1304134e-08
2.1198522e-08
2.1183645e-08
2.1256434e-08
2.1413006e-08
2.1645135e-08
2.1937783e-08
2.2276218e-08
2.2650272e-08
2.3037579e-08
2.3404848e-08
2.3720583e-08
2.3958956e-08
2.4119198e-08
2.420222e-08
2.4215489e-08
2.4169222e-08
2.4076358e-08
2.3948667e-08
2.3796531e-08
2.3628258e-08
2.344981e-08
2.3265614e-08
2.3079038e-08
2.2892067e-08
2.2705969e-08
2.2522085e-08
2.2340747e-08
2.2162141e-08
2.1986336e-08
2.1806066e-08
2.1621966e-08
2.1436211e-08
2.1249678e-08
2.1062803e-08
2.0874864e-08
2.068559e-08
2.0494921e-08
2.0302814e-08
2.0109575e-08
1.9915285e-08
1.9720384e-08
1.9525016e-08
1.9329488e-08
1.9133926e-08
1.8938768e-08
1.8742924e-08
1.8549654e-08
1.8347056e-08
1.8170283e-08
1.7915916e-08
1.7772686e-08
1.7384518e-08
1.4110884e-06
1.6300657e-06
1.5384713e-06
1.2880141e-06
1.0361571e-06
8.1128154e-07
6.4376999e-07
5.1797972e-07
4.2142074e-07
3.4675142e-07
2.8963672e-07
2.4636336e-07
2.1350169e-07
1.8820848e-07
1.6833103e-07
1.5234494e-07
1.3920882e-07
1.2819034e-07
1.1878664e-07
1.1066421e-07
1.0359588e-07
9.7405495e-08
9.1959169e-08
8.7158465e-08
8.2832472e-08
7.8900751e-08
7.5319579e-08
7.2067064e-08
6.9129861e-08
6.6496105e-08
6.4158199e-08
6.2113723e-08
6.0361483e-08
5.8900364e-08
5.773189e-08
5.6860793e-08
5.6294052e-08
5.6043772e-08
5.6130343e-08
5.6582966e-08
5.7438544e-08
5.8742242e-08
6.0549636e-08
6.2925535e-08
6.5950898e-08
6.9706759e-08
7.4256426e-08
7.9649475e-08
8.58983e-08
9.2995826e-08
1.009143e-07
1.0965068e-07
1.1901369e-07
1.2878145e-07
1.3873952e-07
1.4856844e-07
1.5779581e-07
1.6599389e-07
1.7290463e-07
1.7849584e-07
1.8288316e-07
1.8626168e-07
1.8882124e-07
1.9063308e-07
1.9186118e-07
1.9265013e-07
1.9311388e-07
1.9333599e-07
1.9337744e-07
1.9328256e-07
1.9308199e-07
1.9279444e-07
1.9243705e-07
1.9202306e-07
1.9155715e-07
1.9104011e-07
1.9045674e-07
1.8965428e-07
1.8869821e-07
1.8764091e-07
1.8649929e-07
1.8527811e-07
1.8397889e-07
1.8260722e-07
1.8116806e-07
1.7966903e-07
1.7811757e-07
1.7652119e-07
1.7488809e-07
1.7322493e-07
1.7153846e-07
1.6983461e-07
1.681192e-07
1.6639593e-07
1.6466716e-07
1.6293374e-07
1.6121965e-07
1.5926851e-07
1.579014e-07
1.5464825e-07
1.1013738e-06
1.4047545e-06
1.4358151e-06
1.3409445e-06
1.2075977e-06
1.0740781e-06
9.6687718e-07
8.8440408e-07
8.2029983e-07
7.680317e-07
7.2385947e-07
6.7961977e-07
6.3731231e-07
6.0218971e-07
5.7246638e-07
5.469328e-07
5.2490494e-07
5.0589235e-07
4.8953694e-07
4.7560089e-07
4.6392055e-07
4.5435829e-07
4.4681621e-07
4.411894e-07
4.335892e-07
4.264544e-07
4.1995484e-07
4.1429871e-07
4.0969152e-07
4.0633111e-07
4.0442886e-07
4.0420476e-07
4.0587176e-07
4.096437e-07
4.1574968e-07
4.2443066e-07
4.3594834e-07
4.5063734e-07
4.6893051e-07
4.9136187e-07
5.1856493e-07
5.5128526e-07
5.9039503e-07
6.3688732e-07
6.9195739e-07
7.5667132e-07
8.3192824e-07
9.1824732e-07
1.0157038e-06
1.124069e-06
1.2423497e-06
1.3697399e-06
1.5043225e-06
1.6431411e-06
1.7832726e-06
1.920375e-06
2.0485411e-06
2.1627154e-06
2.260124e-06
2.3406717e-06
2.4059828e-06
2.4587532e-06
2.4999662e-06
2.5316934e-06
2.55622e-06
2.5753349e-06
2.5903995e-06
2.6023858e-06
2.6119933e-06
2.6197245e-06
2.6259175e-06
2.6307726e-06
2.6344887e-06
2.6372141e-06
2.638994e-06
2.6398275e-06
2.6394919e-06
2.6357051e-06
2.6295698e-06
2.6218412e-06
2.6127507e-06
2.6023637e-06
2.5907154e-06
2.5778968e-06
2.563985e-06
2.5490942e-06
2.5333289e-06
2.516797e-06
2.4996111e-06
2.4818648e-06
2.4636521e-06
2.4450578e-06
2.4261593e-06
2.4070343e-06
2.3876519e-06
2.3682727e-06
2.3485528e-06
2.3266047e-06
2.3112206e-06
2.2731243e-06
5.0846788e-07
9.5914024e-07
1.1797768e-06
1.2284408e-06
1.2003893e-06
1.1428696e-06
1.0803707e-06
1.021317e-06
9.6984427e-07
9.3003613e-07
9.0607643e-07
9.0229205e-07
9.0573339e-07
8.5763878e-07
8.2194098e-07
7.9453114e-07
7.7453079e-07
7.6003829e-07
7.5002868e-07
7.4386557e-07
7.4114702e-07
7.4158774e-07
7.4501938e-07
7.5128271e-07
7.5984968e-07
7.7020735e-07
7.8222135e-07
7.9610941e-07
8.1226198e-07
8.3115734e-07
8.533446e-07
8.794393e-07
9.1011423e-07
9.4610145e-07
9.8819909e-07
1.0372633e-06
1.0942634e-06
1.160472e-06
1.2374801e-06
1.3271849e-06
1.4317858e-06
1.5538041e-06
1.6961112e-06
1.8619286e-06
2.0548772e-06
2.2782809e-06
2.534447e-06
2.8249897e-06
3.1503912e-06
3.5100359e-06
3.901973e-06
4.3202838e-06
4.7616672e-06
5.2184123e-06
5.6820729e-06
6.1409974e-06
6.5800639e-06
6.9853288e-06
7.3477854e-06
7.6645533e-06
7.9381927e-06
8.1726056e-06
8.370413e-06
8.5385866e-06
8.683551e-06
8.8106e-06
8.9238836e-06
9.0264524e-06
9.1204882e-06
9.2075314e-06
9.2886129e-06
9.3643313e-06
9.4352e-06
9.5016143e-06
9.5636771e-06
9.6213189e-06
9.6740595e-06
9.7001987e-06
9.7153304e-06
9.7242033e-06
9.7275356e-06
9.7255901e-06
9.7185316e-06
9.7066872e-06
9.6903585e-06
9.66995e-06
9.6458384e-06
9.6184027e-06
9.5880359e-06
9.5550694e-06
9.5198242e-06
9.4826085e-06
9.4436867e-06
9.4033686e-06
9.3614953e-06
9.3192506e-06
9.2746499e-06
9.2241904e-06
9.1898602e-06
9.0977758e-06
2.2507403e-07
4.2725585e-07
6.9862695e-07
8.9329359e-07
9.8966663e-07
1.023494e-06
1.0250156e-06
1.0107269e-06
9.8909582e-07
9.653293e-07
9.4373974e-07
9.2873026e-07
9.2198069e-07
9.2302813e-07
9.3199377e-07
9.4897945e-07
9.6929477e-07
9.5332655e-07
9.2970863e-07
9.168659e-07
9.1368369e-07
9.1851391e-07
9.3043801e-07
9.4882929e-07
9.7332874e-07
1.0037686e-06
1.0384854e-06
1.0775386e-06
1.1214706e-06
1.170814e-06
1.2261714e-06
1.2882771e-06
1.3580415e-06
1.436586e-06
1.5252764e-06
1.6257263e-06
1.739575e-06
1.8684558e-06
2.0151265e-06
2.1829173e-06
2.3756295e-06
2.5975372e-06
2.8534232e-06
3.148612e-06
3.4888947e-06
3.8791763e-06
4.3214353e-06
4.8169358e-06
5.3663412e-06
5.969472e-06
6.6246328e-06
7.3268164e-06
8.0666726e-06
8.8345582e-06
9.6198001e-06
1.0408588e-05
1.1177115e-05
1.1902128e-05
1.2568933e-05
1.3171489e-05
1.3708527e-05
1.4182759e-05
1.4600499e-05
1.4970133e-05
1.5300262e-05
1.5598553e-05
1.5871461e-05
1.6124061e-05
1.6360143e-05
1.6582471e-05
1.6792873e-05
1.6992315e-05
1.718196e-05
1.7362575e-05
1.7534324e-05
1.769701e-05
1.7849763e-05
1.7986779e-05
1.8108026e-05
1.8215024e-05
1.8308839e-05
1.8390068e-05
1.8459063e-05
1.8516396e-05
1.8562709e-05
1.8598806e-05
1.8625513e-05
1.8643646e-05
1.8654068e-05
1.8657542e-05
1.8654727e-05
1.8646351e-05
1.8633058e-05
1.8615502e-05
1.8593719e-05
1.8569325e-05
1.8540798e-05
1.8499751e-05
1.8478852e-05
1.8401822e-05
1.7530494e-07
2.1588388e-07
3.1856305e-07
4.6493679e-07
6.0523389e-07
7.1031612e-07
7.7985389e-07
8.2289834e-07
8.4801099e-07
8.6127295e-07
8.6697024e-07
8.6868633e-07
8.6922364e-07
8.7061359e-07
8.7461682e-07
8.8291211e-07
8.9634101e-07
9.155466e-07
9.4163407e-07
9.7586523e-07
1.0156666e-06
1.0618639e-06
1.0571041e-06
1.0563086e-06
1.0671424e-06
1.0882956e-06
1.1197452e-06
1.161799e-06
1.2149416e-06
1.2798803e-06
1.3575848e-06
1.4493849e-06
1.5572072e-06
1.6840791e-06
1.8350738e-06
2.0182216e-06
2.2360169e-06
2.4752257e-06
2.7408294e-06
3.0385047e-06
3.374043e-06
3.7535557e-06
4.1837876e-06
4.6726227e-06
5.230074e-06
5.855417e-06
6.5393684e-06
7.2798442e-06
8.0785394e-06
8.9365791e-06
9.8529908e-06
1.0823216e-05
1.1837445e-05
1.2882301e-05
1.3946525e-05
1.4997991e-05
1.6005854e-05
1.6954836e-05
1.7838483e-05
1.8656174e-05
1.9410057e-05
2.0103292e-05
2.074057e-05
2.1328087e-05
2.1872482e-05
2.2380212e-05
2.2857388e-05
2.3309173e-05
2.3739603e-05
2.4151816e-05
2.4546885e-05
2.4924392e-05
2.5289148e-05
2.564186e-05
2.5982326e-05
2.6309846e-05
2.6622728e-05
2.6919155e-05
2.7195913e-05
2.7451608e-05
2.7686156e-05
2.7899803e-05
2.8092768e-05
2.8265616e-05
2.8419131e-05
2.8554379e-05
2.867255e-05
2.8774873e-05
2.8862695e-05
2.8937275e-05
2.899908e-05
2.9049847e-05
2.9090834e-05
2.9123088e-05
2.914706e-05
2.9164391e-05
2.9175333e-05
2.9165039e-05
2.9175079e-05
2.9133428e-05
1.6890567e-07
1.7480064e-07
1.9622458e-07
2.4158699e-07
3.0835543e-07
3.8392815e-07
4.5671927e-07
5.2095157e-07
5.7520836e-07
6.1995732e-07
6.5624775e-07
6.8541478e-07
7.0892983e-07
7.2824324e-07
7.4481007e-07
7.6010829e-07
7.7547524e-07
7.9214889e-07
8.1146227e-07
8.349163e-07
8.6346857e-07
8.9847863e-07
9.4053227e-07
9.8989049e-07
1.0450581e-06
1.1061837e-06
1.174219e-06
1.208388e-06
1.233332e-06
1.2729726e-06
1.3285966e-06
1.4020944e-06
1.4959322e-06
1.6131236e-06
1.7576008e-06
1.9348603e-06
2.1514587e-06
2.4125296e-06
2.7239008e-06
3.0927711e-06
3.5277534e-06
4.0392646e-06
4.6407168e-06
5.3515297e-06
6.2043576e-06
6.9696194e-06
7.8050763e-06
8.7626629e-06
9.8400244e-06
1.1030891e-05
1.232243e-05
1.3691282e-05
1.5104135e-05
1.6564336e-05
1.8073923e-05
1.9178279e-05
2.0095892e-05
2.1003772e-05
2.1904987e-05
2.2798464e-05
2.3678972e-05
2.4541631e-05
2.538284e-05
2.6199996e-05
2.6991555e-05
2.7758037e-05
2.8501244e-05
2.9222795e-05
2.9924281e-05
3.0607458e-05
3.1273567e-05
3.1922881e-05
3.2555882e-05
3.3172649e-05
3.3772368e-05
3.435373e-05
3.4914281e-05
3.5452302e-05
3.5964721e-05
3.6448615e-05
3.6902326e-05
3.7325169e-05
3.7716895e-05
3.8077848e-05
3.84088e-05
3.8710962e-05
3.8985792e-05
3.9234894e-05
3.9460116e-05
3.9663262e-05
3.984604e-05
4.0010198e-05
4.0157379e-05
4.0289075e-05
4.0406403e-05
4.0510728e-05
4.0605036e-05
4.0668476e-05
4.07452e-05
4.0789697e-05
1.6818086e-07
1.6866156e-07
1.7195743e-07
1.8125935e-07
1.9895266e-07
2.2489835e-07
2.5727926e-07
2.9357756e-07
3.3181511e-07
3.7053377e-07
4.0857048e-07
4.4501282e-07
4.7925808e-07
5.1098756e-07
5.4017918e-07
5.670948e-07
5.9219115e-07
6.1605068e-07
6.3939909e-07
6.6312569e-07
6.8815738e-07
7.155556e-07
7.4639939e-07
7.8175747e-07
8.2239012e-07
8.6924e-07
9.2361697e-07
9.8589541e-07
1.0559103e-06
1.134854e-06
1.2244313e-06
1.3267865e-06
1.4276547e-06
1.4948895e-06
1.5857109e-06
1.7048119e-06
1.8584674e-06
2.054739e-06
2.303401e-06
2.616113e-06
3.0069239e-06
3.4926877e-06
4.0933593e-06
4.832381e-06
5.7383849e-06
6.7099844e-06
7.7078348e-06
8.8173774e-06
1.0050079e-05
1.1406083e-05
1.2870132e-05
1.4407333e-05
1.5972163e-05
1.7627268e-05
1.9393187e-05
2.0669974e-05
2.1768696e-05
2.2849999e-05
2.3924486e-05
2.5000697e-05
2.6080735e-05
2.7165659e-05
2.8250678e-05
2.9330349e-05
3.0401211e-05
3.1462074e-05
3.251142e-05
3.3547082e-05
3.45685e-05
3.5575975e-05
3.656908e-05
3.7547038e-05
3.8508921e-05
3.945344e-05
4.0378314e-05
4.1281088e-05
4.2158314e-05
4.3006895e-05
4.3823731e-05
4.4605336e-05
4.5348714e-05
4.6051871e-05
4.6713664e-05
4.7333802e-05
4.7912713e-05
4.8451442e-05
4.8951415e-05
4.9414363e-05
4.984247e-05
5.0237955e-05
5.0603229e-05
5.0940474e-05
5.1251769e-05
5.1539015e-05
5.180412e-05
5.204798e-05
5.2276538e-05
5.2464996e-05
5.2652513e-05
5.2845165e-05
1.6814543e-07
1.678728e-07
1.6803221e-07
1.6934656e-07
1.7271319e-07
1.7877227e-07
1.8775552e-07
1.9960873e-07
2.1419453e-07
2.3139601e-07
2.5107889e-07
2.7274973e-07
2.959395e-07
3.2017514e-07
3.4502019e-07
3.7012484e-07
3.9524155e-07
4.2022393e-07
4.4505132e-07
4.698502e-07
4.9487568e-07
5.2051539e-07
5.4729003e-07
5.7584585e-07
6.0688762e-07
6.4122181e-07
6.7983516e-07
7.2370328e-07
7.7371737e-07
8.3103765e-07
8.9721341e-07
9.7367723e-07
1.0619424e-06
1.1633709e-06
1.2801728e-06
1.4152208e-06
1.5723086e-06
1.7565794e-06
1.9284692e-06
2.1213707e-06
2.3730918e-06
2.7009653e-06
3.1275328e-06
3.6821235e-06
4.4017592e-06
5.3210911e-06
6.2976057e-06
7.3656153e-06
8.5760221e-06
9.938106e-06
1.145352e-05
1.3111513e-05
1.4888235e-05
1.6777225e-05
1.8775163e-05
2.0624471e-05
2.1909285e-05
2.3189667e-05
2.4438137e-05
2.5675401e-05
2.6933691e-05
2.8217602e-05
2.9509204e-05
3.0810589e-05
3.2127802e-05
3.3456367e-05
3.4790674e-05
3.6127405e-05
3.7465884e-05
3.8803962e-05
4.013781e-05
4.1465342e-05
4.2784718e-05
4.4092536e-05
4.5383703e-05
4.6653821e-05
4.7897604e-05
4.9109816e-05
5.0286379e-05
5.1423157e-05
5.251597e-05
5.35615e-05
5.4557399e-05
5.5502254e-05
5.6395741e-05
5.723833e-05
5.8030953e-05
5.8775086e-05
5.9472932e-05
6.0126845e-05
6.0739524e-05
6.1313565e-05
6.1851414e-05
6.2355284e-05
6.2827864e-05
6.3269491e-05
6.3688761e-05
6.4059381e-05
6.4409344e-05
6.4820238e-05
1.6818972e-07
1.6781403e-07
1.6749265e-07
1.6735556e-07
1.6761816e-07
1.6851611e-07
1.7024623e-07
1.7296267e-07
1.76805e-07
1.8191355e-07
1.8841957e-07
1.9640191e-07
2.0589248e-07
2.168739e-07
2.2936013e-07
2.4330233e-07
2.5853031e-07
2.7488501e-07
2.9223837e-07
3.1050129e-07
3.2963305e-07
3.4965364e-07
3.7065596e-07
3.9281914e-07
4.1640675e-07
4.417761e-07
4.6940671e-07
4.9988982e-07
5.3390866e-07
5.7228419e-07
6.1604447e-07
6.6638201e-07
7.2468036e-07
7.9251195e-07
8.7183268e-07
9.6460717e-07
1.0735693e-06
1.2023084e-06
1.3546029e-06
1.5353584e-06
1.7515737e-06
2.0126117e-06
2.3306848e-06
2.7214358e-06
3.1864762e-06
3.7660392e-06
4.5194651e-06
5.377353e-06
6.3845814e-06
7.555636e-06
8.9028937e-06
1.0432598e-05
1.2141157e-05
1.4023252e-05
1.6074479e-05
1.8245952e-05
2.0452577e-05
2.248324e-05
2.3873078e-05
2.5255348e-05
2.6660015e-05
2.8074414e-05
2.9488902e-05
3.0935493e-05
3.2434827e-05
3.3955835e-05
3.5498384e-05
3.7071942e-05
3.8672885e-05
4.0293877e-05
4.1930465e-05
4.3582541e-05
4.5245475e-05
4.691273e-05
4.8575514e-05
5.0226674e-05
5.1857667e-05
5.3460917e-05
5.5030672e-05
5.6561029e-05
5.8046269e-05
5.9481764e-05
6.0863522e-05
6.2188417e-05
6.3454876e-05
6.4662223e-05
6.5810271e-05
6.6899708e-05
6.79322e-05
6.8909777e-05
6.9834975e-05
7.0710475e-05
7.1538885e-05
7.2322546e-05
7.3064781e-05
7.3765307e-05
7.4434787e-05
7.504749e-05
7.561654e-05
7.6319691e-05
1.6824325e-07
1.6785066e-07
1.6745948e-07
1.6708831e-07
1.6677813e-07
1.6658693e-07
1.6657946e-07
1.6682308e-07
1.6739094e-07
1.6836502e-07
1.6983484e-07
1.7189126e-07
1.7462226e-07
1.781082e-07
1.8242532e-07
1.876407e-07
1.9380205e-07
2.0094013e-07
2.0907356e-07
2.1821506e-07
2.284046e-07
2.3972654e-07
2.5219936e-07
2.6582975e-07
2.8066921e-07
2.968242e-07
3.1446504e-07
3.3383986e-07
3.5528126e-07
3.7921305e-07
4.0617652e-07
4.3684749e-07
4.7206264e-07
5.1284731e-07
5.6047856e-07
6.1646213e-07
6.8268315e-07
7.6156556e-07
8.5605273e-07
9.6949488e-07
1.1064827e-06
1.2730589e-06
1.4771852e-06
1.7293041e-06
2.0426364e-06
2.4336764e-06
2.9206425e-06
3.519479e-06
4.2475016e-06
5.1232485e-06
6.1658912e-06
7.3934702e-06
8.8200443e-06
1.045573e-05
1.2307892e-05
1.4363654e-05
1.6578846e-05
1.8899705e-05
2.1256274e-05
2.3633841e-05
2.5605549e-05
2.711352e-05
2.8630789e-05
3.0183426e-05
3.1769642e-05
3.3372458e-05
3.5019103e-05
3.6742314e-05
3.8508902e-05
4.0313734e-05
4.216848e-05
4.40746e-05
4.601799e-05
4.7988841e-05
4.9979384e-05
5.1978695e-05
5.3974255e-05
5.5957662e-05
5.7920522e-05
5.9853276e-05
6.1748403e-05
6.3599412e-05
6.539957e-05
6.7143429e-05
6.8827423e-05
7.0448789e-05
7.200553e-05
7.3496782e-05
7.49228e-05
7.6284571e-05
7.7583877e-05
7.882291e-05
8.0004104e-05
8.112957e-05
8.2202995e-05
8.3223381e-05
8.4202781e-05
8.5117345e-05
8.5964156e-05
8.7033481e-05
1.6834495e-07
1.679528e-07
1.6755435e-07
1.6715097e-07
1.6674913e-07
1.6636029e-07
1.6600031e-07
1.6568882e-07
1.6544966e-07
1.6531172e-07
1.6530934e-07
1.6548193e-07
1.6587351e-07
1.6653176e-07
1.6750746e-07
1.6885389e-07
1.7062515e-07
1.7287451e-07
1.7565373e-07
1.7901311e-07
1.8300409e-07
1.8768288e-07
1.9310424e-07
1.9932186e-07
2.0639342e-07
2.1438612e-07
2.2338919e-07
2.3356378e-07
2.4511312e-07
2.5819919e-07
2.7301989e-07
2.8986188e-07
3.0911698e-07
3.3130116e-07
3.5708781e-07
3.873212e-07
4.230625e-07
4.6567407e-07
5.1689443e-07
5.7888366e-07
6.5444353e-07
7.4726844e-07
8.6222476e-07
1.0056547e-06
1.1860697e-06
1.4146298e-06
1.7052458e-06
2.0735895e-06
2.5371843e-06
3.1153246e-06
3.8288966e-06
4.6998862e-06
5.7503176e-06
7.0014749e-06
8.473751e-06
1.018015e-05
1.2116029e-05
1.4259138e-05
1.6565401e-05
1.8999736e-05
2.1510026e-05
2.4053598e-05
2.6628043e-05
2.8806176e-05
3.0460797e-05
3.2134188e-05
3.3855977e-05
3.562856e-05
3.7436101e-05
3.9303268e-05
4.1271778e-05
4.3314723e-05
4.5417073e-05
4.7585875e-05
4.9809981e-05
5.2071859e-05
5.436127e-05
5.6670546e-05
5.8985094e-05
6.1291454e-05
6.3581178e-05
6.5843665e-05
6.8068135e-05
7.0246742e-05
7.2372758e-05
7.4439954e-05
7.6443664e-05
7.838044e-05
8.0248062e-05
8.2045594e-05
8.3773239e-05
8.5431903e-05
8.7023207e-05
8.8548521e-05
9.0011471e-05
9.1410098e-05
9.2757172e-05
9.4031243e-05
9.5214419e-05
9.6720543e-05
1.6852007e-07
1.6817098e-07
1.6780837e-07
1.6743178e-07
1.6704261e-07
1.6664355e-07
1.6623868e-07
1.658334e-07
1.6543454e-07
1.650506e-07
1.6469211e-07
1.6437197e-07
1.6410572e-07
1.6391176e-07
1.6381134e-07
1.6382876e-07
1.6399123e-07
1.6432865e-07
1.6487337e-07
1.6566003e-07
1.6672559e-07
1.6810959e-07
1.6985401e-07
1.7200326e-07
1.7460446e-07
1.7770823e-07
1.8137133e-07
1.8566358e-07
1.9067077e-07
1.9648988e-07
2.0323458e-07
2.1104495e-07
2.2009956e-07
2.3067209e-07
2.4314133e-07
2.5785823e-07
2.7525313e-07
2.9592928e-07
3.2070456e-07
3.5066228e-07
3.8722469e-07
4.3227316e-07
4.8832063e-07
5.5874131e-07
6.4814993e-07
7.6289034e-07
9.114991e-07
1.1049463e-06
1.3570939e-06
1.6848201e-06
2.1079743e-06
2.6489984e-06
3.3321563e-06
4.1825751e-06
5.225713e-06
6.4854724e-06
7.9794527e-06
9.714988e-06
1.1683742e-05
1.3869306e-05
1.624066e-05
1.875955e-05
2.1400412e-05
2.4120169e-05
2.6879614e-05
2.9682323e-05
3.2159105e-05
3.3989897e-05
3.5843804e-05
3.7759478e-05
3.9741491e-05
4.1770942e-05
4.3880111e-05
4.6122692e-05
4.844382e-05
5.0834174e-05
5.3306962e-05
5.5842939e-05
5.841926e-05
6.1026717e-05
6.3654705e-05
6.6284199e-05
6.8902153e-05
7.1498479e-05
7.4060955e-05
7.6579082e-05
7.9044661e-05
8.1450237e-05
8.3790068e-05
8.6060293e-05
8.8258355e-05
9.0382792e-05
9.2433428e-05
9.4410089e-05
9.6315604e-05
9.814653e-05
9.9915598e-05
0.00010160356
0.00010318056
0.00010518869
1.6867622e-07
1.6839163e-07
1.6809254e-07
1.677775e-07
1.6744639e-07
1.6709989e-07
1.667393e-07
1.6636643e-07
1.6598333e-07
1.6559237e-07
1.6519635e-07
1.6479879e-07
1.6440411e-07
1.6401793e-07
1.6364723e-07
1.6330052e-07
1.6298802e-07
1.6272183e-07
1.6251596e-07
1.6238651e-07
1.6235168e-07
1.6243194e-07
1.6265007e-07
1.6303133e-07
1.636035e-07
1.6439707e-07
1.6544574e-07
1.667876e-07
1.6846629e-07
1.7053176e-07
1.7304193e-07
1.7606517e-07
1.7968347e-07
1.8400186e-07
1.8915817e-07
1.9531834e-07
2.0268511e-07
2.1151703e-07
2.2216744e-07
2.3519176e-07
2.5120073e-07
2.7090563e-07
2.9532837e-07
3.2591013e-07
3.6468054e-07
4.1449478e-07
4.7936299e-07
5.6486666e-07
6.7873509e-07
8.3150998e-07
1.037221e-06
1.313953e-06
1.6842423e-06
2.1746124e-06
2.8143779e-06
3.63352e-06
4.6593804e-06
5.9131363e-06
7.4067983e-06
9.1446066e-06
1.1121473e-05
1.3323313e-05
1.5733949e-05
1.8326063e-05
2.1064831e-05
2.3930077e-05
2.6887534e-05
2.9894457e-05
3.2959216e-05
3.5738839e-05
3.7771183e-05
3.9819986e-05
4.1938097e-05
4.4135352e-05
4.6392311e-05
4.8760125e-05
5.1283565e-05
5.3893992e-05
5.6590066e-05
5.9381714e-05
6.2239353e-05
6.5139086e-05
6.8073899e-05
7.102688e-05
7.3977996e-05
7.6914472e-05
7.9822627e-05
8.2689744e-05
8.5506005e-05
8.8263299e-05
9.0954782e-05
9.3575295e-05
9.6121551e-05
9.8590608e-05
0.00010098335
0.00010329396
0.00010553412
0.00010768595
0.00010971215
0.0001122801
1.6876839e-07
1.6852875e-07
1.6827879e-07
1.6801673e-07
1.6774163e-07
1.6745313e-07
1.6715137e-07
1.6683691e-07
1.6651041e-07
1.6617251e-07
1.6582381e-07
1.6546498e-07
1.6509688e-07
1.647207e-07
1.6433807e-07
1.6395115e-07
1.6356281e-07
1.6317667e-07
1.6279732e-07
1.6243034e-07
1.6208252e-07
1.6176195e-07
1.6147817e-07
1.6124227e-07
1.6106712e-07
1.6096739e-07
1.6095985e-07
1.610636e-07
1.6130046e-07
1.6169537e-07
1.6227701e-07
1.6307859e-07
1.6413885e-07
1.6550401e-07
1.6723072e-07
1.6938828e-07
1.7206157e-07
1.7535609e-07
1.7940717e-07
1.844e-07
1.905715e-07
1.9822022e-07
2.0774154e-07
2.1969333e-07
2.3496648e-07
2.5460139e-07
2.8001607e-07
3.1334701e-07
3.5774797e-07
4.1781817e-07
5.0019049e-07
6.143592e-07
7.7377722e-07
9.9704538e-07
1.3088497e-06
1.7399846e-06
2.3257141e-06
3.1011392e-06
4.0951185e-06
5.3263482e-06
6.8032059e-06
8.5264637e-06
1.0494191e-05
1.2699859e-05
1.5130069e-05
1.7771284e-05
2.060114e-05
2.3585512e-05
2.6707279e-05
2.9937139e-05
3.3228753e-05
3.6593442e-05
3.9601588e-05
4.182254e-05
4.4078301e-05
4.642068e-05
4.8852134e-05
5.1351258e-05
5.4012244e-05
5.683895e-05
5.975589e-05
6.2778884e-05
6.5906613e-05
6.9100356e-05
7.2340133e-05
7.5615144e-05
7.8900517e-05
8.218026e-05
8.5440263e-05
8.8665995e-05
9.184514e-05
9.4967384e-05
9.8024907e-05
0.00010101032
0.00010392109
0.00010674778
0.00010949955
0.00011215863
0.00011468498
0.00011786061
1.6881467e-07
1.6859837e-07
1.6837545e-07
1.6814449e-07
1.6790451e-07
1.6765484e-07
1.6739518e-07
1.6712559e-07
1.6684626e-07
1.6655738e-07
1.6625902e-07
1.6595118e-07
1.656338e-07
1.6530687e-07
1.6497046e-07
1.6462478e-07
1.642702e-07
1.6390734e-07
1.6353715e-07
1.6316092e-07
1.6278042e-07
1.6239794e-07
1.6201644e-07
1.6163957e-07
1.6127186e-07
1.6091881e-07
1.6058699e-07
1.6028424e-07
1.600198e-07
1.5980454e-07
1.5965121e-07
1.5957472e-07
1.5959259e-07
1.5972539e-07
1.5999765e-07
1.6043882e-07
1.6108445e-07
1.6197775e-07
1.6317222e-07
1.6473612e-07
1.6675662e-07
1.6934491e-07
1.7264551e-07
1.7685174e-07
1.8223905e-07
1.8917721e-07
1.9817203e-07
2.0994819e-07
2.2568175e-07
2.4704992e-07
2.7629782e-07
3.1694052e-07
3.7438401e-07
4.5683044e-07
5.7654412e-07
7.5150085e-07
1.0071037e-06
1.3768325e-06
1.9002849e-06
2.6173822e-06
3.560933e-06
4.7507507e-06
6.1942883e-06
7.891487e-06
9.839407e-06
1.2036556e-05
1.447941e-05
1.7156363e-05
2.0055678e-05
2.315757e-05
2.642683e-05
2.9847616e-05
3.3387063e-05
3.6999063e-05
4.0697247e-05
4.3790867e-05
4.6220406e-05
4.8701974e-05
5.1290591e-05
5.3971433e-05
5.6740396e-05
5.9727529e-05
6.28764e-05
6.6133322e-05
6.9510275e-05
7.2989496e-05
7.6530445e-05
8.0123406e-05
8.374706e-05
8.7377732e-05
9.0998579e-05
9.4592136e-05
9.8145197e-05
0.00010164385
0.00010508091
0.00010844164
0.00011173084
0.00011492951
0.00011799692
0.00012181387
1.6883638e-07
1.6863085e-07
1.6842076e-07
1.6820516e-07
1.6798329e-07
1.6775454e-07
1.6751858e-07
1.6727531e-07
1.6702481e-07
1.6676715e-07
1.6650237e-07
1.6623036e-07
1.6595098e-07
1.6566402e-07
1.6536928e-07
1.6506653e-07
1.6475559e-07
1.6443629e-07
1.6410854e-07
1.6377236e-07
1.6342786e-07
1.6307532e-07
1.6271524e-07
1.6234836e-07
1.6197571e-07
1.6159875e-07
1.6121933e-07
1.6083987e-07
1.6046341e-07
1.6009371e-07
1.597354e-07
1.5939412e-07
1.5907668e-07
1.5879129e-07
1.585478e-07
1.5835813e-07
1.5823664e-07
1.582007e-07
1.5827152e-07
1.5847533e-07
1.5884485e-07
1.5942122e-07
1.6025686e-07
1.6141972e-07
1.6300071e-07
1.6512241e-07
1.6795219e-07
1.7172403e-07
1.7678645e-07
1.8365374e-07
1.9306865e-07
2.0615666e-07
2.2478838e-07
2.5180143e-07
2.9137917e-07
3.5032396e-07
4.3942903e-07
5.7526889e-07
7.821835e-07
1.0934321e-06
1.550186e-06
2.1968395e-06
3.0721972e-06
4.2019217e-06
5.5962178e-06
7.2554695e-06
9.1777425e-06
1.1361799e-05
1.3809169e-05
1.6519316e-05
1.9481004e-05
2.268252e-05
2.6101442e-05
2.9700399e-05
3.3464345e-05
3.7345825e-05
4.1311876e-05
4.5376612e-05
4.8390684e-05
5.1038445e-05
5.3766753e-05
5.6618412e-05
5.9559102e-05
6.2672209e-05
6.6005835e-05
6.9491381e-05
7.311148e-05
7.686444e-05
8.071493e-05
8.4631601e-05
8.8597117e-05
9.2583185e-05
9.6572249e-05
0.00010054168
0.00010447933
0.00010836304
0.00011219129
0.00011594297
0.00011957187
0.00012404315
1.6884589e-07
1.6864497e-07
1.684405e-07
1.6823184e-07
1.6801845e-07
1.6779989e-07
1.6757583e-07
1.6734622e-07
1.6711108e-07
1.668705e-07
1.6662453e-07
1.6637313e-07
1.6611622e-07
1.6585367e-07
1.6558529e-07
1.6531089e-07
1.6503026e-07
1.6474317e-07
1.6444939e-07
1.6414869e-07
1.6384085e-07
1.6352568e-07
1.6320303e-07
1.628728e-07
1.6253496e-07
1.621896e-07
1.6183693e-07
1.6147735e-07
1.6111145e-07
1.6074012e-07
1.6036454e-07
1.599863e-07
1.5960747e-07
1.5923067e-07
1.5885922e-07
1.5849726e-07
1.5814992e-07
1.5782353e-07
1.5752591e-07
1.5726674e-07
1.5705801e-07
1.5691469e-07
1.568556e-07
1.5690469e-07
1.5709296e-07
1.574612e-07
1.5806414e-07
1.5897661e-07
1.6030489e-07
1.6220318e-07
1.6489697e-07
1.6872405e-07
1.7421723e-07
1.822131e-07
1.940155e-07
2.1173647e-07
2.3910574e-07
2.8171983e-07
3.4869115e-07
4.5452993e-07
6.2117314e-07
8.7980856e-07
1.2709395e-06
1.8412483e-06
2.6361982e-06
3.6902328e-06
5.0212066e-06
6.6328728e-06
8.5235438e-06
1.0693758e-05
1.3145921e-05
1.5884492e-05
1.8909009e-05
2.2205979e-05
2.5762107e-05
2.9545555e-05
3.3519889e-05
3.7671182e-05
4.192604e-05
4.6278803e-05
5.0562863e-05
5.3457567e-05
5.6337399e-05
5.933673e-05
6.2460037e-05
6.5689483e-05
6.9199317e-05
7.2905029e-05
7.6782925e-05
8.0807702e-05
8.4961005e-05
8.9202137e-05
9.3511778e-05
9.7858248e-05
0.0001022245
0.00010657852
0.00011091144
0.00011519889
0.00011937556
0.00012448411
1.6884945e-07
1.686503e-07
1.6844804e-07
1.6824227e-07
1.6803262e-07
1.6781871e-07
1.6760034e-07
1.6737741e-07
1.6714998e-07
1.6691813e-07
1.6668193e-07
1.6644139e-07
1.661965e-07
1.6594721e-07
1.6569341e-07
1.6543501e-07
1.6517188e-07
1.6490386e-07
1.646308e-07
1.6435252e-07
1.6406881e-07
1.637795e-07
1.6348436e-07
1.6318319e-07
1.6287577e-07
1.6256192e-07
1.6224146e-07
1.6191424e-07
1.6158016e-07
1.612392e-07
1.6089143e-07
1.6053701e-07
1.6017628e-07
1.5980977e-07
1.5943823e-07
1.5906272e-07
1.5868466e-07
1.5830593e-07
1.5792895e-07
1.5755682e-07
1.571935e-07
1.5684399e-07
1.5651465e-07
1.5621354e-07
1.5595102e-07
1.5574051e-07
1.5559971e-07
1.5555237e-07
1.5563123e-07
1.558826e-07
1.5637337e-07
1.5720238e-07
1.585209e-07
1.6056535e-07
1.6370918e-07
1.6855682e-07
1.761369e-07
1.8813058e-07
2.0733872e-07
2.3864806e-07
2.8973359e-07
3.728127e-07
5.0696776e-07
7.2019291e-07
1.0507031e-06
1.5455614e-06
2.2552187e-06
3.2240322e-06
4.480571e-06
6.0362884e-06
7.8918407e-06
1.0047154e-05
1.250686e-05
1.5276483e-05
1.8361931e-05
2.1758215e-05
2.5447992e-05
2.941538e-05
3.3611819e-05
3.8006403e-05
4.2576923e-05
4.723558e-05
5.2005872e-05
5.5900347e-05
5.9012215e-05
6.2162976e-05
6.546882e-05
6.8878579e-05
7.2534042e-05
7.6446387e-05
8.0563644e-05
8.4862095e-05
8.9310772e-05
9.3881711e-05
9.8546357e-05
0.00010326443
0.00010801844
0.00011277938
0.00011744954
0.00012312976
1.6885016e-07
1.6865147e-07
1.6844989e-07
1.6824514e-07
1.6803695e-07
1.6782506e-07
1.6760927e-07
1.6738953e-07
1.6716587e-07
1.6693836e-07
1.6670709e-07
1.6647208e-07
1.6623338e-07
1.6599096e-07
1.657448e-07
1.6549486e-07
1.6524108e-07
1.6498338e-07
1.6472169e-07
1.644559e-07
1.6418591e-07
1.639116e-07
1.6363283e-07
1.6334946e-07
1.6306132e-07
1.6276826e-07
1.6247008e-07
1.6216662e-07
1.6185768e-07
1.6154308e-07
1.6122264e-07
1.6089622e-07
1.6056367e-07
1.6022492e-07
1.5987995e-07
1.5952882e-07
1.5917169e-07
1.5880887e-07
1.5844085e-07
1.5806835e-07
1.5769236e-07
1.5731425e-07
1.5693582e-07
1.5655947e-07
1.561883e-07
1.5582643e-07
1.5547926e-07
1.5515399e-07
1.5486045e-07
1.5461229e-07
1.5442895e-07
1.5433873e-07
1.5438413e-07
1.5463059e-07
1.5518117e-07
1.5620187e-07
1.5796987e-07
1.6094868e-07
1.6592191e-07
1.7424592e-07
1.8820104e-07
2.1160354e-07
2.5105185e-07
3.1677133e-07
4.2492911e-07
6.0009464e-07
8.7723226e-07
1.3021916e-06
1.9283926e-06
2.8086466e-06
3.9844161e-06
5.4775278e-06
7.2946481e-06
9.4360519e-06
1.1905855e-05
1.4712429e-05
1.786279e-05
2.1361975e-05
2.5194499e-05
2.933782e-05
3.3767756e-05
3.8421579e-05
4.3277872e-05
4.8271217e-05
5.336945e-05
5.8447855e-05
6.1815936e-05
6.5162821e-05
6.862089e-05
7.2222809e-05
7.6018989e-05
8.0139944e-05
8.447582e-05
8.9060617e-05
9.3823763e-05
9.8737388e-05
0.00010376605
0.000108879
0.00011395196
0.00012006234
1.6884956e-07
1.6865078e-07
1.6844919e-07
1.682446e-07
1.6803684e-07
1.6782569e-07
1.6761099e-07
1.6739271e-07
1.6717085e-07
1.6694548e-07
1.6671667e-07
1.6648447e-07
1.6624891e-07
1.6601002e-07
1.6576779e-07
1.6552223e-07
1.6527331e-07
1.6502102e-07
1.6476532e-07
1.6450617e-07
1.6424352e-07
1.6397732e-07
1.637075e-07
1.63434e-07
1.6315672e-07
1.6287557e-07
1.6259045e-07
1.6230123e-07
1.620078e-07
1.6171002e-07
1.6140773e-07
1.6110078e-07
1.6078902e-07
1.6047227e-07
1.6015037e-07
1.5982319e-07
1.5949058e-07
1.5915244e-07
1.5880871e-07
1.5845939e-07
1.5810454e-07
1.5774435e-07
1.5737912e-07
1.5700936e-07
1.5663575e-07
1.5625932e-07
1.5588144e-07
1.5550402e-07
1.5512971e-07
1.5476222e-07
1.5440685e-07
1.5407127e-07
1.5376698e-07
1.5351148e-07
1.5333224e-07
1.5327327e-07
1.5340728e-07
1.5385635e-07
1.5482832e-07
1.5668271e-07
1.600403e-07
1.6596992e-07
1.7633455e-07
1.9425541e-07
2.2493678e-07
2.7724684e-07
3.6472471e-07
5.0862665e-07
7.4041172e-07
1.1035143e-06
1.6524728e-06
2.4466208e-06
3.5392427e-06
4.9661731e-06
6.7424075e-06
8.871578e-06
1.1356269e-05
1.4206428e-05
1.7431584e-05
2.1036831e-05
2.5020565e-05
2.9353724e-05
3.4009498e-05
3.8936347e-05
4.4086988e-05
4.943664e-05
5.4878197e-05
6.0443285e-05
6.4714042e-05
6.8298395e-05
7.1938326e-05
7.5739109e-05
7.968004e-05
8.4014311e-05
8.8603354e-05