/*--------------------------------*- C++ -*----------------------------------*\
| =========                 |                                                 |
| \\      /  F ield         | OpenFOAM: The Open Source CFD Toolbox           |
|  \\    /   O peration     | Version:  2206                                  |
|   \\  /    A nd           | Website:  www.openfoam.com                      |
|    \\/     M anipulation  |                                                 |
\*---------------------------------------------------------------------------*/
FoamFile
{
    version     2.0;
    format      ascii;
    arch        "LSB;label=32;scalar=64";
    class       volScalarField;
    location    "800";
    object      omega;
}
// * * * * * * * * * * * * * * * * * * * * * * * * * * * * * * * * * * * * * //

dimensions      [0 0 -1 0 0 0 0];

internalField   nonuniform List<scalar> 
7480
(
7569.0989
7590.8064
7571.1037
7538.1493
7512.561
7498.0744
7491.1176
7487.7278
7485.8487
7484.6249
7483.6795
7482.8686
7482.1621
7481.5508
7481.0207
7480.5588
7480.1553
7479.801
7479.4858
7479.2033
7478.9497
7478.7207
7478.5125
7478.3226
7478.1493
7477.9902
7477.8437
7477.7086
7477.5838
7477.4684
7477.3613
7477.2621
7477.1702
7477.0849
7477.0058
7476.9326
7476.8649
7476.8024
7476.7449
7476.6924
7476.6447
7476.6018
7476.5636
7476.5302
7476.5016
7476.4783
7476.4602
7476.448
7476.4415
7476.4405
7476.445
7476.4547
7476.469
7476.4871
7476.508
7476.5311
7476.5551
7476.5777
7476.5973
7476.612
7476.6219
7476.627
7476.6278
7476.625
7476.6192
7476.6113
7476.6019
7476.5915
7476.5805
7476.5691
7476.5576
7476.5461
7476.5346
7476.5232
7476.512
7476.501
7476.4901
7476.479
7476.4676
7476.4561
7476.4446
7476.4331
7476.4215
7476.4098
7476.398
7476.3861
7476.3742
7476.3622
7476.3502
7476.3381
7476.326
7476.3139
7476.3019
7476.2898
7476.2779
7476.2653
7476.2544
7476.2387
7476.2299
7476.2059
1003.249
1574.407
1842.4965
1920.7686
1937.0061
1923.8409
1863.1445
1797.8039
1744.1819
1703.9944
1673.3526
1647.6944
1624.474
1603.0616
1583.2665
1564.8806
1547.8333
1532.2129
1517.8557
1504.5475
1492.1954
1480.776
1470.1819
1460.3
1451.0846
1442.509
1434.5015
1426.9938
1419.9546
1413.3602
1407.1687
1401.3444
1395.8711
1390.7323
1385.9038
1381.3673
1377.1135
1373.131
1369.4061
1365.9309
1362.7034
1359.7214
1356.9819
1354.4877
1352.2323
1350.2274
1348.4708
1346.9648
1345.7223
1344.7375
1344.0315
1343.6366
1343.4481
1343.4333
1343.5546
1343.7739
1344.0481
1344.3187
1344.527
1344.6207
1344.5795
1344.398
1344.1236
1343.747
1343.2673
1342.7077
1342.0898
1341.4342
1340.7567
1340.069
1339.3801
1338.6967
1338.0226
1337.3606
1336.7136
1336.0812
1335.4663
1334.8597
1334.2568
1333.6591
1333.0666
1332.4794
1331.8968
1331.3163
1330.7376
1330.1595
1329.5821
1329.0055
1328.4297
1327.8556
1327.2829
1326.7124
1326.1446
1325.5783
1325.0181
1324.4468
1323.9016
1323.3388
1322.6633
1322.0512
190.66649
396.62857
585.95149
709.19089
769.23501
785.35999
782.06043
789.17585
803.65246
812.8219
819.30963
823.5304
825.03175
824.13595
821.40845
817.38839
811.92564
805.27155
797.68354
789.38029
780.57416
771.46951
762.21007
752.89984
743.64362
734.5359
725.59266
716.81415
708.21647
699.82317
691.64867
683.70292
675.99946
668.55072
661.36399
654.44717
647.80992
641.45238
635.37181
629.56885
624.0495
618.82148
613.89229
609.27313
604.9713
600.98735
597.3272
593.96673
590.8952
588.10429
585.63147
583.48029
581.54568
579.79343
578.19855
576.70783
575.25926
573.81273
572.35572
570.89101
569.413
567.90711
566.4557
565.01098
563.55501
562.09046
560.62349
559.16294
557.71712
556.29298
554.89598
553.53055
552.19987
550.90599
549.65072
548.43322
547.25426
546.13615
545.06226
544.01977
543.00205
542.00592
541.02954
540.0693
539.12328
538.18916
537.26568
536.35189
535.4469
534.55072
533.66257
532.78253
531.91072
531.04547
530.1909
529.32992
528.49603
527.65838
526.73929
525.65124
72.002359
121.36339
193.99291
267.71898
324.61761
359.72566
377.79312
386.76717
392.43916
397.55709
404.50825
415.21764
426.20147
437.92736
452.27648
470.54771
485.13714
496.52778
505.29687
511.85474
516.52557
519.60105
521.34035
522.01297
521.93473
521.35179
519.99314
517.80704
514.88154
511.34086
507.30417
502.87527
498.14501
493.19381
488.09625
482.9267
477.73272
472.49731
467.22013
461.9183
456.618
451.34691
446.13037
440.99301
435.96398
431.03261
426.18321
421.38198
416.61599
411.89361
407.23761
402.74706
398.32288
393.97688
389.74446
385.58064
381.45002
377.39767
373.5079
369.85204
366.44908
363.315
360.48448
357.88266
355.45999
353.18107
351.01888
348.95462
346.97542
345.07256
343.23994
341.47402
339.77268
338.13357
336.55511
335.03472
333.57154
332.19085
330.88477
329.63776
328.43966
327.285
326.17101
325.09388
324.05073
323.03827
322.05379
321.09493
320.15927
319.24532
318.35114
317.47554
316.61732
315.77452
314.94852
314.12935
313.3272
312.57484
311.72027
310.76097
55.641319
64.531766
83.91
111.34818
140.41972
165.52604
184.57962
198.1284
207.73973
214.78702
220.42002
225.66328
230.9602
236.83256
244.1002
253.54902
263.34699
273.15118
282.74732
292.00497
300.83081
309.30526
317.72191
326.7143
337.34734
349.83462
359.69123
366.9205
372.20048
375.98126
378.56904
380.18492
381.00726
381.20371
380.96518
380.50309
379.7954
378.44996
376.46297
373.91928
370.91411
367.53
363.83489
359.89029
355.76954
351.47088
346.93455
342.13631
337.10239
331.8779
326.51198
321.06503
315.61036
310.1576
304.74282
299.32036
293.91575
288.65237
283.64831
278.98377
274.72237
270.87788
267.40978
264.26156
261.3796
258.71744
256.23553
253.9028
251.69558
249.59611
247.59159
245.67397
243.83603
242.07194
240.37768
238.74941
237.18608
235.69056
234.26568
232.90737
231.60989
230.36879
229.18144
228.04453
226.95516
225.90995
224.90566
223.93924
223.0075
222.10793
221.23815
220.3959
219.57898
218.78511
218.01381
217.25971
216.52004
215.85128
215.10114
214.2839
53.509206
54.436777
58.08771
65.264935
75.157871
86.041284
96.43352
105.64107
113.54164
120.26183
125.96801
130.8747
135.18663
139.11582
142.94505
147.01336
151.42195
156.27299
161.71244
167.82085
174.15938
180.72661
187.52821
194.61636
202.1032
210.07207
218.05374
225.69058
232.80851
239.34656
245.31834
250.8034
255.97269
261.15627
266.96423
274.1168
281.52948
286.09928
288.74535
290.07476
290.44155
290.06288
289.09153
287.67374
285.9892
284.18739
281.82274
278.80008
275.22065
271.19257
266.81602
262.18919
257.41245
252.51726
247.55596
242.60083
237.70654
232.95674
228.43088
224.18077
220.22795
216.57894
213.21661
210.11273
207.23745
204.56047
202.05272
199.69008
197.45238
195.3231
193.28966
191.34386
189.47824
187.6869
185.96558
184.31037
182.72039
181.19051
179.72223
178.31712
176.97428
175.69173
174.46784
173.30019
172.18632
171.12326
170.10793
169.13721
168.20775
167.31665
166.46114
165.63859
164.84641
164.08216
163.34444
162.62992
161.93199
161.30302
160.63087
159.8909
53.223755
52.808173
52.958551
54.0847
56.272841
59.363417
62.973186
66.789358
70.6182
74.356925
77.935319
81.307279
84.451018
87.364458
90.078488
92.661784
95.184557
97.71737
100.3443
103.156
106.19552
109.53092
113.24517
117.38923
121.86723
126.7285
131.94341
137.42803
143.08558
148.83216
154.59526
160.31776
165.96849
171.55744
177.14019
182.82273
188.52604
193.80073
198.43467
202.3829
205.68197
208.41933
210.74683
212.94371
215.47405
218.47238
219.84916
219.66709
218.4862
216.62
214.28898
211.6929
208.99935
205.97121
202.55317
199.0491
195.61204
192.2891
189.03902
185.87123
182.81319
179.87854
177.06828
174.38451
171.8276
169.39038
167.06327
164.8394
162.70947
160.66452
158.69748
156.80354
154.97882
153.2206
151.52644
149.89345
148.3213
146.80582
145.34575
143.94276
142.59801
141.31154
140.08292
138.91072
137.7931
136.72775
135.71213
134.74347
133.81861
132.93471
132.08882
131.27833
130.50074
129.75363
129.03527
128.34308
127.6708
127.05824
126.43576
125.73484
53.161621
52.541961
52.020226
51.712126
51.711475
52.046384
52.632522
53.454762
54.479256
55.668635
56.983201
58.38501
59.838787
61.311612
62.778139
64.225777
65.652431
67.063174
68.472395
69.904167
71.384512
72.944731
74.624885
76.470627
78.518491
80.820087
83.432291
86.359
89.554829
93.01796
96.738044
100.69543
104.86712
109.23354
113.7857
118.52421
123.42913
128.40788
133.3564
138.17839
142.79309
147.13855
151.17156
154.87621
158.27459
161.33309
163.87636
165.76402
166.99638
167.6667
167.92768
167.97942
167.97318
167.24069
165.72874
163.88043
162.05337
160.27333
158.31775
156.28879
154.2492
152.19842
150.13203
148.07192
146.03491
144.02479
142.04787
140.11636
138.22867
136.38536
134.58805
132.83803
131.13595
129.4848
127.88523
126.33568
124.83751
123.38906
121.98837
120.63633
119.33452
118.08411
116.88571
115.7389
114.64253
113.59527
112.59546
111.64101
110.72918
109.85762
109.02374
108.22514
107.45973
106.72528
106.02015
105.34207
104.68648
104.08085
103.48853
102.80773
53.125265
52.474951
51.838456
51.2401
50.710242
50.271715
49.928737
49.683618
49.538498
49.482585
49.493665
49.598286
49.796329
50.077807
50.429158
50.837283
51.29195
51.784985
52.311116
52.868998
53.460437
54.090117
54.766786
55.503795
56.317342
57.228292
58.263236
59.448062
60.804255
62.357662
64.138369
66.149066
68.386988
70.858472
73.574942
76.545271
79.775827
83.259287
86.973008
90.886245
94.963127
99.163209
103.4425
107.75491
112.06035
116.25954
120.20811
123.79422
126.92918
129.55672
131.6502
133.21195
134.27277
134.87936
135.03925
134.79056
134.37185
133.84301
132.99321
132.01011
130.98939
129.84377
128.54418
127.16191
125.72264
124.22577
122.69358
121.14481
119.58625
118.02732
116.47736
114.94387
113.43207
111.95434
110.51286
109.10574
107.73762
106.40809
105.11506
103.85977
102.64386
101.46883
100.33591
99.245588
98.197207
97.190797
96.22592
95.301333
94.414799
93.564854
92.749648
91.967275
91.216399
90.495089
89.802073
89.135459
88.492528
87.891126
87.317384
86.648258
53.095244
52.438401
51.782322
51.130868
50.490873
49.869683
49.272813
48.704913
48.170765
47.67414
47.216595
46.802208
46.434564
46.115368
45.830049
45.572751
45.356123
45.185599
45.061365
44.981889
44.945072
44.948477
44.991207
45.074746
45.202539
45.379993
45.615036
45.917579
46.29895
46.772515
47.354513
48.060972
48.908424
49.916324
51.108398
52.491223
54.081647
55.898323
57.952841
60.254009
62.811016
65.630632
68.717058
72.071764
75.694657
79.565261
83.600663
87.698529
91.754653
95.661856
99.314831
102.61517
105.47854
107.84936
109.68911
110.92024
111.55037
111.75704
111.73989
111.5594
111.32102
110.95796
110.4171
109.76959
109.01319
108.09152
107.06815
105.96773
104.79568
103.57351
102.3177
101.04367
99.761769
98.504319
97.266016
96.044357
94.842768
93.6631
92.505549
91.371688
90.26339
89.182467
88.130848
87.109952
86.119269
85.160459
84.235693
83.344505
82.485319
81.657405
80.859861
80.091442
79.352058
78.63993
77.954411
77.294169
76.658014
76.057017
75.492155
74.82776
53.068883
52.408659
51.74741
51.085404
50.423768
49.764046
49.108004
48.457674
47.815465
47.183982
46.565694
45.963157
45.37895
44.81548
44.273459
43.753014
43.255541
42.782824
42.336481
41.917674
41.522014
41.139211
40.774071
40.436085
40.131274
39.86314
39.634303
39.447044
39.303844
39.208794
39.167995
39.188896
39.280221
39.45226
39.717398
40.088222
40.579715
41.210229
41.999806
42.959622
44.109774
45.472284
47.071218
48.932749
51.085397
53.559764
56.374569
59.518017
62.9605
66.649122
70.506436
74.430662
78.299071
81.981429
85.354721
88.277704
90.620165
92.352224
93.515869
94.219665
94.584061
94.753151
94.782333
94.707528
94.543857
94.221484
93.78172
93.224347
92.519132
91.714107
90.82953
89.894141
88.917789
87.935128
86.939692
85.932567
84.919555
83.904633
82.890914
81.882246
80.88196
79.893212
78.919453
77.963502
77.027058
76.11251
75.222385
74.357912
73.519411
72.707188
71.921293
71.161462
70.427667
69.719222
69.0361
68.377328
67.743018
67.139597
66.577045
65.912827
53.030881
52.366775
51.701808
51.035743
50.368566
49.700321
49.031271
48.362008
47.693451
47.026743
46.363127
45.70391
45.050471
44.404239
43.766529
43.13852
42.521402
41.916408
41.324793
40.747795
40.186098
39.639315
39.107606
38.592098
38.094414
37.616322
37.158925
36.716432
36.283673
35.869229
35.483513
35.133715
34.82496
34.561256
34.346306
34.185297
34.085277
34.055239
34.106005
34.249059
34.498257
34.870742
35.386139
36.064254
36.933137
38.027326
39.386375
41.049088
43.051473
45.421255
48.170805
51.28872
54.731126
58.417094
62.23199
66.022355
69.600465
72.793106
75.469972
77.593666
79.176354
80.296136
81.051336
81.519968
81.792311
81.934147
81.957033
81.883158
81.676121
81.357753
80.923043
80.394556
79.792099
79.12343
78.396367
77.62438
76.817875
75.98302
75.126283
74.25448
73.372983
72.486849
71.601334
70.720644
69.848212
68.987666
68.142206
67.314237
66.50548
65.717219
64.950399
64.20562
63.483386
62.783794
62.107234
61.453103
60.822529
60.219108
59.658377
58.995462
52.972505
52.293307
51.615601
50.939034
50.263186
49.587553
48.911771
48.235766
47.559757
46.884148
46.20943
45.536136
44.86484
44.196173
43.5308
42.869418
42.212761
41.5616
40.916744
40.27904
39.649312
39.028262
38.416538
37.814839
37.223953
36.644754
36.07813
35.524285
34.982872
34.454488
33.940783
33.443976
32.966218
32.503662
32.049437
31.613378
31.207904
30.841078
30.51851
30.244244
30.023234
29.863155
29.774
29.767806
29.859969
30.070805
30.425704
30.954646
31.696262
32.695821
34.003336
35.669244
37.737117
40.232287
43.149487
46.438169
49.988296
53.635782
57.183541
60.454592
63.311456
65.685273
67.580413
69.021968
70.070209
70.812856
71.306736
71.623754
71.814496
71.886376
71.859363
71.722312
71.493829
71.183807
70.772729
70.285895
69.736597
69.129681
68.473542
67.778037
67.050853
66.298896
65.529624
64.748992
63.962353
63.175181
62.391793
61.615904
60.850669
60.098475
59.361332
58.64078
57.938057
57.25406
56.589749
55.945054
55.321944
54.722302
54.164988
53.505477
52.921637
52.221578
51.523941
50.828752
50.1358
49.444657
48.754908
48.066325
47.37892
46.692871
46.008434
45.325892
44.645535
43.96767
43.292615
42.620699
41.95227
41.287694
40.627357
39.971664
39.321043
38.675928
38.036756
37.40398
36.778073
36.159541
35.548919
34.946711
34.353326
33.769195
33.194878
32.631108
32.078754
31.53816
31.008895
30.491677
29.988511
29.502018
29.033101
28.57206
28.123272
27.702089
27.318353
26.978254
26.686444
26.450071
26.280258
26.191967
26.205219
26.346606
26.65032
27.158844
27.925613
29.011896
30.480909
32.386118
34.75244
37.554216
40.700412
44.043742
47.402718
50.599151
53.497346
56.005238
58.082789
59.749381
61.034411
61.984954
62.674631
63.147962
63.468157
63.658145
63.737853
63.73736
63.64608
63.470962
63.224244
62.890064
62.477489
62.002057
61.471267
60.89129
60.272744
59.623232
58.949826
58.260506
57.560849
56.856173
56.151366
55.450098
54.755711
54.070845
53.397656
52.737968
52.093432
51.46466
50.854389
50.263576
49.713062
49.060422
52.891677
52.176921
51.463804
50.752671
50.043648
49.336625
48.631416
47.92791
47.226137
46.526255
45.828495
45.133115
44.440388
43.750592
43.064007
42.380915
41.7016
41.026345
40.355436
39.689157
39.027793
38.371626
37.720935
37.075997
36.437087
35.804477
35.178442
34.559256
33.947183
33.342479
32.745413
32.156285
31.575434
31.003186
30.439772
29.885477
29.340765
28.806324
28.282847
27.769856
27.267443
26.77746
26.302621
25.843612
25.389047
24.948737
24.539097
24.169732
23.847607
23.581329
23.385303
23.279939
23.293415
23.463991
23.841693
24.487695
25.472718
26.864184
28.706247
30.997798
33.678105
36.628563
39.695439
42.715026
45.540966
48.073203
50.251629
52.052849
53.501042
54.625153
55.464831
56.075743
56.498397
56.775498
56.948903
57.031799
57.041559
56.972318
56.824079
56.60825
56.314063
55.942922
55.513472
55.031099
54.503234
53.941725
53.352225
52.742051
52.118351
51.486127
50.850458
50.215275
49.583892
48.959293
48.34395
47.739329
47.14894
46.573365
46.03477
45.393926
52.876766
52.153983
51.431951
50.711104
49.991719
49.273883
48.557599
47.842883
47.129831
46.418619
45.709482
45.002689
44.29852
43.597271
42.899237
42.204718
41.514013
40.827419
40.145231
39.467743
38.795241
38.128007
37.466316
36.810438
36.16063
35.517143
34.880217
34.250082
33.626954
33.011035
32.402515
31.801574
31.208383
30.623104
30.045878
29.47684
28.91613
28.363919
27.82041
27.285707
26.759896
26.243245
25.736286
25.239543
24.752162
24.274588
23.809168
23.359025
22.91663
22.481144
22.073928
21.707961
21.393127
21.142613
20.978158
20.931023
21.044521
21.375492
21.991029
22.959579
24.336843
26.144472
28.354149
30.883504
33.606628
36.380036
39.064961
41.544373
43.744569
45.626147
47.176839
48.420284
49.382656
50.096058
50.616419
50.981424
51.218681
51.361407
51.433299
51.435798
51.3659
51.222691
51.01902
50.738175
50.388462
49.989188
49.53994
49.051615
48.534084
47.992871
47.43541
46.866968
46.292308
45.715928
45.141248
44.570847
44.009085
43.456586
42.936756
42.314187
52.87018
52.143322
51.416651
50.690605
49.965503
49.241516
48.518739
47.797264
47.077222
46.358802
45.642237
44.92779
44.215744
43.506391
42.800033
42.096974
41.39752
40.701977
40.010649
39.323838
38.641842
37.964955
37.293463
36.62765
35.967789
35.314146
34.666979
34.026534
33.393047
32.766744
32.147833
31.536513
30.932967
30.337359
29.74984
29.17054
28.599574
28.03704
27.483024
26.937593
26.400789
25.87265
25.353243
24.842661
24.340856
23.847829
23.363844
22.889476
22.424355
21.968113
21.523028
21.092631
20.66998
20.25691
19.877812
19.547988
19.281862
19.103115
19.046712
19.159851
19.501694
20.137458
21.126778
22.508368
24.282236
26.400349
28.770047
31.268185
33.765789
36.146514
38.316972
40.222572
41.836879
43.154896
44.205054
45.011661
45.607142
46.036417
46.338583
46.528774
46.634308
46.682465
46.665605
46.580675
46.430528
46.228488
45.947098
45.60974
45.22741
44.80268
44.346917
43.865839
43.366027
42.853865
42.333739
41.809758
41.287217
40.767205
40.27472
39.678558
52.867988
52.139076
51.410022
50.681259
49.95312
49.225817
48.499492
47.774276
47.050319
46.32781
45.606977
44.888072
44.171367
43.457145
42.745699
42.037327
41.332329
40.631007
39.93366
39.240587
38.552084
37.868443
37.189951
36.516891
35.849538
35.188163
34.533028
33.884387
33.242487
32.607563
31.979842
31.359541
30.746864
30.142001
29.545131
28.956418
28.376011
27.804039
27.240618
26.685845
26.139795
25.602526
25.07408
24.554486
24.043749
23.541853
23.048803
22.564651
22.089387
21.622952
21.165559
20.7178
20.279368
19.850267
19.433528
19.03369
18.637086
18.267017
17.945893
17.691238
17.528759
17.496017
17.64225
18.025062
18.705054
19.731286
21.12525
22.868771
24.899495
27.119867
29.412286
31.661687
33.769693
35.661623
37.300454
38.670463
39.777199
40.649851
41.309505
41.791422
42.131725
42.366933
42.502195
42.574567
42.59083
42.547815
42.441279
42.279979
42.062555
41.779658
41.45231
41.082257
40.678773
40.250196
39.801419
39.338713
38.868212
38.392001
37.937218
37.377475
52.868159
52.138206
51.407907
50.677692
49.947903
49.218779
48.490497
47.763212
47.037091
46.312324
45.589132
44.867757
44.148462
43.431519
42.71721
42.005824
41.29765
40.592981
39.892108
39.195321
38.502907
37.815149
37.132328
36.454718
35.782588
35.116202
34.455816
33.80168
33.154036
32.513118
31.879152
31.252355
30.632936
30.021091
29.417008
28.820864
28.232824
27.653038
27.081647
26.518776
25.964534
25.419016
24.882301
24.354453
23.835519
23.325532
22.824513
22.332481
21.849448
21.375412
20.910394
20.454472
20.007675
19.570023
19.141892
18.724148
18.315866
17.919216
17.538971
17.166571
16.819796
16.523824
16.297815
16.170099
16.180486
16.379077
16.821246
17.562276
18.638523
20.055467
21.778281
23.73272
25.817863
27.921709
29.942916
31.799438
33.435813
34.83068
35.97603
36.887949
37.594301
38.116277
38.488111
38.748303
38.916135
38.99518
39.034049
39.017384
38.944831
38.817402
38.645114
38.408926
38.124991
37.802402
37.444625
37.061217
36.658241
36.239604
35.834721
35.323782
52.869651
52.139175
51.408214
50.677192
49.946461
49.216283
48.486859
47.758371
47.030998
46.304937
45.580406
44.857643
44.136902
43.418447
42.702554
41.989502
41.279572
40.573048
39.870214
39.171351
38.476737
37.786649
37.101356
36.421125
35.746217
35.076885
34.413379
33.755938
33.104796
32.460181
31.822309
31.191391
30.567628
29.951213
29.34233
28.741152
28.147843
27.562558
26.985441
26.416623
25.856226
25.304359
24.761118
24.22659
23.700846
23.183949
22.675949
22.176891
21.686813
21.205748
20.733728
20.270792
19.816975
19.372314
18.936884
18.510846
18.094226
17.687298
17.290877
16.904546
16.530287
16.173187
15.824838
15.508599
15.24654
15.059215
14.97791
15.045145
15.310655
15.828727
16.647226
17.788011
19.239674
20.950295
22.835077
24.791005
26.713811
28.517246
30.134929
31.53058
32.695924
33.632032
34.362639
34.912537
35.310567
35.581146
35.766663
35.869494
35.912528
35.912974
35.863519
35.76288
35.617994
35.424368
35.177866
34.894706
34.577198
34.232801
33.892009
33.445249
52.871909
52.141187
51.409872
50.678387
49.947087
49.216253
48.486113
47.756866
47.028711
46.301849
45.576502
44.852906
44.131311
43.411978
42.695175
41.981176
41.270257
40.562697
39.858772
39.158758
38.462927
37.771549
37.084887
36.4032
35.726743
35.055763
34.390499
33.731186
33.078049
32.431307
31.791169
31.157837
30.531505
29.912358
29.300571
28.696311
28.099736
27.510994
26.930224
26.357554
25.793103
25.236981
24.689286
24.150106
23.61952
23.097597
22.584398
22.079976
21.584382
21.097658
20.619848
20.150994
19.691139
19.240327
18.798608
18.366045
17.942698
17.528643
17.124035
16.728933
16.343621
15.968988
15.604663
15.253532
14.921116
14.599557
14.317523
14.093826
13.95216
13.927246
14.063831
14.412662
15.025121
15.937853
17.156501
18.649923
20.348919
22.160421
23.981845
25.719889
27.304848
28.688237
29.852767
30.798654
31.54206
32.106697
32.516209
32.801325
32.992333
33.108502
33.155685
33.166164
33.132318
33.052674
32.930306
32.769362
32.554997
32.303916
32.043306
31.679241
52.874631
52.143813
51.412316
50.680556
49.948894
49.217625
48.486997
47.75723
47.028538
46.301132
45.575238
44.851094
44.128947
43.409057
42.691689
41.977114
41.265603
40.557432
39.852872
39.152196
38.455672
37.763565
37.076135
36.393635
35.716316
35.044419
34.37818
33.717826
33.063579
32.415649
31.774242
31.139553
30.511768
29.891067
29.277617
28.671579
28.073104
27.482333
26.899398
26.324422
25.757518
25.198789
24.64833
24.106226
23.572551
23.047372
22.530748
22.022731
21.523368
21.032699
20.550765
20.077603
19.613251
19.157748
18.711133
18.273451
17.844748
17.425072
17.014477
16.613003
16.220711
15.837751
15.464189
15.100449
14.747625
14.405565
14.078202
13.766511
13.476936
13.232656
13.052639
12.965058
13.008808
13.230808
13.682631
14.40987
15.432202
16.735821
18.2674
19.942168
21.662227
23.330821
24.870953
26.229832
27.381857
28.325414
29.068193
29.636043
30.050499
30.34158
30.533203
30.654964
30.709972
30.722896
30.700315
30.63664
30.533584
30.394889
30.230581
29.969583
52.877644
52.146815
51.415233
50.683309
49.951404
49.219827
48.488843
47.758691
47.029597
46.301786
45.575488
44.850943
44.128402
43.408121
42.690365
41.975402
41.263502
40.554937
39.849977
39.148892
38.451946
37.759403
37.071519
36.388545
35.710728
35.038307
34.371513
33.710572
33.055699
32.407105
31.764987
31.129539
30.500942
29.879371
29.264988
28.65795
28.058402
27.46648
26.882311
26.306012
25.737692
25.177448
24.625369
24.081535
23.546016
23.018874
22.500162
21.989927
21.488209
20.995042
20.510459
20.034486
19.567151
19.108481
18.658501
18.217238
17.784724
17.360986
16.946055
16.53995
16.142691
15.754302
15.374806
15.004262
14.642859
14.290727
13.948505
13.616864
13.297301
12.994433
12.706187
12.45163
12.24856
12.119347
12.09726
12.22542
12.553728
13.131476
13.991364
15.132226
16.515212
18.064999
19.686684
21.28331
22.772648
24.098801
25.228211
26.156266
26.889897
27.451601
27.863896
28.153268
28.343953
28.465059
28.52588
28.539927
28.526506
28.475414
28.406946
28.267094
52.880845
52.150052
51.418443
50.68642
49.954347
49.222541
48.491282
47.760825
47.03141
46.303272
45.576649
44.851785
44.128932
43.408347
42.690295
41.975042
41.262858
40.554012
39.848773
39.147407
38.450181
37.757352
37.069177
36.385905
35.70778
35.035039
34.367913
33.706624
33.051385
32.402404
31.759877
31.123994
30.494935
29.872869
29.257959
28.650356
28.050203
27.457632
26.872766
26.295719
25.726595
25.165489
24.612485
24.067658
23.531076
23.002794
22.482862
21.971322
21.468208
20.973547
20.487364
20.009678
19.540505
19.07986
18.627756
18.184204
17.749218
17.32281
16.90499
16.495763
16.095131
15.70309
15.319631
14.944747
14.57845
14.220758
13.871767
13.531643
13.200724
12.879934
12.569758
12.273395
11.994679
11.736759
11.520191
11.363773
11.295699
11.354922
11.589198
12.049153
12.775775
13.779289
15.03258
16.469654
17.999047
19.524663
20.960139
22.2451
23.343833
24.2478
24.964626
25.512576
25.917207
26.198645
26.386048
26.503535
26.568144
26.586958
26.594165
26.549321
52.884171
52.153442
51.421839
50.689759
49.957565
49.225582
48.494101
47.763391
47.033704
46.305288
45.578387
44.85325
44.130131
43.409291
42.690992
41.975501
41.263086
40.554017
39.848561
39.146984
38.449548
37.756512
37.068131
36.384652
35.706319
35.033366
34.366024
33.704511
33.049043
32.399822
31.757046
31.120901
30.491566
29.869209
29.25399
28.646059
28.045555
27.45261
26.867345
26.28987
25.720287
25.158689
24.605156
24.059763
23.522571
22.993637
22.473004
21.960711
21.456788
20.961258
20.47414
19.995447
19.525187
19.063367
18.609987
18.16505
17.728555
17.3005
16.880881
16.469689
16.066911
15.672528
15.286516
14.908846
14.539489
14.178415
13.825609
13.481071
13.144845
12.817086
12.497986
12.188151
11.888631
11.600774
11.328788
11.073693
10.85131
10.67861
10.579617
10.589351
10.752839
11.120929
11.739277
12.628653
13.770978
15.108704
16.553868
18.009984
19.389288
20.62811
21.690195
22.563534
23.25736
23.785207
24.175276
24.446134
24.628778
24.743691
24.823755
24.851158
52.887581
52.156929
51.425354
50.693243
49.96096
49.228835
48.497168
47.766242
47.036319
46.307656
45.580507
44.855125
44.131768
43.410698
42.692179
41.976478
41.263863
40.554601
39.848961
39.147207
38.4496
37.756398
37.067855
36.384217
35.705727
35.032619
34.365121
33.703452
33.047826
32.398444
31.755503
31.119188
30.489677
29.867137
29.251726
28.643594
28.042878
27.449709
26.864205
26.286478
25.716625
25.154739
24.600899
24.055176
23.517632
22.988319
22.467281
21.954553
21.450163
20.954131
20.466472
19.987194
19.516302
19.053795
18.59967
18.153918
17.716532
17.287498
16.866803
16.454427
16.050345
15.654529
15.266942
14.887545
14.516291
14.153133
13.798023
13.450915
13.111772
12.780579
12.457343
12.14215
11.835211
11.536887
11.248079
10.96969
10.704856
10.456832
10.233429
10.051683
9.9323417
9.9068635
10.017503
10.314769
10.846996
11.642938
12.692185
13.943499
15.312231
16.701921
18.024579
19.214301
20.235301
21.072674
21.736513
22.240095
22.612837
22.87255
23.063151
23.179502
52.891046
52.16048
51.428944
50.69682
49.96447
49.232228
48.500403
47.769287
47.039153
46.310267
45.58289
44.857282
44.133704
43.412421
42.693697
41.977801
41.265001
40.555564
39.849756
39.147843
38.450085
37.756738
37.068056
36.384285
35.705665
35.032431
34.36481
33.70302
33.047274
32.397773
31.754712
31.118277
30.488643
29.865978
29.250439
28.642174
28.041321
27.448009
26.862356
26.28447
25.714452
25.15239
24.598364
24.052443
23.514689
22.985151
22.463874
21.95089
21.446226
20.9499
20.461925
19.982306
19.511046
19.04814
18.59358
18.147354
17.709447
17.279841
16.858514
16.44544
16.040587
15.643918
15.25539
14.874953
14.502552
14.138131
13.781628
13.43298
13.092124
12.759002
12.43356
12.11576
11.805595
11.503104
11.208439
10.921852
10.643995
10.37589
10.119564
9.8793421
9.6585288
9.4729038
9.34097
9.2911102
9.3631859
9.6066806
10.071714
10.792539
11.76483
12.942183
14.242734
15.570157
16.836875
17.975547
18.950738
19.747709
20.37864
20.856359
21.225286
21.475085
52.894549
52.16407
51.432579
50.700454
49.968053
49.235713
48.503751
47.772466
47.042141
46.313049
45.585461
44.85964
44.135853
43.414367
42.695449
41.979367
41.26639
40.556785
39.850819
39.148756
38.450856
37.757376
37.068567
36.384675
35.70594
35.032595
34.364868
33.702975
33.047129
32.397531
31.754375
31.117846
30.488119
29.865361
29.249728
28.641368
28.040419
27.447008
26.861253
26.283263
25.713136
25.15096
24.596815
24.05077
23.512884
22.983208
22.461784
21.948644
21.443814
20.947312
20.459149
19.979329
19.507851
19.044711
18.589896
18.143392
17.705181
17.27524
16.853544
16.440062
16.034756
15.637586
15.248501
14.867448
14.494367
14.129192
13.771856
13.422287
13.080413
12.746158
12.419449
12.100214
11.788388
11.483918
11.186776
10.896967
10.614584
10.339844
10.073213
9.815708
9.5686752
9.3356793
9.1202393
8.9347537
8.7960717
8.7302073
8.7748854
8.9784698
9.3921572
10.053913
10.964052
12.079436
13.32025
14.589953
15.801276
16.886841
17.814566
18.569322
19.182541
19.63853
52.898073
52.167681
51.43624
50.70412
49.97168
49.239258
48.507175
47.775737
47.045237
46.315955
45.588168
44.862146
44.138159
43.416477
42.69737
41.981108
41.267959
40.558191
39.852072
39.149864
38.451827
37.758218
37.069287
36.38528
35.706436
35.032989
34.365164
33.703179
33.047243
32.39756
31.754321
31.117712
30.487908
29.865074
29.249366
28.640932
28.039909
27.446424
26.860595
26.282529
25.712325
25.15007
24.595844
24.049715
23.511742
22.981976
22.460457
21.947219
21.442286
20.945675
20.457396
19.977453
19.505844
19.042563
18.587596
18.140928
17.702537
17.2724
16.850487
16.436764
16.031193
15.633727
15.244314
14.862898
14.489413
14.123792
13.765961
13.415845
13.073364
12.738437
12.410982
12.090914
11.778152
11.472614
11.174226
10.882919
10.598649
10.321401
10.051224
9.7883002
9.5329673
9.2860267
9.0486715
8.8238139
8.6153642
8.4324787
8.2912287
8.2154963
8.2414586
8.4162572
8.7919799
9.4086876
10.270485
11.335408
12.524472
13.740105
14.898439
15.930727
16.829938
17.551753
52.901609
52.171302
51.43991
50.707801
49.97533
49.242837
48.510647
47.779071
47.04841
46.318951
45.590975
44.864761
44.140582
43.418711
42.69942
41.982981
41.269663
40.559735
39.853464
39.151113
38.452941
37.759205
37.070155
36.386035
35.707086
35.03354
34.365621
33.703547
33.047528
32.397764
31.75445
31.117769
30.487895
29.864994
29.249222
28.640725
28.03964
27.446095
26.860206
26.282081
25.711818
25.149505
24.595219
24.049029