/*--------------------------------*- C++ -*----------------------------------*\
| =========                 |                                                 |
| \\      /  F ield         | OpenFOAM: The Open Source CFD Toolbox           |
|  \\    /   O peration     | Version:  2206                                  |
|   \\  /    A nd           | Website:  www.openfoam.com                      |
|    \\/     M anipulation  |                                                 |
\*---------------------------------------------------------------------------*/
FoamFile
{
    version     2.0;
    format      ascii;
    arch        "LSB;label=32;scalar=64";
    class       volScalarField;
    location    "800";
    object      p;
}
// * * * * * * * * * * * * * * * * * * * * * * * * * * * * * * * * * * * * * //

dimensions      [0 2 -2 0 0 0 0];

internalField   nonuniform List<scalar> 
7480
(
0.054748146
0.042489461
0.028363106
0.016551387
0.0059410717
0.00049286398
-0.00076305301
0.00025242806
0.0018048197
0.0028346922
0.0033098279
0.0035125973
0.0036035935
0.0036324951
0.0036346088
0.0036393714
0.0036471705
0.0036409605
0.0036247469
0.0036071933
0.0035870452
0.0035601244
0.0035292744
0.0034978559
0.0034646025
0.0034271179
0.0033868255
0.003345289
0.0033016273
0.0032550392
0.0032066413
0.0031572062
0.0031061204
0.0030531925
0.002999277
0.0029449777
0.0028903402
0.0028360192
0.0027832402
0.002733023
0.002686215
0.0026443624
0.0026099647
0.0025854492
0.0025750924
0.0025826399
0.0026125278
0.0026646537
0.0027379158
0.0028327142
0.0029472225
0.0030785532
0.0032222295
0.0033719536
0.0035255341
0.0036765659
0.0038069911
0.0039040018
0.0039594904
0.0039765433
0.0039577004
0.0039091149
0.0038397093
0.0037565466
0.0036647673
0.0035684059
0.0034708377
0.0033733642
0.0032769078
0.0031820219
0.0030888307
0.0029968355
0.0029060554
0.0028164756
0.0027273127
0.0026391547
0.0025510893
0.0024609963
0.0023693031
0.0022761426
0.0021823327
0.00208747
0.0019904017
0.0018921975
0.0017919523
0.0016903175
0.0015871169
0.0014824116
0.0013768245
0.0012699483
0.0011630832
0.0010559127
0.00095026418
0.00084551519
0.00074850694
0.00064574676
0.00059407853
0.00031241941
0.00083976048
-0.00087614753
0.049771017
0.039253459
0.027297476
0.016402742
0.0065421196
0.0012940106
-5.6444625e-05
0.00072179716
0.0020315782
0.00295849
0.0033874791
0.0035717517
0.0036543981
0.0036764981
0.0036745497
0.0036775217
0.0036793434
0.0036680494
0.0036488331
0.0036289038
0.0036065746
0.0035776701
0.0035451873
0.0035123655
0.0034778266
0.0034391772
0.0033978795
0.0033554456
0.0033109486
0.003263597
0.0032145185
0.0031644596
0.0031127887
0.0030593193
0.0030049062
0.0029501407
0.0028950611
0.0028403224
0.0027871462
0.0027365454
0.0026893635
0.0026471467
0.0026123919
0.0025875201
0.0025768676
0.0025842919
0.0026136612
0.0026653483
0.0027382893
0.0028327773
0.0029470037
0.0030780924
0.0032215695
0.0033711473
0.0035246415
0.0036756401
0.0038060874
0.0039032008
0.0039588446
0.0039760714
0.003957419
0.0039090133
0.003839749
0.003756698
0.0036650008
0.0035686955
0.0034711627
0.0033737082
0.0032772593
0.0031823728
0.0030891756
0.0029971712
0.0029063798
0.0028167875
0.0027276118
0.0026394414
0.0025513698
0.0024612761
0.0023695797
0.0022764131
0.0021825965
0.0020877274
0.0019906534
0.0018924441
0.0017921939
0.0016905542
0.0015873485
0.001482638
0.0013770454
0.0012701636
0.0011632929
0.0010561166
0.00095046243
0.00084570769
0.00074869503
0.0006459269
0.00059432482
0.00031339931
0.00084197502
-0.00087573352
0.045711292
0.037572682
0.026934379
0.016677329
0.007917121
0.002822584
0.0011161665
0.0013834332
0.0023678
0.0031426707
0.0035083172
0.0036725388
0.00374248
0.0037495599
0.0037385173
0.0037344056
0.0037277239
0.0037091687
0.0036851874
0.0036615671
0.0036356348
0.0036033443
0.0035683037
0.0035333374
0.0034967426
0.0034562434
0.0034134627
0.0033697562
0.0033240534
0.0032756044
0.003225593
0.0031746981
0.003122235
0.0030680406
0.0030129819
0.0029576206
0.0029019775
0.0028467189
0.0027930627
0.002742005
0.002694381
0.0026517416
0.002616581
0.0025913099
0.0025803135
0.0025877071
0.0026165747
0.002667599
0.002740177
0.00283428
0.0029481346
0.003078872
0.0032220194
0.0033713067
0.0035245837
0.0036754152
0.0038057201
0.0039027963
0.0039585345
0.0039758616
0.0039574251
0.0039092172
0.0038401166
0.0037572037
0.00366561
0.0035693754
0.0034718854
0.0033744495
0.0032780023
0.0031831054
0.0030898893
0.0029978605
0.0029070421
0.0028174208
0.0027282153
0.0026400158
0.0025519153
0.0024617993
0.0023700866
0.0022769024
0.0021830685
0.0020881829
0.0019910941
0.0018928718
0.0017926093
0.0016909582
0.0015877412
0.0014830197
0.0013774162
0.0012705234
0.0011636419
0.0010564547
0.00095079029
0.00084602469
0.00074900472
0.00064621973
0.00059472493
0.00031497441
0.00084589922
-0.0008751772
0.04299075
0.036271471
0.026579917
0.016977258
0.0092038431
0.0042853885
0.0021977223
0.0020770161
0.002759465
0.0033798887
0.0036900418
0.0038299248
0.0038767727
0.0038542331
0.003822678
0.0038067643
0.0037895448
0.0037605459
0.0037299858
0.0037020654
0.0036716786
0.0036348425
0.0035965838
0.0035590248
0.0035197938
0.0034768512
0.0034322618
0.0033870902
0.0033399607
0.003290223
0.0032392064
0.0031874524
0.0031341611
0.0030792266
0.0030235544
0.0029676465
0.002911494
0.0028558014
0.0028017868
0.002750411
0.0027024916
0.002659596
0.0026242143
0.0025987453
0.0025874918
0.0025952787
0.0026240445
0.0026743276
0.0027466359
0.0028403881
0.0029538218
0.0030840884
0.003226708
0.0033754392
0.0035281925
0.0036784899
0.0038082558
0.0039048151
0.0039603532
0.0039774614
0.003958971
0.0039107797
0.0038417137
0.0037588508
0.0036672981
0.0035710857
0.0034735973
0.0033761393
0.0032796528
0.003184704
0.0030914269
0.0029993307
0.0029084431
0.0028187511
0.002729474
0.0026412045
0.0025530029
0.0024627879
0.0023710186
0.0022777871
0.0021839096
0.0020889831
0.0019918569
0.0018936023
0.0017933097
0.0016916317
0.0015883893
0.0014836439
0.0013780178
0.001271103
0.0011642008
0.0010569931
0.00095130974
0.0008465245
0.00074949079
0.00064667837
0.00059533999
0.00031746717
0.00085232247
-0.00087413462
0.040521886
0.034678146
0.025955461
0.017329815
0.010271901
0.005491949
0.0032365806
0.0028454278
0.0032354528
0.0036785358
0.0039116634
0.0040009584
0.0040158341
0.0039754289
0.003932959
0.0039074233
0.0038773691
0.0038327155
0.0037912284
0.0037564816
0.0037196426
0.0036764554
0.0036339425
0.0035932511
0.0035507602
0.0035046116
0.0034576804
0.0034106233
0.0033615868
0.0033101148
0.0032578099
0.0032049922
0.0031506742
0.0030948561
0.0030385164
0.0029820539
0.0029253959
0.0028693227
0.0028150719
0.0027635362
0.0027154966
0.0026725469
0.0026371696
0.0026117294
0.0026005226
0.0026088939
0.0026376907
0.0026874514
0.0027594873
0.0028528152
0.0029656889
0.0030952692
0.0032370567
0.0033848605
0.0035367271
0.0036861762
0.0038149571
0.003910397
0.0039653669
0.0039818342
0.0039628597
0.0039144272
0.0038451978
0.0037622365
0.0036706083
0.0035743231
0.0034767565
0.0033792032
0.0032826095
0.0031875439
0.0030941417
0.0030019154
0.0029108996
0.0028210791
0.0027316731
0.0026432773
0.0025549107
0.0024645344
0.0023726566
0.0022793299
0.0021853652
0.0020903572
0.001993156
0.0018948357
0.0017944825
0.0016927503
0.0015894574
0.0014846655
0.001378996
0.0012720399
0.0011650994
0.0010578548
0.00095213736
0.00084731795
0.00075025794
0.00064740474
0.00059628291
0.00032116934
0.00086181539
-0.00087202127
0.038208527
0.033086047
0.025367323
0.017641749
0.011156799
0.0065890459
0.0042356442
0.0035926574
0.0037330027
0.0040008848
0.0041459812
0.0041831498
0.0041671479
0.0041125002
0.0040567419
0.0040127361
0.00396727
0.003912838
0.0038645701
0.0038239127
0.0037795057
0.0037284165
0.0036799807
0.0036350619
0.0035884777
0.0035384212
0.0034887791
0.0034396281
0.0033884172
0.003334933
0.0032811762
0.0032271688
0.0031716849
0.0031149199
0.0030579979
0.0030011636
0.0029441186
0.00288771
0.0028333002
0.0027817192
0.0027336999
0.0026908741
0.0026557159
0.002630526
0.0026196553
0.002628417
0.00265707
0.0027065005
0.0027780125
0.0028706393
0.0029826899
0.0031113028
0.0032519248
0.0033984281
0.0035490655
0.0036972889
0.0038245859
0.0039184498
0.0039726443
0.0039881987
0.0039684589
0.0039196879
0.0038502153
0.0037670869
0.003675319
0.0035789016
0.0034812034
0.0033835032
0.0032867532
0.0031915224
0.0030979445
0.0030055397
0.0029143533
0.0028243625
0.0027347842
0.0026462174
0.0025576652
0.0024671152
0.0023750902
0.00228162
0.0021875219
0.0020923881
0.0019950698
0.0018966455
0.0017961955
0.0016943766
0.0015910033
0.0014861372
0.0013803993
0.0012733781
0.0011663777
0.0010590761
0.00095330625
0.00084843567
0.00075133251
0.0006484265
0.00059759075
0.00032620621
0.00087449436
-0.00086838705
0.036107495
0.031607578
0.024814727
0.017871234
0.01191478
0.007587261
0.0051716161
0.0043007661
0.0042170814
0.0043315384
0.0043915409
0.0043786884
0.0043306867
0.0042580225
0.0041848613
0.0041221422
0.0040628449
0.004000363
0.0039440258
0.003893681
0.0038408652
0.0037845323
0.003731993
0.0036831375
0.0036319266
0.0035774486
0.0035245176
0.0034726658
0.0034187598
0.0033629141
0.0033075475
0.0032522581
0.0031954882
0.0031377022
0.00308022
0.0030230607
0.0029656682
0.0029090224
0.0028546285
0.0028032207
0.0027554695
0.0027130744
0.0026785263
0.0026541495
0.0026434495
0.0026516536
0.0026800969
0.0027294215
0.002800498
0.0028924329
0.0030035352
0.0031308882
0.0032699865
0.0034149342
0.0035632443
0.0037085031
0.0038336343
0.0039260102
0.0039798058
0.0039946548
0.0039743003
0.00392542
0.0038558776
0.0037727069
0.0036808793
0.0035843791
0.0034865782
0.0033887412
0.0032918341
0.0031964308
0.0031026642
0.0030100635
0.0029186872
0.002828503
0.0027387254
0.0026499587
0.0025611977
0.0024704545
0.0023782545
0.0022846054
0.0021903367
0.0020950394
0.0019975665
0.0018990033
0.0017984229
0.0016964861
0.001593003
0.0014880358
0.0013822046
0.0012750949
0.0011680132
0.0010606348
0.00095479408
0.00084985543
0.000752691
0.00064972232
0.0005992395
0.00033252117
0.00089001306
-0.00086317116
0.034208959
0.030225834
0.024248059
0.018014783
0.012561457
0.0084784215
0.0060342811
0.0049780062
0.0046990883
0.0046722159
0.0046472372
0.0045831385
0.0045009911
0.0044069354
0.0043159727
0.0042366051
0.0041639571
0.0040920522
0.0040259845
0.0039656769
0.0039056272
0.0038446307
0.0037873056
0.0037328634
0.0036768389
0.0036191859
0.0035636757
0.0035091335
0.0034522484
0.0033937594
0.0033365246
0.0032797056
0.0032212335
0.0031619547
0.0031035456
0.0030457049
0.0029876802
0.0029306781
0.0028762896
0.0028251073
0.0027777217
0.0027359283
0.0027022567
0.0026790476
0.0026685727
0.0026759464
0.0027040553
0.0027533475
0.0028241082
0.0029154068
0.0030254625
0.0031512633
0.0032886088
0.0034320685
0.0035770963
0.0037179036
0.0038404904
0.0039317559
0.0039856151
0.0040001485
0.003979549
0.0039309044
0.0038615639
0.003778566
0.0036868425
0.0035903818
0.0034925646
0.0033946459
0.0032976189
0.0032020682
0.0031081303
0.00301534
0.0029237704
0.0028333832
0.0027433911
0.0026544066
0.0025654149
0.0024744569
0.0023820624
0.0022882102
0.0021937442
0.0020982542
0.0020005965
0.0019018652
0.0018011256
0.0016990439
0.0015954249
0.0014903322
0.0013843847
0.0012771656
0.0011699835
0.0010625097
0.00095658041
0.00085155769
0.00075431384
0.00065127435
0.00060119598
0.00033998931
0.00090784376
-0.00085653874
0.032488408
0.028934482
0.023673671
0.018094094
0.013111522
0.0092693104
0.0068282001
0.0056268685
0.0051775796
0.0050191275
0.0049105542
0.0047943746
0.0046771722
0.0045600778
0.0044505534
0.0043547029
0.0042682392
0.0041858187
0.0041101927
0.0040408857
0.0039736906
0.0039072186
0.0038443477
0.0037842956
0.0037240114
0.0036632778
0.0036046361
0.0035467432
0.0034870223
0.003426535
0.0033676937
0.0033092093
0.0032488148
0.0031878564
0.0031283295
0.0030696063
0.0030107262
0.002953032
0.0028981879
0.0028467589
0.0027992926
0.0027576858
0.0027245133
0.002702007
0.0026920678
0.0026993856
0.0027271274
0.0027759959
0.0028461365
0.0029366158
0.0030455633
0.0031698733
0.0033056095
0.0034476593
0.0035899036
0.0037265157
0.0038461932
0.0039363041
0.0039901205
0.004004536
0.0039840039
0.0039358389
0.0038668905
0.0037842574
0.0036928161
0.0035965308
0.0034988024
0.003400884
0.0033038035
0.0032081554
0.0031140821
0.0030211293
0.0029293866
0.002838808
0.0027486042
0.0026594005
0.0025701696
0.0024789865
0.0023863895
0.0022923227
0.0021976453
0.0021019454
0.0020040832
0.0019051642
0.0018042448
0.0017019982
0.0015982232
0.0014929855
0.0013869034
0.001279557
0.001172258
0.001064673
0.00095863967
0.00085351883
0.00075617851
0.00065306204
0.00060341716
0.00034846246
0.00092740286
-0.00084854433
0.030925233
0.027734856
0.023102981
0.018119271
0.013572896
0.0099668209
0.0075554605
0.0062437608
0.0056472776
0.0053684137
0.0051797796
0.005011973
0.004859202
0.0047176931
0.0045889511
0.0044762621
0.0043757887
0.0042822625
0.0041966234
0.0041184428
0.0040438715
0.0039714089
0.0039030809
0.003837863
0.0037732832
0.0037089709
0.0036469052
0.003585798
0.0035234849
0.0034609639
0.0034000597
0.0033395019
0.0032773917
0.003215194
0.0031546711
0.0030949533
0.0030350616
0.0029764705
0.0029209711
0.002869061
0.0028211878
0.0027793338
0.0027461188
0.0027236061
0.0027137039
0.0027208698
0.0027481401
0.0027963156
0.0028656006
0.0029551132
0.0030629601
0.0031859879
0.0033203054
0.0034608834
0.0036012497
0.0037351231
0.0038523046
0.0039403675
0.0039931304
0.0040075348
0.0039872996
0.0039397366
0.0038713589
0.0037893229
0.0036983629
0.0036023784
0.0035048585
0.0034070597
0.0033100165
0.003214341
0.0031201949
0.0030271362
0.0029352678
0.0028445326
0.0027541419
0.0026647372
0.0025752764
0.0024838749
0.0023910823
0.0022968032
0.0022019145
0.0021060017
0.0020079283
0.0019088137
0.0018077046
0.0017052823
0.0016013395
0.0014959444
0.0013897152
0.0012822287
0.0011748005
0.0010670919
0.00096094203
0.00085571168
0.00075825962
0.00065506223
0.00060585433
0.00035779514
0.0009481191
-0.00083910909
0.029501996
0.026624682
0.02254092
0.018095141
0.01395283
0.010577833
0.0082175031
0.0068259279
0.006105099
0.0057179513
0.0054536989
0.0052351896
0.0050465554
0.0048795636
0.0047309775
0.0046011879
0.0044864015
0.0043813515
0.0042855653
0.0041983715
0.0041163263
0.0040376236
0.0039634668
0.0038930366
0.0038241064
0.0037559764
0.0036905003
0.0036263688
0.0035613992
0.0034965284
0.003433434
0.0033709794
0.0033073166
0.0032438354
0.0031819753
0.0031210507
0.0030602457
0.0030009167
0.0029448528
0.002892425
0.002844039
0.0028017464
0.0027682281
0.0027453585
0.0027349869
0.0027415308
0.002768021
0.0028151901
0.0028832396
0.0029713978
0.0030778089
0.0031993069
0.0033320178
0.0034710086
0.0036098583
0.0037421663
0.0038577969
0.0039439744
0.0039958085
0.0040101997
0.0039895553
0.0039421666
0.0038745867
0.003793382
0.0037030278
0.003607478
0.0035103434
0.0034128181
0.0033158994
0.0032202789
0.0031261583
0.0030330726
0.0029411382
0.0028502979
0.0027597638
0.0026701932
0.0025805297
0.0024889361
0.0023959719
0.0023014984
0.0022064147
0.0021103011
0.0020120239
0.0019127191
0.0018114221
0.001708824
0.0016047108
0.0014991541
0.001392772
0.0012851382
0.0011775733
0.0010697327
0.00096345739
0.00085810901
0.00076053192
0.000657252
0.0006084575
0.00036785352
0.00096945709
-0.00082809609
0.028203467
0.025599068
0.02199122
0.018028115
0.014259858
0.011109587
0.008816647
0.0073719242
0.0065486351
0.0060654663
0.0057305577
0.0054627902
0.0052384362
0.0050453172
0.0048764047
0.0047293426
0.0046000051
0.0044831061
0.004377023
0.0042806752
0.0041909399
0.0041057685
0.0040256768
0.0039499475
0.0038765493
0.0038046189
0.0037354781
0.0036680681
0.0036004812
0.003533178
0.0034678821
0.0034036001
0.0033383342
0.0032733731
0.0032101127
0.0031481326
0.0030865074
0.0030264131
0.0029696013
0.0029165594
0.0028677259
0.0028250123
0.0027911355
0.0027678234
0.0027568757
0.0027626128
0.0027880773
0.0028339451
0.0029003775
0.0029867459
0.0030912562
0.0032107466
0.0033413987
0.0034784403
0.0036155401
0.0037461737
0.0038603193
0.0039456193
0.003997427
0.0040120218
0.003991305
0.0039442666
0.0038774558
0.0037965136
0.003706447
0.0036115407
0.0035149943
0.0034178186
0.0033211142
0.0032256799
0.0031317101
0.0030386643
0.002946725
0.0028558519
0.0027652274
0.0026755372
0.0025857189
0.0024939792
0.0024008834
0.0023062499
0.0022110051
0.0021147178
0.0020162582
0.0019167824
0.0018153117
0.0017125487
0.0016082722
0.001502558
0.0013960247
0.0012882427
0.0011805387
0.0010725622
0.00096615597
0.00086068409
0.00076297079
0.00065960919
0.00061117687
0.00037851276
0.00099090583
-0.00081534042
0.027016286
0.024652214
0.021457226
0.017924965
0.014501804
0.011568587
0.0093554406
0.0078807109
0.0069754487
0.0064085127
0.0060084996
0.0056935557
0.0054341048
0.0052146065
0.00502504
0.004860582
0.0047165193
0.0045874877
0.004470936
0.0043653122
0.0042676942
0.0041758645
0.004089751
0.004008619
0.0039306116
0.0038547495
0.0037818499
0.0037110952
0.0036407998
0.0035711375
0.0035035117
0.0034371289
0.0033702537
0.0033038242
0.0032391647
0.0031761188
0.003113639
0.0030526902
0.0029951049
0.0029415447
0.0028923074
0.0028491247
0.0028147961
0.0027910182
0.0027795232
0.0027844388
0.0028087985
0.0028532204
0.0029178435
0.0030021735
0.003104475
0.0032215819
0.0033497463
0.0034843841
0.0036192695
0.0037477928
0.0038601685
0.0039446188
0.0039962355
0.0040112823
0.0039915356
0.0039456872
0.0038797287
0.0037990931
0.0037095836
0.0036153879
0.0035189478
0.0034217737
0.0033254446
0.0032303624
0.0031365767
0.0030436203
0.0029517807
0.0028609725
0.0027703047
0.002680557
0.0025906578
0.0024988254
0.0024056482
0.0023109065
0.0022155476
0.0021191244
0.0020205172
0.0019209028
0.0018192835
0.0017163773
0.0016119545
0.0015060957
0.0013994204
0.0012914961
0.0011836566
0.001075545
0.00096900659
0.00086340918
0.00076555095
0.00066211126
0.00061396262
0.00038964996
0.0010119457
-0.00080066336
0.025928691
0.023777999
0.020941348
0.017791854
0.01468569
0.011960903
0.0098367602
0.008351758
0.0073834115
0.00674486
0.0062857987
0.0059263047
0.0056327864
0.0053869972
0.0051766171
0.0049947065
0.0048358139
0.0046944288
0.0045672573
0.0044522558
0.0043465945
0.0042479282
0.0041556841
0.0040690451
0.0039862976
0.0039063654
0.0038296583
0.0037554995
0.0036823884
0.0036102839
0.0035402565
0.0034717199
0.00340319
0.0033353054
0.0032692403
0.0032049348
0.0031415032
0.0030797588
0.0030213991
0.0029672891
0.0029176216
0.0028739271
0.0028391576
0.0028149582
0.0028028979
0.0028069374
0.0028301168
0.0028730521
0.0029358556
0.0030180893
0.0031180555
0.0032325904
0.0033580259
0.0034899566
0.0036222654
0.0037482878
0.003858507
0.0039417668
0.00399284
0.0040081977
0.0039895125
0.0039449835
0.0038801637
0.0038006581
0.0037122903
0.0036188222
0.0035224661
0.003425511
0.0033296385
0.0032344791
0.0031405234
0.0030477727
0.0029561625
0.0028654369
0.0027747837
0.002685089
0.0025951925
0.00250331
0.002410119
0.0023153357
0.002219909
0.0021233958
0.0020246879
0.0019249758
0.001823242
0.0017202245
0.0016156814
0.0015096993
0.0014028998
0.0012948465
0.0011868817
0.0010786417
0.00097197462
0.00086625378
0.00076824492
0.00066473403
0.00061676445
0.0004011372
0.001032005
-0.0007838917
0.024930289
0.022970284
0.020445062
0.017634364
0.014818118
0.012292398
0.010263758
0.0087850342
0.0077707622
0.0070724704
0.0065607721
0.0061598041
0.0058336241
0.0055619662
0.0053308117
0.0051314837
0.0049577339
0.004803845
0.0046659306
0.0045414661
0.004427625
0.0043219585
0.0042234753
0.0041312356
0.0040436285
0.0039595006
0.0038789236
0.0038012869
0.0037252538
0.0036506099
0.0035781468
0.003507426
0.003437167
0.00336777
0.0033002569
0.0032346459
0.0031702314
0.0031076926
0.0030485717
0.0029937718
0.0029435875
0.0028994125
0.0028641887
0.002839583
0.0028269122
0.0028300089
0.0028519985
0.0028934632
0.0029544376
0.0030345182
0.0031320547
0.0032439416
0.0033665857
0.003495704
0.0036252659
0.0037485739
0.0038563712
0.0039381373
0.0039883171
0.004003698
0.0039860382
0.0039425972
0.0038789407
0.0038006856
0.0037134359
0.0036208369
0.0035252023
0.0034289718
0.0033335365
0.0032382354
0.0031442991
0.0030518045
0.002960018
0.0028690822
0.0027785732
0.0026890308
0.002599142
0.0025072751
0.0024141799
0.0023194152
0.0022239582
0.0021274215
0.002028666
0.0019288961
0.001827089
0.0017239999
0.0016193684
0.001513293
0.0014063957
0.0012982346
0.0011901618
0.0010818066
0.00097502014
0.00086918287
0.00077102145
0.00066745033
0.00061953148
0.00041283638
0.0010504142
-0.00076487503
0.024011878
0.022223134
0.019969091
0.017457496
0.014905296
0.012568647
0.01063969
0.0091809092
0.0081360796
0.0073894763
0.0068317807
0.0063928002
0.0060357205
0.005738937
0.0054872581
0.005270653
0.0050820979
0.0049156272
0.0047668807
0.0046328869
0.0045107554
0.0043979466
0.0042931223
0.0041951955
0.0041026185
0.0040141763
0.0039296593
0.0038484734
0.0037694205
0.0036921511
0.0036172123
0.0035442596
0.0034721906
0.0034012212
0.0033322262
0.0032652892
0.0031998501
0.0031364729
0.0030765614
0.0030210364
0.0029703031
0.0029256934
0.0028898937
0.0028647684
0.0028515466
0.0028537047
0.0028744746
0.0029144272
0.0029735212
0.003051393
0.003146461
0.0032556805
0.0033755032
0.0035017362
0.0036284376
0.0037489477
0.0038542446
0.0039343922
0.0039835238
0.0039987697
0.0039818773
0.0039392907
0.0038766428
0.0037995001
0.0037132973
0.00362163
0.0035268222
0.0034312572
0.0033363035
0.0032413678
0.0031478924
0.003055613
0.0029635924
0.0028726345
0.0027822325
0.0026924438
0.0026023816
0.0025106705
0.0024177201
0.0023229822
0.0022275749
0.0021311107
0.0020323484
0.0019325604
0.0018307333
0.0017276124
0.0016229282
0.0015167974
0.0014098352
0.0013015936
0.0011934375
0.0010849866
0.00097809649
0.00087215523
0.00077384397
0.0006702286
0.00062221252
0.00042459601
0.0010663711
-0.00074350294
0.023165295
0.021530946
0.019513579
0.017265619
0.014952979
0.012794908
0.010967863
0.0095401137
0.0084782964
0.0076942141
0.0070972691
0.0066240529
0.0062381545
0.0059172842
0.0056455425
0.0054119172
0.005208693
0.0050296378
0.0048700128
0.0047264484
0.0045959442
0.0044758746
0.004364616
0.0042609221
0.0041632746
0.0040704077
0.0039818789
0.0038970766
0.0038149125
0.0037349334
0.0036574714
0.0035822374
0.0035082848
0.0034356874
0.003365177
0.0032968819
0.0032303665
0.003166105
0.0031053735
0.0030491049
0.0029977926
0.0029527108
0.0029163423
0.002890587
0.0028767607
0.0028780391
0.0028975277
0.0029358944
0.0029930708
0.0030687004
0.0031612423
0.0032677559
0.0033847432
0.003508035
0.003631816
0.0037495045
0.0038522709
0.0039307313
0.0039787469
0.0039937747
0.0039775368
0.0039357065
0.0038739707
0.0037977188
0.003712428
0.0036215924
0.0035275378
0.0034325665
0.0033381279
0.0032436373
0.0031505508
0.0030585116
0.0029667002
0.0028760722
0.0027856951
0.002695643
0.002605604
0.0025138881
0.0024206849
0.0023259445
0.0022307286
0.0021343343
0.0020355986
0.0019358744
0.0018340879
0.001730968
0.0016262818
0.0015201377
0.0014131445
0.0013048538
0.0011966443
0.0010881222
0.00098114992
0.00087512254
0.00077666954
0.00067303161
0.00062475676
0.0004362498
0.0010789408
-0.00071972339
0.022383283
0.020888523
0.019078234
0.017062473
0.014966456
0.012976146
0.011251592
0.0098636872
0.0087966898
0.0079852397
0.0073557822
0.0068523469
0.0064399866
0.006096337
0.0058052038
0.0055549433
0.0053372764
0.0051457125
0.0049752129
0.0048220663
0.0046831366
0.0045557134
0.0044379388
0.0043284064
0.0042255986
0.0041282062
0.0040355943
0.0039471107
0.0038617497
0.0037789782
0.0036989424
0.0036213795
0.0035454745
0.0034711926
0.0033991292
0.0033294409
0.0032618
0.0031966113
0.0031350312
0.0030779931
0.0030260631
0.0029804648
0.0029435041
0.0029170831
0.0029026032
0.0029029779
0.0029211404
0.0029578649
0.0030130919
0.0030864413
0.0031764174
0.0032801858
0.0033942856
0.0035145788
0.0036353821
0.0037502042
0.0038504243
0.0039271513
0.0039740436
0.0039888356
0.0039732054
0.0039320889
0.0038712066
0.0037958
0.0037113941
0.0036212045
0.0035277913
0.003433322
0.0033393139
0.0032451779
0.0031524221
0.0030606544
0.0029691067
0.0028787094
0.0027884309
0.0026985313
0.0026087391
0.0025168992
0.0024235073
0.0023289268
0.0022336281
0.002136963
0.0020383457
0.0019387681
0.0018370238
0.0017339698
0.0016293609
0.0015232398
0.0014162519
0.0013079493
0.0011997165
0.0010911512
0.00098412167
0.00087803083
0.00077944934
0.00067581625
0.00062711512
0.00044761802
0.0010871309
-0.00069355946
0.021659387
0.020291096
0.01866246
0.016851204
0.014950541
0.013117031
0.011494169
0.010152917
0.0090908586
0.0082613368
0.0076059793
0.0070765056
0.0066402713
0.0062753904
0.0059657403
0.0056993645
0.005467576
0.0052636599
0.0050823455
0.0049196401
0.0047722639
0.0046374216
0.0045130644
0.0043976323
0.0042895866
0.0041875779
0.0040908137
0.0039985867
0.0039099486
0.0038243055
0.0037416439
0.0036617051
0.003583782
0.0035077577
0.0034341019
0.003362985
0.0032941716
0.0032280124
0.0031655523
0.0031077154
0.0030551284
0.0030089722
0.0029713903
0.0029442764
0.0029290906
0.0029285171
0.0029453208
0.0029803668
0.0030336072
0.0031046338
0.0031919989
0.0032929663
0.0034041182
0.003521359
0.0036391364
0.0037510634
0.0038487387
0.0039236207
0.003969403
0.0039839572
0.0039688591
0.0039284438
0.0038683856
0.0037939193
0.0037103893
0.003620799
0.0035278747
0.0034339381
0.0033402977
0.0032463572
0.0031538242
0.0030622573
0.0029709045
0.0028806846
0.0027905414
0.0027008138
0.0026111406
0.0025193496
0.0024261795
0.0023318282
0.002236328
0.0021395442
0.002041015
0.0019412775
0.0018394682
0.001736597
0.0016320601
0.0015259997
0.0014190823
0.0013108131
0.0012025878
0.0010940145
0.00098695214
0.00088082609
0.00078213172
0.00067853557
0.0006292429
0.00045851284
0.001090079
-0.00066511911
0.020987857
0.019734328
0.018265459
0.01663442
0.014909564
0.01322193
0.011698824
0.010409282
0.0093606978
0.0085215238
0.0078466511
0.0072954076
0.0068380709
0.0064537166
0.0061266148
0.0058447809
0.0055992909
0.0053832614
0.005191253
0.0050190524
0.004863242
0.004720945
0.0045899567
0.0044685762
0.0043552276
0.0042485232
0.0041475414
0.0040515121
0.003959523
0.0038709329
0.0037855929
0.0037032314
0.0036232273
0.0035454032
0.0034701144
0.0033975333
0.0033275009
0.0032603267
0.003196953
0.003138287
0.0030850043
0.0030382481
0.0030000147
0.0029721746
0.0029562301
0.002954665
0.0029700804
0.0030034095
0.0030546204
0.0031232811
0.0032079896
0.0033061035
0.0034142553
0.0035283953
0.0036430986
0.0037520913
0.0038472033
0.0039201629
0.0039648231
0.0039791217
0.003964514
0.0039247878
0.0038655476
0.0037920183
0.0037093111
0.0036205161
0.0035279376
0.003434597
0.0033412649
0.0032474766
0.0031550985
0.0030636211
0.0029723559
0.0028822334
0.0027921678
0.0027025548
0.0026129627
0.0025212793
0.0024283026
0.00233407
0.0022386454
0.002142095
0.0020435789
0.0019436793
0.0018419601
0.0017390416
0.0016342771
0.0015283646
0.0014215617
0.0013133433
0.0012051842
0.0010966504
0.00098958221
0.00088345989
0.00078466634
0.00068114322
0.00063110586
0.00046874748
0.0010872606
-0.00063459229
0.020363573
0.019214296
0.017886311
0.016414255
0.014847388
0.013294903
0.0118687
0.010634412
0.0096063684
0.0087650525
0.0080767312
0.0075080002
0.0070324677
0.0066305741
0.0062872602
0.0059907623
0.0057320918
0.0055042718
0.0053017549
0.0051201674
0.0049559718
0.0048062158
0.0046685692
0.0045412061
0.0044225033
0.0043110362
0.0042057769
0.0041058908
0.0040104833
0.0039188754
0.0038308042
0.003745974
0.0036638293
0.0035841485
0.0035071853
0.0034331035
0.0033618064
0.003293572
0.0032292498
0.0031697234
0.0031157057
0.0030683063
0.0030293885
0.0030007869
0.0029840322
0.0029814323
0.0029954275
0.0030269991
0.0030761368
0.0031423897
0.003224397
0.003319607
0.0034247071
0.0035356969
0.0036472761
0.0037533001
0.0038457733
0.0039168169
0.0039603256
0.0039743318
0.0039601658
0.0039211141
0.0038627006
0.0037901072
0.0037082118
0.0036202154
0.0035280597
0.0034352562
0.0033422249
0.0032486645
0.0031564135
0.0030649664
0.0029737507
0.0028836448
0.0027935486
0.0027039587
0.0026143843
0.0025227636
0.0024299289
0.0023358034
0.0022405204
0.0021441154
0.002045659
0.0019459102
0.0018444109
0.0017413367
0.0016364917
0.001530656
0.0014236936
0.0013154852
0.0012074652
0.0010989641
0.00099194636
0.00088587729
0.00078700097
0.00068359436
0.00063268776
0.00047815007
0.0010785824
-0.0006022501
0.019781968
0.018727472
0.017524038
0.016192436
0.01476742
0.013339697
0.012006832
0.01083004
0.0098282648
0.0089914017
0.0082953055
0.0077133116
0.0072225759
0.0068052193
0.0064470877
0.0061368512
0.0058656232
0.0056264199
0.0054136476
0.0052228306
0.0050503377
0.0048931518
0.004748844
0.0046154807
0.0044913877
0.0043751039
0.0042655149
0.0041617225
0.0040628358
0.0039681448
0.0038772906
0.0037899466
0.0037056048
0.0036240119
0.003545332
0.0034697124
0.0033971057
0.0033277659
0.0032624589
0.0032020392
0.0031472469
0.0030991604
0.0030595228
0.0030301231
0.0030125071
0.0030088276
0.0030213685
0.0030511423
0.0030981638
0.0031619671
0.003241229
0.0033334849
0.0034354821
0.0035432722
0.003651679
0.0037547007
0.0038444626
0.0039135927
0.0039559177
0.0039695959
0.0039558166
0.0039174238
0.003859835
0.0037881759
0.0037071123
0.0036198221
0.0035282983
0.0034359278
0.0033431888
0.0032498802
0.0031577562
0.0030663873
0.0029752375
0.002885089
0.0027949086
0.0027052848
0.0026156348
0.002523983
0.002431215
0.0023371534
0.0022419816
0.0021456802
0.002047316
0.0019477148
0.0018463276
0.0017433229
0.0016387045
0.0015328636
0.0014257848
0.0013176336
0.0012095241
0.001100908
0.00099403024
0.00088798546
0.00078906353
0.00068583006
0.00063397257
0.00048658445
0.0010643424
-0.00056847105
0.019238973
0.018270691
0.017177646
0.015970344
0.014672645
0.013359745
0.012116126
0.010997967
0.010026981
0.0092002661
0.0085016184
0.0079104629
0.0074075529
0.0069769161
0.0066054938
0.0062825673
0.0059995053
0.0057494103
0.0055267049
0.0053268681
0.0051462073
0.0049816561
0.0048307106
0.0046913489
0.0045618459
0.0044407061
0.004326744
0.0042190023
0.004116583
0.0040187491
0.0039250623
0.0038351606
0.0037485689
0.00366501
0.0035845707
0.003507376
0.0034334156
0.0033629251
0.0032965957
0.0032352486
0.0031796414
0.0031308232
0.0030904284
0.0030601927
0.0030416645
0.0030368589
0.0030479099
0.0030758459
0.0031207083
0.0031820201
0.0032584927
0.0033477453
0.003446589