/*--------------------------------*- C++ -*----------------------------------*\
| =========                 |                                                 |
| \\      /  F ield         | OpenFOAM: The Open Source CFD Toolbox           |
|  \\    /   O peration     | Version:  2206                                  |
|   \\  /    A nd           | Website:  www.openfoam.com                      |
|    \\/     M anipulation  |                                                 |
\*---------------------------------------------------------------------------*/
FoamFile
{
    version     2.0;
    format      ascii;
    arch        "LSB;label=32;scalar=64";
    class       surfaceScalarField;
    location    "800";
    object      phi;
}
// * * * * * * * * * * * * * * * * * * * * * * * * * * * * * * * * * * * * * //

dimensions      [0 3 -1 0 0 0 0];

oriented        oriented;

internalField   nonuniform List<scalar> 
14782
(
0.00061768696
8.7780191e-05
-0.00070546715
0.00051029419
0.00010739277
0.0004001257
0.00011016849
0.00030666719
9.3458507e-05
0.00023999749
6.6669704e-05
0.00019926069
4.0736797e-05
0.00017534454
2.3916157e-05
0.00016117272
1.417182e-05
0.00015176352
9.409197e-06
0.00014419485
7.5686732e-06
0.00013732358
6.8712648e-06
0.00013096065
6.3629355e-06
0.00012515053
5.8101202e-06
0.00011985645
5.2940713e-06
0.00011502097
4.8354828e-06
0.00011061837
4.4026048e-06
0.00010661164
4.0067313e-06
0.00010291914
3.692494e-06
9.9490817e-05
3.4283244e-06
9.6306796e-05
3.1840211e-06
9.3344892e-05
2.9619044e-06
9.0570233e-05
2.7746586e-06
8.7961462e-05
2.6087709e-06
8.5509171e-05
2.4522918e-06
8.3200541e-05
2.3086293e-06
8.1016975e-05
2.183566e-06
7.8947487e-05
2.0694883e-06
7.6987302e-05
1.9601853e-06
7.5129103e-05
1.8581985e-06
7.3363433e-05
1.7656699e-06
7.1685158e-05
1.6782749e-06
7.0091927e-05
1.5932318e-06
6.8579552e-05
1.5123745e-06
6.714334e-05
1.4362117e-06
6.5781083e-05
1.362257e-06
6.449187e-05
1.2892135e-06
6.3273989e-05
1.2178813e-06
6.2126438e-05
1.1475501e-06
6.1050128e-05
1.0763106e-06
6.0046786e-05
1.0033413e-06
5.9117648e-05
9.291383e-07
5.8264401e-05
8.5324681e-07
5.7490163e-05
7.7423787e-07
5.6797481e-05
6.9268279e-07
5.6194681e-05
6.0279948e-07
5.5686298e-05
5.0838351e-07
5.5280862e-05
4.054356e-07
5.4985836e-05
2.9502551e-07
5.4800547e-05
1.852898e-07
5.472324e-05
7.7307136e-08
5.4749442e-05
-2.6202593e-08
5.4872315e-05
-1.2287303e-07
5.5079648e-05
-2.073328e-07
5.5351614e-05
-2.7196572e-07
5.5675072e-05
-3.2345836e-07
5.6037213e-05
-3.6214067e-07
5.6404817e-05
-3.6760428e-07
5.6740509e-05
-3.3569167e-07
5.7008621e-05
-2.6811231e-07
5.7194628e-05
-1.8600718e-07
5.7295261e-05
-1.0063305e-07
5.7313691e-05
-1.84298e-08
5.7259958e-05
5.373343e-08
5.7147393e-05
1.1256435e-07
5.6989436e-05
1.5795703e-07
5.6798019e-05
1.9141722e-07
5.6583892e-05
2.1412735e-07
5.6354874e-05
2.2901744e-07
5.6116823e-05
2.3805171e-07
5.5874194e-05
2.4262814e-07
5.5630234e-05
2.4395994e-07
5.5386649e-05
2.435855e-07
5.5144944e-05
2.4170513e-07
5.4906382e-05
2.3856142e-07
5.4670875e-05
2.3550745e-07
5.4439032e-05
2.3184318e-07
5.4207543e-05
2.3148925e-07
5.3971952e-05
2.3559099e-07
5.3733574e-05
2.3837799e-07
5.349374e-05
2.3983379e-07
5.3253355e-05
2.4038461e-07
5.3012323e-05
2.4103207e-07
5.276938e-05
2.4294297e-07
5.2524709e-05
2.4467092e-07
5.2277722e-05
2.4698772e-07
5.2028678e-05
2.4904347e-07
5.1777653e-05
2.5102547e-07
5.1524753e-05
2.5289918e-07
5.1270503e-05
2.5425059e-07
5.1014752e-05
2.5575092e-07
5.075808e-05
2.5667181e-07
5.0500346e-05
2.5773375e-07
5.0241709e-05
2.5863774e-07
4.9981865e-05
2.5984387e-07
4.9719939e-05
2.6192555e-07
4.9455775e-05
2.6416418e-07
4.9210275e-05
2.4549964e-07
4.8807489e-05
4.0278622e-07
4.8816914e-05
-9.4244882e-09
8.4103257e-07
0.00079175229
9.1059472e-05
-0.00079503157
0.00077877975
0.00012036531
0.00075194149
0.00013700675
0.00070879297
0.00013660703
0.00065525744
0.00012020523
0.00060117236
9.4821878e-05
0.00055308338
7.2005139e-05
0.00051315186
5.4103336e-05
0.00048028865
4.2272409e-05
0.0004527897
3.5067628e-05
0.00042915876
3.0502197e-05
0.00040849435
2.7027347e-05
0.0003901834
2.4121069e-05
0.00037374123
2.1736248e-05
0.00035882412
1.9752594e-05
0.00034522802
1.7998699e-05
0.00033278026
1.6454497e-05
0.00032130432
1.5168431e-05
0.00031066543
1.4067219e-05
0.00030077329
1.3076159e-05
0.00029154991
1.218528e-05
0.00028291361
1.1410959e-05
0.00027480199
1.0720399e-05
0.0002671691
1.0085177e-05
0.00025997149
9.5062377e-06
0.00025316553
8.9895333e-06
0.00024671841
8.516603e-06
0.00024060743
8.0711604e-06
0.00023481015
7.6554863e-06
0.0002293033
7.2725197e-06
0.00022407007
6.9114984e-06
0.00021909907
6.5642349e-06
0.00021437852
6.2329262e-06
0.00020989697
5.9177592e-06
0.00020564705
5.6121736e-06
0.00020162456
5.3117083e-06
0.00019782576
5.0166792e-06
0.00019424903
4.7242785e-06
0.00019089661
4.42873e-06
0.0001877734
4.1265567e-06
0.00018488491
3.8176214e-06
0.00018223845
3.4997071e-06
0.00017984436
3.1683275e-06
0.00017771268
2.8243716e-06
0.00017586674
2.4487301e-06
0.00017432191
2.0532169e-06
0.00017309591
1.6314333e-06
0.00017220634
1.1845997e-06
0.00017165229
7.3934133e-07
0.00017142508
3.0451522e-07
0.00017150816
-1.0928655e-07
0.00017187732
-4.9202644e-07
0.00017249368
-8.2369198e-07
0.0001733022
-1.0804929e-06
0.00017425488
-1.2761365e-06
0.00017529672
-1.4039793e-06
0.00017633437
-1.4052501e-06
0.00017726463
-1.2659575e-06
0.00017799872
-1.0022002e-06
0.0001784921
-6.7938764e-07
0.00017873768
-3.4620872e-07
0.00017874874
-2.9490179e-08
0.00017855179
2.5068192e-07
0.00017818415
4.8020151e-07
0.00017768442
6.5769138e-07
0.0001770872
7.8863093e-07
0.00017642264
8.7868954e-07
0.00017571372
9.3793813e-07
0.00017497781
9.7396344e-07
0.00017422798
9.9246012e-07
0.00017347363
9.9831108e-07
0.00017272044
9.9677101e-07
0.00017197298
9.8916627e-07
0.00017123469
9.7685209e-07
0.0001705062
9.6399462e-07
0.00016978825
9.4979905e-07
0.00016906989
9.4984434e-07
0.00016833934
9.6613852e-07
0.00016760092
9.7679655e-07
0.00016685889
9.8187048e-07
0.00016611501
9.842658e-07
0.00016536861
9.8742791e-07
0.00016461696
9.9459553e-07
0.0001638597
1.0019261e-06
0.00016309573
1.0109611e-06
0.00016232547
1.0193071e-06
0.00016154924
1.0272533e-06
0.00016076757
1.0345632e-06
0.00015998171
1.0401165e-06
0.00015919182
1.045642e-06
0.00015839913
1.049363e-06
0.00015760393
1.0529335e-06
0.00015680622
1.0563461e-06
0.00015600673
1.0593282e-06
0.00015519925
1.0694057e-06
0.00015439747
1.0659519e-06
0.00015358687
1.0560999e-06
0.00015257092
1.4187265e-06
0.00015201406
5.474378e-07
2.5240889e-06
0.00083156717
8.6588087e-05
-0.00082709579
0.00083708289
0.00011484959
0.00084161076
0.00013247888
0.00084051445
0.00013770334
0.00083139863
0.00012932105
0.00081411629
0.00011210422
0.00079127519
9.4846242e-05
0.00076528646
8.0092065e-05
0.00073804825
6.9510611e-05
0.00071107228
6.20436e-05
0.00068519898
5.63755e-05
0.00066072562
5.1500706e-05
0.0006376604
4.7186294e-05
0.00061590083
4.3495817e-05
0.0005953819
4.0271524e-05
0.00057607377
3.7306827e-05
0.00055791764
3.4610629e-05
0.00054081957
3.2266498e-05
0.00052469546
3.0191334e-05
0.00050948013
2.8291486e-05
0.00049510822
2.6557194e-05
0.00048150599
2.5013188e-05
0.00046861316
2.3613231e-05
0.00045638226
2.2316077e-05
0.00044476712
2.1121372e-05
0.00043371932
2.0037329e-05
0.00042319992
1.903601e-05
0.00041317902
1.809206e-05
0.00040362789
1.7206609e-05
0.00039451841
1.6382008e-05
0.00038582912
1.5600784e-05
0.00037754424
1.4849115e-05
0.00036964876
1.4128402e-05
0.00036212916
1.3437359e-05
0.00035497666
1.2764676e-05
0.00034818663
1.2101742e-05
0.00034175632
1.1446991e-05
0.00033568608
1.0794518e-05
0.00032998092
1.013389e-05
0.00032464962
9.4578533e-06
0.00031970302
8.7642236e-06
0.00031515503
8.0476898e-06
0.00031102339
7.299968e-06
0.00030732802
6.5197462e-06
0.00030410037
5.6763771e-06
0.00030136676
4.7868257e-06
0.00029914689
3.8513087e-06
0.00029745447
2.8770181e-06
0.00029628505
1.9087572e-06
0.00029562055
9.6902131e-07
0.00029542958
8.167644e-08
0.0002956691
-7.3153973e-07
0.00029627746
-1.4320542e-06
0.00029717388
-1.9769183e-06
0.00029828027
-2.3825238e-06
0.00029950144
-2.6251516e-06
0.00030069979
-2.6035942e-06
0.00030173326
-2.299426e-06
0.00030248802
-1.7569675e-06
0.00030290796
-1.0993262e-06
0.00030298471
-4.2295411e-07
0.00030273738
2.1783442e-07
0.0003022043
7.8376488e-07
0.00030143763
1.2468695e-06
0.00030049031
1.605011e-06
0.00029940996
1.8689806e-06
0.00029823791
2.0507472e-06
0.00029700656
2.1692805e-06
0.0002957408
2.2397274e-06
0.00029445939
2.2738659e-06
0.00029317583
2.2818753e-06
0.00029189876
2.27384e-06
0.00029063502
2.252906e-06
0.00028938951
2.2223623e-06
0.00028816355
2.1899593e-06
0.00028695727
2.1560751e-06
0.00028575338
2.1537354e-06
0.00028453696
2.182557e-06
0.00028331579
2.1979729e-06
0.00028209443
2.203227e-06
0.00028087355
2.2051468e-06
0.0002796513
2.2096794e-06
0.00027842391
2.221984e-06
0.00027719003
2.235805e-06
0.00027594801
2.2529827e-06
0.00027469799
2.269327e-06
0.00027344027
2.2849715e-06
0.00027217557
2.2992672e-06
0.00027090535
2.3103358e-06
0.00026963012
2.3208711e-06
0.00026835131
2.328175e-06
0.00026706966
2.3345795e-06
0.00026578489
2.3411143e-06
0.00026449887
2.3453465e-06
0.00026320061
2.3676711e-06
0.00026191598
2.3505796e-06
0.00026058571
2.3863745e-06
0.00025910099
2.9034376e-06
0.00025782739
1.8210423e-06
4.6018015e-06
0.00086136138
8.2257912e-05
-0.00085703121
0.00086789638
0.0001083146
0.00087518625
0.00012518901
0.00088221128
0.00013067831
0.00088611811
0.00012541422
0.00088510211
0.00011312022
0.00088101555
9.8932798e-05
0.00087429286
8.6814755e-05
0.00086520772
7.8595761e-05
0.00085400466
7.3246656e-05
0.00084101341
6.9366754e-05
0.00082643474
6.607937e-05
0.00081063354
6.2987499e-05
0.00079419926
5.9930097e-05
0.00077747138
5.6999405e-05
0.00076067541
5.4102796e-05
0.00074395032
5.1335718e-05
0.00072738389
4.8832932e-05
0.00071106093
4.6514292e-05
0.00069506035
4.4292067e-05
0.00067943734
4.2180198e-05
0.00066421895
4.023158e-05
0.0006494268
3.8405384e-05
0.00063507918
3.66637e-05
0.00062118493
3.5015617e-05
0.00060774073
3.3481526e-05
0.00059474346
3.2033282e-05
0.00058219098
3.0644545e-05
0.0005700769
2.932069e-05
0.00055839168
2.8067228e-05
0.00054712892
2.6863535e-05
0.0005362848
2.5693239e-05
0.00052585457
2.4558631e-05
0.0005158341
2.3457831e-05
0.00050622334
2.2375439e-05
0.00049702617
2.1298905e-05
0.00048824754
2.0225623e-05
0.00047989385
1.9148212e-05
0.00047197516
1.8052574e-05
0.00046450518
1.692784e-05
0.00045750001
1.5769386e-05
0.00045097923
1.4568476e-05
0.00044496605
1.3313148e-05
0.00043948763
1.1998163e-05
0.00043457693
1.0587082e-05
0.00043026042
9.1033288e-06
0.0004265489
7.5628337e-06
0.00042344139
5.9845278e-06
0.00042092655
4.4235965e-06
0.00041898134
2.914225e-06
0.00041757112
1.4919003e-06
0.00041664634
1.9324404e-07
0.00041613638
-9.2209508e-07
0.00041595793
-1.7984669e-06
0.00041602482
-2.4494208e-06
0.00041621923
-2.819557e-06
0.00041638969
-2.7740534e-06
0.00041640238
-2.312123e-06
0.00041616412
-1.5186984e-06
0.00041563324
-5.6844864e-07
0.00041480587
4.0441108e-07
0.00041370221
1.3214956e-06
0.00041235868
2.1272943e-06
0.00041082034
2.7852117e-06
0.00040913264
3.2927134e-06
0.00040733741
3.664207e-06
0.00040547202
3.9161436e-06
0.00040356673
4.0745654e-06
0.00040164543
4.1610282e-06
0.00039972645
4.1928514e-06
0.00039782298
4.1853422e-06
0.00039594392
4.1529011e-06
0.00039409647
4.1003499e-06
0.0003922855
4.0333334e-06
0.0003905121
3.9633652e-06
0.00038877498
3.893187e-06
0.00038706883
3.8598848e-06
0.0003853862
3.8651873e-06
0.0003837224
3.861782e-06
0.00038207344
3.8521811e-06
0.00038043644
3.842151e-06
0.0003788079
3.8382178e-06
0.000377183
3.8468838e-06
0.0003755591
3.8597068e-06
0.00037393361
3.8784669e-06
0.00037230578
3.8971608e-06
0.00037067523
3.9155232e-06
0.00036904215
3.9323423e-06
0.00036740755
3.9449364e-06
0.00036577166
3.9567674e-06
0.00036413549
3.9643411e-06
0.00036249975
3.9703196e-06
0.00036086358
3.9772886e-06
0.00035922937
3.9795513e-06
0.00035758283
4.0142159e-06
0.00035595619
3.9772139e-06
0.00035426642
4.0761495e-06
0.00035247104
4.6988165e-06
0.00035066316
3.6289147e-06
6.8273467e-06
0.0008916514
7.8533177e-05
-0.00088792666
0.00089768351
0.00010228248
0.00090488977
0.00011798275
0.00091179418
0.00012377391
0.00091695998
0.00012024841
0.00091988728
0.00011019292
0.00092052681
9.8293268e-05
0.00091938345
8.7958108e-05
0.00091749606
8.0483155e-05
0.00091494444
7.5798274e-05
0.00091165452
7.2656677e-05
0.00090740627
7.0327616e-05
0.00090195462
6.8439147e-05
0.00089523861
6.6646111e-05
0.00088733121
6.4906805e-05
0.00087825421
6.3179797e-05
0.0008681584
6.143153e-05
0.00085733195
5.9659383e-05
0.00084593759
5.7908647e-05
0.00083409639
5.6133271e-05
0.00082190678
5.4369802e-05
0.00080944717
5.269119e-05
0.00079679535
5.1057205e-05
0.00078403013
4.9428924e-05
0.00077122063
4.7825112e-05
0.00075842289
4.6279266e-05
0.00074568969
4.4766488e-05
0.00073306843
4.3265805e-05
0.00072059692
4.1792193e-05
0.00070830546
4.0358687e-05
0.000696223
3.8945997e-05
0.00068437668
3.7539559e-05
0.00067278948
3.6145831e-05
0.00066148255
3.4764765e-05
0.00065047959
3.3378396e-05
0.00063980663
3.1971867e-05
0.00062948425
3.0548004e-05
0.0006195286
2.9103864e-05
0.00060995905
2.7622121e-05
0.00060079857
2.6088322e-05
0.00059207212
2.449583e-05
0.00058380736
2.2833235e-05
0.00057603463
2.1085883e-05
0.00056879144
1.924135e-05
0.00056210829
1.7270232e-05
0.00055599455
1.5217065e-05
0.00055044678
1.3110606e-05
0.00054545936
1.0971951e-05
0.00054102638
8.8565742e-06
0.00053713453
6.8060733e-06
0.00053376032
4.8661124e-06
0.00053086304
3.0905221e-06
0.00052837962
1.5613303e-06
0.00052624603
3.3511622e-07
0.00052437086
-5.742473e-07
0.0005226076
-1.0563016e-06
0.00052082205
-9.8850379e-07
0.00051893904
-4.2910779e-07
0.00051692132
4.9902126e-07
0.00051475753
1.5953464e-06
0.00051245209
2.7098465e-06
0.00051001802
3.7555654e-06
0.00050747486
4.6704543e-06
0.0005048466
5.4134742e-06
0.00050215831
5.9809973e-06
0.00049943444
6.3880774e-06
0.00049669838
6.6522073e-06
0.00049397002
6.8029291e-06
0.00049126579
6.8652503e-06
0.00048859869
6.8599591e-06
0.00048597806
6.805974e-06
0.00048341068
6.720272e-06
0.00048090234
6.6086943e-06
0.00047845622
6.4794529e-06
0.00047607206
6.3475283e-06
0.00047374702
6.2182279e-06
0.00047148233
6.1245759e-06
0.00046927637
6.0711447e-06
0.00046711864
6.0195061e-06
0.00046499912
5.971707e-06
0.00046291133
5.9299442e-06
0.00046084988
5.8996598e-06
0.00045880877
5.8879987e-06
0.00045678397
5.8845017e-06
0.00045477173
5.8907064e-06
0.00045277
5.8988921e-06
0.00045077728
5.9082488e-06
0.00044879271
5.9169063e-06
0.00044681631
5.9213346e-06
0.00044484752
5.9255587e-06
0.00044288655
5.9253156e-06
0.00044093355
5.9233186e-06
0.00043898679
5.9240475e-06
0.00043704858
5.9177579e-06
0.0004351023
5.9604958e-06
0.0004331825
5.8970194e-06
0.00043119571
6.062935e-06
0.00042914355
6.7509784e-06
0.00042690546
5.867003e-06
9.1498476e-06
0.00092304389
7.5202658e-05
-0.00091971337
0.00092856258
9.6763791e-05
0.00093513516
0.00011141016
0.00094155343
0.00011735564
0.00094670269
0.00011509916
0.00094994568
0.00010694993
0.00095153265
9.67063e-05
0.000951907
8.7583763e-05
0.00095156775
8.0822402e-05
0.00095105559
7.6310433e-05
0.00095040732
7.3304952e-05
0.00094955712
7.1177807e-05
0.00094840589
6.9590383e-05
0.0009468268
6.8225204e-05
0.00094474278
6.6990824e-05
0.00094201815
6.590442e-05
0.00093851234
6.4937342e-05
0.0009341837
6.3988026e-05
0.0009290379
6.3054443e-05
0.00092305434
6.2116836e-05
0.0009162866
6.1137538e-05
0.00090886221
6.0115579e-05
0.00090085712
5.9062297e-05
0.00089233013
5.7955918e-05
0.00088333358
5.6821663e-05
0.00087392003
5.5692814e-05
0.00086414603
5.4540491e-05
0.00085406576
5.3346068e-05
0.00084373184
5.2126113e-05
0.00083319582
5.0894709e-05
0.00082251023
4.9631588e-05
0.00081172613
4.8323661e-05
0.0008008898
4.6982157e-05
0.00079004416
4.5610405e-05
0.00077923205
4.4190508e-05
0.00076849636
4.2707549e-05
0.00075787905
4.1165317e-05
0.00074742177
3.956115e-05
0.00073716614
3.7877746e-05
0.0007271536
3.6100865e-05
0.00071742511
3.4224313e-05
0.00070802307
3.2235281e-05
0.00069899217
3.011678e-05
0.00069039068
2.7842841e-05
0.0006822256
2.5435308e-05
0.00067447373
2.2968941e-05
0.00066715788
2.0426457e-05
0.0006603101
1.781973e-05
0.00065394855
1.5218121e-05
0.00064807293
1.2681692e-05
0.00064266552
1.027352e-05
0.00063768751
8.0685406e-06
0.00063308836
6.160474e-06
0.00062884008
4.583402e-06
0.0006248132
3.4526262e-06
0.00062081739
2.9395112e-06
0.00061680106
3.0278256e-06
0.00061278937
3.5825785e-06
0.00060879742
4.4909792e-06
0.00060482977
5.5629925e-06
0.00060088983
6.6497861e-06
0.00059697927
7.6661299e-06
0.00059309975
8.5499752e-06
0.00058925564
9.2575846e-06
0.00058545318
9.7834574e-06
0.00058169966
1.0141593e-05
0.00057800362
1.034825e-05
0.00057437304
1.0433504e-05
0.00057081525
1.0423041e-05
0.00056733654
1.0338673e-05
0.00056394202
1.0200486e-05
0.00056063487
1.0027424e-05
0.00055741712
9.826443e-06
0.00055428935
9.607226e-06
0.00055124943
9.3874467e-06
0.00054829337
9.1742895e-06
0.00054541948
8.99847e-06
0.00054262631
8.8643167e-06
0.00053990697
8.7388413e-06
0.0005372515
8.6271736e-06
0.00053465179
8.5296563e-06
0.00053210098
8.4504703e-06
0.00052959196
8.3970169e-06
0.00052711951
8.3569518e-06
0.00052467868
8.3315385e-06
0.00052226608
8.3114974e-06
0.00051987888
8.2954476e-06
0.00051751496
8.2808254e-06
0.00051517306
8.2632343e-06
0.00051285171
8.2469074e-06
0.00051055013
8.2268982e-06
0.00050826739
8.2060584e-06
0.00050600062
8.1908104e-06
0.00050375155
8.1668337e-06
0.00050150196
8.210083e-06
0.0004992861
8.1128754e-06
0.00049700631
8.3427337e-06
0.00049469537
9.0619176e-06
0.00049206451
8.4978636e-06
1.1600891e-05
0.00095542192
7.2203109e-05
-0.00095242237
0.00096050604
9.167967e-05
0.00096657531
0.00010534089
0.00097254433
0.00011138662
0.00097742664
0.00011021685
0.00098067283
0.00010370374
0.00098242455
9.4954579e-05
0.00098318417
8.6824136e-05
0.00098339437
8.0612208e-05
0.00098337935
7.6325451e-05
0.00098328956
7.3394743e-05
0.00098317383
7.1293539e-05
0.0009830286
6.9735609e-05
0.00098278968
6.8464125e-05
0.00098241127
6.7369232e-05
0.00098185596
6.6459735e-05
0.00098107416
6.5719144e-05
0.00098000265
6.5059532e-05
0.00097859068
6.4466418e-05
0.00097675161
6.3955901e-05
0.00097439269
6.3496456e-05
0.00097147249
6.3035778e-05
0.00096796966
6.256513e-05
0.00096385229
6.2073284e-05
0.00095913507
6.1538891e-05
0.00095386869
6.0959187e-05
0.00094808139
6.0327795e-05
0.00094179799
5.9629466e-05
0.00093504153
5.8882571e-05
0.00092783807
5.8098178e-05
0.0009202208
5.7248851e-05
0.00091222573
5.6318732e-05
0.00090388438
5.5323507e-05
0.00089522884
5.4265951e-05
0.00088629747
5.3121874e-05
0.00087712976
5.1875262e-05
0.00086776771
5.0527362e-05
0.00085825851
4.9070353e-05
0.0008486517
4.748455e-05
0.00083899791
4.5754659e-05
0.00082934863
4.3873595e-05
0.00081975748
4.1826426e-05
0.00081028173
3.9592534e-05
0.000800982
3.7142571e-05
0.00079190725
3.4510056e-05
0.00078308076
3.1795432e-05
0.00077451979
2.8987424e-05
0.00076625616
2.6083364e-05
0.00075832059
2.3153693e-05
0.00075073246
2.0269815e-05
0.00074349614
1.7509845e-05
0.00073659689
1.4967788e-05
0.00073002013
1.2737236e-05
0.00072377265
1.083088e-05
0.00071777297
9.4523044e-06
0.00071188212
8.8303603e-06
0.00070606131
8.848638e-06
0.00070033041
9.3134796e-06
0.00069470034
1.0121051e-05
0.00068917715
1.1086182e-05
0.00068376954
1.2057391e-05
0.00067847991
1.2955764e-05
0.00067330622
1.3723666e-05
0.00066824865
1.4315157e-05
0.00066330794
1.4724162e-05
0.00065848373
1.4965807e-05
0.00065377646
1.5055516e-05
0.00064918709
1.5022878e-05
0.00064471675
1.4893384e-05
0.00064036651
1.4688908e-05
0.00063613791
1.4429089e-05
0.00063203109
1.4134247e-05
0.00062804499
1.3812541e-05
0.00062417776
1.3474454e-05
0.00062042541
1.3139801e-05
0.00061678291
1.2816781e-05
0.00061324604
1.2535343e-05
0.0006098117
1.2298661e-05
0.00060647513
1.2075408e-05
0.00060322811
1.1874193e-05
0.00060006264
1.1695125e-05
0.00059697127
1.1541845e-05
0.00059394613
1.1422153e-05
0.00059098104
1.1322049e-05
0.00058806996
1.1242617e-05
0.00058520823
1.1173228e-05
0.00058239168
1.1111996e-05
0.00057961681
1.1055692e-05
0.00057688098
1.0999069e-05
0.00057418154
1.0946347e-05
0.00057151651
1.0891923e-05
0.00056888374
1.0838828e-05
0.00056627914
1.0795415e-05
0.00056370349
1.0742481e-05
0.00056113736
1.0776212e-05
0.00055861352
1.0636718e-05
0.00055603202
1.0924235e-05
0.00055345063
1.1643306e-05
0.00055044234
1.1506152e-05
1.4211245e-05
0.00098882624
6.9473387e-05
-0.00098609652
0.00099350403
8.7001879e-05
0.00099913441
9.9710509e-05
0.0010047156
0.00010580543
0.0010093723
0.00010556015
0.0010125958
0.00010048025
0.0010144439
9.310647e-05
0.0010153425
8.5925558e-05
0.0010157282
8.0226489e-05
0.0010159002
7.6153453e-05
0.0010159982
7.3296773e-05
0.0010160676
7.1224097e-05
0.0010161359
6.9667334e-05
0.0010161888
6.841123e-05
0.0010161983
6.7359701e-05
0.0010161613
6.6496726e-05
0.0010160737
6.5806757e-05
0.001015909
6.5224199e-05
0.001015646
6.4729415e-05
0.0010152605
6.4341459e-05
0.0010147171
6.4039876e-05
0.0010139748
6.3778059e-05
0.0010129935
6.3546439e-05
0.0010117119
6.3354872e-05
0.0010100672
6.3183577e-05
0.001008022
6.3004391e-05
0.0010055445
6.2805283e-05
0.0010026039
6.2570088e-05
0.00099919975
6.2286711e-05
0.00099534596
6.1951968e-05
0.00099104481
6.1550001e-05
0.00098629789
6.1065654e-05
0.00098110992
6.0511475e-05
0.00097548985
5.9886025e-05
0.00096944971
5.9162015e-05
0.00096300363
5.8321341e-05
0.00095616712
5.7363865e-05
0.00094895679
5.6280685e-05
0.00094139135
5.5049989e-05
0.00093349625
5.364976e-05
0.00092530284
5.2067005e-05
0.00091684676
5.0282508e-05
0.00090817057
4.826872e-05
0.00089931289
4.6000252e-05
0.00089035325
4.3469701e-05
0.00088138685
4.0761828e-05
0.00087244762
3.7926661e-05
0.00086355693
3.4974052e-05
0.0008547484
3.1962217e-05
0.00084606127
2.8956946e-05
0.00083753608
2.6035037e-05
0.00082920973
2.3294133e-05
0.00082111075
2.0836224e-05
0.00081324682
1.8694805e-05
0.00080566146
1.7037667e-05
0.00079833664
1.6155179e-05
0.0007911919
1.5993376e-05
0.00078419193
1.6313454e-05
0.00077730277
1.7010211e-05
0.00077052587
1.7863082e-05
0.00076387757
1.8705693e-05
0.0007573634
1.9469933e-05
0.00075098768
2.0099385e-05
0.0007447609
2.0541938e-05
0.00073868946
2.0795597e-05
0.00073277377
2.0881497e-05
0.00072701489
2.08144e-05
0.00072141384
2.0623929e-05
0.00071596998
2.0337239e-05
0.00071068198
1.9976915e-05
0.00070554941
1.9561652e-05
0.00070057121
1.9112451e-05
0.00069574515
1.8638601e-05
0.00069106788
1.8151723e-05
0.00068653392
1.7673757e-05
0.00068213742
1.7213282e-05
0.00067787275
1.6800021e-05
0.00067373524
1.6436165e-05
0.0006697206
1.6090048e-05
0.00066582198
1.5772812e-05
0.00066203222
1.5484886e-05
0.00065834393
1.5230133e-05
0.00065474887
1.5017219e-05
0.00065124007
1.4830844e-05
0.00064781056
1.4672128e-05
0.00064445446
1.4529329e-05
0.00064116627
1.440019e-05
0.00063794106
1.4280896e-05
0.00063477474
1.4165394e-05
0.00063166319
1.405789e-05
0.00062860305
1.3952072e-05
0.00062559087
1.3850999e-05
0.00062262133
1.3764957e-05
0.00061969408
1.3669735e-05
0.00061678851
1.3681777e-05
0.00061393548
1.3489755e-05
0.00061103288
1.3826829e-05
0.00060816053
1.4515654e-05
0.00060476976
1.4896925e-05
1.7011719e-05
0.0010232939
6.6957802e-05
-0.0010207783
0.0010275908
8.2704901e-05
0.0010328073
9.4494003e-05
0.0010380284
0.0001005844
0.0010424791
0.00010110945
0.0010456822
9.7277094e-05
0.0010476312
9.1157492e-05
0.0010486658
8.4890961e-05
0.0010491754
7.9716863e-05
0.0010494442
7.5884686e-05
0.001049621
7.3119947e-05
0.0010497669
7.1078225e-05
0.0010499066
6.9527644e-05
0.0010500314
6.8286443e-05
0.0010501333
6.7257787e-05
0.0010502147
6.6415276e-05
0.0010502863
6.5735184e-05
0.0010503383
6.5172218e-05
0.0010503535
6.4714232e-05
0.0010503345
6.436045e-05
0.0010502778
6.4096547e-05
0.0010501669
6.3888955e-05
0.0010499864
6.3726979e-05
0.0010497175
6.3623706e-05
0.001049335
6.3566142e-05
0.0010488098
6.3529568e-05
0.0010481099
6.350515e-05
0.0010471898
6.3490253e-05
0.0010460043
6.3472188e-05
0.0010445226
6.3433633e-05
0.0010427105
6.336209e-05
0.0010405377
6.3238496e-05
0.0010379971
6.3052088e-05
0.0010350852
6.2797896e-05
0.0010317913
6.2455933e-05
0.0010281034
6.2009217e-05
0.0010240103
6.1456943e-05
0.0010195047
6.0786273e-05
0.0010145828
5.997195e-05
0.0010092403
5.8992209e-05
0.0010034726
5.7834715e-05
0.00099727572
5.6479417e-05
0.00099064911
5.4895329e-05
0.0009835889
5.306046e-05
0.00097610426
5.0954342e-05
0.00096825658
4.8609511e-05
0.00096011535
4.6067888e-05
0.00095172522
4.3364182e-05
0.00094312793
4.0559503e-05
0.00093436976
3.771512e-05
0.00092550671
3.4898085e-05
0.00091660586
3.2194982e-05
0.00090773024
2.971185e-05
0.00089890598
2.7519064e-05
0.00089023328
2.5710362e-05
0.00088185145
2.4537012e-05
0.00087375691
2.4087918e-05
0.00086582259
2.424777e-05
0.00085796872
2.4864076e-05
0.00085021596
2.5615843e-05
0.00084256809
2.6353571e-05
0.00083502099
2.7017034e-05
0.0008275929
2.7527475e-05
0.00082030833
2.7826504e-05
0.0008131779
2.7926026e-05
0.00080620727
2.7852124e-05
0.00079940709
2.761458e-05
0.00079278425
2.7246769e-05
0.00078633985
2.6781646e-05
0.00078007466
2.6242104e-05
0.00077399048
2.5645825e-05
0.00076808704
2.5015893e-05
0.00076236237
2.4363276e-05
0.00075681335
2.3700742e-05
0.00075143439
2.3052712e-05
0.00074621976
2.242792e-05
0.00074116389
2.1855883e-05
0.00073626167
2.1338391e-05
0.00073150871
2.0843008e-05
0.00072689901
2.0382507e-05
0.00072242641
1.9957488e-05
0.000718084
1.9572548e-05
0.00071386349
1.9237725e-05
0.00070975749
1.8936846e-05
0.00070575821
1.8671403e-05
0.00070185873
1.8428807e-05
0.00069805231
1.8206613e-05
0.00069433265
1.8000558e-05
0.00069069417
1.7803871e-05
0.00068713126
1.7620804e-05
0.00068363901
1.744432e-05
0.00068021263
1.7277379e-05
0.00067684545
1.7132139e-05
0.00067353585
1.6979337e-05
0.00067026204
1.6955584e-05
0.00066705282
1.6698978e-05
0.00066380348
1.7076161e-05
0.00066061426
1.7704881e-05
0.00065682319
1.8687995e-05
2.0032941e-05
0.001058854
6.4616642e-05
-0.0010565129
0.0010627998
7.8759105e-05
0.0010676272
8.9666626e-05
0.0010725099
9.5701752e-05
0.0010767566
9.6862666e-05
0.0010799251
9.4108606e-05
0.001081962
8.9120618e-05
0.001083131
8.3721981e-05
0.0010837701
7.9077799e-05
0.0010841393
7.5515407e-05
0.0010843868
7.2872475e-05
0.0010845819
7.0883127e-05
0.0010847568
6.9352724e-05
0.0010849144
6.8128844e-05
0.0010850529
6.7119283e-05
0.0010851763
6.629189e-05
0.0010852882
6.5623265e-05
0.0010853847
6.5075704e-05
0.0010854661
6.4632904e-05
0.0010855352
6.4291299e-05
0.0010855975
6.4034302e-05
0.0010856478
6.3838597e-05
0.0010856721
6.3702744e-05
0.0010856694
6.3626324e-05
0.0010856387
6.3596927e-05
0.0010855684
6.3599872e-05
0.0010854476
6.3625892e-05
0.0010852614
6.3676483e-05
0.0010849897
6.3743822e-05
0.0010846115
6.3811923e-05
0.0010841001
6.3873442e-05
0.0010834205
6.3918114e-05
0.0010825387
6.3933872e-05
0.0010814292
6.3907444e-05
0.0010800585
6.382656e-05
0.0010783996
6.3668165e-05
0.0010764399
6.3416624e-05
0.0010741624
6.3063795e-05
0.0010715486
6.2585704e-05
0.001068578
6.1962823e-05
0.0010652277
6.1185072e-05
0.0010614731
6.0233973e-05
0.0010572884
5.9079982e-05
0.0010526442
5.77047e-05
0.0010475022
5.6096318e-05
0.0010418427
5.426905e-05
0.0010356748
5.2235733e-05
0.0010290153
5.0023773e-05
0.0010218817
4.769303e-05
0.0010142982
4.5298647e-05
0.0010063002
4.2896105e-05
0.00099793952
4.055564e-05
0.00098928439
3.8366986e-05
0.00098039639
3.640706e-05
0.00097136782
3.4738928e-05
0.00096239211
3.3512728e-05
0.00095360732
3.287271e-05
0.00094501565
3.2839439e-05
0.00093659218
3.3287539e-05
0.00092827697
3.3931052e-05
0.00091998875
3.4641799e-05
0.00091172141
3.528437e-05
0.00090352682
3.5722065e-05
0.00089542505
3.5928269e-05
0.0008874222
3.5928881e-05
0.00087954211
3.5732214e-05
0.00087181164
3.534505e-05
0.0008642427
3.481571e-05
0.00085684205
3.4182297e-05
0.00084962046
3.3463695e-05
0.00084258658
3.2679697e-05
0.00083574314
3.1859341e-05
0.00082909148
3.101493e-05
0.00082263217
3.0160057e-05
0.00081636209
2.9322786e-05
0.00081027792
2.8512097e-05
0.00080437653
2.775727e-05
0.00079865397
2.7060945e-05
0.00079310645
2.6390531e-05
0.00078772899
2.575997e-05
0.0007825166
2.5169873e-05
0.00077746322
2.4625933e-05
0.000772561
2.413994e-05
0.00076780255
2.3695302e-05
0.0007631796
2.3294353e-05
0.00075868446
2.2923947e-05
0.00075430939
2.2581685e-05
0.00075004687
2.2263074e-05
0.00074588997
2.1960771e-05
0.0007418316
2.1679173e-05
0.00073786535
2.1410569e-05
0.00073398497
2.1157757e-05
0.00073018242
2.0934694e-05
0.0007264547
2.0707057e-05
0.00072277878
2.0631501e-05
0.00071918143
2.0296332e-05
0.00071555476
2.0702827e-05
0.00071201835
2.1241293e-05
0.00070779999
2.290636e-05
2.3306006e-05
0.0010955407
6.2421725e-05
-0.0010933458
0.0010991676
7.5132236e-05
0.0011036318
8.5202424e-05
0.0011081965
9.1137045e-05
0.0011122416
9.2817596e-05
0.0011153598
9.0990368e-05
0.001117465
8.701549e-05
0.0011187544
8.2432492e-05
0.0011195174
7.8314895e-05
0.0011199897
7.5043081e-05
0.0011203146
7.2547513e-05
0.0011205654
7.0632395e-05
0.0011207788
6.9139298e-05
0.0011209655
6.7942159e-05
0.001121128
6.6956771e-05
0.0011212721
6.6147782e-05
0.001121403
6.5492414e-05
0.0011215206
6.495805e-05
0.0011216268
6.4526726e-05
0.001121725
6.4193091e-05
0.0011218164
6.3942915e-05
0.0011218985
6.3756506e-05
0.0011219715
6.3629735e-05
0.0011220371
6.3560721e-05
0.0011220952
6.3538777e-05
0.0011221483
6.3546848e-05
0.0011221855
6.3588647e-05
0.0011221983
6.3663667e-05
0.0011221892
6.3752937e-05
0.00112215
6.3851104e-05
0.0011220724
6.3951028e-05
0.0011219445
6.4046094e-05
0.0011217495
6.4128796e-05
0.0011214714
6.4185562e-05
0.0011210875
6.4210445e-05
0.0011205695
6.4186197e-05
0.0011198913
6.4094802e-05
0.0011190292
6.3925939e-05
0.0011179519
6.3662955e-05
0.0011166339
6.3280852e-05
0.0011150578
6.2761152e-05
0.0011131972
6.2094629e-05
0.0011110214
6.1255731e-05
0.0011084965
6.0229645e-05
0.0011055812
5.9011588e-05
0.0011022304
5.7619887e-05
0.0010984016
5.606451e-05
0.0010940594
5.4365991e-05
0.0010891726
5.2579745e-05
0.0010837156