/*--------------------------------*- C++ -*----------------------------------*\
| =========                 |                                                 |
| \\      /  F ield         | OpenFOAM: The Open Source CFD Toolbox           |
|  \\    /   O peration     | Version:  2206                                  |
|   \\  /    A nd           | Website:  www.openfoam.com                      |
|    \\/     M anipulation  |                                                 |
\*---------------------------------------------------------------------------*/
FoamFile
{
    version     2.0;
    format      ascii;
    arch        "LSB;label=32;scalar=64";
    class       volVectorField;
    location    "800";
    object      U;
}
// * * * * * * * * * * * * * * * * * * * * * * * * * * * * * * * * * * * * * //

dimensions      [0 1 -1 0 0 0 0];

internalField   nonuniform List<vector> 
7480
(
(0.82754631 0.011168517 0)
(0.70299493 0.020218335 0)
(0.56654822 0.021430176 0)
(0.43053657 0.014560744 0)
(0.33055461 0.006289105 0)
(0.26658319 0.0019098717 0)
(0.23008192 0.002224047 0)
(0.20853741 -0.00029131088 0)
(0.19447786 -0.00042982332 0)
(0.18414796 -0.00017507673 0)
(0.17532256 1.2663898e-06 0)
(0.16713257 5.4547889e-05 0)
(0.15956 6.5239318e-05 0)
(0.15265744 6.7253756e-05 0)
(0.14636834 0.00022765346 0)
(0.14063043 0.00019447849 0)
(0.13539853 7.3380759e-05 0)
(0.13061164 5.3473119e-05 0)
(0.12618424 4.6197471e-05 0)
(0.12206882 4.1077826e-05 0)
(0.11824413 3.7245159e-05 0)
(0.11467415 3.5084054e-05 0)
(0.1113221 3.2762845e-05 0)
(0.10816999 3.0063972e-05 0)
(0.10520516 2.7757843e-05 0)
(0.10240744 2.608014e-05 0)
(0.099757552 2.4326545e-05 0)
(0.097246306 2.2417098e-05 0)
(0.094867097 2.0749398e-05 0)
(0.092608952 1.9360436e-05 0)
(0.090462255 1.7932871e-05 0)
(0.088422836 1.6468333e-05 0)
(0.086487034 1.5160367e-05 0)
(0.084648972 1.3984097e-05 0)
(0.082904091 1.2809013e-05 0)
(0.081250747 1.1649553e-05 0)
(0.079687406 1.0582616e-05 0)
(0.07821214 9.5635995e-06 0)
(0.076824815 8.539249e-06 0)
(0.075527341 7.527355e-06 0)
(0.074321683 6.5705788e-06 0)
(0.073209346 5.6520457e-06 0)
(0.072193751 4.7239331e-06 0)
(0.07127764 3.8721091e-06 0)
(0.070465402 1.5404143e-05 0)
(0.069778215 7.2990052e-06 0)
(0.069202379 1.495108e-06 0)
(0.068765255 2.8581578e-08 0)
(0.068467338 -1.0339469e-06 0)
(0.068305805 -1.9009766e-06 0)
(0.068276706 -2.6977271e-06 0)
(0.068373571 -3.1965178e-06 0)
(0.068585592 -3.5000076e-06 0)
(0.068890598 -3.5348397e-06 0)
(0.069266896 -3.5677324e-06 0)
(0.069702665 -3.626496e-06 0)
(0.070168641 -3.2888914e-06 0)
(0.070617832 -2.7001878e-06 0)
(0.07100338 -2.7590199e-06 0)
(0.071285288 -5.4065311e-06 0)
(0.07146331 -1.3797156e-06 0)
(0.071534809 -8.5423734e-07 0)
(0.071508693 -4.3216403e-07 0)
(0.071400269 -1.6086815e-07 0)
(0.071227262 2.7897894e-08 0)
(0.071005611 1.5862947e-07 0)
(0.070749642 2.213957e-07 0)
(0.070470973 2.5367258e-07 0)
(0.070177947 2.6481299e-07 0)
(0.069876824 2.6246658e-07 0)
(0.069572479 2.5156461e-07 0)
(0.069267799 2.4365424e-07 0)
(0.068964552 2.3337656e-07 0)
(0.068664751 2.1951529e-07 0)
(0.068368895 2.163433e-07 0)
(0.068077336 2.0746923e-07 0)
(0.067790531 2.1921997e-07 0)
(0.067498972 2.5021794e-07 0)
(0.067202522 2.576353e-07 0)
(0.066903864 2.6370052e-07 0)
(0.066604144 2.6291529e-07 0)
(0.066304011 2.6030653e-07 0)
(0.066002152 2.6644868e-07 0)
(0.065697959 2.6387339e-07 0)
(0.065391196 2.6637582e-07 0)
(0.065081607 2.6431347e-07 0)
(0.064769546 2.6250806e-07 0)
(0.064454969 2.6117676e-07 0)
(0.064138469 2.5630956e-07 0)
(0.063820136 2.55354e-07 0)
(0.063500359 2.4979507e-07 0)
(0.063179228 2.4865856e-07 0)
(0.062857406 2.4261638e-07 0)
(0.062532776 2.4905647e-07 0)
(0.062211337 2.2542966e-07 0)
(0.061870798 2.9578471e-07 0)
(0.061576318 1.0293884e-06 0)
(0.061138862 1.1362263e-05 0)
(0.060898481 1.9065064e-05 0)
(0.060225759 8.0176926e-06 0)
(0.95865693 0.028037383 0)
(0.94942243 0.038584625 0)
(0.93029861 0.041832221 0)
(0.88512736 0.039310002 0)
(0.82441952 0.032445917 0)
(0.75683586 0.023981671 0)
(0.69438729 0.015507656 0)
(0.64141146 0.0094025859 0)
(0.59778392 0.006030166 0)
(0.56172817 0.0043637193 0)
(0.53123735 0.0035604181 0)
(0.50477911 0.0030821743 0)
(0.48143835 0.0027038086 0)
(0.46059504 0.0023893446 0)
(0.44176206 0.0021299994 0)
(0.42461664 0.0018747298 0)
(0.40895153 0.0016542476 0)
(0.39455964 0.001482461 0)
(0.3812496 0.0013364465 0)
(0.36888535 0.001205212 0)
(0.35737262 0.0010889085 0)
(0.34661525 0.00098990655 0)
(0.3365242 0.00090288729 0)
(0.32703651 0.00082397326 0)
(0.3180982 0.0007533907 0)
(0.30965752 0.0006915491 0)
(0.30166724 0.00063581508 0)
(0.29409451 0.0005843053 0)
(0.28691378 0.00053736456 0)
(0.280097 0.00049513611 0)
(0.27361906 0.00045627951 0)
(0.26746356 0.00041996823 0)
(0.2616174 0.00038643516 0)
(0.2560662 0.00035558233 0)
(0.25079806 0.00032671475 0)
(0.24580636 0.00029945533 0)
(0.2410866 0.00027384271 0)
(0.23663522 0.00024961028 0)
(0.23245234 0.00022631773 0)
(0.22854272 0.00020377175 0)
(0.22491298 0.00018201921 0)
(0.22157028 0.00016092839 0)
(0.21852611 0.00014025376 0)
(0.21579108 0.00011997813 0)
(0.21338398 0.00010070612 0)
(0.21134404 9.2770938e-05 0)
(0.20966143 5.6366548e-05 0)
(0.20838371 3.7221449e-05 0)
(0.20751737 1.8320357e-05 0)
(0.20705303 7.7080929e-07 0)
(0.20697491 -1.4915937e-05 0)
(0.20725975 -2.8602422e-05 0)
(0.20787206 -3.9553858e-05 0)
(0.20875007 -4.7012796e-05 0)
(0.20982973 -5.1980978e-05 0)
(0.21105811 -5.4540618e-05 0)
(0.21234362 -5.2579021e-05 0)
(0.21356063 -4.6174444e-05 0)
(0.21458809 -3.7311668e-05 0)
(0.21532804 -2.4844331e-05 0)
(0.21576987 -1.4160584e-05 0)
(0.21591668 -4.680579e-06 0)
(0.2157929 3.058332e-06 0)
(0.21543869 8.9450259e-06 0)
(0.21490286 1.3109369e-05 0)
(0.21423009 1.585753e-05 0)
(0.21345985 1.7456286e-05 0)
(0.21262423 1.8261892e-05 0)
(0.21174719 1.8509916e-05 0)
(0.21084664 1.836503e-05 0)
(0.20993624 1.7959774e-05 0)
(0.20902454 1.7430599e-05 0)
(0.20811719 1.680545e-05 0)
(0.20721964 1.6115706e-05 0)
(0.20633385 1.545577e-05 0)
(0.2054608 1.4791243e-05 0)
(0.20460033 1.4462766e-05 0)
(0.20372486 1.4448186e-05 0)
(0.20283579 1.4264583e-05 0)
(0.20194119 1.3970498e-05 0)
(0.20104389 1.3626154e-05 0)
(0.20014471 1.3296141e-05 0)
(0.19924056 1.3035738e-05 0)
(0.19832968 1.2769275e-05 0)
(0.19741118 1.2531491e-05 0)
(0.19648459 1.2281461e-05 0)
(0.19555067 1.2028886e-05 0)
(0.19460961 1.1771857e-05 0)
(0.19366293 1.1495079e-05 0)
(0.19271117 1.1226978e-05 0)
(0.19175544 1.094009e-05 0)
(0.19079622 1.0662501e-05 0)
(0.1898353 1.0387031e-05 0)
(0.18886821 1.0122483e-05 0)
(0.18790794 9.9162498e-06 0)
(0.18690635 9.6539468e-06 0)
(0.18600587 1.166736e-05 0)
(0.18477551 3.991805e-05 0)
(0.18403513 6.4915979e-05 0)
(0.18205713 3.1864473e-05 0)
(0.968021 0.029705239 0)
(0.97310839 0.037719721 0)
(0.98239597 0.041542783 0)
(0.98425537 0.041012376 0)
(0.97938345 0.037117904 0)
(0.96361841 0.030604635 0)
(0.93926645 0.024144669 0)
(0.91012286 0.019115679 0)
(0.87836474 0.015500717 0)
(0.84616675 0.012898053 0)
(0.81516652 0.010958308 0)
(0.7857635 0.0094054234 0)
(0.75802674 0.0081194884 0)
(0.73187418 0.0070817835 0)
(0.70720259 0.0062341999 0)
(0.68395619 0.0055136336 0)
(0.66209736 0.0048996136 0)
(0.64153393 0.0043857071 0)
(0.62215448 0.0039461025 0)
(0.60387022 0.0035587057 0)
(0.58660991 0.0032174267 0)
(0.5702909 0.0029222665 0)
(0.55483276 0.0026629215 0)
(0.54017273 0.0024303867 0)
(0.52625868 0.0022225639 0)
(0.51303455 0.0020388641 0)
(0.50044799 0.0018738779 0)
(0.48845934 0.0017231473 0)
(0.47703584 0.0015859058 0)
(0.46614376 0.0014616022 0)
(0.45575336 0.0013475261 0)
(0.4458435 0.0012416533 0)
(0.43639693 0.0011437422 0)
(0.42739666 0.0010532683 0)
(0.41882913 0.00096877414 0)
(0.41068682 0.00088923365 0)
(0.40296572 0.00081434679 0)
(0.3956642 0.00074339998 0)
(0.38878514 0.00067538243 0)
(0.38233694 0.00060970028 0)
(0.37633138 0.00054622346 0)
(0.37078239 0.00048457742 0)
(0.36570949 0.00042419006 0)
(0.36113218 0.0003651317 0)
(0.35708148 0.00030447623 0)
(0.35360258 0.00026970717 0)
(0.35070295 0.00018835202 0)
(0.34841963 0.00012897235 0)
(0.3467561 7.4336956e-05 0)
(0.34569657 2.3980405e-05 0)
(0.34521214 -2.0890323e-05 0)
(0.34525878 -5.9579082e-05 0)
(0.3457796 -9.0684971e-05 0)
(0.34668444 -0.00011264863 0)
(0.3478807 -0.00012710315 0)
(0.34927737 -0.00013393363 0)
(0.35073288 -0.00012964776 0)
(0.35207427 -0.00011316512 0)
(0.35314454 -8.6122705e-05 0)
(0.35383143 -5.8607525e-05 0)
(0.35411563 -3.0430155e-05 0)
(0.35400474 -5.1833531e-06 0)
(0.35353248 1.5880702e-05 0)
(0.35275521 3.2023618e-05 0)
(0.35173753 4.355063e-05 0)
(0.35053879 5.1203745e-05 0)
(0.34921135 5.5686484e-05 0)
(0.34779835 5.7882603e-05 0)
(0.34633284 5.8453495e-05 0)
(0.34483976 5.7884192e-05 0)
(0.34333801 5.6561304e-05 0)
(0.34183977 5.4838719e-05 0)
(0.34035346 5.283406e-05 0)
(0.33888668 5.0653783e-05 0)
(0.3374425 4.851801e-05 0)
(0.33602211 4.6408699e-05 0)
(0.33462383 4.5194272e-05 0)
(0.33320752 4.4790732e-05 0)
(0.33178078 4.4004594e-05 0)
(0.33035328 4.2941571e-05 0)
(0.32892654 4.1794528e-05 0)
(0.32750004 4.0713264e-05 0)
(0.3260694 3.9809502e-05 0)
(0.32463172 3.8936793e-05 0)
(0.32318519 3.8138118e-05 0)
(0.32172892 3.7328429e-05 0)
(0.32026351 3.651627e-05 0)
(0.31878919 3.5693849e-05 0)
(0.31730778 3.4830294e-05 0)
(0.31582009 3.3979362e-05 0)
(0.31432756 3.3093826e-05 0)
(0.3128309 3.2220064e-05 0)
(0.31133251 3.1366343e-05 0)
(0.30982695 3.0511158e-05 0)
(0.30833002 2.9898194e-05 0)
(0.30678227 2.884344e-05 0)
(0.30535832 3.1872013e-05 0)
(0.30351968 7.2701225e-05 0)
(0.30231786 0.00011329252 0)
(0.29932031 8.5633919e-05 0)
(0.97006171 0.027082993 0)
(0.97641173 0.034264182 0)
(0.98546918 0.038377642 0)
(0.99343433 0.039211157 0)
(1.0016375 0.03617506 0)
(1.0025231 0.031199756 0)
(0.99956462 0.026291946 0)
(0.99332507 0.022247194 0)
(0.98419713 0.019368775 0)
(0.9725074 0.017347108 0)
(0.95868397 0.015776943 0)
(0.94312437 0.014350634 0)
(0.92570496 0.013015474 0)
(0.90736002 0.011781036 0)
(0.88854359 0.010669912 0)
(0.86954123 0.0096640398 0)
(0.8505547 0.0087606408 0)
(0.83170857 0.0079712747 0)
(0.81309321 0.0072753487 0)
(0.79480064 0.0066469849 0)
(0.77691112 0.0060790605 0)
(0.75946987 0.005573113 0)
(0.74250096 0.005117928 0)
(0.72602466 0.004703157 0)
(0.71005926 0.0043267347 0)
(0.69460673 0.0039882494 0)
(0.67966139 0.0036808962 0)
(0.66522022 0.0033985904 0)
(0.65127933 0.0031398782 0)
(0.63782897 0.0029035807 0)
(0.62485915 0.0026856165 0)
(0.61236441 0.0024827933 0)
(0.60034036 0.0022943286 0)
(0.5887815 0.0021191274 0)
(0.5776848 0.0019548481 0)
(0.56705262 0.001799715 0)
(0.55689086 0.0016530732 0)
(0.54720546 0.0015137614 0)
(0.53800525 0.0013801062 0)
(0.52930383 0.0012510242 0)
(0.52111829 0.0011261205 0)
(0.51346838 0.0010046978 0)
(0.5063793 0.00088581971 0)
(0.4998765 0.00076955307 0)
(0.4939984 0.00065133364 0)
(0.48878527 0.00056247984 0)
(0.48424689 0.00042690893 0)
(0.48039811 0.00031382362 0)
(0.47722957 0.00020987141 0)
(0.4747209 0.00011540431 0)
(0.47284003 3.113961e-05 0)
(0.4715407 -4.1567903e-05 0)
(0.47075669 -0.00010020658 0)
(0.47039198 -0.00014255319 0)
(0.47035949 -0.00017134053 0)
(0.47055003 -0.00018594474 0)
(0.47079764 -0.00017851269 0)
(0.47093208 -0.00015120298 0)
(0.47082317 -0.00010240028 0)
(0.47038732 -6.1205767e-05 0)
(0.46961386 -1.5055332e-05 0)
(0.46851101 2.6005194e-05 0)
(0.46711362 6.0013083e-05 0)
(0.46546951 8.5891897e-05 0)
(0.46363193 0.00010413511 0)
(0.46165064 0.00011591991 0)
(0.45957086 0.00012240628 0)
(0.45743099 0.00012500538 0)
(0.45526143 0.00012481932 0)
(0.45308569 0.00012268276 0)
(0.45092168 0.00011927242 0)
(0.44878096 0.00011516926 0)
(0.44667238 0.00011058898 0)
(0.44460344 0.00010574303 0)
(0.44257698 0.00010099549 0)
(0.44059356 9.6397151e-05 0)
(0.43864902 9.2968141e-05 0)
(0.43673482 9.0751242e-05 0)
(0.43484394 8.8375963e-05 0)
(0.43297204 8.5819827e-05 0)
(0.43111502 8.3259887e-05 0)
(0.42927002 8.0883876e-05 0)
(0.42743156 7.8843021e-05 0)
(0.42559542 7.6920242e-05 0)
(0.42375863 7.5153647e-05 0)
(0.42191924 7.3407492e-05 0)
(0.42007697 7.1680967e-05 0)
(0.41823138 6.9954185e-05 0)
(0.41638365 6.8178818e-05 0)
(0.41453423 6.6429996e-05 0)
(0.41268404 6.4642942e-05 0)
(0.41083353 6.2874885e-05 0)
(0.40898492 6.1162766e-05 0)
(0.40713213 5.9427747e-05 0)
(0.4052915 5.8208299e-05 0)
(0.40339977 5.5999196e-05 0)
(0.40163746 5.9931957e-05 0)
(0.39945528 0.00010775819 0)
(0.39792228 0.00015888004 0)
(0.39438348 7.2213843e-05 0)
(0.97241817 0.025563223 0)
(0.97777739 0.032399541 0)
(0.98586704 0.036407103 0)
(0.99417394 0.037068088 0)
(1.0012533 0.034667607 0)
(1.0056055 0.030635171 0)
(1.0079422 0.026371742 0)
(1.007092 0.022757013 0)
(1.005283 0.020142195 0)
(1.0027744 0.01835438 0)
(0.99956751 0.017018293 0)
(0.99556234 0.015924898 0)
(0.99026959 0.014972886 0)
(0.98359848 0.014080126 0)
(0.97556361 0.013227076 0)
(0.96628872 0.012374395 0)
(0.95567336 0.011538559 0)
(0.94416958 0.010748199 0)
(0.93197383 0.010010797 0)
(0.9192286 0.0093183363 0)
(0.90605017 0.0086720258 0)
(0.89254156 0.0080781341 0)
(0.87877997 0.0075283589 0)
(0.86485148 0.0070129272 0)
(0.85084043 0.006531312 0)
(0.83681498 0.0060857461 0)
(0.82283328 0.005670807 0)
(0.80894996 0.0052814969 0)
(0.79521242 0.0049178873 0)
(0.78165717 0.0045799735 0)
(0.7683155 0.0042637965 0)
(0.7552181 0.0039661437 0)
(0.74239272 0.0036864624 0)
(0.72986281 0.003423573 0)
(0.71765181 0.0031745657 0)
(0.70578753 0.0029371753 0)
(0.69429864 0.0027110555 0)
(0.68320208 0.0024952537 0)
(0.67251641 0.0022876283 0)
(0.66226511 0.0020865516 0)
(0.65247476 0.0018912935 0)
(0.6431738 0.0017008273 0)
(0.63439487 0.0015139372 0)
(0.62617013 0.0013299015 0)
(0.61855134 0.0011474807 0)
(0.61155575 0.00096743823 0)
(0.60518039 0.00078964987 0)
(0.59942254 0.00062348739 0)
(0.5942754 0.00046698988 0)
(0.58973003 0.00032307115 0)
(0.58576692 0.00019445237 0)
(0.58235403 8.3159658e-05 0)
(0.57943381 -7.3678292e-06 0)
(0.57692357 -7.4773136e-05 0)
(0.57477095 -0.00012101737 0)
(0.57282571 -0.00014221753 0)
(0.57091024 -0.0001344424 0)
(0.56891515 -0.00010077549 0)
(0.56678801 -3.8157871e-05 0)
(0.56449584 8.8513376e-06 0)
(0.56204677 6.4622089e-05 0)
(0.55944782 0.00011375405 0)
(0.55671794 0.00015386327 0)
(0.55388103 0.00018372071 0)
(0.55096497 0.00020398101 0)
(0.547997 0.00021608242 0)
(0.5450037 0.00022144909 0)
(0.54200902 0.00022183961 0)
(0.53903286 0.00021865417 0)
(0.53609125 0.00021298134 0)
(0.53319653 0.00020572339 0)
(0.53035655 0.00019762163 0)
(0.5275786 0.00018896127 0)
(0.52486801 0.00018005963 0)
(0.52222592 0.00017141244 0)
(0.51965137 0.00016314995 0)
(0.51713848 0.00015642909 0)
(0.5146956 0.00015122205 0)
(0.51231156 0.00014604951 0)
(0.50997387 0.00014099686 0)
(0.50767356 0.0001361861 0)
(0.50540518 0.00013177249 0)
(0.50316204 0.00012791443 0)
(0.50093861 0.00012432501 0)
(0.49873068 0.00012102805 0)
(0.49653498 0.00011783542 0)
(0.49434989 0.00011472998 0)
(0.49217383 0.00011167397 0)
(0.4900068 0.00010859865 0)
(0.48784829 0.00010559318 0)
(0.48569827 0.00010257481 0)
(0.48355649 9.960395e-05 0)
(0.48142439 9.6751721e-05 0)
(0.47929521 9.386586e-05 0)
(0.47718467 9.1820045e-05 0)
(0.47502886 8.8199011e-05 0)
(0.47300308 9.2818113e-05 0)
(0.47058328 0.00014345076 0)
(0.46878788 0.00019853688 0)
(0.46489917 0.00013880009 0)
(0.97460694 0.02451125 0)
(0.97929986 0.030793631 0)
(0.98637245 0.034468319 0)
(0.99378436 0.035112142 0)
(1.0001794 0.033233145 0)
(1.0048051 0.029795126 0)
(1.0072974 0.025981762 0)
(1.0082815 0.022699174 0)
(1.0079572 0.020248753 0)
(1.0074036 0.018530141 0)
(1.0067727 0.017264315 0)
(1.006015 0.016265842 0)
(1.0049833 0.015425748 0)
(1.0035632 0.014655871 0)
(1.0016409 0.013931494 0)
(0.99915049 0.0132613 0)
(0.99585618 0.012640927 0)
(0.9917046 0.012047192 0)
(0.98668058 0.011472483 0)
(0.98079812 0.010900513 0)
(0.97399112 0.010332395 0)
(0.96644959 0.0097857744 0)
(0.95826075 0.0092609119 0)
(0.94948934 0.008755627 0)
(0.94019262 0.0082721471 0)
(0.93042684 0.0078135622 0)
(0.92025136 0.007375653 0)
(0.90972255 0.006954521 0)
(0.89889751 0.0065513956 0)
(0.88783242 0.0061675067 0)
(0.87658173 0.0057998355 0)
(0.86520041 0.0054462673 0)
(0.85374089 0.0051076505 0)
(0.84224988 0.0047837997 0)
(0.83077199 0.0044722516 0)
(0.81935253 0.0041710633 0)
(0.80803655 0.0038799725 0)
(0.79686872 0.0035983238 0)
(0.78589271 0.0033244973 0)
(0.77515246 0.0030571402 0)
(0.76469158 0.0027956767 0)
(0.75455362 0.0025390095 0)
(0.74478523 0.0022858343 0)
(0.73543298 0.0020344995 0)
(0.72657563 0.001786707 0)
(0.71814982 0.0015459078 0)
(0.71016451 0.0013126735 0)
(0.70266264 0.001087612 0)
(0.69567064 0.00087553118 0)
(0.68919789 0.0006804617 0)
(0.68323495 0.00050525107 0)
(0.67775344 0.00035302074 0)
(0.67269896 0.00022778444 0)
(0.66801738 0.00013018898 0)
(0.66370854 6.447757e-05 0)
(0.65949315 3.4856549e-05 0)
(0.65524343 3.9023786e-05 0)
(0.65098565 6.9743531e-05 0)
(0.64674899 0.00013239691 0)
(0.6425306 0.0001742323 0)
(0.63834332 0.00022723194 0)
(0.63418672 0.00027357365 0)
(0.63006203 0.00031047977 0)
(0.62597163 0.00033660622 0)
(0.62192171 0.00035258501 0)
(0.61791953 0.00035987668 0)
(0.61397361 0.00035994214 0)
(0.61009293 0.0003546664 0)
(0.60628579 0.00034556188 0)
(0.60255936 0.00033382589 0)
(0.5989198 0.00032046648 0)
(0.59537158 0.00030634779 0)
(0.59191716 0.00029180529 0)
(0.58855842 0.00027720838 0)
(0.58529424 0.00026315102 0)
(0.58212193 0.00024982842 0)
(0.57903516 0.00023824399 0)
(0.57603644 0.0002283992 0)
(0.57312096 0.00021907484 0)
(0.57027831 0.00021036297 0)
(0.56749817 0.00020226203 0)
(0.56477343 0.00019486416 0)
(0.5620964 0.00018831664 0)
(0.55946054 0.00018226143 0)
(0.5568605 0.00017670111 0)
(0.55429178 0.00017139427 0)
(0.55175137 0.00016630163 0)
(0.54923638 0.00016136244 0)
(0.54674541 0.00015648351 0)
(0.54427677 0.00015175691 0)
(0.54182961 0.00014708223 0)
(0.53940249 0.00014252132 0)
(0.53699562 0.00013817933 0)
(0.53460143 0.00013381487 0)
(0.53223439 0.0001306646 0)
(0.52983155 0.00012534995 0)
(0.52755837 0.00013021442 0)
(0.52492334 0.00018089581 0)
(0.52289399 0.00023769039 0)
(0.51869683 0.00018391018 0)
(0.97657921 0.023525557 0)
(0.98074032 0.029152005 0)
(0.98699805 0.032517047 0)
(0.99361498 0.033275294 0)
(0.99942335 0.031814828 0)
(1.0037362 0.028880852 0)
(1.0062824 0.025504633 0)
(1.0074357 0.02252264 0)
(1.0077511 0.020237356 0)
(1.0077293 0.018572861 0)
(1.0076304 0.017320089 0)
(1.0075248 0.016320072 0)
(1.0074035 0.015486239 0)
(1.0072217 0.014746531 0)
(1.0069172 0.014073004 0)
(1.0064503 0.013465119 0)
(1.0057757 0.01291188 0)
(1.0048383 0.012389165 0)
(1.0035783 0.011892166 0)
(1.0019418 0.011425574 0)
(0.99979889 0.010985009 0)
(0.99709601 0.010557727 0)
(0.99380806 0.010138743 0)
(0.98991004 0.0097203345 0)
(0.98535807 0.0093042204 0)
(0.9802318 0.008898503 0)
(0.97455872 0.0085017045 0)
(0.9683642 0.0081123491 0)
(0.96167271 0.007732935 0)
(0.95450947 0.0073648405 0)
(0.94690412 0.0070048979 0)
(0.93889275 0.0066511171 0)
(0.93051257 0.0063053891 0)
(0.92179241 0.0059681629 0)
(0.91276963 0.0056369841 0)
(0.90348453 0.0053103606 0)
(0.89397725 0.0049891757 0)
(0.88429498 0.0046734567 0)
(0.87448732 0.0043615851 0)
(0.86460554 0.0040524477 0)
(0.854702 0.0037459606 0)
(0.84483039 0.0034414408 0)
(0.83504724 0.0031378899 0)
(0.82541235 0.0028338156 0)
(0.8159908 0.0025298236 0)
(0.80682033 0.0022349195 0)
(0.7979055 0.0019521882 0)
(0.7892792 0.0016794374 0)
(0.78097548 0.0014203843 0)
(0.7730214 0.0011792925 0)
(0.76543 0.00096023447 0)
(0.75819685 0.00076771618 0)
(0.75129577 0.00060619602 0)
(0.74472221 0.00047491575 0)
(0.73849821 0.00038033184 0)
(0.73243092 0.00033258367 0)
(0.7264248 0.00032640498 0)
(0.72050165 0.00034713858 0)
(0.71468314 0.00039820633 0)
(0.70896362 0.00042944636 0)
(0.70336228 0.00047081441 0)
(0.69788291 0.00050583983 0)
(0.69252359 0.00053191438 0)
(0.68728224 0.00054759642 0)
(0.68216061 0.00055344444 0)
(0.67715869 0.00055092063 0)
(0.67227599 0.00054143285 0)
(0.66751342 0.00052685253 0)
(0.66287236 0.00050868385 0)
(0.65835374 0.00048814554 0)
(0.65395886 0.0004662621 0)
(0.64968938 0.0004439247 0)
(0.64554414 0.00042148869 0)
(0.64152215 0.0003993714 0)
(0.63762021 0.00037823368 0)
(0.63383395 0.00035829491 0)
(0.63015698 0.0003404623 0)
(0.62658672 0.00032470578 0)
(0.6231202 0.0003099228 0)
(0.61975008 0.00029626557 0)
(0.61646715 0.00028366638 0)
(0.61326399 0.00027216229 0)
(0.61013248 0.00026188232 0)
(0.60706539 0.0002523973 0)
(0.6040565 0.00024368453 0)
(0.60110024 0.00023544929 0)
(0.59819233 0.00022762598 0)
(0.59532857 0.00022012633 0)
(0.59250618 0.00021282827 0)
(0.58972215 0.00020581972 0)
(0.58697458 0.00019897781 0)
(0.58426076 0.0001923601 0)
(0.5815796 0.0001861057 0)
(0.5789227 0.00017987384 0)
(0.57630293 0.00017527455 0)
(0.57365889 0.00016795219 0)
(0.57114525 0.0001726155 0)
(0.56830032 0.00022164803 0)
(0.5660543 0.0002796848 0)
(0.56156621 0.00022973688 0)
(0.97837909 0.022612421 0)
(0.98208181 0.027631431 0)
(0.98762729 0.030750519 0)
(0.9935669 0.031603661 0)
(0.99887329 0.030476151 0)
(1.0029093 0.027993904 0)
(1.0054327 0.02502825 0)
(1.0066782 0.022315723 0)
(1.0071597 0.020162572 0)
(1.007328 0.018544689 0)
(1.0074188 0.017307472 0)
(1.007499 0.016313417 0)
(1.0075621 0.015480858 0)
(1.0076314 0.014746713 0)
(1.0076692 0.014084223 0)
(1.0076545 0.013487817 0)
(1.0075955 0.012948534 0)
(1.0074757 0.012448624 0)
(1.0072695 0.011982734 0)
(1.0069544 0.011552562 0)
(1.0065012 0.011151088 0)
(1.005872 0.010766568 0)
(1.0050278 0.010396692 0)
(1.0039232 0.010044051 0)
(1.0024794 0.0097058092 0)
(1.0006544 0.0093754772 0)
(0.99841895 0.0090486389 0)
(0.99573491 0.0087210997 0)
(0.99257853 0.0083948294 0)
(0.98897639 0.0080729775 0)
(0.9849303 0.0077538089 0)
(0.98044003 0.0074359617 0)
(0.97550851 0.0071208361 0)
(0.97014447 0.0068090349 0)
(0.96435709 0.0064983984 0)
(0.95815961 0.006187351 0)
(0.95156659 0.0058765247 0)
(0.94459567 0.0055657925 0)
(0.93726196 0.0052536578 0)
(0.92958675 0.0049389804 0)
(0.92159932 0.0046217236 0)
(0.91333319 0.0043013212 0)
(0.90482575 0.0039766909 0)
(0.89612359 0.0036464205 0)
(0.88725575 0.0033129214 0)
(0.87835585 0.0029857754 0)
(0.8694745 0.0026668639 0)
(0.86062777 0.0023565959 0)
(0.85184398 0.0020593943 0)
(0.84316048 0.0017797788 0)
(0.83461809 0.0015223871 0)
(0.82625625 0.0012926206 0)
(0.81810869 0.0010959254 0)
(0.81019753 0.0009315525 0)
(0.8025166 0.00080657751 0)
(0.79516077 0.00073663563 0)
(0.78799224 0.0007126825 0)
(0.78099278 0.00071539831 0)
(0.77411369 0.00074666461 0)
(0.76733022 0.00076315205 0)
(0.76067231 0.00078742417 0)
(0.75414728 0.00080587079 0)
(0.74775553 0.00081613058 0)
(0.74150572 0.00081650807 0)
(0.73540919 0.00080762389 0)
(0.7294674 0.00079112152 0)
(0.72367994 0.00076831109 0)
(0.71804883 0.00074099432 0)
(0.7125744 0.00071068038 0)
(0.707255 0.0006785733 0)
(0.70208965 0.00064563074 0)
(0.69707837 0.00061275244 0)
(0.69221919 0.00058031924 0)
(0.68750969 0.00054875561 0)
(0.68294527 0.00051876263 0)
(0.67852025 0.00049054869 0)
(0.67422824 0.00046497269 0)
(0.67006421 0.00044194147 0)
(0.6660247 0.00042034323 0)
(0.6621041 0.00040039207 0)
(0.65829478 0.0003819929 0)
(0.65458991 0.00036514883 0)
(0.65098142 0.00034997686 0)
(0.6474617 0.00033598066 0)
(0.6440239 0.00032311167 0)
(0.64066151 0.00031102294 0)
(0.63736912 0.00029962016 0)
(0.63414131 0.00028878406 0)
(0.6309739 0.00027835984 0)
(0.62786259 0.00026842274 0)
(0.62480401 0.00025882426 0)
(0.62179431 0.00024961523 0)
(0.61883115 0.00024096385 0)
(0.61590524 0.00023242218 0)
(0.61302776 0.00022597393 0)
(0.61013883 0.00021629285 0)
(0.60738298 0.00022035681 0)
(0.60432278 0.0002667727 0)
(0.60186579 0.00032648626 0)
(0.59708574 0.00027676605 0)
(0.98002353 0.021775341 0)
(0.98333497 0.026246713 0)
(0.98824636 0.029130802 0)
(0.9935718 0.030039921 0)
(0.99841892 0.02919214 0)
(1.0022108 0.027112988 0)
(1.0047032 0.024524265 0)
(1.0060479 0.022066406 0)
(1.0066572 0.020048485 0)
(1.0069306 0.018488211 0)
(1.0070994 0.017271906 0)
(1.007245 0.016284969 0)
(1.0073813 0.015454029 0)
(1.0075107 0.01472444 0)
(1.0076211 0.014068849 0)
(1.0077099 0.013477198 0)
(1.0077774 0.012940856 0)
(1.0078442 0.012445779 0)
(1.0078778 0.011987698 0)
(1.007874 0.011565911 0)
(1.0078399 0.011174118 0)
(1.0077631 0.010804343 0)
(1.0076275 0.010453864 0)
(1.0074163 0.010123488 0)
(1.0071091 0.0098094936 0)
(1.0066793 0.0095063234 0)
(1.0061003 0.0092125073 0)
(1.0053337 0.0089282947 0)
(1.0043295 0.0086516464 0)
(1.0030541 0.0083792606 0)
(1.0014829 0.0081073783 0)
(0.99957162 0.0078331605 0)
(0.99730633 0.0075587081 0)
(0.9946904 0.0072850989 0)
(0.99171357 0.0070103783 0)
(0.98836344 0.0067331529 0)
(0.98462952 0.0064537074 0)
(0.98050232 0.0061714074 0)
(0.97597715 0.0058845601 0)
(0.97105045 0.0055922255 0)
(0.96571781 0.0052942928 0)
(0.95997517 0.0049899575 0)
(0.95381917 0.0046776729 0)
(0.94725174 0.0043567507 0)
(0.94026249 0.0040282752 0)
(0.93288313 0.0036972836 0)
(0.9251979 0.0033676041 0)
(0.91725509 0.0030430633 0)
(0.90909341 0.0027292404 0)
(0.90075346 0.0024305153 0)
(0.89228376 0.0021513591 0)
(0.88374327 0.0018971867 0)
(0.87520214 0.0016732741 0)
(0.86671072 0.0014805189 0)
(0.85826783 0.0013256787 0)
(0.85007153 0.0012209191 0)
(0.84218673 0.0011643046 0)
(0.83453999 0.0011447248 0)
(0.82696287 0.001155614 0)
(0.81946707 0.0011568408 0)
(0.81208276 0.0011631412 0)
(0.80479129 0.0011640233 0)
(0.79760053 0.0011566372 0)
(0.79053849 0.0011392947 0)
(0.78362309 0.0011131397 0)
(0.77685682 0.0010800658 0)
(0.77024844 0.0010411965 0)
(0.7638091 0.000998392 0)
(0.75754111 0.00095334184 0)
(0.75144418 0.00090721193 0)
(0.74552018 0.00086085774 0)
(0.73977052 0.00081521568 0)
(0.7341934 0.00077069483 0)
(0.72878686 0.00072771771 0)
(0.72354654 0.00068702275 0)
(0.71846663 0.00064878984 0)
(0.71354147 0.0006138356 0)
(0.70876583 0.00058200433 0)
(0.70413579 0.00055212896 0)
(0.6996464 0.00052445703 0)
(0.6952914 0.00049887004 0)
(0.69106496 0.00047535508 0)
(0.68695944 0.00045402935 0)
(0.6829672 0.00043433628 0)
(0.67908102 0.00041620451 0)
(0.67529369 0.0003992368 0)
(0.67159885 0.00038330903 0)
(0.66798999 0.0003682687 0)
(0.66446168 0.00035392494 0)
(0.66100835 0.00034033625 0)
(0.65762521 0.00032732348 0)
(0.65430718 0.00031492336 0)
(0.65105067 0.00030332881 0)
(0.64784552 0.00029197981 0)
(0.64470118 0.00028322959 0)
(0.64155911 0.00027079388 0)
(0.63855481 0.00027386871 0)
(0.63526959 0.00031708764 0)
(0.63260034 0.00037937808 0)
(0.62751815 0.00032681306 0)
(0.98152572 0.021000273 0)
(0.98450029 0.024975597 0)
(0.98885111 0.027626494 0)
(0.99361926 0.028568825 0)
(0.99804043 0.027961629 0)
(1.001595 0.026237432 0)
(1.0040399 0.023991447 0)
(1.0054652 0.021779126 0)
(1.0061964 0.019902847 0)
(1.0065753 0.018410569 0)
(1.006817 0.017222766 0)
(1.0070092 0.016246852 0)
(1.0071781 0.015419426 0)
(1.0073318 0.014693564 0)
(1.0074699 0.014042361 0)
(1.0075914 0.013454385 0)
(1.0076993 0.012920685 0)
(1.0077968 0.012429748 0)
(1.0078787 0.011976237 0)
(1.0079488 0.01155721 0)
(1.0080061 0.011167549 0)
(1.0080631 0.010800653 0)
(1.0081004 0.010455005 0)
(1.0081082 0.01013048 0)
(1.0080944 0.0098232347 0)
(1.0080497 0.009529863 0)
(1.0079644 0.0092487115 0)
(1.0078249 0.0089786293 0)
(1.0076164 0.0087176511 0)
(1.0073189 0.0084631218 0)
(1.0069134 0.0082141594 0)
(1.0063673 0.0079700253 0)
(1.0056474 0.0077289795 0)
(1.0047266 0.0074891187 0)
(1.0035845 0.007247403 0)
(1.0021772 0.007001746 0)
(1.0004987 0.0067531726 0)
(0.99853348 0.0065016764 0)
(0.99626494 0.006245912 0)
(0.99367462 0.0059844802 0)
(0.99074255 0.0057169063 0)
(0.987447 0.0054424754 0)
(0.98376435 0.0051594985 0)
(0.97966941 0.0048673989 0)
(0.97513194 0.0045661112 0)
(0.97011401 0.004259022 0)
(0.96461494 0.0039492856 0)
(0.95865252 0.0036399083 0)
(0.95224102 0.0033363623 0)
(0.94539859 0.0030431972 0)
(0.93815178 0.0027646258 0)
(0.93053999 0.0025054622 0)
(0.92262067 0.0022710935 0)
(0.91446307 0.0020650241 0)
(0.90611153 0.001891043 0)
(0.89769572 0.0017593336 0)
(0.88944528 0.00167254 0)
(0.8813835 0.0016216193 0)
(0.87349402 0.0016048354 0)
(0.86574082 0.0015894535 0)
(0.85804943 0.001581047 0)
(0.85034853 0.0015671214 0)
(0.84269681 0.0015428614 0)
(0.8351323 0.0015080938 0)
(0.82765252 0.0014647258 0)
(0.82027183 0.0014142852 0)
(0.81302075 0.001357979 0)
(0.80591783 0.001298174 0)
(0.79896681 0.0012367745 0)
(0.79217654 0.0011748125 0)
(0.78555823 0.0011131378 0)
(0.7791165 0.0010528716 0)
(0.77285192 0.00099443194 0)
(0.76676647 0.00093821569 0)
(0.76085881 0.00088504234 0)
(0.75512509 0.00083506189 0)
(0.74956251 0.00078903873 0)
(0.74416786 0.00074678561 0)
(0.73893768 0.00070708719 0)
(0.73386787 0.00067019692 0)
(0.72895364 0.00063596384 0)
(0.72419026 0.00060437201 0)
(0.71957095 0.00057554863 0)
(0.71508857 0.00054888526 0)
(0.71073584 0.00052429513 0)
(0.70650518 0.0005013333 0)
(0.70238961 0.00047984595 0)
(0.6983818 0.00045964686 0)
(0.69447528 0.00044050676 0)
(0.69066332 0.00042246448 0)
(0.6869399 0.0004053057 0)
(0.68329871 0.00038904626 0)
(0.67973494 0.00037389842 0)
(0.67623757 0.00035918606 0)
(0.67281434 0.00034762626 0)
(0.6694078 0.00033198875 0)
(0.66614568 0.00033366441 0)
(0.66262334 0.00037326076 0)
(0.65973584 0.00043922115 0)
(0.65433611 0.00038064483 0)
(0.982899 0.020276061 0)
(0.98558099 0.023806548 0)
(0.98943899 0.026233584 0)
(0.99370488 0.027193722 0)
(0.99773222 0.026790665 0)
(1.0010545 0.025375235 0)
(1.0034346 0.023438847 0)
(1.0049153 0.021460101 0)
(1.0057496 0.019726383 0)
(1.0062264 0.018308105 0)
(1.0065416 0.017155389 0)
(1.0067848 0.016196016 0)
(1.0069884 0.015376501 0)
(1.0071659 0.01465662 0)
(1.0073221 0.014010885 0)
(1.0074592 0.013427126 0)
(1.0075814 0.012896478 0)
(1.0076923 0.012408761 0)
(1.0077926 0.011958022 0)
(1.0078839 0.011540958 0)
(1.0079684 0.011152817 0)
(1.008047 0.010788207 0)
(1.0081165 0.010445286 0)
(1.0081785 0.01012264 0)
(1.0082337 0.0098172642 0)
(1.008282 0.0095255637 0)
(1.0083302 0.009246915 0)
(1.0083488 0.0089810609 0)
(1.0083518 0.0087250438 0)
(1.0083318 0.0084773002 0)
(1.008282 0.008237032 0)
(1.008192 0.0080024487 0)
(1.00805 0.0077720157 0)
(1.0078407 0.0075442818 0)