/*--------------------------------*- C++ -*----------------------------------*\
| =========                 |                                                 |
| \\      /  F ield         | OpenFOAM: The Open Source CFD Toolbox           |
|  \\    /   O peration     | Version:  2206                                  |
|   \\  /    A nd           | Website:  www.openfoam.com                      |
|    \\/     M anipulation  |                                                 |
\*---------------------------------------------------------------------------*/
FoamFile
{
    version     2.0;
    format      ascii;
    arch        "LSB;label=32;scalar=64";
    class       volScalarField;
    location    "800";
    object      epsilon;
}
// * * * * * * * * * * * * * * * * * * * * * * * * * * * * * * * * * * * * * //

dimensions      [0 2 -3 0 0 0 0];

internalField   nonuniform List<scalar> 
7480
(
5.772568
15.517729
18.080712
15.976108
12.851368
10.350253
8.6628314
7.5100754
6.6635744
5.9993522
5.4606392
5.019249
4.6561612
4.3563071
4.1074829
3.8994126
3.7244456
3.5768199
3.4511699
3.3442047
3.2510955
3.1692194
3.096317
3.0305282
2.9706234
2.9156027
2.864773
2.8174561
2.7730555
2.7310819
2.6912531
2.6533709
2.6172277
2.5826517
2.5494489
2.5175333
2.4866435
2.4567325
2.4277211
2.3995099
2.372026
2.3452054
2.3189992
2.2933747
2.2682915
2.2437232
2.2196337
2.1959845
2.1727535
2.1499179
2.1274592
2.1053652
2.0836208
2.0622174
2.0411407
2.02038
1.9999269
1.979768
1.9598914
1.9402885
1.920957
1.9018929
1.8830895
1.8645413
1.8462437
1.8281922
1.8103797
1.7928007
1.7754514
1.7583284
1.7414277
1.724745
1.7082767
1.6920202
1.6759714
1.6601261
1.6444806
1.6290314
1.6137748
1.5987076
1.5838259
1.5691262
1.5546047
1.5402571
1.5260796
1.5120669
1.4982141
1.4845142
1.470962
1.4575435
1.4442584
1.431065
1.4180015
1.4049007
1.3920078
1.3786258
1.3658021
1.3510252
1.3392196
1.3169068
0.34581095
1.5983635
2.840032
3.2969688
3.1716883
2.8630276
2.5616828
2.3169369
2.1180611
1.9478954
1.7994826
1.671212
1.5616913
1.4687313
1.3898985
1.3225049
1.2647522
1.2152715
1.1727408
1.1358807
1.1035757
1.0749142
1.0491606
1.025779
1.0044059
0.98472971
0.96653318
0.9495749
0.93365111
0.91860276
0.90433456
0.89077691
0.87785808
0.86551561
0.85367547
0.84231294
0.83132676
0.82070507
0.81042206
0.80044055
0.79073149
0.78127313
0.77204775
0.76304138
0.75423969
0.74563208
0.73720453
0.72894367
0.72084002
0.71288557
0.70507371
0.69739886
0.68985553
0.68243946
0.67514543
0.66796951
0.66090785
0.65395557
0.64710792
0.64036185
0.63371596
0.62716856
0.62071695
0.61435882
0.60809234
0.60191564
0.59582597
0.58982119
0.58389984
0.57806049
0.57230151
0.56662119
0.56101817
0.55549132
0.55003908
0.54465985
0.53935218
0.53411476
0.52894624
0.52384533
0.51881069
0.51384096
0.50893481
0.50409075
0.49930737
0.49458298
0.4899159
0.48530396
0.48074529
0.47623616
0.47177533
0.46735318
0.46297527
0.45860601
0.45429045
0.44988354
0.44558622
0.44086058
0.43682811
0.42960446
0.010383576
0.063356741
0.16347709
0.28130613
0.38465081
0.47580759
0.55941023
0.63090693
0.68659081
0.7278454
0.75628232
0.77268027
0.77836876
0.7755858
0.7669187
0.75475852
0.74077089
0.725945
0.71087148
0.69587259
0.68116285
0.66687326
0.65305777
0.63976974
0.62704838
0.61488106
0.60331626
0.5922839
0.58173511
0.57162922
0.56195221
0.55268538
0.54380248
0.53527822
0.52707443
0.51918686
0.51155658
0.50418581
0.49705932
0.49015528
0.48345615
0.47694885
0.47062229
0.46446622
0.45847066
0.4526277
0.44692705
0.44135982
0.43591877
0.4305978
0.42539179
0.42029566
0.41530476
0.41041493
0.40562175
0.40092183
0.39631144
0.39178665
0.38734366
0.38297985
0.37869331
0.374482
0.37034341
0.36627535
0.36227595
0.35834332
0.35447518
0.35066964
0.34692528
0.34324061
0.33961411
0.33604429
0.33252982
0.32906956
0.32566212
0.32230615
0.31900044
0.31574382
0.31253516
0.30937336
0.30625732
0.30318597
0.30015822
0.29717297
0.29422914
0.29132555
0.28846101
0.28563415
0.28284362
0.28008751
0.27736437
0.27467034
0.27200532
0.2693572
0.266736
0.26409515
0.26148707
0.25872665
0.25625477
0.25197257
0.00038681954
0.00252578
0.0090407986
0.019120065
0.031907864
0.047031022
0.066656853
0.090935377
0.12641028
0.17012642
0.21720414
0.26296508
0.30604254
0.34541978
0.37984819
0.40822257
0.43006803
0.44566192
0.45585572
0.46169981
0.46416826
0.46405485
0.46197963
0.45843159
0.45381475
0.44843448
0.44255269
0.43635272
0.42996185
0.42348036
0.41698476
0.41053307
0.40416535
0.39791179
0.39178164
0.38579974
0.37993276
0.37421402
0.36863815
0.3632033
0.3579065
0.35274489
0.34771546
0.3428146
0.33803807
0.33338225
0.32884114
0.32441005
0.32008468
0.31586118
0.31173612
0.30770581
0.30376686
0.29991593
0.29614949
0.29246465
0.28885826
0.28532712
0.28186812
0.27847896
0.27515766
0.2719022
0.26871029
0.26557987
0.26250913
0.25949619
0.25653903
0.2536359
0.25078537
0.24798595
0.2452362
0.24253466
0.23988004
0.23727114
0.23470667
0.23218536
0.22970606
0.22726766
0.2248691
0.22250932
0.22018733
0.21790212
0.21565271
0.21343813
0.2112574
0.20910955
0.20699356
0.20490836
0.20285283
0.20082569
0.19882558
0.19685058
0.19489904
0.19296666
0.19105282
0.18914329
0.18724468
0.18528919
0.18348444
0.18042975
4.4527721e-05
0.00015078196
0.00053756011
0.0014183547
0.0029001786
0.0048970658
0.0074148753
0.010623351
0.015143818
0.021856613
0.031411196
0.046256789
0.066513709
0.090981133
0.11831312
0.1473366
0.17715566
0.20659407
0.23421949
0.25869117
0.27914915
0.29537115
0.30764546
0.31650943
0.32254065
0.32624861
0.32807992
0.32841987
0.3275943
0.32586654
0.3234456
0.32050028
0.31716544
0.31354769
0.30972828
0.30578293
0.30174099
0.29765248
0.29354984
0.2894553
0.28538633
0.28135756
0.27738019
0.27346243
0.26961018
0.26582842
0.26211846
0.25848114
0.2549168
0.25142571
0.24800795
0.24466286
0.24138949
0.23818661
0.23505262
0.23198609
0.22898521
0.22604802
0.22317245
0.22035694
0.21760009
0.21490042
0.21225621
0.20966584
0.20712781
0.20464056
0.20220243
0.19981197
0.1974679
0.19516893
0.19291376
0.19070112
0.18852981
0.18639875
0.18430675
0.18225269
0.18023552
0.17825421
0.17630779
0.17439531
0.17251583
0.17066845
0.16885229
0.16706645
0.16531008
0.1635823
0.16188223
0.160209
0.15856162
0.15693915
0.15534037
0.15376425
0.15220872
0.1506728
0.14915204
0.14764566
0.14614324
0.14462604
0.14320488
0.14082456
2.1069833e-05
3.3637939e-05
6.898318e-05
0.00014697067
0.00029581216
0.000542215
0.00091065168
0.0014222792
0.0021104319
0.0030490331
0.0043330102
0.0062215152
0.0090320526
0.013087966
0.019236871
0.028536409
0.041029039
0.056732491
0.075161606
0.095771945
0.11783234
0.14029488
0.16189503
0.18148629
0.19833728
0.21221218
0.22324994
0.23176851
0.23812261
0.24264476
0.24563665
0.24736952
0.24807851
0.24796055
0.24717758
0.24587145
0.2441432
0.24208484
0.23977224
0.23726528
0.23461235
0.23185301
0.2290197
0.22613885
0.22323154
0.22031534
0.21740372
0.21450709
0.21163372
0.20879032
0.20598229
0.20321363
0.20048748
0.19780614
0.19517116
0.19258381
0.19004441
0.18755291
0.18510896
0.18271234
0.18036276
0.17805973
0.17580247
0.17359015
0.17142196
0.16929697
0.16721409
0.16517233
0.16317081
0.16120858
0.15928465
0.157398
0.15554773
0.15373293
0.15195266
0.15020596
0.14849196
0.14680977
0.14515858
0.14353754
0.14194585
0.14038271
0.13884736
0.13733902
0.13585692
0.13440032
0.13296844
0.13156055
0.13017581
0.12881348
0.12747248
0.12615226
0.12485075
0.1235685
0.12229981
0.12104973
0.11980199
0.11855923
0.11739068
0.11543629
1.747761e-05
2.0594868e-05
2.7293637e-05
3.9907214e-05
6.1549021e-05
9.6168702e-05
0.00014893197
0.00022636938
0.00033661305
0.00049154875
0.00070595423
0.0010053674
0.001429494
0.0020281774
0.0028904798
0.0041828534
0.0060988635
0.0088633003
0.013170308
0.019659411
0.028591643
0.040164794
0.054070249
0.069952887
0.087163215
0.10476649
0.12171321
0.13713054
0.15051705
0.1617421
0.17091206
0.17822993
0.18391868
0.1881982
0.19127764
0.1933527
0.19458795
0.19512599
0.19509024
0.19458468
0.19369623
0.19249752
0.19104929
0.18940245
0.18759916
0.18567469
0.1836583
0.18157382
0.17944087
0.1772757
0.17509171
0.17289997
0.17070948
0.16852764
0.16636045
0.16421283
0.16208863
0.15999075
0.1579214
0.15588234
0.15387501
0.15190047
0.14995932
0.14805194
0.1461786
0.14433931
0.14253376
0.1407617
0.13902281
0.13731672
0.13564292
0.13400084
0.13238991
0.13080956
0.12925916
0.12773803
0.12624553
0.12478102
0.12334384
0.12193336
0.12054893
0.11918991
0.11785565
0.11654554
0.11525892
0.11399518
0.11275366
0.11153376
0.11033477
0.10915612
0.10799687
0.10685676
0.10573386
0.10462942
0.10353767
0.10246595
0.10139697
0.10034203
0.099353319
0.097693477
1.6475737e-05
1.7758115e-05
1.9898337e-05
2.3370577e-05
2.8741799e-05
3.6653421e-05
4.7905102e-05
6.3554521e-05
8.4994067e-05
0.00011421172
0.00015392578
0.0002081283
0.00028288991
0.00038674953
0.0005320381
0.0007394698
0.001039634
0.0014698648
0.0021062243
0.0030739216
0.0045381497
0.0066908833
0.010171121
0.015393272
0.022656205
0.032080853
0.043463669
0.056440445
0.070375632
0.084427307
0.097772836
0.1098251
0.12030736
0.12918378
0.13654299
0.14252215
0.14727191
0.15094661
0.15369583
0.15565587
0.15694743
0.15767606
0.15793309
0.15779714
0.15733525
0.15660448
0.1556534
0.15452293
0.1532474
0.15185573
0.15037217
0.14881714
0.14720774
0.14555831
0.14388094
0.14218566
0.14048093
0.13877366
0.13706952
0.13537321
0.13368862
0.132019
0.13036689
0.12873434
0.12712302
0.12553427
0.12396898
0.12242787
0.12091146
0.11942012
0.11795405
0.11651326
0.11509771
0.11370728
0.11234174
0.11100082
0.1096842
0.10839152
0.1071224
0.10587645
0.10465323
0.10345231
0.10227321
0.10111549
0.099978642
0.098862199
0.097765655
0.096688526
0.095630255
0.094590408
0.093568219
0.092563581
0.091574815
0.090603444
0.089644109
0.088704779
0.08776925
0.086851393
0.085997573
0.084554901
1.5935923e-05
1.6730878e-05
1.7731283e-05
1.9070233e-05
2.0946042e-05
2.3554919e-05
2.7095344e-05
3.1789988e-05
3.7903268e-05
4.5788426e-05
5.5926781e-05
6.8995413e-05
8.5971551e-05
0.00010828107
0.00013794598
0.00017805374
0.00023340487
0.00031056272
0.00041991643
0.0005785717
0.00081344947
0.0011577497
0.0016866618
0.0025135706
0.0037844686
0.0057705471
0.0089713643
0.013701079
0.020229411
0.028509233
0.038358742
0.0493535
0.060847134
0.072127717
0.082620302
0.091994887
0.1001387
0.10706686
0.11285234
0.11759424
0.12140455
0.12439714
0.12667959
0.12835033
0.12949769
0.13019971
0.13052485
0.13053246
0.13027364
0.12979225
0.12912567
0.1283059
0.12736018
0.1263117
0.12518022
0.12398248
0.12273277
0.12144317
0.12012387
0.11878343
0.11742909
0.11606695
0.11470215
0.11333895
0.11198093
0.11063113
0.10929201
0.10796558
0.10665352
0.10535718
0.10407765
0.10281578
0.10157217
0.10034733
0.09914159
0.097955151
0.096788133
0.095640569
0.094512426
0.093403609
0.09231397
0.091243316
0.090191417
0.089158013
0.08814281
0.087145501
0.086165749
0.085203221
0.084257514
0.083328335
0.082415089
0.081517798
0.080635049
0.079768442
0.078913245
0.078077224
0.077246144
0.076433489
0.075684861
0.074410236
1.5493242e-05
1.6095217e-05
1.6743169e-05
1.744206e-05
1.8266171e-05
1.931877e-05
2.070064e-05
2.2500436e-05
2.4799346e-05
2.7685341e-05
3.1267687e-05
3.5688735e-05
4.1130518e-05
4.786496e-05
5.627107e-05
6.6887569e-05
8.0519673e-05
9.8308862e-05
0.00012193159
0.00015396955
0.00019860893
0.00026158259
0.00035281732
0.00048915077
0.00069560657
0.0010123424
0.0015174454
0.0023262851
0.0035785112
0.0056700368
0.0089282065
0.013626099
0.019850255
0.02750503
0.03630009
0.04573463
0.055210242
0.06420959
0.072406578
0.079659597
0.085943519
0.091291406
0.095766402
0.099448507
0.10242363
0.10477599
0.10658497
0.10792339
0.10885667
0.10944284
0.10973276
0.10977087
0.10959576
0.10924078
0.10873476
0.10810245
0.10736518
0.10654131
0.10564659
0.10469441
0.10369623
0.10266184
0.1015996
0.1005166
0.09941889
0.098311669
0.097199352
0.096085639
0.094973662
0.093866074
0.092765104
0.091672603
0.090590093
0.089518836
0.08845987
0.087414026
0.086381972
0.085364231
0.084361207
0.083373195
0.082400396
0.081442933
0.080500857
0.079574162
0.078662788
0.077766639
0.076885569
0.076019425
0.075167979
0.074331089
0.073508341
0.072699876
0.071904554
0.071123966
0.070354071
0.069602062
0.068855939
0.068127469
0.067463517
0.066323999
1.5096571e-05
1.5574707e-05
1.6068911e-05
1.6546193e-05
1.7023129e-05
1.7546569e-05
1.8175548e-05
1.8966461e-05
1.996529e-05
2.1209807e-05
2.2734989e-05
2.4580319e-05
2.6805517e-05
2.9476846e-05
3.2682839e-05
3.6544831e-05
4.1235708e-05
4.6993659e-05
5.4127345e-05
6.3106287e-05
7.4653658e-05
8.9791622e-05
0.00011008438
0.00013807476
0.00017774964
0.00023526447
0.00032143987
0.00045498659
0.00066144858
0.00099571028
0.0015466623
0.0024288193
0.0039046373
0.0062965868
0.0098645181
0.014739913
0.020880493
0.028074698
0.035917272
0.043903839
0.051587331
0.058675709
0.065028933
0.070604857
0.075413751
0.079495911
0.082909282
0.08571914
0.087991554
0.089790208
0.091174409
0.092198266
0.092910369
0.093353839
0.093566736
0.09358236
0.093429843
0.093134595
0.092718699
0.092201256
0.091598727
0.090925329
0.090193333
0.089413305
0.088594331
0.087744266
0.086869895
0.085977015
0.085070589
0.084154873
0.083233518
0.082309635
0.081385863
0.080464439
0.079547273
0.078635971
0.077731884
0.076836145
0.0759497
0.075073325
0.074207656
0.073353198
0.072510349
0.071679416
0.070860619
0.070054113
0.069259988
0.068478298
0.067709014
0.066952168
0.066207542
0.0654754
0.064754883
0.064047536
0.063350018
0.062668805
0.061994113
0.061335501
0.060741629
0.059714241
1.4736129e-05
1.5119223e-05
1.5514346e-05
1.5886139e-05
1.6229298e-05
1.6559774e-05
1.6907196e-05
1.7306357e-05
1.7789501e-05
1.838366e-05
1.9111163e-05
1.9991085e-05
2.1044636e-05
2.2294538e-05
2.3767109e-05
2.5494999e-05
2.7520328e-05
2.990166e-05
3.2739622e-05
3.6146318e-05
4.0280699e-05
4.5366488e-05
5.172101e-05
5.9786033e-05
7.0270596e-05
8.4236099e-05
0.00010336409
0.0001305383
0.00016998945
0.00022928709
0.00032220309
0.00046921682
0.00071001427
0.0011160074
0.001784659
0.0029178048
0.0048029805
0.0076794305
0.01167997
0.016788152
0.022830883
0.02946015
0.036245708
0.04281167
0.04891287
0.05442648
0.059307823
0.06355665
0.067200051
0.070281199
0.072850414
0.074959966
0.076661064
0.078002002
0.079027335
0.079777424
0.080288517
0.080592903
0.08071916
0.080692415
0.080534637
0.080265019
0.0799003
0.079455058
0.078941945
0.078371969
0.077754715
0.077098477
0.076410422
0.075696752
0.074962835
0.074213311
0.073452174
0.072682857
0.071908328
0.071131136
0.070353467
0.069577196
0.068803928
0.068035027
0.067271651
0.066514775
0.065765215
0.065023653
0.064290645
0.063566651
0.062852035
0.062147099
0.061452045
0.060767105
0.06009228
0.059427968
0.0587736
0.058130679
0.057496529
0.056876906
0.056264077
0.055665348
0.055130987
0.054199252
1.4404216e-05
1.4713029e-05
1.5032843e-05
1.5335041e-05
1.5609257e-05
1.5858375e-05
1.6094952e-05
1.6337202e-05
1.6604752e-05
1.6916383e-05
1.7289142e-05
1.7737665e-05
1.8275082e-05
1.8913722e-05
1.9665864e-05
2.0544646e-05
2.156495e-05
2.2744571e-05
2.4111562e-05
2.5700599e-05
2.7555359e-05
2.9732429e-05
3.2309162e-05
3.5422593e-05
3.9235889e-05
4.3979646e-05
4.9998822e-05
5.7797358e-05
6.8147436e-05
8.2278762e-05
0.00010233701
0.00013165515
0.0001759772
0.0002461225
0.00035911991
0.00054706781
0.0008709321
0.0014164818
0.0023612669
0.0039562747
0.0064182777
0.0098580342
0.014264163
0.019474669
0.025173183
0.030989917
0.036617383
0.041860647
0.046620284
0.050856789
0.054567017
0.057771081
0.060502384
0.06280057
0.06470747
0.066264485
0.067511112
0.068484109
0.069217109
0.069740497
0.070081444
0.070264115
0.070309901
0.070237669
0.070063989
0.069803396
0.069468642
0.069070873
0.068619809
0.068123923
0.067590604
0.06702629
0.066436581
0.065826334
0.065199778
0.064560585
0.063911941
0.063256608
0.062596979
0.061935122
0.061272821
0.060611611
0.059952809
0.059297541
0.058646768
0.058001308
0.05736185
0.056728986
0.056103189
0.055484924
0.054874433
0.054272279
0.053678183
0.053093632
0.052516581
0.051952112
0.051394337
0.050848484
0.05036592
0.049517819
1.4093627e-05
1.4344603e-05
1.4605423e-05
1.4854439e-05
1.5081681e-05
1.5285702e-05
1.5471357e-05
1.5647374e-05
1.5824086e-05
1.6012475e-05
1.6223785e-05
1.6468827e-05
1.6757627e-05
1.7099378e-05
1.750262e-05
1.7975526e-05
1.8526187e-05
1.9162926e-05
1.989609e-05
2.0738637e-05
2.1706426e-05
2.2818981e-05
2.4100041e-05
2.5587255e-05
2.7328805e-05
2.938739e-05
3.1840156e-05
3.4838925e-05
3.857406e-05
4.330825e-05
4.9470173e-05
5.7656569e-05
6.8847273e-05
8.4770002e-05
0.0001082076
0.00014391776
0.00020112809
0.00029473224
0.00045356135
0.00073321783
0.0012122514
0.0020645301
0.0035084124
0.0057375098
0.0088250922
0.012750737
0.017343617
0.022309018
0.027332422
0.032170602
0.036675496
0.040771151
0.044426665
0.047640107
0.050428052
0.052817467
0.054840525
0.056531312
0.057923744
0.059050322
0.059941418
0.060624966
0.061126326
0.061468335
0.061671395
0.061753642
0.061731159
0.061618161
0.061427167
0.061169183
0.06085388
0.060489746
0.060084219
0.059643806
0.0591742
0.058680384
0.058166712
0.057636988
0.057094532
0.056542241
0.055982636
0.055417912
0.054849975
0.05428048
0.053710859
0.053142353
0.052576031
0.052012828
0.051453527
0.050898867
0.05034936
0.049805766
0.049268109
0.048737893
0.048213664
0.047699919
0.047192394
0.04669452
0.046258136
0.045484845
1.3798643e-05
1.400447e-05
1.4218919e-05
1.4425817e-05
1.4616706e-05
1.4788941e-05
1.4944287e-05
1.5087069e-05
1.5222558e-05
1.5356513e-05
1.5495262e-05
1.5645527e-05
1.5814162e-05
1.6007923e-05
1.6233336e-05
1.6496647e-05
1.6803776e-05
1.7160385e-05
1.7572305e-05
1.8045978e-05
1.8588777e-05
1.9209349e-05
1.9917614e-05
2.0726739e-05
2.1653865e-05
2.2721216e-05
2.3954132e-05
2.5393778e-05
2.7096075e-05
2.9133614e-05
3.1599469e-05
3.4680844e-05
3.8604656e-05
4.3726291e-05
5.0590472e-05
6.0016142e-05
7.3510709e-05
9.3542112e-05
0.00012441396
0.00017467464
0.00025812608
0.00040326861
0.00066426068
0.0011164517
0.0019437227
0.0033351385
0.0054436272
0.0083203485
0.01191175
0.016026908
0.02039269
0.024751116
0.028918767
0.032787856
0.036303039
0.039442855
0.042208322
0.044614329
0.046683594
0.048442837
0.049920245
0.051143873
0.052140637
0.052935775
0.053552543
0.054012115
0.05433362
0.054534231
0.054629286
0.054632424
0.054555746
0.054409959
0.05420453
0.053947796
0.053647105
0.053308923
0.052938938
0.052542146
0.052122939
0.051685168
0.051232212
0.050767029
0.050292212
0.049810029
0.049322461
0.048831243
0.048337886
0.04784372
0.047349889
0.046857447
0.046367216
0.045880184
0.045396699
0.044918322
0.044444155
0.043978215
0.04351765
0.043064416
0.042670187
0.041965263
1.3515078e-05
1.36854e-05
1.3863222e-05
1.4036463e-05
1.4198168e-05
1.4345444e-05
1.4478717e-05
1.4600331e-05
1.4713213e-05
1.4820443e-05
1.4925373e-05
1.5031695e-05
1.5143437e-05
1.5264898e-05
1.540057e-05
1.5555027e-05
1.5732777e-05
1.5938196e-05
1.6175578e-05
1.6449249e-05
1.676371e-05
1.7123838e-05
1.753495e-05
1.8003216e-05
1.8536117e-05
1.9143079e-05
1.983501e-05
2.0626427e-05
2.1536935e-05
2.2592433e-05
2.3822871e-05
2.5279257e-05
2.702915e-05
2.9162139e-05
3.1817724e-05
3.5223157e-05
3.9700028e-05
4.5761318e-05
5.4150753e-05
6.629544e-05
8.4519423e-05
0.00011306315
0.000160508
0.00024040036
0.00038395167
0.00064435087
0.0011150869
0.0019707085
0.0033784168
0.0054464247
0.0081965538
0.011534227
0.01525156
0.019105155
0.022893981
0.026486113
0.029805917
0.032815373
0.035501795
0.037869136
0.039931455
0.041708589
0.043223233
0.044499046
0.045559432
0.046426791
0.047122118
0.047664798
0.048072535
0.048361367
0.048545729
0.048638556
0.048651396
0.048594525
0.048477064
0.048307101
0.048091794
0.04783747
0.047549719
0.047233475
0.046893086
0.046532386
0.046154749
0.045763148
0.045360194
0.044948188
0.044529151
0.044104869
0.043676899
0.04324666
0.04281532
0.042384141
0.041953811
0.041525997
0.041100334
0.040680461
0.04026475
0.039854012
0.039499153
0.038857993
1.323995e-05
1.3382112e-05
1.3530784e-05
1.3676931e-05
1.3814905e-05
1.3941874e-05
1.4057579e-05
1.4163324e-05
1.4260912e-05
1.4352191e-05
1.4439064e-05
1.4523545e-05
1.4607826e-05
1.4694336e-05
1.478577e-05
1.4885075e-05
1.4995351e-05
1.511978e-05
1.5261592e-05
1.5424036e-05
1.5610386e-05
1.5824e-05
1.6068368e-05
1.634722e-05
1.6664685e-05
1.7025579e-05
1.7435443e-05
1.7900915e-05
1.8430328e-05
1.9034519e-05
1.972619e-05
2.0522986e-05
2.1449014e-05
2.2535179e-05
2.3823736e-05
2.5379252e-05
2.7290796e-05
2.9677133e-05
3.2765016e-05
3.6867295e-05
4.2477706e-05
5.0343561e-05
6.1921028e-05
7.950383e-05
0.00010777457
0.00015543093
0.00023851604
0.00039222212
0.00067130537
0.0011954351
0.002124538
0.0035984188
0.0056807848
0.0083504026
0.011469847
0.014830255
0.018230162
0.021522467
0.024615867
0.027459114
0.030028279
0.032317983
0.034334669
0.036091942
0.037607401
0.038900533
0.039991327
0.040899418
0.041643557
0.042241299
0.042708859
0.04306106
0.043311357
0.043471884
0.043553538
0.04356607
0.043518183
0.043417626
0.04327129
0.043085291
0.042865054
0.042615384
0.042340534
0.042044268
0.04172991
0.041400404
0.041058349
0.040706049
0.040345532
0.039978633
0.039606911
0.039231945
0.038854791
0.038477272
0.038099537
0.037724952
0.037352951
0.036983512
0.036666235
0.036085706
1.297117e-05
1.3090806e-05
1.3216089e-05
1.3340251e-05
1.3458742e-05
1.3568935e-05
1.3670183e-05
1.3763148e-05
1.384898e-05
1.3928906e-05
1.4004154e-05
1.4075947e-05
1.4145535e-05
1.421426e-05
1.4283618e-05
1.435531e-05
1.4431225e-05
1.4513417e-05
1.4604091e-05
1.4705571e-05
1.4820253e-05
1.4950603e-05
1.5099154e-05
1.5268531e-05
1.5461487e-05
1.568101e-05
1.5930395e-05
1.6213353e-05
1.6534199e-05
1.6898208e-05
1.7311625e-05
1.7782213e-05
1.8320094e-05
1.8938187e-05
1.9652989e-05
2.0487287e-05
2.1472572e-05
2.2647584e-05
2.4076445e-05
2.5848878e-05
2.8085658e-05
3.1001781e-05
3.4931298e-05
4.0368696e-05
4.814115e-05
5.975738e-05
7.7811668e-05
0.00010780917
0.00015915538
0.00025258188
0.00042769786
0.00075390102
0.0013693218
0.0024149098
0.0039852543
0.0061059202
0.008701196
0.011604927
0.014628232
0.017617935
0.020472152
0.023129819
0.025558296
0.027744597
0.029688717
0.031398822
0.032887966
0.034171852
0.03526734
0.036191464
0.036960812
0.037591146
0.038097196
0.038492554
0.038789647
0.038999761
0.039133092
0.039198812
0.039205148
0.039159457
0.039068307
0.038937553
0.038772407
0.0385775
0.038356951
0.038114415
0.037853138
0.037576007
0.037285578
0.036984156
0.036673738
0.036356266
0.036033197
0.035706559
0.035377008
0.035047738
0.034719104
0.034390548
0.034109879
0.033588063
1.2707307e-05
1.2808773e-05
1.2915141e-05
1.3021321e-05
1.3123679e-05
1.3219856e-05
1.3309002e-05
1.3391352e-05
1.3467616e-05
1.3538629e-05
1.3605255e-05
1.3668337e-05
1.3728689e-05
1.3787122e-05
1.3844495e-05
1.3901762e-05
1.3959994e-05
1.4020393e-05
1.4084309e-05
1.4153239e-05
1.4228801e-05
1.4312713e-05
1.4406791e-05
1.4512929e-05
1.4633107e-05
1.476941e-05
1.4924063e-05
1.5099469e-05
1.5298279e-05
1.5523515e-05
1.5778662e-05
1.6067807e-05
1.6395936e-05
1.6769235e-05
1.7195356e-05
1.76841e-05
1.824859e-05
1.8904979e-05
1.9676006e-05
2.0593705e-05
2.1698877e-05
2.305451e-05
2.4755366e-05
2.6926299e-05
2.979738e-05
3.3723055e-05
3.9245848e-05
4.7340164e-05
5.9657701e-05
7.9478447e-05
0.00011327371
0.00017303013
0.00028639467
0.0004982626
0.00090989799
0.0016538519
0.0028423252
0.0045272498
0.0066800751
0.0091770896
0.011850154
0.014548053
0.017163357
0.019628349
0.021903971
0.023971325
0.025825182
0.027469183
0.028912501
0.030167528
0.031248314
0.032169509
0.032945686
0.033590906
0.034118459
0.034540724
0.034869106
0.035114032
0.035284976
0.035390505
0.035438337
0.035435407
0.035387928
0.03530146
0.035180969
0.03503089
0.034855175
0.034657352
0.034440562
0.034207634
0.033961052
0.033703166
0.033435869
0.033161445
0.032881057
0.032597824
0.032312905
0.032025473
0.031781132
0.031317137
1.2447408e-05
1.2534105e-05
1.2625059e-05
1.2716426e-05
1.280532e-05
1.2889675e-05
1.2968561e-05
1.3041933e-05
1.3110182e-05
1.3173866e-05
1.3233601e-05
1.3290008e-05
1.3343679e-05
1.3395179e-05
1.3445063e-05
1.3493913e-05
1.3542348e-05
1.3591053e-05
1.3640804e-05
1.3692487e-05
1.3747094e-05
1.3805723e-05
1.3869575e-05
1.393995e-05
1.4018231e-05
1.4105894e-05
1.4204508e-05
1.4315748e-05
1.4441416e-05
1.4583486e-05
1.4744145e-05
1.4925862e-05
1.5131484e-05
1.5364379e-05
1.5628585e-05
1.5929015e-05
1.6271917e-05
1.6665005e-05
1.7118197e-05
1.7644904e-05
1.8262209e-05
1.8993418e-05
1.9872258e-05
2.0941706e-05
2.2269269e-05
2.3957268e-05
2.6139012e-05
2.9086278e-05
3.3182786e-05
3.9083686e-05
4.7947996e-05
6.180135e-05
8.5105649e-05
0.00012561101
0.00020143005
0.00034652843
0.00062857212
0.0011647156
0.0020710957
0.0034157999
0.0052040696
0.00734942
0.0097071263
0.012133219
0.014518953
0.016792881
0.018911714
0.020852289
0.022605378
0.024171008
0.025555138
0.026767341
0.027819207
0.028723258
0.029492233
0.030138611
0.030674326
0.031110598
0.031457842
0.031725644
0.031922758
0.032057144
0.032136001
0.032165826
0.032152462
0.032101157
0.032016617
0.031903061
0.031764262
0.03160362
0.03142415
0.031228662
0.031019517
0.030799305
0.030569702
0.030333842
0.030093593
0.029848103
0.0296404
0.029234228
1.2190877e-05
1.2265477e-05
1.234378e-05
1.2422865e-05
1.2500447e-05
1.2574753e-05
1.2644852e-05
1.2710523e-05
1.2771933e-05
1.2829427e-05
1.2883436e-05
1.2934423e-05
1.2982839e-05
1.3029113e-05
1.3073654e-05
1.3116864e-05
1.3159148e-05
1.3200922e-05
1.3242643e-05
1.3284822e-05
1.3328037e-05
1.3372939e-05
1.3420262e-05
1.3470825e-05
1.352553e-05
1.3585364e-05
1.3651403e-05
1.3724805e-05
1.3806826e-05
1.3898822e-05
1.4002275e-05
1.4118814e-05
1.4250257e-05
1.4398664e-05
1.4566416e-05
1.4756301e-05
1.4971681e-05
1.5216633e-05
1.5496163e-05
1.5816676e-05
1.6186282e-05
1.6615373e-05
1.7118147e-05
1.7712782e-05
1.842433e-05
1.9289654e-05
2.0354474e-05
2.1697152e-05
2.342966e-05
2.571348e-05
2.8867407e-05
3.3339156e-05
3.9986009e-05
5.0195316e-05
6.6947322e-05
9.5920618e-05
0.00014899115
0.00025202181
0.00045119949
0.00084548496
0.001545642
0.0026295634
0.0041237291
0.005971876
0.0080522845
0.010231372
0.012402379
0.014492623
0.016456509
0.018268109
0.019915337
0.021395452
0.022711842
0.023871738
0.024884629
0.025761174
0.026512468
0.027149555
0.02768312
0.028123297
0.028479568
0.028760709
0.028974781
0.029129143
0.029230485
0.029284864
0.029297751
0.02927408
0.029218291
0.029134391
0.029025967
0.028896323
0.028748324
0.028584916
0.028408297
0.028221696
0.028027614
0.027825397
0.027655161
0.02730761
1.1937377e-05
1.2001999e-05
1.2069847e-05
1.2138684e-05
1.2206708e-05
1.2272419e-05
1.2334932e-05
1.2393926e-05
1.2449412e-05
1.2501578e-05
1.2550713e-05
1.2597151e-05
1.2641238e-05
1.268331e-05
1.272369e-05
1.2762686e-05
1.2800597e-05
1.2837712e-05
1.2874329e-05
1.2910764e-05
1.2947359e-05
1.2984494e-05
1.3022599e-05
1.3062157e-05
1.3103716e-05
1.3147888e-05
1.3195362e-05
1.32469e-05
1.330334e-05
1.3365605e-05
1.3434707e-05
1.3511754e-05
1.3597969e-05
1.369471e-05
1.3803506e-05
1.392609e-05
1.4064477e-05
1.422103e-05
1.4398562e-05
1.4600503e-05
1.4831092e-05
1.5095588e-05
1.5400787e-05
1.575536e-05
1.6170495e-05
1.6661777e-05
1.7248752e-05
1.7959852e-05
1.8835926e-05
1.9930226e-05
2.133553e-05
2.3176311e-05
2.5675162e-05
2.9189621e-05
3.4345927e-05
4.2199544e-05
5.4782696e-05
7.64415e-05
0.00011526326
0.00019097
0.0003374819
0.00063449274
0.0011840628
0.0020700145
0.0033305168
0.0049317627
0.0067725228
0.008731008
0.010704876
0.012622264
0.014436864
0.016121254
0.017661469
0.019052768
0.02029655
0.021398148
0.022365293
0.023207041
0.023933047
0.024553072
0.02507667
0.025512979
0.025870608
0.026157573
0.026381272
0.026548493
0.026665429
0.026737713
0.026770452
0.026768281
0.026735373
0.026675564
0.026592246
0.026488759
0.026367836
0.026232874
0.026086946
0.025929792
0.025798313
0.025510893
1.1686761e-05
1.1743096e-05
1.1802246e-05
1.1862484e-05
1.192239e-05
1.198071e-05
1.2036634e-05
1.2089791e-05
1.2140089e-05
1.2187602e-05
1.2232506e-05
1.2275036e-05
1.2315453e-05
1.2354019e-05
1.2390991e-05
1.2426619e-05
1.2461139e-05
1.2494778e-05
1.2527754e-05
1.2560287e-05
1.2592603e-05
1.2624938e-05
1.2657546e-05
1.2690713e-05
1.2724755e-05
1.2760034e-05
1.2796962e-05
1.2836006e-05
1.2877693e-05
1.2922619e-05
1.2971446e-05
1.3024913e-05
1.3083841e-05
1.3149141e-05
1.3221831e-05
1.330305e-05
1.3394089e-05
1.3496428e-05
1.361178e-05
1.3742161e-05
1.3889988e-05
1.4058179e-05
1.4250344e-05
1.4471002e-05
1.4725798e-05
1.5022171e-05
1.5369538e-05
1.5780389e-05
1.6272111e-05
1.6866869e-05
1.7598306e-05
1.8511488e-05
1.9675719e-05
2.1197433e-05
2.323321e-05
2.6081576e-05
3.0202308e-05
3.646446e-05
4.6310914e-05
6.3100266e-05
9.2803777e-05
0.00015031903
0.00026329359
0.00049362955
0.00093447065
0.0016702773
0.0027462138
0.0041444318
0.0057806101
0.0075446228
0.0093399951
0.011097221
0.012770562
0.014332149
0.015766977
0.017068956
0.018238011
0.019277984
0.020195164
0.020997256
0.021692669
0.022290037
0.022797896
0.023224482
0.023577601
0.023864563
0.024092148
0.024266604
0.024393657
0.024478542
0.024526019
0.024540461
0.024525798
0.024485799
0.024423731
0.024343226
0.024247875
0.024137993
0.024046968
0.023821828
1.1439015e-05
1.1488421e-05
1.1540291e-05
1.1593275e-05
1.1646254e-05
1.1698192e-05
1.1748364e-05
1.1796385e-05
1.1842101e-05
1.1885503e-05
1.1926682e-05
1.1965795e-05
1.2003031e-05
1.2038593e-05
1.2072685e-05
1.210551e-05
1.2137261e-05
1.2168124e-05
1.2198276e-05
1.2227886e-05
1.2257121e-05
1.2286147e-05
1.2315131e-05
1.234425e-05
1.2373691e-05
1.2403668e-05
1.2434417e-05
1.2466211e-05
1.2499363e-05
1.2534231e-05
1.2571228e-05
1.261082e-05
1.2653535e-05
1.2699971e-05
1.2750797e-05
1.2806767e-05
1.2868732e-05
1.2937652e-05
1.3014627e-05
1.3100921e-05
1.3198008e-05
1.3307628e-05
1.3431867e-05
1.3573262e-05
1.3734917e-05
1.3920741e-05
1.4135646e-05
1.4385868e-05
1.4679704e-05
1.50277e-05
1.5444445e-05
1.5949359e-05
1.6569525e-05
1.7344535e-05
1.8327684e-05
1.9609446e-05
2.131917e-05
2.3684558e-05
2.7077783e-05
3.221427e-05
4.02077e-05
5.3644982e-05
7.7355889e-05
0.000122799
0.00021290401
0.00039736812
0.00076000737
0.001382661
0.002313968
0.0035467135
0.0050098335
0.0066039777
0.0082392938
0.0098497319
0.01139111
0.01283594
0.014168858
0.015382981
0.016477202