/*--------------------------------*- C++ -*----------------------------------*\
| =========                 |                                                 |
| \\      /  F ield         | OpenFOAM: The Open Source CFD Toolbox           |
|  \\    /   O peration     | Version:  2206                                  |
|   \\  /    A nd           | Website:  www.openfoam.com                      |
|    \\/     M anipulation  |                                                 |
\*---------------------------------------------------------------------------*/
FoamFile
{
    version     2.0;
    format      ascii;
    arch        "LSB;label=32;scalar=64";
    class       volScalarField;
    location    "800";
    object      k;
}
// * * * * * * * * * * * * * * * * * * * * * * * * * * * * * * * * * * * * * //

dimensions      [0 2 -2 0 0 0 0];

internalField   nonuniform List<scalar> 
7480
(
0.032173747
0.062202466
0.068875669
0.063421452
0.05485572
0.047485008
0.042172492
0.038342963
0.035404713
0.033011041
0.031004069
0.029309984
0.027878869
0.02666872
0.025643289
0.024769813
0.024023211
0.023384138
0.022833243
0.022358977
0.021942016
0.021572058
0.021239959
0.020938019
0.020661179
0.020405266
0.020167411
0.019944727
0.01973463
0.019534984
0.019344592
0.019162631
0.018988215
0.018820608
0.018658952
0.0185029
0.018351235
0.018203776
0.018060179
0.017919993
0.017782892
0.017648588
0.017516866
0.017387587
0.017260572
0.017135709
0.017012837
0.016891777
0.016772434
0.016654708
0.016538517
0.016423814
0.016310533
0.016198643
0.016088082
0.015978807
0.015870783
0.015763953
0.015658264
0.015553679
0.015450196
0.015347805
0.015246478
0.015146195
0.015046941
0.0149487
0.014851443
0.014755146
0.0146598
0.014565392
0.014471909
0.014379334
0.014287656
0.014196867
0.014106953
0.014017898
0.013929686
0.013842306
0.013755745
0.013669989
0.013585025
0.013500838
0.013417413
0.013334731
0.013252777
0.013171526
0.013090955
0.013011029
0.012931722
0.012852956
0.012774736
0.012696816
0.012619428
0.012541579
0.012464729
0.012384711
0.012307787
0.012218848
0.012147558
0.012012237
0.0025303494
0.0095566721
0.016652086
0.02068547
0.021733328
0.021462392
0.020825357
0.020174231
0.019539222
0.018908305
0.01829732
0.017731266
0.017224183
0.01677818
0.016390022
0.016046829
0.015747674
0.015490967
0.015271274
0.015080053
0.014911042
0.014758446
0.014617632
0.014486045
0.01436258
0.01424584
0.014135509
0.014029612
0.013926839
0.013826407
0.013728365
0.013632698
0.013539172
0.013447617
0.013357483
0.013269084
0.01318115
0.013094268
0.013008356
0.012923157
0.012838531
0.012754432
0.012670858
0.012587803
0.012505239
0.012423195
0.012341583
0.012260359
0.01217951
0.012099034
0.012018952
0.011939272
0.011860008
0.011781176
0.011702767
0.011624803
0.011547284
0.011470198
0.011393525
0.011317277
0.011241487
0.011166174
0.011091338
0.011016986
0.01094313
0.010869776
0.010796916
0.01072455
0.010652689
0.010581341
0.010510506
0.010440186
0.010370385
0.01030111
0.010232361
0.010164134
0.010096428
0.010029245
0.0099625828
0.0098964413
0.0098308179
0.0097657101
0.0097011143
0.0096370256
0.0095734382
0.0095103442
0.0094477343
0.0093855954
0.0093239124
0.0092626621
0.0092018207
0.0091413362
0.0090811823
0.0090211926
0.0089614351
0.0089012221
0.0088411623
0.0087781077
0.0087218773
0.0086208003
0.00022147309
0.00057206446
0.0013079045
0.0026314128
0.0042081978
0.0058217129
0.0072756433
0.008509672
0.0095731841
0.010500135
0.011295002
0.011953115
0.012478682
0.012889122
0.01320798
0.013463418
0.013670696
0.013838157
0.013971997
0.01407665
0.014156418
0.014214735
0.014253738
0.014277015
0.014287514
0.014286522
0.014278962
0.014263114
0.014239973
0.014210181
0.014175405
0.014136506
0.014094021
0.014048516
0.01399979
0.013949103
0.013894795
0.013838781
0.013780872
0.013721075
0.013659524
0.013596412
0.013531941
0.013466272
0.013399536
0.013331908
0.013263379
0.013194024
0.013123931
0.013053186
0.012981901
0.012910152
0.012838024
0.012765592
0.012692895
0.01262001
0.012546979
0.012473824
0.012400556
0.012327231
0.012253916
0.012180662
0.012107493
0.012034441
0.011961545
0.011888831
0.011816306
0.011743992
0.011671917
0.011600107
0.011528576
0.011457339
0.011386415
0.011315825
0.011245577
0.011175679
0.011106143
0.011036977
0.01096819
0.010899791
0.010831785
0.010764178
0.010696975
0.010630177
0.010563786
0.010497801
0.010432221
0.010367041
0.01030225
0.010237843
0.010173787
0.010110087
0.010046638
0.0099835084
0.0099203571
0.0098574659
0.0097938277
0.0097295834
0.0096694352
0.009565002
0.00016098334
0.00017298761
0.00020392214
0.00028491854
0.00045141218
0.00069709253
0.0011526461
0.001791714
0.0026164611
0.0035370986
0.0044945989
0.0054738434
0.0064623709
0.0074373343
0.008367378
0.0092239184
0.0099889356
0.010657284
0.011234312
0.011729805
0.012153663
0.012514637
0.012820922
0.013079162
0.013295931
0.013476222
0.013625591
0.013748607
0.013848586
0.013929171
0.013992903
0.014042147
0.014078859
0.014104976
0.014121337
0.014130065
0.01412837
0.014121073
0.01410698
0.014087102
0.014062014
0.014032267
0.01399837
0.013960755
0.013919801
0.013875914
0.013829202
0.013779958
0.01372841
0.013674779
0.013619305
0.013562168
0.013503559
0.01344364
0.013382518
0.013320353
0.013257243
0.013193264
0.013128477
0.013062991
0.012996926
0.012930368
0.01286338
0.01279603
0.01272839
0.012660513
0.01259243
0.012524188
0.012455843
0.012387438
0.012319008
0.012250585
0.012182207
0.012113911
0.01204572
0.011977655
0.011909739
0.011841995
0.011774444
0.011707104
0.011639991
0.011573121
0.011506506
0.011440159
0.011374089
0.011308304
0.011242809
0.01117761
0.011112702
0.011048092
0.01098375
0.01091971
0.01085584
0.010792323
0.010728642
0.010665539
0.010601298
0.010537662
0.010476584
0.010373019
0.00016297306
0.0001652009
0.00016695163
0.00016924744
0.00017556865
0.00018829152
0.00021895597
0.00028395035
0.00039203033
0.00059540261
0.00091316338
0.0013519216
0.0019226668
0.0025907883
0.0033464349
0.0041814421
0.0050785965
0.0060078938
0.0069312542
0.007811873
0.0086234651
0.0093539133
0.010002598
0.010574445
0.011075984
0.011513456
0.011893456
0.012222654
0.012507699
0.01275402
0.012966161
0.013148286
0.013304035
0.013436352
0.013548134
0.013642554
0.013720022
0.013783369
0.013834117
0.01387333
0.013902148
0.013921733
0.013933059
0.01393696
0.013934202
0.013925583
0.013911495
0.013892383
0.013868654
0.013840745
0.013809097
0.013774043
0.013735909
0.013694992
0.013651542
0.013605846
0.013558079
0.0135084
0.013456941
0.013403898
0.013349456
0.013293762
0.013236928
0.013179078
0.013120328
0.013060773
0.013000475
0.01293952
0.012877997
0.012815978
0.012753526
0.012690696
0.012627551
0.012564153
0.012500542
0.012436759
0.012372844
0.012308838
0.012244775
0.012180688
0.012116608
0.012052563
0.011988578
0.011924676
0.011860877
0.011797201
0.011733661
0.011670275
0.011607048
0.011543998
0.011481102
0.011418419
0.011355806
0.01129352
0.011230956
0.011169134
0.011105956
0.01104416
0.010983999
0.010883352
0.00016427035
0.00016810824
0.00016991648
0.00017047216
0.00017060255
0.00017036351
0.00017052426
0.00017195449
0.00017653651
0.00018937307
0.00021794285
0.00027148267
0.00035841945
0.00051165233
0.0007467976
0.0010850442
0.001536195
0.0020929044
0.0027550051
0.0035157271
0.0043552448
0.0052402168
0.0061300138
0.0069872452
0.0077863911
0.0085155936
0.0091729271
0.0097612009
0.010284959
0.010749311
0.011159673
0.011521532
0.01184004
0.01211977
0.012364898
0.012579682
0.01276686
0.012929552
0.0130705
0.013191975
0.013296
0.013384287
0.013458415
0.013519814
0.013569657
0.01360908
0.013639167
0.013660796
0.013674781
0.013681821
0.013682533
0.013677449
0.013667103
0.01365198
0.013632517
0.013609185
0.013582252
0.013551999
0.01351871
0.013482676
0.01344414
0.013403327
0.013360423
0.013315608
0.01326908
0.013220994
0.013171459
0.013120615
0.013068596
0.013015512
0.012961463
0.012906537
0.012850832
0.01279444
0.012737426
0.012679855
0.012621794
0.012563302
0.012504435
0.012445245
0.012385781
0.012326086
0.012266202
0.012206166
0.012146013
0.012085775
0.012025479
0.011965154
0.011904816
0.0118445
0.011784191
0.011723968
0.01166369
0.011603666
0.011543253
0.011483635
0.011422535
0.011363298
0.011305136
0.011208547
0.00016345477
0.00016848823
0.00017177895
0.00017363326
0.00017376869
0.00017349994
0.0001729568
0.00017224573
0.00017165503
0.00017101388
0.00017138997
0.00017328008
0.00017857128
0.00019088176
0.00021531494
0.00025965429
0.00033097777
0.00045569086
0.00065313237
0.00094458683
0.0013465732
0.0018590599
0.0024835709
0.0032109133
0.004016984
0.0048650358
0.0057143081
0.0065309161
0.0072941557
0.007995555
0.0086338989
0.0092110102
0.0097300016
0.010194834
0.010609947
0.010980105
0.011309409
0.011601793
0.011860989
0.012090335
0.012292824
0.012471102
0.012627547
0.012764312
0.012883282
0.012986164
0.013074541
0.013149798
0.013213181
0.013265792
0.013308607
0.013342541
0.013368363
0.013386773
0.013398432
0.013403869
0.01340368
0.013398364
0.01338838
0.013374106
0.013355902
0.0133341
0.01330898
0.013280828
0.013249932
0.01321651
0.013180733
0.013142814
0.013102935
0.01306127
0.013017974
0.012973193
0.012927045
0.012879652
0.012831121
0.012781554
0.012731047
0.012679686
0.012627556
0.012574731
0.012521282
0.012467275
0.01241277
0.012357824
0.012302488
0.01224681
0.012190834
0.012134604
0.01207815
0.012021522
0.011964718
0.011907836
0.011850747
0.011793791
0.011736325
0.011679621
0.011621355
0.011565215
0.011509787
0.011418086
0.00016163612
0.00016678705
0.00017085942
0.00017335428
0.00017456572
0.00017481572
0.00017464887
0.00017422703
0.00017359365
0.0001728806
0.00017215409
0.00017153748
0.00017088782
0.00017075661
0.00017125521
0.00017365616
0.0001790902
0.00019058476
0.00021280645
0.00025306552
0.00031946828
0.0004367552
0.00062702078
0.00091148023
0.0013067252
0.0018160789
0.0024381557
0.0031576735
0.0039442284
0.0047583488
0.0055625666
0.0063302788
0.0070475631
0.0077093586
0.0083149132
0.0088656148
0.0093640466
0.0098136235
0.010218139
0.010581364
0.010906926
0.011198234
0.011458429
0.011690411
0.011896804
0.01207999
0.012242159
0.012385285
0.012511145
0.012621337
0.012717279
0.012800273
0.012871465
0.012931887
0.012982485
0.013024078
0.013057464
0.013083358
0.013102414
0.013115203
0.013122242
0.013124008
0.013120949
0.013113439
0.013101814
0.013086417
0.013067582
0.013045569
0.013020632
0.012993009
0.012962919
0.012930563
0.012896116
0.012859751
0.012821617
0.012781857
0.012740605
0.012697985
0.012654111
0.01260909
0.012563022
0.012515996
0.012468099
0.01241941
0.012370001
0.01231994
0.012269292
0.012218116
0.012166462
0.012114394
0.012061931
0.012009186
0.011956048
0.011902878
0.011849057
0.011795896
0.011741106
0.011688547
0.011636422
0.011550316
0.0001595111
0.00016416213
0.00016830932
0.00017127005
0.00017303696
0.00017385622
0.00017409237
0.00017400492
0.0001737323
0.00017333458
0.00017284029
0.00017226325
0.0001716311
0.00017101744
0.00017042145
0.00016989023
0.00016950224
0.0001695356
0.000170474
0.0001732816
0.0001791869
0.00019124493
0.00021458424
0.00025653023
0.00032943427
0.00045737855
0.00066465732
0.00097305779
0.0013931162
0.001928326
0.0025702234
0.003294359
0.0040641706
0.0048413362
0.0055960293
0.006310762
0.0069776168
0.007593808
0.0081591129
0.0086749595
0.0091438901
0.0095689689
0.0099533956
0.010300378
0.01061302
0.010894248
0.011146813
0.011373263
0.011575936
0.011756965
0.011918274
0.012061622
0.012188592
0.012300612
0.012398983
0.012484864
0.012559329
0.012623361
0.012677856
0.012723616
0.012761363
0.012791753
0.012815395
0.012832827
0.012844527
0.012850954
0.012852546
0.012849681
0.012842705
0.012831941
0.012817686
0.012800216
0.012779778
0.01275659
0.012730871
0.012702814
0.012672599
0.012640394
0.012606354
0.012570624
0.012533335
0.012494614
0.012454573
0.012413321
0.012370957
0.012327572
0.012283253
0.012238082
0.012192131
0.012145481
0.012098173
0.012050335
0.012001883
0.011953191
0.011903682
0.011854665
0.011803951
0.011755454
0.01170712
0.011627275
0.00015750907
0.00016142378
0.00016517074
0.0001681809
0.00017028133
0.00017154874
0.00017219792
0.00017245566
0.00017245334
0.00017229272
0.00017202664
0.00017167984
0.00017126901
0.00017080959
0.0001703038
0.00016976477
0.0001692218
0.00016868168
0.00016817914
0.00016779542
0.00016765621
0.00016804512
0.00016954231
0.00017315097
0.00018057447
0.00019537923
0.00022391066
0.00027412837
0.00036622795
0.00052451826
0.00077313363
0.001129753
0.0016004013
0.0021811606
0.0028519381
0.0035788565
0.0043241125
0.0050568635
0.0057579366
0.0064177269
0.0070320467
0.007599564
0.0081208114
0.0085975738
0.009032285
0.0094276521
0.0097865036
0.010111653
0.01040581
0.010671539
0.010911223
0.011127075
0.011321129
0.011495239
0.011651106
0.011790266
0.01191413
0.012023993
0.01212104
0.012206345
0.012280875
0.01234551
0.012401059
0.012448248
0.012487733
0.012520122
0.012545985
0.012565835
0.012580136
0.012589317
0.012593773
0.012593866
0.012589929
0.012582258
0.012571137
0.012556823
0.012539556
0.012519556
0.01249703
0.012472165
0.012445138
0.012416113
0.012385241
0.012352661
0.012318505
0.012282894
0.012245941
0.012207756
0.012168432
0.012128076
0.01208675
0.012044604
0.012001579
0.011958062
0.011913529
0.011869265
0.011823218
0.011779283
0.011735199
0.011662279
0.00015579593
0.00015898357
0.00016214992
0.00016488711
0.00016702233
0.00016853491
0.00016951076
0.00017008373
0.00017036667
0.00017044698
0.00017038711
0.00017022707
0.00016999213
0.00016969885
0.00016935694
0.0001689731
0.00016855589
0.00016810638
0.00016762715
0.00016713967
0.00016665692
0.0001662082
0.00016584459
0.0001656676
0.00016586408
0.00016680599
0.0001692991
0.00017449726
0.00018508015
0.00020609965
0.00024505021
0.00031677454
0.00044558914
0.00065708514
0.00097218495
0.0013990974
0.0019365332
0.0025666885
0.0032572535
0.0039713808
0.0046787207
0.0053600608
0.0060052509
0.0066093484
0.0071703342
0.0076881627
0.0081640902
0.0086000772
0.0089984455
0.0093616922
0.0096923356
0.0099928406
0.010265565
0.010512726
0.010736391
0.01093847
0.011120726
0.011284793
0.011432173
0.011564241
0.011682248
0.011787331
0.011880535
0.01196281
0.012035015
0.01209794
0.012152322
0.012198828
0.012238065
0.012270591
0.012296919
0.012317518
0.012332822
0.012343219
0.012349076
0.012350728
0.012348484
0.01234263
0.012333431
0.012321133
0.012305961
0.012288126
0.012267823
0.012245233
0.012220523
0.012193851
0.012165361
0.012135192
0.012103469
0.012070323
0.012035845
0.012000206
0.01196338
0.011925761
0.011886889
0.011848013
0.011807233
0.011768396
0.011729023
0.011663711
0.0001543871
0.00015695361
0.00015954986
0.00016188733
0.00016383808
0.00016536632
0.0001664973
0.00016729176
0.00016781438
0.00016812367
0.00016827029
0.00016829394
0.00016822387
0.00016808107
0.00016788048
0.00016763264
0.00016734533
0.00016702328
0.00016666877
0.00016628653
0.00016587997
0.00016545019
0.00016501016
0.00016457884
0.00016418014
0.00016385626
0.00016369187
0.00016382793
0.00016455516
0.00016649442
0.00017068771
0.00017919979
0.00019631601
0.0002291341
0.00029019689
0.00040341666
0.00059488832
0.00088665044
0.0012883377
0.0017993241
0.0024019297
0.0030641298
0.003750253
0.0044316411
0.0050902801
0.0057163389
0.0063047101
0.0068531247
0.0073612624
0.0078300464
0.0082610963
0.0086564307
0.0090182619
0.009348851
0.0096504339
0.0099251607
0.010175077
0.010402112
0.010608071
0.01079463
0.010963331
0.011115591
0.011252715
0.011375899
0.011486236
0.011584727
0.011672298
0.011749798
0.011818
0.011877615
0.011929294
0.011973636
0.012011191
0.012042459
0.012067905
0.012087955
0.012103003
0.012113413
0.012119521
0.012121637
0.012120049
0.012115023
0.012106806
0.012095626
0.012081695
0.012065211
0.012046358
0.012025311
0.012002226
0.011977268
0.011950557
0.011922289
0.011892476
0.011861519
0.011829029
0.011796211
0.01176133
0.011728166
0.011693984
0.011637002
0.00015324222
0.00015530836
0.00015741718
0.00015935909
0.00016104069
0.00016243583
0.00016355624
0.00016443114
0.00016509113
0.00016556562
0.00016588427
0.00016607476
0.00016616114
0.00016616322
0.00016609701
0.00016597515
0.00016580703
0.00016559953
0.00016535731
0.00016508416
0.0001647831
0.00016445548
0.00016410382
0.00016373217
0.00016334473
0.00016294621
0.0001625598
0.00016220726
0.00016192852
0.00016179565
0.00016194275
0.00016261883
0.00016435028
0.00016811551
0.00017570528
0.00019110448
0.00022119221
0.00027821112
0.00038580668
0.00057058951
0.00085414528
0.0012465158
0.0017457142
0.0023321627
0.0029731414
0.0036345934
0.0042905934
0.0049251938
0.0055294555
0.0060985496
0.0066303046
0.0071243603
0.007581465
0.0080030167
0.008390798
0.00874678
0.0090730056
0.0093715125
0.0096442847
0.0098932188
0.010120104
0.010326614
0.010514311
0.010684642
0.010838943
0.010978443
0.011104281
0.011217506
0.011319077
0.011409879
0.011490723
0.011562356
0.011625465
0.011680678
0.011728576
0.011769691
0.011804517
0.011833509
0.011857087
0.011875637
0.01188952
0.011899066
0.011904583
0.011906356
0.011904648
0.011899708
0.011891761
0.011881026
0.011867697
0.011851975
0.011834017
0.011814046
0.011792117
0.011768639
0.011743299
0.011717256
0.011688944
0.011662078
0.011633601
0.011585721
0.00015231119
0.00015398234
0.00015569615
0.00015729689
0.0001587117
0.00015992091
0.00016093559
0.00016177746
0.00016246501
0.00016301249
0.00016343367
0.00016374265
0.00016395359
0.00016408002
0.00016413452
0.00016412835
0.0001640707
0.00016396895
0.00016382891
0.00016365509
0.000163451
0.00016321908
0.00016296123
0.00016267924
0.00016237486
0.00016204909
0.00016170638
0.00016135213
0.00016099114
0.00016064388
0.00016033524
0.0001601049
0.00016002262
0.000160222
0.0001609363
0.00016266898
0.00016638062
0.00017384177
0.00018908698
0.00021904333
0.00027722031
0.00038742082
0.00057696019
0.00086538241
0.0012619088
0.0017611439
0.0023398925
0.0029646572
0.0036038794
0.0042351797
0.0048451029
0.0054259372
0.0059734682
0.0064858493
0.0069628011
0.0074050037
0.0078137309
0.0081906008
0.0085374098
0.0088560251
0.0091483123
0.0094160917
0.0096611093
0.0098850219
0.010089384
0.010275647
0.01044516
0.01059918
0.010738867
0.01086529
0.01097944
0.011082226
0.01117449
0.011257005
0.011330482
0.01139558
0.011452904
0.011503013
0.011546425
0.011583617
0.01161503
0.011641072
0.011662122
0.011678529
0.011690618
0.011698691
0.01170303
0.011703897
0.011701534
0.011696184
0.011688043
0.011677369
0.01166426
0.011649142
0.011631776
0.011613281
0.011592256
0.011572366
0.01155015
0.011512205
0.00015155007
0.00015291025
0.00015430936
0.00015563039
0.00015681372
0.00015784093
0.000158721
0.00015947341
0.00016011484
0.00016065623
0.00016110535
0.00016146871
0.00016175263
0.0001619638
0.00016210936
0.00016219675
0.00016223278
0.0001622235
0.00016217421
0.00016208937
0.00016197259
0.00016182669
0.00016165385
0.00016145575
0.0001612338
0.00016098891
0.00016072245
0.00016043623
0.00016013148
0.00015981241
0.00015948537
0.00015915754
0.00015884693
0.00015858257
0.00015840545
0.00015838948
0.00015867452
0.00015950234
0.00016141097
0.00016538541
0.00017340555
0.00018988719
0.00022215128
0.00028647264
0.00040736157
0.00061248589
0.0009177196
0.0013296033
0.001837157
0.0024129298
0.0030237115
0.003641749
0.0042486826
0.0048335399
0.0053899222
0.0059144073
0.0064055946
0.0068633718
0.0072884372
0.007681997
0.0080455532
0.0083807657
0.0086893548
0.008973041
0.0092335014
0.0094723435
0.0096910943
0.0098911937
0.010073991
0.010240743
0.01039262
0.010530707
0.01065601
0.010769458
0.010871909
0.010964158
0.011046939
0.011120929
0.011186754
0.011244995
0.011296186
0.011340824
0.011379367
0.011412241
0.011439839
0.01146253
0.011480652
0.011494525
0.011504444
0.011510695
0.011513526
0.01151323
0.011509957
0.011504148
0.011495648
0.011485536
0.011472572
0.011460394
0.01144505
0.011417946
0.0001509241
0.00015203829
0.00015318696
0.00015428186
0.00015527346
0.0001561429
0.00015689493
0.00015754552
0.00015811046
0.00015860118
0.00015902534
0.00015938787
0.00015969216
0.00015994101
0.00016013747
0.00016028516
0.00016038775
0.00016044892
0.00016047229
0.00016046124
0.0001604187
0.00016034715
0.00016024863
0.00016012475
0.00015997679
0.00015980572
0.00015961238
0.00015939767
0.00015916225
0.00015890726
0.00015863468
0.00015834656
0.00015804712
0.00015774379
0.00015744565
0.00015717154
0.00015695416
0.00015683847
0.00015690997
0.00015732106
0.00015834809
0.00016062224
0.00016520131
0.00017453962
0.00019381449
0.00023127052
0.000307355
0.00044829091
0.00067826029
0.0010108544
0.0014464644
0.0019667765
0.0025408953
0.0031378699
0.0037348078
0.004317314
0.0048767157
0.0054079642
0.0059084738
0.0063772928
0.0068145183
0.0072209227
0.0075976923
0.0079462543
0.0082681579
0.0085649945
0.0088383476
0.0090897619
0.0093207219
0.0095326391
0.0097268453
0.0099045908
0.010067045
0.010215297
0.010350358
0.010473168
0.010584599
0.010685458
0.010776492
0.010858395
0.010931808
0.010997325
0.011055496
0.011106832
0.011151805
0.011190856
0.011224394
0.0112528
0.011276428
0.01129562
0.011310675
0.011321931
0.011329593
0.011334126
0.011335456
0.011334631
0.01133057
0.011326904
0.011319099
0.011303824
0.00015040655
0.00015132473
0.00015227309
0.000153185
0.00015401944
0.00015475743
0.00015539942
0.00015595679
0.00015644296
0.00015686914
0.00015724385
0.00015757293
0.00015786002
0.0001581073
0.00015831634
0.00015848871
0.0001586259
0.00015872947
0.00015880121
0.00015884298
0.00015885654
0.00015884352
0.00015880533
0.00015874316
0.00015865798
0.00015855055
0.00015842147
0.00015827129
0.00015810043
0.00015790931
0.00015769864
0.00015746918
0.00015722212
0.00015695971
0.00015668479
0.00015640224
0.00015612086
0.00015585147
0.00015561665
0.00015545313
0.00015541356
0.00015560488
0.00015619831
0.00015754112
0.00016042216
0.00016607068
0.00017774701
0.00020158641
0.00024970736
0.00034500242
0.0005154538
0.0007802678
0.001148592
0.0016119049
0.0021445894
0.0027150196
0.0032967122
0.0038718958
0.0044295766
0.0049630977
0.0054687097
0.0059446275
0.0063903437
0.0068061824
0.0071929955
0.0075519574
0.0078844265
0.0081918538
0.0084757203
0.0087374948
0.0089786064
0.0092004271
0.0094042628
0.0095913461
0.0097628353
0.009919814
0.010063294
0.010194218
0.010313464
0.010421844
0.010520116
0.010608982
0.010689094
0.010761055
0.010825428
0.010882735
0.01093346
0.010978058
0.011016949
0.011050535
0.011079175
0.011103258
0.01112305
0.011139041
0.011151248
0.011160694
0.011166445
0.011172162
0.011172629
0.011170263
0.00014997679
0.0001507376
0.00015152464
0.00015228761
0.00015299282
0.00015362192
0.00015417213
0.0001546505
0.00015506721
0.00015543201
0.00015575325
0.00015603744
0.00015628923
0.00015651161
0.0001567065
0.0001568752
0.00015701854
0.00015713712
0.00015723156
0.00015730256
0.00015735083
0.00015737704
0.00015738182
0.00015736572
0.0001573292
0.0001572726
0.0001571962
0.00015710019
0.00015698473
0.00015684993
0.00015669597
0.00015652308
0.00015633156
0.00015612209
0.00015589564
0.0001556537
0.00015539901
0.00015513519
0.00015486841
0.00015460929
0.00015437062
0.00015418223
0.00015408558
0.00015414706
0.00015450642
0.00015536699
0.00015721104
0.00016097196
0.00016852863
0.00018425454
0.00021570173
0.00028096746
0.00040605121
0.00061568372
0.00092471864
0.0013335514
0.0018233893
0.0023641136
0.0029269401
0.0034910954
0.0040433565
0.0045755376
0.0050827781
0.0055624789
0.006013535
0.0064358231
0.0068298584
0.0071965614
0.0075371
0.0078527806
0.0081449737
0.008415064
0.0086644178
0.00889436
0.0091061606
0.0093010263
0.0094800976
0.0096444465
0.0097950777
0.0099329303
0.010058881
0.010173745
0.010278284
0.010373204
0.010459164
0.010536775
0.010606608
0.010669196
0.010725033
0.01077459
0.010818293
0.010856586
0.010889802
0.010918467
0.010942686
0.010963468
0.010980022
0.010996065
0.011005607
0.011017331
0.00014961875
0.00015025226
0.00015090847
0.0001515494
0.00015214759
0.00015268599
0.0001531597
0.00015357237
0.00015393107
0.00015424348
0.00015451685
0.00015475751
0.00015497049
0.00015515957
0.00015532745
0.00015547601
0.00015560642
0.00015571935
0.00015581518
0.00015589419
0.00015595652
0.00015600227
0.00015603147
0.00015604413
0.00015604019
0.00015601954
0.00015598207
0.00015592761
0.00015585599
0.00015576703
0.00015566057
0.00015553647
0.00015539463
0.00015523509
0.00015505803
0.00015486382
0.00015465328
0.00015442766
0.00015418895
0.0001539407
0.00015368725
0.00015343712
0.0001532032
0.00015300123
0.00015287225
0.000152864
0.0001530694
0.00015365632
0.00015492552
0.00015757983
0.00016277377
0.0001735091
0.00019563214
0.00024130682
0.00033325227
0.00049956473
0.00075854453
0.0011179094
0.0015660361
0.0020758964
0.0026177521
0.0031684086
0.0037125877
0.0042406688
0.0047467573
0.0052274928
0.0056812079
0.0061073573
0.0065061379
0.0068782272
0.0072246061
0.0075464355
0.0078449735
0.0081215175
0.0083773651
0.0086137875
0.0088320136
0.0090332188
0.0092185197
0.009388971
0.009545565
0.0096892324
0.0098208447
0.0099412159
0.010051106
0.010151225
0.010242233
0.01032475
0.010399352
0.010466586
0.01052695
0.010580952
0.010628995
0.010671649
0.010709111
0.010742387
0.010770816
0.010798212
0.010817705
0.010844814
0.00014931973
0.00014984956
0.00015039897
0.00015093926
0.0001514482
0.00015191038
0.00015231979
0.00015267757
0.00015298825
0.00015325746
0.00015349104
0.00015369447
0.00015387255
0.00015402925
0.0001541677
0.00015429037
0.00015439902
0.00015449479
0.00015457841
0.00015465032
0.00015471069
0.00015475949
0.00015479657
0.00015482168
0.00015483446
0.00015483453
0.00015482146
0.00015479479
0.00015475407
0.00015469883
0.00015462863
0.00015454305
0.0001544417
0.00015432424
0.00015419044
0.00015404013
0.00015387335
0.00015369035
0.00015349166
0.00015327844
0.00015305228
0.00015281597
0.00015257418
0.00015233226
0.00015210229
0.00015189956
0.00015174882
0.00015169719
0.00015181068
0.00015222985
0.00015316012
0.00015508934
0.00015894991
0.00016671926
0.00018294095
0.00021575378
0.00028499513
0.00041737882
0.00063545667
0.00095193969
0.0013616588
0.001841446
0.0023617046
0.0028975068
0.0034318233
0.0039537654
0.0044565222
0.0049360538
0.0053901874
0.0058179964
0.0062193849
0.0065948035
0.0069450553
0.0072711615
0.0075742691
0.0078555868
0.0081163411
0.008357747
0.0085809887
0.0087872062
0.0089774885
0.009152869
0.009314324
0.0094627722
0.0095990766
0.0097240463
0.0098384385
0.0099429638
0.010038285
0.010125031
0.010203779
0.010275106
0.010339494
0.010397559
0.010449597
0.010496618
0.010538088
0.010577947
0.01060835
0.010652253
0.0001490696
0.00014951445
0.00014997615
0.00015043296
0.000150867
0.00015126467
0.00015161948
0.00015193087
0.00015220143
0.00015243504
0.00015263616
0.00015280926
0.00015295851
0.0001530876
0.0001531997
0.00015329747
0.00015338303
0.00015345798
0.00015352349
0.00015358038
0.00015362915
0.00015366999
0.0001537029
0.00015372768
0.000153744
0.0001537514
0.00015374937
0.00015373731
0.00015371461
0.00015368063
0.00015363476
0.00015357636
0.00015350482
0.00015341957
0.00015332009
0.00015320592
0.00015307666
0.00015293206
0.00015277201
0.00015259664
0.00015240636
0.00015220201
0.00015198523
0.00015175812
0.00015152473
0.0001512909
0.00015106497
0.00015086188
0.00015070054
0.00015062184
0.00015068015
0.00015098083
0.00015170429
0.00015319185
0.00015622414
0.00016210241
0.00017436753
0.00019958997
0.00025312401
0.00035991501
0.00054529031
0.00082557402
0.0012011204
0.0016528088
0.0021519111
0.0026723834
0.0031957881
0.0037101688
0.0042079425
0.0046844919
0.0051372085
0.0055648316
0.0059670054
0.0063439756
0.006696382
0.0070251142
0.0073312128
0.0076157997
0.0078800316
0.0081250664
0.0083520421
0.0085620619
0.0087561847
0.0089354202
0.0091007258
0.0092530063
0.0093931141
0.0095218523
0.0096399742
0.0097481933
0.0098471717
0.0099375605
0.010019925
0.010094935
0.010162986
0.010225103
0.010280873
0.010334397
0.010376751
0.01043899
0.00014886023
0.00014923502
0.00014962426
0.00015001148
0.00015038234
0.00015072504
0.00015103308
0.00015130481
0.00015154137
0.00015174527
0.00015191976
0.00015206834
0.00015219447
0.00015230134
0.00015239185
0.00015246856
0.00015253368
0.00015258899
0.00015263596
0.00015267573
0.00015270912
0.00015273666
0.00015275864
0.00015277512
0.00015278596
0.00015279085
0.0001527894
0.00015278106
0.00015276523
0.00015274128
0.00015270852
0.00015266623
0.00015261371
0.00015255025
0.00015247517
0.00015238781
0.00015228755
0.00015217385
0.00015204623
0.00015190435
0.000151748
0.00015157718
0.00015139224
0.00015119385
0.00015098334
0.00015076297
0.00015053594
0.00015030782
0.00015008564
0.00014988284
0.00014971763
0.00014961919
0.00014964189
0.00014986548
0.00015045903
0.00015166436
0.00015409962
0.00015884227
0.00016860193
0.00018885117
0.00023162285
0.00031953395
0.0004795185
0.00073023063
0.0010764854
0.0015029347
0.0019821392
0.002487492
0.0029995239
0.0035054367
0.0039970301
0.0044692203
0.0049190405
0.0053449503
0.0057463714
0.0061233703
0.0064764405
0.0068063518
0.0071140461
0.0074005643
0.0076669958
0.0079144434
0.0081439992
0.0083567287
0.0085536598
0.0087357774
0.0089040192
0.0090592755
0.0092023878
0.009334155
0.0094553251
0.0095666268
0.0096687116
0.0097623089
0.0098479172
0.009926586
0.0099980127
0.010066498
0.010121931
0.010204181
0.00014868506
0.00014900174
0.0001493308
0.00014965973
0.00014997707
0.00015027269
0.0001505404
0.00015077789
0.00015098525
0.00015116395
0.00015131624
0.00015144479
0.00015155236
0.00015164163
0.0001517151
0.00015177508
0.00015182365
0.00015186257
0.0001518934
0.00015191741
0.00015193564
0.00015194888
0.00015195768
0.00015196236
0.00015196306
0.00015195972
0.00015195215
0.00015194001
0.00015192285
0.00015190014
0.00015187129
0.00015183565
0.0001517925
0.00015174115
0.00015168085
0.00015161089
0.00015153054
0.0001514391
0.00015133592
0.0001512204
0.00015109201
0.00015095032
0.00015079507
0.0001506262
0.00015044392
0.00015024889
0.00015004224
0.00014982608
0.00014960328
0.00014937888
0.00014916016
0.00014895753
0.00014878942
0.00014868007
0.00014868024
0.00014885602
0.00014934955
0.00015037282
0.00015242655
0.00015644801
0.00016456456
0.00018143966
0.00021678722
0.0002912281
0.00043188656
0.00065907144
0.00098104497
0.0013856494
0.001846825
0.0023378124
0.0028384816
0.0033354377
0.0038200283
0.0042868203
0.0047325704
0.0051555154
0.0055548946