/*--------------------------------*- C++ -*----------------------------------*\
| =========                 |                                                 |
| \\      /  F ield         | OpenFOAM: The Open Source CFD Toolbox           |
|  \\    /   O peration     | Version:  2206                                  |
|   \\  /    A nd           | Website:  www.openfoam.com                      |
|    \\/     M anipulation  |                                                 |
\*---------------------------------------------------------------------------*/
FoamFile
{
    version     2.0;
    format      ascii;
    arch        "LSB;label=32;scalar=64";
    class       volScalarField;
    location    "800";
    object      nut;
}
// * * * * * * * * * * * * * * * * * * * * * * * * * * * * * * * * * * * * * //

dimensions      [0 2 -1 0 0 0 0];

internalField   nonuniform List<scalar> 
7480
(
1.6139004e-05
2.2440346e-05
2.3613406e-05
2.2659165e-05
2.1073516e-05
1.9606703e-05
1.8477414e-05
1.7618526e-05
1.6930017e-05
1.6347697e-05
1.5842963e-05
1.5404051e-05
1.5023281e-05
1.4693605e-05
1.4408349e-05
1.4160832e-05
1.3945785e-05
1.3759041e-05
1.3596006e-05
1.3454065e-05
1.3328026e-05
1.3215189e-05
1.3113071e-05
1.3019532e-05
1.2933174e-05
1.2852827e-05
1.2777697e-05
1.2706956e-05
1.263985e-05
1.2575751e-05
1.2514316e-05
1.2455319e-05
1.2398504e-05
1.234366e-05
1.2290532e-05
1.2239027e-05
1.2188761e-05
1.213969e-05
1.2091713e-05
1.204469e-05
1.1998524e-05
1.1953128e-05
1.1908436e-05
1.1864409e-05
1.1820994e-05
1.1778158e-05
1.1735853e-05
1.1694022e-05
1.1652638e-05
1.1611669e-05
1.1571093e-05
1.1530897e-05
1.1491061e-05
1.1451578e-05
1.141243e-05
1.1373605e-05
1.1335094e-05
1.1296879e-05
1.1258945e-05
1.1221281e-05
1.1183889e-05
1.1146769e-05
1.1109912e-05
1.1073314e-05
1.1036972e-05
1.1000883e-05
1.0965038e-05
1.0929431e-05
1.0894061e-05
1.0858926e-05
1.0824022e-05
1.0789347e-05
1.0754897e-05
1.0720672e-05
1.0686669e-05
1.0652884e-05
1.0619313e-05
1.0585953e-05
1.0552802e-05
1.0519856e-05
1.0487113e-05
1.0454567e-05
1.0422216e-05
1.0390054e-05
1.0358077e-05
1.0326275e-05
1.0294643e-05
1.0263168e-05
1.023184e-05
1.0200631e-05
1.0169543e-05
1.013848e-05
1.0107533e-05
1.0076306e-05
1.0045384e-05
1.0013084e-05
9.9819333e-06
9.9457963e-06
9.9167344e-06
9.8613252e-06
1.6663444e-06
5.1425712e-06
8.7873222e-06
1.168042e-05
1.3403076e-05
1.4480156e-05
1.5237091e-05
1.5809651e-05
1.622253e-05
1.6518935e-05
1.674441e-05
1.6931306e-05
1.7097185e-05
1.7250031e-05
1.7394762e-05
1.7523614e-05
1.7646961e-05
1.7771589e-05
1.7897444e-05
1.801837e-05
1.8132444e-05
1.8236857e-05
1.8329668e-05
1.8411466e-05
1.8484095e-05
1.8548192e-05
1.8605812e-05
1.8655402e-05
1.8696615e-05
1.8729812e-05
1.8756466e-05
1.8777475e-05
1.8793273e-05
1.8804349e-05
1.8810439e-05
1.881269e-05
1.8809503e-05
1.8802596e-05
1.8792133e-05
1.8778057e-05
1.8760489e-05
1.8739668e-05
1.8715887e-05
1.8689353e-05
1.8660237e-05
1.8628784e-05
1.8595004e-05
1.8559013e-05
1.8520951e-05
1.8480941e-05
1.8439161e-05
1.8395728e-05
1.8350771e-05
1.8304407e-05
1.8256701e-05
1.8207782e-05
1.8157721e-05
1.8106566e-05
1.8054356e-05
1.800118e-05
1.7947147e-05
1.7892334e-05
1.7836794e-05
1.7780583e-05
1.7723768e-05
1.76664e-05
1.7608506e-05
1.7550129e-05
1.7491323e-05
1.7432136e-05
1.7372602e-05
1.7312754e-05
1.7252631e-05
1.7192273e-05
1.7131707e-05
1.7070957e-05
1.701005e-05
1.6949012e-05
1.6887869e-05
1.6826645e-05
1.6765361e-05
1.6704037e-05
1.6642693e-05
1.6581347e-05
1.6520014e-05
1.6458711e-05
1.639745e-05
1.6336248e-05
1.6275107e-05
1.621406e-05
1.6153061e-05
1.6092246e-05
1.6031328e-05
1.5970947e-05
1.5909775e-05
1.5850453e-05
1.5788086e-05
1.5730519e-05
1.5672991e-05
1.5569293e-05
4.2514542e-07
4.6487867e-07
9.417544e-07
2.2153445e-06
4.1435077e-06
6.4108071e-06
8.5163775e-06
1.033006e-05
1.2013162e-05
1.3633054e-05
1.5182076e-05
1.6641975e-05
1.8005059e-05
1.9277882e-05
2.047227e-05
2.1614499e-05
2.2705961e-05
2.3740797e-05
2.4715443e-05
2.5627804e-05
2.64788e-05
2.7269473e-05
2.7999383e-05
2.8674356e-05
2.9299133e-05
2.987476e-05
3.0415206e-05
3.091301e-05
3.1371518e-05
3.1792693e-05
3.218208e-05
3.2542333e-05
3.2875409e-05
3.3183627e-05
3.3466757e-05
3.3729614e-05
3.3966682e-05
3.4185942e-05
3.4386475e-05
3.4568861e-05
3.473414e-05
3.488344e-05
3.5017908e-05
3.5138495e-05
3.524605e-05
3.5341581e-05
3.5425354e-05
3.549803e-05
3.5560252e-05
3.5612606e-05
3.5655782e-05
3.5690311e-05
3.5716753e-05
3.5735619e-05
3.5747249e-05
3.5752155e-05
3.5750677e-05
3.5743089e-05
3.5729618e-05
3.5710639e-05
3.5686561e-05
3.5657701e-05
3.5624299e-05
3.5586613e-05
3.5544919e-05
3.5499439e-05
3.5450321e-05
3.5397762e-05
3.5341988e-05
3.5283188e-05
3.5221523e-05
3.515714e-05
3.5090206e-05
3.5020893e-05
3.4949321e-05
3.4875608e-05
3.4799878e-05
3.4722253e-05
3.4642846e-05
3.4561766e-05
3.4479114e-05
3.439499e-05
3.4309486e-05
3.4222692e-05
3.4134692e-05
3.4045572e-05
3.3955408e-05
3.3864291e-05
3.3772273e-05
3.3679503e-05
3.3585912e-05
3.3491958e-05
3.3396938e-05
3.3302765e-05
3.3205918e-05
3.3114077e-05
3.3013929e-05
3.2929856e-05
3.2837703e-05
3.2678294e-05
6.0297037e-06
1.0662941e-06
4.139658e-07
3.8211542e-07
5.7476632e-07
9.2990581e-07
1.7938646e-06
3.1772181e-06
4.8740356e-06
6.6185837e-06
8.3705941e-06
1.0254847e-05
1.2281304e-05
1.4412188e-05
1.6588657e-05
1.8757563e-05
2.0880638e-05
2.2936653e-05
2.4917706e-05
2.6820345e-05
2.8640558e-05
3.037454e-05
3.2022718e-05
3.3583643e-05
3.5059153e-05
3.6448513e-05
3.7756195e-05
3.8987213e-05
4.0144261e-05
4.1234406e-05
4.2260825e-05
4.3227625e-05
4.4138582e-05
4.4998747e-05
4.5808918e-05
4.6576716e-05
4.7284615e-05
4.7957648e-05
4.8585908e-05
4.9174059e-05
4.9724222e-05
5.0238591e-05
5.0719325e-05
5.1168305e-05
5.1587319e-05
5.1978439e-05
5.2342039e-05
5.2679786e-05
5.299295e-05
5.3282782e-05
5.3550716e-05
5.379787e-05
5.4025478e-05
5.4234631e-05
5.4426093e-05
5.4601e-05
5.4760092e-05
5.4904e-05
5.5033258e-05
5.5148716e-05
5.5251258e-05
5.5341584e-05
5.5420242e-05
5.5487845e-05
5.5545007e-05
5.5592234e-05
5.5629888e-05
5.5658432e-05
5.5678377e-05
5.5690149e-05
5.5694129e-05
5.5690663e-05
5.5680143e-05
5.5662967e-05
5.563942e-05
5.5609789e-05
5.557437e-05
5.5533449e-05
5.5487297e-05
5.5436173e-05
5.5380322e-05
5.5319983e-05
5.5255378e-05
5.5186729e-05
5.5114241e-05
5.5038122e-05
5.4958564e-05
5.4875781e-05
5.478993e-05
5.4701316e-05
5.4609916e-05
5.4516509e-05
5.4420144e-05
5.4323792e-05
5.4222385e-05
5.4127405e-05
5.4019562e-05
5.3936271e-05
5.3837229e-05
5.3671619e-05
5.3683854e-05
1.6289882e-05
4.6665595e-06
1.817615e-06
9.5655881e-07
6.515805e-07
5.8190518e-07
6.830709e-07
9.1336941e-07
1.4597589e-06
2.3892138e-06
3.5560679e-06
5.0019506e-06
6.6398004e-06
8.5187199e-06
1.0680314e-05
1.3103126e-05
1.5724222e-05
1.8460486e-05
2.1231039e-05
2.3975618e-05
2.6660059e-05
2.9269657e-05
3.1795891e-05
3.4231247e-05
3.656834e-05
3.8804225e-05
4.093965e-05
4.2979469e-05
4.4925913e-05
4.6780417e-05
4.8545884e-05
5.0225402e-05
5.1820511e-05
5.3336025e-05
5.4779822e-05
5.6145873e-05
5.7443876e-05
5.8676414e-05
5.9844253e-05
6.0949924e-05
6.1996978e-05
6.2988318e-05
6.3926502e-05
6.4814236e-05
6.5655007e-05
6.6449626e-05
6.7199675e-05
6.7906708e-05
6.8572783e-05
6.9200215e-05
6.9790667e-05
7.0345924e-05
7.0867764e-05
7.1357697e-05
7.1817728e-05
7.2248926e-05
7.2652346e-05
7.3028879e-05
7.3380048e-05
7.370731e-05
7.401181e-05
7.4294474e-05
7.4556391e-05
7.4798607e-05
7.5021983e-05
7.5227143e-05
7.5414927e-05
7.5586217e-05
7.5741746e-05
7.5882183e-05
7.6008147e-05
7.6120345e-05
7.6219479e-05
7.6306051e-05
7.6380587e-05
7.644362e-05
7.6495663e-05
7.6537205e-05
7.6568714e-05
7.6590637e-05
7.6603406e-05
7.660743e-05
7.6603113e-05
7.6590833e-05
7.6570967e-05
7.6543872e-05
7.6509931e-05
7.6469451e-05
7.6422927e-05
7.6370447e-05
7.6313098e-05
7.6249829e-05
7.6184438e-05
7.6110887e-05
7.6043278e-05
7.5958381e-05
7.5903427e-05
7.5823824e-05
7.5698874e-05
0.00011526562
7.5612073e-05
3.7667805e-05
1.7795851e-05
8.8551823e-06
4.8175269e-06
2.8738398e-06
1.871047e-06
1.3290466e-06
1.0585632e-06
9.8659307e-07
1.0661801e-06
1.2800861e-06
1.800198e-06
2.6092392e-06
3.7131119e-06
5.1765912e-06
6.9487937e-06
9.0884803e-06
1.1615409e-05
1.4487824e-05
1.7615671e-05
2.0889685e-05
2.4210885e-05
2.7511266e-05
3.0754033e-05
3.3920875e-05
3.6999392e-05
3.9980386e-05
4.2858091e-05
4.5630193e-05
4.8296624e-05
5.0858048e-05
5.3314907e-05
5.566914e-05
5.792603e-05
6.0085e-05
6.2150109e-05
6.4125095e-05
6.6012772e-05
6.7816229e-05
6.953769e-05
7.1179925e-05
7.2745938e-05
7.4237734e-05
7.5658081e-05
7.7010722e-05
7.8298401e-05
7.952404e-05
8.0690049e-05
8.1798555e-05
8.2851405e-05
8.3850996e-05
8.4799643e-05
8.569963e-05
8.6553967e-05
8.7363692e-05
8.813034e-05
8.8855762e-05
8.9542002e-05
9.0190686e-05
9.080339e-05
9.1381432e-05
9.1926227e-05
9.2439521e-05
9.2922637e-05
9.337646e-05
9.3802316e-05
9.4201515e-05
9.4575118e-05
9.4924135e-05
9.5249506e-05
9.5552334e-05
9.5833678e-05
9.6094279e-05
9.6334963e-05
9.655655e-05
9.6759832e-05
9.6945562e-05
9.7114466e-05
9.726724e-05
9.7404556e-05
9.7527055e-05
9.7635364e-05
9.7730081e-05
9.7811795e-05
9.7881068e-05
9.7938488e-05
9.7984559e-05
9.8019992e-05
9.8045038e-05
9.8061086e-05
9.8067096e-05
9.8067522e-05
9.8055767e-05
9.8047711e-05
9.801747e-05
9.8020273e-05
9.7985195e-05
9.7948724e-05
0.00013758011
0.00012405738
9.730182e-05
6.799186e-05
4.4153425e-05
2.8171333e-05
1.8077144e-05
1.1795646e-05
7.8781566e-06
5.3547429e-06
3.7448701e-06
2.6879119e-06
2.0076287e-06
1.6168339e-06
1.4435137e-06
1.450644e-06
1.6165578e-06
2.1085683e-06
2.91507e-06
4.0846589e-06
5.7077286e-06
7.7443279e-06
1.0266851e-05
1.3264596e-05
1.6661323e-05
2.0332566e-05
2.4145273e-05
2.7993456e-05
3.1813165e-05
3.5572685e-05
3.9253983e-05
4.2842658e-05
4.6327886e-05
4.9703541e-05
5.2966918e-05
5.6118393e-05
5.9157028e-05
6.2083706e-05
6.4900608e-05
6.7609941e-05
7.0214155e-05
7.2715511e-05
7.5116449e-05
7.7419741e-05
7.9627785e-05
8.1743193e-05
8.376929e-05
8.5709199e-05
8.7566074e-05
8.9342827e-05
9.1042065e-05
9.2666917e-05
9.421961e-05
9.5702484e-05
9.7118151e-05
9.8468147e-05
9.9755781e-05
0.00010098367
0.00010215452
0.00010327023
0.0001043328
0.00010534424
0.00010630619
0.00010722072
0.00010809012
0.00010891595
0.00010969931
0.00011044212
0.00011114594
0.00011181238
0.00011244294
0.00011303912
0.00011360205
0.00011413301
0.00011463319
0.00011510379
0.00011554594
0.00011596075
0.00011634926
0.0001167125
0.00011705144
0.00011736703
0.00011766019
0.00011793179
0.00011818269
0.00011841372
0.00011862568
0.00011881941
0.00011899562
0.00011915529
0.00011929886
0.00011942802
0.00011954183
0.00011964527
0.00011973148
0.00011981756
0.00011987568
0.00011996844
0.00012000372
0.00012010568
0.00014271661
0.00014098416
0.00013203941
0.000115729
9.5421554e-05
7.5039334e-05
5.730497e-05
4.2986008e-05
3.1909614e-05
2.3551815e-05
1.7328696e-05
1.2724169e-05
9.2906749e-06
6.7852799e-06
4.961207e-06
3.6703076e-06
2.7765513e-06
2.2240342e-06
1.935118e-06
1.8750622e-06
2.0240404e-06
2.5658734e-06
3.4788647e-06
4.8574248e-06
6.7830326e-06
9.2526473e-06
1.230946e-05
1.5899612e-05
1.9895016e-05
2.413638e-05
2.8482279e-05
3.2838747e-05
3.715594e-05
4.1406739e-05
4.5570997e-05
4.963384e-05
5.3585801e-05
5.7421948e-05
6.1139802e-05
6.4738149e-05
6.821707e-05
7.1577388e-05
7.4820323e-05
7.794763e-05
8.0961226e-05
8.3863216e-05
8.6656258e-05
8.9343215e-05
9.1927095e-05
9.4410876e-05
9.6797348e-05
9.9089588e-05
0.0001012903
0.00010340208
0.00010542775
0.00010736945
0.00010923022
0.00011101302
0.00011272085
0.00011435622
0.00011592154
0.00011741918
0.00011885178
0.00012022127
0.00012152935
0.00012277834
0.00012397095
0.00012510893
0.00012619414
0.00012722853
0.00012821395
0.00012915226
0.000130045
0.00013089389
0.00013170035
0.00013246593
0.00013319212
0.00013388034
0.00013453196
0.00013514832
0.00013573069
0.00013628033
0.00013679843
0.00013728616
0.00013774464
0.000138175
0.00013857828
0.00013895559
0.00013930791
0.00013963646
0.00013994192
0.0001402263
0.00014048881
0.00014073488
0.00014095755
0.00014117485
0.00014135728
0.00014157508
0.00014170828
0.00014200102
0.00014369679
0.00014496719
0.00014378669
0.0001384361
0.00012865251
0.0001154892
0.00010067168
8.5718624e-05
7.1668282e-05
5.9055071e-05
4.8074267e-05
3.8708606e-05
3.0837541e-05
2.4309207e-05
1.8948811e-05
1.458909e-05
1.1078564e-05
8.3294247e-06
6.2286788e-06
4.6707885e-06
3.5524211e-06
2.8432018e-06
2.4570284e-06
2.3562889e-06
2.5809235e-06
3.2626997e-06
4.4317943e-06
6.2196366e-06
8.6344359e-06
1.1738643e-05
1.5499579e-05
1.9790939e-05
2.443128e-05
2.9246291e-05
3.4112668e-05
3.8962106e-05
4.3757731e-05
4.8473757e-05
5.3090623e-05
5.7595873e-05
6.1982567e-05
6.6246418e-05
7.038472e-05
7.4396389e-05
7.8281384e-05
8.2040262e-05
8.5674335e-05
8.9185476e-05
9.2575949e-05
9.5848249e-05
9.9004897e-05
0.00010204866
0.00010498226
0.00010780834
0.00011052969
0.00011314876
0.00011566843
0.00011809171
0.00012042173
0.00012266135
0.00012481332
0.00012688026
0.00012886499
0.00013076996
0.0001325973
0.00013434946
0.0001360293
0.00013763911
0.00013918112
0.00014065756
0.00014207063
0.00014342252
0.00014471527
0.00014595058
0.00014713054
0.00014825696
0.00014933163
0.00015035629
0.00015133264
0.00015226234
0.00015314697
0.00015398808
0.00015478719
0.00015554574
0.00015626517
0.00015694686
0.00015759217
0.00015820247
0.00015877901
0.00015932329
0.00015983627
0.00016032023
0.00016077461
0.00016120522
0.00016160516
0.00016199317
0.00016233813
0.00016271877
0.00016297973
0.00016351806
0.00014411571
0.00014570711
0.00014664629
0.00014594798
0.00014286606
0.0001371002
0.00012891829
0.00011896151
0.00010793083
9.6499821e-05
8.5180104e-05
7.4327578e-05
6.4185347e-05
5.4859178e-05
4.6388039e-05
3.8778612e-05
3.2007602e-05
2.6048676e-05
2.0877118e-05
1.6457651e-05
1.2737466e-05
9.7159554e-06
7.3324448e-06
5.5163221e-06
4.218825e-06
3.3936878e-06
2.9735755e-06
2.9072845e-06
3.3732077e-06
4.3669464e-06
6.0254211e-06
8.4302018e-06
1.1612726e-05
1.5567028e-05
2.0165779e-05
2.5204954e-05
3.0480131e-05
3.5843059e-05
4.1209585e-05
4.6533623e-05
5.1783675e-05
5.6936396e-05
6.1976662e-05
6.6895372e-05
7.1686535e-05
7.6346268e-05
8.0872646e-05
8.5265092e-05
8.9523953e-05
9.3650319e-05
9.7645694e-05
0.00010151202
0.00010525148
0.00010886636
0.00011235914
0.00011573219
0.00011898815
0.00012212986
0.00012516037
0.00012808264
0.00013089954
0.00013361387
0.00013622852
0.00013874624
0.00014116949
0.00014350087
0.00014574332
0.0001478995
0.00014997192
0.00015196311
0.00015387553
0.00015571165
0.00015747382
0.00015916415
0.00016078492
0.00016233828
0.00016382633
0.00016525114
0.0001666147
0.00016791897
0.00016916584
0.00017035718
0.00017149478
0.0001725804
0.00017361576
0.00017460255
0.0001755424
0.00017643697
0.0001772878
0.00017809668
0.00017886482
0.00017959484
0.00018028638
0.00018094564
0.00018156582
0.00018216632
0.00018271427
0.0001832981
0.00018371916
0.00018456046
0.00014470263
0.0001460586
0.00014726161
0.00014788285
0.00014748648
0.00014569011
0.00014228186
0.00013727193
0.00013083868
0.00012327767
0.00011492679
0.00010609923
9.7023281e-05
8.7926399e-05
7.8982106e-05
7.0315604e-05
6.2009315e-05
5.4121726e-05
4.6721255e-05
3.9840882e-05
3.3484061e-05
2.7689276e-05
2.2486372e-05
1.7889714e-05
1.3929595e-05
1.0644112e-05
8.0251295e-06
6.0231146e-06
4.6608604e-06
3.8394061e-06
3.4942758e-06
3.7183291e-06
4.576474e-06
6.1713562e-06
8.6231198e-06
1.195208e-05
1.6164105e-05
2.111902e-05
2.6585344e-05
3.2331293e-05
3.8190354e-05
4.4068026e-05
4.991122e-05
5.5683332e-05
6.1357939e-05
6.6917984e-05
7.2352734e-05
7.7654996e-05
8.2820244e-05
8.7846053e-05
9.2731319e-05
9.7475994e-05
0.0001020808
0.00010654694
0.00011087603
0.00011506988
0.00011913057
0.0001230605
0.00012686235
0.0001305389
0.00013409294
0.0001375272
0.00014084456
0.00014404784
0.00014713969
0.0001501228
0.00015300011
0.00015577449
0.00015844866
0.00016102534
0.00016350719
0.0001658969
0.00016819708
0.00017041014
0.00017253856
0.00017458478
0.00017655117
0.00017844006
0.00018025375
0.00018199445
0.00018366435
0.00018526561
0.00018680029
0.00018827045
0.00018967809
0.00019102517
0.00019231363
0.00019354541
0.00019472232
0.00019584644
0.00019691928
0.00019794373
0.00019891971
0.00019985373
0.00020073919
0.0002015961
0.00020238968
0.00020321939
0.00020383546
0.00020503978
0.00014557309
0.00014664109
0.00014767328
0.00014847382
0.00014885811
0.0001486217
0.00014756567
0.0001455412
0.00014247447
0.00013837838
0.00013334301
0.00012750966
0.00012102535
0.00011404641
0.00010672509
9.9198402e-05
9.158326e-05
8.396557e-05
7.6362001e-05
6.8848195e-05
6.1479937e-05
5.4305262e-05
4.73802e-05
4.0774701e-05
3.4523128e-05
2.8686021e-05
2.3330662e-05
1.8504633e-05
1.4336513e-05
1.0880836e-05
8.1379933e-06
6.1594785e-06
4.8852507e-06
4.234039e-06
4.2469071e-06
5.0198869e-06
6.6313593e-06
9.2133669e-06
1.2789695e-05
1.735635e-05
2.2742613e-05
2.8682821e-05
3.4922639e-05
4.1286636e-05
4.7676321e-05
5.4034135e-05
6.0319922e-05
6.6505686e-05
7.2573406e-05
7.8511274e-05
8.4311314e-05
8.9968575e-05
9.5480208e-05
0.00010084474
0.00010606177
0.00011113161
0.00011605517
0.00012083389
0.00012546967
0.00012996468
0.0001343213
0.00013854196
0.00014262929
0.00014658598
0.00015041466
0.00015411799
0.00015769884
0.00016116008
0.00016450454
0.00016773503
0.00017085434
0.00017386526
0.00017677059
0.00017957294
0.00018227498
0.00018487935
0.00018738865
0.00018980543
0.0001921322
0.00019437146
0.00019652563
0.0001985971
0.00020058822
0.0002025013
0.00020433861
0.00020610239
0.00020779483
0.00020941813
0.00021097441
0.00021246602
0.00021389473
0.00021526374
0.00021657323
0.00021783001
0.0002190277
0.00022018695
0.00022127083
0.00022239131
0.00022323985
0.00022486997
0.00014672689
0.00014754689
0.00014835617
0.00014904288
0.0001495311
0.00014974332
0.00014958466
0.00014894741
0.00014772623
0.00014583956
0.00014324501
0.00013994369
0.00013596968
0.00013138183
0.00012625632
0.00012067852
0.00011473606
0.00010851329
0.00010206198
9.5435531e-05
8.8687375e-05
8.1866986e-05
7.501605e-05
6.8113031e-05
6.1202517e-05
5.4334952e-05
4.7567358e-05
4.097086e-05
3.4628977e-05
2.8634422e-05
2.3063903e-05
1.8077831e-05
1.381424e-05
1.0334912e-05
7.7370012e-06
6.0081823e-06
5.0558931e-06
4.9179089e-06
5.6733152e-06
7.4063398e-06
1.0230279e-05
1.4185601e-05
1.9228372e-05
2.5135649e-05
3.1603524e-05
3.8364873e-05
4.5247015e-05
5.2153471e-05
5.9024502e-05
6.5818304e-05
7.2506887e-05
7.907219e-05
8.5502004e-05
9.1788097e-05
9.7925236e-05
0.00010391018
0.00010974117
0.00011541761
0.00012093976
0.00012630854
0.00013152533
0.00013659186
0.00014151016
0.00014628249
0.0001509112
0.00015539873
0.0001597477
0.00016396085
0.00016804092
0.0001719907
0.00017581297
0.00017951057
0.00018308633
0.00018654301
0.00018988337
0.00019311018
0.00019622619
0.00019923413
0.00020213668
0.00020493652
0.00020763628
0.00021023858
0.00021274596
0.00021516098
0.00021748614
0.0002197239
0.00022187672
0.00022394705
0.00022593726
0.00022784997
0.00022968721
0.00023145245
0.00023314615
0.0002347754
0.00023633406
0.00023784343
0.00023926424
0.00024072234
0.00024184328
0.00024396476
0.00014814375
0.0001487633
0.00014937712
0.0001499086
0.00015031789
0.00015058013
0.00015066706
0.00015053485
0.00015012173
0.00014935707
0.00014817447
0.00014652221
0.0001443683
0.00014170122
0.00013852855
0.00013487396
0.00013077314
0.00012627109
0.00012141039
0.00011623082
0.00011077184
0.00010507227
9.9172974e-05
9.3085721e-05
8.6827929e-05
8.0421967e-05
7.3913138e-05
6.7255406e-05
6.0471554e-05
5.3629064e-05
4.6768887e-05
4.0013172e-05
3.347484e-05
2.72549e-05
2.1542334e-05
1.6547698e-05
1.2387261e-05
9.2283299e-06
7.0946293e-06
5.8893796e-06
5.7055813e-06
6.5431546e-06
8.5393256e-06
1.1747222e-05
1.6239746e-05
2.1892578e-05
2.841153e-05
3.5457738e-05
4.2766615e-05
5.0179579e-05
5.7606637e-05
6.4988881e-05
7.2285619e-05
7.947005e-05
8.6524341e-05
9.3436272e-05
0.00010019771
0.00010680337
0.00011324998
0.00011953578
0.00012566012
0.00013162317
0.00013742578
0.00014306926
0.00014855527
0.0001538857
0.00015906268
0.00016408857
0.00016896585
0.00017369708
0.00017828491
0.00018273206
0.0001870413
0.0001912154
0.00019525714
0.00019916931
0.00020295474
0.00020661624
0.00021015661
0.00021357866
0.00021688515
0.00022007885
0.00022316249
0.0002261388
0.00022901047
0.00023178018
0.00023445058
0.00023702436
0.00023950412
0.00024189269
0.00024419239
0.0002464069
0.00024853698
0.00025058994
0.00025255994
0.00025446892
0.0002562751
0.00025811954
0.00025955513
0.00026223631
0.00014980228
0.00015026196
0.00015071638
0.0001511092
0.00015141228
0.00015161589
0.00015171764
0.00015170999
0.00015157168
0.00015126729
0.00015075215
0.00014997852
0.00014890149
0.0001474835
0.00014569711
0.00014352619
0.00014096551
0.00013802031
0.00013470302
0.00013103012
0.00012702078
0.00012269594
0.00011808026
0.00011319274
0.00010804863
0.00010266038
9.7054381e-05
9.1226308e-05
8.5170567e-05
7.8898573e-05
7.2444333e-05
6.5736603e-05
5.8824801e-05
5.176197e-05
4.4638954e-05
3.7620721e-05
3.0825226e-05
2.4477634e-05
1.8846881e-05
1.4093116e-05
1.0484232e-05
8.0471006e-06
6.6865427e-06
6.6155946e-06
7.683663e-06
1.012327e-05
1.3924325e-05
1.9122522e-05
2.5501132e-05
3.2695059e-05
4.0350479e-05
4.8224499e-05
5.6178653e-05
6.4129832e-05
7.2021892e-05
7.9817225e-05
8.7490989e-05
9.5026164e-05
0.00010241111
0.00010963803
0.00011670182
0.00012359938
0.00013032905
0.00013689026
0.00014328319
0.00014950861
0.00015556773
0.00016146215
0.00016719376
0.00017276468
0.00017817719
0.00018343371
0.0001885368
0.00019348908
0.00019829321
0.00020295194
0.00020746804
0.00021184431
0.00021608359
0.00022018872
0.00022416255
0.00022800794
0.00023172771
0.00023532473
0.00023880182
0.00024216182
0.00024540757
0.00024854191
0.00025156764
0.00025448782
0.00025730496
0.00026002296
0.00026264287
0.00026517217
0.00026760535
0.00026996498
0.00027220663
0.00027448781
0.00027628249
0.00027959445
0.00015168449
0.00015201659
0.0001523428
0.00015262109
0.0001528286
0.00015295829
0.00015301367
0.00015300016
0.00015291714
0.00015275454
0.00015249302
0.00015210556
0.00015156022
0.00015082323
0.00014986204
0.00014864776
0.00014715653
0.00014537072
0.00014327909
0.0001408759
0.00013816001
0.00013513377
0.0001318034
0.00012817677
0.00012426183
0.00012006471
0.00011559611
0.00011086193
0.00010586168
0.00010059282
9.5070257e-05
8.9267937e-05
8.3173177e-05
7.6794072e-05
7.0118837e-05
6.3119283e-05
5.5846679e-05
4.8378141e-05
4.0920324e-05
3.3599481e-05
2.6700023e-05
2.0536801e-05
1.5302866e-05
1.1405004e-05
8.8051842e-06
7.4706886e-06
7.6245526e-06
9.1778294e-06
1.2255247e-05
1.6885277e-05
2.2973476e-05
3.0183112e-05
3.8097965e-05
4.6383316e-05
5.4834983e-05
6.3336136e-05
7.1811649e-05
8.0210786e-05
8.8499909e-05
9.6656226e-05
0.00010466409
0.00011251292
0.00012019563
0.0001277076
0.000135046
0.0001422093
0.00014919692
0.00015600904
0.00016264645
0.00016911037
0.00017540238
0.00018152436
0.00018747839
0.00019326675
0.00019889183
0.00020435614
0.00020966231
0.00021481301
0.00021981098
0.00022465904
0.00022936
0.00023391674
0.00023833212
0.00024260905
0.00024675045
0.00025075925
0.00025463839
0.00025839087
0.00026201962
0.00026552786
0.0002689183
0.000272195
0.00027535929
0.00027841876
0.00028136828
0.000284231
0.00028695975
0.00028972961
0.00029192981
0.0002959463
0.00015377639
0.00015400601
0.00015422895
0.00015441387
0.00015454171
0.00015460529
0.00015460756
0.00015455602
0.00015445688
0.00015431187
0.0001541171
0.00015386262
0.00015353281
0.00015310746
0.0001525633
0.00015187564
0.00015101985
0.00014997269
0.00014871347
0.00014722464
0.00014549199
0.00014350441
0.00014125404
0.00013873583
0.00013594688
0.00013288505
0.00012955006
0.00012594228
0.00012206061
0.00011790062
0.00011346324
0.00010874094
0.00010371999
9.8391565e-05
9.2744111e-05
8.6746038e-05
8.0380037e-05
7.3661809e-05
6.6518778e-05
5.8992956e-05
5.1175171e-05
4.3285755e-05
3.5461495e-05
2.8095861e-05
2.1490916e-05
1.5969489e-05
1.1921462e-05
9.3246582e-06
8.3595916e-06
8.9610885e-06
1.1255311e-05
1.5227134e-05
2.0900938e-05
2.8003603e-05
3.6088864e-05
4.4734214e-05
5.3655476e-05
6.268993e-05
7.1738418e-05
8.073496e-05
8.9635862e-05
9.8411887e-05
0.00010704295
0.00011551528
0.00012381942
0.00013194898
0.00013989974
0.00014766915
0.00015525583
0.00016265938
0.00016988006
0.00017691871
0.00018377661
0.00019045535
0.0001969568
0.00020328306
0.00020943637
0.00021541915
0.00022123394
0.00022688334
0.00023237008
0.00023769692
0.00024286668
0.00024788225
0.00025274654
0.00025746252
0.00026203318
0.00026646159
0.00027075078
0.00027490407
0.00027892433
0.00028281574
0.00028657987
0.00029022437
0.00029374451
0.00029716401
0.00030043289
0.00030374475
0.0003063987
0.00031119604
0.00015606714
0.00015621377
0.00015635294
0.00015646156
0.00015652371
0.000156532
0.00015648759
0.00015639662
0.00015626606
0.00015610127
0.00015590493
0.00015567632
0.0001554108
0.00015509985
0.00015473135
0.00015429026
0.00015375922
0.00015311947
0.00015235174
0.00015143708
0.00015035746
0.00014909619
0.0001476383
0.00014597065
0.00014408207
0.00014196282
0.00013960469
0.00013700079
0.0001341449
0.00013102993
0.00012764986
0.00012399765
0.00012006272
0.00011583314
0.00011129659
0.00010643315
0.00010121735
9.5640373e-05
8.9655275e-05
8.3228481e-05
7.6363746e-05
6.9011985e-05
6.1171875e-05
5.2974672e-05
4.4629198e-05
3.6355362e-05
2.858669e-05
2.1631532e-05
1.6060853e-05
1.2096973e-05
9.7906765e-06
9.4241076e-06
1.0836739e-05
1.4127228e-05
1.9311042e-05
2.621265e-05
3.4389224e-05
4.3344776e-05
5.2708217e-05
6.2260259e-05
7.1872554e-05
8.1461897e-05
9.0973083e-05
0.00010036929
0.0001096253
0.00011872368
0.00012765237
0.00013640304
0.00014497008
0.00015334983
0.00016154011
0.00016953985
0.00017734881
0.0001849674
0.00019239656
0.00019963759
0.00020669214
0.00021356211
0.00022024963
0.00022675696
0.00023308656
0.00023924098
0.00024522288
0.000251035
0.0002566802
0.00026216136
0.00026748147
0.00027264358
0.00027765078
0.00028250642
0.00028721348
0.00029177618
0.00029619633
0.00030048157
0.00030462761
0.00030865865
0.00031252186
0.00031643029
0.00031958787
0.0003252448
0.00015854811
0.00015862696
0.00015869768
0.00015874348
0.00015875122
0.00015871361
0.00015863027
0.00015850546
0.00015834501
0.00015815445
0.00015793832
0.00015769948
0.00015743868
0.00015715421
0.0001568418
0.00015649462
0.00015610338
0.00015565658
0.00015514097
0.00015454199
0.00015384426
0.00015303204
0.00015208966
0.00015100187
0.00014975415
0.00014833285
0.00014672523
0.00014491951
0.00014290484
0.00014067066
0.00013820685
0.00013550346
0.00013254957
0.00012933292
0.00012584034
0.0001220561
0.0001179591
0.00011353152
0.00010874569
0.00010356545
9.7967254e-05
9.1906765e-05
8.5331394e-05
7.824484e-05
7.0586515e-05
6.2362861e-05
5.3731076e-05
4.4886276e-05
3.6209452e-05
2.8118643e-05
2.1051462e-05
1.5659046e-05
1.2027018e-05
1.0517764e-05
1.0984898e-05
1.3580927e-05
1.8219267e-05
2.4843987e-05
3.3041877e-05
4.2261889e-05
5.2044583e-05
6.2104063e-05
7.2275933e-05
8.2456983e-05
9.2579259e-05
0.00010259764
0.00011248134
0.00012220906
0.000131766
0.00014114185
0.00015032952
0.00015932422
0.00016812292
0.00017672385
0.00018512624
0.00019333006
0.00020133587
0.0002091447
0.00021675796
0.00022417736
0.00023140484
0.00023844259
0.00024529295
0.00025195841
0.0002584416
0.00026474527
0.00027087227
0.00027682559
0.00028260827
0.00028822362
0.00029367467
0.00029896563
0.00030409852
0.00030908088
0.00031390887
0.00031860711
0.00032311992
0.00032768056
0.00033139309
0.00033799061
0.00016121223
0.0001612353
0.00016124967
0.00016124336
0.00016120566
0.00016112965
0.00016101392
0.00016086111
0.00016067561
0.00016046213
0.00016022509
0.00015996824
0.00015969424
0.00015940442
0.00015909864
0.00015877506
0.00015843007
0.00015805821
0.00015765227
0.00015720336
0.00015670118
0.00015613417
0.00015548984
0.00015475505
0.00015391628
0.00015295989
0.00015187233
0.0001506403
0.00014925087
0.00014769141
0.00014594954
0.00014401311
0.00014186986
0.00013950694
0.00013691081
0.00013406683
0.00013095757
0.00012756462
0.00012386656
0.00011983547
0.00011544332
0.00011065648
0.00010542834
9.9727336e-05
9.3499232e-05
8.6679868e-05
7.9287365e-05
7.1204826e-05
6.2507815e-05
5.3363785e-05
4.4031496e-05
3.5027443e-05
2.6718045e-05
1.9915276e-05
1.4953406e-05
1.2089838e-05
1.1629533e-05
1.346119e-05
1.7547458e-05
2.3876406e-05
3.2065351e-05
4.1524786e-05
5.1713387e-05
6.2275241e-05
7.300575e-05
8.3779759e-05
9.4515658e-05
0.00010515951
0.00011567472
0.00012603601
0.00013622573
0.00014623152
0.00015604476
0.00016565951
0.00017507185
0.00018427929
0.00019328051
0.00020207501
0.00021066299
0.00021904518
0.00022722275
0.00023519722
0.00024297039
0.00025054433
0.00025792129
0.00026510374
0.00027209429
0.00027889573
0.00028551097
0.00029194322
0.00029819547
0.00030427182
0.00031017447
0.00031591076
0.00032147737
0.0003268992
0.00033211775
0.00033738717
0.0003417072
0.00034932838
0.00016405359
0.00016403042
0.00016399806
0.00016394823
0.00016387228
0.00016376384
0.00016362088
0.00016344482
0.00016323878
0.00016300649
0.00016275175
0.00016247809
0.00016218853
0.00016188541
0.00016157024
0.00016124358
0.00016090493
0.00016055254
0.0001601834
0.00015979319
0.00015937624
0.00015892557
0.00015843299
0.00015788922
0.00015728402
0.00015660636
0.00015584465
0.00015498685
0.00015402065
0.00015293357
0.00015171303
0.00015034639
0.00014882087
0.00014712343
0.00014524057
0.00014315815
0.00014086072
0.00013833149
0.000135552
0.00013250042
0.00012915214
0.00012547961
0.00012144748
0.00011701986
0.00011215479
0.00010679322
0.00010090441
9.440583e-05
8.7238093e-05
7.9406779e-05
7.0785909e-05
6.1536324e-05
5.1800048e-05
4.207757e-05
3.2809951e-05
2.4655254e-05
1.8365945e-05
1.4225968e-05
1.2780286e-05
1.378912e-05
1.7313671e-05
2.3327645e-05
3.1486577e-05
4.1169631e-05
5.1757354e-05
6.282119e-05
7.4112843e-05
8.5483612e-05
9.6837686e-05
0.000108112
0.00011926396
0.00013026421
0.0001410922
0.0001517335
0.00016217794
0.00017241841
0.00018245005
0.00019226969
0.0002018754
0.00021126624
0.00022044206
0.00022940329
0.00023815088
0.00024668615
0.00025501078
0.00026312676
0.00027103628
0.00027874182
0.00028624601
0.00029355186
0.0003006622
0.00030758099
0.0003143105
0.0003208578
0.00032722007