/*--------------------------------*- C++ -*----------------------------------*\
| =========                 |                                                 |
| \\      /  F ield         | OpenFOAM: The Open Source CFD Toolbox           |
|  \\    /   O peration     | Version:  2206                                  |
|   \\  /    A nd           | Website:  www.openfoam.com                      |
|    \\/     M anipulation  |                                                 |
\*---------------------------------------------------------------------------*/
FoamFile
{
    version     2.0;
    format      ascii;
    arch        "LSB;label=32;scalar=64";
    class       volScalarField;
    location    "800";
    object      p;
}
// * * * * * * * * * * * * * * * * * * * * * * * * * * * * * * * * * * * * * //

dimensions      [0 2 -2 0 0 0 0];

internalField   nonuniform List<scalar> 
7480
(
0.062715301
0.051792678
0.036382374
0.027041752
0.021788168
0.01864267
0.016663353
0.015151537
0.013825501
0.012720097
0.011843342
0.011155022
0.010633968
0.010253944
0.0099845498
0.0098033162
0.0096900308
0.0096309235
0.0096044975
0.009602646
0.009626166
0.0096498716
0.0096664579
0.0096789383
0.0096852848
0.0096842193
0.009676503
0.0096623439
0.0096403564
0.009611103
0.0095758161
0.0095349315
0.0094889669
0.0094386768
0.009384007
0.0093252046
0.0092623837
0.0091954004
0.009124772
0.0090508792
0.0089737525
0.0088932941
0.0088100479
0.0087241074
0.0086354339
0.0085444294
0.0084509256
0.0083550211
0.008256926
0.0081563858
0.0080537491
0.0079489929
0.0078421258
0.007733328
0.0076223537
0.0075094405
0.0073945047
0.0072775423
0.0071585631
0.0070374879
0.0069144533
0.0067893195
0.0066621824
0.0065329394
0.006401612
0.0062681539
0.0061325231
0.005994692
0.0058546197
0.0057123018
0.0055676772
0.0054207414
0.0052714332
0.0051197594
0.004965652
0.0048091175
0.0046500959
0.004488613
0.0043246201
0.0041581637
0.0039892147
0.0038178497
0.0036440831
0.0034680221
0.0032897839
0.003109493
0.0029274565
0.0027438688
0.0025593878
0.0023741832
0.0021900563
0.0020060572
0.0018289048
0.001649659
0.0014985685
0.0013230198
0.0012603654
0.0010566737
0.001804429
-0.0017764449
0.059023451
0.050781991
0.038443553
0.029183937
0.02290943
0.019141756
0.0169087
0.015304027
0.013940967
0.012819853
0.011932154
0.011234148
0.010704821
0.010316956
0.010039994
0.0098518918
0.0097327386
0.0096681353
0.0096416502
0.0096410334
0.0096560177
0.0096726766
0.0096869868
0.009697464
0.0097020046
0.0096993899
0.009690327
0.0096749625
0.0096519068
0.0096217264
0.009585627
0.0095440117
0.0094973907
0.0094465082
0.0093912999
0.0093320109
0.0092687516
0.0092013722
0.0091303808
0.0090561559
0.0089787231
0.0088979827
0.0088144772
0.0087282953
0.0086393975
0.0085481844
0.0084544857
0.0083584
0.0082601355
0.0081594365
0.0080566512
0.0079517549
0.0078447559
0.0077358335
0.0076247415
0.0075117174
0.0073966764
0.0072796147
0.0071605414
0.007039377
0.0069162576
0.0067910432
0.0066638295
0.0065345135
0.0064031167
0.0062695926
0.006133899
0.0059960081
0.0058558787
0.0057135064
0.00556883
0.0054218446
0.0052724892
0.0051207702
0.0049666198
0.0048100443
0.0046509834
0.0044894631
0.0043254345
0.004158944
0.0039899623
0.0038185662
0.0036447701
0.0034686808
0.0032904155
0.0031100989
0.0029280381
0.0027444272
0.0025599243
0.0023746991
0.0021905531
0.002006536
0.0018293685
0.0016501077
0.0014990089
0.0013234513
0.0012608026
0.0010571941
0.0018048438
-0.0017758892
0.055255171
0.048462633
0.037672752
0.028945999
0.023168657
0.019653485
0.017408177
0.015708015
0.014260496
0.013088397
0.012163724
0.011434851
0.010881495
0.010473378
0.010178995
0.0099763242
0.0098443324
0.0097682314
0.0097329129
0.0097228869
0.0097264411
0.0097354299
0.0097435116
0.0097482343
0.0097477456
0.0097408569
0.009728081
0.0097093183
0.0096832208
0.0096503992
0.0096119978
0.0095683144
0.0095198379
0.0094672786
0.0094105533
0.0093498709
0.0092853549
0.009216863
0.0091448381
0.0090696699
0.0089913728
0.0089098395
0.0088256098
0.0087387585
0.0086492428
0.0085574585
0.0084632272
0.0083666497
0.0082679286
0.0081668037
0.0080636232
0.0079583573
0.0078510129
0.0077417669
0.0076303706
0.0075170616
0.0074017523
0.0072844381
0.0071651272
0.007043739
0.0069204086
0.0067949944
0.0066675921
0.0065380977
0.006406532
0.0062728479
0.0061370026
0.0059989681
0.0058587025
0.0057162008
0.0055714015
0.0054242994
0.0052748331
0.0051230087
0.004968758
0.0048120872
0.0046529356
0.004491329
0.0043272183
0.0041606497
0.0039915937
0.0038201268
0.0036462633
0.00347011
0.0032917839
0.0031114095
0.0029292939
0.0027456311
0.0025610794
0.0023758081
0.0021916199
0.0020075624
0.0018303621
0.0016510661
0.0014999532
0.0013243671
0.001261749
0.0010581501
0.0018059243
-0.0017751593
0.052356543
0.046736761
0.037411473
0.029254016
0.023742419
0.020206507
0.017867979
0.016117044
0.014637415
0.013435438
0.012476733
0.011712636
0.01113015
0.010696343
0.010378646
0.010155113
0.010003879
0.0099106451
0.0098600989
0.0098366523
0.0098289641
0.0098283748
0.0098278576
0.0098249235
0.0098175532
0.0098045865
0.0097864364
0.0097627522
0.0097322198
0.0096955147
0.0096536661
0.009606845
0.0095555387
0.0095004135
0.0094413595
0.0093784589
0.0093119366
0.0092416899
0.0091679927
0.0090913044
0.0090116137
0.0089287983
0.0088433964
0.0087554609
0.0086649444
0.008572234
0.0084771362
0.0083797586
0.008280295
0.0081784771
0.0080746547
0.007968789
0.0078608852
0.0077511159
0.0076392278
0.0075254595
0.0074097179
0.0072919969
0.0071723034
0.0070505559
0.0069268877
0.0068011544
0.0066734512
0.0065436725
0.0064118386
0.0062779004
0.0061418147
0.0060035527
0.0058630718
0.0057203661
0.0055753731
0.0054280874
0.0052784468
0.005126457
0.0049720491
0.004815229
0.0046559356
0.0044941943
0.0043299555
0.0041632651
0.0039940933
0.0038225164
0.0036485483
0.0034722956
0.003293875
0.003113411
0.0029312105
0.0027474673
0.00256284
0.0023774972
0.0021932433
0.0020091231
0.0018318708
0.0016525204
0.0015013811
0.0013257508
0.0012631685
0.0010595257
0.0018075902
-0.0017741755
0.049666094
0.044915135
0.036938454
0.029601492
0.024379685
0.02079197
0.018330556
0.016483933
0.014932908
0.013713344
0.012750992
0.01197921
0.011380314
0.010924281
0.010586968
0.010345592
0.010177977
0.010069813
0.010003703
0.0099655553
0.0099449463
0.0099328013
0.0099230171
0.0099124694
0.0098983126
0.0098791976
0.0098555222
0.0098267777
0.0097916002
0.0097507255
0.0097050506
0.0096546576
0.0096000621
0.0095419229
0.009480113
0.0094145656
0.0093456304
0.0092732365
0.0091974885
0.0091189212
0.0090374969
0.0089530775
0.0088662029
0.0087768985
0.0086851152
0.0085912296
0.0084950254
0.0083966204
0.0082962004
0.0081934884
0.008088837
0.007982195
0.007873567
0.0077631203
0.007650596
0.007536234
0.0074199322
0.0073016837
0.0071814944
0.0070592817
0.0069351766
0.0068090304
0.0066809383
0.0065507927
0.0064186124
0.0062843464
0.0061479506
0.0060093955
0.0058686373
0.0057256688
0.0055804266
0.0054329047
0.0052830403
0.0051308383
0.0049762288
0.0048192173
0.0046597422
0.0044978283
0.0043334256
0.0041665794
0.0039972596
0.0038255421
0.0036514402
0.0034750605
0.0032965194
0.0031159409
0.002933632
0.0027497861
0.002565062
0.0023796277
0.0021952893
0.0020110888
0.0018337677
0.0016543479
0.0015031668
0.001327481
0.0012649234
0.0010612264
0.0018096625
-0.0017729482
0.047207585
0.043048074
0.03626034
0.029735032
0.024806071
0.021281915
0.018781053
0.016879163
0.015291216
0.014031707
0.013029697
0.012217534
0.011591918
0.011117106
0.010770345
0.010516945
0.010332505
0.010213646
0.010138393
0.010092069
0.010063779
0.010042876
0.010024163
0.010004952
0.0099827909
0.0099568978
0.0099278016
0.0098944476
0.0098550605
0.0098103926
0.0097611716
0.0097073601
0.0096495184
0.0095883383
0.0095236807
0.0094554203
0.0093839793
0.0093092726
0.0092313323
0.0091507348
0.0090674144
0.0089812178
0.0088926994
0.0088018522
0.0087086263
0.0086133998
0.0085159313
0.0084163487
0.0083148294
0.0082110834
0.0081054688
0.0079979212
0.0078884459
0.0077772063
0.0076639373
0.0075488791
0.0074319186
0.0073130496
0.0071922773
0.007069517
0.0069448969
0.0068182635
0.0066897123
0.0065591335
0.0064265448
0.006291892
0.00615513
0.0060162291
0.0058751437
0.0057318654
0.0055863293
0.0054385291
0.0052884011
0.005135949
0.0049811021
0.0048238654
0.0046641764
0.0045020596
0.004337464
0.0041704348
0.004000941
0.0038290582
0.0036547994
0.0034782706
0.0032995879
0.0031188751
0.0029364388
0.0027524721
0.0025676342
0.0023820923
0.0021976537
0.0020133584
0.0018359537
0.0016564524
0.0015052133
0.0013294621
0.0012669099
0.0010631582
0.0018120074
-0.0017715183
0.045063256
0.04133114
0.035486777
0.029691884
0.025095509
0.021687139
0.019180196
0.017245986
0.015646705
0.014361138
0.013329222
0.012488906
0.011832689
0.011327414
0.010951764
0.010671034
0.010463861
0.01033199
0.010248083
0.010193525
0.010158392
0.010134003
0.01011359
0.01009264
0.010067512
0.010036929
0.010002288
0.0099633898
0.0099189545
0.0098703136
0.0098178841
0.0097611396
0.0097005397
0.0096367504
0.009569551
0.0094988099
0.0094250319
0.009348094
0.0092680026
0.0091853941
0.0091001649
0.0090121478
0.0089219292
0.0088294668
0.0087347109
0.0086380539
0.0085392319
0.0084383854
0.0083356813
0.0082308115
0.0081241453
0.008015604
0.0079051941
0.0077930765
0.0076789771
0.00756314
0.0074454432
0.0073258816
0.0072044577
0.0070810826
0.0069558829
0.0068287
0.0066996302
0.0065685621
0.0064355117
0.0063004209
0.0061632441
0.0060239513
0.005882495
0.0057388653
0.0055929963
0.0054448805
0.0052944533
0.0051417174
0.004986601
0.0048291085
0.0046691769
0.0045068296
0.0043420152
0.0041747781
0.0040050868
0.0038330165
0.0036585794
0.0034818814
0.0033030379
0.0031221724
0.0029395914
0.0027554876
0.0025705199
0.0023848554
0.0022003021
0.0020158986
0.0018383957
0.0016588013
0.0015074872
0.0013316609
0.0012690909
0.0010652789
0.0018145683
-0.0017698913
0.043171384
0.039832192
0.034741457
0.029562841
0.02528839
0.022011316
0.019526168
0.017580288
0.015974703
0.01466947
0.013616256
0.012758347
0.012080008
0.011549064
0.011149826
0.010845164
0.010613434
0.010460066
0.010355182
0.010282165
0.0102332
0.010201488
0.010177647
0.010154244
0.010129267
0.010100421
0.010067139
0.010028658
0.0099826229
0.0099308089
0.0098746133
0.0098141849
0.0097505453
0.0096843788
0.0096150745
0.0095423134
0.0094666388
0.0093878306
0.0093058647
0.0092214611
0.0091344787
0.0090447497
0.0089529078
0.0088588764
0.0087626144
0.0086645333
0.0085643448
0.0084622115
0.0083582914
0.0082522574
0.0081444974
0.0080349159
0.0079235207
0.0078104721
0.0076954843
0.0075788103
0.0074603219
0.0073400145
0.0072178864
0.0070938442
0.0069680137
0.0068402318
0.006710596
0.0065789914
0.0064454332
0.0063098609
0.0061722281
0.0060325035
0.0058906378
0.0057466202
0.0056003833
0.0054519186
0.00530116
0.0051481095
0.0049926943
0.0048349182
0.0046747172
0.0045121141
0.0043470565
0.0041795885
0.0040096777
0.0038373988
0.0036627635
0.0034858771
0.0033068547
0.0031258192
0.0029430769
0.00275882
0.0025737074
0.0023879058
0.0022032235
0.0020186985
0.0018410833
0.0016613842
0.0015099772
0.0013340655
0.0012714523
0.0010675699
0.0018173138
-0.0017680511
0.041464918
0.038492497
0.034056684
0.029417524
0.025435139
0.022284959
0.019834433
0.017888223
0.016280776
0.01496375
0.013894376
0.013020411
0.012321382
0.011769522
0.011347079
0.011021545
0.010771246
0.01059739
0.010473812
0.010384314
0.010320252
0.010274305
0.010237931
0.010204085
0.010172666
0.010142188
0.010108968
0.010071211
0.010028197
0.0099795409
0.0099255678
0.0098654111
0.0098001239
0.0097313553
0.0096593306
0.0095842272
0.0095067961
0.0094264936
0.0093430743
0.0092572912
0.0091689129
0.0090777622
0.008984533
0.0088891131
0.0087914832
0.0086920838
0.0085906016
0.0084872345
0.0083821339
0.0082749546
0.0081661094
0.0080554851
0.0079430951
0.0078290996
0.0077132012
0.007595665
0.0074763548
0.0073552686
0.0072324018
0.0071076573
0.0069811607
0.006852744
0.0067225068
0.0065903292
0.0064562267
0.0063201381
0.0061820159
0.0060418265
0.0058995193
0.0057550824
0.0056084474
0.0054596044
0.0053084862
0.0051550939
0.0049993536
0.0048412688
0.0046807741
0.004517892
0.0043525691
0.0041848488
0.004014698
0.003842191
0.0036673386
0.003490246
0.0033110273
0.0031298053
0.0029468858
0.0027624607
0.0025771886
0.0023912359
0.0022064106
0.0020217513
0.0018440092
0.0016641941
0.0015126756
0.0013366682
0.0012739839
0.0010700183
0.0018202164
-0.0017659746
0.039911182
0.037261239
0.033397033
0.029250531
0.025550583
0.022530301
0.020123063
0.018182691
0.016574985
0.015249153
0.014165472
0.013276389
0.012558916
0.011987776
0.011543537
0.01119821
0.010930021
0.010736354
0.010595084
0.010490844
0.010413246
0.010354339
0.010307032
0.010263821
0.010223889
0.010185508
0.010144936
0.010101342
0.010056637
0.010008732
0.0099562718
0.0098992978
0.0098376903
0.0097717153
0.0097008926
0.0096250954
0.0095459091
0.0094636352
0.009378476
0.0092914183
0.0092019665
0.009109772
0.0090155355
0.0089190583
0.0088203366
0.0087198456
0.0086172463
0.0085127871
0.0084066181
0.0082983783
0.0081885155
0.0080768979
0.0079635498
0.007848633
0.0077318385
0.0076134472
0.0074933138
0.0073714416
0.0072478243
0.0071223622
0.0069951816
0.0068661094
0.0067352486
0.0066024747
0.0064678039
0.0063311739
0.0061925368
0.0060518571
0.005909083
0.0057642017
0.0056171434
0.0054678978
0.005316396
0.0051626384
0.0050065504
0.0048481347
0.0046873249
0.004524143
0.0043585345
0.0041905426
0.004020133
0.0038473798
0.003672293
0.0034949772
0.0033155463
0.0031341222
0.0029510105
0.0027664027
0.0025809569
0.0023948396
0.0022098578
0.0020250515
0.0018471682
0.0016672258
0.0015155766
0.0013394628
0.0012766775
0.0010726137
0.0018232496
-0.0017636346
0.038490764
0.036119628
0.032744996
0.029045086
0.02562339
0.022743332
0.020392383
0.018467111
0.016862509
0.015530101
0.014433389
0.013529746
0.012794887
0.012205019
0.011740274
0.0113755
0.011089605
0.010877065
0.010718709
0.010599017
0.010507704
0.010436694
0.010379011
0.010327373
0.010279828
0.010234364
0.010187476
0.010138632
0.010088921
0.010035976
0.0099788877
0.0099198967
0.0098590443
0.0097949398
0.0097269632
0.0096548022
0.0095785555
0.0094978879
0.0094125657
0.0093242959
0.009233389
0.009139933
0.0090447969
0.0089475497
0.0088480753
0.0087468295
0.008643407
0.0085381058
0.008431074
0.0083219376
0.0082111923
0.0080986896
0.0079844715
0.007868705
0.0077510693
0.0076318665
0.0075109413
0.0073883053
0.0072639517
0.0071377796
0.0070099174
0.0068801869
0.0067486961
0.0066153168
0.0064800661
0.0063428809
0.0062037131
0.0060625265
0.0059192678
0.0057739237
0.0056264235
0.0054767563
0.0053248518
0.00517071
0.0050142552
0.0048554899
0.0046943466
0.0045308467
0.004364935
0.004196654
0.0040259689
0.003852953
0.0036776158
0.0035000615
0.0033204032
0.0031387624
0.0029554444
0.0027706402
0.0025850073
0.0023987124
0.002213561
0.0020285955
0.0018505567
0.0016704757
0.0015186759
0.0013424449
0.0012795267
0.0010753476
0.0018263882
-0.0017609993
0.037188102
0.035058805
0.032100526
0.028799781
0.025647493
0.022916299
0.020635198
0.018736471
0.017141106
0.015806167
0.014699008
0.013781993
0.013030668
0.012422598
0.011938071
0.011554088
0.011250524
0.011019637
0.010844318
0.010709276
0.010604346
0.010521175
0.01045284
0.0103924
0.010337159
0.010285037
0.010232715
0.010179236
0.010124967
0.010067793
0.010007196
0.0099448426
0.009880461
0.0098127712
0.009742684
0.0096711429
0.0095967804
0.0095187561
0.0094369155
0.0093514961
0.0092621792
0.0091687391
0.0090727109
0.008974378
0.0088740187
0.0087721472
0.0086681642
0.0085623275
0.0084547269
0.0083449488
0.0082335403
0.0081203318
0.0080053927
0.0078889
0.0077705236
0.0076505932
0.0075289444
0.0074055997
0.0072805533
0.0071537047
0.0070251865
0.0068948154
0.0067627068
0.006628729
0.0064929013
0.0063551596
0.006215457
0.0060737568
0.0059300049
0.0057841879
0.005636234
0.0054861325
0.0053338118
0.0051792717
0.0050224356
0.0048633059
0.0047018141
0.0045379813
0.0043717514
0.0042031666
0.0040321911
0.0038588981
0.0036832962
0.0035054893
0.0033255899
0.0031437191
0.0029601816
0.0027751681
0.0025893354
0.0024028506
0.0022175167
0.0020323801
0.0018541715
0.0016739412
0.0015219701
0.001345611
0.0012825262
0.0010782123
0.0018296062
-0.0017580316
0.035989793
0.034071472
0.031467261
0.028520492
0.025624607
0.023046884
0.020846682
0.018985394
0.017406432
0.016074159
0.01496024
0.014031981
0.013265736
0.012640474
0.012137048
0.011734308
0.011413175
0.011164287
0.010972074
0.010821774
0.01070315
0.010607803
0.010528753
0.010459237
0.010396132
0.010337209
0.010279202
0.010220819
0.010162133
0.010101358
0.01003781
0.009972549
0.0099052188
0.0098348738
0.0097623655
0.0096882349
0.0096110755
0.0095312403
0.0094500441
0.009366463
0.0092796743
0.0091894816
0.0090960681
0.0089990497
0.0088986655
0.0087960794
0.0086912819
0.0085848671
0.0084768539
0.0083666755
0.0082548746
0.0081412128
0.0080257738
0.0079087429
0.0077897806
0.0076692538
0.0075469901
0.0074230281
0.0072973652
0.0071699028
0.0070407802
0.0069098098
0.0067771164
0.0066425654
0.0065061799
0.0063678956
0.0062276672
0.0060854585
0.0059412152
0.005794924
0.005646513
0.0054959718
0.0053432279
0.0051882812
0.0050310544
0.0048715501
0.0047096989
0.0045455218
0.0043789618
0.0042100611
0.0040387831
0.0038652007
0.0036893217
0.0035112501
0.0033310975
0.0031489844
0.0029652155
0.0027799807
0.0025939365
0.00240725
0.0022217216
0.0020364024
0.0018580101
0.0016776196
0.0015254561
0.001348958
0.0012856708
0.0010812005
0.0018328766
-0.0017546896
0.034884219
0.033150886
0.030848421
0.028214264
0.025559545
0.023136528
0.021025361
0.019210811
0.017655244
0.016331058
0.01521453
0.014277778
0.013498686
0.012857707
0.012336576
0.011915809
0.011577416
0.011310953
0.011102044
0.01093655
0.010804198
0.010696606
0.010606737
0.010528018
0.010456932
0.010391011
0.010327085
0.01026363
0.010200448
0.010135912
0.010069185
0.010001006
0.0099311219
0.0098586987
0.0097842146
0.0097079269
0.0096287255
0.0095470988
0.0094639181
0.0093780974
0.009289964
0.0092005348
0.0091089211
0.0090143938
0.0089169698
0.008816643
0.0087127527
0.0086061881
0.0084975952
0.0083868387
0.0082746707
0.0081607284
0.0080450207
0.0079276887
0.0078083547
0.0076874199
0.0075646996
0.0074402541
0.0073140872
0.0071861059
0.0070564595
0.0069249568
0.0067917351
0.0066566575
0.0065197524
0.006380956
0.0062402259
0.0060975272
0.0059528061
0.0058060504
0.0056571884
0.0055062105
0.0053530439
0.0051976889
0.005040068
0.0048801841
0.0047179672
0.0045534386
0.0043865405
0.0042173152
0.0040457253
0.0038718439
0.0036956779
0.0035173313
0.0033369149
0.0031545492
0.0029705381
0.0027850715
0.0025988047
0.0024119058
0.0022261714
0.0020406589
0.001862069
0.001681508
0.0015291306
0.0013524824
0.001288955
0.0010843048
0.0018361695
-0.0017509254
0.033861295
0.032290866
0.030246349
0.027887615
0.025457745
0.023188103
0.0211716
0.019411398
0.017885626
0.016574763
0.01545987
0.01451768
0.013728108
0.013073192
0.012535782
0.012097949
0.011742823
0.011459325
0.011234041
0.011053497
0.010907468
0.010787604
0.010686848
0.010598784
0.010519569
0.010446507
0.010376509
0.010307851
0.010240051
0.010171577
0.01010151
0.01003033
0.0099577984
0.0098831331
0.0098066087
0.0097284411
0.0096477261
0.009564709
0.0094799267
0.0093925409
0.0093030134
0.0092119374
0.0091184755
0.0090232263
0.0089267363
0.0088281782
0.0087267715
0.0086227836
0.0085159318
0.0084057017
0.0082932705
0.0081788603
0.0080628105
0.0079452677
0.0078257398
0.0077046098
0.0075816378
0.0074568916
0.0073303777
0.0072020103
0.0070719535
0.0069400141
0.0068063462
0.0066708116
0.0065334461
0.0063941872
0.0062529966
0.0061098417
0.0059646702
0.0058174718
0.0056681755
0.0055167737
0.0053631935
0.0052074364
0.0050494248
0.0048891625
0.0047265792
0.0045616968
0.0043944568
0.004224902
0.0040529944
0.0038788073
0.003702347
0.0035237175
0.0033430292
0.003160402
0.0029761398
0.0027904321
0.0026039332
0.0024168122
0.0022308611
0.0020451451
0.0018663442
0.001685603
0.0015329893
0.0013561805
0.0012923728
0.0010875167
0.0018394522
-0.0017466849
0.032912241
0.031485789
0.02966259
0.027546202
0.025324484
0.023204915
0.021286624
0.019586828
0.018096536
0.016803902
0.015694788
0.014750327
0.01395279
0.013285905
0.012733805
0.012280045
0.011908899
0.011609012
0.011367779
0.011172419
0.011012829
0.010880721
0.010769052
0.010671533
0.010584065
0.010503751
0.010427542
0.010353539
0.010280999
0.010208454
0.010134922
0.010060644
0.00998536
0.0099083244
0.0098296756
0.0097495705
0.0096672198
0.0095827423
0.0094965861
0.009408092
0.0093175133
0.0092251925
0.0091305352
0.0090341644
0.0089361814
0.0088360807
0.008734672
0.008631792
0.0085266471
0.0084189315
0.008308664
0.0081953672
0.0080794841
0.007961656
0.0078417968
0.0077204809
0.0075973867
0.0074725213
0.0073458485
0.0072172684
0.0070869535
0.0069547072
0.0068207046
0.0066848081
0.0065470642
0.006407413
0.0062658219
0.0061222618
0.0059766826
0.0058290772
0.0056793761
0.0055275742
0.0053735995
0.0052174552
0.0050590643
0.0048984319
0.0047354878
0.0045702547
0.0044026742
0.0042327895
0.0040605623
0.0038860665
0.0037093075
0.0035303902
0.003349424
0.003166529
0.0029820086
0.0027960523
0.002609313
0.0024219614
0.002235784
0.0020498553
0.0018708306
0.0016898998
0.0015370274
0.0013600474
0.0012959172
0.0010908269
0.0018426881
-0.0017419076
0.032029395
0.030730574
0.029098034
0.027194808
0.025164656
0.023190334
0.02137206
0.019737331
0.018287466
0.017017577
0.015918209
0.01497465
0.014171727
0.013494951
0.012929859
0.012461444
0.012075137
0.011759599
0.01150294
0.011293078
0.011120108
0.010975837
0.010853265
0.010746216
0.010650403
0.010562739
0.010480194
0.010400717
0.010323333
0.010246605
0.010169492
0.010092019
0.010013888
0.0099343846
0.0098535277
0.0097714088
0.0096873274
0.0096013156
0.0095137395
0.0094240355
0.0093323635
0.0092390254
0.0091435492
0.0090463113
0.0089473145
0.0088462678
0.0087439122
0.008639617
0.0085334142
0.0084261919
0.0083172909
0.0082059021
0.0080922348
0.0079759928
0.0078567111
0.0077353047
0.0076119519
0.0074869198
0.0073601654
0.0072315181
0.0071011141
0.0069687231
0.0068345317
0.006698399
0.0065603848
0.0064204345
0.0062785233
0.0061346273
0.0059887
0.0058407385
0.0056906759
0.0055385105
0.0053841716
0.0052276653
0.0050689154
0.0049079293
0.0047446372
0.0045790634
0.0044111494
0.0042409395
0.0040683955
0.0038935918
0.0037165338
0.0035373268
0.0033560799
0.003172913
0.0029881296
0.002801919
0.002614933
0.0024273438
0.0022409318
0.0020547824
0.0018755216
0.0016943927
0.0015412385
0.0013640774
0.0012995801
0.0010942244
0.0018458357
-0.0017365249
0.031206046
0.030020661
0.028553067
0.026837408
0.024982706
0.02314765
0.02142973
0.019863468
0.01845823
0.017215192
0.01612932
0.015189792
0.014384078
0.013699554
0.013123237
0.012641537
0.012241046
0.011910673
0.011639193
0.01141522
0.011229112
0.011072806
0.01093938
0.010822766
0.010718537
0.010623442
0.010534449
0.010449383
0.010367057
0.010286042
0.01020524
0.010124483
0.010043424
0.0099613708
0.0098782332
0.0097940345
0.0097081483
0.0096205302
0.0095314703
0.0094404823
0.0093476595
0.0092532594
0.0091568681
0.0090587769
0.00895902
0.008857343
0.0087542036
0.008649074
0.0085421194
0.0084339266
0.0083238032
0.0082121983
0.0080993152
0.0079844415
0.0078672598
0.0077476641
0.0076252294
0.0075003539
0.0073734367
0.0072446377
0.0071141755
0.0069817529
0.0068475222
0.0067113037
0.0065731568
0.0064330272
0.0062908996
0.0061467574
0.0060005598
0.0058523099
0.0057019441
0.0055494654
0.0053948054
0.0052379735
0.0050788953
0.0049175812
0.0047539623
0.0045880648
0.004419831
0.0042493068
0.0040764539
0.0039013483
0.003723995
0.0035445002
0.003362973
0.0031795333
0.0029944847
0.0028080166
0.0026207795
0.0024329475
0.0022462939
0.0020599169
0.0018804088
0.0016990742
0.001545615
0.0013682633
0.0013033518
0.0010976965
0.0018488483
-0.0017304604
0.0304363
0.02935197
0.028027697
0.026477256
0.024782622
0.023080023
0.021461554
0.019966029
0.018608872
0.017396354
0.016327481
0.015395033
0.014589117
0.013899022
0.013313297
0.012819759
0.012406157
0.012061834
0.011776208
0.011538582
0.011339635
0.011171473
0.011027279
0.010901098
0.010788408
0.010685818
0.010590283
0.010499524
0.010412166
0.010326765
0.010242171
0.010158044
0.010073979
0.0099892981
0.0099038121
0.0098174775
0.0097297255
0.0096404455
0.0095498522
0.0094575232
0.0093634911
0.0092679711
0.0091706043
0.0090716207
0.0089710526
0.0088686558
0.0087648178
0.0086591272
0.0085516439
0.0084427581
0.0083319469
0.008219704
0.0081057492
0.0079900376
0.0078732462
0.0077548036
0.0076340308
0.0075109718
0.0073852297
0.0072568207
0.0071263055
0.0069937555
0.006859481
0.0067232623
0.0065851116
0.0064449401
0.0063027243
0.0061584493
0.0060120799
0.0058636272
0.0057130327
0.0055603059
0.0054053812
0.0052482728
0.0050889085
0.0049273023
0.0047633869
0.0045971915
0.0044286592
0.0042578381
0.0040846906
0.0039092942
0.0037316541
0.0035518779
0.0033700748
0.0031863647
0.0030010519
0.0028143257
0.0026268354
0.0024387575
0.0022518573
0.0020652475
0.0018854816
0.001703935
0.0015501473
0.0013725963
0.001307221
0.0011012282
0.001851673
-0.0017236281
0.029714961
0.028720861
0.027521658
0.026116982
0.024567945
0.022990447
0.021469501
0.020045968
0.018739617
0.01756083
0.016512188
0.01558975
0.01478619
0.014092716
0.013499441
0.012995569
0.012570011
0.012212686
0.011913654
0.011662896
0.011451465
0.011271672
0.011116837
0.01098112
0.010859948
0.010749817
0.010647663
0.010551117
0.010458642
0.010368763
0.01028028
0.010192701
0.010105556
0.01001817
0.0099302697
0.0098417447
0.0097520687
0.0096610753
0.009568907
0.0094751913
0.0093799085
0.0092832297
0.0091848433
0.0090849166
0.0089834827
0.0088803197
0.0087757595
0.0086694413
0.0085613795
0.0084519443
0.008340702
0.008227924
0.0081133707
0.0079971186
0.0078795642
0.0077601877
0.0076393371
0.007517061
0.0073926227
0.0072659766
0.0071368062
0.0070048279
0.0068705984
0.0067342909
0.0065961088
0.0064559559
0.0063137617
0.006169478
0.0060230558
0.0058745068
0.0057237767
0.0055708829
0.0054157645
0.0052584418
0.0050988455
0.0049369946
0.0047728235
0.0046063652
0.0044375642
0.0042664714
0.0040930502
0.0039173805
0.0037394677
0.0035594216
0.0033773512
0.0031933773
0.0030078046
0.002820823
0.0026330802
0.0024447558
0.002257606
0.0020707599
0.0018907273
0.0017089634
0.0015548237
0.0013770658
0.0013111743
0.001104802
0.0018542485
-0.0017159318
0.029037436
0.028124086
0.027034492
0.025758679
0.024341785
0.022881734
0.021455553
0.020104374
0.018850849
0.017708526
0.016683048
0.015773406
0.014974701
0.014280038
0.013681094
0.013168444
0.012732159
0.012362837
0.012051196
0.011787888
0.011564381
0.01137323
0.011207917
0.011062732
0.010933084
0.010815386
0.010706552
0.010604139
0.010506468
0.010412025
0.010319561
0.010228449
0.010138151
0.010047987
0.0099576068
0.0098668367
0.00977518
0.009682422
0.0095886376
0.0094934918
0.0093969208
0.0092990519
0.0091996114
0.0090987105
0.0089963791
0.0088924149
0.0087870869
0.0086800896
0.0085714183
0.0084614041
0.008349656
0.008236383
0.0081214292
0.0080047927
0.0078867226
0.0077668303
0.0076454457
0.007522311
0.0073974999
0.0072713128
0.0071431719
0.0070128053
0.0068799735
0.006744368
0.00660633
0.0064661284
0.0063239137
0.0061796621
0.0060332803
0.0058847471
0.0057339913
0.00558103
0.0054258054
0.0052683449
0.0051085838
0.0049465472
0.0047821722
0.0046154961
0.0044464655
0.0042751348
0.0041014687
0.0039255501
0.0037473852
0.003567086
0.0033847622
0.0032005356
0.0030147116
0.0028274807
0.0026394894
0.0024509207
0.0022635205
0.0020764368
0.0018961301
0.0017141453
0.0015596303
0.0013816587
0.0013151962
0.0011083972
0.0018565061
-0.0017072641
0.028399657
0.027558746
0.026565613
0.025403985
0.024106844
0.022756493
0.021421672
0.020142435
0.018943088
0.017839483
0.016839781
0.015945538
0.015154107
0.014460422
0.013857701
0.01333787
0.012892146
0.012511889
0.012188493
0.011913275
0.011678154
0.011475963
0.011300376
0.011145826
0.011007737
0.010882465
0.010766906
0.010658559
0.010555623
0.010456537
0.010360007
0.010265284
0.010171761
0.010078746
0.0099858227
0.0098927528
0.0097990594
0.0097044861
0.0096090438
0.0095124249
0.009414528
0.0093154377
0.0092149103
0.0091130088
0.0090097557
0.008904964
0.0087988452
0.0086911419
0.0085818294
0.0084711937
0.0083588959
0.0082451115
0.0081297035
0.0080126415
0.0078941705
0.0077739542
0.0076521553
0.0075285668
0.0074033554
0.0072764355
0.0071477059
0.0070175759
0.0068856271
0.0067514016
0.0066147405
0.0064753265
0.0063333378
0.0061890765
0.006042687
0.0058941957
0.005743494
0.0055905666
0.005435337
0.0052778314
0.0051179873
0.0049558368
0.0047913211
0.0046244831
0.0044552718
0.0042837461
0.0041098723
0.003933737
0.0037553474
0.0035748186
0.0033922611
0.0032077978
0.0030217356
0.0028342658
0.0026460337
0.002457226
0.0022695777
0.0020822576
0.0019016712
0.0017194636
0.0015645503
0.0013863596
0.0013192683
0.0011119898
0.00185838
-0.0016975042
0.027798015
0.027022248
0.026114353
0.025054161
0.02386545
0.022617127
0.021369777
0.020161409
0.019016977
0.017953865
0.016982214
0.016105768
0.015323919
0.014633336
0.014028728
0.013503339
0.013049517
0.012659438
0.012325193
0.012038761
0.011792539
0.011579675
0.011394058
0.011230283
0.011083817
0.010950988
0.01082868
0.010714347
0.010606085
0.010502285
0.010401608
0.010303199
0.010206383
0.010110447
0.010014917
0.0099194924
0.009823707
0.0097272674
0.009630125
0.00953199
0.0094327291
0.0093323855
0.0092307383
0.0091278094
0.00902361
0.0089179664
0.0088110394
0.0087026105
0.0085926362
0.0084813598
0.0083684896
0.0082541604
0.0081382558
0.008020743
0.0079018437
0.007781246
0.0076590768
0.0075351923
0.0074096384
0.0072823235
0.007153238
0.0070225339
0.0068899618
0.0067557672
0.0066198207
0.0064815943
0.0063409353
0.0061975095
0.0060514054
0.0059029368
0.0057522399
0.0055993629
0.0054441975
0.0052867389
0.0051269051
0.0049647268
0.0048001465
0.0046332137
0.004463881
0.0042922128
0.0041181774
0.0039418659
0.0037632868
0.0035825587
0.0033997934
0.0032151155
0.0030288334
0.0028411398
0.0026526786
0.0024636411
0.0022757501
0.0020881975
0.0019073281
0.0017248981
0.0015695638
0.0013911503
0.0013233695
0.0011155514
0.0018598149
-0.001686516
0.0272293
0.026512271
0.025679994
0.024710154
0.023619586
0.022465823
0.021301718