/*--------------------------------*- C++ -*----------------------------------*\
| =========                 |                                                 |
| \\      /  F ield         | OpenFOAM: The Open Source CFD Toolbox           |
|  \\    /   O peration     | Version:  2206                                  |
|   \\  /    A nd           | Website:  www.openfoam.com                      |
|    \\/     M anipulation  |                                                 |
\*---------------------------------------------------------------------------*/
FoamFile
{
    version     2.0;
    format      ascii;
    arch        "LSB;label=32;scalar=64";
    class       surfaceScalarField;
    location    "800";
    object      phi;
}
// * * * * * * * * * * * * * * * * * * * * * * * * * * * * * * * * * * * * * //

dimensions      [0 3 -1 0 0 0 0];

oriented        oriented;

internalField   nonuniform List<scalar> 
14782
(
0.00064615379
7.518378e-05
-0.00072133757
0.00055263079
9.3523e-05
0.00046306478
8.9566003e-05
0.00039109999
7.1964789e-05
0.0003398198
5.1280192e-05
0.00030370189
3.611791e-05
0.00027693288
2.6769008e-05
0.00025579384
2.1139041e-05
0.00023829807
1.7495773e-05
0.0002235575
1.474057e-05
0.00021109184
1.2465661e-05
0.00020052135
1.0570484e-05
0.00019154524
8.9761136e-06
0.00018390852
7.6367177e-06
0.00017738709
6.521436e-06
0.00017179966
5.5874279e-06
0.0001669972
4.8024606e-06
0.00016285829
4.138905e-06
0.00015926785
3.5904459e-06
0.00015612335
3.1444958e-06
0.00015334702
2.7763296e-06
0.00015085934
2.4876844e-06
0.00014860538
2.2539543e-06
0.00014654606
2.0593176e-06
0.00014464916
1.8969001e-06
0.00014288936
1.7598069e-06
0.0001412472
1.6421553e-06
0.00013970501
1.5421965e-06
0.0001382459
1.4591093e-06
0.00013685836
1.3875319e-06
0.00013553557
1.3227914e-06
0.00013427102
1.2645534e-06
0.00013305858
1.2124378e-06
0.00013189305
1.1655343e-06
0.00013076982
1.1232233e-06
0.00012968348
1.0863432e-06
0.00012862937
1.0541069e-06
0.00012760518
1.0241939e-06
0.00012660795
9.972316e-07
0.00012563507
9.7288309e-07
0.00012468442
9.5064487e-07
0.00012375388
9.3053711e-07
0.0001228423
9.1158011e-07
0.0001219485
8.9380185e-07
0.00012107117
8.7733594e-07
0.00012020949
8.6168023e-07
0.0001193621
8.4738215e-07
0.00011852798
8.3412071e-07
0.00011770655
8.2143253e-07
0.00011689687
8.0967907e-07
0.00011609857
7.9830054e-07
0.00011531116
7.874099e-07
0.00011453418
7.7697947e-07
0.0001137674
7.6678254e-07
0.00011301023
7.5716806e-07
0.00011226247
7.4776164e-07
0.00011152372
7.3875112e-07
0.00011079356
7.3015736e-07
0.00011007169
7.2187006e-07
0.00010935787
7.1381977e-07
0.00010865209
7.0578342e-07
0.0001079541
6.9798556e-07
0.00010726378
6.9032303e-07
0.00010658093
6.8285112e-07
0.00010590543
6.7549735e-07
0.0001052371
6.6832639e-07
0.00010457575
6.6135695e-07
0.00010392123
6.545212e-07
0.00010327343
6.4779479e-07
0.00010263227
6.4116444e-07
0.0001019976
6.3466983e-07
0.00010136932
6.2827355e-07
0.00010074735
6.2197527e-07
0.00010013159
6.1575498e-07
9.9521922e-05
6.0967094e-07
9.8918232e-05
6.0369022e-07
9.8320401e-05
5.9783091e-07
9.7728344e-05
5.9205726e-07
9.7141942e-05
5.8640193e-07
9.6561107e-05
5.8083544e-07
9.5985712e-05
5.7539505e-07
9.5415657e-05
5.7005407e-07
9.4850806e-05
5.6485107e-07
9.429103e-05
5.5977656e-07
9.373618e-05
5.5484957e-07
9.3186065e-05
5.501157e-07
9.2640493e-05
5.4557114e-07
9.2099186e-05
5.4130783e-07
9.1561856e-05
5.3732936e-07
9.1028026e-05
5.3383048e-07
9.0497239e-05
5.3078701e-07
8.9968456e-05
5.2878266e-07
8.9441052e-05
5.2740421e-07
8.8911835e-05
5.2921646e-07
8.8381424e-05
5.3041136e-07
8.7835091e-05
5.4633315e-07
8.7286139e-05
5.4895218e-07
8.664262e-05
6.435192e-07
8.637419e-05
2.6842962e-07
1.1806689e-06
0.00078818881
8.1305001e-05
-0.00079431003
0.00076956715
0.00011214467
0.00073466309
0.00012447006
0.0006873151
0.00011931278
0.00063513362
0.00010346168
0.00058543473
8.58168e-05
0.00054169561
7.0508127e-05
0.00050452552
5.8309126e-05
0.0004732099
4.8811398e-05
0.00044678807
4.1162401e-05
0.00042436481
3.4888914e-05
0.00040520236
2.9732939e-05
0.00038874993
2.542854e-05
0.00037457804
2.1808605e-05
0.00036233719
1.8762287e-05
0.00035173875
1.6185872e-05
0.00034252669
1.4014519e-05
0.00033447753
1.2188063e-05
0.00032740034
1.0667642e-05
0.00032113504
9.4097958e-06
0.00031554461
8.3667513e-06
0.0003105105
7.5217994e-06
0.00030593935
6.8251042e-06
0.00030175832
6.2403432e-06
0.0002979073
5.7479228e-06
0.00029433815
5.3289547e-06
0.00029101236
4.9679477e-06
0.00028789561
4.6589501e-06
0.00028495828
4.3964365e-06
0.00028217793
4.1678826e-06
0.00027953814
3.9625834e-06
0.00027702414
3.7785503e-06
0.00027462278
3.6137964e-06
0.00027232259
3.4657241e-06
0.00027011402
3.331794e-06
0.00026798618
3.2141875e-06
0.00026592986
3.1104215e-06
0.00026393976
3.0142944e-06
0.00026200924
2.9277536e-06
0.00026013271
2.849409e-06
0.00025830565
2.7777061e-06
0.00025652378
2.7124074e-06
0.00025478397
2.651391e-06
0.00025308333
2.5944417e-06
0.00025141906
2.5416031e-06
0.00024978891
2.4918363e-06
0.00024819016
2.4461332e-06
0.00024662058
2.403703e-06
0.00024507852
2.3634851e-06
0.00024356217
2.3260336e-06
0.00024207029
2.2901829e-06
0.00024060165
2.2560453e-06
0.00023915516
2.2234743e-06
0.00023772995
2.1919853e-06
0.00023632492
2.1621968e-06
0.00023493933
2.1333508e-06
0.00023357229
2.1057955e-06
0.00023222288
2.0795632e-06
0.00023089038
2.0543722e-06
0.00022957422
2.0299785e-06
0.0002282741
2.0059025e-06
0.0002269895
1.9825852e-06
0.00022571999
1.959834e-06
0.00022446513
1.9377141e-06
0.00022322456
1.9160675e-06
0.00022199785
1.895032e-06
0.00022078457
1.8746423e-06
0.00021958437
1.8547242e-06
0.00021839696
1.8352009e-06
0.00021722208
1.8160423e-06
0.00021605943
1.7973219e-06
0.00021490875
1.7789554e-06
0.0002137698
1.7609207e-06
0.00021264238
1.7431822e-06
0.00021152618
1.7258626e-06
0.00021042098
1.7088932e-06
0.00020932651
1.6922978e-06
0.00020824257
1.6760019e-06
0.00020716891
1.6600652e-06
0.00020610531
1.6444306e-06
0.00020505154
1.6291712e-06
0.00020400735
1.6142369e-06
0.00020297249
1.599711e-06
0.00020194669
1.5855794e-06
0.00020092965
1.5718941e-06
0.000199921
1.5587612e-06
0.00019892036
1.5462123e-06
0.00019792723
1.5344337e-06
0.000196941
1.5235636e-06
0.00019596093
1.513895e-06
0.00019498581
1.5059068e-06
0.00019401456
1.500035e-06
0.00019304415
1.4978177e-06
0.00019207289
1.5004782e-06
0.00019109292
1.5103793e-06
0.00019009633
1.5429196e-06
0.00018906822
1.5770632e-06
0.00018796284
1.748896e-06
0.00018706585
1.1654274e-06
2.710635e-06
0.0008296507
7.7910055e-05
-0.00082625576
0.00083394041
0.00010785496
0.00083497948
0.00012343099
0.00082813515
0.00012615711
0.00080989481
0.00012170202
0.00078223602
0.00011347559
0.00074948312
0.00010326102
0.00071522692
9.256533e-05
0.00068166953
8.2368782e-05
0.00065013973
7.2692203e-05
0.00062128686
6.3741784e-05
0.00059531456
5.5705239e-05
0.00057217407
4.8569032e-05
0.00055165729
4.2325381e-05
0.0005334892
3.6930378e-05
0.00051739155
3.2283522e-05
0.00050309701
2.8309057e-05
0.00049036618
2.4918894e-05
0.0004789897
2.2044128e-05
0.00046878446
1.9615033e-05
0.00045958694
1.7564268e-05
0.00045125518
1.5853557e-05
0.00044366805
1.4412239e-05
0.00043672328
1.318511e-05
0.00043033286
1.2138346e-05
0.00042442053
1.1241283e-05
0.0004189241
1.0464377e-05
0.0004137931
9.7899555e-06
0.00040898382
9.2057166e-06
0.00040445958
8.6921221e-06
0.00040018928
8.2328806e-06
0.00039614575
7.8220783e-06
0.00039230545
7.4540997e-06
0.00038864833
7.1228446e-06
0.00038515723
6.8228883e-06
0.00038181412
6.5573031e-06
0.00037860431
6.3202288e-06
0.00037551703
6.1015726e-06
0.00037254042
5.9043709e-06
0.00036966499
5.7248334e-06
0.00036688258
5.5601177e-06
0.00036418551
5.4094738e-06
0.00036156742
5.2694871e-06
0.00035902253
5.1393308e-06
0.0003565455
5.0186277e-06
0.00035413173
4.9056074e-06
0.00035177652
4.801344e-06
0.0003494758
4.7044237e-06
0.0003472262
4.6130842e-06
0.00034502439
4.5278501e-06
0.00034286764
4.4469249e-06
0.00034075342
4.3702691e-06
0.00033867941
4.2974888e-06
0.00033664365
4.2277402e-06
0.00033464411
4.1617398e-06
0.0003326791
4.0983603e-06
0.00033074688
4.0380161e-06
0.00032884579
3.9806474e-06
0.00032697444
3.9257298e-06
0.00032513161
3.8728085e-06
0.00032331635
3.8211541e-06
0.0003215276
3.7713418e-06
0.00031976437
3.7230613e-06
0.00031802575
3.6763296e-06
0.00031631094
3.6308868e-06
0.00031461906
3.5869088e-06
0.00031294929
3.5444089e-06
0.00031130093
3.503084e-06
0.00030967335
3.4627873e-06
0.00030806594
3.4234515e-06
0.00030647811
3.3851519e-06
0.00030490932
3.3477451e-06
0.00030335907
3.3111723e-06
0.00030182687
3.2753785e-06
0.0003003122
3.2405277e-06
0.00029881459
3.2065079e-06
0.00029733355
3.1733337e-06
0.00029586867
3.1408895e-06
0.00029441948
3.1092468e-06
0.00029298559
3.0783198e-06
0.00029156656
3.0482067e-06
0.00029016196
3.0188356e-06
0.00028877134
2.9903298e-06
0.00028739425
2.9626734e-06
0.00028603018
2.935957e-06
0.0002846786
2.9103509e-06
0.00028333885
2.885957e-06
0.00028201024
2.8630427e-06
0.0002806918
2.8420003e-06
0.0002793826
2.8231005e-06
0.00027808068
2.8078224e-06
0.00027678504
2.7956795e-06
0.00027549042
2.7924388e-06
0.00027419695
2.7939501e-06
0.00027288874
2.8185877e-06
0.00027156631
2.8653472e-06
0.00027018662
2.956758e-06
0.00026875639
3.179118e-06
0.000267326
2.5958201e-06
4.363171e-06
0.00085977566
7.4348358e-05
-0.00085621396
0.00086594604
0.00010168458
0.00087196672
0.00011741031
0.00087619163
0.00012193221
0.00087761215
0.0001202815
0.00087478319
0.00011630455
0.00086645585
0.00011158836
0.0008523244
0.00010669678
0.0008332622
0.00010143098
0.00081095904
9.499536e-05
0.00078681346
8.7887365e-05
0.00076193828
8.058042e-05
0.0007372565
7.3250814e-05
0.00071345682
6.6125063e-05
0.00069100064
5.9386558e-05
0.0006701461
5.3138054e-05
0.00065097675
4.7478412e-05
0.00063345936
4.2436288e-05
0.00061749108
3.8012406e-05
0.00060293933
3.4166786e-05
0.00058966598
3.0837616e-05
0.00057753855
2.798099e-05
0.00056643282
2.5517964e-05
0.00055623431
2.3383616e-05
0.00054683798
2.1534679e-05
0.00053814785
1.9931417e-05
0.00053008122
1.8531009e-05
0.00052256961
1.7301558e-05
0.00051555239
1.622294e-05
0.00050897609
1.5268417e-05
0.00050279393
1.4415049e-05
0.00049696472
1.3651285e-05
0.00049145211
1.2966707e-05
0.00048622522
1.2349742e-05
0.00048125722
1.179088e-05
0.0004765241
1.1290428e-05
0.00047200451
1.0839816e-05
0.00046767935
1.0426733e-05
0.00046353162
1.0052105e-05
0.00045954636
9.7100908e-06
0.00045571043
9.3960465e-06
0.00045201168
9.1082239e-06
0.00044843955
8.8416238e-06
0.00044498448
8.5943966e-06
0.00044163772
8.3653831e-06
0.00043839168
8.1516486e-06
0.0004352391
7.9539232e-06
0.00043217348
7.7700426e-06
0.00042918924
7.5973282e-06
0.00042628103
7.436065e-06
0.00042344419
7.2837638e-06
0.00042067439
7.1400711e-06
0.00041796768
7.0041907e-06
0.00041532069
6.8747358e-06
0.00041273009
6.7523397e-06
0.00041019295
6.6354985e-06
0.00040770641
6.5245577e-06
0.00040526786
6.4191942e-06
0.00040287503
6.3185599e-06
0.00040052584
6.2219997e-06
0.00039821846
6.1285382e-06
0.00039595102
6.0387754e-06
0.00039372187
5.9522172e-06
0.00039152942
5.8687714e-06
0.00038937226
5.7880459e-06
0.00038724898
5.7101972e-06
0.00038515823
5.6351575e-06
0.00038309884
5.5624735e-06
0.00038106971
5.4919152e-06
0.00037906982
5.4233458e-06
0.00037709817
5.3567994e-06
0.00037515386
5.2920546e-06
0.00037323602
5.2290077e-06
0.00037134383
5.1675691e-06
0.00036947645
5.1079079e-06
0.00036763311
5.0498524e-06
0.00036581305
4.9933937e-06
0.00036401557
4.938368e-06
0.00036223998
4.8848408e-06
0.0003604856
4.8326911e-06
0.00035875178
4.782028e-06
0.00035703787
4.7327539e-06
0.00035534317
4.6850236e-06
0.00035366703
4.6388174e-06
0.00035200872
4.5942633e-06
0.00035036748
4.5515952e-06
0.00034874243
4.5110054e-06
0.00034713264
4.4728333e-06
0.00034553684
4.4377989e-06
0.00034395386
4.4060815e-06
0.00034238121
4.3804673e-06
0.0003408178
4.3590901e-06
0.0003392569
4.3533387e-06
0.00033769956
4.3512946e-06
0.00033612485
4.3932963e-06
0.00033453809
4.452103e-06
0.00033287838
4.6164688e-06
0.00033118455
4.8729549e-06
0.00032933788
4.4424839e-06
6.1276554e-06
0.00088966686
7.1359309e-05
-0.00088667782
0.00089547334
9.58781e-05
0.00090179763
0.00011108602
0.00090713187
0.00011659796
0.00091088335
0.00011653002
0.00091340503
0.00011378286
0.00091449641
0.00011049698
0.00091376052
0.00010743267
0.00091089642
0.00010429508
0.0009049025
0.00010098928
0.00089535873
9.743114e-05
0.00088239784
9.3541307e-05
0.00086664965
8.8999007e-05
0.00084882413
8.3950575e-05
0.00082956572
7.864497e-05
0.00080951415
7.3189631e-05
0.00078927803
6.7714529e-05
0.00076938471
6.2329606e-05
0.00075023718
5.7159932e-05
0.00073209855
5.2305424e-05
0.00071509886
4.7837304e-05
0.00069926293
4.3816917e-05
0.00068455274
4.0228157e-05
0.00067090143
3.7034925e-05
0.00065823105
3.4205058e-05
0.00064646045
3.1702014e-05
0.00063550969
2.948177e-05
0.00062530279
2.7508455e-05
0.00061576785
2.5757882e-05
0.00060683983
2.4196436e-05
0.00059846074
2.2794139e-05
0.0005905778
2.1534223e-05
0.0005831432
2.0401314e-05
0.00057611516
1.9377783e-05
0.00056945618
1.8449861e-05
0.00056313435
1.7612259e-05
0.00055712094
1.6853227e-05
0.00055138831
1.6159362e-05
0.00054591292
1.5527495e-05
0.00054067375
1.4949255e-05
0.00053565185
1.4417946e-05
0.0005308296
1.3930475e-05
0.00052619149
1.3479737e-05
0.00052172346
1.3062428e-05
0.00051741249
1.2676347e-05
0.00051324737
1.2316774e-05
0.00050921786
1.1983427e-05
0.00050531473
1.1673179e-05
0.00050152976
1.1382296e-05
0.00049785507
1.1110754e-05
0.0004942836
1.0855231e-05
0.00049080886
1.0614811e-05
0.00048742493
1.0388127e-05
0.00048412659
1.017307e-05
0.00048090889
9.9700437e-06
0.00047776731
9.7770791e-06
0.00047469764
9.5942286e-06
0.00047169613
9.4206978e-06
0.00046875943
9.2552616e-06
0.00046588432
9.0971146e-06
0.00046306786
8.9449928e-06
0.00046030726
8.79938e-06
0.00045759996
8.6595158e-06
0.00045494359
8.5251383e-06
0.00045233597
8.3956714e-06
0.00044977499
8.2711762e-06
0.00044725872
8.1514288e-06
0.00044478538
8.0358085e-06
0.00044235331
7.9239837e-06
0.00043996096
7.8157018e-06
0.00043760685
7.7109057e-06
0.00043528963
7.6092764e-06
0.00043300798
7.5106588e-06
0.00043076065
7.4148995e-06
0.00042854643
7.3221259e-06
0.00042636419
7.2320862e-06
0.00042421286
7.1447322e-06
0.00042209138
7.0598388e-06
0.00041999878
6.9774468e-06
0.00041793408
6.8973869e-06
0.00041589635
6.8197635e-06
0.00041388466
6.7444442e-06
0.00041189808
6.6716037e-06
0.00040993568
6.6012125e-06
0.00040799651
6.5334309e-06
0.00040607956
6.4685519e-06
0.0004041837
6.4068676e-06
0.00040230774
6.3487845e-06
0.00040045015
6.2953924e-06
0.00039860949
6.2467469e-06
0.00039678283
6.2071189e-06
0.00039496889
6.1730297e-06
0.00039315995
6.1622788e-06
0.00039135733
6.1539226e-06
0.00038953705
6.2135716e-06
0.00038770663
6.2825251e-06
0.00038579425
6.5288498e-06
0.00038385738
6.8098184e-06
0.00038165542
6.6444464e-06
8.0292456e-06
0.00092053247
6.8781806e-05
-0.00091795496
0.00092569263
9.0717938e-05
0.00093149155
0.00010528711
0.00093660826
0.00011148125
0.00094069927
0.00011243901
0.00094368454
0.00011079759
0.00094580377
0.00010837774
0.00094727762
0.00010595883
0.00094823673
0.00010333597
0.00094853786
0.00010068815
0.00094785999
9.810901e-05
0.00094590913
9.5492159e-05
0.0009420645
9.2843637e-05
0.00093586967
9.0145405e-05
0.00092712352
8.739112e-05
0.00091593855
8.4374608e-05
0.00090264219
8.1010881e-05
0.00088756641
7.740539e-05
0.00087110675
7.3619588e-05
0.00085374558
6.9666592e-05
0.00083599878
6.5584111e-05
0.00081833648
6.1479212e-05
0.00080113561
5.7429028e-05
0.00078464888
5.3521655e-05
0.00076900824
4.9845696e-05
0.0007542555
4.6454758e-05
0.00074038094
4.335633e-05
0.00072734938
4.0540012e-05
0.00071511277
3.7994495e-05
0.00070361882
3.5690386e-05
0.00069281354
3.3599421e-05
0.00068264249
3.1705268e-05
0.00067305371
2.99901e-05
0.00066399949
2.8432e-05
0.00065543474
2.7014613e-05
0.00064731884
2.5728159e-05
0.00063961583
2.4556238e-05
0.0006322914
2.3483788e-05
0.00062531456
2.2504335e-05
0.00061865798
2.1605832e-05
0.00061229673
2.0779203e-05
0.00060620753
2.0019675e-05
0.00060036961
1.9317659e-05
0.00059476404
1.8667998e-05
0.00058937328
1.8067098e-05
0.00058418187
1.7508193e-05
0.00057917575
1.6989542e-05
0.0005743423
1.6506627e-05
0.00056967018
1.6054416e-05
0.00056514857
1.5632362e-05
0.00056076776
1.5236044e-05
0.00055651879
1.486378e-05
0.0005523934
1.4513519e-05
0.00054838421
1.4182265e-05
0.00054448413
1.3870122e-05
0.00054068679
1.3574417e-05
0.00053698646
1.3294556e-05
0.00053337799
1.3029169e-05
0.00052985662
1.2776637e-05
0.00052641777
1.2535965e-05
0.00052305727
1.2305492e-05
0.00051977119
1.2085457e-05
0.00051655597
1.1874738e-05
0.00051340824
1.1672867e-05
0.00051032487
1.1479039e-05
0.00050730296
1.1293091e-05
0.00050433983
1.1114557e-05
0.00050143299
1.0942645e-05
0.00049858009
1.0776884e-05
0.00049577895
1.0616841e-05
0.00049302754
1.0462316e-05
0.00049032394
1.0312876e-05
0.00048766629
1.0168307e-05
0.00048505285
1.0028341e-05
0.00048248197
9.8930081e-06
0.0004799521
9.7619576e-06
0.00047746175
9.6350827e-06
0.00047500951
9.5120775e-06
0.00047259402
9.3929363e-06
0.00047021398
9.277424e-06
0.00046786812
9.165622e-06
0.00046555522
9.0573495e-06
0.00046327403
8.952787e-06
0.00046102336
8.8518852e-06
0.00045880196
8.7548276e-06
0.00045660856
8.6619591e-06
0.00045444175
8.5736738e-06
0.00045230009
8.4904414e-06
0.00045018174
8.4137449e-06
0.00044808499
8.3435022e-06
0.00044600653
8.2855745e-06
0.0004439448
8.2347574e-06
0.00044189136
8.2157196e-06
0.00043984744
8.1978432e-06
0.00043778711
8.2738983e-06
0.00043571872
8.3509148e-06
0.00043356328
8.6842983e-06
0.00043139039
8.9827076e-06
0.00042886107
9.1737617e-06
1.0085761e-05
0.00095246261
6.6532259e-05
-0.00095021306
0.00095704627
8.6134282e-05
0.00096237106
9.996231e-05
0.00096716254
0.00010668977
0.00097104633
0.00010855522
0.00097402677
0.00010781715
0.00097633517
0.00010606934
0.00097820482
0.00010408918
0.00097964537
0.00010189543
0.00098070911
9.9624412e-05
0.00098145445
9.7363667e-05
0.00098189067
9.5055937e-05
0.00098193894
9.279537e-05
0.00098140787
9.0676475e-05
0.00098014732
8.8651671e-05
0.00097777901
8.6742913e-05
0.00097383051
8.4959379e-05
0.0009680158
8.3220106e-05
0.00096014824
8.1487146e-05
0.0009502323
7.9582534e-05
0.0009384062
7.7410206e-05
0.00092487497
7.5010446e-05
0.00090996684
7.2337158e-05
0.0008941269
6.9361591e-05
0.00087784316
6.6129438e-05
0.0008615606
6.273732e-05
0.00084562584
5.9291091e-05
0.00083026111
5.5904737e-05
0.00081557727
5.2678334e-05
0.00080161361
4.9654044e-05
0.00078837075
4.6842282e-05
0.00077582927
4.4246744e-05
0.00076395908
4.1860299e-05
0.00075272407
3.9667001e-05
0.00074208388
3.7654802e-05
0.00073199759
3.5814458e-05
0.00072242687
3.4126952e-05
0.00071333445
3.2576211e-05
0.0007046846
3.1154182e-05
0.00069644481
2.9845622e-05
0.00068858505
2.8638966e-05
0.00068107712
2.7527601e-05
0.00067389538
2.6499404e-05
0.00066701616
2.5547218e-05
0.00066041753
2.4665726e-05
0.00065407962
2.3846098e-05
0.00064798406
2.3085103e-05
0.00064211426
2.2376432e-05
0.00063645526
2.171341e-05
0.00063099302
2.1094603e-05
0.00062571484
2.0514225e-05
0.00062060898
1.996964e-05
0.0006156646
1.9457904e-05
0.00061087187
1.897499e-05
0.00060622145
1.8520543e-05
0.00060170486
1.8091009e-05
0.00059731443
1.7684988e-05
0.00059304319
1.7300408e-05
0.00058888471
1.6935118e-05
0.00058483291
1.6587765e-05
0.00058088222
1.6256181e-05
0.00057702742
1.594025e-05
0.00057326376
1.5638399e-05
0.00056958668
1.5349949e-05
0.00056599193
1.5073787e-05
0.00056247569
1.4809336e-05
0.00055903442
1.4555827e-05
0.00055566476
1.4312302e-05
0.00055236356
1.4078086e-05
0.00054912789
1.385251e-05
0.00054595503
1.3635181e-05
0.0005428424
1.3425499e-05
0.00053978755
1.3223156e-05
0.00053678816
1.302773e-05
0.00053384206
1.2839112e-05
0.0005309472
1.2656821e-05
0.00052810161
1.2480667e-05
0.00052530346
1.2310235e-05
0.00052255094
1.2145448e-05
0.00051984238
1.1985983e-05
0.00051717613
1.1831878e-05
0.00051455059
1.1682885e-05
0.00051196421
1.1539174e-05
0.00050941543
1.1400661e-05
0.00050690272
1.1267542e-05
0.00050442447
1.1140202e-05
0.00050197901
1.1019135e-05
0.00049956459
1.0904868e-05
0.00049717904
1.0799289e-05
0.00049482037
1.0702175e-05
0.0004924849
1.0621039e-05
0.00049017076
1.0548902e-05
0.0004878689
1.0517576e-05
0.0004855803
1.0486448e-05
0.00048327764
1.0576558e-05
0.00048096943
1.0659125e-05
0.00047857149
1.1082236e-05
0.00047616262
1.1391582e-05
0.00047331688
1.2019501e-05
1.2310478e-05
0.00098557547
6.4540856e-05
-0.00098358407
0.00098964419
8.2065564e-05
0.00099453489
9.5071612e-05
0.0009990817
0.00010214296
0.0010028344
0.00010480252
0.0010057667
0.00010488482
0.0010080636
0.00010377246
0.0010099304
0.00010222237
0.0010114453
0.00010038058
0.0010126805
9.838917e-05
0.0010136866
9.6357593e-05
0.0010144547
9.428783e-05
0.001014994
9.2256115e-05
0.0010153733
9.0297133e-05
0.0010155383
8.8486627e-05
0.0010154363
8.6844905e-05
0.0010150396
8.5356096e-05
0.0010141829
8.4076786e-05
0.0010126732
8.2996917e-05
0.0010101781
8.2077618e-05
0.0010063278
8.126051e-05
0.0010008145
8.0523775e-05
0.00099343773
7.9713885e-05
0.00098414746
7.8651863e-05
0.00097299926
7.7277637e-05
0.00096018002
7.555656e-05
0.00094603707
7.343404e-05
0.00093103422
7.090759e-05
0.00091565107
6.806149e-05
0.00090030053
6.5004578e-05
0.00088527612
6.1866692e-05
0.00087074916
5.8773707e-05
0.00085680211
5.5807343e-05
0.0008434668
5.3002313e-05
0.00083074748
5.0374122e-05
0.00081863221
4.7929729e-05
0.00080709979
4.5659369e-05
0.00079612243
4.3553577e-05
0.00078566891
4.1607702e-05
0.0007757081
3.9806431e-05
0.00076620919
3.8137873e-05
0.00075714192
3.6594877e-05
0.00074847783
3.5163486e-05
0.00074018996
3.3835088e-05
0.00073225282
3.2602866e-05
0.0007246429
3.1456026e-05
0.00071733799
3.0390007e-05
0.00071031776
2.9396664e-05
0.00070356364
2.8467528e-05
0.00069705816
2.7600083e-05
0.00069078541
2.6786979e-05
0.00068473061
2.602444e-05
0.00067888016
2.5308353e-05
0.00067322165
2.4633499e-05
0.00066774335
2.3998848e-05
0.00066243449
2.339986e-05
0.00065728514
2.283434e-05
0.0006522862
2.2299345e-05
0.00064742934
2.1791983e-05
0.00064270677
2.131034e-05
0.00063811132
2.0851626e-05
0.00063363629
2.0415281e-05
0.00062927551
1.9999178e-05
0.00062502314
1.9602325e-05
0.00062087371
1.9223213e-05
0.00061682226
1.8860783e-05
0.00061286421
1.8513877e-05
0.00060899523
1.8181289e-05
0.00060521123
1.7862086e-05
0.00060150842
1.7555316e-05
0.00059788326
1.7260342e-05
0.00059433243
1.6976325e-05
0.00059085279
1.6702801e-05
0.00058744136
1.6439163e-05
0.00058409535
1.618512e-05
0.00058081214
1.5940032e-05
0.00057758922
1.5703583e-05
0.00057442423
1.5475223e-05
0.00057131491
1.5254771e-05
0.0005682591
1.5041792e-05
0.00056525473
1.4836253e-05
0.00056229979
1.4637818e-05
0.00055939234
1.4446625e-05
0.00055653046
1.4262541e-05
0.00055371225
1.4085756e-05
0.00055093577
1.3916683e-05
0.00054819899
1.3755908e-05
0.00054549985
1.3604008e-05
0.00054283586
1.3463281e-05
0.00054020468
1.333336e-05
0.00053760226
1.322345e-05
0.00053502638
1.3124783e-05
0.00053246748
1.3076475e-05
0.00052992615
1.3027786e-05
0.00052737401
1.3128694e-05
0.00052481939
1.3213744e-05
0.00052217403
1.3727601e-05
0.00051952464
1.4040968e-05
0.00051636378
1.5180362e-05
1.4715134e-05
0.0010198731
6.2733268e-05
-0.0010180655
0.0010234999
7.8438756e-05
0.0010279726
9.0598949e-05
0.0010322829
9.7832638e-05
0.0010359513
0.00010113409
0.0010388869
0.00010194926
0.001041212
0.00010144738
0.0010430946
0.00010033969
0.0010446257
9.8849558e-05
0.0010458789
9.7135917e-05
0.0010469114
9.5325092e-05
0.0010477467
9.3452538e-05
0.0010484113
9.1591499e-05
0.001048923
8.9785454e-05
0.0010492981
8.8111551e-05
0.0010495442
8.6598806e-05
0.0010496785
8.5221785e-05
0.0010497036
8.4051715e-05
0.0010495861
8.3114407e-05
0.0010492818
8.2381922e-05
0.001048695
8.1847237e-05
0.0010477046
8.1514237e-05
0.0010460865
8.1331951e-05
0.001043496
8.1242398e-05
0.0010395849
8.1188726e-05
0.0010340323
8.1109119e-05
0.0010266367
8.0829631e-05
0.0010173452
8.0199096e-05
0.0010062238
7.9182945e-05
0.00099351919
7.7709163e-05
0.00097964626
7.5739621e-05
0.00096509333
7.3326637e-05
0.00095031455
7.0586127e-05
0.00093565691
6.7659958e-05
0.00092133962
6.4691408e-05
0.00090748025
6.1789098e-05
0.00089413612
5.9003497e-05
0.00088133104
5.6358666e-05
0.00086906844
5.3870302e-05
0.00085733922
5.1535646e-05
0.00084612564
4.9351451e-05
0.000835405
4.7315521e-05
0.00082515301
4.5415474e-05
0.00081534427
4.3643828e-05
0.00080595317
4.1993964e-05
0.00079695506
4.045414e-05
0.00078832579
3.9019278e-05
0.00078004255
3.7679897e-05
0.00077208404
3.6426045e-05
0.00076442985
3.5254271e-05
0.00075706118
3.4155647e-05
0.0007499604
3.3125225e-05
0.00074311115
3.2157605e-05
0.00073649839
3.1246252e-05
0.0007301079
3.0389339e-05
0.00072392656
2.9581198e-05
0.00071794211
2.8818791e-05
0.00071214324
2.8098217e-05
0.00070651952
2.7415705e-05
0.00070106124
2.6768614e-05
0.00069575948
2.6153391e-05
0.00069060581
2.5568947e-05
0.00068559251
2.5012483e-05
0.00068071231
2.4482519e-05
0.00067595846
2.3977069e-05
0.00067132464
2.3494599e-05
0.00066680504
2.3033476e-05
0.00066239423
2.2592102e-05
0.00065808709
2.2169221e-05
0.00065387886
2.1763546e-05
0.00064976506
2.1374145e-05
0.00064574151
2.0999874e-05
0.00064180427
2.0640044e-05
0.00063794962
2.0293812e-05
0.00063417407
1.9960668e-05
0.00063047433
1.963977e-05
0.00062684728
1.9330638e-05
0.00062328996
1.9032545e-05
0.00061979955
1.8745176e-05
0.00061637339
1.846795e-05
0.00061300891
1.8200737e-05
0.00060970364
1.7943087e-05
0.00060645518
1.7695083e-05
0.00060326121
1.7456518e-05
0.0006001194
1.7227559e-05
0.00059702745
1.7008634e-05
0.00059398296
1.6800404e-05
0.00059098347
1.6603492e-05
0.00058802615
1.6420599e-05
0.0005851083
1.6251217e-05
0.00058222549
1.6106261e-05
0.00057937509
1.5975182e-05
0.00057654706
1.5904498e-05
0.00057374154
1.583331e-05
0.00057092928
1.5940948e-05
0.00056811825
1.6024783e-05
0.00056521667
1.662918e-05
0.00056231884
1.6938793e-05
0.00055883797
1.8661231e-05
1.7311303e-05
0.0010553273
6.1054127e-05
-0.0010536481
0.001058589
7.5177019e-05
0.0010626749
8.6513091e-05
0.0010667353
9.3772163e-05
0.0010703067
9.7562785e-05
0.0010732501
9.9005797e-05
0.0010756259
9.9071604e-05
0.0010775604
9.8405223e-05
0.0010791379
9.7272033e-05
0.0010804275
9.5846319e-05
0.0010814857
9.4266842e-05
0.0010823452
9.2593037e-05
0.0010830375
9.0899228e-05
0.0010835842
8.9238715e-05
0.0010840127
8.7683062e-05
0.001084343
8.6268571e-05
0.0010845784
8.4986309e-05
0.001084734
8.3896166e-05
0.001084832
8.3016435e-05
0.0010848681
8.2345757e-05
0.0010848341
8.188129e-05
0.001084729
8.1619324e-05
0.0010845114
8.1549549e-05
0.0010841149
8.1638849e-05
0.001083438
8.1865621e-05
0.0010823348
8.221237e-05
0.0010805298
8.2634651e-05
0.0010776559
8.3072999e-05
0.0010733528
8.3486053e-05
0.001067322
8.3739955e-05
0.0010594014
8.3660166e-05
0.0010495692
8.3158885e-05
0.0010379914
8.2163884e-05
0.0010250343
8.0617099e-05
0.0010111816
7.8544063e-05
0.00099691129
7.6059434e-05
0.00098260484
7.3309942e-05
0.00096851318
7.045033e-05
0.00095477862
6.7604859e-05
0.00094147753
6.4836737e-05
0.00092864863
6.2180352e-05
0.00091630738
5.9656774e-05
0.00090445445
5.7268398e-05
0.00089308018
5.5018098e-05
0.00088216889
5.2905263e-05
0.00087170201
5.0921015e-05
0.00086165868
4.9062608e-05
0.00085201743
4.7321149e-05
0.00084275691
4.568656e-05
0.00083385577
4.4155417e-05
0.00082529369
4.2717727e-05
0.00081705115
4.1367759e-05
0.00080910973
4.0099026e-05
0.00080145221
3.8903775e-05
0.00079406211
3.7779435e-05
0.00078692414
3.6719176e-05
0.00078002383
3.5719094e-05
0.00077334774
3.4774309e-05
0.00076688334
3.3880112e-05
0.0007606189
3.3033048e-05
0.00075454362
3.2228674e-05
0.00074864728
3.1465284e-05
0.00074292046
3.0739308e-05
0.00073735433
3.0048649e-05
0.00073194067
2.9390728e-05
0.00072667178
2.8763492e-05
0.00072154048
2.8164776e-05
0.00071654009
2.7592486e-05
0.00071166436
2.7044953e-05
0.00070690741
2.6520494e-05
0.00070226374
2.6017817e-05
0.0006977282
2.5535418e-05
0.00069329594
2.5072305e-05
0.00068896241
2.4627341e-05
0.00068472331
2.4199762e-05
0.00068057462
2.3788467e-05
0.00067651249
2.3392767e-05
0.00067253331
2.3011718e-05
0.00066863366
2.2644834e-05
0.00066481025
2.2291354e-05
0.00066105997
2.1951017e-05
0.00065737983
2.1623229e-05
0.00065376693
2.1307989e-05
0.00065021845
2.1004996e-05
0.00064673164
2.0714369e-05
0.00064330374
2.0436531e-05
0.00063993194
2.0172204e-05
0.00063661339
1.9922042e-05
0.00063334485
1.9689146e-05
0.0006301232
1.9472864e-05
0.00062694363
1.9285831e-05
0.00062380308
1.9115735e-05
0.00062069103
1.9016546e-05
0.00061760709
1.8917243e-05
0.00061452128
1.9026765e-05
0.00061144106
1.9104999e-05
0.00060827149
1.9798751e-05
0.00060511453
2.0095756e-05
0.00060130431
2.2471444e-05
2.0111034e-05
0.0010919327
5.9471902e-05
-0.0010903505
0.0010948937
7.2216086e-05
0.0010986359
8.2770859e-05
0.0011024466
8.9961515e-05
0.0011058973
9.4112014e-05
0.0011088265
9.6076625e-05
0.0011112454
9.6652654e-05
0.0011132399
9.6410754e-05
0.0011148796
9.5632329e-05
0.0011162251
9.4500821e-05
0.0011173295
9.3162458e-05
0.0011182279
9.1694619e-05
0.0011189527
9.0174478e-05
0.0011195287
8.8662675e-05
0.001119984
8.7227743e-05
0.0011203414
8.5911245e-05
0.001120611
8.4716659e-05
0.0011208117
8.3695449e-05
0.0011209584
8.2869731e-05
0.0011210606
8.224356e-05
0.0011211253
8.1816641e-05
0.0011211616
8.1582972e-05
0.0011211719
8.1539278e-05
0.0011211468
8.1663942e-05
0.0011210713
8.1941093e-05
0.0011209212
8.2362456e-05
0.0011206494
8.2906502e-05
0.0011201716
8.3550764e-05
0.0011193719
8.4285792e-05
0.0011180313
8.5080522e-05
0.0011158088
8.5882706e-05
0.0011123224
8.6645304e-05
0.0011072115
8.727473e-05
0.0011002309
8.759772e-05
0.0010912968
8.7478148e-05
0.0010805188
8.6837414e-05
0.0010682295
8.5599239e-05
0.0010549083
8.3771602e-05
0.001041046
8.1467107e-05
0.0010270418
7.8840976e-05
0.0010131616
7.6060493e-05
0.00099956124
7.3257163e-05
0.00098632891
7.0500729e-05
0.00097351346
6.7833554e-05
0.00096113894
6.5279777e-05
0.00094921325
6.2846704e-05
0.0009377328
6.0543067e-05
0.00092668748
5.8366466e-05
0.00091606317
5.6310867e-05