/*--------------------------------*- C++ -*----------------------------------*\
| =========                 |                                                 |
| \\      /  F ield         | OpenFOAM: The Open Source CFD Toolbox           |
|  \\    /   O peration     | Version:  2206                                  |
|   \\  /    A nd           | Website:  www.openfoam.com                      |
|    \\/     M anipulation  |                                                 |
\*---------------------------------------------------------------------------*/
FoamFile
{
    version     2.0;
    format      ascii;
    arch        "LSB;label=32;scalar=64";
    class       volVectorField;
    location    "800";
    object      U;
}
// * * * * * * * * * * * * * * * * * * * * * * * * * * * * * * * * * * * * * //

dimensions      [0 1 -1 0 0 0 0];

internalField   nonuniform List<vector> 
7480
(
(0.86073633 0.014747546 5.839607e-16)
(0.74498758 0.025620563 0)
(0.62908803 0.027269347 0)
(0.52571953 0.01949486 0)
(0.45000118 0.0094058999 0)
(0.39774282 0.0037517177 0)
(0.36000134 0.0017191031 0)
(0.33087827 0.0012083499 0)
(0.30717352 0.0010850378 0)
(0.28728331 0.00096739059 0)
(0.27045395 0.00081737383 0)
(0.25620011 0.00067096823 0)
(0.24410658 0.0005431908 0)
(0.23382599 0.00043790435 0)
(0.22506468 0.00035425551 0)
(0.21756672 0.00028704027 0)
(0.21113151 0.00023282336 0)
(0.20559726 0.00018361364 0)
(0.20079513 0.00026301657 -1.321244e-17)
(0.19665121 0.00030308179 -1.7402736e-17)
(0.19297671 0.00013676581 0)
(0.18970857 9.0109357e-05 0)
(0.1867679 7.7233794e-05 0)
(0.18408932 6.8745108e-05 0)
(0.18163108 6.1390512e-05 0)
(0.17935683 5.5113344e-05 0)
(0.17724154 4.9789345e-05 0)
(0.17526094 4.5460256e-05 0)
(0.17339334 4.2052878e-05 0)
(0.17162043 3.9132648e-05 0)
(0.1699319 3.6416708e-05 0)
(0.16832009 3.3974944e-05 0)
(0.16677674 3.1803477e-05 0)
(0.16529528 2.9851114e-05 0)
(0.16386846 2.8099497e-05 0)
(0.16249271 2.6592501e-05 0)
(0.16115782 2.5261479e-05 0)
(0.1598622 2.3991077e-05 0)
(0.15860219 2.2845276e-05 0)
(0.15737386 2.1796913e-05 0)
(0.1561745 2.0825872e-05 0)
(0.1550014 1.9938192e-05 0)
(0.15385253 1.9083147e-05 0)
(0.15272662 1.8272312e-05 0)
(0.15162194 1.7515e-05 0)
(0.15053739 1.678555e-05 0)
(0.14947152 1.6111831e-05 0)
(0.14842268 1.5476252e-05 0)
(0.14739004 1.4861e-05 0)
(0.14637259 1.428591e-05 0)
(0.14536952 1.3725704e-05 0)
(0.14438035 1.318893e-05 0)
(0.14340442 1.2675179e-05 0)
(0.14244142 1.2175589e-05 0)
(0.14149073 1.1704546e-05 0)
(0.14055189 1.1246543e-05 0)
(0.13962458 1.0809556e-05 0)
(0.13870824 1.0392809e-05 0)
(0.13780239 9.9925213e-06 0)
(0.13690667 9.6080338e-06 0)
(0.13602101 9.2327551e-06 0)
(0.13514525 8.8739058e-06 0)
(0.13427912 8.5269796e-06 0)
(0.13342243 8.1940739e-06 0)
(0.13257498 7.8727835e-06 0)
(0.13173662 7.5644685e-06 0)
(0.13090707 7.2689245e-06 0)
(0.13008611 6.984421e-06 0)
(0.1292736 6.7105209e-06 0)
(0.12846944 6.4466141e-06 0)
(0.12767347 6.1933335e-06 0)
(0.12688553 5.9494599e-06 0)
(0.1261055 5.714983e-06 0)
(0.1253333 5.4890676e-06 0)
(0.12456877 5.2725359e-06 0)
(0.12381177 5.0642876e-06 0)
(0.12306215 4.8645472e-06 0)
(0.12231979 4.6723046e-06 0)
(0.12158456 4.487972e-06 0)
(0.12085634 4.3106426e-06 0)
(0.12013498 4.1407209e-06 0)
(0.11942034 3.9773865e-06 0)
(0.1187123 3.8209414e-06 0)
(0.11801066 3.6708754e-06 0)
(0.11731527 3.5270523e-06 0)
(0.11662591 3.3897246e-06 0)
(0.11594237 3.2580862e-06 0)
(0.11526429 3.1332243e-06 0)
(0.11459147 3.0133647e-06 0)
(0.11392314 2.902116e-06 0)
(0.1132594 2.7929447e-06 0)
(0.11259782 2.7012816e-06 0)
(0.11194091 2.5965453e-06 0)
(0.11127856 2.5502327e-06 0)
(0.11062617 2.4172754e-06 0)
(0.10994109 2.522737e-06 0)
(0.10928872 2.2203452e-06 -1.7696765e-21)
(0.10851611 6.1670643e-06 6.4932683e-20)
(0.10791401 -1.6131923e-06 -3.196172e-19)
(0.10675228 1.2140727e-05 -1.1104118e-18)
(0.95757158 0.024801574 0)
(0.94364489 0.032448006 0)
(0.91261052 0.032590824 0)
(0.86102155 0.028793115 0)
(0.79817661 0.022948783 0)
(0.73514204 0.017299629 0)
(0.67823218 0.012899405 0)
(0.62946699 0.0098280623 0)
(0.58844734 0.0077474954 0)
(0.55393566 0.0062559754 0)
(0.52472655 0.00511655 0)
(0.49983608 0.0042181179 0)
(0.47850139 0.0034889579 0)
(0.46014616 0.0028907473 0)
(0.44430786 0.0023998018 0)
(0.43061323 0.0019954723 0)
(0.41873547 0.0016643868 0)
(0.40838773 0.0013950769 0)
(0.39931238 0.0011768246 0)
(0.39131001 0.0009930318 0)
(0.38419477 0.00084766742 0)
(0.37781527 0.00074357513 0)
(0.37204458 0.00065473376 0)
(0.36678286 0.00058000906 0)
(0.36195271 0.00051811446 0)
(0.3574867 0.00046617862 0)
(0.35333749 0.00042189677 0)
(0.34945881 0.00038433282 0)
(0.34581277 0.00035263035 0)
(0.34236743 0.00032517884 0)
(0.33910063 0.00030067852 0)
(0.3359942 0.00027881867 0)
(0.33303093 0.00025931024 0)
(0.33019663 0.00024182486 0)
(0.32747715 0.00022606561 0)
(0.32486413 0.0002121321 0)
(0.32233938 0.00019971149 0)
(0.31989881 0.00018824479 0)
(0.31753408 0.00017785388 0)
(0.31523733 0.00016836832 0)
(0.31300285 0.00015964345 0)
(0.31082531 0.00015162944 0)
(0.30870018 0.00014414286 0)
(0.30662409 0.00013715017 0)
(0.30459338 0.00013063573 0)
(0.30260532 0.00012451239 0)
(0.30065676 0.00011882543 0)
(0.29874454 0.00011350639 0)
(0.29686651 0.00010847917 0)
(0.29502053 0.00010376514 0)
(0.29320474 9.9285921e-05 0)
(0.29141775 9.5039422e-05 0)
(0.28965806 9.1009704e-05 0)
(0.28792465 8.7164749e-05 0)
(0.28621619 8.3528635e-05 0)
(0.28453163 8.0055886e-05 0)
(0.28287004 7.6755974e-05 0)
(0.28123027 7.3623269e-05 0)
(0.27961128 7.0639372e-05 0)
(0.27801227 6.7788993e-05 0)
(0.27643283 6.5047836e-05 0)
(0.27487247 6.2429529e-05 0)
(0.27333056 5.9921635e-05 0)
(0.27180659 5.7522849e-05 0)
(0.27030009 5.5223372e-05 0)
(0.26881062 5.3023975e-05 0)
(0.26733759 5.0921787e-05 0)
(0.26588053 4.8907561e-05 0)
(0.26443908 4.6975692e-05 0)
(0.26301293 4.5122151e-05 0)
(0.26160173 4.3346203e-05 0)
(0.26020512 4.1642431e-05 0)
(0.2588228 4.0007573e-05 0)
(0.25745455 3.8437944e-05 0)
(0.25610003 3.6934209e-05 0)
(0.25475893 3.5491973e-05 0)
(0.25343093 3.4109475e-05 0)
(0.25211577 3.2782554e-05 0)
(0.25081316 3.1510454e-05 0)
(0.24952285 3.0289658e-05 0)
(0.24824453 2.9119721e-05 0)
(0.24697794 2.7997459e-05 0)
(0.24572278 2.6922575e-05 0)
(0.24447871 2.589273e-05 0)
(0.24324542 2.4906903e-05 0)
(0.24202248 2.3965014e-05 0)
(0.2408095 2.3065281e-05 0)
(0.23960584 2.2208983e-05 0)
(0.23841107 2.1395218e-05 0)
(0.23722388 2.0627347e-05 0)
(0.23604433 1.9906291e-05 0)
(0.2348683 1.9241387e-05 0)
(0.23369974 1.8634567e-05 0)
(0.23252186 1.8126775e-05 0)
(0.23135951 1.7674906e-05 0)
(0.23014243 1.7585127e-05 0)
(0.2289763 1.7318045e-05 3.1772277e-21)
(0.22760847 1.9169329e-05 0)
(0.22651697 9.9876896e-06 0)
(0.22444847 3.0562055e-05 0)
(0.96633914 0.026165319 0)
(0.97121837 0.035037455 0)
(0.97623139 0.038628077 0)
(0.97504745 0.03752188 0)
(0.96044519 0.034310776 0)
(0.93227799 0.029971758 0)
(0.8955921 0.025274154 0)
(0.85555505 0.020874569 0)
(0.81543784 0.017145646 0)
(0.777169 0.014085717 0)
(0.74179845 0.011603325 0)
(0.70977619 0.0096047308 0)
(0.68115133 0.0079827843 0)
(0.6557418 0.0066591822 0)
(0.63324094 0.0055783357 0)
(0.61331832 0.0046921863 0)
(0.59564989 0.0039641384 0)
(0.579939 0.00336432 0)
(0.56592118 0.0028681817 0)
(0.55337098 0.0024608144 0)
(0.54208768 0.0021322624 0)
(0.53189057 0.0018640501 0)
(0.52262789 0.001641381 0)
(0.51417013 0.0014558844 0)
(0.50640711 0.0013005648 0)
(0.49924325 0.0011694602 0)
(0.49259703 0.0010573733 0)
(0.48640436 0.00096116044 0)
(0.48061055 0.00087866988 0)
(0.47516951 0.00080684601 0)
(0.47004162 0.00074321208 0)
(0.46519331 0.00068668734 0)
(0.46059498 0.00063635332 0)
(0.45622148 0.00059131038 0)
(0.45205069 0.00055078364 0)
(0.44806505 0.00051484853 0)
(0.44423976 0.00048271668 0)
(0.44056536 0.00045326811 0)
(0.43702635 0.00042660955 0)
(0.43361046 0.00040230918 0)
(0.43030775 0.00038001787 0)
(0.42710896 0.00035957188 0)
(0.4240058 0.00034061089 0)
(0.4209914 0.00032300573 0)
(0.41805914 0.00030666753 0)
(0.41520345 0.00029141227 0)
(0.41241879 0.00027726753 0)
(0.40969991 0.00026408482 0)
(0.40704263 0.00025170385 0)
(0.40444301 0.00024012204 0)
(0.4018975 0.00022919053 0)
(0.39940311 0.00021887949 0)
(0.39695691 0.00020914029 0)
(0.39455655 0.00019990215 0)
(0.39219961 0.00019118422 0)
(0.38988396 0.00018290238 0)
(0.38760764 0.00017505933 0)
(0.3853686 0.00016763399 0)
(0.38316504 0.00016058359 0)
(0.38099542 0.00015387075 0)
(0.37885857 0.00014744795 0)
(0.37675333 0.00014132958 0)
(0.37467843 0.00013548981 0)
(0.3726328 0.00012991863 0)
(0.37061544 0.00012459451 0)
(0.3686254 0.00011951408 0)
(0.36666164 0.00011466787 0)
(0.36472326 0.0001100353 0)
(0.36280952 0.00010560251 0)
(0.36091969 0.00010135924 0)
(0.35905308 9.7300635e-05 0)
(0.35720902 9.3414566e-05 0)
(0.35538689 8.9692313e-05 0)
(0.35358615 8.6125517e-05 0)
(0.3518062 8.2712876e-05 0)
(0.35004644 7.9444857e-05 0)
(0.34830632 7.6316048e-05 0)
(0.34658531 7.3317604e-05 0)
(0.34488291 7.044618e-05 0)
(0.34319861 6.7694344e-05 0)
(0.34153193 6.5059625e-05 0)
(0.33988236 6.2535372e-05 0)
(0.3382494 6.0119752e-05 0)
(0.33663249 5.7807683e-05 0)
(0.33503114 5.5596506e-05 0)
(0.33344467 5.3485175e-05 0)
(0.33187247 5.1470649e-05 0)
(0.33031364 4.9553693e-05 0)
(0.32876752 4.7735254e-05 0)
(0.32723232 4.6016583e-05 0)
(0.325708 4.4412062e-05 0)
(0.32418923 4.2915498e-05 0)
(0.32268081 4.1589037e-05 0)
(0.32116145 4.0398315e-05 0)
(0.31966196 3.9511872e-05 0)
(0.31809427 3.9060454e-05 0)
(0.31658905 3.8959654e-05 2.345701e-21)
(0.31483071 4.1136762e-05 0)
(0.31340281 2.9832664e-05 0)
(0.31075098 5.6384133e-05 -1.1849832e-20)
(0.96902548 0.024316494 0)
(0.97460351 0.032468218 0)
(0.98261665 0.036276796 0)
(0.98919591 0.036582179 0)
(0.9927192 0.034833296 0)
(0.99236329 0.032355625 0)
(0.98617394 0.029724067 0)
(0.97334176 0.027097424 0)
(0.95402513 0.024431135 0)
(0.93017193 0.021583043 0)
(0.90354469 0.018758456 0)
(0.87553195 0.016135953 0)
(0.84728773 0.013796711 0)
(0.81972026 0.011765877 0)
(0.79347796 0.010024856 0)
(0.76895803 0.0085433019 0)
(0.74633869 0.00729448 0)
(0.72563265 0.0062481815 0)
(0.70674781 0.0053792736 0)
(0.68954197 0.0046604414 0)
(0.67385893 0.0040635683 0)
(0.65954238 0.0035671034 0)
(0.64644818 0.0031507461 0)
(0.63444143 0.0027984465 0)
(0.62339707 0.0024994477 0)
(0.61320273 0.0022447059 0)
(0.60375453 0.0020258658 0)
(0.59496909 0.0018369499 0)
(0.58677443 0.0016735704 0)
(0.57910653 0.0015308354 0)
(0.57190848 0.0014047445 0)
(0.56513096 0.0012930969 0)
(0.55873056 0.0011939706 0)
(0.55266867 0.0011054769 0)
(0.54691378 0.0010260452 0)
(0.54143702 0.00095521555 0)
(0.53621301 0.00089176569 0)
(0.53121872 0.00083404784 0)
(0.52643418 0.00078181111 0)
(0.52184099 0.00073431983 0)
(0.51742361 0.00069089834 0)
(0.51316782 0.00065117604 0)
(0.50906067 0.00061455024 0)
(0.50509101 0.00058072305 0)
(0.5012484 0.00054946557 0)
(0.4975237 0.00052043479 0)
(0.49390862 0.00049358224 0)
(0.49039521 0.00046864555 0)
(0.48697677 0.00044534445 0)
(0.48364717 0.00042361702 0)
(0.48040072 0.00040322387 0)
(0.47723242 0.00038408124 0)
(0.4741375 0.00036608311 0)
(0.47111192 0.00034909714 0)
(0.46815187 0.00033311438 0)
(0.46525387 0.00031800311 0)
(0.46241464 0.00030374365 0)
(0.45963103 0.00029028228 0)
(0.45690032 0.00027753987 0)
(0.45422004 0.00026545016 0)
(0.45158804 0.00025393705 0)
(0.44900223 0.00024300467 0)
(0.44646059 0.000232606 0)
(0.4439613 0.00022271441 0)
(0.44150268 0.0002132912 0)
(0.43908316 0.00020432285 0)
(0.43670112 0.00019578741 0)
(0.43435517 0.00018764861 0)
(0.43204403 0.0001798808 0)
(0.42976651 0.00017246362 0)
(0.42752146 0.00016538393 0)
(0.42530782 0.00015861989 0)
(0.42312458 0.00015215467 0)
(0.42097081 0.00014597289 0)
(0.41884554 0.00014006822 0)
(0.41674787 0.00013442378 0)
(0.41467694 0.00012902836 0)
(0.41263194 0.00012386678 0)
(0.41061206 0.00011893111 0)
(0.40861655 0.00011420856 0)
(0.40664464 0.00010969296 0)
(0.4046956 0.00010537298 0)
(0.4027687 0.00010124392 0)
(0.40086313 9.7296882e-05 0)
(0.39897816 9.3526599e-05 0)
(0.39711292 8.993007e-05 0)
(0.39526654 8.6502683e-05 0)
(0.39343788 8.3243433e-05 0)
(0.39162604 8.0156283e-05 0)
(0.38982891 7.7237272e-05 0)
(0.38804623 7.4521478e-05 0)
(0.38627198 7.1973408e-05 0)
(0.38451115 6.9749812e-05 0)
(0.3827402 6.7677383e-05 0)
(0.3809923 6.6280563e-05 0)
(0.3791711 6.5267956e-05 0)
(0.37741742 6.5533852e-05 1.7950883e-21)
(0.37538655 6.7677289e-05 0)
(0.3737065 5.6917601e-05 0)
(0.3706463 8.3584322e-05 9.1318304e-21)
(0.97086814 0.023187536 0)
(0.97578785 0.030431568 0)
(0.98314942 0.034211604 0)
(0.99022253 0.034730422 0)
(0.99533113 0.033467598 0)
(0.99840618 0.031596681 0)
(1.0008344 0.029705176 0)
(1.0006965 0.027948341 0)
(0.9991022 0.026256058 0)
(0.99441104 0.024514457 0)
(0.98592327 0.022706562 0)
(0.97344938 0.020839843 0)
(0.95750797 0.018864022 0)
(0.93894162 0.016858365 0)
(0.918466 0.014924154 0)
(0.89677437 0.013124872 0)
(0.87457159 0.011505311 0)
(0.8524886 0.010062377 0)
(0.83104212 0.0087943362 0)
(0.81059684 0.0076940713 0)
(0.79136219 0.0067481856 0)
(0.77341032 0.0059455232 0)
(0.75672245 0.0052658133 0)
(0.74123406 0.0046872997 0)
(0.72686211 0.0041924294 0)
(0.71351923 0.0037667403 0)
(0.70111578 0.0033976826 0)
(0.68956582 0.0030762448 0)
(0.67878854 0.0027961438 0)
(0.66870849 0.0025504437 0)
(0.65925867 0.0023333728 0)
(0.65037883 0.0021412168 0)
(0.64201411 0.0019706828 0)
(0.63411488 0.0018185954 0)
(0.62663916 0.0016823961 0)
(0.61954699 0.0015607586 0)
(0.61280884 0.0014516032 0)
(0.60639105 0.0013527359 0)
(0.60026698 0.0012634132 0)
(0.59441195 0.0011822924 0)
(0.58880447 0.0011083284 0)
(0.58342453 0.0010408532 0)
(0.57825389 0.00097891317 0)
(0.57327664 0.0009219484 0)
(0.56847795 0.00086952017 0)
(0.56384438 0.00082103566 0)
(0.55936457 0.00077627783 0)
(0.55502769 0.00073482419 0)
(0.55082437 0.00069624436 0)
(0.54674585 0.00066038713 0)
(0.54278387 0.00062689064 0)
(0.5389311 0.00059557891 0)
(0.5351807 0.00056625907 0)
(0.53152663 0.00053870994 0)
(0.52796339 0.00051286971 0)
(0.52448579 0.00048854134 0)
(0.52108905 0.00046565834 0)
(0.51776876 0.0004441124 0)
(0.51452116 0.00042377578 0)
(0.51134262 0.00040454763 0)
(0.50822979 0.0003863135 0)
(0.50517954 0.00036905287 0)
(0.50218894 0.00035268699 0)
(0.49925529 0.00033716341 0)
(0.49637613 0.00032241868 0)
(0.49354911 0.0003084214 0)
(0.490772 0.00029512953 0)
(0.48804281 0.00028248621 0)
(0.48535964 0.00027044957 0)
(0.48272073 0.00025898393 0)
(0.48012444 0.00024806281 0)
(0.47756924 0.00023765104 0)
(0.47505364 0.0002277208 0)
(0.47257627 0.00021824622 0)
(0.47013576 0.0002092121 0)
(0.46773085 0.00020059147 0)
(0.46536031 0.00019236485 0)
(0.463023 0.00018450852 0)
(0.46071781 0.00017700774 0)
(0.45844366 0.0001698424 0)
(0.45619953 0.00016300075 0)
(0.45398438 0.00015646518 0)
(0.45179723 0.00015022653 0)
(0.44963703 0.00014427076 0)
(0.44750279 0.00013858875 0)
(0.4453934 0.00013317438 0)
(0.44330776 0.00012802078 0)
(0.4412445 0.00012312397 0)
(0.43920246 0.00011849126 0)
(0.43717926 0.00011411134 0)
(0.43517441 0.00011004423 0)
(0.43318145 0.00010621669 0)
(0.43120522 0.00010290129 0)
(0.42922118 9.9747779e-05 0)
(0.42726286 9.7724254e-05 0)
(0.42523092 9.5973229e-05 0)
(0.42326832 9.6686827e-05 1.4754377e-21)
(0.42101945 9.8404425e-05 5.2197378e-20)
(0.41912812 9.0225575e-05 0)
(0.41573613 0.00011269321 0)
(0.97245508 0.022367015 0)
(0.9768096 0.028802722 0)
(0.98316743 0.032389757 0)
(0.98936907 0.033150435 0)
(0.99435223 0.032324916 0)
(0.99807254 0.030808103 0)
(1.0006719 0.02915647 0)
(1.0025105 0.027605934 0)
(1.0037012 0.026090665 0)
(1.0045599 0.024629613 0)
(1.0043204 0.02324486 0)
(1.0030911 0.021910467 0)
(1.0001718 0.020592229 0)
(0.99490927 0.019273755 0)
(0.98701499 0.017961503 0)
(0.97634083 0.016605073 0)
(0.96328488 0.015197085 0)
(0.94815456 0.013801643 0)
(0.93132865 0.012454956 0)
(0.91327564 0.011188781 0)
(0.89454979 0.010021432 0)
(0.87568688 0.0089602742 0)
(0.85714786 0.0080059859 0)
(0.83926784 0.0071577541 0)
(0.82224393 0.0064132982 0)
(0.80615717 0.0057661986 0)
(0.79101446 0.0052039316 0)
(0.77678689 0.0047128299 0)
(0.76342816 0.0042822565 0)
(0.75088392 0.003902069 0)
(0.73909732 0.0035644834 0)
(0.72801043 0.0032645724 0)
(0.71756629 0.0029978206 0)
(0.70771189 0.0027596447 0)
(0.69839899 0.0025463783 0)
(0.68958042 0.0023555059 0)
(0.68121771 0.0021839896 0)
(0.67327289 0.0020290617 0)
(0.6657114 0.0018891516 0)
(0.65850242 0.0017622616 0)
(0.65161869 0.0016467954 0)
(0.64503467 0.0015416565 0)
(0.63872694 0.0014454433 0)
(0.6326747 0.0013572305 0)
(0.6268587 0.0012762771 0)
(0.62126127 0.001201672 0)
(0.61586708 0.0011329553 0)
(0.61066192 0.0010694741 0)
(0.60563328 0.0010105878 0)
(0.6007695 0.00095600575 0)
(0.59605956 0.00090520197 0)
(0.59149377 0.00085787373 0)
(0.58706291 0.00081371155 0)
(0.58275876 0.00077237243 0)
(0.57857379 0.0007337182 0)
(0.5745007 0.00069745678 0)
(0.57053319 0.00066344122 0)
(0.56666546 0.00063149032 0)
(0.56289242 0.00060141542 0)
(0.55920906 0.00057306888 0)
(0.55561076 0.0005462841 0)
(0.55209323 0.0005210008 0)
(0.54865251 0.00049709566 0)
(0.54528497 0.00047448169 0)
(0.54198715 0.00045306254 0)
(0.53875586 0.00043277723 0)
(0.53558815 0.00041355453 0)
(0.53248132 0.00039531213 0)
(0.52943278 0.00037798603 0)
(0.52644015 0.00036151874 0)
(0.5235012 0.00034586471 0)
(0.52061386 0.0003309716 0)
(0.51777612 0.00031679722 0)
(0.51498608 0.00030330049 0)
(0.51224193 0.00029045282 0)
(0.50954201 0.00027821406 0)
(0.50688468 0.00026655367 0)
(0.50426844 0.00025543677 0)
(0.5016918 0.00024483915 0)
(0.49915338 0.00023473117 0)
(0.49665179 0.00022509328 0)
(0.49418574 0.00021589972 0)
(0.49175392 0.00020713505 0)
(0.48935503 0.0001987785 0)
(0.48698781 0.00019081564 0)
(0.4846509 0.00018323587 0)
(0.48234295 0.00017602905 0)
(0.48006232 0.00016918705 0)
(0.47780764 0.00016272025 0)
(0.47557628 0.0001566084 0)
(0.47336745 0.00015093853 0)
(0.47117445 0.00014559496 0)
(0.46900175 0.00014097768 0)
(0.4668245 0.00013653941 0)
(0.46467555 0.00013374017 0)
(0.46245534 0.00013108023 0)
(0.46030505 0.00013223534 0)
(0.45786731 0.00013324006 0)
(0.45578902 0.00012919374 1.1152473e-19)
(0.45210666 0.0001442057 0)
(0.9739842 0.021600398 0)
(0.97776068 0.027357196 0)
(0.98332818 0.030764753 0)
(0.98882948 0.031721873 0)
(0.99335569 0.031195108 0)
(0.99684001 0.029960058 0)
(0.9994682 0.028527377 0)
(1.0015444 0.027118362 0)
(1.0032407 0.025715712 0)
(1.0045007 0.024359137 0)
(1.005416 0.023073914 0)
(1.0060086 0.021837889 0)
(1.0063125 0.020665736 0)
(1.0060961 0.019575469 0)
(1.0052174 0.018549397 0)
(1.0034959 0.017572493 0)
(1.0003355 0.016637327 0)
(0.99538442 0.015721421 0)
(0.98838491 0.014810163 0)
(0.9792252 0.013863244 0)
(0.9680317 0.012876272 0)
(0.95495949 0.011883698 0)
(0.94027544 0.010904021 0)
(0.92438795 0.0099582631 0)
(0.90780154 0.0090608719 0)
(0.89101202 0.0082233464 0)
(0.87443538 0.0074554384 0)
(0.85836288 0.006762193 0)
(0.84295612 0.0061455367 0)
(0.82828085 0.0055999077 0)
(0.8143502 0.0051155518 0)
(0.80115156 0.0046839851 0)
(0.78865811 0.0042980162 0)
(0.77683487 0.0039515404 0)
(0.76564242 0.0036402335 0)
(0.75503745 0.0033607549 0)
(0.74497976 0.0031090556 0)
(0.73543073 0.0028816793 0)
(0.72635262 0.0026762786 0)
(0.71771028 0.0024900499 0)
(0.70947196 0.0023207557 0)
(0.7016079 0.0021667724 0)
(0.69409041 0.0020261382 0)
(0.68689437 0.0018974687 0)
(0.67999647 0.0017796349 0)
(0.67337528 0.0016713189 0)
(0.6670113 0.0015717349 0)
(0.66088655 0.0014799293 0)
(0.65498504 0.001394994 0)
(0.64929199 0.0013164505 0)
(0.64379361 0.0012435604 0)
(0.63847754 0.0011758459 0)
(0.63333213 0.0011128395 0)
(0.62834688 0.0010540452 0)
(0.62351207 0.0009992161 0)
(0.61881838 0.00094794012 0)
(0.61425768 0.00089996357 0)
(0.60982245 0.00085500383 0)
(0.60550593 0.00081279039 0)
(0.60130166 0.00077311233 0)
(0.59720372 0.00073573529 0)
(0.59320656 0.00070054174 0)
(0.5893051 0.00066735106 0)
(0.58549461 0.00063603285 0)
(0.58177053 0.00060644542 0)
(0.57812871 0.0005784833 0)
(0.57456546 0.00055203777 0)
(0.57107724 0.00052699587 0)
(0.5676607 0.00050326414 0)
(0.56431274 0.00048075628 0)
(0.56103046 0.00045940121 0)
(0.55781117 0.00043912353 0)
(0.5546523 0.00041986186 0)
(0.55155138 0.00040155565 0)
(0.54850613 0.00038415819 0)
(0.5455144 0.00036761238 0)
(0.54257412 0.00035187321 0)
(0.53968336 0.00033689151 0)
(0.53684024 0.00032263068 0)
(0.53404301 0.00030904889 0)
(0.53128994 0.00029611631 0)
(0.52857938 0.0002837968 0)
(0.52590973 0.00027206661 0)
(0.52327938 0.0002608964 0)
(0.52068679 0.00025026469 0)
(0.51813032 0.00024015489 0)
(0.51560836 0.00023055232 0)
(0.51311903 0.0002214434 0)
(0.51066068 0.0002128408 0)
(0.50823044 0.00020471409 0)
(0.50582725 0.00019717797 0)
(0.50344421 0.00019007166 0)
(0.50108535 0.00018392854 0)
(0.49872583 0.00017799417 0)
(0.49639739 0.00017424625 0)
(0.49400156 0.00017050328 0)
(0.49167601 0.00017203685 0)
(0.48906605 0.00017209257 0)
(0.48681667 0.00017345327 9.9755914e-20)
(0.48286866 0.00017833663 0)
(0.97557338 0.020913504 0)
(0.9787982 0.026022615 0)
(0.98365285 0.029270621 0)
(0.9886126 0.030407035 0)
(0.9928104 0.030141418 0)
(0.99609635 0.02915638 0)
(0.99862689 0.027912452 0)
(1.0006357 0.026628502 0)
(1.0022906 0.025332259 0)
(1.0036381 0.024063923 0)
(1.0047393 0.022845102 0)
(1.0056203 0.021668578 0)
(1.0062633 0.020551048 0)
(1.0066822 0.019502695 0)
(1.00702 0.01852654 0)
(1.0069997 0.017628127 0)
(1.0068078 0.016805288 0)
(1.0062164 0.016049966 0)
(1.0050969 0.015353995 0)
(1.003208 0.014702468 0)
(1.0001303 0.014075578 0)
(0.99554989 0.013461832 0)
(0.98916833 0.012824583 0)
(0.98089013 0.012131108 0)
(0.97071522 0.011390774 0)
(0.95875354 0.010621016 0)
(0.94526913 0.0098407915 0)
(0.93068906 0.0090737993 0)
(0.91550537 0.0083338296 0)
(0.9001792 0.0076352762 0)
(0.88506576 0.0069890819 0)
(0.87038927 0.0064022486 0)
(0.85626437 0.0058751105 0)
(0.84273886 0.0054018686 0)
(0.82982703 0.0049756543 0)
(0.81752299 0.0045910323 0)
(0.80580912 0.0042427735 0)
(0.79466044 0.0039270043 0)
(0.78404683 0.0036410005 0)
(0.77393681 0.0033812976 0)
(0.76429973 0.0031450627 0)
(0.75510519 0.0029301339 0)
(0.74632389 0.0027339545 0)
(0.73792844 0.0025546342 0)
(0.7298928 0.0023905829 0)
(0.72219268 0.0022400266 0)
(0.71480549 0.0021018095 0)
(0.70771003 0.0019746048 0)
(0.70088716 0.0018571694 0)
(0.69431906 0.0017487705 0)
(0.68798916 0.0016484005 0)
(0.68188232 0.0015553637 0)
(0.67598444 0.0014689948 0)
(0.67028273 0.0013886069 0)
(0.66476525 0.0013138133 0)
(0.65942082 0.0012440465 0)
(0.6542392 0.0011789144 0)
(0.64921095 0.0011180119 0)
(0.64432752 0.0010609642 0)
(0.63958089 0.0010074723 0)
(0.63496369 0.00095721357 0)
(0.63046905 0.00090999755 0)
(0.6260906 0.00086556983 0)
(0.62182242 0.00082374223 0)
(0.61765888 0.0007843175 0)
(0.6135948 0.00074713446 0)
(0.6096255 0.00071203446 0)
(0.60574657 0.0006788643 0)
(0.60195383 0.00064749324 0)
(0.5982434 0.00061779834 0)
(0.59461163 0.000589676 0)
(0.59105513 0.00056302128 0)
(0.58757073 0.00053774824 0)
(0.58415535 0.00051377094 0)
(0.58080618 0.00049101937 0)
(0.57752052 0.00046941552 0)
(0.57429584 0.00044889587 0)
(0.57112973 0.00042939332 0)
(0.5680199 0.00041085551 0)
(0.56496415 0.00039322535 0)
(0.56196041 0.00037645993 0)
(0.55900664 0.00036051019 0)
(0.55610092 0.00034534168 0)
(0.55324129 0.00033091439 0)
(0.55042591 0.00031719786 0)
(0.54765285 0.00030416771 0)
(0.54492022 0.00029180316 0)
(0.54222586 0.00028008378 0)
(0.53956785 0.00026902344 0)
(0.5369431 0.0002585803 0)
(0.53435024 0.00024889656 0)
(0.53178221 0.00023976469 0)
(0.52924254 0.00023185439 0)
(0.52670663 0.00022419887 0)
(0.52420482 0.00021930794 0)
(0.52164047 0.00021429637 0)
(0.519147 0.0002161079 0)
(0.51637445 0.00021497815 -1.8471574e-20)
(0.51396456 0.00022288614 0)
(0.50976629 0.00021525594 -3.0097728e-21)
(0.97714316 0.020306591 0)
(0.97992652 0.024823785 0)
(0.98413476 0.027861907 0)
(0.98859226 0.029126308 0)
(0.9925137 0.029109616 0)
(0.99567134 0.028369457 0)
(0.99814755 0.027310758 0)
(1.0001209 0.02615305 0)
(1.0017335 0.024955733 0)
(1.003054 0.023762275 0)
(1.0041374 0.022601332 0)
(1.005026 0.021477402 0)
(1.0057397 0.020406898 0)
(1.006297 0.019395209 0)
(1.0067233 0.018454965 0)
(1.0070121 0.017588916 0)
(1.0071882 0.016784546 0)
(1.0072755 0.016052137 0)
(1.0072316 0.015394906 0)
(1.0070458 0.014802172 0)
(1.0066439 0.014262933 0)
(1.0059151 0.013772392 0)
(1.0047358 0.013317537 0)
(1.0027964 0.012881887 0)
(0.99974785 0.012447875 0)
(0.99526953 0.011999712 0)
(0.98906517 0.011502661 0)
(0.9810488 0.010935864 0)
(0.97120596 0.010319508 0)
(0.95967979 0.0096677354 0)
(0.94680426 0.0090028177 0)
(0.93304217 0.0083423465 0)
(0.91886918 0.0077038785 0)
(0.90468007 0.0071023809 0)
(0.8907433 0.0065475766 0)
(0.87720953 0.0060432111 0)
(0.86415304 0.0055859532 0)
(0.85160828 0.0051702483 0)
(0.83958633 0.0047918425 0)
(0.82808294 0.0044465039 0)
(0.81708423 0.0041311843 0)
(0.80656999 0.0038435395 0)
(0.79651717 0.0035805951 0)
(0.78690184 0.0033400693 0)
(0.77769925 0.0031199606 0)
(0.7688852 0.0029180403 0)
(0.76043629 0.0027327744 0)
(0.75232982 0.0025624316 0)
(0.74454471 0.0024053917 0)
(0.73706098 0.0022606206 0)
(0.72985976 0.0021267946 0)
(0.72292365 0.0020029565 0)
(0.71623628 0.0018881947 0)
(0.70978272 0.0017815938 0)
(0.70354892 0.0016825886 0)
(0.69752178 0.0015904265 0)
(0.69168915 0.0015045585 0)
(0.6860397 0.001424429 0)
(0.68056306 0.0013495289 0)
(0.67524958 0.0012794439 0)
(0.67009035 0.0012137417 0)
(0.66507706 0.0011521409 0)
(0.66020197 0.0010942964 0)
(0.65545792 0.0010399473 0)
(0.65083819 0.0009888253 0)
(0.64633651 0.00094070002 0)
(0.64194706 0.00089535218 0)
(0.63766449 0.00085257768 0)
(0.63348373 0.00081219833 0)
(0.62940007 0.0007740465 0)
(0.62540905 0.00073797833 0)
(0.62150654 0.00070385132 0)
(0.61768867 0.00067154717 0)
(0.61395174 0.00064094927 0)
(0.61029232 0.00061195925 0)
(0.60670715 0.00058447291 0)
(0.60319317 0.00055840364 0)
(0.59974745 0.0005336622 0)
(0.59636724 0.00051017664 0)
(0.59304991 0.00048787115 0)
(0.58979295 0.00046668652 0)
(0.58659396 0.00044655789 0)
(0.5834506 0.00042743741 0)
(0.5803606 0.00040927197 0)
(0.57732176 0.00039201991 0)
(0.57433185 0.00037564704 0)
(0.57138866 0.00036012469 0)
(0.56848976 0.00034542393 0)
(0.56563295 0.00033155847 0)
(0.56281488 0.00031847376 0)
(0.56003387 0.00030633885 0)
(0.55728271 0.00029489819 0)
(0.55456445 0.00028495902 0)
(0.55185475 0.00027533964 0)
(0.54918253 0.00026909016 0)
(0.54645325 0.00026260855 0)
(0.54379591 0.00026456896 4.8981793e-22)
(0.54086603 0.00026199999 0)
(0.53830262 0.00027752602 8.6318871e-20)
(0.53386368 0.0002551409 0)
(0.97862722 0.019751939 0)
(0.98107115 0.023758737 0)
(0.98472858 0.026572547 0)
(0.98871143 0.027901014 0)
(0.99235164 0.028084293 0)
(0.9953837 0.027565862 0)
(0.99782057 0.026690408 0)
(0.99978548 0.025666454 0)
(1.0013928 0.024572269 0)
(1.0027086 0.023457623 0)
(1.0037855 0.022357891 0)
(1.0046663 0.021285435 0)
(1.0053796 0.0202566 0)
(1.0059486 0.019279775 0)
(1.006395 0.018368409 0)
(1.0067416 0.017524729 0)
(1.0070028 0.01674179 0)
(1.0071821 0.016028589 0)
(1.0072889 0.015383503 0)
(1.0073624 0.014799373 0)
(1.0073542 0.014273077 0)
(1.0072982 0.013802143 0)
(1.0071579 0.013378185 0)
(1.0068903 0.01299148 0)
(1.0064188 0.012634693 0)
(1.005629 0.012301314 0)
(1.0043619 0.011980513 0)
(1.0022636 0.011659889 0)
(0.99900832 0.011325312 0)
(0.99424925 0.010950136 0)
(0.98778228 0.010506281 0)
(0.97951274 0.0099998517 0)
(0.96949624 0.0094443656 0)
(0.95798925 0.0088592184 0)
(0.94541726 0.0082654653 0)
(0.93225411 0.007680937 0)
(0.91891336 0.0071221312 0)
(0.9056873 0.0066002221 0)
(0.89274786 0.006120703 0)
(0.88018678 0.0056819819 0)
(0.86805276 0.0052799865 0)
(0.8563688 0.004911335 0)
(0.8451408 0.0045726498 0)
(0.83436346 0.0042616579 0)
(0.82402414 0.0039763021 0)
(0.81410652 0.0037141066 0)
(0.80459208 0.0034732989 0)
(0.79546081 0.0032518187 0)
(0.78669281 0.0030477023 0)
(0.77826816 0.0028596198 0)
(0.7701674 0.0026859119 0)
(0.76237208 0.0025253359 0)
(0.75486449 0.0023767015 0)
(0.74762817 0.002238833 0)
(0.74064748 0.0021109564 0)
(0.73390766 0.0019921031 0)
(0.72739493 0.0018815432 0)
(0.72109631 0.0017785453 0)
(0.71499979 0.001682441 0)
(0.7090941 0.0015926755 0)
(0.70336882 0.001508684 0)
(0.69781422 0.0014300751 0)
(0.69242116 0.0013563941 0)
(0.68718121 0.0012872862 0)
(0.68208647 0.0012223969 0)
(0.67712956 0.0011614173 0)
(0.67230356 0.001104055 0)
(0.66760208 0.0010500398 0)
(0.66301911 0.00099913556 0)
(0.65854904 0.00095112067 0)
(0.65418658 0.00090580237 0)
(0.64992681 0.00086299222 0)
(0.64576508 0.00082253168 0)
(0.64169705 0.00078426654 0)
(0.63771861 0.00074806405 0)
(0.63382591 0.0007137883 0)
(0.63001528 0.00068132431 0)
(0.6262833 0.00065055596 0)
(0.62262668 0.00062138743 0)
(0.61904232 0.00059372022 0)
(0.61552726 0.00056747525 0)
(0.61207866 0.0005425685 0)
(0.60869381 0.00051893575 0)
(0.60537004 0.000496508 0)
(0.6021048 0.0004752299 0)
(0.5988955 0.00045505512 0)
(0.59573964 0.00043594508 0)
(0.59263447 0.00041786046 0)
(0.58957749 0.00040081321 0)
(0.58656508 0.00038473461 0)
(0.58359526 0.00036981949 0)
(0.58066066 0.00035576327 0)
(0.57776381 0.00034351079 0)
(0.57488071 0.00033166433 0)
(0.57203881 0.00032381884 0)
(0.5691458 0.00031564709 0)
(0.56632635 0.00031760249 0)
(0.56324154 0.00031331754 0)
(0.56052893 0.00033749485 0)
(0.55585503 0.00029817808 0)
(0.98000295 0.019232455 0)
(0.98217651 0.022799326 0)
(0.98537701 0.025398824 0)
(0.9889311 0.026751995 0)
(0.9922861 0.02708753 0)
(0.99517262 0.02675695 0)
(0.99755629 0.026050836 0)
(0.999512 0.025159696 0)
(1.001125 0.024171064 0)
(1.0024519 0.023139758 0)
(1.0035401 0.022105547 0)
(1.0044301 0.021086837 0)
(1.0051518 0.02010125 0)
(1.0057296 0.019160256 0)
(1.0061861 0.018276617 0)
(1.0065456 0.01745488 0)
(1.006824 0.016691153 0)
(1.0070318 0.015992573 0)
(1.0071831 0.015358306 0)
(1.0072937 0.014784406 0)
(1.0073656 0.014266847 0)
(1.0074093 0.013799899 0)
(1.0074307 0.013379571 0)
(1.007426 0.012999411 0)
(1.0073851 0.012653619 0)
(1.0072899 0.012338625 0)
(1.0071134 0.012049176 0)
(1.0067989 0.011778519 0)