/*--------------------------------*- C++ -*----------------------------------*\
| =========                 |                                                 |
| \\      /  F ield         | OpenFOAM: The Open Source CFD Toolbox           |
|  \\    /   O peration     | Version:  2206                                  |
|   \\  /    A nd           | Website:  www.openfoam.com                      |
|    \\/     M anipulation  |                                                 |
\*---------------------------------------------------------------------------*/
FoamFile
{
    version     2.0;
    format      ascii;
    arch        "LSB;label=32;scalar=64";
    class       volVectorField;
    location    "0";
    object      wallShearStress;
}
// * * * * * * * * * * * * * * * * * * * * * * * * * * * * * * * * * * * * * //

dimensions      [0 2 -2 0 0 0 0];

internalField   uniform (0 0 0);

boundaryField
{
    bottom
    {
        type            calculated;
        value           nonuniform List<vector> 
112
(
(-14.965175 -2.1583474e-12 0)
(-14.965175 -4.3166948e-12 0)
(-14.965175 1.7266779e-11 0)
(-14.965175 8.6333896e-12 -0)
(-14.965175 0 0)
(-14.965175 1.7266779e-11 0)
(-14.965175 -2.0147953e-27 0)
(-14.965175 -1.7266779e-11 0)
(-14.965175 0 0)
(-14.965175 -3.4533559e-11 0)
(-14.965175 0 0)
(-14.965175 0 0)
(-14.965175 3.4533558e-11 0)
(-14.965175 0 0)
(-14.965175 0 0)
(-14.965175 1.3813423e-10 0)
(-14.965175 6.9067116e-11 0)
(-14.965175 0 0)
(-14.965175 -4.3771647e-19 0)
(-14.965175 0 0)
(-14.965175 0 0)
(-14.965175 -6.9067116e-11 0)
(-14.965175 -1.3813423e-10 0)
(-14.965175 1.3813423e-10 0)
(-14.965175 0 0)
(-14.965175 2.0720135e-10 0)
(-14.965175 0 0)
(-14.965175 0 0)
(-14.965175 0 0)
(-14.965175 0 0)
(-14.965175 1.3813423e-10 0)
(-14.965175 -2.7626847e-10 0)
(-14.965175 -1.3813423e-10 0)
(-14.965175 0 0)
(-14.965175 0 0)
(-14.965175 0 0)
(-14.965175 0 0)
(-14.965175 -2.7626847e-10 0)
(-14.965175 -1.3813423e-10 0)
(-14.965175 0 0)
(-14.965175 -3.0513251e-19 0)
(-14.965175 1.3813423e-10 0)
(-14.965175 0 0)
(-14.965175 1.3813423e-10 0)
(-14.965175 2.7626847e-10 0)
(-14.965175 1.3813423e-10 0)
(-14.965175 0 0)
(-14.965175 2.7626847e-10 0)
(-14.965175 2.7626847e-10 0)
(-14.965175 2.7626847e-10 0)
(-14.965175 0 0)
(-14.965175 0 0)
(-14.965175 -2.7626847e-10 0)
(-14.965175 -2.7626847e-10 0)
(-14.965175 0 0)
(-14.965175 -2.7626847e-10 0)
(-14.965175 -2.7626847e-10 0)
(-14.965175 0 0)
(-14.965175 0 0)
(-14.965175 0 0)
(-14.965175 0 0)
(-14.965175 5.5253693e-10 0)
(-14.965175 -2.7626847e-10 0)
(-14.965175 5.5253693e-10 0)
(-14.965175 -2.7626847e-10 0)
(-14.965175 -3.2236725e-26 0)
(-14.965175 0 0)
(-14.965175 2.7626847e-10 0)
(-14.965175 5.5253693e-10 -0)
(-14.965175 0 0)
(-14.965175 -5.5253693e-10 0)
(-14.965175 -1.2358493e-19 0)
(-14.965175 0 0)
(-14.965175 -5.5253693e-10 0)
(-14.965175 5.5253693e-10 0)
(-14.965175 -5.5253693e-10 0)
(-14.965175 -5.5253693e-10 0)
(-14.965175 6.4473451e-26 0)
(-14.965175 0 0)
(-14.965175 0 0)
(-14.965175 5.5253693e-10 0)
(-14.965175 5.5253693e-10 0)
(-14.965175 5.5253693e-10 0)
(-14.965175 0 0)
(-14.965175 1.6576108e-09 0)
(-14.965175 -5.5253693e-10 0)
(-14.965175 0 0)
(-14.965175 0 0)
(-14.965175 -5.5253693e-10 0)
(-14.965175 -1.1050739e-09 0)
(-14.965175 0 0)
(-14.965175 -4.9179269e-20 0)
(-14.965175 1.1050739e-09 0)
(-14.965175 0 0)
(-14.965175 -2.2101477e-09 0)
(-14.965175 -1.1050739e-09 0)
(-14.965175 1.1050739e-09 0)
(-14.965175 -4.9179269e-20 0)
(-14.965175 -1.1050739e-09 0)
(-14.965175 2.2101477e-09 0)
(-14.965175 2.2101477e-09 0)
(-14.965175 0 0)
(-14.965175 0 0)
(-14.965175 0 0)
(-14.965175 0 0)
(-14.965175 1.1050739e-09 0)
(-14.965175 0 0)
(-14.965175 -1.1050739e-09 0)
(-14.965175 0 0)
(-14.965175 0 0)
(-14.965175 -2.2101477e-09 0)
(-14.965175 1.3552527e-25 0)
)
;
    }
    back
    {
        type            empty;
    }
    front
    {
        type            empty;
    }
    inlet
    {
        type            calculated;
        value           uniform (0 0 0);
    }
    outlet
    {
        type            calculated;
        value           uniform (0 0 0);
    }
    top
    {
        type            calculated;
        value           uniform (0 0 0);
    }
    slipsurface
    {
        type            calculated;
        value           uniform (0 0 0);
    }
}


// ************************************************************************* //
