/*--------------------------------*- C++ -*----------------------------------*\
| =========                 |                                                 |
| \\      /  F ield         | OpenFOAM: The Open Source CFD Toolbox           |
|  \\    /   O peration     | Version:  2206                                  |
|   \\  /    A nd           | Website:  www.openfoam.com                      |
|    \\/     M anipulation  |                                                 |
\*---------------------------------------------------------------------------*/
FoamFile
{
    version     2.0;
    format      ascii;
    arch        "LSB;label=32;scalar=64";
    class       volScalarField;
    location    "700";
    object      p;
}
// * * * * * * * * * * * * * * * * * * * * * * * * * * * * * * * * * * * * * //

dimensions      [0 2 -2 0 0 0 0];

internalField   nonuniform List<scalar> 
3000
(
0.307111928775
0.307255992645
0.307540336312
0.3079282845
0.308395075302
0.308921054601
0.309490151147
0.310089063204
0.31070673396
0.311333972352
0.311963163046
0.312588036004
0.313203477538
0.313805371363
0.314390462165
0.314956236737
0.315500819427
0.316022879789
0.316521550996
0.316996356157
0.317447134161
0.317873964957
0.318277162775
0.318657443192
0.31901595556
0.319353378626
0.319669692228
0.319969703437
0.320261701546
0.320504010732
0.280209345567
0.280126042338
0.279957789861
0.279725709571
0.279442393022
0.279118156421
0.278761647283
0.278380339819
0.277980813493
0.277568902965
0.277149782784
0.276728017889
0.276307597693
0.275891964125
0.275484039306
0.275086255555
0.274700588652
0.274328594604
0.2739714503
0.273629994553
0.273304748512
0.272995891898
0.272703302981
0.272427017564
0.272168281888
0.2719306963
0.271721733452
0.271555530053
0.2714491495
0.271402417984
0.25773025862
0.257697751404
0.257632516257
0.257546577212
0.257447068617
0.257340007753
0.257230028107
0.25712063661
0.257014375102
0.256912977119
0.256817521175
0.25672857113
0.256646300121
0.256570596742
0.25650115349
0.25643753843
0.256379251578
0.256325767518
0.256276565954
0.256231153581
0.256189079259
0.256149941566
0.256113426626
0.256079489886
0.256048679285
0.256022240744
0.25600165972
0.255987550061
0.255978260538
0.255971619409
0.251474617085
0.251482031318
0.251496218154
0.251515705214
0.251537747667
0.251560709292
0.251583182675
0.251604112976
0.251622740225
0.251638560663
0.251651290166
0.251660826546
0.251667213024
0.251670604085
0.251671234526
0.251669392327
0.25166539579
0.251659574647
0.251652253683
0.251643739357
0.251634317244
0.251624274517
0.251613962845
0.251603904427
0.251594870153
0.251587731286
0.251582919921
0.251579815135
0.251577146043
0.251574834847
0.247152251413
0.247144989261
0.247129740774
0.247109254204
0.24708426388
0.247056079106
0.24702561075
0.246993688121
0.246961024066
0.246928225877
0.246895801156
0.246864162531
0.246833633956
0.246804458474
0.246776807076
0.246750788235
0.246726457714
0.246703827945
0.246682875473
0.246663547729
0.246645781217
0.24662955173
0.246614960754
0.246602310334
0.246592049118
0.2465844864
0.24657942265
0.246576114118
0.246573729462
0.246572011916
0.240224632989
0.240219246291
0.240207435299
0.240192020752
0.240173901376
0.240154371184
0.2401341734
0.240113928925
0.240094077363
0.240074923572
0.240056666655
0.240039424496
0.240023254637
0.240008171088
0.23999415754
0.239981177484
0.239969181768
0.239958114026
0.239947914395
0.239938524274
0.239929900429
0.239922047252
0.239915059971
0.239909135642
0.239904477234
0.239901101708
0.239898749887
0.239897011343
0.239895529281
0.239894329326
0.233574424597
0.233573793164
0.233571588745
0.233569019019
0.233565759235
0.233562135728
0.233558146246
0.233553887324
0.233549418638
0.23354479576
0.233540068547
0.23353528179
0.233530475855
0.233525686847
0.233520946689
0.233516283158
0.233511719857
0.2335072763
0.233502969174
0.23349881765
0.233494855949
0.233491151649
0.233487818806
0.233484996796
0.233482767641
0.233481074842
0.233479747763
0.233478583825
0.23347743548
0.233476444512
0.228035478671
0.228034435743
0.228031668226
0.228028323519
0.228024111908
0.228019418956
0.228014289822
0.228008876897
0.228003275267
0.22799757272
0.227991842342
0.227986144491
0.227980528316
0.227975033015
0.227969689129
0.227964519749
0.22795954151
0.227954765682
0.227950201268
0.227945863617
0.227941789603
0.227938053219
0.227934766171
0.227932037775
0.227929899572
0.227928270676
0.22792699942
0.22792591857
0.227924902327
0.227924052496
0.222931021429
0.222929556383
0.222925985902
0.222921532134
0.222916062361
0.22291006674
0.222903653244
0.222897025601
0.222890303474
0.222883591431
0.222876968371
0.222870494264
0.22286421374
0.222858158993
0.222852352255
0.22284680778
0.22284153338
0.222836532203
0.222831807173
0.222827371379
0.222823263669
0.222819561063
0.222816369119
0.22281377131
0.222811766349
0.222810258316
0.222809101358
0.222808146153
0.222807278358
0.222806567024
0.217970562183
0.217969459625
0.217966610073
0.217963090689
0.217958729533
0.217953955181
0.217948823277
0.217943506011
0.217938092807
0.217932669727
0.217927300927
0.217922036609
0.217916915036
0.217911964632
0.217907205784
0.217902652284
0.217898312594
0.217894191903
0.217890297339
0.217886648116
0.217883288125
0.217880292035
0.217877747198
0.217875704689
0.217874138026
0.217872951401
0.217872023231
0.217871239288
0.217870514349
0.217869914362
0.213214408286
0.213213581104
0.213211321191
0.213208582489
0.21320515359
0.213201407499
0.213197360038
0.213193158316
0.213188866722
0.213184555565
0.213180275512
0.213176067305
0.213171962286
0.213167984089
0.213164149994
0.213160472017
0.213156958087
0.213153614538
0.213150451842
0.213147493764
0.213144786338
0.213142397744
0.213140394951
0.213138802165
0.21313757843
0.213136636043
0.213135878557
0.213135220299
0.213134598406
0.21313407823
0.20868893594
0.208688208363
0.208686187856
0.2086837596
0.208680709467
0.208677386826
0.208673794052
0.208670069869
0.208666267119
0.208662449785
0.208658661746
0.208654938926
0.208651308669
0.208647791535
0.208644402487
0.208641151884
0.208638046805
0.208635094087
0.208632306439
0.208629710663
0.208627353752
0.208625297697
0.208623593277
0.208622246501
0.208621209207
0.208620401825
0.208619744476
0.208619167654
0.208618620147
0.208618161633
0.20435367263
0.204353016531
0.204351165116
0.204348949413
0.204346159217
0.204343125932
0.204339843747
0.204336445503
0.204332976061
0.204329495632
0.204326043552
0.204322652794
0.204319348165
0.204316148315
0.204313066755
0.204310112841
0.204307293329
0.20430461589
0.204302095311
0.204299760653
0.204297658781
0.204295845021
0.204294356412
0.204293186116
0.204292282955
0.204291575055
0.204290994411
0.204290482556
0.204289996269
0.2042895892
0.20017422703
0.200173651587
0.200171982556
0.200169999362
0.200167492102
0.200164772253
0.20016182505
0.200158775791
0.200155661211
0.200152537194
0.20014943832
0.200146394509
0.200143427991
0.200140555559
0.200137789367
0.200135137942
0.200132607986
0.200130208206
0.200127955249
0.200125879577
0.200124026416
0.200122443326
0.200121155031
0.200120145522
0.200119363622
0.200118745394
0.200118233135
0.200117777917
0.200117343621
0.200116979513
0.196135340486
0.196134837104
0.196133332413
0.196131559765
0.196129309058
0.19612687302
0.196124229286
0.19612149582
0.196118702186
0.196115900214
0.196113120118
0.196110389045
0.196107726856
0.196105148657
0.196102665389
0.196100284904
0.196098014017
0.19609586251
0.196093848575
0.196092003354
0.196090369428
0.196088986396
0.196087868616
0.196086993974
0.196086313116
0.196085769576
0.196085314367
0.196084906411
0.196084515379
0.196084186933
0.192225769628
0.192225322632
0.192223949278
0.192222343767
0.192220297493
0.192218087277
0.192215685476
0.192213203919
0.19221066659
0.1922081221
0.192205597135
0.192203116658
0.192200698599
0.192198356711
0.192196100953
0.192193938699
0.192191877018
0.192189926722
0.192188107249
0.192186449885
0.19218499406
0.19218377192
0.192182789537
0.192182021021
0.192181419634
0.19218093538
0.192180526241
0.19218015721
0.192179802347
0.192179503943
0.188433312638
0.188432911948
0.188431647632
0.188430179979
0.188428302853
0.188426279214
0.188424077623
0.188421804551
0.188419479511
0.18841714843
0.188414835066
0.188412562594
0.188410347325
0.188408201891
0.18840613545
0.188404155059
0.188402268138
0.188400486451
0.188398830381
0.188397330888
0.188396023899
0.188394934768
0.18839406306
0.188393380753
0.18839284405
0.188392408524
0.188392037799
0.188391701676
0.188391377672
0.188391105001
0.18474700722
0.184746647063
0.184745478547
0.184744131741
0.184742403129
0.184740543079
0.18473851716
0.184736426873
0.184734287957
0.18473214392
0.184730015966
0.184727925709
0.184725888034
0.184723914603
0.184722013904
0.184720192799
0.184718459119
0.184716825478
0.184715312923
0.184713951639
0.184712773822
0.184711798724
0.184711020872
0.184710411281
0.18470992921
0.184709535106
0.184709197296
0.184708889537
0.184708592196
0.184708341765
0.181157939921
0.181157615259
0.181156531195
0.181155290703
0.18115369295
0.181151976849
0.181150105624
0.181148176174
0.18114620105
0.181144221564
0.181142256691
0.181140326673
0.181138445135
0.1811366229
0.181134867897
0.181133186895
0.181131588167
0.181130085068
0.181128699042
0.181127459138
0.181126393754
0.181125516772
0.1811248189
0.181124271003
0.181123835357
0.181123476669
0.18112316722
0.181122884047
0.181122609882
0.1811223788
0.177658521719
0.177658227843
0.177657217701
0.177656069971
0.177654586628
0.177652996216
0.177651260197
0.177649471258
0.17764763928
0.177645803601
0.177643981266
0.177642191318
0.177640446276
0.177638756239
0.177637128679
0.17763557036
0.17763409
0.177632701578
0.177631426709
0.177630293021
0.177629325184
0.17762853245
0.177627902698
0.177627407183
0.17762701106
0.177626682738
0.177626397819
0.177626136071
0.177625882184
0.177625668058
0.174242009641
0.174241742668
0.174240797679
0.174239731439
0.174238348798
0.17423686888
0.174235251838
0.174233586486
0.174231880462
0.174230171314
0.174228474411
0.174226807734
0.174225182829
0.174223609169
0.174222093863
0.17422064373
0.174219267921
0.17421798093
0.174216804325
0.174215764107
0.174214881378
0.174214161447
0.174213590154
0.1742131395
0.174212777334
0.174212475288
0.174212211771
0.174211968839
0.174211732827
0.174211533669
0.170902422973
0.170902179768
0.170901292786
0.170900298895
0.170899005809
0.170897624042
0.170896112773
0.170894557233
0.170892963161
0.17089136646
0.170889781036
0.170888223915
0.170886705783
0.170885235569
0.170883820096
0.170882466287
0.170881183702
0.170879987237
0.170878898222
0.170877940881
0.170877132963
0.170876476461
0.170875955796
0.170875543943
0.170875211245
0.170874932151
0.170874687465
0.17087446118
0.170874241026
0.170874055158
0.167634478387
0.167634256299
0.16763342126
0.167632491979
0.167631278995
0.167629984924
0.167628568236
0.167627110837
0.167625616848
0.167624120658
0.167622634883
0.167621175691
0.167619753001
0.167618375274
0.16761704911
0.167615781571
0.167614582593
0.167613467367
0.167612456815
0.167611573292
0.167610831447
0.167610230509
0.167609753968
0.167609375904
0.16760906896
0.167608810052
0.167608582039
0.167608370566
0.167608164557
0.167607990555
0.16443347606
0.164433272805
0.16443248446
0.164431613102
0.164430472046
0.164429256636
0.16442792485
0.164426555507
0.164425151346
0.164423745353
0.164422349012
0.164420977709
0.164419640681
0.164418345984
0.164417100053
0.164415910111
0.16441478643
0.164413744398
0.164412804381
0.164411986823
0.164411303543
0.16441075149
0.1644103136
0.164409965129
0.164409680825
0.164409439772
0.1644092266
0.164409028374
0.164408835046
0.16440867169
0.161295202616
0.161295016228
0.161294270047
0.161293450851
0.161292374665
0.161291230129
0.161289974897
0.161288684913
0.161287361735
0.161286037045
0.161284721326
0.161283429252
0.161282169452
0.161280949633
0.161279776113
0.161278656288
0.161277600727
0.161276624918
0.161275748545
0.161274990144
0.161274358976
0.16127385013
0.161273446275
0.161273123871
0.161272859585
0.161272634416
0.161272434524
0.161272248204
0.161272066298
0.161271912538
0.158215864026
0.158215692815
0.158214984878
0.158214212868
0.158213195451
0.158212115063
0.158210929168
0.158209711027
0.158208461185
0.158207210111
0.158205967397
0.158204747066
0.158203557203
0.158202405216
0.158201297349
0.158200241171
0.158199247509
0.158198331861
0.158197513125
0.158196807965
0.158196223349
0.158195752863
0.158195379134
0.158195079817
0.158194833332
0.158194622366
0.158194434416
0.158194258844
0.158194087269
0.158193942195
0.155192031808
0.155191874307
0.155191201194
0.155190472041
0.155189508077
0.155188485978
0.15518736313
0.155186210288
0.155185027121
0.155183842964
0.155182666619
0.155181511508
0.155180385233
0.155179294943
0.155178246842
0.155177248674
0.155176311477
0.155175450678
0.155174684306
0.155174027213
0.155173484331
0.155173048044
0.155172701104
0.155172422337
0.155172191758
0.155171993555
0.155171816391
0.155171650563
0.155171488369
0.155171351188
0.152220595672
0.1522204506
0.152219809309
0.15221911922
0.152218204041
0.1522172351
0.152216169782
0.1522150765
0.152213954165
0.152212831053
0.152211715258
0.152210619648
0.152209551393
0.152208517425
0.152207523931
0.152206578825
0.152205693316
0.152204882678
0.152204164017
0.152203550446
0.152203045101
0.152202639419
0.152202316404
0.152202056012
0.152201839713
0.152201653026
0.152201485644
0.152201328682
0.152201175039
0.152201045055
0.149298723262
0.149298589491
0.149297977377
0.149297323012
0.149296452508
0.149295532205
0.149294519557
0.149293480782
0.149292414133
0.149291346893
0.149290286524
0.149289245377
0.149288230241
0.149287247862
0.149286304433
0.149285408028
0.149284569985
0.149283805357
0.149283130281
0.149282556226
0.149282084747
0.149281706555
0.149281404992
0.149281161101
0.149280957675
0.149280781424
0.149280622946
0.149280474079
0.149280328255
0.149280204856
0.146423826608
0.146423703148
0.146423117866
0.146422496275
0.146421666809
0.146420791147
0.146419826871
0.146418838134
0.14641782262
0.146416806677
0.1464157972
0.146414806063
0.146413839711
0.146412904737
0.146412007358
0.146411155792
0.146410361469
0.146409639156
0.146409003994
0.14640846591
0.146408025079
0.146407671661
0.146407389408
0.146407160392
0.146406968618
0.146406801859
0.146406651514
0.146406510063
0.146406371412
0.146406254057
0.143593533744
0.143593419716
0.143592859184
0.143592267747
0.143591476086
0.143590641519
0.143589721793
0.143588779126
0.143587810703
0.143586841995
0.143585879383
0.143584934299
0.143584012883
0.143583121602
0.143582266703
0.143581456543
0.143580702599
0.143580019297
0.143579420774
0.143578915514
0.143578502495
0.143578171478
0.143577906667
0.143577691113
0.143577509924
0.143577351827
0.143577208936
0.1435770743
0.143576942248
0.143576830456
0.14080566434
0.140805558964
0.140805021321
0.140804457705
0.140803700964
0.14080290433
0.140802025746
0.140801125611
0.140800200673
0.140799275575
0.140798356236
0.140797453677
0.140796573767
0.140795722867
0.140794907268
0.140794135445
0.140793418888
0.140792771633
0.140792206814
0.140791731578
0.140791343866
0.140791033164
0.140790784161
0.140790580832
0.140790409292
0.140790259127
0.140790123085
0.140789994729
0.140789868766
0.140789762108
0.138058208732
0.138058111312
0.138057594892
0.138057057008
0.138056332604
0.138055571072
0.13805473058
0.138053869809
0.138052985127
0.138052100395
0.138051221116
0.138050357923
0.13804951645
0.138048702968
0.13804792382
0.138047187584
0.138046505725
0.138045891848
0.138045358096
0.138044910381
0.138044545754
0.138044253531
0.138044018901
0.138043826709
0.138043663993
0.138043521111
0.138043391384
0.138043268829
0.138043148497
0.13804304659
0.13534930982
0.135349219733
0.135348723036
0.135348209009
0.135347514622
0.135346785651
0.135345980509
0.135345156259
0.135344308931
0.135343461653
0.135342619544
0.135341792882
0.135340987089
0.135340208367
0.13533946311
0.135338759984
0.135338110397
0.135337527486
0.135337022424
0.135336599991
0.135336256475
0.135335981106
0.135335759583
0.135335577568
0.135335422945
0.135335286772
0.13533516288
0.135335045699
0.135334930587
0.135334833085
0.132677247367
0.132677164054
0.132676685728
0.132676193871
0.132675527407
0.132674828709
0.132674056445
0.132673266152
0.132672453565
0.132671641114
0.132670833574
0.132670040889
0.132669268293
0.132668521935
0.132667808261
0.13266713601
0.132666516498
0.132665962367
0.13266548385
0.132665084686
0.13266476052
0.132664500563
0.132664291025
0.132664118338
0.132663971158
0.132663841181
0.132663722695
0.132663610502
0.132663500241
0.132663406835
0.130040424317
0.130040347274
0.130039886096
0.130039414883
0.130038774451
0.130038103956
0.130037362337
0.130036603686
0.130035823475
0.130035043479
0.130034268155
0.130033507138
0.130032765496
0.130032049337
0.130031365159
0.130030721756
0.130030130323
0.130029602988
0.130029149071
0.130028771368
0.130028464976
0.130028219147
0.130028020599
0.130027856482
0.130027716168
0.130027591925
0.130027478459
0.130027370907
0.130027265165
0.130027175572
0.127437354815
0.127437283587
0.127436838446
0.127436386495
0.127435770379
0.127435126213
0.127434413213
0.127433684104
0.127432934127
0.127432184435
0.127431439195
0.127430707752
0.127429995032
0.127429307109
0.127428650534
0.127428034138
0.127427468968
0.127426966619
0.127426535538
0.127426177662
0.127425887632
0.127425654786
0.127425466339
0.127425310119
0.127425176152
0.12742505723
0.127424948435
0.12742484521
0.127424743683
0.127424657651
0.124866653684
0.124866587859
0.124866157746
0.124865723802
0.124865130441
0.124864510901
0.124863824676
0.124863123202
0.124862401511
0.124861680167
0.124860963073
0.124860259304
0.124859573659
0.124858912189
0.124858281493
0.124857690425
0.124857149858
0.124856670843
0.124856260994
0.124855921469
0.124855646531
0.12485542564
0.124855246501
0.124855097574
0.124854969489
0.124854855515
0.124854751076
0.124854651893
0.124854554306
0.124854471603
0.122327027154
0.122326966357
0.122326550349
0.122326133269
0.122325561241
0.122324964774
0.122324303647
0.122323628068
0.122322932888
0.12232223811
0.122321547395
0.122320869567
0.122320209315
0.122319572674
0.122318966285
0.122318399011
0.122317881525
0.122317424333
0.122317034254
0.122316711742
0.122316450751
0.122316240894
0.122316070351
0.122315928174
0.122315805551
0.122315696189
0.12231559582
0.12231550042
0.122315406523
0.122315326939
0.119817264647
0.119817208538
0.119816805793
0.119816404533
0.119815852538
0.119815277726
0.119814640162
0.11981398889
0.119813318598
0.119812648759
0.119811982811
0.119811329342
0.119810692947
0.119810079648
0.119809496129
0.119808951243
0.119808455443
0.119808018688
0.119807647042
0.119807340328
0.119807092251
0.119806892599
0.11980673001
0.119806594096
0.119806476557
0.1198063715
0.119806274941
0.119806183087
0.119806092651
0.119806015993
0.117336231503
0.117336179771
0.117335789515
0.11733540312
0.117334869966
0.117334315512
0.117333700106
0.117333071688
0.117332424798
0.117331778407
0.117331135747
0.117330505189
0.117329891245
0.11732929993
0.117328737962
0.117328214173
0.117327738775
0.117327321182
0.117326966748
0.117326674727
0.117326438628
0.117326248431
0.117326093219
0.117325963127
0.117325850329
0.117325749299
0.117325656312
0.117325567787
0.117325480605
0.117325406697
0.114882862487
0.114882814848
0.114882436372
0.114882063964
0.11488154856
0.114881013273
0.114880418735
0.114879811835
0.114879186985
0.114878562674
0.114877941947
0.114877332972
0.114876740188
0.114876169608
0.114875627981
0.114875124097
0.114874667918
0.114874268314
0.114873929974
0.114873651639
0.114873426667
0.114873245248
0.114873096891
0.114872972221
0.114872863852
0.114872766596
0.114872676963
0.114872591571
0.11487250745
0.114872436131
0.112456156004
0.112456112197
0.112455744848
0.112455385622
0.112454886961
0.112454369746
0.11245379489
0.112453208282
0.112452604216
0.112452000728
0.112451400688
0.112450812074
0.112450239266
0.112449688272
0.112449165869
0.112448680794
0.112448242739
0.112447860044
0.112447536768
0.112447271199
0.112447056584
0.112446883328
0.112446741352
0.112446621741
0.112446517518
0.112446423804
0.112446337327
0.112446254885
0.112446173649
0.11244610477
0.110055168913
0.110055128698
0.110054771874
0.110054425088
0.110053942242
0.110053442091
0.110052885824
0.110052318378
0.110051733941
0.110051150117
0.110050569615
0.110050000237
0.110049446311
0.110048913846
0.110048409637
0.110047942355
0.110047521412
0.110047154628
0.110046845471
0.110046591827
0.110046386864
0.110046221212
0.110046085188
0.110045970306
0.110045869969
0.110045779586
0.110045696082
0.110045616422
0.110045537909
0.110045471333
0.107679011871
0.10767897503
0.107678628172
0.107678293142
0.107677825256
0.107677341238
0.107676802549
0.107676253221
0.107675687346
0.107675122116
0.107674560092
0.107674008913
0.107673472861
0.107672957947
0.107672470979
0.107672020549
0.107671615779
0.107671263982
0.107670968076
0.107670725584
0.107670529632
0.107670371075
0.107670240611
0.107670130157
0.10767003347
0.107669946222
0.107669865523
0.107669788492
0.107669712551
0.107669648152
0.105326845148
0.105326811478
0.105326474072
0.105326150164
0.105325696446
0.105325227699
0.105324705655
0.10532417348
0.105323625179
0.105323077554
0.105322533029
0.105321999088
0.105321479977
0.10532098171
0.1053205111
0.105320076649
0.105319687181
0.105319349515
0.105319066056
0.105318834011
0.105318646481
0.105318494556
0.105318369293
0.105318262992
0.105318169737
0.105318085446
0.105318007397
0.105317932851
0.105317859345
0.105317797007
0.102997874845
0.102997844158
0.102997515725
0.102997202354
0.10299676207
0.102996307797
0.102995801533
0.102995285616
0.102994753976
0.102994223039
0.102993695104
0.102993177513
0.10299267448
0.10299219202
0.102991736948
0.102991317663
0.102990942687
0.102990618359
0.102990346606
0.102990124356
0.102989944712
0.102989798993
0.102989678604
0.102989576205
0.102989486183
0.102989404683
0.102989329141
0.102989256948
0.102989185749
0.102989125362
0.100691349477
0.100691321601
0.100691001697
0.100690698318
0.100690270787
0.100689830248
0.10068933896
0.100688838472
0.100688322643
0.100687807545
0.100687295357
0.100686793291
0.100686305535
0.100685838104
0.100685397807
0.100684992931
0.100684631692
0.100684319964
0.100684059232
0.100683846178
0.100683673926
0.100683534024
0.10068341821
0.10068331948
0.100683232508
0.100683153647
0.100683080479
0.100683010518
0.100682941506
0.100682882971
0.0984065568769
0.0984065316522
0.0984062198636
0.0984059259721
0.0984055105594
0.0984050830672
0.0984046060084
0.0984041201788
0.0984036193722
0.0984031193213
0.0984026220986
0.0984021347918
0.0984016615666
0.0984012084391
0.0984007822079
0.0984003910345
0.0984000428272
0.0983997430155
0.0983994926701
0.0983992882597
0.0983991229449
0.0983989885035
0.0983988769893
0.0983987817163
0.0983986976233
0.0983986212614
0.0983985503437
0.0983984825008
0.0983984155659
0.0983983587898
0.0961428213828
0.0961427986605
0.0961424946021
0.0961422097279
0.0961418058443
0.0961413907584
0.0961409272337
0.0961404553441
0.0961399688253
0.0961394830863
0.0961390001
0.0961385268394
0.0961380674517
0.0961376279529
0.0961372151235
0.096136836993
0.0961365011603
0.096136212626
0.0961359720788
0.0961357758023
0.0961356170075
0.0961354876978
0.0961353802304
0.0961352882179
0.0961352068482
0.0961351328541
0.0961350640732
0.0961349982427
0.0961349332822
0.0961348781779
0.0938995012779
0.0938994809201
0.0938991842325
0.0938989079374
0.093898515033
0.0938981117567
0.0938976611178
0.093897202499
0.0938967295831
0.0938962574704
0.0938957880413
0.0938953281624
0.0938948819657
0.0938944554653
0.0938940554179
0.0938936897127
0.0938933656396
0.0938930877878
0.0938928564929
0.0938926678787
0.0938925152186
0.0938923907384
0.0938922870844
0.0938921981514
0.0938921193601
0.0938920476128
0.0938919808624
0.093891916946
0.0938918538642
0.0938918003508
0.091675986458
0.0916759683367
0.0916756786839
0.0916754105591
0.09167502812
0.0916746360963
0.0916741977379
0.0916737517653
0.0916732918129
0.0916728326863
0.0916723761808
0.0916719290635
0.0916714954538
0.0916710813629
0.0916706935173
0.0916703396585
0.0916700267695
0.091669759045
0.0916695364949
0.0916693551064
0.0916692082254
0.0916690882956
0.0916689882398
0.0916689022189
0.0916688258716
0.0916687562586
0.0916686914398
0.0916686293459
0.0916685680534
0.0916685160553
0.0894716962997
0.0894716802954
0.0894713973631
0.0894711370266
0.0894707645725
0.0894703832808
0.089469956637
0.0894695227264
0.0894690751398
0.0894686284011
0.0894681842269
0.0894677492916
0.0894673277044
0.0894669254716
0.0894665492838
0.0894662067285
0.0894659044839
0.0894656463682
0.0894654320907
0.0894652575233
0.0894651160923
0.0894650004551
0.0894649037985
0.0894648205347
0.0894647465069
0.0894646789232
0.0894646159439
0.0894645555868
0.0894644960001
0.0894644454469
0.08728607771
0.0872860637114
0.0872857872049
0.0872855342992
0.0872851713806
0.0872848003335
0.0872843848744
0.0872839624793
0.0872835266989
0.0872830917882
0.087282659391
0.0872822360954
0.0872818260019
0.0872814351106
0.08728107007
0.0872807383079
0.0872804462017
0.0872801972098
0.0872799907652
0.0872798226431
0.0872796863574
0.0872795747744
0.0872794813329
0.0872794006822
0.0872793288578
0.0872792632059
0.0872792019798
0.0872791432795
0.0872790853205
0.0872790361461
0.0851186033382
0.0851185912415
0.0851183208846
0.0851180750748
0.0851177212699
0.0851173600108
0.0851169552399
0.085116543848
0.0851161193494
0.085115695742
0.0851152746025
0.0851148624383
0.0851144633431
0.0851140833083
0.0851137289349
0.0851134074862
0.085113125043
0.085112884721
0.0851126856991
0.0851125236732
0.0851123922503
0.0851122845004
0.0851121941031
0.085112115932
0.0851120462031
0.0851119823916
0.0851119228383
0.0851118657198
0.0851118093153
0.0851117614579
0.0829687699352
0.0829687596433
0.0829684951763
0.0829682561483
0.0829679110616
0.082967559162
0.0829671646132
0.0829667637438
0.0829663500349
0.0829659372385
0.0829655268696
0.0829651253602
0.0829647367979
0.0829643671638
0.0829640230061
0.0829637114189
0.0829634381918
0.0829632061144
0.0829630141325
0.0829628578779
0.0829627310554
0.0829626269335
0.0829625394218
0.082962463606
0.0829623958718
0.0829623338156
0.0829622758594
0.0829622202525
0.0829621653339
0.0829621187354
0.0808360968433
0.0808360882653
0.0808358294441
0.080835596903
0.0808352601625
0.08083491722
0.0808345324555
0.0808341416571
0.0808337382755
0.080833335828
0.0808329357722
0.0808325444696
0.0808321660031
0.0808318063409
0.0808314719731
0.0808311698217
0.0808309053902
0.0808306811584
0.0808304958588
0.0808303450729
0.080830222607
0.0808301219225
0.0808300371489
0.0808299635725
0.080829897739
0.0808298373583
0.0808297809285
0.0808297267673
0.0808296732701
0.080829627876
0.0787201246061
0.078720117657
0.0787198642519
0.0787196379204
0.0787193091764
0.0787189748124
0.0787185994204
0.0787182182682
0.0787178247794
0.0787174322459
0.078717042073
0.0787166605563
0.0787162917741
0.0787159416798
0.0787156167005
0.078715323583
0.0787150675511
0.0787148507906
0.0787146718388
0.0787145262394
0.0787144079029
0.0787143104785
0.0787142283055
0.0787141568606
0.0787140928399
0.0787140340598
0.0787139790901
0.0787139263124
0.0787138741761
0.0787138299352
0.0766204136867
0.0766204082867
0.0766201600811
0.0766199396981
0.0766196186214
0.0766192924796
0.0766189260722
0.0766185541666
0.0766181701611
0.0766177871326
0.0766174064378
0.0766170343104
0.0766166748249
0.0766163339175
0.0766160179476
0.0766157334846
0.076615485479
0.076615275838
0.0766151029207
0.0766149622444
0.0766148478258
0.0766147534963
0.0766146737959
0.0766146043814
0.0766145420911
0.0766144848415
0.0766144312695
0.0766143798171
0.0766143289846
0.0766142858487
0.0745365432827
0.0745365393569
0.0745362961465
0.0745360814661
0.0745357677462
0.0745354494908
0.0745350917026
0.0745347286667
0.0745343537587
0.0745339798497
0.0745336082515
0.07453324514
0.0745328945857
0.0745325625054
0.0745322551864
0.0745319790192
0.0745317386878
0.0745315358355
0.0745313686593
0.0745312326598
0.0745311219616
0.074531030573
0.0745309532256
0.0745308857471
0.0745308251101
0.074530769325
0.0745307170919
0.0745306669099
0.0745306173275
0.0745305752512
0.0724681102308
0.0724681077089
0.0724678693007
0.0724676600911
0.072467353435
0.0724670427493
0.0724666932354
0.0724663387138
0.0724659725395
0.0724656073863
0.072465244525
0.0724648900769
0.0724645481088
0.0724642245155
0.0724639255082
0.0724636572974
0.0724634243078
0.072463227933
0.0724630662225
0.0724629346695
0.0724628275073
0.0724627389156
0.0724626638094
0.0724625981786
0.0724625391224
0.0724624847399
0.0724624337904
0.072462384827
0.0724623364441
0.0724622953844
0.0704147279925
0.0704147268083
0.07041449302
0.0704142890622
0.0704139891933
0.0704136857781
0.0704133442128
0.0704129978698
0.0704126400857
0.070412283345
0.0704119288809
0.0704115827634
0.0704112490553
0.0704109336274
0.0704106426105
0.0704103820347
0.0704101560728
0.0704099658822
0.0704098093791
0.070409682057
0.0704095782583
0.070409492329
0.0704094193594
0.0704093554934
0.0704092979499
0.0704092449117
0.0704091951936
0.0704091474
0.0704091001687
0.0704090600852
0.0683760257127
0.068376025804
0.068375796463
0.0683755975503
0.0683753042068
0.0683750077795
0.068374673855
0.0683743353734
0.0683739856546
0.068373637002
0.0683732906142
0.0683729525127
0.0683726267561
0.0683723191888
0.0683720358578
0.0683717826125
0.0683715633812
0.0683713790985
0.0683712275599
0.0683711042665
0.0683710036699
0.0683709202771
0.0683708493461
0.0683707871671
0.0683707310723
0.0683706793233
0.0683706307875
0.0683705841176
0.0683705379927
0.0683704988472
0.0663516473466
0.0663516486546
0.0663514235975
0.0663512295342
0.0663509424688
0.0663506527618
0.0663503261868
0.0663499952664
0.0663496533057
0.0663493124345
0.0663489738194
0.0663486434362
0.0663483253391
0.0663480253435
0.0663477494092
0.0663475032055
0.0663472904238
0.0663471117885
0.0663469649861
0.0663468455317
0.0663467479859
0.0663466670116
0.0663465980272
0.0663465374621
0.0663464827557
0.0663464322442
0.0663463848441
0.0663463392542
0.0663462941931
0.0663462559494
0.0643412508468
0.0643412533163