/*--------------------------------*- C++ -*----------------------------------*\
| =========                 |                                                 |
| \\      /  F ield         | OpenFOAM: The Open Source CFD Toolbox           |
|  \\    /   O peration     | Version:  2206                                  |
|   \\  /    A nd           | Website:  www.openfoam.com                      |
|    \\/     M anipulation  |                                                 |
\*---------------------------------------------------------------------------*/
FoamFile
{
    version     2.0;
    format      ascii;
    arch        "LSB;label=32;scalar=64";
    class       surfaceScalarField;
    location    "700";
    object      phi;
}
// * * * * * * * * * * * * * * * * * * * * * * * * * * * * * * * * * * * * * //

dimensions      [0 3 -1 0 0 0 0];

oriented        oriented;

internalField   nonuniform List<scalar> 
5870
(
-2.62252904234e-08
1.26032276796e-06
-9.82008270421e-08
3.40466758524e-06
-2.06755104001e-07
5.05768458988e-06
-3.4477946386e-07
6.30551510004e-06
-5.06519892124e-07
7.22023297579e-06
-6.8713679006e-07
7.86215154269e-06
-8.82446097969e-07
8.28173860808e-06
-1.08876476132e-06
8.52119445342e-06
-1.30281979643e-06
8.61576766309e-06
-1.5216956603e-06
8.59485714187e-06
-1.74280373195e-06
8.48293744083e-06
-1.96386357612e-06
8.3003371796e-06
-2.18288952321e-06
8.06389474887e-06
-2.39817872513e-06
7.7875112978e-06
-2.60829863143e-06
7.48261755732e-06
-2.81207261116e-06
7.15856785464e-06
-3.00856106328e-06
6.8229706947e-06
-3.19703497037e-06
6.48196461242e-06
-3.3769590824e-06
6.14046732403e-06
-3.54806471049e-06
5.80246758829e-06
-3.71061045176e-06
5.4713837463e-06
-3.86556114569e-06
5.15012571275e-06
-4.01326842711e-06
4.83971756552e-06
-4.14773168331e-06
4.53497965485e-06
-4.24361468453e-06
4.21736962444e-06
-4.23711307442e-06
3.84890477842e-06
-4.00863520406e-06
3.37403523324e-06
-3.37945719054e-06
2.73366805225e-06
-2.12810320572e-06
1.88493402358e-06
7.94496394838e-07
-2.05617407395e-08
1.28088450874e-06
-7.55378139023e-08
3.45964365829e-06
-1.56661928043e-07
5.138808704e-06
-2.56916913377e-07
6.40577008544e-06
-3.70494889434e-07
7.33381095189e-06
-4.92698881034e-07
7.98435553451e-06
-6.19812970838e-07
8.40885269799e-06
-7.4896630856e-07
8.65034779127e-06
-8.78001189604e-07
8.74480254415e-06
-1.0053499171e-06
8.72220586909e-06
-1.12992284885e-06
8.60751037299e-06
-1.25100880896e-06
8.42142313899e-06
-1.36818825143e-06
8.18107419216e-06
-1.48125912597e-06
7.90058217167e-06
-1.59017482673e-06
7.591533258e-06
-1.69499222055e-06
7.26338524848e-06
-1.79582647345e-06
6.92380494746e-06
-1.89282203001e-06
6.57896016898e-06
-1.98619324e-06
6.23383853491e-06
-2.07638702451e-06
5.89266137269e-06
-2.16406055696e-06
5.55905727808e-06
-2.24855138771e-06
5.23461654378e-06
-2.32258721587e-06
4.91375339417e-06
-2.36258383644e-06
4.57497627476e-06
-2.31989669081e-06
4.17468247878e-06
-2.12553787338e-06
3.65454596103e-06
-1.72072290206e-06
2.96922026216e-06
-1.1127833881e-06
2.12572853834e-06
-4.36108570958e-07
1.20825920661e-06
3.58387823843e-07
-1.06067004412e-08
1.2914912092e-06
-3.88679271064e-08
3.48790488491e-06
-8.11528150694e-08
5.18109359196e-06
-1.34501987073e-07
6.45911925747e-06
-1.96497174489e-07
7.39580613933e-06
-2.65157499529e-07
8.05301585964e-06
-3.38848302857e-07
8.48254350136e-06
-4.16207012036e-07
8.7277065005e-06
-4.96084829469e-07
8.82468036159e-06
-5.7750208057e-07
8.80362312008e-06
-6.59615045853e-07
8.68962333844e-06
-7.41692086605e-07
8.50350017943e-06
-8.23096982545e-07
8.26247908845e-06
-9.03277639183e-07
7.98076282803e-06
-9.8175807659e-07
7.67001369537e-06
-1.05813070991e-06
7.3397578818e-06
-1.13205091106e-06
6.99772514854e-06
-1.20326372434e-06
6.65017298226e-06
-1.27171065735e-06
6.30228546832e-06
-1.33754691943e-06
5.95849763472e-06
-1.40013275457e-06
5.62164311292e-06
-1.454235523e-06
5.28871931233e-06
-1.48298233021e-06
4.94250020161e-06
-1.45246081753e-06
4.54445476178e-06
-1.31874231078e-06
4.04096397201e-06
-1.05496436043e-06
3.3907680107e-06
-6.88714441858e-07
2.60297034366e-06
-3.17668904385e-07
1.75468300089e-06
-6.78711301653e-08
9.58461432423e-07
2.90516693672e-07
-1.03183865081e-08
1.30180959572e-06
-3.84009433478e-08
3.51598744172e-06
-8.01948314299e-08
5.22288748004e-06
-1.32376615276e-07
6.51130104133e-06
-1.92197532951e-07
7.45562705701e-06
-2.57371946803e-07
8.11819027355e-06
-3.26000001136e-07
8.55117155572e-06
-3.9650940098e-07
8.79821590038e-06
-4.67609978472e-07
8.89578093909e-06
-5.38256394532e-07
8.87426953606e-06
-6.07616172057e-07
8.75898311608e-06
-6.75041387295e-07
8.57092539446e-06
-7.40043121312e-07
8.32748082271e-06
-8.02268149252e-07
8.04298785576e-06
-8.61476805498e-07
7.7292223516e-06
-9.17521542743e-07
7.39580261905e-06
-9.70338851508e-07
7.05054245726e-06
-1.01999291028e-06
6.69982704103e-06
-1.06672526705e-06
6.34901782538e-06
-1.11047710263e-06
6.00224947027e-06
-1.14855525854e-06
5.6597212686e-06
-1.17056797225e-06
5.31073202615e-06
-1.1536274153e-06
4.92555964483e-06
-1.0661412602e-06
4.45696860645e-06
-8.86802657619e-07
3.86162536942e-06
-6.30974236343e-07
3.13493958944e-06
-3.59432534775e-07
2.33142864214e-06
-1.47594432078e-07
1.5428448982e-06
-3.2757467898e-08
8.43624468254e-07
2.57759225772e-07
-8.83849323939e-09
1.31064808897e-06
-3.27950774099e-08
3.53994402586e-06
-6.8228865504e-08
5.25832126812e-06
-1.12120198747e-07
6.5551923746e-06
-1.61993983942e-07
7.50550084222e-06
-2.15844018186e-07
8.17204030786e-06
-2.72063853376e-07
8.60739139094e-06
-3.29383115039e-07
8.85553516208e-06
-3.86810808705e-07
8.95320863276e-06
-4.43585657196e-07
8.93104438448e-06
-4.99133412232e-07
8.81453087124e-06
-5.53030740626e-07
8.62482272265e-06
-6.04975108178e-07
8.37942519049e-06
-6.54759739583e-07
8.09277248698e-06
-7.02252077658e-07
7.77671468965e-06
-7.47377992627e-07
7.44092853403e-06
-7.90131954287e-07
7.09329641887e-06
-8.30624693445e-07
6.74031978019e-06
-8.6894337504e-07
6.38733650724e-06
-9.03970729101e-07
6.0372768243e-06
-9.30067925079e-07
5.68581846438e-06
-9.32683908763e-07
5.31334800992e-06
-8.88562405761e-07
4.88143814197e-06
-7.77203501441e-07
4.34560970196e-06
-6.00654697116e-07
3.68507656509e-06
-3.9421035474e-07
2.92849524707e-06
-2.10343565852e-07
2.14756185327e-06
-8.43731614524e-08
1.4168744938e-06
-1.86645939942e-08
7.77915900803e-07
2.39094631777e-07
-7.19040534973e-09
1.31783849433e-06
-2.65688811509e-08
3.55932250163e-06
-5.53389244333e-08
5.2870913114e-06
-9.11880933318e-08
6.59104154351e-06
-1.32215091053e-07
7.54652783995e-06
-1.7686596694e-07
8.21669118379e-06
-2.23878021653e-07
8.65440344568e-06
-2.72231516974e-07
8.90388865743e-06
-3.21108903853e-07
9.00208601964e-06
-3.69860421318e-07
8.97979590188e-06
-4.1797529497e-07
8.86264574498e-06
-4.65057693641e-07
8.67190512115e-06
-5.10806655542e-07
8.42517415258e-06
-5.54998930039e-07
8.13696476133e-06
-5.97474011442e-07
7.81918977104e-06
-6.38128416864e-07
7.48158293945e-06
-6.76939099033e-07
7.132107101e-06
-7.13958553314e-07
6.77733923447e-06
-7.4884116004e-07
6.42221911418e-06
-7.78942172127e-07
6.06737783636e-06
-7.95761134949e-07
5.70263742704e-06
-7.82819359183e-07
5.30040623422e-06
-7.20966775387e-07
4.81958555828e-06
-6.02573371723e-07
4.22721629816e-06
-4.44194935316e-07
3.52669812868e-06
-2.82146331255e-07
2.76644664301e-06
-1.5025608462e-07
2.01567160666e-06
-6.1983797219e-08
1.3286022064e-06
-1.43156317208e-08
7.3024773531e-07
2.24779000055e-07
-6.62945867505e-09
1.32446795301e-06
-2.45091634896e-08
3.57720220643e-06
-5.10700048236e-08
5.31365215273e-06
-8.41898454348e-08
6.62416138413e-06
-1.22120815399e-07
7.58445880992e-06
-1.63429417354e-07
8.25799978579e-06
-2.06945938949e-07
8.6979199673e-06
-2.51721888532e-07
8.94866460703e-06
-2.96994254963e-07
9.04735838608e-06
-3.42155211267e-07
9.02495685813e-06
-3.86726469268e-07
8.90721700306e-06
-4.30337532917e-07
8.71551618466e-06
-4.72707175494e-07
8.46754379532e-06
-5.13627243804e-07
8.1778848295e-06
-5.52949746883e-07
7.8585122741e-06
-5.90588278357e-07
7.51922147093e-06
-6.26536998625e-07
7.16805582124e-06
-6.60740672532e-07
6.81154290838e-06
-6.92193272171e-07
6.45367171401e-06
-7.1651934333e-07
6.0917039075e-06
-7.23046160811e-07
5.70916424438e-06
-6.95675145895e-07
5.27303521936e-06
-6.21529311842e-07
4.74543972432e-06
-5.03307464398e-07
4.10899445061e-06
-3.63036141478e-07
3.38642680575e-06
-2.30197942068e-07
2.6336084436e-06
-1.24895306534e-07
1.91036897113e-06
-5.30123027553e-08
1.25671920263e-06
-1.26889341695e-08
6.89924366729e-07
2.12090065884e-07
-6.27924084618e-09
1.33074719386e-06
-2.32414254606e-08
3.59416439102e-06
-4.84227495482e-08
5.33883347682e-06
-7.97885694196e-08
6.65552720401e-06
-1.15666088348e-07
7.62033632886e-06
-1.54687324656e-07
8.29702102214e-06
-1.95740233861e-07
8.73897287652e-06
-2.37927021705e-07
8.9908513949e-06
-2.80528791974e-07
9.08996015635e-06
-3.22975522727e-07
9.06740358883e-06
-3.64820729757e-07
8.94906221017e-06
-4.0572010916e-07
8.75641556393e-06
-4.4541342889e-07
8.50723711521e-06
-4.83708981572e-07
8.21618038206e-06
-5.20473647002e-07
7.89527693952e-06
-5.55639568353e-07
7.55438739228e-06
-5.89192333868e-07
7.20160858672e-06
-6.20845334639e-07
6.84319590915e-06
-6.48709555189e-07
6.48153593474e-06
-6.66742246511e-07
6.1097365988e-06
-6.63167158756e-07
5.70558915649e-06
-6.2412574453e-07
5.23399380519e-06
-5.43285917607e-07
4.66459989749e-06
-4.2991871721e-07
3.99562725012e-06
-3.05980145628e-07
3.26248823416e-06
-1.93550500925e-07
2.5211787989e-06
-1.05262880184e-07
1.82208135041e-06
-4.46804943785e-08
1.19613681682e-06
-1.0629624023e-08
6.55873496376e-07
2.0146044186e-07
-5.87410377431e-09
1.33662129764e-06
-2.17428111522e-08
3.61003309838e-06
-4.53044648722e-08
5.36239513053e-06
-7.46589139599e-08
6.68488165311e-06
-1.08243910489e-07
7.65392132539e-06
-1.4478144589e-07
8.33355855758e-06
-1.83231882043e-07
8.77742331269e-06
-2.22755064021e-07
9.0303745769e-06
-2.62677418821e-07
9.12988251115e-06
-3.02464090572e-07
9.10719026054e-06
-3.41695460325e-07
8.98829357999e-06
-3.80047340164e-07
8.79476744364e-06
-4.17274109412e-07
8.5444638846e-06
-4.53194705092e-07
8.25210097762e-06
-4.8768652683e-07
7.92976876124e-06
-5.20690924262e-07
7.58739178971e-06
-5.52136196503e-07
7.23305385894e-06
-5.81368039414e-07
6.87242775206e-06
-6.05492230034e-07
6.50566012553e-06
-6.17131585577e-07
6.12137595432e-06
-6.04539469355e-07
5.69299704014e-06
-5.57153107029e-07
5.18660744292e-06
-4.74206832796e-07
4.58165362333e-06
-3.68250767003e-07
3.88967118424e-06
-2.58851180449e-07
3.15308864761e-06
-1.62456791749e-07
2.42478441021e-06
-8.77168652132e-08
1.74734142388e-06
-3.69117578851e-08
1.1453317095e-06
-8.67965943707e-09
6.27641397933e-07
1.92780782422e-07
-5.52492785952e-09
1.34214622551e-06
-2.04447904544e-08
3.62495296095e-06
-4.2600420365e-08
5.38455076044e-06
-7.02091777451e-08
6.7124904105e-06
-1.01804953937e-07
7.68551710159e-06
-1.36187824128e-07
8.3679414278e-06
-1.72381040356e-07
8.81361652894e-06
-2.09594707244e-07
9.06758824381e-06
-2.47195050763e-07
9.16748285467e-06
-2.84678408303e-07
9.14467361803e-06
-3.21649295183e-07
9.02526446694e-06
-3.57801855332e-07
8.83092000367e-06
-3.92904052773e-07
8.57956608218e-06
-4.26785416196e-07
8.28598234093e-06
-4.59334098147e-07
7.96231744318e-06
-4.90489791292e-07
7.61854748286e-06
-5.2006634084e-07
7.26263040846e-06
-5.46927018622e-07
6.89928842984e-06
-5.67174735194e-07
6.52590784226e-06
-5.72581845784e-07
6.12678306489e-06
-5.52340538857e-07
5.6727557331e-06
-4.99437493529e-07
5.13370439763e-06
-4.17197282754e-07
4.49941341262e-06
-3.19208875084e-07
3.7916827765e-06
-2.22149459575e-07
3.0560292321e-06
-1.38514586214e-07
2.34114953685e-06
-7.44681906394e-08
1.68329502832e-06
-3.12707415758e-08
1.10213426044e-06
-7.35649897295e-09
6.03727155331e-07
1.85424283449e-07
-5.24894399672e-09
1.34739516951e-06
-1.94228300659e-08
3.63912684701e-06
-4.0470535265e-08
5.40559846564e-06
-6.66985682023e-08
6.73871844345e-06
-9.67141880919e-08
7.71553272149e-06
-1.2937760889e-07
8.40060484864e-06
-1.63761115464e-07
8.84800003553e-06
-1.9911454808e-07
9.10294167645e-06
-2.34836066394e-07
9.20320437299e-06
-2.70447420573e-07
9.18028497217e-06
-3.05573093163e-07
9.06039013959e-06
-3.39922636509e-07
8.8652695469e-06
-3.7327575052e-07
8.61291919632e-06
-4.05471893302e-07
8.3181784836e-06
-4.36408214238e-07
7.9932537641e-06
-4.66004801437e-07
7.64814407006e-06
-4.93898055266e-07
7.29052366226e-06
-5.18389808598e-07
6.92378018317e-06
-5.34689413386e-07
6.5422074472e-06
-5.34235822535e-07
6.12632947402e-06
-5.07749253075e-07
5.64626916354e-06
-4.51493534632e-07
5.07744867923e-06
-3.71471461649e-07
4.4193913397e-06
-2.81043118294e-07
3.70125443308e-06
-1.9421482785e-07
2.96920094165e-06
-1.20657962605e-07
2.2675926716e-06
-6.48140816319e-08
1.62745114736e-06
-2.72573311091e-08
1.06457750992e-06
-6.43577857262e-09
5.82905602797e-07
1.78988504875e-07
-5.01329208199e-09
1.3524084616e-06
-1.85520451833e-08
3.65266560009e-06
-3.8656604936e-08
5.42570302539e-06
-6.37090730537e-08
6.76377091158e-06
-9.23789553265e-08
7.74420260377e-06
-1.23577441613e-07
8.43180333495e-06
-1.56418320475e-07
8.88084091441e-06
-1.9018500809e-07
9.13670836408e-06
-2.24302602317e-07
9.23732196722e-06
-2.58314261638e-07
9.21429663145e-06
-2.91861270846e-07
9.09393714886e-06
-3.24666149284e-07
8.89807442523e-06
-3.56518657274e-07
8.64477170443e-06
-3.87267212387e-07
8.34892703862e-06
-4.16813634169e-07
8.02280018587e-06
-4.45033811111e-07
7.67636424701e-06
-4.7132521221e-07
7.31681506334e-06
-4.93393974116e-07
6.94584894508e-06
-5.05742688943e-07
6.55455616217e-06
-4.99947709658e-07
6.12053449472e-06
-4.68550733397e-07
5.61487218718e-06
-4.10573168434e-07
5.0194711143e-06
-3.33583180943e-07
4.34240135226e-06
-2.50101510144e-07
3.61777276223e-06
-1.7186383793e-07
2.89096326943e-06
-1.06463367247e-07
2.20219220093e-06
-5.71313347401e-08
1.57811911485e-06
-2.40259159564e-08
1.03147209113e-06
-5.67421646513e-09
5.64553903308e-07
1.73314288409e-07
-4.80223616991e-09
1.35721069778e-06
-1.77713019243e-08
3.66563466583e-06
-3.70301261915e-08
5.44496184965e-06
-6.10290223157e-08
6.78776980771e-06
-8.84936053389e-08
7.7716671868e-06
-1.18380954256e-07
8.4616906839e-06
-1.49842165749e-07
8.91230212591e-06
-1.82190786751e-07
9.1690569851e-06
-2.14876047323e-07
9.27000722779e-06
-2.47460248827e-07
9.24688083291e-06
-2.79599666755e-07
9.12607656685e-06
-3.11028385441e-07
8.92950314382e-06
-3.41545326047e-07
8.67528864515e-06
-3.71006962304e-07
8.37838867478e-06
-3.9931306059e-07
8.05110628415e-06
-4.26266426819e-07
7.70331761324e-06
-4.50973489318e-07
7.34152212582e-06
-4.70556594345e-07
6.96543205011e-06
-4.79039912661e-07
6.56303948062e-06
-4.68513419229e-07
6.11000800127e-06
-4.33401626572e-07
5.57976039443e-06
-3.74899131575e-07
4.96096861934e-06
-3.01348350478e-07
4.26885057121e-06
-2.24194444243e-07
3.54061885594e-06
-1.53295058e-07
2.82006388319e-06
-9.4682117071e-08
2.14357926e-06
-5.07245726492e-08
1.53416157044e-06
-2.13090356913e-08
1.00205655418e-06
-5.02760468669e-09
5.48272472306e-07
1.68286683723e-07
-4.6136125199e-09
1.3618243103e-06
-1.70730634103e-08
3.6780941167e-06
-3.55752935866e-08
5.46346407983e-06
-5.86317169492e-08
6.81082623108e-06
-8.50181985575e-08
7.79805366841e-06
-1.13732920168e-07
8.49040540554e-06
-1.43960407839e-07
8.9425296136e-06
-1.75041215343e-07
9.20013779262e-06
-2.064462103e-07
9.30141222275e-06
-2.37754861506e-07
9.27818948408e-06
-2.68636888036e-07
9.15695859343e-06
-2.98836789171e-07
8.95970304485e-06
-3.28161936272e-07
8.70461379237e-06
-3.56475444646e-07
8.40670218306e-06
-3.83665708864e-07
8.07829654836e-06
-4.09431781643e-07
7.72908368602e-06
-4.3255171285e-07
7.364642057e-06
-4.49615712347e-07
6.98249604961e-06
-4.54405251934e-07
6.56782902034e-06
-4.39787597188e-07
6.09539034651e-06
-4.01973818184e-07
5.54194661534e-06
-3.43783420517e-07
4.9027782217e-06
-2.73806209664e-07
4.19887336041e-06
-2.02367176937e-07
3.46917982317e-06
-1.37780569198e-07
2.75547727544e-06
-8.4883459122e-08
2.09068214993e-06
-4.54121444852e-08
1.49469025581e-06
-1.90649283834e-08
9.75709338075e-07
-4.49722619377e-09
5.33704770118e-07
1.63789457529e-07
-4.44550923627e-09
1.36626981954e-06
-1.64509180275e-08
3.69009952548e-06
-3.42790062253e-08
5.48129216802e-06
-5.64955430267e-08
6.83304276789e-06
-8.19211022472e-08
7.82347922764e-06
-1.09590442925e-07
8.51807474625e-06
-1.3871785092e-07
8.97165702161e-06
-1.68667931502e-07
9.23008787322e-06
-1.98930832305e-07
9.33167512356e-06
-2.29101327361e-07
9.3083599791e-06
-2.58861131793e-07
9.18671839792e-06
-2.87964111531e-07
8.98880602449e-06
-3.16225373214e-07
8.73287505416e-06
-3.43512436118e-07
8.43398924588e-06
-3.69690617828e-07
8.10447473006e-06
-3.94325317888e-07
7.75371838608e-06
-4.15846273179e-07
7.38616301227e-06
-4.30392538235e-07
6.99704231466e-06
-4.31721269926e-07
6.56915775215e-06
-4.13634853692e-07
6.07730393026e-06
-3.73945695186e-07
5.50225745676e-06
-3.16631606162e-07
4.84546413271e-06
-2.50196277663e-07
4.13243803195e-06
-1.83890176521e-07
3.40287372199e-06
-1.24757173345e-07
2.69634427227e-06
-7.67051733266e-08
2.04263014991e-06
-4.09977484635e-08
1.45898283095e-06
-1.72072350382e-08
9.5191882465e-07
-4.05978672968e-09
5.2055732181e-07
1.59729670799e-07
-4.29430037875e-09
1.37056411993e-06
-1.58914057405e-08
3.70169663083e-06
-3.31132398747e-08
5.49851400215e-06
-5.45744034419e-08
6.85450393146e-06
-7.91356384307e-08
7.84804046263e-06
-1.05864568447e-07
8.54480367629e-06
-1.34002222602e-07
8.99979467577e-06
-1.629348228e-07
9.25902047343e-06
-1.92169849192e-07
9.36091014995e-06
-2.21315838021e-07
9.3375059679e-06
-2.50065302677e-07
9.21546786263e-06
-2.78180622688e-07
9.01692134441e-06
-3.05483904035e-07
8.76017833561e-06
-3.31843900291e-07
8.46034924204e-06
-3.57089325703e-07
8.12972015546e-06
-3.80625143265e-07
7.77725420364e-06
-4.0053056651e-07
7.4060684355e-06
-4.12592541175e-07
7.00910428933e-06
-4.10730505046e-07
6.56729571614e-06
-3.89752846458e-07
6.05632627166e-06
-3.48850365921e-07
5.46135497615e-06
-2.92784921771e-07
4.78939868859e-06
-2.29773190471e-07
4.06942630068e-06
-1.68074947512e-07
3.34117547899e-06
-1.13684501114e-07
2.64195382587e-06
-6.97788269019e-08
1.9987244757e-06
-3.72656840632e-08
1.42646968812e-06
-1.56366651426e-08
9.30289805731e-07
-3.68930680559e-09
5.08609963476e-07
1.56040363993e-07
-4.1569292303e-09
1.37472104916e-06
-1.53830746888e-08
3.71292277627e-06
-3.20540979667e-08
5.51518502543e-06
-5.2828966076e-08
6.87527879958e-06
-7.66049147925e-08
7.87181641135e-06
-1.02479425661e-07
8.57067818719e-06
-1.29717825274e-07
9.0270330754e-06
-1.57725975071e-07
9.28702862325e-06
-1.86027103015e-07
9.3892112779e-06
-2.14242248976e-07
9.36572111382e-06
-2.42073751801e-07
9.2432993655e-06
-2.69291815038e-07
9.04413940756e-06
-2.95724693713e-07
8.78661121439e-06
-3.21238216394e-07
8.48586276464e-06
-3.45609890357e-07
8.15409182941e-06
-3.68062428742e-07
7.79970674203e-06
-3.86338530938e-07
7.42434453767e-06
-3.95979717453e-07
7.01874547584e-06
-3.91216076132e-07
6.56253207493e-06
-3.67867550431e-07
6.03297774595e-06
-3.26275362546e-07
5.41976278819e-06
-2.71696263042e-07
4.73481958911e-06
-2.11946538618e-07
4.0096765763e-06
-1.5439166429e-07
3.28362060462e-06
-1.04155242368e-07
2.59171740394e-06
-6.38338344625e-08
1.95840306779e-06
-3.40649240035e-08
1.39670077766e-06
-1.42891111607e-08
9.1051399289e-07
-3.37104414609e-09
4.97691896463e-07
1.52669319847e-07
-4.03142545586e-09
1.37875247462e-06
-1.49186317987e-08
3.7238099826e-06
-3.10863845417e-08
5.53135277817e-06
-5.12341894991e-08
6.89542660454e-06
-7.429262632e-08
7.89487484818e-06
-9.93864572799e-08
8.59577201817e-06
-1.25803210021e-07
9.05344982815e-06
-1.52966691134e-07
9.31419210438e-06
-1.80414518383e-07
9.41665910515e-06
-2.07779157861e-07
9.39308575327e-06
-2.34771948941e-07
9.27029215663e-06
-2.61170319174e-07
9.07053777771e-06
-2.86807597222e-07
8.81224849253e-06
-3.11541558915e-07
8.51059672625e-06
-3.35083641441e-07
8.17763391193e-06
-3.5645867238e-07
7.82108177297e-06
-3.73100328408e-07
7.44098619368e-06
-3.8041047207e-07
7.02605561951e-06
-3.73039366245e-07
6.55516096921e-06
-3.47778768272e-07
6.00771714796e-06
-3.05905893311e-07
5.37788991317e-06
-2.52954664794e-07
4.68186836061e-06
-1.96284121951e-07
3.95300603349e-06
-1.42461989031e-07
3.22979847167e-06
-9.58862886438e-08
2.54514170356e-06
-5.86883654885e-08
1.92120514464e-06
-3.12980450462e-08
1.36931045722e-06
-1.31248816717e-08
8.92340829517e-07
-3.0961876293e-09
4.8766320242e-07
1.49573132216e-07
-3.91627946675e-09
1.38266875409e-06
-1.44925202469e-08
3.73438622337e-06
-3.01985311196e-08
5.54705878904e-06
-4.97710038088e-08
6.91499907724e-06
-7.21711035664e-08
7.91727494794e-06
-9.65486173928e-08
8.62014953202e-06
-1.22211439389e-07
9.07911265016e-06
-1.48599839295e-07
9.3405805043e-06
-1.75264637496e-07
9.44332390335e-06
-2.01848786573e-07
9.41966990231e-06
-2.28071913874e-07
9.29651528398e-06
-2.53718111873e-07
9.09618397562e-06
-2.7862440486e-07
8.83715478562e-06
-3.02634533628e-07
8.53460685494e-06
-3.25379544531e-07
8.20037892282e-06
-3.45677476035e-07
7.84137970447e-06
-3.60690632761e-07
7.45599935039e-06
-3.65779879865e-07
7.03114486661e-06
-3.56089524256e-07
6.5454706137e-06
-3.29314822344e-07
5.98094244604e-06
-2.87477252681e-07
5.33605234344e-06
-2.36227285135e-07
4.63061839309e-06
-1.82445771694e-07
3.89922452008e-06
-1.31993565731e-07
3.17934626567e-06
-8.86610971754e-08
2.501809235e-06
-5.4203486241e-08
1.88674753371e-06
-2.8889611673e-08
1.34399658266e-06
-1.21121788485e-08
8.75563396694e-07
-2.85719886301e-09
4.78408222435e-07
1.46715933353e-07
-3.81015435455e-09
1.38647890845e-06
-1.40997958604e-08
3.74467586486e-06
-2.93802395909e-08
5.56233923277e-06
-4.8422443079e-08
6.93404128074e-06
-7.02157550812e-08
7.93906825995e-06
-9.39330226067e-08
8.64386679957e-06
-1.18900908217e-07
9.10408053578e-06
-1.44574853753e-07
9.36625444985e-06
-1.70517847777e-07
9.46926689738e-06
-1.96382512284e-07
9.44553456679e-06
-2.21896146582e-07
9.32202891832e-06
-2.4684895416e-07
9.12113678312e-06
-2.71079927477e-07
8.86138575903e-06
-2.94412121066e-07
8.55793904846e-06
-3.16383125184e-07
8.22234992693e-06
-3.35602005863e-07
7.86059858515e-06
-3.49004111283e-07
7.46940145579e-06
-3.51996941749e-07
7.03413769708e-06
-3.40262205105e-07
6.53373587716e-06
-3.12314610091e-07
5.95299485101e-06
-2.70754094965e-07
5.29449182826e-06
-2.21231380778e-07
4.58109567892e-06
-1.70150582646e-07
3.84814372197e-06
-1.2274843525e-07
3.13194411825e-06
-8.23040365856e-08
2.46136483634e-06
-5.02658419813e-08
1.8547093391e-06
-2.6777266109e-08
1.32050800679e-06
-1.12243066946e-08
8.6001043728e-07
-2.64765990694e-09
4.69831575647e-07
1.44068273445e-07
-3.71191670155e-09
1.39019082516e-06
-1.37362588638e-08
3.75470020701e-06
-2.8622759636e-08
5.57722573354e-06
-4.71740927233e-08
6.95259261383e-06
-6.84056928341e-08
7.96029986006e-06
-9.15117511418e-08
8.6669728579e-06
-1.15836302695e-07
9.12840508735e-06
-1.4084883328e-07
9.39126698045e-06
-1.66123595505e-07
9.49454165961e-06
-1.91322168589e-07
9.47073313985e-06
-2.16178985845e-07
9.34688573562e-06
-2.40489776901e-07
9.1454475741e-06
-2.64093402906e-07
8.88498938512e-06
-2.86785142893e-07
8.58063078837e-06
-3.07997896581e-07
8.24356268061e-06
-3.26135838792e-07
7.87873652737e-06
-3.37955410148e-07
7.48122102713e-06
-3.38985306586e-07
7.03516759352e-06
-3.2546323459e-07
6.52021380526e-06
-2.96632788254e-07
5.92416440467e-06
-2.55532269729e-07
5.25339130968e-06
-2.07730147492e-07
4.5332935567e-06
-1.59168788778e-07
3.79958236329e-06
-1.1453473482e-07
3.08731006427e-06
-7.66746462232e-08
2.42350474774e-06
-4.6785248728e-08
1.8248199416e-06
-2.49116936791e-08
1.29863445174e-06
-1.04403645517e-08
8.45539108152e-07
-2.46263425689e-09
4.61853845353e-07
1.41605639188e-07
-3.62063891404e-09
1.39381146408e-06
-1.33984758222e-08
3.76447804391e-06
-2.79189379683e-08
5.59174619568e-06
-4.6014166337e-08
6.97068784221e-06
-6.67238314382e-08
7.98100952517e-06
-8.92619551122e-08
8.6895109816e-06
-1.12988713416e-07
9.15213184566e-06
-1.37386640802e-07
9.41566490785e-06
-1.62040456462e-07
9.51919547527e-06
-1.86620070928e-07
9.49531275428e-06
-2.1086657156e-07
9.37113223629e-06
-2.34580564153e-07
9.16916156661e-06
-2.57598308806e-07
8.90800712986e-06
-2.79680034854e-07
8.60271251435e-06
-3.00144960875e-07
8.26402760663e-06
-3.17201950952e-07
7.89579351744e-06
-3.27477547055e-07
7.49149662321e-06
-3.26682514688e-07
7.03437256115e-06
-3.1160996688e-07
6.50514125754e-06
-2.82141536607e-07
5.89469597439e-06
-2.41637508723e-07
5.21288728174e-06
-1.95527033884e-07
4.48718308188e-06
-1.49313486597e-07
3.75336881602e-06
-1.07198507344e-07
3.04519508499e-06
-7.16612903018e-08
2.3879675307e-06
-4.3690585782e-08
1.79684923708e-06
-2.32542875864e-08
1.27819815355e-06
-9.74410268792e-09
8.32028923255e-07
-2.29830904611e-09
4.5440805171e-07
1.39307330141e-07
-3.53554579923e-09
1.39734700988e-06
-1.30835793241e-08
3.77402607742e-06
-2.7262800998e-08
5.60592541736e-06
-4.49328204923e-08
6.98835786171e-06
-6.51558999502e-08
8.00123260463e-06
-8.71645469055e-08
8.71151962858e-06
-1.10333984018e-07
9.17530128279e-06
-1.34158909919e-07
9.43948983376e-06
-1.58233802097e-07
9.54327036745e-06
-1.82236348436e-07
9.5193153006e-06
-2.05913850747e-07
9.39480973865e-06
-2.29071047643e-07
9.19231876343e-06
-2.5153878395e-07
8.93047486626e-06
-2.73035035053e-07
8.62420876538e-06
-2.9275883953e-07
8.2837514111e-06
-3.08737884945e-07
7.91177256286e-06
-3.17516656235e-07
7.50027539449e-06
-3.15035568347e-07
7.03189147326e-06
-2.98628334449e-07
6.48873402373e-06
-2.68727483743e-07
5.86479512367e-06
-2.28919869718e-07
5.17307966767e-06
-1.84457233321e-07
4.4427204455e-06
-1.40430734851e-07
3.70934231758e-06
-1.00614393602e-07
3.00537874372e-06
-6.71737012845e-08
2.35452683838e-06
-4.09245596447e-08
1.77060009545e-06
-2.17739750596e-08
1.25904756897e-06
-9.12241683198e-09
8.19377365026e-07
-2.15159279173e-09
4.47437227673e-07
1.37155737349e-07
-3.45597467027e-09
1.40080298455e-06
-1.2789117435e-08
3.78335922018e-06
-2.66492405463e-08
5.61978554047e-06
-4.39216381143e-08
7.00563025928e-06
-6.3689696112e-08
8.02100066263e-06
-8.52032070477e-08
8.73303313954e-06
-1.07851463081e-07
9.19794953883e-06
-1.31140537327e-07
9.46277890802e-06
-1.54674033697e-07
9.56680386382e-06
-1.78136924433e-07
9.5427781913e-06
-2.012823109e-07
9.41795512516e-06
-2.23918206433e-07
9.21495465889e-06
-2.45866928053e-07
8.95242358796e-06
-2.66797302638e-07
8.6451391399e-06
-2.85784277001e-07
8.30273838545e-06
-3.00692033653e-07
7.92668031951e-06
-3.08028096916e-07
7.50761145774e-06
-3.03997849576e-07
7.02786122592e-06
-2.86450790414e-07
6.47118696465e-06
-2.56289249501e-07
5.83463358275e-06
-2.17249274948e-07
5.13403969307e-06
-1.74381143166e-07
4.39985231373e-06
-1.32392200069e-07
3.6673533745e-06
-9.46789024717e-08
2.9676654461e-06
-6.31377494585e-08
2.32298568536e-06
-3.84402141054e-08
1.7459025601e-06
-2.04452824353e-08
1.2410526373e-06
-8.56454606252e-09
8.07496628651e-07
-2.01994044911e-09
4.40892622061e-07
1.351357969e-07
-3.38135643761e-09
1.40418434099e-06
-1.25129840689e-08
3.7924908478e-06
-2.60738687618e-08
5.63334642516e-06
-4.29733890533e-08
7.02252977958e-06
-6.23147385173e-08
8.0403420121e-06
-8.33639178784e-08
8.75408231892e-06
-1.05523412502e-07
9.22010903346e-06
-1.28309961771e-07
9.4855654573e-06
-1.5133572994e-07
9.58982963199e-06
-1.74292531961e-07
9.5657349933e-06
-1.96938864009e-07
9.44060145724e-06
-2.19085026723e-07
9.23710082153e-06
-2.40541460198e-07
8.97388002152e-06
-2.60921469602e-07
8.66551914923e-06
-2.7917454984e-07
8.32099146568e-06
-2.93021582767e-07
7.94052735244e-06
-2.98974405578e-07
7.51356428053e-06
-2.93527809674e-07
7.02241463002e-06
-2.75015667089e-07
6.45267482215e-06
-2.44736258357e-07
5.80435417401e-06
-2.0651268887e-07
5.09581612354e-06
-1.65180014949e-07
4.35851963982e-06
-1.25090274433e-07
3.62726363401e-06
-8.93060288422e-08
2.93188120049e-06
-5.94921482897e-08
2.29317180481e-06
-3.61988355706e-08
1.72260924738e-06
-1.92472388049e-08
1.22410104053e-06
-8.06164122815e-09
7.96311031077e-07
-1.90126210203e-09
4.34732242935e-07
1.33234534799e-07
-3.31120133964e-09
1.40749554234e-06
-1.22533668129e-08
3.80143301326e-06
-2.55329095843e-08
5.64662596793e-06
-4.20818510388e-08
7.03907872104e-06
-6.1022006469e-08
8.05928216753e-06
-8.16346146721e-08
8.77469492714e-06
-1.03334564644e-07
9.24180898344e-06
-1.25648623959e-07
9.50787951663e-06
-1.48197007854e-07
9.61237801589e-06
-1.70677974996e-07
9.58821596041e-06
-1.92855008315e-07
9.4627784906e-06
-2.1453957138e-07
9.25878538453e-06
-2.35526713986e-07
8.9948671642e-06
-2.55368542975e-07
8.68536097816e-06
-2.72890152886e-07
8.33851307559e-06
-2.85690928289e-07
7.95332812784e-06
-2.90323818083e-07
7.51819717031e-06
-2.83588111999e-07
7.01567892393e-06
-2.64266718978e-07
6.43335342921e-06
-2.3398769297e-07
5.77407514799e-06
-1.96611760323e-07
5.05844019085e-06
-1.56752486788e-07
4.3186603663e-06
-1.18434287151e-07
3.58894543439e-06
-8.44238989776e-08
2.8978708123e-06
-5.61859375801e-08
2.26493384341e-06
-3.41683295502e-08
1.70059163935e-06
-1.8162490217e-08
1.2080952012e-06
-7.60638789076e-09
7.85754928751e-07
-1.79383179555e-09
4.28919686841e-07
1.31440703004e-07
-3.24508513156e-09
1.41074062747e-06
-1.20086957959e-08
3.81019662392e-06
-2.50230922625e-08
5.65964036439e-06
-4.12416343393e-08
7.05529726312e-06
-5.9803686004e-08
8.0778442192e-06
-8.00048462832e-08
8.79489608744e-06
-1.01271693315e-07
9.26307583049e-06
-1.23140445576e-07
9.5297482689e-06
-1.45238909072e-07
9.63447647938e-06
-1.67271422032e-07
9.61024847335e-06
-1.89006030802e-07
9.48451309941e-06
-2.10254099768e-07
9.28003345342e-06
-2.30791688972e-07
9.01540475349e-06
-2.50104861589e-07
8.70467415071e-06
-2.66897558012e-07
8.355305772e-06
-2.78670240713e-07
7.96510081055e-06
-2.82048986364e-07
7.52157591595e-06
-2.74144850384e-07
7.00777478795e-06
-2.54152553373e-07
6.41336113227e-06
-2.23971353019e-07
5.74389394763e-06
-1.87460645914e-07
5.0219294837e-06
-1.49011612064e-07
4.28021133247e-06
-1.12347366365e-07
3.55228118871e-06
-7.99720269031e-08
2.86549547282e-06
-5.31764209913e-08