/*--------------------------------*- C++ -*----------------------------------*\
| =========                 |                                                 |
| \\      /  F ield         | OpenFOAM: The Open Source CFD Toolbox           |
|  \\    /   O peration     | Version:  2206                                  |
|   \\  /    A nd           | Website:  www.openfoam.com                      |
|    \\/     M anipulation  |                                                 |
\*---------------------------------------------------------------------------*/
FoamFile
{
    version     2.0;
    format      ascii;
    arch        "LSB;label=32;scalar=64";
    class       volVectorField;
    location    "700";
    object      U;
}
// * * * * * * * * * * * * * * * * * * * * * * * * * * * * * * * * * * * * * //

dimensions      [0 1 -1 0 0 0 0];

internalField   nonuniform List<vector> 
3000
(
(1.00514458058 -0.000744522705849 -2.80602571592e-13)
(1.00519974501 -0.00170310632629 -9.68405490035e-14)
(1.00531043585 -0.00269826283399 -6.29866637769e-14)
(1.00546243557 -0.00365899422544 -4.75696753619e-14)
(1.00564683019 -0.00457985139382 -3.88041761645e-14)
(1.00585649185 -0.00546342722149 -3.40752446657e-14)
(1.00608551792 -0.00631206599348 -2.97697611647e-14)
(1.00632890799 -0.00712708042257 -2.73410741261e-14)
(1.00658237121 -0.0079089914683 -2.52794585472e-14)
(1.00684220526 -0.00865780863814 -2.40911331973e-14)
(1.00710521504 -0.00937326445994 -2.29163982445e-14)
(1.00736865455 -0.0100549961296 -2.13509565117e-14)
(1.00763018162 -0.010702677785 -2.2309454522e-14)
(1.00788782059 -0.011316111306 -1.77950008394e-14)
(1.00813993925 -0.0118952842332 -2.09833625336e-14)
(1.00838525053 -0.0124404027859 -1.90671153543e-14)
(1.00862271865 -0.0129519031656 -2.03833808839e-14)
(1.00885085624 -0.0134304281663 -2.3720893561e-14)
(1.00906629155 -0.0138767537746 -2.29060658634e-14)
(1.00926649507 -0.0142918094358 -1.13390308739e-14)
(1.00947305484 -0.0146774029245 -1.56307067095e-14)
(1.0097901034 -0.0150381337862 -2.52224659715e-14)
(1.01043763909 -0.0153812308444 -1.5548378245e-14)
(1.01149155889 -0.0157035996817 -7.74344324691e-15)
(1.01178906063 -0.0159580706889 -2.50492143504e-14)
(1.00640478836 -0.0160112342508 -2.2284636106e-14)
(0.982512281327 -0.0155819836085 -2.18016091049e-14)
(0.91370681667 -0.0140618328098 -1.41632856158e-14)
(0.75065883322 -0.0103476457079 -8.03012553755e-15)
(0.396854543207 -0.00366081918168 -1.0327121061e-14)
(1.02739406077 -0.00057246017306 -7.25497197723e-13)
(1.02756270324 -0.00131409350835 -2.66894563864e-13)
(1.027903575 -0.00205341167996 -1.72459741352e-13)
(1.02836903452 -0.002744382834 -1.26344500125e-13)
(1.02892964844 -0.00337624342105 -1.03177663119e-13)
(1.02956199524 -0.00395211505774 -8.46949468843e-14)
(1.03024694395 -0.00447567655521 -7.74551605948e-14)
(1.0309686355 -0.00495116960119 -7.18350295652e-14)
(1.03171385078 -0.0053831202131 -6.49287851842e-14)
(1.03247156688 -0.00577607826667 -5.77120863769e-14)
(1.03323262074 -0.00613446712539 -5.97379411973e-14)
(1.03398944227 -0.00646248523441 -4.76856849753e-14)
(1.03473583497 -0.00676403766898 -5.83233135611e-14)
(1.03546679823 -0.00704269039573 -3.96938517922e-14)
(1.03617839762 -0.00730164324385 -4.96996039021e-14)
(1.03686756915 -0.00754371771759 -4.56379197314e-14)
(1.03753131983 -0.00777134927901 -4.78938827576e-14)
(1.03816530668 -0.00798657315416 -5.4409311718e-14)
(1.03876818296 -0.00819106359753 -5.62071119178e-14)
(1.03937125704 -0.00838650173759 -2.8734166594e-14)
(1.04009628061 -0.00857557356484 -3.57802053039e-14)
(1.04109861044 -0.00876193594228 -5.43776408213e-14)
(1.04192554748 -0.00894100791088 -3.82545565296e-14)
(1.03959084349 -0.0090689365728 -2.5707282214e-14)
(1.0252489452 -0.00901810451989 -5.2319470248e-14)
(0.981179745672 -0.00856999173924 -4.79445981609e-14)
(0.881876216537 -0.00747530909848 -4.15935486439e-14)
(0.703343563578 -0.00554013740506 -2.68908460642e-14)
(0.44225735083 -0.00283907212677 -1.33203470688e-14)
(0.139647664065 -0.000247218215821 -7.52769474971e-15)
(1.04476400268 -0.000294306558231 -9.38442952007e-13)
(1.04492110378 -0.000684130957274 -3.68065316464e-13)
(1.04523857595 -0.0010650651712 -2.33416857971e-13)
(1.04567053242 -0.00143628829792 -1.68824313296e-13)
(1.04618902529 -0.00178623612457 -1.39927431649e-13)
(1.04677177085 -0.0021184548341 -1.22334255577e-13)
(1.04740072934 -0.00243415965447 -1.05123410247e-13)
(1.04806109901 -0.00273466732126 -9.77386872189e-14)
(1.04874071359 -0.00302110836369 -9.16874765445e-14)
(1.04942959267 -0.00329435380027 -7.86196223314e-14)
(1.05011958534 -0.00355505142968 -8.00882515048e-14)
(1.05080408081 -0.00380366534236 -6.62991657874e-14)
(1.05147777054 -0.00404051685212 -7.62669581618e-14)
(1.05213646605 -0.0042658254338 -5.68730494174e-14)
(1.0527769469 -0.00447974695329 -6.6348227951e-14)
(1.05339650114 -0.00468240264021 -6.21520699588e-14)
(1.05399160581 -0.00487388663804 -6.56804308765e-14)
(1.05455897287 -0.00505429655728 -7.48093214558e-14)
(1.05511477092 -0.0052240070768 -7.02891144114e-14)
(1.05574408032 -0.00538429301625 -4.44733278197e-14)
(1.05657215969 -0.00553679178515 -5.20241399728e-14)
(1.05722131333 -0.00567651101584 -6.71961837562e-14)
(1.05505233123 -0.00577094249664 -5.21486202262e-14)
(1.04213219955 -0.00572874502248 -4.53558695117e-14)
(1.00295313074 -0.00539161318271 -6.35375851663e-14)
(0.916976611813 -0.0045988670591 -5.75122370676e-14)
(0.768905690321 -0.00332334123869 -4.54174077119e-14)
(0.563372890361 -0.00180155812042 -3.00279363553e-14)
(0.330956354885 -0.000545069416748 -1.50392056288e-14)
(0.107742004256 -3.94265940273e-06 -4.94379719428e-15)
(1.052706044 -0.000287045120493 -1.06465398159e-12)
(1.05284838597 -0.000671771084622 -4.54878705708e-13)
(1.05313558708 -0.00104710943031 -2.85437000857e-13)
(1.05352718419 -0.0014109454731 -2.002765458e-13)
(1.05399883747 -0.00174633276909 -1.69942345964e-13)
(1.05453096837 -0.00205805722979 -1.45866224975e-13)
(1.05510768825 -0.00234652807097 -1.27685366945e-13)
(1.05571581067 -0.00261295345698 -1.16926869166e-13)
(1.05634434607 -0.00285848721745 -1.08600855956e-13)
(1.05698412666 -0.0030842385871 -9.6088836504e-14)
(1.05762752059 -0.00329131049067 -9.54845619086e-14)
(1.05826820676 -0.00348080312334 -8.11645101733e-14)
(1.0589009971 -0.00365381431118 -8.89784538491e-14)
(1.05952170789 -0.00381143659005 -6.79126565277e-14)
(1.06012695669 -0.00395475086475 -7.94305732713e-14)
(1.06071338033 -0.00408481123589 -7.65964937191e-14)
(1.06127697415 -0.00420262198935 -8.08512420906e-14)
(1.06182154534 -0.00430921560705 -8.75302314887e-14)
(1.06239246619 -0.0044060592358 -7.90938093994e-14)
(1.06308597078 -0.00449517956761 -5.78461776879e-14)
(1.06372622706 -0.00457534744067 -6.55007748735e-14)
(1.06257812057 -0.00462799231257 -7.53318741155e-14)
(1.05381285493 -0.00459360776893 -6.28063592535e-14)
(1.02522459939 -0.00436151931841 -5.92056242932e-14)
(0.95979140463 -0.00381145914844 -6.82924767893e-14)
(0.843738488541 -0.00291404137813 -5.97834049248e-14)
(0.677905350848 -0.00182301094145 -4.53026985616e-14)
(0.481936368159 -0.000847836763136 -3.05031184929e-14)
(0.282001679737 -0.000250609889819 -1.6419150913e-14)
(0.0922358211497 -1.51502860062e-05 -5.4352385169e-15)
(1.05842793217 -0.000243669755087 -1.1612037544e-12)
(1.05857363262 -0.000574950795902 -5.29193858166e-13)
(1.05886701535 -0.000893351361522 -3.29362042363e-13)
(1.0592670067 -0.00120030734964 -2.32101678608e-13)
(1.05974834717 -0.00147775754178 -1.95268125081e-13)
(1.06029068252 -0.00173282579774 -1.67389310603e-13)
(1.06087756024 -0.00196565402908 -1.46439737162e-13)
(1.06149533857 -0.00217814672692 -1.33575907122e-13)
(1.06213269199 -0.00237199414642 -1.23065618354e-13)
(1.06278021727 -0.0025488089693 -1.10454493282e-13)
(1.06343013431 -0.00271011452955 -1.07722765591e-13)
(1.06407604833 -0.00285732093665 -9.28315855556e-14)
(1.06471276434 -0.00299172143733 -9.93313634154e-14)
(1.06533613177 -0.00311449424513 -8.10314145149e-14)
(1.06594267414 -0.00322670565126 -8.9329646481e-14)
(1.06652871191 -0.00332930864232 -8.87929344745e-14)
(1.06709231275 -0.0034231637993 -9.32945516724e-14)
(1.06765084316 -0.0035092260093 -9.66024761219e-14)
(1.06826696459 -0.00358886255071 -8.61490698626e-14)
(1.06891761719 -0.00366254602561 -6.86508923227e-14)
(1.06871748736 -0.00372201325799 -7.47073604226e-14)
(1.06399936838 -0.00373281150061 -8.15394690419e-14)
(1.04595354646 -0.00361963221838 -7.11004543374e-14)
(1.00063377935 -0.00328533931336 -6.77041257376e-14)
(0.914301203835 -0.00268030981528 -6.99405791996e-14)
(0.782707132868 -0.00187993044494 -5.94307227419e-14)
(0.616615355128 -0.00108180844252 -4.45011604239e-14)
(0.435827272026 -0.000482599416164 -3.02686824167e-14)
(0.256146575609 -0.000143785645412 -1.68552228525e-14)
(0.0842632978183 -6.14198594945e-06 -5.52524805874e-15)
(1.06474587045 -0.000197206062118 -1.21821543635e-12)
(1.0648900113 -0.00046761153762 -5.89582412069e-13)
(1.06518000965 -0.000724234606052 -3.59827892625e-13)
(1.06557530173 -0.000975919693247 -2.57890604648e-13)
(1.0660507534 -0.00120431857199 -2.15727004934e-13)
(1.06658619147 -0.00141751724505 -1.85169549191e-13)
(1.06716536659 -0.00161431554011 -1.61628221149e-13)
(1.06777481165 -0.00179634200797 -1.47194059101e-13)
(1.06840337834 -0.00196465636813 -1.34853304492e-13)
(1.06904183038 -0.00212029431117 -1.22169820478e-13)
(1.06968254134 -0.00226422502428 -1.17613100597e-13)
(1.0703192552 -0.00239734024845 -1.0349379487e-13)
(1.07094690116 -0.00252046214573 -1.06143402467e-13)
(1.07156139638 -0.0026343484002 -9.11570842982e-14)
(1.07215912856 -0.00273969374136 -9.83036667541e-14)
(1.0727366204 -0.0028371308241 -9.90980606365e-14)
(1.07329674691 -0.00292729259093 -1.02619872459e-13)
(1.07387011591 -0.00301103783179 -1.04492285526e-13)
(1.07449074476 -0.00308925657031 -9.26285194092e-14)
(1.07482349861 -0.00315932899508 -7.84678670642e-14)
(1.07290785823 -0.00320389835869 -8.25232476628e-14)
(1.06302274992 -0.003175433811 -8.67950851124e-14)
(1.03444213754 -0.00299767760182 -7.74555158535e-14)
(0.974077450575 -0.0026071590042 -7.33175915699e-14)
(0.873599807545 -0.00201914458691 -7.03118690033e-14)
(0.736132456891 -0.00135306342024 -5.81853349255e-14)
(0.57531950155 -0.000766747222509 -4.42294771632e-14)
(0.406517900378 -0.000351735282874 -3.01095622273e-14)
(0.239620384322 -0.000110220489703 -1.69347637376e-14)
(0.0791579676495 -6.39204509509e-06 -5.52780227589e-15)
(1.07071292256 -0.000182250438464 -1.25535664412e-12)
(1.07085484383 -0.000431555340987 -6.42532251701e-13)
(1.07113989367 -0.000667199481967 -3.84694910241e-13)
(1.07152853847 -0.000900166327074 -2.80709717631e-13)
(1.07199622013 -0.0011111064142 -2.33767919336e-13)
(1.07252324909 -0.00130880200108 -2.00679826467e-13)
(1.07309374679 -0.00149118144686 -1.75067237283e-13)
(1.07369451147 -0.00166007350554 -1.59261347201e-13)
(1.07431459676 -0.00181629591101 -1.45619558811e-13)
(1.07494490655 -0.00196077469804 -1.32542796784e-13)
(1.0755779079 -0.00209437627601 -1.26374191839e-13)
(1.07620740391 -0.00221790707555 -1.12773525221e-13)
(1.07682835342 -0.00233212069994 -1.12915405991e-13)
(1.07743661617 -0.0024377182913 -1.0000870166e-13)
(1.07802841478 -0.00253534619707 -1.05877614337e-13)
(1.07860139774 -0.00262560649626 -1.07466677328e-13)
(1.07916521946 -0.00270916385835 -1.10254755962e-13)
(1.07975232065 -0.00278688399496 -1.0964817491e-13)
(1.08028714196 -0.00285868032182 -9.88128797855e-14)
(1.07990280935 -0.00291748845903 -8.66430527806e-14)
(1.07532795854 -0.00293664917416 -9.02034365873e-14)
(1.05907252174 -0.00286134397476 -9.16587613134e-14)
(1.01982625489 -0.00262655615787 -8.20843317635e-14)
(0.947049668146 -0.0022067257497 -7.60816501501e-14)
(0.837663443022 -0.00165786847225 -7.02128881536e-14)
(0.698859263437 -0.00109803147606 -5.75027480012e-14)
(0.543610121468 -0.000631530373636 -4.33440980168e-14)
(0.383543974246 -0.000298897182462 -2.96734869219e-14)
(0.225958048592 -9.73167070343e-05 -1.67632125148e-14)
(0.0746015594962 -6.42882416368e-06 -5.46301629591e-15)
(1.0759495957 -0.000172815124873 -1.28217149233e-12)
(1.07609154283 -0.000409230254024 -6.91104903401e-13)
(1.07637607789 -0.000632417164103 -4.1158387118e-13)
(1.07676404591 -0.000853539046272 -3.01895282657e-13)
(1.07723094885 -0.00105266864616 -2.50517663005e-13)
(1.07775715958 -0.00123936847572 -2.14977294932e-13)
(1.07832683755 -0.00141100125131 -1.87551094572e-13)
(1.0789268015 -0.00156974451578 -1.70402460654e-13)
(1.07954612472 -0.00171627792775 -1.54473291058e-13)
(1.08017572077 -0.00185155915469 -1.42081699682e-13)
(1.08080806296 -0.00197644552196 -1.34636244259e-13)
(1.08143695949 -0.00209173237711 -1.23024055219e-13)
(1.08205736043 -0.00219815859197 -1.21190391064e-13)
(1.08266503649 -0.00229640585832 -1.08140697986e-13)
(1.08325627903 -0.00238709916819 -1.14291051833e-13)
(1.08383110622 -0.002470838059 -1.1489477407e-13)
(1.08440513937 -0.00254832474026 -1.17043023957e-13)
(1.08498564707 -0.00262021687426 -1.15191950632e-13)
(1.08527786607 -0.0026846533637 -1.04627225047e-13)
(1.08368408201 -0.00272918732143 -9.28955090877e-14)
(1.07557588234 -0.00271949627428 -9.60804359588e-14)
(1.05226247892 -0.00260041821878 -9.60182842635e-14)
(1.0030277588 -0.0023255049456 -8.59203558834e-14)
(0.920532521529 -0.00190125973869 -7.91061536448e-14)
(0.805715401379 -0.0014008039246 -7.10221389693e-14)
(0.667405337099 -0.000922221589648 -5.75321644318e-14)
(0.517039737871 -0.000532042517207 -4.22808000229e-14)
(0.363942451799 -0.000252202104037 -2.90965911056e-14)
(0.214073394778 -8.16355607318e-05 -1.66712177284e-14)
(0.0705802105691 -5.05295322192e-06 -5.7585940364e-15)
(1.08077082177 -0.000161520070645 -1.30018466065e-12)
(1.08091303875 -0.00038293829345 -7.35672081863e-13)
(1.08119769438 -0.000591560428662 -4.38844531396e-13)
(1.08158584968 -0.000798922486123 -3.21634094664e-13)
(1.08205295842 -0.000985052278861 -2.66088115532e-13)
(1.08257939122 -0.00116007817348 -2.2819942486e-13)
(1.0831492993 -0.00132079405183 -1.99174013054e-13)
(1.0837494943 -0.00146961868984 -1.80643417805e-13)
(1.08436904917 -0.00160700821722 -1.62118361856e-13)
(1.08499887515 -0.00173390324043 -1.50866255927e-13)
(1.08563144595 -0.00185108624248 -1.4237607627e-13)
(1.08626057095 -0.00195929304167 -1.33239820308e-13)
(1.08688117848 -0.00205920741242 -1.28035468621e-13)
(1.08748896767 -0.00215145969617 -1.15773335205e-13)
(1.08808071306 -0.00223663249288 -1.19991707009e-13)
(1.08865966786 -0.00231531343974 -1.21711869094e-13)
(1.08924129872 -0.0023881831304 -1.23290257434e-13)
(1.08976396495 -0.00245534946858 -1.20926956308e-13)
(1.08959270367 -0.00251240644245 -1.10210199323e-13)
(1.08626641026 -0.00254136399774 -9.9111781732e-14)
(1.07394344601 -0.00250317398183 -1.00950655842e-13)
(1.04340610336 -0.00234834677126 -9.97503702613e-14)
(0.985335440724 -0.00205100011358 -8.90867692879e-14)
(0.895494603522 -0.00163977449014 -8.12545067051e-14)
(0.777491121506 -0.00118932739966 -7.1784194483e-14)
(0.640506713651 -0.000776110101945 -5.73115985247e-14)
(0.494566264432 -0.000444649990855 -4.23625167908e-14)
(0.347484548361 -0.000208916842263 -2.89981887259e-14)
(0.204215963964 -6.67801124318e-05 -1.66586041669e-14)
(0.0673095562972 -3.93540356006e-06 -5.7515987634e-15)
(1.08536311763 -0.00015184743136 -1.31085503246e-12)
(1.08550530659 -0.000360188204624 -7.76499199397e-13)
(1.08578956064 -0.000556089813105 -4.5928807887e-13)
(1.08617719744 -0.000751384652527 -3.40021720723e-13)
(1.08664368991 -0.000926257279552 -2.80601196146e-13)
(1.0871694646 -0.00109116967707 -2.40478292534e-13)
(1.08773870306 -0.00124242817073 -2.10019566612e-13)
(1.08833823972 -0.00138267436946 -1.90178640429e-13)
(1.08895716635 -0.00151215164303 -1.70810610278e-13)
(1.08958640505 -0.00163180493404 -1.59026337875e-13)
(1.09021843814 -0.00174234554002 -1.49731975871e-13)
(1.09084707756 -0.00184446312743 -1.37793377693e-13)
(1.09146722165 -0.00193879639164 -1.34290212358e-13)
(1.09207457466 -0.00202593414776 -1.22842525799e-13)
(1.09266690034 -0.00210642923237 -1.26107654316e-13)
(1.09325036143 -0.00218086468725 -1.28021558703e-13)
(1.0938271972 -0.0022498109763 -1.28870058489e-13)
(1.09420967153 -0.00231243823225 -1.25312710755e-13)
(1.09331022287 -0.00236124613905 -1.15438969825e-13)
(1.08775878108 -0.00237331791228 -1.05039962551e-13)
(1.07077596954 -0.00230819196857 -1.06324418751e-13)
(1.0332360466 -0.00212586924984 -1.03007289764e-13)
(0.967619595027 -0.00181901971675 -9.13735658736e-14)
(0.872325614672 -0.00142880036073 -8.19321424285e-14)
(0.752577785013 -0.00102383159175 -7.14035375812e-14)
(0.617350824431 -0.000663074372962 -5.69658903646e-14)
(0.475497682442 -0.000377930538269 -4.22722574825e-14)
(0.333679766691 -0.000177047013311 -2.88368093091e-14)
(0.196025373236 -5.6601306722e-05 -1.64020335473e-14)
(0.0646125682336 -3.40196073099e-06 -5.32047169885e-15)
(1.08973490107 -0.000144277493271 -1.316232846e-12)
(1.08987707442 -0.000342259246359 -8.14225817487e-13)
(1.09016096895 -0.000528181733513 -4.8341171413e-13)
(1.09054813091 -0.000713899651299 -3.57358061952e-13)
(1.0910140586 -0.000879837416122 -2.94239842376e-13)
(1.09153923411 -0.00103664415628 -2.519869936e-13)
(1.09210786479 -0.00118025808402 -2.20221656236e-13)
(1.09270680681 -0.00131353415283 -1.99078926081e-13)
(1.09332516872 -0.0014365287007 -1.77762517194e-13)
(1.09395388283 -0.00155021456935 -1.66662985981e-13)
(1.09458543937 -0.00165524302706 -1.56866590705e-13)
(1.09521364851 -0.00175227536052 -1.4703564223e-13)
(1.09583337918 -0.00184191747302 -1.40685625272e-13)
(1.09644048551 -0.00192472920069 -1.29467387663e-13)
(1.0970341405 -0.00200124775476 -1.32115956256e-13)
(1.09762105419 -0.00207204622127 -1.33641683555e-13)
(1.09816965362 -0.00213745155728 -1.33881296621e-13)
(1.09830128408 -0.00219531049569 -1.29758199526e-13)
(1.09638766505 -0.00223479196956 -1.20242352685e-13)
(1.08818757964 -0.00222924505023 -1.10152590646e-13)
(1.0663185446 -0.00213977825633 -1.10203257148e-13)
(1.02222489699 -0.00193746356738 -1.05699993344e-13)
(0.950280353372 -0.00162961020773 -9.32420437612e-14)
(0.850959911724 -0.00126269693329 -8.30529532682e-14)
(0.730392116422 -0.000896870114461 -7.17997053348e-14)
(0.597121142398 -0.000578032013466 -5.68962056164e-14)
(0.459009926623 -0.000328882494958 -4.21590315264e-14)
(0.321793699081 -0.000154237019359 -2.87885422936e-14)
(0.188966077699 -4.95048203872e-05 -1.64867761843e-14)
(0.0622754297032 -3.03638650898e-06 -5.50997773589e-15)
(1.09388964247 -0.000137811210356 -1.31769229397e-12)
(1.09403188271 -0.000326951445326 -8.49113414606e-13)
(1.09431560829 -0.000504435673509 -5.01439819843e-13)
(1.09470254821 -0.000681983004445 -3.73742474615e-13)
(1.09516821025 -0.000840333912502 -3.07211264069e-13)
(1.0956931143 -0.000990223817296 -2.62864241275e-13)
(1.0962614791 -0.00112731614094 -2.29902663569e-13)
(1.09686017371 -0.0012546453464 -2.07498640047e-13)
(1.0974783157 -0.00137209578975 -1.85432753588e-13)
(1.09810684243 -0.00148067491755 -1.73917014508e-13)
(1.09873824761 -0.00158097535963 -1.63719043547e-13)
(1.09936633305 -0.00167363743244 -1.53829006935e-13)
(1.09998595506 -0.00175923794142 -1.44832951727e-13)
(1.10059331304 -0.00183831397329 -1.35814700636e-13)
(1.10118905424 -0.00191139331197 -1.38840283321e-13)
(1.10177528666 -0.00197901030027 -1.38161544595e-13)
(1.10225909235 -0.00204107511281 -1.38840024663e-13)
(1.10200541762 -0.00209377938259 -1.35085590792e-13)
(1.09879131191 -0.00212305227542 -1.25031317812e-13)
(1.08760903008 -0.00210000323411 -1.15576173673e-13)
(1.06080854162 -0.00198959138356 -1.1351104103e-13)
(1.01072254913 -0.00177387241923 -1.07888782566e-13)
(0.933519989879 -0.00147061140987 -9.46442609778e-14)
(0.831236862339 -0.00112706405422 -8.33058715613e-14)
(0.710453451481 -0.00079491776352 -7.1265958327e-14)
(0.579202996753 -0.000510352730006 -5.62677428537e-14)
(0.444504585182 -0.00028993614547 -4.1340871632e-14)
(0.311352639834 -0.000135959222707 -2.89243334928e-14)
(0.182756069566 -4.36574451109e-05 -1.64749923589e-14)
(0.0602137103478 -2.67559015226e-06 -5.33227351947e-15)
(1.09785762964 -0.000132008269613 -1.31601508884e-12)
(1.09799995671 -0.000313215216497 -8.81423631639e-13)
(1.09828358406 -0.000483156261076 -5.16572265426e-13)
(1.09867039615 -0.000653355919652 -3.89255642322e-13)
(1.09913590593 -0.000804930910339 -3.19346342937e-13)
(1.09966066382 -0.000948622783763 -2.73178081091e-13)
(1.10022889482 -0.00107989210017 -2.39083173372e-13)
(1.10082747798 -0.00120191544451 -2.15520735998e-13)
(1.10144553654 -0.00131442211721 -1.92991542684e-13)
(1.10207401083 -0.00141845561372 -1.8077450871e-13)
(1.10270539524 -0.00151455053047 -1.70246805937e-13)
(1.10333347986 -0.00160333076589 -1.60008106095e-13)
(1.10395314936 -0.00168534567211 -1.50648226999e-13)
(1.1045611495 -0.00176111398625 -1.42024707505e-13)
(1.10515899457 -0.00183115387136 -1.44068058359e-13)
(1.10573577276 -0.00189591001754 -1.45090684677e-13)
(1.10610437192 -0.00195468276859 -1.43700780417e-13)
(1.10531401455 -0.00200177608501 -1.38502857139e-13)
(1.10053074253 -0.00202025347985 -1.2959185283e-13)
(1.08612913393 -0.00198051606553 -1.19766192776e-13)
(1.05449010168 -0.00185283048592 -1.17675504036e-13)
(0.999011307362 -0.00162913027156 -1.09715009027e-13)
(0.917462780811 -0.00133400238517 -9.56504921307e-14)
(0.813018107497 -0.00101295084488 -8.33383697892e-14)
(0.692426329363 -0.000710092166786 -7.077461434e-14)
(0.563194460061 -0.000454239485131 -5.61298951148e-14)
(0.43162227127 -0.000257540552465 -4.19645996088e-14)
(0.302104643279 -0.000120626042316 -2.86786456652e-14)
(0.177263108026 -3.86950532177e-05 -1.63537788873e-14)
(0.058392320212 -2.3631486436e-06 -5.28437894304e-15)
(1.10166648399 -0.000126826191383 -1.31190914167e-12)
(1.10180889224 -0.000300927103606 -9.11544284219e-13)
(1.10209243492 -0.000464133291369 -5.37214409908e-13)
(1.10247913488 -0.000627737660002 -4.04096470364e-13)
(1.10294451209 -0.000773267074727 -3.31079325394e-13)
(1.10346914544 -0.000911406375731 -2.83021076406e-13)
(1.10403726536 -0.00103747332311 -2.48032902244e-13)
(1.1046357607 -0.00115475384165 -2.23184168319e-13)
(1.10525375949 -0.00126284194096 -2.0025481305e-13)
(1.10588220475 -0.00136281656475 -1.87187010019e-13)
(1.1065135899 -0.00145515662215 -1.76448265901e-13)
(1.10714169534 -0.00154047382514 -1.6573777382e-13)
(1.10776149926 -0.0016192922075 -1.56580542466e-13)
(1.10837042433 -0.00169211639861 -1.48000048708e-13)
(1.10896925537 -0.00175944861446 -1.5034590094e-13)
(1.10952225784 -0.00182157449926 -1.50187670117e-13)
(1.10971229155 -0.00187699472816 -1.48303378073e-13)
(1.10822501925 -0.00191801815189 -1.42584989726e-13)
(1.10163429762 -0.00192541953642 -1.33832646696e-13)
(1.08386717436 -0.00187026227328 -1.23684210601e-13)
(1.0475776931 -0.00172881654012 -1.20706272093e-13)
(0.987295900066 -0.00150130696192 -1.11356673184e-13)
(0.902165527366 -0.00121631604935 -9.64009972249e-14)
(0.796168107077 -0.000916360248939 -8.30385525276e-14)
(0.676045805158 -0.000639049954367 -7.03023307182e-14)
(0.54879456791 -0.000407513581821 -5.57891470025e-14)
(0.420097987374 -0.000230649321453 -4.15346883171e-14)
(0.293855550803 -0.000107942240092 -2.83815202462e-14)
(0.172370963843 -3.46188874223e-05 -1.62010340447e-14)
(0.0567716518697 -2.11728374508e-06 -5.23396582392e-15)
(1.1053333102 -0.000122214115658 -1.30601162488e-12)
(1.10547579949 -0.000289971884167 -9.39613962421e-13)
(1.1057592772 -0.000447191849146 -5.58142075381e-13)
(1.10614588895 -0.000604902397139 -4.18324300465e-13)
(1.10661116286 -0.000745056710637 -3.42448139558e-13)
(1.10713570348 -0.000878236624864 -2.92414296836e-13)
(1.10770374555 -0.000999667299741 -2.54250631063e-13)
(1.10830218701 -0.00111271529623 -2.30501767877e-13)
(1.10892015964 -0.00121685908298 -2.07239467487e-13)
(1.10954860863 -0.00131321053722 -1.91749058636e-13)
(1.11018002478 -0.00140219633516 -1.82372170729e-13)
(1.11080818739 -0.00148441957163 -1.71172884725e-13)
(1.11142824916 -0.00156038135827 -1.61949425073e-13)
(1.11203826854 -0.0016305754659 -1.52366673248e-13)
(1.11263544439 -0.0016954743141 -1.5645885071e-13)
(1.11314428128 -0.00175512072744 -1.5572173881e-13)
(1.11308136844 -0.00180704852903 -1.52553836701e-13)
(1.11073575248 -0.00184159276353 -1.4800128778e-13)
(1.10213685673 -0.00183792812473 -1.37651381945e-13)
(1.08093669403 -0.00176888185247 -1.2683728184e-13)
(1.04024362776 -0.00161682962374 -1.2239166812e-13)
(0.975711825104 -0.0013885979582 -1.12782941179e-13)
(0.887633724099 -0.00111471900476 -9.72975289444e-14)
(0.780548828981 -0.000834237421765 -8.40578468397e-14)
(0.661084117966 -0.000579253222337 -7.08784675343e-14)
(0.535753179708 -0.000368442734112 -5.57916198093e-14)
(0.409708275277 -0.000208271777316 -4.13927233812e-14)
(0.286434288947 -9.74313037528e-05 -2.8243404446e-14)
(0.167972615288 -3.12549322592e-05 -1.61260653791e-14)
(0.0553143155546 -1.91600277874e-06 -5.20760472385e-15)
(1.10887121216 -0.000118068126674 -1.2986983045e-12)
(1.10901378606 -0.000280113204401 -9.65742331172e-13)
(1.10929722384 -0.000431963036568 -5.69946370367e-13)
(1.10968377933 -0.000584360115783 -4.3188358924e-13)
(1.11014898868 -0.000719691023872 -3.52511822387e-13)
(1.11067347877 -0.000848401238087 -3.01460426419e-13)
(1.11124148725 -0.000965663946922 -2.63078004047e-13)
(1.11183991992 -0.00107490103275 -2.37572185056e-13)
(1.11245791117 -0.00117549378 -2.13863261364e-13)
(1.11308640742 -0.00126858298665 -2.00389162916e-13)
(1.11371789573 -0.00135454697082 -1.87997178886e-13)
(1.11434617099 -0.00143398274049 -1.76402917084e-13)
(1.11496664061 -0.00150737067421 -1.67176103685e-13)
(1.11557767036 -0.00157519484549 -1.57842762081e-13)
(1.11616856923 -0.00163787557738 -1.60117340688e-13)
(1.11660656961 -0.00169512023401 -1.58323522978e-13)
(1.11620779658 -0.00174336588279 -1.56386004906e-13)
(1.11284771611 -0.00177111022781 -1.52215049209e-13)
(1.10208019698 -0.00175664568196 -1.41028651793e-13)
(1.07744377653 -0.00167536198179 -1.29906224366e-13)
(1.03262566129 -0.00151543847443 -1.24547288692e-13)
(0.964348210522 -0.00128873229911 -1.13957152128e-13)
(0.873847136342 -0.00102631861011 -9.80696042726e-14)
(0.766032610721 -0.000763693872173 -8.41252793598e-14)
(0.647350914976 -0.000528310692001 -7.07211897447e-14)
(0.523867577267 -0.000335319719525 -5.57589976189e-14)
(0.400274433303 -0.000189347397522 -4.13607447391e-14)
(0.279706563595 -8.85460331956e-05 -2.8208716178e-14)
(0.163986914245 -2.8406162194e-05 -1.61107998354e-14)
(0.0539934630922 -1.74294913809e-06 -5.20002510974e-15)
(1.11229233979 -0.000114302712406 -1.29032341092e-12)
(1.11243499947 -0.000271152002378 -9.9018562338e-13)
(1.11271841612 -0.000418132662179 -5.90776443862e-13)
(1.11310493924 -0.000565691586421 -4.44901751271e-13)
(1.11357011314 -0.000696649631554 -3.61484141559e-13)
(1.11409458422 -0.000821291807332 -3.10126710158e-13)
(1.11466259213 -0.000934771656504 -2.71784933677e-13)
(1.11526104954 -0.00104054453339 -2.4438500971e-13)
(1.11587909257 -0.00113791120003 -2.20227905031e-13)
(1.116507668 -0.0012280365593 -2.05356877311e-13)
(1.11713925956 -0.00131125464675 -1.9336626963e-13)
(1.11776770282 -0.00138815804485 -1.81459135808e-13)
(1.11838871386 -0.00145920832068 -1.72191992871e-13)
(1.11900023138 -0.00152487833022 -1.63296985869e-13)
(1.11957784083 -0.00158550587261 -1.62935265132e-13)
(1.11991220621 -0.00164036810821 -1.62385084003e-13)
(1.11908891665 -0.00168472210046 -1.59958797979e-13)
(1.11456863287 -0.0017054559278 -1.53010887642e-13)
(1.1015118082 -0.00168066209862 -1.44077466333e-13)
(1.07348615746 -0.00158880293124 -1.32774403093e-13)
(1.02483420782 -0.0014233205349 -1.2730549393e-13)
(0.953263787897 -0.00119974803218 -1.15062436849e-13)
(0.860774377914 -0.000948775325175 -9.87117213013e-14)
(0.752507284378 -0.00070248249229 -8.40369923763e-14)
(0.634690330814 -0.000484403751776 -7.03898565645e-14)
(0.512976834443 -0.000306873650873 -5.55461474861e-14)
(0.391657828173 -0.000173116553108 -4.12381467401e-14)
(0.273570578082 -8.0923424532e-05 -2.81328057648e-14)
(0.160353640769 -2.59587742888e-05 -1.60746472364e-14)
(0.0527895213531 -1.59339839873e-06 -5.18597626846e-15)
(1.11560738288 -0.000110863920648 -1.28121549538e-12)
(1.11575012735 -0.000262961341806 -1.01298973729e-12)
(1.11603353558 -0.000405500631485 -6.04421855986e-13)
(1.11642004227 -0.000548630110113 -4.57425863171e-13)
(1.11688520027 -0.000675600669741 -3.71218835479e-13)
(1.11740967329 -0.000796519759988 -3.18410197874e-13)
(1.11797770253 -0.000906546979185 -2.76617726702e-13)
(1.11857620681 -0.00100915277533 -2.50916988675e-13)
(1.11919432329 -0.00110357233236 -2.26343541214e-13)
(1.11982299849 -0.00119098963378 -2.09130344882e-13)
(1.12045471542 -0.00127169865065 -1.98517543603e-13)
(1.1210833819 -0.00134628863766 -1.8636064592e-13)
(1.12170501649 -0.00141520398952 -1.77049886155e-13)
(1.12231588111 -0.00147890178131 -1.68301072858e-13)
(1.12287050424 -0.00153759991878 -1.67154265371e-13)
(1.12306280892 -0.00159005530689 -1.65515367159e-13)
(1.12172342565 -0.00163031221616 -1.63584936793e-13)
(1.11591114538 -0.00164393979515 -1.57234664919e-13)
(1.10048139731 -0.00160943440886 -1.47073023739e-13)
(1.06915107319 -0.00150859335989 -1.35492284498e-13)
(1.01695626348 -0.00133946578021 -1.28245252107e-13)
(0.942495139322 -0.00112014702984 -1.16109149915e-13)
(0.848378093826 -0.000880353831057 -9.9443274267e-14)
(0.739874046213 -0.000648980078313 -8.50613739672e-14)
(0.622972771499 -0.000446252021381 -7.09935809172e-14)
(0.502950437573 -0.000282237350362 -5.56191906946e-14)
(0.383747364863 -0.000159081797213 -4.12045777489e-14)
(0.267944897359 -7.4336545111e-05 -2.80893641808e-14)
(0.157024206416 -2.38446573359e-05 -1.60519363422e-14)
(0.0516863975742 -1.46443828676e-06 -5.17663715541e-15)
(1.11882533462 -0.000107710199169 -1.27153875633e-12)
(1.11896816242 -0.000255444016512 -1.03420234939e-12)
(1.11925157258 -0.000393914673434 -6.19473330323e-13)
(1.11963807572 -0.000532972852054 -4.69442625555e-13)
(1.12010323363 -0.000656291527859 -3.80736655213e-13)
(1.12062772548 -0.000773789079981 -3.26455749631e-13)