/*--------------------------------*- C++ -*----------------------------------*\
| =========                 |                                                 |
| \\      /  F ield         | OpenFOAM: The Open Source CFD Toolbox           |
|  \\    /   O peration     | Version:  2206                                  |
|   \\  /    A nd           | Website:  www.openfoam.com                      |
|    \\/     M anipulation  |                                                 |
\*---------------------------------------------------------------------------*/
FoamFile
{
    version     2.0;
    format      ascii;
    arch        "LSB;label=32;scalar=64";
    class       volScalarField;
    location    "1900";
    object      epsilon;
}
// * * * * * * * * * * * * * * * * * * * * * * * * * * * * * * * * * * * * * //

dimensions      [0 2 -3 0 0 0 0];

internalField   nonuniform List<scalar> 
7480
(
5.7749319
15.519099
18.081431
15.979719
12.860255
10.363126
8.6777681
7.5257158
6.679313
6.0148372
5.4757091
5.0338641
4.6703339
4.3700975
4.1209552
3.9126146
3.7374283
3.5895621
3.4639311
3.3565421
3.2632362
3.1811818
3.1080552
3.0420175
2.9818373
2.9265171
2.8753566
2.8276853
2.7829141
2.7405536
2.7003181
2.6620163
2.6254456
2.5904372
2.5568091
2.5244508
2.4931485
2.4628367
2.4334277
2.4048263
2.3769659
2.3497848
2.3232345
2.2972819
2.2718885
2.2470269
2.2226606
2.198752
2.1752789
2.1522178
2.1295499
2.1072623
2.0853388
2.0637703
2.0425415
2.0216415
2.0010606
1.9807851
1.960802
1.9411015
1.9216809
1.9025354
1.8836578
1.8650419
1.8466825
1.8285745
1.8107104
1.7930838
1.7756905
1.7585268
1.7415879
1.7248693
1.7083671
1.6920782
1.6759983
1.660123
1.6444481
1.6289698
1.6136843
1.5985879
1.5836766
1.5689465
1.5543937
1.5400137
1.5258022
1.5117538
1.4978637
1.4841241
1.47053
1.4570664
1.443734
1.4304879
1.4173696
1.4042073
1.3912446
1.3778102
1.364851
1.3500952
1.3383308
1.315792
0.34638812
1.5995236
2.8409588
3.2971453
3.1719355
2.8640154
2.5636034
2.3197127
2.1214533
1.9517003
1.8035493
1.6754427
1.5660201
1.473118
1.3943208
1.3269479
1.2691962
1.219704
1.1771452
1.1402457
1.1078796
1.0791491
1.0533184
1.0298466
1.0083701
0.98858181
0.97026191
0.95317147
0.93710984
0.92191857
0.90750174
0.89379164
0.88071816
0.86822073
0.85622924
0.8447084
0.8335774
0.822815
0.81239192
0.80227364
0.79243323
0.78284945
0.77350462
0.76438457
0.75547571
0.74676686
0.73824391
0.72989379
0.721707
0.71367523
0.70579167
0.69805053
0.69044595
0.68297347
0.67562757
0.66840409
0.66129891
0.65430695
0.6474231
0.64064393
0.63396782
0.62739286
0.62091616
0.61453519
0.6082479
0.60205224
0.59594527
0.58992459
0.5839886
0.5781357
0.5723641
0.56667197
0.56105779
0.55552037
0.55005801
0.54466902
0.53935186
0.53410508
0.52892727
0.52381701
0.51877289
0.51379345
0.50887728
0.50402285
0.4992286
0.49449281
0.48981372
0.48518905
0.48061685
0.4760932
0.47161692
0.46717775
0.46278171
0.45839222
0.45405382
0.44962678
0.44529037
0.44055509
0.43652794
0.42923779
0.010445701
0.063701311
0.16397592
0.28167737
0.38486872
0.47621377
0.55971714
0.63121333
0.68706095
0.72856093
0.75728806
0.77399571
0.77998449
0.7774688
0.76902487
0.75703944
0.74318096
0.7284503
0.71342947
0.69845922
0.68375432
0.66944917
0.65560104
0.64226518
0.62948322
0.61724694
0.6056033
0.59448653
0.58384952
0.57365211
0.56388049
0.55451763
0.54553809
0.53691813
0.52862139
0.52063665
0.51291905
0.50546286
0.49825151
0.49126514
0.48448728
0.47790496
0.47150703
0.46528312
0.45922372
0.45332036
0.44756282
0.44194236
0.43645169
0.43108453
0.4258356
0.4206997
0.41567199
0.41074819
0.40592373
0.40119503
0.39655825
0.3920093
0.38754424
0.38316022
0.37885516
0.37462692
0.3704729
0.36639075
0.3623785
0.35843415
0.35455528
0.3507399
0.34698645
0.34329338
0.33965907
0.33608194
0.3325606
0.32909384
0.3256802
0.32231828
0.31900678
0.3157445
0.31253024
0.30936283
0.30624113
0.30316399
0.3001303
0.29713891
0.29418867
0.29127836
0.28840675
0.28557242
0.28277394
0.28000931
0.27727706
0.27457308
0.27189732
0.26923728
0.26660272
0.26394879
0.2613205
0.25854663
0.25607392
0.25175811
0.00038882438
0.0025454849
0.0091459894
0.019353433
0.032190198
0.047298013
0.066852403
0.091062204
0.12650383
0.17017192
0.21728155
0.26314079
0.30636425
0.34592107
0.38055329
0.40913763
0.43117942
0.44694421
0.45727125
0.46321574
0.46575378
0.46568199
0.46362505
0.46007527
0.45543973
0.4500283
0.44410417
0.43785359
0.43140659
0.42486489
0.41830617
0.41178963
0.40535597
0.39903673
0.39284335
0.38679423
0.38087014
0.3750929
0.36945946
0.36396903
0.3586191
0.35340689
0.34832937
0.34338283
0.33856334
0.33386687
0.32928741
0.32482038
0.32046145
0.31620664
0.3120524
0.30799499
0.30403086
0.30015661
0.29636863
0.29266389
0.28903918
0.28549119
0.28201674
0.27861337
0.275279
0.27201153
0.26880863
0.26566815
0.26258818
0.25956679
0.25660188
0.25369161
0.25083447
0.24802893
0.24527347
0.2425666
0.23990696
0.23729332
0.23472432
0.23219868
0.22971518
0.22727269
0.22487008
0.22250627
0.22018021
0.21789087
0.21563722
0.21341827
0.211233
0.2090804
0.20695942
0.20486895
0.20280783
0.20077471
0.19876817
0.1967862
0.19482708
0.19288632
0.19096314
0.18904381
0.18713235
0.18516393
0.18335524
0.18028031
4.1930577e-05
0.0001530372
0.00054923511
0.0014451507
0.0029513443
0.0049866503
0.0075493325
0.010787146
0.015314712
0.022005313
0.031504057
0.046283112
0.066514237
0.090987792
0.11836914
0.14746718
0.17738071
0.20693163
0.23468201
0.25928294
0.27986067
0.29618236
0.3085327
0.31744943
0.32351245
0.32723493
0.32906589
0.32939318
0.32854536
0.3267884
0.32433329
0.32135031
0.31797574
0.31431686
0.31045696
0.30646817
0.3023875
0.29826076
0.2941202
0.28998879
0.28588433
0.28182164
0.27781199
0.27386354
0.26998243
0.26617315
0.26243733
0.25877572
0.25518864
0.25167627
0.2482386
0.24487493
0.24158422
0.2383652
0.23521621
0.23213575
0.22912198
0.22617287
0.2232863
0.22046061
0.21769435
0.21498598
0.21233374
0.20973598
0.20719114
0.20469762
0.20225371
0.19985788
0.19750883
0.19520522
0.19294571
0.19072899
0.18855385
0.18641914
0.18432368
0.18226629
0.18024588
0.17826142
0.1763119
0.17439632
0.17251372
0.17066318
0.16884377
0.1670546
0.16529476
0.16356337
0.16185951
0.16018227
0.15853064
0.15690363
0.15529995
0.15371854
0.15215723
0.15061493
0.1490871
0.14757288
0.14606135
0.14453252
0.1431057
0.14071129
1.6371896e-05
3.1200346e-05
6.9706586e-05
0.00015179399
0.00030570214
0.00055863898
0.00093598386
0.0014593628
0.0021629751
0.0031207234
0.0044239481
0.0063271562
0.0091426519
0.01319113
0.019302286
0.028577881
0.04105663
0.056757447
0.07520484
0.095847518
0.11795274
0.14047157
0.16213789
0.18179897
0.19871498
0.21264369
0.22372117
0.23226555
0.23863338
0.2431595
0.24614768
0.24787084
0.24856583
0.24843055
0.2476287
0.2463006
0.24455125
0.24247198
0.24013824
0.23761017
0.23493653
0.23215717
0.22930462
0.22640533
0.22348063
0.22054769
0.21762022
0.21470863
0.21182118
0.20896452
0.206144
0.2033636
0.20062639
0.19793467
0.19528993
0.19269344
0.19014551
0.18764604
0.18519466
0.1827911
0.18043503
0.17812594
0.17586305
0.17364549
0.17147242
0.1693429
0.16725579
0.16521008
0.16320486
0.16123915
0.15931194
0.1574222
0.15556898
0.15375139
0.15196843
0.15021914
0.14850262
0.14681797
0.14516433
0.14354086
0.14194671
0.14038109
0.13884317
0.13733219
0.13584735
0.13438789
0.13295302
0.13154195
0.13015384
0.12878791
0.12744303
0.12611862
0.1248125
0.12352515
0.12225085
0.12099429
0.11973964
0.11848665
0.11731163
0.11534614
1.1619106e-05
1.5899657e-05
2.4223907e-05
3.8759747e-05
6.2632406e-05
9.984467e-05
0.00015565647
0.00023666378
0.000351106
0.00051118791
0.00073191599
0.0010392114
0.0014728589
0.0020831497
0.0029570848
0.0042612899
0.0061859211
0.0089521075
0.013235694
0.019711584
0.028631674
0.040192785
0.054093521
0.069976487
0.087193739
0.104813
0.12178449
0.13723164
0.1506477
0.16189798
0.17108716
0.17841839
0.18411562
0.18839936
0.19147988
0.19355243
0.19478351
0.19531641
0.19527461
0.19476219
0.19386637
0.19266008
0.19120424
0.18954985
0.18773927
0.1858076
0.18378419
0.18169296
0.17955354
0.17738215
0.17519219
0.1729947
0.17079869
0.16861152
0.16643922
0.1642867
0.16215781
0.16005545
0.15798183
0.1559387
0.15392747
0.15194922
0.15000454
0.14809382
0.14621732
0.14437503
0.14256663
0.14079186
0.13905039
0.13734183
0.13566567
0.13402134
0.13240823
0.13082579
0.12927336
0.12775026
0.12625582
0.12478939
0.12335031
0.12193791
0.12055154
0.11919053
0.11785423
0.116542
0.11525318
0.11398713
0.11274319
0.11152072
0.110319
0.10913743
0.10797502
0.10683149
0.10570482
0.1045962
0.10349986
0.10242267
0.10134817
0.10028433
0.099288911
0.097619515
1.0110479e-05
1.1982075e-05
1.5050619e-05
1.9654239e-05
2.6282351e-05
3.5565555e-05
4.8325097e-05
6.565787e-05
8.9001315e-05
0.00012039946
0.00016263305
0.00021976193
0.00029799662
0.00040598474
0.00055621012
0.00076964934
0.0010770778
0.0015162001
0.0021617505
0.0031397149
0.0046133613
0.0067713012
0.010236898
0.015449824
0.022698239
0.032103926
0.04346412
0.05641816
0.07033513
0.084377336
0.097723339
0.10978356
0.12027738
0.12916571
0.13653593
0.14252439
0.14728201
0.15096346
0.15371838
0.1556831
0.15697844
0.15771011
0.1579696
0.15783562
0.15737536
0.15664583
0.15569565
0.15456579
0.15329065
0.15189915
0.15041553
0.14886022
0.14725034
0.14560025
0.14392203
0.14222576
0.14051991
0.1388114
0.13710594
0.13540822
0.13372216
0.132051
0.13039735
0.12876323
0.12715035
0.12556003
0.1239932
0.12245054
0.12093259
0.11943973
0.11797215
0.11652988
0.11511286
0.11372097
0.112354
0.11101165
0.1096936
0.10839949
0.10712892
0.10588149
0.10465676
0.10345426
0.10227354
0.10111412
0.099975496
0.098857184
0.097758663
0.096679435
0.09561892
0.094576667
0.093551862
0.092544388
0.091552488
0.090577617
0.089614468
0.088670454
0.087730373
0.086804785
0.085944364
0.084493006
9.4139036e-06
1.0485001e-05
1.1989624e-05
1.402113e-05
1.6700471e-05
2.01809e-05
2.4643356e-05
3.0304092e-05
3.7447197e-05
4.6452307e-05
5.7833092e-05
7.2298108e-05
9.0880357e-05
0.00011504084
0.00014686531
0.00018951044
0.0002478597
0.00032860871
0.0004422239
0.00060606351
0.00084721569
0.0011992678
0.0017365292
0.0025730257
0.003853931
0.0058419457
0.0090426928
0.013762873
0.020270065
0.028519445
0.038332745
0.049290981
0.060754018
0.072014354
0.082497691
0.091871281
0.10001898
0.10695376
0.11274753
0.11749864
0.12131848
0.12432056
0.12661224
0.12829183
0.12944764
0.13015763
0.13049017
0.13050462
0.13025209
0.12977643
0.12911504
0.12829991
0.12735829
0.1263134
0.12518502
0.12398993
0.12274244
0.12145466
0.12013682
0.11879751
0.11744399
0.11608243
0.11471798
0.11335493
0.11199689
0.11064691
0.10930749
0.10798064
0.10666805
0.10537109
0.10409088
0.10282826
0.10158386
0.10035818
0.099151558
0.097964203
0.09679623
0.095647672
0.094518492
0.093408588
0.092317808
0.091245953
0.090192784
0.089158036
0.08814141
0.087142591
0.086161227
0.085196978
0.08424942
0.083318246
0.08240282
0.081503153
0.08061777
0.0797482
0.078889784
0.078049727
0.077214784
0.076395411
0.075640504
0.074357733
8.9761018e-06
9.7007394e-06
1.0601998e-05
1.1700728e-05
1.3042699e-05
1.468627e-05
1.6689562e-05
1.9136099e-05
2.2102227e-05
2.5679618e-05
2.9987985e-05
3.5185233e-05
4.1491792e-05
4.9178433e-05
5.8650874e-05
7.0481333e-05
8.551337e-05
0.00010493484
0.00013047565
0.00016479159
0.00021216289
0.00027844787
0.00037366706
0.00051486593
0.00072743201
0.00105135
0.0015653006
0.0023844056
0.0036464251
0.005739824
0.0089951388
0.013678222
0.019873644
0.027489427
0.036241005
0.045634747
0.055078606
0.064057956
0.072245456
0.079496539
0.085783539
0.091137902
0.095621655
0.099313906
0.10229994
0.10466352
0.10648369
0.10783302
0.10877679
0.10937291
0.10967216
0.10971894
0.1095518
0.10920411
0.10870468
0.10807829
0.10734629
0.10652707
0.10563641
0.10468776
0.10369261
0.1026608
0.10160073
0.10051954
0.099423321
0.098317286
0.097205887
0.096092854
0.094981345
0.093874042
0.092773195
0.091680678
0.09059803
0.089526528
0.088467224
0.087420958
0.086388403
0.085370086
0.084366414
0.083377679
0.082404085
0.081445751
0.080502725
0.079575
0.078662512
0.07776516
0.076882792
0.076015246
0.075162276
0.074323731
0.073499162
0.072688697
0.071891148
0.071108033
0.070335393
0.069579891
0.068830424
0.068096101
0.067426306
0.066279039
8.6397052e-06
9.1786431e-06
9.7950316e-06
1.0482293e-05
1.1260913e-05
1.2164236e-05
1.3226672e-05
1.4485589e-05
1.5973125e-05
1.7719414e-05
1.9758228e-05
2.2130587e-05
2.4886699e-05
2.812197e-05
3.193591e-05
3.6460997e-05
4.1884527e-05
4.8466898e-05
5.6555906e-05
6.6628927e-05
7.9447098e-05
9.6080797e-05
0.00011815536
0.0001482984
0.00019061127
0.00025134756
0.0003415341
0.00048014034
0.00069301626
0.0010350077
0.0015953477
0.0024877195
0.0039710574
0.0063649563
0.0099230093
0.014772968
0.020875926
0.028025769
0.035824559
0.043775084
0.051433952
0.058508603
0.06485646
0.070432977
0.075246736
0.07933675
0.082759908
0.085580697
0.087864623
0.089674949
0.091070671
0.092105679
0.092828408
0.093281884
0.0935041
0.093528315
0.093383646
0.093095503
0.092685993
0.092174247
0.091576771
0.09090783
0.090179741
0.089403113
0.088587071
0.08773951
0.086867252
0.085976136
0.08507116
0.084156616
0.083236185
0.08231301
0.081389754
0.080468678
0.07955171
0.078640473
0.077736329
0.076840423
0.075953704
0.075076957
0.074210819
0.0733558
0.072512298
0.071680621
0.070860989
0.070053557
0.069258408
0.068475592
0.067705067
0.066946857
0.066200714
0.06546689
0.064744485
0.064034975
0.063335102
0.062650858
0.061973229
0.061309498
0.060710274
0.059675475
8.3568503e-06
8.7762161e-06
9.2344741e-06
9.713506e-06
1.0219318e-05
1.0771619e-05
1.1395155e-05
1.2114595e-05
1.2950132e-05
1.3917829e-05
1.5032206e-05
1.6308324e-05
1.7761983e-05
1.941986e-05
2.1313942e-05
2.3482803e-05
2.5976076e-05
2.885738e-05
3.2222364e-05
3.6214375e-05
4.1007525e-05
4.6841059e-05
5.4059111e-05
6.314886e-05
7.4842156e-05
9.0249821e-05
0.00011112718
0.0001404664
0.00018262477
0.00024533004
0.00034259921
0.00049518457
0.00074302197
0.0011578245
0.0018364633
0.0029793979
0.0048690603
0.0077388342
0.011717053
0.016790327
0.022790787
0.029377582
0.036127577
0.042668553
0.048755044
0.054262073
0.059142866
0.063395555
0.067045926
0.07013609
0.072715573
0.074836056
0.076548307
0.077900305
0.078936364
0.079696679
0.080217385
0.080530699
0.080665168
0.080645913
0.080494922
0.080231414
0.079872161
0.079431774
0.078922944
0.078356717
0.07774272
0.077089293
0.076403644
0.075692016
0.074959815
0.074211716
0.073451745
0.072683366
0.071909569
0.071132926
0.070355642
0.069579606
0.068806435
0.068037502
0.067273974
0.066516834
0.065766903
0.065024865
0.064291282
0.063566614
0.062851224
0.06214541
0.061449366
0.060763318
0.060087238
0.059421518
0.058765553
0.058120778
0.057484602
0.056862343
0.056246912
0.055643686
0.055104479
0.054165654
8.111643e-06
8.4439875e-06
8.8002903e-06
9.1598517e-06
9.5200954e-06
9.8907445e-06
1.0288446e-05
1.0731352e-05
1.1234982e-05
1.1811416e-05
1.2470307e-05
1.3219976e-05
1.4067887e-05
1.5023476e-05
1.6098647e-05
1.7307725e-05
1.8668105e-05
2.0200867e-05
2.1934478e-05
2.3910728e-05
2.6181469e-05
2.8812464e-05
3.188593e-05
3.5538127e-05
3.9966392e-05
4.5421316e-05
5.2267414e-05
6.1074272e-05
7.2634137e-05
8.8240347e-05
0.00011013459
0.00014177459
0.0001890679
0.00026308274
0.00038109677
0.00057559576
0.00090781797
0.0014629906
0.0024182466
0.0040186252
0.0064753702
0.0098948038
0.014268636
0.019439838
0.025099268
0.030883699
0.036488571
0.041718404
0.046471892
0.050707751
0.05442139
0.057631721
0.060371186
0.062678703
0.064595547
0.066162701
0.067419354
0.068402043
0.069144258
0.069676288
0.070025257
0.070215306
0.070267819
0.070201669
0.070033448
0.069777718
0.069447268
0.069053286
0.068605533
0.068112524
0.067581688
0.0670195
0.066431597
0.065822869
0.065197575
0.064559413
0.063911592
0.063256894
0.062597727
0.061936175
0.061274034
0.06061285
0.059953948
0.059298463
0.05864736
0.058001464
0.057361462
0.056727949
0.05610139
0.055482245
0.054870734
0.054267412
0.053671972
0.053085838
0.05250704
0.051940279
0.051380186
0.050830364
0.050343449
0.049488583
7.8963508e-06
8.1618583e-06
8.4447612e-06
8.726481e-06
9.0005692e-06
9.2701059e-06
9.5448462e-06
9.8373268e-06
1.0159447e-05
1.0521168e-05
1.0930556e-05
1.1394088e-05
1.1917003e-05
1.2504276e-05
1.3161418e-05
1.3894816e-05
1.471191e-05
1.5621452e-05
1.6634275e-05
1.7765135e-05
1.9032893e-05
2.0461118e-05
2.2077515e-05
2.3921529e-05
2.6049866e-05
2.8534676e-05
3.1467323e-05
3.4987403e-05
3.932689e-05
4.4772228e-05
5.1778471e-05
6.1012556e-05
7.3488515e-05
9.102348e-05
0.00011651947
0.00015490423
0.00021565987
0.00031392122
0.00047898895
0.00076670171
0.0012550646
0.0021177422
0.0035668949
0.0057894922
0.0088579325
0.012753728
0.017310982
0.022241993
0.027237821
0.0320571
0.036550898
0.040641636
0.044296955
0.047513685
0.050307353
0.052704097
0.054735446
0.056435
0.057836321
0.058971654
0.059871196
0.060562755
0.061071609
0.061420545
0.061629943
0.061717942
0.061700641
0.061592278
0.061405405
0.061151063
0.060838957
0.060477613
0.060074506
0.059636175
0.059168349
0.058676037
0.058163621
0.057634928
0.057093297
0.056541644
0.055982506
0.055418093
0.054850322
0.05428086
0.053711146
0.05314243
0.052575784
0.052012144
0.051452292
0.05089696
0.050346647
0.0498021
0.049263325
0.048731763
0.048206031
0.047690297
0.047180699
0.046679308
0.046239043
0.045459321
7.7050509e-06
7.9184713e-06
8.1454725e-06
8.3711459e-06
8.5882266e-06
8.7961845e-06
8.9998862e-06
9.2071334e-06
9.4262853e-06
9.6651008e-06
9.9303848e-06
1.0227812e-05
1.056198e-05
1.0936735e-05
1.1355641e-05
1.1822335e-05
1.2340693e-05
1.2915039e-05
1.3550402e-05
1.4253088e-05
1.5031047e-05
1.5894208e-05
1.6854275e-05
1.7926042e-05
1.9129515e-05
2.0490608e-05
2.2041005e-05
2.3822291e-05
2.5899655e-05
2.8356131e-05
3.130144e-05
3.491332e-05
3.9463046e-05
4.5334476e-05
5.3129622e-05
6.3708905e-05
7.866604e-05
0.00010057994
0.0001339381
0.00018755202
0.00027546097
0.00042674438
0.00069544426
0.0011580491
0.0019950648
0.0033902238
0.0054906661
0.008348
0.01191123
0.015994564
0.020331188
0.024667183
0.028819906
0.032680543
0.036192392
0.039332755
0.042101569
0.044512846
0.046588633
0.048355132
0.049840139
0.051071414
0.052075657
0.052877956
0.05350147
0.053967318
0.054294599
0.054500479
0.054600301
0.05460772
0.054534861
0.054392459
0.054190012
0.053935888
0.053637467
0.053301244
0.052932934
0.052537559
0.052119532
0.051682726
0.051230539
0.050765947
0.050291558
0.049809652
0.049322223
0.048831013
0.04833754
0.04784314
0.047348955
0.046856037
0.046365194
0.045877408
0.045393007
0.044913497
0.044438045
0.043970382
0.043507964
0.043051601
0.042653928
0.041942915
7.532588e-06
7.7053236e-06
7.8888697e-06
8.0718619e-06
8.2476596e-06
8.4141958e-06
8.5734311e-06
8.7297913e-06
8.8886191e-06
9.055391e-06
9.2353824e-06
9.4333613e-06
9.6534368e-06
9.8990808e-06
1.0173298e-05
1.0478831e-05
1.0818286e-05
1.1194297e-05
1.1609695e-05
1.206772e-05
1.2572238e-05
1.3127959e-05
1.3740474e-05
1.4416496e-05
1.5164519e-05
1.59954e-05
1.6922497e-05
1.7962095e-05
1.9136928e-05
2.0476894e-05
2.2019056e-05
2.3816035e-05
2.5945191e-05
2.8511471e-05
3.1653114e-05
3.5630015e-05
4.0796953e-05
4.7700509e-05
5.7163991e-05
7.0685168e-05
9.0693377e-05
0.00012164402
0.00017233625
0.00025674358
0.00040655987
0.00067470441
0.0011558604
0.0020196948
0.003428879
0.005486898
0.0082170876
0.011528148
0.015217836
0.019047921
0.022819633
0.026400842
0.029714839
0.0327225
0.03541015
0.037780884
0.039848065
0.04163098
0.043151901
0.044434179
0.045500991
0.046374583
0.04707584
0.047624078
0.048036963
0.048330513
0.048519161
0.048615849
0.048632144
0.048578343
0.048463594
0.048296007
0.048082766
0.047830224
0.047543995
0.047229032
0.046889707
0.046529872
0.046152918
0.045761833
0.045359242
0.044947457
0.044528507
0.044104184
0.043676048
0.043245516
0.042813748
0.042381995
0.041950935
0.041522183
0.04109543
0.040674073
0.040256708
0.03984318
0.039485276
0.038838376
7.3746357e-06
7.5155212e-06
7.6650567e-06
7.8147439e-06
7.9589995e-06
8.0953188e-06
8.2241479e-06
8.3478335e-06
8.4695717e-06
8.5929127e-06
8.721567e-06
8.8591783e-06
9.0091458e-06
9.1745263e-06
9.3580303e-06
9.5620768e-06
9.7888314e-06
1.0040308e-05
1.0318484e-05
1.0625408e-05
1.0963318e-05
1.1334771e-05
1.1742737e-05
1.2190681e-05
1.2682763e-05
1.3224125e-05
1.3821081e-05
1.4481181e-05
1.5214093e-05
1.6032362e-05
1.6951482e-05
1.7991471e-05
1.9179752e-05
2.0553395e-05
2.2157367e-05
2.4065236e-05
2.637852e-05
2.92338e-05
3.2855293e-05
3.7606614e-05
4.4015414e-05
5.2912521e-05
6.5821012e-05
8.516093e-05
0.00011585448
0.00016680575
0.00025459007
0.00041473785
0.00070172885
0.0012357433
0.0021713346
0.0036427452
0.005713188
0.0083628617
0.011458253
0.014795798
0.018177562
0.021457302
0.024543111
0.027382793
0.029951487
0.032242983
0.034263041
0.036024723
0.037545214
0.038843685
0.039939896
0.040853315
0.041602575
0.042205155
0.042677221
0.043033571
0.043287652
0.043451599
0.043536321
0.043551583
0.043506107
0.043407662
0.043263161
0.043078741
0.042859848
0.042611305
0.042337384
0.042041865
0.041728089
0.04139901
0.041057236
0.040705083
0.040344579
0.039977562
0.039605584
0.039230214
0.038852503
0.038474224
0.038095577
0.037719722
0.037346253
0.036974323
0.03665436
0.036068444
7.2277447e-06
7.3435692e-06
7.4663548e-06
7.5897728e-06
7.709286e-06
7.8224292e-06
7.9289148e-06
8.0299111e-06
8.1272759e-06
8.2232052e-06
8.3201293e-06
8.4205948e-06
8.5271533e-06
8.6422699e-06
8.7682632e-06
8.9072776e-06
9.0612504e-06
9.2319411e-06
9.4209926e-06
9.6299845e-06
9.8604946e-06
1.0114177e-05
1.0392839e-05
1.06985e-05
1.1033469e-05
1.1400477e-05
1.1802805e-05
1.2244341e-05
1.2729821e-05
1.3265187e-05
1.3857757e-05
1.4516601e-05
1.52534e-05
1.6083625e-05
1.7025966e-05
1.8106679e-05
1.9362045e-05
2.0838603e-05
2.260358e-05
2.4759234e-05
2.7444809e-05
3.0875786e-05
3.5435857e-05
4.1655483e-05
5.0452973e-05
6.340489e-05
8.3261455e-05
0.00011577662
0.00017059828
0.00026908007
0.00045078467
0.00078634483
0.0014101431
0.0024590499
0.0040234485
0.0061299636
0.0087053823
0.011588193
0.014593587
0.017570073
0.020415647
0.023068516
0.025495224
0.027682026
0.029628271
0.031341609
0.032834688
0.034122904
0.035222882
0.03615149
0.036925195
0.037559679
0.038069617
0.038468572
0.038768957
0.038982054
0.039118063
0.039186167
0.039194606
0.039150756
0.039061204
0.038931821
0.038767835
0.038573896
0.038354136
0.038112224
0.037851417
0.037574612
0.037284369
0.036982995
0.036672484
0.03635477
0.036031305
0.035704072
0.035373773
0.035043427
0.034713502
0.034382721
0.03409969
0.033572836
7.0892524e-06
7.1852142e-06
7.2868252e-06
7.3893648e-06
7.489199e-06
7.5840767e-06
7.6733681e-06
7.7575793e-06
7.8377795e-06
7.9153182e-06
7.9917428e-06
8.0687367e-06
8.1480713e-06
8.2315621e-06
8.3210261e-06
8.4182387e-06
8.5248766e-06
8.6424997e-06
8.7725644e-06
8.9164375e-06
9.0754194e-06
9.2507817e-06
9.4438171e-06
9.6558835e-06
9.8884473e-06
1.0143149e-05
1.0421878e-05
1.0726828e-05
1.1060579e-05
1.1426253e-05
1.1827636e-05
1.2269326e-05
1.2757002e-05
1.3297943e-05
1.3901015e-05
1.457764e-05
1.5343072e-05
1.6216748e-05
1.7224313e-05
1.84021e-05
1.979857e-05
2.148017e-05
2.3554861e-05
2.6165744e-05
2.9547466e-05
3.4103194e-05
4.0417955e-05
4.9564573e-05
6.3270337e-05
8.5022626e-05
0.00012149744
0.0001851905
0.00030414044
0.00052308609
0.00094385628
0.0016940185
0.002881282
0.0045573131
0.006694737
0.0091735545
0.011829811
0.014514582
0.017120783
0.019580204
0.021853124
0.023919982
0.025774963
0.027421219
0.028867537
0.030126012
0.031210467
0.032135388
0.032915227
0.033563964
0.034094832
0.034520175
0.034851381
0.03509887
0.035272117
0.035379697
0.035429339
0.03542799
0.035381879
0.03529658
0.035177073
0.035027803
0.034852736
0.034655409
0.03443897
0.034206249
0.033959727
0.033701751
0.03343421
0.033159347
0.032878365
0.032594232
0.032308191
0.032018777
0.03177236
0.031303673
6.9571343e-06
7.037225e-06
7.1219434e-06
7.2077578e-06
7.2917788e-06
7.3720235e-06
7.4477152e-06
7.5189738e-06
7.5863946e-06
7.6508156e-06
7.7132314e-06
7.7747422e-06
7.8365299e-06
7.8998487e-06
7.9660139e-06
8.0363792e-06
8.1122916e-06
8.195061e-06
8.2859495e-06
8.3861601e-06
8.4968327e-06
8.6190533e-06
8.7538772e-06
8.9023549e-06
9.0655578e-06
9.2446145e-06
9.4407553e-06
9.65535e-06
9.8899533e-06
1.0146374e-05
1.0426747e-05
1.0733612e-05
1.1070019e-05
1.1439741e-05
1.1847366e-05
1.2298567e-05
1.2800602e-05
1.3362647e-05
1.399631e-05
1.4717044e-05
1.554517e-05
1.6506809e-05
1.7640282e-05
1.8996205e-05
2.0646552e-05
2.2707191e-05
2.5331074e-05
2.879829e-05
3.3540698e-05
4.0278955e-05
5.0251754e-05
6.5617753e-05
9.1071621e-05
0.00013460689
0.00021494669
0.00036609971
0.00065664524
0.001200273
0.0021086218
0.0034485741
0.0052256109
0.0073557021
0.0096980583
0.012111457
0.014487969
0.016755902
0.018871426
0.020810792
0.022564238
0.02413134
0.025517698
0.026732602
0.027787429
0.028694541
0.029466561
0.030115884
0.030654392
0.031093266
0.031442906
0.031712885
0.031911959
0.032048089
0.032128484
0.03215965
0.032147439
0.032097112
0.032013384
0.031900483
0.031762187
0.031601901
0.031422639
0.031227205
0.031017957
0.030797452
0.030567399
0.0303308
0.030089594
0.029842345
0.02963282
0.029222295
6.8298585e-06
6.8971638e-06
6.9682943e-06
7.0405984e-06
7.1117908e-06
7.1801628e-06
7.244897e-06
7.3058824e-06
7.3634131e-06
7.4180053e-06
7.4703117e-06
7.5210664e-06
7.5710606e-06
7.6211406e-06
7.6722135e-06
7.7252458e-06
7.7812417e-06
7.841223e-06
7.9062167e-06
7.9772361e-06
8.0552651e-06
8.1412502e-06
8.2361036e-06
8.3407126e-06
8.4559503e-06
8.5826947e-06
8.7218538e-06
8.8743897e-06
9.0413465e-06
9.2238865e-06
9.4233305e-06
9.6412043e-06
9.879291e-06
1.0139723e-05
1.0425057e-05
1.073838e-05
1.1083504e-05
1.1465164e-05
1.188923e-05
1.236317e-05
1.2896605e-05
1.3501595e-05
1.4194474e-05
1.4996698e-05
1.5936412e-05
1.7055341e-05
1.8407188e-05
2.0076138e-05
2.2188689e-05
2.4922336e-05
2.8619968e-05
3.3777458e-05
4.1340221e-05
5.2770229e-05
7.1244858e-05
0.00010266401
0.00015944282
0.00026760224
0.00047442099
0.00087675782
0.0015815273
0.0026633626
0.0041492832
0.0059847428
0.0080514625
0.010218683
0.012380734
0.014464894
0.016425146
0.018235065
0.019882087
0.021363068
0.022681062
0.02384304
0.02485829
0.025737321
0.026491118
0.027130648
0.027666542
0.028108902
0.028467186
0.028750162
0.028965884
0.029121715
0.029224347
0.029279845
0.029293686
0.029270812
0.029215666
0.02913226
0.029024178
0.028894722
0.028746754
0.028583191
0.028406256
0.028219065
0.028024188
0.027820418
0.027648585
0.027297006
6.7062674e-06
6.7631931e-06
6.8233058e-06
6.8846071e-06
6.9452964e-06
7.003926e-06
7.0596988e-06
7.1123695e-06
7.162034e-06
7.2089928e-06
7.253675e-06
7.2965831e-06
7.3382618e-06
7.379291e-06
7.4202913e-06
7.4619306e-06
7.5049197e-06
7.5500062e-06
7.5979702e-06
7.6496119e-06
7.7057357e-06
7.7671378e-06
7.8345992e-06
7.9088835e-06
7.9907371e-06
8.0808955e-06
8.1800957e-06
8.2890881e-06
8.4086535e-06
8.539623e-06
8.6829014e-06
8.8394939e-06
9.0105376e-06
9.1973445e-06
9.4014494e-06
9.6246634e-06
9.8691587e-06
1.0137574e-05
1.0433122e-05
1.075977e-05
1.1122506e-05
1.1527499e-05
1.198268e-05
1.249829e-05
1.3087291e-05
1.3767571e-05
1.4562062e-05
1.5502777e-05
1.6636127e-05
1.8022158e-05
1.9763014e-05
2.2000597e-05
2.4968337e-05
2.9068432e-05
3.4981877e-05
4.3855358e-05
5.7867621e-05
8.1548401e-05
0.00012341536
0.0002036501
0.00035615702
0.00066112671
0.0012165405
0.0021027205
0.0033577162
0.0049487482
0.0067775763
0.0087252239
0.010690634
0.012602072
0.014412925
0.016095351
0.01763497
0.019026675
0.020271565
0.021374736
0.022343736
0.023187482
0.023915529
0.024537566
0.025063095
0.02550122
0.025860529
0.026149025
0.026374101
0.026542541
0.026660543
0.026733741
0.026767244
0.026765687
0.026733244
0.026673746
0.026590581
0.026487067
0.026365955
0.026230539
0.026083976
0.025925462
0.025792583
0.025501453
6.5854871e-06
6.6339249e-06
6.6850365e-06
6.7373086e-06
6.7893272e-06
6.8398812e-06
6.8882294e-06
6.9340562e-06
6.9773279e-06
7.0181948e-06
7.0569302e-06
7.09388e-06
7.1294294e-06
7.1639889e-06
7.1979935e-06
7.2319073e-06
7.2662248e-06
7.3014728e-06
7.338214e-06
7.377043e-06
7.4185781e-06
7.4634512e-06
7.5123007e-06
7.5657646e-06
7.6244756e-06
7.6890599e-06
7.76014e-06
7.8383396e-06
7.9242902e-06
8.0186425e-06
8.1220787e-06
8.2353274e-06
8.3591827e-06
8.4945271e-06
8.642359e-06
8.8038244e-06
8.9802585e-06
9.17324e-06
9.3846537e-06
9.6167709e-06
9.8723765e-06
1.0154872e-05
1.0468488e-05
1.0818564e-05
1.121174e-05
1.1656701e-05
1.216451e-05
1.2749629e-05
1.3432103e-05
1.4237298e-05
1.5203143e-05
1.6381702e-05
1.7848027e-05
1.9721934e-05
2.2182895e-05
2.5539429e-05
3.0312047e-05
3.7446979e-05
4.8493123e-05
6.7014744e-05
9.9222528e-05
0.00016058872
0.0002788705
0.00051664902
0.00096377148
0.001701285
0.002773771
0.0041638483
0.0057897316
0.0075439891
0.009331526
0.011083088
0.012752721
0.014312207
0.015746177
0.017048223
0.018218
0.019259139
0.020177762
0.020981449
0.021678516
0.02227753
0.022786978
0.023215064
0.023569571
0.023857797
0.024086514
0.024261966
0.024389875
0.024475473
0.024523519
0.024538378
0.02452398
0.024484069
0.02442193
0.024341096
0.024245269
0.024134205
0.024041952
0.023813411
6.4668602e-06
6.5083102e-06
6.5520168e-06
6.5968282e-06
6.6416359e-06
6.6854376e-06
6.7275656e-06
6.7676768e-06
6.8056566e-06
6.8415511e-06
6.8755208e-06
6.9077989e-06
6.9386599e-06
6.968402e-06
6.9973406e-06
7.0258083e-06
7.0541548e-06
7.0827502e-06
7.1119911e-06
7.1423023e-06
7.1741356e-06
7.207965e-06
7.2442835e-06
7.2835976e-06
7.3264218e-06
7.3732751e-06
7.4246795e-06
7.4811595e-06
7.5432432e-06
7.6114673e-06
7.6863818e-06
7.7685579e-06
7.8585985e-06
7.9571504e-06
8.0649203e-06
8.1826933e-06
8.3113556e-06
8.4519239e-06
8.6055809e-06
8.7737184e-06
8.9579991e-06
9.160421e-06
9.3834094e-06
9.629956e-06
9.9037296e-06
1.0209355e-05
1.0552647e-05
1.0940943e-05
1.1383979e-05
1.1893996e-05
1.2487757e-05
1.3187853e-05
1.4024678e-05
1.5042765e-05
1.630463e-05
1.790691e-05
1.9998233e-05
2.281759e-05
2.6785813e-05
3.2679188e-05
4.1709754e-05
5.663505e-05
8.2504754e-05
0.00013130152
0.00022613418
0.00041749026
0.00078649222
0.00141178
0.0023411174
0.0035673817
0.0050216576
0.0066071086
0.0082352709
0.00984042
0.01137823
0.012820925
0.014152829
0.015366778
0.01646143
0.017439301
0.018305376
0.019066123
0.0197288