/*--------------------------------*- C++ -*----------------------------------*\
| =========                 |                                                 |
| \\      /  F ield         | OpenFOAM: The Open Source CFD Toolbox           |
|  \\    /   O peration     | Version:  2206                                  |
|   \\  /    A nd           | Website:  www.openfoam.com                      |
|    \\/     M anipulation  |                                                 |
\*---------------------------------------------------------------------------*/
FoamFile
{
    version     2.0;
    format      ascii;
    arch        "LSB;label=32;scalar=64";
    class       volScalarField;
    location    "1900";
    object      k;
}
// * * * * * * * * * * * * * * * * * * * * * * * * * * * * * * * * * * * * * //

dimensions      [0 2 -2 0 0 0 0];

internalField   nonuniform List<scalar> 
7480
(
0.032182524
0.062206122
0.068877489
0.063431003
0.054880993
0.047524353
0.042220934
0.038396157
0.035460415
0.033067796
0.031061061
0.029366829
0.027935389
0.026724948
0.025699307
0.024825664
0.02407898
0.023439617
0.02288947
0.02241391
0.021996584
0.021626284
0.021293582
0.020990884
0.020713121
0.020456137
0.020217032
0.019992953
0.019781357
0.019580107
0.019387991
0.019204218
0.019027927
0.018858399
0.018694835
0.018536767
0.018383215
0.018233908
0.01808846
0.017946445
0.017807565
0.017671549
0.017538182
0.017407325
0.01727881
0.017152522
0.017028296
0.016905963
0.016785425
0.016666581
0.016549348
0.016433676
0.016319496
0.016206772
0.016095441
0.015985456
0.015876779
0.015769351
0.015663112
0.015558022
0.015454076
0.01535126
0.015249544
0.015148904
0.015049324
0.014950783
0.01485325
0.014756698
0.014661115
0.014566486
0.014472794
0.014380023
0.014288158
0.01419719
0.014107102
0.014017878
0.0139295
0.013841955
0.013755228
0.013669304
0.013584169
0.013499804
0.013416196
0.013333324
0.013251169
0.013169706
0.013088912
0.013008748
0.012929189
0.012850151
0.012771644
0.012693405
0.012615682
0.012537457
0.01246018
0.012379836
0.012302086
0.012213258
0.012142207
0.012005496
0.0025401852
0.0095656749
0.016658706
0.020687222
0.021734414
0.021466519
0.020834092
0.020187812
0.019557119
0.01892995
0.018322209
0.017759001
0.017254435
0.016810685
0.016424543
0.016083209
0.015785576
0.015530126
0.015311264
0.015120801
0.014952157
0.01479972
0.014658844
0.014526943
0.014402913
0.014285452
0.014174179
0.014067194
0.013963222
0.013861482
0.013762016
0.013664851
0.013569767
0.013476636
0.013384956
0.013294846
0.013205454
0.013117108
0.013029694
0.012943023
0.012856988
0.012771541
0.012686681
0.012602397
0.012518678
0.012435538
0.012352892
0.012270701
0.012188953
0.012107641
0.012026783
0.011946388
0.011866461
0.01178702
0.011708052
0.011629576
0.011551589
0.011474077
0.011397016
0.011320415
0.011244302
0.011168694
0.011093591
0.011018995
0.010944918
0.010871364
0.010798321
0.010725787
0.010653771
0.010582279
0.010511311
0.010440865
0.010370945
0.010301557
0.010232698
0.010164365
0.010096555
0.010029268
0.0099625012
0.009896253
0.0098305198
0.0097652976
0.0097005819
0.0096363668
0.0095726452
0.0095094083
0.0094466452
0.0093843416
0.0093224807
0.009261037
0.0091999847
0.0091392661
0.0090788557
0.0090185731
0.0089584925
0.0088979228
0.0088373889
0.0087739172
0.0087175891
0.0086153723
0.00023115751
0.00058143214
0.0013157868
0.0026359258
0.0042089754
0.0058223371
0.0072749647
0.0085091507
0.0095740732
0.010503396
0.011301424
0.011963297
0.012492915
0.012907389
0.013230067
0.013488909
0.013699189
0.013869309
0.014005223
0.01411158
0.014192654
0.014251904
0.014291453
0.014314908
0.014325256
0.014323888
0.014315583
0.014298851
0.014274677
0.014243696
0.014207576
0.014167252
0.014123263
0.014076248
0.01402604
0.0139736
0.013918
0.013860542
0.013801154
0.013739925
0.013677008
0.013612593
0.013546879
0.013480026
0.013412183
0.013343504
0.013273986
0.01320371
0.013132764
0.013061228
0.012989211
0.01291679
0.01284404
0.012771038
0.01269782
0.01262446
0.012550996
0.012477448
0.012403825
0.012330176
0.012256566
0.012183044
0.012109633
0.012036361
0.011963267
0.011890373
0.011817686
0.011745222
0.011673011
0.011601073
0.011529424
0.011458076
0.011387047
0.011316356
0.011246011
0.011176019
0.011106389
0.01103713
0.010968248
0.010899751
0.010831644
0.01076393
0.010696612
0.010629693
0.010563173
0.010497049
0.010431317
0.010365973
0.010301003
0.010236399
0.010172126
0.010108184
0.010044465
0.0099810217
0.0099175292
0.0098542129
0.009790126
0.0097252534
0.0096648256
0.0095591364
0.00017246207
0.00018510381
0.00021573704
0.00029557565
0.00046005996
0.00070364004
0.0011561595
0.0017924134
0.0026157263
0.0035357386
0.0044935199
0.0054738754
0.0064642837
0.0074418386
0.0083751179
0.0092352689
0.010003952
0.010675807
0.011255921
0.011754098
0.012180204
0.012542953
0.012850578
0.01310973
0.013327001
0.013507481
0.013656671
0.013779221
0.013878526
0.013958234
0.014020939
0.014069026
0.014104449
0.014129224
0.014144307
0.014151327
0.014148831
0.014140114
0.014124701
0.014103556
0.014077253
0.014046342
0.014011338
0.013972668
0.013930738
0.013885917
0.013838332
0.013788277
0.013735982
0.013681661
0.01362555
0.013567831
0.013508684
0.013448275
0.013386708
0.013324138
0.013260661
0.013196351
0.013131266
0.013065511
0.012999199
0.012932419
0.012865232
0.012797702
0.012729899
0.012661876
0.012593662
0.0125253
0.012456843
0.012388335
0.01231981
0.012251297
0.012182833
0.012114454
0.012046183
0.011978039
0.011910045
0.011842222
0.011774589
0.011707162
0.011639959
0.011572992
0.011506274
0.011439814
0.011373623
0.011307706
0.011242066
0.011176708
0.011111626
0.011046823
0.010982266
0.010917984
0.010853841
0.010790004
0.010725977
0.010662417
0.010597733
0.010533382
0.010471885
0.010366989
0.00017636431
0.00017928458
0.00018154787
0.00018402456
0.00019027358
0.00020231117
0.00023182268
0.00029517128
0.00040146378
0.00060210392
0.00091717532
0.0013532457
0.0019230237
0.0025909853
0.003347033
0.0041829497
0.0050815731
0.0060129354
0.0069388436
0.0078223136
0.0086367429
0.009369753
0.010020613
0.010594213
0.01109708
0.011535494
0.01191605
0.012245447
0.012530369
0.012776325
0.012987907
0.013169306
0.013324237
0.013455602
0.013566417
0.013659603
0.013736155
0.013798472
0.013848171
0.013886364
0.013914182
0.013932806
0.013943217
0.013946249
0.013942701
0.013933283
0.013918492
0.013898732
0.013874407
0.013845952
0.013813803
0.013778296
0.013739746
0.013698454
0.013654663
0.01360866
0.013560619
0.013510696
0.01345902
0.013405779
0.01335116
0.013295307
0.013238332
0.013180356
0.013121494
0.013061839
0.013001452
0.012940415
0.012878816
0.012816728
0.01275421
0.012691318
0.012628114
0.012564657
0.012500989
0.012437148
0.012373174
0.012309106
0.012244977
0.012180821
0.012116666
0.012052538
0.011988462
0.01192446
0.011860552
0.011796755
0.011733082
0.011669547
0.011606154
0.01154292
0.011479816
0.011416897
0.011354014
0.011291409
0.0112285
0.011166204
0.011102587
0.011040031
0.010979342
0.010877278
0.00017909894
0.00018446629
0.00018702648
0.00018785408
0.00018802921
0.00018800785
0.00018815023
0.00018944926
0.00019369676
0.00020574677
0.00023316008
0.00028534663
0.00036996633
0.00052067399
0.00075316662
0.0010893666
0.0015394799
0.0020956185
0.0027574795
0.0035183556
0.0043585001
0.0052445858
0.0061359249
0.0069949309
0.0077958256
0.0085265598
0.0091851077
0.0097742586
0.010298569
0.010763188
0.011173573
0.011535243
0.011853412
0.01213266
0.012377232
0.012591275
0.012777772
0.012939768
0.01307999
0.013200723
0.013304024
0.013391613
0.013465077
0.013525843
0.013575121
0.013613983
0.013643558
0.013664726
0.013678292
0.013684956
0.013685331
0.013679948
0.013669337
0.013653974
0.013634297
0.013610777
0.013583682
0.01355329
0.013519876
0.013483735
0.013445106
0.013404213
0.01336124
0.013316366
0.013269787
0.013221658
0.013172085
0.013121207
0.013069157
0.013016044
0.012961966
0.012907012
0.012851278
0.012794857
0.012737812
0.012680209
0.012622112
0.01256358
0.012504668
0.012445428
0.012385906
0.012326145
0.012266187
0.012206067
0.012145818
0.012085473
0.012025056
0.011964595
0.011904104
0.011843614
0.011783106
0.011722656
0.011662116
0.011601778
0.011541023
0.011480925
0.011419386
0.011359367
0.011300594
0.011202494
0.000179312
0.00018651606
0.00019107411
0.00019328809
0.00019392234
0.00019380023
0.00019322636
0.0001923889
0.00019158803
0.00019088625
0.00019118917
0.00019289032
0.00019768531
0.00020926933
0.00023268766
0.0002758757
0.00034524988
0.00046777805
0.00066268492
0.00095218103
0.0013528565
0.0018642225
0.0024877314
0.003214281
0.0040199061
0.0048679519
0.0057176248
0.0065348769
0.0072987972
0.0080007669
0.0086395165
0.0092168662
0.0097359537
0.010200742
0.010615709
0.010985573
0.011314536
0.011606554
0.011865355
0.012094281
0.012296344
0.012474207
0.012630254
0.012766643
0.01288528
0.012987846
0.013075935
0.01315094
0.013214105
0.013266532
0.013309191
0.013342993
0.01336871
0.013387038
0.013398632
0.01340402
0.013403797
0.013398458
0.013388462
0.013374185
0.013355984
0.013334191
0.013309085
0.013280951
0.013250074
0.013216675
0.013180921
0.013143023
0.013103164
0.013061516
0.013018234
0.012973465
0.012927325
0.012879936
0.012831406
0.012781835
0.012731318
0.012679943
0.012627791
0.012574937
0.012521451
0.012467397
0.012412836
0.012357822
0.012302407
0.012246637
0.012190555
0.012134203
0.012077609
0.01202082
0.01196383
0.011906732
0.01184939
0.011792127
0.011734326
0.011677141
0.011618434
0.011561504
0.011505407
0.011412097
0.0001779102
0.00018580624
0.00019155532
0.00019482866
0.00019632474
0.00019692527
0.00019676103
0.00019631019
0.00019560471
0.00019470652
0.00019379632
0.00019294413
0.00019231576
0.000191941
0.00019242205
0.00019444812
0.00019944266
0.0002103523
0.00023175546
0.00027107202
0.00033589344
0.00045133776
0.00063928081
0.00092182412
0.0013154307
0.0018230344
0.0024432743
0.0031610251
0.0039461014
0.0047591921
0.0055628388
0.0063303012
0.0070474881
0.0077092185
0.008314706
0.0088653004
0.0093635952
0.0098130214
0.010217376
0.01058043
0.010905818
0.011196957
0.011456997
0.01168884
0.011895125
0.012078224
0.012240326
0.01238341
0.012509255
0.012619456
0.012715429
0.01279847
0.012869728
0.012930227
0.012980915
0.013022606
0.013056095
0.013082096
0.013101261
0.013114159
0.013121308
0.013123181
0.013120227
0.01311282
0.013101296
0.013085994
0.013067248
0.013045319
0.013020459
0.012992905
0.012962877
0.012930577
0.012896179
0.012859857
0.012821758
0.012782026
0.012740795
0.012698188
0.012654318
0.012609293
0.012563209
0.012516158
0.012468224
0.012419486
0.012370015
0.01231988
0.012269142
0.012217859
0.01216608
0.012113866
0.01206123
0.01200828
0.011954901
0.011901433
0.011847286
0.011793647
0.011738415
0.011685066
0.011632235
0.011544426
0.0001754451
0.00018327358
0.00018960219
0.00019366255
0.00019580838
0.00019678845
0.00019688804
0.00019673554
0.00019638146
0.00019588782
0.00019528335
0.00019458002
0.00019379772
0.0001930223
0.00019230509
0.00019168135
0.00019117301
0.00019106096
0.00019182086
0.00019441589
0.0002000097
0.00021163977
0.00023436338
0.00027557945
0.00034725826
0.0004735539
0.00067925033
0.00098568422
0.0014035518
0.0019362175
0.002575364
0.0032968284
0.0040643547
0.0048397975
0.0055933105
0.0063072448
0.0069735314
0.0075893094
0.0081543218
0.0086699652
0.0091387568
0.0095637476
0.009948132
0.010295112
0.010607794
0.010889096
0.011141764
0.011368345
0.011571175
0.011752384
0.011913893
0.012057455
0.012184651
0.012296905
0.012395517
0.01248164
0.012556348
0.012620619
0.012675349
0.012721336
0.012759302
0.012789904
0.01281375
0.012831375
0.012843261
0.012849861
0.012851615
0.012848901
0.012842063
0.012831426
0.012817288
0.012799922
0.012779578
0.012756473
0.012730828
0.012702835
0.012672674
0.012640512
0.012606505
0.012570795
0.012533516
0.012494792
0.012454736
0.012413456
0.012371049
0.012327608
0.012283216
0.012237956
0.012191895
0.012145114
0.012097646
0.012049618
0.012000937
0.011951958
0.011902132
0.011852645
0.011801486
0.011752205
0.011703145
0.011621512
0.00017244733
0.00017969123
0.00018606106
0.00019063368
0.00019339386
0.00019484233
0.00019539543
0.00019546774
0.00019528911
0.00019496645
0.00019454926
0.00019405887
0.00019350594
0.00019290588
0.00019227084
0.00019159888
0.00019093725
0.00019028098
0.00018966933
0.0001891851
0.00018894601
0.00018923177
0.00019060977
0.00019408233
0.00020131518
0.00021584193
0.00024399332
0.00029373412
0.00038492825
0.0005417797
0.00078873457
0.0011431634
0.0016109729
0.0021883887
0.0028556629
0.0035793462
0.0043219621
0.0050527548
0.0057524388
0.006411248
0.007024883
0.0075919454
0.0081129171
0.008589542
0.0090242274
0.0094196598
0.0097786486
0.010103994
0.010398394
0.010664405
0.010904403
0.011120591
0.011314997
0.011489471
0.011645708
0.011785241
0.011909475
0.012019701
0.012117103
0.012202749
0.012277609
0.012342561
0.012398411
0.012445888
0.012485646
0.012518289
0.012544391
0.012564462
0.012578967
0.012588337
0.012592965
0.012593216
0.012589421
0.012581878
0.012570872
0.012556661
0.012539482
0.012519559
0.012497095
0.012472279
0.012445289
0.012416285
0.01238542
0.012352834
0.012318656
0.012283008
0.012246001
0.012207744
0.012168327
0.012127856
0.012086386
0.012044064
0.012000825
0.011957032
0.011912193
0.01186747
0.011820975
0.011776266
0.01173145
0.011656667
0.00016936265
0.00017573392
0.00018171111
0.00018644047
0.00018967289
0.00019161873
0.00019263009
0.00019305043
0.00019311997
0.00019298074
0.00019271343
0.00019236326
0.00019195097
0.00019149208
0.00019099714
0.00019046915
0.0001899184
0.00018934595
0.00018874649
0.00018814013
0.00018754725
0.00018699488
0.00018655059
0.00018630767
0.00018644574
0.00018733563
0.00018978537
0.00019494778
0.00020548803
0.00022641162
0.00026521216
0.00033654687
0.00046454135
0.00067480463
0.00098784412
0.0014118097
0.0019455577
0.0025716705
0.0032583638
0.0039692335
0.0046740917
0.0053536354
0.0059975501
0.0066007694
0.0071611922
0.0076787053
0.0081545089
0.0085905215
0.0089890336
0.0093525161
0.0096834666
0.0099843329
0.01025746
0.010505051
0.010729168
0.010931709
0.011114432
0.011278962
0.011426796
0.011559308
0.011677743
0.01178324
0.01187684
0.011959491
0.012032054
0.012095316
0.012150013
0.012196812
0.012236321
0.012269099
0.012295657
0.012316469
0.012331966
0.012342539
0.012348554
0.012350348
0.012348231
0.012342488
0.012333384
0.012321165
0.012306057
0.01228827
0.012267999
0.012245425
0.012220715
0.012194026
0.012165501
0.012135279
0.012103481
0.012070238
0.012035632
0.011999832
0.011962806
0.011924924
0.011885758
0.011846436
0.011805208
0.011765608
0.011725507
0.011658272
0.0001664837
0.00017188726
0.00017720208
0.00018174443
0.00018519029
0.00018754141
0.00018899777
0.00018981372
0.00019020102
0.00019030819
0.00019023362
0.00019003942
0.00018976269
0.0001894264
0.00018904612
0.00018863155
0.00018818984
0.00018772536
0.00018723799
0.00018673082
0.00018620735
0.00018567051
0.00018512173
0.00018459126
0.00018410606
0.00018370992
0.0001835012
0.00018361008
0.00018433126
0.00018629318
0.0001905445
0.00019914941
0.00021637791
0.00024930646
0.00031040037
0.00042328597
0.00061389591
0.00090374774
0.0013024528
0.0018095465
0.0024077903
0.0030657647
0.0037483058
0.0044269414
0.0050835719
0.0057082066
0.0062956119
0.0068434236
0.0073512422
0.0078199262
0.0082510464
0.0086465827
0.0090087168
0.0093396857
0.0096417046
0.0099169065
0.010167322
0.01039487
0.010601345
0.010788416
0.01095762
0.011110371
0.01124797
0.01137161
0.011482382
0.011581284
0.011669242
0.011747104
0.011815645
0.011875574
0.011927543
0.011972152
0.012009952
0.012041444
0.012067094
0.012087328
0.012102542
0.012113099
0.012119336
0.012121563
0.012120068
0.012115117
0.012106958
0.012095818
0.01208191
0.012065431
0.012046564
0.012025483
0.012002342
0.011977304
0.011950482
0.011922069
0.011892072
0.011860867
0.011828095
0.011794846
0.011759518
0.011725604
0.011690706
0.011631753
0.00016395175
0.00016842668
0.00017297239
0.00017708545
0.00018046954
0.00018302628
0.00018482136
0.00018600341
0.00018672686
0.00018712017
0.0001872817
0.00018728143
0.00018716697
0.00018697008
0.00018671271
0.00018641021
0.00018607283
0.00018570763
0.00018531864
0.00018490875
0.00018448015
0.00018403447
0.00018357116
0.00018309488
0.00018261147
0.00018212585
0.0001816531
0.00018122814
0.00018089076
0.00018073152
0.00018087644
0.00018157947
0.00018338023
0.00018727004
0.00019505499
0.00021072551
0.00024113054
0.00029850226
0.00040612484
0.00059030132
0.00087201943
0.0012613391
0.001756484
0.0023383877
0.0029750115
0.0036328149
0.0042860229
0.0049185843
0.0055214066
0.0060895378
0.0066207072
0.0071144712
0.0075715128
0.0079931786
0.008381209
0.0087375404
0.009064188
0.009363167
0.0096364438
0.0098859015
0.010113318
0.010320361
0.010508583
0.010679425
0.01083422
0.010974193
0.011100479
0.011214127
0.011316096
0.01140727
0.011488461
0.011560414
0.011623819
0.011679305
0.011727451
0.011768793
0.011803825
0.011833001
0.011856742
0.011875436
0.011889441
0.011899091
0.011904693
0.011906531
0.01190487
0.011899957
0.011892018
0.011881269
0.011867904
0.01185212
0.011834069
0.011813971
0.011791873
0.011768164
0.011742554
0.011716098
0.011687342
0.011659739
0.011630565
0.011580679
0.00016179869
0.0001654569
0.00016924795
0.00017281665
0.00017593204
0.00017847661
0.00018044001
0.0001818837
0.00018289617
0.00018356742
0.00018397839
0.00018419472
0.00018426646
0.00018423036
0.00018411341
0.00018393553
0.00018371071
0.00018344895
0.00018315732
0.00018284074
0.00018250264
0.00018214542
0.00018177019
0.00018137828
0.00018097146
0.00018055105
0.0001801193
0.00017968318
0.00017925066
0.00017883202
0.00017846638
0.00017819534
0.00017810166
0.00017832195
0.00017909309
0.00018093668
0.00018483041
0.00019257655
0.00020822891
0.00023868197
0.00029745899
0.00040794498
0.00059698142
0.00088353001
0.0012768649
0.0017718886
0.0023460195
0.0029664867
0.0036021901
0.0042308228
0.0048388041
0.0054182806
0.0059649228
0.0064767854
0.0069535055
0.0073956967
0.0078045794
0.0081817293
0.0085289099
0.0088479624
0.0091407316
0.0094090211
0.0096545625
0.0098790012
0.010083883
0.010270653
0.010440656
0.010595144
0.010735276
0.01086212
0.010976664
0.011079819
0.011172426
0.011255258
0.011329028
0.011394394
0.011451962
0.011502292
0.011545902
0.01158327
0.011614837
0.011641012
0.011662173
0.011678672
0.011690832
0.011698956
0.011703323
0.011704198
0.011701819
0.011696426
0.011688212
0.011677427
0.011664168
0.011648834
0.011631214
0.011612322
0.01159086
0.011570247
0.011547357
0.011507387
0.00015999638
0.00016297367
0.00016609278
0.0001691056
0.00017184437
0.00017421023
0.00017616834
0.00017773031
0.00017893254
0.00017982364
0.00018045703
0.00018088325
0.00018114596
0.00018128081
0.00018131618
0.00018127439
0.00018117212
0.00018102182
0.00018083291
0.0001806124
0.00018036534
0.00018009534
0.00017980489
0.00017949572
0.00017916922
0.00017882642
0.00017846818
0.00017809628
0.00017771307
0.00017732029
0.00017692613
0.00017654088
0.00017617762
0.00017587206
0.00017567185
0.00017566298
0.00017599241
0.0001769075
0.00017897001
0.00018318516
0.00019158209
0.00020860259
0.00024153988
0.00030664247
0.00042797475
0.00063253878
0.00093569052
0.0013441303
0.0018473131
0.0024185157
0.0030252302
0.0036400325
0.004244547
0.0048276643
0.0053828533
0.0059065788
0.006397344
0.0068549594
0.0072800633
0.0076738134
0.0080376728
0.0083732693
0.0086822973
0.0089664568
0.009227409
0.0094667494
0.0096859958
0.0098865811
0.010069849
0.010237053
0.01038936
0.010527853
0.010653537
0.010767341
0.010870124
0.010962679
0.01104574
0.011119985
0.011186042
0.01124449
0.011295866
0.011340665
0.011379348
0.011412339
0.011440033
0.011462797
0.011480971
0.011494874
0.011504796
0.011511026
0.011513801
0.011513414
0.011510007
0.011504001
0.011495261
0.011484772
0.01147138
0.011458496
0.011442503
0.011413367
0.00015849374
0.00016092002
0.00016347431
0.00016598129
0.00016832025
0.00017041789
0.00017224192
0.00017378642
0.00017505952
0.00017607939
0.00017687273
0.00017747034
0.00017790319
0.00017819997
0.00017838591
0.00017848251
0.00017850702
0.00017847305
0.00017839144
0.00017827064
0.00017811709
0.0001779356
0.00017772974
0.00017750213
0.00017725467
0.00017698876
0.00017670542
0.00017640566
0.00017609059
0.00017576091
0.00017541871
0.00017506726
0.0001747098
0.00017435467
0.00017401402
0.00017370428
0.00017346266
0.00017334286
0.00017344396
0.00017392559
0.0001750749
0.00017755209
0.0001824418
0.00019225814
0.00021221196
0.00025051359
0.00032753112
0.00046887398
0.00069785483
0.0010280153
0.0014599181
0.0019758166
0.0025456149
0.0031389359
0.003733043
0.0043134541
0.0048713656
0.0054016122
0.0059015071
0.0063700128
0.0068071564
0.0072136532
0.0075906435
0.0079395189
0.0082618004
0.0085590577
0.0088328571
0.0090847301
0.0093161506
0.0095285219
0.0097231701
0.0099013408
0.010064201
0.010212836
0.010348258
0.010471405
0.010583147
0.010684292
0.010775589
0.010857729
0.010931354
0.01099706
0.011055397
0.011106876
0.011151969
0.011191118
0.01122473
0.011253187
0.01127684
0.01129603
0.01131105
0.011322233
0.01132978
0.011334133
0.011335239
0.011334059
0.011329579
0.011325225
0.011316799
0.011299497
0.00015723755
0.00015922384
0.00016131805
0.00016339369
0.00016536157
0.00016716805
0.00016879017
0.00017022153
0.00017146148
0.00017251337
0.00017338608
0.00017409338
0.0001746523
0.00017508134
0.00017539905
0.00017562292
0.00017576824
0.00017584795
0.00017587292
0.00017585211
0.00017579266
0.00017570017
0.00017557898
0.00017543245
0.0001752631
0.00017507282
0.00017486305
0.00017463491
0.00017438938
0.00017412717
0.00017384914
0.00017355662
0.00017325089
0.00017293437
0.0001726111
0.00017228571
0.00017196771
0.00017167133
0.00017141749
0.00017124841
0.00017122587
0.00017147378
0.00017216889
0.00017367612
0.00017682035
0.00018286322
0.00019514588
0.00021980277
0.00026907641
0.00036535691
0.00053592313
0.000799292
0.0011646927
0.001623992
0.0021523236
0.00271881
0.0032973247
0.0038701026
0.0044260346
0.0049583422
0.0054631655
0.0059386247
0.0063841354
0.0067999605
0.0071869036
0.0075461009
0.0078788805
0.0081866696
0.0084709302
0.0087331165
0.008974646
0.0091968822
0.0094011243
0.0095886004
0.0097604648
0.0099177988
0.010061612
0.010192847
0.010312378
0.010421021
0.010519531
0.010608611
0.010688913
0.010761041
0.010825558
0.010882985
0.010933807
0.010978477
0.011017414
0.011051018
0.011079643
0.011103673
0.011123367
0.011139198
0.011151198
0.01116031
0.011165657
0.011170704
0.011170578
0.011166202
0.00015618115
0.00015781708
0.00015954165
0.00016126178
0.00016290922
0.00016444258
0.00016584593
0.00016711667
0.00016825498
0.00016926101
0.00017013624
0.00017088448
0.00017151224
0.00017202845
0.00017244383
0.00017277003
0.00017301839
0.00017319936
0.00017332239
0.00017339575
0.0001734264
0.00017342006
0.00017338137
0.00017331406
0.00017322105
0.00017310463
0.00017296657
0.00017280828
0.00017263088
0.00017243525
0.00017222211
0.0001719923
0.00017174656
0.00017148588
0.00017121189
0.00017092641
0.00017063249
0.00017033499
0.00017004024
0.00016975995
0.00016951081
0.00016932043
0.0001692393
0.00016934204
0.00016979119
0.00017079052
0.00017285379
0.00017694565
0.00018502987
0.00020153768
0.00023401289
0.00030054636
0.00042648696
0.00063555915
0.00094254564
0.0013479833
0.0018336908
0.0023703798
0.0029298079
0.0034913262
0.0040416291
0.0045724123
0.0050787039
0.0055578079
0.0060085397
0.0064307121
0.006824789
0.0071916501
0.0075324306
0.0078484113
0.0081409427
0.0084113941
0.0086611194
0.0088914344
0.0091036019
0.0092988233
0.0094782347
0.0096429053
0.0097938379
0.0099319704
0.010058178
0.010173277
0.010278027
0.010373136
0.01045926
0.010537013
0.010606964
0.010669645
0.010725548
0.010775143
0.010818851
0.01085711
0.010890247
0.010918771
0.010942801
0.010963271
0.010979438
0.010994833
0.011003809
0.011013551
0.00015528657
0.00015664256
0.00015807094
0.00015950225
0.00016088283
0.00016217867
0.00016337712
0.00016447791
0.00016548382
0.00016639684
0.00016721797
0.00016794789
0.00016858796
0.0001691409
0.00016961114
0.00017000463
0.00017032809
0.00017058845
0.00017079263
0.00017094716
0.0001710579
0.00017112996
0.00017116767
0.00017117466
0.0001711539
0.0001711078
0.00017103832
0.000170947
0.00017083513
0.00017070372
0.00017055358
0.00017038545
0.00017019998
0.00016999778
0.00016977969
0.00016954663
0.00016929985
0.0001690413
0.00016877349
0.00016850048
0.00016822816
0.00016796509
0.0001677262
0.00016753175
0.0001674189
0.00016744989
0.00016772848
0.0001684387
0.00016989777
0.00017284725
0.00017848257
0.00018990359
0.00021298415
0.00026003004
0.00035329385
0.00051974343
0.00077746966
0.0011341225
0.0015784945
0.0020843757
0.0026227109
0.0031705569
0.0037126048
0.0042391294
0.0047441294
0.0052241471
0.0056774327
0.006103374
0.0065021139
0.0068742873
0.0072208409
0.0075429093
0.0078417296
0.0081185829
0.0083747539
0.008611504
0.0088300543
0.0090315747
0.0092171775
0.0093879144
0.0095447757
0.0096886908
0.0098205296
0.0099411058
0.010051179
0.010151457
0.010242602
0.010325231
0.010399919
0.010467209
0.010527596
0.010581583
0.010629567
0.0106721
0.010709391
0.010742377
0.010770439
0.01079721
0.010816165
0.010841329
0.00015452382
0.00015565472
0.00015684495
0.00015804221
0.00015920371
0.00016030043
0.00016132066
0.00016226418
0.0001631349
0.0001639369
0.00016467313
0.00016534507
0.00016595331
0.00016649824
0.00016698093
0.0001674034
0.00016776857
0.00016807995
0.0001683416
0.00016855776
0.00016873259
0.00016886994
0.0001689733
0.00016904572
0.00016908982
0.0001691078
0.00016910151
0.00016907248
0.00016902199
0.00016895109
0.00016886063
0.00016875135
0.00016862387
0.00016847873
0.00016831649
0.00016813774
0.00016794314
0.00016773361
0.00016751031
0.00016727494
0.00016702995
0.00016677871
0.00016652666
0.00016628117
0.00016605386
0.00016586364
0.00016573879
0.00016572607
0.00016590635
0.0001664382
0.00016753903
0.00016972721
0.00017397068
0.00018235552
0.00019946196
0.00023367443
0.00030437843
0.00043763913
0.00065514489
0.00096953789
0.001375918
0.0018518544
0.0023685301
0.0029013949
0.0034334493
0.0039537139
0.0044552728
0.004933988
0.005387603
0.0058151228
0.0062163966
0.0065918311
0.0069421948
0.0072684815
0.0075718166
0.0078533917
0.0081144203
0.0083561075
0.0085796295
0.008786121
0.0089766665
0.0091522962
0.0093139838
0.0094626465
0.0095991455
0.0097242889
0.0098388327
0.0099434859
0.01003891
0.010125729
0.010204518
0.010275848
0.010340195
0.010398159
0.010450045
0.010496798
0.010537923
0.010577183
0.010607074
0.010649079
0.00015386936
0.00015481794
0.00015581548
0.00015682239
0.00015780439
0.0001587364
0.00015960688
0.0001604144
0.00016116227
0.00016185524
0.00016249778
0.00016309313
0.00016364312
0.00016414853
0.0001646097
0.00016502707
0.00016540139
0.00016573383
0.00016602611
0.00016628032
0.00016649878
0.00016668385
0.00016683782
0.00016696283
0.00016706081
0.00016713344
0.00016718221
0.0001672084
0.0001672131
0.00016719722
0.00016716157
0.0001671068
0.00016703349
0.00016694211
0.00016683312
0.00016670695
0.00016656403
0.00016640487
0.00016623009
0.00016604049
0.00016583721
0.00016562178
0.0001653965
0.00016516454
0.0001649305
0.00016470142
0.00016448758
0.00016430426
0.00016417501
0.00016414235
0.00016426761
0.00016467138
0.00016555274
0.00016727777
0.00017065744
0.00017709116
0.00019019719
0.0002165845
0.00027167356
0.00037988223
0.00056524948
0.00084403062
0.0012166949
0.0016647581
0.0021603148
0.0026777982
0.0031988632
0.0037114839
0.0042079787
0.0046836347
0.0051357603
0.0055630261
0.0059650209
0.0063419461
0.0066944063
0.0070232634
0.0073295362
0.0076143299
0.0078787882
0.008124059
0.0083512728
0.0085615264
0.0087558743
0.0089353227
0.009100826
0.0092532869
0.0093935557
0.0095224334
0.0096406709
0.0097489782
0.009848013
0.0099384207
0.010020762
0.010095689
0.010163606
0.010225478
0.010280929
0.01033388
0.010375747
0.010436142
0.00015330462
0.00015410447
0.00015494499
0.00015579612
0.00015663041
0.00015742625
0.00015817233
0.00015886576
0.00015950838
0.00016010429
0.00016065823
0.00016117454
0.00016165644
0.000162106
0.00016252435
0.00016291206
0.00016326938
0.00016359655
0.00016389394
0.00016416224
0.00016440231
0.00016461516
0.0001648019
0.00016496366
0.00016510152
0.00016521646
0.00016530943
0.00016538125
0.00016543265
0.0001654643
0.00016547675
0.0001654705
0.00016544598
0.00016540358
0.00016534362
0.00016526641
0.00016517226
0.00016506147
0.00016493438
0.00016479141
0.00016463312
0.00016446026
0.00016427389
0.00016407549
0.00016386715
0.0001636519
0.00016343415
0.00016322017
0.00016301874
0.00016284478
0.00016271853
0.00016267513
0.00016276666
0.00016309215
0.00016383576
0.00016526464
0.00016803132
0.0001732623
0.00018377697
0.00020512476
0.00024950326
0.00033905307
0.00049947301
0.00074920916
0.0010930288
0.0015161135
0.0019918633
0.0024942261
0.0030038816
0.0035079853
0.0039982457
0.0044694868
0.0049186599
0.0053441565
0.0057453433
0.0061222425
0.0064753131
0.0068052977
0.0071131169
0.007399795
0.0076664084
0.0079140498
0.0081438031
0.0083567276
0.0085538465
0.0087361407
0.0089045444
0.0090599451
0.0092031805
0.0093350459
0.0094562843
0.0095676186
0.0096696952
0.0097632272
0.0098487196
0.0099271641
0.0099983002
0.010066239
0.010121209
0.010201675
0.00015281488
0.00015349256
0.00015420423
0.00015492699
0.00015563894
0.0001563216
0.00015696419
0.00015756268
0.00015811735
0.00015863098
0.00015910767
0.00015955179
0.00015996727
0.0001603572
0.0001607238
0.00016106852
0.00016139214
0.00016169501
0.00016197728
0.00016223903
0.00016248041
0.00016270157
0.00016290275
0.00016308423
0.00016324632
0.00016338933
0.00016351357
0.00016361934
0.00016370693
0.0001637766
0.00016382861
0.00016386318
0.00016388051
0.00016388079
0.00016386419
0.00016383088
0.000163781
0.00016371471
0.00016363217
0.00016353359
0.00016341922
0.00016328941
0.00016314467
0.00016298569
0.00016281346
0.00016262942
0.0001624356
0.00016223492
0.00016203126
0.00016183087
0.00016164205
0.00016147796
0.00016135692
0.00016130914
0.00016138768
0.00016166726
0.00016230861
0.00016354566
0.00016590944
0.00017037946
0.00017921128
0.00019713625
0.00023408818
0.00031027895
0.00045170232
0.00067834652
0.0009982859
0.001399789
0.0018576328
0.0023456682
0.0028439599
0.003339087
0.0038223138