/*--------------------------------*- C++ -*----------------------------------*\
| =========                 |                                                 |
| \\      /  F ield         | OpenFOAM: The Open Source CFD Toolbox           |
|  \\    /   O peration     | Version:  2206                                  |
|   \\  /    A nd           | Website:  www.openfoam.com                      |
|    \\/     M anipulation  |                                                 |
\*---------------------------------------------------------------------------*/
FoamFile
{
    version     2.0;
    format      ascii;
    arch        "LSB;label=32;scalar=64";
    class       volScalarField;
    location    "1900";
    object      nut;
}
// * * * * * * * * * * * * * * * * * * * * * * * * * * * * * * * * * * * * * //

dimensions      [0 2 -1 0 0 0 0];

internalField   nonuniform List<scalar> 
7480
(
1.6141201e-05
2.2441002e-05
2.3613715e-05
2.2660867e-05
2.1078362e-05
1.9614813e-05
1.8488009e-05
1.7630727e-05
1.6943313e-05
1.6361726e-05
1.5857499e-05
1.5418962e-05
1.5038482e-05
1.4709067e-05
1.4424057e-05
1.4176767e-05
1.3961942e-05
1.3775331e-05
1.3612714e-05
1.347056e-05
1.3344567e-05
1.3231767e-05
1.3129593e-05
1.3035937e-05
1.2949401e-05
1.2868819e-05
1.2793388e-05
1.2722291e-05
1.2654788e-05
1.259025e-05
1.252833e-05
1.2468812e-05
1.2411448e-05
1.2356034e-05
1.2302332e-05
1.2250212e-05
1.2199367e-05
1.2149723e-05
1.2101168e-05
1.2053569e-05
1.2006838e-05
1.1960894e-05
1.1915673e-05
1.1871136e-05
1.1827233e-05
1.1783931e-05
1.174118e-05
1.1698928e-05
1.1657147e-05
1.1615805e-05
1.157488e-05
1.1534356e-05
1.1494216e-05
1.1454449e-05
1.1415038e-05
1.1375969e-05
1.1337233e-05
1.1298812e-05
1.1260686e-05
1.1222846e-05
1.1185292e-05
1.1148022e-05
1.1111027e-05
1.1074302e-05
1.1037844e-05
1.1001647e-05
1.0965703e-05
1.0930004e-05
1.0894548e-05
1.0859332e-05
1.0824352e-05
1.0789603e-05
1.0755084e-05
1.0720792e-05
1.0686723e-05
1.0652874e-05
1.0619239e-05
1.0585816e-05
1.0552601e-05
1.051959e-05
1.048678e-05
1.0454165e-05
1.0421741e-05
1.0389504e-05
1.0357446e-05
1.032556e-05
1.0293838e-05
1.0262267e-05
1.0230837e-05
1.0199518e-05
1.0168313e-05
1.0137119e-05
1.0106036e-05
1.0074656e-05
1.0043559e-05
1.0011125e-05
9.9796389e-06
9.9435447e-06
9.9145793e-06
9.8586064e-06
1.676526e-06
5.1485283e-06
8.7914416e-06
1.1681773e-05
1.3403371e-05
1.4480729e-05
1.5238451e-05
1.5812001e-05
1.6226273e-05
1.6524499e-05
1.6752135e-05
1.6941428e-05
1.7109867e-05
1.7265366e-05
1.741271e-05
1.7544221e-05
1.7669921e-05
1.779664e-05
1.7923984e-05
1.8046528e-05
1.8161749e-05
1.8267035e-05
1.8360407e-05
1.8442441e-05
1.8514979e-05
1.8578808e-05
1.8635856e-05
1.8684712e-05
1.8725064e-05
1.8757254e-05
1.8782749e-05
1.8802518e-05
1.8816998e-05
1.882675e-05
1.8831563e-05
1.8832254e-05
1.8827959e-05
1.8819864e-05
1.8808119e-05
1.8792798e-05
1.8774064e-05
1.8752142e-05
1.8727319e-05
1.8699797e-05
1.8669769e-05
1.8637456e-05
1.860287e-05
1.8566137e-05
1.8527396e-05
1.8486765e-05
1.8444417e-05
1.8400467e-05
1.8355037e-05
1.8308245e-05
1.8260155e-05
1.8210889e-05
1.8160516e-05
1.8109084e-05
1.8056627e-05
1.8003231e-05
1.7949001e-05
1.7894011e-05
1.7838314e-05
1.7781964e-05
1.7725027e-05
1.7667552e-05
1.7609563e-05
1.75511e-05
1.7492218e-05
1.7432961e-05
1.7373363e-05
1.7313455e-05
1.7253275e-05
1.7192865e-05
1.7132247e-05
1.7071446e-05
1.7010487e-05
1.6949397e-05
1.6888198e-05
1.6826915e-05
1.6765565e-05
1.670417e-05
1.6642747e-05
1.6581313e-05
1.6519883e-05
1.6458472e-05
1.639709e-05
1.6335752e-05
1.6274457e-05
1.6213238e-05
1.6152039e-05
1.6090999e-05
1.6029816e-05
1.5969118e-05
1.5907614e-05
1.584775e-05
1.5785093e-05
1.5726401e-05
1.566835e-05
1.5562976e-05
4.6038476e-07
4.7763067e-07
9.5024035e-07
2.22002e-06
4.1426922e-06
6.4067127e-06
8.5101201e-06
1.0323781e-05
1.2007172e-05
1.3628124e-05
1.5179159e-05
1.6642008e-05
1.8008773e-05
1.9285743e-05
2.048454e-05
2.1631052e-05
2.2726765e-05
2.376579e-05
2.4744091e-05
2.5659768e-05
2.6513659e-05
2.730679e-05
2.8038556e-05
2.8714763e-05
2.9340206e-05
2.9916128e-05
3.0455962e-05
3.0953001e-05
3.141045e-05
3.1830194e-05
3.2217764e-05
3.2576045e-05
3.2906944e-05
3.3213011e-05
3.3494068e-05
3.3753934e-05
3.3989702e-05
3.4206896e-05
3.4405248e-05
3.4585596e-05
3.4749003e-05
3.4896563e-05
3.5029412e-05
3.5148492e-05
3.5254711e-05
3.5348996e-05
3.5431635e-05
3.5503309e-05
3.5564655e-05
3.5616242e-05
3.565875e-05
3.5692707e-05
3.571865e-05
3.5737098e-05
3.5748385e-05
3.5753009e-05
3.5751307e-05
3.5743549e-05
3.5729955e-05
3.5710885e-05
3.5686745e-05
3.5657848e-05
3.5624436e-05
3.558676e-05
3.5545093e-05
3.5499655e-05
3.545059e-05
3.539809e-05
3.5342378e-05
3.5283642e-05
3.5222043e-05
3.5157724e-05
3.5090852e-05
3.5021598e-05
3.4950081e-05
3.4876418e-05
3.4800731e-05
3.4723141e-05
3.4643759e-05
3.456269e-05
3.4480036e-05
3.4395894e-05
3.4310353e-05
3.4223503e-05
3.4135425e-05
3.4046203e-05
3.3955909e-05
3.3864633e-05
3.3772416e-05
3.367941e-05
3.3585519e-05
3.3491211e-05
3.3395747e-05
3.3301003e-05
3.3203581e-05
3.3110575e-05
3.3010005e-05
3.2923461e-05
3.2829571e-05
3.2666031e-05
6.8845602e-06
1.2114421e-06
4.5799553e-07
4.0627658e-07
5.917629e-07
9.4210803e-07
1.7995379e-06
3.1752704e-06
4.8676956e-06
6.6117268e-06
8.3635952e-06
1.0248119e-05
1.2275671e-05
1.4408739e-05
1.6588568e-05
1.8761699e-05
2.0889482e-05
2.2950421e-05
2.4936225e-05
2.6843416e-05
2.8667856e-05
3.0405538e-05
3.2056858e-05
3.3620264e-05
3.5097525e-05
3.6488116e-05
3.7796134e-05
3.9026799e-05
4.0183006e-05
4.1271727e-05
4.2296306e-05
4.3260861e-05
4.4169063e-05
4.5026296e-05
4.5833861e-05
4.6596884e-05
4.7304961e-05
4.7974392e-05
4.8599776e-05
4.9185303e-05
4.973303e-05
5.0245132e-05
5.0723781e-05
5.1170849e-05
5.1588251e-05
5.1977854e-05
5.2340137e-05
5.2676786e-05
5.2989049e-05
5.3278151e-05
5.3545513e-05
5.379225e-05
5.4019545e-05
5.422852e-05
5.4419913e-05
5.4594841e-05
5.4754039e-05
5.4898129e-05
5.5027635e-05
5.5143374e-05
5.5246226e-05
5.5336891e-05
5.5415916e-05
5.54839e-05
5.5541454e-05
5.5589085e-05
5.5627143e-05
5.5656085e-05
5.5676419e-05
5.5688569e-05
5.5692915e-05
5.5689801e-05
5.5679615e-05
5.5662759e-05
5.5639515e-05
5.5610171e-05
5.5575019e-05
5.5534344e-05
5.5488415e-05
5.5437489e-05
5.5381808e-05
5.5321608e-05
5.5257113e-05
5.5188537e-05
5.5116087e-05
5.5039966e-05
5.4960362e-05
5.4877485e-05
5.4791479e-05
5.4702645e-05
5.4610928e-05
5.4517109e-05
5.4420195e-05
5.4323068e-05
5.4220894e-05
5.4124182e-05
5.4015645e-05
5.3928926e-05
5.3826846e-05
5.3653678e-05
6.6762577e-05
1.8903029e-05
5.4009048e-06
2.1090213e-06
1.1040268e-06
7.3870888e-07
6.4068686e-07
7.2691586e-07
9.4716672e-07
1.4827156e-06
2.4031493e-06
3.5610105e-06
5.0037681e-06
6.640324e-06
8.5177325e-06
1.0678553e-05
1.3101846e-05
1.572493e-05
1.8464473e-05
2.1239242e-05
2.3988364e-05
2.6677161e-05
2.9290707e-05
3.1820379e-05
3.4258549e-05
3.6597825e-05
3.8835085e-05
4.0971058e-05
4.3010538e-05
4.4956012e-05
4.6808998e-05
4.8572399e-05
5.0249668e-05
5.1841924e-05
5.3354546e-05
5.4794039e-05
5.615766e-05
5.7452424e-05
5.8681671e-05
5.9846445e-05
6.0949135e-05
6.1993385e-05
6.2982156e-05
6.3917993e-05
6.4803852e-05
6.5642511e-05
6.6435659e-05
6.7184535e-05
6.7890663e-05
6.8556067e-05
6.9183054e-05
6.9773291e-05
7.03285e-05
7.0850472e-05
7.1340683e-05
7.1801121e-05
7.2232855e-05
7.2636921e-05
7.3014193e-05
7.3366134e-05
7.3694209e-05
7.3999559e-05
7.4283104e-05
7.4545915e-05
7.478903e-05
7.5013314e-05
7.5219373e-05
7.5408032e-05
7.5580175e-05
7.5736529e-05
7.5877765e-05
7.6004495e-05
7.6117422e-05
7.6217255e-05
7.6304494e-05
7.6379663e-05
7.6443293e-05
7.6495896e-05
7.6537957e-05
7.6569943e-05
7.6592298e-05
7.6605453e-05
7.6609815e-05
7.6605781e-05
7.6593731e-05
7.6574038e-05
7.6547053e-05
7.651315e-05
7.6472624e-05
7.642596e-05
7.6373206e-05
7.6315438e-05
7.6251563e-05
7.6185227e-05
7.6110738e-05
7.6040875e-05
7.5954866e-05
7.5895762e-05
7.5812035e-05
7.5675279e-05
0.00017633135
9.8156062e-05
4.5162179e-05
2.0923253e-05
1.0408657e-05
5.6946001e-06
3.4039539e-06
2.2134263e-06
1.5611179e-06
1.2208247e-06
1.1059637e-06
1.1581891e-06
1.3473944e-06
1.8496616e-06
2.6449404e-06
3.7373224e-06
5.19526e-06
6.9637648e-06
9.0995791e-06
1.1623612e-05
1.4494678e-05
1.7622862e-05
2.0898642e-05
2.4222443e-05
2.7525559e-05
3.0770723e-05
3.3939382e-05
3.7019058e-05
4.0000472e-05
4.2877862e-05
4.5648959e-05
4.831373e-05
5.0873059e-05
5.3327293e-05
5.5678641e-05
5.7931725e-05
6.0087328e-05
6.214897e-05
6.4120368e-05
6.6004408e-05
6.7804414e-05
6.9522633e-05
7.1161874e-05
7.2725137e-05
7.4214714e-05
7.563284e-05
7.6983658e-05
7.826991e-05
7.9494464e-05
8.0659734e-05
8.1767816e-05
8.2820562e-05
8.3820324e-05
8.4769339e-05
8.5669884e-05
8.6524966e-05
8.7335628e-05
8.8103375e-05
8.8829964e-05
8.9517483e-05
9.0167519e-05
9.0781628e-05
9.1361123e-05
9.1907398e-05
9.2422165e-05
9.2906765e-05
9.3362056e-05
9.3789345e-05
9.4189945e-05
9.4564907e-05
9.4915242e-05
9.5241879e-05
9.5545916e-05
9.5828425e-05
9.609014e-05
9.6331885e-05
9.6554481e-05
9.6758713e-05
9.6945335e-05
9.711507e-05
9.7268609e-05
9.7406624e-05
9.7529755e-05
9.7638622e-05
9.7733823e-05
9.7815942e-05
9.7885535e-05
9.7943181e-05
9.7989364e-05
9.8024784e-05
9.8049641e-05
9.8065299e-05
9.8070678e-05
9.8070009e-05
9.8057148e-05
9.8046347e-05
9.8014451e-05
9.8012467e-05
9.797245e-05
9.791943e-05
0.00024905112
0.00019691881
0.00013564444
8.6750453e-05
5.4037977e-05
3.3855265e-05
2.1587784e-05
1.4075724e-05
9.4089461e-06
6.4152153e-06
4.4947739e-06
3.2222517e-06
2.3879771e-06
1.8920525e-06
1.6478795e-06
1.6074161e-06
1.734224e-06
2.1998694e-06
2.9861386e-06
4.1396158e-06
5.7530643e-06
7.7819759e-06
1.0296846e-05
1.3287952e-05
1.6679731e-05
2.0347916e-05
2.415916e-05
2.8006773e-05
3.1826039e-05
3.5584783e-05
3.9264852e-05
4.2851838e-05
4.6334968e-05
4.9708038e-05
5.2968465e-05
5.6116339e-05
5.9151231e-05
6.207409e-05
6.4887073e-05
6.7592417e-05
7.0192718e-05
7.2690328e-05
7.5087758e-05
7.7387796e-05
7.9593038e-05
8.1705878e-05
8.3729761e-05
8.5667878e-05
8.7523376e-05
8.9299163e-05
9.0997832e-05
9.2622445e-05
9.4175301e-05
9.5658645e-05
9.7075078e-05
9.8426101e-05
9.9714967e-05
0.00010094427
0.00010211669
0.00010323411
0.00010429852
0.00010531188
0.00010627582
0.00010719239
0.00010806382
0.00010889172
0.00010967714
0.00011042197
0.00011112778
0.00011179614
0.00011242857
0.00011302657
0.00011359124
0.00011412389
0.00011462569
0.00011509783
0.00011554145
0.00011595766
0.00011634749
0.00011671196
0.00011705206
0.00011736872
0.00011766285
0.00011793533
0.00011818701
0.00011841873
0.00011863126
0.00011882544
0.00011900197
0.00011916179
0.00011930528
0.00011943411
0.00011954728
0.0001196495
0.00011973442
0.00011981729
0.00011987312
0.00011996044
0.00011999019
0.00012007063
0.00028175555
0.00025931705
0.0002194202
0.00017381689
0.00013198614
9.8133169e-05
7.2102104e-05
5.2825231e-05
3.8690531e-05
2.8338636e-05
2.0783792e-05
1.5245904e-05
1.1170199e-05
8.1671085e-06
5.9911928e-06
4.4213725e-06
3.3237746e-06
2.6265189e-06
2.2361291e-06
2.106307e-06
2.2010407e-06
2.7075327e-06
3.5930021e-06
4.950113e-06
6.8609819e-06
9.3169565e-06
1.236107e-05
1.5939676e-05
1.9925383e-05
2.4159235e-05
2.8499495e-05
3.2851404e-05
3.7164411e-05
4.1411026e-05
4.5571084e-05
4.9629536e-05
5.3576959e-05
5.7408495e-05
6.1121708e-05
6.4715405e-05
6.8189736e-05
7.1545609e-05
7.478433e-05
7.7907692e-05
8.0917751e-05
8.3816555e-05
8.6606797e-05
8.9291399e-05
9.1873392e-05
9.4355761e-05
9.6741291e-05
9.9033012e-05
0.00010123365
0.00010334577
0.00010537215
0.0001073149
0.00010917702
0.00011096142
0.00011267107
0.00011430846
0.00011587597
0.00011737593
0.00011881095
0.00012018295
0.00012149362
0.0001227452
0.00012394041
0.00012508097
0.00012616872
0.0001272056
0.00012819345
0.00012913413
0.00013002916
0.00013088028
0.00013168888
0.00013245652
0.00013318468
0.00013387478
0.00013452818
0.00013514622
0.00013573017
0.00013628127
0.00013680073
0.0001372897
0.00013774931
0.00013818066
0.0001385848
0.00013896283
0.00013931568
0.00013964457
0.00013995011
0.00014023423
0.00014049611
0.00014074083
0.00014096203
0.00014117566
0.00014135508
0.00014156673
0.00014169398
0.00014196016
0.00029427629
0.00028831933
0.00026985076
0.00024074142
0.0002066219
0.00017270352
0.00014157329
0.00011494944
9.2688137e-05
7.4344714e-05
5.9346695e-05
4.7131585e-05
3.7193738e-05
2.9147779e-05
2.2662345e-05
1.7448942e-05
1.3270576e-05
9.997867e-06
7.4884506e-06
5.6129076e-06
4.2496253e-06
3.3614055e-06
2.8466882e-06
2.6563912e-06
2.8160719e-06
3.4548073e-06
4.5920272e-06
6.3534413e-06
8.7467e-06
1.183068e-05
1.5572194e-05
1.984576e-05
2.4470944e-05
2.9273714e-05
3.4130179e-05
3.8971051e-05
4.3758821e-05
4.846754e-05
5.3077587e-05
5.7576384e-05
6.1956916e-05
6.6214908e-05
7.0347699e-05
7.4354228e-05
7.8234532e-05
8.1989178e-05
8.5619487e-05
8.9127371e-05
9.251512e-05
9.5785245e-05
9.8940266e-05
0.00010198292
0.00010491594
0.00010774192
0.00011046365
0.00011308355
0.00011560442
0.00011802925
0.00012036112
0.00012260287
0.00012475718
0.00012682668
0.00012881413
0.00013072195
0.00013255226
0.00013430745
0.00013599034
0.00013760321
0.00013914826
0.0001406277
0.00014204373
0.00014339851
0.00014469409
0.00014593215
0.00014711477
0.00014824376
0.0001493209
0.00015034793
0.00015132654
0.00015225838
0.00015314502
0.00015398803
0.00015478889
0.00015554907
0.00015626998
0.00015695301
0.00015759949
0.00015821079
0.00015878811
0.00015933295
0.00015984615
0.00016032996
0.00016078372
0.00016121287
0.00016161114
0.00016199503
0.00016233623
0.0001627099
0.0001629646
0.00016347136
0.00029817258
0.00029956526
0.00029387712
0.00027953031
0.00025808359
0.00023264709
0.00020588579
0.00017969636
0.0001552968
0.00013322132
0.00011359374
9.6327231e-05
8.1221112e-05
6.8101823e-05
5.6727659e-05
4.6876411e-05
3.8369825e-05
3.1053715e-05
2.4814597e-05
1.9547055e-05
1.5144277e-05
1.1574086e-05
8.7508051e-06
6.5844628e-06
5.0142171e-06
3.9881071e-06
3.4229507e-06
3.2566507e-06
3.6570827e-06
4.6024534e-06
6.2243842e-06
8.598634e-06
1.1752803e-05
1.5679267e-05
2.0251451e-05
2.5267034e-05
3.0522596e-05
3.5869546e-05
4.1222658e-05
4.653497e-05
5.1774598e-05
5.6918e-05
6.194986e-05
6.6860938e-05
7.1645215e-05
7.6298781e-05
8.0819677e-05
8.5207313e-05
8.9462045e-05
9.3584955e-05
9.7577545e-05
0.00010144173
0.00010517967
0.00010879365
0.00011228612
0.00011565941
0.00011891611
0.00012205901
0.00012509111
0.00012801533
0.00013083451
0.00013355139
0.00013616885
0.00013868957
0.000141116
0.00014345067
0.00014569649
0.00014785609
0.00014993195
0.00015192656
0.00015384238
0.00015568184
0.00015744732
0.00015914087
0.00016076479
0.0001623212
0.00016381222
0.00016523987
0.00016660615
0.00016791302
0.00016916235
0.000170356
0.00017149577
0.00017258342
0.00017362064
0.00017460911
0.00017555046
0.00017644632
0.0001772982
0.00017810785
0.00017887641
0.00017960636
0.00018029732
0.00018095501
0.00018157331
0.00018216925
0.00018271267
0.0001832886
0.00018370311
0.00018450797
0.00029879881
0.00030281351
0.00030338887
0.00029844657
0.00028752753
0.00027166495
0.00025248768
0.00023155166
0.00021013916
0.00018915643
0.0001691681
0.00015048522
0.00013324651
0.00011735413
0.00010280564
8.9549518e-05
7.7503797e-05
6.6574717e-05
5.6692068e-05
4.7812624e-05
3.9846106e-05
3.2754076e-05
2.6508327e-05
2.1065293e-05
1.6413412e-05
1.2566334e-05
9.4914792e-06
7.1237865e-06
5.4836804e-06
4.4575515e-06
3.9680216e-06
4.097625e-06
4.8908586e-06
6.438774e-06
8.850666e-06
1.214303e-05
1.6318679e-05
2.1238098e-05
2.667232e-05
3.2391332e-05
3.8228484e-05
4.4087997e-05
4.9915685e-05
5.5674406e-05
6.1337419e-05
6.6887367e-05
7.2313292e-05
7.7607868e-05
8.2766476e-05
8.7786614e-05
9.2667124e-05
9.7407907e-05
0.00010200965
0.00010647351
0.00011080107
0.0001149941
0.00011905462
0.00012298497
0.00012678777
0.00013046576
0.00013402166
0.00013745819
0.00014077817
0.00014398435
0.00014707936
0.00015006581
0.00015294662
0.0001557246
0.00015840244
0.00016098283
0.00016346841
0.00016586182
0.00016816569
0.00017038237
0.00017251435
0.00017456405
0.00017653384
0.00017842601
0.00018024286
0.00018198659
0.00018365938
0.00018526336
0.00018680062
0.00018827318
0.00018968305
0.00019103218
0.00019232247
0.00019355584
0.00019473407
0.0001958592
0.00019693262
0.00019795713
0.00019893255
0.0001998649
0.00020074827
0.00020160018
0.00020238844
0.00020320926
0.00020381849
0.00020498165
0.0002984993
0.00030298601
0.00030603281
0.00030604742
0.00030203481
0.00029387044
0.00028212113
0.00026766329
0.00025141662
0.0002341995
0.00021666778
0.00019930609
0.00018246213
0.00016629432
0.00015090869
0.00013637075
0.00012270473
0.00010990856
9.792037e-05
8.6654976e-05
7.6097887e-05
6.6237155e-05
5.7054303e-05
4.85623e-05
4.0759834e-05
3.3655913e-05
2.7270935e-05
2.1600464e-05
1.6744832e-05
1.2731679e-05
9.5378165e-06
7.2083097e-06
5.6710919e-06
4.8313318e-06
4.7217687e-06
5.4122985e-06
6.966054e-06
9.4986397e-06
1.303011e-05
1.7551849e-05
2.2893938e-05
2.8794139e-05
3.5000456e-05
4.1337302e-05
4.7704671e-05
5.4043752e-05
6.0313709e-05
6.6486053e-05
7.2542343e-05
7.8470473e-05
8.4262266e-05
8.9912612e-05
9.5418544e-05
0.0001007785
0.00010599199
0.00011105924
0.0001159811
0.0001207589
0.00012539447
0.00012988993
0.00013424759
0.00013846985
0.00014255924
0.00014651841
0.00015034993
0.00015405639
0.00015764061
0.00016110541
0.00016445357
0.00016768787
0.00017081106
0.0001738259
0.00017673515
0.00017954142
0.00018224734
0.00018485554
0.00018736859
0.00018978902
0.00019211934
0.00019436201
0.00019651945
0.00019859403
0.00020058811
0.00020250397
0.00020434386
0.00020611002
0.00020780461
0.00020942981
0.00021098769
0.00021248053
0.00021391002
0.00021527919
0.00021658816
0.00021784318
0.00021903856
0.00022019239
0.00022127018
0.00022238069
0.00022322206
0.00022480652
0.00029823993
0.00030235468
0.00030598425
0.00030811997
0.00030789955
0.00030481788
0.00029881133
0.00029015489
0.00027930821
0.00026679751
0.00025313725
0.00023878184
0.00022411558
0.00020941911
0.0001948951
0.00018069326
0.00016691994
0.0001536498
0.00014091376
0.00012869588
0.00011698974
0.00010579386
9.5115724e-05
8.4898565e-05
7.5093728e-05
6.5724302e-05
5.6819464e-05
4.8398899e-05
4.0544736e-05
3.3315253e-05
2.673516e-05
2.0930403e-05
1.600773e-05
1.199739e-05
8.9850676e-06
6.9431918e-06
5.7643213e-06
5.4814595e-06
6.1384826e-06
7.8039149e-06
1.0568911e-05
1.4471017e-05
1.9460252e-05
2.5315289e-05
3.1736479e-05
3.8459155e-05
4.5310059e-05
5.2190932e-05
5.9040716e-05
6.581681e-05
7.2490591e-05
7.9043502e-05
8.5462999e-05
9.1740594e-05
9.787083e-05
0.00010385028
0.00010967704
0.00011535037
0.00012087041
0.00012623799
0.00013145441
0.00013652133
0.00014144067
0.00014621463
0.00015084547
0.00015533556
0.00015968746
0.00016390383
0.00016798738
0.00017194083
0.00017576693
0.00017946845
0.00018304822
0.00018650895
0.00018985337
0.00019308423
0.00019620424
0.00019921611
0.0002021225
0.00020492607
0.00020762943
0.00021023517
0.00021274585
0.00021516398
0.00021749204
0.00021973251
0.00022188778
0.00022396031
0.00022595237
0.00022786654
0.00022970474
0.00023147026
0.00023316348
0.00023479089
0.00023634703
0.00023785056
0.00023926454
0.00024071157
0.00024182497
0.0002438965
0.00029837749
0.00030187229
0.00030528256
0.00030801688
0.00030950126
0.00030925765
0.00030700061
0.00030265858
0.00029633414
0.00028825031
0.000278698
0.0002679892
0.00025642954
0.00024429038
0.00023179852
0.00021913965
0.00020646309
0.00019388829
0.00018150441
0.00016936355
0.00015749834
0.0001459317
0.0001346907
0.00012377249
0.00011315069
0.00010281811
9.2790435e-05
8.3051148e-05
7.3531671e-05
6.4287176e-05
5.5361279e-05
4.68399e-05
3.8847134e-05
3.1441171e-05
2.4774317e-05
1.9020961e-05
1.4256734e-05
1.0632335e-05
8.1470256e-06
6.6873694e-06
6.3449856e-06
7.0724944e-06
8.992363e-06
1.2135136e-05
1.6565328e-05
2.2155328e-05
2.8614361e-05
3.5608496e-05
4.2874927e-05
5.0253689e-05
5.7652818e-05
6.5012118e-05
7.2290011e-05
7.9458946e-05
8.6500504e-05
9.340203e-05
0.00010015505
0.00010675401
0.00011319543
0.00011947739
0.00012559909
0.00013156058
0.00013736255
0.00014300622
0.00014849313
0.00015382508
0.00015900412
0.00016403253
0.00016891271
0.00017364717
0.00017823849
0.00018268934
0.00018700245
0.00019118053
0.00019522633
0.00019914261
0.00020293215
0.00020659774
0.00021014214
0.00021356813
0.00021687846
0.00022007586
0.00022316306
0.00022614276
0.00022901762
0.00023179031
0.00023446345
0.00023703968
0.00023952154
0.00024191179
0.00024421261
0.00024642752
0.00024855717
0.00025060821
0.00025257549
0.00025447824
0.00025627688
0.00025810914
0.00025953677
0.00026216398
0.00029901109
0.0003018812
0.00030480895
0.00030744936
0.00030946363
0.00031052421
0.00031035677
0.00030877426
0.00030568953
0.00030111313
0.00029513727
0.00028790981
0.00027961115
0.00027043226
0.00026055775
0.00025015672
0.00023937881
0.000228354
0.00021719273
0.00020598173
0.00019478675
0.00018365746
0.00017263761
0.00016175821
0.00015103075
0.00014045947
0.00013005669
0.00011983086
0.00010974564
9.9795824e-05
9.0004071e-05
8.034187e-05
7.0786977e-05
6.1405548e-05
5.2276935e-05
4.3591607e-05
3.5435868e-05
2.8004229e-05
2.1522806e-05
1.6102798e-05
1.1992018e-05
9.1772824e-06
7.5501899e-06
7.3076905e-06
8.2626966e-06
1.0621564e-05
1.4350992e-05
1.947793e-05
2.5784986e-05
3.2913034e-05
4.0513205e-05
4.8342987e-05
5.6261674e-05
6.4184086e-05
7.2052709e-05
7.9828902e-05
8.7487022e-05
9.5009474e-05
0.00010238418
0.00010960299
0.00011666052
0.00012355341
0.00013027979
0.0001368389
0.00014323077
0.00014945603
0.00015551577
0.00016141149
0.00016714499
0.0001727183
0.0001781336
0.00018339327
0.0001884998
0.00019345574
0.0001982637
0.00020292639
0.00020744652
0.00021182687
0.00021607022
0.00022017939
0.00022415718
0.00022800642
0.00023172994
0.00023533055
0.00023881106
0.00024217427
0.00024542298
0.00024856
0.00025158804
0.00025451008
0.00025732851
0.00026004701
0.00026266653
0.00026519385
0.00026762412
0.00026997717
0.00027221063
0.00027447855
0.00027626479
0.00027951906
0.00030013907
0.00030246265
0.00030487846
0.00030717585
0.00030916086
0.00031064207
0.00031143366
0.00031136539
0.00031029848
0.00030814303
0.00030486629
0.00030048832
0.00029507203
0.0002887107
0.00028151518
0.00027360307
0.00026509079
0.00025608903
0.00024670031
0.0002370156
0.00022711254
0.00021705561
0.00020690026
0.00019669346
0.00018647012
0.00017625392
0.00016606489
0.00015592313
0.00014582855
0.000135776
0.00012577539
0.00011581983
0.00010588152
9.5959955e-05
8.6098292e-05
7.6216243e-05
6.6378402e-05
5.6693261e-05
4.7362902e-05
3.8516e-05
3.0416883e-05
2.3324015e-05
1.7382593e-05
1.2957237e-05
9.9691407e-06
8.3712738e-06
8.3529957e-06
9.7964567e-06
1.2782639e-05
1.7334638e-05
2.3344339e-05
3.0477282e-05
3.832437e-05
4.6554302e-05
5.4961657e-05
6.3427134e-05
7.1873796e-05
8.0249593e-05
8.8519839e-05
9.6660939e-05
0.00010465663
0.00011249582
0.00012017103
0.00012767731
0.00013501159
0.00014217211
0.0001491581
0.00015596961
0.00016260727
0.00016907219
0.00017536584
0.00018148998
0.00018744664
0.000193238
0.00019886639
0.00020433425
0.00020964414
0.00021479869
0.00021980059
0.0002246526
0.0002293575
0.00023391812
0.00023833731
0.00024261794
0.00024676289
0.00025077505
0.00025465732
0.00025841265
0.00026204388
0.00026555414
0.000268946
0.0002722233
0.00027538723
0.00027844467
0.0002813911
0.00028424692
0.00028696691
0.00028972248
0.00029191372
0.00029586913
0.0003017272
0.00030359848
0.0003055576
0.00030746686
0.00030920979
0.0003106813
0.0003117783
0.00031239041
0.00031240228
0.00031170778
0.00031022476
0.00030790276
0.0003047246
0.00030070358
0.0002958779
0.00029030376
0.0002840485
0.00027718524
0.00026978921
0.0002619341
0.0002536892
0.00024511739
0.00023627524
0.00022721364
0.00021797647
0.00020859939
0.00019911162
0.0001895399
0.00017990223
0.00017020725
0.00016046486
0.0001506809
0.00014084793
0.00013095485
0.0001210213
0.00011100713
0.00010089878
9.0730393e-05
8.049102e-05
7.0182914e-05
5.9948244e-05
5.001261e-05
4.0531001e-05
3.1877359e-05
2.4288135e-05
1.8041981e-05
1.3462317e-05
1.0484197e-05
9.2859088e-06
9.7218498e-06
1.1904763e-05
1.5784275e-05
2.1369123e-05
2.8382807e-05
3.6386412e-05
4.4963678e-05
5.3830735e-05
6.2822085e-05
7.183606e-05
8.0804912e-05
8.9683558e-05
9.8441687e-05
0.00010705841
0.00011551932
0.00012381452
0.00013193721
0.0001398829
0.00014764874
0.00015523316
0.00016263556
0.00016985605
0.00017689533
0.00018375454
0.00019043518
0.00019693902
0.00020326806
0.00020942448
0.00021541062
0.00022122893
0.00022688199
0.00023237246
0.00023770304
0.00024287654
0.00024789578
0.00025276363
0.00025748303
0.0002620569
0.00026648826
0.00027078004
0.00027493547
0.00027895725
0.00028284932
0.00028661311
0.00029025553
0.00029377243
0.00029718475
0.00030044436
0.00030374099
0.00030638545
0.00031111866
0.00030373646
0.00030524131
0.00030681885
0.0003083732
0.0003098273
0.00031112109
0.00031220397
0.00031301944
0.00031349698
0.00031355607
0.00031311659
0.00031210807
0.00031047647
0.00030818766
0.00030522791
0.00030160208
0.00029733011
0.00029244354
0.00028698234
0.00028099191
0.00027452016
0.00026761511
0.00026032338
0.00025268952
0.00024475512
0.00023655757
0.0002281296
0.00021950084
0.00021069643
0.00020173498
0.00019263154
0.0001833984
0.00017404115
0.0001645566
0.0001549525
0.00014521854
0.00013533644
0.00012530882
0.00011512475
0.00010475525
9.4227378e-05
8.3568619e-05
7.2744813e-05
6.1958361e-05
5.1426389e-05
4.1404475e-05
3.2296563e-05
2.4338925e-05
1.8061407e-05
1.3585433e-05
1.0933342e-05
1.0338378e-05
1.1608893e-05
1.4783836e-05
1.9872332e-05
2.6678021e-05
3.4762169e-05
4.3637783e-05
5.2936932e-05
6.2438117e-05
7.2009909e-05
8.1566837e-05
9.1051996e-05
0.00010042728
0.00010966652
0.00011875157
0.00012766977
0.00013641233
0.00014497326
0.0001533486
0.00016153592
0.00016953392
0.00017734218
0.00018496097
0.00019239107
0.00019963367
0.0002066903
0.00021356276
0.0002202531
0.00022676352
0.00023309638
0.00023925419
0.00024523955
0.00025105515
0.00025670378
0.00026218829
0.00026751157
0.00027267664
0.00027768647
0.00028254429
0.0002872529
0.0002918163
0.00029623611
0.00030051924
0.00030466189
0.0003086855
0.00031253905
0.00031643138
0.00031957893
0.00032516909
0.00030613281
0.00030734229
0.00030860875
0.00030986252
0.00031104736
0.00031212407
0.00031306821
0.00031385671
0.00031445649
0.00031482144
0.00031489581
0.00031461982
0.00031393577
0.00031279337
0.00031115328
0.00030898884
0.00030628587
0.0003030417
0.00029926381
0.00029496799
0.0002901764
0.00028491556
0.00027921478
0.00027310487
0.00026661711
0.00025978217
0.00025262907
0.00024518515
0.00023747561
0.00022952217
0.00022134324
0.00021295451
0.00020436799
0.00019558906
0.00018662399
0.00017747354
0.00016812927
0.00015858585
0.00014883637
0.00013886008
0.0001286489
0.0001182069
0.00010748894
9.6539195e-05
8.5375107e-05
7.3997524e-05
6.2644332e-05
5.1517516e-05
4.1059884e-05
3.1625176e-05
2.3597555e-05
1.7526296e-05
1.3423411e-05
1.1633661e-05
1.1901694e-05
1.4351668e-05
1.8880941e-05
2.5401161e-05
3.3496168e-05
4.2624261e-05
5.2331784e-05
6.2331718e-05
7.245633e-05
8.2599733e-05
9.2691951e-05
0.00010268629
0.00011255077
0.00012226319
0.00013180805
0.00014117449
0.00015035497
0.00015934437
0.00016813936
0.00017673792
0.00018513906
0.00019334259
0.0002013489
0.00020915889
0.00021677385
0.00022419537
0.00023142534
0.00023846584
0.00024531914
0.00025198766
0.00025847396
0.00026478073
0.00027091074
0.0002768669
0.00028265213
0.00028826962
0.0002937222
0.00029901384
0.00030414636
0.00030912654
0.00031395101
0.00031864162
0.00032314446
0.00032768826
0.0003313902
0.00033791872
0.00030888941
0.00030986009
0.00031087447
0.00031188073
0.00031283506
0.00031370769
0.00031448465
0.00031515866
0.00031571908
0.00031614639
0.00031641102
0.00031647473
0.00031629369
0.00031582248
0.00031501786
0.00031384171
0.00031226273
0.00031025741
0.00030781029
0.00030491365
0.0003015667
0.0002977746
0.00029354739
0.00028889895
0.00028384608
0.00027840752
0.00027260306
0.00026645283
0.00025997686
0.00025319412
0.00024612204
0.00023877626
0.00023117042
0.00022331429
0.00021521574
0.00020687996
0.00019830637
0.00018949171
0.00018043137
0.00017111327
0.0001615235
0.00015165635
0.00014148309
0.00013099714
0.0001201968
0.0001090389
9.7597168e-05
8.5833631e-05
7.3857812e-05
6.1897106e-05
5.0271665e-05
3.9511551e-05
2.9909665e-05
2.2233767e-05
1.6658348e-05
1.3423493e-05
1.2698121e-05
1.4361333e-05
1.8319707e-05
2.4531975e-05
3.2605477e-05
4.1959667e-05
5.2061364e-05
6.2554677e-05
7.3231222e-05
8.3962466e-05
9.4664336e-05
0.00010528102
0.00011577453
0.00012611851
0.00013629454
0.00014628959
0.00015609455
0.00016570309
0.00017511092
0.00018431531
0.00019331467
0.00020210832
0.0002106963
0.00021907919
0.00022725803
0.00023523422
0.00024300949
0.00025058578
0.00025796529
0.00026515038
0.00027214357
0.00027894757
0.00028556515
0.00029199937
0.00029825303
0.00030432997
0.00031023216
0.0003159662
0.00032152913
0.00032694318
0.00033215153
0.00033740348
0.00034171237
0.00034926278
0.00031198598
0.0003127624
0.00031357197
0.00031437579
0.00031513869
0.00031583573
0.00031645615
0.00031699802
0.00031746081
0.00031784026
0.00031812561
0.00031829836
0.00031833273
0.00031819734
0.00031785766
0.00031727845
0.00031642581
0.00031526885
0.00031378095
0.00031194049
0.00030973108
0.00030714148
0.00030416535
0.00030080079
0.00029704979
0.00029291765
0.00028841234
0.00028354383
0.00027832356
0.00027276377
0.0002668769
0.00026067506
0.00025416973
0.00024737068
0.00024028607
0.00023292233
0.00022528272
0.00021736735
0.00020917418
0.00020069692
0.00019192478
0.00018284889
0.0001734506
0.00016371198
0.00015362217
0.00014314519
0.00013228825
0.0001210208
0.00010932638
9.7296019e-05
8.4854958e-05
7.2252319e-05
5.9668134e-05
4.7723248e-05
3.6790817e-05
2.7492742e-05
2.0419529e-05
1.5776385e-05
1.4001461e-05
1.4813607e-05
1.8182189e-05
2.4072912e-05
3.2109447e-05
4.1677272e-05
5.2167715e-05
6.3154351e-05
7.4385353e-05
8.5708213e-05
9.7024264e-05
0.00010826828
0.00011939607
0.00013037703
0.00014118971
0.00015181895
0.00016225399
0.00017248728
0.00018251359
0.00019232942
0.00020193262
0.00021132203
0.00022049731
0.00022945875
0.00023820713
0.00024674368
0.00025506996
0.00026318782
0.00027109937
0.00027880697
0.00028631311
0.0002936206
0.00030073211
0.00030765129
0.00031438017
0.0003209251