/*--------------------------------*- C++ -*----------------------------------*\
| =========                 |                                                 |
| \\      /  F ield         | OpenFOAM: The Open Source CFD Toolbox           |
|  \\    /   O peration     | Version:  2206                                  |
|   \\  /    A nd           | Website:  www.openfoam.com                      |
|    \\/     M anipulation  |                                                 |
\*---------------------------------------------------------------------------*/
FoamFile
{
    version     2.0;
    format      ascii;
    arch        "LSB;label=32;scalar=64";
    class       volScalarField;
    location    "1900";
    object      p;
}
// * * * * * * * * * * * * * * * * * * * * * * * * * * * * * * * * * * * * * //

dimensions      [0 2 -2 0 0 0 0];

internalField   nonuniform List<scalar> 
7480
(
0.063010545
0.052122177
0.036724147
0.027334891
0.02201349
0.018806392
0.016775681
0.015220181
0.013856644
0.012720344
0.011818467
0.011109108
0.0105709
0.01017711
0.0098962024
0.0097057871
0.0095853115
0.0095197888
0.0094927915
0.0094863461
0.0095031438
0.0095235024
0.0095379579
0.009548194
0.0095523295
0.0095491333
0.0095393444
0.0095231444
0.0094991023
0.0094677454
0.0094303358
0.0093873839
0.0093393222
0.0092869555
0.0092303382
0.0091695153
0.0091047982
0.0090361752
0.008963872
0.0088883494
0.0088097125
0.0087278619
0.008643334
0.0085562097
0.0084664832
0.0083745392
0.0082801896
0.0081835591
0.0080848394
0.0079838019
0.0078807723
0.0077757164
0.0076686594
0.0075597528
0.0074487844
0.0073359686
0.0072212124
0.0071045301
0.0069859032
0.0068652937
0.0067428058
0.0066183091
0.0064919059
0.0063634887
0.0062330899
0.0061006598
0.0059661696
0.0058295871
0.0056908862
0.0055500617
0.0054070679
0.0052619025
0.00511452
0.0049649321
0.0048130883
0.004659001
0.0045026286
0.0043440052
0.0041831021
0.004019974
0.0038546168
0.0036871096
0.0035175101
0.0033458989
0.0031724512
0.0029972897
0.0028207498
0.0026430266
0.0024648227
0.0022862658
0.0021092717
0.0019326584
0.001763596
0.0015923462
0.0014501039
0.0012835991
0.0012269845
0.0010220938
0.0018364514
-0.0018381171
0.059322603
0.051121099
0.038789463
0.029477449
0.023134359
0.019304495
0.017020381
0.015372359
0.013971903
0.012820009
0.011907242
0.011188217
0.010641795
0.010240196
0.0099517219
0.009754457
0.0096281035
0.009557477
0.0095268369
0.0095220673
0.0095329398
0.0095464797
0.0095585551
0.0095667752
0.0095691043
0.0095643587
0.0095532241
0.0095358204
0.0095107103
0.009478426
0.0094402046
0.009396523
0.0093478047
0.0092948455
0.0092376886
0.0091763779
0.0091112216
0.0090421999
0.0089695312
0.0088936747
0.0088147296
0.0087325946
0.0086478049
0.0085604366
0.0084704834
0.0083783282
0.0082837812
0.0081869672
0.0080880758
0.0079868771
0.0078836968
0.0077784987
0.007671308
0.0075622752
0.0074511875
0.0073382591
0.0072233965
0.0071066136
0.0069878915
0.0068671918
0.0067446182
0.0066200401
0.0064935595
0.0063650686
0.0062345999
0.0061021032
0.0059675497
0.0058309069
0.0056921487
0.0055512695
0.0054082235
0.0052630084
0.0051155785
0.0049659453
0.0048140583
0.0046599298
0.0045035182
0.0043448572
0.0041839183
0.0040207561
0.0038553663
0.003687828
0.0035181988
0.0033465593
0.0031730847
0.0029978975
0.0028213332
0.0026435869
0.0024653611
0.0022867837
0.0021097705
0.0019331393
0.0017640617
0.0015927972
0.0014505461
0.0012840334
0.001227423
0.0010226138
0.0018368635
-0.001837554
0.055558196
0.048817462
0.038029551
0.029248117
0.023396169
0.019814561
0.017517194
0.015774632
0.014290371
0.013088189
0.012138835
0.011389026
0.010818698
0.010396906
0.010090974
0.0098791675
0.0097399729
0.0096577553
0.0096170009
0.0096039873
0.0096038297
0.0096094317
0.009615193
0.0096176661
0.0096149626
0.0096059315
0.0095910788
0.0095702802
0.0095421263
0.0095071962
0.0094666724
0.0094209247
0.0093703509
0.009315717
0.0092570387
0.0091943375
0.0091279287
0.0090577854
0.0089840794
0.0089072783
0.0088274665
0.0087445352
0.0086590174
0.0085709758
0.0084804007
0.00838767
0.0082925861
0.008195276
0.0080959239
0.0079942953
0.0078907158
0.0077851442
0.0076776045
0.0075682446
0.0074568495
0.0073436333
0.0072284995
0.0071114616
0.0069924995
0.0068715739
0.0067487873
0.0066240076
0.0064973368
0.006368666
0.0062380271
0.0061053693
0.0059706631
0.0058338758
0.0056949805
0.0055539713
0.0054108019
0.0052654695
0.0051179282
0.0049681893
0.0048162016
0.0046619775
0.004505475
0.0043467276
0.0041857064
0.0040224659
0.0038570017
0.0036893926
0.003519696
0.0033479925
0.003174457
0.002999212
0.002822593
0.0026447949
0.0024665204
0.0022878969
0.0021108416
0.00193417
0.0017650598
0.0015937604
0.0014514942
0.0012849552
0.0012283723
0.0010235647
0.0018379426
-0.0018368222
0.052653098
0.047111232
0.037783063
0.029564286
0.02397177
0.020367248
0.017976658
0.016183137
0.014666081
0.013434232
0.012451466
0.011666629
0.011067415
0.010620056
0.010290795
0.010058234
0.0098998367
0.0098004012
0.0097445254
0.0097181494
0.0097066408
0.009702559
0.0096996743
0.0096944891
0.0096848956
0.0096697675
0.0096495325
0.0096238159
0.0095912233
0.0095524034
0.0095084328
0.0094595504
0.009406146
0.0093489525
0.0092879365
0.0092230352
0.0091546326
0.0090827118
0.0090073345
0.0089290151
0.0088478088
0.0087635931
0.0086769
0.0085877711
0.0084961919
0.0084025305
0.008306576
0.0082084616
0.0081083623
0.0080060365
0.0079018104
0.0077956344
0.0076875311
0.0075776437
0.007465753
0.0073520736
0.0072365039
0.0071190558
0.006999708
0.0068784203
0.0067552932
0.0066301919
0.0065032179
0.0063742609
0.0062433518
0.0061104382
0.0059754902
0.0058384741
0.0056993623
0.0055581479
0.0054147839
0.0052692671
0.0051215509
0.0049716459
0.0048195006
0.0046651268
0.0045084821
0.0043495997
0.0041884502
0.0040250877
0.0038595076
0.0036917883
0.0035219871
0.0033501841
0.0031765542
0.0030012196
0.0028245157
0.0026466372
0.0024682872
0.0022895922
0.0021124714
0.0019357372
0.0017665749
0.0015952216
0.0014529277
0.0012863471
0.0012297969
0.0010249336
0.0018396067
-0.0018358412
0.049905434
0.045282302
0.037329059
0.029923157
0.024609916
0.020949892
0.018436518
0.016547975
0.014959874
0.013711326
0.012725437
0.011933201
0.011318042
0.010848396
0.010499258
0.010248794
0.010073972
0.0099596579
0.0098883797
0.0098470721
0.0098227798
0.0098071692
0.0097949358
0.0097821178
0.0097657332
0.0097444364
0.0097186697
0.0096878951
0.0096506524
0.009607659
0.0095598663
0.0095074203
0.0094507272
0.0093905267
0.0093267491
0.009259223
0.0091884215
0.0091143344
0.0090369116
0.008956718
0.0088737794
0.0087879599
0.0086997935
0.0086092953
0.0085164472
0.0084216076
0.0083245453
0.008225401
0.0081243417
0.0080211184
0.0079160596
0.0078091034
0.0077002718
0.0075897031
0.0074771726
0.0073628958
0.0072467624
0.0071287835
0.0070089364
0.0068871804
0.0067636135
0.0066380967
0.0065107314
0.0063814051
0.0062501476
0.0061169043
0.0059816444
0.0058443336
0.0057049431
0.0055634648
0.0054198505
0.0052740965
0.0051261556
0.0049760377
0.0048236901
0.0046691244
0.0045122975
0.0043532421
0.0041919283
0.0040284099
0.0038626815
0.0036948214
0.0035248864
0.0033529564
0.0031792059
0.0030037568
0.0028269446
0.0026489633
0.0024705166
0.0022917302
0.002114525
0.0019377106
0.0017684795
0.0015970573
0.0014547204
0.0012880864
0.0012315594
0.001026629
0.0018416751
-0.0018346211
0.047317897
0.043332968
0.036634536
0.030056897
0.025035139
0.021436681
0.018883432
0.016940305
0.015316241
0.014027924
0.013002412
0.012170037
0.011528755
0.011040694
0.010682691
0.010420778
0.010228805
0.010103628
0.010023123
0.0099732789
0.0099414865
0.0099172473
0.0098960606
0.0098745894
0.0098502276
0.0098221353
0.0097909376
0.0097555554
0.0097140951
0.0096673037
0.0096159735
0.009560125
0.0095001898
0.009436957
0.0093703363
0.0093001102
0.0092268146
0.0091504139
0.0090708047
0.0089885873
0.0089037568
0.0088161636
0.0087263559
0.0086343174
0.0085400271
0.0084438458
0.0083455204
0.0082451979
0.0081430375
0.0080387786
0.0079327544
0.0078248898
0.0077152082
0.0076038433
0.0074905653
0.0073755893
0.0072587941
0.0071401916
0.0070197583
0.0068974521
0.0067733674
0.0066473609
0.006519534
0.0063897722
0.0062581042
0.0061244721
0.0059888441
0.0058511858
0.0057114667
0.0055696771
0.0054257678
0.0052797343
0.0051315289
0.0049811602
0.0048285745
0.0046737829
0.0045167416
0.0043574828
0.0041959759
0.004032274
0.0038663714
0.003698346
0.0035282538
0.0033561746
0.0031822825
0.003006699
0.0028297594
0.0026516575
0.002473097
0.002294203
0.0021168977
0.0019399887
0.0017706739
0.0015991706
0.0014567747
0.0012900768
0.0012335556
0.0010285581
0.0018440144
-0.001833203
0.045038599
0.041453025
0.035767763
0.029973834
0.025307847
0.021832885
0.019276162
0.017302223
0.015668223
0.014354968
0.013300727
0.01244078
0.011768467
0.011249644
0.010862901
0.010573917
0.010359363
0.010221312
0.010132821
0.010074979
0.010036143
0.010008305
0.0099853125
0.0099620108
0.0099346956
0.0099019834
0.0098653002
0.0098244268
0.0097779229
0.0097271423
0.009672608
0.0096138463
0.0095511562
0.0094853259
0.0094161761
0.0093434812
0.0092678613
0.0091892367
0.0091074848
0.0090232663
0.0089365351
0.0088471284
0.0087556258
0.0086619772
0.0085661606
0.0084685506
0.0083688743
0.0082672895
0.0081639445
0.0080585623
0.0079514858
0.0078426264
0.0077320087
0.0076197635
0.0075056535
0.0073898964
0.0072723625
0.0071530649
0.0070319772
0.0069090541
0.0067843873
0.006657829
0.0065294814
0.006399228
0.0062670963
0.0061330243
0.0059969798
0.0058589279
0.0057188364
0.005576694
0.0054324505
0.0052861003
0.0051375947
0.0049869413
0.0048340853
0.0046790373
0.0045217527
0.004362263
0.0042005368
0.0040366267
0.0038705264
0.0037023131
0.0035320426
0.0033597939
0.003185741
0.0030100049
0.0028329206
0.0026546815
0.0024759914
0.0022969749
0.0021195549
0.0019425376
0.0017731248
0.0016015287
0.001459057
0.0012922844
0.0012357485
0.0010306792
0.0018465682
-0.0018315924
0.04307106
0.039801629
0.034876775
0.029751296
0.025451678
0.022131704
0.019607847
0.017627882
0.015991018
0.014660078
0.013585498
0.012708474
0.01201441
0.011470676
0.011060758
0.01074738
0.010507878
0.010348406
0.01023919
0.010162901
0.010110363
0.010075167
0.010049136
0.010023656
0.0099962194
0.0099651619
0.0099297835
0.009889367
0.0098413525
0.0097874484
0.0097291906
0.0096667903
0.0096010653
0.0095328653
0.0094616235
0.0093869184
0.0093094143
0.0092289288
0.009145314
0.0090593141
0.0089708412
0.0088797327
0.0087866155
0.0086914053
0.0085940897
0.0084950604
0.008394022
0.0082911541
0.0081865951
0.0080800514
0.0079718821
0.0078619828
0.00775038
0.0076372028
0.007522204
0.0074056087
0.0072872816
0.0071672365
0.0070454424
0.0069218507
0.0067965512
0.0066693919
0.0065404764
0.0064096846
0.0062770433
0.006142488
0.0060059858
0.0058675005
0.0057269981
0.0055844665
0.0054398539
0.0052931537
0.0051443157
0.0049933468
0.0048401911
0.0046848589
0.0045273042
0.0043675581
0.0042055883
0.004041447
0.0038751268
0.0037067048
0.0035362358
0.0033637987
0.0031895667
0.0030136606
0.0028364149
0.0026580228
0.0024791878
0.0023000343
0.0021224852
0.0019453467
0.0017758213
0.0016041208
0.0014615559
0.0012946974
0.0012381238
0.0010329739
0.0018493057
-0.0018297731
0.041334654
0.03837891
0.034071449
0.029496883
0.025523584
0.022359369
0.019888035
0.017918504
0.01628656
0.014947927
0.013859523
0.012967954
0.012254192
0.011690081
0.011257158
0.010922888
0.010665281
0.010485699
0.010357139
0.010263921
0.010196689
0.010147589
0.010109224
0.010073197
0.010039023
0.010006591
0.0099714591
0.0099315757
0.0098865515
0.0098358078
0.00977978
0.0097177171
0.009650421
0.0095796851
0.0095057719
0.0094287408
0.0093494878
0.009267513
0.0091824541
0.0090950886
0.0090052322
0.0089127141
0.008818221
0.008721632
0.0086229585
0.0085226186
0.0084202934
0.0083161975
0.0082104618
0.0081027774
0.0079935257
0.0078825855
0.0077699895
0.0076558657
0.0075399572
0.0074224996
0.0073033501
0.0071825253
0.007059991
0.0069356962
0.0068097292
0.0066819337
0.0065524153
0.006421049
0.0062878618
0.0061527887
0.0060157956
0.005876844
0.0057358987
0.0055929466
0.0054479346
0.0053008551
0.0051516565
0.0050003449
0.0048468634
0.0046912216
0.0045333727
0.0043733471
0.0042111114
0.0040467174
0.0038801569
0.0037115064
0.0035408203
0.0033681766
0.0031937484
0.0030176557
0.0028402328
0.0026616725
0.002482678
0.0023033734
0.0021256814
0.0019484086
0.0017787563
0.00160694
0.0014642637
0.0012973076
0.0012406713
0.0010354298
0.0018521993
-0.0018277221
0.039770778
0.037116301
0.033345102
0.029249405
0.02556858
0.022551961
0.020138786
0.018186559
0.016563032
0.015221661
0.014122989
0.013219047
0.01248861
0.011906243
0.011452203
0.011098649
0.010823559
0.010624243
0.01047806
0.010370119
0.010289173
0.010227007
0.010177781
0.010132503
0.010089943
0.010049781
0.010007236
0.0099613548
0.0099145788
0.0098647435
0.0098103317
0.009751312
0.0096876471
0.0096196955
0.0095470443
0.0094693999
0.0093884584
0.0093045527
0.0092177721
0.0091291427
0.0090382205
0.008944668
0.0088491773
0.008751541
0.0086517869
0.0085503649
0.0084469317
0.0083417515
0.008234953
0.0081262147
0.0080159495
0.0079040195
0.0077904684
0.0076754248
0.0075586226
0.0074403109
0.0073203385
0.0071987277
0.0070754421
0.0069504298
0.006823778
0.0066953262
0.0065651832
0.0064332194
0.0062994628
0.0061638469
0.0060263377
0.0058868946
0.0057454812
0.0056020834
0.0054566471
0.005309164
0.0051595809
0.0050079031
0.0048540731
0.0046980997
0.0045399352
0.0043796091
0.0042170875
0.0040524213
0.0038856017
0.0037167048
0.003545784
0.003372917
0.0031982763
0.0030219815
0.0028443664
0.0026656234
0.0024864553
0.0023069861
0.0021291376
0.0019517179
0.0017819244
0.0016099808
0.0014671743
0.0013001088
0.0012433831
0.0010380366
0.001855223
-0.0018254122
0.038347394
0.035966729
0.032662944
0.028998075
0.025592731
0.022721834
0.020372058
0.018442341
0.016829021
0.015486941
0.014379778
0.013464706
0.012719305
0.012119878
0.011646533
0.011274331
0.010981995
0.010764107
0.010601249
0.010477963
0.010383208
0.010308951
0.010249345
0.010195555
0.01014549
0.010098393
0.010049526
0.0099984518
0.0099467242
0.0098919123
0.0098328503
0.0097716964
0.0097088335
0.0096427793
0.0095728617
0.0094988132
0.0094208076
0.00933855
0.0092516759
0.0091618992
0.0090695627
0.0089747676
0.0088783842
0.0087799827
0.0086794842
0.008577315
0.0084730671
0.0083670535
0.0082593987
0.0081497719
0.0080386301
0.0079258197
0.0078114029
0.0076955121
0.0075778723
0.0074587511
0.0073379885
0.0072156147
0.0070915928
0.0069658713
0.0068385377
0.0067094273
0.006578654
0.0064460841
0.0063117469
0.0061755748
0.0060375339
0.0058975828
0.0057556839
0.0056118224
0.0054659432
0.0053180376
0.005168051
0.0050159881
0.0048617907
0.004705467
0.0045469683
0.0043863238
0.0042234984
0.0040585428
0.0038914473
0.0037222875
0.0035511161
0.0033780103
0.0032031422
0.0030266306
0.0028488092
0.0026698697
0.0024905145
0.0023108679
0.0021328496
0.0019552708
0.0017853217
0.0016132395
0.0014702835
0.0013030964
0.0012462527
0.0010407859
0.0018583515
-0.0018228118
0.037044102
0.034906657
0.032005813
0.028729313
0.025588304
0.022866087
0.020587788
0.018687533
0.017087451
0.015746841
0.014632864
0.013707565
0.01294819
0.012332482
0.011840819
0.01145042
0.011141106
0.010905404
0.010725917
0.010587406
0.010479284
0.010393158
0.010322766
0.010260131
0.010202464
0.010148663
0.010094474
0.010038877
0.0099826387
0.0099235812
0.0098610114
0.009796558
0.0097302421
0.0096606226
0.0095885261
0.0095150944
0.0094389372
0.0093592212
0.009275785
0.0091888587
0.0090981484
0.0090034297
0.0089062089
0.0088067539
0.0087053868
0.0086025967
0.0084977921
0.0083912478
0.0082830285
0.0081727677
0.0080609685
0.0079474578
0.0078323253
0.0077157119
0.0075973361
0.0074774904
0.0073560064
0.0072329256
0.0071082115
0.0069818153
0.0068538261
0.0067240756
0.0065926846
0.006459516
0.0063246014
0.0061878722
0.006049296
0.0059088306
0.0057664378
0.0056221024
0.0054757689
0.0053274282
0.0051770247
0.0050245628
0.0048699834
0.0047132947
0.004554447
0.004393469
0.004230325
0.0040650652
0.0038976789
0.0037282417
0.0035568055
0.0033834469
0.0032083376
0.0030315959
0.0028535549
0.0026744062
0.0024948512
0.0023150146
0.0021368138
0.001959064
0.0017889452
0.0016167134
0.0014735878
0.0013062667
0.001249275
0.0010436704
0.0018615594
-0.001819884
0.035845679
0.033922693
0.031367065
0.028438184
0.02554987
0.022979679
0.020781646
0.018919088
0.01733694
0.016001022
0.014882524
0.013948256
0.013175969
0.012544776
0.012035607
0.011627511
0.011301425
0.011048331
0.010852352
0.010698827
0.010577271
0.010479173
0.010398063
0.010326523
0.010261081
0.010200365
0.010140598
0.010080173
0.010019548
0.0099569412
0.0098914698
0.0098241707
0.0097549165
0.0096826465
0.0096081849
0.0095322289
0.0094532996
0.0093717426
0.0092889176
0.0092037622
0.0091154986
0.0090239874
0.0089293828
0.0088312718
0.0087299322
0.0086264729
0.0085208788
0.0084137642
0.0083051326
0.0081944754
0.008082286
0.0079683256
0.007852698
0.0077355497
0.0076165936
0.0074961553
0.0073740593
0.0072503637
0.0071250341
0.0069980266
0.0068694342
0.0067390853
0.0066071101
0.0064733687
0.0063378964
0.0062006244
0.0060615221
0.0059205477
0.005777663
0.005632853
0.0054860618
0.0053372808
0.0051864536
0.0050335845
0.0048786139
0.00472155
0.0045623424
0.0044010196
0.0042375451
0.004071969
0.0039042799
0.0037345531
0.0035628397
0.003389216
0.0032138534
0.0030368694
0.0028585969
0.002679227
0.0024994603
0.0023194223
0.0021410268
0.0019630945
0.001792792
0.0016203998
0.001477084
0.0013096165
0.0012524449
0.0010466831
0.0018648194
-0.0018165871
0.034739893
0.033005688
0.030745231
0.028125332
0.025476192
0.023059708
0.020949838
0.019133343
0.017574786
0.016247622
0.01512756
0.014186136
0.01340232
0.012756658
0.012230897
0.011805697
0.011463095
0.011193009
0.010980768
0.010812333
0.010677295
0.01056715
0.010475292
0.010394645
0.01032136
0.010253676
0.010188048
0.010122588
0.010057498
0.0099912028
0.0099226007
0.0098524423
0.0097806725
0.0097063617
0.0096299704
0.0095518808
0.009470931
0.0093876264
0.0093028587
0.0092154901
0.0091258877
0.0090350866
0.0089421946
0.0088465072
0.0087480915
0.0086468908
0.0085422405
0.0084350206
0.00832584
0.0082146234
0.0081020704
0.0079878288
0.0078719337
0.0077544849
0.0076351616
0.0075143185
0.0073917689
0.0072675926
0.0071417605
0.0070142373
0.0068851228
0.0067542431
0.0066217406
0.0064874732
0.0063514818
0.0062136979
0.006074094
0.0059326295
0.0057892669
0.005643992
0.0054967494
0.0053475313
0.005196281
0.0050430032
0.004887638
0.0047301941
0.0045706205
0.0044089458
0.0042451328
0.0040792318
0.0039112305
0.0037412044
0.003569204
0.003395305
0.0032196785
0.0030424418
0.0028639272
0.0026843254
0.0025043362
0.0023240859
0.0021454842
0.0019673587
0.0017968586
0.0016242956
0.0014807687
0.0013131422
0.0012557572
0.0010498169
0.0018681021
-0.0018128738
0.033716507
0.032148629
0.030140734
0.027794069
0.025368928
0.023105496
0.021089947
0.019327199
0.017798208
0.016484381
0.015366255
0.014420023
0.013626438
0.012967606
0.012426326
0.011984743
0.011626005
0.011339367
0.01111114
0.010927923
0.010779433
0.010657215
0.010554547
0.01046463
0.010383351
0.010308569
0.010236902
0.010166322
0.010096679
0.010026481
0.0099545751
0.0098814739
0.0098071139
0.0097306137
0.0096522316
0.0095722946
0.0094898633
0.0094051963
0.0093188496
0.0092299494
0.0091389989
0.009046577
0.0089518571
0.0088554713
0.0087579171
0.0086583848
0.008556171
0.0084515062
0.0083440647
0.0082334087
0.0081206328
0.0080059475
0.0078897189
0.0077720582
0.007652542
0.0075315032
0.0074087028
0.0072842277
0.0071580496
0.007030144
0.0069006209
0.0067693065
0.0066363593
0.0065016359
0.0063651849
0.0062269389
0.006086875
0.0059449544
0.0058011415
0.0056554238
0.005507747
0.0053581047
0.0052064406
0.0050527604
0.0048970042
0.0047391816
0.0045792413
0.0044172123
0.0042530572
0.0040868264
0.0039185072
0.0037481752
0.0035758804
0.0034016983
0.0032257998
0.0030483016
0.0028695359
0.002689693
0.0025094717
0.0023289994
0.0021501808
0.001971852
0.0018011411
0.0016283973
0.0014846377
0.0013168398
0.0012592062
0.0010530638
0.0018713749
-0.0018086904
0.032766749
0.031345704
0.029554471
0.027448681
0.02523142
0.023118131
0.021201006
0.019498504
0.018004843
0.016709109
0.015596752
0.014648482
0.013847239
0.01317683
0.012621301
0.012164231
0.011789888
0.01148721
0.011243337
0.011045523
0.010883661
0.01074937
0.010635858
0.010536551
0.010447133
0.010365133
0.010287285
0.01021144
0.010137114
0.010062873
0.0099875506
0.0099114175
0.0098343507
0.0097555271
0.0096750725
0.009593242
0.0095092181
0.0094231285
0.0093354424
0.0092454634
0.009153479
0.0090598367
0.0089639575
0.0088664949
0.0087674592
0.0086664101
0.0085641798
0.0084605467
0.0083547547
0.008246564
0.0081359363
0.0080223823
0.0079063521
0.0077884314
0.0076685988
0.0075473755
0.0074244504
0.0072998547
0.0071735166
0.0070454008
0.006915621
0.0067840015
0.0066507213
0.0065156371
0.0063788088
0.0062401713
0.0060997075
0.005957382
0.0058131619
0.0056670373
0.0055189558
0.0053689135
0.0052168549
0.0050627873
0.0049066517
0.0047484587
0.0045881573
0.0044257776
0.0042612817
0.0040947207
0.0039260817
0.0037554409
0.0035828475
0.0034083772
0.0032322009
0.0030544348
0.0028754109
0.0026953194
0.0025148578
0.002334155
0.00215511
0.0019765687
0.001805634
0.0016327001
0.0014886861
0.0013207043
0.0012627851
0.0010564149
0.0018746014
-0.0018039768
0.031883003
0.030591872
0.028987202
0.027093467
0.025067734
0.023099865
0.021283292
0.019646121
0.018192984
0.016919969
0.015817318
0.014870039
0.014063519
0.013383385
0.012815082
0.012343601
0.011954351
0.011636239
0.011377148
0.011164992
0.010989889
0.010843564
0.010719203
0.010610419
0.010512744
0.010423421
0.01033926
0.010258002
0.010178877
0.010100479
0.01002162
0.0099423477
0.0098624728
0.0097812247
0.0096986131
0.0096148142
0.0095291023
0.0094415197
0.0093524556
0.0092613033
0.0091682553
0.0090736323
0.008976959
0.0088786348
0.0087786107
0.008676653
0.0085735022
0.0084684755
0.008361673
0.0082539234
0.0081445705
0.0080328843
0.0079190353
0.0078026918
0.0076834625
0.0075621802
0.0074390142
0.0073142563
0.007187834
0.0070596515
0.0069297811
0.006798017
0.0066645488
0.0065292293
0.0063921318
0.0062531959
0.006112413
0.0059697521
0.0058251845
0.0056787043
0.0055302615
0.0053798558
0.0052274332
0.0050730037
0.004916509
0.0047579623
0.0045973128
0.0044345921
0.0042697626
0.0041028764
0.0039339203
0.0037629716
0.0035900793
0.0034153191
0.003238862
0.0030608242
0.0028815373
0.0027011915
0.0025204832
0.0023395431
0.0021602632
0.0019815014
0.0018103309
0.0016371982
0.0014929076
0.0013247299
0.0012664862
0.0010598597
0.0018777405
-0.0017986653
0.031058612
0.029882674
0.02843935
0.026732283
0.024882039
0.023053549
0.021337953
0.019769788
0.018361604
0.01711559
0.016026493
0.015083343
0.014274094
0.013586281
0.01300685
0.012522205
0.012118912
0.011786079
0.01151229
0.011286125
0.011097974
0.010939705
0.010804524
0.010686208
0.010580182
0.010483447
0.010392853
0.01030605
0.010222017
0.010139352
0.010056838
0.0099743254
0.0098915558
0.0098077943
0.0097229456
0.0096371056
0.0095496255
0.0094604734
0.0093699619
0.0092775631
0.009183403
0.0090877609
0.0089902032
0.0088910453
0.0087902963
0.0086877272
0.0085838002
0.0084779706
0.0083704524
0.0082617423
0.0081511935
0.0080392949
0.0079261659
0.0078111365
0.0076939674
0.0075744789
0.0074522449
0.0073276675
0.0072011005
0.0070727771
0.0069428481
0.0068110495
0.00667754
0.0065421337
0.0064049037
0.006265789
0.0061247905
0.005981884
0.0058370468
0.0056902786
0.0055415331
0.0053908145
0.005238071
0.0050833161
0.0049264934
0.0047676186
0.0046066423
0.0044435979
0.0042784485
0.0041112479
0.0039419829
0.0037707322
0.0035975447
0.0034224966
0.0032457592
0.0030674487
0.0028878966
0.0027072935
0.002526334
0.0023451514
0.0021656299
0.0019866407
0.0018152231
0.001641884
0.0014972944
0.0013289091
0.0012703003
0.0010633862
0.0018807458
-0.0017926799
0.030287731
0.029214141
0.027911
0.026368388
0.024678266
0.022982235
0.021366656
0.019869888
0.018510258
0.01729506
0.016223146
0.015287241
0.014477887
0.013784562
0.013195784
0.012699362
0.012283033
0.0119363
0.01164843
0.011408668
0.011207728
0.01103766
0.010891728
0.010763862
0.010649419
0.010545197
0.010448067
0.010355603
0.010266562
0.010179522
0.010093241
0.010007392
0.0099216441
0.009835283
0.0097481208
0.0096601758
0.0095708594
0.009480075
0.0093880596
0.0092943515
0.0091990147
0.0091022851
0.0090037828
0.0089037652
0.0088022455
0.0086989833
0.0085943778
0.008488015
0.0083799749
0.0082705849
0.0081593811
0.0080468669
0.0079326886
0.0078168698
0.0077000405
0.0075816174
0.0074610243
0.0073382414
0.0072128458
0.0070849338
0.0069549745
0.0068230579
0.0066895046
0.006554095
0.0064168593
0.0062777013
0.0061366145
0.0059935754
0.0058485671
0.0057015964
0.0055526229
0.0054016564
0.0052486487
0.0050936175
0.0049365088
0.0047773421
0.0046160695
0.0044527272
0.0042872793
0.0041197818
0.0039502221
0.0037786808
0.0036052068
0.0034298771
0.0032528639
0.0030742832
0.0028944669
0.0027136058
0.0025323933
0.0023509651
0.0021711968
0.0019919751
0.0018203001
0.0016467481
0.0015018371
0.001333233
0.0012742163
0.0010669799
0.0018835647
-0.0017859357
0.029565211
0.028582733
0.027401957
0.026004448
0.024459969
0.02288894
0.02137133
0.019947228
0.018638941
0.017457857
0.016406457
0.015480804
0.014673963
0.013977354
0.013381092
0.01287439
0.012446158
0.012086443
0.011785196
0.011532331
0.011318932
0.011137263
0.010980694
0.010843297
0.010720401
0.01060864
0.010504889
0.01040666
0.010312517
0.010221006
0.010130852
0.010041575
0.0099527662
0.0098637217
0.0097741718
0.0096840599
0.0095928425
0.0095003672
0.0094067994
0.0093117291
0.0092151661
0.0091173024
0.0090178056
0.008916871
0.0088145134
0.0087105118
0.0086052171
0.0084982596
0.0083896599
0.0082797498
0.0081681321
0.0080550859
0.0079403362
0.0078240125
0.0077064232
0.007587095
0.007466421
0.0073443648
0.0072202394
0.0070940524
0.0069654273
0.0068341008
0.0067006132
0.0065651261
0.0064278612
0.0062887197
0.0061476525
0.006004603
0.0058595415
0.0057124744
0.0055633657
0.0054122326
0.0052590316
0.0051037864
0.0049464461
0.0047870348
0.0046255067
0.0044619015
0.0042961851
0.004128416
0.0039585827
0.0037867682
0.003613022
0.0034374221
0.0032601418
0.0030812974
0.0029012215
0.0027201051
0.0025386403
0.002356966
0.0021769478
0.0019974903
0.0018255491
0.0016517789
0.001506524
0.0013376907
0.0012782215
0.0010706242
0.0018861365
-0.0017783374
0.028886501
0.027985291
0.026911815
0.025642591
0.024230283
0.022776528
0.021353997
0.020002874
0.018747958
0.017603762
0.016575866
0.015663305
0.014861535
0.014163878
0.013562045
0.013046635
0.012607729
0.012236036
0.011922198
0.011656801
0.011431337
0.011238326
0.011071275
0.010924409
0.010793054
0.010673724
0.010563288
0.010459207
0.010359878
0.010263805
0.01016968
0.010076889
0.0099849396
0.0098931319
0.0098011222
0.0097087823
0.0096156008
0.0095213772
0.0094262091
0.0093297267
0.0092318933
0.0091328576
0.0090323247
0.0089304335
0.0088271981
0.0087224156
0.0086163771
0.0085087628
0.0083995764
0.0082891264
0.0081770273
0.0080634978
0.0079483764
0.007831677
0.0077135851
0.0075937774
0.0074725792
0.007349685
0.0072252309
0.0070994439
0.0069717701
0.0068420452
0.0067099464
0.0065751733
0.0064380704
0.0062988922
0.0061578082
0.0060147892
0.005869766
0.0057227129
0.0055735779
0.0054223771
0.0052690701
0.0051136873
0.0049561826
0.0047965857
0.0046348539
0.0044710311
0.0043050852
0.0041370784
0.0039670003
0.0037949372
0.0036209392
0.0034450862
0.0032675527
0.0030884559
0.0029081288
0.0027267634
0.0025450502
0.0023631321
0.0021828634
0.0020031688
0.0018309541
0.0016569621
0.0015113411
0.001342269
0.0012823006
0.0010742991
0.0018883931
-0.0017697787
0.028247567
0.027418996
0.026440026
0.025284481
0.023991931
0.02264766
0.021316683
0.020038047
0.01883783
0.017732778
0.016731024
0.01583419
0.015039949
0.014343453
0.013737974
0.013215478
0.012767205
0.012384609
0.012059037
0.011781747
0.011544677
0.011340637
0.011163308
0.011007073
0.010867289
0.010740383
0.010623217
0.010513212
0.010408625
0.01030791
0.010209727
0.010113337
0.010018173
0.0099235258
0.0098289869
0.009734359
0.0096391524
0.0095431244
0.0094463087
0.0093483655
0.0092492182
0.0091489733
0.0090473654
0.0089444846
0.0088403409
0.0087347441
0.0086279292
0.0085196232
0.0084098115
0.0082987615
0.008186133
0.0080721178
0.0079565748
0.007839469
0.0077210015
0.0076008851
0.00747928
0.0073559586
0.0072311361
0.0071046192
0.0069763901
0.0068468777
0.0067155901
0.0065821869
0.0064464454
0.0063080596
0.0061672167
0.0060242006
0.0058791745
0.0057321626
0.0055830796
0.0054319109
0.0052785982
0.0051231699
0.0049655822
0.0048058716
0.0046439993
0.0044800147
0.0043138884
0.0041456867
0.0039754011
0.0038031215
0.0036288995
0.0034528167
0.0032750497
0.0030957166
0.0029151515
0.0027335475
0.0025515938
0.0023694373
0.0021889203
0.0020089899
0.0018364963
0.0016622806
0.0015162717
0.0013469522
0.001286436
0.0010779816
0.0018902681
-0.0017601403
0.027644824
0.026881326
0.025985943
0.024931394
0.023747254
0.022504771
0.021261361
0.020054053
0.01890923
0.017845079
0.016871744
0.015993047
0.015208666
0.014515482
0.013908278
0.013380344
0.012924065
0.012531697
0.012195308
0.01190683
0.011658674
0.011443971
0.011256614
0.011091151
0.010943001
0.010808537
0.01068462
0.010568638
0.010458732
0.010353305
0.010250982
0.010150917
0.010052467
0.0099549084
0.0098577734
0.0097607996
0.009663509
0.009565622
0.009467112
0.0093676608
0.0092671569
0.0091656654
0.0090629447
0.0089590424
0.00885396
0.0087475187
0.0086399035
0.0085308799
0.0084204141
0.0083087354
0.0081955471
0.0080810045
0.007964982
0.0078474437
0.0077285829
0.0076081085
0.0074861472
0.0073625557
0.0072373992
0.0071105073
0.0069819647
0.0068518766
0.0067199905
0.0065866084
0.0064515256
0.0063143168
0.0061747843
0.0060326027
0.0058878746
0.0057408981
0.0055918256
0.005440707
0.0052874566
0.0051320733
0.004974495
0.0048147561
0.0046528191
0.0044887399
0.0043224923
0.0041541482
0.0039837013
0.0038112458
0.0036368349
0.0034605528
0.0032825784
0.0031030311
0.0029222464
0.0027404189
0.0025582364
0.0023758507
0.002195091
0.0020149289
0.001842153
0.001667714
0.001521296
0.0013517219
0.0012906072
0.0010816442
0.0018917052
-0.0017492875
0.027075078