/*--------------------------------*- C++ -*----------------------------------*\
| =========                 |                                                 |
| \\      /  F ield         | OpenFOAM: The Open Source CFD Toolbox           |
|  \\    /   O peration     | Version:  2206                                  |
|   \\  /    A nd           | Website:  www.openfoam.com                      |
|    \\/     M anipulation  |                                                 |
\*---------------------------------------------------------------------------*/
FoamFile
{
    version     2.0;
    format      ascii;
    arch        "LSB;label=32;scalar=64";
    class       surfaceScalarField;
    location    "1900";
    object      phi;
}
// * * * * * * * * * * * * * * * * * * * * * * * * * * * * * * * * * * * * * //

dimensions      [0 3 -1 0 0 0 0];

oriented        oriented;

internalField   nonuniform List<scalar> 
14782
(
0.00064615037
7.5283527e-05
-0.0007214339
0.00055262065
9.3529717e-05
0.00046313837
8.9482285e-05
0.00039128879
7.1849575e-05
0.00034010351
5.1185282e-05
0.00030404842
3.6055094e-05
0.00027731534
2.6733077e-05
0.00025619437
2.1120972e-05
0.00023870466
1.7489707e-05
0.00022396368
1.4740983e-05
0.00021149508
1.2468593e-05
0.00020091998
1.0575105e-05
0.00019193912
8.9808545e-06
0.00018429874
7.6403826e-06
0.00017777376
6.5249778e-06
0.00017218334
5.5904197e-06
0.00016737903
4.8043166e-06
0.0001632359
4.1431264e-06
0.00015964582
3.5900845e-06
0.00015649662
3.149194e-06
0.00015371462
2.7819994e-06
0.00015122313
2.49149e-06
0.00014896423
2.2589049e-06
0.00014689888
2.0653493e-06
0.00014499502
1.9038592e-06
0.00014322724
1.7677793e-06
0.00014157612
1.6511216e-06
0.00014002422
1.5519003e-06
0.00013855476
1.469461e-06
0.00013715613
1.3986259e-06
0.00013582155
1.3345852e-06
0.00013454478
1.2767695e-06
0.00013331975
1.2250295e-06
0.00013214143
1.1783132e-06
0.00013100524
1.1361939e-06
0.00012990592
1.0993218e-06
0.00012883929
1.0666294e-06
0.00012780279
1.0365023e-06
0.00012679328
1.0095117e-06
0.00012580834
9.8493858e-07
0.00012484601
9.6232382e-07
0.00012390423
9.4178768e-07
0.00012298184
9.2238721e-07
0.00012207769
9.0415277e-07
0.0001211905
8.8718302e-07
0.00012031947
8.7103682e-07
0.00011946322
8.5624889e-07
0.00011862076
8.4246049e-07
0.00011779149
8.2926978e-07
0.00011697448
8.1700157e-07
0.00011616936
8.0512457e-07
0.00011537559
7.9376745e-07
0.00011459272
7.8287571e-07
0.00011382046
7.7226139e-07
0.00011305823
7.622249e-07
0.00011230581
7.5242103e-07
0.00011156277
7.4304292e-07
0.00011082867
7.3409164e-07
0.00011010317
7.2550335e-07
0.00010938602
7.1715254e-07
0.00010867717
7.0884825e-07
0.00010797637
7.0080096e-07
0.00010728347
6.9290431e-07
0.00010659824
6.8522357e-07
0.00010592057
6.7767599e-07
0.00010525023
6.7033392e-07
0.00010458702
6.6320956e-07
0.00010393078
6.5624406e-07
0.00010328138
6.4940101e-07
0.0001026387
6.4267315e-07
0.00010200261
6.360925e-07
0.00010137298
6.2962749e-07
0.00010074971
6.2327021e-07
0.00010013271
6.1700392e-07
9.9521827e-05
6.1088288e-07
9.8916948e-05
6.0487909e-07
9.8317942e-05
5.9900563e-07
9.7724711e-05
5.9323095e-07
9.7137128e-05
5.8758353e-07
9.655509e-05
5.8203824e-07
9.5978463e-05
5.7662707e-07
9.5407132e-05
5.7133021e-07
9.4840967e-05
5.6616562e-07
9.427981e-05
5.6115646e-07
9.3723515e-05
5.5629566e-07
9.3171876e-05
5.516387e-07
9.2624697e-05
5.4717889e-07
9.2081682e-05
5.4301534e-07
9.1542539e-05
5.3914287e-07
9.1006767e-05
5.357723e-07
9.0473914e-05
5.3285298e-07
8.9942854e-05
5.3105973e-07
8.941309e-05
5.2976335e-07
8.88811e-05
5.319901e-07
8.8348172e-05
5.3292787e-07
8.7798388e-05
5.4978434e-07
8.7247764e-05
5.5062411e-07
8.6598704e-05
6.4906054e-07
8.6343006e-05
2.5569784e-07
1.2069632e-06
0.00078827429
8.1497358e-05
-0.00079448812
0.00076959743
0.00011220658
0.00073472697
0.00012435275
0.00068748436
0.00011909218
0.00063543463
0.00010323501
0.00058585303
8.5636694e-05
0.0005422044
7.0381705e-05
0.00050509768
5.8227693e-05
0.00047382181
4.8765578e-05
0.00044742301
4.113978e-05
0.00042501242
3.4879186e-05
0.00040585562
2.9731906e-05
0.00038940504
2.5431435e-05
0.00037523342
2.1812001e-05
0.00036299117
1.8767225e-05
0.00035239055
1.6191041e-05
0.00034317562
1.4019246e-05
0.00033512387
1.2194885e-05
0.00032804343
1.0670519e-05
0.0003217716
9.4210216e-06
0.00031617442
8.3791807e-06
0.00031113277
7.53314e-06
0.00030655296
6.8387165e-06
0.00030236181
6.2565003e-06
0.00029849927
5.7663937e-06
0.00029491705
5.3500088e-06
0.00029157661
4.9915606e-06
0.00028844398
4.6845245e-06
0.00028548968
4.4237664e-06
0.00028269117
4.1971366e-06
0.00028003212
3.9936359e-06
0.00027749808
3.8108036e-06
0.00027507603
3.6470785e-06
0.00027275478
3.499562e-06
0.00027052468
3.3662939e-06
0.00026837536
3.2486469e-06
0.00026629816
3.1438264e-06
0.00026428726
3.0474075e-06
0.00026233604
2.9607325e-06
0.00026043918
2.8817895e-06
0.00025859233
2.8091751e-06
0.00025679129
2.7428273e-06
0.00025503298
2.6806971e-06
0.00025331457
2.62257e-06
0.0002516333
2.5684455e-06
0.00024998693
2.5174131e-06
0.00024837276
2.470416e-06
0.00024678861
2.426607e-06
0.00024523283
2.3850566e-06
0.00024370358
2.3462498e-06
0.00024219963
2.3090735e-06
0.00024071972
2.2736792e-06
0.00023926272
2.2398738e-06
0.00023782773
2.2072475e-06
0.00023641363
2.176326e-06
0.00023501965
2.1464032e-06
0.00023364485
2.1178404e-06
0.00023228831
2.0906381e-06
0.0002309492
2.0646099e-06
0.00022962695
2.0393985e-06
0.00022832122
2.0145796e-06
0.00022703145
1.9905703e-06
0.00022575719
1.9671719e-06
0.00022449794
1.9444694e-06
0.00022325333
1.9222844e-06
0.0002220229
1.9007691e-06
0.00022080616
1.8799474e-06
0.00021960274
1.8596617e-06
0.00021841233
1.8398108e-06
0.00021723463
1.8203747e-06
0.00021606931
1.8014117e-06
0.00021491609
1.7828483e-06
0.00021377471
1.7646463e-06
0.00021264494
1.7467753e-06
0.00021152647
1.7293508e-06
0.00021041904
1.7123135e-06
0.00020932237
1.6956772e-06
0.00020823622
1.6793756e-06
0.00020716035
1.6634606e-06
0.0002060945
1.6478824e-06
0.00020503842
1.6327059e-06
0.00020399186
1.6178913e-06
0.00020295455
1.6034792e-06
0.00020192618
1.5895246e-06
0.00020090645
1.5760289e-06
0.00019989497
1.5631118e-06
0.00019889135
1.5508042e-06
0.00019789506
1.5393034e-06
0.00019690547
1.528739e-06
0.00019592182
1.519419e-06
0.00019494287
1.5118046e-06
0.00019396745
1.5064758e-06
0.00019299265
1.5045619e-06
0.00019201635
1.5082956e-06
0.0001910318
1.5174791e-06
0.0001900286
1.5529825e-06
0.00018899674
1.5824843e-06
0.00018788786
1.7579353e-06
0.00018700069
1.1428749e-06
2.7648978e-06
0.0008300727
7.8130362e-05
-0.0008267057
0.00083432635
0.00010795292
0.00083533622
0.00012334287
0.00082848328
0.00012594513
0.00081027834
0.00012143994
0.00078269965
0.00011321539
0.0007500516
0.00010302975
0.00071589165
9.2387644e-05
0.0006824099
8.2247334e-05
0.00065093555
7.261413e-05
0.00062212072
6.3694015e-05
0.0005961717
5.5680921e-05
0.00057304412
4.8559013e-05
0.00055253353
4.2322595e-05
0.00053436623
3.6934528e-05
0.00051826591
3.2291358e-05
0.00050396628
2.8318873e-05
0.00049122924
2.4931931e-05
0.00047984367
2.2056088e-05
0.0004696282
1.9636486e-05
0.00046041908
1.7588302e-05
0.00045207436
1.587786e-05
0.00044447315
1.4439926e-05
0.00043751298
1.3216676e-05
0.00043110586
1.2173506e-05
0.00042517543
1.128044e-05
0.00041965944
1.0507553e-05
0.00041450756
9.836409e-06
0.00040967619
9.2551309e-06
0.00040512868
8.7446463e-06
0.00040083402
8.288298e-06
0.00039676528
7.879544e-06
0.00039289902
7.5133362e-06
0.00038921546
7.1831253e-06
0.00038569743
6.884325e-06
0.00038232751
6.6185663e-06
0.00037909128
6.3800564e-06
0.0003759775
6.1611889e-06
0.00037297467
5.963562e-06
0.00037007349
5.782963e-06
0.00036726589
5.6167774e-06
0.0003645443
5.4644189e-06
0.00036190244
5.3225616e-06
0.00035933462
5.1903865e-06
0.00035683557
5.0674988e-06
0.00035440068
4.9522987e-06
0.00035202534
4.845759e-06
0.00034970551
4.7464327e-06
0.00034743782
4.6527521e-06
0.00034521893
4.5651382e-06
0.00034304613
4.481866e-06
0.00034091685
4.4029616e-06
0.00033882875
4.3279742e-06
0.00033677983
4.2561712e-06
0.00033476802
4.1881388e-06
0.0003327916
4.1228139e-06
0.00033084881
4.0606346e-06
0.00032893794
4.0015071e-06
0.00032705751
3.9450461e-06
0.00032520627
3.8906306e-06
0.00032338325
3.8376018e-06
0.00032158731
3.786508e-06
0.00031981745
3.7370307e-06
0.00031807271
3.689214e-06
0.00031635222
3.6427701e-06
0.0003146551
3.5978939e-06
0.00031298046
3.5545857e-06
0.00031132756
3.5125644e-06
0.00030969572
3.4716483e-06
0.00030808431
3.431783e-06
0.0003064927
3.3930217e-06
0.00030492032
3.3552348e-06
0.00030336662
3.3183395e-06
0.00030183111
3.2822871e-06
0.00030031323
3.2472317e-06
0.00029881247
3.2130738e-06
0.00029732833
3.1798141e-06
0.00029586036
3.1473479e-06
0.00029440808
3.1157361e-06
0.00029297107
3.0849022e-06
0.00029154884
3.0549348e-06
0.00029014095
3.0257727e-06
0.00028874696
2.9974758e-06
0.00028736635
2.9701313e-06
0.00028599862
2.9437607e-06
0.00028464319
2.9185455e-06
0.0002832994
2.8945919e-06
0.00028196652
2.8721783e-06
0.00028064356
2.8516975e-06
0.00027932957
2.8334151e-06
0.00027802254
2.8188341e-06
0.00027672139
2.8076216e-06
0.00027542098
2.8049793e-06
0.00027412091
2.8083577e-06
0.00027280681
2.8315867e-06
0.00027147565
2.884134e-06
0.00027009083
2.9673141e-06
0.00026866028
3.1884777e-06
0.00026723652
2.5666387e-06
4.4413687e-06
0.00086054765
7.4555535e-05
-0.00085697282
0.00086668774
0.00010181282
0.00087271213
0.00011731848
0.0008769608
0.00012169646
0.00087839798
0.00012000276
0.00087557674
0.00011603663
0.00086725799
0.0001113485
0.00085315378
0.00010649185
0.00083413706
0.00010126405
0.00081189018
9.4861016e-05
0.00078779698
8.7787209e-05
0.00076296292
8.0514986e-05
0.00073831013
7.3211803e-05
0.00071452801
6.6104718e-05
0.00069207851
5.938402e-05
0.0006712226
5.3147267e-05
0.00065204621
4.7495264e-05
0.00063451798
4.2460161e-05
0.00061853484
3.8039227e-05
0.00060396692
3.4204409e-05
0.00059067556
3.0879663e-05
0.0005785285
2.8024921e-05
0.00056740205
2.5566375e-05
0.00055718171
2.3437011e-05
0.00054776256
2.1592665e-05
0.00053904854
1.9994454e-05
0.00053095697
1.8599125e-05
0.00052341938
1.7374003e-05
0.00051637516
1.6299342e-05
0.00050977093
1.5348882e-05
0.00050355993
1.4499293e-05
0.00049770127
1.3738211e-05
0.00049215864
1.3055961e-05
0.00048690122
1.244055e-05
0.00048190248
1.188306e-05
0.00047713846
1.1382595e-05
0.00047258795
1.0930565e-05
0.00046823217
1.0516968e-05
0.00046405421
1.0141522e-05
0.00046003919
9.7979782e-06
0.00045617406
9.4819086e-06
0.00045244679
9.1916864e-06
0.00044884694
8.9224164e-06
0.00044536505
8.6722726e-06
0.00044199242
8.4401328e-06
0.00043872149
8.2232255e-06
0.00043554512
8.0221262e-06
0.00043245684
7.8347156e-06
0.00042945104
7.6585491e-06
0.00042652241
7.4937694e-06
0.0004236663
7.3379779e-06
0.00042087835
7.1909109e-06
0.00041815461
7.0517148e-06
0.00041549163
6.9191557e-06
0.00041288607
6.7936959e-06
0.00041033498
6.6739042e-06
0.00040783545
6.5601639e-06
0.00040538483
6.4521228e-06
0.00040298077
6.3491091e-06
0.00040062115
6.250251e-06
0.00039830409
6.1546585e-06
0.0003960277
6.0629065e-06
0.00039379024
5.9744903e-06
0.0003915901
5.8893511e-06
0.00038942581
5.8070622e-06
0.0003872959
5.7278048e-06
0.00038519899
5.6514954e-06
0.00038313384
5.5777063e-06
0.00038109933
5.5061645e-06
0.00037909436
5.4367481e-06
0.00037711792
5.3694625e-06
0.00037516905
5.3041019e-06
0.00037324686
5.2405316e-06
0.00037135048
5.1786688e-06
0.00036947904
5.1186703e-06
0.00036763174
5.0603791e-06
0.00036580778
5.0037687e-06
0.00036400644
4.948688e-06
0.00036222699
4.8951907e-06
0.00036046872
4.8431646e-06
0.00035873095
4.7927101e-06
0.00035701298
4.7437387e-06
0.00035531414
4.6963216e-06
0.0003536337
4.6505739e-06
0.00035197091
4.606541e-06
0.000350325
4.5644611e-06
0.00034869505
4.5245373e-06
0.00034708011
4.4871175e-06
0.00034547888
4.4529364e-06
0.00034389015
4.4221369e-06
0.0003423114
4.3975874e-06
0.00034074146
4.3775633e-06
0.00033917369
4.3727454e-06
0.0003376086
4.373446e-06
0.000336027
4.4131946e-06
0.00033443008
4.4810555e-06
0.00033276408
4.6333127e-06
0.00033107179
4.8807659e-06
0.00032923031
4.4081178e-06
6.2261801e-06
0.00089060454
7.1501911e-05
-0.00088755091
0.00089644553
9.597183e-05
0.00090278002
0.00011098399
0.00090812832
0.00011634815
0.00091190532
0.00011622577
0.00091445451
0.00011348745
0.00091556778
0.00011023523
0.00091484811
0.00010721152
0.00091199813
0.00010411402
0.00090601892
0.00010084023
0.00089649854
9.7307587e-05
0.00088356357
9.3449955e-05
0.00086783945
8.8935924e-05
0.00085003623
8.390794e-05
0.00083079419
7.8626056e-05
0.000810751
7.3190463e-05
0.00079051485
6.7731409e-05
0.00077061367
6.2361346e-05
0.00075145066
5.7202238e-05
0.00073329214
5.2362927e-05
0.00071626913
4.7902674e-05
0.00070040744
4.3886607e-05
0.00068567006
4.0303754e-05
0.00067199042
3.7116652e-05
0.00065929083
3.4292257e-05
0.00064749017
3.1795109e-05
0.00063650866
2.9580637e-05
0.00062627044
2.7612222e-05
0.00061670361
2.5866173e-05
0.00060774309
2.4309402e-05
0.00059933092
2.2911466e-05
0.00059141456
2.1654573e-05
0.00058394625
2.0524264e-05
0.0005768842
1.9502608e-05
0.00057019129
1.8575967e-05
0.00056383531
1.7738573e-05
0.00055778752
1.6978356e-05
0.00055202102
1.6283464e-05
0.00054651222
1.5650329e-05
0.00054124012
1.5070076e-05
0.00053618587
1.4536153e-05
0.00053133199
1.4045573e-05
0.00052666306
1.3591344e-05
0.00052216512
1.3170213e-05
0.00051782523
1.2780019e-05
0.00051363223
1.2416229e-05
0.00050957596
1.2078395e-05
0.00050564722
1.1763457e-05
0.00050183782
1.1467953e-05
0.0004981399
1.1191688e-05
0.00049454642
1.0931457e-05
0.00049105088
1.0686451e-05
0.00048764734
1.0455252e-05
0.00048433055
1.0235948e-05
0.00048109552
1.0028727e-05
0.00047793772
9.8317053e-06
0.00047485289
9.6449899e-06
0.00047183725
9.4677654e-06
0.00046888735
9.2990097e-06
0.00046599995
9.1376543e-06
0.00046317206
8.9825418e-06
0.00046040084
8.8341334e-06
0.00045768367
8.6916549e-06
0.00045501814
8.5548837e-06
0.000452402
8.4232051e-06
0.00044983309
8.2967094e-06
0.00044730943
8.1751545e-06
0.00044482919
8.0579477e-06
0.00044239065
7.9447086e-06
0.00043999219
7.8352008e-06
0.00043763232
7.7293327e-06
0.00043530962
7.6268007e-06
0.00043302274
7.5274133e-06
0.00043077039
7.4310249e-06
0.00042855131
7.3377478e-06
0.00042636434
7.2473456e-06
0.00042420836
7.15975e-06
0.0004220823
7.0747497e-06
0.00041998512
6.9923722e-06
0.00041791583
6.9124568e-06
0.00041587344
6.8351002e-06
0.000413857
6.7601768e-06
0.00041186556
6.6877578e-06
0.00040989816
6.6179781e-06
0.00040795379
6.550905e-06
0.00040603143
6.486827e-06
0.00040412991
6.4260538e-06
0.00040224803
6.3689964e-06
0.00040038419
6.3167756e-06
0.00039853696
6.2693739e-06
0.00039670333
6.2312097e-06
0.00039488197
6.1989249e-06
0.00039306525
6.1894695e-06
0.0003912539
6.1847952e-06
0.00038942584
6.2412569e-06
0.00038758413
6.3227642e-06
0.00038566439
6.5530471e-06
0.00038372987
6.8152924e-06
0.0003815327
6.6052862e-06
8.1455775e-06
0.00092139886
6.8811474e-05
-0.00091870842
0.00092662149
9.0749199e-05
0.00093244847
0.00010515701
0.00093757733
0.0001112193
0.00094168502
0.00011211808
0.00094469293
0.00011047954
0.0009468331
0.00010809506
0.00094832001
0.00010572462
0.0009492861
0.00010314793
0.00094960071
0.00010052562
0.00094894579
9.796251e-05
0.00094702545
9.5370295e-05
0.00094321822
9.2743155e-05
0.00093706382
9.0062331e-05
0.0009283501
8.7339784e-05
0.00091718606
8.4354503e-05
0.00090390644
8.1011028e-05
0.00088884352
7.742426e-05
0.0008723896
7.3656162e-05
0.00085502586
6.9726669e-05
0.00083726791
6.5660626e-05
0.00081958673
6.156778e-05
0.00080236117
5.7529315e-05
0.00078584556
5.3632265e-05
0.00077017343
4.996439e-05
0.00075538748
4.6581055e-05
0.00074147866
4.3489458e-05
0.00072841221
4.0678672e-05
0.00071614022
3.813816e-05
0.00070461044
3.5839187e-05
0.00069376895
3.3752949e-05
0.00068356156
3.1861965e-05
0.00067393632
3.014951e-05
0.00066484553
2.8593394e-05
0.00065624442
2.7177078e-05
0.0006480922
2.5890791e-05
0.00064035272
2.4717834e-05
0.00063299216
2.364403e-05
0.00062597963
2.2662852e-05
0.00061928788
2.176183e-05
0.00061289204
2.0931992e-05
0.00060676896
2.0168657e-05
0.00060089795
1.9462349e-05
0.00059526016
1.8808001e-05
0.00058983818
1.8202003e-05
0.00058461659
1.7637818e-05
0.00057958138
1.7113601e-05
0.00057471999
1.6624846e-05
0.00057002111
1.616684e-05
0.00056547396
1.5738838e-05
0.00056106884
1.5336573e-05
0.00055679681
1.495848e-05
0.00055264961
1.4602454e-05
0.00054861981
1.4265747e-05
0.00054470033
1.3948213e-05
0.00054088475
1.3647279e-05
0.00053716732
1.3362423e-05
0.00053354283
1.3092253e-05
0.00053000646
1.2835381e-05
0.0005265536
1.259051e-05
0.00052318004
1.2356107e-05
0.00051988178
1.2132391e-05
0.00051665521
1.1918223e-05
0.00051349692
1.1713178e-05
0.00051040371
1.1516414e-05
0.00050737262
1.1327803e-05
0.00050440092
1.1146856e-05
0.00050148605
1.0972811e-05
0.00049862562
1.0805144e-05
0.00049581738
1.0643439e-05
0.00049305925
1.0487457e-05
0.00049034928
1.0336777e-05
0.00048768554
1.0191148e-05
0.00048506626
1.0050309e-05
0.00048248973
9.9142726e-06
0.00047995438
9.7827033e-06
0.00047745865
9.6554717e-06
0.00047500112
9.5322872e-06
0.00047258036
9.4131292e-06
0.00047019505
9.2977704e-06
0.00046784386
9.1862859e-06
0.00046552554
9.0784988e-06
0.00046323883
8.9744668e-06
0.00046098247
8.8743325e-06
0.0004587552
8.7781782e-06
0.00045655569
8.6863349e-06
0.00045438253
8.5992206e-06
0.00045223422
8.5173045e-06
0.00045010888
8.4421181e-06
0.00044800478
8.3734666e-06
0.00044591857
8.3174261e-06
0.0004438486
8.2688891e-06
0.00044178654
8.2515289e-06
0.00043973302
8.2383156e-06
0.00043766408
8.3101968e-06
0.00043558346
8.4033903e-06
0.00043341967
8.7168374e-06
0.00043124929
8.9856735e-06
0.00042872483
9.1297463e-06
1.0218052e-05
0.00095314031
6.6410182e-05
-0.00095073902
0.00095780901
8.6080505e-05
0.00096314711
9.9818912e-05
0.00096792153
0.00010644487
0.00097179023
0.00010824938
0.00097477007
0.0001074997
0.00097708879
0.00010577634
0.00097897858
0.00010383482
0.00098044676
0.00010167975
0.00098153208
9.9440307e-05
0.00098228386
9.7210727e-05
0.00098272141
9.493275e-05
0.00098278172
9.2682837e-05
0.00098227599
9.0568065e-05
0.00098105585
8.8559924e-05
0.00097874113
8.6669221e-05
0.00097484726
8.4904902e-05
0.00096908705
8.3184467e-05
0.00096126258
8.1480631e-05
0.00095137445
7.9614797e-05
0.00093957015
7.746493e-05
0.00092605531
7.5082622e-05
0.00091115636
7.2428259e-05
0.00089531609
6.9472539e-05
0.00087902258
6.62579e-05
0.00086272193
6.2881702e-05
0.00084676263
5.944876e-05
0.00083136896
5.6072342e-05
0.00081665336
5.285376e-05
0.00080265613
4.9836416e-05
0.00078937852
4.7030564e-05
0.00077680157
4.4438909e-05
0.00076489533
4.2055754e-05
0.00075362387
3.9864851e-05
0.00074294715
3.7853799e-05
0.00073282427
3.6013672e-05
0.00072321681
3.432529e-05
0.00071408773
3.277311e-05
0.00070540151
3.1349078e-05
0.00069712572
3.0037615e-05
0.00068923043
2.882728e-05
0.00068168756
2.7711532e-05
0.00067447155
2.6678353e-05
0.00066755883
2.572073e-05
0.00066092756
2.4833266e-05
0.00065455801
2.4007371e-05
0.00064843182
2.3239787e-05
0.00064253247
2.2524199e-05
0.00063684504
2.185427e-05
0.00063135554
2.1228342e-05
0.0006260513
2.0640812e-05
0.0006209206
2.0089181e-05
0.00061595261
1.9570443e-05
0.00061113749
1.9080861e-05
0.0006064659
1.8619806e-05
0.00060192934
1.8183842e-05
0.0005975201
1.7771661e-05
0.00059323119
1.7381165e-05
0.0005890561
1.7010467e-05
0.00058498874
1.6657876e-05
0.00058102348
1.6321367e-05
0.00057715506
1.600081e-05
0.00057337866
1.5694615e-05
0.00056968969
1.5402148e-05
0.00056608384
1.5122264e-05
0.00056255722
1.4854432e-05
0.00055910623
1.4597845e-05
0.00055572746
1.4351583e-05
0.00055241768
1.4114914e-05
0.00054917394
1.3887189e-05
0.00054599342
1.3667967e-05
0.00054287354
1.3456665e-05
0.00053981176
1.3252929e-05
0.00053680572
1.305635e-05
0.00053385319
1.2866794e-05
0.0005309521
1.2683799e-05
0.00052810042
1.2507147e-05
0.00052529627
1.2336442e-05
0.00052253781
1.217159e-05
0.0005198233
1.2012275e-05
0.00051715106
1.1858529e-05
0.00051451945
1.1710105e-05
0.00051192689
1.1567032e-05
0.00050937178
1.1429443e-05
0.00050685253
1.1297427e-05
0.00050436752
1.1171345e-05
0.00050191502
1.105172e-05
0.00049949325
1.0939074e-05
0.00049710001
1.0835361e-05
0.00049473327
1.0740203e-05
0.0004923893
1.0661398e-05
0.00049006615
1.0592038e-05
0.00048775489
1.0562787e-05
0.00048545587
1.0537336e-05
0.00048314381
1.0622254e-05
0.00048082252
1.0724686e-05
0.00047841533
1.1124031e-05
0.00047600879
1.1392214e-05
0.00047316814
1.1970389e-05
1.2457301e-05
0.00098600746
6.4275184e-05
-0.00098387247
0.00099018977
8.1898202e-05
0.00099510813
9.4900547e-05
0.00099962542
0.00010192758
0.001003336
0.00010453879
0.001006239
0.00010459674
0.0010085224
0.00010349295
0.0010103887
0.00010196851
0.0010119126
0.0001001558
0.0010131615
9.8191434e-05
0.001014187
9.6185174e-05
0.0010149811
9.4138667e-05
0.0010155387
9.2125238e-05
0.0010159203
9.0186521e-05
0.0010160837
8.8396519e-05
0.001015989
8.6763927e-05
0.0010156144
8.5279458e-05
0.0010147897
8.4009223e-05
0.0010133237
8.2946574e-05
0.0010108884
8.2050077e-05
0.001007101
8.1252388e-05
0.001001651
8.0532609e-05
0.00099432856
7.9750692e-05
0.00098507861
7.8722488e-05
0.0009739648
7.7371714e-05
0.00096117378
7.5672718e-05
0.00094704992
7.3572622e-05
0.00093205564
7.1066619e-05
0.00091667075
6.8238648e-05
0.0009013094
6.5197766e-05
0.00088626702
6.2072949e-05
0.00087171703
5.8988894e-05
0.00085774335
5.6029438e-05
0.00084437886
5.3229345e-05
0.00083162863
5.0604029e-05
0.00081948116
4.8161136e-05
0.00080791556
4.5890888e-05
0.00079690438
4.3784291e-05
0.00078641669
4.183677e-05
0.00077642158
4.0032732e-05
0.0007668884
3.8360453e-05
0.00075778706
3.6812873e-05
0.00074908927
3.5376143e-05
0.00074076815
3.4041851e-05
0.00073279836
3.2803055e-05
0.00072515653
3.1649204e-05
0.00071782055
3.0575768e-05
0.00071077014
2.9574605e-05
0.0007039868
2.8637614e-05
0.00069745312
2.7762019e-05
0.00069115325
2.6940678e-05
0.00068507246
2.6169977e-05
0.00067919717
2.5445735e-05
0.00067351496
2.4763064e-05
0.00066801414
2.4120631e-05
0.00066268394
2.3514038e-05
0.0006575144
2.29412e-05
0.00065249641
2.2399156e-05
0.00064762157
2.1885309e-05
0.00064288207
2.1397373e-05
0.00063827072
2.0932716e-05
0.00063378077
2.0490768e-05
0.00062940599
2.0069388e-05
0.00062514051
1.9667634e-05
0.0006209788
1.9283973e-05
0.00061691583
1.8917396e-05
0.00061294698
1.8566703e-05
0.00060906783
1.823073e-05
0.00060527426
1.7908482e-05
0.00060156242
1.759903e-05
0.0005979287
1.7301686e-05
0.00059436974
1.7015626e-05
0.00059088233
1.674034e-05
0.00058746344
1.6475234e-05
0.00058411025
1.6219988e-05
0.00058082007
1.5973982e-05
0.00057759034
1.5736871e-05
0.00057441866
1.5508124e-05
0.00057130271
1.5287542e-05
0.00056824029
1.5074694e-05
0.00056522927
1.4869544e-05
0.00056226762
1.4671757e-05
0.00055935335
1.4481306e-05
0.00055648449
1.4298302e-05
0.0005536591
1.4122821e-05
0.0005508752
1.3955246e-05
0.00054813072
1.3796193e-05
0.00054542356
1.3646231e-05
0.00054275119
1.3507741e-05
0.00054011123
1.3380157e-05
0.00053749959
1.3273036e-05
0.00053491397
1.317766e-05
0.00053234492
1.3131838e-05
0.00052979239
1.3089862e-05
0.00052723011
1.318454e-05
0.00052466162
1.3293177e-05
0.00052200616
1.3779493e-05
0.00051935874
1.403963e-05
0.00051620328
1.5125846e-05
1.4875357e-05
0.0010200791
6.236899e-05
-0.0010181729
0.0010238181
7.8159195e-05
0.0010283461
9.0372522e-05
0.0010326461
9.7627594e-05
0.00103627
0.0001009149
0.0010391605
0.00010170625
0.001041454
0.0001011995
0.001043319
0.0001001035
0.0010448432
9.8631581e-05
0.0010460966
9.693799e-05
0.0010471347
9.5147106e-05
0.0010479802
9.3293131e-05
0.0010486564
9.1449043e-05
0.0010491827
8.9660283e-05
0.0010495761
8.8003042e-05
0.0010498358
8.6504278e-05
0.0010499719
8.5143327e-05
0.001049992
8.3989174e-05
0.0010498787
8.3059849e-05
0.0010495925
8.2336268e-05
0.0010490304
8.1814489e-05
0.0010480678
8.1495259e-05
0.001046491
8.1327403e-05
0.0010439582
8.1255316e-05
0.0010401108
8.121912e-05
0.0010346195
8.1164077e-05
0.0010272783
8.0913807e-05
0.0010180391
8.0305741e-05
0.001006967
7.9310764e-05
0.00099430499
7.7859811e-05
0.00098046403
7.5913907e-05
0.00096593086
7.3522059e-05
0.0009511597
7.0800604e-05
0.00093649926
6.7889779e-05
0.00092217124
6.4932048e-05
0.00090829534
6.2037041e-05
0.00089493049
5.9255736e-05
0.00088210162
5.6613159e-05
0.00086981294
5.4125456e-05
0.00085805595
5.1789714e-05
0.00084681342
4.9602983e-05
0.00083606303
4.7563264e-05
0.00082578082
4.5658358e-05
0.00081594161
4.3881061e-05
0.00080652004
4.2224624e-05
0.00079749167
4.0677573e-05
0.00078883253
3.9234912e-05
0.00078051994
3.7887191e-05
0.00077253268
3.6624873e-05
0.00076485048
3.5444217e-05
0.00075745463
3.4336529e-05
0.00075032756
3.3297049e-05
0.00074345299
3.232031e-05
0.0007368159
3.1400148e-05
0.00073040213
3.0534406e-05
0.00072419858
2.9717588e-05
0.00071819299
2.8946785e-05
0.00071237406
2.8218089e-05
0.00070673131
2.752806e-05
0.00070125503
2.687365e-05
0.00069593627
2.625148e-05
0.00069076658
2.5660458e-05
0.00068573819
2.5097778e-05
0.0006808438
2.4562019e-05
0.0006760766
2.4051173e-05
0.00067143023
2.3563768e-05
0.00066689881
2.3098122e-05
0.00066247686
2.2652684e-05
0.00065815921
2.2226133e-05
0.00065394103
2.1817209e-05
0.00064981778
2.1424928e-05
0.00064578525
2.1048158e-05
0.00064183943
2.0686165e-05
0.00063797654
2.033812e-05
0.00063419305
2.0003481e-05
0.00063048561
1.9681426e-05
0.00062685103
1.9371445e-05
0.00062328632
1.9072831e-05
0.00061978862
1.878525e-05
0.00061635519
1.8508124e-05
0.00061298341
1.8241322e-05
0.00060967078
1.7984389e-05
0.00060641486
1.7737226e-05
0.00060321326
1.7499897e-05
0.00060006363
1.7272447e-05
0.00059696362
1.7055262e-05
0.00059391077
1.6849044e-05
0.0005909026
1.6654395e-05
0.00058793622
1.6474121e-05
0.00058500891
1.6307471e-05
0.00058211617
1.6165777e-05
0.00057925531
1.6038518e-05
0.00057641641
1.597074e-05
0.00057359895
1.5907318e-05
0.00057077582
1.600767e-05
0.00056795017
1.6118831e-05
0.00056503771
1.6691948e-05
0.00056214139
1.6935953e-05
0.00055866626
1.8600973e-05
1.7484016e-05
0.001055372
6.0642703e-05
-0.0010536457
0.0010587145
7.4816719e-05
0.0010628648
8.6222166e-05
0.0010669438
9.3548608e-05
0.0010704903
9.7368373e-05
0.0010733907
9.8805873e-05
0.0010757262
9.8864056e-05
0.0010776307
9.8199002e-05
0.0010791892
9.7073e-05
0.0010804684
9.5658811e-05
0.0010815225
9.409302e-05
0.0010823824
9.2433217e-05
0.001083078
9.0753442e-05
0.0010836307
8.9107616e-05
0.0010840675
8.7566207e-05
0.0010844065
8.6165338e-05
0.0010846522
8.4897559e-05
0.00108482
8.3821406e-05
0.0010849233
8.2956563e-05
0.0010849577
8.2301878e-05
0.0010849238
8.1848397e-05
0.0010848242
8.1594827e-05
0.0010846177
8.1533864e-05
0.0010842369
8.1636135e-05
0.0010835786
8.1877444e-05
0.0010825047
8.2237925e-05
0.001080743
8.2675565e-05
0.0010779198
8.3128896e-05
0.001073675
8.3555597e-05
0.0010677045
8.3830271e-05
0.0010598429
8.3775583e-05
0.0010500705
8.329438e-05
0.0010385504
8.2320775e-05
0.0010256432
8.0796912e-05
0.001011829
7.8746254e-05
0.00099758384
7.6282231e-05
0.00098328999
7.3549581e-05
0.00096920065
7.0702505e-05
0.0009554606
6.7865507e-05
0.00094214822
6.5102092e-05
0.00092930366
6.2447541e-05
0.00091694343
5.9923493e-05
0.00090506904
5.7532744e-05
0.00089367147
5.5278636e-05
0.00088273556
5.3160534e-05
0.00087224319
5.1169944e-05
0.00086217382
4.9304274e-05
0.00085250629
4.7554724e-05
0.00084321945
4.5911716e-05
0.00083429215
4.4371518e-05
0.00082570425
4.2924422e-05
0.00081743639
4.1564913e-05
0.00080947025
4.0286447e-05
0.00080178871
3.9081693e-05
0.00079437538
3.7947733e-05
0.00078721503
3.6877936e-05
0.00078029326
3.5868559e-05
0.00077359662
3.4914724e-05
0.00076711259
3.4012097e-05
0.00076082946
3.3156777e-05
0.00075473642
3.2344523e-05
0.00074882324
3.1573631e-05
0.00074308049
3.0840536e-05
0.00073749929
3.0143214e-05
0.0007320714
2.9479065e-05
0.00072678906
2.8846111e-05
0.00072164504
2.8242133e-05
0.00071663264
2.7665091e-05
0.00071174552
2.7113249e-05
0.00070697777
2.6584955e-05
0.00070232384
2.6078866e-05
0.0006977785
2.5593492e-05
0.00069333688
2.5127791e-05
0.00068899435
2.4680646e-05
0.00068474657
2.4251257e-05
0.00068058945
2.3838546e-05
0.00067651911
2.3441792e-05
0.00067253186
2.3060073e-05
0.00066862423
2.2692882e-05
0.0006647929
2.2339459e-05
0.00066103467
2.1999544e-05
0.00065734653
2.1672537e-05
0.00065372552
2.1358235e-05
0.00065016878
2.1056631e-05
0.00064667351
2.0767718e-05
0.00064323691
2.0491867e-05
0.00063985611
2.0229846e-05
0.00063652822
1.9982282e-05
0.00063324994
1.9752397e-05
0.00063001816
1.9539254e-05
0.00062682797
1.9355968e-05
0.00062367625
1.9190233e-05
0.00062055262
1.9094377e-05
0.00061745603
1.9003902e-05
0.00061435863
1.9105069e-05
0.00061126309
1.9214377e-05
0.00060808192
1.9873117e-05
0.00060492594
2.0091927e-05
0.00060112182
2.2405092e-05
2.0295504e-05
0.0010918842
5.9050981e-05
-0.0010902925
0.0010948858
7.1815162e-05
0.0010986783
8.2429629e-05
0.0011025229
8.9704041e-05
0.0011059743
9.3916947e-05
0.0011088767
9.5903496e-05
0.0011112587
9.6482093e-05
0.0011132179
9.6239798e-05
0.0011148295
9.5461355e-05
0.001116155
9.4333337e-05
0.0011172464
9.3001627e-05
0.0011181375
9.1542071e-05
0.0011188592
9.0031727e-05
0.0011194355
8.8531302e-05
0.0011198935
8.7108235e-05
0.0011202551
8.5803803e-05
0.0011205303
8.4622268e-05
0.0011207377
8.3614103e-05
0.0011208925
8.2801755e-05
0.0011210037
8.2190673e-05
0.0011210742
8.1777827e-05
0.0011211129
8.1556155e-05
0.0011211222
8.1524584e-05
0.0011210979
8.1660375e-05
0.0011210278
8.1947616e-05
0.0011208844
8.2381334e-05
0.0011206214
8.2938561e-05
0.0011201553
8.3594973e-05
0.0011193701
8.4340811e-05
0.0011180533
8.5147054e-05
0.0011158677
8.5961216e-05
0.0011124282
8.6733838e-05
0.0011073717
8.7377246e-05
0.0011004511
8.7717569e-05
0.0010915832
8.7614151e-05
0.0010808735
8.6991908e-05
0.0010686481
8.5774965e-05
0.0010553804
8.3970238e-05
0.0010415579
8.1687985e-05
0.0010275794
7.9080561e-05
0.001013713
7.6313932e-05
0.0010001171
7.3519478e-05
0.00098688207
7.0767735e-05
0.00097405853
6.8102178e-05
0.00096167177
6.5547297e-05
0.00094973065
6.311106e-05
0.00093823238
6.0802545e-05
0.00092716749
5.8619612e-05
0.00091652232
5.6556887e-05
0.00090628017