/*--------------------------------*- C++ -*----------------------------------*\
| =========                 |                                                 |
| \\      /  F ield         | OpenFOAM: The Open Source CFD Toolbox           |
|  \\    /   O peration     | Version:  2206                                  |
|   \\  /    A nd           | Website:  www.openfoam.com                      |
|    \\/     M anipulation  |                                                 |
\*---------------------------------------------------------------------------*/
FoamFile
{
    version     2.0;
    format      ascii;
    arch        "LSB;label=32;scalar=64";
    class       volVectorField;
    location    "1900";
    object      U;
}
// * * * * * * * * * * * * * * * * * * * * * * * * * * * * * * * * * * * * * //

dimensions      [0 1 -1 0 0 0 0];

internalField   nonuniform List<vector> 
7480
(
(0.86077847 0.01477351 5.8326705e-16)
(0.74496411 0.025621323 0)
(0.62909975 0.027248232 0)
(0.52587947 0.019475833 0)
(0.45030479 0.0094013778 0)
(0.39814709 0.0037521724 0)
(0.36046389 0.0017202313 0)
(0.33137149 0.0012088926 0)
(0.30768011 0.0010855892 0)
(0.28779212 0.00096803963 0)
(0.27095983 0.00081799141 0)
(0.25670081 0.00067165163 0)
(0.24460105 0.00054376407 0)
(0.23431517 0.0004382526 0)
(0.22554939 0.00035456206 0)
(0.21804729 0.00028727239 0)
(0.21160918 0.00023271683 0)
(0.20607011 0.00018729863 0)
(0.20127606 0.00017797745 -3.4870116e-18)
(0.19711356 0.00027468271 -1.6179507e-17)
(0.19343789 0.00013439702 0)
(0.19016591 9.0817468e-05 0)
(0.18721909 7.7736589e-05 0)
(0.18453359 6.9128414e-05 0)
(0.18206725 6.17863e-05 0)
(0.17978374 5.5556629e-05 0)
(0.17765778 5.0273116e-05 0)
(0.17566547 4.5958861e-05 0)
(0.17378535 4.2563319e-05 0)
(0.17199908 3.9663005e-05 0)
(0.17029619 3.6961457e-05 0)
(0.16866936 3.4513723e-05 0)
(0.16711048 3.2336673e-05 0)
(0.16561309 3.0369628e-05 0)
(0.16417042 2.8605698e-05 0)
(0.162778 2.7077605e-05 0)
(0.16142743 2.5703795e-05 0)
(0.16011637 2.4410005e-05 0)
(0.15884095 2.3251205e-05 0)
(0.15759739 2.2179705e-05 0)
(0.1563832 2.1180348e-05 0)
(0.15519579 2.026521e-05 0)
(0.15403316 1.9384441e-05 0)
(0.15289404 1.8549497e-05 0)
(0.15177676 1.7767545e-05 0)
(0.15068024 1.7015864e-05 0)
(0.14960299 1.6321676e-05 0)
(0.14854342 1.5665261e-05 0)
(0.1475007 1.5031629e-05 0)
(0.14647379 1.4438583e-05 0)
(0.1454619 1.3862153e-05 0)
(0.14446452 1.331117e-05 0)
(0.14348096 1.2783788e-05 0)
(0.14251087 1.2272723e-05 0)
(0.14155361 1.1790322e-05 0)
(0.14060872 1.1322316e-05 0)
(0.13967584 1.0876646e-05 0)
(0.13875438 1.0451595e-05 0)
(0.13784382 1.004491e-05 0)
(0.13694376 9.6539505e-06 0)
(0.13605412 9.2733773e-06 0)
(0.13517469 8.9097408e-06 0)
(0.13430521 8.5584587e-06 0)
(0.13344543 8.2218874e-06 0)
(0.13259515 7.8972557e-06 0)
(0.13175419 7.5861532e-06 0)
(0.13092223 7.2881136e-06 0)
(0.13009905 7.0016392e-06 0)
(0.12928447 6.725947e-06 0)
(0.12847837 6.4606058e-06 0)
(0.12768057 6.2060322e-06 0)
(0.12689091 5.9611533e-06 0)
(0.12610923 5.7257714e-06 0)
(0.12533545 5.4991442e-06 0)
(0.12456939 5.2819814e-06 0)
(0.12381089 5.0732851e-06 0)
(0.1230598 4.8731592e-06 0)
(0.12231598 4.6806812e-06 0)
(0.12157929 4.496159e-06 0)
(0.12084957 4.318781e-06 0)
(0.1201267 4.1488144e-06 0)
(0.1194105 3.9856055e-06 0)
(0.11870084 3.8291147e-06 0)
(0.11799752 3.6793177e-06 0)
(0.11730038 3.5356309e-06 0)
(0.11660916 3.398544e-06 0)
(0.11592367 3.2671338e-06 0)
(0.11524353 3.1426328e-06 0)
(0.11456852 3.0230314e-06 0)
(0.11389783 2.9123597e-06 0)
(0.11323163 2.8033265e-06 0)
(0.1125673 2.7129626e-06 0)
(0.11190755 2.6077148e-06 0)
(0.11124201 2.5638342e-06 0)
(0.110586 2.4297737e-06 0)
(0.10989845 2.5353134e-06 0)
(0.10923863 2.224445e-06 -4.2662619e-21)
(0.10846849 6.2400434e-06 7.2824346e-20)
(0.10786915 -1.7511585e-06 -3.2248447e-19)
(0.10669574 1.2425354e-05 -1.1188183e-18)
(0.95770781 0.024850019 0)
(0.94370061 0.032457548 0)
(0.91263375 0.032560447 0)
(0.861142 0.028735512 0)
(0.79846112 0.022893775 0)
(0.73558563 0.017262482 0)
(0.67880188 0.012880074 0)
(0.63012811 0.0098194217 0)
(0.58916887 0.0077447477 0)
(0.55469298 0.0062557705 0)
(0.52550373 0.0051171313 0)
(0.50062328 0.0042193053 0)
(0.4792923 0.0034902841 0)
(0.46093797 0.0028918121 0)
(0.44509891 0.0024008907 0)
(0.43140185 0.001996414 0)
(0.41952138 0.001665139 0)
(0.40916882 0.0013952445 0)
(0.40009303 0.0011767553 0)
(0.39208244 0.00099918563 0)
(0.38495934 0.00085068084 0)
(0.37857176 0.00074475284 0)
(0.37279118 0.00065604911 0)
(0.36751806 0.00058164649 0)
(0.36267485 0.0005199738 0)
(0.35819409 0.0004682571 0)
(0.354028 0.00042417133 0)
(0.35013081 0.0003867241 0)
(0.34646492 0.00035511004 0)
(0.34299838 0.00032776029 0)
(0.33970889 0.00030334293 0)
(0.33657867 0.00028150299 0)
(0.33359074 0.00026199746 0)
(0.3307311 0.00024447182 0)
(0.32798619 0.00022868329 0)
(0.32534647 0.00021466447 0)
(0.32279658 0.00020208136 0)
(0.32033083 0.0001905205 0)
(0.31794093 0.00018005206 0)
(0.31561937 0.00017046097 0)
(0.31336065 0.00016161238 0)
(0.31115956 0.00015347126 0)
(0.30901169 0.0001458604 0)
(0.30691366 0.00013874646 0)
(0.30486198 0.00013210993 0)
(0.30285386 0.00012587212 0)
(0.30088618 0.00012007564 0)
(0.29895587 0.00011464784 0)
(0.29706076 0.00010951994 0)
(0.29519871 0.00010470902 0)
(0.29336786 0.00010013952 0)
(0.2915668 9.581094e-05 0)
(0.28979398 9.1704208e-05 0)
(0.28804833 8.7790667e-05 0)
(0.28632851 8.4089355e-05 0)
(0.28463342 8.0557208e-05 0)
(0.28296209 7.7203882e-05 0)
(0.28131335 7.4021789e-05 0)
(0.27968608 7.0996256e-05 0)
(0.27807942 6.8106799e-05 0)
(0.27649293 6.5331342e-05 0)
(0.27492607 6.2682192e-05 0)
(0.27337819 6.014643e-05 0)
(0.27184871 5.7723285e-05 0)
(0.27033713 5.5401991e-05 0)
(0.26884299 5.3183645e-05 0)
(0.26736563 5.1064792e-05 0)
(0.26590456 4.9036579e-05 0)
(0.26445937 4.7092437e-05 0)
(0.26302971 4.5228548e-05 0)
(0.2616152 4.3443589e-05 0)
(0.26021546 4.1732369e-05 0)
(0.25883015 4.0091075e-05 0)
(0.25745902 3.8516103e-05 0)
(0.25610172 3.7007839e-05 0)
(0.2547579 3.5562072e-05 0)
(0.25342723 3.4176721e-05 0)
(0.25210942 3.2847762e-05 0)
(0.25080415 3.1574192e-05 0)
(0.24951114 3.0352622e-05 0)
(0.24823009 2.9182347e-05 0)
(0.24696067 2.8060388e-05 0)
(0.2457026 2.6985546e-05 0)
(0.24445551 2.5956836e-05 0)
(0.24321905 2.4972138e-05 0)
(0.24199278 2.4031679e-05 0)
(0.24077629 2.3133599e-05 0)
(0.23956892 2.2279364e-05 0)
(0.23837023 2.1467817e-05 0)
(0.23717883 2.0702673e-05 0)
(0.23599486 1.9984272e-05 0)
(0.23481394 1.9324407e-05 0)
(0.2336403 1.8718591e-05 0)
(0.23245678 1.8221979e-05 0)
(0.23128797 1.7758633e-05 0)
(0.23006646 1.7699603e-05 0)
(0.22888757 1.7373102e-05 7.6547252e-21)
(0.22752284 1.9299414e-05 0)
(0.22643696 9.6836478e-06 0)
(0.22434973 3.1216538e-05 0)
(0.96684736 0.026253218 0)
(0.97169127 0.035069937 0)
(0.97666142 0.038591521 0)
(0.97543995 0.037461012 0)
(0.960859 0.034242084 0)
(0.93276008 0.029907178 0)
(0.89619688 0.025219613 0)
(0.85628196 0.020836656 0)
(0.81626586 0.017123626 0)
(0.77807294 0.014074957 0)
(0.74275584 0.011598617 0)
(0.71076818 0.0096035866 0)
(0.68216319 0.0079832689 0)
(0.65676396 0.0066600957 0)
(0.63426669 0.0055797458 0)
(0.61434249 0.0046936761 0)
(0.59666945 0.0039655377 0)
(0.58095108 0.0033658737 0)
(0.56692557 0.002871665 0)
(0.55436324 0.0024648977 0)
(0.54306688 0.002135197 0)
(0.53285581 0.0018667695 0)
(0.52357726 0.0016445821 0)
(0.51510217 0.001459524 0)
(0.50732043 0.0013045568 0)
(0.50013627 0.0011738309 0)
(0.49346801 0.0010621015 0)
(0.48725164 0.00096613158 0)
(0.48143271 0.00088382179 0)
(0.47596514 0.00081218164 0)
(0.47080936 0.00074869617 0)
(0.46593202 0.00069221786 0)
(0.46130375 0.00064189535 0)
(0.45689951 0.00059678337 0)
(0.45269771 0.00055620095 0)
(0.44868002 0.00052008832 0)
(0.44482418 0.00048766384 0)
(0.44111865 0.00045804438 0)
(0.43754876 0.00043121656 0)
(0.4341025 0.00040669915 0)
(0.43077 0.00038416426 0)
(0.42754214 0.00036346707 0)
(0.42441074 0.00034425647 0)
(0.42136903 0.0003264041 0)
(0.41841053 0.00030981875 0)
(0.41552961 0.0002943292 0)
(0.41272084 0.00027995642 0)
(0.40997905 0.0002665486 0)
(0.40730004 0.0002539577 0)
(0.40467987 0.00024217412 0)
(0.40211502 0.00023105312 0)
(0.39960248 0.00022056796 0)
(0.39713927 0.00021066553 0)
(0.394723 0.00020128043 0)
(0.39235121 0.00019242377 0)
(0.39002175 0.00018401459 0)
(0.38773261 0.00017605599 0)
(0.3854817 0.0001685242 0)
(0.38326714 0.00016138248 0)
(0.38108732 0.0001545848 0)
(0.37894104 0.00014808656 0)
(0.37682708 0.0001419002 0)
(0.37474413 0.00013599906 0)
(0.37269106 0.00013037382 0)
(0.37066682 0.00012500132 0)
(0.36867042 0.00011987856 0)
(0.36670076 0.00011499513 0)
(0.3647569 0.00011033093 0)
(0.36283803 0.00010587045 0)
(0.3609434 0.00010160361 0)
(0.35907226 9.7524538e-05 0)
(0.35722389 9.3621352e-05 0)
(0.35539766 8.9884347e-05 0)
(0.35359299 8.6305194e-05 0)
(0.35180923 8.2882114e-05 0)
(0.35004576 7.9605806e-05 0)
(0.34830199 7.6470301e-05 0)
(0.34657738 7.3466924e-05 0)
(0.34487137 7.0591915e-05 0)
(0.34318345 6.7837968e-05 0)
(0.34151308 6.5202237e-05 0)
(0.33985973 6.2678262e-05 0)
(0.33822288 6.0262671e-05 0)
(0.33660196 5.7952657e-05 0)
(0.33499641 5.574384e-05 0)
(0.33340556 5.3635454e-05 0)
(0.33182876 5.1624434e-05 0)
(0.33026507 4.9711746e-05 0)
(0.32871383 4.789815e-05 0)
(0.32717317 4.6184965e-05 0)
(0.32564314 4.4586516e-05 0)
(0.32411808 4.3099652e-05 0)
(0.32260314 4.1776434e-05 0)
(0.32107666 4.0608129e-05 0)
(0.31956896 3.9695763e-05 0)
(0.31799585 3.9317099e-05 0)
(0.31647469 3.9094994e-05 5.6313015e-21)
(0.31471995 4.1297436e-05 0)
(0.31330033 2.9399406e-05 0)
(0.31062853 5.7457196e-05 -7.7622457e-21)
(0.96995977 0.024407152 0)
(0.97545731 0.032526365 0)
(0.98343864 0.036260046 0)
(0.99004892 0.036515426 0)
(0.99359709 0.034753713 0)
(0.99326194 0.032281547 0)
(0.98707206 0.029660939 0)
(0.97425935 0.027046657 0)
(0.95498338 0.024392286 0)
(0.93119386 0.021554238 0)
(0.90463038 0.018739518 0)
(0.87667132 0.016124977 0)
(0.84846662 0.013790726 0)
(0.82092507 0.011763101 0)
(0.79469587 0.010024945 0)
(0.77017816 0.0085452052 0)
(0.74755342 0.0072974012 0)
(0.72683655 0.0062518943 0)
(0.70793755 0.0053831282 0)
(0.69071348 0.0046652967 0)
(0.67501086 0.004068849 0)
(0.66067327 0.0035725571 0)
(0.64755613 0.0031567234 0)
(0.63552519 0.0028049673 0)
(0.62445561 0.0025064175 0)
(0.61423484 0.0022521647 0)
(0.60475905 0.0020337821 0)
(0.59594479 0.0018451821 0)
(0.58772014 0.0016820445 0)
(0.58002116 0.001539544 0)
(0.57279098 0.001413633 0)
(0.56598042 0.0013020209 0)
(0.55954639 0.0012028822 0)
(0.55345023 0.0011142835 0)
(0.5476606 0.0010347343 0)
(0.54214899 0.0009636539 0)
(0.53688995 0.00089979899 0)
(0.53186081 0.000841787 0)
(0.52704183 0.00078926578 0)
(0.52241473 0.0007414284 0)
(0.51796398 0.00069762952 0)
(0.51367553 0.0006575171 0)
(0.50953656 0.00062049943 0)
(0.50553603 0.00058628074 0)
(0.50166365 0.0005546348 0)
(0.49791021 0.0005252317 0)
(0.4942676 0.00049801195 0)
(0.49072794 0.00047271523 0)
(0.48728451 0.00044907719 0)
(0.48393118 0.00042702565 0)
(0.48066231 0.00040632651 0)
(0.47747286 0.00038690048 0)
(0.47435807 0.00036863654 0)
(0.47131383 0.00035140991 0)
(0.4683363 0.0003352005 0)
(0.46542197 0.00031988006 0)
(0.46256753 0.0003054297 0)
(0.45976978 0.00029179278 0)
(0.45702592 0.00027889803 0)
(0.45433341 0.00026666721 0)
(0.45169006 0.00025502764 0)
(0.44909373 0.00024398115 0)
(0.44654235 0.00023347943 0)
(0.44403403 0.00022349662 0)
(0.44156705 0.00021399173 0)
(0.43913976 0.00020495159 0)
(0.43675052 0.00019635294 0)
(0.43439785 0.00018815993 0)
(0.43208043 0.00018034467 0)
(0.42979701 0.00017288684 0)
(0.4275464 0.00016577186 0)
(0.42532748 0.00015897805 0)
(0.42313921 0.00015248716 0)
(0.42098061 0.00014628375 0)
(0.41885069 0.0001403608 0)
(0.4167485 0.00013470166 0)
(0.41467314 0.00012929431 0)
(0.41262376 0.00012412372 0)
(0.41059953 0.00011918141 0)
(0.40859964 0.00011445463 0)
(0.40662331 0.00010993677 0)
(0.40466975 0.0001056166 0)
(0.40273821 0.00010148725 0)
(0.40082788 9.7542943e-05 0)
(0.39893796 9.3776201e-05 0)
(0.39706754 9.0184132e-05 0)
(0.39521577 8.676221e-05 0)
(0.39338142 8.3509551e-05 0)
(0.39156362 8.0430151e-05 0)
(0.38976013 7.75195e-05 0)
(0.38797084 7.4813671e-05 0)
(0.38618935 7.2280059e-05 0)
(0.38442103 7.006235e-05 0)
(0.38264197 6.8024638e-05 0)
(0.38088471 6.6583647e-05 0)
(0.3790574 6.56952e-05 0)
(0.37728605 6.5770149e-05 4.2823313e-21)
(0.37525848 6.7826121e-05 0)
(0.37358823 5.6390415e-05 0)
(0.37050929 8.5007352e-05 6.0453532e-21)
(0.9719447 0.023243197 0)
(0.97687821 0.030485986 0)
(0.98421609 0.034207926 0)
(0.99128781 0.034672707 0)
(0.9964337 0.033389608 0)
(0.99953977 0.031520893 0)
(1.0020008 0.029638618 0)
(1.0018765 0.027892321 0)
(1.000302 0.026210962 0)
(0.99562337 0.024479336 0)
(0.98715529 0.022680063 0)
(0.97471215 0.020822872 0)
(0.95879736 0.018854922 0)
(0.94025685 0.016853857 0)
(0.91980364 0.014923001 0)
(0.89812582 0.01312554 0)
(0.87592739 0.011508111 0)
(0.85383964 0.010067425 0)
(0.83238031 0.0088005512 0)
(0.8119148 0.0077026037 0)
(0.79265594 0.0067578184 0)
(0.7746772 0.0059552679 0)
(0.75796019 0.0052759082 0)
(0.74244123 0.0046978837 0)
(0.7280378 0.00420343 0)
(0.71466244 0.0037782226 0)
(0.70222569 0.003409631 0)
(0.69064174 0.0030885068 0)
(0.67982986 0.0028086417 0)
(0.6697146 0.002563169 0)
(0.66022886 0.0023462562 0)
(0.65131256 0.0021540853 0)
(0.6429111 0.0019834772 0)
(0.63497486 0.0018312145 0)
(0.62746173 0.0016947975 0)
(0.62033269 0.0015728011 0)
(0.61355667 0.0014631434 0)
(0.60710155 0.0013638588 0)
(0.60094066 0.0012740999 0)
(0.59504932 0.0011924868 0)
(0.5894061 0.0011179976 0)
(0.58399112 0.00104998 0)
(0.57878629 0.00098749205 0)
(0.5737758 0.00092997867 0)
(0.56894492 0.00087700492 0)
(0.56428026 0.00082799531 0)
(0.55977054 0.00078271929 0)
(0.55540502 0.00074075696 0)
(0.55117431 0.0007016987 0)
(0.54706972 0.00066538044 0)
(0.54308299 0.0006314472 0)
(0.53920681 0.00059972853 0)
(0.53543433 0.0005700264 0)
(0.53175945 0.00054212964 0)
(0.52817665 0.00051596211 0)
(0.52468071 0.0004913305 0)
(0.52126682 0.00046816968 0)
(0.51793054 0.00044636842 0)
(0.514668 0.00042580805 0)
(0.51147553 0.0004063726 0)
(0.50834975 0.00038795179 0)
(0.50528746 0.00037052247 0)
(0.50228566 0.00035400413 0)
(0.49934162 0.00033834501 0)
(0.4964528 0.00032347882 0)
(0.49361681 0.00030937439 0)
(0.49083134 0.00029598799 0)
(0.48809435 0.00028326303 0)
(0.48540387 0.00027115481 0)
(0.4827581 0.00025962756 0)
(0.48015534 0.00024865287 0)
(0.477594 0.00023819559 0)
(0.47507256 0.00022822606 0)
(0.47258959 0.00021871822 0)
(0.47014368 0.00020965596 0)
(0.46773353 0.00020101242 0)
(0.46535787 0.00019276712 0)
(0.46301552 0.00018489643 0)
(0.46070533 0.00017738485 0)
(0.45842617 0.00017021227 0)
(0.45617699 0.0001633664 0)
(0.4539567 0.00015682958 0)
(0.4517643 0.00015058989 0)
(0.44959871 0.00014463716 0)
(0.44745889 0.00013895967 0)
(0.4453437 0.00013355115 0)
(0.44325203 0.00012840493 0)
(0.44118242 0.00012351702 0)
(0.43913375 0.00011889508 0)
(0.4371035 0.00011452641 0)
(0.43509132 0.00011047335 0)
(0.43309041 0.00010666507 0)
(0.43110592 0.00010335823 0)
(0.42911304 0.00010025251 0)
(0.4271445 9.8163573e-05 0)
(0.42510586 9.6593809e-05 0)
(0.42312458 9.7042468e-05 3.5019159e-21)
(0.42087824 9.8518353e-05 5.8602515e-20)
(0.41899735 8.9618815e-05 0)
(0.41558854 0.00011441736 0)
(0.97338849 0.022376741 0)
(0.97784477 0.028804963 0)
(0.9841766 0.032351101 0)
(0.99037274 0.033079887 0)
(0.99537983 0.03224075 0)
(0.9991281 0.030726088 0)
(1.0017532 0.029084992 0)
(1.0036103 0.027548543 0)
(1.0048085 0.026046327 0)
(1.0056757 0.024591687 0)
(1.0054565 0.023210499 0)
(1.0042547 0.021882535 0)
(1.0013736 0.020571594 0)
(0.9961516 0.019259559 0)
(0.9883022 0.017956267 0)
(0.97765221 0.016607775 0)
(0.9646158 0.015202932 0)
(0.94950142 0.013809964 0)
(0.93268654 0.012464169 0)
(0.91463512 0.011199542 0)
(0.89590159 0.010033859 0)
(0.87702249 0.0089739287 0)
(0.8584599 0.0080207684 0)
(0.84055095 0.0071734918 0)
(0.82349473 0.0064296246 0)
(0.80737351 0.0057828781 0)
(0.79219495 0.0052208719 0)
(0.77793068 0.0047298965 0)
(0.76453472 0.0042994235 0)
(0.75195277 0.0039193809 0)
(0.74012798 0.0035818782 0)
(0.72900264 0.0032818429 0)
(0.71851992 0.0030149049 0)
(0.7086269 0.0027764532 0)
(0.6992752 0.0025628251 0)
(0.6904184 0.0023714846 0)
(0.68201701 0.0021993754 0)
(0.67403367 0.002043866 0)
(0.66643414 0.0019033593 0)
(0.65918763 0.0017758217 0)
(0.65226695 0.0016596738 0)
(0.64564666 0.0015538307 0)
(0.63930344 0.0014569045 0)
(0.63321662 0.0013679788 0)
(0.62736699 0.0012863155 0)
(0.62173707 0.0012110216 0)
(0.61631149 0.0011416259 0)
(0.61107613 0.0010774796 0)
(0.60601853 0.0010179647 0)
(0.60112705 0.0009627754 0)
(0.59639073 0.00091139472 0)
(0.59179986 0.00086352631 0)
(0.58734527 0.0008188551 0)
(0.58301867 0.00077705109 0)
(0.57881254 0.00073795894 0)
(0.57471953 0.00070129074 0)
(0.57073332 0.00066690146 0)
(0.56684809 0.00063460658 0)
(0.56305865 0.00060422782 0)
(0.55935995 0.00057559962 0)
(0.55574734 0.00054856011 0)
(0.55221646 0.00052304622 0)
(0.54876331 0.00049893237 0)
(0.54538418 0.00047613213 0)
(0.54207559 0.00045454579 0)
(0.53883425 0.00043411261 0)
(0.53565715 0.0004147591 0)
(0.53254155 0.00039640306 0)
(0.5294848 0.00037897714 0)
(0.52648443 0.00036242358 0)
(0.52353818 0.00034669436 0)
(0.52064393 0.00033173696 0)
(0.51779961 0.00031750699 0)
(0.51500326 0.00030396304 0)
(0.51225305 0.00029107531 0)
(0.50954724 0.00027880365 0)
(0.50688419 0.00026711627 0)
(0.5042623 0.00025597829 0)
(0.50168009 0.00024536461 0)
(0.49913608 0.00023524542 0)
(0.4966289 0.00022560056 0)
(0.49415716 0.00021640405 0)
(0.49171956 0.00020763709 0)
(0.48931474 0.00019928346 0)
(0.48694141 0.0001913258 0)
(0.48459816 0.00018375307 0)
(0.48228362 0.00017655543 0)
(0.47999611 0.00016972459 0)
(0.47773424 0.00016327158 0)
(0.47549525 0.00015717387 0)
(0.47327851 0.00015152221 0)
(0.47107696 0.00014620273 0)
(0.46889539 0.00014159663 0)
(0.4667087 0.00013721974 0)
(0.46454888 0.00013433192 0)
(0.46232142 0.00013191317 0)
(0.46015185 0.00013272841 0)
(0.4577157 0.00013331123 0)
(0.45564792 0.0001285091 1.1252707e-19)
(0.45195081 0.00014619734 0)
(0.97464908 0.021583499 0)
(0.97860484 0.027335027 0)
(0.9841492 0.030703425 0)
(0.98960489 0.031637669 0)
(0.994113 0.031103328 0)
(0.99759543 0.02987224 0)
(1.0002321 0.028450844 0)
(1.0023236 0.02705527 0)
(1.0040464 0.025665002 0)
(1.0053377 0.024317696 0)
(1.0062661 0.023040754 0)
(1.0068579 0.021812348 0)
(1.0071659 0.020641818 0)
(1.0069702 0.019551643 0)
(1.0061228 0.018529892 0)
(1.0044538 0.017558794 0)
(1.0013501 0.016630138 0)
(0.99645424 0.015719446 0)
(0.98951149 0.014815469 0)
(0.98038331 0.013876429 0)
(0.96921454 0.012891797 0)
(0.95616222 0.011900773 0)
(0.9414921 0.010922 0)
(0.92560922 0.0099768249 0)
(0.90901737 0.009080731 0)
(0.89221309 0.0082444497 0)
(0.87561404 0.0074774605 0)
(0.85951361 0.0067846188 0)
(0.84407536 0.0061679566 0)
(0.82936643 0.005622249 0)
(0.81540064 0.0051377796 0)
(0.80216594 0.0047059124 0)
(0.7896358 0.0043196139 0)
(0.77777539 0.0039727377 0)
(0.76654541 0.0036609159 0)
(0.75590307 0.0033808366 0)
(0.74580779 0.0031284346 0)
(0.73622108 0.0029003305 0)
(0.7271055 0.002694179 0)
(0.71842607 0.0025071453 0)
(0.71015109 0.0023370088 0)
(0.7022509 0.0021821582 0)
(0.69469792 0.0020406454 0)
(0.68746716 0.0019110994 0)
(0.68053533 0.0017923888 0)
(0.6738812 0.0016832171 0)
(0.66748531 0.001582793 0)
(0.66132972 0.0014901641 0)
(0.6553985 0.001404447 0)
(0.64967691 0.0013251461 0)
(0.64415122 0.0012515344 0)
(0.63880907 0.0011831415 0)
(0.63363886 0.001119494 0)
(0.62863005 0.0010601114 0)
(0.62377293 0.001004727 0)
(0.61905819 0.00095293397 0)
(0.61447763 0.00090448104 0)
(0.61002373 0.00085908216 0)
(0.60568967 0.00081647814 0)
(0.60146894 0.00077643754 0)
(0.59735558 0.00073873148 0)
(0.59334398 0.00070323945 0)
(0.58942904 0.00066977805 0)
(0.58560596 0.0006382172 0)
(0.58187012 0.00060841176 0)
(0.57821732 0.00058025639 0)
(0.57464378 0.00055363934 0)
(0.57114594 0.00052844767 0)
(0.56772036 0.00050458409 0)
(0.56436388 0.00048196181 0)
(0.56107356 0.0004605068 0)
(0.55784665 0.00044014318 0)
(0.55468052 0.00042080705 0)
(0.55157266 0.00040243739 0)
(0.54852073 0.00038498595 0)
(0.54552252 0.00036839547 0)
(0.54257595 0.00035261944 0)
(0.539679 0.00033760861 0)
(0.53682978 0.00032332529 0)
(0.53402646 0.00030972732 0)
(0.53126729 0.00029678418 0)
(0.52855056 0.00028445934 0)
(0.52587464 0.00027272503 0)
(0.5232379 0.00026155714 0)
(0.52063872 0.00025093097 0)
(0.51807544 0.00024082914 0)
(0.51554642 0.00023123737 0)
(0.51304972 0.00022214172 0)
(0.51058368 0.00021355587 0)
(0.50814533 0.00020544614 0)
(0.50573373 0.00019793238 0)
(0.50334165 0.00019085498 0)
(0.5009734 0.00018472552 0)
(0.49860395 0.00017886636 0)
(0.49626411 0.00017500546 0)
(0.49386053 0.00017156478 0)
(0.49151535 0.00017268407 0)
(0.48890606 0.00017212166 0)
(0.48666689 0.00017268746 1.006521e-19)
(0.48270611 0.00018057035 0)
(0.97594658 0.020851914 0)
(0.97937762 0.025987589 0)
(0.98425765 0.029212486 0)
(0.98916902 0.030326051 0)
(0.99331733 0.030051105 0)
(0.9965693 0.029068259 0)
(0.99908165 0.027834277 0)
(1.001086 0.026562263 0)
(1.0027469 0.025276831 0)
(1.0041079 0.024017368 0)
(1.0052232 0.022806292 0)
(1.0061286 0.021636836 0)
(1.0067992 0.020524506 0)
(1.0072268 0.019481192 0)
(1.0075599 0.018509783 0)
(1.0075416 0.017612483 0)
(1.0073619 0.016789664 0)
(1.0068026 0.016036394 0)
(1.0057146 0.015344895 0)
(1.0038816 0.014699784 0)
(1.0008662 0.014078215 0)
(0.99634797 0.013467807 0)
(0.99003055 0.012836274 0)
(0.98179539 0.012148929 0)
(0.97165701 0.011411219 0)
(0.95972712 0.010642986 0)
(0.94626673 0.0098638194 0)
(0.93170039 0.0090982231 0)
(0.91651978 0.0083593589 0)
(0.90118691 0.0076615118 0)
(0.88605861 0.0070156487 0)
(0.8713613 0.0064286571 0)
(0.85721142 0.0059011012 0)
(0.84365804 0.0054273086 0)
(0.83071621 0.0050004242 0)
(0.8183808 0.0046150815 0)
(0.80663445 0.0042660282 0)
(0.79545246 0.0039494255 0)
(0.78480506 0.0036625511 0)
(0.77466105 0.003401913 0)
(0.76498994 0.0031646988 0)
(0.75576148 0.0029487593 0)
(0.74694654 0.0027515524 0)
(0.73851788 0.0025712061 0)
(0.73044952 0.0024061237 0)
(0.72271738 0.0022545538 0)
(0.71529895 0.0021153418 0)
(0.70817311 0.001987161 0)
(0.70132078 0.0018687953 0)
(0.69472421 0.0017594924 0)
(0.68836688 0.0016582582 0)
(0.68223371 0.0015644058 0)
(0.67631063 0.0014772632 0)
(0.67058486 0.0013961617 0)
(0.66504447 0.0013206929 0)
(0.6596783 0.0012502956 0)
(0.65447611 0.0011845809 0)
(0.64942843 0.0011231399 0)
(0.64452665 0.0010656104 0)
(0.63976273 0.0010116709 0)
(0.63512928 0.00096100433 0)
(0.63061936 0.00091341734 0)
(0.62622659 0.00086865236 0)
(0.621945 0.00082652137 0)
(0.61776889 0.00078682348 0)
(0.61369302 0.00074939773 0)
(0.60971268 0.0007140817 0)
(0.60582337 0.00068072202 0)
(0.60202087 0.00064918368 0)
(0.59830123 0.00061934302 0)
(0.59466075 0.00059109308 0)
(0.591096 0.00056432808 0)
(0.58760372 0.00053895928 0)
(0.58418082 0.00051490013 0)
(0.5808244 0.00049207869 0)
(0.57753174 0.00047041665 0)
(0.57430025 0.00044984876 0)
(0.57112745 0.00043030768 0)
(0.56801102 0.00041173977 0)
(0.56494873 0.00039408745 0)
(0.56193843 0.00037730702 0)
(0.55897805 0.00036134884 0)
(0.55606561 0.00034617379 0)
(0.55319916 0.0003317477 0)
(0.55037677 0.00031803662 0)
(0.54759647 0.00030501506 0)
(0.54485636 0.0002926627 0)
(0.5421542 0.00028095853 0)
(0.53948809 0.00026991778 0)
(0.5368548 0.00025949435 0)
(0.53425309 0.00024983703 0)
(0.53167559 0.00024073882 0)
(0.5291261 0.00023284448 0)
(0.52657983 0.00022527808 0)
(0.5240662 0.00022024887 0)
(0.52149365 0.00021560104 0)
(0.51898034 0.00021692465 0)
(0.51620762 0.00021497024 -2.0739774e-20)
(0.51380744 0.00022203425 0)
(0.50959823 0.00021771165 -2.1243271e-21)
(0.97729511 0.020202134 0)
(0.98024434 0.024757641 0)
(0.98451561 0.027805106 0)
(0.98896134 0.029062364 0)
(0.99283702 0.029035169 0)
(0.99594655 0.028290483 0)
(0.99838673 0.027235898 0)
(1.0003392 0.026086734 0)
(1.0019423 0.02489845 0)
(1.0032607 0.023713116 0)
(1.0043472 0.022559353 0)
(1.0052438 0.021441581 0)
(1.0059696 0.020376224 0)
(1.0065373 0.0193693 0)
(1.0069812 0.01843363 0)
(1.007288 0.017571337 0)
(1.007472 0.016770932 0)
(1.0075548 0.01604174 0)
(1.0075055 0.015384932 0)
(1.0073339 0.014793102 0)
(1.0069527 0.014256792 0)
(1.0062501 0.013770004 0)
(1.0050986 0.013318405 0)
(1.0032109 0.012886048 0)
(1.000221 0.012455276 0)
(0.99580684 0.012012071 0)
(0.98965549 0.011520299 0)
(0.98169034 0.010956219 0)
(0.97189692 0.010342216 0)
(0.96041588 0.009692201 0)
(0.94757672 0.0090285763 0)
(0.93383952 0.00836933 0)
(0.91967931 0.0077317217 0)
(0.9054919 0.007130581 0)
(0.89154797 0.0065755646 0)
(0.87800061 0.0060705963 0)
(0.86492592 0.0056125266 0)
(0.85235957 0.005195941 0)
(0.84031351 0.0048166218 0)
(0.82878414 0.0044702998 0)
(0.81775811 0.0041539363 0)
(0.80721561 0.0038651992 0)
(0.79713395 0.0036011309 0)
(0.78748944 0.0033594732 0)
(0.77825756 0.0031382162 0)
(0.76941433 0.0029351556 0)
(0.76093654 0.0027487639 0)
(0.75280163 0.0025773122 0)
(0.74498863 0.0024192105 0)
(0.73747765 0.0022734029 0)
(0.73024994 0.0021385812 0)
(0.72328816 0.002013799 0)
(0.71657603 0.0018981378 0)
(0.71009864 0.0017907029 0)
(0.70384199 0.0016909056 0)
(0.69779303 0.0015980008 0)
(0.69193961 0.0015114442 0)
(0.68627041 0.0014306761 0)
(0.68077503 0.0013552019 0)
(0.67544379 0.0012845822 0)
(0.67026778 0.0012183911 0)
(0.66523867 0.001156344 0)
(0.66034866 0.0010980928 0)
(0.65559059 0.0010433764 0)
(0.65095767 0.00099192296 0)
(0.64644357 0.00094350243 0)
(0.64204245 0.00089789095 0)
(0.63774888 0.00085488419 0)
(0.63355776 0.0008142992 0)
(0.62946429 0.0007759675 0)
(0.62546399 0.00073974143 0)
(0.62155266 0.00070547741 0)
(0.61772637 0.00067305399 0)
(0.61398139 0.00064235379 0)
(0.61031422 0.00061327617 0)
(0.60672156 0.00058571645 0)
(0.60320028 0.00055958606 0)
(0.59974743 0.00053479537 0)
(0.59636018 0.00051127096 0)
(0.59303587 0.00048893632 0)
(0.58977194 0.00046773136 0)
(0.58656592 0.00044759042 0)
(0.58341546 0.00042846035 0)
(0.58031823 0.00041029446 0)
(0.577272 0.00039304732 0)
(0.57427447 0.0003766833 0)
(0.57132341 0.00036117425 0)
(0.56841635 0.00034649042 0)
(0.56555104 0.00033264723 0)
(0.56272406 0.00031958483 0)
(0.55993382 0.00030748024 0)
(0.55717282 0.00029607786 0)
(0.55444435 0.00028615675 0)
(0.55172393 0.00027664033 0)
(0.54903954 0.00027022651 0)
(0.54630165 0.0002641701 0)
(0.54362436 0.00026556936 1.1713662e-21)
(0.54069359 0.00026196242 0)
(0.53813927 0.0002765826 8.7095138e-20)
(0.53369104 0.00025780247 0)
(0.97864784 0.01962309 0)
(0.98119272 0.023658727 0)
(0.9849103 0.026498864 0)
(0.98891601 0.027842624 0)
(0.99253784 0.028026816 0)
(0.99552962 0.027503287 0)
(0.99792545 0.02662661 0)
(0.99985905 0.025606139 0)
(1.0014455 0.02451743 0)
(1.0027486 0.023408886 0)
(1.0038194 0.022315137 0)
(1.0046991 0.021248068 0)
(1.0054149 0.020224009 0)
(1.005988 0.019251736 0)
(1.0064412 0.018344499 0)
(1.0067968 0.017504457 0)
(1.0070654 0.016724931 0)
(1.0072565 0.016014953 0)
(1.0073742 0.015373798 0)
(1.0074468 0.014793159 0)
(1.0074361 0.014267975 0)
(1.0073826 0.013797416 0)
(1.0072507 0.013374964 0)
(1.0069953 0.012991218 0)
(1.0065403 0.012637242 0)
(1.0057691 0.01230589 0)
(1.004538 0.011987277 0)
(1.002484 0.011669251 0)
(0.9992789 0.011336938 0)
(0.99457801 0.010965462 0)
(0.98816482 0.010525613 0)
(0.9799508 0.010021474 0)
(0.96999007 0.0094678941 0)
(0.9585342 0.0088842663 0)
(0.94600387 0.0082919464 0)
(0.93287022 0.0077083661 0)
(0.9195465 0.0071499094 0)
(0.90632667 0.0066278077 0)
(0.89338515 0.0061476887 0)
(0.88081586 0.0057081085 0)
(0.86866902 0.0053051304 0)
(0.85696875 0.0049354261 0)
(0.84572178 0.0045956345 0)
(0.83492352 0.0042835031 0)
(0.82456183 0.0039969646 0)
(0.81462085 0.0037335727 0)
(0.8050824 0.0034915659 0)
(0.79592679 0.0032688906 0)
(0.78713432 0.0030636194 0)
(0.77868526 0.0028743997 0)
(0.77056034 0.0026995909 0)
(0.76274125 0.0025379635 0)
(0.7552104 0.0023883212 0)
(0.74795144 0.002249512 0)
(0.74094879 0.002120737 0)
(0.7341878 0.0020010372 0)
(0.72765471 0.0018896885 0)
(0.72133659 0.0017859562 0)
(0.71522142 0.0016891883 0)
(0.70929794 0.0015988026 0)
(0.70355575 0.0015142416 0)
(0.6979851 0.0014351108 0)
(0.69257683 0.0013609526 0)
(0.68732251 0.0012914124 0)
(0.68221418 0.0012261318 0)
(0.67724443 0.0011648026 0)
(0.67240631 0.0011071269 0)
(0.66769336 0.0010528346 0)
(0.66309954 0.0010016842 0)
(0.65861918 0.00095345314 0)
(0.65424696 0.00090794452 0)
(0.64997789 0.00086496857 0)
(0.64580729 0.0008243633 0)
(0.64173075 0.00078597362 0)
(0.63774412 0.00074966411 0)
(0.63384348 0.00071529828 0)
(0.63002515 0.00068275891 0)
(0.62628561 0.00065192936 0)
(0.62262156 0.00062271212 0)
(0.61902982 0.00059500782 0)
(0.61550741 0.00056873632 0)
(0.61205141 0.00054381265 0)
(0.60865909 0.00052016661 0)
(0.60532774 0.00049773621 0)
(0.60205475 0.00047646203 0)
(0.59883749 0.00045629599 0)
(0.59567342 0.00043720004 0)
(0.59255973 0.00041913383 0)
(0.58949392 0.0004021113 0)
(0.58647226 0.00038605745 0)
(0.58349287 0.00037117639 0)
(0.58054809 0.00035716292 0)
(0.57764071 0.00034493032 0)
(0.57474658 0.00033320046 0)
(0.57189223 0.00032516391 0)
(0.56899025 0.0003174786 0)
(0.56615081 0.00031879962 0)
(0.56306449 0.00031325882 0)
(0.56036031 0.00033645421 0)
(0.55567859 0.00030103253 0)
(0.97996018 0.019095571 0)
(0.98218012 0.022678643 0)
(0.98541362 0.025304823 0)
(0.98900052 0.026685354 0)
(0.99236288 0.027035757 0)
(0.99522964 0.026707371 0)
(0.99758085 0.026000344 0)
(0.99950377 0.025109699 0)
(1.001089 0.024122986 0)
(1.0023947 0.023094903 0)
(1.0034686 0.022064616 0)
(1.0043503 0.021049929 0)
(1.0050679 0.020068338 0)
(1.0056446 0.019131367 0)
(1.0061027 0.018251478 0)
(1.0064657 0.017433193 0)
(1.0067485 0.01667287 0)
(1.0069621 0.015977494 0)
(1.0071195 0.015346118 0)
(1.0072389 0.014775294 0)
(1.0073181 0.014260738 0)
(1.0073648 0.013796476 0)
(1.0073879 0.01337783 0)
(1.0073794 0.012998577 0)
(1.0073437 0.012654447 0)
(1.0072534 0.012341673 0)
(1.0070837 0.012054216 0)
(1.0067783 0.011785134 0)
(1.0062436 0.011530209 0)