# y+ ()         
# Time          	patch           	min             	max             	average         
361             	bottom	3.21532759e-03	1.45284017e-02	3.99474119e-03
