/*--------------------------------*- C++ -*----------------------------------*\
| =========                 |                                                 |
| \\      /  F ield         | OpenFOAM: The Open Source CFD Toolbox           |
|  \\    /   O peration     | Version:  2206                                  |
|   \\  /    A nd           | Website:  www.openfoam.com                      |
|    \\/     M anipulation  |                                                 |
\*---------------------------------------------------------------------------*/
FoamFile
{
    version     2.0;
    format      ascii;
    arch        "LSB;label=32;scalar=64";
    class       volScalarField;
    location    "100";
    object      nut;
}
// * * * * * * * * * * * * * * * * * * * * * * * * * * * * * * * * * * * * * //

dimensions      [0 2 -1 0 0 0 0];

internalField   nonuniform List<scalar> 
13056
(
1.3245494e-11
1.3245541e-11
1.3245618e-11
1.3245714e-11
1.3245826e-11
1.3245955e-11
1.3246105e-11
1.3246278e-11
1.3246479e-11
1.3246713e-11
1.3246987e-11
1.3247308e-11
1.3247687e-11
1.324814e-11
1.3248687e-11
1.3249355e-11
1.3250199e-11
1.3251262e-11
1.325276e-11
1.3254618e-11
1.3258199e-11
1.3261697e-11
1.3274591e-11
1.3265346e-11
6.2084033e-20
4.9225152e-20
4.8178587e-20
4.735351e-20
4.672758e-20
4.6240176e-20
4.5844172e-20
4.5513059e-20
4.5230135e-20
4.4984432e-20
4.4768176e-20
4.4575613e-20
4.4402441e-20
4.4245416e-20
4.4102026e-20
4.3970286e-20
4.3848605e-20
4.3735694e-20
4.3630488e-20
4.3532104e-20
4.3439803e-20
4.3352957e-20
4.3271032e-20
4.3193566e-20
4.3120158e-20
4.3050459e-20
4.2984165e-20
4.2921007e-20
4.2860743e-20
4.2803159e-20
4.2748063e-20
4.2695284e-20
4.2644666e-20
4.2596067e-20
4.2549356e-20
4.2504415e-20
4.2461137e-20
4.2419421e-20
4.2379177e-20
4.2340321e-20
4.2302772e-20
4.2266457e-20
4.2231307e-20
4.2197259e-20
4.2164253e-20
4.2132232e-20
4.2101146e-20
4.2070943e-20
4.2041578e-20
4.2013006e-20
4.1985184e-20
4.1958072e-20
4.1931634e-20
4.1905832e-20
4.1880634e-20
4.1856005e-20
4.1831915e-20
4.1808334e-20
4.1785233e-20
4.1762583e-20
4.1740359e-20
4.1718534e-20
4.1697082e-20
4.1675979e-20
4.1655204e-20
4.1634733e-20
4.1614543e-20
4.1594613e-20
4.1574922e-20
4.1555447e-20
4.153617e-20
4.1517069e-20
4.1498125e-20
4.1479318e-20
4.1460628e-20
4.1442035e-20
4.1423521e-20
4.1405066e-20
4.1386649e-20
4.1368252e-20
4.1349855e-20
4.1331437e-20
4.1312979e-20
4.129446e-20
4.1275861e-20
4.1257161e-20
4.1238349e-20
4.1219399e-20
4.1200482e-20
4.1181109e-20
4.1161437e-20
4.1142e-20
4.1123067e-20
4.1104755e-20
4.108711e-20
4.1070146e-20
4.1053856e-20
4.1038227e-20
4.1023239e-20
4.1008868e-20
4.0995091e-20
4.0981878e-20
4.0969205e-20
4.0957044e-20
4.0945371e-20
4.0934157e-20
4.0923381e-20
4.0912979e-20
4.0903033e-20
4.0892967e-20
4.0884436e-20
4.0870682e-20
1.3245494e-11
1.3245541e-11
1.3245619e-11
1.3245716e-11
1.3245829e-11
1.324596e-11
1.3246111e-11
1.3246286e-11
1.3246489e-11
1.3246726e-11
1.3247002e-11
1.3247326e-11
1.3247709e-11
1.3248166e-11
1.3248717e-11
1.3249392e-11
1.3250242e-11
1.3251314e-11
1.3252824e-11
1.3254697e-11
1.3258303e-11
1.3261827e-11
1.3274808e-11
1.3265565e-11
5.0567674e-18
4.0234607e-18
3.939314e-18
3.8723766e-18
3.8213952e-18
3.7816085e-18
3.7492339e-18
3.7221334e-18
3.6989551e-18
3.6788098e-18
3.6610662e-18
3.6452563e-18
3.6310301e-18
3.6181233e-18
3.6063313e-18
3.5954922e-18
3.5854763e-18
3.5761782e-18
3.5675113e-18
3.5594034e-18
3.5517939e-18
3.5446319e-18
3.5378735e-18
3.5314809e-18
3.5254216e-18
3.5196668e-18
3.5141918e-18
3.5089745e-18
3.5039951e-18
3.4992361e-18
3.4946818e-18
3.4903183e-18
3.4861326e-18
3.4821133e-18
3.4782495e-18
3.4745317e-18
3.4709508e-18
3.467499e-18
3.4641685e-18
3.4609526e-18
3.4578446e-18
3.4548386e-18
3.4519289e-18
3.4491102e-18
3.4463776e-18
3.4437267e-18
3.441153e-18
3.4386525e-18
3.4362213e-18
3.4338558e-18
3.4315525e-18
3.4293082e-18
3.4271196e-18
3.4249839e-18
3.4228982e-18
3.4208598e-18
3.4188662e-18
3.4169149e-18
3.4150035e-18
3.4131296e-18
3.4112911e-18
3.4094859e-18
3.4077117e-18
3.4059667e-18
3.404249e-18
3.4025566e-18
3.4008876e-18
3.3992404e-18
3.3976131e-18
3.396004e-18
3.3944113e-18
3.3928334e-18
3.3912687e-18
3.3897154e-18
3.388172e-18
3.3866367e-18
3.3851081e-18
3.3835845e-18
3.3820641e-18
3.3805455e-18
3.3790269e-18
3.3775066e-18
3.375983e-18
3.3744544e-18
3.372919e-18
3.3713754e-18
3.3698223e-18
3.3682576e-18
3.3666958e-18
3.3650945e-18
3.3634651e-18
3.3618529e-18
3.3602802e-18
3.3587576e-18
3.3572891e-18
3.355876e-18
3.3545182e-18
3.3532146e-18
3.3519638e-18
3.3507639e-18
3.3496128e-18
3.3485085e-18
3.3474488e-18
3.3464315e-18
3.3454547e-18
3.3445159e-18
3.3436134e-18
3.3427421e-18
3.3419086e-18
3.3410649e-18
3.3403497e-18
3.339196e-18
1.3245494e-11
1.3245542e-11
1.3245623e-11
1.3245722e-11
1.3245839e-11
1.3245974e-11
1.324613e-11
1.324631e-11
1.3246519e-11
1.3246763e-11
1.3247047e-11
1.324738e-11
1.3247774e-11
1.3248243e-11
1.324881e-11
1.3249502e-11
1.3250375e-11
1.3251473e-11
1.3253019e-11
1.3254935e-11
1.3258621e-11
1.3262222e-11
1.3275469e-11
1.3266164e-11
3.9858281e-17
3.1806259e-17
3.115772e-17
3.0634661e-17
3.0233931e-17
2.9920181e-17
2.9664326e-17
2.9449797e-17
2.9266065e-17
2.910619e-17
2.8965231e-17
2.8839518e-17
2.8726302e-17
2.8623506e-17
2.8529521e-17
2.8443072e-17
2.8363138e-17
2.8288888e-17
2.821964e-17
2.8154823e-17
2.809396e-17
2.8036648e-17
2.7982543e-17
2.7931344e-17
2.7882794e-17
2.7836667e-17
2.7792766e-17
2.7750918e-17
2.7710965e-17
2.7672768e-17
2.7636205e-17
2.7601163e-17
2.7567542e-17
2.7535249e-17
2.75042e-17
2.7474317e-17
2.744553e-17
2.7417776e-17
2.7390994e-17
2.7365129e-17
2.7340131e-17
2.731595e-17
2.7292541e-17
2.7269863e-17
2.7247877e-17
2.7226547e-17
2.7205839e-17
2.7185719e-17
2.7166157e-17
2.7147124e-17
2.7128593e-17
2.7110536e-17
2.7092929e-17
2.7075749e-17
2.7058973e-17
2.704258e-17
2.7026548e-17
2.7010858e-17
2.6995491e-17
2.6980429e-17
2.6965653e-17
2.6951146e-17
2.6936892e-17
2.6922873e-17
2.6909077e-17
2.6895487e-17
2.6882088e-17
2.6868866e-17
2.6855805e-17
2.6842893e-17
2.6830116e-17
2.6817459e-17
2.680491e-17
2.6792455e-17
2.678008e-17
2.6767773e-17
2.6755521e-17
2.674331e-17
2.6731126e-17
2.6718957e-17
2.6706789e-17
2.6694608e-17
2.6682401e-17
2.6670152e-17
2.665785e-17
2.664548e-17
2.6633033e-17
2.6620491e-17
2.6607974e-17
2.6595117e-17
2.6582001e-17
2.6568992e-17
2.655628e-17
2.6543954e-17
2.6532051e-17
2.6520585e-17
2.6509556e-17
2.6498958e-17
2.648878e-17
2.6479009e-17
2.646963e-17
2.6460626e-17
2.645198e-17
2.6443676e-17
2.6435698e-17
2.6428026e-17
2.6420648e-17
2.6413521e-17
2.64067e-17
2.6399796e-17
2.6393939e-17
2.6384485e-17
1.3245494e-11
1.3245544e-11
1.3245629e-11
1.3245734e-11
1.3245856e-11
1.3245998e-11
1.3246162e-11
1.3246352e-11
1.3246571e-11
1.3246827e-11
1.3247125e-11
1.3247474e-11
1.3247886e-11
1.3248377e-11
1.3248969e-11
1.3249691e-11
1.3250601e-11
1.3251745e-11
1.3253353e-11
1.3255344e-11
1.3259166e-11
1.3262898e-11
1.3276596e-11
1.3267168e-11
1.5841585e-16
1.2676909e-16
1.2428193e-16
1.2223369e-16
1.2065063e-16
1.1940522e-16
1.1838633e-16
1.1752993e-16
1.1679501e-16
1.1615442e-16
1.1558878e-16
1.1508364e-16
1.1462815e-16
1.1421411e-16
1.1383516e-16
1.1348625e-16
1.1316334e-16
1.1286313e-16
1.1258291e-16
1.1232042e-16
1.1207377e-16
1.1184134e-16
1.1162177e-16
1.1141387e-16
1.1121661e-16
1.1102909e-16
1.1085053e-16
1.1068023e-16
1.1051757e-16
1.1036199e-16
1.10213e-16
1.1007016e-16
1.0993305e-16
1.0980132e-16
1.0967463e-16
1.0955266e-16
1.0943513e-16
1.0932179e-16
1.092124e-16
1.0910674e-16
1.090046e-16
1.0890578e-16
1.0881011e-16
1.0871742e-16
1.0862754e-16
1.0854035e-16
1.0845569e-16
1.0837344e-16
1.0829347e-16
1.0821567e-16
1.0813992e-16
1.0806612e-16
1.0799416e-16
1.0792395e-16
1.0785541e-16
1.0778844e-16
1.0772295e-16
1.0765888e-16
1.0759613e-16
1.0753464e-16
1.0747434e-16
1.0741514e-16
1.0735699e-16
1.0729982e-16
1.0724357e-16
1.0718818e-16
1.0713358e-16
1.0707971e-16
1.0702652e-16
1.0697394e-16
1.0692193e-16
1.0687042e-16
1.0681936e-16
1.067687e-16
1.0671838e-16
1.0666834e-16
1.0661853e-16
1.065689e-16
1.0651939e-16
1.0646994e-16
1.064205e-16
1.0637101e-16
1.0632142e-16
1.0627165e-16
1.0622167e-16
1.061714e-16
1.0612082e-16
1.0606983e-16
1.0601896e-16
1.0596657e-16
1.0591292e-16
1.0585953e-16
1.0580723e-16
1.057564e-16
1.0570723e-16
1.0565978e-16
1.0561409e-16
1.0557011e-16
1.0552784e-16
1.0548721e-16
1.0544817e-16
1.0541066e-16
1.0537461e-16
1.0533996e-16
1.0530664e-16
1.0527458e-16
1.0524372e-16
1.052139e-16
1.0518534e-16
1.0515642e-16
1.0513187e-16
1.0509221e-16
1.3245494e-11
1.3245547e-11
1.3245638e-11
1.324575e-11
1.3245881e-11
1.3246033e-11
1.3246209e-11
1.3246412e-11
1.3246647e-11
1.324692e-11
1.3247238e-11
1.324761e-11
1.324805e-11
1.3248572e-11
1.3249201e-11
1.3249967e-11
1.3250931e-11
1.3252141e-11
1.3253839e-11
1.3255937e-11
1.3259956e-11
1.3263879e-11
1.327823e-11
1.3268613e-11
4.5326051e-16
3.6372418e-16
3.5696801e-16
3.5123692e-16
3.4675317e-16
3.432024e-16
3.4028469e-16
3.378242e-16
3.3570698e-16
3.3385729e-16
3.3222072e-16
3.3075654e-16
3.294341e-16
3.2823018e-16
3.2712673e-16
3.2610942e-16
3.2516674e-16
3.2428933e-16
3.2346944e-16
3.2270064e-16
3.2197751e-16
3.2129548e-16
3.2065061e-16
3.200395e-16
3.1945922e-16
3.1890719e-16
3.1838116e-16
3.1787914e-16
3.1739934e-16
3.1694017e-16
3.1650021e-16
3.1607818e-16
3.1567292e-16
3.1528337e-16
3.1490856e-16
3.1454759e-16
3.1419965e-16
3.13864e-16
3.1353996e-16
3.1322687e-16
3.1292416e-16
3.1263124e-16
3.1234761e-16
3.1207277e-16
3.1180627e-16
3.1154768e-16
3.1129662e-16
3.1105268e-16
3.1081552e-16
3.1058479e-16
3.1036017e-16
3.1014133e-16
3.09928e-16
3.097199e-16
3.0951674e-16
3.0931829e-16
3.0912429e-16
3.0893452e-16
3.0874873e-16
3.085667e-16
3.0838824e-16
3.0821312e-16
3.0804115e-16
3.0787213e-16
3.0770589e-16
3.0754223e-16
3.0738097e-16
3.0722194e-16
3.0706496e-16
3.0690986e-16
3.0675648e-16
3.0660463e-16
3.0645416e-16
3.0630491e-16
3.061567e-16
3.0600937e-16
3.0586276e-16
3.0571671e-16
3.0557103e-16
3.0542557e-16
3.0528014e-16
3.0513458e-16
3.0498871e-16
3.0484235e-16
3.0469532e-16
3.0454744e-16
3.0439861e-16
3.0424853e-16
3.0409885e-16
3.039442e-16
3.0378498e-16
3.0362587e-16
3.0346944e-16
3.0331701e-16
3.0316919e-16
3.0302627e-16
3.0288834e-16
3.0275542e-16
3.0262743e-16
3.0250425e-16
3.0238575e-16
3.0227174e-16
3.0216206e-16
3.0205652e-16
3.0195494e-16
3.018571e-16
3.0176286e-16
3.0167171e-16
3.0158433e-16
3.0149584e-16
3.0142065e-16
3.0129902e-16
1.3245494e-11
1.3245551e-11
1.324565e-11
1.3245772e-11
1.3245915e-11
1.3246081e-11
1.3246273e-11
1.3246494e-11
1.324675e-11
1.3247046e-11
1.3247392e-11
1.3247795e-11
1.3248271e-11
1.3248835e-11
1.3249514e-11
1.325034e-11
1.3251377e-11
1.3252676e-11
1.3254495e-11
1.3256738e-11
1.326102e-11
1.3265199e-11
1.3280425e-11
1.3270552e-11
1.0711468e-15
8.6198901e-16
8.4714268e-16
8.3402087e-16
8.2358672e-16
8.1525184e-16
8.0836366e-16
8.0253004e-16
7.974928e-16
7.9307909e-16
7.8916392e-16
7.8565307e-16
7.8247543e-16
7.7957698e-16
7.7691565e-16
7.74458e-16
7.721771e-16
7.7005102e-16
7.6806161e-16
7.6619373e-16
7.6443466e-16
7.6277363e-16
7.6120141e-16
7.5970998e-16
7.5829238e-16
7.5694256e-16
7.5565518e-16
7.5442558e-16
7.5324949e-16
7.5212314e-16
7.5104318e-16
7.5000659e-16
7.4901059e-16
7.4805268e-16
7.4713054e-16
7.4624202e-16
7.4538522e-16
7.4455836e-16
7.4375981e-16
7.4298804e-16
7.4224161e-16
7.4151918e-16
7.4081949e-16
7.4014139e-16
7.3948379e-16
7.3884566e-16
7.3822605e-16
7.3762403e-16
7.3703874e-16
7.3646934e-16
7.3591505e-16
7.3537513e-16
7.3484885e-16
7.3433556e-16
7.3383459e-16
7.3334534e-16
7.3286719e-16
7.3239959e-16
7.3194195e-16
7.3149376e-16
7.3105448e-16
7.3062362e-16
7.3020066e-16
7.2978514e-16
7.2937663e-16
7.2897465e-16
7.2857875e-16
7.2818849e-16
7.2780345e-16
7.274232e-16
7.2704732e-16
7.2667538e-16
7.2630698e-16
7.259417e-16
7.2557912e-16
7.2521883e-16
7.2486042e-16
7.2450347e-16
7.2414754e-16
7.2379221e-16
7.2343703e-16
7.2308156e-16
7.2272535e-16
7.2236794e-16
7.2200886e-16
7.2164766e-16
7.2128406e-16
7.2091725e-16
7.2055155e-16
7.2017214e-16
7.1977898e-16
7.19384e-16
7.1899403e-16
7.186127e-16
7.182418e-16
7.1788229e-16
7.1753458e-16
7.1719879e-16
7.1687487e-16
7.1656263e-16
7.1626176e-16
7.1597189e-16
7.1569265e-16
7.1542362e-16
7.1516439e-16
7.1491443e-16
7.1467341e-16
7.1444006e-16
7.1421614e-16
7.1398932e-16
7.1379632e-16
7.1348372e-16
1.3245494e-11
1.3245557e-11
1.3245666e-11
1.3245801e-11
1.3245959e-11
1.3246143e-11
1.3246356e-11
1.32466e-11
1.3246883e-11
1.3247211e-11
1.3247592e-11
1.3248036e-11
1.3248559e-11
1.3249178e-11
1.3249922e-11
1.3250824e-11
1.3251956e-11
1.3253369e-11
1.3255345e-11
1.3257774e-11
1.3262394e-11
1.3266903e-11
1.3283251e-11
1.3273053e-11
2.236585e-15
1.8051835e-15
1.7771629e-15
1.7509372e-15
1.7296318e-15
1.712422e-15
1.6980955e-15
1.6858969e-15
1.6753177e-15
1.6660141e-15
1.6577351e-15
1.65029e-15
1.6435339e-15
1.6373569e-15
1.6316728e-15
1.626413e-15
1.6215222e-15
1.6169552e-15
1.6126747e-15
1.6086494e-15
1.6048529e-15
1.601263e-15
1.5978605e-15
1.5946288e-15
1.5915535e-15
1.588622e-15
1.5858231e-15
1.5831472e-15
1.5805855e-15
1.5781299e-15
1.5757735e-15
1.57351e-15
1.5713336e-15
1.569239e-15
1.5672214e-15
1.5652763e-15
1.5633996e-15
1.5615877e-15
1.5598371e-15
1.5581445e-15
1.556507e-15
1.5549217e-15
1.5533859e-15
1.5518972e-15
1.5504532e-15
1.5490519e-15
1.5476911e-15
1.546369e-15
1.5450836e-15
1.5438331e-15
1.542616e-15
1.5414306e-15
1.5402753e-15
1.5391488e-15
1.5380496e-15
1.5369764e-15
1.5359279e-15
1.5349029e-15
1.5339002e-15
1.5329185e-15
1.5319568e-15
1.5310139e-15
1.5300889e-15
1.5291805e-15
1.5282879e-15
1.5274101e-15
1.5265461e-15
1.5256949e-15
1.5248555e-15
1.524027e-15
1.5232085e-15
1.5223991e-15
1.5215977e-15
1.5208036e-15
1.5200158e-15
1.5192333e-15
1.5184552e-15
1.5176805e-15
1.5169084e-15
1.5161377e-15
1.5153676e-15
1.514597e-15
1.5138248e-15
1.51305e-15
1.5122715e-15
1.5114883e-15
1.5106997e-15
1.5099038e-15
1.5091107e-15
1.5082836e-15
1.5074199e-15
1.5065466e-15
1.5056801e-15
1.5048293e-15
1.5039989e-15
1.5031916e-15
1.5024087e-15
1.5016509e-15
1.5009183e-15
1.5002108e-15
1.4995279e-15
1.4988688e-15
1.4982329e-15
1.4976194e-15
1.4970274e-15
1.4964559e-15
1.4959042e-15
1.4953694e-15
1.4948557e-15
1.4943351e-15
1.4938915e-15
1.4931719e-15
1.3245493e-11
1.3245563e-11
1.3245685e-11
1.3245837e-11
1.3246016e-11
1.3246222e-11
1.3246461e-11
1.3246736e-11
1.3247053e-11
1.324742e-11
1.3247845e-11
1.3248341e-11
1.3248924e-11
1.3249612e-11
1.3250438e-11
1.3251437e-11
1.3252687e-11
1.3254246e-11
1.3256418e-11
1.3259081e-11
1.3264125e-11
1.3269046e-11
1.3286797e-11
1.3276201e-11
4.2857378e-15
3.4701086e-15
3.4235427e-15
3.3762176e-15
3.3366667e-15
3.3042594e-15
3.2770329e-15
3.2536952e-15
3.2333465e-15
3.2153712e-15
3.1993135e-15
3.1848232e-15
3.171633e-15
3.1595386e-15
3.1483801e-15
3.1380294e-15
3.128383e-15
3.1193562e-15
3.1108786e-15
3.1028914e-15
3.0953451e-15
3.0881976e-15
3.0814126e-15
3.0749588e-15
3.0688087e-15
3.0629385e-15
3.057327e-15
3.0519558e-15
3.046808e-15
3.0418686e-15
3.0371241e-15
3.0325626e-15
3.0281729e-15
3.023945e-15
3.0198696e-15
3.0159379e-15
3.0121424e-15
3.0084757e-15
3.0049313e-15
3.0015029e-15
2.9981847e-15
2.9949713e-15
2.9918573e-15
2.988838e-15
2.985909e-15
2.9830661e-15
2.9803052e-15
2.9776226e-15
2.9750145e-15
2.9724776e-15
2.9700085e-15
2.967604e-15
2.9652613e-15
2.9629773e-15
2.9607494e-15
2.958575e-15
2.9564514e-15
2.9543762e-15
2.9523469e-15
2.9503613e-15
2.9484171e-15
2.9465121e-15
2.9446441e-15
2.9428109e-15
2.9410108e-15
2.9392416e-15
2.9375013e-15
2.9357879e-15
2.9340996e-15
2.9324344e-15
2.9307903e-15
2.9291655e-15
2.9275581e-15
2.9259662e-15
2.9243877e-15
2.9228209e-15
2.9212638e-15
2.9197143e-15
2.9181705e-15
2.9166302e-15
2.9150914e-15
2.9135519e-15
2.9120096e-15
2.910462e-15
2.908907e-15
2.9073423e-15
2.9057664e-15
2.9041749e-15
2.90259e-15
2.9009275e-15
2.8991752e-15
2.8973903e-15
2.8956089e-15
2.8938515e-15
2.8921294e-15
2.8904496e-15
2.8888158e-15
2.88723e-15
2.8856935e-15
2.8842062e-15
2.8827677e-15
2.881377e-15
2.8800329e-15
2.878734e-15
2.8774788e-15
2.8762653e-15
2.8750923e-15
2.873954e-15
2.872859e-15
2.8717488e-15
2.8708015e-15
2.869262e-15
1.3245493e-11
1.3245571e-11
1.324571e-11
1.3245882e-11
1.3246086e-11
1.3246321e-11
1.3246592e-11
1.3246905e-11
1.3247265e-11
1.3247681e-11
1.3248162e-11
1.3248723e-11
1.3249379e-11
1.3250154e-11
1.3251081e-11
1.3252201e-11
1.3253598e-11
1.3255335e-11
1.3257751e-11
1.3260702e-11
1.3266267e-11
1.3271695e-11
1.3291165e-11
1.3280099e-11
7.7141013e-15
6.2680848e-15
6.2000729e-15
6.1216597e-15
6.0535757e-15
5.996752e-15
5.9484572e-15
5.9067153e-15
5.8700789e-15
5.8375388e-15
5.8083337e-15
5.7818698e-15
5.75769e-15
5.7354434e-15
5.7148539e-15
5.6956997e-15
5.6778009e-15
5.6610097e-15
5.6452033e-15
5.6302785e-15
5.6161484e-15
5.602739e-15
5.5899867e-15
5.5778358e-15
5.5662381e-15
5.5551512e-15
5.544538e-15
5.5343655e-15
5.5246038e-15
5.5152261e-15
5.5062085e-15
5.4975297e-15
5.4891698e-15
5.4811109e-15
5.473336e-15
5.4658297e-15
5.4585781e-15
5.4515683e-15
5.4447884e-15
5.4382271e-15
5.4318739e-15
5.4257186e-15
5.4197519e-15
5.4139651e-15
5.4083501e-15
5.4028991e-15
5.397605e-15
5.3924606e-15
5.3874593e-15
5.3825947e-15
5.3778607e-15
5.3732514e-15
5.3687613e-15
5.3643852e-15
5.3601179e-15
5.3559545e-15
5.3518902e-15
5.3479204e-15
5.3440406e-15
5.3402463e-15
5.3365334e-15
5.3328976e-15
5.3293349e-15
5.3258412e-15
5.3224129e-15
5.3190461e-15
5.3157369e-15
5.3124816e-15
5.3092764e-15
5.3061177e-15
5.3030016e-15
5.2999246e-15
5.2968829e-15
5.2938728e-15
5.2908905e-15
5.2879322e-15
5.2849941e-15
5.2820722e-15
5.2791625e-15
5.276261e-15
5.2733632e-15
5.270465e-15
5.2675618e-15
5.2646491e-15
5.2617222e-15
5.2587765e-15
5.2558089e-15
5.2528099e-15
5.249826e-15
5.2466739e-15
5.2433159e-15
5.2398662e-15
5.2364002e-15
5.2329627e-15
5.2295796e-15
5.2262667e-15
5.223034e-15
5.2198872e-15
5.21683e-15
5.2138637e-15
5.2109884e-15
5.2082031e-15
5.2055061e-15
5.2028953e-15
5.2003683e-15
5.1979216e-15
5.195553e-15
5.1932513e-15
5.1910342e-15
5.1887853e-15
5.1868632e-15
5.1837337e-15
1.3245492e-11
1.3245581e-11
1.324574e-11
1.3245938e-11
1.3246172e-11
1.3246443e-11
1.3246755e-11
1.3247114e-11
1.3247527e-11
1.3248003e-11
1.3248554e-11
1.3249193e-11
1.3249941e-11
1.3250822e-11
1.3251873e-11
1.325314e-11
1.3254718e-11
1.3256674e-11
1.3259385e-11
1.3262687e-11
1.3268884e-11
1.3274929e-11
1.3296479e-11
1.3284871e-11
1.3242534e-14
1.0803511e-14
1.0719874e-14
1.0600041e-14
1.0490274e-14
1.0396414e-14
1.0315455e-14
1.024475e-14
1.0182186e-14
1.0126246e-14
1.0075755e-14
1.0029774e-14
9.9875726e-15
9.9485878e-15
9.912373e-15
9.8785677e-15
9.8468781e-15
9.8170622e-15
9.788918e-15
9.7622754e-15
9.7369911e-15
9.7129423e-15
9.6900236e-15
9.6681426e-15
9.6472188e-15
9.6271816e-15
9.6079688e-15
9.5895255e-15
9.5718013e-15
9.5547512e-15
9.5383351e-15
9.522517e-15
9.5072634e-15
9.4925439e-15
9.4783298e-15
9.4645948e-15
9.4513151e-15
9.438469e-15
9.4260361e-15
9.4139969e-15
9.4023334e-15
9.3910283e-15
9.3800653e-15
9.3694293e-15
9.3591065e-15
9.3490834e-15
9.3393474e-15
9.3298862e-15
9.3206882e-15
9.3117421e-15
9.3030372e-15
9.2945632e-15
9.2863104e-15
9.2782696e-15
9.2704316e-15
9.2627876e-15
9.2553292e-15
9.2480481e-15
9.2409363e-15
9.2339857e-15
9.2271887e-15
9.220538e-15
9.2140258e-15
9.2076452e-15
9.2013894e-15
9.1952512e-15
9.1892236e-15
9.1832997e-15
9.1774727e-15
9.1717356e-15
9.1660815e-15
9.1605037e-15
9.1549951e-15
9.1495487e-15
9.1441575e-15
9.1388143e-15
9.1335118e-15
9.1282425e-15
9.1229986e-15
9.1177724e-15
9.1125556e-15
9.1073399e-15
9.1021166e-15
9.0968767e-15
9.0916113e-15
9.0863108e-15
9.0809698e-15
9.0755681e-15
9.0701989e-15
9.0644811e-15
9.058314e-15
9.0519169e-15
9.0454419e-15
9.0389819e-15
9.0325927e-15
9.0263102e-15
9.0201574e-15
9.0141492e-15
9.0082952e-15
9.0026008e-15
8.997068e-15
8.9916967e-15
8.9864855e-15
8.9814314e-15
8.976531e-15
8.9717786e-15
8.9671708e-15
8.9626871e-15
8.9583618e-15
8.9539719e-15
8.9502136e-15
8.944082e-15
1.3245492e-11
1.3245593e-11
1.3245777e-11
1.3246007e-11
1.3246278e-11
1.3246592e-11
1.3246954e-11
1.324737e-11
1.3247848e-11
1.3248398e-11
1.3249033e-11
1.3249769e-11
1.3250628e-11
1.3251638e-11
1.325284e-11
1.3254286e-11
1.3256082e-11
1.3258303e-11
1.3261371e-11
1.3265097e-11
1.3272051e-11
1.3278837e-11
1.3302877e-11
1.329066e-11
2.1907561e-14
1.7956283e-14
1.7884356e-14
1.7716965e-14
1.7550879e-14
1.7404094e-14
1.7275015e-14
1.716078e-14
1.7058664e-14
1.6966608e-14
1.6882941e-14
1.6806286e-14
1.6735553e-14
1.6669893e-14
1.6608629e-14
1.655121e-14
1.6497184e-14
1.6446177e-14
1.6397875e-14
1.6352014e-14
1.630837e-14
1.626675e-14
1.6226989e-14
1.6188942e-14
1.6152481e-14
1.6117495e-14
1.6083885e-14
1.6051565e-14
1.6020453e-14
1.5990479e-14
1.5961577e-14
1.593369e-14
1.5906766e-14
1.5880754e-14
1.5855608e-14
1.5831285e-14
1.5807748e-14
1.578496e-14
1.5762889e-14
1.5741503e-14
1.5720772e-14
1.5700667e-14
1.5681162e-14
1.5662232e-14
1.5643854e-14
1.5626006e-14
1.5608666e-14
1.5591814e-14
1.5575431e-14
1.5559498e-14
1.5543996e-14
1.5528909e-14
1.5514219e-14
1.5499911e-14
1.548597e-14
1.5472381e-14
1.5459128e-14
1.5446199e-14
1.5433578e-14
1.5421253e-14
1.5409209e-14
1.5397434e-14
1.5385915e-14
1.5374639e-14
1.5363595e-14
1.535277e-14
1.5342151e-14
1.5331726e-14
1.5321483e-14
1.531141e-14
1.5301494e-14
1.5291722e-14
1.5282083e-14
1.5272563e-14
1.526315e-14
1.5253831e-14
1.5244591e-14
1.5235418e-14
1.5226297e-14
1.5217212e-14
1.520815e-14
1.5199094e-14
1.5190028e-14
1.5180935e-14
1.5171797e-14
1.5162597e-14
1.5153325e-14
1.5143939e-14
1.5134621e-14
1.5124604e-14
1.5113645e-14
1.5102153e-14
1.5090424e-14
1.5078646e-14
1.5066934e-14
1.5055365e-14
1.5043991e-14
1.5032846e-14
1.5021954e-14
1.5011329e-14
1.500098e-14
1.499091e-14
1.498112e-14
1.4971606e-14
1.4962365e-14
1.4953387e-14
1.4944669e-14
1.4936173e-14
1.4927965e-14
1.4919628e-14
1.4912479e-14
1.4900791e-14
1.3245491e-11
1.3245608e-11
1.3245821e-11
1.324609e-11
1.3246407e-11
1.3246774e-11
1.3247196e-11
1.3247682e-11
1.3248238e-11
1.3248878e-11
1.3249615e-11
1.3250469e-11
1.3251462e-11
1.3252628e-11
1.3254013e-11
1.3255675e-11
1.3257734e-11
1.3260272e-11
1.3263768e-11
1.3268e-11
1.3275856e-11
1.3283526e-11
1.3310517e-11
1.3297633e-11
3.5183409e-14
2.8997231e-14
2.9010488e-14
2.8803852e-14
2.8569644e-14
2.8352557e-14
2.8156564e-14
2.7980065e-14
2.7820216e-14
2.7674615e-14
2.7541141e-14
2.7417941e-14
2.7303511e-14
2.7196663e-14
2.7096438e-14
2.7002051e-14
2.6912848e-14
2.6828286e-14
2.6747907e-14
2.6671323e-14
2.6598203e-14
2.6528264e-14
2.646126e-14
2.6396974e-14
2.6335217e-14
2.6275821e-14
2.6218639e-14
2.6163539e-14
2.61104e-14
2.6059113e-14
2.6009581e-14
2.5961715e-14
2.5915435e-14
2.5870665e-14
2.5827333e-14
2.5785373e-14
2.5744726e-14
2.5705337e-14
2.5667154e-14
2.5630128e-14
2.5594213e-14
2.5559362e-14
2.5525534e-14
2.549269e-14
2.5460792e-14
2.5429805e-14
2.5399696e-14
2.5370432e-14
2.5341982e-14
2.5314314e-14
2.5287399e-14
2.5261209e-14
2.5235717e-14
2.5210897e-14
2.5186724e-14
2.5163173e-14
2.514022e-14
2.5117842e-14
2.5096014e-14
2.5074715e-14
2.5053921e-14
2.5033611e-14
2.5013762e-14
2.4994354e-14
2.4975365e-14
2.4956776e-14
2.4938563e-14
2.4920706e-14
2.4903184e-14
2.4885975e-14
2.4869057e-14
2.4852409e-14
2.4836008e-14
2.4819833e-14
2.4803859e-14
2.4788064e-14
2.4772424e-14
2.4756913e-14
2.4741505e-14
2.4726174e-14
2.4710892e-14
2.469563e-14
2.4680358e-14
2.4665045e-14
2.4649658e-14
2.4634164e-14
2.4618543e-14
2.4602716e-14
2.4587029e-14
2.4569975e-14
2.4551012e-14
2.4530878e-14
2.4510138e-14
2.4489161e-14
2.446818e-14
2.4447355e-14
2.4426793e-14
2.4406571e-14
2.4386744e-14
2.4367347e-14
2.4348404e-14
2.4329928e-14
2.4311924e-14
2.4294394e-14
2.4277333e-14
2.426073e-14
2.4244579e-14
2.4228816e-14
2.4213562e-14
2.419806e-14
2.4184742e-14
2.4162922e-14
1.324549e-11
1.3245625e-11
1.3245875e-11
1.324619e-11
1.3246562e-11
1.3246993e-11
1.324749e-11
1.3248059e-11
1.3248711e-11
1.3249459e-11
1.325032e-11
1.3251314e-11
1.325247e-11
1.3253823e-11
1.3255427e-11
1.3257348e-11
1.3259721e-11
1.3262638e-11
1.3266643e-11
1.3271475e-11
1.3280397e-11
1.3289112e-11
1.3319578e-11
1.3305983e-11
5.5144871e-14
4.5749152e-14
4.6012697e-14
4.5810666e-14
4.5509684e-14
4.5208844e-14
4.4926684e-14
4.466642e-14
4.4426561e-14
4.4205123e-14
4.3999885e-14
4.3808663e-14
4.3629594e-14
4.3461175e-14
4.3302173e-14
4.3151552e-14
4.3008445e-14
4.2872122e-14
4.274196e-14
4.2617429e-14
4.2498076e-14
4.2383508e-14
4.2273387e-14
4.2167408e-14
4.2065307e-14
4.1966847e-14
4.1871821e-14
4.1780044e-14
4.1691342e-14
4.1605558e-14
4.1522554e-14
4.1442204e-14
4.136439e-14
4.1289003e-14
4.1215937e-14
4.1145095e-14
4.1076389e-14
4.1009739e-14
4.094507e-14
4.0882306e-14
4.0821378e-14
4.0762218e-14
4.0704761e-14
4.0648946e-14
4.059472e-14
4.0542027e-14
4.0490817e-14
4.0441037e-14
4.039264e-14
4.0345577e-14
4.0299802e-14
4.0255269e-14
4.0211938e-14
4.0169766e-14
4.0128715e-14
4.0088743e-14
4.0049813e-14
4.0011887e-14
3.9974925e-14
3.9938891e-14
3.9903748e-14
3.986946e-14
3.983599e-14
3.9803304e-14
3.9771368e-14
3.9740145e-14
3.97096e-14
3.9679696e-14
3.9650398e-14
3.962167e-14
3.9593473e-14
3.9565771e-14
3.9538525e-14
3.9511696e-14
3.9485244e-14
3.9459128e-14
3.9433305e-14
3.9407731e-14
3.938236e-14
3.9357145e-14
3.9332035e-14
3.9306978e-14
3.9281921e-14
3.9256804e-14
3.9231572e-14
3.920616e-14
3.9180533e-14
3.9154538e-14
3.9128825e-14
3.91005e-14
3.90684e-14
3.9033836e-14
3.8997867e-14
3.8961197e-14
3.8924288e-14
3.8887459e-14
3.8850932e-14
3.8814869e-14
3.8779388e-14
3.8744571e-14
3.8710474e-14
3.8677134e-14
3.8644571e-14
3.8612798e-14
3.8581814e-14
3.8551606e-14
3.8522172e-14
3.8493399e-14
3.846551e-14
3.8437146e-14
3.8412732e-14
3.8372649e-14
1.3245489e-11
1.3245646e-11
1.3245939e-11
1.324631e-11
1.3246749e-11
1.3247258e-11
1.3247843e-11
1.3248513e-11
1.324928e-11
1.3250159e-11
1.3251168e-11
1.3252332e-11
1.3253681e-11
1.3255258e-11
1.3257124e-11
1.3259353e-11
1.3262098e-11
1.3265465e-11
1.3270071e-11
1.3275613e-11
1.3285786e-11
1.3295729e-11
1.3330256e-11
1.331593e-11
8.4681488e-14
7.0810441e-14
7.1662566e-14
7.1585485e-14
7.1254182e-14
7.0872961e-14
7.0492902e-14
7.0129632e-14
6.9786487e-14
6.9463811e-14
6.9160328e-14
6.8874085e-14
6.8603198e-14
6.8346071e-14
6.810134e-14
6.7867821e-14
6.7644491e-14
6.743048e-14
6.7225029e-14
6.7027484e-14
6.6837283e-14
6.6653937e-14
6.6477016e-14
6.6306136e-14
6.6140953e-14
6.5981166e-14
6.5826506e-14
6.5676732e-14
6.5531615e-14
6.5390945e-14
6.5254541e-14
6.5122235e-14
6.4993868e-14
6.4869293e-14
6.4748363e-14
6.4630943e-14
6.4516914e-14
6.4406166e-14
6.429859e-14
6.4194084e-14
6.4092548e-14
6.3993883e-14
6.3897994e-14
6.3804797e-14
6.371421e-14
6.3626156e-14
6.3540558e-14
6.3457341e-14
6.3376431e-14
6.3297756e-14
6.3221245e-14
6.3146831e-14
6.3074449e-14
6.3004039e-14
6.2935536e-14
6.286888e-14
6.280401e-14
6.2740867e-14
6.267939e-14
6.2619519e-14
6.2561196e-14
6.2504365e-14
6.2448965e-14
6.2394941e-14
6.2342237e-14
6.2290794e-14
6.2240553e-14
6.2191455e-14
6.2143439e-14
6.2096445e-14
6.2050411e-14
6.2005272e-14
6.1960964e-14
6.191742e-14
6.1874572e-14
6.1832347e-14
6.1790673e-14
6.1749473e-14
6.1708665e-14
6.1668166e-14
6.1627888e-14
6.1587737e-14
6.1547618e-14
6.1507426e-14
6.1467059e-14
6.14264e-14
6.1385387e-14
6.1343729e-14
6.1302629e-14
6.1256621e-14
6.1203304e-14
6.1144971e-14
6.1083568e-14
6.1020425e-14
6.095643e-14
6.0892211e-14
6.0828214e-14
6.0764768e-14
6.0702119e-14
6.0640445e-14
6.0579873e-14
6.0520489e-14
6.0462353e-14
6.04055e-14
6.0349949e-14
6.0295687e-14
6.0242721e-14
6.0190863e-14
6.0140513e-14
6.0089265e-14
6.0045071e-14
5.9972358e-14
1.3245488e-11
1.3245671e-11
1.3246016e-11
1.3246454e-11
1.3246973e-11
1.3247575e-11
1.3248266e-11
1.3249058e-11
1.3249962e-11
1.3250997e-11
1.3252184e-11
1.325355e-11
1.3255131e-11
1.3256974e-11
1.3259151e-11
1.3261744e-11
1.3264931e-11
1.3268828e-11
1.3274141e-11
1.3280516e-11
1.3292146e-11
1.3303524e-11
1.3342762e-11
1.3327722e-11
1.2777429e-13
1.0786415e-13
1.0995915e-13
1.1028044e-13
1.1003417e-13
1.0962024e-13
1.0915645e-13
1.0868592e-13
1.0822413e-13
1.0777795e-13
1.0734949e-13
1.0693847e-13
1.0654394e-13
1.0616485e-13
1.0580021e-13
1.05449e-13
1.0511031e-13
1.0478332e-13
1.0446728e-13
1.0416153e-13
1.0386549e-13
1.0357865e-13
1.0330056e-13
1.0303079e-13
1.0276898e-13
1.0251478e-13
1.0226789e-13
1.0202805e-13
1.0179498e-13
1.0156845e-13
1.0134823e-13
1.0113413e-13
1.0092597e-13
1.0072355e-13
1.005267e-13
1.0033525e-13
1.0014904e-13
9.9967945e-14
9.9791817e-14
9.9620522e-14
9.9453932e-14
9.9291912e-14
9.9134332e-14
9.8981078e-14
9.883204e-14
9.8687113e-14
9.8546188e-14
9.840916e-14
9.8275925e-14
9.8146377e-14
9.8020413e-14
9.7897936e-14
9.7778853e-14
9.7663071e-14
9.7550499e-14
9.7441045e-14
9.7334616e-14
9.7231123e-14
9.7130471e-14
9.7032571e-14
9.693733e-14
9.684466e-14
9.6754467e-14
9.6666663e-14
9.6581161e-14
9.6497863e-14
9.6416678e-14
9.6337507e-14
9.6260252e-14
9.6184814e-14
9.6111089e-14
9.6038972e-14
9.5968354e-14
9.5899122e-14
9.5831161e-14
9.5764349e-14
9.5698559e-14
9.5633661e-14
9.5569513e-14
9.5505971e-14
9.544288e-14
9.5380076e-14
9.5317389e-14
9.5254637e-14
9.5191634e-14
9.5128171e-14
9.5064139e-14
9.4998996e-14
9.4934937e-14
9.486179e-14
9.4774726e-14
9.4677704e-14
9.4574255e-14
9.4466856e-14
9.4357192e-14
9.4246469e-14
9.4135566e-14
9.4025135e-14
9.3915675e-14
9.3807555e-14
9.3701048e-14
9.3596346e-14
9.3493592e-14
9.339288e-14
9.329427e-14
9.3197762e-14
9.310339e-14
9.3010841e-14
9.2920831e-14
9.2829136e-14
9.2749914e-14
9.2619287e-14
1.3245487e-11
1.32457e-11
1.3246106e-11
1.3246625e-11
1.324724e-11
1.3247953e-11
1.3248772e-11
1.3249708e-11
1.3250777e-11
1.3251998e-11
1.3253396e-11
1.3255002e-11
1.3256858e-11
1.3259017e-11
1.326156e-11
1.3264583e-11
1.326829e-11
1.3272809e-11
1.3278949e-11
1.3286295e-11
1.3299616e-11
1.331266e-11
1.3357328e-11
1.334164e-11
1.8984543e-13
1.6210234e-13
1.6665596e-13
1.6794136e-13
1.6805815e-13
1.6775864e-13
1.672898e-13
1.6675095e-13
1.661841e-13
1.6561113e-13
1.6504268e-13
1.6448336e-13
1.6393529e-13
1.6339958e-13
1.6287669e-13
1.6236668e-13
1.6186939e-13
1.6138456e-13
1.6091186e-13
1.6045095e-13
1.6000152e-13
1.5956325e-13
1.5913586e-13
1.5871905e-13
1.5831254e-13
1.5791608e-13
1.5752944e-13
1.5715241e-13
1.5678474e-13
1.5642623e-13
1.5607668e-13
1.5573592e-13