/*--------------------------------*- C++ -*----------------------------------*\
| =========                 |                                                 |
| \\      /  F ield         | OpenFOAM: The Open Source CFD Toolbox           |
|  \\    /   O peration     | Version:  2206                                  |
|   \\  /    A nd           | Website:  www.openfoam.com                      |
|    \\/     M anipulation  |                                                 |
\*---------------------------------------------------------------------------*/
FoamFile
{
    version     2.0;
    format      ascii;
    arch        "LSB;label=32;scalar=64";
    class       volScalarField;
    location    "100";
    object      nuTilda;
}
// * * * * * * * * * * * * * * * * * * * * * * * * * * * * * * * * * * * * * //

dimensions      [0 2 -1 0 0 0 0];

internalField   nonuniform List<scalar> 
13056
(
1.9999999e-06
2.0000016e-06
2.0000046e-06
2.0000082e-06
2.0000124e-06
2.0000173e-06
2.0000229e-06
2.0000295e-06
2.0000371e-06
2.0000459e-06
2.0000562e-06
2.0000683e-06
2.0000827e-06
2.0000997e-06
2.0001204e-06
2.0001456e-06
2.0001774e-06
2.0002175e-06
2.0002741e-06
2.0003442e-06
2.0004793e-06
2.0006112e-06
2.0010973e-06
2.0007488e-06
1.6548445e-08
1.5615611e-08
1.5531941e-08
1.5465012e-08
1.5413651e-08
1.5373299e-08
1.5340278e-08
1.5312504e-08
1.5288651e-08
1.5267846e-08
1.5249463e-08
1.5233038e-08
1.5218222e-08
1.520475e-08
1.5192416e-08
1.5181058e-08
1.5170544e-08
1.5160768e-08
1.5151643e-08
1.5143094e-08
1.5135061e-08
1.512749e-08
1.5120339e-08
1.5113567e-08
1.5107141e-08
1.5101033e-08
1.5095216e-08
1.5089668e-08
1.5084368e-08
1.5079299e-08
1.5074444e-08
1.5069789e-08
1.5065321e-08
1.5061027e-08
1.5056896e-08
1.5052919e-08
1.5049085e-08
1.5045388e-08
1.5041818e-08
1.5038369e-08
1.5035034e-08
1.5031806e-08
1.502868e-08
1.502565e-08
1.5022711e-08
1.5019858e-08
1.5017087e-08
1.5014393e-08
1.5011772e-08
1.5009221e-08
1.5006735e-08
1.5004312e-08
1.5001948e-08
1.499964e-08
1.4997384e-08
1.4995179e-08
1.4993021e-08
1.4990907e-08
1.4988836e-08
1.4986805e-08
1.498481e-08
1.4982851e-08
1.4980925e-08
1.4979029e-08
1.4977162e-08
1.4975321e-08
1.4973506e-08
1.4971713e-08
1.496994e-08
1.4968187e-08
1.4966451e-08
1.496473e-08
1.4963022e-08
1.4961327e-08
1.4959641e-08
1.4957964e-08
1.4956293e-08
1.4954627e-08
1.4952963e-08
1.4951302e-08
1.4949639e-08
1.4947974e-08
1.4946305e-08
1.494463e-08
1.4942946e-08
1.4941254e-08
1.493955e-08
1.4937834e-08
1.4936119e-08
1.4934363e-08
1.493258e-08
1.4930816e-08
1.4929098e-08
1.4927436e-08
1.4925834e-08
1.4924293e-08
1.4922813e-08
1.4921392e-08
1.492003e-08
1.4918723e-08
1.491747e-08
1.4916268e-08
1.4915114e-08
1.4914008e-08
1.4912945e-08
1.4911924e-08
1.4910942e-08
1.4909994e-08
1.4909088e-08
1.4908171e-08
1.4907393e-08
1.4906139e-08
1.9999999e-06
2.0000016e-06
2.0000046e-06
2.0000082e-06
2.0000125e-06
2.0000174e-06
2.0000231e-06
2.0000298e-06
2.0000374e-06
2.0000463e-06
2.0000568e-06
2.000069e-06
2.0000835e-06
2.0001007e-06
2.0001215e-06
2.000147e-06
2.0001791e-06
2.0002195e-06
2.0002765e-06
2.0003472e-06
2.0004832e-06
2.0006161e-06
2.0011055e-06
2.0007571e-06
4.97142e-08
4.695287e-08
4.6705428e-08
4.6505745e-08
4.6351916e-08
4.6230793e-08
4.6131528e-08
4.6047938e-08
4.5976083e-08
4.5913356e-08
4.5857893e-08
4.5808305e-08
4.5763546e-08
4.5722824e-08
4.5685524e-08
4.5651158e-08
4.5619332e-08
4.5589727e-08
4.556208e-08
4.5536171e-08
4.5511814e-08
4.5488853e-08
4.5467155e-08
4.5446603e-08
4.5427096e-08
4.5408546e-08
4.5390877e-08
4.537402e-08
4.5357915e-08
4.5342506e-08
4.5327745e-08
4.5313589e-08
4.5299998e-08
4.5286935e-08
4.5274367e-08
4.5262264e-08
4.5250598e-08
4.5239343e-08
4.5228476e-08
4.5217976e-08
4.5207821e-08
4.5197993e-08
4.5188473e-08
4.5179245e-08
4.5170294e-08
4.5161606e-08
4.5153165e-08
4.5144961e-08
4.5136979e-08
4.5129209e-08
4.5121639e-08
4.511426e-08
4.510706e-08
4.5100031e-08
4.5093163e-08
4.5086448e-08
4.5079878e-08
4.5073444e-08
4.506714e-08
4.5060956e-08
4.5054887e-08
4.5048925e-08
4.5043063e-08
4.5037296e-08
4.5031616e-08
4.5026018e-08
4.5020496e-08
4.5015044e-08
4.5009655e-08
4.5004325e-08
4.4999048e-08
4.4993817e-08
4.4988629e-08
4.4983476e-08
4.4978355e-08
4.4973259e-08
4.4968183e-08
4.4963122e-08
4.4958071e-08
4.4953023e-08
4.4947974e-08
4.4942917e-08
4.4937848e-08
4.493276e-08
4.4927648e-08
4.4922507e-08
4.4917332e-08
4.4912117e-08
4.490691e-08
4.4901569e-08
4.4896133e-08
4.4890752e-08
4.4885501e-08
4.4880416e-08
4.4875509e-08
4.4870787e-08
4.4866247e-08
4.4861888e-08
4.4857703e-08
4.4853688e-08
4.4849836e-08
4.4846139e-08
4.484259e-08
4.4839183e-08
4.4835911e-08
4.4832765e-08
4.482974e-08
4.4826819e-08
4.4824025e-08
4.4821195e-08
4.4818796e-08
4.4814926e-08
1.9999999e-06
2.0000017e-06
2.0000047e-06
2.0000085e-06
2.0000129e-06
2.000018e-06
2.0000239e-06
2.0000307e-06
2.0000386e-06
2.0000478e-06
2.0000585e-06
2.0000711e-06
2.0000859e-06
2.0001036e-06
2.000125e-06
2.0001511e-06
2.0001841e-06
2.0002255e-06
2.0002839e-06
2.0003562e-06
2.0004952e-06
2.000631e-06
2.0011304e-06
2.0007797e-06
8.3299395e-08
7.8730018e-08
7.8325581e-08
7.7994769e-08
7.7738447e-08
7.7535977e-08
7.7369685e-08
7.7229421e-08
7.7108684e-08
7.7003159e-08
7.690976e-08
7.6826174e-08
7.6750663e-08
7.6681909e-08
7.6618885e-08
7.6560777e-08
7.650693e-08
7.645681e-08
7.6409978e-08
7.6366064e-08
7.632476e-08
7.6285804e-08
7.6248973e-08
7.6214072e-08
7.6180931e-08
7.6149405e-08
7.6119364e-08
7.6090694e-08
7.6063292e-08
7.6037067e-08
7.6011938e-08
7.5987832e-08
7.5964681e-08
7.5942425e-08
7.5921007e-08
7.5900377e-08
7.5880488e-08
7.5861297e-08
7.5842764e-08
7.5824854e-08
7.5807531e-08
7.5790763e-08
7.5774521e-08
7.5758775e-08
7.5743501e-08
7.5728673e-08
7.5714269e-08
7.5700267e-08
7.5686646e-08
7.5673386e-08
7.5660468e-08
7.5647875e-08
7.563559e-08
7.5623596e-08
7.561188e-08
7.5600425e-08
7.5589218e-08
7.5578245e-08
7.5567493e-08
7.555695e-08
7.5546603e-08
7.553644e-08
7.5526451e-08
7.5516623e-08
7.5506946e-08
7.5497411e-08
7.5488006e-08
7.5478722e-08
7.5469548e-08
7.5460475e-08
7.5451494e-08
7.5442594e-08
7.5433767e-08
7.5425002e-08
7.5416292e-08
7.5407626e-08
7.5398995e-08
7.5390391e-08
7.5381803e-08
7.5373222e-08
7.5364639e-08
7.5356045e-08
7.5347428e-08
7.533878e-08
7.533009e-08
7.5321349e-08
7.5312552e-08
7.5303683e-08
7.529483e-08
7.5285733e-08
7.5276449e-08
7.5267238e-08
7.5258233e-08
7.5249499e-08
7.5241061e-08
7.5232931e-08
7.5225108e-08
7.5217588e-08
7.5210365e-08
7.5203428e-08
7.5196768e-08
7.5190372e-08
7.518423e-08
7.5178328e-08
7.5172657e-08
7.5167202e-08
7.5161956e-08
7.5156887e-08
7.5152034e-08
7.5147121e-08
7.5142953e-08
7.5136224e-08
1.9999999e-06
2.0000018e-06
2.000005e-06
2.0000089e-06
2.0000135e-06
2.0000189e-06
2.0000251e-06
2.0000322e-06
2.0000405e-06
2.0000502e-06
2.0000614e-06
2.0000746e-06
2.0000902e-06
2.0001087e-06
2.000131e-06
2.0001583e-06
2.0001926e-06
2.0002358e-06
2.0002965e-06
2.0003716e-06
2.0005157e-06
2.0006565e-06
2.0011729e-06
2.0008175e-06
1.1761477e-07
1.1124117e-07
1.1069148e-07
1.1023257e-07
1.0987392e-07
1.0958927e-07
1.0935474e-07
1.0915643e-07
1.0898539e-07
1.0883564e-07
1.087029e-07
1.0858394e-07
1.0847634e-07
1.0837825e-07
1.0828824e-07
1.0820517e-07
1.0812812e-07
1.0805633e-07
1.079892e-07
1.079262e-07
1.078669e-07
1.0781093e-07
1.0775798e-07
1.0770777e-07
1.0766006e-07
1.0761465e-07
1.0757136e-07
1.0753002e-07
1.0749049e-07
1.0745264e-07
1.0741635e-07
1.0738153e-07
1.0734808e-07
1.0731591e-07
1.0728494e-07
1.072551e-07
1.0722632e-07
1.0719855e-07
1.0717172e-07
1.0714579e-07
1.071207e-07
1.0709642e-07
1.0707289e-07
1.0705008e-07
1.0702795e-07
1.0700646e-07
1.0698559e-07
1.069653e-07
1.0694556e-07
1.0692635e-07
1.0690763e-07
1.0688939e-07
1.0687159e-07
1.0685422e-07
1.0683725e-07
1.0682066e-07
1.0680443e-07
1.0678854e-07
1.0677298e-07
1.0675772e-07
1.0674275e-07
1.0672805e-07
1.0671361e-07
1.066994e-07
1.0668541e-07
1.0667163e-07
1.0665804e-07
1.0664463e-07
1.0663139e-07
1.0661829e-07
1.0660533e-07
1.0659248e-07
1.0657975e-07
1.0656711e-07
1.0655455e-07
1.0654206e-07
1.0652962e-07
1.0651722e-07
1.0650485e-07
1.0649248e-07
1.0648012e-07
1.0646774e-07
1.0645533e-07
1.0644287e-07
1.0643035e-07
1.0641775e-07
1.0640508e-07
1.0639229e-07
1.0637953e-07
1.0636639e-07
1.0635293e-07
1.0633952e-07
1.0632638e-07
1.0631361e-07
1.0630125e-07
1.0628932e-07
1.0627783e-07
1.0626676e-07
1.0625612e-07
1.062459e-07
1.0623606e-07
1.0622661e-07
1.0621753e-07
1.062088e-07
1.062004e-07
1.0619231e-07
1.0618453e-07
1.0617701e-07
1.061698e-07
1.061625e-07
1.0615631e-07
1.0614629e-07
1.9999999e-06
2.0000019e-06
2.0000053e-06
2.0000095e-06
2.0000145e-06
2.0000202e-06
2.0000268e-06
2.0000345e-06
2.0000434e-06
2.0000537e-06
2.0000657e-06
2.0000797e-06
2.0000963e-06
2.000116e-06
2.0001398e-06
2.0001687e-06
2.0002051e-06
2.0002507e-06
2.0003148e-06
2.000394e-06
2.0005455e-06
2.0006935e-06
2.0012345e-06
2.000872e-06
1.529675e-07
1.4477889e-07
1.4410184e-07
1.4351994e-07
1.430597e-07
1.4269205e-07
1.4238781e-07
1.4212972e-07
1.419065e-07
1.4171063e-07
1.4153664e-07
1.4138044e-07
1.4123891e-07
1.4110969e-07
1.4099094e-07
1.408812e-07
1.4077928e-07
1.4068421e-07
1.4059521e-07
1.4051159e-07
1.4043281e-07
1.4035838e-07
1.402879e-07
1.4022101e-07
1.4015741e-07
1.4009682e-07
1.4003901e-07
1.3998378e-07
1.3993093e-07
1.3988029e-07
1.3983172e-07
1.3978509e-07
1.3974026e-07
1.3969713e-07
1.3965559e-07
1.3961555e-07
1.3957693e-07
1.3953963e-07
1.395036e-07
1.3946877e-07
1.3943506e-07
1.3940242e-07
1.3937079e-07
1.3934012e-07
1.3931036e-07
1.3928147e-07
1.392534e-07
1.3922611e-07
1.3919957e-07
1.3917373e-07
1.3914855e-07
1.3912402e-07
1.3910009e-07
1.3907673e-07
1.3905392e-07
1.3903163e-07
1.3900982e-07
1.3898848e-07
1.3896758e-07
1.389471e-07
1.38927e-07
1.3890727e-07
1.3888789e-07
1.3886884e-07
1.3885009e-07
1.3883162e-07
1.3881342e-07
1.3879546e-07
1.3877773e-07
1.387602e-07
1.3874286e-07
1.3872569e-07
1.3870866e-07
1.3869177e-07
1.3867499e-07
1.3865831e-07
1.3864169e-07
1.3862514e-07
1.3860862e-07
1.3859212e-07
1.3857562e-07
1.385591e-07
1.3854254e-07
1.3852592e-07
1.3850921e-07
1.384924e-07
1.3847548e-07
1.3845841e-07
1.3844137e-07
1.3842377e-07
1.3840564e-07
1.3838751e-07
1.3836968e-07
1.383523e-07
1.3833544e-07
1.3831914e-07
1.383034e-07
1.3828822e-07
1.382736e-07
1.3825953e-07
1.3824599e-07
1.3823296e-07
1.3822041e-07
1.3820834e-07
1.3819672e-07
1.3818553e-07
1.3817474e-07
1.381643e-07
1.381543e-07
1.3814416e-07
1.3813555e-07
1.3812161e-07
1.9999999e-06
2.000002e-06
2.0000057e-06
2.0000104e-06
2.0000158e-06
2.000022e-06
2.0000292e-06
2.0000376e-06
2.0000473e-06
2.0000585e-06
2.0000715e-06
2.0000867e-06
2.0001047e-06
2.000126e-06
2.0001516e-06
2.0001828e-06
2.0002219e-06
2.0002709e-06
2.0003396e-06
2.0004242e-06
2.0005857e-06
2.0007433e-06
2.0013172e-06
2.0009451e-06
1.8965943e-07
1.7963363e-07
1.7885511e-07
1.7815845e-07
1.775986e-07
1.7714755e-07
1.7677217e-07
1.7645238e-07
1.7617485e-07
1.7593058e-07
1.7571305e-07
1.7551729e-07
1.7533955e-07
1.7517695e-07
1.7502725e-07
1.7488867e-07
1.7475976e-07
1.7463934e-07
1.7452644e-07
1.7442023e-07
1.7432003e-07
1.7422526e-07
1.7413541e-07
1.7405005e-07
1.739688e-07
1.7389133e-07
1.7381735e-07
1.737466e-07
1.7367884e-07
1.7361388e-07
1.7355152e-07
1.7349161e-07
1.7343398e-07
1.733785e-07
1.7332505e-07
1.7327349e-07
1.7322374e-07
1.7317568e-07
1.7312922e-07
1.7308429e-07
1.7304081e-07
1.7299869e-07
1.7295786e-07
1.7291827e-07
1.7287985e-07
1.7284254e-07
1.7280629e-07
1.7277105e-07
1.7273677e-07
1.7270339e-07
1.7267089e-07
1.7263921e-07
1.7260831e-07
1.7257816e-07
1.7254872e-07
1.7251996e-07
1.7249183e-07
1.7246431e-07
1.7243736e-07
1.7241096e-07
1.7238507e-07
1.7235966e-07
1.7233471e-07
1.7231019e-07
1.7228607e-07
1.7226233e-07
1.7223893e-07
1.7221587e-07
1.721931e-07
1.721706e-07
1.7214835e-07
1.7212633e-07
1.7210451e-07
1.7208287e-07
1.7206138e-07
1.7204002e-07
1.7201876e-07
1.7199757e-07
1.7197645e-07
1.7195535e-07
1.7193425e-07
1.7191312e-07
1.7189195e-07
1.7187069e-07
1.7184933e-07
1.7182783e-07
1.7180618e-07
1.7178434e-07
1.7176255e-07
1.7173993e-07
1.7171649e-07
1.7169292e-07
1.7166965e-07
1.7164689e-07
1.7162473e-07
1.7160325e-07
1.7158247e-07
1.7156239e-07
1.7154302e-07
1.7152434e-07
1.7150633e-07
1.7148897e-07
1.7147225e-07
1.7145613e-07
1.714406e-07
1.7142562e-07
1.7141117e-07
1.7139717e-07
1.7138374e-07
1.7137013e-07
1.7135855e-07
1.7133979e-07
1.9999998e-06
2.0000022e-06
2.0000063e-06
2.0000114e-06
2.0000174e-06
2.0000244e-06
2.0000324e-06
2.0000416e-06
2.0000523e-06
2.0000647e-06
2.000079e-06
2.0000958e-06
2.0001155e-06
2.0001389e-06
2.000167e-06
2.000201e-06
2.0002437e-06
2.0002971e-06
2.0003716e-06
2.0004633e-06
2.0006375e-06
2.0008075e-06
2.0014236e-06
2.0010394e-06
2.279862e-07
2.1609392e-07
2.1525042e-07
2.1445188e-07
2.1379652e-07
2.132627e-07
2.1281524e-07
2.1243201e-07
2.1209797e-07
2.1180289e-07
2.1153927e-07
2.1130135e-07
2.1108476e-07
2.1088614e-07
2.1070288e-07
2.1053287e-07
2.1037442e-07
2.1022614e-07
2.1008687e-07
2.0995564e-07
2.0983166e-07
2.0971422e-07
2.0960272e-07
2.0949666e-07
2.0939558e-07
2.0929909e-07
2.0920685e-07
2.0911854e-07
2.0903389e-07
2.0895265e-07
2.0887461e-07
2.0879956e-07
2.0872732e-07
2.0865773e-07
2.0859063e-07
2.0852588e-07
2.0846335e-07
2.0840292e-07
2.0834449e-07
2.0828795e-07
2.082332e-07
2.0818016e-07
2.0812874e-07
2.0807885e-07
2.0803043e-07
2.0798341e-07
2.0793772e-07
2.078933e-07
2.0785008e-07
2.0780802e-07
2.0776705e-07
2.0772712e-07
2.0768819e-07
2.076502e-07
2.0761312e-07
2.0757689e-07
2.0754148e-07
2.0750685e-07
2.0747295e-07
2.0743975e-07
2.074072e-07
2.0737528e-07
2.0734395e-07
2.0731317e-07
2.0728291e-07
2.0725314e-07
2.0722383e-07
2.0719493e-07
2.0716643e-07
2.0713828e-07
2.0711047e-07
2.0708295e-07
2.0705569e-07
2.0702867e-07
2.0700185e-07
2.0697521e-07
2.069487e-07
2.069223e-07
2.0689598e-07
2.0686969e-07
2.0684342e-07
2.0681712e-07
2.0679075e-07
2.0676429e-07
2.0673769e-07
2.0671091e-07
2.0668395e-07
2.0665672e-07
2.0662957e-07
2.0660126e-07
2.0657167e-07
2.0654175e-07
2.0651204e-07
2.0648286e-07
2.0645437e-07
2.0642666e-07
2.0639978e-07
2.0637375e-07
2.0634857e-07
2.0632425e-07
2.0630077e-07
2.0627809e-07
2.0625621e-07
2.062351e-07
2.0621471e-07
2.0619503e-07
2.0617602e-07
2.0615759e-07
2.0613988e-07
2.0612193e-07
2.0610663e-07
2.0608181e-07
1.9999998e-06
2.0000025e-06
2.0000071e-06
2.0000128e-06
2.0000195e-06
2.0000274e-06
2.0000364e-06
2.0000467e-06
2.0000587e-06
2.0000726e-06
2.0000886e-06
2.0001073e-06
2.0001293e-06
2.0001553e-06
2.0001865e-06
2.0002242e-06
2.0002713e-06
2.0003301e-06
2.0004121e-06
2.0005126e-06
2.0007028e-06
2.0008883e-06
2.0015572e-06
2.001158e-06
2.6823695e-07
2.5444737e-07
2.5358943e-07
2.5270848e-07
2.5196511e-07
2.5135107e-07
2.5083169e-07
2.5038391e-07
2.4999152e-07
2.4964334e-07
2.4933107e-07
2.4904828e-07
2.4879001e-07
2.4855249e-07
2.4833275e-07
2.4812839e-07
2.4793748e-07
2.4775843e-07
2.4758993e-07
2.4743085e-07
2.4728028e-07
2.471374e-07
2.4700155e-07
2.4687211e-07
2.4674858e-07
2.466305e-07
2.4651746e-07
2.4640911e-07
2.4630514e-07
2.4620525e-07
2.461092e-07
2.4601673e-07
2.4592766e-07
2.4584177e-07
2.457589e-07
2.4567887e-07
2.4560154e-07
2.4552676e-07
2.4545441e-07
2.4538437e-07
2.4531653e-07
2.4525077e-07
2.4518699e-07
2.4512511e-07
2.4506503e-07
2.4500668e-07
2.4494997e-07
2.4489483e-07
2.4484119e-07
2.4478898e-07
2.4473813e-07
2.4468858e-07
2.4464027e-07
2.4459315e-07
2.4454716e-07
2.4450225e-07
2.4445836e-07
2.4441545e-07
2.4437347e-07
2.4433237e-07
2.4429211e-07
2.4425264e-07
2.4421392e-07
2.441759e-07
2.4413855e-07
2.4410183e-07
2.4406569e-07
2.4403009e-07
2.43995e-07
2.4396037e-07
2.4392617e-07
2.4389235e-07
2.4385889e-07
2.4382573e-07
2.4379284e-07
2.4376018e-07
2.4372771e-07
2.4369538e-07
2.4366316e-07
2.43631e-07
2.4359886e-07
2.4356669e-07
2.4353445e-07
2.4350209e-07
2.4346956e-07
2.4343681e-07
2.4340382e-07
2.4337048e-07
2.4333727e-07
2.4330242e-07
2.4326567e-07
2.4322822e-07
2.4319082e-07
2.4315392e-07
2.4311773e-07
2.4308242e-07
2.4304807e-07
2.4301471e-07
2.4298237e-07
2.4295105e-07
2.4292075e-07
2.4289145e-07
2.4286312e-07
2.4283573e-07
2.4280926e-07
2.4278365e-07
2.427589e-07
2.4273486e-07
2.4271174e-07
2.4268829e-07
2.4266827e-07
2.4263573e-07
1.9999998e-06
2.0000028e-06
2.000008e-06
2.0000145e-06
2.0000222e-06
2.0000311e-06
2.0000413e-06
2.0000531e-06
2.0000667e-06
2.0000824e-06
2.0001006e-06
2.0001217e-06
2.0001465e-06
2.0001757e-06
2.0002107e-06
2.000253e-06
2.0003057e-06
2.0003713e-06
2.0004624e-06
2.0005737e-06
2.0007835e-06
2.0009882e-06
2.0017217e-06
2.0013049e-06
3.1069448e-07
2.9498228e-07
2.9417882e-07
2.9324425e-07
2.9242547e-07
2.9173681e-07
2.9114765e-07
2.9063554e-07
2.9018382e-07
2.8978083e-07
2.8941771e-07
2.8908748e-07
2.8878477e-07
2.8850541e-07
2.8824613e-07
2.8800431e-07
2.8777777e-07
2.8756477e-07
2.8736383e-07
2.8717371e-07
2.8699336e-07
2.868219e-07
2.8665855e-07
2.8650265e-07
2.863536e-07
2.8621091e-07
2.8607411e-07
2.859428e-07
2.8581663e-07
2.8569526e-07
2.8557841e-07
2.8546581e-07
2.8535723e-07
2.8525243e-07
2.8515122e-07
2.850534e-07
2.8495881e-07
2.8486728e-07
2.8477867e-07
2.8469284e-07
2.8460965e-07
2.8452899e-07
2.8445073e-07
2.8437478e-07
2.8430101e-07
2.8422935e-07
2.841597e-07
2.8409197e-07
2.8402607e-07
2.8396194e-07
2.8389948e-07
2.8383863e-07
2.8377931e-07
2.8372147e-07
2.8366503e-07
2.8360993e-07
2.8355611e-07
2.8350351e-07
2.8345208e-07
2.8340175e-07
2.8335248e-07
2.833042e-07
2.8325688e-07
2.8321044e-07
2.8316485e-07
2.8312006e-07
2.8307602e-07
2.8303267e-07
2.8298997e-07
2.8294787e-07
2.8290632e-07
2.8286527e-07
2.8282468e-07
2.8278449e-07
2.8274465e-07
2.8270512e-07
2.8266584e-07
2.8262677e-07
2.8258784e-07
2.82549e-07
2.825102e-07
2.8247137e-07
2.8243247e-07
2.8239341e-07
2.8235416e-07
2.8231463e-07
2.8227479e-07
2.8223452e-07
2.8219443e-07
2.8215206e-07
2.821069e-07
2.8206049e-07
2.8201384e-07
2.8196754e-07
2.8192196e-07
2.818773e-07
2.818337e-07
2.8179124e-07
2.8174997e-07
2.8170991e-07
2.8167106e-07
2.8163342e-07
2.8159695e-07
2.8156164e-07
2.8152744e-07
2.8149432e-07
2.8146225e-07
2.8143107e-07
2.8140103e-07
2.8137055e-07
2.8134449e-07
2.8130204e-07
1.9999998e-06
2.0000032e-06
2.0000091e-06
2.0000166e-06
2.0000255e-06
2.0000357e-06
2.0000475e-06
2.000061e-06
2.0000766e-06
2.0000946e-06
2.0001153e-06
2.0001395e-06
2.0001677e-06
2.0002009e-06
2.0002406e-06
2.0002884e-06
2.000348e-06
2.0004217e-06
2.000524e-06
2.0006486e-06
2.0008822e-06
2.0011101e-06
2.0019217e-06
2.0014846e-06
3.556354e-07
3.3798968e-07
3.3733363e-07
3.3638692e-07
3.3551266e-07
3.3475965e-07
3.3410602e-07
3.3353203e-07
3.3302164e-07
3.3256331e-07
3.3214797e-07
3.3176838e-07
3.3141884e-07
3.3109496e-07
3.3079323e-07
3.3051084e-07
3.3024545e-07
3.2999518e-07
3.2975841e-07
3.2953381e-07
3.2932022e-07
3.2911669e-07
3.2892238e-07
3.2873653e-07
3.2855853e-07
3.2838779e-07
3.2822383e-07
3.280662e-07
3.2791451e-07
3.2776838e-07
3.276275e-07
3.2749159e-07
3.2736036e-07
3.2723358e-07
3.2711101e-07
3.2699244e-07
3.2687768e-07
3.2676655e-07
3.2665889e-07
3.2655454e-07
3.2645334e-07
3.2635517e-07
3.2625988e-07
3.2616736e-07
3.2607748e-07
3.2599014e-07
3.2590524e-07
3.2582267e-07
3.2574233e-07
3.2566414e-07
3.2558801e-07
3.2551384e-07
3.2544156e-07
3.2537109e-07
3.2530235e-07
3.2523527e-07
3.2516978e-07
3.2510581e-07
3.2504329e-07
3.2498215e-07
3.2492233e-07
3.2486377e-07
3.2480639e-07
3.2475014e-07
3.2469497e-07
3.2464081e-07
3.2458759e-07
3.2453527e-07
3.2448377e-07
3.2443305e-07
3.2438304e-07
3.2433368e-07
3.2428491e-07
3.2423667e-07
3.2418889e-07
3.2414153e-07
3.240945e-07
3.2404774e-07
3.2400119e-07
3.2395478e-07
3.2390843e-07
3.2386208e-07
3.2381563e-07
3.2376902e-07
3.2372216e-07
3.2367496e-07
3.2362739e-07
3.2357925e-07
3.2353138e-07
3.2348038e-07
3.2342535e-07
3.2336823e-07
3.2331039e-07
3.2325265e-07
3.2319551e-07
3.2313929e-07
3.2308421e-07
3.230304e-07
3.2297794e-07
3.2292689e-07
3.2287726e-07
3.2282906e-07
3.2278227e-07
3.2273688e-07
3.2269285e-07
3.2265013e-07
3.226087e-07
3.2256836e-07
3.2252944e-07
3.2248992e-07
3.2245607e-07
3.2240083e-07
1.9999998e-06
2.0000036e-06
2.0000105e-06
2.0000192e-06
2.0000295e-06
2.0000413e-06
2.000055e-06
2.0000707e-06
2.0000887e-06
2.0001095e-06
2.0001334e-06
2.0001612e-06
2.0001936e-06
2.0002317e-06
2.0002771e-06
2.0003317e-06
2.0003994e-06
2.0004832e-06
2.0005989e-06
2.0007394e-06
2.0010016e-06
2.0012573e-06
2.0021625e-06
2.0017026e-06
4.0333018e-07
3.8376585e-07
3.8338096e-07
3.8248072e-07
3.8158116e-07
3.8078082e-07
3.8007282e-07
3.7944293e-07
3.7887719e-07
3.7836501e-07
3.7789769e-07
3.7746801e-07
3.7707021e-07
3.7669982e-07
3.7635324e-07
3.7602753e-07
3.757203e-07
3.7542955e-07
3.7515359e-07
3.7489101e-07
3.7464061e-07
3.7440135e-07
3.7417235e-07
3.7395283e-07
3.737421e-07
3.7353955e-07
3.7334467e-07
3.7315697e-07
3.7297602e-07
3.7280144e-07
3.7263287e-07
3.7247e-07
3.7231256e-07
3.7216025e-07
3.7201284e-07
3.718701e-07
3.717318e-07
3.7159776e-07
3.7146779e-07
3.7134173e-07
3.7121941e-07
3.7110067e-07
3.7098536e-07
3.7087335e-07
3.707645e-07
3.7065871e-07
3.7055583e-07
3.7045578e-07
3.7035843e-07
3.7026367e-07
3.7017142e-07
3.7008156e-07
3.6999401e-07
3.6990867e-07
3.6982547e-07
3.6974431e-07
3.6966511e-07
3.6958779e-07
3.6951227e-07
3.6943847e-07
3.6936632e-07
3.6929574e-07
3.6922665e-07
3.6915899e-07
3.6909267e-07
3.6902764e-07
3.6896381e-07
3.6890112e-07
3.6883949e-07
3.6877885e-07
3.6871913e-07
3.6866025e-07
3.6860214e-07
3.6854472e-07
3.6848792e-07
3.6843166e-07
3.6837585e-07
3.6832043e-07
3.6826528e-07
3.6821034e-07
3.6815551e-07
3.6810069e-07
3.6804579e-07
3.6799069e-07
3.6793531e-07
3.6787952e-07
3.6782326e-07
3.6776629e-07
3.6770971e-07
3.6764885e-07
3.6758224e-07
3.6751234e-07
3.6744097e-07
3.6736924e-07
3.6729789e-07
3.6722736e-07
3.6715798e-07
3.6708996e-07
3.6702345e-07
3.6695854e-07
3.6689527e-07
3.6683369e-07
3.6677378e-07
3.6671554e-07
3.6665893e-07
3.6660392e-07
3.6655047e-07
3.6649837e-07
3.66448e-07
3.6639683e-07
3.6635293e-07
3.6628113e-07
1.9999997e-06
2.0000042e-06
2.0000122e-06
2.0000223e-06
2.0000343e-06
2.0000482e-06
2.0000641e-06
2.0000824e-06
2.0001034e-06
2.0001276e-06
2.0001554e-06
2.0001876e-06
2.0002251e-06
2.0002691e-06
2.0003214e-06
2.0003841e-06
2.0004617e-06
2.0005575e-06
2.0006893e-06
2.0008489e-06
2.001145e-06
2.001434e-06
2.0024499e-06
2.0019651e-06
4.540427e-07
4.3261477e-07
4.3266421e-07
4.318917e-07
4.3101107e-07
4.3018996e-07
4.2944458e-07
4.2877e-07
4.281563e-07
4.2759499e-07
4.2707849e-07
4.2660007e-07
4.2615426e-07
4.2573673e-07
4.2534396e-07
4.2497306e-07
4.2462164e-07
4.242877e-07
4.2396955e-07
4.2366575e-07
4.2337508e-07
4.2309649e-07
4.2282907e-07
4.2257203e-07
4.2232466e-07
4.2208633e-07
4.218565e-07
4.2163469e-07
4.2142044e-07
4.2121334e-07
4.2101304e-07
4.2081921e-07
4.2063154e-07
4.2044976e-07
4.2027359e-07
4.2010279e-07
4.1993713e-07
4.1977642e-07
4.1962045e-07
4.1946904e-07
4.1932201e-07
4.1917919e-07
4.1904043e-07
4.1890556e-07
4.1877446e-07
4.1864699e-07
4.1852301e-07
4.1840241e-07
4.1828506e-07
4.1817085e-07
4.1805965e-07
4.1795136e-07
4.1784588e-07
4.177431e-07
4.1764293e-07
4.1754527e-07
4.1745002e-07
4.1735709e-07
4.1726639e-07
4.1717782e-07
4.1709131e-07
4.1700675e-07
4.1692407e-07
4.1684317e-07
4.1676398e-07
4.166864e-07
4.1661036e-07
4.1653577e-07
4.1646253e-07
4.1639056e-07
4.1631978e-07
4.1625008e-07
4.161814e-07
4.1611361e-07
4.1604665e-07
4.159804e-07
4.1591476e-07
4.1584964e-07
4.1578493e-07
4.157205e-07
4.1565625e-07
4.1559206e-07
4.1552779e-07
4.1546332e-07
4.1539851e-07
4.1533322e-07
4.1526736e-07
4.152006e-07
4.151344e-07
4.150624e-07
4.1498229e-07
4.1489718e-07
4.1480946e-07
4.1472068e-07
4.1463182e-07
4.1454357e-07
4.1445638e-07
4.1437057e-07
4.1428639e-07
4.1420399e-07
4.1412347e-07
4.1404488e-07
4.1396826e-07
4.1389362e-07
4.1382093e-07
4.1375016e-07
4.1368129e-07
4.1361403e-07
4.1354891e-07
4.1348271e-07
4.134258e-07
4.1333252e-07
1.9999997e-06
2.0000048e-06
2.0000142e-06
2.0000261e-06
2.0000402e-06
2.0000565e-06
2.0000752e-06
2.0000967e-06
2.0001213e-06
2.0001495e-06
2.000182e-06
2.0002195e-06
2.0002631e-06
2.0003142e-06
2.0003747e-06
2.0004472e-06
2.0005367e-06
2.0006467e-06
2.0007977e-06
2.0009799e-06
2.0013161e-06
2.0016444e-06
2.0027906e-06
2.0022793e-06
5.0802899e-07
4.8485064e-07
4.8554741e-07
4.8501355e-07
4.8421492e-07
4.8341271e-07
4.8265666e-07
4.8195612e-07
4.8130779e-07
4.8070691e-07
4.8014797e-07
4.7962545e-07
4.7913457e-07
4.7867151e-07
4.7823311e-07
4.778167e-07
4.7742005e-07
4.7704128e-07
4.7667879e-07
4.763312e-07
4.7599735e-07
4.7567622e-07
4.7536694e-07
4.7506873e-07
4.7478089e-07
4.7450282e-07
4.7423399e-07
4.7397391e-07
4.7372214e-07
4.7347827e-07
4.7324194e-07
4.7301284e-07
4.7279064e-07
4.7257508e-07
4.7236587e-07
4.7216276e-07
4.7196553e-07
4.7177396e-07
4.7158786e-07
4.7140704e-07
4.712313e-07
4.7106048e-07
4.7089439e-07
4.7073288e-07
4.7057581e-07
4.7042304e-07
4.7027441e-07
4.7012981e-07
4.6998909e-07
4.6985213e-07
4.697188e-07
4.6958898e-07
4.6946256e-07
4.6933943e-07
4.6921947e-07
4.6910258e-07
4.6898866e-07
4.6887759e-07
4.6876926e-07
4.6866359e-07
4.6856046e-07
4.6845977e-07
4.6836143e-07
4.6826532e-07
4.6817137e-07
4.6807945e-07
4.6798948e-07
4.6790135e-07
4.6781496e-07
4.677302e-07
4.6764696e-07
4.6756514e-07
4.6748462e-07
4.674053e-07
4.6732705e-07
4.6724976e-07
4.671733e-07
4.6709753e-07
4.6702233e-07
4.6694756e-07
4.6687307e-07
4.6679869e-07
4.6672428e-07
4.6664966e-07
4.6657465e-07
4.6649908e-07
4.6642283e-07
4.6634545e-07
4.6626887e-07
4.6618446e-07
4.6608875e-07
4.6598563e-07
4.6587824e-07
4.6576869e-07
4.6565834e-07
4.6554815e-07
4.6543879e-07
4.6533074e-07
4.6522437e-07
4.6511991e-07
4.6501754e-07
4.6491738e-07
4.648195e-07
4.6472393e-07
4.6463067e-07
4.645397e-07
4.64451e-07
4.6436425e-07
4.6428012e-07
4.6419451e-07
4.6412078e-07
4.6399966e-07
1.9999997e-06
2.0000056e-06
2.0000167e-06
2.0000307e-06
2.0000472e-06
2.0000664e-06
2.0000885e-06
2.0001138e-06
2.0001428e-06
2.0001759e-06
2.000214e-06
2.0002579e-06
2.0003088e-06
2.0003684e-06
2.0004387e-06
2.0005228e-06
2.0006264e-06
2.0007533e-06
2.000927e-06
2.0011359e-06
2.0015191e-06
2.0018935e-06
2.0031919e-06
2.0026534e-06
5.6553481e-07
5.4079983e-07
5.4241952e-07
5.422736e-07
5.4164509e-07
5.4091916e-07
5.4019252e-07
5.3949523e-07
5.3883408e-07
5.3821013e-07
5.3762132e-07
5.3706417e-07
5.3653531e-07
5.3603186e-07
5.3555137e-07
5.3509168e-07
5.3465093e-07
5.3422755e-07
5.3382016e-07
5.3342756e-07
5.3304873e-07
5.326828e-07
5.3232897e-07
5.3198655e-07
5.3165491e-07
5.3133352e-07
5.3102188e-07
5.3071957e-07
5.3042616e-07
5.3014128e-07
5.298646e-07
5.2959581e-07
5.2933464e-07
5.2908081e-07
5.2883406e-07
5.2859414e-07
5.2836083e-07
5.2813394e-07
5.2791327e-07
5.2769864e-07
5.2748985e-07
5.2728672e-07
5.2708909e-07
5.2689679e-07
5.2670967e-07
5.265276e-07
5.2635042e-07
5.26178e-07
5.260102e-07
5.2584687e-07
5.256879e-07
5.2553314e-07
5.2538248e-07
5.252358e-07
5.2509297e-07
5.2495388e-07
5.2481841e-07
5.2468645e-07
5.2455787e-07
5.2443256e-07
5.2431041e-07
5.241913e-07
5.2407511e-07
5.2396172e-07
5.2385104e-07
5.2374294e-07
5.2363731e-07
5.2353401e-07
5.2343293e-07
5.2333394e-07
5.2323692e-07
5.2314174e-07
5.2304826e-07
5.2295634e-07
5.2286584e-07
5.2277661e-07
5.2268851e-07
5.2260136e-07
5.2251499e-07
5.2242924e-07
5.2234391e-07
5.2225882e-07
5.2217374e-07
5.2208848e-07
5.2200279e-07
5.2191645e-07
5.2182931e-07
5.2174076e-07
5.2165334e-07
5.2155544e-07
5.2144191e-07
5.2131762e-07
5.2118669e-07
5.2105195e-07
5.2091528e-07
5.2077803e-07
5.2064114e-07
5.2050533e-07
5.2037112e-07
5.2023889e-07
5.2010893e-07
5.1998142e-07
5.198565e-07
5.1973425e-07
5.1961472e-07
5.1949788e-07
5.1938376e-07
5.1927195e-07
5.1916332e-07
5.1905268e-07
5.1895722e-07
5.1880004e-07
1.9999996e-06
2.0000065e-06
2.0000195e-06
2.0000361e-06
2.0000557e-06
2.0000784e-06
2.0001045e-06
2.0001344e-06
2.0001685e-06
2.0002076e-06
2.0002523e-06
2.0003039e-06
2.0003635e-06
2.0004331e-06
2.0005152e-06
2.000613e-06
2.0007332e-06
2.0008801e-06
2.0010804e-06
2.0013206e-06
2.0017586e-06
2.0021869e-06
2.0036616e-06
2.0030967e-06
6.267915e-07
6.0080218e-07
6.0369846e-07
6.0413896e-07
6.038014e-07
6.0323276e-07
6.0259368e-07
6.0194325e-07
6.0130284e-07
6.0068212e-07
6.0008424e-07
5.9950902e-07
5.989553e-07
5.9842181e-07
5.979073e-07
5.9741049e-07
5.9693021e-07
5.9646541e-07
5.9601514e-07
5.9557856e-07
5.9515494e-07
5.9474361e-07
5.9434401e-07
5.939556e-07
5.9357791e-07
5.9321052e-07
5.9285304e-07
5.9250514e-07
5.9216648e-07
5.9183675e-07
5.9151569e-07
5.9120305e-07
5.9089859e-07
5.9060209e-07
5.9031332e-07
5.9003206e-07
5.8975812e-07
5.8949132e-07
5.892315e-07
5.8897848e-07
5.887321e-07
5.8849218e-07
5.8825855e-07
5.8803106e-07
5.8780959e-07
5.8759398e-07
5.8738409e-07
5.871798e-07
5.8698095e-07
5.8678742e-07
5.8659905e-07
5.8641573e-07
5.8623731e-07
5.8606369e-07
5.8589474e-07
5.8573032e-07
5.8557032e-07
5.854146e-07
5.8526304e-07
5.8511551e-07
5.8497188e-07
5.8483202e-07
5.8469581e-07
5.8456311e-07
5.8443381e-07
5.8430775e-07
5.8418482e-07
5.8406485e-07
5.8394773e-07
5.8383329e-07
5.8372138e-07
5.8361185e-07
5.8350453e-07
5.8339927e-07
5.8329588e-07
5.8319419e-07
5.83094e-07
5.8299512e-07
5.8289733e-07
5.8280042e-07
5.8270414e-07
5.8260826e-07
5.8251251e-07
5.8241661e-07
5.8232028e-07
5.822232e-07
5.821252e-07
5.8202545e-07
5.8192731e-07
5.8181519e-07
5.8168164e-07
5.8153272e-07
5.813738e-07
5.8120868e-07
5.8103993e-07
5.808694e-07
5.8069844e-07
5.8052806e-07
5.8035903e-07
5.8019192e-07
5.8002717e-07
5.7986507e-07
5.7970585e-07
5.7954967e-07
5.7939663e-07
5.7924674e-07
5.7910004e-07
5.7895608e-07
5.7881596e-07
5.7867311e-07
5.7854961e-07
5.7834579e-07
1.9999996e-06
2.0000076e-06
2.000023e-06
2.0000425e-06
2.0000657e-06
2.0000927e-06
2.0001236e-06
2.0001589e-06
2.0001993e-06
2.0002453e-06
2.0002981e-06
2.0003587e-06
2.0004287e-06
2.0005101e-06
2.0006061e-06
2.0007201e-06
2.0008598e-06
2.0010302e-06
2.0012615e-06
2.0015383e-06
2.0020398e-06
2.0025305e-06
2.0042082e-06
2.0036194e-06
6.9200984e-07
6.652112e-07
6.698344e-07
6.7112227e-07
6.7123892e-07
6.7093965e-07
6.7047038e-07
6.6992982e-07
6.6935976e-07
6.6878206e-07
6.6820743e-07
6.6764058e-07
6.6708373e-07
6.6653808e-07
6.6600419e-07
6.6548223e-07
6.6497209e-07
6.644736e-07
6.639865e-07
6.6351051e-07
6.6304539e-07
6.6259088e-07
6.6214674e-07
6.6171274e-07
6.6128864e-07
6.6087424e-07
6.6046934e-07
6.6007379e-07
6.5968739e-07