/*--------------------------------*- C++ -*----------------------------------*\
| =========                 |                                                 |
| \\      /  F ield         | OpenFOAM: The Open Source CFD Toolbox           |
|  \\    /   O peration     | Version:  2206                                  |
|   \\  /    A nd           | Website:  www.openfoam.com                      |
|    \\/     M anipulation  |                                                 |
\*---------------------------------------------------------------------------*/
FoamFile
{
    version     2.0;
    format      ascii;
    arch        "LSB;label=32;scalar=64";
    class       volScalarField;
    location    "100";
    object      p;
}
// * * * * * * * * * * * * * * * * * * * * * * * * * * * * * * * * * * * * * //

dimensions      [0 2 -2 0 0 0 0];

internalField   nonuniform List<scalar> 
13056
(
0.0082155948
0.0082955142
0.0084665516
0.0086897853
0.008961539
0.0092814133
0.0096488614
0.010064188
0.010529107
0.011046856
0.011622276
0.012262125
0.012975605
0.013775518
0.014679346
0.015713457
0.016912585
0.018343107
0.020070387
0.022337639
0.02515471
0.029962932
0.034888742
0.07296531
0.04304812
-0.0068775577
-0.0061811379
-0.0035142695
-0.0025143088
-0.0017327638
-0.0011242405
-0.00068799949
-0.00035578698
-9.3726238e-05
0.00011740331
0.00029235476
0.0004406024
0.00056801137
0.0006786382
0.00077562997
0.00086154704
0.00093832032
0.0010074249
0.0010700108
0.0011269763
0.0011790381
0.0012267816
0.0012706928
0.0013111801
0.0013485905
0.0013832195
0.0014153206
0.0014451118
0.0014727806
0.0014984887
0.0015223776
0.0015445709
0.0015651769
0.0015842912
0.0016019986
0.0016183741
0.0016334831
0.0016473831
0.0016601247
0.0016717535
0.001682311
0.0016918344
0.0017003564
0.0017079078
0.0017145142
0.001720193
0.0017249611
0.0017288352
0.001731829
0.0017339533
0.0017352168
0.0017356282
0.0017351911
0.0017339114
0.0017317936
0.0017288291
0.0017250129
0.0017203437
0.0017148157
0.0017084198
0.0017011455
0.0016929816
0.0016839163
0.0016739386
0.0016630256
0.0016511452
0.0016382751
0.001624392
0.001609466
0.0015934623
0.0015763437
0.0015580707
0.0015386005
0.0015178722
0.001495817
0.001472373
0.0014474699
0.001421023
0.0013929355
0.0013631017
0.0013313999
0.001297673
0.0012617383
0.0012233873
0.0011823576
0.0011382806
0.0010907192
0.0010384302
0.00098330211
0.00093007296
0.00087960813
0.00083057959
0.0007823279
0.00073464404
0.00068741943
0.00064058684
0.00059413622
0.00054810938
0.00050257647
0.00045763049
0.00041338916
0.00037000924
0.00032769507
0.00028676112
0.00024755826
0.00021099906
0.00017724969
0.00015203293
0.00012586254
0.00019333494
-0.00013895353
0.0082155948
0.0082955142
0.0084665517
0.0086897853
0.0089615391
0.0092814134
0.0096488616
0.010064188
0.010529108
0.011046856
0.011622277
0.012262126
0.012975606
0.01377552
0.014679348
0.015713459
0.016912589
0.018343112
0.020070395
0.022337653
0.025154729
0.029962974
0.034888766
0.072959938
0.043057164
-0.0068705421
-0.0061799612
-0.0035137877
-0.0025140416
-0.0017325803
-0.0011241041
-0.00068789392
-0.00035570273
-9.3657461e-05
0.00011746053
0.00029240311
0.00044064378
0.00056804715
0.00067866943
0.00077565745
0.00086157138
0.00093834202
0.0010074443
0.0010700283
0.0011269922
0.0011790525
0.0012267948
0.0012707048
0.0013111912
0.0013486007
0.0013832289
0.0014153293
0.0014451199
0.0014727881
0.0014984957
0.0015223842
0.0015445771
0.0015651827
0.0015842966
0.0016020037
0.0016183789
0.0016334876
0.0016473874
0.0016601287
0.0016717573
0.0016823146
0.0016918378
0.0017003596
0.0017079109
0.0017145171
0.0017201958
0.0017249637
0.0017288377
0.0017318314
0.0017339556
0.001735219
0.0017356303
0.0017351931
0.0017339133
0.0017317954
0.0017288308
0.0017250146
0.0017203453
0.0017148173
0.0017084213
0.0017011469
0.001692983
0.0016839175
0.0016739398
0.0016630267
0.0016511463
0.0016382761
0.001624393
0.0016094669
0.0015934633
0.0015763445
0.0015580716
0.0015386013
0.0015178729
0.0014958177
0.0014723737
0.0014474705
0.0014210236
0.0013929361
0.0013631023
0.0013314004
0.0012976734
0.0012617387
0.0012233877
0.0011823579
0.001138281
0.0010907195
0.0010384305
0.00098330237
0.00093007319
0.00087960833
0.00083057977
0.00078232806
0.00073464419
0.00068741956
0.00064058696
0.00059413634
0.00054810948
0.00050257657
0.00045763058
0.00041338925
0.00037000932
0.00032769514
0.00028676119
0.00024755833
0.00021099912
0.00017724975
0.00015203299
0.00012586259
0.00019333501
-0.00013895349
0.0082155948
0.0082955142
0.0084665518
0.0086897854
0.0089615392
0.0092814136
0.0096488618
0.010064188
0.010529108
0.011046857
0.011622278
0.012262127
0.012975607
0.013775521
0.01467935
0.015713462
0.016912593
0.018343118
0.020070403
0.022337669
0.02515475
0.029963021
0.034888779
0.072954476
0.043066861
-0.0068625125
-0.0061785971
-0.0035132349
-0.0025137354
-0.0017323703
-0.0011239483
-0.00068777342
-0.00035560667
-9.3579148e-05
0.0001175256
0.00029245803
0.00044069074
0.00056808773
0.00067870481
0.00077568855
0.00086159892
0.00093836656
0.0010074663
0.0010700481
0.0011270101
0.0011790688
0.0012268096
0.0012707184
0.0013112036
0.0013486121
0.0013832395
0.0014153391
0.001445129
0.0014727966
0.0014985036
0.0015223916
0.001544584
0.0015651891
0.0015843027
0.0016020094
0.0016183842
0.0016334927
0.0016473922
0.0016601332
0.0016717616
0.0016823187
0.0016918417
0.0017003633
0.0017079144
0.0017145204
0.0017201989
0.0017249667
0.0017288406
0.0017318341
0.0017339582
0.0017352215
0.0017356327
0.0017351954
0.0017339155
0.0017317975
0.0017288328
0.0017250165
0.0017203471
0.001714819
0.001708423
0.0017011484
0.0016929845
0.001683919
0.0016739412
0.001663028
0.0016511476
0.0016382773
0.0016243942
0.001609468
0.0015934643
0.0015763455
0.0015580725
0.0015386022
0.0015178738
0.0014958185
0.0014723744
0.0014474712
0.0014210243
0.0013929367
0.0013631029
0.0013314009
0.001297674
0.0012617392
0.0012233882
0.0011823584
0.0011382814
0.0010907199
0.0010384309
0.00098330267
0.00093007344
0.00087960855
0.00083057996
0.00078232824
0.00073464435
0.00068741971
0.0006405871
0.00059413646
0.00054810959
0.00050257667
0.00045763068
0.00041338934
0.00037000941
0.00032769522
0.00028676127
0.0002475584
0.00021099919
0.00017724982
0.00015203305
0.00012586266
0.00019333507
-0.00013895344
0.0082155948
0.0082955143
0.0084665518
0.0086897855
0.0089615393
0.0092814137
0.009648862
0.010064189
0.010529108
0.011046857
0.011622278
0.012262127
0.012975608
0.013775522
0.014679352
0.015713465
0.016912597
0.018343124
0.020070412
0.022337685
0.025154772
0.029963066
0.03488879
0.072949219
0.043078867
-0.0068554116
-0.0061772228
-0.0035126722
-0.0025134231
-0.0017321559
-0.001123789
-0.00068765013
-0.00035550829
-9.349884e-05
0.0001175924
0.00029251448
0.00044073904
0.0005681295
0.00067874127
0.00077572062
0.00086162733
0.00093839189
0.001007489
0.0010700685
0.0011270286
0.0011790856
0.0012268249
0.0012707325
0.0013112165
0.001348624
0.0013832505
0.0014153493
0.0014451385
0.0014728053
0.0014985118
0.0015223992
0.0015445911
0.0015651958
0.001584309
0.0016020153
0.0016183898
0.001633498
0.0016473971
0.0016601379
0.001671766
0.0016823229
0.0016918457
0.0017003671
0.001707918
0.0017145239
0.0017202022
0.0017249699
0.0017288435
0.0017318369
0.0017339609
0.001735224
0.0017356352
0.0017351977
0.0017339177
0.0017317996
0.0017288348
0.0017250184
0.0017203489
0.0017148208
0.0017084247
0.0017011501
0.0016929861
0.0016839205
0.0016739426
0.0016630294
0.0016511489
0.0016382786
0.0016243953
0.0016094692
0.0015934654
0.0015763465
0.0015580735
0.0015386031
0.0015178747
0.0014958194
0.0014723752
0.001447472
0.001421025
0.0013929374
0.0013631035
0.0013314015
0.0012976745
0.0012617397
0.0012233886
0.0011823588
0.0011382818
0.0010907203
0.0010384312
0.00098330298
0.00093007371
0.00087960878
0.00083058017
0.00078232843
0.00073464452
0.00068741986
0.00064058724
0.00059413659
0.00054810972
0.00050257679
0.00045763078
0.00041338944
0.0003700095
0.00032769531
0.00028676135
0.00024755848
0.00021099926
0.00017724989
0.00015203312
0.00012586272
0.00019333514
-0.0001389534
0.0082155948
0.0082955143
0.0084665519
0.0086897856
0.0089615394
0.0092814138
0.0096488622
0.010064189
0.010529109
0.011046857
0.011622279
0.012262128
0.012975609
0.013775524
0.014679354
0.015713468
0.016912601
0.018343131
0.020070421
0.022337701
0.025154794
0.029963114
0.034888803
0.072943583
0.04309438
-0.0068495888
-0.0061758052
-0.0035120897
-0.0025130995
-0.0017319337
-0.0011236239
-0.00068752226
-0.00035540621
-9.3415486e-05
0.00011766176
0.00029257311
0.00044078923
0.00056817292
0.00067877917
0.00077575398
0.00086165689
0.00093841824
0.0010075126
0.0010700898
0.0011270479
0.0011791031
0.0012268409
0.0012707471
0.00131123
0.0013486364
0.0013832619
0.0014153599
0.0014451483
0.0014728145
0.0014985203
0.0015224072
0.0015445986
0.0015652028
0.0015843155
0.0016020215
0.0016183956
0.0016335034
0.0016474023
0.0016601428
0.0016717707
0.0016823273
0.0016918498
0.001700371
0.0017079217
0.0017145274
0.0017202056
0.0017249731
0.0017288466
0.0017318399
0.0017339637
0.0017352267
0.0017356377
0.0017352001
0.00173392
0.0017318019
0.001728837
0.0017250205
0.0017203509
0.0017148226
0.0017084264
0.0017011518
0.0016929877
0.001683922
0.0016739441
0.0016630308
0.0016511502
0.0016382799
0.0016243966
0.0016094703
0.0015934665
0.0015763476
0.0015580745
0.0015386041
0.0015178756
0.0014958202
0.0014723761
0.0014474728
0.0014210257
0.0013929381
0.0013631042
0.0013314021
0.0012976751
0.0012617403
0.0012233892
0.0011823593
0.0011382823
0.0010907207
0.0010384316
0.0009833033
0.00093007399
0.00087960903
0.00083058039
0.00078232862
0.0007346447
0.00068742003
0.00064058739
0.00059413673
0.00054810984
0.0005025769
0.00045763089
0.00041338954
0.0003700096
0.0003276954
0.00028676144
0.00024755856
0.00021099934
0.00017724996
0.0001520332
0.00012586279
0.00019333522
-0.00013895335
0.0082155948
0.0082955144
0.008466552
0.0086897857
0.0089615395
0.009281414
0.0096488624
0.010064189
0.010529109
0.011046858
0.011622279
0.012262129
0.01297561
0.013775526
0.014679356
0.015713471
0.016912606
0.018343138
0.020070431
0.022337719
0.025154819
0.029963165
0.034888819
0.072937305
0.043110921
-0.0068450963
-0.0061743003
-0.0035114709
-0.0025127555
-0.0017316974
-0.0011234483
-0.00068738632
-0.00035529769
-9.3326858e-05
0.00011773552
0.00029263545
0.0004408426
0.0005682191
0.00067881949
0.00077578946
0.00086168834
0.00093844628
0.0010075378
0.0010701125
0.0011270684
0.0011791218
0.0012268579
0.0012707627
0.0013112443
0.0013486496
0.0013832741
0.0014153712
0.0014451588
0.0014728242
0.0014985294
0.0015224156
0.0015446065
0.0015652103
0.0015843225
0.0016020281
0.0016184018
0.0016335093
0.0016474078
0.001660148
0.0016717756
0.0016823319
0.0016918543
0.0017003753
0.0017079257
0.0017145312
0.0017202092
0.0017249765
0.0017288499
0.001731843
0.0017339667
0.0017352295
0.0017356404
0.0017352027
0.0017339225
0.0017318042
0.0017288392
0.0017250226
0.001720353
0.0017148246
0.0017084283
0.0017011536
0.0016929894
0.0016839237
0.0016739457
0.0016630323
0.0016511517
0.0016382812
0.0016243979
0.0016094716
0.0015934677
0.0015763487
0.0015580756
0.0015386051
0.0015178765
0.0014958212
0.0014723769
0.0014474736
0.0014210265
0.0013929388
0.0013631049
0.0013314028
0.0012976757
0.0012617408
0.0012233897
0.0011823598
0.0011382827
0.0010907212
0.001038432
0.00098330364
0.00093007428
0.00087960929
0.00083058062
0.00078232883
0.00073464489
0.0006874202
0.00064058755
0.00059413688
0.00054810998
0.00050257703
0.00045763101
0.00041338965
0.0003700097
0.00032769549
0.00028676153
0.00024755864
0.00021099942
0.00017725004
0.00015203328
0.00012586287
0.0001933353
-0.0001389533
0.0082155948
0.0082955144
0.008466552
0.0086897858
0.0089615396
0.0092814142
0.0096488626
0.010064189
0.010529109
0.011046859
0.01162228
0.01226213
0.012975612
0.013775527
0.014679359
0.015713475
0.016912611
0.018343146
0.020070442
0.022337739
0.025154847
0.029963222
0.034888838
0.072930275
0.043127958
-0.0068411195
-0.0061726768
-0.0035108023
-0.0025123834
-0.001731442
-0.0011232585
-0.0006872393
-0.0003551803
-9.3230977e-05
0.00011781532
0.00029270293
0.00044090038
0.00056826909
0.00067886314
0.00077582788
0.00086172239
0.00093847666
0.001007565
0.001070137
0.0011270907
0.001179142
0.0012268764
0.0012707796
0.0013112598
0.0013486639
0.0013832873
0.0014153834
0.0014451701
0.0014728348
0.0014985393
0.0015224248
0.0015446151
0.0015652183
0.0015843301
0.0016020352
0.0016184085
0.0016335156
0.0016474138
0.0016601537
0.001671781
0.001682337
0.0016918591
0.0017003798
0.0017079301
0.0017145353
0.0017202131
0.0017249803
0.0017288534
0.0017318464
0.0017339699
0.0017352326
0.0017356434
0.0017352055
0.0017339252
0.0017318068
0.0017288417
0.001725025
0.0017203552
0.0017148268
0.0017084304
0.0017011555
0.0016929913
0.0016839255
0.0016739474
0.001663034
0.0016511532
0.0016382827
0.0016243993
0.0016094729
0.001593469
0.00157635
0.0015580768
0.0015386062
0.0015178776
0.0014958222
0.0014723779
0.0014474745
0.0014210273
0.0013929396
0.0013631056
0.0013314035
0.0012976764
0.0012617415
0.0012233903
0.0011823604
0.0011382833
0.0010907216
0.0010384324
0.00098330401
0.0009300746
0.00087960957
0.00083058088
0.00078232906
0.0007346451
0.00068742039
0.00064058772
0.00059413704
0.00054811013
0.00050257717
0.00045763114
0.00041338977
0.00037000981
0.0003276956
0.00028676163
0.00024755874
0.00021099951
0.00017725012
0.00015203336
0.00012586295
0.00019333539
-0.00013895325
0.0082155948
0.0082955145
0.0084665521
0.0086897859
0.0089615398
0.0092814144
0.0096488629
0.01006419
0.01052911
0.011046859
0.011622281
0.012262131
0.012975613
0.01377553
0.014679362
0.015713479
0.016912617
0.018343155
0.020070455
0.022337763
0.025154878
0.029963287
0.03488886
0.072922351
0.043145925
-0.006836664
-0.0061709068
-0.0035100713
-0.0025119762
-0.0017311624
-0.0011230507
-0.00068707834
-0.00035505174
-9.3125944e-05
0.00011790277
0.00029277688
0.00044096371
0.00056832391
0.00067891102
0.00077587003
0.00086175975
0.00093850999
0.0010075949
0.001070164
0.0011271151
0.0011791642
0.0012268966
0.0012707981
0.0013112768
0.0013486796
0.0013833018
0.0014153968
0.0014451826
0.0014728464
0.0014985501
0.001522435
0.0015446246
0.0015652272
0.0015843384
0.001602043
0.0016184159
0.0016335226
0.0016474204
0.0016601599
0.0016717868
0.0016823426
0.0016918644
0.0017003848
0.0017079348
0.0017145399
0.0017202174
0.0017249844
0.0017288573
0.0017318501
0.0017339735
0.001735236
0.0017356466
0.0017352086
0.0017339282
0.0017318096
0.0017288444
0.0017250276
0.0017203577
0.0017148291
0.0017084326
0.0017011577
0.0016929933
0.0016839274
0.0016739493
0.0016630358
0.0016511549
0.0016382844
0.0016244009
0.0016094744
0.0015934704
0.0015763513
0.001558078
0.0015386074
0.0015178788
0.0014958233
0.0014723789
0.0014474755
0.0014210283
0.0013929405
0.0013631065
0.0013314043
0.0012976771
0.0012617422
0.0012233909
0.001182361
0.0011382838
0.0010907222
0.0010384329
0.00098330442
0.00093007496
0.00087960988
0.00083058116
0.00078232931
0.00073464533
0.0006874206
0.00064058792
0.00059413722
0.00054811029
0.00050257732
0.00045763128
0.0004133899
0.00037000994
0.00032769572
0.00028676174
0.00024755884
0.00021099961
0.00017725022
0.00015203346
0.00012586303
0.00019333549
-0.00013895319
0.0082155948
0.0082955146
0.0084665523
0.008689786
0.00896154
0.0092814146
0.0096488632
0.01006419
0.01052911
0.01104686
0.011622282
0.012262133
0.012975615
0.013775532
0.014679365
0.015713484
0.016912624
0.018343165
0.02007047
0.022337789
0.025154915
0.029963362
0.034888887
0.072913345
0.043165236
-0.006831133
-0.0061689595
-0.0035092643
-0.0025115262
-0.0017308533
-0.0011228209
-0.00068690028
-0.00035490949
-9.3009668e-05
0.00011799961
0.00029285881
0.00044103391
0.00056838469
0.00067896412
0.00077591678
0.00086180121
0.00093854698
0.0010076281
0.0010701939
0.0011271422
0.0011791888
0.0012269191
0.0012708187
0.0013112958
0.001348697
0.0013833179
0.0014154118
0.0014451965
0.0014728593
0.0014985621
0.0015224462
0.0015446351
0.0015652371
0.0015843477
0.0016020517
0.0016184241
0.0016335303
0.0016474277
0.0016601668
0.0016717934
0.0016823488
0.0016918702
0.0017003904
0.0017079401
0.0017145449
0.0017202222
0.0017249889
0.0017288617
0.0017318543
0.0017339774
0.0017352398
0.0017356502
0.0017352121
0.0017339314
0.0017318128
0.0017288474
0.0017250304
0.0017203604
0.0017148317
0.0017084351
0.0017011601
0.0016929956
0.0016839296
0.0016739513
0.0016630377
0.0016511568
0.0016382862
0.0016244026
0.0016094761
0.001593472
0.0015763528
0.0015580795
0.0015386088
0.00151788
0.0014958245
0.0014723801
0.0014474766
0.0014210293
0.0013929415
0.0013631074
0.0013314052
0.0012976779
0.0012617429
0.0012233916
0.0011823616
0.0011382844
0.0010907227
0.0010384334
0.00098330488
0.00093007535
0.00087961023
0.00083058147
0.00078232959
0.00073464558
0.00068742083
0.00064058813
0.00059413741
0.00054811048
0.00050257749
0.00045763144
0.00041339005
0.00037001008
0.00032769585
0.00028676186
0.00024755896
0.00021099972
0.00017725032
0.00015203357
0.00012586313
0.0001933356
-0.00013895312
0.0082155948
0.0082955147
0.0084665524
0.0086897862
0.0089615402
0.0092814149
0.0096488636
0.010064191
0.010529111
0.011046861
0.011622283
0.012262134
0.012975617
0.013775535
0.014679369
0.015713489
0.016912632
0.018343177
0.020070487
0.02233782
0.025154957
0.02996345
0.034888921
0.072903036
0.043186114
-0.0068241514
-0.0061668002
-0.0035083657
-0.0025110242
-0.0017305084
-0.0011225645
-0.00068670152
-0.00035475062
-9.2879754e-05
0.00011810787
0.00029295043
0.00044111244
0.00056845271
0.00067902356
0.00077596915
0.00086184767
0.00093858844
0.0010076653
0.0010702275
0.0011271726
0.0011792165
0.0012269444
0.0012708419
0.001311317
0.0013487166
0.001383336
0.0014154285
0.001445212
0.0014728738
0.0014985757
0.0015224588
0.001544647
0.0015652482
0.0015843581
0.0016020615
0.0016184333
0.001633539
0.0016474359
0.0016601746
0.0016718007
0.0016823557
0.0016918768
0.0017003967
0.0017079461
0.0017145506
0.0017202276
0.0017249941
0.0017288666
0.0017318589
0.0017339819
0.001735244
0.0017356543
0.0017352159
0.0017339351
0.0017318163
0.0017288508
0.0017250336
0.0017203635
0.0017148347
0.001708438
0.0017011628
0.0016929982
0.0016839321
0.0016739537
0.00166304
0.001651159
0.0016382882
0.0016244045
0.0016094779
0.0015934737
0.0015763545
0.0015580811
0.0015386103
0.0015178815
0.0014958259
0.0014723814
0.0014474778
0.0014210305
0.0013929426
0.0013631084
0.0013314061
0.0012976789
0.0012617438
0.0012233925
0.0011823624
0.0011382851
0.0010907234
0.001038434
0.00098330539
0.0009300758
0.00087961063
0.00083058182
0.00078232991
0.00073464587
0.0006874211
0.00064058838
0.00059413764
0.00054811069
0.00050257769
0.00045763162
0.00041339022
0.00037001024
0.000327696
0.000286762
0.00024755909
0.00021099985
0.00017725044
0.00015203369
0.00012586325
0.00019333573
-0.00013895304
0.0082155948
0.0082955148
0.0084665525
0.0086897864
0.0089615405
0.0092814153
0.009648864
0.010064191
0.010529112
0.011046862
0.011622285
0.012262136
0.01297562
0.013775539
0.014679374
0.015713496
0.016912641
0.018343191
0.020070507
0.022337856
0.025155006
0.029963552
0.034888961
0.072891161
0.043208719
-0.0068156244
-0.0061643891
-0.0035073576
-0.0025104602
-0.0017301208
-0.0011222761
-0.00068647794
-0.0003545718
-9.273345e-05
0.00011822984
0.00029305372
0.00044120102
0.00056852946
0.00067909067
0.00077602829
0.00086190015
0.0009386353
0.0010077074
0.0010702654
0.001127207
0.0011792478
0.001226973
0.001270868
0.0013113411
0.0013487388
0.0013833565
0.0014154475
0.0014452297
0.0014728902
0.001498591
0.0015224732
0.0015446604
0.0015652607
0.0015843699
0.0016020726
0.0016184438
0.0016335489
0.0016474452
0.0016601834
0.0016718091
0.0016823636
0.0016918843
0.0017004038
0.0017079528
0.001714557
0.0017202337
0.0017249999
0.0017288721
0.0017318642
0.0017339869
0.0017352488
0.0017356588
0.0017352203
0.0017339393
0.0017318203
0.0017288546
0.0017250373
0.001720367
0.001714838
0.0017084411
0.0017011658
0.0016930011
0.0016839348
0.0016739563
0.0016630425
0.0016511614
0.0016382905
0.0016244067
0.00160948
0.0015934757
0.0015763564
0.0015580829
0.001538612
0.0015178831
0.0014958274
0.0014723828
0.0014474792
0.0014210318
0.0013929438
0.0013631096
0.0013314072
0.0012976799
0.0012617448
0.0012233934
0.0011823632
0.0011382859
0.0010907241
0.0010384347
0.00098330598
0.00093007631
0.00087961108
0.00083058223
0.00078233028
0.00073464621
0.00068742141
0.00064058866
0.0005941379
0.00054811093
0.00050257791
0.00045763183
0.00041339042
0.00037001042
0.00032769617
0.00028676216
0.00024755925
0.00021099999
0.00017725058
0.00015203383
0.00012586338
0.00019333587
-0.00013895295
0.0082155948
0.0082955149
0.0084665527
0.0086897866
0.0089615408
0.0092814157
0.0096488646
0.010064192
0.010529113
0.011046863
0.011622286
0.012262138
0.012975623
0.013775543
0.01467938
0.015713504
0.016912652
0.018343207
0.02007053
0.022337898
0.025155064
0.029963672
0.034889011
0.072877407
0.043233217
-0.0068057
-0.0061616819
-0.0035062197
-0.0025098224
-0.0017296822
-0.0011219499
-0.00068622481
-0.00035436925
-9.2567618e-05
0.00011836819
0.00029317094
0.00044130159
0.00056861665
0.00067916694
0.00077609553
0.00086195984
0.00093868862
0.0010077553
0.0010703087
0.0011272462
0.0011792834
0.0012270056
0.0012708979
0.0013113686
0.0013487641
0.0013833799
0.0014154692
0.0014452498
0.001472909
0.0014986085
0.0015224895
0.0015446757
0.0015652751
0.0015843834
0.0016020853
0.0016184557
0.0016335601
0.0016474558
0.0016601934
0.0016718186
0.0016823726
0.0016918929
0.0017004119
0.0017079605
0.0017145643
0.0017202407
0.0017250065
0.0017288784
0.0017318702
0.0017339927
0.0017352543
0.0017356641
0.0017352253
0.0017339441
0.0017318248
0.0017288589
0.0017250414
0.0017203709
0.0017148418
0.0017084448
0.0017011693
0.0016930044
0.001683938
0.0016739594
0.0016630454
0.0016511641
0.0016382931
0.0016244092
0.0016094824
0.001593478
0.0015763586
0.0015580849
0.001538614
0.001517885
0.0014958292
0.0014723845
0.0014474808
0.0014210333
0.0013929452
0.0013631109
0.0013314085
0.0012976811
0.0012617459
0.0012233944
0.0011823642
0.0011382868
0.001090725
0.0010384354
0.00098330665
0.0009300769
0.0008796116
0.00083058269
0.0007823307
0.00073464659
0.00068742176
0.00064058898
0.0005941382
0.00054811121
0.00050257817
0.00045763207
0.00041339064
0.00037001063
0.00032769637
0.00028676235
0.00024755942
0.00021100016
0.00017725074
0.00015203399
0.00012586353
0.00019333604
-0.00013895285
0.0082155948
0.0082955151
0.0084665529
0.0086897869
0.0089615411
0.0092814161
0.0096488652
0.010064193
0.010529114
0.011046865
0.011622288
0.012262141
0.012975626
0.013775547
0.014679386
0.015713513
0.016912665
0.018343226
0.020070558
0.022337947
0.02515513
0.029963812
0.034889071
0.072861401
0.043259776
-0.0067944934
-0.0061586282
-0.003504929
-0.0025090976
-0.0017291836
-0.0011215788
-0.00068593677
-0.00035413862
-9.2378672e-05
0.00011852591
0.00029330465
0.00044141638
0.00056871622
0.00067925409
0.0007761724
0.00086202811
0.00093874963
0.0010078101
0.0010703582
0.001127291
0.0011793243
0.0012270429
0.0012709321
0.0013114
0.0013487932
0.0013834068
0.0014154941
0.001445273
0.0014729305
0.0014986286
0.0015225083
0.0015446932
0.0015652916
0.0015843989
0.0016020999
0.0016184695
0.0016335731
0.0016474681
0.001660205
0.0016718295
0.001682383
0.0016919027
0.0017004212
0.0017079694
0.0017145727
0.0017202487
0.0017250141
0.0017288857
0.0017318771
0.0017339992
0.0017352606
0.0017356701
0.001735231
0.0017339495
0.0017318301
0.0017288639
0.0017250462
0.0017203755
0.0017148461
0.0017084489
0.0017011733
0.0016930082
0.0016839416
0.0016739628
0.0016630487
0.0016511673
0.0016382962
0.0016244121
0.0016094851
0.0015934806
0.001576361
0.0015580873
0.0015386162
0.0015178871
0.0014958312
0.0014723864
0.0014474826
0.001421035
0.0013929468
0.0013631124
0.0013314099
0.0012976824
0.0012617471
0.0012233956
0.0011823653
0.0011382879
0.0010907259
0.0010384363
0.00098330742
0.00093007757
0.0008796122
0.00083058323
0.00078233119
0.00073464704
0.00068742217
0.00064058936
0.00059413855
0.00054811153
0.00050257847
0.00045763236
0.00041339091
0.00037001088
0.0003276966
0.00028676257
0.00024755963
0.00021100036
0.00017725093
0.00015203419
0.00012586371
0.00019333624
-0.00013895273
0.0082155948
0.0082955153
0.0084665532
0.0086897872
0.0089615415
0.0092814167
0.0096488659
0.010064194
0.010529115
0.011046866
0.01162229
0.012262144
0.01297563
0.013775553
0.014679394
0.015713523
0.01691268
0.018343249
0.020070589
0.022338003
0.025155208
0.029963975
0.034889145
0.072842695
0.043288534
-0.0067819471
-0.0061551713
-0.0035034593
-0.0025082705
-0.0017286144
-0.0011211551
-0.00068560769
-0.00035387495
-9.2162516e-05
0.00011870647
0.00029345782
0.00044154795
0.00056883041
0.00067935407
0.00077626064
0.00086210652
0.00093881972
0.0010078731
0.0010704151
0.0011273427
0.0011793713
0.0012270859
0.0012709715
0.0013114363
0.0013488266
0.0013834377
0.0014155228
0.0014452996
0.0014729553
0.0014986517
0.0015225299
0.0015447135
0.0015653106
0.0015844167
0.0016021167
0.0016184853
0.001633588
0.0016474821
0.0016602183
0.0016718421
0.0016823949
0.001691914
0.001700432
0.0017079796
0.0017145824
0.0017202579
0.0017250229
0.0017288941
0.0017318851
0.0017340068
0.0017352678
0.001735677
0.0017352376
0.0017339558
0.0017318361
0.0017288697
0.0017250517
0.0017203807
0.0017148512
0.0017084537
0.0017011778
0.0016930126
0.0016839458
0.0016739668
0.0016630525
0.0016511709
0.0016382996
0.0016244154
0.0016094883
0.0015934836
0.0015763639
0.00155809
0.0015386188
0.0015178896
0.0014958335
0.0014723886
0.0014474847
0.001421037
0.0013929487
0.0013631142
0.0013314116
0.001297684
0.0012617486
0.001223397
0.0011823666
0.0011382891
0.001090727
0.0010384373
0.00098330831
0.00093007835
0.0008796129
0.00083058386
0.00078233176
0.00073464756
0.00068742265
0.0006405898
0.00059413896
0.00054811191
0.00050257883
0.00045763269
0.00041339122
0.00037001117
0.00032769688
0.00028676283
0.00024755988
0.0002110006
0.00017725116
0.00015203441
0.00012586392
0.00019333647
-0.00013895258
0.0082155948
0.0082955155
0.0084665535
0.0086897876
0.008961542
0.0092814173
0.0096488668
0.010064195
0.010529117
0.011046868
0.011622293
0.012262147
0.012975635
0.013775559
0.014679403
0.015713536
0.016912697
0.018343275
0.020070626
0.022338068
0.025155297
0.029964164
0.034889236
0.072820753
0.043319583
-0.0067678587
-0.006151247
-0.0035017808
-0.0025073239
-0.0017279626
-0.0011206697
-0.00068523056
-0.00035357259
-9.191447e-05
0.00011891381
0.00029363382
0.00044169921
0.00056896177
0.00067946916
0.00077636225
0.00086219685
0.00093890051
0.0010079457
0.0010704807
0.0011274022
0.0011794256
0.0012271355
0.0012710171
0.0013114782
0.0013488653
0.0013834735
0.001415556
0.0014453304
0.0014729841
0.0014986785
0.001522555
0.001544737
0.0015653326
0.0015844374
0.0016021361
0.0016185036
0.0016336053
0.0016474985
0.0016602337
0.0016718567
0.0016824087
0.0016919271
0.0017004444
0.0017079914
0.0017145937
0.0017202686
0.0017250331
0.0017289037
0.0017318943
0.0017340156
0.0017352762
0.001735685
0.0017352453
0.0017339631
0.001731843
0.0017288763
0.001725058
0.0017203868
0.0017148569
0.0017084592
0.0017011831
0.0016930176
0.0016839506
0.0016739714
0.0016630569
0.0016511751
0.0016383036
0.0016244192
0.0016094919
0.0015934871
0.0015763672
0.0015580931
0.0015386218
0.0015178924
0.0014958362
0.0014723912
0.0014474871
0.0014210393
0.0013929509
0.0013631162
0.0013314135
0.0012976858
0.0012617503
0.0012233985
0.0011823681
0.0011382904
0.0010907283
0.0010384385
0.00098330935
0.00093007927
0.00087961371
0.00083058459
0.00078233242
0.00073464817
0.00068742321
0.00064059032
0.00059413944
0.00054811236
0.00050257924
0.00045763307
0.00041339158
0.00037001151
0.0003276972
0.00028676314
0.00024756017
0.00021100087
0.00017725142
0.00015203468
0.00012586417
0.00019333675
-0.00013895241
0.0082155948
0.0082955157
0.0084665538
0.008689788
0.0089615426
0.0092814181
0.0096488678
0.010064196
0.010529118
0.011046871
0.011622296
0.012262152
0.012975641
0.013775567
0.014679413
0.01571355
0.016912717
0.018343304
0.020070668
0.022338143
0.0251554
0.029964381
0.034889348
0.072794928
0.04335295
-0.0067519371
-0.0061467825
-0.0034998595
-0.0025062379
-0.0017272145
-0.0011201125
-0.00068479739
-0.00035322508
-9.1629185e-05
0.00011915243
0.00029383651
0.00044187352
0.00056911322
0.00067960191
0.00077647952
0.00086230116
0.00093899384
0.0010080297
0.0010705566
0.0011274711
0.0011794884
0.0012271929
0.0012710698
0.0013115267
0.00134891
0.0013835149
0.0014155944
0.0014453662
0.0014730173
0.0014987096
0.001522584
0.0015447642
0.0015653581
0.0015844614
0.0016021587
0.0016185248
0.0016336253
0.0016475174
0.0016602516
0.0016718736
0.0016824248
0.0016919423
0.0017004588
0.0017080051
0.0017146067
0.001720281
0.0017250448
0.0017289149
0.001731905
0.0017340258
0.0017352859
0.0017356942
0.0017352541
0.0017339716
0.0017318511
0.001728884
0.0017250654
0.0017203938
0.0017148637
0.0017084656
0.0017011892
0.0016930235
0.0016839562
0.0016739767
0.001663062
0.00165118
0.0016383082
0.0016244236
0.0016094961
0.0015934911
0.001576371
0.0015580968
0.0015386252
0.0015178957
0.0014958393
0.0014723941
0.0014474899
0.0014210419
0.0013929534
0.0013631186
0.0013314157
0.0012976879
0.0012617523
0.0012234004
0.0011823698
0.001138292
0.0010907298
0.0010384399
0.00098331055
0.00093008033
0.00087961466
0.00083058545
0.0007823332
0.00073464888
0.00068742386
0.00064059093
0.00059414
0.00054811288
0.00050257973
0.00045763353
0.00041339201
0.00037001192
0.00032769758
0.0002867635
0.00024756051
0.0002110012
0.00017725173
0.00015203499
0.00012586446
0.00019333708
-0.00013895221
0.0082155949
0.008295516
0.0084665542
0.0086897886
0.0089615433
0.009281419
0.0096488689
0.010064198
0.01052912
0.011046873
0.0116223
0.012262156
0.012975647
0.013775576
0.014679425
0.015713567
0.01691274
0.018343339
0.020070716
0.022338228
0.025155517
0.02996463
0.034889486
0.072764449
0.043388567
-0.0067338378
-0.006141695
-0.0034976566
-0.0025049899
-0.0017263546
-0.0011194718
-0.00068429904
-0.00035282502
-9.1300541e-05
0.00011942751
0.0002940703
0.0004420747
0.00056928811
0.0006797553
0.00077661509
0.00086242179
0.00093910183
0.0010081269
0.0010706445
0.0011275509
0.0011795611
0.0012272595
0.0012711309
0.0013115829