/*--------------------------------*- C++ -*----------------------------------*\
| =========                 |                                                 |
| \\      /  F ield         | OpenFOAM: The Open Source CFD Toolbox           |
|  \\    /   O peration     | Version:  2206                                  |
|   \\  /    A nd           | Website:  www.openfoam.com                      |
|    \\/     M anipulation  |                                                 |
\*---------------------------------------------------------------------------*/
FoamFile
{
    version     2.0;
    format      ascii;
    arch        "LSB;label=32;scalar=64";
    class       surfaceScalarField;
    location    "100";
    object      phi;
}
// * * * * * * * * * * * * * * * * * * * * * * * * * * * * * * * * * * * * * //

dimensions      [0 3 -1 0 0 0 0];

oriented        oriented;

internalField   nonuniform List<scalar> 
25880
(
2.0046527e-06
1.4018959e-12
2.0046497e-06
3.0127982e-12
2.0046462e-06
3.5323636e-12
2.0046422e-06
3.9774574e-12
2.0046376e-06
4.5926553e-12
2.0046322e-06
5.3823859e-12
2.0046259e-06
6.3647199e-12
2.0046183e-06
7.5732707e-12
2.0046092e-06
9.0613055e-12
2.0045983e-06
1.0904807e-11
2.0045851e-06
1.3207926e-11
2.004569e-06
1.6121085e-11
2.0045492e-06
1.9856583e-11
2.0045244e-06
2.4773356e-11
2.0044931e-06
3.1330059e-11
2.0044524e-06
4.0696043e-11
2.0043988e-06
5.3571323e-11
2.0043228e-06
7.601787e-11
2.0042188e-06
1.0397591e-10
2.0040359e-06
1.8284997e-10
2.0038003e-06
2.3567657e-10
2.003196e-06
6.0428611e-10
2.0030695e-06
1.264838e-10
1.0054139e-06
9.9765564e-07
5.2984184e-09
1.0001154e-06
3.3550766e-09
1.9433418e-09
3.0121891e-09
3.428875e-10
2.8707423e-09
1.4144679e-10
2.7915754e-09
7.9166922e-11
2.7366871e-09
5.4888323e-11
2.6955335e-09
4.1153591e-11
2.6633668e-09
3.2166639e-11
2.6374386e-09
2.5928195e-11
2.6160556e-09
2.1383e-11
2.5980807e-09
1.7974932e-11
2.5827281e-09
1.5352601e-11
2.5694441e-09
1.3283957e-11
2.5578252e-09
1.1618956e-11
2.5475671e-09
1.0258083e-11
2.5384354e-09
9.1317309e-12
2.5302465e-09
8.1888341e-12
2.5228552e-09
7.3913693e-12
2.5161444e-09
6.7107959e-12
2.5100191e-09
6.1252943e-12
2.5044011e-09
5.6179507e-12
2.4992256e-09
5.1754922e-12
2.4944383e-09
4.7873715e-12
2.4899931e-09
4.4451154e-12
2.4858513e-09
4.1418511e-12
2.4819793e-09
3.8719538e-12
2.4783486e-09
3.6307828e-12
2.4749341e-09
3.4144801e-12
2.4717143e-09
3.2198184e-12
2.4686702e-09
3.0440782e-12
2.4657852e-09
2.8849559e-12
2.4630447e-09
2.7404899e-12
2.4604357e-09
2.6090007e-12
2.4579467e-09
2.4890433e-12
2.4555673e-09
2.3793689e-12
2.4532884e-09
2.2788933e-12
2.4511018e-09
2.1866711e-12
2.4489999e-09
2.1018749e-12
2.4469761e-09
2.0237779e-12
2.4450244e-09
1.9517397e-12
2.4431392e-09
1.8851936e-12
2.4413155e-09
1.8236378e-12
2.4395489e-09
1.7666256e-12
2.4378351e-09
1.7137572e-12
2.4361705e-09
1.6646739e-12
2.4345514e-09
1.6190562e-12
2.4329748e-09
1.5766179e-12
2.4314377e-09
1.5371002e-12
2.4299374e-09
1.5002674e-12
2.4284715e-09
1.4659063e-12
2.4270377e-09
1.4338232e-12
2.4256339e-09
1.403821e-12
2.4242581e-09
1.3758051e-12
2.4229085e-09
1.3495793e-12
2.4215835e-09
1.3249784e-12
2.4202816e-09
1.3019391e-12
2.4190013e-09
1.2803085e-12
2.4177413e-09
1.2600012e-12
2.4165003e-09
1.2409225e-12
2.4152774e-09
1.2229816e-12
2.4140713e-09
1.2060775e-12
2.4128811e-09
1.1901805e-12
2.4117059e-09
1.1752045e-12
2.4105449e-09
1.1609959e-12
2.4093973e-09
1.1475641e-12
2.4082625e-09
1.1348785e-12
2.4071396e-09
1.122842e-12
2.4060282e-09
1.1114169e-12
2.4049276e-09
1.1005574e-12
2.4038374e-09
1.0902136e-12
2.4027571e-09
1.0803394e-12
2.4016862e-09
1.0708948e-12
2.4006244e-09
1.061841e-12
2.3995712e-09
1.0531362e-12
2.3985265e-09
1.0447396e-12
2.3974899e-09
1.0366185e-12
2.3964611e-09
1.0287446e-12
2.39544e-09
1.0210848e-12
2.3944264e-09
1.0136018e-12
2.3934202e-09
1.0062605e-12
2.3924211e-09
9.9902523e-13
2.3914293e-09
9.9185248e-13
2.3904446e-09
9.8469102e-13
2.3894671e-09
9.7748733e-13
2.388497e-09
9.7013226e-13
2.3875344e-09
9.6255751e-13
2.3865808e-09
9.5363368e-13
2.3856344e-09
9.4635479e-13
2.3847192e-09
9.1520293e-13
2.3839075e-09
8.1176926e-13
2.3832074e-09
7.0010871e-13
2.382592e-09
6.1537724e-13
2.3820437e-09
5.4829124e-13
2.3815499e-09
4.9382836e-13
2.3811015e-09
4.4839075e-13
2.3806919e-09
4.0959773e-13
2.3803159e-09
3.7596304e-13
2.3799694e-09
3.4650135e-13
2.3796489e-09
3.2049578e-13
2.3793515e-09
2.9739621e-13
2.3790747e-09
2.7677521e-13
2.3788164e-09
2.5829743e-13
2.3785747e-09
2.417079e-13
2.3783479e-09
2.2679247e-13
2.3781345e-09
2.1349159e-13
2.3779329e-09
2.0153739e-13
2.3777409e-09
1.9204373e-13
2.3775587e-09
1.8220503e-13
2.377373e-09
1.8570821e-13
2.3772004e-09
1.7250922e-13
2.3770118e-09
1.8864021e-13
1.1799453e-13
2.0345265e-06
2.9256374e-12
2.0345233e-06
6.2939323e-12
2.0345194e-06
7.3841957e-12
2.0345151e-06
8.3145144e-12
2.0345101e-06
9.6000754e-12
2.0345042e-06
1.1247875e-11
2.0344973e-06
1.3294923e-11
2.034489e-06
1.5811344e-11
2.0344792e-06
1.8907871e-11
2.0344673e-06
2.2742081e-11
2.034453e-06
2.752977e-11
2.0344356e-06
3.3582586e-11
2.0344141e-06
4.1340071e-11
2.0343873e-06
5.1545906e-11
2.0343535e-06
6.5147975e-11
2.0343096e-06
8.4569943e-11
2.0342519e-06
1.1124622e-10
2.0341702e-06
1.5774169e-10
2.0340586e-06
2.1556509e-10
2.0338628e-06
3.7871063e-10
2.0336103e-06
4.8811356e-10
2.032964e-06
1.2506376e-09
2.0328293e-06
2.6113739e-10
1.0274547e-06
2.0030303e-06
1.6161275e-08
2.0114089e-06
1.0250321e-08
7.8542957e-09
9.2000407e-09
1.3931678e-09
8.7663404e-09
5.7514713e-10
8.5235761e-09
3.2193124e-10
8.3552671e-09
2.2319731e-10
8.2290668e-09
1.6735392e-10
8.1304219e-09
1.3081153e-10
8.0509045e-09
1.0544556e-10
7.9853228e-09
8.6964709e-11
7.9301907e-09
7.3107059e-11
7.8830991e-09
6.244412e-11
7.8423507e-09
5.4032429e-11
7.8067077e-09
4.7261885e-11
7.775238e-09
4.1727874e-11
7.7472223e-09
3.7147382e-11
7.7220983e-09
3.3312817e-11
7.6994201e-09
3.0069595e-11
7.6788292e-09
2.7301675e-11
7.6600342e-09
2.4920345e-11
7.6427953e-09
2.2856833e-11
7.6269136e-09
2.1057174e-11
7.6122225e-09
1.947848e-11
7.5985813e-09
1.80863e-11
7.5858705e-09
1.6852687e-11
7.5739877e-09
1.5754772e-11
7.5628448e-09
1.4773682e-11
7.5523655e-09
1.3893731e-11
7.5424835e-09
1.3101795e-11
7.5331408e-09
1.2386817e-11
7.5242863e-09
1.1739426e-11
7.5158752e-09
1.1151648e-11
7.5078675e-09
1.0616652e-11
7.500228e-09
1.0128561e-11
7.4929251e-09
9.6822982e-12
7.4859305e-09
9.2734524e-12
7.479219e-09
8.8981801e-12
7.4727678e-09
8.5531158e-12
7.4665562e-09
8.2353042e-12
7.4605658e-09
7.9421397e-12
7.4547797e-09
7.6713185e-12
7.4491825e-09
7.4207989e-12
7.4437604e-09
7.1887647e-12
7.4385006e-09
6.9735894e-12
7.4333914e-09
6.7738145e-12
7.4284223e-09
6.58814e-12
7.4235836e-09
6.4154023e-12
7.4188661e-09
6.254548e-12
7.4142618e-09
6.1046196e-12
7.4097629e-09
5.9647488e-12
7.4053626e-09
5.8341481e-12
7.4010544e-09
5.7120195e-12
7.3968322e-09
5.5979637e-12
7.3926906e-09
5.4912007e-12
7.3886245e-09
5.3910594e-12
7.3846292e-09
5.2972622e-12
7.3807003e-09
5.209203e-12
7.3768338e-09
5.1265306e-12
7.3730258e-09
5.0488599e-12
7.369273e-09
4.9758214e-12
7.3655721e-09
4.9070049e-12
7.36192e-09
4.8422882e-12
7.3583139e-09
4.7813214e-12
7.3547514e-09
4.7234817e-12
7.3512301e-09
4.6688056e-12
7.3477478e-09
4.6171687e-12
7.3443025e-09
4.5681757e-12
7.3408922e-09
4.5216741e-12
7.3375153e-09
4.4774772e-12
7.3341702e-09
4.4353822e-12
7.3308553e-09
4.3952015e-12
7.3275694e-09
4.3567722e-12
7.3243113e-09
4.3199367e-12
7.3210799e-09
4.2845254e-12
7.3178743e-09
4.2503717e-12
7.3146936e-09
4.2173427e-12
7.311537e-09
4.1853237e-12
7.3084039e-09
4.1541798e-12
7.3052937e-09
4.1237594e-12
7.3022061e-09
4.0939196e-12
7.2991406e-09
4.0645155e-12
7.2960971e-09
4.0353702e-12
7.2930755e-09
4.0062754e-12
7.290076e-09
3.9770135e-12
7.287099e-09
3.9471409e-12
7.2841451e-09
3.9163802e-12
7.2812186e-09
3.8801444e-12
7.2783144e-09
3.8505885e-12
7.2755054e-09
3.7242031e-12
7.2730131e-09
3.304071e-12
7.270863e-09
2.8502487e-12
7.2689726e-09
2.5057023e-12
7.2672881e-09
2.2328148e-12
7.2657707e-09
2.0112211e-12
7.2643928e-09
1.8263174e-12
7.2631339e-09
1.668433e-12
7.2619784e-09
1.5315283e-12
7.2609133e-09
1.4115983e-12
7.2599281e-09
1.3057289e-12
7.2590138e-09
1.2116833e-12
7.2581628e-09
1.1277232e-12
7.2573686e-09
1.0524847e-12
7.2566254e-09
9.8493072e-13
7.255928e-09
9.2418981e-13
7.2552715e-09
8.7001992e-13
7.2546517e-09
8.2132951e-13
7.2540611e-09
7.8265316e-13
7.2535007e-09
7.4255644e-13
7.2529297e-09
7.5676406e-13
7.2523996e-09
7.0258306e-13
7.2518175e-09
7.7071922e-13
4.7825427e-13
2.0947194e-06
4.609931e-12
2.0947158e-06
9.9284221e-12
2.0947115e-06
1.1656662e-11
2.0947067e-06
1.3125088e-11
2.0947011e-06
1.5153633e-11
2.0946946e-06
1.77498e-11
2.094687e-06
2.0970757e-11
2.0946778e-06
2.4926956e-11
2.094667e-06
2.9792181e-11
2.0946539e-06
3.581314e-11
2.0946381e-06
4.3327353e-11
2.0946188e-06
5.2822245e-11
2.0945952e-06
6.4984751e-11
2.0945658e-06
8.0978038e-11
2.0945286e-06
1.022807e-10
2.0944805e-06
1.3268501e-10
2.0944174e-06
1.7440808e-10
2.094328e-06
2.4711165e-10
2.0942062e-06
3.3738035e-10
2.0939928e-06
5.9211203e-10
2.0937178e-06
7.6311085e-10
2.0930145e-06
1.9538785e-09
2.0928697e-06
4.0600506e-10
1.0652292e-06
3.0306707e-06
2.7925011e-08
3.0487131e-06
1.7725906e-08
1.8053401e-08
1.5902847e-08
3.2162262e-09
1.5149271e-08
1.3287234e-09
1.4727347e-08
7.4385543e-10
1.4434813e-08
5.1573075e-10
1.4215455e-08
3.8671229e-10
1.4043982e-08
3.0228453e-10
1.3905747e-08
2.4368043e-10
1.3791728e-08
2.009837e-10
1.3695868e-08
1.6896698e-10
1.3613982e-08
1.4433037e-10
1.354312e-08
1.2489452e-10
1.3481132e-08
1.0925003e-10
1.3426397e-08
9.6462213e-11
1.3377667e-08
8.5877304e-11
1.3333964e-08
7.7015778e-11
1.3294513e-08
6.9520523e-11
1.3258692e-08
6.3123465e-11
1.3225992e-08
5.7619652e-11
1.3195999e-08
5.2850206e-11
1.3168366e-08
4.8690444e-11
1.3142803e-08
4.5041284e-11
1.3119066e-08
4.1823126e-11
1.3096947e-08
3.8971404e-11
1.3076269e-08
3.6433273e-11
1.3056877e-08
3.4165132e-11
1.303864e-08
3.2130733e-11
1.3021442e-08
3.0299753e-11
1.3005183e-08
2.8646638e-11
1.2989772e-08
2.714974e-11
1.2975133e-08
2.5790628e-11
1.2961196e-08
2.4553517e-11
1.29479e-08
2.3424829e-11
1.293519e-08
2.2392827e-11
1.2923016e-08
2.1447321e-11
1.2911335e-08
2.0579426e-11
1.2900106e-08
1.9781365e-11
1.2889295e-08
1.9046308e-11
1.2878869e-08
1.8368232e-11
1.2868799e-08
1.7741814e-11
1.2859057e-08
1.7162334e-11
1.284962e-08
1.6625594e-11
1.2840466e-08
1.6127836e-11
1.2831574e-08
1.5665688e-11
1.2822926e-08
1.5236146e-11
1.2814505e-08
1.4836519e-11
1.2806295e-08
1.4464373e-11
1.2798282e-08
1.4117495e-11
1.2790453e-08
1.3793878e-11
1.2782796e-08
1.3491701e-11
1.2775299e-08
1.3209125e-11
1.2767951e-08
1.2945206e-11
1.2760744e-08
1.2698168e-11
1.2753669e-08
1.2466459e-11
1.2746717e-08
1.224941e-11
1.273988e-08
1.2045642e-11
1.2733153e-08
1.1854338e-11
1.2726527e-08
1.1674608e-11
1.2719997e-08
1.1505597e-11
1.2713558e-08
1.1346358e-11
1.2707203e-08
1.1196606e-11
1.2700929e-08
1.1055533e-11
1.2694731e-08
1.0921705e-11
1.2688605e-08
1.0795201e-11
1.2682546e-08
1.0675732e-11
1.2676552e-08
1.0562387e-11
1.2670619e-08
1.0454812e-11
1.2664744e-08
1.0352577e-11
1.2658924e-08
1.0255213e-11
1.2653157e-08
1.0162285e-11
1.264744e-08
1.0073418e-11
1.2641772e-08
9.9882468e-12
1.263615e-08
9.9063801e-12
1.2630573e-08
9.8274322e-12
1.2625039e-08
9.7510959e-12
1.2619547e-08
9.6771067e-12
1.2614096e-08
9.6051525e-12
1.2608685e-08
9.5348829e-12
1.2603313e-08
9.4659678e-12
1.259798e-08
9.3980721e-12
1.2592684e-08
9.3307874e-12
1.2587427e-08
9.2636321e-12
1.2582208e-08
9.1961033e-12
1.2577028e-08
9.1271773e-12
1.2571888e-08
9.0562125e-12
1.2566795e-08
8.9726253e-12
1.2561742e-08
8.9044368e-12
1.2556852e-08
8.6132407e-12
1.2552513e-08
7.6438062e-12
1.2548767e-08
6.5958025e-12
1.2545473e-08
5.7996346e-12
1.2542537e-08
5.1687924e-12
1.2539892e-08
4.6563799e-12
1.253749e-08
4.2287204e-12
1.2535295e-08
3.863496e-12
1.2533279e-08
3.5467622e-12
1.2531422e-08
3.2692701e-12
1.2529703e-08
3.024288e-12
1.2528108e-08
2.8066473e-12
1.2526624e-08
2.6123313e-12
1.2525238e-08
2.4381874e-12
1.2523941e-08
2.2818184e-12
1.2522724e-08
2.1412097e-12
1.2521578e-08
2.015802e-12
1.2520496e-08
1.9030689e-12
1.2519466e-08
1.8135018e-12
1.2518488e-08
1.720624e-12
1.2517491e-08
1.7533556e-12
1.2516566e-08
1.6272502e-12
1.2515548e-08
1.7889152e-12
1.1043907e-12
2.1861283e-06
6.5027348e-12
2.1861242e-06
1.4021848e-11
2.1861194e-06
1.6475604e-11
2.186114e-06
1.8550914e-11
2.1861077e-06
2.1416766e-11
2.1861004e-06
2.5078764e-11
2.1860918e-06
2.9615864e-11
2.1860815e-06
3.5183786e-11
2.1860693e-06
4.2026657e-11
2.1860546e-06
5.0490174e-11
2.1860369e-06
6.1046798e-11
2.1860153e-06
7.4378784e-11
2.1859888e-06
9.1446889e-11
2.1859559e-06
1.1387928e-10
2.1859145e-06
1.4373979e-10
2.1858608e-06
1.8633893e-10
2.1857905e-06
2.4474128e-10
2.1856911e-06
3.4648246e-10
2.1855559e-06
4.725861e-10
2.1853195e-06
8.2850585e-10
2.185015e-06
1.0676888e-09
2.1842371e-06
2.7317533e-09
2.1840784e-06
5.6465615e-10
1.1196312e-06
4.0951179e-06
4.1266805e-08
4.1270775e-06
2.620224e-08
3.3117966e-08
2.349251e-08
5.9259558e-09
2.2370984e-08
2.4502498e-09
2.1742789e-08
1.3720499e-09
2.1307209e-08
9.5131085e-10
2.0980562e-08
7.1335975e-10
2.0725194e-08
5.5765203e-10
2.0519301e-08
4.4957351e-10
2.0349453e-08
3.708315e-10
2.0206637e-08
3.1178299e-10
2.0084625e-08
2.6634298e-10
1.9979026e-08
2.3049325e-10
1.9886641e-08
2.0163505e-10
1.9805058e-08
1.7804493e-10
1.9732418e-08
1.5851746e-10
1.9667265e-08
1.4216844e-10
1.9608447e-08
1.2833936e-10
1.9555034e-08
1.1653585e-10
1.9506274e-08
1.0637996e-10
1.9461545e-08
9.757868e-11
1.9420334e-08
8.9902067e-11
1.9382208e-08
8.3167385e-11
1.9346803e-08
7.7227825e-11
1.931381e-08
7.19643e-11
1.9282964e-08
6.7279342e-11
1.9254037e-08
6.3092524e-11
1.922683e-08
5.9336987e-11
1.9201173e-08
5.5956794e-11
1.9176915e-08
5.2904807e-11
1.9153924e-08
5.0141091e-11
1.9132083e-08
4.7631644e-11
1.9111289e-08
4.5347346e-11
1.9091451e-08
4.3263147e-11
1.9072486e-08
4.1357392e-11
1.9054322e-08
3.9611279e-11
1.9036893e-08
3.8008419e-11
1.902014e-08
3.6534459e-11
1.900401e-08
3.5176799e-11
1.8988453e-08
3.3924325e-11
1.8973428e-08
3.2767212e-11
1.8958894e-08
3.1696754e-11
1.8944814e-08
3.0705206e-11
1.8931156e-08
2.9785628e-11
1.891789e-08
2.89318e-11
1.8904988e-08
2.8138178e-11
1.8892425e-08
2.7399798e-11
1.8880177e-08
2.6712165e-11
1.8868223e-08
2.6071197e-11
1.8856544e-08
2.5473188e-11
1.8845121e-08
2.491478e-11
1.8833937e-08
2.4392584e-11
1.8822978e-08
2.3904827e-11
1.8812228e-08
2.3448273e-11
1.8801674e-08
2.3020061e-11
1.8791305e-08
2.2618905e-11
1.8781108e-08
2.2242298e-11
1.8771074e-08
2.1888724e-11
1.8761192e-08
2.1556541e-11
1.8751453e-08
2.1244172e-11
1.874185e-08
2.094987e-11
1.8732373e-08
2.06731e-11
1.8723016e-08
2.0412377e-11
1.8713773e-08
2.0165065e-11
1.8704637e-08
1.9931298e-11
1.8695602e-08
1.9710538e-11
1.8686663e-08
1.9501111e-11
1.8677816e-08
1.9302364e-11
1.8669055e-08
1.9113502e-11
1.8660376e-08
1.8933657e-11
1.8651777e-08
1.8762031e-11
1.8643252e-08
1.8597928e-11
1.86348e-08
1.8440677e-11
1.8626416e-08
1.8289553e-11
1.86181e-08
1.8143846e-11
1.8609848e-08
1.8002989e-11
1.8601659e-08
1.7866494e-11
1.859353e-08
1.7733785e-11
1.8585461e-08
1.7604216e-11
1.857745e-08
1.7477176e-11
1.8569496e-08
1.7352049e-11
1.8561598e-08
1.722808e-11
1.8553758e-08
1.710438e-11
1.8545974e-08
1.6980024e-11
1.8538248e-08
1.6853124e-11
1.8530581e-08
1.6722494e-11
1.8522985e-08
1.656865e-11
1.8515447e-08
1.6443115e-11
1.8508152e-08
1.5908048e-11
1.8501673e-08
1.4123145e-11
1.8496077e-08
1.2191486e-11
1.8491154e-08
1.0722715e-11
1.8486764e-08
9.5583007e-12
1.8482809e-08
8.6121073e-12
1.8479215e-08
7.8222036e-12
1.8475931e-08
7.1474783e-12
1.8472916e-08
6.5622369e-12
1.8470135e-08
6.04943e-12
1.8467563e-08
5.5966448e-12
1.8465175e-08
5.1943474e-12
1.8462953e-08
4.8351272e-12
1.8460878e-08
4.5131665e-12
1.8458935e-08
4.2240416e-12
1.8457113e-08
3.9640336e-12
1.8455396e-08
3.7321121e-12
1.8453776e-08
3.5236101e-12
1.8452231e-08
3.3579095e-12
1.8450766e-08
3.1860743e-12
1.8449273e-08
3.2461955e-12
1.8447888e-08
3.0121763e-12
1.8446361e-08
3.3162107e-12
2.0411815e-12
2.3101155e-06
8.6638199e-12
2.3101108e-06
1.8706227e-11
2.3101053e-06
2.1998712e-11
2.3100991e-06
2.4769599e-11
2.3100919e-06
2.8594253e-11
2.3100835e-06
3.3473412e-11
2.3100736e-06
3.9509926e-11
2.3100619e-06
4.6911139e-11
2.3100479e-06
5.6000908e-11
2.3100312e-06
6.7236622e-11
2.310011e-06
8.1242714e-11
2.3099864e-06
9.8920827e-11
2.3099563e-06
1.2153961e-10
2.309919e-06
1.5125087e-10
2.3098719e-06
1.9077404e-10
2.3098112e-06
2.4713055e-10
2.3097316e-06
3.243164e-10
2.3096193e-06
4.5874174e-10
2.3094669e-06
6.2505191e-10
2.3092008e-06
1.0945357e-09
2.3088581e-06
1.4104015e-09
2.307984e-06
3.6058452e-09
2.3078073e-06
7.4138906e-10
1.1918409e-06
5.2110843e-06
5.6947092e-08
5.2619713e-06
3.6151664e-08
5.3913394e-08
3.2385415e-08
9.6922054e-09
3.0824105e-08
4.0115593e-09
2.9949121e-08
2.2470343e-09
2.9342344e-08
1.5580869e-09
2.8887272e-08
1.168432e-09
2.8531454e-08
9.1347e-10
2.8244523e-08
7.3650512e-10
2.8007781e-08
6.0757364e-10
2.7808681e-08
5.1088209e-10
2.7638556e-08
4.3646851e-10
2.7491294e-08
3.7775552e-10
2.7362439e-08
3.3048925e-10
2.7248636e-08
2.9184843e-10
2.7147294e-08
2.5985984e-10
2.7056386e-08
2.3307602e-10
2.6974307e-08
2.1041885e-10
2.6899763e-08
1.9107893e-10
2.6831706e-08
1.7443743e-10
2.676927e-08
1.6001459e-10
2.6711738e-08
1.4743389e-10
2.665851e-08
1.3639609e-10
2.6609077e-08
1.266608e-10
2.6563008e-08
1.1803299e-10
2.6519934e-08
1.1035303e-10
2.6479537e-08
1.0348921e-10
2.6441542e-08
9.7332028e-11
2.6405709e-08
9.1789856e-11
2.6371829e-08
8.6785488e-11
2.6339716e-08
8.2253507e-11
2.630921e-08
7.8138217e-11
2.6280165e-08
7.4391914e-11
2.6252455e-08
7.0973561e-11
2.6225964e-08
6.7847682e-11
2.6200592e-08
6.4983474e-11
2.6176247e-08
6.2354084e-11
2.6152845e-08
5.9935998e-11
2.6130313e-08
5.7708568e-11
2.6108584e-08
5.5653586e-11
2.6087596e-08
5.3754951e-11
2.6067295e-08
5.1998399e-11
2.6047629e-08
5.0371237e-11
2.6028552e-08
4.8862093e-11
2.6010023e-08
4.7460775e-11
2.5992003e-08
4.6158196e-11
2.5974457e-08
4.494622e-11
2.5957351e-08
4.3817483e-11
2.5940657e-08
4.2765292e-11
2.5924347e-08
4.1783577e-11
2.5908395e-08
4.0866831e-11
2.5892778e-08
4.0009511e-11
2.5877474e-08
3.9208662e-11
2.5862463e-08
3.8459051e-11
2.5847727e-08
3.7755982e-11
2.5833249e-08
3.7097276e-11
2.5819012e-08
3.6478882e-11
2.5805003e-08
3.5898303e-11
2.5791207e-08
3.5352848e-11
2.5777611e-08
3.4839931e-11
2.5764204e-08
3.4356691e-11
2.5750975e-08
3.3902241e-11
2.5737913e-08
3.347415e-11
2.572501e-08
3.3068122e-11
2.5712257e-08
3.2684357e-11
2.5699646e-08
3.2321959e-11
2.5687168e-08
3.1978199e-11
2.5674819e-08
3.1652009e-11
2.566259e-08
3.1342082e-11
2.5650477e-08
3.1046997e-11
2.5638473e-08
3.0765444e-11
2.5626575e-08
3.0496285e-11
2.5614777e-08
3.0238419e-11
2.5603076e-08
2.999066e-11
2.5591468e-08
2.9751839e-11
2.557995e-08
2.9521031e-11
2.5568519e-08
2.9297437e-11
2.5557173e-08
2.9080111e-11
2.5545909e-08
2.8867994e-11
2.5534726e-08
2.8660089e-11
2.5523623e-08
2.8455382e-11
2.5512598e-08
2.8252639e-11
2.5501652e-08
2.8050403e-11
2.5490785e-08
2.7847157e-11
2.5479999e-08
2.7639815e-11
2.5469295e-08
2.742643e-11
2.5458688e-08
2.7175165e-11
2.5448161e-08
2.6970064e-11
2.5437971e-08
2.6098082e-11
2.5428913e-08
2.3181662e-11
2.5421083e-08
2.0020985e-11
2.5414191e-08
1.7614954e-11
2.5408043e-08
1.5706119e-11
2.5402501e-08
1.4154286e-11
2.5397465e-08
1.2858307e-11
2.5392861e-08
1.1751e-11
2.5388633e-08
1.0790339e-11
2.5384734e-08
9.948422e-12
2.5381126e-08
9.2049276e-12
2.5377776e-08
8.5442407e-12
2.5374657e-08
7.9542201e-12
2.5371745e-08
7.4253332e-12
2.5369018e-08
6.9503306e-12
2.5366459e-08
6.5231165e-12
2.5364049e-08
6.1420058e-12
2.5361774e-08
5.7993437e-12
2.5359605e-08
5.5269401e-12
2.5357546e-08
5.2444598e-12
2.535545e-08
5.3424333e-12
2.5353505e-08
4.9568629e-12
2.5351358e-08
5.4632717e-12
3.3564462e-12
2.4685287e-06
1.1168177e-11
2.4685232e-06
2.4147738e-11
2.4685168e-06
2.8424917e-11
2.4685096e-06
3.2005219e-11
2.4685012e-06
3.69444e-11
2.4684915e-06
4.3234583e-11
2.46848e-06
5.1005156e-11
2.4684663e-06
6.0523212e-11
2.4684501e-06
7.2204337e-11
2.4684307e-06
8.6633827e-11
2.4684074e-06
1.0460982e-10
2.468379e-06
1.2728468e-10
2.4683443e-06
1.562784e-10
2.4683012e-06
1.943412e-10
2.468247e-06
2.4493781e-10
2.4681771e-06
3.1704634e-10
2.4680857e-06
4.1570083e-10
2.467957e-06
5.8746191e-10
2.4677825e-06
7.9955279e-10
2.4674787e-06
1.398373e-09
2.4670873e-06
1.8017701e-09
2.4660905e-06
4.6026545e-09
2.4658904e-06
9.4143161e-10
1.2833629e-06
6.3936118e-06
7.5851243e-08
6.469483e-06
4.8122777e-08
8.1641861e-08
4.3063024e-08
1.4751958e-08
4.0961419e-08
6.113164e-09
3.9782905e-08
3.4255484e-09
3.8965496e-08
2.3754959e-09
3.8352384e-08
1.7815442e-09
3.787291e-08
1.3929435e-09
3.7486179e-08
1.1232365e-09
3.7167021e-08
9.2673173e-10
3.6898551e-08
7.793522e-10
3.6669101e-08
6.6591781e-10
3.6470449e-08
5.7640791e-10
3.6296597e-08
5.0434173e-10
3.6143024e-08
4.4542087e-10
3.6006245e-08
3.9663895e-10
3.5883531e-08
3.5579043e-10
3.5772717e-08
3.2123239e-10
3.5672065e-08
2.9173136e-10
3.5580158e-08
2.6634436e-10
3.5495833e-08
2.4433976e-10
3.5418122e-08
2.2514412e-10
3.5346217e-08
2.0830121e-10
3.5279433e-08
1.9344456e-10
3.521719e-08
1.8027688e-10
3.5158988e-08
1.6855485e-10
3.5104399e-08
1.5807763e-10
3.5053053e-08
1.4867829e-10
3.5004626e-08
1.4021711e-10
3.4958835e-08
1.3257637e-10
3.4915432e-08
1.2565633e-10
3.4874198e-08
1.1937204e-10
3.4834939e-08
1.1365076e-10
3.4797483e-08
1.0842991e-10
3.4761675e-08
1.0365539e-10
3.4727379e-08
9.9280198e-11
3.4694469e-08
9.5263392e-11
3.4662836e-08
9.1569103e-11
3.4632379e-08
8.8165832e-11
3.4603007e-08
8.5025804e-11
3.4574637e-08
8.2124459e-11
3.4547196e-08
7.9440035e-11
3.4520614e-08
7.6953168e-11
3.4494829e-08
7.4646509e-11
3.4469786e-08
7.2504504e-11
3.444543e-08
7.0513292e-11
3.4421716e-08
6.8660459e-11
3.4398599e-08
6.6934769e-11
3.4376038e-08
6.5326007e-11
3.4353997e-08
6.3824914e-11
3.4332441e-08
6.2423083e-11
3.4311338e-08
6.1112071e-11
3.4290659e-08
5.9887306e-11
3.4270378e-08
5.8740896e-11
3.4250468e-08
5.7665662e-11
3.4230907e-08
5.6658183e-11
3.4211673e-08
5.5712357e-11
3.4192747e-08
5.4824358e-11
3.417411e-08
5.3990082e-11
3.4155745e-08
5.3205576e-11
3.4137635e-08
5.2466483e-11
3.4119766e-08
5.1771424e-11
3.4102123e-08
5.1116699e-11
3.4084695e-08
5.0495805e-11
3.4067471e-08
4.9908995e-11
3.4050438e-08
4.9354884e-11
3.4033587e-08
4.882934e-11
3.4016908e-08
4.8330728e-11
3.4000393e-08
4.7857051e-11
3.3984034e-08
4.7406141e-11
3.3967823e-08
4.6975999e-11
3.3951755e-08
4.6564889e-11
3.3935822e-08
4.6171133e-11
3.392002e-08
4.5792915e-11
3.3904343e-08
4.5428457e-11
3.3888788e-08
4.5076347e-11
3.387335e-08
4.4735367e-11
3.3858026e-08
4.4404073e-11
3.3842813e-08
4.4080848e-11
3.3827709e-08
4.3764173e-11
3.3812712e-08
4.34525e-11
3.379782e-08
4.3143946e-11
3.3783035e-08
4.283629e-11
3.3768355e-08
4.252722e-11
3.3753782e-08
4.2212036e-11
3.3739321e-08
4.1887763e-11
3.372499e-08
4.1506e-11
3.3710766e-08
4.1194235e-11
3.3696991e-08
3.9873067e-11
3.3684733e-08
3.5439755e-11
3.3674127e-08
3.0626622e-11
3.3664785e-08
2.6957433e-11
3.3656447e-08
2.4043883e-11
3.3648928e-08
2.1673805e-11
3.3642092e-08
1.9693619e-11
3.3635842e-08
1.8001146e-11
3.36301e-08
1.6532418e-11
3.3624803e-08
1.5244943e-11
3.3619901e-08
1.410775e-11
3.3615348e-08
1.3097031e-11
3.3611108e-08
1.219427e-11
3.3607148e-08
1.1384923e-11
3.3603441e-08
1.0657932e-11
3.359996e-08
1.0003993e-11
3.3596681e-08
9.4205429e-12
3.3593585e-08
8.8958932e-12
3.3590633e-08
8.4786754e-12
3.3587831e-08
8.0460572e-12
3.3584979e-08
8.1945914e-12
3.3582333e-08
7.6029627e-12
3.3579409e-08
8.387786e-12
5.1467901e-12
2.6637284e-06
1.4110445e-11
2.663722e-06
3.0556784e-11
2.6637144e-06
3.6006663e-11
2.6637059e-06
4.0542148e-11
2.6636961e-06
4.6794974e-11
2.6636846e-06
5.4743781e-11
2.663671e-06
6.454779e-11
2.663655e-06
7.6544193e-11
2.6636359e-06
9.1255567e-11
2.6636132e-06
1.0941571e-10
2.6635857e-06
1.3202401e-10
2.6635525e-06
1.605233e-10
2.6635118e-06
1.9693998e-10
2.6634615e-06
2.4471755e-10
2.6633982e-06
3.081794e-10
2.6633167e-06
3.9857207e-10
2.6632103e-06
5.2210118e-10
2.6630607e-06
7.3709544e-10
2.6628582e-06
1.0020261e-09
2.6625064e-06
1.7501475e-09
2.6620533e-06
2.2548369e-09
2.660901e-06
5.7549786e-09
2.6606712e-06
1.171229e-09
1.3960712e-06
7.6582118e-06
9.9036801e-08
7.7665174e-06
6.2768468e-08
1.1791019e-07
5.6095471e-08
2.1424955e-08
5.3317482e-08
8.8911531e-09
5.1758536e-08
4.9844947e-09
5.0677017e-08
3.457015e-09
4.9865698e-08
2.5928626e-09
4.9231086e-08
2.0275557e-09
4.871909e-08
1.6352327e-09
4.8296439e-08
1.3493831e-09
4.7940817e-08
1.1349735e-09
4.7636808e-08
9.6992724e-10
4.7373541e-08
8.3967449e-10
4.714309e-08
7.3479262e-10
4.693948e-08
6.4903167e-10
4.6758098e-08
5.7802004e-10
4.6595339e-08
5.1855038e-10
4.6448338e-08
4.6823317e-10
4.6314795e-08
4.2527436e-10
4.6192837e-08
3.8830208e-10
4.6080924e-08
3.5625275e-10
4.5977777e-08
3.2829145e-10
4.5882323e-08
3.037547e-10
4.5793658e-08
2.8210931e-10
4.5711013e-08
2.6292273e-10
4.5633727e-08
2.4584086e-10
4.5561233e-08
2.3057148e-10
4.5493039e-08
2.1687161e-10
4.5428719e-08
2.0453795e-10
4.5367896e-08
1.9339913e-10
4.5310242e-08
1.8330998e-10
4.5255467e-08
1.7414686e-10
4.5203314e-08
1.6580386e-10
4.5153554e-08
1.5818987e-10
4.5105984e-08
1.5122614e-10
4.506042e-08
1.4484424e-10
4.5016698e-08
1.3898455e-10
4.4974673e-08
1.3359485e-10
4.4934209e-08
1.2862926e-10
4.4895188e-08
1.2404734e-10
4.4857499e-08
1.1981333e-10
4.4821043e-08
1.1589552e-10
4.4785731e-08
1.1226572e-10
4.4751479e-08
1.0889865e-10
4.4718211e-08
1.0577167e-10
4.468586e-08
1.0286458e-10
4.4654361e-08
1.001593e-10
4.4623657e-08
9.7639462e-11
4.4593692e-08
9.5290188e-11
4.4564419e-08
9.3097986e-11
4.4535792e-08
9.1050611e-11
4.4507768e-08
8.913577e-11
4.4480309e-08
8.7346744e-11
4.4453377e-08
8.5672146e-11
4.4426942e-08
8.4101486e-11
4.440097e-08
8.2629667e-11
4.4375435e-08
8.1247901e-11
4.4350308e-08
7.99506e-11
4.4325567e-08
7.8731778e-11
4.4301187e-08
7.7585675e-11
4.4277147e-08
7.6505954e-11
4.4253428e-08
7.5490563e-11
4.4230011e-08
7.4534129e-11
4.4206879e-08
7.3627266e-11
4.4184018e-08
7.2770256e-11
4.4161412e-08
7.1961047e-11
4.4139047e-08
7.1193677e-11
4.4116912e-08
7.0465756e-11
4.4094995e-08
6.9774371e-11
4.4073285e-08
6.9116362e-11
4.4051772e-08
6.8488817e-11
4.4030448e-08
6.7889209e-11
4.4009304e-08
6.7315093e-11
4.3988333e-08
6.6763823e-11
4.3967528e-08
6.6232806e-11
4.3946885e-08
6.571999e-11
4.3926397e-08
6.5223605e-11
4.3906059e-08
6.4741543e-11
4.3885868e-08
6.4271449e-11
4.3865822e-08
6.381111e-11
4.3845916e-08
6.3358276e-11
4.3826149e-08
6.2910199e-11
4.3806522e-08
6.2463647e-11
4.3787034e-08
6.2015261e-11
4.3767688e-08
6.1558207e-11
4.3748488e-08
6.1088141e-11
4.3729459e-08
6.0534871e-11
4.371057e-08
6.0082789e-11
4.3692269e-08
5.8174654e-11
4.3675962e-08
5.1745964e-11
4.3661837e-08
4.4751456e-11
4.3649385e-08
3.9410089e-11
4.3638265e-08
3.5164183e-11
4.3628231e-08
3.1707752e-11
4.3619106e-08
2.8818394e-11
4.3610759e-08
2.6347851e-11
4.3603088e-08
2.4203217e-11
4.3596011e-08
2.2322733e-11
4.3589457e-08
2.0661352e-11
4.358337e-08
1.9184424e-11
4.3577699e-08
1.786499e-11
4.3572402e-08
1.6681873e-11
4.3567441e-08
1.5618963e-11
4.3562782e-08
1.4662709e-11
4.3558393e-08
1.3809394e-11
4.3554247e-08
1.3041973e-11
4.3550294e-08
1.2431474e-11
4.3546542e-08
1.1798505e-11
4.3542723e-08
1.2013346e-11
4.353918e-08
1.1146173e-11
4.353526e-08
1.2307832e-11
7.545825e-12
2.8986238e-06
1.761064e-11
2.8986161e-06
3.8201075e-11
2.8986071e-06
4.5065887e-11
2.8985969e-06
5.0743091e-11
2.8985851e-06
5.8563942e-11
2.8985714e-06
6.8487238e-11
2.8985552e-06
8.0706062e-11
2.8985361e-06
9.5640889e-11
2.8985134e-06
1.1394066e-10
2.8984863e-06
1.3651374e-10
2.8984537e-06
1.6459561e-10
2.8984143e-06
1.9996979e-10
2.8983661e-06
2.4513859e-10
2.8983065e-06
3.0435868e-10
2.8982317e-06
3.8295502e-10
2.8981354e-06
4.9483652e-10
2.89801e-06
6.4754642e-10
2.8978338e-06
9.1322547e-10
2.897596e-06
1.239901e-09
2.8971836e-06
2.162496e-09
2.8966526e-06
2.7858732e-09
2.8953039e-06
7.1036711e-09
2.8950363e-06
1.4388649e-09
1.5322632e-06
9.0209849e-06
1.2778921e-07
9.1709913e-06
8.0879121e-08
1.6482029e-07
7.2169281e-08
3.0134795e-08
6.8533882e-08
1.2526552e-08
6.6492081e-08
7.0262961e-09
6.5075193e-08
4.8739031e-09
6.4012135e-08
3.6559202e-09
6.3180409e-08
2.8592823e-09
6.2509179e-08
2.3064622e-09
6.1954905e-08
1.9036573e-09
6.1488392e-08
1.6014867e-09
6.1089469e-08
1.3688501e-09
6.0743915e-08
1.185228e-09
6.0441357e-08
1.0373505e-09
6.0173974e-08
9.1641538e-10
5.9935728e-08
8.1626526e-10
5.9721897e-08
7.3238202e-10
5.9528731e-08
6.6139917e-10
5.9353216e-08
6.0078895e-10
5.91929e-08
5.4861838e-10
5.9045764e-08
5.033887e-10
5.8910132e-08
4.6392333e-10
5.87846e-08
4.2928718e-10
5.866798e-08
3.9872878e-10
5.8559264e-08
3.716384e-10
5.8457588e-08
3.4751689e-10
5.8362208e-08
3.2595228e-10
5.8272477e-08
3.0660199e-10
5.8187836e-08
2.8917937e-10
5.8107792e-08
2.7344278e-10
5.8031915e-08
2.5918749e-10
5.7959822e-08
2.4623914e-10
5.7891178e-08
2.3444836e-10
5.7825681e-08
2.2368666e-10
5.7763064e-08
2.1384292e-10
5.7703088e-08
2.0482065e-10
5.7645537e-08
1.9653572e-10
5.7590217e-08
1.8891447e-10
5.7536954e-08
1.8189216e-10
5.748559e-08
1.7541173e-10
5.743598e-08
1.6942272e-10
5.7387995e-08
1.638804e-10
5.7341516e-08
1.5874498e-10
5.7296434e-08
1.5398079e-10
5.725265e-08
1.4955585e-10
5.7210073e-08
1.4544168e-10
5.7168619e-08
1.4161274e-10
5.7128213e-08
1.3804594e-10
5.7088783e-08
1.3472029e-10
5.7050264e-08
1.3161672e-10
5.7012597e-08
1.2871796e-10
5.6975726e-08
1.2600666e-10
5.6939599e-08
1.2347328e-10
5.690417e-08
1.2110188e-10
5.6869393e-08
1.1887757e-10
5.683523e-08
1.1679306e-10
5.6801642e-08
1.1483604e-10
5.6768594e-08
1.1299863e-10
5.6736053e-08
1.1127236e-10
5.670399e-08
1.096491e-10
5.6672376e-08
1.0811992e-10
5.6641185e-08
1.0668185e-10
5.6610391e-08
1.0532733e-10
5.6579975e-08
1.0404326e-10
5.6549916e-08
1.028299e-10
5.6520193e-08
1.0168429e-10
5.6490788e-08
1.0059811e-10
5.6461686e-08
9.9567977e-11
5.6432871e-08
9.8589766e-11
5.6404328e-08
9.7659018e-11
5.6376045e-08
9.6771622e-11
5.634801e-08
9.5924015e-11
5.6320213e-08
9.5112745e-11