/*--------------------------------*- C++ -*----------------------------------*\
| =========                 |                                                 |
| \\      /  F ield         | OpenFOAM: The Open Source CFD Toolbox           |
|  \\    /   O peration     | Version:  2206                                  |
|   \\  /    A nd           | Website:  www.openfoam.com                      |
|    \\/     M anipulation  |                                                 |
\*---------------------------------------------------------------------------*/
FoamFile
{
    version     2.0;
    format      ascii;
    arch        "LSB;label=32;scalar=64";
    class       volVectorField;
    location    "100";
    object      U;
}
// * * * * * * * * * * * * * * * * * * * * * * * * * * * * * * * * * * * * * //

dimensions      [0 1 -1 0 0 0 0];

internalField   nonuniform List<vector> 
13056
(
(1 1.7082547e-11 3.9531364e-25)
(0.99999868 4.1555549e-11 0)
(0.99999702 5.5269523e-11 0)
(0.99999517 7.0607201e-11 0)
(0.99999306 9.2466653e-11 0)
(0.99999061 1.2286745e-10 0)
(0.99998772 1.6465591e-10 0)
(0.99998429 2.2187958e-10 0)
(0.9999802 3.0037112e-10 0)
(0.9999753 4.0850572e-10 0)
(0.99996938 5.5829122e-10 0)
(0.99996219 7.6739136e-10 0)
(0.99995338 1.0618118e-09 0)
(0.99994249 1.4835079e-09 0)
(0.9999288 2.0928208e-09 0)
(0.99991139 3.0176765e-09 0)
(0.99988842 4.3835164e-09 0)
(0.99985819 6.8140349e-09 0)
(0.99981305 1.0122449e-08 0)
(0.99975469 1.9135465e-08 0)
(0.99963219 2.618602e-08 0)
(0.99951857 7.0330501e-08 0)
(0.99903426 1.6128671e-08 -5.2791451e-21)
(0.99938306 0.00012466745 9.8776911e-18)
(0.0034811112 0.00012497353 0)
(0.0017970321 1.9127321e-07 -7.7818256e-18)
(0.0015492271 1.076832e-08 3.4058102e-22)
(0.0014556107 4.7688883e-09 0)
(0.0014082438 2.6995458e-09 0)
(0.0013767072 1.8814791e-09 0)
(0.0013535181 1.4038974e-09 0)
(0.0013356711 1.0961263e-09 0)
(0.001321442 8.841923e-10 0)
(0.0013098145 7.2949596e-10 0)
(0.0013001171 6.1299983e-10 0)
(0.0012918878 5.228351e-10 0)
(0.0012848053 4.5127664e-10 0)
(0.0012786389 3.933832e-10 0)
(0.0012732168 3.4585354e-10 0)
(0.0012684075 3.0635349e-10 0)
(0.0012641086 2.731553e-10 0)
(0.0012602397 2.4496808e-10 0)
(0.0012567362 2.2082227e-10 0)
(0.001253546 1.9997437e-10 0)
(0.0012506264 1.818464e-10 0)
(0.0012479422 1.6598349e-10 0)
(0.0012454639 1.5202297e-10 0)
(0.0012431668 1.3967247e-10 0)
(0.0012410299 1.2869401e-10 0)
(0.0012390353 1.1889218e-10 0)
(0.0012371676 1.1010532e-10 0)
(0.0012354135 1.0219872e-10 0)
(0.0012337615 9.5059326e-11 0)
(0.0012322016 8.8591739e-11 0)
(0.001230725 8.271496e-11 0)
(0.0012293237 7.7359859e-11 0)
(0.0012279912 7.2467121e-11 0)
(0.0012267211 6.7985621e-11 0)
(0.0012255082 6.3871068e-11 0)
(0.0012243475 6.0084928e-11 0)
(0.0012232348 5.6593565e-11 0)
(0.0012221661 5.3367499e-11 0)
(0.001221138 5.0380797e-11 0)
(0.0012201472 4.7610577e-11 0)
(0.0012191909 4.5036597e-11 0)
(0.0012182665 4.2640893e-11 0)
(0.0012173716 4.0407467e-11 0)
(0.0012165041 3.8321987e-11 0)
(0.0012156619 3.6371569e-11 0)
(0.0012148433 3.4544748e-11 0)
(0.0012140467 3.2831337e-11 0)
(0.0012132704 3.1222079e-11 0)
(0.0012125132 2.9708542e-11 0)
(0.0012117737 2.8283106e-11 0)
(0.0012110507 2.6938928e-11 0)
(0.0012103432 2.5665234e-11 0)
(0.0012096501 2.4473651e-11 -1.0036513e-26)
(0.0012089706 2.3337814e-11 0)
(0.0012083037 2.2253743e-11 0)
(0.0012076486 2.1237141e-11 0)
(0.0012070047 2.0266372e-11 0)
(0.0012063712 1.9343703e-11 0)
(0.0012057476 1.8465531e-11 0)
(0.0012051331 1.7628674e-11 0)
(0.0012045274 1.6830288e-11 0)
(0.0012039298 1.6067924e-11 0)
(0.0012033398 1.5339279e-11 0)
(0.0012027572 1.4642116e-11 0)
(0.0012021814 1.3974338e-11 0)
(0.0012016122 1.3334132e-11 0)
(0.0012010491 1.2719979e-11 0)
(0.0012004918 1.2130407e-11 0)
(0.0011999401 1.1563966e-11 0)
(0.0011993936 1.1019301e-11 0)
(0.0011988522 1.0495211e-11 0)
(0.0011983156 9.990622e-12 0)
(0.0011977836 9.504522e-12 0)
(0.0011972561 9.0359138e-12 0)
(0.0011967327 8.5839309e-12 0)
(0.0011962135 8.147881e-12 0)
(0.0011956983 7.7270832e-12 0)
(0.0011951869 7.3208513e-12 0)
(0.0011946793 6.928563e-12 0)
(0.0011941754 6.549676e-12 0)
(0.0011936751 6.1836731e-12 0)
(0.0011931784 5.8300333e-12 0)
(0.0011926852 5.4882904e-12 0)
(0.0011921957 5.1580381e-12 0)
(0.0011917097 4.8386793e-12 0)
(0.0011912274 4.5298216e-12 0)
(0.001190749 4.2278191e-12 0)
(0.0011902756 3.9406643e-12 0)
(0.0011898043 3.6251446e-12 0)
(0.0011893729 3.2611492e-12 0)
(0.0011889999 2.9179976e-12 0)
(0.0011886744 2.6271328e-12 0)
(0.001188386 2.3823654e-12 0)
(0.0011881274 2.1758883e-12 0)
(0.0011878933 1.9989003e-12 0)
(0.00118768 1.8446878e-12 0)
(0.0011874847 1.7088235e-12 0)
(0.0011873049 1.5882335e-12 0)
(0.001187139 1.4805627e-12 0)
(0.0011869852 1.3839402e-12 0)
(0.0011868423 1.2968983e-12 0)
(0.0011867091 1.2182625e-12 0)
(0.0011865846 1.1471384e-12 0)
(0.0011864679 1.0827709e-12 0)
(0.0011863583 1.0250452e-12 0)
(0.0011862549 9.7294624e-13 0)
(0.0011861572 9.3142803e-13 0)
(0.0011860633 8.8832277e-13 0)
(0.0011859755 9.0004988e-13 0)
(0.001185878 2.0040414e-12 0)
(0.0011858037 9.2124015e-13 1.2987336e-24)
(0.0011856882 1.3890055e-12 0)
(1 5.3389505e-11 0)
(0.99999859 1.303409e-10 0)
(0.9999968 1.734572e-10 0)
(0.99999482 2.2158679e-10 0)
(0.99999255 2.9017476e-10 0)
(0.99998992 3.8548114e-10 0)
(0.99998681 5.1637662e-10 0)
(0.99998314 6.9550278e-10 0)
(0.99997876 9.4106482e-10 0)
(0.99997351 1.2791831e-09 0)
(0.99996718 1.7472839e-09 0)
(0.9999595 2.4003983e-09 0)
(0.99995011 3.3194931e-09 0)
(0.9999385 4.6351853e-09 0)
(0.99992393 6.5350431e-09 0)
(0.99990542 9.417219e-09 0)
(0.99988103 1.366989e-08 0)
(0.99984898 2.1234228e-08 0)
(0.9998012 3.1515046e-08 0)
(0.99973954 5.9519335e-08 0)
(0.99961029 8.1440934e-08 0)
(0.99949036 2.1864467e-07 0)
(0.99898004 4.6984983e-08 1.9738787e-20)
(0.99934914 0.0003745647 -7.1020046e-21)
(0.010454335 0.00037559515 0)
(0.0054105001 1.0338426e-06 0)
(0.0046627599 1.7675936e-07 1.6155914e-21)
(0.0043800254 7.2026897e-08 0)
(0.0042368885 3.9917497e-08 0)
(0.0041416038 2.7405605e-08 0)
(0.0040715392 2.0352794e-08 0)
(0.0040176123 1.5749749e-08 0)
(0.0039746158 1.2563956e-08 0)
(0.0039394787 1.0251592e-08 0)
(0.0039101727 8.524153e-09 0)
(0.003885302 7.1998878e-09 0)
(0.0038638959 6.1592672e-09 0)
(0.0038452576 5.3250081e-09 0)
(0.0038288682 4.6458087e-09 0)
(0.0038143304 4.0858076e-09 0)
(0.0038013352 3.6187838e-09 0)
(0.003789639 3.2252673e-09 0)
(0.0037790471 2.8906646e-09 0)
(0.0037694021 2.6038394e-09 0)
(0.003760575 2.3561746e-09 0)
(0.0037524592 2.1409187e-09 0)
(0.0037449659 1.9527167e-09 0)
(0.0037380201 1.7872743e-09 0)
(0.0037315586 1.6411152e-09 0)
(0.0037255272 1.5113995e-09 0)
(0.0037198794 1.3957889e-09 0)
(0.0037145751 1.2923436e-09 0)
(0.0037095795 1.1994434e-09 0)
(0.0037048622 1.1157266e-09 0)
(0.0037003966 1.0400415e-09 0)
(0.0036961591 9.7140975e-10 0)
(0.0036921292 9.0899522e-10 0)
(0.0036882883 8.5208023e-10 0)
(0.0036846201 8.0004584e-10 0)
(0.0036811101 7.5235594e-10 0)
(0.003677745 7.0854439e-10 0)
(0.0036745131 6.6820421e-10 0)
(0.0036714038 6.3097901e-10 0)
(0.0036684074 5.9655554e-10 0)
(0.0036655155 5.646577e-10 0)
(0.0036627199 5.3504155e-10 0)
(0.0036600136 5.0749089e-10 0)
(0.0036573901 4.8181314e-10 0)
(0.0036548433 4.5783658e-10 0)
(0.0036523679 4.3540842e-10 0)
(0.0036499587 4.1439226e-10 0)
(0.0036476113 3.946655e-10 0)
(0.0036453214 3.7611767e-10 0)
(0.0036430852 3.5864934e-10 0)
(0.003640899 3.421709e-10 0)
(0.0036387596 3.2660074e-10 -1.3922718e-25)
(0.0036366639 3.1186501e-10 3.3829516e-25)
(0.003634609 2.9790614e-10 6.2396744e-25)
(0.0036325925 2.8465667e-10 0)
(0.0036306118 2.7205612e-10 0)
(0.0036286648 2.6006361e-10 0)
(0.0036267495 2.4863312e-10 0)
(0.0036248638 2.3772438e-10 0)
(0.0036230059 2.2730003e-10 0)
(0.0036211744 2.1732283e-10 0)
(0.0036193676 2.0777091e-10 0)
(0.003617584 1.9861309e-10 0)
(0.0036158223 1.8980862e-10 0)
(0.0036140816 1.813476e-10 0)
(0.0036123605 1.7321334e-10 0)
(0.003610658 1.6537938e-10 0)
(0.0036089732 1.5783052e-10 0)
(0.0036073052 1.5055124e-10 0)
(0.0036056531 1.4352656e-10 0)
(0.0036040163 1.3674306e-10 0)
(0.003602394 1.3018905e-10 0)
(0.0036007856 1.2385394e-10 0)
(0.0035991906 1.1772762e-10 0)
(0.0035976085 1.1180089e-10 0)
(0.0035960387 1.060662e-10 0)
(0.003594481 1.0051714e-10 0)
(0.003592935 9.5147395e-11 0)
(0.0035914003 8.9950857e-11 0)
(0.0035898768 8.4922265e-11 0)
(0.0035883642 8.0056918e-11 0)
(0.0035868624 7.5350107e-11 0)
(0.0035853713 7.0797198e-11 0)
(0.0035838911 6.6394157e-11 0)
(0.0035824217 6.2134098e-11 0)
(0.0035809635 5.8014228e-11 0)
(0.0035795168 5.3971432e-11 0)
(0.0035780855 5.0182331e-11 0)
(0.0035766603 4.532017e-11 0)
(0.0035753554 3.9084632e-11 0)
(0.003574227 3.3628195e-11 0)
(0.0035732418 2.9510483e-11 0)
(0.0035723688 2.6261245e-11 0)
(0.0035715859 2.3629343e-11 0)
(0.0035708772 2.1437205e-11 0)
(0.0035702313 1.9568013e-11 0)
(0.0035696397 1.7949026e-11 0)
(0.0035690954 1.6532123e-11 0)
(0.0035685927 1.528238e-11 0)
(0.0035681268 1.4173043e-11 0)
(0.0035676939 1.3183347e-11 0)
(0.0035672903 1.2297011e-11 0)
(0.0035669132 1.1501652e-11 0)
(0.0035665597 1.0786882e-11 0)
(0.0035662276 1.0149734e-11 0)
(0.0035659143 9.5772653e-12 0)
(0.0035656183 9.1227357e-12 0)
(0.0035653337 8.6517783e-12 0)
(0.0035650675 8.8221238e-12 0)
(0.0035647723 8.2925147e-12 0)
(0.003564547 8.9547763e-12 -2.4798018e-24)
(0.0035641972 5.6535587e-12 5.4971099e-25)
(1 9.3257647e-11 0)
(0.99999849 2.278556e-10 0)
(0.99999656 3.0345243e-10 0)
(0.99999442 3.8764699e-10 0)
(0.99999198 5.0760904e-10 0)
(0.99998914 6.7413722e-10 0)
(0.9999858 9.0262508e-10 0)
(0.99998185 1.2150686e-09 0)
(0.99997715 1.6431207e-09 0)
(0.99997151 2.2321536e-09 0)
(0.99996473 3.0471326e-09 0)
(0.99995651 4.1835376e-09 0)
(0.99994646 5.7817496e-09 0)
(0.99993405 8.0682135e-09 0)
(0.9999185 1.1367596e-08 0)
(0.99989877 1.6369902e-08 0)
(0.99987281 2.3744052e-08 0)
(0.99983874 3.6853654e-08 0)
(0.99978801 5.4645027e-08 0)
(0.9997227 1.030932e-07 0)
(0.99958598 1.4105782e-07 0)
(0.99945905 3.7848117e-07 0)
(0.99891996 8.133284e-08 -1.0457568e-20)
(0.99931138 0.00062810052 6.1717508e-55)
(0.017536564 0.00063083091 -6.1692003e-55)
(0.0090897309 2.9593978e-06 0)
(0.0078293986 5.1886946e-07 -8.6477271e-22)
(0.0073523926 2.1249418e-07 0)
(0.0071107568 1.1791021e-07 0)
(0.0069499082 8.1016277e-08 0)
(0.006831627 6.0184895e-08 0)
(0.0067405829 4.6597083e-08 0)
(0.0066679873 3.7195787e-08 0)
(0.0066086565 3.0370175e-08 0)
(0.0065591673 2.5268837e-08 0)
(0.0065171645 2.1356026e-08 0)
(0.0064810101 1.8279584e-08 0)
(0.0064495279 1.5811919e-08 0)
(0.0064218424 1.3801907e-08 0)
(0.006397283 1.2143856e-08 0)
(0.0063753281 1.0760444e-08 0)
(0.0063555666 9.5942322e-09 0)
(0.00633767 8.6021623e-09 0)
(0.0063213723 7.7513679e-09 0)
(0.006306456 7.0164102e-09 0)
(0.0062927411 6.3773539e-09 0)
(0.0062800774 5.8183814e-09 0)
(0.0062683388 5.3268056e-09 0)
(0.006257418 4.8923519e-09 0)
(0.0062472239 4.5066254e-09 0)
(0.0062376778 4.1627111e-09 0)
(0.0062287122 3.8548709e-09 0)
(0.0062202681 3.5783118e-09 0)
(0.0062122942 3.3290031e-09 0)
(0.0062047456 3.103536e-09 0)
(0.0061975827 2.8990135e-09 0)
(0.0061907703 2.7129592e-09 0)
(0.0061842776 2.543247e-09 0)
(0.0061780767 2.3880429e-09 0)
(0.0061721431 2.2457576e-09 0)
(0.0061664545 2.1150094e-09 0)
(0.0061609911 1.9945912e-09 0)
(0.0061557349 1.8834458e-09 0)
(0.0061506697 1.7806439e-09 0)
(0.006145781 1.6853659e-09 0)
(0.0061410553 1.5968879e-09 0)
(0.0061364805 1.5145676e-09 0)
(0.0061320457 1.4378331e-09 0)
(0.0061277406 1.3661741e-09 0)
(0.0061235562 1.2991364e-09 0)
(0.006119484 1.2363147e-09 0)
(0.0061155161 1.1773444e-09 0)
(0.0061116456 1.121897e-09 0)
(0.0061078657 1.0696763e-09 0)
(0.0061041705 1.0204159e-09 0)
(0.0061005545 9.7386087e-10 0)
(0.0060970124 9.2983705e-10 -7.1641478e-25)
(0.0060935394 8.8811533e-10 0)
(0.0060901312 8.4849755e-10 0)
(0.0060867838 8.108578e-10 0)
(0.0060834932 7.7502598e-10 0)
(0.0060802562 7.4087976e-10 0)
(0.0060770694 7.0829816e-10 0)
(0.0060739297 6.7716919e-10 0)
(0.0060708345 6.4738201e-10 0)
(0.0060677811 6.1886958e-10 0)
(0.006064767 5.9153929e-10 0)
(0.0060617901 5.6527209e-10 0)
(0.0060588485 5.4003514e-10 0)
(0.0060559401 5.1577745e-10 0)
(0.0060530632 4.9242144e-10 0)
(0.0060502163 4.6992111e-10 0)
(0.0060473976 4.4822967e-10 0)
(0.006044606 4.2730195e-10 0)
(0.0060418401 4.0709754e-10 0)
(0.0060390988 3.8758127e-10 0)
(0.006036381 3.6872103e-10 0)
(0.0060336858 3.5048618e-10 0)
(0.0060310123 3.3284894e-10 0)
(0.0060283598 3.157865e-10 0)
(0.0060257276 2.9927933e-10 0)
(0.0060231151 2.8330808e-10 0)
(0.0060205218 2.6785421e-10 0)
(0.0060179473 2.5290167e-10 0)
(0.0060153912 2.3843609e-10 0)
(0.0060128534 2.2444303e-10 0)
(0.0060103336 2.1090841e-10 0)
(0.006007832 1.9781996e-10 0)
(0.0060053487 1.8515704e-10 0)
(0.0060028843 1.7291086e-10 0)
(0.0060004393 1.6089672e-10 0)
(0.0059980202 1.4962605e-10 0)
(0.0059956114 1.3529797e-10 0)
(0.0059934051 1.1702748e-10 0)
(0.0059914962 1.0097913e-10 0)
(0.0059898289 8.8787746e-11 0)
(0.0059883512 7.9128311e-11 0)
(0.0059870257 7.1282689e-11 0)
(0.0059858257 6.4734878e-11 0)
(0.0059847319 5.9143113e-11 0)
(0.0059837299 5.429385e-11 0)
(0.0059828078 5.004545e-11 0)
(0.0059819562 4.6294828e-11 0)
(0.005981167 4.2962845e-11 0)
(0.0059804334 3.9987989e-11 0)
(0.0059797495 3.7321986e-11 0)
(0.0059791103 3.4928142e-11 0)
(0.0059785113 3.2775612e-11 0)
(0.0059779483 3.0855845e-11 0)
(0.0059774173 2.9130174e-11 0)
(0.0059769155 2.7759333e-11 0)
(0.005976433 2.633788e-11 0)
(0.0059759817 2.6840447e-11 0)
(0.0059754814 2.4884334e-11 0)
(0.0059750994 2.7360758e-11 0)
(0.0059745062 1.6914307e-11 0)
(1 1.3777068e-10 8.9780491e-25)
(0.99999837 3.3696214e-10 0)
(0.99999628 4.4910187e-10 0)
(0.99999398 5.7370083e-10 0)
(0.99999134 7.5119621e-10 0)
(0.99998827 9.9735118e-10 0)
(0.99998467 1.3347646e-09 0)
(0.9999804 1.7958125e-09 0)
(0.99997533 2.4270512e-09 0)
(0.99996927 3.2951539e-09 0)
(0.99996197 4.4955167e-09 0)
(0.99995314 6.1682789e-09 0)
(0.99994235 8.5193335e-09 0)
(0.99992906 1.1880772e-08 0)
(0.99991241 1.6727958e-08 0)
(0.99989132 2.407245e-08 0)
(0.99986359 3.4889077e-08 0)
(0.99982726 5.4108416e-08 0)
(0.99977324 8.01512e-08 0)
(0.99970384 1.5105085e-07 0)
(0.9995588 2.0666068e-07 0)
(0.99942405 5.5411119e-07 0)
(0.99885288 1.1858362e-07 0)
(0.99926905 0.00088898298 -3.2198069e-55)
(0.024823946 0.00089464434 3.2184804e-55)
(0.012879112 6.0504403e-06 0)
(0.011084787 1.0695189e-06 0)
(0.010404732 4.3824488e-07 0)
(0.010060011 2.432126e-07 0)
(0.0098305291 1.6710837e-07 0)
(0.009661768 1.2414441e-07 0)
(0.0095318557 9.6118919e-08 0)
(0.009428256 7.6728428e-08 0)
(0.0093435748 6.2650603e-08 0)
(0.0092729308 5.2128887e-08 0)
(0.0092129657 4.4058366e-08 0)
(0.0091613439 3.7712796e-08 0)
(0.009116388 3.2622783e-08 0)
(0.0090768495 2.8476641e-08 0)
(0.009041772 2.5056404e-08 0)
(0.0090104114 2.2202616e-08 0)
(0.0089821813 1.9796817e-08 0)
(0.0089566131 1.7750204e-08 0)
(0.0089333274 1.599499e-08 0)
(0.0089120138 1.447871e-08 0)
(0.0088924156 1.3160247e-08 0)
(0.0088743184 1.2006977e-08 0)
(0.0088575421 1.0992732e-08 0)
(0.0088419339 1.0096322e-08 0)
(0.0088273634 9.3004309e-09 0)
(0.0088137187 8.5907953e-09 0)
(0.0088009031 7.9555798e-09 0)
(0.0087888326 7.3848979e-09 0)
(0.0087774339 6.8704356e-09 0)
(0.0087666428 6.4051614e-09 0)
(0.0087564028 5.9830993e-09 0)
(0.0087466638 5.5991409e-09 0)
(0.0087373816 5.2489005e-09 0)
(0.0087285166 4.9285946e-09 0)
(0.0087200335 4.634945e-09 0)
(0.0087119007 4.3651009e-09 0)
(0.0087040899 4.1165722e-09 0)
(0.0086965753 3.8871781e-09 0)
(0.008689334 3.6750011e-09 0)
(0.0086823448 3.4783505e-09 0)
(0.0086755888 3.2957325e-09 0)
(0.0086690486 3.1258225e-09 0)
(0.0086627086 2.9674401e-09 0)
(0.0086565543 2.8195325e-09 0)
(0.0086505725 2.6811628e-09 0)
(0.0086447512 2.5514945e-09 0)
(0.0086390792 2.4297753e-09 0)
(0.0086335465 2.3153273e-09 0)
(0.0086281435 2.2075398e-09 0)
(0.0086228617 2.1058624e-09 0)
(0.008617693 2.0097707e-09 0)
(0.0086126303 1.9189004e-09 0)
(0.0086076664 1.8327846e-09 0)
(0.0086027953 1.7510145e-09 0)
(0.0085980111 1.6733243e-09 0)
(0.0085933084 1.5993674e-09 0)
(0.0085886823 1.5288904e-09 0)
(0.0085841279 1.4616436e-09 0)
(0.0085796412 1.3973958e-09 0)
(0.008575218 1.3359182e-09 0)
(0.0085708547 1.2770723e-09 0)
(0.0085665476 1.220667e-09 0)
(0.0085622938 1.166457e-09 0)
(0.0085580905 1.114374e-09 0)
(0.0085539347 1.0643127e-09 0)
(0.008549824 1.016113e-09 0)
(0.008545756 9.6967996e-10 0)
(0.0085417286 9.2491696e-10 0)
(0.0085377399 8.8173076e-10 0)
(0.0085337879 8.4003784e-10 0)
(0.008529871 7.9976557e-10 0)
(0.0085259878 7.6084765e-10 0)
(0.0085221368 7.232208e-10 0)
(0.0085183169 6.8682759e-10 0)
(0.0085145269 6.5162091e-10 0)
(0.0085107659 6.1756038e-10 0)
(0.0085070329 5.8460604e-10 0)
(0.0085033274 5.5271955e-10 0)
(0.0084996487 5.2186776e-10 0)
(0.0084959962 4.9202094e-10 0)
(0.0084923697 4.6314928e-10 0)
(0.0084887689 4.3522365e-10 0)
(0.008485194 4.0821869e-10 0)
(0.0084816452 3.8209182e-10 0)
(0.0084781232 3.5682485e-10 0)
(0.0084746287 3.3203721e-10 0)
(0.0084711711 3.0878202e-10 0)
(0.0084677283 2.7923644e-10 0)
(0.008464573 2.4157603e-10 0)
(0.008461841 2.0848821e-10 0)
(0.0084594537 1.8334186e-10 0)
(0.0084573371 1.634126e-10 0)
(0.0084554379 1.4722207e-10 0)
(0.0084537182 1.3370797e-10 0)
(0.0084521504 1.2216583e-10 0)
(0.0084507138 1.1215543e-10 0)
(0.0084493917 1.0338476e-10 0)
(0.0084481703 9.5641234e-11 0)
(0.0084470383 8.8761605e-11 0)
(0.0084459859 8.2619019e-11 0)
(0.0084450048 7.7113882e-11 0)
(0.0084440876 7.217047e-11 0)
(0.0084432279 6.7725137e-11 0)
(0.00844242 6.3760231e-11 0)
(0.0084416577 6.0195904e-11 0)
(0.0084409374 5.7363771e-11 0)
(0.0084402448 5.442678e-11 0)
(0.0084395968 5.5459195e-11 0)
(0.0084388789 5.1440503e-11 0)
(0.0084383304 5.661613e-11 0)
(0.0084374784 3.4884122e-11 0)
(1 1.8819166e-10 0)
(0.99999824 4.6085821e-10 0)
(0.99999598 6.1474122e-10 0)
(0.99999347 7.8528904e-10 0)
(0.99999061 1.0281817e-09 0)
(0.99998729 1.3646946e-09 0)
(0.99998338 1.825503e-09 0)
(0.99997876 2.4546722e-09 0)
(0.99997328 3.31552e-09 0)
(0.99996673 4.4986364e-09 0)
(0.99995886 6.1335407e-09 0)
(0.99994933 8.4104063e-09 0)
(0.99993772 1.1608426e-08 0)
(0.99992341 1.6177873e-08 0)
(0.99990553 2.2762184e-08 0)
(0.9998829 3.2732375e-08 0)
(0.99985318 4.7401466e-08 0)
(0.99981431 7.345135e-08 0)
(0.99975659 1.0869275e-07 0)
(0.9996826 2.046086e-07 0)
(0.99952821 2.799124e-07 0)
(0.99938467 7.4995186e-07 0)
(0.99877753 1.5964464e-07 0)
(0.99922132 0.0011608945 0)
(0.032413339 0.0011704637 0)
(0.016823834 1.0422719e-05 0)
(0.014464925 1.8575411e-06 0)
(0.013569251 7.6177161e-07 0)
(0.013114897 4.2287012e-07 0)
(0.012812389 2.9055901e-07 0)
(0.012589908 2.1586583e-07 0)
(0.012418622 1.6714454e-07 0)
(0.012282005 1.3343569e-07 0)
(0.012170317 1.0896237e-07 0)
(0.012077125 9.0670193e-08 0)
(0.011998008 7.6638585e-08 0)
(0.011929887 6.5605347e-08 0)
(0.011870554 5.6754633e-08 0)
(0.011818364 4.9544704e-08 0)
(0.011772055 4.3596716e-08 0)
(0.011730649 3.8633518e-08 0)
(0.011693371 3.4449198e-08 0)
(0.011659604 3.0889386e-08 0)
(0.011628849 2.7836249e-08 0)
(0.011600696 2.5198576e-08 0)
(0.011574806 2.290489e-08 0)
(0.011550897 2.0898473e-08 0)
(0.011528731 1.9133831e-08 0)
(0.011508108 1.757412e-08 0)
(0.011488854 1.6189235e-08 0)
(0.011470822 1.4954374e-08 0)
(0.011453886 1.384896e-08 0)
(0.011437933 1.2855799e-08 0)
(0.011422867 1.1960434e-08 0)
(0.011408604 1.1150639e-08 0)
(0.011395069 1.041602e-08 0)
(0.011382196 9.7476934e-09 0)
(0.011369927 9.1380317e-09 0)
(0.011358208 8.5804545e-09 0)
(0.011346995 8.0692603e-09 0)
(0.011336244 7.5994905e-09 0)
(0.011325919 7.1668139e-09 0)
(0.011315986 6.7674371e-09 0)
(0.011306414 6.3980242e-09 0)
(0.011297175 6.0556346e-09 0)
(0.011288245 5.7376694e-09 0)
(0.0112796 5.4418242e-09 0)
(0.01127122 5.1660455e-09 0)
(0.011263085 4.9085015e-09 0)
(0.011255179 4.667562e-09 0)
(0.011247485 4.4417715e-09 0)
(0.011239989 4.2298214e-09 0)
(0.011232676 4.0305316e-09 0)
(0.011225536 3.8428394e-09 0)
(0.011218556 3.6657873e-09 0)
(0.011211725 3.4984634e-09 0)
(0.011205035 3.340229e-09 0)
(0.011198476 3.1902779e-09 0)
(0.011192039 3.0478983e-09 0)
(0.011185718 2.9126208e-09 0)
(0.011179504 2.7838476e-09 0)
(0.011173392 2.6611361e-09 0)
(0.011167375 2.5440516e-09 0)
(0.011161447 2.4321914e-09 0)
(0.011155603 2.3251577e-09 0)
(0.011149839 2.2227081e-09 0)
(0.011144149 2.1245102e-09 0)
(0.01113853 2.0301383e-09 0)
(0.011132977 1.939472e-09 0)
(0.011127488 1.8523273e-09 0)
(0.011122058 1.7684263e-09 0)
(0.011116684 1.6876031e-09 0)
(0.011111364 1.6096895e-09 0)
(0.011106096 1.5345229e-09 0)
(0.011100876 1.4619578e-09 0)
(0.011095702 1.3918675e-09 0)
(0.011090573 1.3241363e-09 0)
(0.011085486 1.2586541e-09 0)
(0.01108044 1.1953205e-09 0)
(0.011075434 1.1340533e-09 0)
(0.011070466 1.0747822e-09 0)
(0.011065535 1.0174373e-09 0)
(0.011060641 9.6195168e-10 0)
(0.011055781 9.082675e-10 0)
(0.011050956 8.5633283e-10 0)
(0.011046165 8.0609559e-10 0)
(0.011041408 7.5750496e-10 0)
(0.011036685 7.1051665e-10 0)
(0.011031997 6.6505652e-10 0)
(0.011027343 6.210927e-10 0)
(0.011022726 5.7796463e-10 0)
(0.011018157 5.3749763e-10 0)
(0.011013607 4.8614848e-10 0)
(0.011009435 4.2074787e-10 0)
(0.011005818 3.6326016e-10 0)
(0.011002656 3.1953219e-10 0)
(0.010999851 2.8485715e-10 0)
(0.010997334 2.5667635e-10 0)
(0.010995053 2.3314745e-10 0)
(0.010992974 2.1304758e-10 0)
(0.010991068 1.9561216e-10 0)
(0.010989313 1.8033377e-10 0)
(0.010987692 1.6684291e-10 0)
(0.010986189 1.5485579e-10 0)
(0.010984792 1.4415175e-10 0)
(0.010983489 1.3455756e-10 0)
(0.010982271 1.2594153e-10 0)
(0.010981129 1.181929e-10 0)
(0.010980055 1.11281e-10 0)
(0.010979042 1.0506684e-10 0)
(0.010978085 1.0012777e-10 0)
(0.010977164 9.5005831e-11 0)
(0.010976303 9.679247e-11 0)
(0.010975349 8.980388e-11 0)
(0.01097462 9.8923133e-11 -3.1945362e-24)
(0.010973487 6.0828072e-11 7.0815445e-25)
(1 2.4618391e-10 0)
(0.99999809 6.0370374e-10 0)
(0.99999563 8.0601582e-10 0)
(0.9999929 1.0296257e-09 0)
(0.99998979 1.3479979e-09 0)
(0.99998617 1.7886246e-09 0)
(0.99998192 2.391372e-09 0)
(0.9999769 3.2136702e-09 0)
(0.99997094 4.3379771e-09 0)
(0.99996384 5.8821465e-09 0)
(0.99995531 8.0145452e-09 0)
(0.999945 1.0982256e-08 0)
(0.99993245 1.5147731e-08 0)
(0.999917 2.1095457e-08 0)
(0.99989771 2.965916e-08 0)
(0.99987333 4.2617765e-08 0)
(0.99984136 6.1663752e-08 0)
(0.99979962 9.5465889e-08 0)
(0.99973772 1.4111718e-07 0)
(0.99965854 2.6532689e-07 0)
(0.99949361 3.6294626e-07 0)
(0.99934016 9.7164388e-07 0)
(0.99869245 2.0572552e-07 0)
(0.99916725 0.0014475528 0)
(0.040403305 0.0014624143 0)
(0.020970281 1.6380877e-05 0)
(0.018006417 2.9311217e-06 0)
(0.016878484 1.2033702e-06 0)
(0.016305838 6.6824036e-07 0)
(0.015924483 4.5919213e-07 0)
(0.015643993 3.4117092e-07 0)
(0.015428011 2.6419275e-07 0)
(0.015255712 2.1093567e-07 0)
(0.015114818 1.7226904e-07 0)
(0.014997232 1.4336608e-07 0)
(0.014897383 1.2119302e-07 0)
(0.014811395 1.0375639e-07 0)
(0.014736485 8.976765e-08 0)
(0.014670581 7.8371145e-08 0)
(0.014612095 6.8968501e-08 0)
(0.014559792 6.1121935e-08 0)
(0.014512697 5.4506163e-08 0)
(0.014470032 4.8877311e-08 0)
(0.014431167 4.4049215e-08 -3.5022669e-35)
(0.014395585 3.9877773e-08 0)
(0.01436286 3.6250043e-08 0)
(0.014332637 3.3076409e-08 0)
(0.014304614 3.0284983e-08 0)
(0.014278538 2.7817541e-08 0)
(0.014254193 2.5626506e-08 0)
(0.014231391 2.3672684e-08 0)
(0.014209972 2.1923549e-08 0)
(0.014189796 2.0351928e-08 0)
(0.014170742 1.8934969e-08 0)
(0.014152702 1.7653343e-08 0)
(0.014135582 1.6490621e-08 0)
(0.014119298 1.543276e-08 0)
(0.014103778 1.44677e-08 0)
(0.014088955 1.3585037e-08 0)
(0.01407477 1.2775757e-08 0)
(0.01406117 1.2032019e-08 0)
(0.014048109 1.1346974e-08 0)
(0.014035543 1.0714624e-08 0)
(0.014023434 1.0129693e-08 0)
(0.014011748 9.587531e-09 0)
(0.014000451 9.0840268e-09 0)
(0.013989516 8.615536e-09 0)
(0.013978916 8.1788104e-09 0)
(0.013968626 7.7709522e-09 0)
(0.013958626 7.3893828e-09 0)
(0.013948895 7.0317996e-09 0)
(0.013939413 6.6961319e-09 0)
(0.013930166 6.3805128e-09 0)
(0.013921135 6.0832609e-09 0)
(0.013912308 5.8028607e-09 0)
(0.01390367 5.5378708e-09 0)
(0.013895211 5.2872734e-09 0)
(0.013886916 5.0498026e-09 0)
(0.013878778 4.8243302e-09 0)
(0.013870785 4.6101037e-09 0)
(0.013862929 4.4061848e-09 0)
(0.013855202 4.2118708e-09 0)
(0.013847595 4.0264736e-09 0)
(0.013840101 3.8493554e-09 0)
(0.013832714 3.6798863e-09 0)
(0.013825427 3.5176809e-09 0)
(0.013818235 3.3622135e-09 0)
(0.013811132 3.2128126e-09 0)
(0.013804114 3.0692846e-09 0)
(0.013797175 2.9313363e-09 0)
(0.013790312 2.7985293e-09 0)
(0.013783521 2.6706006e-09 0)
(0.013776798 2.5472831e-09 0)
(0.013770139 2.428319e-09 0)
(0.013763541 2.3134774e-09 0)
(0.013757003 2.2025575e-09 0)
(0.01375052 2.0953758e-09 0)
(0.013744092 1.9917571e-09 0)
(0.013737715 1.8915422e-09 0)
(0.013731388 1.7946009e-09 0)
(0.013725109 1.700821e-09 0)
(0.013718877 1.6100917e-09 0)
(0.013712691 1.5223065e-09 0)
(0.013706548 1.4373735e-09 0)
(0.01370045 1.3552102e-09 0)
(0.013694394 1.2757336e-09 0)
(0.013688381 1.198863e-09 0)
(0.01368241 1.1245281e-09 0)
(0.013676483 1.0526113e-09 0)
(0.013670599 9.8306183e-10 0)
(0.013664761 9.1483816e-10 0)
(0.013658984 8.5081215e-10 0)
(0.013653231 7.6971522e-10 0)
(0.01364795 6.6654331e-10 0)
(0.013643367 5.7578801e-10 0)
(0.013639357 5.0666715e-10 0)
(0.013635798 4.5181275e-10 0)
(0.013632602 4.0720819e-10 0)
(0.013629706 3.6995192e-10 0)
(0.013627064 3.3811579e-10 0)
(0.013624642 3.1049323e-10 0)
(0.013622412 2.862831e-10 0)
(0.01362035 2.649017e-10 0)
(0.013618439 2.4590048e-10 0)
(0.013616662 2.2893064e-10 0)
(0.013615004 2.1371827e-10 0)
(0.013613454 2.000551e-10 0)
(0.013612 1.8776594e-10 0)
(0.013610634 1.7680243e-10 0)
(0.013609344 1.6694455e-10 0)
(0.013608125 1.5910688e-10 0)
(0.013606952 1.5097947e-10 0)
(0.013605855 1.5378768e-10 0)
(0.013604641 1.4268534e-10 0)
(0.013603712 1.5732753e-10 0)
(0.013602268 9.6595791e-11 -4.0416398e-25)
(1 3.1385174e-10 0)
(0.99999792 7.7079012e-10 0)
(0.99999523 1.0301213e-09 0)
(0.99999225 1.3159066e-09 0)
(0.99998884 1.7226665e-09 0)
(0.99998489 2.2850087e-09 0)
(0.99998024 3.0534101e-09 0)
(0.99997477 4.1008028e-09 0)
(0.99996827 5.531817e-09 0)
(0.99996053 7.4958364e-09 0)
(0.99995126 1.0206091e-08 0)
(0.99994006 1.3975328e-08 0)
(0.99992643 1.9261931e-08 0)
(0.99990968 2.6804995e-08 0)
(0.99988879 3.7656772e-08 0)
(0.99986243 5.4065708e-08 0)
(0.9998279 7.8156042e-08 0)
(0.99978289 1.2088281e-07 0)
(0.99971624 1.7848357e-07 0)
(0.99963119 3.3514998e-07 0)
(0.99945432 4.5842001e-07 0)
(0.99928964 1.2261939e-06 0)
(0.998596 2.5827409e-07 0)
(0.99910579 0.0017527673 0)
(0.048895071 0.0017746069 0)
(0.025366472 2.4257559e-05 0)
(0.021746734 4.357931e-06 0)
(0.020365476 1.791514e-06 0)
(0.019663572 9.9526102e-07 0)
(0.019195992 6.8398649e-07 0)
(0.018852051 5.0822789e-07 0)
(0.018587164 3.9360318e-07 0)
(0.018375797 3.1430429e-07 0)
(0.018202911 2.5672828e-07 0)
(0.018058585 2.1368653e-07 0)
(0.017935997 1.8066286e-07 0)
(0.017830402 1.5469027e-07 0)
(0.017738391 1.3385099e-07 0)
(0.017657424 1.1687143e-07 0)
(0.017585557 1.0286094e-07 0)
(0.017521274 9.1167807e-08 0)
(0.017463382 8.1307766e-08 0)
(0.017410928 7.2917717e-08 0)
(0.017363137 6.572047e-08 3.7779062e-35)
(0.017319378 5.9501457e-08 0)
(0.017279127 5.4092486e-08 0)
(0.017241947 4.9360107e-08 0)
(0.017207471 4.5197253e-08 0)
(0.017175387 4.1517206e-08 0)
(0.017145429 3.8249101e-08 0)
(0.017117368 3.5334553e-08 0)
(0.017091007 3.2725107e-08 0)
(0.017066175 3.0380284e-08 0)
(0.01704272 2.8266034e-08 0)
(0.017020513 2.635356e-08 0)
(0.016999438 2.4618381e-08 0)
(0.016979392 2.3039569e-08 0)
(0.016960285 2.1599155e-08 0)
(0.016942035 2.0281631e-08 0)
(0.016924571 1.9073564e-08 0)
(0.016907828 1.7963266e-08 0)
(0.016891747 1.6940529e-08 0)
(0.016876276 1.599641e-08 0)
(0.016861368 1.5123044e-08 0)
(0.01684698 1.4313499e-08 0)
(0.016833073 1.3561645e-08 0)
(0.01681961 1.2862048e-08 0)
(0.01680656 1.2209865e-08 0)
(0.016793894 1.1600774e-08 0)
(0.016781584 1.1030929e-08 0)
(0.016769605 1.0496896e-08 0)
(0.016757934 9.9955863e-09 0)
(0.016746551 9.5242155e-09 0)
(0.016735437 9.0802749e-09 0)
(0.016724573 8.6615034e-09 0)
(0.016713943 8.2657518e-09 -1.2271896e-25)
(0.016703532 7.8914941e-09 1.1528487e-24)
(0.016693325 7.5368527e-09 -1.0651751e-24)
(0.016683311 7.2001418e-09 0)
(0.016673476 6.8802266e-09 0)
(0.01666381 6.5757161e-09 0)
(0.016654302 6.2855598e-09 0)
(0.016644944 6.00873e-09 0)
(0.016635725 5.7442738e-09 0)
(0.016626637 5.4912516e-09 0)
(0.016617674 5.2490844e-09 0)
(0.016608827 5.0169882e-09 0)
(0.01660009 4.793966e-09 0)
(0.016591458 4.579722e-09 0)
(0.016582923 4.3738163e-09 0)
(0.016574482 4.1755969e-09 0)
(0.01656613 3.98467e-09 0)
(0.016557861 3.8006359e-09 0)
(0.016549671 3.6231089e-09 0)
(0.016541557 3.4517436e-09 0)
(0.016533516 3.2862394e-09 0)
(0.016525544 3.1263217e-09 0)
(0.016517638 2.9717278e-09 0)
(0.016509795 2.8222196e-09 0)
(0.016502014 2.6776016e-09 0)
(0.016494292 2.537706e-09 0)
(0.016486627 2.4023663e-09 0)
(0.016479018 2.2714228e-09 0)
(0.016471463 2.1447377e-09 0)
(0.016463962 2.0221869e-09 0)
(0.016456513 1.903646e-09 0)
(0.016449116 1.788994e-09 0)
(0.016441771 1.6781252e-09 0)
(0.016434479 1.5708643e-09 0)
(0.01642724 1.4671343e-09 0)
(0.016420057 1.3653885e-09 0)
(0.016412947 1.2698809e-09 0)
(0.016405867 1.1491799e-09 0)
(0.016399361 9.9584033e-10 0)
(0.016393707 8.608327e-10 0)
(0.016388755 7.5784557e-10 0)
(0.016384358 6.7603489e-10 0)
(0.016380406 6.0946639e-10 0)
(0.016376824 5.5383777e-10 0)
(0.016373555 5.0628457e-10 0)
(0.016370557 4.6501289e-10 0)
(0.016367795 4.2883077e-10 0)
(0.016365243 3.9686916e-10 0)
(0.016362875 3.6845992e-10 0)
(0.016360672 3.4308327e-10 0)
(0.016358617 3.2033095e-10 0)
(0.016356695 2.9989249e-10 0)
(0.016354892 2.8150671e-10 0)
(0.016353197 2.6510174e-10 0)
(0.016351597 2.503493e-10 0)
(0.016350084 2.3861596e-10 0)
(0.016348629 2.2645001e-10 0)
(0.016347267 2.3060814e-10 0)
(0.016345762 2.139587e-10 -2.9095119e-25)
(0.016344607 2.3613522e-10 0)
(0.016342814 1.4483083e-10 0)
(1 3.9385494e-10 0)
(0.99999773 9.6883849e-10 0)
(0.99999477 1.2962184e-09 0)
(0.9999915 1.6558401e-09 0)
(0.99998776 2.1674912e-09 0)