/*--------------------------------*- C++ -*----------------------------------*\
| =========                 |                                                 |
| \\      /  F ield         | OpenFOAM: The Open Source CFD Toolbox           |
|  \\    /   O peration     | Version:  2206                                  |
|   \\  /    A nd           | Website:  www.openfoam.com                      |
|    \\/     M anipulation  |                                                 |
\*---------------------------------------------------------------------------*/
FoamFile
{
    version     2.0;
    format      ascii;
    arch        "LSB;label=32;scalar=64";
    class       volScalarField;
    location    "700";
    object      k;
}
// * * * * * * * * * * * * * * * * * * * * * * * * * * * * * * * * * * * * * //

dimensions      [0 2 -2 0 0 0 0];

internalField   nonuniform List<scalar> 
7480
(
0.011445162
0.014109494
0.011691066
0.0076599191
0.0045418643
0.0027812019
0.0019369608
0.0015258628
0.001298068
0.0011497634
0.0010352097
0.00093696513
0.00085137227
0.0007773161
0.00071309705
0.00065716609
0.00060830481
0.00056538234
0.0005272023
0.00049298862
0.00046226977
0.00043453699
0.00040932349
0.00038633463
0.00036533708
0.00034607864
0.00032833531
0.00031196451
0.00029685347
0.00028287329
0.00026991174
0.00025789559
0.00024676039
0.0002364342
0.0002268567
0.00021798691
0.0002097874
0.00020222155
0.00019526459
0.00018890409
0.00018312965
0.00017793048
0.00017330689
0.00016925808
0.00016578861
0.0001629964
0.00016079012
0.00015929771
0.00015850693
0.00015839481
0.00015893833
0.00016010831
0.00016184318
0.00016403042
0.00016655993
0.0001693558
0.00017225071
0.00017499592
0.0001773545
0.00017913499
0.00018033391
0.00018095563
0.00018105504
0.00018070892
0.00018001409
0.0001790587
0.00017792054
0.00017666176
0.000175327
0.00017394935
0.00017255394
0.00017115564
0.00016976388
0.0001683886
0.00016703231
0.00016569643
0.00016438147
0.00016303316
0.00016165607
0.00016026653
0.00015887113
0.00015747319
0.00015606732
0.00015465142
0.00015322509
0.00015178807
0.00015034266
0.00014888946
0.00014743176
0.00014597064
0.00014450833
0.00014304583
0.0001415864
0.00014012194
0.00013867653
0.00013716295
0.00013584014
0.00013394151
0.00013287151
0.00012997178
0.0014157354
0.0025665246
0.0028348193
0.0024741896
0.002007253
0.0015609267
0.0011995462
0.00093130956
0.00073510207
0.00059092072
0.00048471567
0.00040597645
0.00034686715
0.00030174431
0.00026654315
0.00023843023
0.0002154996
0.00019644063
0.00018032484
0.00016652204
0.00015460677
0.00014425636
0.00013521656
0.00012729682
0.00012021542
0.00011383246
0.00010806232
0.00010285437
9.8175277e-05
9.3995938e-05
9.0293459e-05
8.705392e-05
8.4267266e-05
8.1924315e-05
8.0019838e-05
7.8554002e-05
7.7531066e-05
7.6962621e-05
7.6871874e-05
7.7294567e-05
7.8277375e-05
7.9878319e-05
8.2169647e-05
8.5236262e-05
8.918473e-05
9.4125472e-05
0.00010013631
0.00010728674
0.00011559596
0.00012505562
0.00013563269
0.00014733121
0.00015988877
0.00017300855
0.00018640244
0.00019963979
0.00021208168
0.00022314415
0.00023246979
0.00024000445
0.00024589643
0.00025040562
0.00025379577
0.00025616007
0.00025771905
0.00025867178
0.00025917595
0.0002593481
0.00025927349
0.00025901414
0.00025861309
0.00025809689
0.00025748934
0.00025680882
0.00025606223
0.00025525061
0.00025435428
0.00025316829
0.00025177832
0.00025025522
0.00024862182
0.00024688468
0.00024504579
0.00024311228
0.00024109087
0.00023899161
0.00023682454
0.0002345997
0.00023232815
0.00023001887
0.00022768087
0.00022532217
0.00022295059
0.00022057082
0.00021818681
0.00021579706
0.00021343821
0.00021076602
0.00020884933
0.00020445636
0.00021000354
0.00055719646
0.00084137132
0.00095105877
0.00092900869
0.00084361562
0.00075624252
0.00069805095
0.00065932591
0.00062435215
0.00059313313
0.00056406896
0.00053577896
0.0005088496
0.00048354344
0.00045988469
0.00043793391
0.00041770761
0.00039920888
0.0003824466
0.00036740957
0.00035405519
0.00034233583
0.00033218708
0.00032245334
0.0003132637
0.00030473304
0.00029699094
0.00029016484
0.00028437337
0.00027973518
0.00027636767
0.00027438003
0.00027387777
0.00027497133
0.00027777621
0.00028241962
0.00028906944
0.0002979514
0.00030935147
0.00032361459
0.0003411507
0.00036244173
0.0003880399
0.00041861605
0.00045474934
0.00049693164
0.00054539953
0.00060016045
0.00066105577
0.0007275488
0.00079920607
0.0008748206
0.00095266765
0.0010310666
0.0011074721
0.0011784149
0.0012409609
0.0012935636
0.0013362376
0.001369966
0.0013963128
0.0014160927
0.0014304114
0.0014405519
0.0014475571
0.0014522295
0.0014551532
0.0014567536
0.0014573392
0.0014571204
0.0014562266
0.0014547819
0.0014528781
0.0014505491
0.0014477958
0.0014445019
0.0014394883
0.0014333147
0.0014263683
0.0014187626
0.0014105285
0.0014016832
0.0013922698
0.001382328
0.0013719159
0.0013610889
0.0013499042
0.0013384219
0.0013266931
0.0013147673
0.0013026906
0.0012905051
0.0012782481
0.0012659141
0.0012535999
0.0012411981
0.0012276539
0.0012174054
0.0011948904
3.6611949e-05
0.00011641013
0.00022888085
0.00032889826
0.00038969526
0.00041115008
0.00040819006
0.00039504772
0.00038064131
0.00036977947
0.00036655314
0.0003746848
0.00038616845
0.00039597753
0.00040415295
0.00041043272
0.00041542436
0.00041962796
0.00042336244
0.00042688802
0.00043042099
0.00043414902
0.00043822745
0.00044276345
0.00044759494
0.00045253636
0.00045763508
0.00046310449
0.00046922202
0.00047628896
0.00048462378
0.00049455863
0.00050643378
0.00052059965
0.00053742107
0.00055727489
0.00058057736
0.0006078595
0.00063978067
0.00067711754
0.00072075522
0.00077169121
0.00083104015
0.00090002765
0.00098005336
0.0010721107
0.0011767092
0.0012938329
0.0014229866
0.00156328
0.0017132656
0.0018698737
0.0020312287
0.0021937744
0.0023542027
0.0025071519
0.0026461917
0.0027669095
0.0028678542
0.002950034
0.0030159438
0.0030680433
0.0031079413
0.0031383963
0.003161684
0.0031795715
0.0031933892
0.0032040964
0.0032123837
0.0032187482
0.0032235223
0.0032269091
0.0032291251
0.0032303202
0.0032305426
0.0032297767
0.0032278286
0.003222372
0.003214714
0.0032055254
0.0031949695
0.0031830999
0.0031699612
0.0031556393
0.0031402187
0.0031238107
0.0031065211
0.003088458
0.0030697319
0.0030504403
0.0030306719
0.0030105177
0.0029900531
0.0029693593
0.002948403
0.0029274613
0.0029059988
0.0028832588
0.0028646682
0.002827263
1.2523618e-05
2.7572431e-05
5.8624047e-05
9.9471344e-05
0.00013897579
0.0001694237
0.00018920719
0.00020026429
0.0002054848
0.0002073501
0.00020802883
0.00020958981
0.00021294928
0.00021860989
0.00022750446
0.00024061361
0.00025525755
0.0002704236
0.0002856905
0.00030132247
0.0003174684
0.00033431186
0.00035192616
0.00037024272
0.0003889843
0.00040784494
0.0004273038
0.00044780988
0.00046968901
0.00049321952
0.00051868149
0.00054638671
0.00057669283
0.00061000491
0.00064676867
0.00068746587
0.0007326965
0.00078332045
0.00084037306
0.00090499538
0.00097843037
0.0010620299
0.0011572569
0.0012656812
0.0013890355
0.0015277527
0.0016814278
0.0018493823
0.0020306703
0.0022239274
0.0024271422
0.0026370883
0.0028490655
0.0030590705
0.0032639921
0.0034558701
0.0036269696
0.0037739655
0.003897107
0.0039986005
0.0040810825
0.004147397
0.0042005102
0.0042431988
0.0042778207
0.0043062306
0.0043298335
0.0043496553
0.0043664387
0.0043807198
0.0043928515
0.0044030534
0.0044115906
0.0044186229
0.0044241879
0.004428243
0.0044306051
0.0044303066
0.0044275337
0.0044225828
0.0044156152
0.0044067244
0.004396
0.0043835718
0.0043695754
0.0043541689
0.0043375023
0.0043197234
0.0043009803
0.0042814061
0.0042611166
0.0042402354
0.0042188591
0.0041970989
0.0041749147
0.0041526856
0.0041296015
0.0041057046
0.0040848128
0.0040463748
9.3805498e-06
1.1752203e-05
1.8504943e-05
3.0344826e-05
4.5489297e-05
6.1118031e-05
7.5205842e-05
8.6933446e-05
9.6285485e-05
0.00010357839
0.00010920992
0.00011368788
0.00011750569
0.00012111383
0.00012501921
0.00012979607
0.00013572071
0.00014306878
0.00015226591
0.00016376048
0.00017687596
0.0001918936
0.0002080945
0.00022550015
0.00024419226
0.00026422816
0.00028583574
0.00030931738
0.00033500841
0.00036328769
0.00039457415
0.0004293263
0.00046804554
0.00051126859
0.0005595799
0.00061369526
0.00067461165
0.00074335313
0.00082093677
0.00090845518
0.001007117
0.0011182521
0.0012433025
0.0013838402
0.0015415389
0.0017146182
0.0019011185
0.0021002412
0.0023113271
0.0025331917
0.0027637882
0.0029997994
0.0032364185
0.0034693808
0.0036954691
0.0039036845
0.004087169
0.0042456674
0.0043807977
0.0044950812
0.0045915231
0.00467283
0.0047414349
0.0047996208
0.0048494251
0.0048924881
0.0049301004
0.0049632525
0.004992681
0.0050189277
0.0050423468
0.0050631642
0.0050817123
0.0050981488
0.0051124928
0.0051246799
0.0051345664
0.0051414996
0.005145436
0.0051465613
0.0051450527
0.0051410516
0.0051346998
0.0051261739
0.0051156606
0.0051033628
0.0050894707
0.0050741677
0.0050576352
0.0050400376
0.0050215116
0.0050022095
0.0049822448
0.0049617507
0.0049406929
0.0049194994
0.0048972359
0.0048745256
0.0048538001
0.0048171487
8.9899079e-06
9.2310184e-06
1.0391882e-05
1.3066283e-05
1.7352145e-05
2.2791309e-05
2.876095e-05
3.4793557e-05
4.0619113e-05
4.6096299e-05
5.1142283e-05
5.5725905e-05
5.9865926e-05
6.3618138e-05
6.7086501e-05
7.0427752e-05
7.3807636e-05
7.7400667e-05
8.1419159e-05
8.6119704e-05
9.1689061e-05
9.8403237e-05
0.00010650226
0.00011619343
0.00012734896
0.00014017555
0.00015492118
0.00017143584
0.00018974653
0.00021022071
0.00023329679
0.00025949498
0.00028942625
0.00032377402
0.00036330468
0.00040892887
0.00046182529
0.0005234651
0.00059539101
0.00067925507
0.00077680479
0.00088986416
0.0010203179
0.0011701669
0.0013415218
0.0015226365
0.0017158941
0.0019248138
0.0021498493
0.0023894513
0.0026405045
0.0028982952
0.0031567044
0.0034117245
0.0036608741
0.0038824429
0.0040752806
0.0042463353
0.004398143
0.0045327432
0.0046521755
0.0047579694
0.0048515019
0.0049343755
0.0050081557
0.0050741247
0.0051334263
0.0051870343
0.0052357004
0.005280011
0.0053204174
0.0053572473
0.0053907975
0.0054212477
0.0054486299
0.0054728966
0.0054939629
0.0055114165
0.0055251425
0.0055352678
0.005541995
0.0055455261
0.0055460684
0.005543857
0.0055391393
0.0055321707
0.0055231886
0.005512419
0.0055000841
0.0054863856
0.0054715013
0.0054556027
0.0054388216
0.0054213142
0.0054030669
0.0053845216
0.005364754
0.0053446562
0.0053258536
0.0052923283
8.94088e-06
8.861923e-06
8.9453723e-06
9.3733969e-06
1.0288182e-05
1.1705105e-05
1.3541083e-05
1.5692717e-05
1.8076277e-05
2.0625871e-05
2.3279872e-05
2.5979742e-05
2.8675355e-05
3.1326122e-05
3.390768e-05
3.6418e-05
3.8874401e-05
4.1309701e-05
4.3776413e-05
4.6350357e-05
4.9118804e-05
5.2190983e-05
5.5694909e-05
5.9776418e-05
6.4567819e-05
7.0247166e-05
7.7054783e-05
8.5136455e-05
9.4557752e-05
0.00010555822
0.00011844619
0.00013359927
0.00015136655
0.00017186669
0.00019573295
0.00022373598
0.00025685002
0.00029632053
0.00034368257
0.0004007673
0.00046974048
0.00055311373
0.00065370339
0.00077455228
0.00091877939
0.00108254
0.00126312
0.0014615867
0.0016783087
0.001912405
0.0021612401
0.0024201271
0.002682887
0.0029479882
0.0032139962
0.0034581026
0.0036785374
0.0038796833
0.0040624276
0.0042295783
0.0043829492
0.0045230126
0.0046504284
0.0047664962
0.0048723348
0.0049688053
0.0050569641
0.0051377737
0.0052119659
0.0052801959
0.005343033
0.0054009015
0.0054541405
0.0055029789
0.0055474707
0.0055876122
0.0056233952
0.0056546275
0.0056812288
0.0057033052
0.0057210784
0.005734804
0.0057447565
0.005751235
0.0057545527
0.0057550234
0.0057529372
0.0057485702
0.0057421946
0.005734057
0.0057243748
0.0057133527
0.0057011505
0.0056879524
0.0056737784
0.0056590657
0.0056429864
0.0056264883
0.0056108343
0.0055810732
8.9328836e-06
8.8092326e-06
8.7106457e-06
8.6774435e-06
8.7584178e-06
8.9872402e-06
9.3743851e-06
9.91717e-06
1.0610601e-05
1.1449576e-05
1.2426042e-05
1.3526835e-05
1.4735286e-05
1.6031926e-05
1.7397028e-05
1.8813817e-05
2.0270147e-05
2.1758532e-05
2.3278233e-05
2.4837524e-05
2.6453249e-05
2.8151729e-05
2.9970357e-05
3.1958761e-05
3.4175565e-05
3.6693481e-05
3.9607079e-05
4.3020718e-05
4.7043617e-05
5.1820306e-05
5.7545072e-05
6.4407654e-05
7.2623541e-05
8.2436022e-05
9.4190965e-05
0.0001083319
0.00012543699
0.00014625789
0.00017148759
0.00020217909
0.00023990031
0.00028665783
0.00034499709
0.0004180994
0.00050987691
0.00062314202
0.00075703714
0.00091183376
0.0010885641
0.0012875713
0.0015078878
0.0017466454
0.0019991235
0.0022629427
0.0025354235
0.0028005053
0.003043515
0.0032702085
0.0034829663
0.003683366
0.0038724792
0.0040490242
0.0042131099
0.0043661052
0.0045083944
0.004640172
0.0047624155
0.0048758851
0.0049810763
0.0050786755
0.0051693044
0.0052534088
0.005331342
0.0054033767
0.0054695427
0.0055298832
0.0055844798
0.0056333223
0.0056764198
0.0057139013
0.0057460095
0.0057730407
0.0057953315
0.0058132452
0.0058271624
0.0058374611
0.0058444902
0.0058485849
0.0058500783
0.0058492716
0.0058464333
0.0058418117
0.0058356047
0.005828033
0.0058191625
0.0058094209
0.0057981266
0.0057861718
0.0057747227
0.005749287
8.9301882e-06
8.8000162e-06
8.6732766e-06
8.557153e-06
8.4632994e-06
8.4039444e-06
8.3885871e-06
8.4241705e-06
8.5168113e-06
8.6724658e-06
8.8963123e-06
9.1916891e-06
9.5600176e-06
1.0000541e-05
1.0510736e-05
1.1086939e-05
1.1724757e-05
1.2419529e-05
1.3167233e-05
1.3965428e-05
1.4813829e-05
1.5714835e-05
1.6674718e-05
1.770474e-05
1.8821255e-05
2.0046542e-05
2.1410915e-05
2.2952843e-05
2.4718767e-05
2.676682e-05
2.9172484e-05
3.2027366e-05
3.5443846e-05
3.9560729e-05
4.4560099e-05
5.0636249e-05
5.806411e-05
6.7211809e-05
7.8509086e-05
9.2518868e-05
0.00011002714
0.00013209988
0.00016017084
0.00019615421
0.00024248926
0.00030213734
0.00037785118
0.00047161002
0.0005858455
0.00072282538
0.0008842384
0.0010706015
0.0012806986
0.0015124727
0.0017632728
0.0020239215
0.0022815622
0.0025301604
0.0027635565
0.002986253
0.0032002535
0.0034055217
0.0036018465
0.0037894957
0.0039675496
0.0041349008
0.0042927508
0.0044413022
0.0045805379
0.0047111454
0.0048335712
0.0049481358
0.0050551327
0.005154863
0.0052471613
0.005332079
0.0054097866
0.0054803766
0.0055439353
0.0056006425
0.0056507604
0.0056946081
0.0057325721
0.0057650675
0.0057925337
0.0058154154
0.0058341217
0.0058490524
0.0058606091
0.0058691572
0.0058750272
0.0058785234
0.0058798938
0.0058794062
0.0058771842
0.0058736509
0.0058682984
0.00586192
0.0058557303
0.0058353052
8.9285965e-06
8.7969459e-06
8.6657143e-06
8.535895e-06
8.4097016e-06
8.2901547e-06
8.1804913e-06
8.0839518e-06
8.003948e-06
7.9441743e-06
7.9084792e-06
7.9006155e-06
7.9240631e-06
7.9818219e-06
8.0763404e-06
8.2095062e-06
8.3825914e-06
8.5962875e-06
8.8508721e-06
9.1464456e-06
9.4831571e-06
9.8614782e-06
1.0282513e-05
1.0748455e-05
1.1263001e-05
1.1831804e-05
1.2463155e-05
1.3168667e-05
1.3963737e-05
1.486848e-05
1.5909321e-05
1.7120009e-05
1.8543442e-05
2.0234034e-05
2.2262189e-05
2.4714751e-05
2.7705498e-05
3.1387348e-05
3.595782e-05
4.1653739e-05
4.8812332e-05
5.7895756e-05
6.9541231e-05
8.4629744e-05
0.00010436123
0.00013036154
0.00016466641
0.00020949244
0.00026745078
0.00034149409
0.00043477889
0.00055035569
0.00069066756
0.00085725321
0.0010506239
0.0012680843
0.0015024737
0.0017455185
0.0019878755
0.0022268396
0.0024573413
0.0026782262
0.002892994
0.0031022362
0.003305447
0.0035016759
0.0036908732
0.0038721063
0.0040441903
0.0042079521
0.0043633091
0.004510364
0.0046491337
0.00477948
0.0049011205
0.0050141284
0.0051186684
0.0052148023
0.0053026332
0.0053823623
0.0054542344
0.0055185577
0.0055757379
0.0056262083
0.0056704361
0.0057089267
0.0057421489
0.0057705629
0.0057946369
0.005814803
0.0058314634
0.0058449879
0.0058556914
0.0058638978
0.0058698009
0.0058738315
0.0058756682
0.005876003
0.0058761777
0.0058615987
8.927597e-06
8.7952658e-06
8.6629845e-06
8.5307969e-06
8.3990368e-06
8.2682802e-06
8.1393225e-06
8.0131539e-06
7.890966e-06
7.7741608e-06
7.6643311e-06
7.5632247e-06
7.4727098e-06
7.3947182e-06
7.3311911e-06
7.2840441e-06
7.255122e-06
7.2461439e-06
7.2586853e-06
7.2941911e-06
7.3539978e-06
7.4393816e-06
7.5515993e-06
7.6920088e-06
7.8622143e-06
8.0642272e-06
8.3007586e-06
8.5755479e-06
8.8936017e-06
9.2614989e-06
9.6879112e-06
1.0184264e-05
1.0765479e-05
1.1450858e-05
1.2265533e-05
1.3241814e-05
1.4421606e-05
1.5860383e-05
1.7631339e-05
1.982881e-05
2.258031e-05
2.6061629e-05
3.051541e-05
3.6273779e-05
4.3812124e-05
5.3802779e-05
6.7173116e-05
8.5130956e-05
0.00010924524
0.00014152293
0.00018446881
0.00024108731
0.00031476746
0.00040906318
0.00052740763
0.00067219805
0.00084337141
0.0010380615
0.0012502837
0.001474349
0.0017031581
0.0019314651
0.0021582692
0.0023798176
0.0025941315
0.0028046088
0.0030113634
0.0032140093
0.0034112625
0.0036028119
0.0037874785
0.0039645451
0.0041339714
0.0042949439
0.0044468855
0.0045897993
0.0047236179
0.0048481779
0.0049634745
0.0050696192
0.0051667554
0.0052551146
0.005335062
0.0054069881
0.0054713451
0.005528673
0.0055794706
0.0056242451
0.0056635253
0.0056978044
0.0057275601
0.0057532345
0.0057752191
0.0057939063
0.0058095723
0.0058226706
0.0058330733
0.0058413859
0.0058491266
0.0058413985
8.9270477e-06
8.7943369e-06
8.6616525e-06
8.5289374e-06
8.3962178e-06
8.2635685e-06
8.1311476e-06
7.9992164e-06
7.8681361e-06
7.7383592e-06
7.6104227e-06
7.4849486e-06
7.3626506e-06
7.2443333e-06
7.1308859e-06
7.0232758e-06
6.9225391e-06
6.8297622e-06
6.7460664e-06
6.6725973e-06
6.6105126e-06
6.5609728e-06
6.5251451e-06
6.5042173e-06
6.4994149e-06
6.5120332e-06
6.5435172e-06
6.5955734e-06
6.6702564e-06
6.7700508e-06
6.898091e-06
7.0584016e-06
7.2561496e-06
7.4980815e-06
7.7930451e-06
8.1523955e-06
8.5908435e-06
9.1277186e-06
9.7885663e-06
1.060688e-05
1.1627373e-05
1.2911e-05
1.4541606e-05
1.6635335e-05
1.9357183e-05
2.2944874e-05
2.7737918e-05
3.4209299e-05
4.3022692e-05
5.5097077e-05
7.16922e-05
9.4506467e-05
0.00012577068
0.00016830682
0.00022552814
0.00030122497
0.00039894169
0.00052114338
0.00066819706
0.00083854297
0.0010282966
0.0012322935
0.0014463009
0.0016648517
0.0018834688
0.0021018774
0.0023174743
0.0025278208
0.002735754
0.002941281
0.0031440721
0.0033423439
0.003535614
0.0037229345
0.0039024341
0.004073969
0.0042370235
0.0043909215
0.0045353228
0.0046700801
0.0047951047
0.0049104103
0.0050162236
0.0051128014
0.005200511
0.0052798755
0.005351362
0.0054154906
0.0054728286
0.0055239077
0.0055692747
0.0056094391
0.0056448701
0.0056760369
0.0057033045
0.0057271626
0.0057476788
0.0057653947
0.0057820432
0.0057823677
8.92674e-06
8.7937982e-06
8.6609142e-06
8.5280462e-06
8.3951841e-06
8.2623207e-06
8.1294809e-06
7.9967408e-06
7.864224e-06
7.7320904e-06
7.6005264e-06
7.4697457e-06
7.3399956e-06
7.2115647e-06
7.0847866e-06
6.9600438e-06
6.8377707e-06
6.7184538e-06
6.6026303e-06
6.4908873e-06
6.3838588e-06
6.2822214e-06
6.1866924e-06
6.0980297e-06
6.0170311e-06
5.9445354e-06
5.8814374e-06
5.8287096e-06
5.7874248e-06
5.7587886e-06
5.7442009e-06
5.7453294e-06
5.7641886e-06
5.8032924e-06
5.8658514e-06
5.9559119e-06
6.0786238e-06
6.2406614e-06
6.4507864e-06
6.7205978e-06
7.0654006e-06
7.5056169e-06
8.0690278e-06
8.7938482e-06
9.7336603e-06
1.0965364e-05
1.2600096e-05
1.4797802e-05
1.7790018e-05
2.1912212e-05
2.7648529e-05
3.5693772e-05
4.7044631e-05
6.3104522e-05
8.5804574e-05
0.00011770151
0.0001619583
0.0002221053
0.000301509
0.00040281666
0.00052724707
0.00067420606
0.00084177589
0.0010263958
0.0012235303
0.0014298173
0.0016410532
0.0018529744
0.002065654
0.0022771449
0.0024851029
0.0026911233
0.0028954247
0.0030976916
0.0032961213
0.0034897713
0.003677748
0.0038581008
0.0040300118
0.0041930356
0.0043465763
0.0044901411
0.0046237165
0.0047472659
0.0048609296
0.0049651324
0.0050601888
0.0051465656
0.0052248199
0.00529547
0.0053591067
0.0054162804
0.0054675247
0.0055133823
0.0055543033
0.0055908211
0.0056231954
0.005651923
0.0056789949
0.0056887891
8.9265624e-06
8.7934338e-06
8.660392e-06
8.5274246e-06
8.3945302e-06
8.2616978e-06
8.1289312e-06
7.9962642e-06
7.8637586e-06
7.7314943e-06
7.5995593e-06
7.4680473e-06
7.3370603e-06
7.2067122e-06
7.077133e-06
6.9484706e-06
6.820895e-06
6.6946007e-06
6.569809e-06
6.44677e-06
6.3257648e-06
6.2071067e-06
6.0911415e-06
5.9782497e-06
5.8688468e-06
5.7633833e-06
5.6623483e-06
5.5662733e-06
5.4757372e-06
5.3913736e-06
5.3138874e-06
5.2440751e-06
5.182846e-06
5.1312624e-06
5.0906001e-06
5.0624135e-06
5.0486154e-06
5.0515995e-06
5.0744251e-06
5.1210926e-06
5.1967875e-06
5.308292e-06
5.4646844e-06
5.6783026e-06
5.9663246e-06
6.3528671e-06
6.8723817e-06
7.5747662e-06
8.5329935e-06
9.8547035e-06
1.1699703e-05
1.4305667e-05
1.8028468e-05
2.3400791e-05
3.1213409e-05
4.2619233e-05
5.9257062e-05
8.3329338e-05
0.00011757976
0.00016513365
0.0002291532
0.00031234896
0.0004166076
0.0005425072
0.00068906383
0.00085433912
0.0010352442
0.001227681
0.0014288381
0.0016352701
0.0018429563
0.0020519134
0.0022602594
0.0024655461
0.0026699242
0.0028733675
0.0030749928
0.0032729015
0.0034659599
0.0036531092
0.0038324201
0.0040026954
0.0041637502
0.0043148706
0.0044557477
0.0045866299
0.0047074338
0.004818477
0.0049202229
0.0050130733
0.0050976135
0.0051743741
0.0052439178
0.0053068395
0.005363651
0.0054149268
0.005461104
0.0055026446
0.0055418537
0.0055627677
8.9264942e-06
8.7932005e-06
8.6600046e-06
8.526921e-06
8.3939636e-06
8.2611321e-06
8.1284327e-06
7.9958913e-06
7.863553e-06
7.7314752e-06
7.5997196e-06
7.4683487e-06
7.3374253e-06
7.2070151e-06
7.0771875e-06
6.9480166e-06
6.8195833e-06
6.6919764e-06
6.5652942e-06
6.439646e-06
6.3151539e-06
6.1919545e-06
6.0702004e-06
5.9500619e-06
5.8317288e-06
5.7154117e-06
5.6013438e-06
5.4897832e-06
5.3810146e-06
5.2753519e-06
5.1731427e-06
5.0747744e-06
4.9806801e-06
4.8913485e-06
4.8073412e-06
4.7293129e-06
4.6580363e-06
4.5944377e-06
4.5396514e-06
4.4950974e-06
4.4625715e-06
4.4443715e-06
4.4435003e-06
4.4639437e-06
4.5111454e-06
4.5925894e-06
4.7187658e-06
4.9047239e-06
5.1725212e-06
5.5547821e-06
6.1000156e-06
6.8814704e-06
8.0109955e-06
9.6609195e-06
1.2097965e-05
1.5733929e-05
2.1199836e-05
2.9438559e-05
4.1799384e-05
6.0106447e-05
8.667783e-05
0.00012422445
0.00017565327
0.00024373571
0.00033068598
0.00043790275
0.00056564295
0.00071274609
0.00087731077
0.0010565593
0.0012466862
0.0014451642
0.0016486556
0.0018534022
0.0020598252
0.0022656284
0.0024692004
0.0026720559
0.0028746417
0.0030750635
0.0032714568
0.0034626422
0.0036475487
0.0038238486
0.0039907648
0.0041483578
0.0042956134
0.0044326579
0.0045597116
0.0046768604
0.0047846118
0.0048833575
0.0049736272
0.0050560177
0.0051310495
0.0051993199
0.0052614099
0.0053177418
0.0053710044
0.0054049298
8.9265311e-06
8.7930977e-06
8.6597593e-06
8.5265505e-06
8.3934989e-06
8.2606165e-06
8.1279163e-06
7.9954248e-06
7.8631824e-06
7.7312389e-06
7.5996481e-06
7.4684643e-06
7.3377411e-06
7.2075326e-06
7.0778932e-06
6.9488779e-06
6.8205432e-06
6.6929469e-06
6.5661493e-06
6.440213e-06
6.3152045e-06
6.1911945e-06
6.068259e-06
5.94648e-06
5.8259473e-06
5.7067589e-06
5.5890228e-06
5.4728581e-06
5.3583965e-06
5.245784e-06
5.1351821e-06
5.0267712e-06
4.920752e-06
4.8173491e-06
4.7168159e-06
4.6194407e-06
4.525554e-06
4.4355392e-06
4.3498475e-06
4.2690202e-06
4.1937159e-06
4.1247482e-06
4.0631438e-06
4.0102243e-06
3.9677252e-06
3.9379816e-06
3.9242045e-06
3.9309014e-06
3.964594e-06
4.0348558e-06
4.1558289e-06
4.3488981e-06
4.6470262e-06
5.1015728e-06
5.7931116e-06
6.8496518e-06
8.4751013e-06
1.0992374e-05
1.490181e-05
2.0954783e-05
3.0237765e-05
4.4246858e-05
6.4914489e-05
9.4587379e-05
0.00013589694
0.00019155323
0.00026404675
0.00035525993
0.00046626692
0.00059709498
0.00074642015
0.00091230223
0.0010919397
0.0012816377
0.0014791958
0.0016808837
0.0018839872
0.0020888312
0.0022924569
0.0024944984
0.002695859
0.002897073
0.0030954169
0.0032892392
0.0034773102
0.0036586932
0.0038304509
0.0039928467
0.0041455324
0.0042879143
0.0044203714
0.0045429211
0.0046559718
0.0047600249
0.0048555127
0.0049430171
0.0050231968
0.0050964117
0.005165809
0.0052148617
8.9266645e-06
8.7931192e-06
8.6596587e-06
8.5263318e-06
8.393177e-06
8.2602165e-06
8.1274707e-06
7.9949688e-06
7.8627497e-06
7.7308602e-06
7.5993507e-06
7.4682727e-06
7.3376778e-06
7.2076175e-06
7.0781432e-06
6.9493061e-06
6.8211573e-06
6.6937476e-06
6.5671276e-06
6.4413479e-06
6.316459e-06
6.192512e-06
6.0695585e-06
5.947651e-06
5.8268435e-06
5.7071922e-06
5.5887558e-06
5.4715961e-06
5.3557795e-06
5.241377e-06
5.1284658e-06
5.01713e-06
4.9074622e-06
4.7995646e-06
4.6935509e-06
4.5895483e-06
4.4877004e-06
4.38817e-06
4.291144e-06
4.1968394e-06
4.1055111e-06
4.0174635e-06
3.9330658e-06
3.8527758e-06
3.7771722e-06
3.7070049e-06
3.6432749e-06
3.5873493e-06
3.5411495e-06
3.5074444e-06
3.4902958e-06
3.4957854e-06
3.5332572e-06
3.617286e-06
3.7708037e-06
4.0306523e-06
4.4569499e-06
5.1471886e-06
6.2588738e-06
8.0428654e-06
1.0890751e-05
1.5396193e-05
2.242577e-05
3.3192407e-05
4.9313928e-05
7.2815772e-05
0.00010607504
0.00015168326
0.00021222477
0.00028999951
0.0003866293
0.00050289714
0.0006385064
0.00079184246
0.00096086447
0.0011424513
0.0013332232
0.0015312078
0.0017318118
0.001933913
0.0021372578
0.0023387824
0.0025389242
0.0027390571
0.002937958
0.0031332508
0.0033234756
0.0035074742
0.0036835616
0.0038499648
0.0040070606
0.0041540065
0.0042910171
0.0044183156
0.0045360835
0.0046448236
0.0047451483
0.004837319
0.0049249812
0.0049914417
8.9268826e-06
8.793251e-06
8.6596913e-06
8.5262618e-06
8.3930089e-06
8.2599636e-06
8.1271529e-06
7.9946089e-06
7.8623708e-06
7.7304835e-06
7.5989956e-06
7.4679572e-06
7.337419e-06
7.2074318e-06
7.0780466e-06
6.9493142e-06
6.8212848e-06
6.6940081e-06
6.5675332e-06
6.4419082e-06
6.3171805e-06
6.1933965e-06
6.0706019e-06
5.9488411e-06
5.8281583e-06
5.7085967e-06
5.5901994e-06
5.4730092e-06
5.3570693e-06
5.2424231e-06
5.1291154e-06
5.0171922e-06
4.9067018e-06
4.7976953e-06
4.6902271e-06
4.5843563e-06
4.4801473e-06
4.3776713e-06
4.2770077e-06
4.178246e-06
4.0814885e-06
3.9868532e-06
3.8944788e-06
3.8045309e-06
3.7172107e-06
3.6327694e-06
3.5515292e-06
3.4739155e-06
3.4005061e-06
3.3321105e-06
3.2698926e-06
3.2155665e-06
3.1717243e-06
3.1423775e-06
3.1338415e-06
3.1562606e-06
3.2263371e-06
3.3714829e-06
3.6369313e-06
4.0973153e-06
4.8740504e-06
6.1613462e-06
8.2637437e-06
1.1647028e-05
1.7002324e-05
2.5316e-05
3.7935913e-05
5.6620163e-05
8.3507278e-05
0.00012105258
0.00017185715
0.00023842553
0.00032287066
0.0004265052
0.00054975729
0.00069183336
0.00085079477
0.001024463
0.0012091115
0.0014018567
0.0016005204
0.0018003054
0.0020014567
0.0022024308
0.0024020268
0.0025999581
0.002798511
0.0029943584
0.0031858596
0.0033716266
0.0035506956
0.003720405
0.0038808864
0.0040317716
0.0041727203
0.0043040708
0.0044261583
0.0045391057
0.0046469864
0.0047331752
8.9271728e-06
8.7934767e-06
8.6598391e-06
8.5263242e-06
8.3929846e-06
8.2598581e-06
8.1269777e-06
7.9943788e-06
7.8621011e-06
7.7301889e-06
7.5986897e-06
7.4676524e-06
7.3371271e-06
7.2071642e-06
7.0778145e-06
6.9491286e-06
6.8211568e-06
6.693949e-06
6.567554e-06
6.44202e-06
6.317394e-06
6.1937219e-06
6.0710482e-06
5.9494163e-06
5.828868e-06
5.7094439e-06
5.5911831e-06
5.4741234e-06
5.3583013e-06
5.2437522e-06
5.1305106e-06
5.0186098e-06
4.908083e-06
4.7989628e-06
4.6912817e-06
4.5850728e-06
4.4803701e-06
4.3772086e-06
4.2756256e-06
4.1756608e-06
4.0773576e-06
3.9807639e-06
3.8859337e-06
3.7929287e-06
3.7018214e-06
3.6126981e-06
3.5256655e-06
3.440859e-06
3.358456e-06
3.2786966e-06
3.2019167e-06
3.1285997e-06
3.0594614e-06
2.9955929e-06
2.9386959e-06
2.8914881e-06
2.8584191e-06
2.8468514e-06
2.869067e-06
2.9457174e-06
3.1112652e-06
3.4226422e-06
3.973279e-06
4.9131704e-06
6.4792246e-06
9.037419e-06
1.3139304e-05
1.9591239e-05
2.9523345e-05
4.445372e-05
6.6322735e-05
9.7423178e-05
0.00014032964
0.00019766362
0.00027183769
0.00036469207
0.00047712765
0.00060911583
0.00075915196
0.00092494198
0.0011039602
0.0012920764
0.0014870088
0.0016851325
0.001884358
0.0020843093
0.0022827346
0.0024798571
0.0026765014
0.0028720516
0.0030640263
0.0032509044
0.0034315902
0.0036042475
0.0037675358
0.0039216342
0.0040661452
0.0042010532
0.0043305829
0.0044386219
8.9275234e-06
8.7937807e-06
8.6600832e-06
8.526499e-06
8.3930853e-06
8.2598855e-06
8.1269376e-06
7.9942803e-06
7.8619546e-06
7.7300048e-06
7.5984775e-06
7.4674212e-06
7.3368851e-06
7.2069195e-06
7.0775748e-06
6.9489015e-06
6.8209498e-06
6.6937695e-06
6.5674098e-06
6.4419187e-06
6.3173436e-06
6.1937304e-06
6.0711238e-06
5.949567e-06
5.829102e-06
5.7097689e-06
5.5916063e-06
5.4746511e-06
5.3589388e-06
5.2445028e-06
5.131375e-06
5.0195858e-06
4.9091639e-06
4.8001364e-06
4.6925294e-06
4.5863674e-06
4.481674e-06
4.378472e-06
4.2767835e-06
4.1766303e-06
4.0780344e-06
3.9810178e-06
3.8856039e-06
3.7918172e-06
3.6996848e-06
3.6092371e-06
3.5205096e-06
3.4335451e-06
3.3483978e-06
3.2651384e-06
3.1838629e-06
3.104706e-06
3.0278635e-06
2.9536282e-06
2.882451e-06
2.8150442e-06
2.7525648e-06
2.6969244e-06
2.6513238e-06
2.6211831e-06
2.6157097e-06
2.6504714e-06
2.7517692e-06
2.9632363e-06
3.3564855e-06
4.047854e-06
5.2220603e-06
7.1684125e-06
1.032985e-05
1.5367644e-05
2.3237462e-05
3.5257556e-05
5.3169713e-05
7.9137794e-05
0.00011565796
0.00016542888
0.00023105371
0.00031477601
0.00041798542
0.00054099587
0.00068310088
0.00084201163
0.0010151676
0.0011990657
0.0013904607
0.0015871114
0.001784286
0.0019824622
0.0021797465
0.0023758209
0.0025706048
0.0027653207
0.0029571883
0.0031447354
0.0033265804
0.003501451
0.0036672418
0.0038240357
0.0039756261
0.0041069918
8.9279245e-06
8.7941491e-06
8.6604065e-06
8.526767e-06
8.393291e-06
8.2600265e-06
8.1270162e-06
7.9943016e-06
7.8619256e-06
7.7299326e-06
7.5983693e-06
7.4672836e-06
7.3367246e-06
7.206742e-06
7.0773859e-06
6.9487066e-06
6.8207543e-06
6.6935786e-06
6.5672286e-06
6.4417525e-06
6.3171975e-06
6.1936098e-06
6.0710342e-06
5.9495141e-06
5.8290915e-06
5.7098068e-06
5.5916986e-06
5.4748041e-06
5.3591584e-06
5.2447951e-06
5.1317458e-06
5.0200403e-06
4.9097064e-06
4.8007704e-06
4.6932565e-06
4.5871873e-06
4.4825835e-06
4.3794643e-06
4.2778474e-06
4.1777489e-06
4.0791838e-06
3.9821656e-06
3.8867073e-06
3.7928208e-06
3.7005178e-06
3.6098096e-06
3.5207082e-06
3.4332266e-06
3.3473801e-06
3.2631877e-06
3.1806744e-06
3.099875e-06
3.0208394e-06