/*--------------------------------*- C++ -*----------------------------------*\
| =========                 |                                                 |
| \\      /  F ield         | OpenFOAM: The Open Source CFD Toolbox           |
|  \\    /   O peration     | Version:  2206                                  |
|   \\  /    A nd           | Website:  www.openfoam.com                      |
|    \\/     M anipulation  |                                                 |
\*---------------------------------------------------------------------------*/
FoamFile
{
    version     2.0;
    format      ascii;
    arch        "LSB;label=32;scalar=64";
    class       volScalarField;
    location    "700";
    object      nut;
}
// * * * * * * * * * * * * * * * * * * * * * * * * * * * * * * * * * * * * * //

dimensions      [0 2 -1 0 0 0 0];

internalField   nonuniform List<scalar> 
7480
(
1.5120895e-06
1.8587594e-06
1.5441682e-06
1.0161532e-06
6.0456912e-07
3.7092208e-07
2.5856762e-07
2.037818e-07
1.7340291e-07
1.5361669e-07
1.3832896e-07
1.2521468e-07
1.1378692e-07
1.0389771e-07
9.5320814e-08
8.7849857e-08
8.1322474e-08
7.5587877e-08
7.048643e-08
6.5914584e-08
6.1809445e-08
5.8103112e-08
5.4733272e-08
5.1660596e-08
4.885394e-08
4.6279629e-08
4.3907749e-08
4.1719263e-08
3.9699114e-08
3.7830086e-08
3.6097189e-08
3.4490643e-08
3.300184e-08
3.1621172e-08
3.0340579e-08
2.915459e-08
2.8058203e-08
2.7046528e-08
2.6116255e-08
2.526573e-08
2.449356e-08
2.3798308e-08
2.3180019e-08
2.2638586e-08
2.2174624e-08
2.1801226e-08
2.1506183e-08
2.1306603e-08
2.1200852e-08
2.1185858e-08
2.1258543e-08
2.1415005e-08
2.1647007e-08
2.1939504e-08
2.2277771e-08
2.2651654e-08
2.3038781e-08
2.3405885e-08
2.3721286e-08
2.395938e-08
2.4119705e-08
2.4202843e-08
2.4216137e-08
2.4169853e-08
2.4076937e-08
2.3949179e-08
2.3796979e-08
2.3628649e-08
2.3450158e-08
2.3265931e-08
2.307933e-08
2.2892341e-08
2.2706225e-08
2.2522314e-08
2.2340941e-08
2.2162296e-08
2.1986449e-08
2.1806142e-08
2.1621985e-08
2.1436163e-08
2.1249556e-08
2.106261e-08
2.0874602e-08
2.0685252e-08
2.0494507e-08
2.0302331e-08
2.0109034e-08
1.9914693e-08
1.9719751e-08
1.952435e-08
1.932879e-08
1.9133203e-08
1.8938027e-08
1.8742177e-08
1.8548873e-08
1.8346454e-08
1.8169545e-08
1.7915628e-08
1.7772529e-08
1.7384724e-08
1.4111593e-06
1.6301512e-06
1.5385615e-06
1.2880998e-06
1.0362344e-06
8.1133846e-07
6.438161e-07
5.1802074e-07
4.2145637e-07
3.4678368e-07
2.8966599e-07
2.4638938e-07
2.1352457e-07
1.882287e-07
1.6834877e-07
1.5236164e-07
1.3922517e-07
1.2820576e-07
1.1880093e-07
1.1067774e-07
1.0360887e-07
9.741805e-08
9.1971323e-08
8.7170374e-08
8.2843941e-08
7.8911608e-08
7.5329757e-08
7.2076554e-08
6.9138685e-08
6.6504305e-08
6.4165829e-08
6.2120834e-08
6.0368109e-08
5.8906528e-08
5.7737624e-08
5.6866131e-08
5.6299004e-08
5.6048339e-08
5.6134554e-08
5.6586851e-08
5.7442108e-08
5.8745504e-08
6.0552667e-08
6.2928183e-08
6.5953174e-08
6.9710296e-08
7.4258517e-08
7.9650161e-08
8.5898245e-08
9.2995711e-08
1.0091425e-07
1.0965053e-07
1.1901318e-07
1.2878037e-07
1.3873776e-07
1.4856605e-07
1.5779279e-07
1.6599021e-07
1.7290072e-07
1.7849216e-07
1.8287973e-07
1.8625846e-07
1.8881873e-07
1.9063118e-07
1.9185989e-07
1.9264946e-07
1.9311385e-07
1.9333659e-07
1.9337865e-07
1.9328436e-07
1.9308435e-07
1.9279731e-07
1.9244039e-07
1.9202677e-07
1.9156117e-07
1.9104436e-07
1.9046114e-07
1.8965919e-07
1.8870312e-07
1.8764563e-07
1.8650373e-07
1.8528224e-07
1.8398263e-07
1.8261052e-07
1.8117093e-07
1.7967147e-07
1.7811961e-07
1.7652284e-07
1.748894e-07
1.7322593e-07
1.7153918e-07
1.698351e-07
1.6811949e-07
1.6639604e-07
1.6466717e-07
1.6293387e-07
1.6121913e-07
1.592685e-07
1.5790075e-07
1.5465091e-07
1.1014205e-06
1.4048233e-06
1.4358899e-06
1.3410181e-06
1.2076675e-06
1.0741433e-06
9.669501e-07
8.8448749e-07
8.2038033e-07
7.68106e-07
7.2392505e-07
6.7965904e-07
6.3733781e-07
6.0220327e-07
5.724704e-07
5.4692959e-07
5.2489779e-07
5.0588349e-07
4.8952701e-07
4.7559066e-07
4.6391064e-07
4.5434913e-07
4.46808e-07
4.4119491e-07
4.3359688e-07
4.2646213e-07
4.1996152e-07
4.1430386e-07
4.0969507e-07
4.0633322e-07
4.044298e-07
4.0420473e-07
4.0587081e-07
4.0964178e-07
4.1574682e-07
4.2442684e-07
4.359433e-07
4.506308e-07
4.6892245e-07
4.9135231e-07
5.1855353e-07
5.5127202e-07
5.9037997e-07
6.3686956e-07
6.9193906e-07
7.566511e-07
8.3190352e-07
9.1820899e-07
1.0156557e-06
1.1240199e-06
1.2423076e-06
1.3696972e-06
1.5042768e-06
1.6430899e-06
1.7832144e-06
1.9203105e-06
2.0484707e-06
2.1626395e-06
2.2600484e-06
2.3406012e-06
2.4059162e-06
2.4586922e-06
2.4999111e-06
2.5316467e-06
2.5561825e-06
2.575307e-06
2.5903813e-06
2.6023773e-06
2.6119942e-06
2.6197343e-06
2.6259356e-06
2.6307983e-06
2.6345213e-06
2.6372526e-06
2.6390377e-06
2.6398755e-06
2.6395434e-06
2.6357676e-06
2.6296342e-06
2.621905e-06
2.6128127e-06
2.6024234e-06
2.5907717e-06
2.577949e-06
2.5640332e-06
2.5491382e-06
2.533369e-06
2.5168329e-06
2.4996434e-06
2.4818936e-06
2.4636777e-06
2.4450808e-06
2.4261799e-06
2.4070526e-06
2.38767e-06
2.3682888e-06
2.3485614e-06
2.3266161e-06
2.3112166e-06
2.2731622e-06
5.0847934e-07
9.5917909e-07
1.1798297e-06
1.2284978e-06
1.2004445e-06
1.1429219e-06
1.0804234e-06
1.0213737e-06
9.69906e-07
9.3010255e-07
9.0614557e-07
9.0235855e-07
9.0575376e-07
8.576474e-07
8.2193811e-07
7.9451782e-07
7.7450957e-07
7.6001112e-07
7.4999711e-07
7.4383175e-07
7.4111284e-07
7.4155468e-07
7.4498845e-07
7.5125491e-07
7.5982462e-07
7.7018388e-07
7.8219804e-07
7.9608495e-07
8.1223547e-07
8.3112825e-07
8.5331274e-07
8.7940457e-07
9.1007647e-07
9.4606033e-07
9.8815433e-07
1.0372145e-06
1.0942097e-06
1.1604126e-06
1.2374143e-06
1.327112e-06
1.4317049e-06
1.5537145e-06
1.6960121e-06
1.8618195e-06
2.0547624e-06
2.2781591e-06
2.5343017e-06
2.8248116e-06
3.1501787e-06
3.5098108e-06
3.9017549e-06
4.3200791e-06
4.761457e-06
5.2181899e-06
5.681832e-06
6.1407376e-06
6.5797879e-06
6.9850423e-06
7.3474806e-06
7.6642728e-06
7.937939e-06
8.1723696e-06
8.3701934e-06
8.538386e-06
8.6833701e-06
8.8104397e-06
8.9237455e-06
9.0263374e-06
9.1203962e-06
9.2074614e-06
9.2885633e-06
9.3643006e-06
9.4351865e-06
9.5016161e-06
9.563693e-06
9.6213479e-06
9.6741006e-06
9.7003279e-06
9.7154731e-06
9.7243511e-06
9.7276855e-06
9.7257405e-06
9.7186797e-06
9.7068309e-06
9.6904976e-06
9.6700841e-06
9.6459672e-06
9.6185254e-06
9.5881529e-06
9.5551805e-06
9.5199293e-06
9.4827086e-06
9.4437825e-06
9.4034592e-06
9.3615895e-06
9.3193359e-06
9.2747257e-06
9.224264e-06
9.1898718e-06
9.097899e-06
2.2507502e-07
4.2726475e-07
6.98648e-07
8.9332564e-07
9.8970209e-07
1.023529e-06
1.0250495e-06
1.01076e-06
9.8912928e-07
9.6536407e-07
9.4377609e-07
9.2876694e-07
9.2201374e-07
9.2305465e-07
9.3201179e-07
9.4898414e-07
9.692853e-07
9.5328826e-07
9.2966486e-07
9.1681824e-07
9.1363355e-07
9.1846324e-07
9.3038862e-07
9.4878267e-07
9.7328576e-07
1.0037298e-06
1.0384515e-06
1.0775082e-06
1.1214425e-06
1.170787e-06
1.2261445e-06
1.2882497e-06
1.3580126e-06
1.4365548e-06
1.5252419e-06
1.6256874e-06
1.73953e-06
1.8684024e-06
2.0150625e-06
2.1828406e-06
2.3755377e-06
2.5974283e-06
2.853295e-06
3.1484641e-06
3.4887215e-06
3.8789525e-06
4.3212169e-06
4.8166682e-06
5.3660096e-06
5.969106e-06
6.6242616e-06
7.3264511e-06
8.0663119e-06
8.8341844e-06
9.6193952e-06
1.0408146e-05
1.117664e-05
1.1901633e-05
1.25684e-05
1.3170964e-05
1.370804e-05
1.4182302e-05
1.4600069e-05
1.4969734e-05
1.5299897e-05
1.559822e-05
1.5871162e-05
1.6123796e-05
1.6359911e-05
1.6582271e-05
1.6792704e-05
1.6992173e-05
1.7181843e-05
1.736248e-05
1.753425e-05
1.7696955e-05
1.7849728e-05
1.7986778e-05
1.8108047e-05
1.8215059e-05
1.8308885e-05
1.8390127e-05
1.8459132e-05
1.8516474e-05
1.8562795e-05
1.8598901e-05
1.8625617e-05
1.8643757e-05
1.8654186e-05
1.8657664e-05
1.8654852e-05
1.8646479e-05
1.863319e-05
1.8615638e-05
1.8593864e-05
1.8569471e-05
1.8541013e-05
1.8499884e-05
1.8478813e-05
1.840206e-05
1.7530505e-07
2.1588457e-07
3.185656e-07
4.6494394e-07
6.0524479e-07
7.103285e-07
7.7986653e-07
8.2290929e-07
8.4801961e-07
8.6127977e-07
8.6697609e-07
8.6869157e-07
8.6922774e-07
8.7061557e-07
8.746156e-07
8.829059e-07
8.9632816e-07
9.155257e-07
9.4160431e-07
9.7582533e-07
1.0156178e-06
1.0618081e-06
1.0570476e-06
1.0562549e-06
1.0670919e-06
1.088249e-06
1.1197026e-06
1.1617602e-06
1.2149064e-06
1.2798482e-06
1.3575556e-06
1.4493581e-06
1.5571825e-06
1.6840567e-06
1.8350545e-06
2.0182072e-06
2.2360042e-06
2.4752075e-06
2.740802e-06
3.0384646e-06
3.3739866e-06
3.7534793e-06
4.1836877e-06
4.6724962e-06
5.2299126e-06
5.8552271e-06
6.5391317e-06
7.2795375e-06
8.0781671e-06
8.9361671e-06
9.8525656e-06
1.0822787e-05
1.1837007e-05
1.2881833e-05
1.3946014e-05
1.4997432e-05
1.6005243e-05
1.6954189e-05
1.7837749e-05
1.8655411e-05
1.9409334e-05
2.01026e-05
2.0739905e-05
2.1327463e-05
2.1871908e-05
2.2379691e-05
2.2856918e-05
2.3308754e-05
2.3739233e-05
2.4151492e-05
2.454662e-05
2.4924163e-05
2.5288951e-05
2.564169e-05
2.5982181e-05
2.6309725e-05
2.662263e-05
2.691907e-05
2.7195844e-05
2.7451553e-05
2.7686113e-05
2.7899773e-05
2.8092749e-05
2.8265606e-05
2.8419127e-05
2.8554383e-05
2.8672561e-05
2.8774889e-05
2.8862715e-05
2.8937298e-05
2.8999105e-05
2.9049873e-05
2.9090861e-05
2.9123119e-05
2.9147093e-05
2.9164446e-05
2.9175507e-05
2.9165113e-05
2.9174936e-05
2.9133714e-05
1.6890574e-07
1.7480062e-07
1.9622427e-07
2.4158645e-07
3.0835434e-07
3.8392579e-07
4.5671542e-07
5.2094464e-07
5.7519703e-07
6.1994158e-07
6.5622852e-07
6.8539316e-07
7.0890667e-07
7.28219e-07
7.447849e-07
7.6008194e-07
7.7544709e-07
7.9211832e-07
8.1142871e-07
8.3487904e-07
8.6342726e-07
8.9843327e-07
9.4048334e-07
9.8983847e-07
1.0450051e-06
1.1061315e-06
1.1741688e-06
1.2083535e-06
1.2333021e-06
1.2729468e-06
1.3285747e-06
1.402076e-06
1.4959172e-06
1.6131122e-06
1.7575932e-06
1.9348569e-06
2.1514592e-06
2.4125326e-06
2.7239031e-06
3.0927688e-06
3.5277428e-06
4.0392419e-06
4.6406787e-06
5.3514775e-06
6.204292e-06
6.9692142e-06
7.8046137e-06
8.7621413e-06
9.83945e-06
1.1030279e-05
1.2321795e-05
1.3690626e-05
1.510345e-05
1.6563633e-05
1.8073192e-05
1.917786e-05
2.0095396e-05
2.1003215e-05
2.1904291e-05
2.2797659e-05
2.3678179e-05
2.4540848e-05
2.5382065e-05
2.6199252e-05
2.6990865e-05
2.7757412e-05
2.8500687e-05
2.9222307e-05
2.9923859e-05
3.0607098e-05
3.1273265e-05
3.192263e-05
3.2555677e-05
3.3172485e-05
3.3772239e-05
3.4353632e-05
3.4914212e-05
3.5452249e-05
3.596468e-05
3.6448584e-05
3.6902301e-05
3.7325148e-05
3.7716876e-05
3.8077825e-05
3.8408768e-05
3.8710919e-05
3.8985739e-05
3.9234828e-05
3.9460037e-05
3.9663168e-05
3.984593e-05
4.0010074e-05
4.0157242e-05
4.0288932e-05
4.0406248e-05
4.0510613e-05
4.0605077e-05
4.0668407e-05
4.0744907e-05
4.0790003e-05
1.6818094e-07
1.6866158e-07
1.7195726e-07
1.8125875e-07
1.9895112e-07
2.2489515e-07
2.5727371e-07
2.9356846e-07
3.3180099e-07
3.7051375e-07
4.0854451e-07
4.4498166e-07
4.7922278e-07
5.1094923e-07
5.4013886e-07
5.6705334e-07
5.9214904e-07
6.1600827e-07
6.3935662e-07
6.6308318e-07
6.8811478e-07
7.1551284e-07
7.4635648e-07
7.8171456e-07
8.2234777e-07
8.6919893e-07
9.2357783e-07
9.858585e-07
1.0558767e-06
1.1348244e-06
1.2244064e-06
1.3267665e-06
1.4276549e-06
1.4948939e-06
1.5857195e-06
1.7048246e-06
1.8584849e-06
2.0547624e-06
2.3034299e-06
2.6161458e-06
3.0069598e-06
3.4927239e-06
4.0933916e-06
4.8324062e-06
5.7383967e-06
6.7097614e-06
7.7075332e-06
8.8170182e-06
1.004968e-05
1.1405655e-05
1.2869675e-05
1.4406831e-05
1.5971599e-05
1.7626709e-05
1.9392599e-05
2.0669615e-05
2.1768245e-05
2.2849472e-05
2.39238e-05
2.4999834e-05
2.6079851e-05
2.7164756e-05
2.8249757e-05
2.9329445e-05
3.0400358e-05
3.1461295e-05
3.2510727e-05
3.3546485e-05
3.4567999e-05
3.5575568e-05
3.656876e-05
3.7546802e-05
3.8508761e-05
3.9453349e-05
4.0378285e-05
4.1281113e-05
4.2158385e-05
4.3006999e-05
4.3823855e-05
4.4605471e-05
4.5348849e-05
4.6052001e-05
4.6713781e-05
4.7333894e-05
4.791277e-05
4.845146e-05
4.8951391e-05
4.9414296e-05
4.9842358e-05
5.0237798e-05
5.0603027e-05
5.0940231e-05
5.1251491e-05
5.1538711e-05
5.1803779e-05
5.204769e-05
5.227643e-05
5.2464768e-05
5.2652073e-05
5.2845417e-05
1.6814551e-07
1.6787286e-07
1.6803221e-07
1.693464e-07
1.7271265e-07
1.7877098e-07
1.8775305e-07
1.9960436e-07
2.1418728e-07
2.3138476e-07
2.5106298e-07
2.7272886e-07
2.959137e-07
3.201448e-07
3.44986e-07
3.700876e-07
3.9520205e-07
4.2018298e-07
4.4500975e-07
4.6980872e-07
4.9483487e-07
5.2047569e-07
5.4725174e-07
5.7580926e-07
6.068531e-07
6.4118978e-07
6.7980599e-07
7.2367737e-07
7.736953e-07
8.3102007e-07
8.9720095e-07
9.7366973e-07
1.0619406e-06
1.1633753e-06
1.2801837e-06
1.415238e-06
1.5723322e-06
1.7566092e-06
1.9285063e-06
2.121412e-06
2.3731395e-06
2.7010207e-06
3.1275961e-06
3.6821959e-06
4.4018388e-06
5.3211583e-06
6.2975107e-06
7.3654864e-06
8.5758841e-06
9.937973e-06
1.1453394e-05
1.3111383e-05
1.4888087e-05
1.6777051e-05
1.8774943e-05
2.0624195e-05
2.1908903e-05
2.3189181e-05
2.4437473e-05
2.5674497e-05
2.6932737e-05
2.8216572e-05
2.9508113e-05
3.0809488e-05
3.2126732e-05
3.3455358e-05
3.478976e-05
3.612661e-05
3.7465219e-05
3.880343e-05
4.0137413e-05
4.1465076e-05
4.2784577e-05
4.4092515e-05
4.5383795e-05
4.6654011e-05
4.7897882e-05
4.9110163e-05
5.0286772e-05
5.1423576e-05
5.2516398e-05
5.3561921e-05
5.4557794e-05
5.5502602e-05
5.6396025e-05
5.7238539e-05
5.8031084e-05
5.8775135e-05
5.9472895e-05
6.0126724e-05
6.0739321e-05
6.1313289e-05
6.1851072e-05
6.235489e-05
6.2827405e-05
6.3269085e-05
6.3688553e-05
6.405905e-05
6.4408818e-05
6.4820412e-05
1.6818981e-07
1.678141e-07
1.674927e-07
1.6735557e-07
1.6761805e-07
1.6851577e-07
1.7024548e-07
1.7296124e-07
1.7680247e-07
1.8190943e-07
1.8841335e-07
1.9639314e-07
2.0588079e-07
2.1685908e-07
2.2934203e-07
2.4328117e-07
2.585064e-07
2.7485883e-07
2.9221052e-07
3.1047242e-07
3.2960383e-07
3.4962468e-07
3.7062782e-07
3.927924e-07
4.1638194e-07
4.4175373e-07
4.6938719e-07
4.9987358e-07
5.3389619e-07
5.7227603e-07
6.1604118e-07
6.6638399e-07
7.2468819e-07
7.925264e-07
8.7185438e-07
9.6463564e-07
1.0736053e-06
1.2023527e-06
1.3546551e-06
1.5354179e-06
1.7516406e-06
2.0126852e-06
2.3307638e-06
2.721519e-06
3.1865344e-06
3.7661006e-06
4.5195088e-06
5.3773924e-06
6.3846401e-06
7.5557289e-06
8.9030247e-06
1.0432763e-05
1.2141343e-05
1.4023446e-05
1.6074661e-05
1.8246089e-05
2.0452631e-05
2.2482796e-05
2.3872453e-05
2.5254454e-05
2.6658984e-05
2.8073229e-05
2.9487606e-05
3.0934158e-05
3.2433471e-05
3.39545e-05
3.5497138e-05
3.7070826e-05
3.8671919e-05
4.0293085e-05
4.1929858e-05
4.358212e-05
4.5245245e-05
4.6912691e-05
4.8575661e-05
5.0226992e-05
5.1858144e-05
5.3461527e-05
5.5031379e-05
5.6561804e-05
5.8047083e-05
5.9482585e-05
6.0864316e-05
6.2189148e-05
6.3455518e-05
6.4662759e-05
6.581069e-05
6.6900002e-05
6.7932362e-05
6.8909811e-05
6.9834886e-05
7.0710276e-05
7.1538586e-05
7.2322165e-05
7.3064303e-05
7.3764877e-05
7.443456e-05
7.5047154e-05
7.5616015e-05
7.6319812e-05
1.6824335e-07
1.6785074e-07
1.6745954e-07
1.6708836e-07
1.6677815e-07
1.6658687e-07
1.6657927e-07
1.6682269e-07
1.6739022e-07
1.6836379e-07
1.698329e-07
1.7188838e-07
1.7461821e-07
1.7810278e-07
1.8241838e-07
1.8763214e-07
1.9379184e-07
2.0092833e-07
2.0906038e-07
2.1820075e-07
2.2838944e-07
2.3971092e-07
2.5218379e-07
2.6581472e-07
2.8065523e-07
2.9681175e-07
3.1445456e-07
3.3383183e-07
3.5527619e-07
3.7921143e-07
4.0617888e-07
4.3685428e-07
4.7207444e-07
5.1286484e-07
5.605025e-07
6.1649291e-07
6.827216e-07
7.6161274e-07
8.561086e-07
9.6955974e-07
1.1065575e-06
1.2731441e-06
1.4772809e-06
1.7294111e-06
2.0427542e-06
2.4337966e-06
2.9207595e-06
3.519607e-06
4.2476616e-06
5.1234559e-06
6.1661538e-06
7.3937898e-06
8.8204176e-06
1.0456148e-05
1.2308339e-05
1.4364104e-05
1.6579261e-05
1.8900011e-05
2.1256439e-05
2.3633888e-05
2.56045e-05
2.7112202e-05
2.8629344e-05
3.0181829e-05
3.1767924e-05
3.3370693e-05
3.5017423e-05
3.6740748e-05
3.8507485e-05
4.0312524e-05
4.2167493e-05
4.407385e-05
4.6017507e-05
4.7988637e-05
4.9979451e-05
5.1979031e-05
5.3974849e-05
5.5958475e-05
5.7921515e-05
5.9854413e-05
6.1749637e-05
6.3600695e-05
6.5400846e-05
6.7144644e-05
6.8828539e-05
7.0449778e-05
7.2006371e-05
7.3497457e-05
7.4923295e-05
7.6284889e-05
7.758403e-05
7.8822911e-05
8.0003965e-05
8.1129313e-05
8.2202607e-05
8.3223024e-05
8.4202621e-05
8.511711e-05
8.5963725e-05
8.7033575e-05
1.6834506e-07
1.679529e-07
1.6755443e-07
1.6715104e-07
1.6674918e-07
1.6636031e-07
1.6600029e-07
1.6568873e-07
1.6544946e-07
1.6531138e-07
1.6530878e-07
1.6548108e-07
1.6587229e-07
1.6653007e-07
1.6750522e-07
1.6885102e-07
1.7062159e-07
1.7287023e-07
1.7564876e-07
1.7900751e-07
1.8299797e-07
1.8767639e-07
1.9309761e-07
1.9931534e-07
2.0638731e-07
2.1438074e-07
2.2338489e-07
2.3356098e-07
2.4511222e-07
2.5820059e-07
2.73024e-07
2.8986911e-07
3.0912782e-07
3.313162e-07
3.5710768e-07
3.8734639e-07
4.2309379e-07
4.6571247e-07
5.1694071e-07
5.7893849e-07
6.5450824e-07
7.4734417e-07
8.6231204e-07
1.0057553e-06
1.1861855e-06
1.4147574e-06
1.7053822e-06
2.0737441e-06
2.5373727e-06
3.1155602e-06
3.8291886e-06
4.7002408e-06
5.7507383e-06
7.0019615e-06
8.4742964e-06
1.0180738e-05
1.2116635e-05
1.4259708e-05
1.6565889e-05
1.900013e-05
2.1510212e-05
2.4053578e-05
2.6627806e-05
2.8804387e-05
3.0458781e-05
3.2132059e-05
3.3853816e-05
3.5626429e-05
3.7434082e-05
3.9301489e-05
4.1270243e-05
4.3313472e-05
4.5416164e-05
4.7585326e-05
4.9809793e-05
5.2072053e-05
5.4361829e-05
5.6671425e-05
5.8986271e-05
6.1292883e-05
6.3582799e-05
6.5845409e-05
6.8069921e-05
7.0248501e-05
7.237444e-05
7.4441512e-05
7.6445059e-05
7.8381634e-05
8.0249032e-05
8.2046342e-05
8.3773777e-05
8.5432242e-05
8.7023357e-05
8.8548507e-05
9.0011284e-05
9.140991e-05
9.2757155e-05
9.4031209e-05
9.5214167e-05
9.672063e-05
1.685202e-07
1.6817109e-07
1.6780847e-07
1.6743187e-07
1.6704268e-07
1.666436e-07
1.662387e-07
1.6583339e-07
1.6543449e-07
1.650505e-07
1.6469194e-07
1.6437171e-07
1.6410536e-07
1.6391125e-07
1.6381066e-07
1.6382787e-07
1.6399011e-07
1.6432728e-07
1.6487174e-07
1.6565815e-07
1.6672349e-07
1.6810731e-07
1.6985164e-07
1.7200091e-07
1.7460226e-07
1.7770634e-07
1.8136995e-07
1.8566295e-07
1.9067112e-07
1.9649149e-07
2.0323773e-07
2.1104997e-07
2.2010678e-07
2.3068203e-07
2.4315442e-07
2.5787483e-07
2.7527375e-07
2.9595461e-07
3.2073534e-07
3.506991e-07
3.8726869e-07
4.3232548e-07
4.8838251e-07
5.5881454e-07
6.4823678e-07
7.6299108e-07
9.1161298e-07
1.1050799e-06
1.3572581e-06
1.6850258e-06
2.108231e-06
2.6493138e-06
3.3325374e-06
4.1830267e-06
5.226235e-06
6.4860579e-06
7.9800909e-06
9.7156474e-06
1.1684378e-05
1.3869859e-05
1.624109e-05
1.8759804e-05
2.1400464e-05
2.4119974e-05
2.687921e-05
2.9681748e-05
3.2156597e-05
3.3987284e-05
3.5841231e-05
3.7757035e-05
3.9739257e-05
4.1769017e-05
4.38786e-05
4.6121594e-05
4.8443184e-05
5.083403e-05
5.3307273e-05
5.5843698e-05
5.8420465e-05
6.1028299e-05
6.3656601e-05
6.6286326e-05
6.8904407e-05
7.1500788e-05
7.4063255e-05
7.6581297e-05
7.9046726e-05
8.1452084e-05
8.3791662e-05
8.6061631e-05
8.8259442e-05
9.0383626e-05
9.2434014e-05
9.4410452e-05
9.6315738e-05
9.8146612e-05
9.9915799e-05
0.00010160382
0.00010318057
0.00010518879
1.6867636e-07
1.6839175e-07
1.6809264e-07
1.6777758e-07
1.6744646e-07
1.6709994e-07
1.6673933e-07
1.6636644e-07
1.6598331e-07
1.6559232e-07
1.6519628e-07
1.6479867e-07
1.6440396e-07
1.6401774e-07
1.6364698e-07
1.6330021e-07
1.6298765e-07
1.6272138e-07
1.6251544e-07
1.623859e-07
1.62351e-07
1.624312e-07
1.626493e-07
1.6303057e-07
1.636028e-07
1.643965e-07
1.6544539e-07
1.6678759e-07
1.6846673e-07
1.705328e-07
1.7304374e-07
1.7606793e-07
1.7968738e-07
1.8400715e-07
1.8916511e-07
1.9532725e-07
2.0269628e-07
2.1153086e-07
2.2218442e-07
2.3521249e-07
2.5122581e-07
2.7093567e-07
2.953642e-07
3.2595301e-07
3.6473205e-07
4.1455601e-07
4.7943498e-07
5.6495353e-07
6.7884385e-07
8.3164903e-07
1.0373982e-06
1.314178e-06
1.684525e-06
2.1749622e-06
2.8148004e-06
3.6340158e-06
4.6599475e-06
5.9137612e-06
7.407429e-06
9.145195e-06
1.1122013e-05
1.3323724e-05
1.5734188e-05
1.8326101e-05
2.1064669e-05
2.3929729e-05
2.6886966e-05
2.9893723e-05
3.295836e-05
3.5735843e-05
3.7768276e-05
3.9817335e-05
4.1935794e-05
4.4133483e-05
4.6390998e-05
4.87594e-05
5.1283388e-05
5.3894448e-05
5.6591108e-05
5.9383254e-05
6.224135e-05
6.5141437e-05
6.8076501e-05
7.1029685e-05
7.3980906e-05
7.6917383e-05
7.9825437e-05
8.2692352e-05
8.5508366e-05
8.8265397e-05
9.0956597e-05
9.3576805e-05
9.6122748e-05
9.8591513e-05
0.00010098395
0.00010329444
0.00010553464
0.00010768661
0.0001097125
0.00011228026
1.6876853e-07
1.6852887e-07
1.682789e-07
1.6801681e-07
1.677417e-07
1.6745317e-07
1.6715139e-07
1.668369e-07
1.6651037e-07
1.6617244e-07
1.6582372e-07
1.6546487e-07
1.6509675e-07
1.6472055e-07
1.6433789e-07
1.6395096e-07
1.635626e-07
1.6317645e-07
1.6279708e-07
1.6243008e-07
1.6208225e-07
1.6176167e-07
1.6147788e-07
1.61242e-07
1.6106688e-07
1.609672e-07
1.6095975e-07
1.6106364e-07
1.613007e-07
1.6169587e-07
1.6227784e-07
1.6307984e-07
1.6414063e-07
1.6550644e-07
1.6723394e-07
1.6939245e-07
1.7206686e-07
1.7536269e-07
1.7941533e-07
1.8441003e-07
1.905837e-07
1.9823495e-07
2.0775926e-07
2.1971479e-07
2.3499261e-07
2.5463272e-07
2.8005335e-07
3.1339232e-07
3.5780484e-07
4.1789125e-07
5.0028544e-07
6.1448315e-07
7.7393908e-07
9.9725627e-07
1.3091198e-06
1.7403238e-06
2.3261315e-06
3.1016384e-06
4.0956518e-06
5.326882e-06
6.8037437e-06
8.5269313e-06
1.049453e-05
1.270004e-05
1.5130078e-05
1.7771113e-05
2.060077e-05
2.3584955e-05
2.6706558e-05
2.9936235e-05
3.3227732e-05
3.6592349e-05
3.9598484e-05
4.1819799e-05
4.4076085e-05
4.641907e-05
4.8851226e-05
5.1351175e-05
5.401285e-05
5.6840221e-05
5.9757775e-05
6.278125e-05
6.5909418e-05
6.9103561e-05
7.2343578e-05
7.5618716e-05
7.8904076e-05
8.2183679e-05
8.5443502e-05
8.8669006e-05
9.1847863e-05
9.4969762e-05
9.8026915e-05
0.00010101196
0.00010392235
0.00010674882
0.00010950051
0.00011215984
0.00011468577
0.0001178609
1.6881482e-07
1.685985e-07
1.6837556e-07
1.6814457e-07
1.6790457e-07
1.6765487e-07
1.6739518e-07
1.6712555e-07
1.668462e-07
1.6655729e-07
1.662589e-07
1.6595103e-07
1.6563363e-07
1.6530668e-07
1.6497026e-07
1.6462457e-07
1.6426998e-07
1.6390713e-07
1.6353693e-07
1.6316071e-07
1.6278021e-07
1.6239774e-07
1.6201625e-07
1.6163939e-07
1.6127171e-07
1.6091869e-07
1.6058691e-07
1.6028421e-07
1.6001985e-07
1.598047e-07
1.5965149e-07
1.5957519e-07
1.5959327e-07
1.5972634e-07
1.5999894e-07
1.6044053e-07
1.6108665e-07
1.6198054e-07
1.6317572e-07
1.6474047e-07
1.6676196e-07
1.6935143e-07
1.7265343e-07
1.7686132e-07
1.8225068e-07
1.8919122e-07
1.9818883e-07
2.0996864e-07
2.2570755e-07
2.4708287e-07
2.7634039e-07
3.1699619e-07
3.7445761e-07
4.5692879e-07
5.766757e-07
7.5167633e-07
1.0073367e-06
1.3771399e-06
1.9006424e-06
2.6177753e-06
3.561375e-06
4.7511827e-06
6.1946472e-06
7.8917372e-06
9.8395241e-06
1.2036521e-05
1.4479199e-05
1.7155968e-05
2.00551e-05
2.3156802e-05
2.6425898e-05
2.9846553e-05
3.3385879e-05
3.6997832e-05
4.0696013e-05
4.3788171e-05
4.6218463e-05
4.8700856e-05
5.1290334e-05
5.3972163e-05
5.6741883e-05
5.97297e-05
6.2879325e-05
6.6136814e-05
6.9514137e-05
7.2993635e-05
7.6534677e-05
8.0127625e-05
8.3751244e-05
8.7381762e-05
9.1002354e-05
9.4595558e-05
9.8148221e-05
0.00010164645
0.00010508304
0.00010844347
0.00011173246
0.00011493143
0.00011799828
0.00012181439
1.6883654e-07
1.6863099e-07
1.6842087e-07
1.6820524e-07
1.6798334e-07
1.6775456e-07
1.6751856e-07
1.6727526e-07
1.6702472e-07
1.6676704e-07
1.6650222e-07
1.6623018e-07
1.6595077e-07
1.656638e-07
1.6536904e-07
1.6506628e-07
1.6475533e-07
1.6443603e-07
1.6410829e-07
1.6377211e-07
1.6342762e-07
1.630751e-07
1.6271503e-07
1.6234816e-07
1.6197554e-07
1.615986e-07
1.6121921e-07
1.6083978e-07
1.6046335e-07
1.6009369e-07
1.5973544e-07
1.5939423e-07
1.5907687e-07
1.5879158e-07
1.5854823e-07
1.5835872e-07
1.5823742e-07
1.5820172e-07
1.5827283e-07
1.5847699e-07
1.5884693e-07
1.594238e-07
1.6026003e-07
1.614236e-07
1.6300545e-07
1.6512816e-07
1.6795911e-07
1.7173248e-07
1.7679697e-07
1.8366703e-07
1.9308567e-07
2.0617875e-07
2.2481776e-07
2.5184067e-07
2.9143207e-07
3.5039605e-07
4.3952862e-07
5.7540872e-07
7.8235971e-07
1.0936464e-06
1.5504604e-06
2.1971488e-06
3.0724913e-06
4.2021644e-06
5.5963779e-06
7.2555181e-06
9.1776524e-06
1.1361549e-05
1.3808744e-05
1.6518703e-05
1.9480206e-05
2.2681547e-05
2.610031e-05
2.9699149e-05
3.3463014e-05
3.7344478e-05
4.1310573e-05
4.5375372e-05
4.8389052e-05
5.1037955e-05
5.3767345e-05
5.6620155e-05
5.9562048e-05
6.2675766e-05
6.6010012e-05
6.9495971e-05
7.3116279e-05
7.6869461e-05
8.07201e-05
8.4636698e-05
8.8602021e-05
9.2587772e-05
9.6576465e-05
0.00010054545
0.00010448257
0.00010836593
0.00011219386
0.0001159458
0.00011957405
0.00012404411
1.6884606e-07
1.6864512e-07
1.6844062e-07
1.6823193e-07
1.6801851e-07
1.6779991e-07
1.6757582e-07
1.6734616e-07
1.6711098e-07
1.6687037e-07
1.6662436e-07
1.6637293e-07
1.66116e-07
1.6585341e-07
1.6558501e-07
1.653106e-07
1.6502996e-07
1.6474287e-07
1.6444909e-07
1.641484e-07
1.6384057e-07
1.6352542e-07
1.6320278e-07
1.6287257e-07
1.6253475e-07
1.6218941e-07
1.6183676e-07
1.614772e-07
1.6111134e-07
1.6074003e-07
1.6036448e-07
1.5998627e-07
1.5960748e-07
1.5923072e-07
1.5885932e-07
1.5849741e-07
1.5815014e-07
1.5782383e-07
1.5752632e-07
1.5726727e-07
1.570587e-07
1.5691556e-07
1.568567e-07
1.5690607e-07
1.5709466e-07
1.574633e-07
1.580667e-07
1.5897977e-07
1.6030883e-07
1.6220814e-07
1.6490329e-07
1.687322e-07
1.7422789e-07
1.8222724e-07
1.940345e-07
2.1176237e-07
2.3914212e-07
2.8177209e-07
3.4875939e-07
4.5461794e-07
6.2129681e-07
8.7996465e-07
1.2711116e-06
1.8414165e-06
2.636338e-06
3.690307e-06
5.021185e-06
6.6327288e-06
8.523254e-06
1.0693303e-05
1.3145289e-05
1.5883678e-05
1.8908011e-05
2.2204814e-05
2.5760798e-05
2.9544147e-05
3.3518429e-05
3.7669693e-05
4.1924643e-05
4.6277523e-05
5.0561835e-05
5.3458031e-05
5.6339236e-05
5.9339738e-05
6.2464339e-05
6.5694307e-05
6.9204648e-05
7.2911024e-05
7.6789131e-05
8.0813907e-05
8.4967061e-05
8.9207954e-05
9.3517302e-05
9.7863348e-05
0.00010222908
0.00010658279
0.00011091512
0.00011520274
0.00011937912
0.00012448581
1.6884964e-07
1.6865046e-07
1.6844817e-07
1.6824237e-07
1.6803268e-07
1.6781874e-07
1.6760032e-07
1.6737735e-07
1.6714988e-07
1.6691799e-07
1.6668175e-07
1.6644118e-07
1.6619626e-07
1.6594693e-07
1.6569312e-07
1.6543471e-07
1.6517156e-07
1.6490354e-07
1.6463048e-07
1.643522e-07
1.640685e-07
1.637792e-07
1.6348408e-07
1.6318293e-07
1.6287553e-07
1.6256171e-07
1.6224127e-07
1.6191407e-07
1.6158002e-07
1.6123908e-07
1.6089133e-07
1.6053694e-07
1.6017623e-07
1.5980974e-07
1.5943822e-07
1.5906273e-07
1.586847e-07
1.58306e-07
1.5792905e-07
1.5755696e-07
1.5719369e-07
1.5684424e-07
1.5651497e-07
1.5621395e-07
1.5595153e-07
1.5574115e-07
1.5560052e-07
1.5555339e-07
1.5563251e-07
1.5588424e-07
1.5637547e-07
1.572051e-07
1.5852447e-07
1.6057008e-07
1.6371552e-07
1.6856543e-07
1.7614895e-07
1.8814803e-07
2.0736176e-07
2.386787e-07
2.8977877e-07
3.7287366e-07
5.0704168e-07
7.2027473e-07
1.0507819e-06
1.5456181e-06
2.2552265e-06
3.223962e-06
4.4803859e-06
6.0359659e-06
7.8913646e-06
1.0046514e-05
1.2506045e-05
1.5275492e-05
1.8360767e-05
2.1756896e-05
2.5446545e-05
2.9413819e-05
3.3610216e-05
3.8004799e-05
4.2575491e-05
4.7234302e-05
5.2004689e-05
5.5901508e-05
5.9015172e-05
6.2167357e-05
6.5474614e-05
6.8885697e-05
7.2541213e-05
7.6453852e-05
8.0570901e-05
8.4869258e-05
8.9317692e-05
9.3888258e-05
9.8552484e-05
0.00010327044
0.00010802334
0.00011278413
0.00011745469
0.00012313255
1.6885036e-07
1.6865165e-07
1.6845003e-07
1.6824524e-07
1.6803702e-07
1.6782509e-07
1.6760926e-07
1.6738947e-07
1.6716577e-07
1.6693822e-07
1.667069e-07
1.6647186e-07
1.6623312e-07
1.6599068e-07
1.657445e-07
1.6549454e-07
1.6524074e-07
1.6498304e-07
1.6472134e-07
1.6445556e-07
1.6418558e-07
1.6391128e-07
1.6363252e-07
1.6334917e-07
1.6306106e-07
1.6276802e-07
1.6246987e-07
1.6216643e-07
1.6185752e-07
1.6154295e-07
1.6122253e-07
1.6089613e-07
1.6056361e-07
1.6022488e-07
1.5987993e-07
1.5952881e-07
1.591717e-07
1.5880889e-07
1.5844088e-07
1.5806839e-07
1.5769242e-07
1.5731431e-07
1.569359e-07
1.5655956e-07
1.5618842e-07
1.5582658e-07
1.5547945e-07
1.5515424e-07
1.5486077e-07
1.5461271e-07
1.5442951e-07
1.5433949e-07
1.5438514e-07
1.5463197e-07
1.5518305e-07
1.5620445e-07
1.5797352e-07
1.6095402e-07
1.6592903e-07
1.7425549e-07
1.8821558e-07
2.1162396e-07
2.5107804e-07
3.1680231e-07
4.2496269e-07
6.0012446e-07
8.7724512e-07
1.3021667e-06
1.9283004e-06
2.8084554e-06
3.9840927e-06
5.4770554e-06
7.2940161e-06
9.4352555e-06
1.1904894e-05
1.4711304e-05
1.7861506e-05
2.1360529e-05
2.519292e-05
2.9336132e-05
3.3766062e-05
3.8419905e-05
4.3276181e-05
4.8269754e-05
5.3368116e-05
5.845015e-05
6.1820472e-05
6.5169005e-05
6.8628318e-05
7.2231608e-05
7.6027628e-05
8.014881e-05
8.4484304e-05
8.9068812e-05
9.3831762e-05
9.87455e-05
0.00010377322
0.00010888455
0.00011395815
0.00012006657
1.6884978e-07
1.6865096e-07
1.6844934e-07
1.6824472e-07
1.6803691e-07
1.6782572e-07
1.6761098e-07
1.6739265e-07
1.6717075e-07
1.6694534e-07
1.6671649e-07
1.6648425e-07
1.6624865e-07
1.6600973e-07
1.6576748e-07
1.655219e-07
1.6527296e-07
1.6502066e-07
1.6476496e-07
1.6450581e-07
1.6424317e-07
1.6397698e-07
1.6370718e-07
1.6343369e-07
1.6315644e-07
1.6287531e-07
1.6259022e-07
1.6230103e-07
1.6200763e-07
1.6170987e-07
1.6140761e-07
1.6110069e-07
1.6078895e-07
1.6047222e-07
1.6015035e-07
1.5982319e-07
1.5949059e-07
1.5915247e-07
1.5880875e-07
1.5845943e-07
1.5810458e-07
1.5774439e-07
1.5737917e-07
1.570094e-07
1.5663579e-07
1.5625935e-07
1.5588147e-07
1.5550405e-07
1.5512975e-07
1.5476228e-07
1.5440692e-07
1.5407139e-07
1.5376716e-07
1.5351176e-07
1.5333265e-07
1.5327388e-07
1.534082e-07
1.5385776e-07
1.5483025e-07
1.5668539e-07
1.6004451e-07
1.6597606e-07
1.7634272e-07
1.9426566e-07
2.2494889e-07
2.7725905e-07
3.6473286e-07
5.0862247e-07
7.4038045e-07
1.103433e-06
1.6523094e-06
2.4463432e-06
3.5388248e-06
4.9655904e-06
6.7416605e-06
8.8706724e-06
1.1355207e-05
1.4205206e-05
1.7430201e-05
2.1035287e-05
2.5018897e-05
2.9351953e-05
3.4007599e-05
3.8934439e-05
4.408506e-05
4.9435012e-05
5.48767e-05
6.044177e-05
6.4719357e-05
6.8306053e-05
7.1947706e-05
7.5749955e-05
7.9690441e-05
8.4024697e-05
8.861397e-05
9.3488908e-05