/*--------------------------------*- C++ -*----------------------------------*\
| =========                 |                                                 |
| \\      /  F ield         | OpenFOAM: The Open Source CFD Toolbox           |
|  \\    /   O peration     | Version:  2206                                  |
|   \\  /    A nd           | Website:  www.openfoam.com                      |
|    \\/     M anipulation  |                                                 |
\*---------------------------------------------------------------------------*/
FoamFile
{
    version     2.0;
    format      ascii;
    arch        "LSB;label=32;scalar=64";
    class       volScalarField;
    location    "700";
    object      omega;
}
// * * * * * * * * * * * * * * * * * * * * * * * * * * * * * * * * * * * * * //

dimensions      [0 0 -1 0 0 0 0];

internalField   nonuniform List<scalar> 
7480
(
7569.1036
7590.8122
7571.1095
7538.154
7512.5642
7498.0758
7491.1188
7487.7286
7485.8494
7484.6257
7483.6803
7482.8694
7482.1629
7481.5516
7481.0215
7480.5597
7480.1562
7479.8018
7479.4866
7479.204
7478.9504
7478.7213
7478.5131
7478.3233
7478.1499
7477.9908
7477.8443
7477.7091
7477.5843
7477.4688
7477.3617
7477.2625
7477.1705
7477.0852
7477.0061
7476.9329
7476.8651
7476.8026
7476.7452
7476.6926
7476.6449
7476.602
7476.5638
7476.5304
7476.5017
7476.4786
7476.4604
7476.4481
7476.4416
7476.4406
7476.4451
7476.4548
7476.4691
7476.4872
7476.5081
7476.5312
7476.5551
7476.5778
7476.5973
7476.612
7476.6219
7476.6271
7476.6279
7476.625
7476.6193
7476.6114
7476.602
7476.5916
7476.5806
7476.5692
7476.5577
7476.5461
7476.5346
7476.5233
7476.5121
7476.501
7476.4902
7476.479
7476.4677
7476.4562
7476.4446
7476.4331
7476.4215
7476.4098
7476.398
7476.3861
7476.3742
7476.3622
7476.3501
7476.3381
7476.326
7476.3139
7476.3019
7476.2898
7476.2778
7476.2653
7476.2544
7476.2387
7476.2299
7476.2059
1003.2428
1574.4089
1842.5128
1920.8059
1937.0647
1923.891
1863.1815
1797.8229
1744.1949
1704.0038
1673.3606
1647.7027
1624.4835
1603.0728
1583.2795
1564.8967
1547.8495
1532.2294
1517.874
1504.5666
1492.2155
1480.7971
1470.2035
1460.3221
1451.1069
1442.5313
1434.5236
1427.0156
1419.976
1413.3813
1407.1892
1401.3643
1395.8904
1390.751
1385.9219
1381.3847
1377.1303
1373.1472
1369.4217
1365.9457
1362.7177
1359.735
1356.9947
1354.5006
1352.2432
1350.2377
1348.4825
1346.9745
1345.7314
1344.7461
1344.039
1343.6435
1343.4543
1343.4388
1343.5595
1343.778
1344.0517
1344.3211
1344.5276
1344.6218
1344.58
1344.3986
1344.1239
1343.747
1343.2669
1342.707
1342.0889
1341.4331
1340.7555
1340.0678
1339.3788
1338.6955
1338.0213
1337.3595
1336.7126
1336.0803
1335.4655
1334.859
1334.2563
1333.6587
1333.0662
1332.4789
1331.8963
1331.3158
1330.7371
1330.1589
1329.5815
1329.0048
1328.4289
1327.8547
1327.282
1326.7114
1326.1436
1325.5773
1325.017
1324.4457
1323.9012
1323.3377
1322.6621
1322.0508
190.66608
396.63099
585.9581
709.20652
769.25867
785.38462
782.09054
789.21518
803.68322
812.84633
819.32947
823.54723
825.04674
824.15007
821.42261
817.40401
811.9423
805.28907
797.70242
789.40058
780.59601
771.49289
762.23488
752.92592
743.67079
734.56394
725.62135
716.84329
708.24587
699.85262
691.67797
683.73189
676.02798
668.5787
661.3913
654.47371
647.83568
641.47734
635.39588
629.59197
624.07171
618.84276
613.91264
609.29258
604.98977
601.00267
597.34287
593.98191
590.90933
588.11747
585.64303
583.49105
581.55562
579.80252
578.20676
576.71512
575.26569
573.81775
572.36101
570.89506
569.41551
567.90876
566.45724
565.01223
563.55595
562.09109
560.62382
559.16302
557.71701
556.29276
554.89571
553.53032
552.19971
550.90592
549.65077
548.43336
547.25447
546.13629
545.06238
544.01984
543.00203
542.00576
541.02921
540.06878
539.12252
538.18814
537.26439
536.35035
535.44513
534.54874
533.66041
532.7802
531.90823
531.04287
530.18805
529.32732
528.49295
527.65639
526.73791
525.65117
72.002825
121.36433
193.99483
267.72393
324.6258
359.73594
377.80566
386.78079
392.45175
397.56849
404.51904
415.2283
426.20995
437.93391
452.28096
470.55234
485.14306
496.53474
505.30505
511.86418
516.53633
519.61313
521.35371
522.02753
521.95038
521.36853
520.01116
517.82627
514.90183
511.36201
507.32598
502.89755
498.16758
493.21651
488.11893
482.94922
477.75497
472.51919
467.24153
461.93912
456.6382
451.36645
446.14922
441.011
435.98063
431.04837
426.19898
421.39664
416.62941
411.90617
407.24921
402.75745
398.33248
393.98563
389.75242
385.58782
381.45643
377.40289
373.51323
369.85637
366.45196
363.31696
360.48595
357.88378
355.46085
353.18172
351.01935
348.95496
346.97568
345.0728
343.24023
341.47441
339.77321
338.13428
336.55601
335.0358
333.57277
332.19207
330.886
329.639
328.44087
327.28612
326.172
325.0947
324.05133
323.03863
322.05388
321.09475
320.15884
319.24465
318.35026
317.47445
316.61604
315.77308
314.94683
314.12768
313.3245
312.57332
311.72015
310.75998
55.641971
64.532426
83.910706
111.34948
140.42184
165.52897
184.58348
198.13239
207.74312
214.78954
220.4218
225.66458
230.96107
236.83309
244.10041
253.54861
263.34615
273.15015
282.74644
292.00443
300.83073
309.30562
317.72247
326.71453
337.34688
349.83474
359.6946
366.92628
372.20812
375.99042
378.57944
380.19636
381.01958
381.21678
380.97887
380.51728
379.80994
378.46465
376.4777
373.93396
370.92867
367.54438
363.84903
359.90391
355.78272
351.48531
346.94794
342.14831
337.11349
331.88841
326.52191
321.07422
315.6186
310.16502
304.74966
299.32658
293.92129
288.65691
283.65253
278.98745
274.725
270.8796
267.41085
264.26216
261.37986
258.71745
256.23536
253.90252
251.69527
249.59582
247.59138
245.67391
243.83616
242.0723
240.37828
238.75027
237.18717
235.69185
234.26713
232.90896
231.61157
230.3705
229.18313
228.04617
226.95671
225.91137
224.90691
223.94031
223.0084
222.10866
221.23871
220.39631
219.57923
218.78522
218.01374
217.25948
216.51882
215.85077
215.1018
214.28293
53.509868
54.437441
58.088328
65.265559
75.158512
86.041925
96.434248
105.64159
113.54158
120.26102
125.96647
130.87255
135.184
139.11286
142.9419
147.01008
151.41855
156.26954
161.70903
167.81741
174.15603
180.72343
187.52525
194.61362
202.10067
210.06989
218.05228
225.69004
232.80896
239.34801
245.32075
250.80672
255.97691
261.16143
266.97047
274.12427
281.53762
286.10748
288.75375
290.08337
290.45039
290.07193
289.10074
287.68298
285.99877
284.19738
281.83237
278.80922
275.22938
271.20099
266.82412
262.19688
257.41962
252.52381
247.56172
242.60591
237.71095
232.9603
228.43433
224.18383
220.23015
216.58031
213.21728
210.11283
207.2371
204.55976
202.05175
199.68894
197.45115
195.32185
193.28848
191.3428
189.47736
187.68625
185.9652
184.31029
182.72059
181.19102
179.72301
178.31815
176.97551
175.69312
174.46934
173.30177
172.18795
171.12489
170.10953
169.13875
168.20922
167.31805
166.46245
165.63981
164.84753
164.08318
163.34534
162.63061
161.93195
161.30327
160.63184
159.89029
53.224406
52.808843
52.95921
54.085331
56.273394
59.363839
62.973458
66.789356
70.617738
74.355876
77.933648
81.30502
84.448247
87.361272
90.075002
92.658105
95.18075
97.713518
100.3405
103.15231
106.19199
109.5276
113.24205
117.38625
121.86443
126.72594
131.94115
137.42615
143.08418
148.83129
154.59495
160.31804
165.96938
171.55898
177.1424
182.82563
188.52957
193.80479
198.43916
202.38777
205.68721
208.42495
210.75286
212.95023
215.48152
218.48038
219.85638
219.6739
218.49283
216.62655
214.29544
211.69924
209.00552
205.97683
202.55825
199.05357
195.61596
192.29228
189.04192
185.87381
182.81512
179.87976
177.06881
174.38444
171.82699
169.38931
167.06182
164.83768
162.70756
160.6625
158.69544
156.80156
154.97696
153.21892
151.52501
149.89229
148.32044
146.80529
145.34555
143.94288
142.59842
141.3122
140.0838
138.91179
137.79432
136.72909
135.71355
134.74494
133.8201
132.9362
132.0903
131.27978
130.50214
129.75497
129.03654
128.34415
127.67136
127.05887
126.43677
125.73452
53.162268
52.54263
52.020904
51.712798
51.712109
52.046943
52.632982
53.45505
54.479275
55.668302
56.982462
58.383848
59.837213
61.309657
62.775858
64.223236
65.64969
67.060303
68.469476
69.90127
71.381702
72.942063
74.622396
76.468344
78.51644
80.818284
83.430742
86.357683
89.553783
93.017223
96.737644
100.69539
104.86746
109.2343
113.7869
118.52585
123.43123
128.41043
133.35935
138.18169
142.79671
147.14245
151.17569
154.88057
158.27936
161.33808
163.88123
165.76882
167.00121
167.67164
167.93277
167.9847
167.97861
167.24552
165.73313
163.88446
162.05707
160.2764
158.3205
156.29126
154.25119
152.19981
150.1328
148.07208
146.0345
144.02385
142.04647
140.11456
138.22657
136.38303
134.58558
132.8355
131.13345
129.48239
127.88297
126.33365
124.83574
123.3876
121.98725
120.63555
119.33407
118.08398
116.88587
115.73933
114.64321
113.59615
112.5965
111.64217
110.73043
109.85894
109.02509
108.22651
107.46109
106.72661
106.02143
105.34319
104.68724
104.08158
103.48944
102.80759
53.125912
52.475621
51.839143
51.240792
50.710924
50.272366
49.929337
49.684136
49.538892
49.482842
49.493727
49.598108
49.795892
50.077109
50.428215
50.836118
51.290591
51.783469
52.30949
52.867312
53.458741
54.088461
54.76521
55.502339
56.316042
57.227177
58.262326
59.447372
60.803803
62.357467
64.138443
66.149385
68.387576
70.859354
73.576133
76.546774
79.777666
83.26148
86.97554
90.889088
94.966273
99.16662
103.44613
107.75873
112.06443
116.26368
120.21212
123.79817
126.93316
129.56075
131.65424
133.21595
134.27672
134.88323
135.04294
134.79413
134.37533
133.84608
132.996
132.01269
130.99162
129.84548
128.54532
127.16247
125.72263
124.22523
122.69252
121.14329
119.58433
118.02507
116.47484
114.94118
113.42929
111.95153
110.5101
109.10313
107.73521
106.40594
105.11321
103.85825
102.64269
101.46801
100.33542
99.245417
98.197334
97.191187
96.226532
95.302127
94.415737
93.565899
92.750769
91.968441
91.217584
90.496269
89.803222
89.136492
88.493305
87.891818
87.318165
86.648232
53.095893
52.439074
51.783014
51.131571
50.491577
49.870374
49.27348
48.70554
48.171335
47.674635
47.216996
46.802496
46.434724
46.115391
45.829958
45.572534
45.355771
45.185119
45.060776
44.981217
44.944346
44.947728
44.990464
45.07404
45.2019
45.379451
45.614612
45.917295
46.298826
46.772569
47.354763
48.061427
48.909098
49.917238
51.109566
52.492617
54.083291
55.900243
57.955036
60.256474
62.813763
65.633649
68.720324
72.075268
75.698415
79.569124
83.60448
87.702364
91.758579
95.66587
99.318875
102.61918
105.48245
107.85314
109.69268
110.92358
111.55348
111.75995
111.74259
111.56193
111.32341
110.95995
110.41859
109.77055
109.01361
108.09142
107.06753
105.96659
104.79408
103.5715
102.31533
101.04101
99.758915
98.501305
97.262958
96.04135
94.839888
93.66042
92.503133
91.369579
90.261619
89.181049
88.12979
87.109248
86.118905
85.160401
84.235903
83.344943
82.485945
81.658178
80.860742
80.092396
79.353054
78.640941
77.955405
77.29508
76.658732
76.057632
75.492813
74.827813
53.069536
52.409336
51.748107
51.086114
50.424482
49.764755
49.108698
48.458346
47.816103
47.184577
46.566238
45.96364
45.379364
44.815819
44.273721
43.753199
43.255646
42.782854
42.33644
41.917572
41.521872
41.139043
40.773884
40.435892
40.131093
39.862989
39.634202
39.447009
39.303894
39.208944
39.168262
39.189291
39.280758
39.452956
39.718268
40.089271
40.58096
41.21169
42.001471
42.961498
44.111881
45.47463
47.073804
48.935584
51.088493
53.563039
56.377943
59.521543
62.964239
66.653075
70.510548
74.434858
78.303272
81.985563
85.358709
88.281476
90.623683
92.355422
93.518745
94.222314
94.586401
94.755215
94.783979
94.708784
94.544679
94.221829
93.781554
93.223674
92.517961
91.712456
90.827422
89.891655
88.915
87.932073
86.936492
85.92932
84.916348
83.901556
82.888042
81.87964
80.879669
79.89127
78.917881
77.962309
77.026232
76.112027
75.222212
74.35801
73.519739
72.707701
71.921947
71.162218
70.428489
69.720079
69.036956
68.37813
67.743671
67.140141
66.577614
65.912947
53.031534
52.367454
51.702508
51.036457
50.369286
49.701039
49.031978
48.362697
47.694116
47.027378
46.363725
45.704467
45.050983
44.404702
43.766941
43.13888
42.521711
41.916666
41.325002
40.74796
40.186225
39.639411
39.107679
38.592157
38.094466
37.61638
37.158998
36.716526
36.283796
35.869395
35.483735
35.134008
34.825334
34.561722
34.346876
34.185974
34.086073
34.05617
34.107082
34.250289
34.499657
34.872326
35.387898
36.066206
36.935306
38.029685
39.388892
41.051814
43.054472
45.424553
48.174387
51.292545
54.735139
58.421226
62.236156
66.026456
69.604426
72.796827
75.473386
77.596784
79.179044
80.298454
81.053214
81.521432
81.793377
81.934785
81.957261
81.882938
81.675413
81.356545
80.921336
80.392401
79.789548
79.120567
78.393263
77.621119
76.81455
75.979728
75.12311
74.251502
73.370269
72.484454
71.599295
70.718983
69.84693
68.98675
68.141632
67.313974
66.505488
65.717451
64.950811
64.206168
63.484033
62.784504
62.107966
61.453811
60.823125
60.219599
59.658889
58.995649
52.97316
52.293987
51.616302
50.939749
50.263908
49.588274
48.912483
48.236463
47.560433
46.884798
46.210049
45.53672
44.865388
44.196681
43.531268
42.869846
42.213149
41.56195
40.917057
40.279318
39.649558
39.028481
38.416734
37.815017
37.224118
36.644911
36.078287
35.524447
34.983044
34.454677
33.940996
33.444219
32.966497
32.50397
32.049777
31.61377
31.208364
30.841617
30.519138
30.244959
30.024045
29.864074
29.775035
29.768972
29.861285
30.07227
30.427295
30.956404
31.69824
32.698061
34.005857
35.672054
37.740216
40.235656
43.153081
46.441918
49.992124
53.639594
57.187217
60.457929
63.314506
65.687972
67.582689
69.023777
70.071583
70.813801
71.307276
71.623873
71.814168
71.885615
71.858152
71.720637
71.491708
71.181301
70.76989
70.282794
69.733324
69.126334
68.47021
67.774811
67.047818
66.296125
65.527172
64.746893
63.960625
63.173827
62.390804
61.615258
60.85033
60.0984
59.361476
58.641103
57.938518
57.254619
56.590362
55.945677
55.322491
54.722757
54.165471
53.505732
52.922295
52.222263
51.524648
50.829473
50.136528
49.445385
48.755628
48.067032
47.379606
46.693532
46.009067
45.326492
44.646101
43.9682
43.293108
42.621156
41.952692
41.288082
40.627712
39.971988
39.32134
38.676199
38.037006
37.40421
36.778289
36.159745
35.549116
34.946903
34.353518
33.769391
33.195081
32.631323
32.078984
31.538407
31.009161
30.491967
29.988829
29.502369
29.033478
28.572453
28.123705
27.70258
27.318909
26.978883
26.687153
26.450864
26.281137
26.192954
26.206348
26.347907
26.651799
27.160531
27.927535
29.014078
30.48336
32.388829
34.755392
37.557367
40.703597
44.046809
47.405721
50.601923
53.4998
56.007318
58.084477
59.750671
61.035269
61.9854
62.674661
63.147587
63.467366
63.656925
63.736216
63.735312
63.643643
63.468183
63.221188
62.88683
62.474164
61.998729
61.46804
60.888249
60.269952
59.620742
58.947676
58.258718
57.559432
56.855117
56.150645
55.449676
54.75555
54.070908
53.397901
52.738355
52.093913
51.465191
50.854885
50.264002
49.71353
49.060744
52.892339
52.177611
51.464517
50.7534
50.044386
49.337365
48.63215
47.928631
47.226839
46.526934
45.829145
45.133735
44.440974
43.751143
43.064522
42.381395
41.702045
41.026758
40.355817
39.689508
39.028117
38.371925
37.721212
37.076256
36.437329
35.804706
35.17866
34.559466
33.947387
33.342681
32.745614
32.156488
31.575642
31.0034
30.439994
29.885709
29.341009
28.806581
28.283119
27.770141
27.267744
26.777781
26.302964
25.843971
25.389414
24.949139
24.539544
24.170235
23.848178
23.581981
23.386055
23.280813
23.294428
23.465173
23.84305
24.489255
25.474511
26.866233
28.708436
31.000058
33.680457
36.630875
39.697597
42.716967
45.54265
48.074599
50.252695
52.053565
53.501395
54.625109
55.464402
56.07493
56.497202
56.773913
56.946942
57.029481
57.038906
56.96939
56.820951
56.604993
56.310808
55.939749
55.510444
55.028297
54.500715
53.939532
53.350387
52.740572
52.117218
51.485318
50.849946
50.215031
49.583877
48.959469
48.344266
47.739741
47.149366
46.573753
46.035223
45.394306
52.877431
52.154678
51.43267
50.711841
49.992467
49.274634
48.558345
47.843619
47.130549
46.419315
45.710152
45.003329
44.299128
43.597845
42.899776
42.205222
41.514482
40.827855
40.145636
39.468118
38.795588
38.128329
37.466616
36.810717
36.160891
35.51739
34.880451
34.250305
33.627169
33.011245
32.402721
31.801777
31.208585
30.623306
30.046082
29.477047
28.91634
28.364134
27.82063
27.285933
26.760128
26.243483
25.736531
25.239796
24.752421
24.274855
23.809444
23.359317
22.916917
22.481454
22.074281
21.70837
21.393598
21.143162
20.978802
20.931787
21.045433
21.376593
21.992241
22.960888
24.338305
26.146005
28.355654
30.884925
33.607924
36.381174
39.0659
41.545082
43.745021
45.626304
47.176683
48.419802
49.381825
50.094885
50.614916
50.979592
51.216537
51.358965
51.430586
51.432861
51.362826
51.219563
51.015895
50.735189
50.385671
49.986661
49.537724
49.049724
48.532528
47.991647
47.434507
46.866369
46.291983
45.715842
45.141352
44.571096
44.009404
43.456914
42.937178
42.314601
52.870847
52.144021
51.417375
50.691349
49.966258
49.242276
48.519497
47.798012
47.077956
46.359515
45.642925
44.92845
44.216372
43.506986
42.800594
42.097501
41.398013
40.702436
40.011076
39.324235
38.642211
37.965297
37.293782
36.627948
35.968068
35.314409
34.667227
34.02677
33.393274
32.766962
32.148045
31.53672
30.93317
30.33756
29.750039
29.170738
28.599772
28.037238
27.483223
26.937793
26.400989
25.872851
25.353444
24.842863
24.341059
23.848032
23.364047
22.88968
22.424559
21.968318
21.523239
21.092853
20.670192
20.257145
19.878085
19.548313
19.282251
19.103593
19.047261
19.160474
19.502443
20.138308
21.12764
22.509205
24.283017
26.40104
28.77062
31.268618
33.766062
36.146601
38.316851
40.222222
41.836273
43.154021
44.203904
45.010234
45.60545
46.03447
46.33638
46.526348
46.631643
46.67963
46.662658
46.577715
46.427625
46.225758
45.944594
45.607485
45.225454
44.801042
44.345601
43.86485
43.365344
42.853464
42.333573
41.809784
41.28738
40.767437
40.275076
39.678972
52.868656
52.139777
51.41075
50.682008
49.953883
49.226586
48.50026
47.775036
47.051065
46.328537
45.60768
44.888748
44.172012
43.457758
42.746279
42.037873
41.332841
40.631486
39.934107
39.241003
38.552472
37.868804
37.190288
36.517205
35.849833
35.18844
34.533289
33.884635
33.242723
32.607789
31.980061
31.359753
30.74707
30.142202
29.545329
28.956613
28.376203
27.804229
27.240806
26.686031
26.13998
25.602709
25.07426
24.554664
24.043924
23.542025
23.048971
22.564816
22.089548
21.623109
21.165713
20.717951
20.279516
19.850413
19.433676
19.033846
18.637243
18.267205
17.946108
17.691483
17.529063
17.496376
17.642644
18.025475
18.705465
19.73163
21.1255
22.868907
24.8995
27.119731
29.412005
31.661253
33.769094
35.660846
37.299484
38.669294
39.775825
40.648269
41.30773
41.789466
42.129554
42.364576
42.49971
42.571916
42.588101
42.54509
42.438638
42.277463
42.060283
41.777652
41.450594
41.080868
40.677702
40.249435
39.800928
39.338454
38.868164
38.392094
37.937459
37.377839
52.868829
52.13891
51.408639
50.678445
49.948671
49.219555
48.491273
47.763982
47.037848
46.313063
45.589848
44.868447
44.149123
43.432148
42.717806
42.006386
41.298179
40.593477
39.892572
39.195754
38.50331
37.815526
37.132679
36.455046
35.782896
35.116491
34.456089
33.801938
33.154281
32.513352
31.879377
31.252572
30.633146
30.021295
29.417207
28.821058
28.233013
27.653224
27.08183
26.518955
25.964709
25.419188
24.882469
24.354617
23.83568
23.325687
22.824662
22.332625
21.849587
21.375545
20.910521
20.454593
20.00779
19.570131
19.141994
18.724246
18.31596
17.91931
17.539064
17.166657
16.819902
16.523951
16.297957
16.170258
16.18064
16.379208
16.821332
17.562292
18.638412
20.055212
21.777875
23.732166
25.817168
27.920882
29.941957
31.798349
33.434589
34.829309
35.974523
36.886307
37.592529
38.114364
38.486081
38.746116
38.913839
38.992732
39.031544
39.01489
38.942427
38.815144
38.643055
38.407172
38.123531
37.80126
37.443766
37.060615
36.657924
36.239506
35.834798
35.324035
52.870321
52.139881
51.408949
50.67795
49.947235
49.217065
48.487643
47.759149
47.031765
46.305687
45.581134
44.858346
44.137575
43.41909
42.703165
41.990079
41.280115
40.573559
39.870692
39.171798
38.477155
37.787039
37.101721
36.421466
35.746536
35.077186
34.413661
33.756205
33.10505
32.460422
31.82254
31.191613
30.567842
29.95142
29.34253
28.741346
28.148033
27.562743
26.985621
26.416798
25.856396
25.304524
24.761279
24.226746
23.700997
23.184093
22.676087
22.177023
21.686938
21.205867
20.73384
20.270896
19.817072
19.372404
18.936965
18.510919
18.094292
17.687358
17.290929
16.904588
16.530328
16.173227
15.824876
15.508632
15.246573
15.059241
14.977916
15.045109
15.310553
15.82853
16.646885
17.78751
19.239009
20.949472
22.834113
24.789921
26.712622
28.515953
30.133544
31.529105
32.694373
33.63039
34.360905
34.910733
35.308684
35.579121
35.764541
35.867348
35.910288
35.910743
35.861366
35.760877
35.616195
35.422865
35.176622
34.893729
34.576555
34.232454
33.891871
33.445326
52.872581
52.141895
51.410611
50.679149
49.947866
49.217042
48.486904
47.757653
47.029487
46.302609
45.577242
44.853621
44.131997
43.412634
42.695798
41.981766
41.270814
40.563221
39.859263
39.159218
38.463358
37.771951
37.085263
36.403553
35.727074
35.056073
34.390792
33.731462
33.078311
32.431556
31.791406
31.158065
30.531724
29.912569
29.300775
28.696508
28.099927
27.511179
26.930403
26.357727
25.793271
25.237144
24.689443
24.150257
23.619665
23.097735
22.584529
22.080101
21.584498
21.097767
20.619949
20.151087
19.691224
19.240404
18.798677
18.366105
17.942749
17.528686
17.124069
16.728957
16.343639
15.968998
15.604665
15.253526
14.921103
14.599538
14.317493
14.093779
13.952084
13.927121
14.063626
14.41235
15.024681
15.937238
17.155709
18.648967
20.34782
22.1592
23.980527
25.718493
27.303397
28.686732
29.851199
30.797047
31.540406
32.105008
32.514456
32.799539
32.99045
33.106586
33.153713
33.164173
33.130407
33.050907
32.928718
32.76803
32.554002
32.303252
32.042886
31.679069
52.875304
52.144523
51.413058
50.681323
49.949678
49.218419
48.487794
47.758025
47.029322
46.301902
45.575988
44.851819
44.129645
43.409725
42.692325
41.977716
41.266172
40.557968
39.853376
39.152668
38.456114
37.763979
37.076522
36.393998
35.716656
35.044739
34.378481
33.718111
33.063848
32.415905
31.774486
31.139786
30.511992
29.891282
29.277824
28.671779
28.073297
27.48252
26.899578
26.324596
25.757686
25.198951
24.648486
24.106375
23.572693
23.047508
22.530876
22.022852
21.52348
21.032803
20.55086
20.07769
19.613329
19.157817
18.711193
18.273502
17.84479
17.425106
17.0145
16.613017
16.220717
15.837748
15.464177
15.100428
14.747595
14.405527
14.078154
13.766462
13.476873
13.232571
13.052521
12.964888
13.008569
13.230459
13.682145
14.409232
15.431383
16.734831
18.26626
19.940904
21.660874
23.329403
24.869476
26.228319
27.380311
28.323863
29.066615
29.634437
30.048897
30.339966
30.531519
30.653241
30.708188
30.721103
30.69861
30.635069
30.532269
30.393848
30.22982
29.969099
52.878318
52.147526
51.415977
50.684078
49.952193
49.220627
48.489647
47.759493
47.03039
46.302564
45.576246
44.851678
44.12911
43.408799
42.691012
41.976016
41.264083
40.555484
39.850492
39.149375
38.452399
37.759827
37.071916
36.388917
35.711077
35.038635
34.371822
33.710864
33.055976
32.407367
31.765238
31.129778
30.501171
29.879591
29.2652
28.658154
28.058599
27.46667
26.882495
26.306189
25.737862
25.177612
24.625526
24.081685
23.546159
23.019009
22.50029
21.990046
21.488319
20.995144
20.510551
20.03457
19.567226
19.108546
18.658556
18.217285
17.784761
17.361014
16.946073
16.539958
16.14269
15.754293
15.374787
15.004234
14.642822
14.290681
13.94845
13.616803
13.297231
12.994353
12.706097
12.451519
12.248415
12.119159
12.097006
12.225071
12.553258
13.130864
13.990577
15.131267
16.514101
18.063761
19.68534
21.281891
22.771173
24.097306
25.226699
26.15473
26.888375
27.450087
27.862424
28.151795
28.342412
28.463485
28.524359
28.538363
28.525073
28.474142
28.405851
28.266254
52.88152
52.150766
51.41919
50.687193
49.95514
49.223346
48.492092
47.761633
47.03221
46.304058
45.577416
44.852529
44.12965
43.409036
42.690953
41.975667
41.263449
40.55457
39.849298
39.147901
38.450644
37.757786
37.069583
36.386286
35.708138
35.035376
34.36823
33.706923
33.051668
32.402673
31.760133
31.124239
30.495169
29.873094
29.258176
28.650565
28.050404
27.457825
26.872953
26.295899
25.726769
25.165655
24.612644
24.06781
23.53122
23.002931
22.482991
21.971442
21.468319
20.973649
20.487457
20.009761
19.540579
19.079924
18.62781
18.184248
17.749253
17.322835
16.905005
16.495769
16.095127
15.703077
15.319608
14.944716
14.578409
14.220709
13.871709
13.531577
13.200651
12.879854
12.56967
12.273298
11.994581
11.736642
11.520047
11.36359
11.295459
11.354602
11.588768
12.048589
12.77505
13.778397
15.031526
16.468456
17.997729
19.523261
20.958679
22.243593
23.342317
24.246285
24.963161
25.51114
25.91583
26.197272
26.384711
26.502166
26.566848
26.58567
26.592916
26.548254
52.884846
52.154157
51.422588
50.690535
49.958362
49.226391
48.494916
47.764205
47.034512
46.306082
45.579163
44.854003
44.130859
43.409989
42.691659
41.976135
41.263688
40.554585
39.849096
39.147487
38.45002
37.756956
37.068547
36.385042
35.706685
35.033711
34.366348
33.704818
33.049333
32.400098
31.757308
31.121151
30.491806
29.869439
29.254211
28.646271
28.04576
27.452808
26.867535
26.290053
25.720464
25.158858
24.605319
24.059918
23.522719
22.993776
22.473135
21.960833
21.456901
20.961362
20.474235
19.995532
19.525263
19.063432
18.610042
18.165095
17.72859
17.300525
16.880896
16.469694
16.066906
15.672513
15.286492
14.908812
14.539446
14.178364
13.825549
13.481004
13.144771
12.817005
12.497898
12.188057
11.888532
11.600669
11.328674
11.073567
10.851165
10.678434
10.579396
10.589065
10.752458
11.120429
11.738636
12.627837
13.769987
15.107551
16.552579
18.008581
19.38781
20.626587
21.688682
22.562043
23.255938
23.783823
24.173928
24.444875
24.627595
24.742484
24.822577
24.850031
52.888257
52.157646
51.426105
50.694022
49.96176
49.229649
48.497989
47.767062
47.037133
46.308458
45.581291
44.855887
44.132504
43.411406
42.692856
41.977122
41.264474
40.555179
39.849506
39.147719
38.450081
37.75685
37.068279
36.384616
35.706101
35.032971
34.365453
33.703766
33.048122
32.398726
31.755771
31.119444
30.489922
29.867372
29.251952
28.643811
28.043087
27.44991
26.8644
26.286665
25.716805
25.154912
24.601064
24.055334
23.517782
22.988462
22.467415
21.954679
21.450279
20.954238
20.466569
19.987282
19.51638
19.053863
18.599727
18.153965
17.716568
17.287524
16.866819
16.454432
16.050341
15.654515
15.266918
14.887511
14.516248
14.153082
13.797963
13.450848
13.111698
12.780497
12.457256
12.142057
11.835113
11.536785
11.247972
10.969578
10.704737
10.45671
10.233291
10.051521
9.9321434
9.906611
10.017173
10.314327
10.846412
11.64218
12.691242
13.942372
15.310943
16.700501
18.023084
19.212768
20.233792
21.071197
21.735062
22.238739
22.611567
22.871354
23.062003
23.178382
52.891723
52.161198
51.429697
50.697602
49.965274
49.233046
48.501229
47.770113
47.039973
46.311076
45.583682
44.858052
44.134449
43.413137
42.694383
41.978455
41.265621
40.556151
39.85031
39.148365
38.450575
37.757199
37.068489
36.384691
35.706047
35.032791
34.365149
33.70334
33.047576
32.39806
31.754985
31.118538
30.488893
29.866218
29.250669
28.642396
28.041535
27.448214
26.862554
26.284661
25.714636
25.152566
24.598533
24.052604
23.514842
22.985297
22.464011
21.951018
21.446345
20.95001
20.462025
19.982397
19.511127
19.04821
18.59364
18.147403
17.709486
17.27987
16.858532
16.445448
16.040585
15.643906
15.255367
14.87492
14.502511
14.138081
13.781569
13.432913
13.09205
12.758921
12.433473
12.115668
11.805498
11.503003
11.208335
10.921743
10.643884
10.375776
10.119446
9.8792179
9.6583948
9.4727528
9.3407893
9.2908859
9.3628932
9.6062841
10.07118
10.791825
11.763916
12.941065
14.241441
15.568726
16.835368
17.974008
18.949182
19.746206
20.377203
20.854978
21.223962
21.473889
52.895225
52.164789
51.433334
50.701238
49.96886
49.236536
48.504582
47.773297
47.042967
46.313865
45.586259
44.860417
44.136606
43.415091
42.696143
41.980029
41.267018
40.557381
39.851382
39.149286
38.451355
37.757845
37.069007
36.385088
35.706329
35.032961
34.365213
33.703301
33.047438
32.397824
31.754654
31.118112
30.488373
29.865605
29.249962
28.641594
28.040636
27.447217
26.861455
26.283457
25.713323
25.15114
24.596987
24.050934
23.513041
22.983357
22.461924
21.948776
21.443937
20.947426
20.459253
19.979423
19.507935
19.044784
18.589959
18.143445
17.705223
17.275272
16.853565
16.440072
16.034756
15.637575
15.248481
14.867418
14.494327
14.129143
13.771799
13.422222
13.08034
12.746078
12.419363
12.100123
11.788292
11.483818
11.186672
10.89686
10.614475
10.339733
10.0731
9.8155936
9.5685586
9.3355588
9.1201126
8.9346143
8.7959104
8.7300078
8.7746232
8.9781092
9.3916546
10.053225
10.963152
12.078324
13.318954
14.588516
15.799728
16.88526
17.812986
18.567731
19.180976
19.637078
52.89875
52.168401
51.436996
50.704907
49.97249
49.240083
48.50801
47.776574
47.046069
46.316777
45.588973
44.86293
44.138919
43.417209
42.698072
41.981777
41.268596
40.558795
39.852642
39.150402
38.452333
37.758694
37.069734
36.385701
35.706832
35.033362
34.365515
33.70351
33.047557
32.397858
31.754605
31.117983
30.488167
29.865322
29.249604
28.641162
28.04013
27.446637
26.8608
26.282727
25.712515
25.150254
24.59602
24.049883
23.511902
22.982128
22.460601
21.947354
21.442412
20.945791
20.457503
19.97755
19.505932
19.04264
18.587663
18.140984
17.702582
17.272434
16.85051
16.436777
16.031195
15.633719
15.244296
14.86287
14.489376
14.123745
13.765906
13.415781
13.073293
12.738359
12.410897
12.090824
11.778057
11.472515
11.174123
10.882813
10.59854
10.321291
10.051113
9.7881881
9.5328548
9.2859138
9.0485579
8.8236983
8.6152459
8.4323505
8.2910819
8.2153133
8.2412168
8.4159198
8.7914966
9.4080182
10.269597
11.334301
12.523155
13.738638
14.896861
15.929025
16.82818
17.550031
52.902287
52.172023
51.440669
50.70859
49.976143
49.243666
48.511485
47.779913
47.049247
46.319777
45.591787
44.865552
44.141348
43.41945
42.700129
41.983658
41.270307
40.560346
39.854042
39.151658
38.453455
37.759688
37.070609
36.386463
35.707489
35.033918
34.365978
33.703884
33.047847
32.398068
31.754739
31.118044
30.488158
29.865246
29.249464
28.640958
28.039865
27.446311
26.860415
26.282283
25.712012