/*--------------------------------*- C++ -*----------------------------------*\
| =========                 |                                                 |
| \\      /  F ield         | OpenFOAM: The Open Source CFD Toolbox           |
|  \\    /   O peration     | Version:  2206                                  |
|   \\  /    A nd           | Website:  www.openfoam.com                      |
|    \\/     M anipulation  |                                                 |
\*---------------------------------------------------------------------------*/
FoamFile
{
    version     2.0;
    format      ascii;
    arch        "LSB;label=32;scalar=64";
    class       volScalarField;
    location    "700";
    object      p;
}
// * * * * * * * * * * * * * * * * * * * * * * * * * * * * * * * * * * * * * //

dimensions      [0 2 -2 0 0 0 0];

internalField   nonuniform List<scalar> 
7480
(
0.054725082
0.042469464
0.028346389
0.016538272
0.0059316854
0.00048572221
-0.00076909833
0.00024750951
0.0018006663
0.0028310437
0.00330647
0.0035092905
0.0036001332
0.0036287118
0.0036302136
0.0036341864
0.0036417921
0.0036354209
0.0036186358
0.003600428
0.0035796084
0.0035520192
0.0035205118
0.0034884499
0.0034545739
0.0034164906
0.003375617
0.0033335044
0.0032892704
0.0032421109
0.0031931371
0.003143113
0.0030914191
0.0030378633
0.0029833025
0.0029283337
0.0028729962
0.0028179524
0.0027644361
0.0027134618
0.0026658719
0.0026232245
0.0025880292
0.0025626783
0.0025515313
0.0025581276
0.0025876516
0.0026394592
0.0027119855
0.0028059832
0.0029197025
0.0030502903
0.0031932878
0.0033424095
0.0034954756
0.0036460827
0.0037761663
0.0038729269
0.0039282638
0.0039454758
0.0039266061
0.0038778466
0.0038083596
0.0037252481
0.0036336624
0.0035376376
0.0034405302
0.00334362
0.0032478105
0.0031536375
0.0030612154
0.0029700447
0.0028801355
0.0027914741
0.0027032788
0.0026161244
0.0025290928
0.00244005
0.0023494236
0.0022573403
0.0021646061
0.0020708175
0.0019747965
0.0018776218
0.0017783978
0.0016777573
0.0015755233
0.0014717441
0.0013670563
0.001261044
0.0011550119
0.0010486605
0.00094380245
0.00083982189
0.00074351459
0.00064154813
0.00058982464
0.00030771203
0.00083576386
-0.00087467324
0.04974855
0.039233908
0.027280959
0.016389583
0.0065324369
0.0012867463
-6.2352632e-05
0.0007169586
0.0020275056
0.0029549169
0.0033841792
0.0035684905
0.003650969
0.0036727291
0.0036702711
0.0036727949
0.0036742942
0.0036625388
0.0036426998
0.0036220985
0.003599095
0.0035695276
0.0035363964
0.0035029405
0.0034677871
0.0034285455
0.0033866712
0.0033436639
0.0032985961
0.0032506737
0.0032010191
0.0031503705
0.0030980906
0.0030439925
0.0029889333
0.0029334978
0.0028777176
0.002822256
0.0027683424
0.0027169844
0.0026690208
0.0026260093
0.0025904569
0.0025647502
0.0025533025
0.0025599006
0.0025888459
0.0026401363
0.0027123384
0.0028060274
0.0029194722
0.003049825
0.0031926283
0.0033416064
0.0034945873
0.0036451608
0.0037752657
0.0038721281
0.0039276184
0.0039449909
0.0039263276
0.0038777441
0.0038084003
0.0037254023
0.0036338991
0.0035379299
0.003440857
0.0033439649
0.0032481623
0.0031539885
0.0030615602
0.0029703803
0.0028804599
0.002791786
0.0027035779
0.0026164112
0.0025293734
0.00244033
0.0023497002
0.0022576109
0.00216487
0.002071075
0.0019750484
0.0018778685
0.0017786395
0.0016779941
0.0015757549
0.0014719705
0.0013672773
0.0012612594
0.0011552216
0.0010488644
0.00094400073
0.00084001442
0.00074370271
0.00064172823
0.00059007302
0.00030869685
0.00083798094
-0.00087417352
0.045689426
0.037553363
0.026917992
0.016664119
0.0079071183
0.0028152101
0.0011103889
0.0013786623
0.0023638124
0.0031391949
0.0035051118
0.0036693625
0.0037391219
0.003745852
0.0037343824
0.0037298717
0.0037227642
0.0037036828
0.0036790505
0.0036547344
0.003628116
0.0035951609
0.0035594761
0.0035238828
0.0034866819
0.0034455985
0.0034022481
0.0033579732
0.003311703
0.0032626851
0.0032120986
0.0031606141
0.0031075413
0.0030527174
0.002997012
0.0029409797
0.0028846353
0.0028286532
0.0027742593
0.0027224443
0.0026740384
0.0026306044
0.0025946463
0.0025685413
0.0025567321
0.0025634438
0.0025918738
0.0026423869
0.0027142093
0.0028075093
0.002920587
0.0030505954
0.0031930752
0.0033417671
0.0034945329
0.00364494
0.003774902
0.0038717266
0.0039273123
0.0039447839
0.0039263362
0.0038779449
0.003808767
0.0037259099
0.0036345115
0.0035386128
0.0034415818
0.0033447075
0.0032489059
0.0031547211
0.0030622739
0.0029710695
0.0028811221
0.0027924193
0.0027041815
0.0026169856
0.0025299189
0.0024408532
0.0023502073
0.0022581003
0.0021653422
0.0020715307
0.0019754892
0.0018782965
0.0017790552
0.0016783983
0.0015761479
0.0014723524
0.0013676482
0.0012616192
0.0011555707
0.0010492027
0.00094432865
0.00084033147
0.00074401244
0.00064202108
0.00059047611
0.00031027807
0.00084190758
-0.00087357682
0.042968801
0.036252044
0.026563452
0.016963867
0.0091934698
0.0042777631
0.002191923
0.002072298
0.0027555864
0.0033765582
0.0036869915
0.0038268993
0.003873554
0.0038506559
0.0038186665
0.0038023217
0.0037846298
0.0037550657
0.0037238271
0.0036951894
0.0036641035
0.003626599
0.0035876989
0.0035495205
0.0035096942
0.0034661793
0.0034210313
0.0033753001
0.0033276099
0.003277308
0.0032257191
0.0031733764
0.003119475
0.0030639099
0.0030075897
0.0029510094
0.002894154
0.0028377367
0.0027829839
0.0027308504
0.0026821488
0.0026384588
0.0026022793
0.0025759788
0.0025639023
0.0025711413
0.0025994921
0.0026491337
0.0027206492
0.0028135875
0.0029262474
0.0030557942
0.0031977562
0.0033458997
0.0034981463
0.0036480212
0.0037774439
0.0038737505
0.0039291433
0.003946395
0.003927878
0.0038795002
0.0038103615
0.0037275593
0.0036362046
0.0035403283
0.0034432977
0.0033463996
0.0032505574
0.00315632
0.0030638113
0.0029725394
0.0028825229
0.0027937494
0.0027054401
0.0026181744
0.0025310067
0.0024418421
0.0023511396
0.0022589853
0.0021661836
0.0020723312
0.0019762523
0.0018790272
0.0017797559
0.0016790721
0.0015767962
0.0014729768
0.00136825
0.001262199
0.0011561298
0.0010497412
0.00094484821
0.00084083138
0.00074449862
0.0006424798
0.00059109643
0.00031278142
0.00084834356
-0.00087255256
0.04049973
0.034658519
0.025938765
0.017316174
0.010261255
0.0054840288
0.0032306111
0.0028407099
0.0032316663
0.0036753568
0.0039087925
0.0039981207
0.0040127982
0.0039720231
0.0039290926
0.0039030754
0.0038724974
0.0038272385
0.0037850476
0.0037495637
0.003712012
0.0036681505
0.0036249966
0.0035836907
0.0035406138
0.0034939054
0.0034464279
0.0033988213
0.0033492328
0.0032972031
0.0032443302
0.003190926
0.0031359979
0.0030795482
0.0030225593
0.0029654225
0.0029080593
0.0028512595
0.0027962695
0.0027439755
0.002695153
0.0026514091
0.0026152338
0.0025889652
0.0025769463
0.0025848436
0.0026132284
0.0026622708
0.002733478
0.0028259789
0.0029380807
0.0030669515
0.0032080935
0.0033553198
0.0035066863
0.0036557157
0.0037841535
0.0038793389
0.0039341812
0.0039507812
0.0039317576
0.0038831362
0.0038138409
0.0037309475
0.0036395215
0.003543573
0.0034464626
0.003349467
0.0032535157
0.0031591602
0.0030665258
0.0029751237
0.0028849789
0.0027960772
0.0027076392
0.0026202473
0.0025329148
0.002443589
0.0023527779
0.0022605285
0.0021676397
0.0020737058
0.0019775518
0.0018802611
0.0017809291
0.0016801911
0.0015778648
0.0014739988
0.0013692285
0.0012631362
0.0011570286
0.0010506031
0.000945676
0.000841625
0.000745266
0.00064320631
0.00059204786
0.00031650068
0.00085787073
-0.00087054802
0.038186179
0.033066218
0.025350391
0.017627875
0.011145926
0.0065808911
0.0042295481
0.0035879598
0.0037293212
0.0039978721
0.0041433093
0.004180523
0.004164318
0.0041092873
0.0040530381
0.0040084966
0.0039624531
0.0039073754
0.0038583779
0.0038169633
0.0037718295
0.003720059
0.0036709802
0.0036254488
0.0035782857
0.0035276802
0.0034775034
0.0034278123
0.0033760581
0.0033220235
0.0032677041
0.0032131127
0.0031570192
0.0030996219
0.0030420496
0.0029845391
0.0029267859
0.0028696485
0.0028144982
0.0027621578
0.0027133546
0.0026697348
0.0026337784
0.0026077634
0.0025960962
0.0026044143
0.002632618
0.0026813018
0.0027519713
0.0028437655
0.0029550475
0.0030829611
0.0032229499
0.0033688865
0.0035190309
0.0036668381
0.0037937919
0.0038873983
0.0039414934
0.0039571662
0.0039373452
0.0038883824
0.0038188519
0.0037358005
0.0036442404
0.0035481609
0.0034509171
0.0033537717
0.0032576614
0.003163139
0.0030703282
0.0029787472
0.002888432
0.0027993601
0.0027107501
0.0026231875
0.0025356695
0.0024461701
0.0023552119
0.0022628191
0.0021697969
0.0020757373
0.0019794661
0.0018820715
0.0017826428
0.001681818
0.0015794111
0.001475471
0.0013706323
0.0012644747
0.0011583072
0.0010518246
0.00094684512
0.00084274291
0.00074634096
0.00064422829
0.00059336829
0.00032156339
0.0008706008
-0.00086711185
0.03608496
0.031587543
0.024797577
0.017857153
0.011903718
0.0075789384
0.0051654466
0.0042961257
0.0042135414
0.0043287221
0.0043890946
0.0043762963
0.0043280834
0.0042550192
0.0041813322
0.0041180211
0.0040580935
0.0039949253
0.0039378313
0.0038867081
0.003833151
0.0037761293
0.0037229435
0.0036734752
0.0036216906
0.0035666734
0.0035132183
0.0034608347
0.0034063938
0.0033500049
0.0032940815
0.0032382114
0.0031808326
0.0031224138
0.0030642809
0.0030064437
0.0029483397
0.0028909624
0.0028358266
0.0027836582
0.0027351217
0.0026919327
0.0026565862
0.0026313891
0.0026199054
0.0026276511
0.0026556214
0.0027041938
0.0027744239
0.0028655269
0.0029758656
0.0031025282
0.0032410036
0.0033853935
0.0035332167
0.0036780622
0.0038028503
0.0038949637
0.0039486954
0.0039636484
0.003943175
0.0038940985
0.0038245067
0.0037414229
0.0036498095
0.0035536489
0.0034563005
0.003359015
0.0032627446
0.0031680477
0.0030750473
0.0029832702
0.002892765
0.0028035001
0.0027146911
0.0026269288
0.0025392023
0.0024495097
0.0023583766
0.0022658049
0.0021726122
0.0020783892
0.0019819634
0.0018844298
0.0017848708
0.0016839282
0.0015814114
0.0014773701
0.0013724379
0.0012661919
0.001159943
0.0010533837
0.00094833322
0.0008441629
0.00074770004
0.00064552444
0.00059503421
0.00032791431
0.00088618059
-0.00086213719
0.034186239
0.030205594
0.024230694
0.018000503
0.012550222
0.00846996
0.0060280608
0.0049734341
0.0046957019
0.0046696072
0.0046450251
0.0045809914
0.0044986242
0.0044041493
0.0043126265
0.0042326117
0.0041592805
0.0040866483
0.0040197939
0.0039586849
0.0038978786
0.0038361855
0.0037782092
0.0037231522
0.003666558
0.003608375
0.0035523506
0.003497284
0.0034398721
0.0033808474
0.0033230621
0.0032656661
0.0032065863
0.0031466747
0.0030876151
0.0030290951
0.0029703555
0.0029126192
0.0028574877
0.0028055435
0.0027573708
0.0027147836
0.0026803135
0.0026562892
0.0026450398
0.002651932
0.0026795493
0.0027280917
0.0027980091
0.0028884802
0.0029977772
0.0031228942
0.0032596236
0.0034025314
0.0035470763
0.0036874719
0.0038097152
0.0039007121
0.0039545432
0.00396917
0.0039484138
0.0038995674
0.0038301851
0.0037472838
0.0036557809
0.0035596618
0.0034622954
0.003364925
0.0032685317
0.0031736853
0.0030805126
0.0029885457
0.0028978473
0.0028083798
0.0027193567
0.0026313767
0.0025434197
0.0024535124
0.0023621848
0.0022694102
0.0021760203
0.0020816046
0.0019849939
0.0018872923
0.0017875742
0.0016864866
0.001583834
0.001479667
0.0013746186
0.0012682629
0.0011619136
0.0010552589
0.00095011985
0.00084586541
0.00074932368
0.00064707692
0.00059701271
0.00033542896
0.00090407838
-0.00085574658
0.032465507
0.028914037
0.023656094
0.018079615
0.013100118
0.009260721
0.0068219346
0.0056223594
0.00517434
0.0050167202
0.0049085752
0.0047924705
0.0046750433
0.0045575067
0.0044473868
0.0043508452
0.0042636449
0.0041804556
0.0041040128
0.0040338793
0.0039659108
0.0038987336
0.0038352049
0.0037745344
0.0037136835
0.0036524286
0.0035932823
0.0035348714
0.0034746318
0.0034136165
0.0033542317
0.0032951744
0.0032341737
0.0031725832
0.0031124068
0.0030530032
0.0029934051
0.0029349741
0.0028793859
0.0028271938
0.0027789383
0.0027365379
0.0027025669
0.0026792506
0.0026685435
0.0026753561
0.002702591
0.0027507163
0.0028200209
0.0029096793
0.0030178727
0.0031415034
0.0032766272
0.0034181281
0.0035598909
0.0036960917
0.003815425
0.0039052604
0.0039590788
0.0039735834
0.0039528618
0.0039044882
0.0038355041
0.003752976
0.0036617613
0.0035658198
0.0034685408
0.0033711679
0.0032747182
0.0031797724
0.0030864634
0.0029943339
0.0029034626
0.002813804
0.0027245697
0.0026363709
0.0025481748
0.0024580424
0.0023665124
0.0022735232
0.002179922
0.0020852964
0.0019884811
0.0018905919
0.0017906941
0.0016894415
0.0015866329
0.0014823209
0.0013771378
0.0012706548
0.0011641886
0.0010574226
0.00095217944
0.00084782683
0.00075118937
0.00064886517
0.00059926074
0.00034395871
0.00092370817
-0.00084797153
0.03090215
0.027714206
0.023085192
0.018104593
0.013561325
0.0099581091
0.0075491508
0.0062393066
0.0056441745
0.0053661993
0.0051780272
0.0050103079
0.0048573091
0.0047153374
0.0045859669
0.0044725446
0.0043712861
0.0042769451
0.0041904576
0.0041114298
0.0040360641
0.0039628862
0.0038938942
0.0038280524
0.0037629073
0.0036980822
0.0036355203
0.0035739006
0.003511077
0.0034480359
0.0033865953
0.0033254691
0.0032627549
0.0031999262
0.0031387555
0.0030783567
0.0030177437
0.0029584134
0.0029021692
0.0028494947
0.0028008301
0.0027581825
0.0027241692
0.0027008512
0.0026901864
0.0026968246
0.0027235742
0.0027710146
0.0028394733
0.0029281728
0.0030352704
0.0031576221
0.003291329
0.0034313589
0.0035712435
0.003704705
0.0038215412
0.0039093214
0.0039621084
0.0039766039
0.0039561533
0.0039083745
0.0038399658
0.0037580412
0.003667313
0.0035716741
0.0034746027
0.0033773469
0.0032809322
0.0031859574
0.003092575
0.0030003397
0.0029093429
0.0028195282
0.0027301075
0.002641708
0.0025532821
0.0024629313
0.0023712057
0.0022780043
0.0021841919
0.0020893534
0.0019923267
0.001894242
0.0017941545
0.0016927262
0.0015897498
0.0014852803
0.0013799501
0.0012733269
0.0011667315
0.0010598418
0.00095448217
0.00085002
0.00075327173
0.00065086598
0.0006017294
0.00035335706
0.00094449732
-0.00083873009
0.029478732
0.026603829
0.022522921
0.018080265
0.013941093
0.010569002
0.0082111493
0.0068215217
0.0061021237
0.0057159221
0.0054521678
0.0052337615
0.0050448986
0.0048774262
0.0047281806
0.0045976177
0.0044819996
0.0043760898
0.0042794221
0.004191358
0.0041084991
0.0040290636
0.003954234
0.0038831797
0.0038136819
0.0037450456
0.0036790828
0.0036144443
0.003548972
0.0034835891
0.0034199658
0.0033569474
0.003292683
0.0032285723
0.0031660665
0.0031044608
0.0030429311
0.0029828604
0.0029260512
0.0028728579
0.0028236778
0.0027805917
0.0027462753
0.0027226045
0.0027114745
0.0027174697
0.0027434261
0.0027898681
0.0028571015
0.002944455
0.0030501218
0.0031709465
0.0033030479
0.0034414903
0.0035798575
0.0037117523
0.0038270365
0.003912924
0.0039647957
0.0039792838
0.0039584051
0.0039107948
0.0038431878
0.0037620995
0.0036719806
0.0035767779
0.0034800908
0.0033831067
0.0032868146
0.0031918936
0.0030985365
0.0030062746
0.0029152123
0.0028252932
0.0027357296
0.0026471646
0.0025585362
0.0024679931
0.002376096
0.0022827001
0.0021886928
0.0020936535
0.0019964228
0.0018981479
0.0017978727
0.0016962687
0.0015931217
0.0014884905
0.0013830074
0.0012762368
0.0011695047
0.0010624831
0.00095699793
0.00085241767
0.00075554548
0.0006530564
0.00060436833
0.00036348875
0.00096590983
-0.00082788874
0.028180021
0.025578009
0.021973011
0.018013043
0.014247954
0.01110064
0.0088102485
0.00736756
0.0065457796
0.0060636157
0.0057292438
0.0054615979
0.0052370169
0.0050434021
0.0048738014
0.0047259277
0.0045957141
0.0044779111
0.0043709121
0.0042736686
0.0041830985
0.0040971754
0.0040164002
0.0039400444
0.0038660796
0.003793643
0.0037240198
0.0036561141
0.0035880334
0.0035202249
0.0034544082
0.0033895684
0.0033237034
0.0032581147
0.0031942116
0.00313155
0.0030691967
0.0030083583
0.0029508008
0.0028969922
0.0028473615
0.0028038545
0.0027691794
0.0027450695
0.0027333667
0.0027385358
0.0027634539
0.0028086018
0.0028742278
0.0029598
0.003063571
0.003182391
0.0033124344
0.0034489272
0.0035855433
0.0037157624
0.0038295605
0.0039145644
0.0039664149
0.0039811092
0.0039601461
0.0039128856
0.0038460524
0.0037652305
0.0036754015
0.0035808427
0.0034847426
0.0033881064
0.0032920271
0.0031972915
0.0031040855
0.0030118642
0.0029207976
0.0028308467
0.0027411936
0.0026525094
0.0025637264
0.0024730371
0.0023810084
0.0022874525
0.002193284
0.0020980711
0.0020006577
0.0019022118
0.0018017629
0.001699994
0.0015966837
0.0014918949
0.0013862606
0.0012793417
0.0011724705
0.001065313
0.00095969693
0.0008549931
0.00075798601
0.00065541419
0.00060712718
0.00037422739
0.00098743451
-0.00081528706
0.026992655
0.02463095
0.021438807
0.017909695
0.014489737
0.011559525
0.0093489964
0.0078763831
0.0069727057
0.0064068345
0.0060073987
0.0056925979
0.0054329242
0.0052129176
0.0050226367
0.0048573308
0.004712349
0.0045823702
0.0044648672
0.0043583201
0.0042598443
0.0041672429
0.0040804335
0.0039986705
0.0039200961
0.0038437273
0.0037703488
0.0036991085
0.0036283281
0.0035581688
0.0034900284
0.0034230944
0.0033556263
0.0032885699
0.0032232712
0.0031595452
0.0030963335
0.0030346379
0.002976307
0.0029219785
0.0028719404
0.0028279642
0.0027928369
0.0027682637
0.002756016
0.002760346
0.0027841472
0.002827855
0.0028916813
0.0029752229
0.0030767901
0.0031932297
0.0033207863
0.0034548749
0.0035892757
0.0037173833
0.0038294109
0.0039135611
0.003965225
0.0039803503
0.0039603469
0.0039142994
0.0038483233
0.003767811
0.0036785398
0.0035846909
0.0034886953
0.0033920587
0.0032963531
0.0032019692
0.0031089478
0.003016817
0.0029258511
0.0028359665
0.0027462712
0.00265753
0.0025686665
0.0024778845
0.0023857743
0.0022921101
0.0021978274
0.0021024786
0.0020049173
0.0019063328
0.0018057355
0.0017038233
0.0016003668
0.0014954332
0.0013896569
0.0012825955
0.0011755888
0.0010682963
0.00096254799
0.00085771857
0.00076056802
0.00065791675
0.00060995538
0.00038544844
0.0010085518
-0.00080075002
0.025904872
0.023756529
0.02092272
0.017776388
0.014673458
0.011951726
0.009830269
0.0083474616
0.0073807744
0.006743348
0.0062849067
0.00592558
0.0056318456
0.0053855381
0.0051744196
0.0049916268
0.004831774
0.0046893992
0.00456124
0.0044452858
0.0043387419
0.0042392825
0.0041463283
0.0040590519
0.0039757356
0.0038952958
0.0038181127
0.0037434776
0.0036698901
0.0035972971
0.0035267617
0.0034576807
0.0033885644
0.0033200574
0.0032533523
0.0031883667
0.0031242052
0.0030617099
0.003002605
0.0029477259
0.0028972532
0.002852765
0.002817196
0.0027922029
0.002779391
0.0027828288
0.0028054383
0.0028476644
0.0029096796
0.0029911324
0.0030903693
0.00320424
0.003329069
0.0034604504
0.0035922738
0.0037178797
0.0038277504
0.0039107088
0.0039618233
0.0039772337
0.0039582927
0.0039135898
0.0038487588
0.0037693794
0.0036812497
0.0035881268
0.0034922121
0.0033957915
0.003300541
0.0032060793
0.0031128884
0.0030209646
0.0029302296
0.0028404293
0.00275075
0.0026620628
0.0025732026
0.0024823704
0.0023902464
0.0022965404
0.00220219
0.0021067512
0.0020090888
0.0019104066
0.0018096948
0.0017076712
0.0016040943
0.0014990373
0.0013931369
0.0012859464
0.0011788142
0.0010713934
0.00096551645
0.00086056355
0.00076326399
0.0006605398
0.0006128017
0.00039702232
0.0010286901
-0.000784107
0.02490628
0.022948606
0.020426223
0.017618703
0.014805723
0.012283108
0.010257218
0.0087807644
0.0077682246
0.0070711186
0.0065600847
0.0061593106
0.0058329237
0.0055607401
0.0053288257
0.005128583
0.0049538334
0.0047989134
0.0046599741
0.0045345259
0.0044197756
0.0043132934
0.0042140843
0.0041211988
0.0040330194
0.0039483825
0.003867332
0.0037892271
0.0037127262
0.0036376026
0.0035646386
0.0034933806
0.0034225419
0.0033525277
0.0032843744
0.0032180833
0.0031529409
0.0030896508
0.00302978
0.0029742084
0.0029232196
0.00287825
0.0028422255
0.0028168267
0.0028034048
0.0028058853
0.0028272941
0.002868053
0.0029282471
0.0030075539
0.003104366
0.0032155921
0.0033376309
0.0034662
0.003595276
0.0037181669
0.0038256159
0.0039070803
0.0039572803
0.0039727048
0.0039548062
0.0039111988
0.0038475388
0.0037694133
0.0036824014
0.0035901448
0.0034949475
0.0033992477
0.0033044321
0.0032098274
0.003116656
0.00302499
0.0029340806
0.0028440717
0.0027545385
0.002666005
0.0025771534
0.002486337
0.0023943087
0.0023006214
0.0022062405
0.0021107783
0.0020130678
0.0019143277
0.0018135427
0.0017114475
0.0016077821
0.0015026317
0.0013966334
0.0012893349
0.0011820947
0.0010745586
0.0009685624
0.00086349302
0.00076604263
0.0006632561
0.00061561411
0.00040880928
0.0010471797
-0.00076520922
0.023987677
0.022201246
0.019950041
0.017441638
0.014892737
0.012559241
0.010633099
0.0091766613
0.0081336352
0.0073882787
0.0068312934
0.0063925356
0.0060352606
0.0057379466
0.0054854886
0.0052679383
0.0050783455
0.0049108032
0.0047609942
0.0046259843
0.0045029154
0.004389267
0.0042836994
0.0041851165
0.0040919622
0.0040030088
0.0039180202
0.0038363734
0.003756861
0.0036791206
0.0036036886
0.0035302062
0.0034575647
0.0033859835
0.0033163494
0.0032487325
0.0031825674
0.0031184391
0.0030577732
0.0030014733
0.0029499358
0.002904529
0.0028679287
0.0028420126
0.0028280387
0.0028295671
0.0028497454
0.0028889944
0.0029473153
0.0030244203
0.0031187689
0.0032273309
0.0033465497
0.0034722338
0.0035984491
0.0037185417
0.0038234908
0.0039033364
0.0039524649
0.0039677486
0.003950638
0.0039078911
0.0038452472
0.0037682377
0.0036822722
0.0035909441
0.0034965688
0.0034015298
0.0033071925
0.003212951
0.0031202398
0.0030287905
0.0029376486
0.0028476192
0.0027581958
0.0026694181
0.0025803938
0.0024897334
0.0023978505
0.0023041899
0.0022098587
0.0021144691
0.0020167514
0.0019179931
0.0018171881
0.0017150608
0.0016113428
0.001506137
0.0014000737
0.0012926943
0.0011853708
0.0010777391
0.00097163917
0.00086646576
0.00076886738
0.000666034
0.00061834013
0.00042065605
0.0010632178
-0.00074394719
0.023140899
0.021508847
0.019494316
0.017249564
0.014940255
0.012785387
0.010961218
0.0095358831
0.0084759393
0.0076931648
0.0070969774
0.0066240147
0.0062379349
0.0059165318
0.005643994
0.0054093953
0.0052050971
0.0050249307
0.0048642054
0.0047195911
0.0045881201
0.0044671856
0.0043551648
0.0042508029
0.0041525715
0.0040591903
0.0039701911
0.0038849342
0.0038023188
0.0037218773
0.0036439301
0.0035681742
0.0034936567
0.0034204534
0.0033493055
0.0032803314
0.0032130919
0.0031480796
0.0030865898
0.0030295429
0.0029774265
0.002931545
0.0028943753
0.0028678307
0.0028532519
0.0028538888
0.0028727733
0.0029104373
0.0029668485
0.0030417187
0.003133546
0.0032394043
0.0033557893
0.0034785334
0.0036018286
0.0037190993
0.0038215186
0.0038996764
0.0039476676
0.0039627283
0.0039462912
0.0039043069
0.0038425831
0.0037664681
0.0036814146
0.0035909153
0.0034972881
0.0034028379
0.0033090115
0.0032152122
0.0031228888
0.0030316801
0.0029407483
0.0028510506
0.002761655
0.0026726162
0.0025836161
0.002492952
0.0024008171
0.0023071538
0.0022130143
0.0021176946
0.0020200029
0.0019213081
0.0018205438
0.0017184176
0.0016146975
0.0015094781
0.0014033837
0.001295955
0.0011885779
0.0010808751
0.00097469302
0.00086943345
0.00077169528
0.00066883622
0.00062092752
0.00043239456
0.0010758688
-0.00072026927
0.022358689
0.02086621
0.019058757
0.017046221
0.014953568
0.012966508
0.011244892
0.0098594694
0.0087944141
0.0079843329
0.0073556812
0.0068525321
0.0064400067
0.0060958242
0.0058038806
0.0055526204
0.0053338449
0.0051411313
0.0049694934
0.0048152624
0.0046753351
0.0045470206
0.0044284633
0.0043182492
0.0042148495
0.0041169386
0.0040238568
0.0039349242
0.0038491194
0.0037658941
0.0036853813
0.0036073048
0.0035308427
0.0034559611
0.0033832626
0.0033128968
0.0032445338
0.0031785947
0.003116253
0.0030584334
0.0030056985
0.0029592982
0.0029215353
0.0028943259
0.0028790937
0.0028788144
0.0028963595
0.002932383
0.0029868523
0.0030594494
0.0031487157
0.0032518311
0.0033653305
0.0034850773
0.0036053955
0.0037197994
0.0038196728
0.0038960962
0.0039429461
0.0039577671
0.0039419535
0.0039006889
0.0038398268
0.0037645613
0.0036803933
0.0035905377
0.0034975474
0.0034035945
0.0033101943
0.003216746
0.0031247514
0.0030338138
0.0029431458
0.0028536804
0.0027643859
0.0026755017
0.00258675
0.0024959636
0.0024036409
0.002310138
0.0022159162
0.0021203251
0.0020227511
0.0019242031
0.0018234811
0.0017214207
0.0016177778
0.0015125812
0.001406492
0.001299051
0.0011916504
0.0010839045
0.0009776652
0.00087234217
0.00077447747
0.00067161958
0.00062332568
0.00044384326
0.0010841392
-0.00069419861
0.021634592
0.020268569
0.018642768
0.016834753
0.014937486
0.013107274
0.01148741
0.010148707
0.0090886587
0.0082605667
0.0076060641
0.0070769111
0.0066405299
0.0062751186
0.0059646459
0.0056972462
0.0054643165
0.0052592132
0.0050767228
0.0049128976
0.0047644919
0.0046287307
0.0045035688
0.0043874398
0.0042787925
0.0041762604
0.0040790259
0.0039863545
0.0038972797
0.0038111911
0.003728061
0.0036476169
0.0035691447
0.0034925273
0.0034182396
0.0033464473
0.0032769139
0.0032100048
0.0031467801
0.0030881588
0.003034766
0.0029878053
0.0029494202
0.002921518
0.0029055794
0.0029043402
0.0029205139
0.0029548598
0.0030073494
0.0030776305
0.0031642905
0.0032646074
0.0033751609
0.0034918569
0.0036091502
0.0037206587
0.0038179856
0.0038925642
0.0039382896
0.0039528702
0.003937601
0.0038970425
0.0038370129
0.003762692
0.0036794011
0.0035901429
0.0034976375
0.0034042134
0.0033111767
0.0032179203
0.0031261462
0.0030354085
0.0029449349
0.0028556478
0.0027664906
0.0026777803
0.0025891496
0.0024984134
0.0024063135
0.0023130408
0.0022186182
0.0021229079
0.0020254218
0.0019267143
0.001825927
0.0017240494
0.0016204784
0.0015153421
0.0014093234
0.0013019154
0.0011945222
0.0010867683
0.00098049612
0.00087513788
0.00077716228
0.00067433707
0.00062548825
0.00045481262
0.0010871656
-0.00066584302
0.020962861
0.019711584
0.01824555
0.016617769
0.014896342
0.013212052
0.011692003
0.010405076
0.0093585678
0.0085208844
0.0078469166
0.0072960297
0.0068385666
0.0064536865
0.0061257523
0.0058428726
0.0055962103
0.0053789574
0.0051857355
0.0050123792
0.0048555066
0.0047122619
0.0045804458
0.0044583514
0.0043443902
0.0042371563
0.0041357028
0.0040392328
0.0039468136
0.0038577861
0.0037719859
0.003689128
0.003608583
0.0035301725
0.0034542557
0.0033810017
0.0033102517
0.0032423282
0.0031781875
0.0031187344
0.0030646447
0.0030170815
0.0029780436
0.0029494147
0.0029327164
0.0029304746
0.0029452481
0.0029778775
0.0030283436
0.0030962652
0.0031802733
0.0032777394
0.0033852948
0.0034988917
0.003613112
0.003721686
0.0038164449
0.003889104
0.0039336962
0.0039480205
0.0039332501
0.0038933852
0.0038341816
0.0037608018
0.0036783345
0.0035898698
0.0034977073
0.0034048757
0.0033121438
0.0032190363
0.0031274148
0.0030367654
0.0029463784
0.002857189
0.0027681109
0.002679517
0.0025909693
0.002500342
0.0024084365
0.0023152835
0.0022209368
0.0021254602
0.0020279874
0.0019291177
0.0018284208
0.0017264962
0.0016226968
0.0015177079
0.0014118041
0.0013044463
0.0011971191
0.0010894047
0.00098312668
0.00087777217
0.0007796993
0.0006769423
0.00062737928
0.0004651143
0.0010844227
-0.00063539201
0.020338373
0.019191334
0.017866185
0.016397404
0.014833998
0.013284903
0.011861813
0.010630205
0.0096043027
0.0087645378
0.008077172
0.007508835
0.0070331985
0.0066307861
0.0062866322
0.0059890687
0.0057291967
0.0055001183
0.0052963508
0.0051135714
0.0049482801
0.0047975466
0.0046590478
0.0045309524
0.0044116247
0.0042996207
0.0041938875
0.0040935633
0.0039977316
0.0039056941
0.0038171712
0.0037318533
0.0036491762
0.0035689161
0.0034913294
0.0034165777
0.0033445656
0.0032755827
0.0032104915
0.0031501755
0.0030953495
0.0030471407
0.0030074167
0.0029780254
0.002960515
0.0029572283
0.0029705703
0.0030014419
0.0030498404
0.0031153602
0.0031966716
0.0032912364
0.0033957424
0.003506191
0.0036172884
0.0037228936
0.0038150109
0.0038857541
0.0039291866
0.0039432201
0.0039288963
0.0038897108
0.003831341
0.0037589008
0.0036772459
0.0035895776
0.0034978355
0.0034055381
0.0033131041
0.0032202217
0.0031287255
0.0030381053
0.0029477667
0.0028585939
0.0027694863
0.0026809168
0.0025923884
0.0025018248
0.0024100626
0.0023170176
0.0022228131
0.0021274824
0.0020300689
0.0019313498
0.0018308735
0.0017287932
0.0016249123
0.0015200005
0.0014139376
0.001306589
0.0011994008
0.0010917191
0.00098549141
0.00088019006
0.0007820362
0.00067939065
0.00062898188
0.00047457517
0.0010758166
-0.00060311603
0.019756565
0.018704291
0.017503693
0.016175383
0.01475386
0.013329572
0.011999876
0.010825827
0.0098262577
0.0089910057
0.0082959163
0.007714355
0.0072235393
0.006805673
0.0064466962
0.0061353764
0.0058629196
0.0056224242
0.0054083649
0.0052163197
0.0050426968
0.0048845028
0.0047393171
0.0046052019
0.0044804701
0.004363641
0.0042535748
0.0041493461
0.0040500404
0.003954927
0.0038636296
0.0037758066
0.0036909411
0.0036087763
0.0035294779
0.003453192
0.0033798731
0.0033097858
0.0032437081
0.0031824966
0.0031268946
0.0030779962
0.0030375506
0.0030073598
0.0029889858
0.0029846098
0.0029964868
0.0030255597
0.003071847
0.0031349228
0.0032134932
0.0033051067
0.0034065121
0.0035137628
0.0036216892
0.0037242922
0.0038136986
0.0038825267
0.0039247673
0.0039384735
0.0039245418
0.0038860198
0.0038284816
0.0037569786
0.0036761557
0.0035891915
0.0034980789
0.0034062119
0.0033140678
0.0032214354
0.0031300648
0.0030395218
0.0029492481
0.0028600328
0.0027708417
0.0026822393
0.0025936367
0.002503043
0.0024113484
0.0023183682
0.0022242756
0.002129049
0.0020317273
0.0019331557
0.0018327919
0.0017307809
0.0016271262
0.0015222096
0.0014160305
0.0013087386
0.001201461
0.0010936636
0.00098757606
0.00088229858
0.00078410078
0.00068162381
0.00063028092
0.00048305825
0.0010616456
-0.00056939288
0.019213365
0.018247291
0.017157082
0.015953089
0.014658913
0.013349493
0.012109098
0.010993743
0.010025026
0.0091999828
0.0085023933
0.0079117102
0.0074087461
0.0069776107
0.0066053403
0.006281315
0.0059969987
0.0057455792
0.0055215511
0.0053204499
0.0051386245
0.0049730338
0.0048211837
0.004681049
0.0045508921
0.0044291973
0.0043147538
0.0042065765
0.0041037426
0.0040054932
0.0039113714
0.0038209996
0.0037338928
0.0036497696
0.0035687173
0.0034908603
0.0034161907
0.003344954
0.0032778528
0.0032157119
0.0031592933
0.0031096609
0.0030684561
0.0030374274
0.0030181382
0.0030126272
0.0030230042
0.003050238
0.0030943705
0.00315496
0.0032307452
0.0033193583
0.0034176125