/*--------------------------------*- C++ -*----------------------------------*\
| =========                 |                                                 |
| \\      /  F ield         | OpenFOAM: The Open Source CFD Toolbox           |
|  \\    /   O peration     | Version:  2206                                  |
|   \\  /    A nd           | Website:  www.openfoam.com                      |
|    \\/     M anipulation  |                                                 |
\*---------------------------------------------------------------------------*/
FoamFile
{
    version     2.0;
    format      ascii;
    arch        "LSB;label=32;scalar=64";
    class       surfaceScalarField;
    location    "700";
    object      phi;
}
// * * * * * * * * * * * * * * * * * * * * * * * * * * * * * * * * * * * * * //

dimensions      [0 3 -1 0 0 0 0];

oriented        oriented;

internalField   nonuniform List<scalar> 
14782
(
0.00061770565
8.778079e-05
-0.00070548644
0.0005103111
0.00010739456
0.00040013901
0.00011017209
0.00030667398
9.3465033e-05
0.000239998
6.6675979e-05
0.0001992575
4.0740496e-05
0.00017534066
2.3916842e-05
0.00016117055
1.4170108e-05
0.00015176244
9.4081113e-06
0.00014419513
7.5673127e-06
0.00013732528
6.8698447e-06
0.00013096366
6.3616266e-06
0.00012515471
5.8089485e-06
0.0001198617
5.2930138e-06
0.00011502711
4.8345879e-06
0.00011062451
4.4025952e-06
0.00010661831
4.0062074e-06
0.0001029266
3.6917023e-06
9.9498753e-05
3.4278502e-06
9.6315171e-05
3.1835815e-06
9.3353549e-05
2.9616222e-06
9.0579059e-05
2.77449e-06
8.7970376e-05
2.608683e-06
8.5518094e-05
2.452282e-06
8.3209405e-05
2.3086885e-06
8.1025742e-05
2.1836634e-06
7.8956143e-05
2.0695987e-06
7.6995824e-05
1.9603195e-06
7.5137471e-05
1.8583531e-06
7.3371635e-05
1.7658353e-06
7.1693197e-05
1.678438e-06
7.0099805e-05
1.5933929e-06
6.858726e-05
1.5125446e-06
6.7150865e-05
1.4363947e-06
6.5788432e-05
1.3624336e-06
6.4499049e-05
1.2893822e-06
6.3280981e-05
1.218068e-06
6.2133223e-05
1.1477581e-06
6.1056709e-05
1.076514e-06
6.0053173e-05
1.0035364e-06
5.912382e-05
9.2935298e-07
5.8270353e-05
8.5346727e-07
5.7495949e-05
7.7440347e-07
5.6802917e-05
6.9303206e-07
5.6200164e-05
6.0275365e-07
5.5691148e-05
5.090156e-07
5.528508e-05
4.0606782e-07
5.4990046e-05
2.9503387e-07
5.4804608e-05
1.8543875e-07
5.4727034e-05
7.7574073e-08
5.4752941e-05
-2.5907839e-08
5.4875501e-05
-1.2255956e-07
5.5082494e-05
-2.0699274e-07
5.535409e-05
-2.715962e-07
5.5677164e-05
-3.2307397e-07
5.6038928e-05
-3.6176426e-07
5.6406093e-05
-3.6716494e-07
5.6741452e-05
-3.3535891e-07
5.7009169e-05
-2.6771752e-07
5.7195071e-05
-1.8590151e-07
5.7295699e-05
-1.0062815e-07
5.731401e-05
-1.831052e-08
5.7260103e-05
5.3906967e-08
5.7147339e-05
1.1276398e-07
5.6989176e-05
1.5816248e-07
5.6797576e-05
1.9160054e-07
5.65833e-05
2.1427546e-07
5.6354172e-05
2.2912827e-07
5.6116045e-05
2.3812652e-07
5.587337e-05
2.4267525e-07
5.562938e-05
2.4398967e-07
5.538578e-05
2.436001e-07
5.5144065e-05
2.417149e-07
5.4905493e-05
2.3857268e-07
5.4669977e-05
2.3551581e-07
5.4438127e-05
2.3185003e-07
5.4206644e-05
2.3148252e-07
5.3971057e-05
2.3558759e-07
5.3732661e-05
2.3839617e-07
5.3492797e-05
2.3986406e-07
5.3252375e-05
2.4042152e-07
5.3011311e-05
2.4106423e-07
5.2768327e-05
2.4298438e-07
5.2523603e-05
2.4472316e-07
5.2276567e-05
2.4703671e-07
5.202748e-05
2.4908708e-07
5.177642e-05
2.5105925e-07
5.152349e-05
2.5293044e-07
5.1269217e-05
2.5427282e-07
5.1013447e-05
2.5576978e-07
5.0756755e-05
2.5669194e-07
5.049901e-05
2.577454e-07
5.0240372e-05
2.5863744e-07
4.9980523e-05
2.5984921e-07
4.9718699e-05
2.618239e-07
4.9454863e-05
2.6383663e-07
4.9209682e-05
2.4518082e-07
4.8806933e-05
4.0274885e-07
4.8816007e-05
-9.0740856e-09
8.3917184e-07
0.00079176759
9.1061822e-05
-0.00079504863
0.00077879155
0.0001203706
0.0007519517
0.00013701194
0.00070880118
0.00013661555
0.00065526351
0.00012021365
0.00060117744
9.4826567e-05
0.00055308665
7.2007632e-05
0.00051315489
5.4101866e-05
0.0004802937
4.2269305e-05
0.00045279697
3.5064043e-05
0.00042916835
3.0498464e-05
0.00040850619
2.7023781e-05
0.00039019733
2.4117812e-05
0.00037375697
2.1733374e-05
0.0003588413
1.9750262e-05
0.00034524636
1.7997535e-05
0.00033279982
1.6452741e-05
0.000321325
1.5166521e-05
0.00031068699
1.4065864e-05
0.00030079548
1.3075096e-05
0.00029157251
1.2184586e-05
0.00028293645
1.1410553e-05
0.00027482493
1.0720198e-05
0.00026719204
1.0085178e-05
0.00025999429
9.506437e-06
0.00025318809
8.98986e-06
0.00024674072
8.5169716e-06
0.00024062945
8.071586e-06
0.00023483184
7.6559705e-06
0.00022932463
7.2730414e-06
0.00022409105
6.9120199e-06
0.00021911969
6.5647514e-06
0.00021439877
6.233469e-06
0.0002099168
5.918358e-06
0.00020566647
5.6127688e-06
0.00020164357
5.3122796e-06
0.00019784432
5.0173145e-06
0.00019426707
4.7250101e-06
0.00019091412
4.4294659e-06
0.0001877904
4.1272556e-06
0.00018490133
3.8184223e-06
0.00018225425
3.5005539e-06
0.00017985948
3.1691716e-06
0.00017772727
2.8252358e-06
0.00017588036
2.449665e-06
0.00017433487
2.0545102e-06
0.00017310851
1.6324284e-06
0.0001722183
1.1852404e-06
0.00017166348
7.4026082e-07
0.00017143523
3.0582015e-07
0.00017151724
-1.0791617e-07
0.00017188535
-4.9067138e-07
0.00017250068
-8.2232261e-07
0.00017330818
-1.0790979e-06
0.00017425982
-1.2747093e-06
0.00017530071
-1.4026566e-06
0.00017633733
-1.4037783e-06
0.00017726693
-1.2649628e-06
0.00017799921
-1.0000003e-06
0.0001784924
-6.7909355e-07
0.00017873824
-3.4646023e-07
0.00017874857
-2.8645994e-08
0.00017855101
2.5147288e-07
0.00017818284
4.8092664e-07
0.00017768268
6.5832786e-07
0.00017708513
7.8914902e-07
0.00017642034
8.7906342e-07
0.00017571129
9.3817993e-07
0.00017497532
9.7409987e-07
0.00017422549
9.92503e-07
0.00017347118
9.9829585e-07
0.00017271806
9.9672582e-07
0.0001719707
9.8907562e-07
0.00017123253
9.76739e-07
0.00017050417
9.638772e-07
0.00016978635
9.496711e-07
0.00016906816
9.4967004e-07
0.00016833779
9.6595704e-07
0.00016759949
9.7669437e-07
0.00016685753
9.8182226e-07
0.00016611371
9.8424926e-07
0.00016536734
9.8742676e-07
0.0001646157
9.9462548e-07
0.00016385843
1.0019923e-06
0.00016309443
1.0110366e-06
0.00016232414
1.0193823e-06
0.00016154788
1.0273151e-06
0.00016076619
1.0346232e-06
0.0001599803
1.0401644e-06
0.00015919039
1.0456819e-06
0.00015839767
1.0494051e-06
0.00015760246
1.0529587e-06
0.00015680476
1.0563349e-06
0.00015600528
1.0593262e-06
0.00015519814
1.0689702e-06
0.00015439652
1.0654576e-06
0.00015358731
1.0543847e-06
0.00015257223
1.4178328e-06
0.00015201365
5.4950141e-07
2.5181335e-06
0.00083158625
8.6590013e-05
-0.00082711444
0.00083710222
0.00011485463
0.00084162993
0.00013248423
0.00084053428
0.0001377112
0.00083141842
0.00012932951
0.00081413422
0.00011211076
0.00079128993
9.4851917e-05
0.0007652989
8.0092899e-05
0.00073806083
6.9507377e-05
0.00071108654
6.2038337e-05
0.0006852154
5.63696e-05
0.00066074432
5.1494858e-05
0.00063768132
4.7180816e-05
0.00061592385
4.3490847e-05
0.00059540679
4.0267318e-05
0.00057610068
3.7303644e-05
0.0005579464
3.4607021e-05
0.00054084993
3.2262987e-05
0.0005247272
3.0188602e-05
0.00050951301
2.8289281e-05
0.00049514205
2.6555548e-05
0.00048154058
2.5012025e-05
0.00046864831
2.3612462e-05
0.00045641777
2.231572e-05
0.00044480278
2.1121429e-05
0.00043375495
2.0037688e-05
0.00042323539
1.9036531e-05
0.00041321422
1.8092759e-05
0.0004036627
1.7207484e-05
0.00039455273
1.6383017e-05
0.00038586289
1.5601854e-05
0.00037757742
1.4850226e-05
0.00036968129
1.41296e-05
0.00036216096
1.3438687e-05
0.00035500771
1.2766025e-05
0.00034821692
1.210307e-05
0.00034178578
1.1448447e-05
0.00033571464
1.0796157e-05
0.00033000855
1.0135548e-05
0.00032467635
9.4594565e-06
0.00031972876
8.7660149e-06
0.00031517975
8.0495672e-06
0.0003110471
7.3018175e-06
0.0003073508
6.5215413e-06
0.00030412133
5.6791316e-06
0.00030138681
4.7890313e-06
0.00029916643
3.8528068e-06
0.00029747272
2.8789554e-06
0.00029630196
1.9110213e-06
0.00029563588
9.7189439e-07
0.00029544343
8.4536092e-08
0.00029568153
-7.2877513e-07
0.00029628849
-1.4292756e-06
0.00029718347
-1.9740816e-06
0.00029828837
-2.3796103e-06
0.00029950814
-2.6224253e-06
0.00030070491
-2.6005513e-06
0.00030173724
-2.2972889e-06
0.0003024901
-1.7528661e-06
0.00030290932
-1.0983101e-06
0.0003029858
-4.22941e-07
0.00030273764
2.1951318e-07
0.00030220386
7.8525251e-07
0.00030143657
1.2482226e-06
0.0003004887
1.6061966e-06
0.00029940789
1.8699564e-06
0.00029823549
2.0514591e-06
0.00029700393
2.1697427e-06
0.00029573805
2.2399835e-06
0.00029445662
2.273931e-06
0.0002931731
2.2818144e-06
0.00029189612
2.2737109e-06
0.00029063251
2.2526803e-06
0.00028938716
2.222091e-06
0.00028816135
2.1896883e-06
0.00028695523
2.1557943e-06
0.00028575154
2.1533586e-06
0.00028453531
2.18218e-06
0.00028331422
2.1977909e-06
0.00028209287
2.2031721e-06
0.00028087195
2.2051708e-06
0.00027964962
2.2097538e-06
0.00027842212
2.2221255e-06
0.00027718809
2.236024e-06
0.00027594589
2.2532347e-06
0.00027469569
2.2695829e-06
0.0002734378
2.2852017e-06
0.00027217294
2.2994844e-06
0.00027090258
2.3105226e-06
0.00026962723
2.3210318e-06
0.00026834831
2.3283285e-06
0.00026706657
2.3346974e-06
0.00026578176
2.34115e-06
0.00026449567
2.345408e-06
0.00026319781
2.3668373e-06
0.00026191356
2.3497075e-06
0.00026058473
2.383214e-06
0.000259101
2.9015621e-06
0.00025782669
1.8238098e-06
4.5909138e-06
0.00086138364
8.2259503e-05
-0.00085705313
0.00086791963
0.00010831864
0.00087521014
0.00012519373
0.00088223612
0.00013068522
0.00088614419
0.00012542144
0.00088512903
0.00011312592
0.00088104294
9.8938012e-05
0.00087431954
8.6816297e-05
0.0008652334
7.8593517e-05
0.00085402978
7.3241955e-05
0.00084103868
6.9360702e-05
0.00082646084
6.6072704e-05
0.00081066101
6.2980643e-05
0.00079422849
5.9923368e-05
0.00077750252
5.6993289e-05
0.00076070865
5.4097513e-05
0.00074398547
5.1330202e-05
0.0007274208
4.8827654e-05
0.0007110995
4.6509899e-05
0.0006951004
4.4288383e-05
0.0006794787
4.2177248e-05
0.00066426143
4.0229293e-05
0.00064947021
3.8403682e-05
0.00063512329
3.6662638e-05
0.00062122952
3.5015205e-05
0.00060778559
3.348162e-05
0.00059478841
3.2033703e-05
0.00058223585
3.0645321e-05
0.00057012152
2.932182e-05
0.00055843588
2.8068649e-05
0.0005471726
2.6865138e-05
0.00053632784
2.5694987e-05
0.00052589686
2.4560581e-05
0.00051587552
2.3460029e-05
0.00050626382
2.2377722e-05
0.00049706568
2.1301206e-05
0.00048828598
2.0228147e-05
0.00047993111
1.9151029e-05
0.00047201122
1.8055442e-05
0.00046454001
1.6930661e-05
0.00045753354
1.5772493e-05
0.0004510114
1.4571704e-05
0.00044499689
1.3316324e-05
0.00043951722
1.2001209e-05
0.00043460414
1.0592217e-05
0.00043028571
9.1074578e-06
0.00042657358
7.5649378e-06
0.0004234649
5.9876408e-06
0.00042094822
4.4276983e-06
0.00041900102
2.9190917e-06
0.00041758892
1.4966368e-06
0.00041666239
1.9776081e-07
0.0004161507
-9.1759351e-07
0.0004159705
-1.7938767e-06
0.0004160356
-2.4447135e-06
0.00041622829
-2.8151086e-06
0.00041639684
-2.7691057e-06
0.00041640796
-2.3084075e-06
0.00041616768
-1.5125901e-06
0.00041563569
-5.6631475e-07
0.00041480756
4.0518792e-07
0.0004137029
1.3241758e-06
0.00041235859
2.1295594e-06
0.00041081956
2.7872489e-06
0.00040913126
3.2944936e-06
0.00040733554
3.6656813e-06
0.00040546977
3.9172294e-06
0.00040356424
4.0752728e-06
0.00040164281
4.1614112e-06
0.00039972382
4.1929248e-06
0.00039782043
4.1852017e-06
0.00039594151
4.1526361e-06
0.00039409426
4.0999279e-06
0.00039228351
4.0328411e-06
0.00039051031
3.9628832e-06
0.0003887734
3.8927055e-06
0.00038706742
3.8593431e-06
0.0003853849
3.8647011e-06
0.00038372113
3.8615605e-06
0.00038207214
3.8521622e-06
0.00038043503
3.8422801e-06
0.00037880633
3.838451e-06
0.00037718122
3.8472347e-06
0.00037555705
3.8601918e-06
0.00037393126
3.8790232e-06
0.00037230312
3.8977309e-06
0.00037067226
3.9160535e-06
0.00036903891
3.932841e-06
0.00036740405
3.9453756e-06
0.00036576794
3.9571511e-06
0.00036413156
3.9646994e-06
0.00036249565
3.970616e-06
0.00036085935
3.977443e-06
0.00035922501
3.9797559e-06
0.00035757884
4.0129987e-06
0.00035595263
3.9759213e-06
0.00035426412
4.071719e-06
0.0003524699
4.6957821e-06
0.0003506622
3.6315114e-06
6.8115188e-06
0.0008916764
7.8534427e-05
-0.00088795132
0.00089770936
0.00010228567
0.00090491639
0.0001179867
0.0009118219
0.0001237797
0.00091698877
0.00012025457
0.00091991729
0.00011019741
0.00092055807
9.8297231e-05
0.00091941503
8.7959336e-05
0.00091752775
8.0480799e-05
0.00091497613
7.5793569e-05
0.00091168631
7.2650529e-05
0.00090743832
7.0320695e-05
0.00090198714
6.8431821e-05
0.00089527195
6.6638557e-05
0.00088736577
6.4899471e-05
0.00087829041
6.3172873e-05
0.00086819631
6.1424303e-05
0.00085737158
5.9652381e-05
0.00084597898
5.7902501e-05
0.00083413945
5.6127914e-05
0.0008219514
5.4365292e-05
0.00080949322
5.2687472e-05
0.00079684269
5.1054221e-05
0.00078407855
4.9426778e-05
0.00077126991
4.7823838e-05
0.00075847282
4.6278711e-05
0.00074574008
4.4766443e-05
0.00073311908
4.326632e-05
0.00072064763
4.179327e-05
0.00070835603
4.0360252e-05
0.00069627325
3.8947912e-05
0.00068442647
3.7541774e-05
0.00067283864
3.6148411e-05
0.00066153091
3.476776e-05
0.00065052705
3.3381583e-05
0.0006398531
3.1975155e-05
0.00062952959
3.0551653e-05
0.00061957267
2.9107953e-05
0.00061000178
2.7626329e-05
0.00060083992
2.6092524e-05
0.00059211197
2.4500439e-05
0.00058384567
2.283801e-05
0.00057607138
2.1090612e-05
0.00056882632
1.9246268e-05
0.00056214105
1.7277484e-05
0.00055602558
1.5222934e-05
0.00055047635
1.3114166e-05
0.00054548719
1.0976798e-05
0.00054105209
8.8627984e-06
0.00053715804
6.8131414e-06
0.00053378168
4.873002e-06
0.00053088232
3.0971144e-06
0.00052839686
1.5678747e-06
0.00052626122
3.4175674e-07
0.000524384
-5.6749076e-07
0.00052261877
-1.0498779e-06
0.00052083107
-9.8140658e-07
0.00051894606
-4.2340154e-07
0.00051692625
5.0722777e-07
0.00051476106
1.5988723e-06
0.00051245439
2.7118561e-06
0.00051001909
3.7594807e-06
0.00050747501
4.673633e-06
0.00050484598
5.41628e-06
0.00050215705
5.9834238e-06
0.00049943266
6.3900761e-06
0.00049669621
6.6536726e-06
0.00049396761
6.8038698e-06
0.0004912633
6.8657304e-06
0.00048859623
6.8599931e-06
0.00048597574
6.8056896e-06
0.00048340858
6.7197931e-06
0.00048090052
6.6079886e-06
0.00047845472
6.4786478e-06
0.00047607085
6.3467461e-06
0.00047374609
6.2174665e-06
0.00047148159
6.123841e-06
0.00046927574
6.0705566e-06
0.00046711806
6.0192379e-06
0.0004649985
5.9717242e-06
0.00046291058
5.9302008e-06
0.00046084893
5.900096e-06
0.00045880755
5.8886198e-06
0.00045678241
5.8853291e-06
0.00045476978
5.8916589e-06
0.00045276763
5.8998786e-06
0.0004507745
5.9091848e-06
0.00044878955
5.91779e-06
0.0004468128
5.9221242e-06
0.00044484369
5.9262558e-06
0.00044288243
5.925963e-06
0.00044092917
5.9238733e-06
0.00043898222
5.9243935e-06
0.0004370438
5.9181771e-06
0.00043509785
5.9589519e-06
0.00043317838
5.8953914e-06
0.00043119262
6.0574809e-06
0.00042914181
6.7465848e-06
0.00042690454
5.8687796e-06
9.1294383e-06
0.0009230708
7.5203414e-05
-0.00091973979
0.00092859038
9.6766095e-05
0.00093516379
0.00011141329
0.00094158325
0.00011736025
0.00094673376
0.00011510406
0.00094997772
0.00010695345
0.0009515659
9.6709056e-05
0.00095194104
8.7584189e-05
0.00095160223
8.0819609e-05
0.00095109062
7.6305182e-05
0.00095044289
7.3298262e-05
0.00094959317
7.1170407e-05
0.00094844242
6.9582576e-05
0.0009468639
6.8217076e-05
0.00094478063
6.6982743e-05
0.00094205696
6.5896546e-05
0.00093855214
6.4929123e-05
0.00093422464
6.3979874e-05
0.00092908021
6.3046936e-05
0.00092309812
6.2109999e-05
0.00091633192
6.1131498e-05
0.00090890902
6.0110368e-05
0.00090090535
5.9057889e-05
0.00089237966
5.7952469e-05
0.00088338425
5.6819245e-05
0.00087397168
5.5691283e-05
0.0008641985
5.4539629e-05
0.00085411886
5.3345959e-05
0.00084378536
5.2126771e-05
0.00083324955
5.0896064e-05
0.00082256398
4.9633481e-05
0.00081177971
4.8326036e-05
0.00080094303
4.6985093e-05
0.00079009683
4.561396e-05
0.00077928401
4.4194403e-05
0.0007685475
4.2711672e-05
0.00075792917
4.1169975e-05
0.0007474707
3.9566426e-05
0.00073721379
3.7883242e-05
0.00072719988
3.6106431e-05
0.00071746988
3.4230436e-05
0.00070806625
3.2241644e-05
0.00069903369
3.0123173e-05
0.00069043019
2.7849766e-05
0.00068226303
2.5444643e-05
0.00067450934
2.2976629e-05
0.00066719173
2.0431773e-05
0.00066034192
1.7826609e-05
0.00065397802
1.5226696e-05
0.00064810003
1.2691135e-05
0.00064269026
1.0282766e-05
0.00063770991
8.07747e-06
0.00063310843
6.1693484e-06
0.00062885782
4.5923726e-06
0.00062482867
3.4616544e-06
0.00062083066
2.948135e-06
0.00061681194
3.0373106e-06
0.00061279784
3.5907039e-06
0.00060880369
4.5013737e-06
0.00060483444
5.5681228e-06
0.0006008928
6.6534941e-06
0.00059698071
7.6715748e-06
0.00059310007
8.5542763e-06
0.00058925503
9.2613168e-06
0.0005854518
9.7866499e-06
0.00058169768
1.0144196e-05
0.00057800122
1.0350135e-05
0.00057437041
1.0434685e-05
0.00057081254
1.0423597e-05
0.00056733391
1.0338627e-05
0.0005639396
1.0199996e-05
0.00056063275
1.0026646e-05
0.00055741538
9.8253532e-06
0.00055428803
9.6059978e-06
0.00055124853
9.3862511e-06
0.00054829285
9.1731411e-06
0.00054541927
8.9974273e-06
0.0005426263
8.8635211e-06
0.00053990708
8.7384552e-06
0.00053725163
8.6271774e-06
0.00053465182
8.530013e-06
0.00053210081
8.4511039e-06
0.00052959151
8.3979202e-06
0.00052711869
8.3581482e-06
0.00052467742
8.3329284e-06
0.00052226435
8.3129542e-06
0.00051987668
8.2968516e-06
0.00051751231
8.2821591e-06
0.00051517
8.2644388e-06
0.00051284827
8.2479807e-06
0.00051054634
8.2278954e-06
0.00050826328
8.2069299e-06
0.00050599627
8.1914058e-06
0.00050374693
8.167519e-06
0.0005014976
8.2082776e-06
0.00049928195
8.1110408e-06
0.00049700294
8.3364902e-06
0.00049469348
9.0560495e-06
0.00049206377
8.4984889e-06
1.1576401e-05
0.0009554502
7.2203258e-05
-0.00095245005
0.00096053527
9.1681029e-05
0.00096660548
0.00010534308
0.00097257573
0.00011139
0.00097745937
0.00011022042
0.00098070665
0.00010370616
0.00098245952
9.495619e-05
0.00098322003
8.6823678e-05
0.0009834308
8.0608835e-05
0.00098341631
7.6319674e-05
0.00098332724
7.3387335e-05
0.00098321232
7.1285326e-05
0.00098306782
6.9727074e-05
0.00098282961
6.8455292e-05
0.00098245199
6.736036e-05
0.00098189755
6.645099e-05
0.00098111653
6.5710144e-05
0.00098004583
6.5050566e-05
0.0009786348
6.4457973e-05
0.00097679675
6.3948049e-05
0.00097443892
6.3489329e-05
0.00097151988
6.3029403e-05
0.00096801826
6.2559508e-05
0.00096390212
6.2068612e-05
0.00095918607
6.153529e-05
0.00095392079
6.0956569e-05
0.00094813447
6.0325948e-05
0.00094185191
5.962852e-05
0.00093509612
5.8882555e-05
0.00092789315
5.8099038e-05
0.00092027621
5.7250423e-05
0.00091228128
5.6320965e-05
0.00090393987
5.5326499e-05
0.00089528406
5.4269778e-05
0.00088635225
5.3126213e-05
0.00087718393
5.1879984e-05
0.00086782109
5.0532819e-05
0.00085831088
4.9076632e-05
0.00084870295
4.7491178e-05
0.00083904792
4.576146e-05
0.00082939722
4.3881133e-05
0.00081980456
4.1834308e-05
0.00081032714
3.9600588e-05
0.00080102545
3.7151458e-05
0.00079194876
3.4521332e-05
0.00078312042
3.1804976e-05
0.00077455755
2.8994639e-05
0.00076629177
2.6092391e-05
0.00075835374
2.3164724e-05
0.0007507631
2.0281771e-05
0.00074352424
1.7521626e-05
0.00073662244
1.4979272e-05
0.00073004311
1.2748683e-05
0.00072379305
1.0842433e-05
0.00071779081
9.4638946e-06
0.00071189743
8.8415146e-06
0.00070607396
8.8607737e-06
0.00070034022
9.3244514e-06
0.00069470788
1.0133709e-05
0.00068918293
1.1093073e-05
0.00068377318
1.2063241e-05
0.0006784817
1.2963062e-05
0.00067330663
1.3729346e-05
0.00066824791
1.4320037e-05
0.00066330624
1.4728312e-05
0.00065848128
1.4969161e-05
0.0006537735
1.5057917e-05
0.00064918383
1.5024352e-05
0.00064471339
1.4894032e-05
0.00064036325
1.4688766e-05
0.0006361349
1.442835e-05
0.00063202845
1.4133098e-05
0.00062804283
1.3810971e-05
0.00062417614
1.347269e-05
0.00062042432
1.3138068e-05
0.00061678234
1.281512e-05
0.00061324591
1.2533857e-05
0.00060981191
1.2297521e-05
0.00060647558
1.2074788e-05
0.00060322867
1.1874087e-05
0.00060006318
1.1695504e-05
0.00059697167
1.1542617e-05
0.00059394629
1.1423296e-05
0.00059098085
1.1323585e-05
0.00058806935
1.124443e-05
0.00058520715
1.1175154e-05
0.00058239013
1.1113879e-05
0.00057961479
1.1057495e-05
0.00057687852
1.1000712e-05
0.00057417867
1.0947823e-05
0.00057151327
1.0893299e-05
0.00056888015
1.0840048e-05
0.00056627526
1.0796294e-05
0.00056369932
1.0743461e-05
0.0005611334
1.07742e-05
0.00055860964
1.0634798e-05
0.00055602873
1.0917399e-05
0.00055344888
1.1635908e-05
0.00055044185
1.1505513e-05
1.4183123e-05
0.00098885565
6.9472859e-05
-0.00098612525
0.00099353441
8.7002268e-05
0.00099916583
9.9711662e-05
0.0010047483
0.00010580753
0.0010094064
0.00010556237
0.001012631
0.00010048149
0.0010144804
9.3106856e-05
0.00101538
8.5924062e-05
0.0010157665
8.0222334e-05
0.0010159391
7.6147054e-05
0.0010160376
7.328886e-05
0.0010161077
7.1215181e-05
0.0010161771
6.9657692e-05
0.0010162311
6.840131e-05
0.0010162415
6.7349922e-05
0.0010162054
6.6487084e-05
0.0010161186
6.5796939e-05
0.0010159548
6.5214417e-05
0.0010156926
6.4720101e-05
0.001015308
6.4332723e-05
0.0010147654
6.4031874e-05
0.001014024
6.3770783e-05
0.0010130437
6.3539888e-05
0.001011763
6.3349264e-05
0.0010101193
6.3179038e-05
0.001008075
6.3000843e-05
0.0010055984
6.2802526e-05
0.0010026586
6.2568301e-05
0.00099925526
6.2285934e-05
0.0009954021
6.1952201e-05
0.00099110144
6.155108e-05
0.00098635486
6.1067542e-05
0.00098116707
6.0514297e-05
0.00097554696
5.9889886e-05
0.00096950662
5.9166553e-05
0.00096306018
5.8326418e-05
0.00095622311
5.7369892e-05
0.00094901198
5.6287761e-05
0.00094144559
5.5057568e-05
0.00093354941
5.365764e-05
0.00092535472
5.207583e-05
0.00091689722
5.0291805e-05
0.00090821943
4.8278379e-05
0.00089935989
4.6010999e-05
0.00089039848
4.348274e-05
0.00088143027
4.077318e-05
0.00087248904
3.7935873e-05
0.00086359613
3.4985302e-05
0.0008547851
3.1975748e-05
0.00084609538
2.89715e-05
0.00083756752
2.6049483e-05
0.00082923846
2.3308329e-05
0.00082113671
2.0850431e-05
0.00081326998
1.8709163e-05
0.00080568175
1.7052133e-05
0.00079835403
1.6169232e-05
0.00079120637
1.6008435e-05
0.00078420312
1.6327698e-05
0.00077731162
1.7025206e-05
0.00077053285
1.7871846e-05
0.00076388198
1.8714106e-05
0.00075736561
1.9479433e-05
0.00075098822
2.0106742e-05
0.00074476001
2.0548246e-05
0.00073868736
2.0800963e-05
0.0007327707
2.088582e-05
0.00072701113
2.0817488e-05
0.00072140966
2.0625819e-05
0.00071596564
2.0338055e-05
0.00071067769
1.9976708e-05
0.00070554539
1.9560658e-05
0.00070056759
1.9110893e-05
0.00069574208
1.8636482e-05
0.00069106544
1.8149327e-05
0.00068653214
1.7671371e-05
0.00068213628
1.7210978e-05
0.00067787219
1.6797949e-05
0.00067373518
1.643453e-05
0.00066972092
1.6089048e-05
0.00066582255
1.5772461e-05
0.00066203289
1.5485165e-05
0.00065834457
1.5230938e-05
0.00065474935
1.501851e-05
0.00065124029
1.4832642e-05
0.00064781043
1.4674299e-05
0.00064445391
1.4531675e-05
0.00064116527
1.4402518e-05
0.00063793962
1.4283145e-05
0.00063477287
1.4167462e-05
0.00063166092
1.4059764e-05
0.00062860039
1.395383e-05
0.00062558786
1.3852577e-05
0.00062261802
1.3766138e-05
0.00061969046
1.3671024e-05
0.00061678506
1.3679601e-05
0.000613932
1.3487857e-05
0.00061102984
1.3819562e-05
0.00060815905
1.4506696e-05
0.00060476958
1.4894983e-05
1.6980315e-05
0.0010233243
6.6956542e-05
-0.001020808
0.0010276223
8.2704304e-05
0.0010328399
9.4494066e-05
0.0010380622
0.00010058519
0.0010425143
0.0001011103
0.0010457187
9.7277095e-05
0.0010476689
9.1156603e-05
0.0010487046
8.4888341e-05
0.0010492152
7.9711812e-05
0.0010494847
7.5877515e-05
0.0010496623
7.3111294e-05
0.0010498089
7.1068532e-05
0.0010499495
6.9517154e-05
0.0010500752
6.8275591e-05
0.0010501781
6.724697e-05
0.0010502606
6.6404584e-05
0.0010503333
6.5724272e-05
0.0010503864
6.5161365e-05
0.0010504024
6.4704014e-05
0.0010503843
6.4350823e-05
0.0010503286
6.4087661e-05
0.0010502185
6.3880794e-05
0.0010500389
6.3719567e-05
0.0010497709
6.3617249e-05
0.0010493891
6.3560786e-05
0.0010488647
6.3525225e-05
0.0010481657
6.3501609e-05
0.0010472462
6.3487745e-05
0.0010460614
6.3470737e-05
0.0010445804
6.3433262e-05
0.0010427688
6.3362654e-05
0.0010405964
6.3239969e-05
0.001038056
6.3054608e-05
0.0010351443
6.2801632e-05
0.0010318504
6.2460486e-05
0.0010281623
6.201445e-05
0.0010240689
6.1463334e-05
0.0010195627
6.079394e-05
0.00101464
5.998028e-05
0.0010092967
5.9000982e-05
0.0010035278
5.7844672e-05
0.00099732962
5.6490004e-05
0.00099070149
5.4906508e-05
0.00098363953
5.3072958e-05
0.00097615321
5.0969062e-05
0.00096830368
4.8622713e-05
0.00096016037
4.6079185e-05
0.00095176797
4.3377698e-05
0.00094316818
4.0575542e-05
0.00093440736
3.7732314e-05
0.00092554156
3.4915288e-05
0.00091663787
3.2212013e-05
0.00090775934
2.9728969e-05
0.00089893209
2.7536412e-05
0.00089025632
2.5727896e-05
0.00088187138
2.4554175e-05
0.00087377368
2.410614e-05
0.00086583565
2.426573e-05
0.00085797934
2.4881506e-05
0.0008502246
2.5626589e-05
0.00084257373
2.6364978e-05
0.00083502404
2.7029119e-05
0.00082759392
2.7536866e-05
0.00082030757
2.7834595e-05
0.00081317559
2.7932944e-05
0.00080620369
2.7857717e-05
0.00079940256
2.7618616e-05
0.00079277909
2.7249291e-05
0.00078633435
2.6782795e-05
0.00078006911
2.6241949e-05
0.00077398512
2.5644644e-05
0.00076808207
2.501395e-05
0.00076235796
2.4360588e-05
0.00075680963
2.3697657e-05
0.00075143142
2.3049581e-05
0.00074621754
2.2424856e-05
0.0007411624
2.1853087e-05
0.00073626083
2.1336105e-05
0.00073150841
2.0841466e-05
0.00072689912
2.0381749e-05
0.00072242678
1.9957512e-05
0.00071808448
1.9573238e-05
0.00071386396
1.9239028e-05
0.00070975782
1.8938781e-05
0.0007057583
1.867382e-05
0.00070185849
1.8431481e-05
0.0006980517
1.8209311e-05
0.00069433165
1.8003195e-05
0.00069069279
1.7806321e-05
0.00068712951
1.7623044e-05
0.0006836369
1.7446441e-05
0.00068021017
1.7279306e-05
0.00067684269
1.7133622e-05
0.00067353277
1.6980938e-05
0.0006702591
1.6953273e-05
0.00066704976
1.6697198e-05
0.00066380072
1.7068598e-05
0.00066061308
1.7694338e-05
0.00065682333
1.8684729e-05
1.9998509e-05
0.0010588856
6.4614596e-05
-0.0010565436
0.0010628324
7.8757504e-05
0.0010676609
8.9665558e-05
0.0010725448
9.5701233e-05
0.001076793
9.6862143e-05
0.0010799628
9.410732e-05
0.0010820009
8.9118419e-05
0.0010831711
8.3718175e-05
0.0010838111
7.9071767e-05
0.0010841813
7.5507364e-05
0.0010844296
7.2862952e-05
0.0010846256
7.0872533e-05
0.0010848015
6.9341323e-05
0.00108496
6.8117024e-05
0.0010850996
6.7107405e-05
0.0010852241
6.628008e-05
0.0010853371
6.5611302e-05
0.0010854346
6.5063823e-05
0.001085517
6.4621595e-05
0.0010855872
6.4280675e-05
0.0010856506
6.4024238e-05
0.001085702
6.3829356e-05
0.001085727
6.3694587e-05
0.0010857252
6.3619028e-05
0.0010856953
6.3590751e-05
0.0010856258
6.3594735e-05
0.0010855058
6.3621606e-05
0.0010853202
6.3673299e-05
0.0010850492
6.3741739e-05
0.0010846715
6.3810988e-05
0.0010841606
6.3873504e-05
0.0010834814
6.3919168e-05
0.0010826
6.3936071e-05
0.0010814906
6.3910992e-05
0.0010801201
6.3831042e-05
0.0010784611
6.367344e-05
0.0010765012
6.3423214e-05
0.0010742233
6.3071871e-05
0.001071609
6.259459e-05
0.0010686376
6.1972288e-05
0.0010652863
6.1195979e-05
0.0010615307
6.0245677e-05
0.0010573446
5.9092532e-05
0.0010526988
5.7718788e-05
0.0010475553
5.6112607e-05
0.0010418939
5.4284121e-05
0.0010357239
5.2249185e-05
0.001029062
5.0039574e-05
0.001021926
4.7711563e-05
0.0010143398
4.5318506e-05
0.0010063389
4.2916144e-05
0.0009979753
4.0575631e-05
0.0009893171
3.8387166e-05
0.00098042594
3.6427571e-05
0.00097139414
3.4759691e-05
0.00096241515
3.3533168e-05
0.00095362705
3.2894239e-05
0.00094503133
3.2861451e-05
0.00093660534
3.3307497e-05
0.00092828801
3.3943919e-05
0.00091999634
3.4656647e-05
0.00091172602
3.5299442e-05
0.00090352898
3.573391e-05
0.00089542499
3.5938576e-05
0.00088742018
3.5937756e-05
0.00087953844
3.573946e-05
0.00087180666
3.5350399e-05
0.00086423676
3.4819192e-05
0.00085683549
3.4184058e-05
0.00084961362
3.3463819e-05
0.00084257976
3.2678504e-05
0.00083573659
3.1857128e-05
0.00082908544
3.1011735e-05
0.0008226268
3.0156295e-05
0.00081635751
2.9318876e-05
0.00081027417
2.8508196e-05
0.00080437362
2.7753638e-05
0.00079865186
2.7057864e-05
0.00079310505
2.6388277e-05
0.00078772817
2.5758625e-05
0.00078251622
2.5169459e-05
0.00077746313
2.4626328e-05
0.00077256108
2.4141077e-05
0.00076780266
2.3697203e-05
0.00076317962
2.3296864e-05
0.00075868428
2.2926815e-05
0.00075430895
2.2584641e-05
0.00075004614
2.2266005e-05
0.00074588894
2.1963525e-05
0.00074183026
2.1681722e-05
0.00073786369
2.1413011e-05
0.00073398299
2.1160009e-05
0.00073018014
2.0936467e-05
0.00072645212
2.0708962e-05
0.00072277631
2.0629078e-05
0.00071917875
2.0294758e-05
0.00071555227
2.0695087e-05
0.00071201747
2.1229137e-05
0.00070780046
2.2901739e-05
2.3268725e-05
0.0010955733
6.2418841e-05
-0.0010933776
0.0010992012
7.5129608e-05
0.0011036666
8.5200192e-05
0.0011082326
9.1135201e-05
0.0011122791
9.2815685e-05
0.0011153986
9.0987753e-05
0.0011175051
8.701195e-05
0.0011187958
8.2427447e-05
0.0011195598
7.8307805e-05
0.0011200331
7.5034082e-05
0.001120359
7.2537039e-05
0.0011206107
7.062082e-05
0.0011208251
6.9126902e-05
0.0011210128
6.7929292e-05
0.0011211765
6.6943773e-05
0.0011213218
6.6134801e-05
0.0011214537
6.5479335e-05
0.0011215725
6.4945084e-05
0.0011216798
6.4514297e-05
0.0011217791
6.4181347e-05
0.0011218715
6.3931789e-05
0.0011219547
6.3746215e-05
0.0011220288
6.3620505e-05
0.0011220953
6.3552525e-05
0.0011221545
6.3531506e-05
0.0011222086
6.3540644e-05
0.0011222464
6.3583757e-05
0.0011222599
6.3659889e-05
0.0011222514
6.3750236e-05
0.0011222128
6.3849599e-05
0.0011221357
6.3950578e-05
0.0011220081
6.4046732e-05
0.0011218135
6.4130662e-05
0.0011215356
6.4188897e-05
0.0011211519
6.4214785e-05
0.0011206339
6.4191424e-05
0.0011199556
6.4101503e-05
0.0011190931
6.3934335e-05
0.0011180155
6.3672276e-05
0.0011166969
6.3290834e-05
0.0011151201
6.2772833e-05
0.0011132585
6.2107261e-05
0.0011110815
6.1269466e-05
0.0011085552
6.0245122e-05
0.0011056385
5.902927e-05
0.0011022859
5.7636742e-05
0.001098455
5.6080081e-05
0.0010941106
5.4384007e-05
0.0010892215
5.2600676e-05
0.0010837618
5.0778165e-05
0.0010777142