/*--------------------------------*- C++ -*----------------------------------*\
| =========                 |                                                 |
| \\      /  F ield         | OpenFOAM: The Open Source CFD Toolbox           |
|  \\    /   O peration     | Version:  2206                                  |
|   \\  /    A nd           | Website:  www.openfoam.com                      |
|    \\/     M anipulation  |                                                 |
\*---------------------------------------------------------------------------*/
FoamFile
{
    version     2.0;
    format      ascii;
    arch        "LSB;label=32;scalar=64";
    class       volVectorField;
    location    "700";
    object      U;
}
// * * * * * * * * * * * * * * * * * * * * * * * * * * * * * * * * * * * * * //

dimensions      [0 1 -1 0 0 0 0];

internalField   nonuniform List<vector> 
7480
(
(0.82757559 0.011162891 0)
(0.70301822 0.020212368 0)
(0.56656813 0.021426731 0)
(0.43054985 0.014559269 0)
(0.3305586 0.0062885983 0)
(0.26658205 0.0019091801 0)
(0.23007526 0.0022247069 0)
(0.20853441 -0.00029146398 0)
(0.19447561 -0.00043016604 0)
(0.18414742 -0.00017542494 0)
(0.17532386 8.7866309e-07 0)
(0.16713552 5.405247e-05 0)
(0.15956453 6.4729685e-05 0)
(0.15266345 6.6678559e-05 0)
(0.14637446 0.00024547744 0)
(0.14063854 0.00021969511 0)
(0.13540682 8.582717e-05 0)
(0.13062046 5.2750002e-05 0)
(0.12619377 4.5556197e-05 0)
(0.12207905 4.0798586e-05 0)
(0.1182548 3.7227439e-05 0)
(0.11468509 3.5232742e-05 0)
(0.1113332 3.2999629e-05 0)
(0.10818114 3.0331776e-05 0)
(0.10521628 2.8018179e-05 0)
(0.10241845 2.6309597e-05 0)
(0.099768432 2.4513058e-05 0)
(0.097257033 2.2558225e-05 0)
(0.094877642 2.0847629e-05 0)
(0.092619293 1.9421513e-05 0)
(0.090472389 1.7963743e-05 0)
(0.088432768 1.647671e-05 0)
(0.086496761 1.515403e-05 0)
(0.084658477 1.3970056e-05 0)
(0.082913367 1.2791982e-05 0)
(0.081259811 1.1632656e-05 0)
(0.079696252 1.0568934e-05 0)
(0.078220737 9.5552151e-06 0)
(0.076833151 8.5359793e-06 0)
(0.075535431 7.5276733e-06 0)
(0.074329521 6.574317e-06 0)
(0.073216903 5.6584984e-06 0)
(0.072201056 4.7345087e-06 0)
(0.071284749 3.86151e-06 0)
(0.070471104 1.5283347e-05 0)
(0.069786182 8.7591653e-06 0)
(0.069207944 9.3473089e-07 0)
(0.068770397 -2.7349963e-07 0)
(0.068472532 -1.0427264e-06 0)
(0.068310704 -1.7159983e-06 0)
(0.068281256 -2.4131118e-06 0)
(0.068377746 -2.911651e-06 0)
(0.068589363 -3.2678789e-06 0)
(0.068893925 -3.3733166e-06 0)
(0.069269747 -3.471837e-06 0)
(0.069705036 -3.5823133e-06 0)
(0.070170548 -3.2801662e-06 0)
(0.070619101 -2.7563416e-06 0)
(0.071004024 -2.5690181e-06 0)
(0.071286002 -5.1499157e-06 0)
(0.07146381 -1.1875251e-06 0)
(0.071535298 -6.1052716e-07 0)
(0.071508993 -2.2464103e-07 0)
(0.071400332 -2.3041061e-08 0)
(0.071227065 1.0590419e-07 0)
(0.071005165 1.8850057e-07 0)
(0.070748987 2.2391029e-07 0)
(0.070470156 2.4513297e-07 0)
(0.070177015 2.5492791e-07 0)
(0.069875819 2.5539926e-07 0)
(0.069571427 2.4802811e-07 0)
(0.069266721 2.4305075e-07 0)
(0.068963462 2.3455606e-07 0)
(0.068663648 2.210778e-07 0)
(0.06836778 2.1741302e-07 0)
(0.068076211 2.0767059e-07 0)
(0.0677894 2.1820545e-07 0)
(0.067497862 2.4797768e-07 0)
(0.0672014 2.5454305e-07 0)
(0.066902709 2.6016123e-07 0)
(0.066602944 2.5909026e-07 0)
(0.066302768 2.5642128e-07 0)
(0.066000866 2.6279964e-07 0)
(0.065696612 2.6029798e-07 0)
(0.065389784 2.6288911e-07 0)
(0.065080135 2.6111471e-07 0)
(0.064768027 2.5961532e-07 0)
(0.064453409 2.5867539e-07 0)
(0.064136875 2.541458e-07 0)
(0.063818519 2.5354118e-07 0)
(0.063498716 2.4823818e-07 0)
(0.063177565 2.4728606e-07 0)
(0.062855732 2.4140642e-07 0)
(0.062531121 2.4815656e-07 0)
(0.062209624 2.2355284e-07 0)
(0.061869513 3.0388528e-07 0)
(0.061575317 9.2256301e-07 0)
(0.061138147 1.136052e-05 0)
(0.060897853 1.911687e-05 0)
(0.060226296 1.0960849e-05 0)
(0.95867812 0.028038935 0)
(0.94943877 0.038590181 0)
(0.93031198 0.041835904 0)
(0.8851388 0.039313326 0)
(0.82442753 0.032448407 0)
(0.7568491 0.023970865 0)
(0.69439133 0.015507633 0)
(0.64141464 0.0094014556 0)
(0.59778854 0.0060292807 0)
(0.56173554 0.004362874 0)
(0.53124757 0.0035596239 0)
(0.50479205 0.0030815626 0)
(0.48145392 0.0027033686 0)
(0.46061317 0.0023890467 0)
(0.44178215 0.0021306626 0)
(0.42463804 0.001876302 0)
(0.40897439 0.0016546839 0)
(0.39458406 0.001482806 0)
(0.38127517 0.0013367735 0)
(0.36891185 0.0012053735 0)
(0.35739976 0.0010889972 0)
(0.34664276 0.00098993161 0)
(0.33655192 0.00090285548 0)
(0.32706429 0.00082390254 0)
(0.31812587 0.00075329766 0)
(0.30968495 0.00069144215 0)
(0.30169436 0.00063570302 0)
(0.2941213 0.00058420582 0)
(0.28694019 0.00053728672 0)
(0.28012298 0.00049508263 0)
(0.2736446 0.00045624872 0)
(0.26748867 0.00041995971 0)
(0.26164208 0.00038644898 0)
(0.2560904 0.00035561513 0)
(0.25082174 0.00032675571 0)
(0.24582956 0.00029950005 0)
(0.2411093 0.00027389479 0)
(0.23665732 0.00024966661 0)
(0.23247379 0.00022636847 0)
(0.22856356 0.00020381547 0)
(0.22493316 0.00018206473 0)
(0.22158972 0.00016097111 0)
(0.21854468 0.00014028284 0)
(0.21580935 0.00012007084 0)
(0.21340051 0.00010065227 0)
(0.21136062 9.4730929e-05 0)
(0.20967686 5.7159708e-05 0)
(0.20839838 3.7781242e-05 0)
(0.20753141 1.8575398e-05 0)
(0.20706588 7.8827767e-07 0)
(0.20698651 -1.5036825e-05 0)
(0.20727009 -2.8785521e-05 0)
(0.20788115 -3.9736905e-05 0)
(0.20875793 -4.7156493e-05 0)
(0.20983632 -5.2070623e-05 0)
(0.21106349 -5.4580205e-05 0)
(0.21234795 -5.2564229e-05 0)
(0.21356338 -4.6046756e-05 0)
(0.21458683 -3.6477616e-05 0)
(0.21532854 -2.5241027e-05 0)
(0.21577019 -1.4339082e-05 0)
(0.21591693 -4.9010412e-06 0)
(0.21579234 2.8471132e-06 0)
(0.21543744 8.7866563e-06 0)
(0.21490102 1.3009263e-05 0)
(0.21422777 1.5811241e-05 0)
(0.21345719 1.7445845e-05 0)
(0.21262135 1.8269886e-05 0)
(0.2117442 1.8523364e-05 0)
(0.21084362 1.8376479e-05 0)
(0.20993325 1.7967065e-05 0)
(0.20902162 1.7433715e-05 0)
(0.20811437 1.6805058e-05 0)
(0.20721695 1.6113713e-05 0)
(0.20633132 1.54534e-05 0)
(0.20545843 1.4789037e-05 0)
(0.20459812 1.4460116e-05 0)
(0.2037229 1.4446467e-05 0)
(0.20283401 1.4265521e-05 0)
(0.20193951 1.3972837e-05 0)
(0.20104229 1.362922e-05 0)
(0.20014316 1.3299276e-05 0)
(0.19923904 1.3039163e-05 0)
(0.19832816 1.2773119e-05 0)
(0.19740962 1.2535157e-05 0)
(0.196483 1.2284753e-05 0)
(0.19554904 1.2031637e-05 0)
(0.19460795 1.1774302e-05 0)
(0.19366124 1.1497046e-05 0)
(0.19270945 1.1228605e-05 0)
(0.1917537 1.0941595e-05 0)
(0.19079445 1.0663608e-05 0)
(0.18983352 1.0387614e-05 0)
(0.1888665 1.0122762e-05 0)
(0.18790613 9.9130163e-06 0)
(0.18690518 9.6358569e-06 0)
(0.18600687 1.1312003e-05 0)
(0.18477341 3.9837204e-05 0)
(0.18403317 6.5052772e-05 0)
(0.18205847 3.4582367e-05 0)
(0.96804404 0.029706425 0)
(0.97313176 0.0377196 0)
(0.98241792 0.04154305 0)
(0.98427845 0.041014289 0)
(0.97940667 0.037120193 0)
(0.96364536 0.030597419 0)
(0.93928496 0.024146495 0)
(0.91013817 0.019116533 0)
(0.87837858 0.015500317 0)
(0.8461822 0.012897142 0)
(0.81518441 0.010957258 0)
(0.78578402 0.0094043946 0)
(0.75804989 0.0081184972 0)
(0.73189996 0.007080898 0)
(0.70723074 0.0062334165 0)
(0.68398638 0.0055125354 0)
(0.66212991 0.004898516 0)
(0.64156863 0.0043848496 0)
(0.62219084 0.0039454078 0)
(0.60390805 0.003558113 0)
(0.58664898 0.0032169661 0)
(0.57033096 0.0029219546 0)
(0.55487359 0.0026627481 0)
(0.54021411 0.0024303389 0)
(0.52630034 0.0022226172 0)
(0.51307626 0.0020389798 0)
(0.50048958 0.0018740182 0)
(0.48850068 0.0017232989 0)
(0.47707678 0.0015860586 0)
(0.46618418 0.0014617474 0)
(0.45579317 0.0013476557 0)
(0.44588263 0.0012417677 0)
(0.43643534 0.0011438496 0)
(0.42743425 0.0010533763 0)
(0.41886584 0.00096887581 0)
(0.41072265 0.00088932808 0)
(0.40300065 0.0008144488 0)
(0.39569811 0.00074351451 0)
(0.38881796 0.00067549589 0)
(0.3823687 0.00060980694 0)
(0.37636204 0.0005463416 0)
(0.37081186 0.00048469848 0)
(0.36573766 0.00042430525 0)
(0.3611597 0.00036524974 0)
(0.3571067 0.00030368935 0)
(0.35362645 0.0002710838 0)
(0.35072621 0.00019007146 0)
(0.34844161 0.00012841326 0)
(0.34677671 7.4130409e-05 0)
(0.34571533 2.404822e-05 0)
(0.34522915 -2.0728792e-05 0)
(0.34527413 -5.9392891e-05 0)
(0.34579332 -9.0498795e-05 0)
(0.3466965 -0.00011247487 0)
(0.34789103 -0.00012694559 0)
(0.349286 -0.00013380348 0)
(0.35073995 -0.00012951612 0)
(0.35207907 -0.00011303659 0)
(0.35314566 -8.7114623e-05 0)
(0.35383352 -5.8625984e-05 0)
(0.35411676 -3.042116e-05 0)
(0.35400551 -5.1044406e-06 0)
(0.35353239 1.5956442e-05 0)
(0.35275434 3.2087653e-05 0)
(0.35173596 4.3600785e-05 0)
(0.3505366 5.1239648e-05 0)
(0.3492087 5.5709546e-05 0)
(0.34779537 5.7895892e-05 0)
(0.34632966 5.8460073e-05 0)
(0.3448365 5.7885301e-05 0)
(0.34333478 5.655922e-05 0)
(0.34183661 5.4835183e-05 0)
(0.34035045 5.2828171e-05 0)
(0.33888384 5.0646888e-05 0)
(0.33743985 4.8511204e-05 0)
(0.33601963 4.6401637e-05 0)
(0.33462152 4.5184585e-05 0)
(0.33320553 4.478091e-05 0)
(0.33177892 4.3999367e-05 0)
(0.33035147 4.2939038e-05 0)
(0.3289247 4.1793441e-05 0)
(0.32749813 4.0712988e-05 0)
(0.32606738 3.9810425e-05 0)
(0.32462955 3.8939061e-05 0)
(0.32318282 3.8140786e-05 0)
(0.32172633 3.7331032e-05 0)
(0.32026071 3.6518382e-05 0)
(0.3187862 3.5695807e-05 0)
(0.31730461 3.4831839e-05 0)
(0.31581678 3.3980599e-05 0)
(0.31432411 3.3095057e-05 0)
(0.31282733 3.2220816e-05 0)
(0.31132885 3.136598e-05 0)
(0.30982331 3.0511147e-05 0)
(0.30832617 2.9885869e-05 0)
(0.30677934 2.8830245e-05 0)
(0.30535746 3.1296117e-05 0)
(0.30351636 7.2517435e-05 0)
(0.30231485 0.00011334476 0)
(0.2993223 5.6768271e-05 0)
(0.97008776 0.027083704 0)
(0.97643777 0.034265786 0)
(0.98549582 0.038379502 0)
(0.99346196 0.039213212 0)
(1.0016661 0.036176953 0)
(1.0025529 0.031201826 0)
(0.99959522 0.02629321 0)
(0.99335581 0.022247148 0)
(0.98422661 0.019368076 0)
(0.9725359 0.017346005 0)
(0.95871225 0.015775647 0)
(0.94315324 0.014349258 0)
(0.92573506 0.013014148 0)
(0.90739208 0.011779806 0)
(0.88857777 0.010668801 0)
(0.8695776 0.0096631398 0)
(0.8505934 0.0087597739 0)
(0.8317494 0.0079704475 0)
(0.81313594 0.0072746602 0)
(0.79484517 0.006646415 0)
(0.77695724 0.0060786081 0)
(0.75951735 0.0055727656 0)
(0.74254962 0.0051176787 0)
(0.72607425 0.0047030182 0)
(0.7101095 0.0043267074 0)
(0.69465736 0.0039883089 0)
(0.67971223 0.0036810096 0)
(0.66527106 0.0033987509 0)
(0.65132999 0.0031400752 0)
(0.63787923 0.0029037985 0)
(0.62490887 0.0026858371 0)
(0.61241347 0.0024830097 0)
(0.60038863 0.0022945461 0)
(0.58882884 0.0021193514 0)
(0.57773111 0.0019550637 0)
(0.56709786 0.0017999183 0)
(0.55693495 0.0016532855 0)
(0.54724828 0.00151399 0)
(0.5380467 0.0013803307 0)
(0.52934392 0.0012512367 0)
(0.52115694 0.0011263493 0)
(0.51350551 0.0010049295 0)
(0.50641483 0.00088604991 0)
(0.49991088 0.00076965736 0)
(0.49403072 0.00065343188 0)
(0.48881277 0.00054641487 0)
(0.48427496 0.00042422091 0)
(0.48042563 0.00031435446 0)
(0.47725516 0.00021022313 0)
(0.47474421 0.00011564557 0)
(0.47286116 3.1365755e-05 0)
(0.47155981 -4.1315319e-05 0)
(0.47077387 -9.993026e-05 0)
(0.4704072 -0.00014226978 0)
(0.47037269 -0.00017106191 0)
(0.47056123 -0.00018569737 0)
(0.47080697 -0.00017825259 0)
(0.47093876 -0.00015105304 0)
(0.47082635 -0.00010632821 0)
(0.47039083 -6.109507e-05 0)
(0.46961587 -1.5024003e-05 0)
(0.46851229 2.6144663e-05 0)
(0.46711395 6.0140734e-05 0)
(0.46546901 8.6005511e-05 0)
(0.4636307 0.00010422878 0)
(0.46164878 0.00011599068 0)
(0.45956849 0.00012245339 0)
(0.45742827 0.000125033 0)
(0.45525851 0.00012483277 0)
(0.45308269 0.00012268497 0)
(0.45091873 0.00011926799 0)
(0.44877814 0.00011516168 0)
(0.44666976 0.00011057737 0)
(0.44460106 0.00010573 0)
(0.44257485 0.00010098315 0)
(0.44059166 9.6385e-05 0)
(0.43864734 9.2954488e-05 0)
(0.4367333 9.0738785e-05 0)
(0.4348425 8.8369872e-05 0)
(0.43297061 8.581846e-05 0)
(0.4311135 8.3261598e-05 0)
(0.42926835 8.0887502e-05 0)
(0.42742969 7.8848894e-05 0)
(0.42559327 7.6928645e-05 0)
(0.42375615 7.5163073e-05 0)
(0.4219164 7.3416802e-05 0)
(0.42007378 7.1689205e-05 0)
(0.41822785 6.9961687e-05 0)
(0.41637982 6.8185142e-05 0)
(0.41453014 6.6435297e-05 0)
(0.41267971 6.4647803e-05 0)
(0.41082898 6.2878657e-05 0)
(0.40898018 6.1164211e-05 0)
(0.40712733 5.9429971e-05 0)
(0.40528641 5.8188679e-05 0)
(0.40339568 5.5979141e-05 0)
(0.40163497 5.922263e-05 0)
(0.39945109 0.00010744533 0)
(0.39791887 0.00015835433 0)
(0.39438621 9.0372312e-05 0)
(0.97244653 0.025563744 0)
(0.9778055 0.032400865 0)
(0.98589568 0.036408724 0)
(0.9942037 0.037070289 0)
(1.0012842 0.034669826 0)
(1.0056371 0.030636667 0)
(1.0079758 0.026373059 0)
(1.0071264 0.02275757 0)
(1.0053176 0.020141747 0)
(1.0028091 0.01835331 0)
(0.99960219 0.017016911 0)
(0.9955972 0.015923403 0)
(0.99030481 0.014971347 0)
(0.98363444 0.014078588 0)
(0.97560072 0.013225648 0)
(0.96632733 0.012373132 0)
(0.95571391 0.011537308 0)
(0.94421204 0.010747043 0)
(0.93201819 0.010009851 0)
(0.91927485 0.0093175585 0)
(0.90609822 0.0086714047 0)
(0.89259124 0.0080776487 0)
(0.87883114 0.0075279918 0)
(0.86490396 0.0070126881 0)
(0.85089397 0.006531201 0)
(0.83686933 0.0060857367 0)
(0.82288824 0.0056708665 0)
(0.80900532 0.0052816264 0)
(0.79526794 0.0049180806 0)
(0.78171264 0.0045802155 0)
(0.7683707 0.004264065 0)
(0.75527288 0.0039664288 0)
(0.7424469 0.0036867683 0)
(0.7299162 0.0034239027 0)
(0.71770425 0.0031748951 0)
(0.70583894 0.0029374959 0)
(0.69434891 0.0027113935 0)
(0.68325102 0.0024956166 0)
(0.67256391 0.0022879871 0)
(0.66231113 0.0020868957 0)
(0.65251919 0.00189166 0)
(0.64321655 0.0017011958 0)
(0.63443587 0.001514285 0)
(0.62620961 0.0013303207 0)
(0.61858827 0.0011473877 0)
(0.61159038 0.00096826111 0)
(0.60521363 0.00079057245 0)
(0.59945403 0.00062335598 0)
(0.5943047 0.00046703491 0)
(0.58975691 0.00032335089 0)
(0.58579143 0.00019481063 0)
(0.58237625 8.3538901e-05 0)
(0.57945378 -6.9729089e-06 0)
(0.57694131 -7.4371072e-05 0)
(0.57478642 -0.00012061827 0)
(0.572839 -0.00014185678 0)
(0.57092143 -0.00013407428 0)
(0.56892344 -0.00010055036 0)
(0.56679286 -4.4210449e-05 0)
(0.5645006 9.1077633e-06 0)
(0.56204964 6.4705431e-05 0)
(0.55944957 0.00011395638 0)
(0.55671858 0.00015404008 0)
(0.55388076 0.00018387671 0)
(0.55096391 0.00020410927 0)
(0.5479953 0.00021617956 0)
(0.54500149 0.00022151396 0)
(0.54200648 0.00022187733 0)
(0.53903014 0.0002186716 0)
(0.5360885 0.00021298226 0)
(0.5331939 0.00020571416 0)
(0.53035412 0.00019760724 0)
(0.52757645 0.00018894092 0)
(0.5248662 0.00018003733 0)
(0.52222444 0.00017139158 0)
(0.51965022 0.00016313012 0)
(0.51713761 0.00015640911 0)
(0.51469487 0.00015120561 0)
(0.51231091 0.00014604234 0)
(0.50997324 0.0001409969 0)
(0.50767284 0.0001361915 0)
(0.50540426 0.00013178152 0)
(0.50316087 0.00012792717 0)
(0.50093711 0.00012434176 0)
(0.49872876 0.00012104674 0)
(0.4965326 0.0001178541 0)
(0.49434706 0.000114747 0)
(0.49217057 0.00011168952 0)
(0.49000312 0.00010861203 0)
(0.48784426 0.00010560457 0)
(0.48569391 0.00010258509 0)
(0.48355182 9.9612369e-05 0)
(0.48141946 9.6756414e-05 0)
(0.47929015 9.3871677e-05 0)
(0.47717925 9.1794068e-05 0)
(0.47502439 8.8173249e-05 0)
(0.47299969 9.2009679e-05 0)
(0.47057874 0.00014303167 0)
(0.46878467 0.00019873882 0)
(0.46490131 0.00014820442 0)
(0.97463638 0.024511616 0)
(0.97932914 0.030794525 0)
(0.98640228 0.034469467 0)
(0.99381525 0.03511381 0)
(1.0002117 0.033234846 0)
(1.0048383 0.029796344 0)
(1.0073316 0.025982824 0)
(1.0083173 0.022699566 0)
(1.0079934 0.020248276 0)
(1.0074403 0.018529091 0)
(1.0068101 0.017262949 0)
(1.0060529 0.016264323 0)
(1.0050217 0.015424152 0)
(1.0036022 0.014654236 0)
(1.0016806 0.013929918 0)
(0.99919103 0.013259822 0)
(0.99589776 0.012639411 0)
(0.99174732 0.012045739 0)
(0.98672463 0.011471206 0)
(0.98084369 0.010899404 0)
(0.97403834 0.010331466 0)
(0.96649842 0.0097850133 0)
(0.95831113 0.0092603029 0)
(0.94954116 0.0087551813 0)
(0.94024574 0.008271863 0)
(0.93048109 0.0078134094 0)
(0.92030656 0.0073755939 0)
(0.90977851 0.0069545601 0)
(0.89895402 0.0065515283 0)
(0.88788926 0.0061677175 0)
(0.87663869 0.0058000997 0)
(0.86525729 0.0054465734 0)
(0.85379749 0.0051080031 0)
(0.842306 0.0047842011 0)
(0.83082742 0.0044726693 0)
(0.81940714 0.0041714842 0)
(0.8080902 0.0038804261 0)
(0.7969212 0.0035988166 0)
(0.78594386 0.0033249911 0)
(0.77520221 0.0030576214 0)
(0.7647398 0.0027961889 0)
(0.75460018 0.0025395253 0)
(0.74483005 0.0022863357 0)
(0.73547611 0.0020350041 0)
(0.72661628 0.0017873342 0)
(0.71818827 0.00154629 0)
(0.71020141 0.0013130462 0)
(0.70269749 0.00108809 0)
(0.69570307 0.00087611564 0)
(0.6892278 0.00068105618 0)
(0.68326238 0.00050581167 0)
(0.67777839 0.00035355952 0)
(0.67272144 0.00022831805 0)
(0.66803739 0.00013072 0)
(0.66372607 6.4995065e-05 0)
(0.65950839 3.533199e-05 0)
(0.65525635 3.9519399e-05 0)
(0.65099542 7.0072263e-05 0)
(0.64675528 0.00012611068 0)
(0.64253655 0.00017458587 0)
(0.63834706 0.00022739954 0)
(0.63418893 0.00027384561 0)
(0.63006292 0.00031070453 0)
(0.62597145 0.00033679981 0)
(0.62192063 0.00035274337 0)
(0.61791771 0.00035999725 0)
(0.61397125 0.00036002321 0)
(0.61009022 0.00035471347 0)
(0.60628291 0.00034558261 0)
(0.60255649 0.00033382452 0)
(0.59891709 0.00032045073 0)
(0.59536915 0.00030632398 0)
(0.5919151 0.00029177301 0)
(0.5885568 0.00027717331 0)
(0.58529308 0.00026311816 0)
(0.58212119 0.00024979774 0)
(0.5790348 0.00023821627 0)
(0.57603635 0.00022837834 0)
(0.57312105 0.00021906554 0)
(0.57027847 0.00021036372 0)
(0.56749828 0.00020227107 0)
(0.56477337 0.00019487912 0)
(0.56209609 0.00018833719 0)
(0.55945988 0.00018228782 0)
(0.55685941 0.00017673067 0)
(0.55429019 0.00017142413 0)
(0.55174928 0.00016632931 0)
(0.5492338 0.00016138787 0)
(0.54674237 0.00015650566 0)
(0.54427331 0.00015177597 0)
(0.54182577 0.00014709939 0)
(0.5393983 0.00014253572 0)
(0.53699111 0.00013818849 0)
(0.53459673 0.00013382538 0)
(0.5322293 0.0001306333 0)
(0.5298273 0.00012531945 0)
(0.52755477 0.00012934109 0)
(0.52491891 0.00018039808 0)
(0.52289123 0.00023818009 0)
(0.51869876 0.00018936652 0)
(0.97660908 0.023525708 0)
(0.98077011 0.02915258 0)
(0.98702845 0.032517866 0)
(0.99364647 0.033276481 0)
(0.99945617 0.031816062 0)
(1.0037701 0.028881709 0)
(1.0063174 0.025505238 0)
(1.007472 0.022522665 0)
(1.0077882 0.02023663 0)
(1.0077668 0.018571563 0)
(1.0076685 0.017318461 0)
(1.0075638 0.01631832 0)
(1.0074433 0.01548447 0)
(1.0072622 0.014744757 0)
(1.0069585 0.014071267 0)
(1.0064925 0.01346345 0)
(1.0058187 0.012910196 0)
(1.0048822 0.012387534 0)
(1.003623 0.011890687 0)
(1.0019875 0.011424246 0)
(0.99984572 0.010983845 0)
(0.99714399 0.010556724 0)
(0.99385727 0.010137893 0)
(0.98996049 0.0097196591 0)
(0.98540978 0.0093037296 0)
(0.98028467 0.0088981703 0)
(0.97461265 0.0085014912 0)
(0.96841907 0.008112263 0)
(0.96172836 0.0077329706 0)
(0.95456571 0.0073649828 0)
(0.94696078 0.0070051193 0)
(0.93894965 0.0066514058 0)
(0.93056951 0.0063057511 0)
(0.92184918 0.0059686007 0)
(0.91282603 0.005637458 0)
(0.90354039 0.0053108543 0)
(0.8940324 0.0049897225 0)
(0.8843492 0.0046740617 0)
(0.87454043 0.0043622006 0)
(0.86465744 0.0040530564 0)
(0.85475254 0.0037466126 0)
(0.84487941 0.0034421005 0)
(0.83509463 0.0031385388 0)
(0.82545805 0.0028345039 0)
(0.81603427 0.0025306465 0)
(0.80686177 0.0022357039 0)
(0.79794526 0.0019528378 0)
(0.78931686 0.0016801753 0)
(0.78101069 0.0014212086 0)
(0.77305406 0.0011801288 0)
(0.76546009 0.00096101088 0)
(0.75822434 0.00076843585 0)
(0.75132062 0.00060688668 0)
(0.74474442 0.00047559166 0)
(0.73851776 0.00038099152 0)
(0.73244792 0.00033319659 0)
(0.72643922 0.0003270452 0)
(0.72051268 0.00034764957 0)
(0.71469062 0.00039312907 0)
(0.70897063 0.00042984873 0)
(0.70336682 0.00047109336 0)
(0.69788555 0.00050619417 0)
(0.69252465 0.00053219429 0)
(0.68728203 0.00054783349 0)
(0.68215931 0.00055363838 0)
(0.6771565 0.00055106918 0)
(0.67227315 0.00054153328 0)
(0.66751017 0.00052691061 0)
(0.66286892 0.00050870808 0)
(0.65835031 0.00048814072 0)
(0.65395561 0.00046623762 0)
(0.64968646 0.00044388845 0)
(0.64554167 0.00042144082 0)
(0.64152022 0.00039931952 0)
(0.63761884 0.00037818466 0)
(0.63383312 0.00035824945 0)
(0.63015665 0.00034042269 0)
(0.6265868 0.00032467657 0)
(0.62312057 0.00030990845 0)
(0.61975063 0.00029626481 0)
(0.61646774 0.00028367748 0)
(0.61326449 0.00027218221 0)
(0.61013279 0.00026191018 0)
(0.6070654 0.0002524332 0)
(0.60405611 0.0002437252 0)
(0.60109938 0.00023549088 0)
(0.59819098 0.00022766512 0)
(0.59532673 0.00022016252 0)
(0.59250387 0.00021286011 0)
(0.58971941 0.00020584735 0)
(0.58697144 0.00019900273 0)
(0.58425725 0.00019238136 0)
(0.58157575 0.00018612021 0)
(0.57891862 0.00017988978 0)
(0.57629846 0.00017523898 0)
(0.57365516 0.00016791897 0)
(0.57114185 0.00017169974 0)
(0.56829625 0.00022109863 0)
(0.56605208 0.00028028291 0)
(0.56156805 0.00023248246 0)
(0.97840914 0.022612367 0)
(0.98211178 0.027631707 0)
(0.9876579 0.030751027 0)
(0.99359863 0.031604462 0)
(0.99890632 0.030476977 0)
(1.0029435 0.027994407 0)
(1.005468 0.025028497 0)
(1.0067147 0.022315449 0)
(1.0071972 0.02016161 0)
(1.0073662 0.018543191 0)
(1.0074577 0.017305644 0)
(1.0075382 0.016311437 0)
(1.0076023 0.015478819 0)
(1.0076729 0.014744668 0)
(1.0077116 0.01408226 0)
(1.0076978 0.013485947 0)
(1.0076397 0.012946684 0)
(1.0075207 0.01244684 0)
(1.0073153 0.011981084 0)
(1.0070011 0.011551061 0)
(1.0065487 0.011149759 0)
(1.0059204 0.010765399 0)
(1.0050771 0.010395678 0)
(1.0039734 0.010043216 0)
(1.0025306 0.0097051617 0)
(1.0007065 0.0093749948 0)
(0.99847198 0.009048283 0)
(0.9957888 0.0087208858 0)
(0.99263324 0.0083947571 0)
(0.98903179 0.0080730359 0)
(0.98498625 0.0077539702 0)
(0.9804964 0.0074362136 0)
(0.97556514 0.0071211851 0)
(0.97020116 0.0068094853 0)
(0.96441367 0.0064989045 0)
(0.95821591 0.006187894 0)
(0.95162243 0.0058771426 0)
(0.94465083 0.0055664898 0)
(0.93731624 0.0052543779 0)
(0.92964003 0.0049397024 0)
(0.92165142 0.004622504 0)
(0.91338395 0.0043021162 0)
(0.90487501 0.0039774857 0)
(0.89617123 0.0036472719 0)
(0.88730141 0.003313942 0)
(0.87839974 0.0029866583 0)
(0.86951665 0.0026675781 0)
(0.8606678 0.0023574573 0)
(0.8518816 0.0020603905 0)
(0.84319557 0.0017807983 0)
(0.83465058 0.001523344 0)
(0.82628608 0.0012935126 0)
(0.81813581 0.0010967798 0)
(0.81022188 0.00093238575 0)
(0.80253814 0.00080739028 0)
(0.79517946 0.00073739863 0)
(0.78800811 0.00071347831 0)
(0.78100501 0.00071610539 0)
(0.77412224 0.00074303923 0)
(0.7673383 0.00076360824 0)
(0.76067769 0.0007878247 0)
(0.75415042 0.00080632139 0)
(0.74775683 0.00081647635 0)
(0.7415055 0.0008167983 0)
(0.73540765 0.00080786277 0)
(0.72946476 0.00079130628 0)
(0.72367648 0.00076843728 0)
(0.71804482 0.00074106783 0)
(0.71257011 0.00071071051 0)
(0.70725067 0.00067856571 0)
(0.70208549 0.00064559672 0)
(0.69707455 0.00061270161 0)
(0.69221585 0.0005802526 0)
(0.68750696 0.00054868305 0)
(0.68294318 0.00051869319 0)
(0.67851882 0.00049048407 0)
(0.67422743 0.00046491662 0)
(0.67006393 0.00044189935 0)
(0.66602486 0.00042031981 0)
(0.66210458 0.00040038634 0)
(0.65829542 0.00038200316 0)
(0.65459057 0.00036517138 0)
(0.650982 0.0003500102 0)
(0.64746207 0.00033602464 0)
(0.64402395 0.00032316241 0)
(0.64066117 0.00031107561 0)
(0.63736835 0.00029967043 0)
(0.63414009 0.00028883095 0)
(0.63097224 0.00027840145 0)
(0.62786053 0.00026845914 0)
(0.62480156 0.00025885726 0)
(0.62179149 0.00024964375 0)
(0.61882799 0.0002409842 0)
(0.61590184 0.00023244395 0)
(0.61302397 0.00022593495 0)
(0.6101357 0.00021625892 0)
(0.60737995 0.00021941086 0)
(0.60431916 0.00026619316 0)
(0.60186411 0.00032710984 0)
(0.59708758 0.00027829709 0)
(0.98005364 0.021775062 0)
(0.98336501 0.026246685 0)
(0.98827704 0.029130989 0)
(0.9936036 0.030040345 0)
(0.99845199 0.029192579 0)
(1.002245 0.027113159 0)
(1.0047386 0.024524187 0)
(1.0060845 0.02206586 0)
(1.0066949 0.020047318 0)
(1.006969 0.018486547 0)
(1.0071385 0.017269941 0)
(1.0072849 0.016282828 0)
(1.007422 0.015451778 0)
(1.0075523 0.014722184 0)
(1.0076636 0.014066683 0)
(1.0077534 0.013475128 0)
(1.0078219 0.012938804 0)
(1.0078899 0.012443796 0)
(1.0079244 0.011985885 0)
(1.0079215 0.011564256 0)
(1.0078881 0.011172647 0)
(1.0078123 0.010803045 0)
(1.0076775 0.010452709 0)
(1.0074671 0.010122511 0)
(1.0071607 0.0098087165 0)
(1.0067316 0.0095057179 0)
(1.0061535 0.0092120363 0)
(1.0053875 0.0089279816 0)
(1.0043841 0.0086514857 0)
(1.0031092 0.0083792441 0)
(1.0015386 0.0081074764 0)
(0.99962773 0.0078333625 0)
(0.9973628 0.0075590262 0)
(0.99474708 0.0072855424 0)
(0.9917703 0.0070108968 0)
(0.98842008 0.0067337259 0)
(0.98468593 0.0064543771 0)
(0.98055827 0.0061721783 0)
(0.97603245 0.0058853673 0)
(0.97110496 0.0055930453 0)
(0.96577135 0.0052951894 0)
(0.96002754 0.0049908784 0)
(0.9538702 0.0046786085 0)
(0.94730125 0.0043577623 0)
(0.94031023 0.0040294479 0)
(0.93292918 0.0036983006 0)
(0.92524217 0.0033684432 0)
(0.91729723 0.0030440508 0)
(0.90913322 0.0027303798 0)
(0.90079081 0.0024316927 0)
(0.89231854 0.0021524852 0)
(0.88377535 0.0018982522 0)
(0.87523147 0.0016743023 0)
(0.86673721 0.0014815246 0)
(0.8582914 0.0013266627 0)
(0.85009217 0.0012218521 0)
(0.84220443 0.0011652736 0)
(0.83455378 0.0011456442 0)
(0.82697281 0.0011533105 0)
(0.81947658 0.001157373 0)
(0.81208935 0.0011636895 0)
(0.80479531 0.0011645894 0)
(0.79760242 0.0011570642 0)
(0.79053857 0.0011396523 0)
(0.78362155 0.0011134364 0)
(0.77685391 0.0010802981 0)
(0.77024446 0.001041358 0)
(0.76380437 0.0009984884 0)
(0.75753593 0.00095338314 0)
(0.75143883 0.00090720471 0)
(0.74551489 0.00086081548 0)
(0.73976551 0.00081514993 0)
(0.73418887 0.00077060768 0)
(0.72878295 0.00072762164 0)
(0.72354333 0.0006869292 0)
(0.71846415 0.00064870181 0)
(0.71353971 0.00061375842 0)
(0.70876474 0.00058194438 0)
(0.70413528 0.00055209171 0)
(0.69964635 0.0005244419 0)
(0.69529167 0.00049887545 0)
(0.6910654 0.00047537674 0)
(0.68695992 0.00045406507 0)
(0.68296761 0.00043438565 0)
(0.67908124 0.00041626308 0)
(0.67529363 0.00039929879 0)
(0.67159844 0.00038336914 0)
(0.66798921 0.00036832533 0)
(0.66446053 0.00035397568 0)
(0.66100684 0.00034038102 0)
(0.65762335 0.00032736436 0)
(0.65430497 0.00031495915 0)
(0.65104814 0.00030335517 0)
(0.64784275 0.00029200756 0)
(0.64469804 0.00028318787 0)
(0.64155655 0.0002707611 0)
(0.63855217 0.00027290075 0)
(0.6352664 0.00031649298 0)
(0.63259914 0.00037999722 0)
(0.62752008 0.00032754984 0)
(0.98155585 0.020999751 0)
(0.98453035 0.024975261 0)
(0.9888818 0.027626346 0)
(0.99365106 0.028568867 0)
(0.99807346 0.027961678 0)
(1.0016292 0.026237257 0)
(1.0040753 0.023991031 0)
(1.0055018 0.021778289 0)
(1.0062341 0.019901455 0)
(1.0066138 0.018408718 0)
(1.0068563 0.017220621 0)
(1.0070494 0.016244529 0)
(1.0072191 0.015416994 0)
(1.0073737 0.014691123 0)
(1.0075127 0.01403999 0)
(1.0076353 0.013452105 0)
(1.0077442 0.012918437 0)
(1.0078426 0.012427577 0)
(1.0079256 0.011974243 0)
(1.0079967 0.011555394 0)
(1.0080547 0.011165891 0)
(1.0081132 0.010799174 0)
(1.0081511 0.010453732 0)
(1.0081596 0.010129386 0)
(1.0081466 0.0098223472 0)
(1.0081027 0.0095291682 0)
(1.0080181 0.0092481453 0)
(1.0078793 0.0089782149 0)
(1.0076714 0.0087173969 0)
(1.0073744 0.0084630255 0)
(1.0069694 0.0082141922 0)
(1.0064237 0.0079701803 0)
(1.0057042 0.0077292652 0)
(1.0047836 0.0074895479 0)
(1.0036416 0.0072479184 0)
(1.0022344 0.0070023265 0)
(1.0005557 0.0067538695 0)
(0.99859025 0.0065024991 0)
(0.99632125 0.006246787 0)
(0.99373035 0.0059853801 0)
(0.99079752 0.0057179043 0)
(0.987501 0.0054435094 0)
(0.98381721 0.0051605656 0)
(0.97972092 0.0048685577 0)
(0.97518192 0.0045674225 0)
(0.9701624 0.0042601845 0)
(0.96466151 0.0039502765 0)
(0.95869699 0.0036410477 0)
(0.95228325 0.0033376635 0)
(0.94543845 0.0030445446 0)
(0.93818909 0.0027659319 0)
(0.9305746 0.0025067136 0)
(0.92265247 0.0022723107 0)
(0.91449198 0.0020662201 0)
(0.90613744 0.0018922175 0)
(0.89771869 0.001760455 0)
(0.88946521 0.0016736924 0)
(0.88139942 0.0016227444 0)
(0.87350594 0.0016033653 0)
(0.86575238 0.0015901364 0)
(0.85805781 0.0015817742 0)
(0.85035405 0.0015678229 0)
(0.8426999 0.001543387 0)
(0.83513322 0.0015085349 0)
(0.82765148 0.0014650954 0)
(0.8202691 0.0014145787 0)
(0.81301664 0.0013581884 0)
(0.80591267 0.0012983044 0)
(0.79896092 0.001236836 0)
(0.79217026 0.0011748127 0)
(0.78555183 0.0011130921 0)
(0.77911023 0.0010527936 0)
(0.77284603 0.000994325 0)
(0.76676114 0.00093809521 0)
(0.76085418 0.00088492236 0)
(0.75512122 0.00083494705 0)
(0.74955943 0.00078893625 0)
(0.74416555 0.000746703 0)
(0.73893608 0.00070703095 0)
(0.73386687 0.00067016729 0)
(0.72895312 0.00063595953 0)
(0.72419008 0.00060438821 0)
(0.71957098 0.0005755825 0)
(0.71508869 0.00054893618 0)
(0.71073593 0.00052435819 0)
(0.70650512 0.00050140185 0)
(0.70238934 0.0004799137 0)
(0.69838127 0.00045971151 0)
(0.69447445 0.00044056529 0)
(0.69066222 0.00042251667 0)
(0.6869385 0.00040535385 0)
(0.68329701 0.00038908898 0)
(0.67973294 0.0003739307 0)
(0.67623534 0.00035921974 0)
(0.67281176 0.00034758228 0)
(0.66940574 0.00033195881 0)
(0.6661434 0.00033268049 0)
(0.66262052 0.00037266017 0)
(0.65973506 0.00043983221 0)
(0.65433815 0.00038084951 0)
(0.98292914 0.020275279 0)
(0.98561105 0.023805897 0)
(0.98946968 0.026233091 0)
(0.99373667 0.027193379 0)
(0.99776521 0.026790323 0)
(1.0010886 0.025374701 0)
(1.0034699 0.023438079 0)
(1.0049518 0.021458954 0)
(1.0057871 0.019724738 0)
(1.0062648 0.018306034 0)
(1.006581 0.017153033 0)
(1.006825 0.016193483 0)
(1.0070295 0.015373864 0)
(1.007208 0.014653966 0)
(1.0073652 0.014008291 0)
(1.0075033 0.013424618 0)
(1.0076265 0.01289402 0)
(1.0077384 0.012406396 0)
(1.0078398 0.011955829 0)
(1.0079321 0.011538953 0)
(1.0080175 0.011150975 0)
(1.0080971 0.010786554 0)
(1.0081675 0.01044386 0)
(1.0082305 0.010121412 0)
(1.0082863 0.0098162222 0)
(1.008336 0.0095247021 0)
(1.0083847 0.0092462448 0)
(1.0084038 0.0089805769 0)
(1.0084074 0.0087247209 0)
(1.0083879 0.0084771458 0)
(1.0083386 0.0082370155 0)
(1.008249 0.008002548 0)
(1.0081074 0.0077722536 0)
(1.0078983 0.0075446811 0)
(1.0076075 0.0073194941 0)