# Region        : all region0
# Cells         : 13056
# Volume        : 2.33333000e+00
# Time          	min(nuTilda)	min(nut)
