# Region        : all region0
# Cells         : 13056
# Volume        : 2.33333000e+00
# Time          	min(nuTilda)	min(nut)
1               	7.31663402e-07	2.37244615e-13
2               	3.98195098e-07	2.08130051e-14
3               	2.75771719e-07	4.78795512e-15
4               	2.18618521e-07	1.89103246e-15
5               	1.85627216e-07	9.82919113e-16
6               	1.63564621e-07	5.92527707e-16
7               	1.47374878e-07	3.90521553e-16
8               	1.34769036e-07	2.73093686e-16
9               	1.24553251e-07	1.99237667e-16
10              	1.16034110e-07	1.50069997e-16
11              	1.08775534e-07	1.15898035e-16
12              	1.02486507e-07	9.13309437e-17
13              	9.69637632e-08	7.31794306e-17
14              	9.20601185e-08	5.94616964e-17
15              	8.76658347e-08	4.88959248e-17
16              	8.36970825e-08	4.06249141e-17
17              	8.00884995e-08	3.40589930e-17
18              	7.67882194e-08	2.87825697e-17
19              	7.37544550e-08	2.44965097e-17
20              	7.09530883e-08	2.09814931e-17
21              	6.83559332e-08	1.80740734e-17
22              	6.59394595e-08	1.56506619e-17
23              	6.36838393e-08	1.36165826e-17
24              	6.15722223e-08	1.18984528e-17
25              	5.95901798e-08	1.04387851e-17
26              	5.77252697e-08	9.19210678e-18
27              	5.59666957e-08	8.12212825e-18
28              	5.43050341e-08	7.19965255e-18
29              	5.27320157e-08	6.40101240e-18
30              	5.12403486e-08	5.70688969e-18
31              	4.98235725e-08	5.10141478e-18
32              	4.84759404e-08	4.57147287e-18
33              	4.71923187e-08	4.10616540e-18
34              	4.59664459e-08	3.69585463e-18
35              	4.47955762e-08	3.33343265e-18
36              	4.36759617e-08	3.01245857e-18
37              	4.26042005e-08	2.72747548e-18
38              	4.15772021e-08	2.47384348e-18
39              	4.05921518e-08	2.24760233e-18
40              	3.96464793e-08	2.04535965e-18
41              	3.87378315e-08	1.86419956e-18
42              	3.78640499e-08	1.70160765e-18
43              	3.70231493e-08	1.55540902e-18
44              	3.62133012e-08	1.42371691e-18
45              	3.54328171e-08	1.30489001e-18
46              	3.46801357e-08	1.19749671e-18
47              	3.39538102e-08	1.10028513e-18
48              	3.32524980e-08	1.01215793e-18
49              	3.25749512e-08	9.32151001e-19
50              	3.19200077e-08	8.59415393e-19
51              	3.12865845e-08	7.93201989e-19
52              	3.06736701e-08	7.32848408e-19
53              	3.00803193e-08	6.77767817e-19
54              	2.95056470e-08	6.27439337e-19
55              	2.89488239e-08	5.81399795e-19
56              	2.84090720e-08	5.39236609e-19
57              	2.78856606e-08	5.00581650e-19
58              	2.73779025e-08	4.65105920e-19
59              	2.68851511e-08	4.32514931e-19
60              	2.64067973e-08	4.02544691e-19
61              	2.59422667e-08	3.74958202e-19
62              	2.54910175e-08	3.49542397e-19
63              	2.50525378e-08	3.26105466e-19
64              	2.46263439e-08	3.04474509e-19
65              	2.42119786e-08	2.84493470e-19
66              	2.38090090e-08	2.66021326e-19
67              	2.34170253e-08	2.48930482e-19
68              	2.30356394e-08	2.33105363e-19
69              	2.26644835e-08	2.18441163e-19
70              	2.23032087e-08	2.04842738e-19
71              	2.19514845e-08	1.92223623e-19
72              	2.16089971e-08	1.80505161e-19
73              	2.12754491e-08	1.69615729e-19
74              	2.09505582e-08	1.59490041e-19
75              	2.06340567e-08	1.50068538e-19
76              	2.03256907e-08	1.41296832e-19
77              	2.00252196e-08	1.33125216e-19
78              	1.97324154e-08	1.25508222e-19
79              	1.94470623e-08	1.18404224e-19
80              	1.91689560e-08	1.11775088e-19
81              	1.88979037e-08	1.05585846e-19
82              	1.86337234e-08	9.98044154e-20
83              	1.83762437e-08	9.44013370e-20
84              	1.81253036e-08	8.93495431e-20
85              	1.78807521e-08	8.46241472e-20
86              	1.76424481e-08	8.02022538e-20
87              	1.74102623e-08	7.60628214e-20
88              	1.71840715e-08	7.21864124e-20
89              	1.69637638e-08	6.85551429e-20
90              	1.67492367e-08	6.51525258e-20
91              	1.65403973e-08	6.19633555e-20
92              	1.63371630e-08	5.89736138e-20
93              	1.61394585e-08	5.61703346e-20
94              	1.59472194e-08	5.35415642e-20
95              	1.57603908e-08	5.10762614e-20
96              	1.55789270e-08	4.87642267e-20
97              	1.54027919e-08	4.65960357e-20
98              	1.52319589e-08	4.45629792e-20
99              	1.50664108e-08	4.26570080e-20
100             	1.49061394e-08	4.08706822e-20
101             	1.47511459e-08	3.91971249e-20
102             	1.46014405e-08	3.76299799e-20
103             	1.44570418e-08	3.61633725e-20
104             	1.43179770e-08	3.47918737e-20
105             	1.41842810e-08	3.35104676e-20
106             	1.40559964e-08	3.23145210e-20
107             	1.39331722e-08	3.11997560e-20
108             	1.38158639e-08	3.01622241e-20
109             	1.37041321e-08	2.91982837e-20
110             	1.35980420e-08	2.83045781e-20
111             	1.34976620e-08	2.74780163e-20
112             	1.34030633e-08	2.67157551e-20
113             	1.33143180e-08	2.60151828e-20
114             	1.32314984e-08	2.53739041e-20
115             	1.31546755e-08	2.47897266e-20
116             	1.30839178e-08	2.42606482e-20
117             	1.30192896e-08	2.37848454e-20
118             	1.29608504e-08	2.33606630e-20
119             	1.29086525e-08	2.29866039e-20
120             	1.28627404e-08	2.26613198e-20
121             	1.28231494e-08	2.23836029e-20
122             	1.27899041e-08	2.21523770e-20
123             	1.27630174e-08	2.19666898e-20
124             	1.27006866e-08	2.15407082e-20
125             	1.26078483e-08	2.09177552e-20
126             	1.25167776e-08	2.03198884e-20
127             	1.24274270e-08	1.97458605e-20
128             	1.23397507e-08	1.91944963e-20
129             	1.22537041e-08	1.86646881e-20
130             	1.21692443e-08	1.81553916e-20
131             	1.20863297e-08	1.76656215e-20
132             	1.20049199e-08	1.71944481e-20
133             	1.19249760e-08	1.67409935e-20
134             	1.18464602e-08	1.63044285e-20
135             	1.17693361e-08	1.58839695e-20
136             	1.16935684e-08	1.54788758e-20
137             	1.16191228e-08	1.50884468e-20
138             	1.15459662e-08	1.47120198e-20
139             	1.14740666e-08	1.43489672e-20
140             	1.14033931e-08	1.39986950e-20
141             	1.13339155e-08	1.36606404e-20
142             	1.12656049e-08	1.33342701e-20
143             	1.11984332e-08	1.30190782e-20
144             	1.11323732e-08	1.27145852e-20
145             	1.10673984e-08	1.24203360e-20
146             	1.10034833e-08	1.21358986e-20
147             	1.09406034e-08	1.18608626e-20
148             	1.08787346e-08	1.15948384e-20
149             	1.08178538e-08	1.13374556e-20
150             	1.07579385e-08	1.10883621e-20
151             	1.06989670e-08	1.08472228e-20
152             	1.06409182e-08	1.06137193e-20
153             	1.05837718e-08	1.03875481e-20
154             	1.05275080e-08	1.01684205e-20
155             	1.04721077e-08	9.95606149e-21
156             	1.04175522e-08	9.75020890e-21
157             	1.03638237e-08	9.55061292e-21
158             	1.03109047e-08	9.35703534e-21
159             	1.02587783e-08	9.16924890e-21
160             	1.02074282e-08	8.98703676e-21
161             	1.01568385e-08	8.81019190e-21
162             	1.01069938e-08	8.63851662e-21
163             	1.00578791e-08	8.47182207e-21
164             	1.00094800e-08	8.30992774e-21
165             	9.96178245e-09	8.15266108e-21
166             	9.91477271e-09	7.99985706e-21
167             	9.86843756e-09	7.85135776e-21
168             	9.82276414e-09	7.70701210e-21
169             	9.77773993e-09	7.56667538e-21
170             	9.73335278e-09	7.43020907e-21
171             	9.68959088e-09	7.29748042e-21
172             	9.64644276e-09	7.16836223e-21
173             	9.60389725e-09	7.04273256e-21
174             	9.56194351e-09	6.92047447e-21
175             	9.52057098e-09	6.80147582e-21
176             	9.47976941e-09	6.68562896e-21
177             	9.43952879e-09	6.57283059e-21
178             	9.39983942e-09	6.46298153e-21
179             	9.36069183e-09	6.35598652e-21
180             	9.32207681e-09	6.25175405e-21
181             	9.28398538e-09	6.15019616e-21
182             	9.24640881e-09	6.05122833e-21
183             	9.20933858e-09	5.95476925e-21
184             	9.17276639e-09	5.86074073e-21
185             	9.13668416e-09	5.76906756e-21
186             	9.10108398e-09	5.67967734e-21
187             	9.06595818e-09	5.59250039e-21
188             	9.03129925e-09	5.50746959e-21
189             	8.99709987e-09	5.42452034e-21
190             	8.96335290e-09	5.34359037e-21
191             	8.93005136e-09	5.26461969e-21
192             	8.89718846e-09	5.18755048e-21
193             	8.86475755e-09	5.11232700e-21
194             	8.83275214e-09	5.03889549e-21
195             	8.80116590e-09	4.96720410e-21
196             	8.76999263e-09	4.89720281e-21
197             	8.73922628e-09	4.82884332e-21
198             	8.70886093e-09	4.76207903e-21
199             	8.67889080e-09	4.69686496e-21
200             	8.64931023e-09	4.63315762e-21
201             	8.62011367e-09	4.57091503e-21
202             	8.59129570e-09	4.51009661e-21
203             	8.56285100e-09	4.45066314e-21
204             	8.53477437e-09	4.39257671e-21
205             	8.50706070e-09	4.33580063e-21
206             	8.47970499e-09	4.28029943e-21
207             	8.45270233e-09	4.22603878e-21
208             	8.42604790e-09	4.17298545e-21
209             	8.39973696e-09	4.12110729e-21
210             	8.37376487e-09	4.07037316e-21
211             	8.34812708e-09	4.02075288e-21
212             	8.32281908e-09	3.97221725e-21
213             	8.29783649e-09	3.92473797e-21
214             	8.27317496e-09	3.87828759e-21
215             	8.24883023e-09	3.83283955e-21
216             	8.22479813e-09	3.78836807e-21
217             	8.20107454e-09	3.74484816e-21
218             	8.17765540e-09	3.70225561e-21
219             	8.15453674e-09	3.66056692e-21
220             	8.13171463e-09	3.61975932e-21
221             	8.10918524e-09	3.57981070e-21
222             	8.08694476e-09	3.54069962e-21
223             	8.06498948e-09	3.50240527e-21
224             	8.04331572e-09	3.46490746e-21
225             	8.02191986e-09	3.42818659e-21
226             	8.00079834e-09	3.39222362e-21
227             	7.97994766e-09	3.35700005e-21
228             	7.95936436e-09	3.32249795e-21
229             	7.93904504e-09	3.28869986e-21
230             	7.91898634e-09	3.25558885e-21
231             	7.89918497e-09	3.22314847e-21
232             	7.87963767e-09	3.19136272e-21
233             	7.86034123e-09	3.16021606e-21
234             	7.84129250e-09	3.12969341e-21
235             	7.82248837e-09	3.09978007e-21
236             	7.80392578e-09	3.07046179e-21
237             	7.78560169e-09	3.04172469e-21
238             	7.76751314e-09	3.01355529e-21
239             	7.74965719e-09	2.98594046e-21
240             	7.73203095e-09	2.95886746e-21
241             	7.71463156e-09	2.93232386e-21
242             	7.69745620e-09	2.90629760e-21
243             	7.68050211e-09	2.88077691e-21
244             	7.66376653e-09	2.85575037e-21
245             	7.64724678e-09	2.83120683e-21
246             	7.63094017e-09	2.80713546e-21
247             	7.61484408e-09	2.78352572e-21
248             	7.59895591e-09	2.76036731e-21
249             	7.58327310e-09	2.73765025e-21
250             	7.56779312e-09	2.71536478e-21
251             	7.55251346e-09	2.69350141e-21
252             	7.53743165e-09	2.67205089e-21
253             	7.52254528e-09	2.65100421e-21
254             	7.50785191e-09	2.63035259e-21
255             	7.49334918e-09	2.61008746e-21
256             	7.47903474e-09	2.59020048e-21
257             	7.46490627e-09	2.57068352e-21
258             	7.45096149e-09	2.55152866e-21
259             	7.43719812e-09	2.53272816e-21
260             	7.42361394e-09	2.51427450e-21
261             	7.41020673e-09	2.49616031e-21
262             	7.39697433e-09	2.47837844e-21
263             	7.38391456e-09	2.46092189e-21
264             	7.37102531e-09	2.44378383e-21
265             	7.35830447e-09	2.42695762e-21
266             	7.34574996e-09	2.41043677e-21
267             	7.33335973e-09	2.39421492e-21
268             	7.32113174e-09	2.37828591e-21
269             	7.30906398e-09	2.36264370e-21
270             	7.29715449e-09	2.34728239e-21
271             	7.28540129e-09	2.33219624e-21
272             	7.27380246e-09	2.31737963e-21
273             	7.26235607e-09	2.30282709e-21
274             	7.25106025e-09	2.28853328e-21
275             	7.23991312e-09	2.27449295e-21
276             	7.22891284e-09	2.26070102e-21
277             	7.21805759e-09	2.24715251e-21
278             	7.20734556e-09	2.23384254e-21
279             	7.19677497e-09	2.22076636e-21
280             	7.18634405e-09	2.20791932e-21
281             	7.17605108e-09	2.19529688e-21
282             	7.16589431e-09	2.18289462e-21
283             	7.15587205e-09	2.17070818e-21
284             	7.14598261e-09	2.15873333e-21
285             	7.13622434e-09	2.14696594e-21
286             	7.12659558e-09	2.13540194e-21
287             	7.11709471e-09	2.12403739e-21
288             	7.10772012e-09	2.11286841e-21
289             	7.09847022e-09	2.10189122e-21
290             	7.08934345e-09	2.09110212e-21
291             	7.08033825e-09	2.08049751e-21
292             	7.07145309e-09	2.07007384e-21
293             	7.06268647e-09	2.05982766e-21
294             	7.05403687e-09	2.04975558e-21
295             	7.04550283e-09	2.03985431e-21
296             	7.03708288e-09	2.03012062e-21
297             	7.02877559e-09	2.02055133e-21
298             	7.02057952e-09	2.01114336e-21
299             	7.01249328e-09	2.00189368e-21
300             	7.00451546e-09	1.99279933e-21
301             	6.99664469e-09	1.98385742e-21
302             	6.98887963e-09	1.97506512e-21
303             	6.98121891e-09	1.96641964e-21
304             	6.97366123e-09	1.95791828e-21
305             	6.96620526e-09	1.94955838e-21
306             	6.95884972e-09	1.94133734e-21
307             	6.95159332e-09	1.93325261e-21
308             	6.94443480e-09	1.92530171e-21
309             	6.93737292e-09	1.91748219e-21
310             	6.93040643e-09	1.90979167e-21
311             	6.92353412e-09	1.90222780e-21
312             	6.91675479e-09	1.89478830e-21
313             	6.91006724e-09	1.88747093e-21
314             	6.90347031e-09	1.88027349e-21
315             	6.89696283e-09	1.87319383e-21
316             	6.89054366e-09	1.86622986e-21
317             	6.88421167e-09	1.85937949e-21
318             	6.87796573e-09	1.85264073e-21
319             	6.87180474e-09	1.84601158e-21
320             	6.86572762e-09	1.83949010e-21
321             	6.85973328e-09	1.83307441e-21
322             	6.85382065e-09	1.82676264e-21
323             	6.84798870e-09	1.82055296e-21
324             	6.84223637e-09	1.81444358e-21
325             	6.83656264e-09	1.80843276e-21
326             	6.83096650e-09	1.80251878e-21
327             	6.82544694e-09	1.79669995e-21
328             	6.82000297e-09	1.79097462e-21
329             	6.81463362e-09	1.78534118e-21
330             	6.80933792e-09	1.77979804e-21
331             	6.80411491e-09	1.77434365e-21
332             	6.79896366e-09	1.76897647e-21
333             	6.79388322e-09	1.76369501e-21
334             	6.78887267e-09	1.75849780e-21
335             	6.78393111e-09	1.75338341e-21
336             	6.77905764e-09	1.74835042e-21
337             	6.77425136e-09	1.74339745e-21
338             	6.76951140e-09	1.73852313e-21
339             	6.76483689e-09	1.73372613e-21
340             	6.76022696e-09	1.72900514e-21
341             	6.75568078e-09	1.72435887e-21
342             	6.75119749e-09	1.71978607e-21
343             	6.74677627e-09	1.71528548e-21
344             	6.74241629e-09	1.71085589e-21
345             	6.73811674e-09	1.70649610e-21
346             	6.73387682e-09	1.70220495e-21
347             	6.72969574e-09	1.69798127e-21
348             	6.72557270e-09	1.69382393e-21
349             	6.72150694e-09	1.68973182e-21
350             	6.71749768e-09	1.68570384e-21
351             	6.71354417e-09	1.68173893e-21
352             	6.70964565e-09	1.67783603e-21
353             	6.70580140e-09	1.67399411e-21
354             	6.70201068e-09	1.67021215e-21
355             	6.69827276e-09	1.66648915e-21
356             	6.69458695e-09	1.66282415e-21
357             	6.69095253e-09	1.65921617e-21
358             	6.68736881e-09	1.65566427e-21
359             	6.68383511e-09	1.65216754e-21
360             	6.68035075e-09	1.64872506e-21
361             	6.67691508e-09	1.64533595e-21
