/*--------------------------------*- C++ -*----------------------------------*\
| =========                 |                                                 |
| \\      /  F ield         | OpenFOAM: The Open Source CFD Toolbox           |
|  \\    /   O peration     | Version:  2206                                  |
|   \\  /    A nd           | Website:  www.openfoam.com                      |
|    \\/     M anipulation  |                                                 |
\*---------------------------------------------------------------------------*/
FoamFile
{
    version     2.0;
    format      ascii;
    arch        "LSB;label=32;scalar=64";
    class       volScalarField;
    location    "1500";
    object      epsilon;
}
// * * * * * * * * * * * * * * * * * * * * * * * * * * * * * * * * * * * * * //

dimensions      [0 2 -3 0 0 0 0];

internalField   nonuniform List<scalar> 
7480
(
5.7742284
15.518844
18.081412
15.978712
12.857508
10.359089
8.6730616
7.520776
6.6743385
6.0099448
5.4709524
5.0292566
4.665871
4.3657594
4.1167216
3.9084684
3.7333518
3.5855628
3.4599281
3.3526698
3.2594194
3.1774141
3.1043513
3.0383863
2.9782871
2.9230552
2.871992
2.8244258
2.7797656
2.7375217
2.6974094
2.6592353
2.6227951
2.5879192
2.5544219
2.5222
2.4910252
2.4608378
2.4315524
2.403073
2.3753308
2.3482634
2.3218222
2.2959739
2.2706802
2.2459131
2.2216362
2.1978119
2.1744182
2.1514315
2.1288333
2.1066106
2.0847475
2.0632351
2.0420585
2.0212066
2.0006702
1.9804358
1.9604905
1.9408248
1.9214363
1.9023205
1.8834702
1.8648794
1.8465431
1.8284565
1.8106121
1.7930038
1.7756276
1.7584797
1.7415559
1.7248514
1.7083626
1.6920866
1.6760191
1.6601558
1.6444925
1.6290257
1.6137515
1.5986664
1.5837664
1.5690476
1.5545064
1.5401381
1.5259385
1.5119024
1.4980248
1.4842981
1.4707171
1.457267
1.4439481
1.4307159
1.4176114
1.4044624
1.3915144
1.3780855
1.3651496
1.3503683
1.3385761
1.3160421
0.34621345
1.5991964
2.84076
3.2971849
3.171943
2.8637791
2.5630623
2.3188908
2.1204273
1.9505365
1.8022971
1.6741345
1.5646777
1.4717546
1.3929438
1.3255622
1.2678079
1.2183171
1.1757654
1.1388763
1.1065267
1.077815
1.0520057
1.0285596
1.0071133
0.98735814
0.96907473
0.95202362
0.93600341
0.92085537
0.90648373
0.89282017
0.87979406
0.86734424
0.85539941
0.84392749
0.8328414
0.82212281
0.81174342
0.801668
0.79186897
0.78232486
0.773018
0.7639342
0.75505988
0.74638371
0.73789162
0.7295706
0.72141114
0.71340498
0.70554533
0.69782645
0.69024258
0.68278932
0.67546123
0.66825421
0.66116423
0.65418625
0.64731526
0.64054793
0.63388274
0.62731783
0.62085036
0.61447787
0.60819839
0.6020099
0.59590955
0.589895
0.5839647
0.5781171
0.57235048
0.56666304
0.5610533
0.5555201
0.55006179
0.54467671
0.53936333
0.53412027
0.52894613
0.52383951
0.51879903
0.51382325
0.5089108
0.50406012
0.49926972
0.49453786
0.4898628
0.48524227
0.48067431
0.47615501
0.47168314
0.4672485
0.462857
0.45847198
0.45413832
0.44971406
0.44538406
0.44064508
0.4366109
0.42932025
0.010427303
0.063601218
0.16383293
0.2815765
0.38481628
0.47610254
0.55964376
0.63114648
0.6869459
0.72836969
0.7570046
0.7736124
0.77950331
0.7768996
0.76838144
0.75633723
0.74243448
0.72767045
0.71262997
0.69764796
0.68293896
0.66863633
0.65479629
0.64147352
0.62870888
0.61649299
0.60487271
0.59378123
0.5831709
0.57300136
0.5632587
0.55392533
0.54497556
0.53638517
0.52811724
0.52016268
0.5124723
0.50504285
0.4978581
0.49089766
0.48414472
0.47758624
0.47121109
0.4650089
0.45897017
0.45308636
0.44734728
0.44174423
0.43626992
0.43091809
0.42568349
0.42056096
0.41554571
0.41063348
0.40581976
0.40110101
0.39647344
0.39193298
0.38747574
0.38309893
0.37880054
0.37457844
0.37043007
0.36635312
0.36234566
0.35840572
0.35453092
0.35071931
0.34696936
0.34327956
0.33964831
0.33607406
0.33255544
0.32909125
0.32568008
0.32232053
0.31901134
0.3157513
0.31253925
0.30937403
0.3062545
0.30317956
0.30014807
0.29715892
0.29421096
0.29130299
0.28843377
0.28560188
0.28280592
0.28004388
0.27731426
0.27461298
0.27193995
0.26928264
0.26665089
0.2639991
0.26137405
0.25860035
0.25612466
0.25180741
0.00038772986
0.0025391588
0.0091155669
0.019286488
0.032109542
0.047222025
0.06679819
0.091029081
0.12648126
0.17016759
0.21727042
0.26310117
0.30628003
0.34578039
0.38034738
0.40886369
0.43084104
0.44654898
0.45683101
0.46274107
0.46525461
0.4651674
0.46310266
0.45955166
0.4549205
0.44951771
0.44360587
0.43737032
0.43094025
0.4244169
0.41787756
0.41138102
0.40496777
0.39866894
0.39249527
0.38646716
0.38056101
0.3748022
0.36918692
0.36371414
0.35838116
0.35318515
0.34812309
0.34319129
0.33838581
0.33370259
0.32913566
0.32468047
0.32033267
0.31608832
0.31194388
0.30789562
0.30394005
0.30007379
0.29629322
0.29259539
0.28897708
0.28543501
0.28196604
0.27856774
0.27523807
0.27197495
0.26877607
0.26563929
0.26256275
0.25954453
0.25658254
0.25367499
0.25082038
0.24801721
0.24526397
0.24255918
0.23990151
0.23728974
0.23472254
0.23219862
0.22971678
0.22727591
0.22487489
0.22251265
0.22018816
0.21790038
0.21564831
0.21343096
0.21124732
0.20909638
0.2069771
0.20488838
0.20282905
0.20079777
0.19879312
0.19681308
0.19485594
0.19291716
0.190996
0.18907845
0.18716907
0.1852019
0.18339214
0.18031561
4.2248964e-05
0.00015197872
0.00054540608
0.0014369778
0.0029363708
0.0049609767
0.0075110473
0.010740572
0.015266188
0.02196357
0.031479554
0.046278668
0.066518733
0.090991471
0.11835822
0.14743324
0.17731677
0.20683123
0.23454066
0.25909899
0.27963691
0.29592511
0.30824954
0.31714788
0.32319938
0.32691608
0.32874616
0.32907661
0.32823514
0.32648687
0.32404214
0.32107074
0.31770848
0.31406243
0.31021523
0.30624012
0.30217173
0.29805716
0.29392872
0.28980915
0.28571614
0.28166446
0.27766534
0.27372692
0.26985539
0.26605518
0.26232794
0.25867445
0.25509503
0.25158986
0.24815898
0.24480167
0.24151693
0.2383035
0.23515974
0.23208416
0.22907494
0.22613007
0.22324743
0.2204254
0.21766255
0.21495735
0.21230806
0.20971303
0.20717073
0.20467957
0.20223784
0.19984406
0.19749692
0.1951951
0.19293728
0.19072215
0.18854851
0.18641524
0.18432115
0.18226508
0.18024595
0.17826274
0.17631443
0.17440006
0.17251867
0.17066933
0.16885114
0.16706319
0.1653046
0.16357448
0.16187193
0.16019602
0.15854577
0.15692018
0.15531796
0.15373804
0.15217826
0.15063752
0.14911126
0.14759858
0.14608855
0.1445613
0.1431345
0.14073871
1.7227383e-05
3.1486157e-05
6.9128886e-05
0.00015002727
0.00030243697
0.00055347276
0.00092828729
0.0014483865
0.002147705
0.0031001344
0.0043980208
0.0062971421
0.0091113744
0.013162251
0.0192849
0.02856812
0.041051379
0.056752981
0.075194314
0.095826197
0.11791628
0.14041599
0.1620598
0.18169712
0.19859099
0.21250129
0.22356503
0.23210026
0.23846294
0.24298717
0.24597605
0.24770194
0.24840114
0.24827121
0.24747529
0.24615417
0.2444116
0.24233912
0.24001229
0.23749116
0.23482437
0.23205168
0.22920558
0.22631251
0.22339376
0.22046653
0.21754448
0.21463805
0.21175549
0.20890346
0.20608734
0.20331108
0.20057781
0.19788979
0.19524854
0.19265535
0.19011051
0.18761395
0.18516528
0.18276428
0.1804106
0.17810377
0.17584298
0.17362739
0.17145617
0.16932837
0.16724288
0.1651987
0.16319491
0.16123055
0.15930463
0.1574161
0.15556405
0.15374756
0.15196567
0.15021741
0.14850189
0.14681822
0.14516554
0.14354302
0.14194983
0.14038515
0.1388482
0.13733819
0.13585434
0.1343959
0.13296206
0.13155207
0.13016505
0.12880027
0.12745655
0.12613335
0.12482847
0.12354239
0.12226937
0.12101415
0.11976068
0.11850931
0.11733493
0.11536845
1.2771846e-05
1.6750295e-05
2.4663803e-05
3.8689658e-05
6.1941837e-05
9.8404414e-05
0.00015331794
0.0002332716
0.00034648967
0.00050509216
0.00072403036
0.0010291207
0.0014601268
0.0020672051
0.0029379525
0.0042389176
0.0061612712
0.0089271676
0.013218088
0.019698174
0.028621982
0.04018653
0.05408803
0.069969773
0.08718341
0.10479599
0.12175801
0.13719422
0.15059964
0.1618409
0.17102319
0.17834959
0.18404372
0.18832587
0.19140592
0.19347925
0.19471174
0.19524643
0.19520678
0.19469683
0.19380367
0.19260015
0.19114711
0.18949551
0.18768769
0.18575874
0.18373797
0.18164931
0.17951236
0.17734337
0.17515572
0.17296045
0.17076658
0.16858148
0.16641116
0.16426054
0.16213347
0.16003286
0.1579609
0.15591936
0.15390965
0.15193285
0.14998955
0.14808014
0.14620488
0.14436377
0.14255651
0.14078281
0.13904237
0.13733479
0.13565958
0.13401615
0.13240392
0.13082232
0.1292707
0.12774839
0.12625474
0.12478908
0.12335075
0.12193911
0.12055349
0.11919324
0.11785772
0.11654627
0.11525825
0.11399302
0.11274993
0.11152833
0.11032751
0.10914687
0.10798542
0.10684289
0.10571725
0.1046097
0.10351442
0.1024384
0.1013649
0.10030259
0.099308157
0.097638173
1.1412566e-05
1.3111331e-05
1.5935413e-05
2.0250014e-05
2.6552336e-05
3.546759e-05
4.7804744e-05
6.4651319e-05
8.7435043e-05
0.00011818758
0.00015967546
0.00021594133
0.00029316507
0.0003999594
0.00054878224
0.00076052672
0.0010659147
0.0015025575
0.0021455869
0.0031207462
0.0045918465
0.0067484612
0.010218798
0.015434695
0.022687496
0.032098563
0.043464919
0.05642481
0.070345976
0.084389555
0.09773392
0.1097904
0.12027961
0.12916349
0.13652977
0.14251502
0.14727004
0.15094938
0.15370263
0.15566609
0.15696051
0.15769156
0.15795065
0.15781644
0.1573561
0.15662661
0.15567658
0.15454694
0.1532721
0.15188096
0.15039775
0.14884292
0.14723356
0.14558403
0.14390642
0.14221078
0.14050558
0.13879776
0.13709298
0.13539597
0.13371061
0.13204017
0.13038723
0.12875382
0.12714163
0.125552
0.12398584
0.12244384
0.12092655
0.11943434
0.11796739
0.11652575
0.11510934
0.11371806
0.11235169
0.11100993
0.10969246
0.10839893
0.10712896
0.10588211
0.10465798
0.10345609
0.10227599
0.10111719
0.099979223
0.098861581
0.097763753
0.096685242
0.095625472
0.094583991
0.093559991
0.092553351
0.091562317
0.090588355
0.089626109
0.088683128
0.087743896
0.086819723
0.085960464
0.084508877
1.0781316e-05
1.1757022e-05
1.3111485e-05
1.4954817e-05
1.7425205e-05
2.0681433e-05
2.4902056e-05
3.0301438e-05
3.7156941e-05
4.5841063e-05
5.6859289e-05
7.0911839e-05
8.9018128e-05
0.00011262815
0.00014381389
0.00018571107
0.0002431811
0.00032288608
0.00043527567
0.00059763126
0.00083701029
0.0011868898
0.0017218613
0.0025557465
0.0038339182
0.0058217083
0.0090227504
0.01374595
0.020259466
0.028517655
0.038341229
0.049309597
0.060780815
0.072046173
0.082531309
0.091904379
0.10005028
0.10698261
0.11277359
0.11752178
0.12133871
0.12433798
0.12662701
0.12830412
0.12945762
0.13016548
0.13049607
0.13050875
0.13025462
0.12977754
0.12911489
0.12829865
0.12735608
0.12631038
0.12518133
0.12398569
0.12273777
0.12144967
0.12013161
0.11879216
0.11743859
0.11607704
0.11471267
0.11334975
0.11199188
0.11064211
0.10930294
0.10797637
0.10666408
0.10536746
0.10408759
0.10282533
0.1015813
0.100356
0.099149774
0.097962821
0.096795261
0.095647125
0.094518377
0.093408917
0.092318594
0.09124721
0.090194529
0.089160286
0.088144183
0.087145908
0.086165112
0.085201454
0.084254514
0.083323984
0.082409233
0.081510271
0.080625622
0.079756832
0.07889919
0.078060043
0.077225848
0.076407758
0.075654079
0.074371382
1.0360664e-05
1.1036635e-05
1.1849636e-05
1.2825233e-05
1.4021999e-05
1.5506829e-05
1.7349031e-05
1.9627932e-05
2.2418155e-05
2.5808739e-05
2.9915811e-05
3.4893965e-05
4.0951705e-05
4.8360399e-05
5.7518863e-05
6.8989862e-05
8.3605873e-05
0.0001025424
0.00012751467
0.00016115793
0.00020772631
0.0002730433
0.00036710811
0.00050691265
0.00071774312
0.0010396567
0.0015511596
0.0023674486
0.0036268119
0.005720064
0.0089765015
0.01366416
0.0198681
0.027495285
0.036259431
0.045664786
0.05511748
0.064102173
0.072291964
0.079543195
0.085828959
0.091181175
0.095662192
0.099351367
0.10233416
0.10469447
0.1065114
0.1078576
0.10879838
0.10939169
0.10968833
0.10973269
0.10956335
0.10921365
0.10871243
0.10808442
0.107351
0.10653054
0.1056388
0.10468924
0.10369331
0.10266085
0.10160025
0.10051864
0.09942208
0.098315799
0.097204232
0.096091099
0.094979553
0.093872266
0.092771483
0.091679071
0.090596563
0.089525232
0.088466127
0.087420086
0.086387778
0.085369731
0.084366348
0.083377924
0.082404659
0.081446675
0.08050402
0.079576687
0.078664612
0.077767696
0.076885787
0.076018725
0.075166265
0.074328257
0.073504254
0.072694386
0.071897462
0.071115017
0.070343047
0.069588344
0.068839548
0.068106379
0.06743781
0.066290856
1.0020245e-05
1.0533861e-05
1.1101718e-05
1.1713981e-05
1.2396001e-05
1.3187443e-05
1.4130564e-05
1.5265978e-05
1.6626873e-05
1.8243108e-05
2.014729e-05
2.2377966e-05
2.4988935e-05
2.8066915e-05
3.1708339e-05
3.6042607e-05
4.1252527e-05
4.7594355e-05
5.5401133e-05
6.5149684e-05
7.7590547e-05
9.3780191e-05
0.00011532724
0.00014483469
0.00018637107
0.00024616561
0.00033518943
0.00047234318
0.00068339342
0.0010232243
0.0015809723
0.0024705492
0.0039520437
0.0063456895
0.0099069569
0.014764623
0.020878801
0.028041742
0.035853325
0.043814249
0.051480097
0.058558515
0.064907705
0.070483841
0.075296005
0.079383589
0.082803786
0.085621307
0.08790182
0.089708705
0.091101049
0.0921328
0.092852435
0.093303006
0.093522521
0.093544252
0.093397317
0.093107127
0.092695782
0.092182405
0.091583487
0.09091328
0.090184088
0.089406506
0.08858965
0.087741401
0.086868573
0.085976991
0.085071644
0.084156813
0.08323617
0.082312849
0.081389505
0.080468393
0.079551435
0.078640248
0.077736194
0.07684041
0.075953846
0.075077282
0.074211354
0.073356572
0.072513334
0.071681946
0.070862627
0.070055534
0.069260748
0.068478322
0.067708214
0.066950447
0.066204777
0.065471455
0.064749581
0.064040648
0.063341355
0.062657812
0.061980789
0.061318093
0.06072005
0.059685747
9.7261361e-06
1.0130434e-05
1.0561832e-05
1.0997536e-05
1.1443205e-05
1.1920742e-05
1.2458955e-05
1.3086318e-05
1.3825777e-05
1.4694976e-05
1.5709051e-05
1.6882508e-05
1.8231884e-05
1.9782043e-05
2.1562988e-05
2.3611419e-05
2.5974953e-05
2.8713805e-05
3.192829e-05
3.5751249e-05
4.0352359e-05
4.5966047e-05
5.2931501e-05
6.1718044e-05
7.3053021e-05
8.8033343e-05
0.00010839323
0.000137094
0.00017845705
0.00024016798
0.00033617785
0.00048716447
0.00073301334
0.00114536
0.0018212479
0.0029616405
0.0048503279
0.0077224386
0.011707559
0.016791401
0.02280452
0.029403917
0.036164368
0.042712613
0.048803314
0.054312153
0.059192984
0.063444423
0.067092642
0.070180066
0.072756454
0.07487366
0.076582577
0.077931277
0.078964141
0.079721414
0.08023926
0.08054992
0.08068195
0.08066047
0.080507465
0.080242145
0.079881274
0.079439451
0.078929358
0.078362029
0.077747078
0.077092834
0.076406491
0.075694281
0.074961599
0.074213107
0.073452825
0.072684205
0.071910232
0.07113347
0.070356119
0.069580062
0.068806913
0.068038041
0.06727461
0.0665176
0.065767831
0.065025985
0.064292623
0.063568205
0.062853091
0.062147581
0.06145187
0.060766181
0.060090492
0.059425192
0.058769675
0.058125395
0.057489721
0.056868074
0.056253192
0.055650892
0.055112797
0.054174601
9.4671685e-06
9.7892539e-06
1.0129422e-05
1.0463875e-05
1.0788249e-05
1.111183e-05
1.1452213e-05
1.182949e-05
1.226146e-05
1.2762258e-05
1.334308e-05
1.4013021e-05
1.4780181e-05
1.5653912e-05
1.6645507e-05
1.7768431e-05
1.9039145e-05
2.047709e-05
2.2111027e-05
2.3980589e-05
2.6135123e-05
2.8637988e-05
3.1567564e-05
3.5064632e-05
3.9314429e-05
4.4561481e-05
5.11645e-05
5.9674409e-05
7.0877465e-05
8.6048658e-05
0.0001074022
0.00013835982
0.000184784
0.00025767484
0.00037424229
0.00056687845
0.00089675659
0.0014492701
0.0024017654
0.004000929
0.0064596403
0.0098854612
0.014269182
0.019452281
0.025123433
0.030917474
0.036529014
0.041762766
0.046518001
0.05075397
0.054466516
0.05767491
0.060411879
0.062716557
0.064630384
0.066194467
0.067448084
0.068427838
0.069167264
0.069696677
0.070043216
0.07023103
0.070281504
0.07021351
0.070043633
0.06978643
0.069454676
0.06905955
0.0686108
0.068116927
0.06758535
0.067022531
0.066434097
0.065824929
0.065199276
0.064560828
0.063912786
0.063257926
0.062598653
0.061937042
0.061274887
0.060613729
0.059954891
0.059299506
0.058648537
0.058002806
0.057363001
0.056729713
0.056103409
0.055484548
0.054873352
0.054270376
0.053675312
0.053089598
0.052511232
0.051945003
0.051385406
0.050836414
0.050350529
0.04949638
9.2363471e-06
9.4945905e-06
9.7669326e-06
1.0033331e-05
1.0285996e-05
1.0526919e-05
1.0765277e-05
1.1013785e-05
1.128524e-05
1.1590939e-05
1.1940391e-05
1.2341296e-05
1.279988e-05
1.3321724e-05
1.3912542e-05
1.4578607e-05
1.5327073e-05
1.6166073e-05
1.7106075e-05
1.8161152e-05
1.9349122e-05
2.0692429e-05
2.221695e-05
2.3962271e-05
2.5982585e-05
2.8347117e-05
3.1143125e-05
3.4513377e-05
3.8677796e-05
4.3915964e-05
5.0675114e-05
5.9601977e-05
7.1700812e-05
8.8762539e-05
0.00011365522
0.00015125825
0.00021098324
0.00030789944
0.00047118823
0.00075663702
0.0012424233
0.0021023606
0.0035503434
0.0057753605
0.0088498668
0.012754861
0.017322953
0.022264341
0.027268441
0.032093357
0.036590434
0.040682589
0.044337904
0.047553584
0.050345472
0.052739954
0.054768752
0.056465614
0.057864207
0.058996854
0.059893803
0.060582902
0.061089452
0.061436255
0.061643701
0.061729927
0.061711028
0.061601236
0.061413093
0.06115763
0.060844542
0.060482342
0.060078496
0.059639532
0.059171169
0.058678408
0.058165621
0.057636628
0.057094763
0.056542933
0.055983672
0.055419185
0.054851384
0.054281933
0.053712269
0.053143638
0.052577111
0.052013624
0.051453954
0.050898837
0.050348769
0.0498045
0.049266034
0.048734825
0.048209462
0.047694186
0.047185036
0.046684388
0.046245065
0.045466111
9.0275819e-06
9.2360457e-06
9.4559444e-06
9.6717795e-06
9.8756423e-06
1.0066202e-05
1.0247506e-05
1.042677e-05
1.0612196e-05
1.0811867e-05
1.1033313e-05
1.1283132e-05
1.1566878e-05
1.188923e-05
1.2254363e-05
1.2666276e-05
1.312901e-05
1.3646831e-05
1.422463e-05
1.4868455e-05
1.5585834e-05
1.6386176e-05
1.7280397e-05
1.828279e-05
1.9412527e-05
2.0694385e-05
2.2158174e-05
2.3845345e-05
2.5818296e-05
2.8156952e-05
3.0966303e-05
3.4426419e-05
3.8795808e-05
4.4449608e-05
5.1976307e-05
6.2218629e-05
7.6747924e-05
9.8111289e-05
0.00013074399
0.00018338429
0.00027000755
0.00041953938
0.00068609022
0.0011457508
0.0019802433
0.0033747348
0.0054780122
0.0083415362
0.011913511
0.016006579
0.020352043
0.024694799
0.028851996
0.03271514
0.036227942
0.039368083
0.042135826
0.044545449
0.046619202
0.048383446
0.049866093
0.051094992
0.05209691
0.052896981
0.053518393
0.053982285
0.054307764
0.054512
0.054610333
0.054616414
0.054542361
0.054398903
0.054195525
0.053940589
0.053641463
0.053304635
0.052935809
0.052540001
0.052121615
0.051684518
0.051232102
0.050767337
0.050292826
0.049810845
0.049323384
0.048832183
0.048338756
0.047844436
0.047350366
0.046857597
0.046366936
0.045879364
0.04539521
0.04491599
0.044440849
0.043973577
0.04351156
0.043055863
0.042659042
0.04194882
8.8356782e-06
9.0052796e-06
9.1841965e-06
9.3608067e-06
9.5282336e-06
9.6839946e-06
9.8294827e-06
9.9685173e-06
1.0105922e-05
1.0246878e-05
1.0396678e-05
1.0560417e-05
1.0742756e-05
1.0947825e-05
1.1179272e-05
1.1440387e-05
1.173419e-05
1.2063582e-05
1.2431534e-05
1.284131e-05
1.3296685e-05
1.3802185e-05
1.4363089e-05
1.4985782e-05
1.5678351e-05
1.6451141e-05
1.7316711e-05
1.8290814e-05
1.9395226e-05
2.0658616e-05
2.2115968e-05
2.3819455e-05
2.5843414e-05
2.8288691e-05
3.1290902e-05
3.5105638e-05
4.0075285e-05
4.6736164e-05
5.5888701e-05
6.9010268e-05
8.8499734e-05
0.00011875064
0.00016850537
0.00025160942
0.00039964436
0.00066562619
0.0011439507
0.0020057108
0.0034149005
0.0054763298
0.0082128626
0.011532178
0.015230328
0.019067558
0.022844444
0.026428932
0.029744646
0.032752798
0.035440017
0.037809659
0.0398753
0.041656391
0.043175336
0.04445558
0.04552037
0.046392001
0.047091391
0.047637878
0.04804914
0.048341201
0.048528495
0.048623963
0.048639166
0.048584396
0.048468791
0.048300455
0.048086564
0.047833462
0.047546756
0.047231392
0.046891735
0.04653163
0.046154465
0.04576322
0.045360519
0.044948668
0.044529693
0.044105384
0.043677298
0.043246852
0.042815203
0.042383607
0.041952736
0.041524216
0.04109772
0.04067669
0.040259682
0.039846749
0.039489611
0.038843499
8.6564927e-06
8.7956171e-06
8.9423523e-06
9.0880483e-06
9.2270459e-06
9.3566491e-06
9.4769941e-06
9.590035e-06
9.6985192e-06
9.8055573e-06
9.9145312e-06
1.002895e-05
1.0152299e-05
1.0287915e-05
1.043891e-05
1.0608161e-05
1.0798274e-05
1.1011648e-05
1.1250562e-05
1.151728e-05
1.1814159e-05
1.2143795e-05
1.2509105e-05
1.2913441e-05
1.3360788e-05
1.3856057e-05
1.4405208e-05
1.5015442e-05
1.5695971e-05
1.6458779e-05
1.7318481e-05
1.8294427e-05
1.9412993e-05
2.0709614e-05
2.2227694e-05
2.4038974e-05
2.6241357e-05
2.8965969e-05
3.2437464e-05
3.7004663e-05
4.3185107e-05
5.1785764e-05
6.4310673e-05
8.3142078e-05
0.00011313493
0.00016313683
0.00024957896
0.00040791208
0.00069271783
0.0012240945
0.0021581586
0.0036307365
0.0057051602
0.0083611511
0.011463989
0.01480853
0.018195808
0.021479344
0.024567422
0.027408138
0.029976916
0.032267801
0.034286762
0.036047028
0.037565913
0.038862684
0.039957173
0.040868899
0.04161653
0.042217569
0.0426882
0.043043227
0.043296101
0.043458957
0.0435427
0.043557091
0.043510845
0.043411726
0.043266639
0.043081715
0.042862391
0.042613488
0.042339269
0.04204351
0.041729547
0.04140033
0.041058463
0.040706258
0.040345743
0.039978751
0.039606835
0.039231565
0.038853989
0.038475887
0.038097446
0.03772186
0.037348704
0.036977304
0.036658026
0.036072876
8.4868559e-06
8.6019066e-06
8.723215e-06
8.8443405e-06
8.96072e-06
9.069792e-06
9.1711051e-06
9.2656135e-06
9.3548964e-06
9.4408097e-06
9.5254269e-06
9.6109874e-06
9.6998452e-06
9.7944112e-06
9.8970963e-06
1.0010256e-05
1.0136117e-05
1.0276758e-05
1.0434138e-05
1.0610116e-05
1.08065e-05
1.1025114e-05
1.126787e-05
1.1536831e-05
1.1834298e-05
1.2162938e-05
1.2525905e-05
1.2926919e-05
1.3370494e-05
1.3862296e-05
1.4409245e-05
1.5019991e-05
1.5705706e-05
1.648114e-05
1.7364175e-05
1.8380101e-05
1.9563883e-05
2.0959778e-05
2.2634095e-05
2.4685355e-05
2.7247464e-05
3.0535193e-05
3.4918142e-05
4.0915903e-05
4.9420871e-05
6.1989844e-05
8.1328358e-05
0.00011312068
0.00016694829
0.00026399849
0.00044386652
0.00077687222
0.001398545
0.0024468861
0.0040134695
0.0061245819
0.0087062199
0.011595473
0.014606335
0.017586829
0.020434999
0.023089279
0.025516465
0.027703047
0.029648573
0.031360852
0.032852657
0.034139476
0.035238009
0.036165175
0.036937479
0.037570628
0.038079316
0.038477114
0.038776439
0.038988575
0.03912372
0.039191055
0.039198814
0.039154368
0.039064297
0.038934468
0.038770103
0.038575848
0.038355828
0.038113709
0.037852744
0.037575824
0.037285509
0.036984104
0.0366736
0.036355932
0.036032549
0.035705443
0.035375301
0.035045169
0.034715514
0.034385205
0.034102782
0.033576658
8.3243877e-06
8.4202649e-06
8.521328e-06
8.6227694e-06
8.7209446e-06
8.8135441e-06
8.8998421e-06
8.9802278e-06
9.055616e-06
9.1271484e-06
9.1961162e-06
9.2639234e-06
9.3320752e-06
9.4021751e-06
9.4759144e-06
9.5550448e-06
9.641318e-06
9.736447e-06
9.8420931e-06
9.9598514e-06
1.0091251e-05
1.0237772e-05
1.0400885e-05
1.0582083e-05
1.0782929e-05
1.1005114e-05
1.1250533e-05
1.1521342e-05
1.1820047e-05
1.2149652e-05
1.2513765e-05
1.2916765e-05
1.3364065e-05
1.386259e-05
1.4420787e-05
1.5049568e-05
1.5763567e-05
1.6581254e-05
1.7527464e-05
1.8637256e-05
1.9956881e-05
2.1551682e-05
2.3525764e-05
2.6016965e-05
2.9258024e-05
3.3638241e-05
3.973012e-05
4.8578788e-05
6.1889247e-05
8.309066e-05
0.00011880207
0.00018137833
0.00029876657
0.00051577024
0.00093411347
0.0016828145
0.0028708446
0.0045499144
0.0066922477
0.0091767128
0.011838119
0.014526879
0.017135823
0.019596895
0.021870582
0.023937525
0.025792091
0.027437584
0.028882908
0.030140253
0.031223511
0.032147219
0.032925868
0.033573462
0.034103254
0.034527597
0.034857884
0.035104538
0.035277033
0.035383942
0.035432991
0.035431122
0.03538456
0.035298874
0.035179039
0.035029498
0.034854209
0.03465671
0.034440141
0.034207334
0.033960767
0.033702786
0.033435277
0.033160491
0.03287962
0.03259565
0.032309838
0.03202084
0.03177496
0.031306957
8.1673128e-06
8.2477922e-06
8.332602e-06
8.4181426e-06
8.501521e-06
8.5807144e-06
8.6548827e-06
8.7240765e-06
8.788803e-06
8.8497808e-06
8.9078486e-06
8.9639166e-06
9.0189515e-06
9.0739864e-06
9.1301366e-06
9.1886031e-06
9.2506458e-06
9.3175599e-06
9.3906597e-06
9.4712546e-06
9.5606287e-06
9.6600324e-06
9.7706881e-06
9.8938037e-06
1.0030588e-05
1.0182283e-05
1.0350201e-05
1.053576e-05
1.0740534e-05
1.0966317e-05
1.121519e-05
1.1489604e-05
1.1792484e-05
1.212743e-05
1.2498818e-05
1.2912049e-05
1.3374056e-05
1.3893561e-05
1.4481681e-05
1.5153272e-05
1.5927712e-05
1.6830307e-05
1.7898032e-05
1.9179296e-05
2.0744705e-05
2.2706136e-05
2.5210909e-05
2.8536215e-05
3.309991e-05
3.9606249e-05
4.9266943e-05
6.4204522e-05
8.9049416e-05
0.00013172864
0.00021080178
0.00036028422
0.0006485401
0.0011902846
0.0020984296
0.0034401818
0.0052208925
0.0073557625
0.009702837
0.012120098
0.01449939
0.016769103
0.018885577
0.020825243
0.022578506
0.024145081
0.02553068
0.026744681
0.027798527
0.028704631
0.029475649
0.030124004
0.030661594
0.031099612
0.031448463
0.031717723
0.031916149
0.032051701
0.032131584
0.032162302
0.032149705
0.032099047
0.03201504
0.03190191
0.031763433
0.031603009
0.031423652
0.031228163
0.031018901
0.030798426
0.030568441
0.030331956
0.030090938
0.029844054
0.029635001
0.029225103
8.0143117e-06
8.0823272e-06
8.1539833e-06
8.2265744e-06
8.2978156e-06
8.36597e-06
8.430176e-06
8.4902782e-06
8.5465167e-06
8.5993357e-06
8.6492955e-06
8.6970149e-06
8.7431437e-06
8.788364e-06
8.8334047e-06
8.8790573e-06
8.9261729e-06
8.9756583e-06
9.0284726e-06
9.0856129e-06
9.1480945e-06
9.2169355e-06
9.2931482e-06
9.3777366e-06
9.4716962e-06
9.5760241e-06
9.6917357e-06
9.819884e-06
9.9615833e-06
1.0118043e-05
1.0290607e-05
1.0480793e-05
1.0690353e-05
1.0921351e-05
1.117625e-05
1.1458002e-05
1.177025e-05
1.2117504e-05
1.2505357e-05
1.2940958e-05
1.3433477e-05
1.399449e-05
1.4639715e-05
1.5389652e-05
1.6271566e-05
1.7325753e-05
1.860361e-05
2.0187567e-05
2.2200093e-05
2.4811916e-05
2.8362804e-05
3.3332477e-05
4.064161e-05
5.1730684e-05
6.9721766e-05
0.00010045385
0.00015619556
0.00026294042
0.00046767821
0.00086798822
0.0015717564
0.002654559
0.004143237
0.0059826944
0.0080536269
0.010224456
0.012389202
0.014475165
0.016436463
0.018246824
0.019893834
0.021374474
0.0226919
0.023853164
0.024867618
0.025745816
0.026498777
0.027137492
0.02767261
0.028114242
0.028471854
0.028754216
0.028969385
0.029124722
0.029226918
0.029282035
0.029295548
0.029272396
0.029217019
0.029133427
0.029025203
0.028895648
0.028747622
0.028584044
0.028407135
0.028220012
0.028025284
0.02782183
0.027650409
0.027299399
7.8644082e-06
7.9222597e-06
7.9831896e-06
8.0451553e-06
8.1063584e-06
8.1653308e-06
8.2212441e-06
8.273824e-06
8.3231316e-06
8.3694212e-06
8.4130639e-06
8.4544924e-06
8.4941654e-06
8.5325575e-06
8.5701644e-06
8.6075141e-06
8.6451716e-06
8.6837451e-06
8.7238934e-06
8.7663239e-06
8.8117835e-06
8.8610478e-06
8.9149125e-06
8.9741856e-06
9.0396804e-06
9.1122142e-06
9.1926124e-06
9.2817144e-06
9.3803839e-06
9.4895253e-06
9.6101017e-06
9.7431599e-06
9.889859e-06
1.0051511e-05
1.0229628e-05
1.0425972e-05
1.064264e-05
1.0882163e-05
1.1147612e-05
1.1442778e-05
1.1772415e-05
1.214242e-05
1.2560395e-05
1.3036121e-05
1.3582057e-05
1.4215433e-05
1.4958197e-05
1.5841329e-05
1.6909773e-05
1.8220923e-05
1.9875003e-05
2.2008859e-05
2.4852187e-05
2.8794602e-05
3.4501407e-05
4.3093973e-05
5.6709205e-05
7.9827345e-05
0.00012084483
0.00019983765
0.00035072716
0.00065360821
0.0012076374
0.002094097
0.0033510361
0.0049453265
0.0067778368
0.0087287767
0.010696726
0.012609924
0.014421854
0.016104807
0.017644532
0.019036037
0.02028051
0.021383124
0.022351481
0.023194544
0.023921897
0.024543252
0.025068127
0.025505639
0.025864379
0.026152355
0.026376962
0.026544985
0.026662617
0.026735495
0.026768725
0.02676694
0.026734313
0.026674674
0.02659141
0.026487839
0.026366713
0.026231323
0.026084871
0.025926627
0.025794105
0.02550348
7.716887e-06
7.766392e-06
7.8185135e-06
7.8717007e-06
7.9245418e-06
7.975811e-06
8.0247444e-06
8.0710071e-06
8.1145431e-06
8.155472e-06
8.1940288e-06
8.2305147e-06
8.2652616e-06
8.2986158e-06
8.3309333e-06
8.3625841e-06
8.3939546e-06
8.4254545e-06
8.4575261e-06
8.4906504e-06
8.5253461e-06
8.5621672e-06
8.6016999e-06
8.6445569e-06
8.6913719e-06
8.7427945e-06
8.7994895e-06
8.862135e-06
8.9314254e-06
9.0080765e-06
9.0928334e-06
9.1864817e-06
9.2898626e-06
9.4038933e-06
9.5295919e-06
9.6681068e-06
9.820757e-06
9.989083e-06
1.0174907e-05
1.0380413e-05
1.0608268e-05
1.0861724e-05
1.1144827e-05
1.1462676e-05
1.1821627e-05
1.2230016e-05
1.2698433e-05
1.3240775e-05
1.38764e-05
1.4629576e-05
1.5537113e-05
1.6649161e-05
1.8039047e-05
1.9822681e-05
2.2173125e-05
2.5395447e-05
2.9993034e-05
3.6891198e-05
4.7607881e-05
6.5651984e-05
9.7169635e-05
0.00015748014
0.0002743277
0.00051014189
0.00095572467
0.0016930622
0.0027668682
0.004159576
0.0057886409
0.0075458552
0.0093357359
0.011088965
0.012759661
0.014319714
0.015753869
0.017055817
0.018225295
0.019266001
0.020184109
0.020987237
0.021683731
0.022282177
0.022791078
0.023218648
0.023572677
0.023860466
0.024088788
0.02426389
0.024391492
0.024476827
0.024524652
0.024539333
0.024524799
0.024484794
0.024422604
0.024341756
0.024246003
0.024135166
0.024043221
0.023815119
7.5712321e-06
7.613838e-06
7.6586779e-06
7.704567e-06
7.7503986e-06
7.7951591e-06
7.8381639e-06
7.879057e-06
7.9177092e-06
7.9541464e-06
7.9885032e-06
8.0209827e-06
8.0518248e-06
8.0812871e-06
8.1096365e-06
8.1371465e-06
8.1640964e-06
8.190774e-06
8.2174832e-06
8.2445501e-06
8.2723265e-06
8.3011917e-06
8.3315549e-06
8.3638542e-06
8.3985546e-06
8.4361456e-06
8.4771393e-06
8.522068e-06
8.571483e-06
8.6259551e-06
8.6860765e-06
8.7524643e-06
8.8257673e-06
8.9066753e-06
8.9959311e-06
9.0943472e-06
9.202826e-06
9.3223861e-06
9.4541963e-06
9.5996169e-06
9.7602582e-06
9.9380439e-06
1.0135302e-05
1.0354894e-05
1.060033e-05
1.0876037e-05
1.118758e-05
1.1541985e-05
1.1948615e-05
1.2419196e-05
1.2969884e-05
1.3622406e-05
1.4406242e-05
1.5364494e-05
1.6557076e-05
1.8078798e-05
2.0072792e-05
2.2774475e-05
2.6591054e-05
3.2281883e-05
4.1032154e-05
5.5551914e-05
8.0831367e-05
0.00012871344
0.00022227218
0.00041180796
0.00077922495
0.0014040442
0.0023342422
0.0035626263
0.0050196364
0.0066077142
0.0082380061
0.0098447028
0.011383528
0.012826797
0.014158932
0.015372856
0.016467298
0.017444835
0.018310499