/*--------------------------------*- C++ -*----------------------------------*\
| =========                 |                                                 |
| \\      /  F ield         | OpenFOAM: The Open Source CFD Toolbox           |
|  \\    /   O peration     | Version:  2206                                  |
|   \\  /    A nd           | Website:  www.openfoam.com                      |
|    \\/     M anipulation  |                                                 |
\*---------------------------------------------------------------------------*/
FoamFile
{
    version     2.0;
    format      ascii;
    arch        "LSB;label=32;scalar=64";
    class       volScalarField;
    location    "1500";
    object      k;
}
// * * * * * * * * * * * * * * * * * * * * * * * * * * * * * * * * * * * * * //

dimensions      [0 2 -2 0 0 0 0];

internalField   nonuniform List<scalar> 
7480
(
0.032179911
0.062205441
0.068877442
0.06342834
0.054873181
0.047512015
0.042205671
0.038379359
0.035442812
0.033049868
0.031043075
0.029348912
0.027917595
0.026707264
0.025681708
0.024808128
0.024061474
0.023422209
0.022871837
0.022396674
0.021979434
0.021609211
0.021276667
0.020974181
0.020696682
0.020440006
0.020201261
0.01997759
0.019766439
0.019565668
0.019374069
0.019190845
0.019015122
0.01884618
0.018683199
0.01852575
0.018372778
0.018224042
0.018079168
0.017937722
0.0177994
0.017663922
0.017531075
0.017400718
0.017272684
0.017146854
0.017023064
0.016901144
0.016780998
0.016662522
0.016545636
0.016430288
0.016316411
0.016203971
0.016092903
0.015983163
0.015874715
0.015767497
0.015661453
0.015556543
0.015452765
0.015350104
0.015248531
0.015148025
0.015048566
0.01495014
0.014852712
0.014756259
0.014660768
0.014566226
0.014472617
0.014379924
0.014288133
0.014197237
0.014107219
0.014018062
0.013929751
0.013842272
0.01375561
0.013669752
0.013584682
0.013500385
0.013416845
0.013334042
0.013251959
0.013170569
0.013089851
0.013009765
0.012930286
0.01285133
0.012772906
0.012694754
0.012617117
0.012538976
0.01246179
0.012381485
0.012303881
0.012214906
0.01214369
0.012007018
0.002537278
0.0095630879
0.016657097
0.020687177
0.021734568
0.021465701
0.020831805
0.020183971
0.019551887
0.018923506
0.018314716
0.017750585
0.017245201
0.016800716
0.016413913
0.016071966
0.015773823
0.015517947
0.015298792
0.015108055
0.014939257
0.014786731
0.014645837
0.014513999
0.014390112
0.01427285
0.014161841
0.014055169
0.013951549
0.013850198
0.013751159
0.013654447
0.013559836
0.013467186
0.01337598
0.013286396
0.013197455
0.013109563
0.013022617
0.012936407
0.012850816
0.012765797
0.012681347
0.012597455
0.012514112
0.012431327
0.012349018
0.012267143
0.012185694
0.012104662
0.012024066
0.011943914
0.011864215
0.011784984
0.011706212
0.011627915
0.011550096
0.011472737
0.011395817
0.011319345
0.011243352
0.011167854
0.011092852
0.01101835
0.010944359
0.010870883
0.010797913
0.010725447
0.010653494
0.010582061
0.010511148
0.010440755
0.010370884
0.010301544
0.010232731
0.010164442
0.010096676
0.010029432
0.0099627087
0.0098965037
0.0098308141
0.0097656364
0.0097009661
0.0096367977
0.0095731243
0.0095099372
0.0094472258
0.0093849759
0.0093231708
0.0092617848
0.0092007923
0.0091401355
0.0090797881
0.0090195703
0.0089595545
0.0088990423
0.0088385779
0.0087751286
0.0087187432
0.0086165499
0.00022834856
0.00057870422
0.0013134931
0.0026346967
0.0042089357
0.005822369
0.0072754828
0.0085096892
0.0095742212
0.010502831
0.011299876
0.011960558
0.012488878
0.012902048
0.013223481
0.013481206
0.013690492
0.013859723
0.013994931
0.014100697
0.014181307
0.014240212
0.014279541
0.014302896
0.014313249
0.01431197
0.014303856
0.014287371
0.014263494
0.014232863
0.014197144
0.014157248
0.014113716
0.01406716
0.014017406
0.013965505
0.013910306
0.013853297
0.013794369
0.013733591
0.013671108
0.013607107
0.013541792
0.01347532
0.013407841
0.013339505
0.01327031
0.01320034
0.013129681
0.013058413
0.012986646
0.012914457
0.012841923
0.012769122
0.012696089
0.012622899
0.012549593
0.012476188
0.012402697
0.01232917
0.012255673
0.012182253
0.012108936
0.012035752
0.011962737
0.011889916
0.011817296
0.011744895
0.011672741
0.011600858
0.01152926
0.01145796
0.011386977
0.01131633
0.011246028
0.011176078
0.011106488
0.011037269
0.010968428
0.010899972
0.010831906
0.010764234
0.010696961
0.010630087
0.010563613
0.010497538
0.010431857
0.010366566
0.010301652
0.010237107
0.010172895
0.010109016
0.010045362
0.0099819875
0.0099185613
0.009855318
0.0097912901
0.0097264912
0.0096660471
0.0095603826
0.0001691071
0.0001815583
0.00021227809
0.00029245733
0.000457542
0.00070174982
0.0011552076
0.0017923499
0.0026161122
0.003536372
0.0044941203
0.0054741737
0.006464024
0.0074407786
0.0083730353
0.0092320287
0.0099995207
0.010670223
0.01124931
0.011746584
0.012171925
0.012534059
0.012841208
0.013100022
0.013317089
0.01349747
0.013646678
0.013769339
0.013868826
0.013948783
0.014011788
0.014060218
0.014096028
0.01412121
0.014136682
0.014144228
0.01414198
0.014133705
0.014118702
0.014097959
0.014072043
0.014041506
0.014006859
0.013968531
0.013926927
0.013882412
0.013835116
0.013785334
0.013733294
0.01367921
0.013623322
0.013565807
0.013506851
0.013446618
0.013385213
0.013322793
0.013259453
0.013195269
0.013130298
0.013064647
0.012998433
0.012931742
0.012864635
0.01279718
0.012729445
0.012661485
0.012593328
0.012525019
0.012456612
0.01238815
0.012319669
0.012251198
0.012182773
0.012114434
0.012046199
0.011978092
0.011910134
0.011842347
0.01177475
0.01170736
0.011640195
0.011573267
0.011506589
0.011440172
0.011374025
0.011308154
0.011242563
0.011177257
0.011112228
0.011047482
0.010982984
0.010918765
0.010854687
0.010790919
0.010726958
0.010663477
0.010598849
0.010534592
0.010473114
0.010368247
0.00017245739
0.00017516596
0.00017727448
0.00017969571
0.00018596375
0.00019820191
0.00022805327
0.00029189221
0.00039871897
0.00060018769
0.00091608389
0.0013529695
0.0019230716
0.002591112
0.0033470583
0.0041827053
0.0050808687
0.0060115656
0.0069366416
0.0078191738
0.0086326612
0.0093648115
0.010014932
0.010587926
0.011090325
0.011528397
0.011908735
0.012238031
0.012522957
0.012768998
0.01298073
0.013162334
0.013317503
0.013449151
0.013560257
0.01365382
0.013730654
0.013793291
0.013843322
0.013881837
0.013909975
0.013928909
0.013939619
0.013942936
0.013939661
0.013930501
0.01391595
0.013896414
0.013872298
0.013844036
0.013812067
0.013776725
0.013738329
0.013697177
0.013653517
0.013607632
0.013559699
0.013509874
0.013458287
0.013405129
0.013350585
0.013294801
0.013237888
0.013179969
0.01312116
0.013061552
0.013001208
0.012940212
0.012878652
0.012816599
0.012754115
0.012691256
0.012628082
0.012564657
0.012501018
0.012437206
0.012373262
0.012309223
0.012245126
0.012181001
0.012116878
0.012052785
0.011988745
0.011924781
0.011860913
0.011797158
0.01173353
0.011670043
0.011606701
0.01154352
0.011480472
0.011417613
0.011354793
0.011292256
0.011229411
0.011167198
0.011103634
0.011041182
0.01098054
0.010878517
0.00017477644
0.0001796924
0.00018202372
0.00018275363
0.00018290094
0.00018281058
0.00018295819
0.00018429547
0.00018863377
0.00020091544
0.0002286729
0.00028126324
0.00036657925
0.00051805359
0.00075135208
0.0010881865
0.0015386309
0.0020949515
0.0027568834
0.003517698
0.0043576199
0.0052433175
0.0061341234
0.0069925165
0.0077928057
0.0085230049
0.0091811209
0.0097699495
0.010294044
0.010758541
0.011168886
0.011530587
0.011848839
0.012128219
0.012372951
0.012587214
0.012773917
0.012936128
0.013076579
0.013197548
0.013301082
0.0133889
0.013462584
0.013523562
0.013573039
0.013612093
0.013641846
0.01366318
0.0136769
0.013683705
0.013684209
0.013678943
0.013668439
0.013653175
0.013633588
0.01361015
0.013583128
0.013552801
0.013519447
0.013483359
0.013444779
0.013403929
0.013360996
0.013316158
0.013269611
0.01322151
0.013171964
0.013121111
0.013069085
0.013015994
0.012961938
0.012907005
0.012851292
0.012794891
0.012737867
0.012680285
0.012622209
0.0125637
0.012504812
0.012445596
0.012386101
0.012326369
0.012266441
0.012206353
0.012146139
0.012085831
0.012025455
0.011965037
0.011904592
0.011844152
0.011783697
0.011723303
0.011662823
0.01160255
0.011541857
0.011481841
0.011420354
0.011360443
0.01130174
0.011203698
0.00017465118
0.00018123997
0.00018543836
0.00018745656
0.00018800056
0.00018782723
0.00018724938
0.0001864381
0.00018570338
0.00018501363
0.00018533642
0.00018708997
0.00019203193
0.00020383203
0.00022755322
0.00027108622
0.00034105052
0.00046424485
0.00065992774
0.00095002794
0.0013511073
0.0018628121
0.0024866121
0.0032133727
0.0040190873
0.004867075
0.0057165584
0.0065335456
0.0072971941
0.0079989322
0.008637508
0.0092147427
0.0097337662
0.01019854
0.010613531
0.01098347
0.011312528
0.011604654
0.011863576
0.012092635
0.012294837
0.012472838
0.012629021
0.012765542
0.012884302
0.012986986
0.013075184
0.013150289
0.013213545
0.013266053
0.013308784
0.013342652
0.013368426
0.013386803
0.013398441
0.013403866
0.013403676
0.013398365
0.013388393
0.013374136
0.013355953
0.013334175
0.013309081
0.013280959
0.013250091
0.0132167
0.013180952
0.013143061
0.013103209
0.013061567
0.013018293
0.012973532
0.0129274
0.012880021
0.0128315
0.012781941
0.012731436
0.012680075
0.012627939
0.012575102
0.012521635
0.012467604
0.012413066
0.012358079
0.012302693
0.012246955
0.012190908
0.012134594
0.012078042
0.012021297
0.011964355
0.011907309
0.011850023
0.011792822
0.011735079
0.011677975
0.011619319
0.011562498
0.011506487
0.011413253
0.00017303699
0.0001801692
0.00018546472
0.0001884906
0.00018987508
0.00019037044
0.00019020191
0.00018975266
0.00018906117
0.00018821868
0.00018736233
0.00018657496
0.00018596115
0.00018563809
0.00018615203
0.0001882636
0.00019338498
0.00020447103
0.00022612259
0.00026572654
0.00033103366
0.00044704694
0.00063570854
0.00091884481
0.0013129515
0.0018210787
0.0024418544
0.0031601035
0.003945576
0.0047589174
0.0055626735
0.0063301517
0.0070473156
0.0077090213
0.0083144928
0.0088650913
0.0093634066
0.0098128641
0.01021726
0.010580363
0.010905806
0.011197002
0.0114571
0.011688997
0.011895332
0.012078476
0.012240617
0.012383734
0.012509606
0.012619826
0.012715813
0.012798863
0.012870123
0.012930622
0.012981304
0.013022986
0.013056464
0.013082452
0.013101603
0.013114485
0.013121618
0.013123474
0.013120504
0.01311308
0.013101539
0.013086221
0.01306746
0.013045517
0.013020644
0.01299308
0.012963044
0.012930737
0.012896333
0.012860007
0.012821906
0.012782175
0.012740946
0.012698343
0.01265448
0.012609463
0.012563391
0.012516354
0.012468438
0.012419719
0.012370271
0.012320162
0.012269452
0.012218203
0.012166459
0.012114285
0.012061692
0.01200879
0.011955461
0.011902051
0.011847959
0.011794398
0.011739215
0.011685974
0.011633239
0.011545526
0.00017054634
0.00017747387
0.00018322504
0.00018699961
0.00018904061
0.00018991479
0.00019010377
0.00018995684
0.00018961595
0.00018914064
0.00018856648
0.00018789955
0.00018716571
0.00018643895
0.00018576919
0.000185174
0.00018470362
0.00018463813
0.00018545524
0.00018811611
0.00019380628
0.00020556873
0.00022848295
0.00026992544
0.00034198608
0.00046879645
0.00067498647
0.00098202755
0.0014005579
0.0019339805
0.0025739317
0.0032961627
0.0040643291
0.004840239
0.0055940582
0.0063081902
0.0069746125
0.007590487
0.0081555666
0.0086712572
0.0091400827
0.0095650972
0.0099494964
0.010296483
0.010609163
0.010890455
0.011143107
0.011369664
0.011572464
0.011753637
0.011915105
0.012058622
0.01218577
0.012297972
0.01239653
0.012482599
0.012557251
0.012621467
0.012676142
0.012722075
0.01275999
0.012790541
0.012814338
0.012831917
0.012843758
0.012850317
0.012852032
0.012849282
0.012842411
0.012831745
0.01281758
0.01280019
0.012779826
0.012756704
0.012731044
0.012703039
0.012672868
0.012640701
0.01260669
0.01257098
0.012533704
0.012494986
0.01245494
0.012413672
0.01237128
0.012327859
0.01228349
0.012238256
0.012192225
0.012145478
0.012098048
0.012050062
0.012001427
0.011952501
0.011902726
0.011853313
0.011802203
0.011753026
0.011704069
0.011622548
0.0001677325
0.0001739839
0.00017963291
0.00018381769
0.0001864379
0.00018783385
0.00018843337
0.0001885643
0.00018843321
0.00018815264
0.00018777647
0.00018732783
0.00018681739
0.00018626062
0.00018566783
0.00018504098
0.0001844182
0.00018380001
0.00018322784
0.00018277972
0.00018257645
0.0001828987
0.00018431812
0.00018783723
0.00019513361
0.00020975131
0.00023802591
0.0002879212
0.00037940632
0.00053671749
0.00078419216
0.0011392895
0.0016079526
0.0021863616
0.0028546642
0.0035792852
0.004322656
0.0050540003
0.0057540699
0.0064131482
0.0070269695
0.007594155
0.0081152015
0.0085918643
0.0090265586
0.0094219763
0.0097809316
0.010106228
0.010400567
0.010666506
0.010906424
0.011122526
0.011316841
0.011491221
0.011647363
0.011786798
0.011910935
0.012021066
0.012118374
0.01220393
0.012278702
0.012343569
0.012399339
0.012446739
0.012486423
0.012518998
0.012545036
0.012565048
0.012579499
0.012588818
0.012593401
0.01259361
0.012589779
0.012582203
0.012571168
0.012556931
0.012539732
0.012519791
0.012497313
0.012472488
0.01244549
0.012416485
0.01238562
0.012353039
0.012318869
0.012283233
0.012246243
0.012208005
0.012168612
0.012128169
0.012086731
0.012044446
0.012001247
0.011957503
0.01191271
0.011868057
0.011821609
0.011777
0.01173229
0.011657634
0.00016499782
0.00017036166
0.00017550942
0.00017971054
0.00018270045
0.00018457567
0.00018561523
0.00018610293
0.00018624552
0.0001861746
0.00018596976
0.00018567603
0.00018531798
0.00018491065
0.00018446436
0.0001839836
0.00018347721
0.00018294645
0.00018238612
0.00018182077
0.00018126703
0.00018075215
0.00018034097
0.00018012507
0.00018028737
0.00018119991
0.00018367005
0.0001888507
0.00019941209
0.00022037505
0.00025923324
0.00033070521
0.00045897477
0.00066963367
0.00098330954
0.0014081704
0.0019430258
0.0025703408
0.0032581753
0.0039699972
0.0046755755
0.0053556371
0.0059999179
0.0066033887
0.0071639728
0.0076815771
0.008157418
0.0085934259
0.0089919002
0.0093553192
0.0096861864
0.0099869543
0.010259971
0.010507444
0.010731437
0.01093385
0.011116444
0.011280844
0.011428552
0.01156094
0.011679255
0.011784635
0.011878124
0.011960669
0.01203313
0.012096297
0.012150904
0.01219762
0.012237052
0.012269758
0.012296252
0.012317004
0.012332447
0.012342971
0.012348942
0.012350698
0.012348546
0.012342773
0.012333645
0.012321405
0.01230628
0.012288482
0.012268203
0.012245625
0.012220916
0.012194231
0.012165716
0.012135507
0.012103726
0.012070504
0.012035925
0.012000155
0.011963164
0.011925326
0.011886201
0.011846943
0.011805762
0.011766256
0.011726261
0.011659164
0.00016255654
0.0001670136
0.00017146529
0.00017536322
0.00017842943
0.00018061626
0.00018204653
0.00018290801
0.00018336934
0.00018355707
0.00018356058
0.00018343884
0.0001832293
0.00018295555
0.00018263355
0.00018227363
0.00018188314
0.00018146667
0.00018102418
0.00018055985
0.00018007726
0.00017957903
0.00017906803
0.00017857427
0.00017812221
0.00017775579
0.00017756798
0.00017769278
0.00017842376
0.00018038726
0.00018462968
0.00019321597
0.00021042209
0.0002433308
0.00030443649
0.00041745241
0.0006083509
0.00089880086
0.0012984203
0.0018066927
0.002406245
0.0030654776
0.003749079
0.0044285258
0.0050857466
0.0057107992
0.006298488
0.0068464773
0.0073543909
0.0078231065
0.008254209
0.0086496896
0.0090117388
0.0093426003
0.0096444954
0.0099195619
0.010169835
0.010397235
0.010603562
0.010790485
0.010959544
0.011112153
0.011249613
0.011373121
0.011483765
0.011582547
0.011670392
0.011748147
0.011816589
0.011876426
0.01192831
0.01197284
0.012010568
0.012041995
0.012067585
0.012087767
0.012102933
0.012113447
0.012119647
0.012121843
0.012120321
0.012115349
0.012107173
0.01209602
0.012082104
0.012065623
0.012046757
0.012025682
0.012002551
0.011977527
0.011950726
0.011922338
0.011892369
0.011861202
0.011828466
0.011795276
0.011759993
0.011726168
0.011691374
0.011632569
0.00016047661
0.00016411626
0.00016784114
0.00017126135
0.00017415186
0.00017642064
0.00017809087
0.00017925446
0.00018001845
0.00018047989
0.00018071916
0.00018079723
0.00018075799
0.00018063203
0.00018044104
0.00018020052
0.00017992103
0.00017960994
0.00017927151
0.00017890903
0.00017852509
0.00017812144
0.00017769802
0.00017725979
0.00017681225
0.00017635937
0.00017591984
0.00017552411
0.00017521183
0.00017506918
0.00017522308
0.00017592635
0.00017771528
0.00018157681
0.0001893129
0.00020491376
0.00023523755
0.00029252568
0.00040017213
0.00058456514
0.00086686584
0.0012571278
0.0017535074
0.0023367827
0.0029747118
0.0036336037
0.0042876425
0.0049208099
0.00552406
0.0060924777
0.006623822
0.0071176742
0.0075747364
0.0079963705
0.0083843293
0.0087405593
0.0090670838
0.0093659246
0.0096390531
0.0098883566
0.010115616
0.010322502
0.010510567
0.010681258
0.010835905
0.010975736
0.011101889
0.011215409
0.011317259
0.011408321
0.011489407
0.011561264
0.01162458
0.011679984
0.011728055
0.011769329
0.0118043
0.011833421
0.011857112
0.011875763
0.011889731
0.011899349
0.011904924
0.011906741
0.011905064
0.011900139
0.011892194
0.011881443
0.011868081
0.011852306
0.011834268
0.011814188
0.011792113
0.011768436
0.011742858
0.011716452
0.011687739
0.011660222
0.011631147
0.011581415
0.00015874281
0.0001616958
0.00016475848
0.00016765683
0.00017022592
0.00017238201
0.00017410982
0.00017544048
0.00017642511
0.00017712106
0.00017758537
0.00017786842
0.00017801148
0.0001780467
0.00017799876
0.00017788656
0.00017772374
0.00017752029
0.00017728337
0.00017701811
0.00017672818
0.00017641622
0.00017608364
0.00017573199
0.00017536324
0.00017497843
0.00017458074
0.00017417665
0.00017377331
0.0001733832
0.00017304257
0.00017279151
0.00017271221
0.00017293464
0.00017369693
0.00017551616
0.00017936447
0.00018703507
0.00020257752
0.00023289663
0.00029151806
0.00040195375
0.00059118148
0.00087832804
0.0012726522
0.0017689632
0.0023444927
0.0029662539
0.0036030134
0.0042324455
0.0048410081
0.005420891
0.0059677992
0.0064798173
0.0069566072
0.0073988024
0.0078076391
0.0081847056
0.0085317752
0.0088506968
0.0091433213
0.0094114573
0.0096568406
0.0098811201
0.010085845
0.01027246
0.010442314
0.010596659
0.010736655
0.01086337
0.010977793
0.011080835
0.011173337
0.011256071
0.011329751
0.011395035
0.011452528
0.01150279
0.011546339
0.011583652
0.01161517
0.011641303
0.011662428
0.011678896
0.01169103
0.011699135
0.011703488
0.011704353
0.01170197
0.011696578
0.011688369
0.011677597
0.011664354
0.011649046
0.011631451
0.011612605
0.011591182
0.01157065
0.011547855
0.011508042
0.00015730662
0.0001597041
0.00016220649
0.00016461881
0.00016682161
0.00016875219
0.00017039138
0.00017174609
0.00017283458
0.00017368201
0.00017431928
0.00017477895
0.00017509193
0.00017528551
0.00017538293
0.00017540344
0.00017536202
0.00017527028
0.00017513721
0.0001749696
0.00017477254
0.00017454973
0.0001743038
0.00017403667
0.0001737499
0.00017344454
0.00017312175
0.00017278339
0.00017243159
0.00017206867
0.00017170247
0.00017134268
0.0001710013
0.00017071693
0.00017053228
0.00017053227
0.00017085726
0.00017175485
0.00017378058
0.00017793318
0.0001862277
0.00020309991
0.00023585229
0.00030074904
0.00042198966
0.00062676724
0.00093058576
0.0013400949
0.0018446147
0.0024172029
0.0030251443
0.0036409203
0.0042461621
0.004829802
0.005385349
0.005909302
0.0064001931
0.006857856
0.007282947
0.0076766383
0.0080404046
0.0083758833
0.0086847766
0.0089687905
0.0092295911
0.0094687778
0.0096878711
0.0098883059
0.010071428
0.010238491
0.010390664
0.010529031
0.010654596
0.010768289
0.010870968
0.010963427
0.0110464
0.011120565
0.011186549
0.011244931
0.011296247
0.011340994
0.01137963
0.011412581
0.011440241
0.011462977
0.011481128
0.011495013
0.011504924
0.011511147
0.011513922
0.011513539
0.011510143
0.011504156
0.011495436
0.011484986
0.01147163
0.011458821
0.011442918
0.011413938
0.00015611435
0.00015806968
0.00016011577
0.000162111
0.00016396613
0.00016563487
0.00016710402
0.00016837662
0.00016945944
0.00017036101
0.00017109373
0.0001716734
0.00017211785
0.00017244541
0.00017267376
0.00017281915
0.00017289543
0.00017291403
0.00017288443
0.00017281426
0.00017270948
0.00017257467
0.00017241331
0.00017222802
0.00017202078
0.00017179301
0.00017154586
0.00017128043
0.00017099782
0.00017069893
0.00017038587
0.00017006179
0.0001697295
0.00016939799
0.00016907873
0.00016878678
0.00016856168
0.00016845217
0.00016855563
0.00016902533
0.00017014702
0.00017257326
0.00017737998
0.00018706483
0.00020683051
0.00024489946
0.00032167119
0.00046293769
0.00069226306
0.0010231998
0.0014562525
0.0019735003
0.0025446088
0.0031390335
0.0037339941
0.004315036
0.0048733952
0.0054039417
0.0059040196
0.006372617
0.006809782
0.0072162472
0.0075931667
0.0079419428
0.0082641053
0.0085612302
0.0088348895
0.0090866183
0.0093178939
0.0095301221
0.0097246307
0.009902667
0.010065398
0.010213912
0.01034922
0.010472259
0.010583902
0.010684956
0.010776168
0.010858231
0.010931787
0.010997431
0.011055711
0.01110714
0.011152191
0.011191303
0.011224883
0.011253315
0.011276949
0.011296125
0.011311136
0.011322318
0.011329868
0.011334234
0.011335355
0.011334206
0.01132976
0.011325476
0.011317133
0.011299985
0.00015511864
0.00015672324
0.00015840358
0.000160055
0.00016160818
0.00016302651
0.00016430116
0.00016543684
0.00016643963
0.00016731387
0.00016806399
0.00016869569
0.00016921652
0.00016963572
0.00016996377
0.00017021176
0.00017039013
0.00017050836
0.00017057487
0.00017059692
0.00017058053
0.00017053053
0.00017045083
0.00017034447
0.00017021382
0.00017006069
0.00016988648
0.00016969233
0.00016947921
0.00016924788
0.00016899925
0.00016873465
0.00016845522
0.00016816348
0.00016786343
0.00016755918
0.00016726082
0.00016698166
0.00016674112
0.00016658347
0.00016656531
0.00016680839
0.00016748255
0.00016895011
0.00017202576
0.0001779615
0.00019007595
0.00021450526
0.00026346211
0.00035948892
0.00053007305
0.00079392728
0.0011602513
0.0016207887
0.0021504465
0.0027181269
0.0032976009
0.0038711036
0.0044275611
0.0049602319
0.0054652893
0.0059408822
0.0063864496
0.0068022729
0.0071891704
0.0075482899
0.0078809687
0.0081886411
0.0084727751
0.0087348291
0.0089762244
0.0091983272
0.0094024387
0.0095897885
0.0097615321
0.0099187515
0.010062457
0.010193591
0.010313029
0.010421585
0.010520016
0.010609024
0.010689261
0.010761331
0.010825796
0.010883177
0.01093396
0.010978597
0.011017507
0.011051089
0.011079699
0.01110372
0.011123411
0.011139248
0.011151257
0.011160393
0.01116577
0.011170882
0.011170833
0.011166608
0.00015428118
0.00015560657
0.00015699461
0.00015836706
0.00015966869
0.00016086835
0.00016195832
0.00016294381
0.0001638323
0.00016462929
0.00016533836
0.00016596203
0.00016650281
0.00016696399
0.00016735016
0.00016766707
0.00016792098
0.00016811818
0.00016826489
0.00016836688
0.0001684293
0.00016845653
0.00016845226
0.00016841956
0.00016836088
0.00016827817
0.00016817301
0.00016804664
0.00016790009
0.00016773416
0.00016754958
0.00016734713
0.00016712751
0.0001668917
0.0001666413
0.00016637797
0.00016610484
0.00016582665
0.00016554908
0.00016528431
0.00016504802
0.00016486612
0.00016479074
0.00016489154
0.00016532443
0.00016629281
0.00016830144
0.0001723056
0.00018024468
0.00019653463
0.00022872478
0.00029491398
0.00042065481
0.00062994988
0.00093760217
0.0013440988
0.0018310709
0.0023689841
0.0029294388
0.0034917516
0.0040426424
0.0045738431
0.0050804157
0.0055596935
0.0060105162
0.0064327159
0.006826772
0.0071935767
0.007534275
0.0078501555
0.0081425751
0.0084129077
0.0086625112
0.0088927041
0.0091047514
0.0092998562
0.0094791558
0.0096437203
0.0097945528
0.0099325918
0.010058713
0.010173732
0.010278409
0.010373451
0.010459516
0.010537215
0.010607119
0.010669759
0.010725627
0.010775193
0.010818878
0.010857121
0.010890249
0.010918772
0.010942805
0.010963292
0.010979484
0.01099494
0.011003987
0.011013874
0.00015357196
0.0001546736
0.00015582717
0.00015697379
0.00015806901
0.00015908533
0.00016001441
0.00016085996
0.00016162949
0.00016232988
0.00016296625
0.0001635418
0.00016405831
0.00016451698
0.0001649193
0.00016526742
0.00016556411
0.00016581255
0.00016601634
0.0001661792
0.00016630474
0.00016639626
0.0001664567
0.00016648865
0.00016649427
0.00016647534
0.00016643336
0.00016636956
0.00016628493
0.0001661803
0.00016605634
0.00016591368
0.00016575286
0.00016557444
0.00016537918
0.00016516792
0.00016494188
0.00016470296
0.00016445343
0.00016419735
0.00016394045
0.00016369052
0.00016346288
0.00016327636
0.00016316891
0.00016319852
0.00016346647
0.00016415072
0.00016556408
0.00016843728
0.00017395339
0.00018518443
0.00020799916
0.00025466837
0.00034758629
0.00051405094
0.00077220973
0.0011297232
0.0015752524
0.0020823433
0.0026217417
0.0031704335
0.0037131203
0.0042401089
0.0047454304
0.0052256568
0.0056790632
0.0061050576
0.0065037995
0.0068759366
0.0072224264
0.0075444114
0.0078431352
0.0081198839
0.0083759461
0.0086125862
0.0088310276
0.0090324419
0.0092179426
0.0093885824
0.0095453521
0.0096891814
0.0098209408
0.0099414438
0.01005145
0.010151668
0.010242758
0.010325339
0.010399985
0.01046724
0.010527598
0.010581561
0.01062953
0.010672055
0.010709343
0.010742338
0.010770422
0.010797249
0.01081627
0.01084157
0.00015296758
0.00015388858
0.00015485284
0.0001558159
0.00015674193
0.00015760657
0.00015840055
0.00015912525
0.00015978663
0.00016039157
0.00016094622
0.00016145523
0.00016192156
0.00016234683
0.00016273198
0.00016307785
0.00016338531
0.00016365549
0.00016388988
0.00016409029
0.00016425867
0.00016439696
0.00016450705
0.00016459067
0.00016464937
0.00016468448
0.00016469718
0.00016468843
0.00016465907
0.00016460979
0.00016454117
0.00016445372
0.00016434786
0.000164224
0.00016408257
0.00016392403
0.00016374896
0.0001635582
0.00016335279
0.00016313433
0.0001629052
0.00016266847
0.00016242955
0.00016219537
0.00016197767
0.00016179435
0.00016167205
0.00016165879
0.00016183014
0.00016234139
0.0001634027
0.00016552547
0.00016966741
0.00017788366
0.0001947449
0.00022857021
0.00029888112
0.00043193844
0.00064967486
0.00096474714
0.0013721638
0.0018492721
0.0023670282
0.0029007745
0.0034335048
0.0039542675
0.0044561786
0.0049351298
0.0053888902
0.0058164855
0.0062177816
0.0065931988
0.006943516
0.0072697355
0.0075729891
0.0078544737
0.0081154067
0.0083569961
0.0085804207
0.0087868166
0.00897727
0.0091528117
0.0093144163
0.0094630013
0.0095994283
0.0097245054
0.0098389889
0.0099435877
0.010038963
0.01012574
0.010204494
0.010275794
0.010340119
0.010398069
0.010449946
0.010496701
0.010537844
0.010577154
0.010607106
0.010649238
0.00015244973
0.0001532238
0.00015403411
0.00015484699
0.00015563365
0.00015637273
0.00015705442
0.0001576779
0.00015824698
0.00015876732
0.00015924494
0.00015968518
0.00016009214
0.00016046863
0.0001608164
0.0001611365
0.00016142954
0.00016169588
0.00016193598
0.0001621504
0.00016233984
0.00016250508
0.00016264695
0.00016276629
0.00016286387
0.00016294041
0.00016299655
0.00016303287
0.00016304986
0.00016304795
0.00016302751
0.00016298886
0.00016293226
0.00016285797
0.00016276622
0.00016265726
0.00016253136
0.00016238892
0.0001622304
0.00016205651
0.00016186827
0.00016166704
0.00016145504
0.00016123521
0.00016101209
0.00016079246
0.00016058583
0.00016040768
0.00016028031
0.0001602442
0.00016036163
0.00016074716
0.00016159399
0.00016326115
0.00016655115
0.00017283476
0.0001857092
0.0002117763
0.00026643938
0.00037430318
0.00055973311
0.00083901495
0.0012125771
0.0016617423
0.002158365
0.002676742
0.003198503
0.0037116437
0.0042085123
0.0046844251
0.0051367158
0.0055640757
0.0059661106
0.0063430352
0.0066954648
0.0070242697
0.0073304753
0.0076151919
0.0078795671
0.0081247521
0.0083518795
0.008562048
0.0087563135
0.008935683
0.0091011117
0.0092535028
0.0093937069
0.0095225253
0.009640709
0.0097489685
0.0098479617
0.0099383345
0.010020647
0.010095554
0.010163457
0.010225325
0.010280788
0.010333785
0.010375708
0.01043622
0.0001520039
0.00015265764
0.00015334187
0.00015403105
0.00015470211
0.00015533659
0.00015592467
0.00015646388
0.00015695601
0.00015740504
0.00015781601
0.000158194
0.00015854352
0.0001588682
0.00015917074
0.00015945302
0.0001597162
0.00015996091
0.00016018749
0.00016039614
0.00016058699
0.00016076015
0.00016091572
0.00016105384
0.00016117461
0.00016127815
0.00016136456
0.00016143393
0.00016148636
0.0001615219
0.00016154064
0.00016154262
0.00016152787
0.00016149646
0.00016144842
0.0001613838
0.00016130268
0.00016120517
0.00016109143
0.00016096174
0.0001608165
0.00016065631
0.00016048211
0.00016029521
0.00016009758
0.00015989213
0.0001596829
0.00015947605
0.00015928003
0.0001591088
0.00015898277
0.00015893508
0.00015901858
0.00015932627
0.00016003966
0.00016141538
0.00016409757
0.0001691991
0.00017950747
0.00020055571
0.00024449908
0.00033361965
0.00049397299
0.00074405845
0.0010886461
0.0015127549
0.0019895408
0.0024927937
0.0030031527
0.0035077879
0.0039984357
0.0044699481
0.0049193011
0.0053449066
0.005746148
0.0061230611
0.0064761151
0.006806061
0.007113826
0.0074004394
0.0076669815
0.0079145481
0.0081442256
0.0083570749
0.0085541206
0.0087363445
0.0089046818
0.0090600202
0.0092031983
0.0093350116
0.0094562038
0.0095674981
0.0096695411
0.0097630472
0.0098485203
0.0099269546
0.0099980981
0.010066079
0.0101211
0.010201673
0.00015161853
0.00015217306
0.00015275336
0.00015333998
0.00015391451
0.00015446118
0.00015497061
0.00015543928
0.00015586735
0.00015625724
0.00015661268
0.00015693793
0.00015723722
0.00015751433
0.00015777248
0.00015801422
0.00015824142
0.00015845535
0.0001586568
0.0001588462
0.00015902373
0.00015918938
0.00015934299
0.00015948436
0.00015961322
0.00015972926
0.00015983218
0.00015992167
0.00015999744
0.0001600592
0.0001601067
0.00016013969
0.00016015794
0.00016016127
0.00016014948
0.00016012242
0.00016007997
0.00016002202
0.00015994851
0.00015985944
0.00015975489
0.00015963501
0.00015950015
0.00015935085
0.00015918795
0.00015901274
0.00015882705
0.00015863363
0.0001584362
0.00015824054
0.00015805485
0.00015789154
0.00015776904
0.00015771588
0.00015778323
0.00015804571
0.00015865743
0.00015984553
0.00016213234
0.00016648614
0.00017512612
0.00019276547
0.0002292816
0.0003050091
0.00044626865
0.00067313413
0.00099372255
0.0013961692
0.0018550083
0.0023439182
0.0028429098
0.0033385709
0.0038221913
0.0042882762
0.0047335264
0.0051561327